/*--------------------------------*- C++ -*----------------------------------*\
| =========                 |                                                 |
| \\      /  F ield         | OpenFOAM: The Open Source CFD Toolbox           |
|  \\    /   O peration     | Version:  2112                                  |
|   \\  /    A nd           | Website:  www.openfoam.com                      |
|    \\/     M anipulation  |                                                 |
\*---------------------------------------------------------------------------*/
FoamFile
{
    version     2.0;
    format      ascii;
    arch        "LSB;label=32;scalar=64";
    class       volScalarField;
    location    "13";
    object      p;
}
// * * * * * * * * * * * * * * * * * * * * * * * * * * * * * * * * * * * * * //

dimensions      [0 2 -2 0 0 0 0];

internalField   nonuniform List<scalar> 
50000
(
-3.87801e-16
7.8775e-15
1.48387e-14
1.94539e-14
2.26503e-14
2.51267e-14
2.72179e-14
2.89019e-14
3.02735e-14
3.1555e-14
3.27975e-14
3.38539e-14
3.48719e-14
3.57899e-14
3.66773e-14
3.76409e-14
3.85228e-14
3.92246e-14
3.98763e-14
4.03818e-14
4.08987e-14
4.14876e-14
4.21111e-14
4.28608e-14
4.35828e-14
4.4242e-14
4.48612e-14
4.55583e-14
4.64864e-14
4.72276e-14
4.80735e-14
4.89009e-14
4.97225e-14
5.05644e-14
5.14397e-14
5.21584e-14
5.30906e-14
5.39666e-14
5.48416e-14
5.5879e-14
5.68119e-14
5.78471e-14
5.87129e-14
5.96874e-14
6.07125e-14
6.15391e-14
6.25393e-14
6.38069e-14
6.47717e-14
6.57375e-14
6.69741e-14
6.82063e-14
6.94366e-14
7.04437e-14
7.15687e-14
7.2908e-14
7.38855e-14
7.52709e-14
7.66656e-14
7.77909e-14
7.90148e-14
8.03088e-14
8.15584e-14
8.26811e-14
8.3883e-14
8.49309e-14
8.60773e-14
8.70983e-14
8.80191e-14
8.92612e-14
9.03436e-14
9.12797e-14
9.22911e-14
9.36376e-14
9.48065e-14
9.56404e-14
9.69968e-14
9.84764e-14
9.95153e-14
1.0064e-13
1.02026e-13
1.03387e-13
1.04571e-13
1.05893e-13
1.07185e-13
1.08077e-13
1.0919e-13
1.10282e-13
1.11352e-13
1.12488e-13
1.13484e-13
1.14546e-13
1.1569e-13
1.16813e-13
1.1796e-13
1.19267e-13
1.2005e-13
1.20889e-13
1.22311e-13
1.23298e-13
1.23984e-13
1.25017e-13
1.26146e-13
1.27138e-13
1.27881e-13
1.28868e-13
1.29885e-13
1.30706e-13
1.31406e-13
1.32219e-13
1.33462e-13
1.34483e-13
1.35167e-13
1.35755e-13
1.36792e-13
1.3798e-13
1.38662e-13
1.39101e-13
1.39935e-13
1.40933e-13
1.41788e-13
1.42455e-13
1.43106e-13
1.44159e-13
1.45128e-13
1.45614e-13
1.46461e-13
1.47479e-13
1.48135e-13
1.48961e-13
1.49852e-13
1.50743e-13
1.51549e-13
1.52962e-13
1.53955e-13
1.54522e-13
1.55458e-13
1.56396e-13
1.56825e-13
1.57602e-13
1.58768e-13
1.59298e-13
1.59311e-13
1.59789e-13
1.60975e-13
1.61488e-13
1.61729e-13
1.62833e-13
1.63382e-13
1.63383e-13
1.64137e-13
1.64424e-13
1.64602e-13
1.65651e-13
1.65928e-13
1.66119e-13
1.66886e-13
1.6702e-13
1.67235e-13
1.67404e-13
1.68064e-13
1.68699e-13
1.69043e-13
1.69362e-13
1.69864e-13
1.70186e-13
1.70359e-13
1.70945e-13
1.70462e-13
1.70555e-13
1.71346e-13
1.71029e-13
1.71028e-13
1.71617e-13
1.71698e-13
1.71533e-13
1.715e-13
1.71931e-13
1.71984e-13
1.71579e-13
1.71875e-13
1.71926e-13
1.71757e-13
1.71857e-13
1.71438e-13
1.71546e-13
1.71671e-13
1.71156e-13
1.70953e-13
1.70842e-13
1.70667e-13
1.70206e-13
1.69473e-13
1.68514e-13
1.68257e-13
1.68132e-13
1.67562e-13
1.67446e-13
1.67646e-13
1.67044e-13
1.66266e-13
1.66148e-13
1.6511e-13
1.64855e-13
1.64643e-13
1.64503e-13
1.64945e-13
1.64541e-13
1.63867e-13
1.63655e-13
1.63428e-13
1.63471e-13
1.63612e-13
1.6305e-13
1.63331e-13
1.62957e-13
1.62696e-13
1.62397e-13
1.61817e-13
1.61737e-13
1.6205e-13
1.62157e-13
1.61776e-13
1.61739e-13
1.61319e-13
1.61156e-13
1.60999e-13
1.60712e-13
1.60732e-13
1.61126e-13
1.61415e-13
1.61643e-13
1.6135e-13
1.61258e-13
1.61535e-13
1.61026e-13
1.60968e-13
1.61056e-13
1.61339e-13
1.6124e-13
1.61239e-13
1.61361e-13
1.60835e-13
1.60469e-13
1.61099e-13
1.61147e-13
1.60829e-13
1.61314e-13
1.61121e-13
1.61145e-13
1.61184e-13
1.6099e-13
1.60694e-13
1.61277e-13
1.61388e-13
1.60931e-13
1.61262e-13
1.61321e-13
1.60895e-13
1.61106e-13
1.60758e-13
1.60416e-13
1.61225e-13
1.60853e-13
1.61193e-13
1.60809e-13
1.59582e-13
1.60284e-13
1.5961e-13
1.58083e-13
1.5927e-13
1.59064e-13
1.5809e-13
1.58069e-13
1.57114e-13
1.57104e-13
1.56307e-13
1.55149e-13
1.54813e-13
1.54868e-13
1.5441e-13
1.53712e-13
1.52597e-13
1.51693e-13
1.51779e-13
1.50141e-13
1.49885e-13
1.49816e-13
1.48161e-13
1.47727e-13
1.47883e-13
1.46594e-13
1.45939e-13
1.4552e-13
1.43728e-13
1.43969e-13
1.44618e-13
1.43179e-13
1.42531e-13
1.42014e-13
1.40209e-13
1.40175e-13
1.39275e-13
1.37538e-13
1.38258e-13
1.37923e-13
1.362e-13
1.36257e-13
1.35355e-13
1.33407e-13
1.33109e-13
1.33003e-13
1.31356e-13
1.30533e-13
1.30061e-13
1.2865e-13
1.27908e-13
1.26804e-13
1.25289e-13
1.23713e-13
1.22757e-13
1.22304e-13
1.21539e-13
1.20117e-13
1.18348e-13
1.17811e-13
1.1678e-13
1.15404e-13
1.13673e-13
1.12895e-13
1.13093e-13
1.11269e-13
1.09624e-13
1.09254e-13
1.07326e-13
1.0613e-13
1.06311e-13
1.04143e-13
1.03676e-13
1.04179e-13
1.02831e-13
1.02137e-13
1.01437e-13
1.00058e-13
9.88665e-14
9.85999e-14
9.83085e-14
9.80119e-14
9.69727e-14
9.56738e-14
9.53089e-14
9.47078e-14
9.32433e-14
9.1999e-14
9.1867e-14
9.16917e-14
9.1388e-14
9.0335e-14
8.89802e-14
8.85381e-14
8.75523e-14
8.75352e-14
8.64071e-14
8.50598e-14
8.57192e-14
8.48914e-14
8.40025e-14
8.34194e-14
8.27315e-14
8.12464e-14
8.1358e-14
8.17054e-14
8.09294e-14
7.99227e-14
7.88891e-14
7.87078e-14
7.78007e-14
7.74845e-14
7.61123e-14
7.5883e-14
7.61686e-14
7.55014e-14
7.4408e-14
7.36732e-14
7.32675e-14
7.18221e-14
7.19216e-14
7.04897e-14
6.95872e-14
6.95546e-14
6.87409e-14
6.75723e-14
6.71736e-14
6.67731e-14
6.47011e-14
6.43334e-14
6.49797e-14
6.45185e-14
6.35307e-14
6.25681e-14
6.13875e-14
6.05342e-14
6.1749e-14
6.1238e-14
6.01489e-14
5.85574e-14
5.84036e-14
5.97162e-14
5.81177e-14
5.64543e-14
5.61725e-14
5.7525e-14
5.62838e-14
5.55689e-14
5.562e-14
5.50881e-14
5.53396e-14
5.42458e-14
5.31761e-14
5.32021e-14
5.40691e-14
5.28624e-14
5.08192e-14
5.16651e-14
5.14389e-14
5.01805e-14
4.9472e-14
4.90588e-14
4.84985e-14
4.86216e-14
4.77303e-14
4.5837e-14
4.67954e-14
4.74055e-14
4.55346e-14
4.35528e-14
4.47772e-14
4.4514e-14
4.40718e-14
4.38694e-14
4.18206e-14
4.2764e-14
4.22426e-14
4.13819e-14
4.01268e-14
4.00542e-14
4.03271e-14
3.93804e-14
3.92732e-14
3.80581e-14
3.81203e-14
3.75625e-14
3.74885e-14
3.63339e-14
3.61335e-14
3.59775e-14
3.47306e-14
3.43394e-14
3.41952e-14
3.50989e-14
3.29518e-14
3.25629e-14
3.2381e-14
3.2439e-14
3.35913e-14
3.17499e-14
3.08825e-14
3.13456e-14
3.16146e-14
3.04795e-14
3.04244e-14
2.97832e-14
2.94575e-14
2.98276e-14
2.88402e-14
2.89017e-14
2.90461e-14
3.01281e-14
2.94366e-14
2.88963e-14
2.91972e-14
2.98417e-14
3.01346e-14
2.91125e-14
3.01208e-14
2.93868e-14
2.92691e-14
2.89547e-14
2.77743e-14
2.88542e-14
2.8807e-14
2.70113e-14
2.60226e-14
2.63731e-14
2.49363e-14
2.37506e-14
2.16244e-14
1.85458e-14
1.52218e-14
8.17063e-15
4.91141e-15
9.85679e-15
1.5577e-14
1.97776e-14
2.28182e-14
2.52229e-14
2.73101e-14
2.89562e-14
3.03069e-14
3.15805e-14
3.28068e-14
3.38283e-14
3.48905e-14
3.57841e-14
3.66723e-14
3.76517e-14
3.85164e-14
3.92151e-14
3.98843e-14
4.04034e-14
4.08897e-14
4.14392e-14
4.21117e-14
4.28591e-14
4.3576e-14
4.42393e-14
4.48704e-14
4.55638e-14
4.64385e-14
4.72171e-14
4.80966e-14
4.88444e-14
4.96995e-14
5.06161e-14
5.14114e-14
5.21021e-14
5.30902e-14
5.39645e-14
5.48207e-14
5.58538e-14
5.684e-14
5.7803e-14
5.86995e-14
5.97455e-14
6.06773e-14
6.15708e-14
6.25673e-14
6.37937e-14
6.47475e-14
6.57466e-14
6.70019e-14
6.82434e-14
6.93995e-14
7.0413e-14
7.16207e-14
7.29105e-14
7.3871e-14
7.523e-14
7.66083e-14
7.78304e-14
7.90494e-14
8.02654e-14
8.15635e-14
8.27222e-14
8.38271e-14
8.49673e-14
8.60838e-14
8.70898e-14
8.80723e-14
8.92228e-14
9.02878e-14
9.13198e-14
9.23642e-14
9.36241e-14
9.47809e-14
9.57433e-14
9.69949e-14
9.83926e-14
9.95203e-14
1.00676e-13
1.02024e-13
1.0338e-13
1.04628e-13
1.05874e-13
1.07078e-13
1.08206e-13
1.09258e-13
1.1018e-13
1.11359e-13
1.12501e-13
1.13486e-13
1.14608e-13
1.15707e-13
1.16801e-13
1.17967e-13
1.19149e-13
1.20076e-13
1.20977e-13
1.22317e-13
1.23291e-13
1.2401e-13
1.25088e-13
1.26124e-13
1.27144e-13
1.27946e-13
1.28728e-13
1.2986e-13
1.30794e-13
1.3145e-13
1.32308e-13
1.33411e-13
1.34326e-13
1.35207e-13
1.35875e-13
1.36838e-13
1.37935e-13
1.3854e-13
1.39103e-13
1.40031e-13
1.40955e-13
1.41795e-13
1.42486e-13
1.43206e-13
1.44136e-13
1.44948e-13
1.45691e-13
1.46557e-13
1.47429e-13
1.48118e-13
1.48969e-13
1.49756e-13
1.50746e-13
1.5172e-13
1.52881e-13
1.53873e-13
1.54614e-13
1.55544e-13
1.56335e-13
1.5687e-13
1.57643e-13
1.58636e-13
1.59255e-13
1.59307e-13
1.59862e-13
1.61016e-13
1.61522e-13
1.6182e-13
1.62811e-13
1.63295e-13
1.6352e-13
1.64037e-13
1.64334e-13
1.64794e-13
1.65545e-13
1.65875e-13
1.66192e-13
1.66742e-13
1.67001e-13
1.67356e-13
1.675e-13
1.68064e-13
1.68661e-13
1.68986e-13
1.69379e-13
1.69876e-13
1.70205e-13
1.70432e-13
1.70746e-13
1.70627e-13
1.70668e-13
1.71118e-13
1.71211e-13
1.71196e-13
1.71346e-13
1.71706e-13
1.71581e-13
1.71511e-13
1.72012e-13
1.71961e-13
1.71595e-13
1.71809e-13
1.71869e-13
1.71766e-13
1.71849e-13
1.71619e-13
1.71559e-13
1.71538e-13
1.71222e-13
1.70905e-13
1.70827e-13
1.70635e-13
1.70146e-13
1.69356e-13
1.68622e-13
1.68442e-13
1.68092e-13
1.67569e-13
1.67576e-13
1.67433e-13
1.66832e-13
1.66378e-13
1.66103e-13
1.65206e-13
1.64958e-13
1.64614e-13
1.64402e-13
1.64863e-13
1.64594e-13
1.63898e-13
1.63579e-13
1.63482e-13
1.63384e-13
1.63481e-13
1.63228e-13
1.63277e-13
1.62873e-13
1.62755e-13
1.624e-13
1.61841e-13
1.61936e-13
1.62076e-13
1.61974e-13
1.61653e-13
1.61655e-13
1.61379e-13
1.61201e-13
1.61093e-13
1.60796e-13
1.60758e-13
1.61196e-13
1.61291e-13
1.61387e-13
1.61448e-13
1.61274e-13
1.61419e-13
1.61152e-13
1.61016e-13
1.61197e-13
1.61184e-13
1.61221e-13
1.61199e-13
1.61225e-13
1.61027e-13
1.6063e-13
1.60989e-13
1.61157e-13
1.60952e-13
1.61181e-13
1.61047e-13
1.60943e-13
1.6117e-13
1.6112e-13
1.60958e-13
1.61233e-13
1.61306e-13
1.61062e-13
1.61077e-13
1.61123e-13
1.61022e-13
1.61136e-13
1.60801e-13
1.60558e-13
1.60969e-13
1.60956e-13
1.61185e-13
1.60834e-13
1.59707e-13
1.5996e-13
1.59665e-13
1.58553e-13
1.58993e-13
1.5887e-13
1.58178e-13
1.5797e-13
1.57412e-13
1.56779e-13
1.56318e-13
1.55545e-13
1.54931e-13
1.54582e-13
1.54272e-13
1.53784e-13
1.52595e-13
1.51669e-13
1.5173e-13
1.50449e-13
1.49717e-13
1.49662e-13
1.48311e-13
1.47873e-13
1.47743e-13
1.46573e-13
1.4589e-13
1.45414e-13
1.44066e-13
1.44117e-13
1.44145e-13
1.43164e-13
1.42575e-13
1.41827e-13
1.40555e-13
1.39874e-13
1.39313e-13
1.37997e-13
1.37983e-13
1.37772e-13
1.36501e-13
1.36041e-13
1.35145e-13
1.3381e-13
1.33134e-13
1.32692e-13
1.31492e-13
1.30536e-13
1.29934e-13
1.28937e-13
1.27769e-13
1.26602e-13
1.25455e-13
1.23921e-13
1.22795e-13
1.22291e-13
1.21219e-13
1.1989e-13
1.18737e-13
1.17798e-13
1.16578e-13
1.15415e-13
1.14066e-13
1.13053e-13
1.12629e-13
1.1131e-13
1.09785e-13
1.08902e-13
1.07621e-13
1.06402e-13
1.05753e-13
1.04515e-13
1.03861e-13
1.03604e-13
1.02944e-13
1.02349e-13
1.01041e-13
1.00164e-13
9.93678e-14
9.84974e-14
9.81667e-14
9.78625e-14
9.67011e-14
9.58598e-14
9.55042e-14
9.42999e-14
9.33417e-14
9.25144e-14
9.17756e-14
9.1563e-14
9.11307e-14
9.0159e-14
8.9307e-14
8.85264e-14
8.75079e-14
8.7464e-14
8.64862e-14
8.53258e-14
8.54273e-14
8.48504e-14
8.40495e-14
8.33027e-14
8.27238e-14
8.16316e-14
8.15755e-14
8.14643e-14
8.05853e-14
7.98133e-14
7.92077e-14
7.8719e-14
7.7809e-14
7.72643e-14
7.62873e-14
7.61445e-14
7.6028e-14
7.53071e-14
7.43876e-14
7.37781e-14
7.33649e-14
7.17899e-14
7.16649e-14
7.09877e-14
6.96064e-14
6.91896e-14
6.88728e-14
6.77688e-14
6.69507e-14
6.66136e-14
6.49196e-14
6.47195e-14
6.49627e-14
6.39356e-14
6.32221e-14
6.27022e-14
6.16772e-14
6.08515e-14
6.14064e-14
6.08413e-14
6.03449e-14
5.91051e-14
5.82516e-14
5.92401e-14
5.84069e-14
5.66707e-14
5.61165e-14
5.72249e-14
5.62837e-14
5.57354e-14
5.56577e-14
5.51955e-14
5.51334e-14
5.40833e-14
5.35684e-14
5.33714e-14
5.35554e-14
5.27231e-14
5.14072e-14
5.14118e-14
5.11274e-14
5.04663e-14
4.94888e-14
4.91209e-14
4.86206e-14
4.84445e-14
4.76144e-14
4.62522e-14
4.64955e-14
4.70983e-14
4.58756e-14
4.38611e-14
4.45354e-14
4.44994e-14
4.40171e-14
4.36165e-14
4.23723e-14
4.25476e-14
4.21846e-14
4.12391e-14
4.02445e-14
4.0211e-14
4.01036e-14
3.94285e-14
3.91069e-14
3.8247e-14
3.82547e-14
3.78398e-14
3.7026e-14
3.64462e-14
3.6292e-14
3.57157e-14
3.48664e-14
3.45166e-14
3.41716e-14
3.46926e-14
3.33449e-14
3.23244e-14
3.2604e-14
3.28732e-14
3.27819e-14
3.16751e-14
3.15509e-14
3.13899e-14
3.10073e-14
3.06739e-14
3.04609e-14
2.97905e-14
2.93996e-14
2.95499e-14
2.91466e-14
2.90182e-14
2.93733e-14
2.97987e-14
2.90668e-14
2.92488e-14
2.9567e-14
2.94611e-14
2.98305e-14
2.96896e-14
2.9902e-14
2.93328e-14
2.92453e-14
2.87135e-14
2.83925e-14
2.88801e-14
2.81241e-14
2.69827e-14
2.66956e-14
2.61934e-14
2.49388e-14
2.38485e-14
2.18417e-14
1.91635e-14
1.5672e-14
1.0036e-14
9.4679e-15
1.23822e-14
1.66731e-14
2.02633e-14
2.30832e-14
2.53885e-14
2.74161e-14
2.90449e-14
3.03916e-14
3.15903e-14
3.28193e-14
3.38183e-14
3.49168e-14
3.57565e-14
3.66741e-14
3.76999e-14
3.85002e-14
3.91972e-14
3.99013e-14
4.04311e-14
4.08767e-14
4.13822e-14
4.21287e-14
4.28654e-14
4.3545e-14
4.42333e-14
4.4849e-14
4.55905e-14
4.63804e-14
4.7162e-14
4.80937e-14
4.88628e-14
4.96909e-14
5.06283e-14
5.13918e-14
5.20453e-14
5.30506e-14
5.39258e-14
5.48173e-14
5.58277e-14
5.68534e-14
5.77712e-14
5.8657e-14
5.97909e-14
6.06562e-14
6.1603e-14
6.25997e-14
6.37737e-14
6.47397e-14
6.57932e-14
6.70168e-14
6.8217e-14
6.93285e-14
7.04339e-14
7.16554e-14
7.29401e-14
7.38134e-14
7.518e-14
7.65847e-14
7.78853e-14
7.90598e-14
8.02327e-14
8.15396e-14
8.27958e-14
8.38657e-14
8.49748e-14
8.6076e-14
8.71229e-14
8.81421e-14
8.92207e-14
9.02738e-14
9.13343e-14
9.23751e-14
9.36224e-14
9.47237e-14
9.58334e-14
9.69861e-14
9.83916e-14
9.95468e-14
1.00638e-13
1.02017e-13
1.03378e-13
1.04695e-13
1.05878e-13
1.07068e-13
1.08248e-13
1.09267e-13
1.10187e-13
1.11386e-13
1.12466e-13
1.13475e-13
1.14666e-13
1.15748e-13
1.16838e-13
1.17957e-13
1.19021e-13
1.20076e-13
1.21053e-13
1.22362e-13
1.23229e-13
1.24042e-13
1.25146e-13
1.2614e-13
1.27153e-13
1.2795e-13
1.28654e-13
1.29866e-13
1.30819e-13
1.31505e-13
1.32363e-13
1.33361e-13
1.34268e-13
1.35204e-13
1.36018e-13
1.3686e-13
1.37817e-13
1.38497e-13
1.39223e-13
1.40049e-13
1.40948e-13
1.41767e-13
1.42534e-13
1.43301e-13
1.44082e-13
1.44895e-13
1.45739e-13
1.46517e-13
1.47404e-13
1.48153e-13
1.4895e-13
1.49737e-13
1.5072e-13
1.5176e-13
1.52851e-13
1.53833e-13
1.54658e-13
1.55596e-13
1.56331e-13
1.56903e-13
1.5771e-13
1.58532e-13
1.59236e-13
1.59351e-13
1.59953e-13
1.61045e-13
1.61493e-13
1.61948e-13
1.62843e-13
1.63231e-13
1.63566e-13
1.63952e-13
1.64267e-13
1.64979e-13
1.65463e-13
1.65811e-13
1.66175e-13
1.66709e-13
1.67025e-13
1.67422e-13
1.67518e-13
1.68017e-13
1.68614e-13
1.69069e-13
1.6943e-13
1.69897e-13
1.70229e-13
1.70475e-13
1.70736e-13
1.70615e-13
1.70746e-13
1.71042e-13
1.712e-13
1.71268e-13
1.71314e-13
1.7165e-13
1.71583e-13
1.71668e-13
1.7205e-13
1.71922e-13
1.71648e-13
1.71744e-13
1.71852e-13
1.71713e-13
1.71826e-13
1.71817e-13
1.71605e-13
1.71445e-13
1.71261e-13
1.70883e-13
1.70798e-13
1.70613e-13
1.70051e-13
1.69321e-13
1.68759e-13
1.68508e-13
1.68157e-13
1.67626e-13
1.67461e-13
1.67252e-13
1.66748e-13
1.66386e-13
1.6606e-13
1.65391e-13
1.64971e-13
1.6455e-13
1.64478e-13
1.64717e-13
1.64474e-13
1.63904e-13
1.63547e-13
1.63501e-13
1.63418e-13
1.63366e-13
1.63267e-13
1.63304e-13
1.62853e-13
1.62687e-13
1.62435e-13
1.61959e-13
1.62024e-13
1.62003e-13
1.61828e-13
1.61679e-13
1.61531e-13
1.61414e-13
1.61257e-13
1.6108e-13
1.60976e-13
1.60858e-13
1.61087e-13
1.61178e-13
1.61241e-13
1.614e-13
1.61432e-13
1.61384e-13
1.61194e-13
1.61078e-13
1.61208e-13
1.61123e-13
1.61264e-13
1.61079e-13
1.61125e-13
1.61135e-13
1.60802e-13
1.61037e-13
1.61004e-13
1.61067e-13
1.61221e-13
1.60916e-13
1.60788e-13
1.61196e-13
1.61138e-13
1.61144e-13
1.61164e-13
1.61126e-13
1.61222e-13
1.61041e-13
1.6097e-13
1.61049e-13
1.6116e-13
1.60864e-13
1.60682e-13
1.60871e-13
1.61008e-13
1.61106e-13
1.60838e-13
1.59866e-13
1.59659e-13
1.5971e-13
1.5894e-13
1.58867e-13
1.58725e-13
1.58098e-13
1.58021e-13
1.57662e-13
1.56488e-13
1.56284e-13
1.55937e-13
1.55072e-13
1.54407e-13
1.54165e-13
1.53713e-13
1.52551e-13
1.51731e-13
1.51698e-13
1.50603e-13
1.49664e-13
1.4955e-13
1.4843e-13
1.47884e-13
1.47689e-13
1.46608e-13
1.45711e-13
1.45352e-13
1.44423e-13
1.44145e-13
1.43966e-13
1.43134e-13
1.42444e-13
1.41829e-13
1.40729e-13
1.39622e-13
1.39335e-13
1.38352e-13
1.37867e-13
1.37721e-13
1.36518e-13
1.3584e-13
1.35179e-13
1.34108e-13
1.33063e-13
1.32488e-13
1.31677e-13
1.3059e-13
1.29814e-13
1.29041e-13
1.27831e-13
1.26501e-13
1.25419e-13
1.24083e-13
1.22877e-13
1.22262e-13
1.2093e-13
1.19878e-13
1.18888e-13
1.17911e-13
1.16468e-13
1.15336e-13
1.1433e-13
1.1315e-13
1.12397e-13
1.11275e-13
1.09801e-13
1.08799e-13
1.07845e-13
1.06315e-13
1.05572e-13
1.04761e-13
1.03787e-13
1.03433e-13
1.02951e-13
1.02238e-13
1.01008e-13
1.00154e-13
9.94594e-14
9.86838e-14
9.80596e-14
9.75829e-14
9.67066e-14
9.59788e-14
9.54165e-14
9.42556e-14
9.33331e-14
9.26799e-14
9.18862e-14
9.14005e-14
9.08877e-14
9.00508e-14
8.9633e-14
8.86027e-14
8.74086e-14
8.73333e-14
8.66185e-14
8.55176e-14
8.53242e-14
8.47477e-14
8.39288e-14
8.33273e-14
8.27313e-14
8.19547e-14
8.17644e-14
8.12076e-14
8.04062e-14
7.97773e-14
7.92449e-14
7.87621e-14
7.7886e-14
7.70107e-14
7.6533e-14
7.63694e-14
7.58168e-14
7.51135e-14
7.453e-14
7.39006e-14
7.33645e-14
7.19222e-14
7.14466e-14
7.11154e-14
6.97618e-14
6.90146e-14
6.88016e-14
6.79898e-14
6.68928e-14
6.63517e-14
6.52394e-14
6.48775e-14
6.47469e-14
6.37828e-14
6.29963e-14
6.25226e-14
6.20235e-14
6.12485e-14
6.10636e-14
6.05459e-14
6.02912e-14
5.9442e-14
5.85671e-14
5.87706e-14
5.82583e-14
5.70642e-14
5.61536e-14
5.68454e-14
5.64819e-14
5.59063e-14
5.55672e-14
5.5203e-14
5.4841e-14
5.4028e-14
5.39174e-14
5.35258e-14
5.31833e-14
5.26047e-14
5.17438e-14
5.13462e-14
5.11442e-14
5.04923e-14
4.93522e-14
4.92702e-14
4.87015e-14
4.81681e-14
4.76979e-14
4.65861e-14
4.63512e-14
4.67629e-14
4.59468e-14
4.42312e-14
4.45293e-14
4.45601e-14
4.3826e-14
4.33787e-14
4.28261e-14
4.23696e-14
4.1983e-14
4.1234e-14
4.03604e-14
4.03962e-14
4.00037e-14
3.93614e-14
3.88773e-14
3.85916e-14
3.83839e-14
3.76944e-14
3.68347e-14
3.65229e-14
3.63988e-14
3.57879e-14
3.49661e-14
3.44233e-14
3.42744e-14
3.42979e-14
3.34207e-14
3.24315e-14
3.28646e-14
3.30251e-14
3.21861e-14
3.16556e-14
3.17763e-14
3.16048e-14
3.08612e-14
3.05876e-14
3.03275e-14
2.99161e-14
2.95143e-14
2.93101e-14
2.92488e-14
2.90549e-14
2.94952e-14
2.95975e-14
2.89473e-14
2.9463e-14
2.99396e-14
2.92325e-14
2.94137e-14
3.00711e-14
2.98977e-14
2.91925e-14
2.91332e-14
2.8764e-14
2.88373e-14
2.89113e-14
2.77794e-14
2.68704e-14
2.68858e-14
2.64063e-14
2.51102e-14
2.36948e-14
2.22787e-14
1.99118e-14
1.64749e-14
1.24578e-14
1.32801e-14
1.49024e-14
1.79811e-14
2.08647e-14
2.34555e-14
2.56264e-14
2.75237e-14
2.9139e-14
3.05032e-14
3.16481e-14
3.28932e-14
3.38428e-14
3.494e-14
3.57562e-14
3.66872e-14
3.77363e-14
3.84981e-14
3.91887e-14
3.98914e-14
4.04215e-14
4.09158e-14
4.13887e-14
4.206e-14
4.28247e-14
4.3551e-14
4.42384e-14
4.47627e-14
4.56002e-14
4.63961e-14
4.70977e-14
4.8056e-14
4.88813e-14
4.97263e-14
5.05566e-14
5.14089e-14
5.20247e-14
5.30288e-14
5.39094e-14
5.47994e-14
5.58024e-14
5.68231e-14
5.77475e-14
5.86001e-14
5.97367e-14
6.06929e-14
6.16128e-14
6.26318e-14
6.37617e-14
6.47158e-14
6.58881e-14
6.69926e-14
6.8176e-14
6.9336e-14
7.04522e-14
7.16119e-14
7.29011e-14
7.39063e-14
7.514e-14
7.65619e-14
7.79156e-14
7.89957e-14
8.02597e-14
8.15781e-14
8.28157e-14
8.38912e-14
8.49977e-14
8.60791e-14
8.71204e-14
8.81885e-14
8.92563e-14
9.03001e-14
9.13098e-14
9.2423e-14
9.35635e-14
9.46635e-14
9.58886e-14
9.70441e-14
9.83356e-14
9.95108e-14
1.00629e-13
1.02066e-13
1.03412e-13
1.04733e-13
1.05867e-13
1.07119e-13
1.08219e-13
1.09204e-13
1.10247e-13
1.11405e-13
1.12452e-13
1.13478e-13
1.14706e-13
1.15836e-13
1.16897e-13
1.17909e-13
1.18895e-13
1.20118e-13
1.21201e-13
1.22308e-13
1.23146e-13
1.24115e-13
1.25201e-13
1.26181e-13
1.27102e-13
1.27878e-13
1.28621e-13
1.29858e-13
1.30826e-13
1.31567e-13
1.32372e-13
1.33334e-13
1.34387e-13
1.35192e-13
1.36128e-13
1.369e-13
1.3774e-13
1.38472e-13
1.39348e-13
1.40067e-13
1.40885e-13
1.41719e-13
1.42583e-13
1.43416e-13
1.44046e-13
1.44888e-13
1.45731e-13
1.46457e-13
1.4745e-13
1.48213e-13
1.48918e-13
1.49758e-13
1.50798e-13
1.51783e-13
1.5277e-13
1.53839e-13
1.54679e-13
1.55563e-13
1.56334e-13
1.56965e-13
1.57783e-13
1.58568e-13
1.59147e-13
1.59488e-13
1.60074e-13
1.60924e-13
1.61421e-13
1.62051e-13
1.62833e-13
1.63098e-13
1.63543e-13
1.6401e-13
1.64346e-13
1.65004e-13
1.65427e-13
1.65784e-13
1.66153e-13
1.66743e-13
1.66926e-13
1.67424e-13
1.67653e-13
1.67951e-13
1.68543e-13
1.69151e-13
1.69452e-13
1.69931e-13
1.7027e-13
1.70487e-13
1.70743e-13
1.70705e-13
1.70779e-13
1.71074e-13
1.71102e-13
1.71242e-13
1.71469e-13
1.7153e-13
1.71515e-13
1.7177e-13
1.71979e-13
1.7192e-13
1.7175e-13
1.71728e-13
1.71833e-13
1.71658e-13
1.71792e-13
1.71965e-13
1.71653e-13
1.71402e-13
1.71289e-13
1.7096e-13
1.70712e-13
1.70612e-13
1.69963e-13
1.69323e-13
1.68872e-13
1.68459e-13
1.68247e-13
1.67699e-13
1.6725e-13
1.6718e-13
1.66799e-13
1.663e-13
1.65973e-13
1.65595e-13
1.64929e-13
1.64603e-13
1.64576e-13
1.64471e-13
1.64251e-13
1.63951e-13
1.63562e-13
1.6348e-13
1.63451e-13
1.63362e-13
1.6332e-13
1.63205e-13
1.62787e-13
1.62619e-13
1.62529e-13
1.62139e-13
1.61964e-13
1.61899e-13
1.61805e-13
1.61676e-13
1.61518e-13
1.6138e-13
1.61096e-13
1.61137e-13
1.61186e-13
1.60952e-13
1.60858e-13
1.6119e-13
1.61237e-13
1.61297e-13
1.6153e-13
1.61372e-13
1.61319e-13
1.61203e-13
1.61029e-13
1.61086e-13
1.61331e-13
1.61004e-13
1.61045e-13
1.61091e-13
1.6093e-13
1.61122e-13
1.60888e-13
1.61111e-13
1.61286e-13
1.60883e-13
1.60812e-13
1.61174e-13
1.61053e-13
1.61236e-13
1.61177e-13
1.60898e-13
1.61248e-13
1.61173e-13
1.60948e-13
1.60984e-13
1.6112e-13
1.60993e-13
1.60773e-13
1.60896e-13
1.61064e-13
1.60989e-13
1.6072e-13
1.60066e-13
1.59625e-13
1.59645e-13
1.59142e-13
1.58885e-13
1.58559e-13
1.58155e-13
1.58078e-13
1.57659e-13
1.56467e-13
1.56263e-13
1.56001e-13
1.55114e-13
1.54539e-13
1.5403e-13
1.53463e-13
1.52653e-13
1.51886e-13
1.51484e-13
1.50686e-13
1.49845e-13
1.4938e-13
1.48622e-13
1.47859e-13
1.47477e-13
1.46605e-13
1.45655e-13
1.45389e-13
1.44719e-13
1.44005e-13
1.43866e-13
1.43244e-13
1.42238e-13
1.41793e-13
1.40768e-13
1.39646e-13
1.39261e-13
1.38583e-13
1.37787e-13
1.3761e-13
1.36579e-13
1.35721e-13
1.35318e-13
1.3416e-13
1.33004e-13
1.32456e-13
1.318e-13
1.30558e-13
1.2986e-13
1.29078e-13
1.2781e-13
1.26519e-13
1.2536e-13
1.24197e-13
1.22952e-13
1.22181e-13
1.20947e-13
1.19968e-13
1.18857e-13
1.1789e-13
1.16413e-13
1.15302e-13
1.1449e-13
1.13196e-13
1.12277e-13
1.11239e-13
1.0985e-13
1.08807e-13
1.07711e-13
1.06212e-13
1.05646e-13
1.04744e-13
1.03755e-13
1.03579e-13
1.02797e-13
1.02003e-13
1.01172e-13
1.00022e-13
9.93149e-14
9.88926e-14
9.80024e-14
9.75017e-14
9.69121e-14
9.59099e-14
9.51873e-14
9.4537e-14
9.33851e-14
9.25399e-14
9.18959e-14
9.11968e-14
9.07902e-14
9.01773e-14
8.9718e-14
8.86794e-14
8.74243e-14
8.71808e-14
8.65986e-14
8.57055e-14
8.53911e-14
8.45528e-14
8.37381e-14
8.34879e-14
8.27572e-14
8.19832e-14
8.17674e-14
8.10492e-14
8.05358e-14
7.98685e-14
7.90814e-14
7.86536e-14
7.80055e-14
7.70151e-14
7.67013e-14
7.64014e-14
7.55802e-14
7.51053e-14
7.47897e-14
7.39788e-14
7.3093e-14
7.22004e-14
7.14794e-14
7.07862e-14
6.9884e-14
6.92285e-14
6.8512e-14
6.79767e-14
6.72322e-14
6.62429e-14
6.54337e-14
6.47411e-14
6.42896e-14
6.38803e-14
6.31382e-14
6.24171e-14
6.21369e-14
6.14725e-14
6.08516e-14
6.04961e-14
6.00585e-14
5.95933e-14
5.89283e-14
5.84547e-14
5.80356e-14
5.7425e-14
5.63882e-14
5.64756e-14
5.65643e-14
5.59067e-14
5.54362e-14
5.51485e-14
5.47645e-14
5.42385e-14
5.4014e-14
5.36487e-14
5.29153e-14
5.2513e-14
5.19405e-14
5.14033e-14
5.1092e-14
5.03824e-14
4.93487e-14
4.9366e-14
4.87959e-14
4.79162e-14
4.77078e-14
4.692e-14
4.63059e-14
4.62588e-14
4.58746e-14
4.49303e-14
4.46819e-14
4.44672e-14
4.35918e-14
4.33866e-14
4.30496e-14
4.20802e-14
4.16855e-14
4.12784e-14
4.07881e-14
4.04285e-14
3.97257e-14
3.94025e-14
3.90728e-14
3.87161e-14
3.80969e-14
3.741e-14
3.70125e-14
3.67952e-14
3.63636e-14
3.57958e-14
3.52155e-14
3.44086e-14
3.4231e-14
3.38074e-14
3.33539e-14
3.29592e-14
3.30051e-14
3.26831e-14
3.20693e-14
3.19357e-14
3.16304e-14
3.14759e-14
3.09911e-14
3.06704e-14
3.02452e-14
3.00616e-14
2.96518e-14
2.92391e-14
2.93662e-14
2.89386e-14
2.91338e-14
2.94939e-14
2.93578e-14
2.94944e-14
2.99086e-14
2.93052e-14
2.92716e-14
3.01423e-14
2.97124e-14
2.90183e-14
2.92574e-14
2.92495e-14
2.88561e-14
2.8691e-14
2.7805e-14
2.70051e-14
2.68235e-14
2.65265e-14
2.52655e-14
2.36645e-14
2.28135e-14
2.06811e-14
1.75943e-14
1.47448e-14
1.59547e-14
1.70496e-14
1.92212e-14
2.15501e-14
2.38709e-14
2.58643e-14
2.77407e-14
2.93016e-14
3.05898e-14
3.17256e-14
3.29873e-14
3.38774e-14
3.50501e-14
3.57391e-14
3.66738e-14
3.77348e-14
3.85322e-14
3.9201e-14
3.98023e-14
4.04534e-14
4.10307e-14
4.13312e-14
4.19491e-14
4.2765e-14
4.35425e-14
4.42432e-14
4.46903e-14
4.5564e-14
4.64085e-14
4.71271e-14
4.80105e-14
4.88751e-14
4.97467e-14
5.05381e-14
5.14054e-14
5.19681e-14
5.30445e-14
5.39311e-14
5.48019e-14
5.57809e-14
5.67697e-14
5.77454e-14
5.85756e-14
5.96651e-14
6.06716e-14
6.1637e-14
6.26627e-14
6.37863e-14
6.46945e-14
6.59459e-14
6.7033e-14
6.82695e-14
6.93941e-14
7.0358e-14
7.16465e-14
7.28199e-14
7.39952e-14
7.5141e-14
7.6511e-14
7.78546e-14
7.89915e-14
8.03008e-14
8.15989e-14
8.28722e-14
8.39134e-14
8.50702e-14
8.61026e-14
8.71831e-14
8.82866e-14
8.92864e-14
9.0237e-14
9.12577e-14
9.25163e-14
9.35406e-14
9.4546e-14
9.58992e-14
9.70574e-14
9.83414e-14
9.95231e-14
1.00665e-13
1.02069e-13
1.03465e-13
1.04737e-13
1.05827e-13
1.0723e-13
1.08296e-13
1.09144e-13
1.10214e-13
1.11459e-13
1.12542e-13
1.13528e-13
1.1472e-13
1.15788e-13
1.16949e-13
1.17877e-13
1.18792e-13
1.20203e-13
1.21242e-13
1.22174e-13
1.23144e-13
1.24184e-13
1.25344e-13
1.26217e-13
1.27068e-13
1.2789e-13
1.28589e-13
1.29807e-13
1.30752e-13
1.31619e-13
1.32411e-13
1.33319e-13
1.34458e-13
1.35199e-13
1.36198e-13
1.36878e-13
1.37771e-13
1.38503e-13
1.39467e-13
1.40143e-13
1.40766e-13
1.41711e-13
1.42655e-13
1.43483e-13
1.44079e-13
1.44833e-13
1.45672e-13
1.46518e-13
1.47521e-13
1.48154e-13
1.48892e-13
1.49708e-13
1.5094e-13
1.51862e-13
1.52693e-13
1.53761e-13
1.5476e-13
1.55527e-13
1.56452e-13
1.57044e-13
1.57759e-13
1.5865e-13
1.59174e-13
1.59562e-13
1.60187e-13
1.60785e-13
1.61421e-13
1.62252e-13
1.62657e-13
1.62963e-13
1.63587e-13
1.63977e-13
1.6438e-13
1.65181e-13
1.65403e-13
1.65773e-13
1.66012e-13
1.66782e-13
1.6686e-13
1.67374e-13
1.67759e-13
1.68064e-13
1.68509e-13
1.69005e-13
1.69501e-13
1.70006e-13
1.70281e-13
1.70437e-13
1.7068e-13
1.70851e-13
1.7099e-13
1.71069e-13
1.71021e-13
1.71268e-13
1.7148e-13
1.71531e-13
1.71563e-13
1.71726e-13
1.71822e-13
1.72024e-13
1.7187e-13
1.71804e-13
1.71742e-13
1.71739e-13
1.71811e-13
1.72007e-13
1.71657e-13
1.71545e-13
1.71273e-13
1.70983e-13
1.70708e-13
1.70514e-13
1.69865e-13
1.69402e-13
1.68829e-13
1.684e-13
1.6829e-13
1.67772e-13
1.67108e-13
1.67101e-13
1.66864e-13
1.66138e-13
1.6587e-13
1.65669e-13
1.64982e-13
1.6464e-13
1.64667e-13
1.6429e-13
1.64031e-13
1.64028e-13
1.63396e-13
1.6345e-13
1.6341e-13
1.63437e-13
1.63409e-13
1.63027e-13
1.62812e-13
1.62558e-13
1.62708e-13
1.6225e-13
1.61907e-13
1.61774e-13
1.6186e-13
1.61642e-13
1.61491e-13
1.61295e-13
1.60899e-13
1.61326e-13
1.61224e-13
1.61061e-13
1.60784e-13
1.61223e-13
1.61265e-13
1.61258e-13
1.61424e-13
1.61276e-13
1.61355e-13
1.61447e-13
1.60949e-13
1.60964e-13
1.61308e-13
1.61038e-13
1.60977e-13
1.60993e-13
1.61171e-13
1.61095e-13
1.60851e-13
1.61111e-13
1.61123e-13
1.6099e-13
1.60959e-13
1.61135e-13
1.60903e-13
1.612e-13
1.61233e-13
1.60787e-13
1.61081e-13
1.613e-13
1.60967e-13
1.60955e-13
1.60879e-13
1.61209e-13
1.60975e-13
1.60765e-13
1.61165e-13
1.61119e-13
1.60528e-13
1.60169e-13
1.59771e-13
1.59497e-13
1.59309e-13
1.58824e-13
1.58368e-13
1.58437e-13
1.57984e-13
1.57436e-13
1.5685e-13
1.56337e-13
1.55741e-13
1.55117e-13
1.54735e-13
1.53908e-13
1.53345e-13
1.52832e-13
1.51984e-13
1.51137e-13
1.50753e-13
1.50065e-13
1.49068e-13
1.48795e-13
1.47936e-13
1.4714e-13
1.46642e-13
1.45807e-13
1.45373e-13
1.44919e-13
1.43806e-13
1.43704e-13
1.43492e-13
1.42105e-13
1.41577e-13
1.40872e-13
1.3976e-13
1.39114e-13
1.38752e-13
1.37655e-13
1.37499e-13
1.36831e-13
1.35584e-13
1.35331e-13
1.34297e-13
1.32988e-13
1.32369e-13
1.31873e-13
1.30517e-13
1.29949e-13
1.29212e-13
1.27579e-13
1.26424e-13
1.25352e-13
1.24488e-13
1.23037e-13
1.22127e-13
1.20992e-13
1.20006e-13
1.18822e-13
1.17651e-13
1.16271e-13
1.15518e-13
1.14813e-13
1.13248e-13
1.12007e-13
1.11293e-13
1.09864e-13
1.0865e-13
1.07593e-13
1.06229e-13
1.05532e-13
1.04744e-13
1.03775e-13
1.035e-13
1.02841e-13
1.01839e-13
1.01109e-13
1.00015e-13
9.93112e-14
9.88081e-14
9.79893e-14
9.75435e-14
9.696e-14
9.58268e-14
9.51017e-14
9.46225e-14
9.35668e-14
9.24628e-14
9.16437e-14
9.11866e-14
9.08189e-14
9.02107e-14
8.95374e-14
8.87654e-14
8.76517e-14
8.70133e-14
8.66e-14
8.58522e-14
8.53986e-14
8.45706e-14
8.35543e-14
8.34026e-14
8.28934e-14
8.19592e-14
8.16625e-14
8.09507e-14
8.06239e-14
8.00161e-14
7.91844e-14
7.8424e-14
7.80308e-14
7.72661e-14
7.67577e-14
7.62243e-14
7.54995e-14
7.5229e-14
7.49378e-14
7.39495e-14
7.28398e-14
7.23509e-14
7.1702e-14
7.05526e-14
6.98811e-14
6.95141e-14
6.83396e-14
6.76828e-14
6.75322e-14
6.64085e-14
6.54028e-14
6.46266e-14
6.39443e-14
6.38847e-14
6.33719e-14
6.24673e-14
6.21293e-14
6.1518e-14
6.07197e-14
6.05161e-14
5.98099e-14
5.97353e-14
5.89871e-14
5.82323e-14
5.80544e-14
5.7643e-14
5.66319e-14
5.62972e-14
5.64974e-14
5.57047e-14
5.54799e-14
5.50866e-14
5.46178e-14
5.45022e-14
5.41733e-14
5.36876e-14
5.25342e-14
5.25397e-14
5.22475e-14
5.13785e-14
5.06691e-14
5.04004e-14
4.97061e-14
4.9199e-14
4.87604e-14
4.79457e-14
4.76284e-14
4.71627e-14
4.62374e-14
4.58043e-14
4.59339e-14
4.5588e-14
4.46931e-14
4.42862e-14
4.35291e-14
4.35765e-14
4.31112e-14
4.17356e-14
4.13346e-14
4.13647e-14
4.13032e-14
4.0158e-14
3.94993e-14