/*--------------------------------*- C++ -*----------------------------------*\
| =========                 |                                                 |
| \\      /  F ield         | OpenFOAM: The Open Source CFD Toolbox           |
|  \\    /   O peration     | Version:  2112                                  |
|   \\  /    A nd           | Website:  www.openfoam.com                      |
|    \\/     M anipulation  |                                                 |
\*---------------------------------------------------------------------------*/
FoamFile
{
    version     2.0;
    format      ascii;
    arch        "LSB;label=32;scalar=64";
    class       surfaceScalarField;
    location    "13";
    object      phi;
}
// * * * * * * * * * * * * * * * * * * * * * * * * * * * * * * * * * * * * * //

dimensions      [0 3 -1 0 0 0 0];

oriented        oriented;

internalField   nonuniform List<scalar> 
99400
(
2.99974e-05
6.80431e-19
2.99974e-05
6.80608e-21
2.99974e-05
-1.25192e-19
2.99974e-05
-3.41069e-20
2.99974e-05
-1.08335e-21
2.99974e-05
-1.14329e-21
2.99974e-05
-1.66942e-20
2.99974e-05
5.4921e-21
2.99974e-05
1.95854e-21
2.99974e-05
-3.52972e-21
2.99974e-05
-2.70889e-20
2.99974e-05
-2.04372e-20
2.99974e-05
-1.9245e-20
2.99974e-05
-2.78996e-21
2.99974e-05
6.93155e-21
2.99974e-05
-2.77597e-20
2.99974e-05
-4.00815e-20
2.99974e-05
-2.48886e-20
2.99974e-05
-2.34568e-20
2.99974e-05
1.04038e-21
2.99974e-05
-2.35788e-22
2.99974e-05
6.53828e-21
2.99974e-05
3.1801e-20
2.99974e-05
4.26202e-21
2.99974e-05
-1.92707e-20
2.99974e-05
-2.7348e-20
2.99974e-05
-6.47224e-21
2.99974e-05
3.11693e-20
2.99974e-05
-2.37628e-20
2.99974e-05
-6.60498e-22
2.99974e-05
-1.66651e-21
2.99974e-05
-2.08621e-20
2.99974e-05
-8.31854e-21
2.99974e-05
-1.72948e-20
2.99974e-05
-3.45689e-20
2.99974e-05
1.26387e-20
2.99974e-05
-3.22083e-20
2.99974e-05
-1.36487e-20
2.99974e-05
1.13736e-20
2.99974e-05
-3.66036e-20
2.99974e-05
9.30346e-21
2.99974e-05
-3.91187e-20
2.99974e-05
6.49357e-21
2.99974e-05
1.47684e-20
2.99974e-05
-4.49924e-21
2.99974e-05
3.27288e-20
2.99974e-05
4.46333e-20
2.99974e-05
-4.10766e-20
2.99974e-05
-6.68601e-21
2.99974e-05
4.83375e-20
2.99974e-05
1.31474e-20
2.99974e-05
6.60616e-21
2.99974e-05
-4.06122e-20
2.99974e-05
-9.62098e-21
2.99974e-05
3.98192e-20
2.99974e-05
-2.95031e-20
2.99974e-05
4.72349e-20
2.99974e-05
-1.26984e-20
2.99974e-05
-5.15957e-20
2.99974e-05
2.19334e-21
2.99974e-05
-4.1238e-22
2.99974e-05
-1.08032e-20
2.99974e-05
-1.83163e-20
2.99974e-05
1.39749e-20
2.99974e-05
-2.41722e-20
2.99974e-05
2.25218e-20
2.99974e-05
-3.85097e-20
2.99974e-05
-1.92767e-20
2.99974e-05
6.64773e-20
2.99974e-05
-4.35207e-21
2.99974e-05
-9.90425e-21
2.99974e-05
1.36165e-20
2.99974e-05
6.09589e-20
2.99974e-05
-2.63166e-20
2.99974e-05
-5.41643e-20
2.99974e-05
1.0848e-19
2.99974e-05
4.50858e-20
2.99974e-05
-6.37789e-20
2.99974e-05
-1.24913e-20
2.99974e-05
4.06489e-20
2.99974e-05
-2.30201e-21
2.99974e-05
-3.98019e-20
2.99974e-05
9.26305e-21
2.99974e-05
3.9711e-21
2.99974e-05
-5.67371e-20
2.99974e-05
3.03696e-20
2.99974e-05
4.80175e-21
2.99974e-05
-8.85878e-21
2.99974e-05
1.29414e-20
2.99974e-05
-1.96424e-20
2.99974e-05
2.30334e-20
2.99974e-05
2.76976e-20
2.99974e-05
1.84619e-20
2.99974e-05
1.23572e-20
2.99974e-05
1.45727e-20
2.99974e-05
-9.16757e-20
2.99974e-05
1.66902e-21
2.99974e-05
9.36596e-20
2.99974e-05
-7.34532e-20
2.99974e-05
-4.0926e-20
2.99974e-05
6.88536e-20
2.99974e-05
4.93888e-20
2.99974e-05
-2.26641e-20
2.99974e-05
-3.61313e-20
2.99974e-05
3.23218e-20
2.99974e-05
6.13456e-21
2.99974e-05
-2.46037e-20
2.99974e-05
-1.10176e-20
2.99974e-05
3.74279e-20
2.99974e-05
7.28949e-20
2.99974e-05
-3.36934e-20
2.99974e-05
-8.14411e-20
2.99974e-05
-1.55167e-20
2.99974e-05
8.82548e-20
2.99974e-05
4.75249e-20
2.99974e-05
-1.00094e-19
2.99974e-05
-6.96057e-20
2.99974e-05
7.32918e-20
2.99974e-05
7.24125e-20
2.99974e-05
-6.22123e-21
2.99974e-05
-2.71981e-20
2.99974e-05
1.20028e-20
2.99974e-05
6.03165e-20
2.99974e-05
-1.77443e-20
2.99974e-05
-6.76908e-20
2.99974e-05
6.32896e-20
2.99974e-05
2.57478e-20
2.99974e-05
-3.9694e-20
2.99974e-05
4.25391e-20
2.99974e-05
2.29094e-20
2.99974e-05
2.02768e-20
2.99974e-05
-4.28586e-21
2.99974e-05
8.90254e-20
2.99974e-05
-5.51827e-20
2.99974e-05
-7.93013e-20
2.99974e-05
4.70716e-20
2.99974e-05
-9.92312e-21
2.99974e-05
-7.00824e-20
2.99974e-05
7.56914e-20
2.99974e-05
6.25678e-20
2.99974e-05
-1.35885e-19
2.99974e-05
-9.43553e-20
2.99974e-05
9.9885e-20
2.99974e-05
1.49075e-19
2.99974e-05
-9.51083e-20
2.99974e-05
-3.49335e-20
2.99974e-05
1.66602e-19
2.99974e-05
-6.39283e-20
2.99974e-05
-1.07577e-19
2.99974e-05
9.56646e-20
2.99974e-05
-6.27771e-20
2.99974e-05
-6.59276e-21
2.99974e-05
1.26719e-19
2.99974e-05
-1.48171e-19
2.99974e-05
-3.15367e-20
2.99974e-05
8.96033e-20
2.99974e-05
-1.08377e-19
2.99974e-05
6.60715e-22
2.99974e-05
2.58377e-21
2.99974e-05
1.22519e-19
2.99974e-05
3.50683e-20
2.99974e-05
-3.66783e-20
2.99974e-05
-1.24237e-20
2.99974e-05
6.44585e-21
2.99974e-05
-3.32813e-20
2.99974e-05
-1.69253e-20
2.99974e-05
6.12704e-20
2.99974e-05
-1.37919e-19
2.99974e-05
1.23627e-19
2.99974e-05
1.27774e-19
2.99974e-05
-1.65132e-19
2.99974e-05
5.25293e-20
2.99974e-05
1.11186e-19
2.99974e-05
-1.00458e-19
2.99974e-05
-6.63139e-20
2.99974e-05
3.90889e-20
2.99974e-05
1.09946e-19
2.99974e-05
-4.45381e-20
2.99974e-05
-7.21655e-20
2.99974e-05
1.31575e-19
2.99974e-05
-2.91505e-20
2.99974e-05
-7.07319e-20
2.99974e-05
2.09909e-20
2.99974e-05
-6.07344e-20
2.99974e-05
8.52048e-20
2.99974e-05
-1.87402e-20
2.99974e-05
-1.19223e-19
2.99974e-05
1.48503e-20
2.99974e-05
1.17527e-20
2.99974e-05
-1.94562e-20
2.99974e-05
-8.34688e-20
2.99974e-05
-5.52802e-20
2.99974e-05
-1.38497e-20
2.99974e-05
1.58785e-19
2.99974e-05
5.93771e-20
2.99974e-05
-4.04258e-20
2.99974e-05
8.87095e-20
2.99974e-05
-1.74704e-21
2.99974e-05
-1.71148e-19
2.99974e-05
-6.01059e-20
2.99974e-05
6.68313e-20
2.99974e-05
-1.41273e-19
2.99974e-05
1.35504e-19
2.99974e-05
4.46592e-20
2.99974e-05
4.71256e-20
2.99974e-05
9.02393e-20
2.99974e-05
-1.71791e-19
2.99974e-05
-1.12596e-19
2.99974e-05
3.85112e-20
2.99974e-05
5.47644e-21
2.99974e-05
4.48382e-20
2.99974e-05
2.59393e-20
2.99974e-05
-1.08066e-19
2.99974e-05
9.3696e-20
2.99974e-05
-1.0368e-19
2.99974e-05
8.26481e-23
2.99974e-05
-4.40239e-20
2.99974e-05
-4.2584e-20
2.99974e-05
1.33662e-19
2.99974e-05
1.06821e-19
2.99974e-05
-4.24838e-20
2.99974e-05
-7.8226e-20
2.99974e-05
5.1659e-20
2.99974e-05
-6.53978e-20
2.99974e-05
4.37256e-20
2.99974e-05
5.79621e-22
2.99974e-05
-8.43317e-21
2.99974e-05
7.86515e-20
2.99974e-05
1.01854e-19
2.99974e-05
-9.63123e-21
2.99974e-05
-3.25718e-20
2.99974e-05
-1.25277e-19
2.99974e-05
-8.89396e-21
2.99974e-05
5.04925e-20
2.99974e-05
-1.08721e-19
2.99974e-05
9.18617e-20
2.99974e-05
2.67844e-20
2.99974e-05
3.80272e-20
2.99974e-05
-5.83256e-20
2.99974e-05
8.74927e-21
2.99974e-05
4.55091e-21
2.99974e-05
-1.06385e-19
2.99974e-05
3.14267e-20
2.99974e-05
1.95589e-19
2.99974e-05
-4.94957e-20
2.99974e-05
-4.68503e-20
2.99974e-05
1.03539e-19
2.99974e-05
-1.0906e-19
2.99974e-05
9.54118e-21
2.99974e-05
-5.42551e-21
2.99974e-05
-4.83148e-20
2.99974e-05
-1.59855e-20
2.99974e-05
1.57793e-19
2.99974e-05
-4.29285e-20
2.99974e-05
-9.89927e-20
2.99974e-05
1.05484e-19
2.99974e-05
-3.49752e-20
2.99974e-05
-1.01603e-19
2.99974e-05
5.11158e-20
2.99974e-05
-1.01633e-19
2.99974e-05
3.78054e-20
2.99974e-05
2.26613e-19
2.99974e-05
-1.61514e-19
2.99974e-05
6.46812e-20
2.99974e-05
-1.74332e-19
2.99974e-05
-1.61251e-19
2.99974e-05
3.10881e-19
2.99974e-05
-1.96252e-19
2.99974e-05
-1.01254e-19
2.99974e-05
4.56796e-19
2.99974e-05
-1.94367e-19
2.99974e-05
-1.51189e-19
2.99974e-05
1.17179e-19
2.99974e-05
-1.59471e-19
2.99974e-05
1.29962e-19
2.99974e-05
-1.12192e-19
2.99974e-05
-5.65687e-20
2.99974e-05
1.42424e-19
2.99974e-05
9.66877e-20
2.99974e-05
-8.73887e-20
2.99974e-05
-9.29344e-20
2.99974e-05
-1.05768e-19
2.99974e-05
6.6739e-20
2.99974e-05
1.94984e-19
2.99974e-05
-2.48221e-19
2.99974e-05
2.37493e-19
2.99974e-05
4.40618e-20
2.99974e-05
-2.5261e-19
2.99974e-05
1.99077e-19
2.99974e-05
8.08194e-20
2.99974e-05
-2.73745e-19
2.99974e-05
6.44971e-20
2.99974e-05
5.52866e-20
2.99974e-05
-1.75616e-19
2.99974e-05
3.37224e-19
2.99974e-05
8.11949e-20
2.99974e-05
-3.55858e-19
2.99974e-05
7.86322e-20
2.99974e-05
-2.86539e-20
2.99974e-05
-2.0857e-19
2.99974e-05
2.72745e-19
2.99974e-05
-1.26117e-19
2.99974e-05
-9.6471e-20
2.99974e-05
4.26634e-19
2.99974e-05
-1.63612e-19
2.99974e-05
-2.71838e-19
2.99974e-05
2.32938e-19
2.99974e-05
-1.44866e-19
2.99974e-05
-1.62725e-19
2.99974e-05
2.88857e-19
2.99974e-05
8.18212e-20
2.99974e-05
-2.48544e-19
2.99974e-05
1.22421e-19
2.99974e-05
6.9171e-20
2.99974e-05
-1.59995e-19
2.99974e-05
5.75138e-20
2.99974e-05
-9.39331e-20
2.99974e-05
-7.45916e-20
2.99974e-05
4.62631e-21
2.99974e-05
1.61363e-19
2.99974e-05
1.27034e-19
2.99974e-05
-5.88734e-20
2.99974e-05
-1.37594e-19
2.99974e-05
-4.85645e-20
2.99974e-05
2.06976e-19
2.99974e-05
-7.89068e-20
2.99974e-05
-8.88506e-20
2.99974e-05
-4.9331e-20
2.99974e-05
1.95117e-19
2.99974e-05
1.76846e-19
2.99974e-05
-3.32968e-19
2.99974e-05
-5.6811e-22
2.99974e-05
1.86997e-19
2.99974e-05
-2.365e-19
2.99974e-05
1.37719e-19
2.99974e-05
2.43745e-19
2.99974e-05
-3.32153e-19
2.99974e-05
2.66515e-19
2.99974e-05
1.52519e-19
2.99974e-05
-3.10658e-19
2.99974e-05
4.2677e-20
2.99974e-05
-4.13752e-20
2.99974e-05
-1.22564e-19
2.99974e-05
4.74523e-20
2.99974e-05
1.75586e-19
2.99974e-05
2.14619e-20
2.99974e-05
-2.7577e-20
2.99974e-05
-1.75927e-19
2.99974e-05
-5.41051e-20
2.99974e-05
1.42508e-19
2.99974e-05
-7.22947e-20
2.99974e-05
-1.73365e-19
2.99974e-05
6.74631e-20
2.99974e-05
2.19703e-19
2.99974e-05
3.33283e-20
2.99974e-05
-5.23296e-20
2.99974e-05
-1.83316e-19
2.99974e-05
-9.85837e-20
2.99974e-05
1.40566e-19
2.99974e-05
-3.92597e-20
2.99974e-05
1.82934e-19
2.99974e-05
-1.85707e-19
2.99974e-05
-1.99264e-20
2.99974e-05
3.55224e-19
2.99974e-05
-2.33465e-19
2.99974e-05
-5.63633e-20
2.99974e-05
3.11771e-20
2.99974e-05
-2.98519e-20
2.99974e-05
-7.92439e-20
2.99974e-05
3.07785e-19
2.99974e-05
5.86988e-20
2.99974e-05
-2.13933e-19
2.99974e-05
-4.80792e-20
2.99974e-05
-2.27663e-20
2.99974e-05
1.28299e-19
2.99974e-05
-1.16809e-19
2.99974e-05
7.7444e-20
2.99974e-05
-1.19722e-19
2.99974e-05
2.19097e-19
2.99974e-05
6.0357e-20
2.99974e-05
-1.84866e-19
2.99974e-05
-7.26322e-20
2.99974e-05
7.32666e-20
2.99974e-05
5.02436e-20
2.99974e-05
-1.08079e-19
2.99974e-05
3.09859e-19
2.99974e-05
-2.23921e-19
2.99974e-05
5.15112e-20
2.99974e-05
1.43458e-19
2.99974e-05
-1.08276e-19
2.99974e-05
-1.13579e-19
2.99974e-05
8.01549e-20
2.99974e-05
-2.72738e-20
2.99974e-05
-2.26486e-19
2.99974e-05
3.48056e-19
2.99974e-05
1.93825e-19
2.99974e-05
-2.3282e-19
2.99974e-05
-1.42735e-19
2.99974e-05
-5.86985e-20
2.99974e-05
-5.03185e-20
2.99974e-05
1.07696e-19
2.99974e-05
3.57402e-19
2.99974e-05
-2.92415e-19
2.99974e-05
-1.54187e-19
2.99974e-05
-8.97342e-20
2.99974e-05
2.86569e-19
2.99974e-05
2.75601e-19
2.99974e-05
-5.052e-19
2.99974e-05
-8.72184e-20
2.99974e-05
2.84843e-19
2.99974e-05
3.34921e-19
2.99974e-05
-3.91638e-19
2.99974e-05
4.10546e-20
2.99974e-05
1.23862e-19
2.99974e-05
-8.6894e-20
2.99974e-05
4.75075e-20
2.99974e-05
-2.61217e-19
2.99974e-05
2.59137e-20
2.99974e-05
2.55458e-19
2.99974e-05
1.34056e-19
2.99974e-05
-3.71479e-19
2.99974e-05
-1.33642e-19
2.99974e-05
4.86262e-19
2.99974e-05
-1.14403e-19
2.99974e-05
-1.85318e-19
2.99974e-05
3.98213e-20
2.99974e-05
9.12248e-20
2.99974e-05
2.39003e-20
2.99974e-05
7.56779e-20
2.99974e-05
-2.0064e-19
2.99974e-05
-1.52078e-19
2.99974e-05
5.06579e-19
2.99974e-05
-2.82815e-20
2.99974e-05
-4.76256e-19
2.99974e-05
-3.04151e-20
2.99974e-05
6.03171e-19
2.99974e-05
-1.38612e-19
2.99974e-05
-5.6936e-20
2.99974e-05
-2.22461e-20
2.99974e-05
-2.69497e-19
2.99974e-05
4.48203e-19
2.99974e-05
-2.34808e-19
2.99974e-05
-7.82796e-20
2.99974e-05
-5.95754e-20
2.99974e-05
1.9559e-19
2.99974e-05
8.90169e-20
2.99974e-05
-1.82039e-19
2.99974e-05
9.32722e-20
2.99974e-05
-1.61712e-19
2.99974e-05
2.21156e-19
2.99974e-05
-8.68625e-20
2.99974e-05
6.09265e-20
2.99974e-05
-1.25341e-19
2.99974e-05
1.47727e-19
2.99974e-05
-2.30647e-20
2.99974e-05
-1.5677e-19
2.99974e-05
1.59102e-19
2.99974e-05
7.66633e-20
2.99974e-05
1.66416e-19
2.99974e-05
-5.34842e-19
2.99974e-05
2.81809e-19
2.99974e-05
1.71281e-19
2.99974e-05
5.56932e-20
2.99974e-05
8.25438e-20
2.99974e-05
-4.72054e-19
2.99974e-05
1.49529e-19
2.99974e-05
1.88715e-19
2.99974e-05
-3.1199e-20
2.99974e-05
-2.02179e-19
2.99974e-05
1.42219e-19
2.99974e-05
-9.73204e-20
2.99974e-05
4.56234e-20
2.99974e-05
1.10686e-19
2.99974e-05
-1.77621e-19
2.99974e-05
2.07166e-19
2.99974e-05
6.1743e-20
2.99974e-05
1.1573e-19
2.99974e-05
-2.83202e-19
2.99974e-05
5.77967e-20
2.99974e-05
1.37458e-19
2.99974e-05
4.14038e-20
2.99974e-05
-4.21359e-20
2.99974e-05
-1.80524e-19
2.99974e-05
2.62504e-19
2.99974e-05
-3.17637e-19
2.99974e-05
6.95894e-20
2.99974e-05
1.59936e-20
2.99974e-05
-7.87259e-20
2.99974e-05
3.17287e-19
2.99974e-05
-2.34592e-19
2.99974e-05
-2.50442e-19
2.99974e-05
1.78396e-19
2.99974e-05
2.0306e-19
2.99974e-05
-2.87835e-19
2.99974e-05
5.67051e-20
2.99974e-05
-6.51737e-20
2.99974e-05
-2.89947e-20
2.99974e-05
1.3016e-19
2.99974e-05
-2.94791e-19
5.96996e-20
8.87922e-05
6.36055e-19
8.87922e-05
-7.66663e-20
8.87922e-05
-1.28303e-19
8.87922e-05
1.13172e-20
8.87922e-05
5.12264e-20
8.87922e-05
2.07255e-20
8.87922e-05
8.58278e-21
8.87922e-05
4.01154e-20
8.87922e-05
5.04899e-21
8.87922e-05
-1.5577e-20
8.87922e-05
-5.35846e-20
8.87922e-05
-6.64441e-20
8.87922e-05
-6.68931e-20
8.87922e-05
-1.17769e-20
8.87922e-05
-1.3798e-21
8.87922e-05
-7.13284e-20
8.87922e-05
-8.36289e-20
8.87922e-05
-9.42783e-20
8.87922e-05
-4.70071e-20
8.87922e-05
-1.23655e-20
8.87922e-05
-1.64512e-20
8.87922e-05
3.32446e-20
8.87922e-05
6.23091e-20
8.87922e-05
-2.70298e-21
8.87922e-05
-1.6767e-20
8.87922e-05
-7.02193e-20
8.87922e-05
-2.39354e-20
8.87922e-05
4.49958e-20
8.87922e-05
-4.55355e-20
8.87922e-05
-1.16399e-20
8.87922e-05
-1.04083e-20
8.87922e-05
-6.01242e-20
8.87922e-05
-5.16321e-20
8.87922e-05
-7.50052e-20
8.87922e-05
-8.14939e-20
8.87922e-05
1.56955e-21
8.87922e-05
-1.07338e-19
8.87922e-05
-4.1813e-20
8.87922e-05
1.0016e-21
8.87922e-05
-8.98924e-20
8.87922e-05
-1.39501e-20
8.87922e-05
-7.09021e-20
8.87922e-05
-1.86229e-20
8.87922e-05
3.16084e-20
8.87922e-05
6.42122e-20
8.87922e-05
9.34735e-20
8.87922e-05
9.55718e-20
8.87922e-05
-6.56106e-20
8.87922e-05
-2.58654e-20
8.87922e-05
9.25349e-20
8.87922e-05
6.85335e-20
8.87922e-05
2.64429e-21
8.87922e-05
-6.86098e-20
8.87922e-05
-2.02442e-20
8.87922e-05
6.94527e-20
8.87922e-05
-5.11817e-20
8.87922e-05
9.08355e-20
8.87922e-05
-6.26709e-20
8.87922e-05
-1.4332e-19
8.87922e-05
-2.98855e-20
8.87922e-05
-1.43038e-20
8.87922e-05
1.3121e-20
8.87922e-05
-4.46646e-20
8.87922e-05
-9.00127e-21
8.87922e-05
-6.06455e-22
8.87922e-05
3.68634e-20
8.87922e-05
-1.0977e-19
8.87922e-05
-8.04562e-20
8.87922e-05
1.19166e-19
8.87922e-05
4.66935e-20
8.87922e-05
1.8857e-20
8.87922e-05
5.29763e-20
8.87922e-05
1.57057e-19
8.87922e-05
-3.30725e-20
8.87922e-05
-1.06128e-19
8.87922e-05
2.48066e-19
8.87922e-05
1.79616e-19
8.87922e-05
-1.0456e-19
8.87922e-05
-9.37772e-20
8.87922e-05
6.10781e-20
8.87922e-05
2.87447e-20
8.87922e-05
-7.68113e-20
8.87922e-05
-3.68595e-20
8.87922e-05
-2.40911e-20
8.87922e-05
-8.7271e-20
8.87922e-05
6.11175e-20
8.87922e-05
-1.47489e-20
8.87922e-05
1.58918e-20
8.87922e-05
6.12971e-21
8.87922e-05
-8.89994e-21
8.87922e-05
9.58468e-20
8.87922e-05
5.35841e-20
8.87922e-05
6.055e-20
8.87922e-05
3.94054e-20
8.87922e-05
1.2576e-20
8.87922e-05
-1.97393e-19
8.87922e-05
-2.71694e-20
8.87922e-05
2.16806e-19
8.87922e-05
-1.37995e-19
8.87922e-05
-1.06977e-19
8.87922e-05
2.05332e-19
8.87922e-05
1.2953e-19
8.87922e-05
-4.73962e-20
8.87922e-05
-1.08211e-19
8.87922e-05
3.90959e-20
8.87922e-05
6.84385e-20
8.87922e-05
-3.88262e-20
8.87922e-05
-5.30181e-20
8.87922e-05
1.40304e-19
8.87922e-05
1.67823e-19
8.87922e-05
-9.52573e-20
8.87922e-05
-1.84197e-19
8.87922e-05
-6.68514e-20
8.87922e-05
2.14471e-19
8.87922e-05
1.32027e-19
8.87922e-05
-2.3998e-19
8.87922e-05
-1.45173e-19
8.87922e-05
1.61654e-19
8.87922e-05
1.91255e-19
8.87922e-05
9.02827e-21
8.87922e-05
-5.99096e-20
8.87922e-05
7.18654e-20
8.87922e-05
1.32124e-19
8.87922e-05
-5.8259e-20
8.87922e-05
-1.24403e-19
8.87922e-05
1.17995e-19
8.87922e-05
5.68347e-20
8.87922e-05
-2.75039e-20
8.87922e-05
1.19821e-19
8.87922e-05
7.05341e-20
8.87922e-05
8.86137e-20
8.87922e-05
-2.76146e-21
8.87922e-05
1.81912e-19
8.87922e-05
-1.07984e-19
8.87922e-05
-1.5763e-19
8.87922e-05
9.24508e-20
8.87922e-05
-7.76516e-20
8.87922e-05
-1.52493e-19
8.87922e-05
1.71044e-19
8.87922e-05
1.43507e-19
8.87922e-05
-2.86318e-19
8.87922e-05
-2.48733e-19
8.87922e-05
2.60455e-19
8.87922e-05
3.62096e-19
8.87922e-05
-2.37138e-19
8.87922e-05
-5.04151e-20
8.87922e-05
3.9261e-19
8.87922e-05
-7.45253e-20
8.87922e-05
-2.7827e-19
8.87922e-05
1.39516e-19
8.87922e-05
-1.19406e-19
8.87922e-05
4.10481e-20
8.87922e-05
1.84872e-19
8.87922e-05
-3.15541e-19
8.87922e-05
-6.08486e-20
8.87922e-05
1.58834e-19
8.87922e-05
-1.9079e-19
8.87922e-05
-3.6009e-20
8.87922e-05
-4.80611e-21
8.87922e-05
3.33238e-19
8.87922e-05
1.6619e-19
8.87922e-05
-6.90989e-20
8.87922e-05
-6.4089e-20
8.87922e-05
-6.29848e-20
8.87922e-05
-7.77456e-20
8.87922e-05
-5.47581e-21
8.87922e-05
1.15717e-19
8.87922e-05
-2.24997e-19
8.87922e-05
2.8948e-19
8.87922e-05
2.57535e-19
8.87922e-05
-2.32331e-19
8.87922e-05
3.62616e-20
8.87922e-05
2.21693e-19
8.87922e-05
-1.24584e-19
8.87922e-05
-2.4678e-19
8.87922e-05
9.4936e-20
8.87922e-05
2.89647e-19
8.87922e-05
-1.07873e-19
8.87922e-05
-1.47708e-19
8.87922e-05
3.15734e-19
8.87922e-05
-3.08722e-20
8.87922e-05
-2.12039e-19
8.87922e-05
-2.31885e-20
8.87922e-05
-1.26398e-19
8.87922e-05
1.49056e-19
8.87922e-05
-4.15556e-20
8.87922e-05
-2.90704e-19
8.87922e-05
-8.10483e-20
8.87922e-05
4.58939e-20
8.87922e-05
-8.79543e-20
8.87922e-05
-2.09776e-19
8.87922e-05
-1.30799e-19
8.87922e-05
2.62787e-20
8.87922e-05
4.10764e-19
8.87922e-05
9.5814e-20
8.87922e-05
-4.35126e-20
8.87922e-05
2.72487e-19
8.87922e-05
-1.09678e-19
8.87922e-05
-4.39249e-19
8.87922e-05
-1.28241e-19
8.87922e-05
5.61967e-20
8.87922e-05
-2.81136e-19
8.87922e-05
3.1799e-19
8.87922e-05
9.67757e-20
8.87922e-05
1.48043e-19
8.87922e-05
2.51317e-19
8.87922e-05
-4.41394e-19
8.87922e-05
-3.53571e-19
8.87922e-05
2.0838e-21
8.87922e-05
6.90671e-20
8.87922e-05
5.92867e-20
8.87922e-05
9.71739e-20
8.87922e-05
-1.48284e-19
8.87922e-05
8.3531e-20
8.87922e-05
-2.59044e-19
8.87922e-05
2.53934e-20
8.87922e-05
-1.58917e-19
8.87922e-05
-1.18696e-19
8.87922e-05
4.01609e-19
8.87922e-05
2.50129e-19
8.87922e-05
-7.79826e-20
8.87922e-05
-1.40251e-19
8.87922e-05
1.12563e-19
8.87922e-05
-1.18681e-19
8.87922e-05
8.13911e-20
8.87922e-05
3.04605e-20
8.87922e-05
-1.81965e-20
8.87922e-05
1.70874e-19
8.87922e-05
2.86208e-19
8.87922e-05
-7.96787e-20
8.87922e-05
-7.20579e-20
8.87922e-05
-2.25776e-19
8.87922e-05
-1.8746e-19
8.87922e-05
9.67295e-20
8.87922e-05
-1.34214e-19
8.87922e-05
1.53183e-19
8.87922e-05
1.24435e-19
8.87922e-05
-1.05227e-20
8.87922e-05
-8.10028e-20
8.87922e-05
1.16526e-21
8.87922e-05
-5.79403e-21
8.87922e-05
-1.73227e-19
8.87922e-05
3.62328e-20
8.87922e-05
4.2575e-19
8.87922e-05
-1.73681e-20
8.87922e-05
-8.65601e-20
8.87922e-05
1.47624e-19
8.87922e-05
-1.90252e-19
8.87922e-05
-4.8062e-20
8.87922e-05
5.06313e-20
8.87922e-05
-1.47194e-19
8.87922e-05
-3.81492e-20
8.87922e-05
3.07934e-19
8.87922e-05
-1.79851e-20
8.87922e-05
-2.05815e-19
8.87922e-05
1.52198e-19
8.87922e-05
-4.35029e-20
8.87922e-05
-2.0745e-19
8.87922e-05
-6.38242e-22
8.87922e-05
-2.51689e-19
8.87922e-05
1.55426e-19
8.87922e-05
5.03235e-19
8.87922e-05
-2.01238e-19
8.87922e-05
1.27534e-20
8.87922e-05
-5.08363e-19
8.87922e-05
-4.21628e-19
8.87922e-05
7.26366e-19
8.87922e-05
-3.09776e-19
8.87922e-05
-2.21547e-19
8.87922e-05
9.17583e-19
8.87922e-05
-3.17016e-19
8.87922e-05
-3.64033e-19
8.87922e-05
1.6716e-19
8.87922e-05
-3.24229e-19
8.87922e-05
1.15493e-19
8.87922e-05
-7.96591e-20
8.87922e-05
-1.20507e-19
8.87922e-05
2.3747e-19
8.87922e-05
2.25238e-19
8.87922e-05
-1.23868e-19
8.87922e-05
-2.62038e-19
8.87922e-05
-3.64484e-19
8.87922e-05
1.9255e-19
8.87922e-05
4.99142e-19
8.87922e-05
-4.8163e-19
8.87922e-05
4.78389e-19
8.87922e-05
2.10964e-19
8.87922e-05
-5.96874e-19
8.87922e-05
4.6073e-19
8.87922e-05
1.10452e-19
8.87922e-05
-6.55057e-19
8.87922e-05
1.43662e-19
8.87922e-05
1.51433e-19
8.87922e-05
-2.97721e-19
8.87922e-05
7.23644e-19
8.87922e-05
8.64605e-20
8.87922e-05
-7.34084e-19
8.87922e-05
9.02154e-20
8.87922e-05
-1.30692e-19
8.87922e-05
-3.89345e-19
8.87922e-05
4.40807e-19
8.87922e-05
-1.08833e-19
8.87922e-05
-1.94127e-19
8.87922e-05
8.39916e-19
8.87922e-05
-2.62888e-19
8.87922e-05
-6.53513e-19
8.87922e-05
3.48041e-19
8.87922e-05
-2.18674e-19
8.87922e-05
-2.89618e-19
8.87922e-05
4.93475e-19
8.87922e-05
2.59627e-19
8.87922e-05
-4.46053e-19
8.87922e-05
1.75234e-19
8.87922e-05
1.59971e-19
8.87922e-05
-2.76805e-19
8.87922e-05
-5.39839e-20
8.87922e-05
-2.1496e-19
8.87922e-05
-1.33014e-19
8.87922e-05
-2.87252e-20
8.87922e-05
3.95233e-19
8.87922e-05
3.78844e-19
8.87922e-05
-1.93118e-19
8.87922e-05
-2.92207e-19
8.87922e-05
2.90272e-21
8.87922e-05
3.41045e-19
8.87922e-05
-1.47849e-19
8.87922e-05
-1.69397e-19
8.87922e-05
-7.90818e-20
8.87922e-05
3.9324e-19
8.87922e-05
3.81334e-19
8.87922e-05
-6.16848e-19
8.87922e-05
-6.65175e-20
8.87922e-05
3.18041e-19
8.87922e-05
-3.90132e-19
8.87922e-05
2.4027e-19
8.87922e-05
5.08891e-19
8.87922e-05
-4.35857e-19
8.87922e-05
4.56419e-19
8.87922e-05
2.54075e-19
8.87922e-05
-5.57625e-19
8.87922e-05
-3.85293e-20
8.87922e-05
-2.46336e-19
8.87922e-05
-1.17364e-19
8.87922e-05
1.28954e-19
8.87922e-05
2.63529e-19
8.87922e-05
1.69162e-19
8.87922e-05
-1.15981e-19
8.87922e-05
-4.68544e-19
8.87922e-05
-4.44255e-20
8.87922e-05
2.90525e-19
8.87922e-05
-3.62944e-19
8.87922e-05
-2.4155e-19
8.87922e-05
1.78089e-19
8.87922e-05
3.70774e-19
8.87922e-05
2.17358e-19
8.87922e-05
-1.48543e-19
8.87922e-05
-4.98083e-19
8.87922e-05
-1.59528e-19
8.87922e-05
1.60503e-19
8.87922e-05
-3.52505e-20
8.87922e-05
4.92182e-19
8.87922e-05
-4.13798e-19
8.87922e-05
-1.1587e-20
8.87922e-05
7.37462e-19
8.87922e-05
-4.45287e-19
8.87922e-05
-2.11606e-19
8.87922e-05
4.12341e-20
8.87922e-05
-2.90671e-20
8.87922e-05
-9.46102e-20
8.87922e-05
6.9135e-19
8.87922e-05
9.57201e-20
8.87922e-05
-4.35105e-19
8.87922e-05
-6.59552e-20
8.87922e-05
-4.57204e-20
8.87922e-05
1.68902e-19
8.87922e-05
-2.13949e-19
8.87922e-05
9.14417e-20
8.87922e-05
-1.08131e-19
8.87922e-05
4.96351e-19
8.87922e-05
-7.88678e-21
8.87922e-05
-3.89806e-19
8.87922e-05
-1.06198e-19
8.87922e-05
1.51099e-19
8.87922e-05
8.7853e-20
8.87922e-05
-1.95515e-19
8.87922e-05
8.11077e-19
8.87922e-05
-3.23582e-19
8.87922e-05
-1.16816e-19
8.87922e-05
3.83991e-19
8.87922e-05
-1.26018e-19
8.87922e-05
-4.25374e-19
8.87922e-05
1.14989e-19
8.87922e-05
-5.54882e-21
8.87922e-05
-4.65807e-19
8.87922e-05
8.90851e-19
8.87922e-05
3.94714e-19
8.87922e-05
-6.49294e-19
8.87922e-05
-2.58185e-19
8.87922e-05
-1.79046e-19
8.87922e-05
-1.7805e-19
8.87922e-05
2.84524e-19
8.87922e-05
7.29956e-19
8.87922e-05
-6.23012e-19
8.87922e-05
-2.79363e-19
8.87922e-05
-2.83737e-19
8.87922e-05
5.53464e-19
8.87922e-05
7.67507e-19
8.87922e-05
-1.05355e-18
8.87922e-05
-3.93339e-19
8.87922e-05
6.94396e-19
8.87922e-05
8.98552e-19
8.87922e-05
-8.51907e-19
8.87922e-05
4.37448e-20
8.87922e-05
2.42463e-19
8.87922e-05
-1.79879e-19
8.87922e-05
-2.6057e-20
8.87922e-05
-6.22789e-19
8.87922e-05
2.06418e-19
8.87922e-05
5.40872e-19
8.87922e-05
2.58495e-19
8.87922e-05
-7.59165e-19
8.87922e-05
-2.68501e-19
8.87922e-05
9.25554e-19
8.87922e-05
-6.52559e-20
8.87922e-05
-3.36136e-19
8.87922e-05
-8.28557e-20
8.87922e-05
2.9133e-19
8.87922e-05
1.22829e-19
8.87922e-05
1.08679e-19
8.87922e-05
-4.61864e-19
8.87922e-05
-3.24005e-19
8.87922e-05
1.05416e-18
8.87922e-05
1.34055e-19
8.87922e-05
-1.09519e-18
8.87922e-05
-2.25728e-19
8.87922e-05
1.47526e-18
8.87922e-05
-1.30339e-19
8.87922e-05
-2.19852e-19
8.87922e-05
-1.04368e-19
8.87922e-05
-4.388e-19
8.87922e-05
7.20834e-19
8.87922e-05
-3.65414e-19
8.87922e-05
-2.30986e-19
8.87922e-05
-6.97306e-20
8.87922e-05
4.38717e-19
8.87922e-05
1.31715e-19
8.87922e-05
-2.84435e-19
8.87922e-05
7.4028e-20
8.87922e-05
-2.77213e-19
8.87922e-05
5.07935e-19
8.87922e-05
-1.41933e-19
8.87922e-05
-2.08319e-20
8.87922e-05
-4.46278e-20
8.87922e-05
3.00073e-19
8.87922e-05
-1.78719e-19
8.87922e-05
-2.63391e-19
8.87922e-05
3.53021e-19
8.87922e-05
1.9998e-19
8.87922e-05
3.63289e-19
8.87922e-05
-1.0735e-18
8.87922e-05
4.73856e-19
8.87922e-05
7.15118e-19
8.87922e-05
9.84876e-20
8.87922e-05
-1.47744e-19
8.87922e-05
-8.02216e-19
8.87922e-05
3.69769e-19
8.87922e-05
1.73124e-19
8.87922e-05
-9.67274e-20
8.87922e-05
-1.69274e-19
8.87922e-05
1.24556e-19
8.87922e-05
-2.011e-19
8.87922e-05
1.09446e-19
8.87922e-05
2.32603e-19
8.87922e-05
-2.06773e-19
8.87922e-05
4.08206e-19
8.87922e-05
2.77726e-19
8.87922e-05
9.24705e-20
8.87922e-05
-5.91811e-19
8.87922e-05
3.45805e-19
8.87922e-05
2.11513e-19
8.87922e-05
-8.81418e-20
8.87922e-05
4.39967e-20
8.87922e-05
-2.31971e-19
8.87922e-05
2.39771e-19
8.87922e-05
-6.48952e-19
8.87922e-05
1.56622e-19
8.87922e-05
5.51207e-20
8.87922e-05
5.3099e-20
8.87922e-05
4.22856e-19
8.87922e-05
-6.63671e-19
8.87922e-05
-3.36063e-19
8.87922e-05
5.13079e-19
8.87922e-05
2.05609e-19
8.87922e-05
-5.80199e-19
8.87922e-05
9.85669e-20
8.87922e-05
-4.65087e-20
8.87922e-05
2.23327e-22
8.87922e-05
2.15684e-19
8.87922e-05
-3.38874e-19
5.30906e-21
0.000146387
5.16306e-19
0.000146387
-1.56295e-19
0.000146387
-1.58481e-19
0.000146387
5.09225e-20
0.000146387
9.61097e-20
0.000146387
3.10466e-20
0.000146387
4.41505e-20
0.000146387
9.18687e-20
0.000146387
9.22469e-23
0.000146387
-8.22947e-20
0.000146387
-1.39525e-19
0.000146387
-1.47132e-19
0.000146387
-1.48853e-19
0.000146387
-6.04102e-20
0.000146387
-4.3013e-20
0.000146387
-1.00687e-19
0.000146387
-1.12699e-19
0.000146387
-1.53891e-19
0.000146387
-5.40122e-20
0.000146387
5.42694e-21
0.000146387
-6.8883e-20
0.000146387
-2.11516e-21
0.000146387
1.26893e-19
0.000146387
1.79509e-20
0.000146387
-3.94227e-20
0.000146387
-1.13878e-19
0.000146387
-3.06823e-20
0.000146387
1.01954e-19
0.000146387
-8.35486e-20
0.000146387
-9.4335e-20
0.000146387
-4.38921e-20
0.000146387
-5.58301e-20
0.000146387
-1.19564e-19
0.000146387
-1.33147e-19
0.000146387
-1.66172e-19
0.000146387
-7.1175e-20
0.000146387
-2.40809e-19
0.000146387
-1.16532e-19
0.000146387
-3.94637e-20
0.000146387
-1.49364e-19
0.000146387
-4.5023e-20
0.000146387
-1.24925e-19
0.000146387
-6.19683e-20
0.000146387
8.54952e-20
0.000146387
1.53942e-19
0.000146387
2.08099e-19
0.000146387
1.13729e-19
0.000146387
-6.84208e-20
0.000146387
1.31715e-20
0.000146387
1.0665e-19
0.000146387
1.53429e-19
0.000146387
1.88888e-21
0.000146387
-1.58884e-19
0.000146387
-2.34664e-20
0.000146387
1.27127e-19
0.000146387
-4.65626e-21
0.000146387
-8.92614e-22
0.000146387
-1.90405e-19
0.000146387
-1.90805e-19
0.000146387
-6.54782e-20
0.000146387
-3.19159e-20
0.000146387
2.30804e-21
0.000146387
-7.63137e-20
0.000146387
7.68792e-22
0.000146387
4.14235e-20
0.000146387
2.29025e-20
0.000146387
-1.65163e-19
0.000146387
-9.91111e-20
0.000146387
1.92423e-19
0.000146387
1.60718e-19
0.000146387
8.83422e-20
0.000146387
7.26612e-20
0.000146387
2.3495e-19
0.000146387
3.87086e-20
0.000146387
-1.90456e-19
0.000146387
3.71281e-19
0.000146387
3.3015e-19
0.000146387
-5.44834e-20
0.000146387
-1.54407e-19
0.000146387
4.88204e-20
0.000146387
2.85342e-20
0.000146387
-1.3985e-19
0.000146387
-7.18564e-20
0.000146387
-2.81537e-20
0.000146387
-7.80455e-20
0.000146387
4.52299e-20
0.000146387
-1.47402e-20
0.000146387
5.48652e-20
0.000146387
2.19516e-21
0.000146387
7.67347e-21
0.000146387
1.87588e-19
0.000146387
4.36273e-20
0.000146387
1.18226e-19
0.000146387
1.22758e-19
0.000146387
-2.90597e-20
0.000146387
-2.69519e-19
0.000146387
-6.25905e-20
0.000146387
2.47234e-19
0.000146387
-1.5064e-19
0.000146387
-1.67716e-19
0.000146387
2.89156e-19
0.000146387
2.59779e-19
0.000146387
-3.21248e-20
0.000146387
-1.90333e-19
0.000146387
6.93699e-20
0.000146387
1.70451e-19
0.000146387
-8.61356e-20
0.000146387
-1.21926e-19
0.000146387
2.92847e-19
0.000146387
2.34881e-19
0.000146387
-1.77886e-19
0.000146387
-2.69111e-19
0.000146387
-6.62549e-20
0.000146387
2.91896e-19
0.000146387
1.92687e-19
0.000146387
-3.03788e-19
0.000146387
-2.19949e-19
0.000146387
2.289e-19
0.000146387
2.71312e-19
0.000146387
7.55816e-20
0.000146387
-4.74415e-20
0.000146387
1.14044e-19
0.000146387
1.76106e-19
0.000146387
-8.06788e-20
0.000146387
-1.08333e-19
0.000146387
1.34017e-19
0.000146387
8.40879e-20
0.000146387
2.32912e-20
0.000146387
1.52477e-19
0.000146387
1.70241e-19
0.000146387
1.92486e-19
0.000146387
-3.61771e-20
0.000146387
1.50611e-19
0.000146387
-7.9788e-20
0.000146387
-1.89448e-19
0.000146387
1.28445e-19
0.000146387
-2.08209e-19
0.000146387
-1.79019e-19
0.000146387
2.55461e-19
0.000146387
1.33976e-19
0.000146387
-3.73242e-19
0.000146387
-3.28107e-19
0.000146387
4.13982e-19
0.000146387
5.56021e-19
0.000146387
-3.28822e-19
0.000146387
-1.34979e-20
0.000146387
6.42224e-19
0.000146387
-1.24531e-19
0.000146387
-3.56964e-19
0.000146387
1.20649e-19
0.000146387
-2.14487e-19
0.000146387
1.00942e-19
0.000146387
2.1781e-19
0.000146387
-4.66597e-19
0.000146387
-5.09661e-20
0.000146387
1.62115e-19
0.000146387
-2.26573e-19
0.000146387
-8.31381e-20
0.000146387
-3.55342e-20
0.000146387
5.51567e-19
0.000146387
3.29858e-19
0.000146387
-4.85523e-20
0.000146387
-1.56107e-19
0.000146387
-1.4628e-19
0.000146387
-5.16018e-20
0.000146387
3.40441e-20
0.000146387
1.45529e-19
0.000146387
-1.73596e-19
0.000146387
3.58774e-19
0.000146387
3.35646e-19
0.000146387
-2.79239e-19
0.000146387
2.17203e-20
0.000146387
2.90996e-19
0.000146387
-1.70291e-19
0.000146387
-3.45373e-19
0.000146387
2.05771e-19
0.000146387
4.78307e-19
0.000146387
-1.548e-19
0.000146387
-2.15553e-19
0.000146387
4.78096e-19
0.000146387
-2.4225e-20
0.000146387
-3.72137e-19
0.000146387
-5.696e-20
0.000146387
-1.3913e-19
0.000146387
5.17885e-20
0.000146387
-1.2347e-19
0.000146387
-3.6814e-19
0.000146387
-2.82798e-19
0.000146387
1.5102e-20
0.000146387
-1.33564e-19
0.000146387