/*--------------------------------*- C++ -*----------------------------------*\
| =========                 |                                                 |
| \\      /  F ield         | OpenFOAM: The Open Source CFD Toolbox           |
|  \\    /   O peration     | Version:  2112                                  |
|   \\  /    A nd           | Website:  www.openfoam.com                      |
|    \\/     M anipulation  |                                                 |
\*---------------------------------------------------------------------------*/
FoamFile
{
    version     2.0;
    format      ascii;
    arch        "LSB;label=32;scalar=64";
    class       volVectorField;
    location    "13";
    object      U;
}
// * * * * * * * * * * * * * * * * * * * * * * * * * * * * * * * * * * * * * //

dimensions      [0 1 -1 0 0 0 0];

internalField   nonuniform List<vector> 
50000
(
(0.0299974 4.19529e-16 0)
(0.0299974 8.03301e-17 0)
(0.0299974 -3.81336e-17 0)
(0.0299974 -1.49404e-17 0)
(0.0299974 -4.46867e-18 0)
(0.0299974 -2.61672e-18 0)
(0.0299974 -6.2796e-18 0)
(0.0299974 -3.00683e-18 0)
(0.0299974 -1.515e-18 0)
(0.0299974 1.95621e-18 0)
(0.0299974 -5.56721e-18 0)
(0.0299974 -3.7766e-18 0)
(0.0299974 -2.41439e-18 0)
(0.0299974 1.66395e-18 0)
(0.0299974 3.50173e-18 0)
(0.0299974 -6.4491e-18 0)
(0.0299974 -9.42471e-18 0)
(0.0299974 -1.3782e-18 0)
(0.0299974 -5.52347e-18 0)
(0.0299974 -1.12596e-18 0)
(0.0299974 5.56015e-18 0)
(0.0299974 4.14964e-19 0)
(0.0299974 3.05017e-18 0)
(0.0299974 5.35477e-19 0)
(0.0299974 -4.95031e-18 0)
(0.0299974 -3.30526e-18 0)
(0.0299974 -4.06165e-19 0)
(0.0299974 1.11679e-17 0)
(0.0299974 -6.78547e-18 0)
(0.0299974 9.22082e-19 0)
(0.0299974 5.22053e-18 0)
(0.0299974 -1.23035e-17 0)
(0.0299974 -3.61273e-19 0)
(0.0299974 7.06846e-18 0)
(0.0299974 -7.45188e-18 0)
(0.0299974 5.81435e-18 0)
(0.0299974 -5.10165e-18 0)
(0.0299974 -2.46378e-19 0)
(0.0299974 3.74305e-18 0)
(0.0299974 -1.07577e-17 0)
(0.0299974 4.6834e-18 0)
(0.0299974 -1.141e-17 0)
(0.0299974 1.52724e-17 0)
(0.0299974 5.98775e-18 0)
(0.0299974 -1.64059e-17 0)
(0.0299974 2.93775e-18 0)
(0.0299974 1.61817e-17 0)
(0.0299974 -1.06397e-17 0)
(0.0299974 -6.78897e-18 0)
(0.0299974 1.20562e-17 0)
(0.0299974 7.49786e-19 0)
(0.0299974 1.08034e-17 0)
(0.0299974 -1.52869e-17 0)
(0.0299974 -9.20165e-18 0)
(0.0299974 1.24887e-17 0)
(0.0299974 -6.092e-18 0)
(0.0299974 2.1907e-17 0)
(0.0299974 -9.0575e-18 0)
(0.0299974 -1.65825e-17 0)
(0.0299974 9.25397e-18 0)
(0.0299974 7.73038e-18 0)
(0.0299974 -8.19784e-18 0)
(0.0299974 -2.40894e-18 0)
(0.0299974 9.01681e-18 0)
(0.0299974 -2.45526e-17 0)
(0.0299974 3.37183e-18 0)
(0.0299974 5.83899e-18 0)
(0.0299974 6.79147e-18 0)
(0.0299974 8.34736e-18 0)
(0.0299974 -1.24139e-17 0)
(0.0299974 -1.11818e-17 0)
(0.0299974 9.00689e-19 0)
(0.0299974 2.54344e-17 0)
(0.0299974 -1.35992e-17 0)
(0.0299974 -1.77209e-17 0)
(0.0299974 3.46492e-17 0)
(0.0299974 6.94448e-18 0)
(0.0299974 -2.71115e-17 0)
(0.0299974 -4.13319e-18 0)
(0.0299974 1.51759e-17 0)
(0.0299974 1.34468e-18 0)
(0.0299974 -6.75687e-18 0)
(0.0299974 2.97791e-20 0)
(0.0299974 1.22842e-17 0)
(0.0299974 -2.6262e-17 0)
(0.0299974 1.06189e-17 0)
(0.0299974 1.87504e-17 0)
(0.0299974 -1.77433e-17 0)
(0.0299974 1.16924e-19 0)
(0.0299974 -1.27493e-17 0)
(0.0299974 6.48806e-18 0)
(0.0299974 2.05836e-17 0)
(0.0299974 -9.07839e-18 0)
(0.0299974 1.57171e-18 0)
(0.0299974 1.27551e-17 0)
(0.0299974 -3.96613e-17 0)
(0.0299974 9.9156e-18 0)
(0.0299974 3.10405e-17 0)
(0.0299974 -2.37092e-17 0)
(0.0299974 -5.96072e-18 0)
(0.0299974 1.17211e-17 0)
(0.0299974 2.54321e-17 0)
(0.0299974 -2.36948e-17 0)
(0.0299974 -2.6465e-17 0)
(0.0299974 4.42878e-17 0)
(0.0299974 -1.35588e-17 0)
(0.0299974 -2.32058e-17 0)
(0.0299974 1.43195e-17 0)
(0.0299974 3.95659e-18 0)
(0.0299974 2.88881e-17 0)
(0.0299974 -2.2977e-17 0)
(0.0299974 -2.70122e-17 0)
(0.0299974 1.63133e-17 0)
(0.0299974 6.17847e-18 0)
(0.0299974 2.62901e-17 0)
(0.0299974 -9.25268e-18 0)
(0.0299974 -4.60254e-17 0)
(0.0299974 8.06503e-18 0)
(0.0299974 2.70683e-17 0)
(0.0299974 -1.79348e-18 0)
(0.0299974 -4.61697e-18 0)
(0.0299974 1.08744e-18 0)
(0.0299974 2.7433e-17 0)
(0.0299974 -2.79957e-18 0)
(0.0299974 -4.70813e-17 0)
(0.0299974 2.66942e-17 0)
(0.0299974 2.34809e-17 0)
(0.0299974 -2.60255e-17 0)
(0.0299974 4.50777e-18 0)
(0.0299974 1.87815e-18 0)
(0.0299974 -1.4148e-17 0)
(0.0299974 -1.89257e-18 0)
(0.0299974 2.9445e-17 0)
(0.0299974 -4.44964e-18 0)
(0.0299974 -8.95357e-18 0)
(0.0299974 4.55647e-18 0)
(0.0299974 1.56318e-17 0)
(0.0299974 -2.8701e-17 0)
(0.0299974 1.10544e-17 0)
(0.0299974 2.79845e-17 0)
(0.0299974 -3.47459e-17 0)
(0.0299974 -3.51676e-17 0)
(0.0299974 1.31702e-17 0)
(0.0299974 4.06245e-17 0)
(0.0299974 -1.76982e-17 0)
(0.0299974 -5.41565e-18 0)
(0.0299974 4.51506e-17 0)
(0.0299974 -3.31906e-17 0)
(0.0299974 -3.39226e-17 0)
(0.0299974 3.43676e-17 0)
(0.0299974 -8.10775e-18 0)
(0.0299974 2.07556e-18 0)
(0.0299974 3.52822e-17 0)
(0.0299974 -4.04306e-17 0)
(0.0299974 -1.37329e-18 0)
(0.0299974 3.07058e-17 0)
(0.0299974 -5.54613e-17 0)
(0.0299974 -1.83008e-17 0)
(0.0299974 3.6606e-17 0)
(0.0299974 5.82269e-17 0)
(0.0299974 -3.498e-17 0)
(0.0299974 -5.61839e-18 0)
(0.0299974 -1.37282e-18 0)
(0.0299974 -1.24508e-18 0)
(0.0299974 -4.93066e-18 0)
(0.0299974 -5.19548e-18 0)
(0.0299974 8.20233e-18 0)
(0.0299974 -5.72872e-17 0)
(0.0299974 7.66779e-17 0)
(0.0299974 1.49088e-17 0)
(0.0299974 -8.08196e-17 0)
(0.0299974 6.55438e-17 0)
(0.0299974 3.17016e-17 0)
(0.0299974 -6.83618e-17 0)
(0.0299974 1.04684e-17 0)
(0.0299974 5.03266e-18 0)
(0.0299974 1.27219e-17 0)
(0.0299974 -1.17471e-17 0)
(0.0299974 -1.1253e-17 0)
(0.0299974 4.16037e-17 0)
(0.0299974 -4.34439e-17 0)
(0.0299974 -8.49215e-18 0)
(0.0299974 3.05201e-17 0)
(0.0299974 -2.97433e-17 0)
(0.0299974 4.57774e-17 0)
(0.0299974 -3.76369e-18 0)
(0.0299974 -5.33747e-17 0)
(0.0299974 4.20238e-17 0)
(0.0299974 4.84928e-18 0)
(0.0299974 -2.11691e-17 0)
(0.0299974 -1.08863e-17 0)
(0.0299974 -5.05484e-18 0)
(0.0299974 -3.99826e-17 0)
(0.0299974 4.03604e-17 0)
(0.0299974 4.16017e-17 0)
(0.0299974 -2.99989e-17 0)
(0.0299974 1.35001e-17 0)
(0.0299974 4.12472e-17 0)
(0.0299974 -5.60384e-17 0)
(0.0299974 -4.19764e-17 0)
(0.0299974 4.96352e-17 0)
(0.0299974 -2.25565e-17 0)
(0.0299974 1.55808e-17 0)
(0.0299974 1.52431e-18 0)
(0.0299974 4.78093e-17 0)
(0.0299974 -2.35803e-17 0)
(0.0299974 -6.40459e-17 0)
(0.0299974 2.5033e-17 0)
(0.0299974 8.79857e-18 0)
(0.0299974 3.74732e-18 0)
(0.0299974 4.43831e-17 0)
(0.0299974 -3.48263e-17 0)
(0.0299974 -5.33844e-17 0)
(0.0299974 9.32202e-17 0)
(0.0299974 -5.7817e-17 0)
(0.0299974 -3.63413e-17 0)
(0.0299974 3.30384e-17 0)
(0.0299974 -6.219e-18 0)
(0.0299974 1.57431e-17 0)
(0.0299974 4.79783e-17 0)
(0.0299974 -4.45747e-18 0)
(0.0299974 -4.7151e-17 0)
(0.0299974 -2.8973e-17 0)
(0.0299974 -5.10791e-18 0)
(0.0299974 4.42304e-17 0)
(0.0299974 -4.35179e-17 0)
(0.0299974 3.7933e-17 0)
(0.0299974 4.39677e-17 0)
(0.0299974 -2.83837e-17 0)
(0.0299974 4.00248e-17 0)
(0.0299974 4.32695e-18 0)
(0.0299974 -8.98452e-17 0)
(0.0299974 3.62261e-17 0)
(0.0299974 8.10608e-18 0)
(0.0299974 -5.69935e-17 0)
(0.0299974 4.83013e-17 0)
(0.0299974 3.07887e-18 0)
(0.0299974 4.15069e-17 0)
(0.0299974 -4.31188e-17 0)
(0.0299974 -2.81988e-19 0)
(0.0299974 4.87685e-18 0)
(0.0299974 -5.01702e-17 0)
(0.0299974 3.58552e-17 0)
(0.0299974 6.47297e-17 0)
(0.0299974 -4.82525e-17 0)
(0.0299974 -4.98065e-18 0)
(0.0299974 5.36215e-17 0)
(0.0299974 -5.7139e-17 0)
(0.0299974 5.70204e-18 0)
(0.0299974 -3.07546e-17 0)
(0.0299974 -1.11718e-17 0)
(0.0299974 -7.77761e-18 0)
(0.0299974 9.79815e-17 0)
(0.0299974 -2.1723e-18 0)
(0.0299974 -5.00898e-17 0)
(0.0299974 4.87593e-17 0)
(0.0299974 -4.27124e-17 0)
(0.0299974 -4.74993e-17 0)
(0.0299974 4.8981e-17 0)
(0.0299974 -2.03092e-17 0)
(0.0299974 3.28195e-18 0)
(0.0299974 7.1034e-17 0)
(0.0299974 -1.00934e-16 0)
(0.0299974 5.09222e-17 0)
(0.0299974 -2.043e-17 0)
(0.0299974 -3.13861e-17 0)
(0.0299974 4.64185e-17 0)
(0.0299974 -5.71129e-17 0)
(0.0299974 2.14646e-17 0)
(0.0299974 1.364e-16 0)
(0.0299974 -1.06923e-16 0)
(0.0299974 -5.5485e-17 0)
(0.0299974 6.33915e-17 0)
(0.0299974 -6.55871e-17 0)
(0.0299974 8.78587e-17 0)
(0.0299974 -8.08952e-17 0)
(0.0299974 -9.92228e-18 0)
(0.0299974 8.25515e-17 0)
(0.0299974 9.69234e-18 0)
(0.0299974 -4.45162e-17 0)
(0.0299974 -4.42538e-18 0)
(0.0299974 -1.57871e-17 0)
(0.0299974 1.07533e-17 0)
(0.0299974 3.27942e-17 0)
(0.0299974 -8.41338e-17 0)
(0.0299974 1.07399e-16 0)
(0.0299974 -2.54537e-17 0)
(0.0299974 -8.20265e-17 0)
(0.0299974 6.98149e-17 0)
(0.0299974 5.30986e-17 0)
(0.0299974 -8.39899e-17 0)
(0.0299974 -2.79033e-17 0)
(0.0299974 5.90667e-17 0)
(0.0299974 -2.86366e-17 0)
(0.0299974 7.85052e-17 0)
(0.0299974 4.6165e-17 0)
(0.0299974 -1.64075e-16 0)
(0.0299974 1.85961e-17 0)
(0.0299974 4.01639e-17 0)
(0.0299974 -7.07276e-17 0)
(0.0299974 7.06442e-17 0)
(0.0299974 -4.34844e-17 0)
(0.0299974 2.03775e-17 0)
(0.0299974 1.3078e-16 0)
(0.0299974 -9.86944e-17 0)
(0.0299974 -8.04536e-17 0)
(0.0299974 1.14923e-16 0)
(0.0299974 -5.29963e-17 0)
(0.0299974 -6.43422e-17 0)
(0.0299974 6.97492e-17 0)
(0.0299974 5.75866e-17 0)
(0.0299974 -6.77941e-17 0)
(0.0299974 1.25927e-17 0)
(0.0299974 7.80251e-18 0)
(0.0299974 -6.19666e-17 0)
(0.0299974 8.1914e-17 0)
(0.0299974 -9.27461e-17 0)
(0.0299974 -1.67241e-18 0)
(0.0299974 7.97688e-17 0)
(0.0299974 1.46823e-17 0)
(0.0299974 1.54809e-17 0)
(0.0299974 -9.93324e-18 0)
(0.0299974 -8.91166e-17 0)
(0.0299974 -4.10542e-17 0)
(0.0299974 1.40982e-16 0)
(0.0299974 -9.8182e-17 0)
(0.0299974 -4.56311e-18 0)
(0.0299974 3.7173e-17 0)
(0.0299974 5.67136e-17 0)
(0.0299974 6.20603e-17 0)
(0.0299974 -1.62116e-16 0)
(0.0299974 -2.35653e-19 0)
(0.0299974 1.08985e-16 0)
(0.0299974 -1.10235e-16 0)
(0.0299974 8.50994e-18 0)
(0.0299974 1.58649e-16 0)
(0.0299974 -1.59647e-16 0)
(0.0299974 6.56077e-17 0)
(0.0299974 1.02009e-16 0)
(0.0299974 -1.53259e-16 0)
(0.0299974 9.36393e-18 0)
(0.0299974 7.06045e-17 0)
(0.0299974 -8.77458e-17 0)
(0.0299974 4.20567e-18 0)
(0.0299974 1.31345e-16 0)
(0.0299974 -4.01062e-17 0)
(0.0299974 -3.68618e-17 0)
(0.0299974 -1.69841e-17 0)
(0.0299974 -4.16598e-17 0)
(0.0299974 1.88304e-17 0)
(0.0299974 6.3585e-17 0)
(0.0299974 -9.62126e-17 0)
(0.0299974 9.34969e-18 0)
(0.0299974 1.36844e-16 0)
(0.0299974 -3.72364e-17 0)
(0.0299974 -4.18554e-17 0)
(0.0299974 -5.47586e-17 0)
(0.0299974 -3.46253e-18 0)
(0.0299974 8.62984e-17 0)
(0.0299974 -9.51903e-17 0)
(0.0299974 8.19538e-17 0)
(0.0299974 1.35151e-17 0)
(0.0299974 -9.23142e-17 0)
(0.0299974 1.24763e-16 0)
(0.0299974 -6.90503e-17 0)
(0.0299974 -4.35948e-17 0)
(0.0299974 5.08781e-17 0)
(0.0299974 3.72345e-17 0)
(0.0299974 -1.0019e-16 0)
(0.0299974 7.17424e-17 0)
(0.0299974 7.96338e-17 0)
(0.0299974 -1.03298e-16 0)
(0.0299974 -3.33499e-17 0)
(0.0299974 2.4402e-19 0)
(0.0299974 5.288e-17 0)
(0.0299974 -1.98875e-17 0)
(0.0299974 5.29047e-17 0)
(0.0299974 -9.14597e-17 0)
(0.0299974 6.74808e-17 0)
(0.0299974 7.79365e-17 0)
(0.0299974 -1.03557e-16 0)
(0.0299974 -4.19048e-17 0)
(0.0299974 5.23045e-17 0)
(0.0299974 5.33884e-18 0)
(0.0299974 -2.74548e-17 0)
(0.0299974 5.03118e-17 0)
(0.0299974 -1.07962e-16 0)
(0.0299974 1.14967e-16 0)
(0.0299974 2.23472e-17 0)
(0.0299974 -8.69924e-17 0)
(0.0299974 1.74424e-17 0)
(0.0299974 4.65073e-18 0)
(0.0299974 6.55592e-18 0)
(0.0299974 -3.06745e-17 0)
(0.0299974 4.46181e-17 0)
(0.0299974 9.78053e-17 0)
(0.0299974 -3.56171e-17 0)
(0.0299974 -1.63459e-16 0)
(0.0299974 6.64776e-18 0)
(0.0299974 7.56534e-17 0)
(0.0299974 -1.41041e-18 0)
(0.0299974 1.22665e-16 0)
(0.0299974 -1.17255e-16 0)
(0.0299974 -7.86981e-17 0)
(0.0299974 6.30604e-17 0)
(0.0299974 9.83858e-17 0)
(0.0299974 -3.81713e-17 0)
(0.0299974 -1.41409e-16 0)
(0.0299974 6.75257e-17 0)
(0.0299974 2.90082e-17 0)
(0.0299974 1.39136e-16 0)
(0.0299974 -1.33624e-16 0)
(0.0299974 -7.83116e-17 0)
(0.0299974 9.0692e-17 0)
(0.0299974 -1.42238e-17 0)
(0.0299974 1.08008e-17 0)
(0.0299974 -3.08924e-17 0)
(0.0299974 9.54002e-18 0)
(0.0299974 1.8832e-17 0)
(0.0299974 9.95069e-17 0)
(0.0299974 -1.16989e-16 0)
(0.0299974 -9.81823e-17 0)
(0.0299974 2.18828e-16 0)
(0.0299974 -9.5453e-17 0)
(0.0299974 -1.05593e-16 0)
(0.0299974 8.01938e-17 0)
(0.0299974 2.10215e-17 0)
(0.0299974 -4.36973e-18 0)
(0.0299974 9.09048e-17 0)
(0.0299974 -1.0318e-16 0)
(0.0299974 -1.11217e-16 0)
(0.0299974 2.23118e-16 0)
(0.0299974 -7.11314e-17 0)
(0.0299974 -1.39605e-16 0)
(0.0299974 6.29046e-17 0)
(0.0299974 1.64944e-16 0)
(0.0299974 -1.08164e-16 0)
(0.0299974 -9.1193e-18 0)
(0.0299974 7.85473e-18 0)
(0.0299974 -1.15127e-16 0)
(0.0299974 2.1371e-16 0)
(0.0299974 -1.09884e-16 0)
(0.0299974 -8.45423e-18 0)
(0.0299974 -8.72684e-17 0)
(0.0299974 1.07975e-16 0)
(0.0299974 8.41039e-17 0)
(0.0299974 -1.84139e-16 0)
(0.0299974 1.00518e-16 0)
(0.0299974 -1.71441e-17 0)
(0.0299974 2.41059e-17 0)
(0.0299974 -2.32855e-17 0)
(0.0299974 8.73085e-17 0)
(0.0299974 -1.67633e-16 0)
(0.0299974 1.03381e-16 0)
(0.0299974 7.01907e-17 0)
(0.0299974 -1.85685e-16 0)
(0.0299974 1.00855e-16 0)
(0.0299974 8.87602e-17 0)
(0.0299974 -5.00278e-17 0)
(0.0299974 -1.52156e-16 0)
(0.0299974 1.96963e-16 0)
(0.0299974 -1.33255e-16 0)
(0.0299974 7.3628e-17 0)
(0.0299974 1.68968e-16 0)
(0.0299974 -2.86398e-16 0)
(0.0299974 3.00905e-17 0)
(0.0299974 1.6917e-16 0)
(0.0299974 -1.36252e-17 0)
(0.0299974 -1.76362e-16 0)
(0.0299974 1.01322e-16 0)
(0.0299974 -1.29808e-17 0)
(0.0299974 2.82043e-18 0)
(0.0299974 1.53385e-17 0)
(0.0299974 -1.00473e-16 0)
(0.0299974 1.03427e-16 0)
(0.0299974 7.26203e-18 0)
(0.0299974 9.07969e-17 0)
(0.0299974 -1.19186e-16 0)
(0.0299974 -5.67955e-17 0)
(0.0299974 8.75715e-17 0)
(0.0299974 6.64779e-17 0)
(0.0299974 -7.1155e-17 0)
(0.0299974 -9.33295e-17 0)
(0.0299974 1.85148e-16 0)
(0.0299974 -1.28265e-16 0)
(0.0299974 1.89608e-17 0)
(0.0299974 3.83543e-18 0)
(0.0299974 -8.98112e-17 0)
(0.0299974 1.91327e-16 0)
(0.0299974 -4.06799e-17 0)
(0.0299974 -1.78172e-16 0)
(0.0299974 3.54581e-17 0)
(0.0299974 1.74612e-16 0)
(0.0299974 -1.2616e-16 0)
(0.0299974 1.11166e-17 0)
(0.0299974 -8.93884e-18 0)
(0.0299974 -1.43791e-17 0)
(0.0299974 8.34574e-17 0)
(0.0299974 -1.3497e-16 0)
(0.0299974 9.06361e-17 0)
(0.0887922 3.22684e-16 0)
(0.0887922 2.38099e-17 0)
(0.0887922 -5.62022e-17 0)
(0.0887922 -5.45627e-18 0)
(0.0887922 1.08369e-17 0)
(0.0887922 3.69227e-18 0)
(0.0887922 -1.68591e-18 0)
(0.0887922 1.15045e-17 0)
(0.0887922 2.06745e-18 0)
(0.0887922 -9.31255e-19 0)
(0.0887922 -2.08233e-17 0)
(0.0887922 -2.22167e-17 0)
(0.0887922 -1.35959e-17 0)
(0.0887922 -1.06319e-18 0)
(0.0887922 3.21277e-18 0)
(0.0887922 -2.67039e-17 0)
(0.0887922 -3.29815e-17 0)
(0.0887922 -2.6059e-17 0)
(0.0887922 -1.89332e-17 0)
(0.0887922 3.30082e-18 0)
(0.0887922 -4.93921e-18 0)
(0.0887922 2.73182e-18 0)
(0.0887922 2.63588e-17 0)
(0.0887922 5.61609e-19 0)
(0.0887922 -1.1632e-17 0)
(0.0887922 -2.17145e-17 0)
(0.0887922 -1.78048e-18 0)
(0.0887922 1.74954e-17 0)
(0.0887922 -2.33284e-17 0)
(0.0887922 4.0945e-18 0)
(0.0887922 9.26469e-19 0)
(0.0887922 -2.80609e-17 0)
(0.0887922 -1.48347e-17 0)
(0.0887922 -8.27857e-18 0)
(0.0887922 -3.10706e-17 0)
(0.0887922 -6.86834e-19 0)
(0.0887922 -2.20585e-17 0)
(0.0887922 -1.04042e-17 0)
(0.0887922 1.95338e-18 0)
(0.0887922 -3.01582e-17 0)
(0.0887922 1.0514e-17 0)
(0.0887922 -3.62364e-17 0)
(0.0887922 -3.13532e-18 0)
(0.0887922 2.00859e-17 0)
(0.0887922 1.82302e-18 0)
(0.0887922 3.4547e-17 0)
(0.0887922 3.40033e-17 0)
(0.0887922 -3.19856e-17 0)
(0.0887922 -8.27166e-18 0)
(0.0887922 3.00176e-17 0)
(0.0887922 2.06096e-17 0)
(0.0887922 1.2524e-17 0)
(0.0887922 -2.97418e-17 0)
(0.0887922 -1.25577e-17 0)
(0.0887922 3.88937e-17 0)
(0.0887922 -2.66547e-17 0)
(0.0887922 2.85316e-17 0)
(0.0887922 -7.53518e-18 0)
(0.0887922 -4.86419e-17 0)
(0.0887922 -4.54795e-18 0)
(0.0887922 1.94854e-18 0)
(0.0887922 -9.37721e-18 0)
(0.0887922 -1.10131e-17 0)
(0.0887922 5.46355e-18 0)
(0.0887922 -2.31944e-17 0)
(0.0887922 3.12271e-17 0)
(0.0887922 -4.08311e-17 0)
(0.0887922 -3.24169e-17 0)
(0.0887922 6.82325e-17 0)
(0.0887922 -5.40103e-18 0)
(0.0887922 -1.6105e-17 0)
(0.0887922 2.3656e-17 0)
(0.0887922 5.8736e-17 0)
(0.0887922 -1.94991e-17 0)
(0.0887922 -3.69708e-17 0)
(0.0887922 9.65659e-17 0)
(0.0887922 3.93789e-17 0)
(0.0887922 -5.96502e-17 0)
(0.0887922 -1.39197e-17 0)
(0.0887922 4.04093e-17 0)
(0.0887922 -3.89534e-18 0)
(0.0887922 -3.6196e-17 0)
(0.0887922 1.64041e-17 0)
(0.0887922 -1.40752e-17 0)
(0.0887922 -6.282e-17 0)
(0.0887922 5.36483e-17 0)
(0.0887922 7.22477e-18 0)
(0.0887922 -2.60194e-17 0)
(0.0887922 1.09975e-17 0)
(0.0887922 1.92111e-18 0)
(0.0887922 2.00981e-17 0)
(0.0887922 2.01953e-17 0)
(0.0887922 2.35935e-17 0)
(0.0887922 5.59131e-19 0)
(0.0887922 5.33049e-18 0)
(0.0887922 -6.77516e-17 0)
(0.0887922 7.627e-19 0)
(0.0887922 7.10992e-17 0)
(0.0887922 -5.49563e-17 0)
(0.0887922 -2.48098e-17 0)
(0.0887922 5.64234e-17 0)
(0.0887922 3.67464e-17 0)
(0.0887922 -8.85101e-18 0)
(0.0887922 -8.99991e-18 0)
(0.0887922 1.17241e-17 0)
(0.0887922 -1.49746e-17 0)
(0.0887922 -1.25651e-17 0)
(0.0887922 2.89921e-18 0)
(0.0887922 3.59851e-17 0)
(0.0887922 6.27247e-17 0)
(0.0887922 -2.16274e-17 0)
(0.0887922 -9.46975e-17 0)
(0.0887922 -1.93774e-17 0)
(0.0887922 9.31833e-17 0)
(0.0887922 3.32269e-17 0)
(0.0887922 -7.94711e-17 0)
(0.0887922 -5.67161e-17 0)
(0.0887922 4.3421e-17 0)
(0.0887922 7.28359e-17 0)
(0.0887922 4.27736e-18 0)
(0.0887922 -1.65269e-17 0)
(0.0887922 1.38693e-17 0)
(0.0887922 5.0127e-17 0)
(0.0887922 -1.52228e-17 0)
(0.0887922 -6.96157e-17 0)
(0.0887922 5.20776e-17 0)
(0.0887922 4.17478e-17 0)
(0.0887922 -2.93704e-17 0)
(0.0887922 2.79882e-17 0)
(0.0887922 2.48461e-17 0)
(0.0887922 6.31655e-18 0)
(0.0887922 4.40204e-18 0)
(0.0887922 1.08684e-16 0)
(0.0887922 -6.89404e-17 0)
(0.0887922 -9.01095e-17 0)
(0.0887922 6.12829e-17 0)
(0.0887922 -4.87084e-18 0)
(0.0887922 -5.85552e-17 0)
(0.0887922 7.38938e-17 0)
(0.0887922 3.33935e-17 0)
(0.0887922 -1.25517e-16 0)
(0.0887922 -6.85433e-17 0)
(0.0887922 7.63532e-17 0)
(0.0887922 1.19836e-16 0)
(0.0887922 -6.75222e-17 0)
(0.0887922 -1.31414e-17 0)
(0.0887922 1.27688e-16 0)
(0.0887922 -4.71769e-17 0)
(0.0887922 -8.5986e-17 0)
(0.0887922 9.95091e-17 0)
(0.0887922 -7.3706e-17 0)
(0.0887922 -2.93442e-17 0)
(0.0887922 1.25714e-16 0)
(0.0887922 -1.30931e-16 0)
(0.0887922 -3.71873e-17 0)
(0.0887922 8.4879e-17 0)
(0.0887922 -9.56225e-17 0)
(0.0887922 1.22237e-17 0)
(0.0887922 -5.78999e-18 0)
(0.0887922 9.33934e-17 0)
(0.0887922 7.83502e-17 0)
(0.0887922 -3.59237e-17 0)
(0.0887922 -4.56151e-17 0)
(0.0887922 4.21853e-18 0)
(0.0887922 -2.60548e-17 0)
(0.0887922 -8.21416e-18 0)
(0.0887922 7.05634e-17 0)
(0.0887922 -1.41729e-16 0)
(0.0887922 1.01386e-16 0)
(0.0887922 1.372e-16 0)
(0.0887922 -1.49367e-16 0)
(0.0887922 5.0724e-17 0)
(0.0887922 1.21363e-16 0)
(0.0887922 -1.17924e-16 0)
(0.0887922 -6.35902e-17 0)
(0.0887922 5.05088e-17 0)
(0.0887922 7.69401e-17 0)
(0.0887922 -1.21069e-17 0)
(0.0887922 -6.25129e-17 0)
(0.0887922 8.57722e-17 0)
(0.0887922 1.41962e-18 0)
(0.0887922 -7.72564e-17 0)
(0.0887922 3.79824e-18 0)
(0.0887922 -2.99602e-17 0)
(0.0887922 6.28163e-17 0)
(0.0887922 -1.77884e-17 0)
(0.0887922 -9.30441e-17 0)
(0.0887922 -9.68498e-18 0)
(0.0887922 -7.25368e-18 0)
(0.0887922 3.71651e-18 0)
(0.0887922 -8.31124e-17 0)
(0.0887922 -5.49314e-17 0)
(0.0887922 -4.66347e-18 0)
(0.0887922 1.31706e-16 0)
(0.0887922 7.00692e-17 0)
(0.0887922 -3.63685e-17 0)
(0.0887922 6.68933e-17 0)
(0.0887922 2.17081e-17 0)
(0.0887922 -1.53501e-16 0)
(0.0887922 -7.76864e-17 0)
(0.0887922 5.262e-17 0)
(0.0887922 -1.23813e-16 0)
(0.0887922 1.18089e-16 0)
(0.0887922 7.41654e-17 0)
(0.0887922 4.61172e-18 0)
(0.0887922 6.65969e-17 0)
(0.0887922 -1.12714e-16 0)
(0.0887922 -9.91209e-17 0)
(0.0887922 4.14223e-17 0)
(0.0887922 -2.0352e-17 0)
(0.0887922 1.6455e-17 0)
(0.0887922 2.55458e-17 0)
(0.0887922 -8.04901e-17 0)
(0.0887922 5.64618e-17 0)
(0.0887922 -6.97507e-17 0)
(0.0887922 1.38469e-17 0)
(0.0887922 -4.4949e-17 0)
(0.0887922 -4.0726e-17 0)
(0.0887922 1.05044e-16 0)
(0.0887922 1.08815e-16 0)
(0.0887922 -1.77446e-17 0)
(0.0887922 -6.79952e-17 0)
(0.0887922 3.67946e-17 0)
(0.0887922 -6.73274e-17 0)
(0.0887922 1.35475e-17 0)
(0.0887922 4.91521e-17 0)
(0.0887922 -1.14366e-17 0)
(0.0887922 3.07426e-17 0)
(0.0887922 1.19814e-16 0)
(0.0887922 -4.85643e-18 0)
(0.0887922 -5.68398e-17 0)
(0.0887922 -9.9734e-17 0)
(0.0887922 -5.74569e-19 0)
(0.0887922 1.93998e-17 0)
(0.0887922 -8.44001e-17 0)
(0.0887922 7.86933e-17 0)
(0.0887922 2.70367e-17 0)
(0.0887922 4.35679e-17 0)
(0.0887922 -5.46371e-17 0)
(0.0887922 -6.23516e-18 0)
(0.0887922 1.00334e-17 0)
(0.0887922 -8.44463e-17 0)
(0.0887922 4.18665e-17 0)
(0.0887922 1.58799e-16 0)
(0.0887922 -4.84964e-17 0)
(0.0887922 -1.45469e-17 0)
(0.0887922 7.36488e-17 0)
(0.0887922 -1.05065e-16 0)
(0.0887922 -1.05579e-18 0)
(0.0887922 -1.42086e-17 0)
(0.0887922 -4.32457e-17 0)
(0.0887922 2.99799e-17 0)
(0.0887922 1.11867e-16 0)
(0.0887922 -4.63949e-17 0)
(0.0887922 -4.13116e-17 0)
(0.0887922 7.33745e-17 0)
(0.0887922 -5.16589e-17 0)
(0.0887922 -8.96772e-17 0)
(0.0887922 3.92435e-17 0)
(0.0887922 -7.93899e-17 0)
(0.0887922 3.84339e-17 0)
(0.0887922 1.83663e-16 0)
(0.0887922 -1.31634e-16 0)
(0.0887922 4.12189e-17 0)
(0.0887922 -1.39983e-16 0)
(0.0887922 -1.22194e-16 0)
(0.0887922 2.75784e-16 0)
(0.0887922 -1.94747e-16 0)
(0.0887922 -1.12477e-16 0)
(0.0887922 4.06504e-16 0)
(0.0887922 -1.5421e-16 0)
(0.0887922 -1.32828e-16 0)
(0.0887922 9.71636e-17 0)
(0.0887922 -1.35823e-16 0)
(0.0887922 9.31516e-17 0)
(0.0887922 -8.55502e-17 0)
(0.0887922 -3.64856e-17 0)
(0.0887922 1.20654e-16 0)
(0.0887922 1.05209e-16 0)
(0.0887922 -1.09716e-16 0)
(0.0887922 -1.13638e-16 0)
(0.0887922 -5.31704e-17 0)
(0.0887922 6.21988e-17 0)
(0.0887922 1.41913e-16 0)
(0.0887922 -1.74701e-16 0)
(0.0887922 2.03776e-16 0)
(0.0887922 2.01118e-17 0)
(0.0887922 -2.02733e-16 0)
(0.0887922 1.59916e-16 0)
(0.0887922 7.8243e-17 0)
(0.0887922 -2.26336e-16 0)
(0.0887922 7.66305e-17 0)
(0.0887922 1.34205e-17 0)
(0.0887922 -1.7444e-16 0)
(0.0887922 3.07761e-16 0)
(0.0887922 7.9851e-17 0)
(0.0887922 -3.15678e-16 0)
(0.0887922 6.24662e-17 0)
(0.0887922 -3.23916e-17 0)
(0.0887922 -1.98247e-16 0)
(0.0887922 2.83869e-16 0)
(0.0887922 -1.36817e-16 0)
(0.0887922 -1.07403e-16 0)
(0.0887922 3.81481e-16 0)
(0.0887922 -1.35925e-16 0)
(0.0887922 -2.30002e-16 0)
(0.0887922 2.1565e-16 0)
(0.0887922 -1.29574e-16 0)
(0.0887922 -1.71253e-16 0)
(0.0887922 3.01977e-16 0)
(0.0887922 4.62731e-17 0)
(0.0887922 -2.45468e-16 0)
(0.0887922 1.20471e-16 0)
(0.0887922 5.19633e-17 0)
(0.0887922 -1.17936e-16 0)
(0.0887922 5.59161e-17 0)
(0.0887922 -6.27959e-17 0)
(0.0887922 -1.24635e-16 0)
(0.0887922 -1.35609e-17 0)
(0.0887922 1.91241e-16 0)
(0.0887922 1.10764e-16 0)
(0.0887922 -4.71027e-17 0)
(0.0887922 -1.02161e-16 0)
(0.0887922 -8.40282e-17 0)
(0.0887922 1.69668e-16 0)
(0.0887922 -5.24076e-18 0)
(0.0887922 -1.32919e-16 0)
(0.0887922 -6.8435e-17 0)
(0.0887922 2.23765e-16 0)
(0.0887922 1.49617e-16 0)
(0.0887922 -2.84961e-16 0)
(0.0887922 1.96026e-17 0)
(0.0887922 1.2784e-16 0)
(0.0887922 -2.23858e-16 0)
(0.0887922 1.86102e-16 0)
(0.0887922 1.93909e-16 0)
(0.0887922 -3.29882e-16 0)
(0.0887922 2.77748e-16 0)
(0.0887922 1.25008e-16 0)
(0.0887922 -3.18831e-16 0)
(0.0887922 7.23374e-17 0)
(0.0887922 -2.29032e-17 0)
(0.0887922 -1.63868e-16 0)
(0.0887922 7.93982e-17 0)
(0.0887922 1.9553e-16 0)
(0.0887922 -8.62272e-18 0)
(0.0887922 -1.75569e-17 0)
(0.0887922 -1.58346e-16 0)
(0.0887922 -1.05968e-16 0)
(0.0887922 1.64481e-16 0)
(0.0887922 -5.28596e-17 0)
(0.0887922 -2.09411e-16 0)
(0.0887922 9.04066e-17 0)
(0.0887922 2.28848e-16 0)
(0.0887922 1.81488e-17 0)
(0.0887922 -2.39744e-17 0)
(0.0887922 -1.66843e-16 0)
(0.0887922 -1.36965e-16 0)
(0.0887922 1.04036e-16 0)
(0.0887922 3.96633e-17 0)
(0.0887922 1.05717e-16 0)
(0.0887922 -2.00012e-16 0)
(0.0887922 7.45229e-17 0)
(0.0887922 2.86535e-16 0)
(0.0887922 -2.44163e-16 0)
(0.0887922 -8.94537e-18 0)
(0.0887922 1.96083e-17 0)
(0.0887922 -1.09356e-16 0)
(0.0887922 1.67746e-17 0)
(0.0887922 3.09163e-16 0)
(0.0887922 1.82251e-17 0)
(0.0887922 -1.49918e-16 0)
(0.0887922 -9.86965e-17 0)
(0.0887922 -5.2152e-17 0)
(0.0887922 1.77198e-16 0)
(0.0887922 -1.03147e-16 0)
(0.0887922 1.2158e-17 0)
(0.0887922 -5.36459e-17 0)
(0.0887922 1.67201e-16 0)
(0.0887922 2.86086e-17 0)
(0.0887922 -9.232e-17 0)
(0.0887922 -6.17733e-17 0)
(0.0887922 -1.29279e-17 0)
(0.0887922 5.98933e-17 0)
(0.0887922 -4.32051e-17 0)
(0.0887922 2.2193e-16 0)
(0.0887922 -1.6346e-16 0)
(0.0887922 8.03294e-17 0)
(0.0887922 9.82442e-17 0)
(0.0887922 -1.12208e-16 0)
(0.0887922 -7.09342e-17 0)
(0.0887922 9.94995e-17 0)
(0.0887922 -9.77406e-17 0)
(0.0887922 -2.02123e-16 0)
(0.0887922 3.19078e-16 0)
(0.0887922 1.95286e-16 0)
(0.0887922 -1.61422e-16 0)
(0.0887922 -1.46849e-16 0)
(0.0887922 -1.24259e-16 0)
(0.0887922 -5.29781e-17 0)
(0.0887922 1.41773e-16 0)
(0.0887922 2.71539e-16 0)
(0.0887922 -2.29535e-16 0)
(0.0887922 -1.5565e-16 0)
(0.0887922 -7.74537e-17 0)
(0.0887922 3.11429e-16 0)
(0.0887922 2.07567e-16 0)
(0.0887922 -4.40883e-16 0)
(0.0887922 -3.27605e-17 0)
(0.0887922 2.57252e-16 0)
(0.0887922 1.69749e-16 0)
(0.0887922 -2.88182e-16 0)
(0.0887922 8.22328e-17 0)
(0.0887922 5.83408e-17 0)
(0.0887922 -4.33892e-17 0)
(0.0887922 7.10802e-17 0)
(0.0887922 -2.52651e-16 0)
(0.0887922 -3.16054e-17 0)
(0.0887922 3.0718e-16 0)
(0.0887922 6.29056e-17 0)
(0.0887922 -3.59494e-16 0)
(0.0887922 -6.31292e-17 0)
(0.0887922 4.11083e-16 0)
(0.0887922 -9.58622e-17 0)
(0.0887922 -1.86244e-16 0)
(0.0887922 5.35719e-17 0)
(0.0887922 1.03602e-16 0)
(0.0887922 1.78213e-17 0)
(0.0887922 9.96423e-18 0)
(0.0887922 -1.06425e-16 0)
(0.0887922 -9.13767e-17 0)
(0.0887922 3.62972e-16 0)
(0.0887922 -2.93354e-17 0)
(0.0887922 -3.78691e-16 0)
(0.0887922 6.68307e-18 0)
(0.0887922 4.72654e-16 0)
(0.0887922 -1.14083e-16 0)
(0.0887922 -6.31213e-17 0)
(0.0887922 -1.07759e-17 0)
(0.0887922 -1.97578e-16 0)
(0.0887922 3.38773e-16 0)
(0.0887922 -1.65925e-16 0)
(0.0887922 -5.30586e-17 0)
(0.0887922 -1.65001e-17 0)
(0.0887922 1.07323e-16 0)
(0.0887922 2.35725e-17 0)
(0.0887922 -5.87413e-17 0)
(0.0887922 2.24675e-17 0)
(0.0887922 -1.57462e-16 0)
(0.0887922 1.97458e-16 0)
(0.0887922 -4.27552e-17 0)
(0.0887922 9.46935e-17 0)
(0.0887922 -7.86138e-17 0)
(0.0887922 6.69759e-17 0)
(0.0887922 -5.77675e-17 0)
(0.0887922 -7.08481e-17 0)
(0.0887922 8.28101e-17 0)
(0.0887922 6.49012e-17 0)
(0.0887922 1.85451e-16 0)
(0.0887922 -4.45822e-16 0)
(0.0887922 2.05296e-16 0)
(0.0887922 2.03999e-16 0)
(0.0887922 8.14518e-18 0)
(0.0887922 3.07623e-17 0)
(0.0887922 -3.51104e-16 0)
(0.0887922 9.88432e-17 0)
(0.0887922 2.04877e-16 0)
(0.0887922 -3.89161e-17 0)
(0.0887922 -2.0776e-16 0)
(0.0887922 1.23778e-16 0)
(0.0887922 -4.86951e-17 0)
(0.0887922 1.92702e-17 0)
(0.0887922 5.92455e-17 0)
(0.0887922 -1.28195e-16 0)
(0.0887922 1.87745e-16 0)
(0.0887922 8.65345e-17 0)
(0.0887922 1.09612e-16 0)
(0.0887922 -2.38241e-16 0)
(0.0887922 1.15389e-17 0)
(0.0887922 1.31046e-16 0)
(0.0887922 3.08315e-17 0)
(0.0887922 -5.45621e-17 0)
(0.0887922 -1.16143e-16 0)
(0.0887922 2.01208e-16 0)
(0.0887922 -2.63216e-16 0)
(0.0887922 5.55341e-17 0)
(0.0887922 2.64392e-17 0)
(0.0887922 -7.70767e-17 0)
(0.0887922 2.55305e-16 0)
(0.0887922 -1.85725e-16 0)
(0.0887922 -2.40678e-16 0)
(0.0887922 1.55854e-16 0)
(0.0887922 2.1566e-16 0)
(0.0887922 -2.61059e-16 0)
(0.0887922 1.60993e-17 0)
(0.0887922 3.2096e-19 0)
(0.0887922 -2.40517e-17 0)
(0.0887922 1.09673e-16 0)
(0.0887922 -1.7527e-16 0)
(0.0887922 5.2301e-17 0)
(0.146387 4.70644e-16 0)
(0.146387 -3.98812e-17 0)
(0.146387 -5.90811e-17 0)
(0.146387 2.07753e-17 0)
(0.146387 3.68888e-17 0)
(0.146387 1.48062e-17 0)
(0.146387 1.39583e-17 0)
(0.146387 3.6044e-17 0)
(0.146387 7.28144e-18 0)
(0.146387 -2.2753e-17 0)
(0.146387 -4.66639e-17 0)
(0.146387 -5.07114e-17 0)
(0.146387 -5.19686e-17 0)
(0.146387 -1.51622e-17 0)
(0.146387 -6.63226e-18 0)
(0.146387 -3.63665e-17 0)
(0.146387 -5.02421e-17 0)
(0.146387 -6.86429e-17 0)
(0.146387 -2.31532e-17 0)
(0.146387 -5.50818e-18 0)
(0.146387 -2.51004e-17 0)
(0.146387 1.12685e-17 0)
(0.146387 5.40086e-17 0)
(0.146387 4.81648e-18 0)
(0.146387 -1.46073e-17 0)
(0.146387 -4.96813e-17 0)
(0.146387 -1.77366e-17 0)
(0.146387 3.99386e-17 0)
(0.146387 -3.21709e-17 0)
(0.146387 -2.6778e-17 0)
(0.146387 -1.31151e-17 0)
(0.146387 -1.72217e-17 0)
(0.146387 -3.48275e-17 0)
(0.146387 -6.71218e-17 0)
(0.146387 -5.6744e-17 0)
(0.146387 -3.03581e-18 0)
(0.146387 -8.7592e-17 0)
(0.146387 -3.76798e-17 0)
(0.146387 8.47327e-19 0)
(0.146387 -5.79625e-17 0)
(0.146387 -2.12917e-17 0)
(0.146387 -3.93395e-17 0)
(0.146387 -2.73579e-17 0)
(0.146387 2.5841e-17 0)
(0.146387 6.1241e-17 0)
(0.146387 6.54817e-17 0)
(0.146387 5.96927e-17 0)
(0.146387 -4.08321e-17 0)
(0.146387 -3.61583e-18 0)
(0.146387 6.48744e-17 0)
(0.146387 4.57166e-17 0)
(0.146387 -2.06163e-17 0)
(0.146387 -4.7544e-17 0)
(0.146387 2.38864e-18 0)
(0.146387 4.19257e-17 0)
(0.146387 -1.47449e-17 0)
(0.146387 3.76638e-17 0)
(0.146387 -6.33119e-17 0)
(0.146387 -8.85057e-17 0)
(0.146387 -2.1139e-17 0)
(0.146387 -1.08185e-17 0)
(0.146387 1.09337e-17 0)
(0.146387 -4.46086e-17 0)
(0.146387 9.35298e-19 0)
(0.146387 3.43771e-17 0)
(0.146387 -2.26856e-18 0)
(0.146387 -7.09298e-17 0)
(0.146387 -3.60569e-17 0)
(0.146387 5.24597e-17 0)
(0.146387 5.26735e-17 0)
(0.146387 4.19188e-17 0)
(0.146387 3.09048e-17 0)
(0.146387 8.39843e-17 0)
(0.146387 -1.76546e-18 0)
(0.146387 -7.41064e-17 0)
(0.146387 1.44333e-16 0)
(0.146387 1.33338e-16 0)
(0.146387 -3.24389e-17 0)
(0.146387 -5.99885e-17 0)
(0.146387 8.97251e-18 0)
(0.146387 2.13734e-17 0)
(0.146387 -3.62025e-17 0)
(0.146387 -4.23528e-17 0)
(0.146387 -1.1465e-17 0)
(0.146387 -2.37505e-17 0)
(0.146387 4.53627e-18 0)
(0.146387 -2.18443e-17 0)
(0.146387 5.10813e-17 0)
(0.146387 7.01957e-19 0)
(0.146387 -1.99379e-17 0)
(0.146387 6.7031e-17 0)
(0.146387 3.21511e-17 0)
(0.146387 3.95671e-17 0)
(0.146387 4.6546e-17 0)
(0.146387 8.81577e-18 0)
(0.146387 -1.31853e-16 0)
(0.146387 -3.70906e-17 0)
(0.146387 1.42684e-16 0)
(0.146387 -6.7593e-17 0)
(0.146387 -8.91215e-17 0)
(0.146387 1.45434e-16 0)
(0.146387 8.54347e-17 0)
(0.146387 -3.79756e-17 0)
(0.146387 -8.75001e-17 0)
(0.146387 2.66325e-17 0)
(0.146387 9.01246e-17 0)