/*--------------------------------*- C++ -*----------------------------------*\
| =========                 |                                                 |
| \\      /  F ield         | OpenFOAM: The Open Source CFD Toolbox           |
|  \\    /   O peration     | Version:  2112                                  |
|   \\  /    A nd           | Website:  www.openfoam.com                      |
|    \\/     M anipulation  |                                                 |
\*---------------------------------------------------------------------------*/
FoamFile
{
    version     2.0;
    format      ascii;
    arch        "LSB;label=32;scalar=64";
    class       volScalarField;
    location    "13";
    object      p;
}
// * * * * * * * * * * * * * * * * * * * * * * * * * * * * * * * * * * * * * //

dimensions      [0 2 -2 0 0 0 0];

internalField   nonuniform List<scalar> 
16641
(
-1.62765e-08
8.89608e-07
-1.75585e-06
-7.86192e-06
-1.68755e-05
-2.82254e-05
-4.135e-05
-5.57547e-05
-7.10438e-05
-8.69155e-05
-0.000103153
-0.000119613
-0.000136208
-0.000152899
-0.000169676
-0.000186551
-0.000203554
-0.000220715
-0.000238069
-0.000255644
-0.00027346
-0.000291526
-0.000309839
-0.000328379
-0.000347112
-0.00036599
-0.000384947
-0.000403905
-0.000422772
-0.000441439
-0.000459788
-0.000477684
-0.000494986
-0.000511538
-0.000527176
-0.000541726
-0.000555004
-0.000566822
-0.000576982
-0.000585281
-0.000591512
-0.000595461
-0.000596916
-0.000595663
-0.000591489
-0.000584185
-0.000573548
-0.000559386
-0.000541518
-0.000519782
-0.000494034
-0.000464158
-0.000430067
-0.000391708
-0.000349069
-0.000302182
-0.000251128
-0.000196045
-0.000137126
-7.4629e-05
-8.87573e-06
5.97434e-05
0.000130769
0.000203674
0.000277862
0.000352673
0.000427385
0.000501222
0.00057336
0.000642938
0.000709064
0.000770833
0.000827337
0.000877681
0.000920996
0.000956456
0.000983294
0.00100081
0.00100841
0.00100557
0.000991909
0.000967154
0.000931164
0.000883937
0.000825604
0.000756437
0.000676842
0.000587353
0.000488624
0.000381414
0.00026658
0.000145054
1.78321e-05
-0.000114048
-0.000249519
-0.000387507
-0.000526949
-0.000666804
-0.000806075
-0.000943816
-0.00107915
-0.00121126
-0.00133944
-0.00146303
-0.00158149
-0.00169434
-0.00180122
-0.00190181
-0.00199589
-0.00208331
-0.00216395
-0.00223778
-0.00230477
-0.00236496
-0.00241838
-0.00246508
-0.00250513
-0.00253858
-0.00256549
-0.00258594
-0.00260001
-0.00260786
-0.00260972
-0.002606
-0.00259741
-0.00258514
-0.00257108
-0.00255799
-0.00254998
-1.17303e-06
-2.55598e-07
-2.75397e-06
-8.20677e-06
-1.60876e-05
-2.60092e-05
-3.75753e-05
-5.0411e-05
-6.41948e-05
-7.86737e-05
-9.3654e-05
-0.000108996
-0.000124609
-0.000140437
-0.000156453
-0.000172652
-0.000189039
-0.000205628
-0.000222434
-0.000239468
-0.000256735
-0.000274234
-0.000291949
-0.000309855
-0.000327914
-0.000346072
-0.000364264
-0.000382411
-0.000400425
-0.000418201
-0.000435623
-0.000452568
-0.000468897
-0.000484466
-0.000499119
-0.000512693
-0.000525018
-0.000535915
-0.0005452
-0.000552686
-0.000558178
-0.000561481
-0.000562397
-0.000560727
-0.000556278
-0.000548857
-0.000538277
-0.000524364
-0.000506954
-0.000485899
-0.000461073
-0.000432372
-0.000399722
-0.000363079
-0.000322441
-0.000277844
-0.000229374
-0.000177167
-0.000121413
-6.23607e-05
-3.21845e-07
6.43292e-05
0.000131152
0.000199645
0.00026924
0.00033931
0.000409169
0.00047808
0.000545263
0.000609901
0.000671153
0.000728161
0.000780069
0.000826032
0.000865231
0.000896888
0.000920282
0.00093476
0.000939755
0.000934795
0.000919517
0.000893673
0.000857138
0.000809919
0.00075215
0.000684099
0.000606159
0.000518843
0.000422778
0.000318692
0.000207401
8.97944e-05
-3.3183e-05
-0.000160543
-0.000291274
-0.000424358
-0.000558786
-0.000693575
-0.000827779
-0.000960505
-0.00109092
-0.00121826
-0.00134183
-0.00146104
-0.00157536
-0.00168434
-0.00178762
-0.0018849
-0.00197598
-0.00206069
-0.00213895
-0.00221069
-0.0022759
-0.00233462
-0.00238688
-0.00243274
-0.00247229
-0.0025056
-0.00253278
-0.00255393
-0.00256922
-0.00257885
-0.00258313
-0.00258252
-0.00257768
-0.00256964
-0.00255984
-0.00255002
-0.00254198
1.19455e-06
1.98527e-06
-5.33711e-07
-5.73011e-06
-1.3069e-05
-2.22341e-05
-3.2907e-05
-4.47801e-05
-5.75912e-05
-7.11253e-05
-8.52117e-05
-9.97261e-05
-0.000114581
-0.000129719
-0.00014511
-0.000160736
-0.000176595
-0.000192688
-0.000209021
-0.000225594
-0.000242405
-0.000259442
-0.000276685
-0.000294103
-0.000311652
-0.000329279
-0.000346916
-0.000364487
-0.000381902
-0.000399059
-0.000415849
-0.00043215
-0.000447831
-0.000462753
-0.000476769
-0.000489723
-0.000501454
-0.000511794
-0.000520568
-0.000527599
-0.000532704
-0.000535699
-0.000536398
-0.000534615
-0.000530166
-0.00052287
-0.000512553
-0.000499051
-0.000482209
-0.000461889
-0.000437972
-0.000410362
-0.000378989
-0.000343815
-0.000304837
-0.000262092
-0.000215663
-0.000165682
-0.000112332
-5.58524e-05
3.45713e-06
6.5236e-05
0.00012906
0.000194451
0.000260854
0.000327668
0.000394232
0.000459834
0.00052372
0.000585103
0.000643166
0.000697084
0.000746027
0.000789176
0.000825741
0.000854969
0.000876161
0.000888689
0.000892003
0.00088565
0.000869282
0.00084266
0.000805671
0.000758327
0.000700764
0.000633248
0.000556167
0.000470029
0.000375446
0.000273134
0.000163888
4.85788e-05
-7.18727e-05
-0.000196505
-0.000324333
-0.00045437
-0.000585637
-0.000717182
-0.00084809
-0.000977499
-0.00110461
-0.00122868
-0.00134906
-0.00146516
-0.00157648
-0.0016826
-0.00178317
-0.00187793
-0.00196665
-0.00204921
-0.00212551
-0.00219551
-0.00225921
-0.00231664
-0.00236785
-0.00241293
-0.00245195
-0.00248502
-0.00251226
-0.00253381
-0.00254984
-0.00256057
-0.00256629
-0.00256743
-0.00256453
-0.00255838
-0.00255007
-0.00254024
-0.00252885
7.20401e-06
7.26625e-06
4.35963e-06
-9.3503e-07
-8.13362e-06
-1.6952e-05
-2.71221e-05
-3.83874e-05
-5.05297e-05
-6.33677e-05
-7.67601e-05
-9.05999e-05
-0.000104811
-0.000119343
-0.000134166
-0.000149262
-0.000164625
-0.000180251
-0.000196139
-0.000212285
-0.00022868
-0.000245307
-0.000262141
-0.000279148
-0.00029628
-0.000313482
-0.000330687
-0.000347818
-0.000364785
-0.00038149
-0.000397826
-0.000413676
-0.000428913
-0.000443404
-0.000457008
-0.000469576
-0.000480954
-0.000490983
-0.000499498
-0.000506329
-0.000511303
-0.000514244
-0.000514978
-0.000513325
-0.000509111
-0.000502162
-0.000492314
-0.000479407
-0.000463293
-0.000443839
-0.000420928
-0.000394466
-0.000364385
-0.000330643
-0.000293234
-0.000252193
-0.000207594
-0.000159562
-0.000108269
-5.3945e-05
3.12481e-06
6.25936e-05
0.000124052
0.000187039
0.000251015
0.000315395
0.000379536
0.000442745
0.000504284
0.00056338
0.000619236
0.000671039
0.000717974
0.000759236
0.000794045
0.00082166
0.000841392
0.00085262
0.000854804
0.000847495
0.00083035
0.000803138
0.000765747
0.000718193
0.000660613
0.000593275
0.000516568
0.000430996
0.000337174
0.000235811
0.0001277
1.37028e-05
-0.000105265
-0.000228251
-0.000354282
-0.000482383
-0.000611591
-0.000740969
-0.000869621
-0.000996701
-0.00112143
-0.00124309
-0.00136105
-0.00147474
-0.00158368
-0.00168748
-0.0017858
-0.00187839
-0.00196506
-0.00204569
-0.00212021
-0.00218858
-0.00225082
-0.00230699
-0.00235714
-0.00240136
-0.00243977
-0.00247247
-0.0024996
-0.00252129
-0.00253773
-0.0025491
-0.00255566
-0.00255773
-0.0025557
-0.00255017
-0.00254186
-0.0025305
-0.00251472
1.64597e-05
1.51587e-05
1.1465e-05
5.78412e-06
-1.55991e-06
-1.02981e-05
-2.0203e-05
-3.10676e-05
-4.27139e-05
-5.49982e-05
-6.78072e-05
-8.10556e-05
-9.46841e-05
-0.000108652
-0.000122935
-0.000137519
-0.000152399
-0.000167568
-0.000183024
-0.00019876
-0.000214761
-0.000231008
-0.000247473
-0.000264118
-0.000280892
-0.000297741
-0.000314597
-0.000331381
-0.000348007
-0.000364377
-0.000380388
-0.000395925
-0.000410868
-0.000425087
-0.000438449
-0.00045081
-0.000462026
-0.000471943
-0.000480404
-0.000487248
-0.00049231
-0.000495423
-0.000496418
-0.000495125
-0.000491374
-0.000484999
-0.00047584
-0.000463741
-0.000448557
-0.000430155
-0.000408418
-0.000383252
-0.000354581
-0.000322361
-0.00028658
-0.000247262
-0.000204473
-0.000158324
-0.000108978
-5.66492e-05
-1.60952e-06
5.58087e-05
0.000115211
0.00017615
0.000238102
0.000300496
0.000362701
0.000424037
0.000483777
0.000541157
0.000595387
0.000645661
0.00069117
0.000731114
0.000764713
0.000791228
0.000809971
0.000820321
0.000821735
0.000813766
0.000796067
0.000768409
0.000730679
0.000682893
0.00062519
0.00055784
0.000481234
0.000395881
0.000302398
0.000201498
9.39782e-05
-1.92961e-05
-0.000137407
-0.0002594
-0.000384303
-0.000511143
-0.000638959
-0.00076682
-0.000893838
-0.00101918
-0.00114208
-0.00126183
-0.00137781
-0.00148949
-0.00159639
-0.00169814
-0.00179444
-0.00188504
-0.00196978
-0.00204856
-0.00212133
-0.00218808
-0.00224884
-0.00230368
-0.00235268
-0.00239596
-0.00243363
-0.00246581
-0.00249265
-0.00251428
-0.00253086
-0.00254256
-0.00254957
-0.00255211
-0.00255042
-0.00254488
-0.00253597
-0.00252267
-0.00250249
2.84665e-05
2.53037e-05
2.05098e-05
1.41554e-05
6.41987e-06
-2.46899e-06
-1.23197e-05
-2.29689e-05
-3.42811e-05
-4.6147e-05
-5.84828e-05
-7.12286e-05
-8.43432e-05
-9.77998e-05
-0.000111585
-0.000125691
-0.000140115
-0.000154856
-0.000169909
-0.000185266
-0.000200911
-0.000216824
-0.000232974
-0.000249319
-0.000265812
-0.000282395
-0.000298998
-0.000315545
-0.00033195
-0.00034812
-0.000363951
-0.000379334
-0.000394152
-0.000408282
-0.000421594
-0.000433954
-0.000445221
-0.000455251
-0.000463892
-0.000470991
-0.00047639
-0.000479929
-0.000481445
-0.000480772
-0.000477746
-0.000472205
-0.00046399
-0.000452945
-0.000438925
-0.000421795
-0.000401435
-0.000377742
-0.000350636
-0.000320061
-0.000285996
-0.000248453
-0.000207484
-0.000163188
-0.00011571
-6.52504e-05
-1.20666e-05
4.35252e-05
0.000101146
0.000160357
0.000220653
0.000281471
0.00034219
0.000402136
0.000460588
0.000516786
0.000569941
0.000619247
0.000663891
0.000703067
0.000735993
0.000761919
0.000780152
0.000790059
0.000791092
0.000782794
0.000764812
0.00073691
0.000698971
0.000651009
0.000593162
0.000525702
0.000449023
0.00036364
0.000270178
0.000169359
6.19902e-05
-5.1052e-05
-0.000168838
-0.000290405
-0.000414768
-0.000540946
-0.000667974
-0.000794917
-0.000920885
-0.00104505
-0.00116664
-0.00128497
-0.00139943
-0.00150949
-0.00161471
-0.00171471
-0.00180923
-0.00189804
-0.001981
-0.00205804
-0.00212913
-0.00219427
-0.00225354
-0.00230702
-0.00235481
-0.00239705
-0.00243386
-0.00246538
-0.00249176
-0.00251312
-0.00252961
-0.00254135
-0.00254848
-0.00255111
-0.00254936
-0.00254345
-0.00253365
-0.00251836
-0.00249423
4.26836e-05
3.7321e-05
3.11528e-05
2.39024e-05
1.55568e-05
6.31544e-06
-3.66279e-06
-1.42605e-05
-2.53821e-05
-3.69529e-05
-4.89208e-05
-6.12509e-05
-7.39229e-05
-8.69285e-05
-0.000100266
-0.000113938
-0.000127948
-0.0001423
-0.000156991
-0.000172014
-0.000187355
-0.000202992
-0.000218893
-0.000235017
-0.000251316
-0.00026773
-0.000284192
-0.000300626
-0.000316948
-0.000333066
-0.00034888
-0.000364285
-0.000379168
-0.00039341
-0.000406889
-0.000419476
-0.000431036
-0.00044143
-0.000450515
-0.000458144
-0.000464164
-0.000468421
-0.000470754
-0.000471003
-0.000469006
-0.000464601
-0.000457627
-0.000447929
-0.000435357
-0.000419768
-0.000401037
-0.000379049
-0.000353713
-0.000324962
-0.000292758
-0.000257099
-0.000218021
-0.000175604
-0.000129978
-8.13247e-05
-2.98856e-05
2.40392e-05
8.00872e-05
0.000137825
0.000196766
0.000256355
0.000315974
0.000374955
0.000432576
0.000488077
0.000540665
0.000589525
0.000633835
0.000672778
0.000705557
0.00073141
0.000749626
0.000759557
0.000760639
0.000752398
0.000734471
0.000706607
0.000668682
0.000620701
0.000562801
0.000495252
0.000418453
0.000332924
0.000239298
0.000138312
3.07868e-05
-8.23844e-05
-0.000200254
-0.00032184
-0.000446142
-0.000572161
-0.000698916
-0.00082546
-0.000950894
-0.00107438
-0.00119515
-0.00131252
-0.00142588
-0.00153471
-0.00163858
-0.00173715
-0.00183014
-0.00191738
-0.00199874
-0.00207416
-0.00214364
-0.00220724
-0.00226503
-0.00231713
-0.00236366
-0.00240478
-0.00244063
-0.00247136
-0.00249711
-0.00251802
-0.0025342
-0.00254574
-0.00255273
-0.0025552
-0.00255314
-0.00254664
-0.00253586
-0.00251874
-0.00249131
5.85958e-05
5.07843e-05
4.30282e-05
3.46975e-05
2.55659e-05
1.58098e-05
5.55413e-06
-5.12706e-06
-1.61777e-05
-2.75598e-05
-3.9252e-05
-5.12458e-05
-6.35452e-05
-7.61604e-05
-8.91043e-05
-0.000102392
-0.000116037
-0.000130049
-0.000144429
-0.000159174
-0.000174273
-0.000189702
-0.000205432
-0.000221423
-0.000237625
-0.000253982
-0.000270425
-0.000286882
-0.00030327
-0.000319499
-0.000335474
-0.000351094
-0.000366249
-0.000380827
-0.000394711
-0.000407778
-0.000419899
-0.000430941
-0.000440767
-0.000449236
-0.000456199
-0.000461505
-0.000464998
-0.000466519
-0.000465905
-0.000462993
-0.000457619
-0.000449622
-0.000438844
-0.000425135
-0.000408354
-0.000388376
-0.000365095
-0.000338426
-0.000308314
-0.000274735
-0.000237708
-0.000197292
-0.000153596
-0.000106784
-5.70782e-05
-4.76156e-06
4.98187e-05
0.000106241
0.000164032
0.000222641
0.000281458
0.000339812
0.000396982
0.000452201
0.000504667
0.000553555
0.000598027
0.000637248
0.000670402
0.000696704
0.000715421
0.000725882
0.0007275
0.000719779
0.000702334
0.000674897
0.000637328
0.000589621
0.000531904
0.000464442
0.000387636
0.00030201
0.000208207
0.000106977
-8.42855e-07
-0.000114338
-0.000232538
-0.000354438
-0.000479012
-0.000605238
-0.000732112
-0.000858665
-0.000983983
-0.00110721
-0.00122757
-0.00134438
-0.00145701
-0.00156497
-0.00166782
-0.00176523
-0.00185696
-0.00194284
-0.00202276
-0.00209671
-0.0021647
-0.00222681
-0.00228316
-0.00233387
-0.00237912
-0.00241906
-0.00245386
-0.00248369
-0.00250869
-0.00252899
-0.00254469
-0.00255586
-0.00256252
-0.00256465
-0.00256215
-0.00255501
-0.00254329
-0.00252463
-0.00249462
7.57013e-05
6.52445e-05
5.57489e-05
4.6194e-05
3.61391e-05
2.57383e-05
1.50854e-05
4.21166e-06
-6.86817e-06
-1.81513e-05
-2.96478e-05
-4.13789e-05
-5.33722e-05
-6.56573e-05
-7.82652e-05
-9.12254e-05
-0.000104561
-0.000118289
-0.00013242
-0.000146954
-0.000161881
-0.000177183
-0.000192831
-0.000208787
-0.000225005
-0.000241426
-0.000257987
-0.000274617
-0.000291235
-0.000307757
-0.00032409
-0.000340137
-0.000355795
-0.000370958
-0.000385514
-0.000399346
-0.00041233
-0.000424341
-0.000435247
-0.000444911
-0.000453188
-0.00045993
-0.000464982
-0.000468185
-0.000469375
-0.000468383
-0.00046504
-0.000459176
-0.000450622
-0.000439216
-0.000424801
-0.000407235
-0.000386392
-0.000362168
-0.000334483
-0.000303293
-0.000268591
-0.000230413
-0.000188845
-0.000144028
-9.61631e-05
-4.55147e-05
7.58697e-06
6.2736e-05
0.000119471
0.000177248
0.00023546
0.00029344
0.00035046
0.000405747
0.000458488
0.000507841
0.00055295
0.000592958
0.000627022
0.000654331
0.000674121
0.000685692
0.000688424
0.000681793
0.000665385
0.000638907
0.000602193
0.000555219
0.000498098
0.000431087
0.00035458
0.000269104
0.000175307
7.39513e-05
-3.41076e-05
-0.000147934
-0.000266533
-0.000388872
-0.000513894
-0.000640548
-0.000767801
-0.000894655
-0.00102017
-0.00114347
-0.00126376
-0.00138034
-0.00149258
-0.00159998
-0.00170211
-0.00179864
-0.00188935
-0.00197408
-0.00205276
-0.00212538
-0.002192
-0.00225272
-0.00230768
-0.00235704
-0.002401
-0.00243973
-0.00247344
-0.00250229
-0.00252644
-0.00254603
-0.00256113
-0.0025718
-0.00257802
-0.00257972
-0.00257673
-0.00256898
-0.00255646
-0.00253661
-0.00250469
9.35259e-05
8.02814e-05
6.89223e-05
5.80318e-05
4.69455e-05
3.57987e-05
2.4655e-05
1.35003e-05
2.30985e-06
-8.94944e-06
-2.03215e-05
-3.18564e-05
-4.36061e-05
-5.56225e-05
-6.79556e-05
-8.06487e-05
-9.37368e-05
-0.000107248
-0.000121199
-0.000135596
-0.000150435
-0.000165701
-0.000181369
-0.000197404
-0.00021376
-0.000230384
-0.000247216
-0.000264185
-0.000281219
-0.000298234
-0.000315145
-0.000331859
-0.00034828
-0.000364308
-0.000379838
-0.000394757
-0.000408951
-0.000422298
-0.000434674
-0.000445944
-0.000455968
-0.000464598
-0.000471681
-0.000477054
-0.00048055
-0.000481993
-0.000481206
-0.000478008
-0.000472214
-0.000463645
-0.000452128
-0.000437496
-0.000419602
-0.000398315
-0.000373531
-0.000345176
-0.000313216
-0.000277658
-0.000238562
-0.00019604
-0.00015027
-0.000101492
-5.00178e-05
3.76347e-06
5.94112e-05
0.000116385
0.000174087
0.000231849
0.000288942
0.000344584
0.00039795
0.00044818
0.000494396
0.000535714
0.000571263
0.000600196
0.000621714
0.000635078
0.00063963
0.000634807
0.000620156
0.000595347
0.000560185
0.000514614
0.000458724
0.000392754
0.000317084
0.000232236
0.000138861
3.77285e-05
-7.02922e-05
-0.000184244
-0.000303107
-0.000425817
-0.000551286
-0.000678427
-0.00080617
-0.000933484
-0.0010594
-0.001183
-0.00130347
-0.00142009
-0.00153222
-0.00163934
-0.00174102
-0.00183694
-0.00192688
-0.00201069
-0.00208832
-0.0021598
-0.00222519
-0.00228463
-0.00233829
-0.00238636
-0.00242906
-0.0024666
-0.00249919
-0.00252703
-0.00255028
-0.00256908
-0.00258351
-0.00259361
-0.00259933
-0.00260057
-0.00259712
-0.00258885
-0.00257571
-0.00255501
-0.00252183
0.000111606
9.54624e-05
8.21462e-05
6.98333e-05
5.76335e-05
4.56644e-05
3.39567e-05
2.24525e-05
1.10864e-05
-2.12921e-07
-1.15224e-05
-2.2921e-05
-3.44875e-05
-4.62973e-05
-5.84179e-05
-7.09083e-05
-8.38182e-05
-9.71856e-05
-0.000111036
-0.000125382
-0.000140227
-0.000155562
-0.000171364
-0.000187602
-0.000204237
-0.000221218
-0.00023849
-0.000255988
-0.000273643
-0.000291378
-0.000309114
-0.000326766
-0.000344244
-0.000361456
-0.000378303
-0.000394681
-0.000410483
-0.000425594
-0.000439893
-0.00045325
-0.000465528
-0.000476581
-0.000486255
-0.000494383
-0.00050079
-0.000505295
-0.000507707
-0.000507831
-0.000505465
-0.000500408
-0.000492465
-0.000481445
-0.00046717
-0.00044948
-0.000428239
-0.000403341
-0.000374718
-0.000342343
-0.000306242
-0.000266498
-0.000223255
-0.000176724
-0.000127199
-7.50606e-05
-2.0664e-05
3.54046e-05
9.25658e-05
0.000150161
0.000207461
0.000263678
0.000317973
0.000369471
0.000417268
0.000460452
0.000498115
0.000529374
0.000553384
0.000569361
0.000576599
0.000574485
0.000562516
0.000540316
0.000507643
0.000464401
0.000410643
0.000346577
0.000272562
0.000189103
9.68439e-05
-3.44583e-06
-0.000110886
-0.000224503
-0.000343253
-0.000466041
-0.000591746
-0.00071924
-0.000847414
-0.000975196
-0.00110157
-0.00122559
-0.00134641
-0.00146327
-0.0015755
-0.00168258
-0.00178405
-0.0018796
-0.00196901
-0.00205213
-0.00212893
-0.00219945
-0.00226379
-0.0023221
-0.00237458
-0.00242146
-0.00246297
-0.00249936
-0.00253087
-0.0025577
-0.00258005
-0.00259805
-0.00261179
-0.00262129
-0.00262651
-0.00262732
-0.00262346
-0.0026148
-0.00260124
-0.00258003
-0.00254617
0.000129487
0.000110353
9.50054e-05
8.12056e-05
6.7832e-05
5.49825e-05
4.26569e-05
3.07513e-05
1.91569e-05
7.76503e-06
-3.53469e-06
-1.48525e-05
-2.62946e-05
-3.79584e-05
-4.9931e-05
-6.22886e-05
-7.50949e-05
-8.83987e-05
-0.000102235
-0.000116628
-0.000131585
-0.000147103
-0.000163167
-0.000179752
-0.000196822
-0.000214334
-0.000232237
-0.000250475
-0.000268984
-0.000287695
-0.000306537
-0.000325434
-0.000344306
-0.000363066
-0.000381627
-0.000399893
-0.000417765
-0.000435135
-0.000451888
-0.000467898
-0.000483033
-0.000497146
-0.00051008
-0.000521664
-0.000531718
-0.000540047
-0.000546447
-0.000550705
-0.000552599
-0.000551904
-0.000548395
-0.000541853
-0.000532066
-0.000518838
-0.000501995
-0.000481393
-0.000456922
-0.000428515
-0.000396159
-0.000359895
-0.000319829
-0.000276137
-0.000229095
-0.000179118
-0.000126257
-7.13559e-05
-1.49129e-05
4.24391e-05
9.99772e-05
0.000156911
0.000212391
0.000265525
0.000315386
0.00036103
0.00040151
0.000435898
0.0004633
0.000482876
0.00049386
0.000495579
0.000487468
0.000469086
0.000440131
0.000400451
0.000350047
0.00028908
0.000217871
0.000136897
4.67805e-05
-5.17173e-05
-0.000157717
-0.000270234
-0.000388206
-0.00051051
-0.000635989
-0.000763475
-0.000891814
-0.00101989
-0.00114663
-0.00127105
-0.00139226
-0.00150945
-0.00162194
-0.00172914
-0.00183062
-0.00192602
-0.00201512
-0.00209779
-0.00217398
-0.00224376
-0.00230725
-0.00236461
-0.00241607
-0.00246189
-0.00250234
-0.00253768
-0.00256817
-0.00259405
-0.00261553
-0.00263276
-0.00264583
-0.00265477
-0.00265953
-0.00265997
-0.00265581
-0.0026469
-0.00263313
-0.00261173
-0.0025777
0.000146716
0.000124512
0.000107074
9.17396e-05
7.71476e-05
6.33774e-05
5.03953e-05
3.80487e-05
2.61852e-05
1.46581e-05
3.32117e-06
-7.96798e-06
-1.93415e-05
-3.09197e-05
-4.28114e-05
-5.51101e-05
-6.78928e-05
-8.1221e-05
-9.51415e-05
-0.000109687
-0.000124873
-0.000140705
-0.000157175
-0.000174265
-0.000191947
-0.000210184
-0.000228936
-0.000248152
-0.000267779
-0.000287757
-0.000308026
-0.000328521
-0.00034917
-0.000369901
-0.000390634
-0.000411287
-0.000431768
-0.000451979
-0.000471811
-0.000491145
-0.000509851
-0.000527783
-0.000544782
-0.00056067
-0.00057526
-0.000588343
-0.0005997
-0.000609096
-0.000616284
-0.000621013
-0.000623023
-0.00062206
-0.000617873
-0.000610224
-0.000598894
-0.000583691
-0.000564456
-0.000541074
-0.000513479
-0.000481665
-0.000445688
-0.000405679
-0.000361822
-0.000314325
-0.000263923
-0.000210729
-0.000155366
-9.84854e-05
-4.08011e-05
1.6897e-05
7.37563e-05
0.000128868
0.000181283
0.000230024
0.000274105
0.000312546
0.000344395
0.000368747
0.000384766
0.000391702
0.000388912
0.000375876
0.000352212
0.00031769
0.000272241
0.000215958
0.000149106
7.21132e-05
-1.44337e-05
-0.0001098
-0.000213117
-0.000323403
-0.000439584
-0.000560512
-0.000685
-0.000811838
-0.000939824
-0.00106779
-0.00119461
-0.00131924
-0.00144073
-0.00155824
-0.00167103
-0.00177848
-0.00188011
-0.00197555
-0.00206455
-0.00214698
-0.0022228
-0.00229207
-0.00235493
-0.00241155
-0.0024622
-0.00250715
-0.00254669
-0.00258111
-0.00261072
-0.00263576
-0.00265646
-0.002673
-0.00268548
-0.00269393
-0.00269831
-0.00269847
-0.00269414
-0.00268515
-0.00267137
-0.00265008
-0.00261632
0.00016283
0.000137487
0.000117913
0.000101008
8.51672e-05
7.04494e-05
5.67833e-05
4.39672e-05
3.18041e-05
2.01057e-05
8.68894e-06
-2.61912e-06
-1.39783e-05
-2.55336e-05
-3.74145e-05
-4.97313e-05
-6.25764e-05
-7.60253e-05
-9.01366e-05
-0.000104952
-0.000120499
-0.000136789
-0.000153826
-0.0001716
-0.000190091
-0.000209275
-0.000229119
-0.000249585
-0.00027063
-0.000292209
-0.000314273
-0.000336769
-0.000359642
-0.000382831
-0.000406271
-0.000429892
-0.000453615
-0.000477352
-0.000501003
-0.000524456
-0.000547585
-0.000570245
-0.000592274
-0.000613491
-0.000633695
-0.000652667
-0.000670167
-0.000685935
-0.000699697
-0.000711169
-0.000720055
-0.000726055
-0.000728875
-0.000728225
-0.000723833
-0.000715448
-0.000702855
-0.000685877
-0.000664386
-0.000638312
-0.000607652
-0.000572476
-0.000532924
-0.000489215
-0.000441777
-0.000390917
-0.000337182
-0.000281174
-0.000223584
-0.000165187
-0.000106835
-4.94442e-05
6.0153e-06
5.85341e-05
0.000107082
0.000150625
0.000188146
0.000218665
0.00024126
0.00025509
0.000259415
0.000253615
0.000237207
0.000209859
0.000171405
0.000121849
6.13716e-05
-9.67025e-06
-9.07488e-05
-0.000181175
-0.000280113
-0.000386596
-0.00049955
-0.000617816
-0.000740176
-0.000865384
-0.000992189
-0.00111936
-0.00124572
-0.00137016
-0.00149167
-0.00160932
-0.00172233
-0.00183003
-0.00193189
-0.0020275
-0.00211659
-0.00219899
-0.00227468
-0.00234368
-0.00240615
-0.00246229
-0.00251236
-0.00255665
-0.00259549
-0.0026292
-0.00265809
-0.00268245
-0.00270252
-0.00271849
-0.0027305
-0.00273858
-0.0027427
-0.00274271
-0.00273835
-0.00272945
-0.00271588
-0.00269497
-0.00266186
0.000177359
0.000148815
0.000127065
0.000108565
9.14566e-05
7.57735e-05
6.14065e-05
4.8102e-05
3.56146e-05
2.37134e-05
1.21794e-05
8.07331e-07
-1.05921e-05
-2.21885e-05
-3.4131e-05
-4.65483e-05
-5.95493e-05
-7.32239e-05
-8.76427e-05
-0.000102859
-0.00011891
-0.000135822
-0.000153605
-0.000172263
-0.000191789
-0.000212169
-0.000233383
-0.000255407
-0.000278215
-0.000301776
-0.000326057
-0.000351024
-0.000376636
-0.000402851
-0.000429622
-0.000456894
-0.000484602
-0.000512673
-0.000541018
-0.000569535
-0.000598102
-0.000626577
-0.000654798
-0.000682577
-0.000709704
-0.000735941
-0.000761028
-0.000784679
-0.000806589
-0.000826431
-0.000843869
-0.000858554
-0.000870134
-0.000878262
-0.000882599
-0.000882827
-0.000878658
-0.000869841
-0.000856171
-0.0008375
-0.000813746
-0.000784902
-0.00075104
-0.000712328
-0.000669077
-0.000621516
-0.000570212
-0.000515701
-0.000458627
-0.000399741
-0.000339884
-0.000279974
-0.000220996
-0.00016399
-0.00011003
-6.02087e-05
-1.56159e-05
2.26816e-05
5.36642e-05
7.63819e-05
8.99771e-05
9.37054e-05
8.69564e-05
6.927e-05
4.03521e-05
8.63042e-08
-5.14599e-05
-0.000114032
-0.00018719
-0.00027032
-0.000362639
-0.00046322
-0.000571006
-0.00068484
-0.000803487
-0.000925666
-0.00105008
-0.00117544
-0.0013005
-0.00142407
-0.00154507
-0.0016625
-0.0017755
-0.00188333
-0.0019854
-0.00208124
-0.00217054
-0.00225311
-0.00232887
-0.00239786
-0.00246021
-0.00251613
-0.00256589
-0.0026098
-0.0026482
-0.00268143
-0.00270983
-0.00273371
-0.00275334
-0.00276893
-0.00278063
-0.0027885
-0.00279251
-0.00279254
-0.00278832
-0.00277969
-0.00276652
-0.00274622
-0.0027141
0.000189814
0.000158014
0.000134059
0.000113946
9.55587e-05
7.89014e-05
6.38248e-05
5.00185e-05
3.71868e-05
2.50567e-05
1.33706e-05
1.88903e-06
-9.60629e-06
-2.13089e-05
-3.33895e-05
-4.59963e-05
-5.92547e-05
-7.32689e-05
-8.81231e-05
-0.000103884
-0.000120602
-0.000138315
-0.000157047
-0.000176816
-0.000197629
-0.000219487
-0.000242388
-0.000266324
-0.000291289
-0.000317272
-0.00034426
-0.000372238
-0.00040119
-0.000431095
-0.000461926
-0.000493648
-0.000526217
-0.000559576
-0.000593653
-0.000628355
-0.00066357
-0.000699161
-0.000734965
-0.000770789
-0.000806411
-0.000841577
-0.000876002
-0.000909372
-0.000941342
-0.000971544
-0.000999587
-0.00102507
-0.00104756
-0.00106666
-0.00108194
-0.001093
-0.00109947
-0.00110101
-0.00109731
-0.00108812
-0.00107328
-0.00105267
-0.00102628
-0.00099415
-0.000956457
-0.000913597
-0.000865855
-0.000813726
-0.000757806
-0.000698816
-0.000637575
-0.000574993
-0.000512065
-0.000449853
-0.000389477
-0.000332088
-0.000278857
-0.000230947
-0.00018949
-0.000155562
-0.000130163
-0.000114186
-0.000108398
-0.000113421
-0.00012971
-0.000157538
-0.000196989
-0.000247947
-0.000310099
-0.000382935
-0.000465764
-0.000557723
-0.000657801
-0.000764858
-0.00087766
-0.000994901
-0.00111524
-0.00123734
-0.00135986
-0.00148156
-0.00160125
-0.00171784
-0.00183038
-0.00193805
-0.00204017
-0.0021362
-0.00222577
-0.00230863
-0.00238466
-0.00245387
-0.00251637
-0.00257237
-0.00262212
-0.00266595
-0.0027042
-0.00273725
-0.00276543
-0.0027891
-0.00280853
-0.00282397
-0.00283558
-0.00284344
-0.00284754
-0.00284776
-0.00284387
-0.00283569
-0.00282311
-0.00280364
-0.00277278
0.000199693
0.000164587
0.000138403
0.000116667
9.69954e-05
7.93621e-05
6.3571e-05
4.92535e-05
3.60625e-05
2.36795e-05
1.18065e-05
1.6965e-07
-1.14781e-05
-2.33558e-05
-3.56569e-05
-4.85491e-05
-6.21746e-05
-7.66531e-05
-9.2084e-05
-0.000108549
-0.000126113
-0.00014483
-0.000164739
-0.000185874
-0.000208261
-0.00023192
-0.000256868
-0.000283124
-0.0003107
-0.000339611
-0.000369871
-0.000401491
-0.000434481
-0.000468849
-0.000504593
-0.000541706
-0.000580166
-0.00061994
-0.000660973
-0.00070319
-0.000746491
-0.000790745
-0.000835791
-0.000881432
-0.000927433
-0.000973524
-0.00101939
-0.00106469
-0.00110903
-0.00115199
-0.00119312
-0.00123195
-0.00126797
-0.0013007
-0.00132961
-0.00135421
-0.00137402
-0.00138858
-0.00139747
-0.00140033
-0.00139686
-0.00138684
-0.00137012
-0.00134662
-0.00131645
-0.00127994
-0.0012371
-0.00118849
-0.0011346
-0.0010761
-0.00101376
-0.000948482
-0.000881245
-0.000813134
-0.000745306
-0.000678976
-0.000615398
-0.000555839
-0.000501559
-0.00045378
-0.000413662
-0.000382278
-0.000360584
-0.000349398
-0.000349374
-0.000360986
-0.000384512
-0.000420019
-0.000467364
-0.000526189
-0.00059593
-0.000675829
-0.000764952
-0.000862208
-0.000966384
-0.00107617
-0.00119019
-0.00130704
-0.00142534
-0.00154373
-0.00166092
-0.00177573
-0.0018871
-0.00199409
-0.00209592
-0.00219195
-0.00228173
-0.00236493
-0.00244138
-0.00251102
-0.00257394
-0.00263031
-0.00268038
-0.00272447
-0.00276292
-0.00279611
-0.00282441
-0.00284817
-0.00286771
-0.00288327
-0.00289504
-0.00290313
-0.00290755
-0.00290818
-0.0029048
-0.00289727
-0.00288546
-0.00286702
-0.00283764
0.000206474
0.00016802
0.000139585
0.000116222
9.5267e-05
7.66589e-05
6.01525e-05
4.53187e-05
3.1755e-05
1.9095e-05
6.99957e-06
-4.83953e-06
-1.66995e-05
-2.88267e-05
-4.14373e-05
-5.47185e-05
-6.88305e-05
-8.39108e-05
-0.000100076
-0.000117422
-0.000136034
-0.000155981
-0.000177323
-0.000200114
-0.000224401
-0.000250228
-0.000277639
-0.000306678
-0.000337388
-0.000369813
-0.000404
-0.000439993
-0.000477836
-0.00051757
-0.000559226
-0.000602829
-0.000648391
-0.000695903
-0.000745337
-0.000796639
-0.000849725
-0.000904475
-0.000960731
-0.00101829
-0.00107691
-0.0011363
-0.00119612
-0.00125597
-0.00131543
-0.00137401
-0.00143119
-0.00148641
-0.00153909
-0.00158861
-0.00163437
-0.00167573
-0.0017121
-0.00174286
-0.00176749
-0.00178545
-0.00179631
-0.0017997
-0.00179532
-0.00178298
-0.00176268
-0.00173479
-0.00169832
-0.00165463
-0.00160394
-0.00154678
-0.00148385
-0.001416
-0.00134422
-0.00126958
-0.00119328
-0.00111659
-0.00104086
-0.000967454
-0.000897779
-0.000833217
-0.000775113
-0.000724745
-0.00068329
-0.000651802
-0.000631178
-0.000622138
-0.000625202
-0.000640675
-0.000668636
-0.000708929
-0.000761172
-0.000824758
-0.000898872
-0.000982513
-0.00107452
-0.0011736
-0.00127837
-0.00138737
-0.00149916
-0.00161228
-0.00172534
-0.00183703
-0.00194616
-0.00205165
-0.0021526
-0.00224827
-0.00233805
-0.00242153
-0.00249846
-0.0025687
-0.00263228
-0.00268931
-0.00274004
-0.00278474
-0.00282376
-0.00285747
-0.00288626
-0.00291047
-0.00293045
-0.00294646
-0.00295871
-0.00296731
-0.00297229
-0.00297356
-0.00297093
-0.00296424
-0.00295338
-0.00293613
-0.00290841
0.000209617
0.000167775
0.000137077
0.000112085
8.98501e-05
7.02721e-05
5.30534e-05
3.76991e-05
2.37487e-05
1.07868e-05
-1.56731e-06
-1.36588e-05
-2.57968e-05
-3.82545e-05
-5.12711e-05
-6.50546e-05
-7.97855e-05
-9.56195e-05
-0.000112692
-0.000131119
-0.000151003
-0.000172436
-0.000195501
-0.000220275
-0.000246833