/*--------------------------------*- C++ -*----------------------------------*\
| =========                 |                                                 |
| \\      /  F ield         | OpenFOAM: The Open Source CFD Toolbox           |
|  \\    /   O peration     | Version:  2112                                  |
|   \\  /    A nd           | Website:  www.openfoam.com                      |
|    \\/     M anipulation  |                                                 |
\*---------------------------------------------------------------------------*/
FoamFile
{
    version     2.0;
    format      ascii;
    arch        "LSB;label=32;scalar=64";
    class       surfaceScalarField;
    location    "13";
    object      phi;
}
// * * * * * * * * * * * * * * * * * * * * * * * * * * * * * * * * * * * * * //

dimensions      [0 3 -1 0 0 0 0];

oriented        oriented;

internalField   nonuniform List<scalar> 
33024
(
4.50657e-09
-4.49495e-09
1.47817e-08
-1.02745e-08
2.57583e-08
-1.09769e-08
3.41406e-08
-8.38217e-09
3.82246e-08
-4.08411e-09
3.73021e-08
9.22849e-10
3.12627e-08
6.03901e-09
2.03411e-08
1.09221e-08
4.95822e-09
1.53827e-08
-1.43805e-08
1.9339e-08
-3.7157e-08
2.27764e-08
-6.28763e-08
2.5719e-08
-9.10934e-08
2.82173e-08
-1.21428e-07
3.03352e-08
-1.53572e-07
3.2144e-08
-1.87288e-07
3.37163e-08
-2.2241e-07
3.51214e-08
-2.58834e-07
3.64242e-08
-2.96516e-07
3.76821e-08
-3.35461e-07
3.89451e-08
-3.75717e-07
4.02557e-08
-4.17365e-07
4.16481e-08
-4.60514e-07
4.31488e-08
-5.05291e-07
4.47776e-08
-5.51839e-07
4.65478e-08
-6.00305e-07
4.84659e-08
-6.50838e-07
5.05335e-08
-7.03587e-07
5.27483e-08
-7.58689e-07
5.51025e-08
-8.16274e-07
5.75849e-08
-8.76455e-07
6.01813e-08
-9.39329e-07
6.28739e-08
-1.00497e-06
6.56422e-08
-1.07343e-06
6.8463e-08
-1.14475e-06
7.13111e-08
-1.2189e-06
7.41584e-08
-1.29588e-06
7.69743e-08
-1.3756e-06
7.97262e-08
-1.45798e-06
8.23796e-08
-1.54288e-06
8.4897e-08
-1.63012e-06
8.72391e-08
-1.71949e-06
8.93645e-08
-1.81072e-06
9.12297e-08
-1.9035e-06
9.27893e-08
-1.9975e-06
9.39959e-08
-2.0923e-06
9.48011e-08
-2.18746e-06
9.51555e-08
-2.28247e-06
9.50092e-08
-2.37678e-06
9.43116e-08
-2.46979e-06
9.30134e-08
-2.56086e-06
9.10668e-08
-2.64928e-06
8.84262e-08
-2.73433e-06
8.50492e-08
-2.81523e-06
8.08974e-08
-2.89117e-06
7.59379e-08
-2.96131e-06
7.01446e-08
-3.02481e-06
6.34986e-08
-3.0808e-06
5.599e-08
-3.12842e-06
4.76185e-08
-3.16682e-06
3.83949e-08
-3.19516e-06
2.83418e-08
-3.21265e-06
1.74948e-08
-3.21856e-06
5.90274e-09
-3.21218e-06
-6.37535e-09
-3.19292e-06
-1.92608e-08
-3.16025e-06
-3.26638e-08
-3.11377e-06
-4.64814e-08
-3.05318e-06
-6.05973e-08
-2.97829e-06
-7.48833e-08
-2.88909e-06
-8.92008e-08
-2.78569e-06
-1.03402e-07
-2.66836e-06
-1.17332e-07
-2.53753e-06
-1.30832e-07
-2.39378e-06
-1.4374e-07
-2.23789e-06
-1.55895e-07
-2.07075e-06
-1.67139e-07
-1.89343e-06
-1.7732e-07
-1.70713e-06
-1.86298e-07
-1.51319e-06
-1.93941e-07
-1.31306e-06
-2.00137e-07
-1.10827e-06
-2.04788e-07
-9.00448e-07
-2.07819e-07
-6.91271e-07
-2.09178e-07
-4.82438e-07
-2.08833e-07
-2.75658e-07
-2.0678e-07
-7.26175e-08
-2.03041e-07
1.25044e-07
-1.97662e-07
3.15757e-07
-1.90713e-07
4.98046e-07
-1.82289e-07
6.70551e-07
-1.72505e-07
8.32047e-07
-1.61496e-07
9.81461e-07
-1.49413e-07
1.11788e-06
-1.36419e-07
1.24057e-06
-1.22687e-07
1.34896e-06
-1.08395e-07
1.44268e-06
-9.37229e-08
1.52153e-06
-7.88499e-08
1.58548e-06
-6.39486e-08
1.63467e-06
-4.91832e-08
1.66937e-06
-3.47065e-08
1.69003e-06
-2.06569e-08
1.69719e-06
-7.15685e-09
1.6915e-06
5.68863e-09
1.6737e-06
1.77931e-08
1.64461e-06
2.90889e-08
1.60509e-06
3.9527e-08
1.55601e-06
4.90757e-08
1.49829e-06
5.77201e-08
1.43283e-06
6.54593e-08
1.36053e-06
7.23047e-08
1.28225e-06
7.82761e-08
1.19885e-06
8.33987e-08
1.11115e-06
8.76985e-08
1.01996e-06
9.11971e-08
9.26052e-07
9.39062e-08
8.30231e-07
9.58211e-08
7.33317e-07
9.69132e-08
6.36196e-07
9.71215e-08
5.39853e-07
9.63431e-08
4.45429e-07
9.44235e-08
3.54284e-07
9.11455e-08
2.68064e-07
8.62193e-08
1.88787e-07
7.92773e-08
1.18905e-07
6.98821e-08
6.13257e-08
5.75792e-08
1.92541e-08
4.20716e-08
-4.40904e-09
2.36631e-08
-8.90905e-09
4.49991e-09
-8.90909e-09
1.03216e-08
-1.4816e-08
2.79769e-08
-2.79307e-08
4.44021e-08
-2.74016e-08
5.38775e-08
-1.78579e-08
5.29072e-08
-3.1137e-09
3.97446e-08
1.40846e-08
1.38581e-08
3.19258e-08
-2.44561e-08
4.92354e-08
-7.44069e-08
6.53336e-08
-1.34935e-07
7.98672e-08
-2.04873e-07
9.27145e-08
-2.83063e-07
1.03909e-07
-3.68429e-07
1.13583e-07
-4.60026e-07
1.21932e-07
-5.57065e-07
1.29183e-07
-6.58924e-07
1.35576e-07
-7.65149e-07
1.41346e-07
-8.75442e-07
1.46717e-07
-9.89653e-07
1.51892e-07
-1.10776e-06
1.5705e-07
-1.22985e-06
1.62344e-07
-1.35609e-06
1.67897e-07
-1.48675e-06
1.73809e-07
-1.62213e-06
1.80155e-07
-1.76257e-06
1.86984e-07
-1.90843e-06
1.94323e-07
-2.06007e-06
2.02181e-07
-2.21787e-06
2.10548e-07
-2.38217e-06
2.19398e-07
-2.55327e-06
2.2869e-07
-2.73146e-06
2.38369e-07
-2.91695e-06
2.48368e-07
-3.10992e-06
2.5861e-07
-3.31047e-06
2.69007e-07
-3.51861e-06
2.79459e-07
-3.73431e-06
2.89859e-07
-3.95743e-06
3.00091e-07
-4.18773e-06
3.10027e-07
-4.42489e-06
3.19534e-07
-4.66846e-06
3.2847e-07
-4.91791e-06
3.36684e-07
-5.17256e-06
3.44017e-07
-5.43164e-06
3.50307e-07
-5.69423e-06
3.55381e-07
-5.9593e-06
3.59064e-07
-6.22567e-06
3.61177e-07
-6.49206e-06
3.61539e-07
-6.75701e-06
3.59968e-07
-7.01899e-06
3.56284e-07
-7.27629e-06
3.50313e-07
-7.52711e-06
3.41888e-07
-7.76953e-06
3.30852e-07
-8.00155e-06
3.17062e-07
-8.22104e-06
3.00395e-07
-8.42585e-06
2.80745e-07
-8.61374e-06
2.58035e-07
-8.78246e-06
2.32218e-07
-8.92974e-06
2.03275e-07
-9.05335e-06
1.71229e-07
-9.1511e-06
1.36138e-07
-9.22086e-06
9.81069e-08
-9.26065e-06
5.72821e-08
-9.26861e-06
1.38619e-08
-9.24306e-06
-3.19233e-08
-9.18254e-06
-7.97809e-08
-9.08584e-06
-1.2937e-07
-8.952e-06
-1.80313e-07
-8.78041e-06
-2.32187e-07
-8.57077e-06
-2.84531e-07
-8.32312e-06
-3.36849e-07
-8.0379e-06
-3.88619e-07
-7.71594e-06
-4.39296e-07
-7.35844e-06
-4.88324e-07
-6.96705e-06
-5.35139e-07
-6.54376e-06
-5.79183e-07
-6.09098e-06
-6.19912e-07
-5.6115e-06
-6.56805e-07
-5.10842e-06
-6.89376e-07
-4.58518e-06
-7.1718e-07
-4.04549e-06
-7.39826e-07
-3.4933e-06
-7.56984e-07
-2.93272e-06
-7.68393e-07
-2.36803e-06
-7.73868e-07
-1.80356e-06
-7.73302e-07
-1.24367e-06
-7.66674e-07
-6.92659e-07
-7.54049e-07
-1.54744e-07
-7.35577e-07
3.66033e-07
-7.1149e-07
8.65845e-07
-6.82101e-07
1.34114e-06
-6.47795e-07
1.78867e-06
-6.09026e-07
2.20555e-06
-5.66302e-07
2.58931e-06
-5.20177e-07
2.93787e-06
-4.71242e-07
3.24958e-06
-4.20111e-07
3.52327e-06
-3.67408e-07
3.75817e-06
-3.13754e-07
3.95398e-06
-2.59759e-07
4.1108e-06
-2.06005e-07
4.22914e-06
-1.53041e-07
4.30985e-06
-1.01371e-07
4.35414e-06
-5.14478e-08
4.3635e-06
-3.66686e-09
4.33966e-06
4.16364e-08
4.28455e-06
8.4191e-08
4.20029e-06
1.23787e-07
4.08909e-06
1.60276e-07
3.95325e-06
1.93565e-07
3.7951e-06
2.23611e-07
3.61699e-06
2.50412e-07
3.42127e-06
2.73998e-07
3.21025e-06
2.94417e-07
2.98623e-06
3.1172e-07
2.75148e-06
3.25944e-07
2.50829e-06
3.37095e-07
2.25899e-06
3.45121e-07
2.00601e-06
3.49897e-07
1.75194e-06
3.51189e-07
1.49965e-06
3.48637e-07
1.25235e-06
3.41725e-07
1.01373e-06
3.29765e-07
7.88056e-07
3.11889e-07
5.80258e-07
2.87075e-07
3.95906e-07
2.54234e-07
2.41038e-07
2.12448e-07
1.2159e-07
1.6152e-07
4.22522e-08
1.03e-07
4.5149e-09
4.22372e-08
-4.39402e-09
1.1242e-08
-2.60584e-08
2.77132e-08
-4.4402e-08
3.91873e-08
-3.8876e-08
3.89735e-08
-1.76438e-08
2.28692e-08
1.29901e-08
-1.1353e-08
4.83075e-08
-6.44192e-08
8.49917e-08
-1.36013e-07
1.20829e-07
-2.25127e-07
1.54448e-07
-3.30357e-07
1.85097e-07
-4.50116e-07
2.12474e-07
-5.82796e-07
2.36589e-07
-7.26877e-07
2.57665e-07
-8.81005e-07
2.7606e-07
-1.04403e-06
2.92209e-07
-1.21504e-06
3.06582e-07
-1.39334e-06
3.19647e-07
-1.57848e-06
3.31855e-07
-1.7702e-06
3.43621e-07
-1.96846e-06
3.5531e-07
-2.17336e-06
3.67239e-07
-2.38513e-06
3.79669e-07
-2.60413e-06
3.9281e-07
-2.83079e-06
4.06816e-07
-3.0656e-06
4.21794e-07
-3.30909e-06
4.37806e-07
-3.56177e-06
4.54869e-07
-3.82419e-06
4.72963e-07
-4.09682e-06
4.92033e-07
-4.38012e-06
5.11989e-07
-4.67447e-06
5.32714e-07
-4.98016e-06
5.54064e-07
-5.29742e-06
5.75868e-07
-5.62635e-06
5.97934e-07
-5.96694e-06
6.20045e-07
-6.31904e-06
6.41965e-07
-6.68239e-06
6.63437e-07
-7.05655e-06
6.84186e-07
-7.44093e-06
7.03917e-07
-7.83478e-06
7.22321e-07
-8.23716e-06
7.39068e-07
-8.64697e-06
7.53818e-07
-9.06287e-06
7.66215e-07
-9.48338e-06
7.75892e-07
-9.9068e-06
7.82475e-07
-1.03312e-05
7.85585e-07
-1.07545e-05
7.84839e-07
-1.11744e-05
7.79859e-07
-1.15884e-05
7.70275e-07
-1.19938e-05
7.55728e-07
-1.23878e-05
7.35882e-07
-1.27674e-05
7.10423e-07
-1.31294e-05
6.79074e-07
-1.34706e-05
6.41596e-07
-1.37876e-05
5.978e-07
-1.40772e-05
5.47553e-07
-1.43357e-05
4.90782e-07
-1.45599e-05
4.2749e-07
-1.47465e-05
3.57752e-07
-1.4892e-05
2.81729e-07
-1.49936e-05
1.99667e-07
-1.50482e-05
1.11909e-07
-1.50533e-05
1.89004e-08
-1.50063e-05
-7.88753e-08
-1.49053e-05
-1.80756e-07
-1.47487e-05
-2.86034e-07
-1.45351e-05
-3.9391e-07
-1.42638e-05
-5.03502e-07
-1.39344e-05
-6.13851e-07
-1.35474e-05
-7.23939e-07
-1.31033e-05
-8.32694e-07
-1.26036e-05
-9.39007e-07
-1.20501e-05
-1.04175e-06
-1.14455e-05
-1.13978e-06
-1.07927e-05
-1.23198e-06
-1.00954e-05
-1.31726e-06
-9.35759e-06
-1.39457e-06
-8.58405e-06
-1.46293e-06
-7.77977e-06
-1.52145e-06
-6.95024e-06
-1.56936e-06
-6.10124e-06
-1.60599e-06
-5.23883e-06
-1.63081e-06
-4.36925e-06
-1.64344e-06
-3.49888e-06
-1.64367e-06
-2.63413e-06
-1.63143e-06
-1.78133e-06
-1.60685e-06
-9.46717e-07
-1.57019e-06
-1.36299e-07
-1.52191e-06
6.4421e-07
-1.46261e-06
1.38945e-06
-1.39304e-06
2.09452e-06
-1.31409e-06
2.75497e-06
-1.22676e-06
3.36693e-06
-1.13214e-06
3.92711e-06
-1.03142e-06
4.43281e-06
-9.25816e-07
4.882e-06
-8.16591e-07
5.27325e-06
-7.05002e-07
5.60578e-06
-5.92293e-07
5.87944e-06
-4.79663e-07
6.09465e-06
-3.6825e-07
6.25239e-06
-2.59111e-07
6.35415e-06
-1.53207e-07
6.40187e-06
-5.13893e-08
6.3979e-06
4.56064e-08
6.34492e-06
1.37169e-07
6.2459e-06
2.2281e-07
6.10401e-06
3.02159e-07
5.92262e-06
3.74962e-07
5.70516e-06
4.41063e-07
5.45518e-06
5.00392e-07
5.17624e-06
5.52942e-07
4.87191e-06
5.98746e-07
4.54579e-06
6.37847e-07
4.20147e-06
6.70264e-07
3.8426e-06
6.95958e-07
3.47294e-06
7.14783e-07
3.09639e-06
7.26451e-07
2.71709e-06
7.30481e-07
2.33957e-06
7.26159e-07
1.96879e-06
7.12502e-07
1.61032e-06
6.88242e-07
1.27037e-06
6.5184e-07
9.55871e-07
6.01571e-07
6.74376e-07
5.3573e-07
4.33742e-07
4.53081e-07
2.4152e-07
3.53743e-07
1.03871e-07
2.40649e-07
2.39556e-08
1.22153e-07
1.9562e-08
8.6671e-09
-3.47249e-08
1.77425e-08
-5.34778e-08
1.66751e-08
-3.78082e-08
-1.37045e-09
4.01128e-10
-4.06255e-08
5.22455e-08
-1.03346e-07
1.11028e-07
-1.90198e-07
1.71843e-07
-3.00726e-07
2.31357e-07
-4.3372e-07
2.87441e-07
-5.87509e-07
3.38886e-07
-7.60203e-07
3.85168e-07
-9.49873e-07
4.26259e-07
-1.15469e-06
4.62477e-07
-1.37299e-06
4.94365e-07
-1.60338e-06
5.22599e-07
-1.84472e-06
5.4792e-07
-2.09615e-06
5.71081e-07
-2.35711e-06
5.92808e-07
-2.62726e-06
6.13774e-07
-2.90653e-06
6.34578e-07
-3.19503e-06
6.55742e-07
-3.49306e-06
6.77699e-07
-3.80104e-06
7.00795e-07
-4.11952e-06
7.2529e-07
-4.44909e-06
7.51363e-07
-4.7904e-06
7.79117e-07
-5.14411e-06
8.08581e-07
-5.51086e-06
8.3972e-07
-5.89127e-06
8.72438e-07
-6.28586e-06
9.06582e-07
-6.6951e-06
9.41948e-07
-7.11932e-06
9.78286e-07
-7.55875e-06
1.0153e-06
-8.01347e-06
1.05266e-06
-8.48341e-06
1.08998e-06
-8.96829e-06
1.12685e-06
-9.46768e-06
1.16283e-06
-9.98093e-06
1.19743e-06
-1.05072e-05
1.23016e-06
-1.10453e-05
1.26046e-06
-1.1594e-05
1.28778e-06
-1.21517e-05
1.31152e-06
-1.27166e-05
1.33108e-06
-1.32865e-05
1.34583e-06
-1.38592e-05
1.35514e-06
-1.4432e-05
1.35837e-06
-1.5002e-05
1.35488e-06
-1.55662e-05
1.34404e-06
-1.61212e-05
1.32525e-06
-1.66634e-05
1.29791e-06
-1.7189e-05
1.26149e-06
-1.76941e-05
1.2155e-06
-1.81745e-05
1.15949e-06
-1.8626e-05
1.09311e-06
-1.90443e-05
1.01609e-06
-1.9425e-05
9.28237e-07
-1.97637e-05
8.29493e-07
-2.00561e-05
7.19903e-07
-2.0298e-05
5.99648e-07
-2.04853e-05
4.69042e-07
-2.06142e-05
3.28546e-07
-2.0681e-05
1.7877e-07
-2.06826e-05
2.05041e-08
-2.06161e-05
-1.45437e-07
-2.04789e-05
-3.17898e-07
-2.02693e-05
-4.95703e-07
-1.99857e-05
-6.77512e-07
-1.96273e-05
-8.61859e-07
-1.9194e-05
-1.04717e-06
-1.86862e-05
-1.23177e-06
-1.81049e-05
-1.41391e-06
-1.74522e-05
-1.59179e-06
-1.67303e-05
-1.76358e-06
-1.59427e-05
-1.92745e-06
-1.50931e-05
-2.08159e-06
-1.41861e-05
-2.22424e-06
-1.32269e-05
-2.35372e-06
-1.22214e-05
-2.46847e-06
-1.11758e-05
-2.56707e-06
-1.00969e-05
-2.64824e-06
-8.99195e-06
-2.71093e-06
-7.86848e-06
-2.75428e-06
-6.73426e-06
-2.77766e-06
-5.59723e-06
-2.7807e-06
-4.46539e-06
-2.76328e-06
-3.34669e-06
-2.72555e-06
-2.24895e-06
-2.66792e-06
-1.17978e-06
-2.59108e-06
-1.46427e-07
-2.49596e-06
8.44245e-07
-2.38371e-06
1.78589e-06
-2.25573e-06
2.67272e-06
-2.11359e-06
3.49959e-06
-1.95902e-06
4.26207e-06
-1.79389e-06
4.95643e-06
-1.62018e-06
5.57973e-06
-1.43989e-06
6.1298e-06
-1.25507e-06
6.60525e-06
-1.06774e-06
7.00546e-06
-8.79875e-07
7.33057e-06
-6.93352e-07
7.58139e-06
-5.09939e-07
7.75944e-06
-3.31257e-07
7.86682e-06
-1.58765e-07
7.90616e-06
6.26205e-09
7.88059e-06
1.62737e-07
7.79363e-06
3.09771e-07
7.64913e-06
4.4666e-07
7.45121e-06
5.72886e-07
7.20418e-06
6.88091e-07
6.91252e-06
7.92057e-07
6.58079e-06
8.84673e-07
6.21363e-06
9.65898e-07
5.81577e-06
1.03571e-06
5.39197e-06
1.09407e-06
4.9471e-06
1.14083e-06
4.48617e-06
1.17571e-06
4.0144e-06
1.19822e-06
3.53731e-06
1.20757e-06
3.0608e-06
1.20266e-06
2.59131e-06
1.182e-06
2.13583e-06
1.14372e-06
1.70207e-06
1.0856e-06
1.29837e-06
1.00527e-06
9.3366e-07
9.00438e-07
6.1716e-07
7.69582e-07
3.57926e-07
6.12977e-07
1.64234e-07
4.3434e-07
4.29766e-08
2.43411e-07
6.25387e-08
4.00408e-09
-3.87291e-08
1.13806e-09
-5.06117e-08
-1.82665e-08
-1.84041e-08
-6.05309e-08
4.26661e-08
-1.29501e-07
1.21215e-07
-2.27027e-07
2.08554e-07
-3.53483e-07
2.983e-07
-5.08147e-07
3.86021e-07
-6.89545e-07
4.68839e-07
-8.95749e-07
5.4509e-07
-1.12461e-06
6.14033e-07
-1.37396e-06
6.75609e-07
-1.64173e-06
7.30244e-07
-1.92605e-06
7.78688e-07
-2.22534e-06
8.21889e-07
-2.53832e-06
8.60893e-07
-2.86401e-06
8.96771e-07
-3.20176e-06
9.30564e-07
-3.55122e-06
9.63237e-07
-3.91231e-06
9.95659e-07
-4.28515e-06
1.02859e-06
-4.6701e-06
1.06265e-06
-5.06767e-06
1.09836e-06
-5.47846e-06
1.13609e-06
-5.9032e-06
1.1761e-06
-6.34263e-06
1.21855e-06
-6.79753e-06
1.26347e-06
-7.26862e-06
1.31081e-06
-7.75661e-06
1.36042e-06
-8.26209e-06
1.41207e-06
-8.78558e-06
1.46543e-06
-9.32743e-06
1.52014e-06
-9.88785e-06
1.57572e-06
-1.04669e-05
1.63168e-06
-1.10643e-05
1.68742e-06
-1.16798e-05
1.74233e-06
-1.23127e-05
1.79571e-06
-1.29621e-05
1.84683e-06
-1.36268e-05
1.89492e-06
-1.43055e-05
1.93914e-06
-1.49964e-05
1.97864e-06
-1.56974e-05
2.01254e-06
-1.64062e-05
2.0399e-06
-1.71202e-05
2.05981e-06
-1.78364e-05
2.0713e-06
-1.85514e-05
2.07343e-06
-1.92618e-05
2.06526e-06
-1.99636e-05
2.04586e-06
-2.06527e-05
2.01436e-06
-2.13247e-05
1.96992e-06
-2.1975e-05
1.91176e-06
-2.25987e-05
1.8392e-06
-2.31909e-05
1.75164e-06
-2.37464e-05
1.64861e-06
-2.426e-05
1.52974e-06
-2.47266e-05
1.39485e-06
-2.5141e-05
1.2439e-06
-2.54981e-05
1.07701e-06
-2.5793e-05
8.94536e-07
-2.6021e-05
6.9699e-07
-2.61775e-05
4.85114e-07
-2.62586e-05
2.59856e-07
-2.62606e-05
2.243e-08
-2.61801e-05
-2.25933e-07
-2.60145e-05
-4.83504e-07
-2.57616e-05
-7.48546e-07
-2.542e-05
-1.01909e-06
-2.49889e-05
-1.29298e-06
-2.44681e-05
-1.56795e-06
-2.38583e-05
-1.84155e-06
-2.3161e-05
-2.11129e-06
-2.23782e-05
-2.37458e-06
-2.1513e-05
-2.62879e-06
-2.05691e-05
-2.8713e-06
-1.95512e-05
-3.09954e-06
-1.84644e-05
-3.31101e-06
-1.73148e-05
-3.5033e-06
-1.61091e-05
-3.67421e-06
-1.48544e-05
-3.82168e-06
-1.35588e-05
-3.94392e-06
-1.22303e-05
-4.03938e-06
-1.08778e-05
-4.10684e-06
-9.51007e-06
-4.14536e-06
-8.1364e-06
-4.15437e-06
-6.76601e-06
-4.13367e-06
-5.40815e-06
-4.0834e-06
-4.07196e-06
-4.00412e-06
-2.76634e-06
-3.89671e-06
-1.49987e-06
-3.76243e-06
-2.80695e-07
-3.60288e-06
8.83556e-07
-3.41998e-06
1.98588e-06
-3.21591e-06
3.01995e-06
-2.99309e-06
3.98023e-06
-2.75417e-06
4.86196e-06
-2.50191e-06
5.66126e-06
-2.23919e-06
6.37512e-06
-1.96893e-06
7.00143e-06
-1.69405e-06
7.53897e-06
-1.41741e-06
7.98738e-06
-1.14176e-06
8.34715e-06
-8.69712e-07
8.61957e-06
-6.03678e-07
8.80666e-06
-3.45857e-07
8.91113e-06
-9.82006e-08
8.93626e-06
1.37601e-07
8.8859e-06
3.60129e-07
8.76433e-06
5.68231e-07
8.57621e-06
7.61013e-07
8.32648e-06
9.37813e-07
8.02037e-06
1.09817e-06
7.66325e-06
1.24179e-06
7.26066e-06
1.36848e-06
6.81828e-06
1.47809e-06
6.3419e-06
1.57045e-06
5.83746e-06
1.64527e-06
5.31108e-06
1.70209e-06
4.76912e-06
1.74017e-06
4.21828e-06
1.75841e-06
3.66566e-06
1.75529e-06
3.11885e-06
1.72881e-06
2.58605e-06
1.67652e-06
2.07609e-06
1.59557e-06
1.59844e-06
1.48292e-06
1.16316e-06
1.33571e-06
7.8076e-07
1.15199e-06
4.61989e-07
9.31748e-07
2.17758e-07
6.78572e-07
5.93489e-08
4.0182e-07
1.21887e-07
-1.94124e-09
-3.67875e-08
-1.98992e-08
-3.26544e-08
-6.20628e-08
2.376e-08
-1.33646e-07
1.14249e-07
-2.37647e-07
2.25217e-07
-3.75283e-07
3.4619e-07
-5.46407e-07
4.69424e-07
-7.49877e-07
5.89491e-07
-9.83877e-07
7.02838e-07
-1.24619e-06
8.07399e-07
-1.53441e-06
9.02256e-07
-1.84615e-06
9.87354e-07
-2.17917e-06
1.06326e-06
-2.53144e-06
1.13096e-06
-2.90125e-06
1.1917e-06
-3.28723e-06
1.24687e-06
-3.68836e-06
1.29789e-06
-4.10393e-06
1.34614e-06
-4.53361e-06
1.39291e-06
-4.97731e-06
1.43936e-06
-5.43524e-06
1.48651e-06
-5.90779e-06
1.53521e-06
-6.39557e-06
1.58613e-06
-6.89927e-06
1.63979e-06
-7.41972e-06
1.69655e-06
-7.95776e-06
1.75659e-06
-8.51425e-06
1.81997e-06
-9.09003e-06
1.88659e-06
-9.68585e-06
1.95625e-06
-1.03024e-05
2.0286e-06
-1.09402e-05
2.10321e-06
-1.15996e-05
2.17952e-06
-1.22807e-05
2.2569e-06
-1.29837e-05
2.3346e-06
-1.3708e-05
2.41182e-06
-1.44534e-05
2.48765e-06
-1.52188e-05
2.56112e-06
-1.60031e-05
2.6312e-06
-1.6805e-05
2.69679e-06
-1.76226e-05
2.75673e-06
-1.84538e-05
2.80982e-06
-1.92961e-05
2.85481e-06
-2.01466e-05
2.89042e-06
-2.10021e-05
2.91536e-06
-2.18592e-05
2.92832e-06
-2.27137e-05
2.92799e-06
-2.35616e-05
2.91311e-06
-2.43981e-05
2.88241e-06
-2.52185e-05
2.83473e-06
-2.60175e-05
2.76895e-06
-2.67898e-05
2.68405e-06
-2.75298e-05
2.57916e-06
-2.82316e-05
2.4535e-06
-2.88895e-05
2.30651e-06
-2.94976e-05
2.13777e-06
-3.00498e-05
1.94709e-06
-3.05404e-05
1.7345e-06
-3.09637e-05
1.50027e-06
-3.1314e-05
1.24492e-06
-3.15863e-05
9.69256e-07
-3.17755e-05
6.74342e-07
-3.18772e-05
3.6153e-07
-3.18873e-05
3.25087e-08
-3.18023e-05
-3.10972e-07
-3.16192e-05
-6.66581e-07
-3.13358e-05
-1.03193e-06
-3.09505e-05
-1.40435e-06
-3.04625e-05
-1.78096e-06
-2.98718e-05
-2.15867e-06
-2.91791e-05
-2.53426e-06
-2.8386e-05
-2.90437e-06
-2.7495e-05
-3.26557e-06
-2.65094e-05
-3.61439e-06
-2.54334e-05
-3.94734e-06
-2.42719e-05
-4.26102e-06
-2.30308e-05
-4.55212e-06
-2.17166e-05
-4.81747e-06
-2.03367e-05
-5.05412e-06
-1.8899e-05
-5.25936e-06
-1.74122e-05
-5.43078e-06
-1.58852e-05
-5.56631e-06
-1.43278e-05
-5.66428e-06
-1.27498e-05
-5.72341e-06
-1.11613e-05
-5.74287e-06
-9.57259e-06
-5.72233e-06
-7.99411e-06
-5.66189e-06
-6.43605e-06
-5.56218e-06
-4.90847e-06
-5.42429e-06
-3.42111e-06
-5.24978e-06
-1.9833e-06
-5.04069e-06
-6.03837e-07
-4.79944e-06
7.09113e-07
-4.52886e-06
1.94809e-06
-4.23207e-06
3.10644e-06
-3.91252e-06
4.17837e-06
-3.57384e-06
5.15901e-06
-3.21982e-06
6.04442e-06
-2.85435e-06
6.83168e-06
-2.48131e-06
7.51882e-06
-2.10456e-06
8.10489e-06
-1.72783e-06
8.58985e-06
-1.35467e-06
8.9746e-06
-9.88427e-07
9.2609e-06
-6.32158e-07
9.45131e-06
-2.88616e-07
9.54913e-06
3.97791e-08
9.55831e-06
3.50954e-07
9.48335e-06
6.43185e-07
9.32928e-06
9.15085e-07
9.10152e-06
1.16558e-06
8.80582e-06
1.39387e-06
8.44825e-06
1.59937e-06
8.03508e-06
1.78165e-06
7.57281e-06
1.94037e-06
7.0681e-06
2.07516e-06
6.52782e-06
2.18555e-06
5.95908e-06
2.27084e-06
5.36924e-06
2.33002e-06
4.766e-06
2.36165e-06
4.15747e-06
2.36381e-06
3.55226e-06
2.33402e-06
2.95955e-06
2.26923e-06
2.38913e-06
2.16599e-06
1.85146e-06
2.02058e-06
1.3577e-06
1.82948e-06
9.19672e-07
1.59001e-06
5.50025e-07
1.30139e-06
2.62482e-07
9.66115e-07
7.26254e-08
5.91677e-07
1.94513e-07
-8.68313e-09
-2.81047e-08
-4.40387e-08
2.70177e-09
-1.12262e-07
9.19822e-08
-2.17137e-07
2.19124e-07
-3.60511e-07
3.68591e-07
-5.42701e-07
5.28379e-07
-7.62846e-07
6.8957e-07
-1.01925e-06
8.45891e-07
-1.30965e-06
9.93236e-07
-1.63148e-06
1.12923e-06
-1.98208e-06
1.25286e-06
-2.35885e-06
1.36412e-06
-2.75937e-06
1.46378e-06
-3.18153e-06
1.55311e-06
-3.62351e-06
1.63369e-06
-4.08391e-06
1.70727e-06
-4.56167e-06
1.77566e-06
-5.05613e-06
1.8406e-06
-5.56695e-06
1.90373e-06
-6.09414e-06
1.96655e-06
-6.63794e-06
2.03032e-06
-7.19887e-06
2.09614e-06
-7.7776e-06
2.16486e-06
-8.37496e-06
2.23715e-06
-8.99186e-06
2.31345e-06
-9.62926e-06
2.39399e-06
-1.02881e-05
2.47882e-06
-1.09693e-05
2.56782e-06
-1.16738e-05
2.66068e-06
-1.24021e-05
2.75696e-06
-1.3155e-05
2.85605e-06
-1.39327e-05
2.95721e-06
-1.47353e-05
3.05957e-06
-1.55629e-05
3.16214e-06
-1.64149e-05
3.26384e-06
-1.72907e-05
3.36344e-06
-1.81892e-05
3.45965e-06
-1.91091e-05
3.55109e-06
-2.00486e-05
3.63629e-06
-2.10056e-05
3.71369e-06
-2.19775e-05
3.78172e-06
-2.29614e-05
3.83871e-06
-2.39539e-05
3.88298e-06
-2.49514e-05
3.91284e-06
-2.59496e-05
3.92657e-06
-2.69441e-05
3.9225e-06
-2.793e-05
3.89896e-06
-2.8902e-05
3.85437e-06
-2.98545e-05
3.78723e-06
-3.07816e-05
3.69613e-06
-3.16774e-05
3.57982e-06
-3.25355e-05
3.43722e-06
-3.33494e-05
3.26742e-06
-3.41126e-05
3.06974e-06
-3.48186e-05
2.84374e-06
-3.54608e-05
2.58928e-06
-3.60327e-05
2.30646e-06
-3.65282e-05
1.99574e-06
-3.69411e-05
1.65787e-06
-3.72658e-05
1.29397e-06
-3.7497e-05
9.05478e-07
-3.76297e-05
4.94211e-07
-3.76595e-05
6.2357e-08
-3.75828e-05
-3.8772e-07
-3.73963e-05
-8.53081e-07
-3.70976e-05
-1.33062e-06
-3.6685e-05
-1.81693e-06
-3.61576e-05
-2.30832e-06
-3.55154e-05
-2.80088e-06
-3.47592e-05
-3.29052e-06
-3.38906e-05
-3.773e-06
-3.29121e-05
-4.24399e-06
-3.18274e-05
-4.6991e-06
-3.06408e-05
-5.13397e-06
-2.93575e-05
-5.54429e-06
-2.79837e-05
-5.92589e-06
-2.65265e-05
-6.27477e-06
-2.49934e-05
-6.58718e-06
-2.33931e-05
-6.85969e-06
-2.17346e-05
-7.08922e-06
-2.00278e-05
-7.27311e-06
-1.82829e-05
-7.40917e-06
-1.65106e-05
-7.49571e-06
-1.47219e-05
-7.5316e-06
-1.2928e-05
-7.51627e-06
-1.11401e-05
-7.44976e-06
-9.36954e-06
-7.33272e-06
-7.62744e-06
-7.16639e-06
-5.92462e-06
-6.9526e-06
-4.27155e-06
-6.69377e-06
-2.67815e-06
-6.39284e-06
-1.15376e-06
-6.05325e-06
2.9303e-07
-5.67886e-06
1.65442e-06
-5.27391e-06
2.92352e-06
-4.84294e-06
4.09441e-06
-4.39071e-06
5.16216e-06
-3.9221e-06
6.12292e-06
-3.44207e-06
6.97389e-06
-2.95553e-06
7.71335e-06
-2.46729e-06
8.34064e-06
-1.98196e-06
8.85612e-06
-1.50391e-06
9.26115e-06
-1.03718e-06
9.55799e-06
-5.85458e-07
9.74978e-06
-1.52008e-07
9.84042e-06
2.60314e-07
9.83451e-06
6.49089e-07
9.73728e-06
1.01232e-06
9.55446e-06
1.3484e-06
9.29226e-06
1.65607e-06
8.95724e-06
1.93439e-06
8.5563e-06
2.18258e-06
8.09664e-06
2.40003e-06
7.58568e-06
2.58612e-06
7.03112e-06
2.74011e-06
6.4409e-06
2.86106e-06
5.82326e-06
2.94765e-06
5.18682e-06
2.9981e-06
4.54056e-06
3.01007e-06
3.89398e-06
2.9806e-06
3.25713e-06
2.90609e-06
2.64069e-06
2.78242e-06
2.05609e-06
2.60518e-06
1.51557e-06
2.37e-06
1.03238e-06
2.0732e-06
6.21084e-07
1.71269e-06
2.98141e-07
1.28906e-06
8.29447e-08
8.06873e-07
2.77458e-07
-1.59763e-08
-1.21282e-08
-7.03489e-08
5.70739e-08
-1.67169e-07
1.88802e-07
-3.08483e-07
3.60437e-07
-4.9476e-07
5.54868e-07
-7.25206e-07
7.58826e-07
-9.98085e-07
9.62448e-07
-1.311e-06
1.15881e-06
-1.66117e-06
1.34341e-06
-2.04562e-06
1.51368e-06
-2.46139e-06
1.66862e-06
-2.90565e-06
1.80838e-06
-3.37584e-06
1.93398e-06
-3.86975e-06
2.04702e-06
-4.38553e-06
2.14947e-06
-4.92175e-06
2.24349e-06
-5.47739e-06
2.33129e-06
-6.05182e-06
2.41503e-06
-6.6448e-06
2.49671e-06
-7.2564e-06
2.57815e-06
-7.887e-06
2.66091e-06
-8.5372e-06
2.74634e-06
-9.20781e-06
2.83548e-06
-9.89979e-06
2.92913e-06
-1.06142e-05
3.02782e-06
-1.1352e-05
3.13183e-06
-1.21144e-05
3.2412e-06
-1.29023e-05
3.35576e-06
-1.37167e-05
3.47509e-06
-1.45584e-05
3.5986e-06
-1.54278e-05
3.72551e-06
-1.63255e-05
3.85484e-06
-1.72514e-05
3.98549e-06
-1.82054e-05
4.11616e-06
-1.9187e-05
4.24543e-06
-2.01953e-05
4.37176e-06
-2.12291e-05
4.49346e-06
-2.22868e-05
4.60875e-06
-2.33662e-05
4.71575e-06
-2.4465e-05
4.81249e-06
-2.55802e-05
4.89691e-06
-2.67085e-05
4.96695e-06
-2.78459e-05
5.02045e-06
-2.89884e-05
5.05528e-06
-3.01311e-05
5.0693e-06
-3.1269e-05
5.06041e-06
-3.23966e-05
5.02655e-06
-3.3508e-05
4.96578e-06
-3.45971e-05
4.87626e-06
-3.56572e-05
4.75629e-06
-3.66818e-05
4.60437e-06
-3.76638e-05
4.41923e-06
-3.85962e-05
4.19982e-06
-3.94718e-05
3.94538e-06
-4.02836e-05
3.65548e-06
-4.10243e-05
3.33e-06
-4.1687e-05
2.9692e-06
-4.2265e-05
2.57372e-06
-4.27517e-05
2.1446e-06
-4.31411e-05
1.68328e-06
-4.34272e-05
1.19164e-06
-4.3605e-05
6.71965e-07
-4.36696e-05
1.26989e-07
-4.36171e-05
-4.40272e-07
-4.34439e-05
-1.02625e-06
-4.31474e-05
-1.62708e-06
-4.27258e-05
-2.23857e-06
-4.21779e-05
-2.85622e-06
-4.15035e-05
-3.47524e-06
-4.07034e-05
-4.09066e-06
-3.97791e-05
-4.6973e-06
-3.87332e-05
-5.2899e-06
-3.75692e-05
-5.86312e-06
-3.62915e-05
-6.41165e-06
-3.49055e-05
-6.93024e-06
-3.34176e-05
-7.4138e-06
-3.18349e-05
-7.85745e-06
-3.01655e-05
-8.25658e-06
-2.84183e-05
-8.60695e-06
-2.66027e-05
-8.90475e-06
-2.47292e-05
-9.14664e-06
-2.28085e-05
-9.32985e-06
-2.08521e-05
-9.45218e-06
-1.88715e-05
-9.51212e-06
-1.6879e-05
-9.50882e-06
-1.48866e-05
-9.44214e-06
-1.29066e-05
-9.31269e-06
-1.09512e-05
-9.1218e-06
-9.0323e-06
-8.87152e-06
-7.16147e-06
-8.56461e-06
-5.34983e-06
-8.20448e-06
-3.6079e-06
-7.79517e-06
-1.9455e-06
-7.34126e-06
-3.71603e-07
-6.84781e-06
1.10573e-06
-6.32027e-06
2.47942e-06
-5.7644e-06
3.74346e-06
-5.18615e-06
4.89297e-06
-4.59158e-06
5.92421e-06
-3.98677e-06
6.8346e-06
-3.37767e-06
7.62271e-06
-2.77007e-06
8.28826e-06
-2.16946e-06
8.83207e-06
-1.58099e-06
9.25599e-06
-1.00938e-06
9.56287e-06
-4.58891e-07
9.75646e-06
6.6724e-08
9.84133e-06
5.64223e-07
9.82278e-06
1.03087e-06
9.70676e-06
1.46441e-06
9.49979e-06
1.86304e-06
9.20888e-06
2.2253e-06
8.84143e-06
2.55003e-06
8.40523e-06
2.83623e-06
7.90839e-06
3.08296e-06
7.35931e-06
3.28919e-06
6.76671e-06
3.45365e-06
6.13964e-06
3.57472e-06
5.48749e-06
3.65025e-06
4.82008e-06
3.67748e-06
4.14771e-06
3.65296e-06
3.48126e-06
3.57253e-06
2.8323e-06
3.43139e-06
2.21318e-06
3.2243e-06
1.6373e-06
2.94588e-06
1.11931e-06
2.59119e-06
6.75642e-07
2.15636e-06
3.25233e-07
1.63947e-06
9.06191e-08
1.04149e-06
3.68077e-07
-2.36501e-08
1.15214e-08
-9.82847e-08
1.31709e-07
-2.25651e-07
3.16169e-07
-4.05909e-07
5.40695e-07
-6.37963e-07
7.86921e-07
-9.19746e-07
1.04061e-06
-1.2485e-06
1.2912e-06
-1.62103e-06
1.53134e-06
-2.03392e-06
1.7563e-06
-2.48373e-06
1.9635e-06
-2.96717e-06
2.15206e-06
-3.48118e-06
2.32239e-06
-4.02306e-06
2.47586e-06
-4.5905e-06
2.61445e-06
-5.18164e-06
2.7406e-06
-5.79507e-06
2.85692e-06
-6.42983e-06
2.96606e-06
-7.08539e-06
3.07059e-06
-7.76159e-06
3.17292e-06
-8.45866e-06
3.27521e-06
-9.17709e-06
3.37935e-06
-9.91765e-06
3.4869e-06
-1.06813e-05
3.59913e-06
-1.14691e-05
3.71696e-06
-1.22823e-05
3.84101e-06
-1.31221e-05
3.97161e-06
-1.39897e-05
4.10876e-06
-1.48861e-05
4.25222e-06
-1.58125e-05
4.40145e-06
-1.67696e-05
4.5557e-06
-1.7758e-05
4.71396e-06
-1.87782e-05
4.87502e-06
-1.98302e-05
5.03745e-06
-2.09137e-05
5.19966e-06
-2.20281e-05
5.35985e-06
-2.31724e-05
5.51607e-06
-2.43452e-05
5.66624e-06
-2.55445e-05
5.80812e-06
-2.67682e-05
5.93937e-06
-2.80132e-05
6.05754e-06
-2.92764e-05
6.16012e-06
-3.0554e-05
6.24451e-06
-3.18416e-05
6.30811e-06
-3.31347e-05
6.3483e-06
-3.44278e-05
6.36247e-06
-3.57155e-05
6.34808e-06
-3.69916e-05
6.30267e-06
-3.82497e-05
6.22389e-06
-3.9483e-05
6.10956e-06
-4.06845e-05
5.95771e-06
-4.18467e-05
5.76658e-06
-4.29621e-05
5.5347e-06
-4.40232e-05
5.2609e-06
-4.50222e-05
4.94437e-06
-4.59514e-05
4.58465e-06
-4.68031e-05
4.18172e-06
-4.75699e-05
3.73599e-06
-4.82445e-05
3.24831e-06
-4.88199e-05
2.72001e-06
-4.92895e-05
2.15291e-06
-4.96472e-05
1.54931e-06
-4.98872e-05
9.12012e-07
-5.00046e-05
2.4431e-07
-4.99947e-05
-4.50115e-07
-4.98539e-05
-1.16705e-06
-4.95791e-05
-1.90186e-06
-4.91682e-05
-2.64955e-06
-4.86196e-05
-3.40475e-06
-4.7933e-05
-4.16183e-06
-4.71088e-05
-4.91485e-06
-4.61484e-05
-5.65771e-06
-4.50542e-05
-6.38416e-06
-4.38294e-05
-7.08788e-06
-4.24785e-05
-7.76257e-06
-4.10067e-05
-8.40198e-06
-3.94205e-05
-9.00004e-06
-3.77271e-05
-9.5509e-06
-3.59346e-05
-1.0049e-05
-3.40522e-05
-1.04893e-05
-3.20899e-05
-1.08671e-05
-3.00582e-05
-1.11783e-05
-2.79686e-05
-1.14194e-05
-2.5833e-05
-1.15878e-05
-2.3664e-05
-1.16812e-05
-2.14742e-05
-1.16986e-05
-1.92768e-05
-1.16395e-05
-1.70851e-05
-1.15044e-05
-1.49122e-05
-1.12947e-05
-1.27712e-05
-1.10125e-05
-1.0675e-05
-1.06609e-05
-8.63581e-06
-1.02437e-05
-6.6655e-06
-9.76548e-06
-4.77515e-06
-9.23161e-06
-2.97504e-06
-8.64792e-06
-1.27452e-06
-8.02079e-06
3.18087e-07
-7.35701e-06
1.79558e-06
-6.66364e-06
3.15194e-06
-5.94793e-06
4.38234e-06
-5.21717e-06
5.48324e-06
-4.47857e-06
6.45235e-06
-3.73918e-06
7.28862e-06
-3.00573e-06
7.99223e-06
-2.2846e-06
8.56451e-06
-1.58167e-06
9.00793e-06
-9.02312e-07
9.32598e-06
-2.51324e-07
9.5231e-06
3.67103e-07
9.6046e-06
9.49373e-07
9.57655e-06
1.49246e-06
9.44571e-06
1.99388e-06
9.21942e-06
2.45158e-06
8.90556e-06
2.86389e-06
8.51243e-06
3.22937e-06
8.04873e-06
3.54666e-06
7.52354e-06
3.81438e-06
6.94628e-06
4.03092e-06
6.32671e-06
4.19428e-06
5.67501e-06
4.30195e-06
5.00176e-06
4.35074e-06
4.31804e-06
4.33668e-06
3.63556e-06
4.25501e-06
2.96675e-06
4.10021e-06
2.32493e-06
3.86611e-06
1.72462e-06
3.54619e-06
1.18187e-06
3.13394e-06
7.14826e-07
2.6234e-06
3.44523e-07
2.00977e-06
9.5979e-08
1.29003e-06
4.64056e-07
-3.16252e-08
4.31466e-08
-1.27479e-07
2.27562e-07
-2.86944e-07
4.75634e-07
-5.08166e-07
7.61917e-07
-7.88351e-07
1.06711e-06
-1.12403e-06
1.37629e-06
-1.5113e-06
1.67848e-06
-1.94607e-06
1.96611e-06
-2.42423e-06
2.23446e-06
-2.94182e-06
2.48109e-06
-3.49517e-06
2.70541e-06
-4.08097e-06
2.90819e-06
-4.69636e-06
3.09125e-06
-5.33899e-06
3.25708e-06
-6.00698e-06
3.4086e-06
-6.69899e-06