/*--------------------------------*- C++ -*----------------------------------*\
| =========                 |                                                 |
| \\      /  F ield         | OpenFOAM: The Open Source CFD Toolbox           |
|  \\    /   O peration     | Version:  2112                                  |
|   \\  /    A nd           | Website:  www.openfoam.com                      |
|    \\/     M anipulation  |                                                 |
\*---------------------------------------------------------------------------*/
FoamFile
{
    version     2.0;
    format      ascii;
    arch        "LSB;label=32;scalar=64";
    class       volVectorField;
    location    "13";
    object      U;
}
// * * * * * * * * * * * * * * * * * * * * * * * * * * * * * * * * * * * * * //

dimensions      [0 1 -1 0 0 0 0];

internalField   nonuniform List<vector> 
16641
(
(2.20806e-06 -2.26392e-06 0)
(1.16676e-05 -5.73922e-06 0)
(2.63982e-05 -6.45923e-06 0)
(3.96335e-05 -5.43451e-06 0)
(4.80114e-05 -3.58678e-06 0)
(5.01756e-05 -1.45679e-06 0)
(4.56851e-05 6.69378e-07 0)
(3.46675e-05 2.64156e-06 0)
(1.75818e-05 4.38948e-06 0)
(-4.95253e-06 5.89233e-06 0)
(-3.22593e-05 7.15757e-06 0)
(-6.36726e-05 8.20578e-06 0)
(-9.85805e-05 9.06556e-06 0)
(-0.000136447 9.76846e-06 0)
(-0.000176827 1.03479e-05 0)
(-0.000219368 1.08362e-05 0)
(-0.00026381 1.12631e-05 0)
(-0.000309982 1.16557e-05 0)
(-0.000357789 1.20374e-05 0)
(-0.000407208 1.24279e-05 0)
(-0.000458276 1.28439e-05 0)
(-0.000511077 1.32985e-05 0)
(-0.000565738 1.38013e-05 0)
(-0.000622413 1.43598e-05 0)
(-0.000681277 1.49787e-05 0)
(-0.000742517 1.56597e-05 0)
(-0.00080633 1.64032e-05 0)
(-0.000872905 1.72081e-05 0)
(-0.000942431 1.80714e-05 0)
(-0.00101508 1.89886e-05 0)
(-0.00109101 1.99547e-05 0)
(-0.00117036 2.09631e-05 0)
(-0.00125323 2.20063e-05 0)
(-0.00133972 2.30762e-05 0)
(-0.00142987 2.41642e-05 0)
(-0.00152371 2.52602e-05 0)
(-0.00162121 2.63534e-05 0)
(-0.00172231 2.74325e-05 0)
(-0.00182691 2.84856e-05 0)
(-0.00193485 2.94994e-05 0)
(-0.00204594 3.04597e-05 0)
(-0.00215993 3.1352e-05 0)
(-0.00227651 3.21605e-05 0)
(-0.0023953 3.28685e-05 0)
(-0.0025159 3.34583e-05 0)
(-0.00263781 3.39117e-05 0)
(-0.00276048 3.42101e-05 0)
(-0.0028833 3.4334e-05 0)
(-0.00300559 3.42634e-05 0)
(-0.00312661 3.39782e-05 0)
(-0.00324555 3.34588e-05 0)
(-0.00336154 3.26861e-05 0)
(-0.00347366 3.16417e-05 0)
(-0.00358093 3.03083e-05 0)
(-0.00368234 2.86706e-05 0)
(-0.00377681 2.67152e-05 0)
(-0.00386327 2.44317e-05 0)
(-0.0039406 2.18128e-05 0)
(-0.00400768 1.88547e-05 0)
(-0.0040634 1.55579e-05 0)
(-0.00410668 1.19277e-05 0)
(-0.00413647 7.9746e-06 0)
(-0.00415177 3.71466e-06 0)
(-0.00415165 -8.32447e-07 0)
(-0.00413527 -5.63894e-06 0)
(-0.00410191 -1.0671e-05 0)
(-0.00405095 -1.58899e-05 0)
(-0.00398195 -2.12508e-05 0)
(-0.00389458 -2.67035e-05 0)
(-0.00378873 -3.21928e-05 0)
(-0.00366443 -3.76593e-05 0)
(-0.00352195 -4.30403e-05 0)
(-0.00336172 -4.82705e-05 0)
(-0.00318442 -5.3283e-05 0)
(-0.00299091 -5.80109e-05 0)
(-0.00278226 -6.23879e-05 0)
(-0.00255975 -6.63507e-05 0)
(-0.00232484 -6.98394e-05 0)
(-0.00207918 -7.27992e-05 0)
(-0.00182456 -7.51817e-05 0)
(-0.00156292 -7.69465e-05 0)
(-0.00129631 -7.80615e-05 0)
(-0.00102685 -7.85046e-05 0)
(-0.000756734 -7.82639e-05 0)
(-0.000488167 -7.73381e-05 0)
(-0.000223345 -7.57374e-05 0)
(3.55807e-05 -7.34832e-05 0)
(0.000286531 -7.06063e-05 0)
(0.000527537 -6.71482e-05 0)
(0.000756763 -6.31595e-05 0)
(0.000972539 -5.86984e-05 0)
(0.00117338 -5.383e-05 0)
(0.00135799 -4.86241e-05 0)
(0.00152532 -4.31539e-05 0)
(0.00167452 -3.74942e-05 0)
(0.00180498 -3.17201e-05 0)
(0.00191634 -2.5905e-05 0)
(0.00200845 -2.0119e-05 0)
(0.00208137 -1.44282e-05 0)
(0.00213539 -8.89273e-06 0)
(0.00217097 -3.56603e-06 0)
(0.00218874 1.50582e-06 0)
(0.0021895 6.28461e-06 0)
(0.00217414 1.07403e-05 0)
(0.00214366 1.48513e-05 0)
(0.00209915 1.86037e-05 0)
(0.00204174 2.19913e-05 0)
(0.00197259 2.50146e-05 0)
(0.00189288 2.76804e-05 0)
(0.00180375 3.00001e-05 0)
(0.00170637 3.19891e-05 0)
(0.00160183 3.36646e-05 0)
(0.00149122 3.5044e-05 0)
(0.00137559 3.61431e-05 0)
(0.00125594 3.69734e-05 0)
(0.00113331 3.75388e-05 0)
(0.00100873 3.78329e-05 0)
(0.000883279 3.78343e-05 0)
(0.000758161 3.75016e-05 0)
(0.000634731 3.67675e-05 0)
(0.000514587 3.55306e-05 0)
(0.000399651 3.36459e-05 0)
(0.000292274 3.09143e-05 0)
(0.000195339 2.70737e-05 0)
(0.000112345 2.18099e-05 0)
(4.73139e-05 1.48434e-05 0)
(4.31187e-06 6.2014e-06 0)
(-1.35079e-05 -2.99537e-06 0)
(-7.91082e-06 -7.91176e-06 0)
(5.71032e-06 -1.16628e-05 0)
(2.3858e-05 -2.38058e-05 0)
(4.78803e-05 -2.47611e-05 0)
(6.61742e-05 -1.83851e-05 0)
(7.24545e-05 -7.98926e-06 0)
(6.36668e-05 4.18667e-06 0)
(3.85132e-05 1.67276e-05 0)
(-3.06173e-06 2.87788e-05 0)
(-6.02781e-05 3.98654e-05 0)
(-0.000131879 4.97625e-05 0)
(-0.000216387 5.84121e-05 0)
(-0.000312274 6.58609e-05 0)
(-0.000418081 7.22214e-05 0)
(-0.000532491 7.76446e-05 0)
(-0.000654382 8.23012e-05 0)
(-0.00078284 8.63659e-05 0)
(-0.000917172 9.0009e-05 0)
(-0.0010569 9.33892e-05 0)
(-0.00120173 9.66487e-05 0)
(-0.00135157 9.99125e-05 0)
(-0.00150645 0.000103286 0)
(-0.00166656 0.000106854 0)
(-0.00183218 0.000110684 0)
(-0.00200368 0.000114827 0)
(-0.00218147 0.000119315 0)
(-0.00236602 0.000124166 0)
(-0.0025578 0.000129385 0)
(-0.00275728 0.000134965 0)
(-0.00296493 0.000140889 0)
(-0.00318117 0.000147127 0)
(-0.00340639 0.000153645 0)
(-0.00364091 0.000160397 0)
(-0.00388498 0.000167333 0)
(-0.00413877 0.000174393 0)
(-0.00440239 0.000181513 0)
(-0.0046758 0.000188623 0)
(-0.0049589 0.000195645 0)
(-0.00525145 0.000202496 0)
(-0.00555308 0.000209089 0)
(-0.00586331 0.000215329 0)
(-0.00618151 0.000221117 0)
(-0.00650688 0.000226348 0)
(-0.00683851 0.000230912 0)
(-0.0071753 0.000234695 0)
(-0.00751599 0.000237579 0)
(-0.00785917 0.000239441 0)
(-0.00820323 0.000240159 0)
(-0.00854643 0.000239608 0)
(-0.00888681 0.000237662 0)
(-0.00922229 0.000234199 0)
(-0.00955062 0.000229101 0)
(-0.00986939 0.000222257 0)
(-0.010176 0.000213561 0)
(-0.0104679 0.000202922 0)
(-0.0107423 0.00019026 0)
(-0.0109963 0.000175514 0)
(-0.011227 0.000158639 0)
(-0.0114315 0.000139615 0)
(-0.011607 0.000118445 0)
(-0.0117504 9.51606e-05 0)
(-0.0118591 6.98214e-05 0)
(-0.0119303 4.25199e-05 0)
(-0.0119617 1.33803e-05 0)
(-0.0119508 -1.74459e-05 0)
(-0.0118957 -4.97589e-05 0)
(-0.0117946 -8.33338e-05 0)
(-0.0116461 -0.000117913 0)
(-0.0114493 -0.000153206 0)
(-0.0112034 -0.000188894 0)
(-0.0109084 -0.000224633 0)
(-0.0105645 -0.000260057 0)
(-0.0101725 -0.000294784 0)
(-0.0097338 -0.000328421 0)
(-0.00925019 -0.000360568 0)
(-0.00872403 -0.000390831 0)
(-0.00815817 -0.00041882 0)
(-0.00755594 -0.000444164 0)
(-0.00692118 -0.000466516 0)
(-0.00625809 -0.000485557 0)
(-0.00557132 -0.000501008 0)
(-0.00486581 -0.000512633 0)
(-0.00414678 -0.000520246 0)
(-0.00341965 -0.000523715 0)
(-0.00269 -0.000522968 0)
(-0.00196345 -0.000517992 0)
(-0.0012456 -0.000508837 0)
(-0.000541961 -0.000495616 0)
(0.000142118 -0.000478501 0)
(0.000801546 -0.000457719 0)
(0.00143155 -0.000433554 0)
(0.00202772 -0.000406333 0)
(0.00258612 -0.000376425 0)
(0.00310326 -0.00034423 0)
(0.00357619 -0.000310171 0)
(0.00400252 -0.000274686 0)
(0.00438043 -0.000238219 0)
(0.00470865 -0.000201209 0)
(0.00498652 -0.000164084 0)
(0.00521389 -0.00012725 0)
(0.00539118 -9.10872e-05 0)
(0.00551926 -5.5941e-05 0)
(0.00559949 -2.21182e-05 0)
(0.00563361 1.01169e-05 0)
(0.00562371 4.05448e-05 0)
(0.00557217 6.89917e-05 0)
(0.00548162 9.53291e-05 0)
(0.00535485 0.000119472 0)
(0.00519479 0.000141375 0)
(0.00500444 0.000161029 0)
(0.00478682 0.000178454 0)
(0.00454497 0.00019369 0)
(0.00428189 0.000206792 0)
(0.00400057 0.000217815 0)
(0.00370394 0.000226804 0)
(0.00339494 0.000233779 0)
(0.00307653 0.000238722 0)
(0.00275175 0.000241553 0)
(0.00242384 0.000242117 0)
(0.00209628 0.000240156 0)
(0.00177296 0.00023529 0)
(0.0014583 0.000226997 0)
(0.00115741 0.000214592 0)
(0.000876213 0.000197231 0)
(0.000621505 0.000173953 0)
(0.000400906 0.000143837 0)
(0.00022237 0.000106451 0)
(9.29873e-05 6.28062e-05 0)
(1.76819e-05 1.76004e-05 0)
(-3.00137e-06 -1.35405e-05 0)
(6.65592e-06 -2.66502e-05 0)
(2.51992e-05 -4.79253e-05 0)
(4.57042e-05 -4.54167e-05 0)
(5.48869e-05 -2.72186e-05 0)
(4.53619e-05 2.29699e-07 0)
(1.3335e-05 3.21975e-05 0)
(-4.29152e-05 6.54239e-05 0)
(-0.000123539 9.77898e-05 0)
(-0.000227582 0.000128018 0)
(-0.000353409 0.000155429 0)
(-0.000499033 0.000179768 0)
(-0.000662351 0.00020107 0)
(-0.000841317 0.000219563 0)
(-0.00103406 0.000235594 0)
(-0.00123895 0.000249575 0)
(-0.00145465 0.000261943 0)
(-0.00168014 0.000273136 0)
(-0.00191467 0.000283567 0)
(-0.0021578 0.000293614 0)
(-0.00240933 0.000303612 0)
(-0.00266931 0.000313846 0)
(-0.00293797 0.000324553 0)
(-0.0032157 0.000335919 0)
(-0.003503 0.000348084 0)
(-0.00380049 0.000361143 0)
(-0.00410883 0.00037515 0)
(-0.00442869 0.00039012 0)
(-0.00476077 0.000406037 0)
(-0.00510573 0.000422849 0)
(-0.00546418 0.00044048 0)
(-0.00583665 0.000458826 0)
(-0.0062236 0.000477761 0)
(-0.00662536 0.000497136 0)
(-0.00704213 0.000516783 0)
(-0.007474 0.000536513 0)
(-0.00792085 0.000556121 0)
(-0.00838243 0.000575381 0)
(-0.00885829 0.000594056 0)
(-0.00934777 0.000611887 0)
(-0.00985 0.000628602 0)
(-0.0103639 0.000643915 0)
(-0.0108882 0.000657525 0)
(-0.0114212 0.000669119 0)
(-0.0119612 0.000678372 0)
(-0.0125061 0.000684953 0)
(-0.0130536 0.000688522 0)
(-0.0136011 0.000688738 0)
(-0.0141457 0.000685259 0)
(-0.0146844 0.000677749 0)
(-0.0152138 0.000665882 0)
(-0.0157303 0.000649346 0)
(-0.0162303 0.000627852 0)
(-0.0167096 0.000601139 0)
(-0.0171642 0.000568977 0)
(-0.0175899 0.000531182 0)
(-0.0179822 0.000487615 0)
(-0.0183368 0.000438195 0)
(-0.0186492 0.000382902 0)
(-0.0189152 0.000321787 0)
(-0.0191304 0.000254973 0)
(-0.0192907 0.000182664 0)
(-0.0193924 0.000105148 0)
(-0.0194316 2.27988e-05 0)
(-0.0194053 -6.39295e-05 0)
(-0.0193104 -0.000154477 0)
(-0.0191447 -0.000248209 0)
(-0.0189062 -0.000344411 0)
(-0.0185936 -0.000442286 0)
(-0.0182062 -0.000540969 0)
(-0.0177439 -0.000639534 0)
(-0.0172075 -0.000737004 0)
(-0.0165982 -0.000832364 0)
(-0.0159182 -0.000924579 0)
(-0.0151704 -0.0010126 0)
(-0.0143583 -0.0010954 0)
(-0.0134862 -0.00117196 0)
(-0.0125592 -0.00124133 0)
(-0.0115829 -0.00130259 0)
(-0.0105635 -0.00135493 0)
(-0.00950796 -0.00139763 0)
(-0.00842344 -0.00143007 0)
(-0.00731765 -0.00145178 0)
(-0.00619853 -0.00146239 0)
(-0.00507427 -0.00146172 0)
(-0.00395311 -0.00144973 0)
(-0.00284331 -0.00142653 0)
(-0.00175301 -0.00139238 0)
(-0.000690115 -0.00134772 0)
(0.00033778 -0.00129311 0)
(0.00132351 -0.00122927 0)
(0.00226044 -0.00115702 0)
(0.00314252 -0.0010773 0)
(0.00396438 -0.000991141 0)
(0.00472137 -0.000899623 0)
(0.00540962 -0.000803886 0)
(0.00602609 -0.000705087 0)
(0.00656854 -0.000604382 0)
(0.00703555 -0.000502907 0)
(0.00742653 -0.000401752 0)
(0.00774165 -0.000301944 0)
(0.00798183 -0.000204435 0)
(0.00814869 -0.000110078 0)
(0.00824445 -1.96259e-05 0)
(0.00827189 6.62807e-05 0)
(0.00823428 0.000147116 0)
(0.00813528 0.000222471 0)
(0.00797887 0.000292046 0)
(0.00776929 0.000355646 0)
(0.00751093 0.000413171 0)
(0.00720831 0.000464595 0)
(0.00686602 0.00050995 0)
(0.00648868 0.000549305 0)
(0.00608089 0.000582734 0)
(0.00564729 0.000610286 0)
(0.00519256 0.000631953 0)
(0.00472144 0.000647626 0)
(0.00423885 0.000657052 0)
(0.00374995 0.000659795 0)
(0.00326029 0.000655185 0)
(0.00277597 0.000642283 0)
(0.00230374 0.000619851 0)
(0.00185117 0.000586358 0)
(0.00142677 0.000540041 0)
(0.00103992 0.000479097 0)
(0.00070074 0.000402128 0)
(0.000419347 0.000309093 0)
(0.000204397 0.000202992 0)
(6.35615e-05 9.30857e-05 0)
(6.32711e-06 4.3977e-06 0)
(5.75807e-06 -4.02768e-05 0)
(1.87409e-05 -6.62192e-05 0)
(2.64897e-05 -5.44435e-05 0)
(1.60824e-05 -1.79248e-05 0)
(-1.98599e-05 3.3548e-05 0)
(-8.52126e-05 9.25661e-05 0)
(-0.000181669 0.000153836 0)
(-0.000309255 0.000213787 0)
(-0.000466793 0.00027017 0)
(-0.000652341 0.000321729 0)
(-0.000863535 0.000367938 0)
(-0.00109786 0.000408785 0)
(-0.00135286 0.000444616 0)
(-0.00162626 0.000476005 0)
(-0.00191607 0.000503659 0)
(-0.00222065 0.000528348 0)
(-0.00253872 0.000550845 0)
(-0.00286935 0.000571896 0)
(-0.00321198 0.000592187 0)
(-0.00356635 0.000612332 0)
(-0.0039325 0.000632857 0)
(-0.0043107 0.000654201 0)
(-0.00470143 0.000676713 0)
(-0.00510531 0.000700657 0)
(-0.0055231 0.000726212 0)
(-0.00595561 0.000753482 0)
(-0.00640369 0.000782496 0)
(-0.00686819 0.000813221 0)
(-0.00734993 0.000845563 0)
(-0.00784965 0.000879372 0)
(-0.00836799 0.000914448 0)
(-0.00890548 0.000950545 0)
(-0.00946249 0.000987373 0)
(-0.0100392 0.0010246 0)
(-0.0106357 0.00106187 0)
(-0.0112517 0.00109876 0)
(-0.0118867 0.00113485 0)
(-0.0125401 0.00116966 0)
(-0.0132109 0.00120269 0)
(-0.0138978 0.00123342 0)
(-0.0145993 0.00126128 0)
(-0.0153135 0.00128569 0)
(-0.0160382 0.00130606 0)
(-0.0167708 0.00132176 0)
(-0.0175086 0.00133216 0)
(-0.0182483 0.00133661 0)
(-0.0189864 0.00133449 0)
(-0.019719 0.00132515 0)
(-0.020442 0.00130797 0)
(-0.0211508 0.00128236 0)
(-0.0218408 0.00124776 0)
(-0.0225069 0.00120366 0)
(-0.0231438 0.00114959 0)
(-0.0237463 0.00108518 0)
(-0.0243087 0.00101013 0)
(-0.0248254 0.000924218 0)
(-0.0252908 0.000827354 0)
(-0.0256993 0.000719557 0)
(-0.0260452 0.000600975 0)
(-0.0263233 0.000471898 0)
(-0.0265284 0.000332759 0)
(-0.0266557 0.000184146 0)
(-0.0267009 2.68025e-05 0)
(-0.0266598 -0.000138373 0)
(-0.0265291 -0.000310325 0)
(-0.0263059 -0.000487849 0)
(-0.0259881 -0.000669596 0)
(-0.0255742 -0.000854085 0)
(-0.0250635 -0.00103972 0)
(-0.0244562 -0.00122479 0)
(-0.0237533 -0.00140753 0)
(-0.0229567 -0.00158608 0)
(-0.0220691 -0.00175858 0)
(-0.0210944 -0.00192314 0)
(-0.020037 -0.0020779 0)
(-0.0189025 -0.00222106 0)
(-0.0176971 -0.00235088 0)
(-0.0164279 -0.00246577 0)
(-0.0151028 -0.00256424 0)
(-0.0137303 -0.00264501 0)
(-0.0123194 -0.00270698 0)
(-0.0108797 -0.00274927 0)
(-0.009421 -0.00277126 0)
(-0.00795353 -0.00277258 0)
(-0.00648759 -0.00275311 0)
(-0.00503349 -0.00271305 0)
(-0.00360145 -0.00265282 0)
(-0.00220144 -0.00257317 0)
(-0.000843068 -0.00247507 0)
(0.000464524 -0.00235975 0)
(0.0017128 -0.00222866 0)
(0.00289391 -0.00208344 0)
(0.00400078 -0.00192589 0)
(0.00502723 -0.00175796 0)
(0.00596797 -0.00158166 0)
(0.0068187 -0.00139908 0)
(0.00757611 -0.0012123 0)
(0.00823791 -0.0010234 0)
(0.00880282 -0.000834365 0)
(0.00927052 -0.000647109 0)
(0.00964165 -0.000463403 0)
(0.00991773 -0.000284869 0)
(0.0101011 -0.000112951 0)
(0.0101948 5.10993e-05 0)
(0.0102027 0.000206228 0)
(0.0101289 0.000351585 0)
(0.00997839 0.000486516 0)
(0.00975619 0.000610556 0)
(0.00946781 0.000723405 0)
(0.00911891 0.000824903 0)
(0.00871536 0.000915001 0)
(0.00826308 0.000993713 0)
(0.00776813 0.00106107 0)
(0.00723662 0.00111709 0)
(0.00667474 0.00116165 0)
(0.00608886 0.0011945 0)
(0.00548556 0.00121514 0)
(0.00487172 0.00122278 0)
(0.00425468 0.00121625 0)
(0.00364236 0.00119395 0)
(0.0030434 0.00115387 0)
(0.00246728 0.00109358 0)
(0.00192435 0.00101042 0)
(0.00142583 0.000901832 0)
(0.000983577 0.000766058 0)
(0.000609414 0.000603469 0)
(0.000313765 0.000418638 0)
(0.000108642 0.000223834 0)
(1.52704e-05 4.81026e-05 0)
(3.87598e-06 -4.89316e-05 0)
(7.29683e-06 -7.14069e-05 0)
(-4.65046e-06 -4.28397e-05 0)
(-4.2786e-05 1.91589e-05 0)
(-0.000113639 0.000101467 0)
(-0.000220694 0.000194076 0)
(-0.000365236 0.000289684 0)
(-0.000546923 0.00038326 0)
(-0.000764236 0.00047156 0)
(-0.0010149 0.000552721 0)
(-0.00129622 0.00062592 0)
(-0.00160535 0.000691094 0)
(-0.00193952 0.000748715 0)
(-0.00229617 0.000799606 0)
(-0.00267306 0.000844809 0)
(-0.00306833 0.000885464 0)
(-0.00348053 0.000922739 0)
(-0.00390861 0.000957759 0)
(-0.00435194 0.000991574 0)
(-0.00481023 0.00102512 0)
(-0.00528354 0.00105921 0)
(-0.00577218 0.00109453 0)
(-0.00627672 0.00113162 0)
(-0.0067979 0.00117089 0)
(-0.00733659 0.00121262 0)
(-0.00789374 0.00125697 0)
(-0.00847034 0.00130398 0)
(-0.00906737 0.00135361 0)
(-0.00968577 0.0014057 0)
(-0.0103264 0.00146 0)
(-0.0109899 0.00151618 0)
(-0.011677 0.00157386 0)
(-0.0123879 0.00163255 0)
(-0.0131229 0.00169171 0)
(-0.0138818 0.00175075 0)
(-0.0146643 0.00180901 0)
(-0.0154697 0.00186578 0)
(-0.0162971 0.00192028 0)
(-0.0171452 0.0019717 0)
(-0.0180122 0.00201918 0)
(-0.0188962 0.00206183 0)
(-0.0197947 0.0020987 0)
(-0.0207048 0.00212882 0)
(-0.0216234 0.00215122 0)
(-0.0225469 0.00216487 0)
(-0.0234711 0.00216878 0)
(-0.0243917 0.00216193 0)
(-0.0253039 0.00214334 0)
(-0.0262024 0.00211206 0)
(-0.0270818 0.00206718 0)
(-0.0279361 0.00200785 0)
(-0.0287594 0.00193331 0)
(-0.0295453 0.00184291 0)
(-0.0302872 0.00173609 0)
(-0.0309784 0.00161245 0)
(-0.0316123 0.00147174 0)
(-0.0321822 0.00131388 0)
(-0.0326815 0.00113896 0)
(-0.0331035 0.000947318 0)
(-0.0334422 0.000739465 0)
(-0.0336916 0.000516155 0)
(-0.0338461 0.000278373 0)
(-0.0339007 2.73359e-05 0)
(-0.033851 -0.000235495 0)
(-0.033693 -0.00050845 0)
(-0.0334237 -0.000789625 0)
(-0.0330406 -0.00107691 0)
(-0.0325424 -0.001368 0)
(-0.0319283 -0.00166043 0)
(-0.0311987 -0.00195158 0)
(-0.030355 -0.00223874 0)
(-0.0293995 -0.00251909 0)
(-0.0283354 -0.0027898 0)
(-0.0271673 -0.003048 0)
(-0.0259003 -0.00329091 0)
(-0.024541 -0.00351578 0)
(-0.0230965 -0.00372003 0)
(-0.0215751 -0.00390122 0)
(-0.0199858 -0.00405715 0)
(-0.0183383 -0.00418585 0)
(-0.0166431 -0.00428567 0)
(-0.014911 -0.00435527 0)
(-0.0131536 -0.00439366 0)
(-0.0113825 -0.00440026 0)
(-0.00960965 -0.00437486 0)
(-0.00784702 -0.00431767 0)
(-0.0061065 -0.00422932 0)
(-0.00439975 -0.00411082 0)
(-0.00273809 -0.0039636 0)
(-0.00113233 -0.00378942 0)
(0.000407309 -0.00359042 0)
(0.00187138 -0.003369 0)
(0.00325126 -0.00312786 0)
(0.00453928 -0.00286986 0)
(0.00572877 -0.00259805 0)
(0.00681416 -0.00231556 0)
(0.00779099 -0.00202556 0)
(0.00865596 -0.0017312 0)
(0.00940692 -0.00143558 0)
(0.0100429 -0.00114163 0)
(0.0105639 -0.000852152 0)
(0.0109712 -0.000569698 0)
(0.0112668 -0.000296589 0)
(0.0114539 -3.48649e-05 0)
(0.0115364 0.000213726 0)
(0.0115189 0.000447732 0)
(0.0114065 0.000665998 0)
(0.0112053 0.000867645 0)
(0.0109212 0.00105205 0)
(0.010561 0.00121881 0)
(0.0101315 0.00136769 0)
(0.0096397 0.00149857 0)
(0.00909287 0.00161135 0)
(0.00849839 0.00170591 0)
(0.00786382 0.00178201 0)
(0.00719694 0.00183916 0)
(0.00650576 0.00187659 0)
(0.0057987 0.00189309 0)
(0.00508461 0.00188695 0)
(0.00437294 0.00185595 0)
(0.00367386 0.00179727 0)
(0.00299834 0.00170765 0)
(0.00235818 0.00158359 0)
(0.00176603 0.00142182 0)
(0.0012353 0.00122014 0)
(0.000779529 0.000978906 0)
(0.000411406 0.000703146 0)
(0.000148044 0.000405712 0)
(2.26647e-05 0.000114815 0)
(1.4847e-06 -5.05751e-05 0)
(-7.33114e-06 -5.88053e-05 0)
(-4.40762e-05 -4.31744e-06 0)
(-0.000116217 9.11916e-05 0)
(-0.000228809 0.000211509 0)
(-0.000384507 0.000344205 0)
(-0.000583881 0.000480115 0)
(-0.000825982 0.000612837 0)
(-0.00110881 0.000738191 0)
(-0.00142967 0.000853746 0)
(-0.00178554 0.000958413 0)
(-0.00217327 0.0010521 0)
(-0.00258983 0.00113545 0)
(-0.00303244 0.00120954 0)
(-0.00349868 0.00127581 0)
(-0.00398656 0.00133579 0)
(-0.00449451 0.0013911 0)
(-0.00502145 0.00144327 0)
(-0.00556671 0.00149377 0)
(-0.00613001 0.00154389 0)
(-0.00671147 0.00159476 0)
(-0.00731147 0.00164734 0)
(-0.00793067 0.00170238 0)
(-0.00856994 0.00176047 0)
(-0.00923025 0.00182199 0)
(-0.0099127 0.00188717 0)
(-0.0106184 0.00195607 0)
(-0.0113485 0.00202859 0)
(-0.0121039 0.00210451 0)
(-0.0128857 0.00218347 0)
(-0.0136946 0.00226499 0)
(-0.0145312 0.00234846 0)
(-0.0153958 0.00243321 0)
(-0.0162886 0.00251843 0)
(-0.0172094 0.00260323 0)
(-0.0181575 0.00268665 0)
(-0.0191323 0.00276763 0)
(-0.0201323 0.00284506 0)
(-0.021156 0.00291772 0)
(-0.0222011 0.00298436 0)
(-0.0232653 0.00304367 0)
(-0.0243456 0.00309428 0)
(-0.0254384 0.0031348 0)
(-0.0265399 0.00316379 0)
(-0.0276457 0.00317983 0)
(-0.028751 0.00318146 0)
(-0.0298505 0.00316726 0)
(-0.0309385 0.00313586 0)
(-0.0320088 0.00308591 0)
(-0.033055 0.00301618 0)
(-0.0340703 0.00292552 0)
(-0.0350475 0.0028129 0)
(-0.0359793 0.00267745 0)
(-0.0368583 0.00251848 0)
(-0.0376767 0.00233551 0)
(-0.038427 0.00212825 0)
(-0.0391014 0.00189671 0)
(-0.0396927 0.00164113 0)
(-0.0401934 0.00136204 0)
(-0.0405966 0.00106028 0)
(-0.0408958 0.000737009 0)
(-0.0410848 0.000393682 0)
(-0.041158 3.20871e-05 0)
(-0.0411107 -0.00034566 0)
(-0.0409386 -0.00073717 0)
(-0.0406383 -0.00113974 0)
(-0.0402074 -0.00155039 0)
(-0.0396443 -0.00196589 0)
(-0.0389484 -0.00238281 0)
(-0.0381202 -0.00279752 0)
(-0.0371612 -0.00320625 0)
(-0.036074 -0.00360514 0)
(-0.0348624 -0.00399026 0)
(-0.0335312 -0.00435773 0)
(-0.0320863 -0.00470367 0)
(-0.0305346 -0.00502438 0)
(-0.0288842 -0.00531627 0)
(-0.0271441 -0.00557604 0)
(-0.0253242 -0.00580063 0)
(-0.023435 -0.00598736 0)
(-0.0214882 -0.00613391 0)
(-0.0194957 -0.00623841 0)
(-0.0174701 -0.00629949 0)
(-0.0154244 -0.00631624 0)
(-0.0133719 -0.00628834 0)
(-0.0113258 -0.00621596 0)
(-0.0092995 -0.00609988 0)
(-0.00730611 -0.00594138 0)
(-0.00535844 -0.0057423 0)
(-0.00346881 -0.00550498 0)
(-0.00164895 -0.00523222 0)
(9.01593e-05 -0.00492725 0)
(0.00173842 -0.00459366 0)
(0.00328671 -0.00423534 0)
(0.00472697 -0.00385643 0)
(0.0060523 -0.0034612 0)
(0.00725703 -0.00305402 0)
(0.00833672 -0.00263926 0)
(0.00928821 -0.00222122 0)
(0.0101096 -0.00180404 0)
(0.0108003 -0.00139167 0)
(0.0113609 -0.00098779 0)
(0.0117931 -0.000595742 0)
(0.0120996 -0.000218527 0)
(0.0122844 0.000141247 0)
(0.0123521 0.000481365 0)
(0.0123081 0.000800013 0)
(0.0121588 0.00109576 0)
(0.0119107 0.00136751 0)
(0.0115712 0.0016145 0)
(0.0111479 0.00183618 0)
(0.0106487 0.00203219 0)
(0.0100819 0.00220222 0)
(0.00945603 0.00234595 0)
(0.00877977 0.00246292 0)
(0.00806213 0.00255238 0)
(0.00731242 0.00261321 0)
(0.00654034 0.00264378 0)
(0.00575606 0.00264187 0)
(0.00497034 0.00260458 0)
(0.00419463 0.00252838 0)
(0.00344114 0.00240919 0)
(0.00272293 0.00224267 0)
(0.00205395 0.00202476 0)
(0.00144912 0.00175255 0)
(0.000923911 0.00142574 0)
(0.000493594 0.0010485 0)
(0.000180428 0.000632117 0)
(2.84077e-05 0.000200712 0)
(-1.19746e-06 -4.39393e-05 0)
(-2.40388e-05 -2.50349e-05 0)
(-8.93121e-05 6.59679e-05 0)
(-0.000200308 0.000203886 0)
(-0.000360098 0.000369825 0)
(-0.000570175 0.000549203 0)
(-0.000830107 0.000731205 0)
(-0.00113813 0.000908229 0)
(-0.0014916 0.00107529 0)
(-0.00188734 0.00122948 0)
(-0.00232191 0.00136953 0)
(-0.00279187 0.00149539 0)
(-0.00329396 0.00160788 0)
(-0.00382522 0.00170845 0)
(-0.00438311 0.00179891 0)
(-0.00496554 0.00188127 0)
(-0.00557093 0.0019576 0)
(-0.00619818 0.00202991 0)
(-0.00684664 0.00210009 0)
(-0.00751611 0.00216983 0)
(-0.00820678 0.00224062 0)
(-0.00891914 0.00231368 0)
(-0.00965398 0.00239003 0)
(-0.0104123 0.0024704 0)
(-0.0111952 0.00255532 0)
(-0.0120039 0.00264505 0)
(-0.0128397 0.00273968 0)
(-0.0137037 0.00283906 0)
(-0.0145972 0.00294286 0)
(-0.0155212 0.0030506 0)
(-0.0164764 0.00316159 0)
(-0.0174635 0.00327501 0)
(-0.0184828 0.00338991 0)
(-0.0195344 0.00350519 0)
(-0.0206179 0.00361962 0)
(-0.0217326 0.00373186 0)
(-0.0228775 0.00384047 0)
(-0.0240509 0.00394389 0)
(-0.0252508 0.00404048 0)
(-0.0264747 0.00412852 0)
(-0.0277197 0.00420622 0)
(-0.0289822 0.00427171 0)
(-0.0302582 0.00432312 0)
(-0.031543 0.00435851 0)
(-0.0328317 0.00437596 0)
(-0.0341185 0.00437355 0)
(-0.0353975 0.00434939 0)
(-0.036662 0.00430166 0)
(-0.0379051 0.00422865 0)
(-0.0391195 0.00412872 0)
(-0.0402973 0.00400043 0)
(-0.0414305 0.00384248 0)
(-0.042511 0.00365382 0)
(-0.0435304 0.00343362 0)
(-0.0444801 0.00318133 0)
(-0.0453518 0.00289671 0)
(-0.0461369 0.00257986 0)
(-0.0468274 0.00223122 0)
(-0.0474152 0.0018516 0)
(-0.0478927 0.00144223 0)
(-0.0482529 0.00100472 0)
(-0.048489 0.000541084 0)
(-0.0485951 5.37525e-05 0)
(-0.048566 -0.000454441 0)
(-0.048397 -0.000980299 0)
(-0.0480847 -0.00152024 0)
(-0.0476264 -0.00207035 0)
(-0.0470202 -0.0026264 0)
(-0.0462657 -0.00318391 0)
(-0.0453633 -0.00373815 0)
(-0.0443146 -0.00428426 0)
(-0.0431223 -0.00481722 0)
(-0.0417903 -0.00533199 0)
(-0.0403237 -0.00582353 0)
(-0.0387288 -0.00628688 0)
(-0.0370129 -0.00671721 0)
(-0.0351845 -0.00710994 0)
(-0.0332532 -0.00746077 0)
(-0.0312293 -0.00776575 0)
(-0.0291244 -0.00802136 0)
(-0.0269507 -0.00822457 0)
(-0.024721 -0.00837292 0)
(-0.022449 -0.00846451 0)
(-0.0201486 -0.00849811 0)
(-0.0178342 -0.00847314 0)
(-0.0155203 -0.00838973 0)
(-0.0132216 -0.00824872 0)
(-0.0109524 -0.00805162 0)
(-0.00872707 -0.00780065 0)
(-0.00655926 -0.00749868 0)
(-0.00446219 -0.00714918 0)
(-0.00244834 -0.0067562 0)
(-0.000529294 -0.00632424 0)
(0.00128435 -0.00585826 0)
(0.00298309 -0.00536351 0)
(0.00455865 -0.00484551 0)
(0.00600401 -0.00430988 0)
(0.0073135 -0.00376231 0)
(0.00848283 -0.00320843 0)
(0.00950907 -0.00265372 0)
(0.0103907 -0.00210341 0)
(0.0111276 -0.00156244 0)
(0.0117207 -0.00103536 0)
(0.0121726 -0.000526272 0)
(0.0124867 -3.88096e-05 0)
(0.0126675 0.000423889 0)
(0.0127206 0.00085919 0)
(0.0126523 0.00126495 0)
(0.0124698 0.00163948 0)
(0.0121807 0.00198148 0)
(0.0117933 0.00229 0)
(0.0113164 0.00256431 0)
(0.010759 0.00280379 0)
(0.0101305 0.00300783 0)
(0.00944071 0.00317568 0)
(0.00869972 0.00330629 0)
(0.00791794 0.00339817 0)
(0.00710622 0.00344924 0)
(0.0062759 0.00345676 0)
(0.00543886 0.0034172 0)
(0.0046077 0.0033263 0)
(0.00379576 0.00317918 0)
(0.00301726 0.00297062 0)
(0.00228745 0.00269558 0)
(0.00162282 0.00235007 0)
(0.00104087 0.0019324 0)
(0.000559558 0.00144476 0)
(0.000205863 0.000895204 0)
(3.26975e-05 0.000301809 0)
(-4.05045e-06 -2.81881e-05 0)
(-4.21613e-05 3.23894e-05 0)
(-0.00013873 0.000171719 0)
(-0.000292345 0.000361788 0)
(-0.000503711 0.00058144 0)
(-0.00077289 0.000814282 0)
(-0.00109821 0.00104812 0)
(-0.0014769 0.00127438 0)
(-0.00190553 0.00148746 0)
(-0.00238032 0.00168411 0)
(-0.0028974 0.001863 0)
(-0.00345298 0.00202421 0)
(-0.00404358 0.00216884 0)
(-0.00466608 0.00229874 0)
(-0.00531786 0.00241617 0)
(-0.00599679 0.00252365 0)
(-0.00670131 0.00262376 0)
(-0.00743035 0.00271901 0)
(-0.00818336 0.00281173 0)
(-0.00896024 0.00290405 0)
(-0.0097613 0.00299782 0)
(-0.0105872 0.00309457 0)
(-0.0114388 0.00319555 0)
(-0.0123174 0.00330169 0)
(-0.0132241 0.00341363 0)
(-0.0141605 0.0035317 0)
(-0.0151278 0.00365595 0)
(-0.0161274 0.00378621 0)
(-0.0171607 0.00392201 0)
(-0.0182286 0.00406269 0)
(-0.0193321 0.00420737 0)
(-0.0204718 0.00435495 0)
(-0.021648 0.00450416 0)
(-0.0228607 0.00465355 0)
(-0.0241094 0.00480151 0)
(-0.0253932 0.00494628 0)
(-0.0267108 0.00508594 0)
(-0.0280604 0.00521847 0)
(-0.0294396 0.00534171 0)
(-0.0308455 0.00545343 0)
(-0.0322745 0.00555128 0)
(-0.0337227 0.00563287 0)
(-0.0351853 0.00569575 0)
(-0.0366573 0.00573745 0)
(-0.0381328 0.0057555 0)
(-0.0396056 0.00574746 0)
(-0.0410687 0.00571096 0)
(-0.0425148 0.00564372 0)
(-0.0439361 0.00554358 0)
(-0.0453244 0.00540856 0)
(-0.0466713 0.00523688 0)
(-0.0479678 0.00502699 0)
(-0.0492049 0.00477766 0)
(-0.0503733 0.00448795 0)
(-0.051464 0.00415728 0)
(-0.0524676 0.00378547 0)
(-0.053375 0.00337277 0)
(-0.0541774 0.00291986 0)
(-0.0548662 0.00242789 0)
(-0.0554331 0.0018985 0)
(-0.0558706 0.00133383 0)
(-0.0561714 0.000736503 0)
(-0.0563291 0.000109646 0)
(-0.0563381 -0.000543139 0)
(-0.0561934 -0.00121779 0)
(-0.0558912 -0.00190981 0)
(-0.0554285 -0.00261427 0)
(-0.0548033 -0.00332591 0)
(-0.0540149 -0.00403914 0)
(-0.0530634 -0.00474811 0)
(-0.0519505 -0.00544676 0)
(-0.0506787 -0.00612891 0)
(-0.0492521 -0.00678831 0)
(-0.0476756 -0.00741873 0)
(-0.0459557 -0.00801403 0)
(-0.0440999 -0.00856824 0)
(-0.0421169 -0.00907567 0)
(-0.0400166 -0.00953093 0)
(-0.03781 -0.00992912 0)
(-0.0355088 -0.0102658 0)
(-0.033126 -0.0105372 0)
(-0.0306752 -0.01074 0)
(-0.0281708 -0.0108718 0)
(-0.0256276 -0.010931 0)
(-0.0230612 -0.0109166 0)
(-0.020487 -0.0108286 0)
(-0.017921 -0.0106678 0)
(-0.0153788 -0.0104359 0)
(-0.0128761 -0.0101355 0)
(-0.0104281 -0.00976989 0)
(-0.0080494 -0.00934318 0)
(-0.00575409 -0.0088602 0)
(-0.00355528 -0.0083264 0)
(-0.00146511 -0.00774778 0)
(0.000505387 -0.00713078 0)
(0.00234642 -0.00648216 0)
(0.00404954 -0.00580891 0)
(0.00560771 -0.00511811 0)
(0.00701535 -0.00441681 0)
(0.00826838 -0.00371195 0)
(0.00936422 -0.00301018 0)
(0.0103018 -0.00231784 0)
(0.0110814 -0.00164082 0)
(0.0117049 -0.000984489 0)
(0.0121752 -0.000353673 0)
(0.0124967 0.000247408 0)
(0.0126748 0.000815142 0)
(0.0127158 0.00134652 0)
(0.012627 0.00183908 0)
(0.0124165 0.0022909 0)
(0.012093 0.00270044 0)
(0.011666 0.00306651 0)
(0.0111451 0.00338808 0)
(0.0105406 0.00366416 0)
(0.00986321 0.00389363 0)
(0.00912397 0.00407509 0)
(0.00833431 0.00420665 0)
(0.00750611 0.00428577 0)
(0.00665174 0.00430918 0)
(0.00578416 0.00427273 0)
(0.004917 0.00417144 0)
(0.00406469 0.00399957 0)
(0.00324261 0.00375091 0)
(0.00246731 0.00341925 0)
(0.00175691 0.0029991 0)
(0.00113094 0.00248676 0)
(0.000609951 0.0018815 0)
(0.000224938 0.00118707 0)
(3.57761e-05 0.00041445 0)
(-7.00775e-06 -2.74405e-06 0)
(-6.13073e-05 0.000115267 0)
(-0.000191287 0.000315771 0)
(-0.000390464 0.00056849 0)
(-0.000656931 0.000850439 0)
(-0.000989103 0.00114378 0)
(-0.00138387 0.00143526 0)
(-0.00183727 0.00171559 0)
(-0.00234498 0.00197876 0)
(-0.00290252 0.0022214 0)
(-0.0035055 0.00244224 0)
(-0.00414978 0.00264162 0)
(-0.00483164 0.00282102 0)
(-0.00554782 0.00298277 0)
(-0.00629563 0.00312965 0)
(-0.00707297 0.00326475 0)
(-0.00787829 0.00339119 0)
(-0.00871066 0.00351199 0)
(-0.00956964 0.00363001 0)
(-0.0104553 0.0037478 0)
(-0.0113681 0.00386759 0)
(-0.0123089 0.00399124 0)
(-0.0132787 0.00412025 0)
(-0.0142791 0.00425574 0)
(-0.0153113 0.00439843 0)
(-0.0163771 0.00454873 0)
(-0.017478 0.00470668 0)
(-0.0186154 0.00487199 0)
(-0.0197909 0.00504408 0)
(-0.0210055 0.00522208 0)
(-0.0222602 0.00540484 0)
(-0.0235557 0.00559098 0)
(-0.0248922 0.00577885 0)
(-0.0262697 0.00596662 0)
(-0.0276877 0.00615223 0)
(-0.0291449 0.00633342 0)
(-0.03064 0.00650779 0)
(-0.0321707 0.00667276 0)
(-0.0337344 0.00682562 0)
(-0.0353276 0.00696353 0)
(-0.0369466 0.00708356 0)
(-0.0385867 0.00718272 0)
(-0.0402427 0.00725795 0)