/*--------------------------------*- C++ -*----------------------------------*\
| =========                 |                                                 |
| \\      /  F ield         | OpenFOAM: The Open Source CFD Toolbox           |
|  \\    /   O peration     | Version:  2112                                  |
|   \\  /    A nd           | Website:  www.openfoam.com                      |
|    \\/     M anipulation  |                                                 |
\*---------------------------------------------------------------------------*/
FoamFile
{
    version     2.0;
    format      ascii;
    arch        "LSB;label=32;scalar=64";
    class       volScalarField;
    location    "9";
    object      p;
}
// * * * * * * * * * * * * * * * * * * * * * * * * * * * * * * * * * * * * * //

dimensions      [0 2 -2 0 0 0 0];

internalField   nonuniform List<scalar> 
25600
(
2.19689e-14
3.05196e-14
3.41222e-14
3.61152e-14
3.76797e-14
3.89564e-14
4.01234e-14
4.11887e-14
4.21928e-14
4.316e-14
4.41209e-14
4.49679e-14
4.56498e-14
4.62514e-14
4.68594e-14
4.74389e-14
4.79756e-14
4.84588e-14
4.8886e-14
4.91718e-14
4.93747e-14
4.95802e-14
4.97772e-14
4.99072e-14
4.99568e-14
4.98907e-14
4.97502e-14
4.96838e-14
4.95844e-14
4.93154e-14
4.90089e-14
4.86761e-14
4.84294e-14
4.81651e-14
4.78415e-14
4.75571e-14
4.7262e-14
4.70159e-14
4.66989e-14
4.62896e-14
4.5967e-14
4.56048e-14
4.53069e-14
4.4993e-14
4.46143e-14
4.43373e-14
4.40367e-14
4.36966e-14
4.34392e-14
4.31355e-14
4.27937e-14
4.23101e-14
4.19288e-14
4.15521e-14
4.11567e-14
4.08511e-14
4.0396e-14
3.99445e-14
3.94916e-14
3.90266e-14
3.86457e-14
3.81172e-14
3.76289e-14
3.71565e-14
3.66814e-14
3.63317e-14
3.58606e-14
3.53402e-14
3.48052e-14
3.43429e-14
3.39306e-14
3.34772e-14
3.29828e-14
3.24887e-14
3.18991e-14
3.14437e-14
3.09181e-14
3.02119e-14
2.95874e-14
2.90406e-14
2.86431e-14
2.8153e-14
2.73837e-14
2.65863e-14
2.59178e-14
2.54297e-14
2.49993e-14
2.42288e-14
2.33538e-14
2.25908e-14
2.21678e-14
2.16365e-14
2.07195e-14
1.97772e-14
1.92582e-14
1.87137e-14
1.78504e-14
1.70484e-14
1.62821e-14
1.58157e-14
1.54205e-14
1.46422e-14
1.39272e-14
1.31491e-14
1.25531e-14
1.20715e-14
1.14907e-14
1.06917e-14
9.94057e-15
9.45416e-15
8.97147e-15
8.57986e-15
7.62141e-15
6.79387e-15
6.46807e-15
6.08656e-15
5.52213e-15
4.64742e-15
3.91853e-15
3.44011e-15
3.00413e-15
2.47554e-15
1.67545e-15
8.01814e-16
3.59914e-16
9.12187e-17
-3.31533e-16
-1.03771e-15
-1.74624e-15
-2.04177e-15
-2.30172e-15
-2.7383e-15
-3.38209e-15
-3.83487e-15
-4.03485e-15
-4.39359e-15
-4.7667e-15
-5.27701e-15
-5.75933e-15
-6.01898e-15
-6.30579e-15
-6.57871e-15
-6.98043e-15
-7.27001e-15
-7.45538e-15
-7.68973e-15
-7.78722e-15
-8.04864e-15
-8.34479e-15
-8.68212e-15
-8.9272e-15
-8.81287e-15
-8.99031e-15
-9.50692e-15
-9.81119e-15
-9.90713e-15
-9.91194e-15
-1.0109e-14
-1.05351e-14
-1.08274e-14
-1.09833e-14
-1.07865e-14
-1.09402e-14
-1.13009e-14
-1.12681e-14
-1.15018e-14
-1.14686e-14
-1.15474e-14
-1.18228e-14
-1.18754e-14
-1.19809e-14
-1.17879e-14
-1.1863e-14
-1.18985e-14
-1.18484e-14
-1.19646e-14
-1.19893e-14
-1.2248e-14
-1.20463e-14
-1.19812e-14
-1.22111e-14
-1.17758e-14
-1.17807e-14
-1.17734e-14
-1.16498e-14
-1.17486e-14
-1.12441e-14
-1.10908e-14
-1.10077e-14
-1.04988e-14
-1.05556e-14
-1.03215e-14
-1.01076e-14
-1.0224e-14
-9.76343e-15
-9.47747e-15
-9.20086e-15
-9.2118e-15
-9.26726e-15
-8.49818e-15
-8.23338e-15
-8.01632e-15
-8.12198e-15
-8.25233e-15
-7.4038e-15
-6.97437e-15
-7.03192e-15
-7.27428e-15
-7.08607e-15
-6.26176e-15
-5.67313e-15
-5.64757e-15
-5.91962e-15
-5.17272e-15
-4.43861e-15
-4.71618e-15
-4.12451e-15
-3.17552e-15
-2.7354e-15
-2.51957e-15
-2.72632e-15
-2.01166e-15
-9.17479e-16
-4.628e-16
-3.28381e-16
-5.89274e-16
1.82711e-16
1.02975e-15
1.4575e-15
1.9626e-15
2.02926e-15
2.72778e-15
3.42353e-15
3.9718e-15
4.75281e-15
4.97842e-15
5.50387e-15
6.15413e-15
6.7935e-15
7.47344e-15
7.57764e-15
8.28793e-15
8.93817e-15
9.48384e-15
1.04311e-14
1.0595e-14
1.07454e-14
1.12231e-14
1.21258e-14
1.30331e-14
1.31693e-14
1.37971e-14
1.45951e-14
1.52304e-14
1.60421e-14
1.61103e-14
1.67528e-14
1.74113e-14
1.79654e-14
1.88441e-14
1.90159e-14
1.95118e-14
2.0296e-14
2.08964e-14
2.15737e-14
2.17352e-14
2.24077e-14
2.33644e-14
2.42037e-14
2.49749e-14
2.53065e-14
2.59746e-14
2.673e-14
2.74527e-14
2.81829e-14
2.85865e-14
2.92306e-14
2.99685e-14
3.03502e-14
3.09856e-14
3.1437e-14
3.19742e-14
3.28142e-14
3.34298e-14
3.40744e-14
3.43136e-14
3.45878e-14
3.53671e-14
3.62812e-14
3.66976e-14
3.66784e-14
3.71133e-14
3.78562e-14
3.83946e-14
3.84112e-14
3.83255e-14
3.88575e-14
3.9246e-14
3.97242e-14
3.95937e-14
3.9295e-14
3.96313e-14
3.98569e-14
4.03195e-14
4.03487e-14
3.99081e-14
3.96062e-14
3.93173e-14
3.93861e-14
3.90371e-14
3.864e-14
3.82325e-14
3.74255e-14
3.71918e-14
3.66567e-14
3.57161e-14
3.50355e-14
3.39489e-14
3.27119e-14
2.97577e-14
3.09242e-14
3.31079e-14
3.5081e-14
3.67205e-14
3.8051e-14
3.92255e-14
4.03008e-14
4.13537e-14
4.23044e-14
4.32985e-14
4.42725e-14
4.5066e-14
4.57248e-14
4.63045e-14
4.69091e-14
4.74591e-14
4.8018e-14
4.85162e-14
4.89317e-14
4.9242e-14
4.94059e-14
4.95871e-14
4.98222e-14
4.98907e-14
4.99145e-14
4.99204e-14
4.98874e-14
4.97488e-14
4.95659e-14
4.93107e-14
4.90568e-14
4.87472e-14
4.84741e-14
4.81558e-14
4.78358e-14
4.75893e-14
4.72449e-14
4.70031e-14
4.6746e-14
4.63305e-14
4.59551e-14
4.56117e-14
4.52925e-14
4.49433e-14
4.46401e-14
4.43366e-14
4.40368e-14
4.36701e-14
4.34883e-14
4.31462e-14
4.27173e-14
4.23564e-14
4.19738e-14
4.16122e-14
4.12228e-14
4.08095e-14
4.03884e-14
3.99043e-14
3.95331e-14
3.90814e-14
3.86068e-14
3.81091e-14
3.76821e-14
3.71781e-14
3.66787e-14
3.63212e-14
3.58959e-14
3.53359e-14
3.48241e-14
3.43689e-14
3.39122e-14
3.34127e-14
3.29795e-14
3.2484e-14
3.19502e-14
3.14224e-14
3.08837e-14
3.02531e-14
2.95799e-14
2.90606e-14
2.86063e-14
2.80891e-14
2.7449e-14
2.67087e-14
2.59934e-14
2.54418e-14
2.48366e-14
2.41757e-14
2.35393e-14
2.27376e-14
2.21563e-14
2.1496e-14
2.06501e-14
1.99167e-14
1.92455e-14
1.85165e-14
1.77753e-14
1.70821e-14
1.64225e-14
1.58707e-14
1.51902e-14
1.45549e-14
1.39556e-14
1.32425e-14
1.25691e-14
1.1941e-14
1.14114e-14
1.08094e-14
9.99724e-15
9.36745e-15
8.93331e-15
8.45486e-15
7.6975e-15
6.99247e-15
6.45439e-15
5.9508e-15
5.46044e-15
4.78787e-15
4.00157e-15
3.40589e-15
2.96717e-15
2.39988e-15
1.716e-15
9.02156e-16
3.48374e-16
-6.7165e-17
-4.00215e-16
-1.06316e-15
-1.63138e-15
-2.01229e-15
-2.38093e-15
-2.79477e-15
-3.3075e-15
-3.77049e-15
-4.10721e-15
-4.41892e-15
-4.7459e-15
-5.23382e-15
-5.77833e-15
-6.06515e-15
-6.31547e-15
-6.55105e-15
-6.96345e-15
-7.26977e-15
-7.44503e-15
-7.68994e-15
-7.93602e-15
-8.23725e-15
-8.29219e-15
-8.46436e-15
-8.80619e-15
-8.95913e-15
-9.18881e-15
-9.46715e-15
-9.68199e-15
-9.78968e-15
-9.93736e-15
-1.01689e-14
-1.04541e-14
-1.07581e-14
-1.08965e-14
-1.08932e-14
-1.10339e-14
-1.12794e-14
-1.13229e-14
-1.14554e-14
-1.15914e-14
-1.17069e-14
-1.17125e-14
-1.18053e-14
-1.18738e-14
-1.19489e-14
-1.1953e-14
-1.20086e-14
-1.20389e-14
-1.18319e-14
-1.18831e-14
-1.2064e-14
-1.20667e-14
-1.22158e-14
-1.20678e-14
-1.18231e-14
-1.18719e-14
-1.18992e-14
-1.17743e-14
-1.15049e-14
-1.12831e-14
-1.1075e-14
-1.10025e-14
-1.0784e-14
-1.05327e-14
-1.02778e-14
-1.01717e-14
-1.00242e-14
-9.8431e-15
-9.60222e-15
-9.36929e-15
-9.05469e-15
-8.83622e-15
-8.6994e-15
-8.38727e-15
-8.17092e-15
-8.00087e-15
-7.83136e-15
-7.56047e-15
-7.31952e-15
-7.12389e-15
-6.95186e-15
-6.7188e-15
-6.48132e-15
-6.15174e-15
-5.79468e-15
-5.56537e-15
-5.14379e-15
-4.66297e-15
-4.35618e-15
-3.92014e-15
-3.53077e-15
-3.08712e-15
-2.54716e-15
-2.25145e-15
-1.7664e-15
-1.18706e-15
-8.11913e-16
-3.67031e-16
-2.00172e-16
3.15349e-16
9.07972e-16
1.35798e-15
1.8178e-15
2.10448e-15
2.68787e-15
3.34621e-15
4.03362e-15
4.68064e-15
5.16672e-15
5.61468e-15
5.98162e-15
6.61239e-15
7.34727e-15
7.79386e-15
8.39182e-15
8.90399e-15
9.45852e-15
1.02038e-14
1.05224e-14
1.09618e-14
1.1435e-14
1.20978e-14
1.2798e-14
1.31804e-14
1.38162e-14
1.47019e-14
1.52993e-14
1.58773e-14
1.60962e-14
1.68368e-14
1.75559e-14
1.79996e-14
1.87064e-14
1.90356e-14
1.95671e-14
2.02941e-14
2.09324e-14
2.14237e-14
2.18048e-14
2.2599e-14
2.33026e-14
2.4028e-14
2.48959e-14
2.53946e-14
2.61312e-14
2.66368e-14
2.7428e-14
2.81662e-14
2.85881e-14
2.92693e-14
2.97877e-14
3.04135e-14
3.1087e-14
3.14702e-14
3.20852e-14
3.26595e-14
3.33196e-14
3.40293e-14
3.42488e-14
3.48005e-14
3.5536e-14
3.61892e-14
3.65867e-14
3.67662e-14
3.73773e-14
3.78969e-14
3.80824e-14
3.8445e-14
3.8605e-14
3.88779e-14
3.93447e-14
3.94583e-14
3.96376e-14
3.96167e-14
3.96668e-14
3.99358e-14
4.01388e-14
4.02066e-14
3.98058e-14
3.97387e-14
3.96644e-14
3.94268e-14
3.9013e-14
3.86332e-14
3.82874e-14
3.7746e-14
3.72138e-14
3.66763e-14
3.61488e-14
3.54007e-14
3.45073e-14
3.36517e-14
3.22998e-14
3.42859e-14
3.51227e-14
3.61948e-14
3.73494e-14
3.85254e-14
3.95455e-14
4.05956e-14
4.16416e-14
4.25648e-14
4.35381e-14
4.44379e-14
4.52894e-14
4.58402e-14
4.64026e-14
4.69864e-14
4.75028e-14
4.81274e-14
4.86493e-14
4.90356e-14
4.93657e-14
4.95202e-14
4.96555e-14
4.98948e-14
4.98716e-14
4.99752e-14
5.00538e-14
4.99122e-14
4.97971e-14
4.95811e-14
4.93638e-14
4.90982e-14
4.88478e-14
4.85603e-14
4.81596e-14
4.78816e-14
4.761e-14
4.7235e-14
4.69761e-14
4.66682e-14
4.63624e-14
4.60146e-14
4.56406e-14
4.52775e-14
4.49022e-14
4.4669e-14
4.43351e-14
4.39778e-14
4.36222e-14
4.34953e-14
4.31605e-14
4.26992e-14
4.23531e-14
4.19814e-14
4.16381e-14
4.12433e-14
4.08583e-14
4.04185e-14
3.99749e-14
3.95512e-14
3.90293e-14
3.85819e-14
3.81338e-14
3.76838e-14
3.71512e-14
3.67009e-14
3.63425e-14
3.58315e-14
3.53407e-14
3.48243e-14
3.4372e-14
3.38949e-14
3.34106e-14
3.30461e-14
3.25284e-14
3.19585e-14
3.13549e-14
3.07989e-14
3.03706e-14
2.96754e-14
2.90444e-14
2.86087e-14
2.81318e-14
2.75545e-14
2.67664e-14
2.60167e-14
2.53616e-14
2.4757e-14
2.41733e-14
2.3619e-14
2.28324e-14
2.21278e-14
2.14308e-14
2.06397e-14
1.99922e-14
1.92272e-14
1.84401e-14
1.76953e-14
1.70927e-14
1.64533e-14
1.58612e-14
1.51028e-14
1.44845e-14
1.39165e-14
1.32219e-14
1.25415e-14
1.189e-14
1.13316e-14
1.07918e-14
1.00346e-14
9.34937e-15
8.89815e-15
8.31658e-15
7.74406e-15
7.20849e-15
6.40804e-15
5.85452e-15
5.45683e-15
4.81308e-15
4.06424e-15
3.33218e-15
2.89715e-15
2.31552e-15
1.74948e-15
1.03006e-15
4.61127e-16
-9.85739e-17
-5.85417e-16
-1.0644e-15
-1.58339e-15
-2.02154e-15
-2.40381e-15
-2.82417e-15
-3.2008e-15
-3.72447e-15
-4.09881e-15
-4.40259e-15
-4.76383e-15
-5.23509e-15
-5.77063e-15
-6.12915e-15
-6.27349e-15
-6.47854e-15
-7.02097e-15
-7.33543e-15
-7.46965e-15
-7.76928e-15
-7.99249e-15
-8.21071e-15
-8.34541e-15
-8.37628e-15
-8.68759e-15
-9.05028e-15
-9.37179e-15
-9.51141e-15
-9.62652e-15
-9.67494e-15
-9.94994e-15
-1.01256e-14
-1.03489e-14
-1.06915e-14
-1.0831e-14
-1.09861e-14
-1.10481e-14
-1.13182e-14
-1.14727e-14
-1.1489e-14
-1.15351e-14
-1.17556e-14
-1.16351e-14
-1.17209e-14
-1.19326e-14
-1.2006e-14
-1.19933e-14
-1.20765e-14
-1.21941e-14
-1.19643e-14
-1.18336e-14
-1.18306e-14
-1.20248e-14
-1.23325e-14
-1.21453e-14
-1.19361e-14
-1.19709e-14
-1.19349e-14
-1.17531e-14
-1.13778e-14
-1.14131e-14
-1.11826e-14
-1.09483e-14
-1.08152e-14
-1.04789e-14
-1.02068e-14
-1.01635e-14
-1.0081e-14
-9.9687e-15
-9.68713e-15
-9.43723e-15
-8.99306e-15
-8.69463e-15
-8.61555e-15
-8.3936e-15
-8.20274e-15
-7.92789e-15
-7.70158e-15
-7.5619e-15
-7.47076e-15
-7.26295e-15
-6.91254e-15
-6.57118e-15
-6.48731e-15
-6.37954e-15
-5.87088e-15
-5.4234e-15
-5.18847e-15
-4.6676e-15
-4.21954e-15
-3.97944e-15
-3.71305e-15
-3.17895e-15
-2.54391e-15
-1.98692e-15
-1.60993e-15
-1.28468e-15
-9.23135e-16
-4.54293e-16
-4.41148e-17
4.41741e-16
9.12621e-16
1.33656e-15
1.64447e-15
2.01132e-15
2.66236e-15
3.3471e-15
4.07685e-15
4.63344e-15
5.1548e-15
5.63724e-15
5.9781e-15
6.65995e-15
7.26589e-15
7.79036e-15
8.40642e-15
9.04501e-15
9.56182e-15
9.98017e-15
1.0364e-14
1.10156e-14
1.15899e-14
1.20996e-14
1.27278e-14
1.3345e-14
1.39092e-14
1.45822e-14
1.52017e-14
1.58094e-14
1.62477e-14
1.69172e-14
1.74535e-14
1.79861e-14
1.864e-14
1.92261e-14
1.96856e-14
2.0136e-14
2.07489e-14
2.13169e-14
2.19057e-14
2.27533e-14
2.33242e-14
2.39668e-14
2.48684e-14
2.53928e-14
2.61066e-14
2.67165e-14
2.74103e-14
2.80704e-14
2.84969e-14
2.93025e-14
2.97737e-14
3.04945e-14
3.11905e-14
3.14066e-14
3.21054e-14
3.26545e-14
3.32234e-14
3.39675e-14
3.4217e-14
3.4833e-14
3.57276e-14
3.61744e-14
3.66024e-14
3.68869e-14
3.73091e-14
3.77929e-14
3.81541e-14
3.85475e-14
3.86683e-14
3.8903e-14
3.93979e-14
3.94526e-14
3.96651e-14
3.97898e-14
3.97737e-14
4.00189e-14
3.9993e-14
3.99312e-14
3.9851e-14
3.9997e-14
3.99483e-14
3.95446e-14
3.91761e-14
3.8582e-14
3.83746e-14
3.81126e-14
3.74266e-14
3.70443e-14
3.6591e-14
3.58789e-14
3.5265e-14
3.47018e-14
3.43386e-14
3.614e-14
3.65627e-14
3.73468e-14
3.81764e-14
3.90965e-14
4.00055e-14
4.09039e-14
4.19702e-14
4.2917e-14
4.37966e-14
4.46333e-14
4.56378e-14
4.60909e-14
4.64266e-14
4.70245e-14
4.76093e-14
4.82814e-14
4.88188e-14
4.92078e-14
4.95594e-14
4.96918e-14
4.99057e-14
4.9913e-14
4.98593e-14
5.01236e-14
5.0158e-14
4.99687e-14
4.98315e-14
4.96744e-14
4.94088e-14
4.90901e-14
4.87669e-14
4.86581e-14
4.8427e-14
4.79695e-14
4.75355e-14
4.72446e-14
4.6931e-14
4.65686e-14
4.63357e-14
4.59689e-14
4.57532e-14
4.52803e-14
4.48661e-14
4.46416e-14
4.43232e-14
4.40839e-14
4.3688e-14
4.34609e-14
4.30654e-14
4.26516e-14
4.2401e-14
4.20451e-14
4.16596e-14
4.12337e-14
4.10356e-14
4.0426e-14
3.99419e-14
3.95357e-14
3.90552e-14
3.8538e-14
3.80927e-14
3.76597e-14
3.71604e-14
3.67741e-14
3.64364e-14
3.58185e-14
3.52857e-14
3.489e-14
3.43822e-14
3.39672e-14
3.33725e-14
3.30158e-14
3.26363e-14
3.19799e-14
3.14208e-14
3.0683e-14
3.04176e-14
2.97259e-14
2.89925e-14
2.87157e-14
2.80984e-14
2.75127e-14
2.67024e-14
2.6133e-14
2.54585e-14
2.48962e-14
2.41808e-14
2.35501e-14
2.27659e-14
2.21148e-14
2.13944e-14
2.06082e-14
1.99785e-14
1.93069e-14
1.83815e-14
1.76868e-14
1.70897e-14
1.63439e-14
1.5709e-14
1.51922e-14
1.44877e-14
1.38482e-14
1.32513e-14
1.26251e-14
1.19399e-14
1.12653e-14
1.0689e-14
1.00999e-14
9.48445e-15
8.78291e-15
8.18706e-15
7.81224e-15
7.25393e-15
6.42461e-15
5.90746e-15
5.31615e-15
4.7366e-15
4.18825e-15
3.45011e-15
2.80835e-15
2.11155e-15
1.68287e-15
1.15543e-15
4.76085e-16
-1.55508e-16
-4.88066e-16
-1.06686e-15
-1.53097e-15
-2.06201e-15
-2.50085e-15
-2.84785e-15
-3.11392e-15
-3.45661e-15
-4.13041e-15
-4.59875e-15
-4.96449e-15
-5.22087e-15
-5.68074e-15
-6.16489e-15
-6.35032e-15
-6.48168e-15
-6.85064e-15
-7.43222e-15
-7.5424e-15
-7.81869e-15
-7.98609e-15
-8.23409e-15
-8.27855e-15
-8.49068e-15
-8.82898e-15
-9.03988e-15
-9.18523e-15
-9.45358e-15
-9.64954e-15
-9.60035e-15
-9.96508e-15
-1.01986e-14
-1.04239e-14
-1.04854e-14
-1.07896e-14
-1.11059e-14
-1.11426e-14
-1.13201e-14
-1.14008e-14
-1.15326e-14
-1.15252e-14
-1.17938e-14
-1.1668e-14
-1.17527e-14
-1.20629e-14
-1.18488e-14
-1.21017e-14
-1.21872e-14
-1.21105e-14
-1.20378e-14
-1.18846e-14
-1.17649e-14
-1.20034e-14
-1.24067e-14
-1.22238e-14
-1.19023e-14
-1.18692e-14
-1.1851e-14
-1.18558e-14
-1.16066e-14
-1.15141e-14
-1.12299e-14
-1.09691e-14
-1.06809e-14
-1.03271e-14
-1.01773e-14
-1.02888e-14
-1.00827e-14
-9.8642e-15
-9.74799e-15
-9.35302e-15
-9.06609e-15
-8.81624e-15
-8.5939e-15
-8.22764e-15
-8.22046e-15
-7.9884e-15
-7.82897e-15
-7.53009e-15
-7.35362e-15
-7.32647e-15
-7.02264e-15
-6.64193e-15
-6.30701e-15
-6.19589e-15
-5.91197e-15
-5.47915e-15
-5.25772e-15
-4.7995e-15
-4.28047e-15
-3.88866e-15
-3.70621e-15
-3.11195e-15
-2.57969e-15
-2.03368e-15
-1.60716e-15
-1.23797e-15
-9.4305e-16
-4.2632e-16
-9.54059e-17
3.3277e-16
9.35708e-16
1.3579e-15
1.78782e-15
2.12047e-15
2.6423e-15
3.21491e-15
3.92279e-15
4.37642e-15
5.04555e-15
5.77959e-15
6.09593e-15
6.60595e-15
7.27548e-15
7.9384e-15
8.36455e-15
8.93768e-15
9.49635e-15
9.95239e-15
1.05446e-14
1.10262e-14
1.14731e-14
1.20605e-14
1.27649e-14
1.3424e-14
1.38607e-14
1.46052e-14
1.5035e-14
1.56584e-14
1.63083e-14
1.6903e-14
1.74066e-14
1.78651e-14
1.86494e-14
1.93053e-14
1.95648e-14
2.00612e-14
2.09091e-14
2.14898e-14
2.18926e-14
2.25696e-14
2.33255e-14
2.40617e-14
2.46973e-14
2.53806e-14
2.61618e-14
2.68759e-14
2.74435e-14
2.79233e-14
2.861e-14
2.93232e-14
2.96944e-14
3.04403e-14
3.10549e-14
3.15052e-14
3.2055e-14
3.26351e-14
3.32542e-14
3.38672e-14
3.43506e-14
3.48967e-14
3.5506e-14
3.61195e-14
3.66897e-14
3.71285e-14
3.73664e-14
3.76349e-14
3.80844e-14
3.86948e-14
3.89243e-14
3.90191e-14
3.93077e-14
3.94614e-14
3.96625e-14
3.9896e-14
3.98348e-14
3.99671e-14
4.01222e-14
3.9973e-14
4.01348e-14
4.0147e-14
3.9878e-14
3.96583e-14
3.93518e-14
3.875e-14
3.87052e-14
3.83357e-14
3.77985e-14
3.74485e-14
3.70133e-14
3.65904e-14
3.62166e-14
3.58529e-14
3.59431e-14
3.75212e-14
3.7734e-14
3.83381e-14
3.90336e-14
3.97034e-14
4.04443e-14
4.1382e-14
4.23714e-14
4.32307e-14
4.41887e-14
4.49261e-14
4.58988e-14
4.64816e-14
4.67076e-14
4.704e-14
4.77842e-14
4.8475e-14
4.90641e-14
4.93415e-14
4.96299e-14
4.97088e-14
4.99623e-14
5.01268e-14
5.01312e-14
5.02132e-14
5.023e-14
4.99535e-14
4.9918e-14
4.97591e-14
4.95885e-14
4.92043e-14
4.87633e-14
4.85473e-14
4.83887e-14
4.80629e-14
4.74173e-14
4.73039e-14
4.68902e-14
4.65113e-14
4.62494e-14
4.60039e-14
4.56971e-14
4.52714e-14
4.49376e-14
4.46076e-14
4.42791e-14
4.41426e-14
4.36377e-14
4.33537e-14
4.29968e-14
4.25476e-14
4.24862e-14
4.21976e-14
4.1655e-14
4.13197e-14
4.1136e-14
4.05019e-14
3.99203e-14
3.96289e-14
3.91396e-14
3.84959e-14
3.8098e-14
3.75787e-14
3.70314e-14
3.67263e-14
3.6334e-14
3.58194e-14
3.53145e-14
3.49769e-14
3.44277e-14
3.39469e-14
3.34972e-14
3.30847e-14
3.25471e-14
3.20569e-14
3.15528e-14
3.0797e-14
3.00609e-14
2.971e-14
2.92037e-14
2.86224e-14
2.8038e-14
2.73322e-14
2.68525e-14
2.62861e-14
2.56139e-14
2.49429e-14
2.43789e-14
2.34714e-14
2.25216e-14
2.19819e-14
2.13724e-14
2.07297e-14
2.00045e-14
1.9309e-14
1.84357e-14
1.7606e-14
1.69938e-14
1.63382e-14
1.56397e-14
1.51158e-14
1.45707e-14
1.38154e-14
1.32568e-14
1.24915e-14
1.20137e-14
1.13502e-14
1.05739e-14
1.00813e-14
9.48369e-15
8.78311e-15
8.2305e-15
7.64835e-15
7.22105e-15
6.58514e-15
5.96758e-15
5.13158e-15
4.67051e-15
4.10283e-15
3.45994e-15
2.82404e-15
2.09178e-15
1.84523e-15
1.07846e-15
2.9439e-16
-7.0575e-17
-2.75848e-16
-9.20168e-16
-1.45831e-15
-2.11087e-15
-2.51606e-15
-2.81614e-15
-3.07918e-15
-3.57174e-15
-4.19922e-15
-4.63464e-15
-4.87285e-15
-5.22563e-15
-5.63413e-15
-6.17979e-15
-6.39137e-15
-6.58895e-15
-6.82502e-15
-7.27862e-15
-7.53548e-15
-7.78137e-15
-7.98573e-15
-8.2411e-15
-8.3889e-15
-8.69617e-15
-8.88278e-15
-9.1323e-15
-8.98082e-15
-9.28626e-15
-9.77083e-15
-9.92983e-15
-1.01474e-14
-9.98131e-15
-1.01957e-14
-1.04919e-14
-1.07505e-14
-1.10695e-14
-1.1053e-14
-1.11902e-14
-1.13935e-14
-1.14662e-14
-1.15805e-14
-1.18598e-14
-1.1793e-14
-1.18664e-14
-1.19592e-14
-1.20014e-14
-1.21102e-14
-1.21226e-14
-1.20019e-14
-1.19893e-14
-1.19856e-14
-1.2041e-14
-1.20791e-14
-1.23168e-14
-1.22058e-14
-1.18694e-14
-1.19064e-14
-1.20327e-14
-1.19563e-14
-1.18104e-14
-1.15784e-14
-1.12857e-14
-1.08411e-14
-1.05096e-14
-1.03547e-14
-1.02843e-14
-1.0199e-14
-1.00492e-14
-9.76746e-15
-9.67515e-15
-9.23227e-15
-9.01122e-15
-8.89106e-15
-8.58228e-15
-8.24523e-15
-8.2748e-15
-7.99519e-15
-7.84694e-15
-7.56686e-15
-7.32168e-15
-7.27629e-15
-6.97729e-15
-6.57414e-15
-6.19608e-15
-6.18813e-15
-5.85134e-15
-5.56879e-15
-5.24678e-15
-4.75569e-15
-4.40697e-15
-3.96728e-15
-3.39534e-15
-3.13949e-15
-2.57412e-15
-2.14371e-15
-1.7622e-15
-1.26134e-15
-9.57428e-16
-4.67484e-16
-6.97295e-17
3.14123e-16
8.21611e-16
1.52885e-15
1.79068e-15
1.96215e-15
2.51305e-15
3.25254e-15
3.91088e-15
4.32406e-15
5.02699e-15
5.89961e-15
6.19767e-15
6.55631e-15
7.17489e-15
7.97921e-15
8.44026e-15
8.78365e-15
9.46252e-15
1.01202e-14
1.06849e-14
1.11065e-14
1.16245e-14
1.21319e-14
1.26537e-14
1.33116e-14
1.38986e-14
1.44602e-14
1.50508e-14
1.56962e-14
1.62589e-14
1.67341e-14
1.72895e-14
1.77849e-14
1.8449e-14
1.91383e-14
1.96334e-14
2.0239e-14
2.09833e-14
2.15605e-14
2.1882e-14
2.24118e-14
2.32634e-14
2.39884e-14
2.45789e-14
2.54154e-14
2.62446e-14
2.69675e-14
2.74142e-14
2.80318e-14
2.88882e-14
2.94174e-14
2.98778e-14
3.04484e-14
3.08656e-14
3.13636e-14
3.19643e-14
3.26902e-14
3.33761e-14
3.38279e-14
3.44626e-14
3.50386e-14
3.54198e-14
3.58334e-14
3.64684e-14
3.71622e-14
3.7437e-14
3.77171e-14
3.81411e-14
3.87074e-14
3.91128e-14
3.9156e-14
3.91855e-14
3.95677e-14
3.9797e-14
3.98877e-14
3.97714e-14
4.00444e-14
4.03415e-14
4.01836e-14
4.02791e-14
4.01974e-14
3.99263e-14
3.98427e-14
3.94215e-14
3.90966e-14
3.89092e-14
3.86915e-14
3.84631e-14
3.77808e-14
3.74721e-14
3.73527e-14
3.70192e-14
3.71509e-14
3.71937e-14
3.85225e-14
3.8643e-14
3.92045e-14
3.97564e-14
4.04514e-14
4.10218e-14
4.17115e-14
4.27948e-14
4.36518e-14
4.45779e-14
4.53726e-14
4.62375e-14
4.67217e-14
4.71093e-14
4.74293e-14
4.80173e-14
4.86664e-14
4.91291e-14
4.9377e-14
4.97958e-14
4.98369e-14
5.00207e-14
5.01268e-14
5.03934e-14
5.05072e-14
5.02653e-14
5.02748e-14
4.99048e-14
4.98503e-14
4.95278e-14
4.92412e-14
4.89434e-14
4.86377e-14
4.84417e-14
4.81355e-14
4.75588e-14
4.71789e-14
4.68434e-14
4.6429e-14
4.62983e-14
4.59028e-14
4.57694e-14
4.5482e-14
4.49562e-14
4.45727e-14
4.418e-14
4.39625e-14
4.3587e-14
4.33581e-14
4.293e-14
4.26086e-14
4.23672e-14
4.19833e-14
4.17255e-14
4.15033e-14
4.11602e-14
4.06178e-14
3.99126e-14
3.96692e-14
3.92741e-14
3.86216e-14
3.80682e-14
3.74592e-14
3.69856e-14
3.67328e-14
3.62019e-14
3.59051e-14
3.5338e-14
3.48825e-14
3.44851e-14
3.40629e-14
3.34142e-14
3.29638e-14
3.24819e-14
3.19692e-14
3.16129e-14
3.07794e-14
2.99795e-14
2.97363e-14
2.90704e-14
2.85706e-14
2.8037e-14
2.72444e-14
2.686e-14
2.64323e-14
2.57146e-14
2.49141e-14
2.42095e-14
2.32709e-14
2.25156e-14
2.20438e-14
2.14643e-14
2.08773e-14
2.01334e-14
1.91671e-14
1.81952e-14
1.77644e-14
1.70095e-14
1.62482e-14
1.54757e-14
1.50539e-14
1.44798e-14
1.39649e-14
1.32307e-14
1.23409e-14
1.1892e-14
1.13058e-14
1.06864e-14
1.007e-14
9.45418e-15
8.74398e-15
8.11616e-15
7.59496e-15
7.1102e-15
6.53915e-15
5.9349e-15
5.20353e-15
4.65016e-15
4.04817e-15
3.38326e-15
2.61461e-15
2.10923e-15
1.87976e-15
1.18592e-15
3.93517e-16
-4.34637e-18
-2.27493e-16
-8.35599e-16
-1.51282e-15
-2.29507e-15
-2.58769e-15
-2.70513e-15
-3.32033e-15
-3.61765e-15
-4.15478e-15
-4.64997e-15
-4.8868e-15
-5.08705e-15
-5.65236e-15
-6.29187e-15
-6.34531e-15
-6.61184e-15
-6.99833e-15
-7.41189e-15
-7.51598e-15
-7.72532e-15
-8.01349e-15
-8.29191e-15
-8.48387e-15
-8.8961e-15
-8.92148e-15
-9.20693e-15
-9.25593e-15
-9.49321e-15
-9.83904e-15
-1.00639e-14
-1.01001e-14
-1.00066e-14
-1.01819e-14
-1.0423e-14
-1.06696e-14
-1.09854e-14
-1.09324e-14
-1.11191e-14
-1.15269e-14
-1.15066e-14
-1.16737e-14
-1.18841e-14
-1.17642e-14
-1.18341e-14
-1.20689e-14
-1.20957e-14
-1.21141e-14
-1.19866e-14
-1.20152e-14
-1.21042e-14
-1.20484e-14
-1.20723e-14
-1.21224e-14
-1.22805e-14
-1.23374e-14
-1.21315e-14
-1.20536e-14
-1.20757e-14
-1.178e-14
-1.18603e-14
-1.16097e-14
-1.13831e-14
-1.07456e-14
-1.02787e-14
-1.03017e-14
-1.01007e-14
-1.00444e-14
-1.01225e-14
-9.89501e-15
-9.5435e-15
-9.27954e-15
-9.07544e-15
-8.89514e-15
-8.59198e-15
-8.4272e-15
-8.20007e-15
-8.02622e-15
-7.87732e-15
-7.57727e-15
-7.2513e-15
-7.20616e-15
-7.02206e-15
-6.57723e-15
-6.21592e-15
-5.99199e-15
-5.72554e-15
-5.54722e-15
-5.29566e-15
-4.82136e-15
-4.39668e-15
-3.97324e-15
-3.44541e-15
-2.92633e-15
-2.46862e-15
-2.12471e-15
-1.70399e-15
-1.291e-15
-1.08668e-15
-6.56644e-16
-7.35284e-17
3.79031e-16
8.16405e-16
1.29012e-15
1.61967e-15
1.75391e-15
2.54887e-15
3.21793e-15
3.74653e-15
4.4424e-15
5.07104e-15
5.75842e-15
6.27265e-15
6.54053e-15
7.01225e-15
7.77215e-15
8.55243e-15
8.98883e-15
9.47759e-15
9.84398e-15
1.06158e-14
1.12533e-14
1.17277e-14
1.23452e-14
1.28846e-14
1.32081e-14
1.38209e-14
1.42479e-14
1.49242e-14
1.5614e-14
1.63368e-14
1.66712e-14
1.72256e-14
1.78702e-14
1.84489e-14
1.9155e-14
1.96749e-14
2.032e-14
2.09493e-14
2.14322e-14
2.18093e-14
2.24763e-14
2.32786e-14
2.39824e-14
2.467e-14
2.53956e-14
2.6326e-14
2.68696e-14
2.73837e-14
2.82114e-14
2.88164e-14
2.93403e-14
2.99771e-14
3.04201e-14
3.07415e-14
3.1221e-14
3.21075e-14
3.29135e-14
3.34684e-14
3.39936e-14
3.44099e-14
3.50959e-14
3.54852e-14
3.5831e-14
3.64587e-14
3.71291e-14
3.7516e-14
3.78526e-14
3.81594e-14
3.85963e-14
3.89791e-14
3.92678e-14
3.94257e-14
3.95654e-14
3.98008e-14
3.98651e-14
3.99312e-14
4.01463e-14
4.03538e-14
4.01571e-14
4.03072e-14
4.04047e-14
4.02491e-14
4.0175e-14
3.96145e-14
3.94962e-14
3.93071e-14
3.90145e-14
3.88508e-14
3.836e-14
3.8051e-14
3.82421e-14
3.80083e-14
3.80771e-14
3.84067e-14
3.95192e-14
3.97278e-14
3.98853e-14
4.04216e-14
4.10339e-14
4.1595e-14
4.20911e-14
4.31231e-14
4.40564e-14
4.49333e-14
4.55891e-14
4.64495e-14
4.72067e-14
4.76772e-14
4.77726e-14
4.85184e-14
4.87559e-14
4.91351e-14
4.94364e-14
4.98954e-14
5.00473e-14
5.01061e-14
5.02393e-14
5.05434e-14
5.04857e-14
5.03912e-14
5.05127e-14
5.01467e-14
4.99305e-14
4.97028e-14
4.92706e-14
4.91252e-14
4.87101e-14
4.83304e-14
4.81561e-14
4.76302e-14
4.72322e-14
4.6968e-14
4.65244e-14
4.62938e-14
4.59126e-14
4.56152e-14
4.53349e-14
4.48915e-14
4.4606e-14
4.42146e-14
4.37702e-14
4.35957e-14
4.32724e-14
4.26879e-14
4.24795e-14
4.23979e-14
4.21556e-14
4.20002e-14
4.14578e-14
4.08525e-14
4.05117e-14
4.00654e-14
3.95468e-14
3.92547e-14
3.8807e-14
3.81445e-14
3.76432e-14
3.71062e-14
3.67258e-14
3.60038e-14
3.57063e-14
3.52764e-14
3.49773e-14
3.47779e-14
3.42449e-14
3.33637e-14
3.26537e-14
3.24232e-14
3.1858e-14
3.14775e-14
3.07211e-14
3.01118e-14
2.97391e-14
2.901e-14
2.84904e-14
2.79349e-14
2.74326e-14
2.68276e-14
2.64416e-14
2.56803e-14
2.48401e-14
2.4102e-14
2.30422e-14
2.2553e-14
2.21603e-14
2.1629e-14
2.08294e-14
2.00654e-14
1.90555e-14
1.81473e-14
1.778e-14
1.71978e-14
1.62895e-14
1.55941e-14
1.4959e-14
1.451e-14
1.3838e-14
1.31631e-14
1.24994e-14
1.19918e-14
1.12906e-14
1.05021e-14
1.00569e-14
9.45599e-15
8.5743e-15
8.219e-15
7.58091e-15
7.03217e-15
6.5061e-15
5.93202e-15
5.09044e-15
4.57815e-15
3.94844e-15
3.38293e-15
2.60389e-15
1.95577e-15
1.62233e-15
1.07589e-15
6.95831e-16
1.02841e-16
-3.74845e-16
-9.35232e-16
-1.41023e-15
-2.16184e-15
-2.469e-15
-2.68624e-15
-3.12596e-15
-3.68455e-15
-4.30987e-15
-4.65971e-15
-4.83455e-15
-5.16751e-15
-5.61317e-15
-6.22791e-15
-6.54049e-15
-6.57839e-15
-7.03361e-15
-7.4193e-15
-7.74625e-15
-7.76376e-15
-8.07807e-15
-8.25009e-15
-8.51902e-15
-8.99878e-15
-9.20714e-15
-9.46456e-15
-9.55832e-15
-9.7717e-15
-9.92663e-15
-1.01649e-14
-1.01807e-14
-9.97004e-15
-1.01578e-14
-1.04958e-14
-1.06142e-14
-1.09798e-14
-1.07624e-14
-1.12474e-14
-1.1558e-14
-1.15578e-14
-1.14926e-14
-1.184e-14
-1.19581e-14
-1.1914e-14
-1.20219e-14
-1.20782e-14
-1.20546e-14
-1.21164e-14
-1.19444e-14
-1.21302e-14
-1.20095e-14
-1.20762e-14
-1.23377e-14
-1.22866e-14
-1.22446e-14
-1.23702e-14
-1.22138e-14
-1.20996e-14
-1.16747e-14
-1.17959e-14
-1.15996e-14
-1.11573e-14
-1.06998e-14
-1.01745e-14
-1.04032e-14
-9.85851e-15
-9.91507e-15
-1.01131e-14
-9.80827e-15
-9.57741e-15
-9.48439e-15
-9.08473e-15
-8.93353e-15
-8.73461e-15
-8.33292e-15
-8.06706e-15
-7.87835e-15
-7.80733e-15
-7.67915e-15
-7.27238e-15
-7.15289e-15
-7.04036e-15
-6.56859e-15
-6.14785e-15
-5.85901e-15
-5.72246e-15
-5.44016e-15
-5.36321e-15
-4.89773e-15
-4.40929e-15
-3.82857e-15
-3.29295e-15
-2.87077e-15
-2.33626e-15
-2.03942e-15
-1.60985e-15
-1.09172e-15
-1.20225e-15
-1.1222e-15
-2.363e-17
4.14136e-16
7.21625e-16
1.1731e-15
1.40283e-15
1.66684e-15
2.73727e-15
3.08711e-15
3.72332e-15
4.46991e-15
5.08763e-15
5.73621e-15
6.23083e-15
6.38895e-15
6.84179e-15
7.70447e-15
8.65537e-15
9.16288e-15
9.40803e-15
9.7239e-15
1.05309e-14
1.11896e-14
1.17591e-14
1.24312e-14
1.27283e-14
1.33938e-14
1.36251e-14
1.4293e-14
1.48858e-14
1.5628e-14
1.6164e-14
1.66351e-14
1.74316e-14
1.80444e-14
1.84805e-14
1.91361e-14
1.94846e-14
2.07182e-14
2.10146e-14
2.1238e-14
2.17734e-14
2.23289e-14
2.32897e-14
2.38584e-14
2.4664e-14
2.54056e-14
2.63533e-14
2.68355e-14
2.74773e-14
2.80894e-14
2.89108e-14
2.94511e-14
2.97159e-14
3.03838e-14
3.06946e-14
3.12447e-14
3.22233e-14
3.30233e-14
3.3608e-14
3.40488e-14
3.45421e-14
3.52742e-14
3.54449e-14
3.57967e-14
3.62795e-14
3.70603e-14
3.76152e-14
3.7996e-14
3.83136e-14
3.84443e-14
3.89961e-14
3.93475e-14
3.95397e-14
3.96001e-14
3.983e-14
4.00077e-14
4.04544e-14
4.03506e-14
4.05973e-14
4.04752e-14
4.01936e-14
4.01866e-14
4.04052e-14
4.05223e-14
3.99427e-14
3.9832e-14
3.9777e-14
3.92321e-14
3.91023e-14
3.89751e-14
3.86659e-14
3.90232e-14
3.87841e-14
3.88458e-14
3.90921e-14
4.02401e-14
4.03512e-14
4.0726e-14
4.11908e-14
4.16994e-14
4.23949e-14
4.25344e-14
4.34555e-14
4.44156e-14
4.51381e-14
4.57498e-14
4.66886e-14
4.7662e-14
4.80088e-14
4.82985e-14
4.8893e-14
4.87728e-14
4.928e-14
4.97237e-14
5.01199e-14
5.03889e-14
5.05013e-14
5.05175e-14
5.0644e-14
5.05413e-14
5.06593e-14
5.05723e-14
5.05398e-14
4.98946e-14
4.99027e-14
4.98517e-14
4.94394e-14
4.8838e-14
4.81651e-14
4.8212e-14
4.76167e-14
4.72562e-14
4.69274e-14
4.66279e-14
4.64786e-14
4.59002e-14
4.52791e-14
4.54458e-14
4.4909e-14
4.43363e-14
4.41573e-14
4.36948e-14
4.34642e-14
4.31755e-14
4.27675e-14
4.24611e-14
4.26872e-14
4.22904e-14
4.2062e-14
4.146e-14
4.08683e-14
4.02732e-14
3.98837e-14
3.96595e-14
3.9305e-14
3.89583e-14
3.8328e-14
3.7761e-14
3.7027e-14
3.65895e-14
3.60874e-14
3.5521e-14
3.52361e-14
3.50433e-14
3.46746e-14
3.41075e-14
3.34253e-14
3.27451e-14
3.23477e-14
3.18379e-14
3.13981e-14
3.05433e-14
3.00587e-14
2.96149e-14
2.90975e-14
2.84676e-14
2.79195e-14
2.75041e-14
2.67219e-14
2.6538e-14
2.54702e-14
2.47039e-14
2.41856e-14
2.32318e-14
2.2785e-14
2.22028e-14
2.16189e-14
2.07574e-14
1.97738e-14
1.9263e-14
1.83385e-14
1.76206e-14
1.70983e-14
1.61621e-14
1.57127e-14
1.50289e-14
1.4499e-14
1.40242e-14
1.30201e-14
1.23476e-14
1.19293e-14
1.12672e-14
1.06305e-14
9.90561e-15
9.125e-15
8.79632e-15
8.35749e-15
7.58094e-15
6.94383e-15
6.24472e-15
5.88912e-15
5.06349e-15
4.45193e-15
3.87416e-15
3.43428e-15
2.70891e-15
1.93777e-15
1.51028e-15
1.16522e-15
6.6788e-16
1.7457e-16
-2.73483e-16
-8.28324e-16
-1.40085e-15
-2.23005e-15
-2.4069e-15
-2.68217e-15
-3.12371e-15
-3.62417e-15
-4.13151e-15
-4.59136e-15
-4.71215e-15
-5.04306e-15
-5.91949e-15
-6.41873e-15
-6.65675e-15
-6.66476e-15
-7.02454e-15
-7.42261e-15
-7.69545e-15
-7.69486e-15
-7.83366e-15
-8.1757e-15
-8.80866e-15