/*--------------------------------*- C++ -*----------------------------------*\
| =========                 |                                                 |
| \\      /  F ield         | OpenFOAM: The Open Source CFD Toolbox           |
|  \\    /   O peration     | Version:  2112                                  |
|   \\  /    A nd           | Website:  www.openfoam.com                      |
|    \\/     M anipulation  |                                                 |
\*---------------------------------------------------------------------------*/
FoamFile
{
    version     2.0;
    format      ascii;
    arch        "LSB;label=32;scalar=64";
    class       surfaceScalarField;
    location    "9";
    object      phi;
}
// * * * * * * * * * * * * * * * * * * * * * * * * * * * * * * * * * * * * * //

dimensions      [0 3 -1 0 0 0 0];

oriented        oriented;

internalField   nonuniform List<scalar> 
50800
(
4.694e-05
-3.41008e-18
4.694e-05
-1.23614e-18
4.694e-05
-4.5864e-19
4.694e-05
-2.45027e-19
4.694e-05
-1.16322e-19
4.694e-05
-6.8547e-20
4.694e-05
-4.6662e-20
4.694e-05
-2.53186e-20
4.694e-05
-1.38858e-20
4.694e-05
-1.4737e-20
4.694e-05
-1.51478e-20
4.694e-05
-3.17497e-20
4.694e-05
-1.90653e-21
4.694e-05
1.25782e-21
4.694e-05
-2.58206e-20
4.694e-05
5.30509e-21
4.694e-05
-3.50513e-21
4.694e-05
-2.43061e-20
4.694e-05
-4.07631e-20
4.694e-05
-4.30442e-20
4.694e-05
-1.30435e-20
4.694e-05
-8.42542e-21
4.694e-05
-3.99794e-20
4.694e-05
-3.57975e-20
4.694e-05
-4.93446e-20
4.694e-05
-3.46449e-20
4.694e-05
2.10315e-20
4.694e-05
-1.99093e-20
4.694e-05
-4.6154e-20
4.694e-05
-2.07757e-20
4.694e-05
8.49639e-21
4.694e-05
5.04335e-20
4.694e-05
3.05139e-20
4.694e-05
8.90043e-21
4.694e-05
7.55756e-21
4.694e-05
4.70332e-21
4.694e-05
3.65501e-20
4.694e-05
-6.86878e-21
4.694e-05
-1.77593e-20
4.694e-05
5.05604e-20
4.694e-05
5.9449e-21
4.694e-05
1.23478e-20
4.694e-05
-9.84886e-21
4.694e-05
-1.24411e-20
4.694e-05
5.34214e-20
4.694e-05
9.02076e-21
4.694e-05
1.95005e-20
4.694e-05
1.59094e-20
4.694e-05
-8.9163e-21
4.694e-05
-1.40777e-20
4.694e-05
-4.76184e-20
4.694e-05
3.32302e-20
4.694e-05
-5.89922e-21
4.694e-05
-3.57495e-21
4.694e-05
5.11407e-20
4.694e-05
-3.55276e-20
4.694e-05
7.46197e-21
4.694e-05
1.328e-20
4.694e-05
1.1247e-20
4.694e-05
5.00409e-20
4.694e-05
-4.19376e-20
4.694e-05
3.48323e-20
4.694e-05
9.832e-21
4.694e-05
1.30502e-20
4.694e-05
4.44357e-20
4.694e-05
-3.69027e-20
4.694e-05
-1.62668e-20
4.694e-05
-2.78548e-21
4.694e-05
2.07521e-20
4.694e-05
1.6388e-20
4.694e-05
-2.14643e-20
4.694e-05
-1.10126e-21
4.694e-05
-2.02831e-20
4.694e-05
-1.83515e-20
4.694e-05
6.64583e-20
4.694e-05
-4.05885e-20
4.694e-05
-8.21904e-20
4.694e-05
3.60547e-20
4.694e-05
1.49448e-20
4.694e-05
5.58269e-20
4.694e-05
-4.4939e-20
4.694e-05
-1.01111e-19
4.694e-05
2.84717e-20
4.694e-05
5.19021e-20
4.694e-05
6.857e-20
4.694e-05
-2.46937e-21
4.694e-05
-8.57213e-20
4.694e-05
-4.71921e-20
4.694e-05
4.86331e-20
4.694e-05
9.24833e-20
4.694e-05
-2.75868e-20
4.694e-05
-1.01299e-19
4.694e-05
1.54865e-20
4.694e-05
8.81566e-20
4.694e-05
1.88849e-21
4.694e-05
-9.51893e-20
4.694e-05
-1.53213e-20
4.694e-05
8.70285e-23
4.694e-05
8.47898e-20
4.694e-05
2.72237e-20
4.694e-05
-1.48188e-19
4.694e-05
-1.38886e-21
4.694e-05
-5.27937e-20
4.694e-05
4.17855e-20
4.694e-05
2.87893e-20
4.694e-05
-3.26344e-20
4.694e-05
-7.58481e-20
4.694e-05
-4.33343e-21
4.694e-05
6.44521e-20
4.694e-05
7.49449e-21
4.694e-05
3.78429e-20
4.694e-05
-1.76771e-19
4.694e-05
3.87284e-20
4.694e-05
1.50697e-19
4.694e-05
1.63938e-20
4.694e-05
-4.87323e-20
4.694e-05
-1.20653e-19
4.694e-05
2.80402e-20
4.694e-05
1.09155e-19
4.694e-05
2.84908e-20
4.694e-05
-3.8139e-20
4.694e-05
-1.13198e-19
4.694e-05
1.29614e-20
4.694e-05
1.77894e-19
4.694e-05
6.71898e-20
4.694e-05
-6.35074e-20
4.694e-05
-1.49372e-19
4.694e-05
-4.53617e-22
4.694e-05
1.47185e-19
4.694e-05
2.03963e-20
4.694e-05
-7.46249e-20
4.694e-05
-9.40602e-20
4.694e-05
5.0287e-20
4.694e-05
1.09602e-19
4.694e-05
-3.42701e-21
4.694e-05
-9.53893e-21
4.694e-05
-6.70422e-20
4.694e-05
-1.39315e-21
4.694e-05
9.70307e-20
4.694e-05
3.54355e-20
4.694e-05
-4.10674e-21
4.694e-05
-5.86504e-20
4.694e-05
2.15656e-20
4.694e-05
6.06983e-20
4.694e-05
-9.41926e-21
4.694e-05
1.27651e-20
4.694e-05
-6.54039e-20
4.694e-05
-6.67967e-21
4.694e-05
5.63285e-21
4.694e-05
3.80688e-20
4.694e-05
1.02999e-19
4.694e-05
-1.17097e-19
4.694e-05
-1.05881e-19
4.694e-05
6.79386e-20
4.694e-05
8.07231e-20
4.694e-05
6.4956e-20
4.694e-05
-7.08498e-20
4.694e-05
-8.47145e-20
4.694e-05
3.9295e-20
4.694e-05
4.65552e-20
4.694e-05
1.15264e-19
4.694e-05
-1.1484e-19
4.694e-05
-5.33531e-20
4.694e-05
1.16335e-19
4.694e-05
-9.19174e-20
4.694e-05
6.48769e-20
4.694e-05
-4.86515e-20
4.694e-05
-1.12332e-19
4.694e-05
7.67246e-20
4.694e-05
1.6925e-20
4.694e-05
3.70709e-20
4.694e-05
-1.19311e-19
4.694e-05
-2.62506e-20
4.694e-05
1.64325e-20
4.694e-05
-5.22833e-20
4.694e-05
4.03293e-21
4.694e-05
-8.56761e-20
4.694e-05
1.56324e-19
4.694e-05
-2.6273e-20
4.694e-05
-7.0289e-20
4.694e-05
1.68576e-19
4.694e-05
-1.3886e-19
4.694e-05
-1.79655e-20
4.694e-05
3.59076e-20
4.694e-05
-4.95579e-20
4.694e-05
1.70246e-19
4.694e-05
-1.08218e-19
4.694e-05
-3.38039e-20
4.694e-05
8.86415e-20
4.694e-05
-1.56204e-19
4.694e-05
5.59211e-20
4.694e-05
-3.0971e-20
4.694e-05
-8.38504e-20
4.694e-05
1.65153e-19
4.694e-05
-6.06765e-20
4.694e-05
-8.57368e-21
4.694e-05
-8.91786e-20
4.694e-05
4.98992e-21
4.694e-05
2.3988e-19
4.694e-05
-1.44409e-19
4.694e-05
-2.27342e-20
4.694e-05
-8.23885e-20
4.694e-05
2.2354e-20
4.694e-05
2.69563e-19
4.694e-05
-9.41483e-20
4.694e-05
-1.54636e-19
4.694e-05
-6.9423e-20
4.694e-05
1.37013e-19
4.694e-05
1.83312e-19
4.694e-05
-5.88733e-20
4.694e-05
-1.76047e-19
4.694e-05
-9.78902e-20
4.694e-05
3.11149e-19
4.694e-05
1.10912e-20
4.694e-05
-3.0975e-19
4.694e-05
2.6203e-19
4.694e-05
9.58199e-20
4.694e-05
-1.45294e-19
4.694e-05
-1.0412e-19
4.694e-05
-1.28697e-19
4.694e-05
3.19493e-19
4.694e-05
1.2042e-19
4.694e-05
-1.9752e-19
4.694e-05
-1.22575e-19
4.694e-05
-1.30232e-19
4.694e-05
3.20603e-19
4.694e-05
2.79864e-20
4.694e-05
-1.28067e-19
4.694e-05
2.16517e-20
4.694e-05
-1.18197e-19
4.694e-05
1.96049e-19
4.694e-05
-7.30672e-21
4.694e-05
-2.83624e-20
4.694e-05
5.83084e-20
4.694e-05
-2.22001e-19
4.694e-05
7.12114e-20
4.694e-05
4.43314e-20
4.694e-05
-2.09306e-21
4.694e-05
5.52338e-20
4.694e-05
-1.78481e-19
4.694e-05
1.3011e-19
4.694e-05
-3.188e-20
4.694e-05
-1.33307e-20
4.694e-05
1.04325e-19
4.694e-05
-2.79389e-19
4.694e-05
-2.2921e-20
4.694e-05
1.10378e-19
4.694e-05
1.2238e-19
4.694e-05
-5.8805e-21
4.694e-05
-2.16068e-19
4.694e-05
1.75866e-19
4.694e-05
5.98441e-20
4.694e-05
-5.16379e-20
4.694e-05
2.03938e-20
4.694e-05
-1.90436e-19
4.694e-05
2.18863e-19
4.694e-05
3.0189e-20
4.694e-05
-4.03888e-20
4.694e-05
8.27209e-20
4.694e-05
-2.24016e-19
4.694e-05
1.16535e-19
4.694e-05
6.89937e-20
4.694e-05
-6.24608e-20
4.694e-05
8.02107e-21
4.694e-05
-1.26294e-19
4.694e-05
1.86359e-19
4.694e-05
1.4275e-19
4.694e-05
-2.26585e-21
4.694e-05
-3.34014e-20
4.694e-05
-1.52319e-19
4.694e-05
9.8603e-20
4.694e-05
5.06515e-20
4.694e-05
1.40519e-20
4.694e-05
-2.5645e-20
4.694e-05
-1.44141e-19
4.694e-05
4.62445e-20
4.694e-05
1.80481e-20
4.694e-05
-1.22718e-19
4.694e-05
6.91309e-20
4.694e-05
-7.60644e-20
4.694e-05
9.74916e-21
4.694e-05
9.20889e-20
4.694e-05
-4.3145e-20
4.694e-05
-7.96084e-21
4.694e-05
-1.25417e-19
4.694e-05
1.35188e-20
4.694e-05
1.91998e-19
4.694e-05
3.94845e-20
4.694e-05
-1.56704e-19
4.694e-05
-1.3121e-19
4.694e-05
1.6188e-19
4.694e-05
7.95418e-20
4.694e-05
-6.64298e-20
4.694e-05
-1.54552e-19
4.694e-05
-6.11216e-21
4.694e-05
2.001e-19
4.694e-05
-4.11573e-20
4.694e-05
3.70805e-21
4.694e-05
-1.71288e-19
4.694e-05
-2.55457e-20
4.694e-05
2.23744e-19
4.694e-05
1.25847e-20
4.694e-05
7.94771e-20
4.694e-05
-1.57905e-19
4.694e-05
-1.9875e-19
4.694e-05
6.34337e-21
4.694e-05
2.4896e-21
4.694e-05
1.16219e-19
4.694e-05
-1.61668e-19
4.694e-05
-2.27869e-20
4.694e-05
4.77101e-21
4.694e-05
-1.03939e-19
4.694e-05
1.71243e-19
4.694e-05
-1.054e-19
4.694e-05
-1.59305e-19
4.694e-05
-1.0969e-20
4.694e-05
-2.33935e-19
4.694e-05
-2.05111e-19
4.694e-05
-5.53842e-19
-1.40964e-18
0.000138472
-1.60215e-18
0.000138472
-1.09387e-18
0.000138472
-6.22845e-19
0.000138472
-3.27852e-19
0.000138472
-1.6484e-19
0.000138472
-7.71525e-20
0.000138472
-6.85316e-20
0.000138472
-2.9291e-20
0.000138472
-1.34331e-20
0.000138472
-5.82017e-21
0.000138472
1.0571e-20
0.000138472
-4.97543e-20
0.000138472
-5.6716e-21
0.000138472
-5.46087e-21
0.000138472
-4.92907e-20
0.000138472
-2.20065e-21
0.000138472
-2.20392e-20
0.000138472
-5.70503e-20
0.000138472
-8.67167e-20
0.000138472
-1.00757e-19
0.000138472
-5.68482e-20
0.000138472
-7.09173e-20
0.000138472
-1.00031e-19
0.000138472
-8.77369e-20
0.000138472
-1.30756e-19
0.000138472
-9.59453e-20
0.000138472
2.81107e-21
0.000138472
-2.30943e-20
0.000138472
-6.62621e-20
0.000138472
-5.29814e-20
0.000138472
3.21762e-20
0.000138472
1.28875e-19
0.000138472
8.92918e-20
0.000138472
2.86409e-20
0.000138472
1.72897e-20
0.000138472
2.60981e-20
0.000138472
8.02219e-20
0.000138472
2.63722e-20
0.000138472
9.79335e-21
0.000138472
8.16871e-20
0.000138472
9.47724e-21
0.000138472
3.90352e-21
0.000138472
2.34646e-20
0.000138472
-6.80986e-21
0.000138472
4.88396e-20
0.000138472
5.51825e-20
0.000138472
6.66541e-20
0.000138472
4.59754e-20
0.000138472
8.95416e-21
0.000138472
-2.12355e-20
0.000138472
-5.06874e-20
0.000138472
1.28137e-20
0.000138472
-4.64507e-21
0.000138472
8.60603e-21
0.000138472
8.96132e-20
0.000138472
-2.0292e-20
0.000138472
1.49051e-20
0.000138472
3.29913e-20
0.000138472
5.51567e-20
0.000138472
9.2106e-20
0.000138472
-5.12879e-20
0.000138472
9.85175e-20
0.000138472
5.34665e-20
0.000138472
2.3664e-20
0.000138472
8.58818e-20
0.000138472
-6.68928e-20
0.000138472
1.73917e-20
0.000138472
1.14362e-20
0.000138472
3.56165e-20
0.000138472
4.85711e-20
0.000138472
-5.9842e-20
0.000138472
-5.34709e-20
0.000138472
-6.71956e-20
0.000138472
-7.42027e-21
0.000138472
1.26277e-19
0.000138472
-7.92902e-20
0.000138472
-1.21511e-19
0.000138472
9.29584e-21
0.000138472
-1.89616e-20
0.000138472
6.43599e-20
0.000138472
-6.04161e-20
0.000138472
-1.49306e-19
0.000138472
4.58745e-20
0.000138472
1.15808e-19
0.000138472
1.01681e-19
0.000138472
1.28683e-20
0.000138472
-6.00886e-20
0.000138472
-9.20935e-20
0.000138472
3.39965e-20
0.000138472
1.8075e-19
0.000138472
-1.49601e-20
0.000138472
-1.20225e-19
0.000138472
1.18501e-20
0.000138472
6.62455e-20
0.000138472
-1.0078e-20
0.000138472
-1.24747e-19
0.000138472
-5.53162e-20
0.000138472
-2.66613e-20
0.000138472
4.8966e-20
0.000138472
-1.24425e-20
0.000138472
-1.86672e-19
0.000138472
-8.25248e-20
0.000138472
-1.12112e-19
0.000138472
-1.05228e-20
0.000138472
3.37597e-20
0.000138472
-3.28807e-20
0.000138472
-1.62163e-19
0.000138472
-7.03016e-20
0.000138472
1.09635e-19
0.000138472
8.78585e-20
0.000138472
2.52394e-20
0.000138472
-2.52277e-19
0.000138472
5.00275e-20
0.000138472
2.39688e-19
0.000138472
9.16891e-20
0.000138472
-5.04718e-20
0.000138472
-2.44103e-19
0.000138472
-2.67399e-20
0.000138472
2.68655e-19
0.000138472
1.49887e-19
0.000138472
-1.01907e-19
0.000138472
-1.99732e-19
0.000138472
4.44674e-20
0.000138472
3.34537e-19
0.000138472
1.68217e-19
0.000138472
-1.3905e-19
0.000138472
-3.2926e-19
0.000138472
-2.82011e-20
0.000138472
2.61384e-19
0.000138472
5.08346e-20
0.000138472
-1.29136e-19
0.000138472
-1.99797e-19
0.000138472
7.68692e-20
0.000138472
2.58388e-19
0.000138472
4.74798e-20
0.000138472
-2.52415e-20
0.000138472
-1.47997e-19
0.000138472
-2.12968e-20
0.000138472
2.50154e-19
0.000138472
1.53035e-19
0.000138472
-2.18833e-20
0.000138472
-1.52888e-19
0.000138472
4.68736e-20
0.000138472
1.3711e-19
0.000138472
9.70447e-21
0.000138472
-8.15323e-20
0.000138472
-1.71204e-19
0.000138472
3.8617e-20
0.000138472
7.18845e-20
0.000138472
5.35068e-20
0.000138472
1.24938e-19
0.000138472
-1.76465e-19
0.000138472
-1.32448e-19
0.000138472
1.14159e-19
0.000138472
1.3243e-19
0.000138472
1.2969e-19
0.000138472
-6.7359e-20
0.000138472
-1.62106e-19
0.000138472
3.3436e-20
0.000138472
1.30498e-19
0.000138472
1.75788e-19
0.000138472
-1.72221e-19
0.000138472
-1.12143e-19
0.000138472
1.75393e-19
0.000138472
-8.95468e-20
0.000138472
1.68007e-20
0.000138472
-1.0575e-19
0.000138472
-1.87011e-19
0.000138472
6.66279e-20
0.000138472
1.79675e-20
0.000138472
-5.05643e-20
0.000138472
-1.95238e-19
0.000138472
-1.01221e-19
0.000138472
2.82313e-20
0.000138472
9.9135e-21
0.000138472
-1.11039e-19
0.000138472
-1.31597e-19
0.000138472
1.90967e-19
0.000138472
-8.31505e-22
0.000138472
3.21069e-20
0.000138472
1.54378e-19
0.000138472
-2.71474e-19
0.000138472
-5.78574e-20
0.000138472
8.63589e-20
0.000138472
-2.39974e-20
0.000138472
1.83385e-19
0.000138472
-1.30516e-19
0.000138472
-8.72016e-20
0.000138472
8.51504e-20
0.000138472
-1.78059e-19
0.000138472
-3.10268e-20
0.000138472
-9.58106e-20
0.000138472
-1.13284e-19
0.000138472
1.83132e-19
0.000138472
2.39269e-21
0.000138472
-3.02795e-20
0.000138472
-8.29555e-20
0.000138472
2.79045e-20
0.000138472
2.4575e-19
0.000138472
-1.36987e-19
0.000138472
-7.06461e-20
0.000138472
-8.67587e-20
0.000138472
8.33805e-20
0.000138472
3.15062e-19
0.000138472
-5.56373e-20
0.000138472
-1.82852e-19
0.000138472
-9.46656e-20
0.000138472
1.90973e-19
0.000138472
1.96434e-19
0.000138472
-7.01423e-20
0.000138472
-1.93628e-19
0.000138472
-1.60371e-19
0.000138472
4.30046e-19
0.000138472
6.12447e-20
0.000138472
-3.98563e-19
0.000138472
3.33722e-19
0.000138472
1.10337e-19
0.000138472
-1.04718e-19
0.000138472
-1.77548e-19
0.000138472
-2.37622e-19
0.000138472
4.85898e-19
0.000138472
1.59935e-19
0.000138472
-2.33242e-19
0.000138472
-2.11015e-19
0.000138472
-2.15646e-19
0.000138472
5.11379e-19
0.000138472
7.09261e-20
0.000138472
-2.50159e-19
0.000138472
-3.15745e-20
0.000138472
-1.1659e-19
0.000138472
3.7485e-19
0.000138472
5.17562e-20
0.000138472
-3.1924e-20
0.000138472
5.5272e-21
0.000138472
-4.27021e-19
0.000138472
7.10284e-21
0.000138472
4.07382e-20
0.000138472
1.47573e-19
0.000138472
1.41422e-19
0.000138472
-3.35413e-19
0.000138472
9.71144e-20
0.000138472
-9.44056e-20
0.000138472
-1.07786e-20
0.000138472
1.01253e-19
0.000138472
-5.07596e-19
0.000138472
1.43168e-20
0.000138472
2.06838e-19
0.000138472
1.87661e-19
0.000138472
-1.31182e-20
0.000138472
-3.46538e-19
0.000138472
3.78484e-19
0.000138472
1.32226e-19
0.000138472
-1.12327e-19
0.000138472
-9.97344e-20
0.000138472
-2.61699e-19
0.000138472
5.2392e-19
0.000138472
8.63875e-20
0.000138472
-6.30628e-20
0.000138472
1.04862e-19
0.000138472
-3.25517e-19
0.000138472
1.75812e-19
0.000138472
5.86031e-20
0.000138472
-7.32341e-20
0.000138472
1.45332e-20
0.000138472
-1.28847e-19
0.000138472
4.01531e-19
0.000138472
2.11824e-19
0.000138472
4.46351e-20
0.000138472
-1.39395e-20
0.000138472
-3.08647e-19
0.000138472
1.42441e-19
0.000138472
1.06889e-19
0.000138472
8.17866e-20
0.000138472
-6.07494e-20
0.000138472
-3.64052e-19
0.000138472
8.36516e-20
0.000138472
-4.36942e-20
0.000138472
-1.28949e-19
0.000138472
5.16149e-20
0.000138472
-2.7425e-19
0.000138472
9.81846e-20
0.000138472
1.03777e-19
0.000138472
-3.56463e-21
0.000138472
-2.06869e-20
0.000138472
-3.1505e-19
0.000138472
1.40417e-19
0.000138472
3.21786e-19
0.000138472
2.8492e-20
0.000138472
-2.53978e-19
0.000138472
-2.1473e-19
0.000138472
2.93451e-19
0.000138472
1.42414e-19
0.000138472
-1.62951e-19
0.000138472
-1.40861e-19
0.000138472
-5.13961e-20
0.000138472
2.65425e-19
0.000138472
9.25134e-20
0.000138472
-1.51985e-19
0.000138472
-2.01918e-19
0.000138472
-8.00392e-20
0.000138472
3.55961e-19
0.000138472
2.30429e-19
0.000138472
5.05607e-20
0.000138472
-3.44783e-19
0.000138472
-3.71683e-19
0.000138472
1.28923e-20
0.000138472
-1.70467e-21
0.000138472
2.82749e-20
0.000138472
-3.1809e-19
0.000138472
-6.88697e-20
0.000138472
6.30361e-20
0.000138472
-1.0843e-19
0.000138472
2.07132e-19
0.000138472
-1.41195e-19
0.000138472
-3.00003e-19
0.000138472
-1.64532e-19
0.000138472
-4.3229e-19
0.000138472
-3.23457e-19
0.000138472
-7.62999e-19
-1.3897e-18
0.000227654
-1.02726e-18
0.000227654
-7.96838e-19
0.000227654
-5.78514e-19
0.000227654
-3.50096e-19
0.000227654
-1.92429e-19
0.000227654
-9.06933e-20
0.000227654
-1.13319e-20
0.000227654
1.83466e-20
0.000227654
8.11535e-21
0.000227654
3.97244e-20
0.000227654
6.15535e-20
0.000227654
-3.35781e-20
0.000227654
4.30516e-21
0.000227654
1.03033e-20
0.000227654
-5.8878e-20
0.000227654
-4.00716e-20
0.000227654
-4.65188e-20
0.000227654
-8.60159e-20
0.000227654
-1.16401e-19
0.000227654
-1.46948e-19
0.000227654
-1.10602e-19
0.000227654
-2.09011e-19
0.000227654
-1.81899e-19
0.000227654
-1.57754e-19
0.000227654
-2.08513e-19
0.000227654
-1.31789e-19
0.000227654
-2.67136e-20
0.000227654
-3.26939e-20
0.000227654
-8.49493e-20
0.000227654
-4.93404e-20
0.000227654
1.0269e-19
0.000227654
2.40885e-19
0.000227654
1.45987e-19
0.000227654
-1.01655e-21
0.000227654
1.84528e-20
0.000227654
5.413e-20
0.000227654
1.36077e-19
0.000227654
1.03572e-19
0.000227654
4.4625e-20
0.000227654
9.22249e-20
0.000227654
8.96055e-20
0.000227654
2.31566e-20
0.000227654
2.7706e-20
0.000227654
1.30796e-20
0.000227654
5.28952e-20
0.000227654
1.036e-19
0.000227654
6.75422e-20
0.000227654
3.3551e-20
0.000227654
3.42021e-20
0.000227654
2.33098e-20
0.000227654
-2.49542e-20
0.000227654
-4.85946e-21
0.000227654
4.53678e-21
0.000227654
3.72638e-20
0.000227654
1.33166e-19
0.000227654
4.40584e-21
0.000227654
4.67665e-20
0.000227654
9.73294e-20
0.000227654
1.10006e-19
0.000227654
1.36153e-19
0.000227654
5.34306e-21
0.000227654
1.56823e-19
0.000227654
8.99076e-20
0.000227654
2.39325e-20
0.000227654
6.94921e-20
0.000227654
-9.23368e-20
0.000227654
4.56718e-20
0.000227654
4.75784e-20
0.000227654
4.10951e-20
0.000227654
7.51739e-20
0.000227654
-1.33262e-19
0.000227654
-5.45982e-20
0.000227654
-7.53213e-20
0.000227654
5.92523e-21
0.000227654
1.26336e-19
0.000227654
-1.37422e-19
0.000227654
-1.16032e-19
0.000227654
-3.0093e-20
0.000227654
-3.39726e-20
0.000227654
1.00588e-19
0.000227654
-9.08995e-20
0.000227654
-1.12671e-19
0.000227654
1.20381e-19
0.000227654
1.58388e-19
0.000227654
4.27231e-20
0.000227654
-7.97448e-20
0.000227654
-5.93007e-20
0.000227654
-4.72212e-20
0.000227654
1.29235e-20
0.000227654
2.14003e-19
0.000227654
3.50366e-20
0.000227654
-6.05326e-20
0.000227654
3.37643e-20
0.000227654
3.89908e-20
0.000227654
-5.50275e-20
0.000227654
-1.36592e-19
0.000227654
-8.68016e-20
0.000227654
-6.46075e-20
0.000227654
-7.77084e-20
0.000227654
-6.14772e-20
0.000227654
-1.94076e-19
0.000227654
-1.90341e-19
0.000227654
-2.08946e-19
0.000227654
-1.5497e-19
0.000227654
-4.1852e-20
0.000227654
-4.97116e-20
0.000227654
-2.76576e-19
0.000227654
-2.06445e-19
0.000227654
1.15997e-19
0.000227654
1.90809e-19
0.000227654
3.33355e-20
0.000227654
-2.65845e-19
0.000227654
5.21011e-20
0.000227654
3.01113e-19
0.000227654
1.72739e-19
0.000227654
1.07755e-21
0.000227654
-2.97118e-19
0.000227654
-1.09887e-19
0.000227654
3.69408e-19
0.000227654
2.71035e-19
0.000227654
-1.52319e-19
0.000227654
-2.76238e-19
0.000227654
1.21652e-19
0.000227654
4.65741e-19
0.000227654
2.75453e-19
0.000227654
-1.39765e-19
0.000227654
-5.26868e-19
0.000227654
-8.98173e-20
0.000227654
3.05363e-19
0.000227654
6.84911e-20
0.000227654
-1.38858e-19
0.000227654
-2.00805e-19
0.000227654
5.27736e-20
0.000227654
2.93706e-19
0.000227654
1.76261e-19
0.000227654
1.09221e-20
0.000227654
-1.55722e-19
0.000227654
-1.38157e-20
0.000227654
4.16604e-19
0.000227654
2.50736e-19
0.000227654
-4.96204e-20
0.000227654
-2.25413e-19
0.000227654
6.26053e-20
0.000227654
2.16559e-19
0.000227654
-3.77403e-21
0.000227654
-1.28467e-19
0.000227654
-2.84681e-19
0.000227654
9.38138e-20
0.000227654
1.15757e-19
0.000227654
5.47074e-20
0.000227654
1.5246e-19
0.000227654
-1.8782e-19
0.000227654
-1.63931e-19
0.000227654
9.63967e-20
0.000227654
1.65094e-19
0.000227654
1.4199e-19
0.000227654
-5.67725e-20
0.000227654
-1.01244e-19
0.000227654
1.40464e-19
0.000227654
1.65463e-19
0.000227654
1.71975e-19
0.000227654
-2.30269e-19
0.000227654
-9.67471e-20
0.000227654
1.96521e-19
0.000227654
-1.53685e-19
0.000227654
-8.04612e-20
0.000227654
-1.04818e-19
0.000227654
-1.31362e-19
0.000227654
-6.22351e-20
0.000227654
-7.31962e-20
0.000227654
-1.19437e-19
0.000227654
-2.93876e-19
0.000227654
-1.47731e-19
0.000227654
1.1576e-19
0.000227654
1.81788e-21
0.000227654
-2.36638e-19
0.000227654
-1.74409e-19
0.000227654
6.82113e-20
0.000227654
4.72144e-20
0.000227654
1.61236e-19
0.000227654
4.89492e-20
0.000227654
-4.08228e-19
0.000227654
-1.25376e-19
0.000227654
1.21119e-19
0.000227654
3.77932e-20
0.000227654
1.5312e-19
0.000227654
-1.30036e-19
0.000227654
-1.11094e-19
0.000227654
4.72253e-20
0.000227654
-1.6542e-19
0.000227654
-1.61401e-19
0.000227654
-1.19976e-19
0.000227654
-1.01601e-19
0.000227654
1.00273e-19
0.000227654
3.75678e-20
0.000227654
-6.96409e-20
0.000227654
-7.80241e-20
0.000227654
3.58384e-20
0.000227654
1.6479e-19
0.000227654
1.29428e-20
0.000227654
-5.96374e-20
0.000227654
-5.59192e-20
0.000227654
1.90191e-19
0.000227654
3.04907e-19
0.000227654
-1.03309e-20
0.000227654
-1.30985e-19
0.000227654
-1.27971e-19
0.000227654
1.52027e-19
0.000227654
1.27999e-19
0.000227654
-7.47612e-20
0.000227654
-1.33177e-19
0.000227654
-2.1355e-19
0.000227654
4.3725e-19
0.000227654
1.26716e-19
0.000227654
-2.86002e-19
0.000227654
3.03901e-19
0.000227654
-8.33637e-21
0.000227654
7.15782e-20
0.000227654
-1.47462e-19
0.000227654
-3.15982e-19
0.000227654
5.25927e-19
0.000227654
1.44077e-19
0.000227654
-1.33261e-19
0.000227654
-1.6892e-19
0.000227654
-3.46094e-19
0.000227654
5.51579e-19
0.000227654
1.58734e-19
0.000227654
-3.36575e-19
0.000227654
-4.78516e-20
0.000227654
-5.74833e-20
0.000227654
5.16435e-19
0.000227654
1.214e-19
0.000227654
-7.16378e-20
0.000227654
-7.45581e-20
0.000227654
-5.39477e-19
0.000227654
-1.14341e-19
0.000227654
-8.88932e-21
0.000227654
3.73702e-19
0.000227654
2.16871e-19
0.000227654
-4.87913e-19
0.000227654
7.50654e-20
0.000227654
-2.15102e-19
0.000227654
-8.4739e-20
0.000227654
9.12846e-20
0.000227654
-6.63255e-19
0.000227654
-1.49659e-20
0.000227654
1.60967e-19
0.000227654
1.95807e-19
0.000227654
5.27196e-20
0.000227654
-3.6654e-19
0.000227654
5.2152e-19
0.000227654
2.47423e-19
0.000227654
-1.48149e-19
0.000227654
-1.70911e-19
0.000227654
-2.39089e-19
0.000227654
7.76436e-19
0.000227654
1.42889e-19
0.000227654
-5.96389e-20
0.000227654
1.65076e-19
0.000227654
-4.06886e-19
0.000227654
1.74429e-19
0.000227654
-8.63648e-22
0.000227654
-1.10532e-20
0.000227654
3.30318e-21
0.000227654
-1.34637e-19
0.000227654
5.76724e-19
0.000227654
2.03647e-19
0.000227654
2.00742e-19
0.000227654
7.01909e-20
0.000227654
-4.29036e-19
0.000227654
2.317e-19
0.000227654
6.38945e-20
0.000227654
1.09328e-19
0.000227654
-5.77072e-20
0.000227654
-6.5366e-19
0.000227654
1.03136e-19
0.000227654
-1.34794e-19
0.000227654
-7.77086e-20
0.000227654
8.51893e-20
0.000227654
-5.34487e-19
0.000227654
1.74005e-19
0.000227654
1.69547e-20
0.000227654
5.42362e-21
0.000227654
5.95561e-20
0.000227654
-5.28614e-19
0.000227654
3.04211e-19
0.000227654
3.52096e-19
0.000227654
-5.89085e-20
0.000227654
-2.17698e-19
0.000227654
-2.51781e-19
0.000227654
4.6453e-19
0.000227654
1.63959e-19
0.000227654
-2.47979e-19
0.000227654
-9.00027e-20
0.000227654
-1.907e-19
0.000227654
2.82171e-19
0.000227654
2.14166e-19
0.000227654
-2.70828e-19
0.000227654
-2.08104e-19
0.000227654
-1.33691e-19
0.000227654
4.46114e-19
0.000227654
3.32057e-19
0.000227654
-2.34689e-20
0.000227654
-4.63777e-19
0.000227654
-5.39978e-19
0.000227654
9.39121e-20
0.000227654
-9.93536e-20
0.000227654
-1.40121e-19
0.000227654
-3.1628e-19
0.000227654
-1.66556e-19
0.000227654
1.77336e-19
0.000227654
-1.39501e-19
0.000227654
9.76878e-20
0.000227654
-7.19874e-21
0.000227654
-4.2153e-19
0.000227654
-3.43498e-19
0.000227654
-5.44071e-19
0.000227654
-3.17709e-19
0.000227654
-7.01453e-19
-1.20656e-18
0.000314484
-7.3028e-19
0.000314484
-6.16002e-19
0.000314484
-4.59494e-19
0.000314484
-3.24152e-19
0.000314484
-1.81908e-19
0.000314484
-4.89593e-20
0.000314484
2.33961e-20
0.000314484
6.43892e-20
0.000314484
7.06467e-20
0.000314484
4.23135e-20
0.000314484
4.81906e-20
0.000314484
1.94799e-20
0.000314484
-2.65173e-20
0.000314484
-5.62057e-20
0.000314484
-6.53921e-20
0.000314484
-5.84507e-20
0.000314484
-6.32952e-20
0.000314484
-1.23948e-19
0.000314484
-1.54405e-19
0.000314484
-1.44755e-19
0.000314484
-1.28205e-19
0.000314484
-2.08574e-19
0.000314484
-2.88423e-19
0.000314484
-3.07032e-19
0.000314484
-2.45615e-19
0.000314484
-1.26104e-19
0.000314484
-9.39315e-22
0.000314484
-6.61473e-20
0.000314484
-9.84742e-20
0.000314484
-7.56823e-20
0.000314484
1.09186e-19
0.000314484
2.8156e-19
0.000314484
2.22811e-19
0.000314484
1.0857e-19
0.000314484
4.00856e-20
0.000314484
1.01932e-19
0.000314484
1.5552e-19
0.000314484
1.61814e-19
0.000314484
5.025e-20
0.000314484
1.39136e-19
0.000314484
9.73873e-20
0.000314484
8.1525e-20
0.000314484
6.64801e-20
0.000314484
-4.69722e-21
0.000314484
9.38274e-20
0.000314484
1.28402e-19
0.000314484
1.05008e-19
0.000314484
1.30993e-19
0.000314484
7.90364e-20
0.000314484
1.6824e-20
0.000314484
-7.99429e-21
0.000314484
2.06291e-20
0.000314484
3.37471e-20
0.000314484
9.4842e-20
0.000314484
1.60505e-19
0.000314484
3.34841e-20
0.000314484
8.0103e-20
0.000314484
1.86922e-19
0.000314484
1.49758e-19
0.000314484
1.48903e-19
0.000314484
2.53818e-20
0.000314484
2.28527e-19
0.000314484
1.53384e-19
0.000314484
7.70067e-20
0.000314484
1.03047e-19
0.000314484
-8.20728e-20
0.000314484
7.56945e-20
0.000314484
4.21487e-20
0.000314484
6.94299e-20
0.000314484
7.23618e-20
0.000314484
-1.09499e-19
0.000314484
-1.02107e-19
0.000314484
-1.06745e-19
0.000314484
2.4016e-20
0.000314484
7.08501e-20
0.000314484
-1.62037e-19
0.000314484
-1.42027e-19
0.000314484
5.8858e-20
0.000314484
-2.02285e-20
0.000314484
5.7283e-20
0.000314484
1.02999e-20
0.000314484
-9.42059e-20
0.000314484
1.22566e-19
0.000314484
1.21078e-19
0.000314484
5.98634e-20
0.000314484
-1.05042e-19
0.000314484
-6.41285e-20
0.000314484
-3.72661e-20
0.000314484
3.56164e-20
0.000314484
2.60642e-19
0.000314484
9.609e-20
0.000314484
-6.065e-20
0.000314484
-1.29819e-20
0.000314484
4.80119e-20
0.000314484
-1.89226e-20
0.000314484
-2.07593e-19
0.000314484
-1.3936e-19
0.000314484
-1.40345e-19
0.000314484
-1.68553e-19
0.000314484
-1.57545e-19
0.000314484
-2.23383e-19
0.000314484
-3.11687e-19
0.000314484
-3.55171e-19
0.000314484
-2.8395e-19
0.000314484
-8.54395e-20
0.000314484
-1.1703e-19
0.000314484
-3.43419e-19
0.000314484
-2.51289e-19
0.000314484
1.42552e-19
0.000314484
2.76754e-19
0.000314484
4.84455e-20
0.000314484
-3.02595e-19
0.000314484
5.32281e-20
0.000314484
3.64287e-19
0.000314484
2.27451e-19
0.000314484
-2.78715e-20
0.000314484
-2.91833e-19
0.000314484
-8.48047e-20
0.000314484
4.73287e-19
0.000314484
3.20535e-19
0.000314484
-2.09437e-19
0.000314484
-3.30151e-19
0.000314484
4.71564e-20
0.000314484
5.89719e-19
0.000314484
4.40871e-19
0.000314484
-1.92987e-19
0.000314484
-5.63239e-19
0.000314484
-8.27307e-20
0.000314484
3.53296e-19
0.000314484
2.90934e-20
0.000314484
-1.75417e-19
0.000314484
-1.39693e-19
0.000314484
7.2569e-20
0.000314484
4.10747e-19
0.000314484
2.68827e-19
0.000314484
1.13109e-20
0.000314484
-2.57273e-19
0.000314484
6.46383e-21
0.000314484
4.62854e-19
0.000314484
2.90188e-19
0.000314484
-2.55087e-20
0.000314484
-1.59833e-19
0.000314484
1.32861e-19
0.000314484
1.78809e-19
0.000314484
-2.04702e-20
0.000314484
-1.2792e-19
0.000314484
-2.90125e-19
0.000314484
1.03968e-19
0.000314484
1.65412e-19
0.000314484
5.1627e-20
0.000314484
1.13154e-19
0.000314484
-1.50533e-19
0.000314484
-1.76306e-19
0.000314484
5.7403e-20
0.000314484
2.75651e-19
0.000314484
2.7234e-19
0.000314484
-2.21048e-20
0.000314484
-1.44841e-19
0.000314484
5.23839e-20
0.000314484
2.26819e-19
0.000314484
2.05086e-19
0.000314484
-2.3766e-19
0.000314484
-1.18551e-19
0.000314484
7.58184e-20
0.000314484
-2.43843e-19
0.000314484
-1.22511e-19
0.000314484
-1.16936e-19
0.000314484
-1.21991e-19
0.000314484
-3.89361e-20
0.000314484
-9.67025e-20
0.000314484
-2.35909e-19
0.000314484
-4.62148e-19
0.000314484
-1.56336e-19
0.000314484
1.68279e-19
0.000314484
-1.27636e-19
0.000314484
-2.91511e-19
0.000314484
-2.12992e-19
0.000314484
1.54628e-20
0.000314484
1.3365e-20
0.000314484
1.99064e-19
0.000314484
4.75623e-20
0.000314484
-5.04303e-19
0.000314484
-1.33976e-19
0.000314484
1.93413e-19
0.000314484
2.39856e-20
0.000314484
1.58083e-20
0.000314484
-2.06858e-19
0.000314484
-4.89853e-20
0.000314484
1.05875e-20
0.000314484
-2.31929e-19
0.000314484
-1.86452e-19
0.000314484
-1.17968e-19
0.000314484
-1.73933e-19
0.000314484
5.73116e-20
0.000314484
6.30725e-20
0.000314484
-3.39422e-20
0.000314484
-9.6372e-20
0.000314484
-4.6323e-20
0.000314484
1.29058e-19
0.000314484
8.10209e-20
0.000314484
4.74905e-20
0.000314484
-1.00526e-21
0.000314484
2.1418e-19
0.000314484
2.75356e-19
0.000314484
7.46033e-20
0.000314484
-5.84362e-20
0.000314484
-1.42233e-19
0.000314484
9.52129e-20
0.000314484
5.96826e-20
0.000314484
-3.4406e-20
0.000314484
-5.65911e-20
0.000314484
-2.29385e-19
0.000314484
4.53759e-19
0.000314484
1.75533e-19
0.000314484
-2.28792e-19
0.000314484
3.64936e-19
0.000314484
4.25979e-20
0.000314484
3.46006e-20
0.000314484
-1.36707e-19
0.000314484
-3.6861e-19
0.000314484
5.26155e-19
0.000314484
2.0366e-19
0.000314484
2.76784e-20
0.000314484
-1.09621e-19
0.000314484
-4.26354e-19
0.000314484
4.66258e-19
0.000314484
1.70643e-19
0.000314484
-2.07331e-19
0.000314484
-2.98309e-21
0.000314484
1.43833e-21
0.000314484
6.13862e-19
0.000314484
1.78169e-19
0.000314484
-2.12402e-19
0.000314484
-1.846e-19
0.000314484
-6.01106e-19
0.000314484
-1.78649e-19
0.000314484
-6.86097e-20
0.000314484
3.96108e-19
0.000314484
3.1787e-19
0.000314484
-4.91443e-19
0.000314484
-8.4386e-20
0.000314484
-3.3806e-19
0.000314484
-8.80514e-20
0.000314484
4.60585e-20
0.000314484
-8.31408e-19
0.000314484
-6.38505e-20
0.000314484
4.42811e-20
0.000314484
1.64843e-19
0.000314484
1.4263e-19
0.000314484
-2.89102e-19
0.000314484
6.92871e-19
0.000314484
2.94935e-19
0.000314484
-2.36668e-19
0.000314484
-2.46233e-19
0.000314484
-1.23731e-19
0.000314484
8.41951e-19
0.000314484
1.99957e-19
0.000314484
5.46225e-20
0.000314484
3.1483e-19
0.000314484