/*--------------------------------*- C++ -*----------------------------------*\
| =========                 |                                                 |
| \\      /  F ield         | OpenFOAM: The Open Source CFD Toolbox           |
|  \\    /   O peration     | Version:  2112                                  |
|   \\  /    A nd           | Website:  www.openfoam.com                      |
|    \\/     M anipulation  |                                                 |
\*---------------------------------------------------------------------------*/
FoamFile
{
    version     2.0;
    format      ascii;
    arch        "LSB;label=32;scalar=64";
    class       volVectorField;
    location    "10";
    object      U;
}
// * * * * * * * * * * * * * * * * * * * * * * * * * * * * * * * * * * * * * //

dimensions      [0 1 -1 0 0 0 0];

internalField   nonuniform List<vector> 
25600
(
(0.0375211 -2.36294e-15 0)
(0.0375211 -1.0334e-15 0)
(0.0375211 -4.72804e-16 0)
(0.0375211 -2.51075e-16 0)
(0.0375211 -1.27772e-16 0)
(0.0375211 -7.66109e-17 0)
(0.0375211 -5.45019e-17 0)
(0.0375211 -3.63811e-17 0)
(0.0375211 -2.7164e-17 0)
(0.0375211 -1.91267e-17 0)
(0.0375211 -1.1129e-17 0)
(0.0375211 -2.40366e-17 0)
(0.0375211 -8.73845e-18 0)
(0.0375211 -5.98318e-18 0)
(0.0375211 -1.55073e-17 0)
(0.0375211 4.09083e-18 0)
(0.0375211 -4.20274e-19 0)
(0.0375211 -7.85281e-18 0)
(0.0375211 -1.38768e-17 0)
(0.0375211 -1.5494e-17 0)
(0.0375211 -1.65446e-18 0)
(0.0375211 1.89381e-18 0)
(0.0375211 -6.63039e-18 0)
(0.0375211 -1.63372e-17 0)
(0.0375211 -2.4983e-17 0)
(0.0375211 -8.37123e-18 0)
(0.0375211 3.11409e-17 0)
(0.0375211 -2.46354e-18 0)
(0.0375211 -3.81002e-17 0)
(0.0375211 -1.33941e-17 0)
(0.0375211 8.69722e-18 0)
(0.0375211 1.90969e-17 0)
(0.0375211 4.32234e-18 0)
(0.0375211 -1.04166e-17 0)
(0.0375211 -3.1974e-18 0)
(0.0375211 -4.28084e-18 0)
(0.0375211 3.7065e-18 0)
(0.0375211 -8.90736e-18 0)
(0.0375211 -2.64396e-18 0)
(0.0375211 1.69393e-17 0)
(0.0375211 4.76727e-18 0)
(0.0375211 1.88533e-17 0)
(0.0375211 -1.59096e-17 0)
(0.0375211 -1.91091e-17 0)
(0.0375211 3.33994e-17 0)
(0.0375211 -1.00603e-17 0)
(0.0375211 9.04586e-18 0)
(0.0375211 5.46855e-18 0)
(0.0375211 -5.0441e-18 0)
(0.0375211 -3.36949e-18 0)
(0.0375211 -4.12798e-17 0)
(0.0375211 3.32343e-17 0)
(0.0375211 4.3242e-18 0)
(0.0375211 4.43739e-18 0)
(0.0375211 3.74476e-17 0)
(0.0375211 -3.67602e-17 0)
(0.0375211 -6.03375e-18 0)
(0.0375211 -1.63623e-17 0)
(0.0375211 3.17347e-18 0)
(0.0375211 5.27956e-17 0)
(0.0375211 -3.45931e-17 0)
(0.0375211 4.4345e-18 0)
(0.0375211 5.45509e-18 0)
(0.0375211 8.23404e-18 0)
(0.0375211 2.07434e-17 0)
(0.0375211 -2.82981e-17 0)
(0.0375211 -6.07432e-18 0)
(0.0375211 -1.47047e-17 0)
(0.0375211 1.87275e-17 0)
(0.0375211 3.33661e-18 0)
(0.0375211 -6.51344e-18 0)
(0.0375211 2.78324e-18 0)
(0.0375211 5.15175e-20 0)
(0.0375211 -6.96686e-18 0)
(0.0375211 1.25772e-17 0)
(0.0375211 -8.73864e-18 0)
(0.0375211 -2.63889e-17 0)
(0.0375211 1.9205e-17 0)
(0.0375211 3.04064e-18 0)
(0.0375211 3.76981e-17 0)
(0.0375211 -4.67506e-17 0)
(0.0375211 -5.08485e-17 0)
(0.0375211 3.63624e-17 0)
(0.0375211 1.42664e-17 0)
(0.0375211 4.46038e-17 0)
(0.0375211 3.16969e-18 0)
(0.0375211 -7.58089e-17 0)
(0.0375211 -1.72417e-17 0)
(0.0375211 3.87132e-17 0)
(0.0375211 5.05295e-17 0)
(0.0375211 -1.04463e-17 0)
(0.0375211 -7.94049e-17 0)
(0.0375211 -3.7811e-18 0)
(0.0375211 7.81881e-17 0)
(0.0375211 7.56261e-19 0)
(0.0375211 -7.72407e-17 0)
(0.0375211 -2.11663e-18 0)
(0.0375211 5.59789e-18 0)
(0.0375211 7.60949e-17 0)
(0.0375211 2.97882e-17 0)
(0.0375211 -1.16358e-16 0)
(0.0375211 -5.0256e-18 0)
(0.0375211 -4.9088e-19 0)
(0.0375211 6.89919e-17 0)
(0.0375211 5.89743e-18 0)
(0.0375211 -3.50195e-17 0)
(0.0375211 -4.14715e-17 0)
(0.0375211 2.64956e-17 0)
(0.0375211 4.22444e-17 0)
(0.0375211 -2.86102e-17 0)
(0.0375211 2.23818e-17 0)
(0.0375211 -1.22813e-16 0)
(0.0375211 2.88509e-17 0)
(0.0375211 8.45586e-17 0)
(0.0375211 6.84485e-18 0)
(0.0375211 -4.18327e-17 0)
(0.0375211 -8.09757e-17 0)
(0.0375211 6.33251e-17 0)
(0.0375211 6.07644e-17 0)
(0.0375211 1.35822e-17 0)
(0.0375211 -1.94701e-17 0)
(0.0375211 -8.26581e-17 0)
(0.0375211 -2.60504e-18 0)
(0.0375211 8.84255e-17 0)
(0.0375211 1.61997e-17 0)
(0.0375211 -4.79004e-17 0)
(0.0375211 -6.28077e-17 0)
(0.0375211 4.4814e-18 0)
(0.0375211 9.21636e-17 0)
(0.0375211 5.34993e-18 0)
(0.0375211 -4.82238e-17 0)
(0.0375211 -4.74319e-17 0)
(0.0375211 4.0212e-17 0)
(0.0375211 4.66858e-17 0)
(0.0375211 -3.28058e-17 0)
(0.0375211 -4.13303e-17 0)
(0.0375211 -1.37933e-17 0)
(0.0375211 5.85691e-17 0)
(0.0375211 2.64987e-17 0)
(0.0375211 -3.14294e-17 0)
(0.0375211 -4.07016e-17 0)
(0.0375211 -1.04088e-17 0)
(0.0375211 6.5705e-17 0)
(0.0375211 1.18536e-17 0)
(0.0375211 -5.8793e-17 0)
(0.0375211 6.12602e-17 0)
(0.0375211 -1.27284e-17 0)
(0.0375211 -6.52515e-17 0)
(0.0375211 -9.65585e-18 0)
(0.0375211 7.83062e-18 0)
(0.0375211 7.78473e-17 0)
(0.0375211 -1.5727e-17 0)
(0.0375211 -7.46647e-17 0)
(0.0375211 9.23085e-18 0)
(0.0375211 4.29687e-17 0)
(0.0375211 4.13892e-17 0)
(0.0375211 -4.32715e-17 0)
(0.0375211 -5.46539e-17 0)
(0.0375211 3.60611e-17 0)
(0.0375211 2.09129e-17 0)
(0.0375211 7.98053e-17 0)
(0.0375211 -8.51696e-17 0)
(0.0375211 -7.70065e-17 0)
(0.0375211 8.33602e-17 0)
(0.0375211 9.50612e-18 0)
(0.0375211 7.14425e-17 0)
(0.0375211 -6.08468e-17 0)
(0.0375211 -2.85708e-17 0)
(0.0375211 -9.50804e-19 0)
(0.0375211 -5.74714e-17 0)
(0.0375211 1.1561e-16 0)
(0.0375211 -6.68208e-17 0)
(0.0375211 -8.47269e-18 0)
(0.0375211 7.66999e-19 0)
(0.0375211 -5.43203e-17 0)
(0.0375211 1.109e-16 0)
(0.0375211 -7.37639e-17 0)
(0.0375211 1.0565e-17 0)
(0.0375211 -1.24738e-17 0)
(0.0375211 -5.37622e-17 0)
(0.0375211 1.46547e-16 0)
(0.0375211 -7.88102e-17 0)
(0.0375211 -1.01087e-17 0)
(0.0375211 4.6089e-18 0)
(0.0375211 -6.1316e-17 0)
(0.0375211 1.40311e-16 0)
(0.0375211 -7.14729e-17 0)
(0.0375211 -5.43019e-18 0)
(0.0375211 7.20931e-17 0)
(0.0375211 -1.35328e-16 0)
(0.0375211 6.27279e-17 0)
(0.0375211 -8.41725e-18 0)
(0.0375211 -6.95327e-17 0)
(0.0375211 1.37694e-16 0)
(0.0375211 -5.3406e-17 0)
(0.0375211 -1.41544e-17 0)
(0.0375211 -7.52028e-17 0)
(0.0375211 9.42624e-18 0)
(0.0375211 2.08891e-16 0)
(0.0375211 -1.27172e-16 0)
(0.0375211 -2.37426e-17 0)
(0.0375211 -7.90505e-17 0)
(0.0375211 1.24961e-17 0)
(0.0375211 2.18014e-16 0)
(0.0375211 -1.22927e-16 0)
(0.0375211 -9.34356e-17 0)
(0.0375211 -8.85726e-18 0)
(0.0375211 9.23703e-17 0)
(0.0375211 1.51585e-16 0)
(0.0375211 -7.11555e-17 0)
(0.0375211 -1.60781e-16 0)
(0.0375211 -7.45829e-17 0)
(0.0375211 2.35779e-16 0)
(0.0375211 4.72104e-19 0)
(0.0375211 -2.28375e-16 0)
(0.0375211 2.1358e-16 0)
(0.0375211 7.78968e-17 0)
(0.0375211 -1.37083e-16 0)
(0.0375211 -9.41609e-17 0)
(0.0375211 -8.12779e-17 0)
(0.0375211 2.37844e-16 0)
(0.0375211 8.79442e-17 0)
(0.0375211 -1.55634e-16 0)
(0.0375211 -1.00508e-16 0)
(0.0375211 -7.81661e-17 0)
(0.0375211 2.31894e-16 0)
(0.0375211 1.18319e-17 0)
(0.0375211 -9.4106e-17 0)
(0.0375211 -1.60833e-17 0)
(0.0375211 -1.2676e-16 0)
(0.0375211 2.18208e-16 0)
(0.0375211 8.14953e-18 0)
(0.0375211 -1.26892e-16 0)
(0.0375211 4.45506e-17 0)
(0.0375211 -8.7026e-17 0)
(0.0375211 1.25057e-16 0)
(0.0375211 1.38681e-17 0)
(0.0375211 -5.61493e-17 0)
(0.0375211 -6.02119e-18 0)
(0.0375211 -1.43782e-16 0)
(0.0375211 2.0377e-16 0)
(0.0375211 7.5474e-18 0)
(0.0375211 -5.60992e-17 0)
(0.0375211 6.82954e-17 0)
(0.0375211 -1.72503e-16 0)
(0.0375211 -1.41992e-17 0)
(0.0375211 8.04103e-17 0)
(0.0375211 8.61123e-17 0)
(0.0375211 -2.44902e-18 0)
(0.0375211 -1.59638e-16 0)
(0.0375211 8.93465e-17 0)
(0.0375211 1.69885e-17 0)
(0.0375211 -1.09158e-17 0)
(0.0375211 5.07784e-17 0)
(0.0375211 -1.49489e-16 0)
(0.0375211 9.41084e-17 0)
(0.0375211 9.18095e-18 0)
(0.0375211 -5.40391e-18 0)
(0.0375211 6.53309e-17 0)
(0.0375211 -1.57264e-16 0)
(0.0375211 6.51271e-17 0)
(0.0375211 1.55364e-17 0)
(0.0375211 4.85506e-20 0)
(0.0375211 5.85981e-17 0)
(0.0375211 -1.3967e-16 0)
(0.0375211 7.99753e-17 0)
(0.0375211 7.76167e-17 0)
(0.0375211 -5.8796e-17 0)
(0.0375211 -1.2517e-17 0)
(0.0375211 -8.79944e-17 0)
(0.0375211 7.89116e-17 0)
(0.0375211 6.03675e-17 0)
(0.0375211 -1.07395e-16 0)
(0.0375211 5.24546e-17 0)
(0.0375211 -2.55351e-17 0)
(0.0375211 1.80858e-17 0)
(0.0375211 5.63532e-17 0)
(0.0375211 -1.37158e-16 0)
(0.0375211 6.44955e-17 0)
(0.0375211 -1.98373e-17 0)
(0.0375211 7.20263e-18 0)
(0.0375211 6.41871e-17 0)
(0.0375211 -1.20521e-16 0)
(0.0375211 5.98481e-17 0)
(0.0375211 -1.93866e-17 0)
(0.0375211 -4.83753e-17 0)
(0.0375211 1.44044e-16 0)
(0.0375211 -5.09217e-17 0)
(0.0375211 -4.55206e-17 0)
(0.0375211 -8.88369e-17 0)
(0.0375211 4.9072e-17 0)
(0.0375211 2.08657e-16 0)
(0.0375211 -1.19425e-17 0)
(0.0375211 -2.15375e-16 0)
(0.0375211 -2.73969e-17 0)
(0.0375211 9.37615e-17 0)
(0.0375211 2.09379e-17 0)
(0.0375211 1.10226e-16 0)
(0.0375211 -2.02505e-16 0)
(0.0375211 -2.59475e-17 0)
(0.0375211 9.31118e-17 0)
(0.0375211 1.5921e-17 0)
(0.0375211 6.49518e-17 0)
(0.0375211 -1.40689e-16 0)
(0.0375211 2.23067e-17 0)
(0.0375211 4.42451e-18 0)
(0.0375211 -6.71921e-17 0)
(0.0375211 1.14313e-16 0)
(0.0375211 -9.46374e-17 0)
(0.0375211 -2.21869e-17 0)
(0.0375211 -1.00243e-17 0)
(0.0375211 -8.7077e-17 0)
(0.0375211 1.17579e-16 0)
(0.0375211 -1.00152e-16 0)
(0.0375211 -1.38821e-16 0)
(0.0375211 -1.26008e-17 0)
(0.0375211 -1.36184e-16 0)
(0.0375211 -1.68944e-16 0)
(0.0375211 -5.34071e-16 0)
(0.0375211 -1.09959e-15 0)
(0.110687 -3.76495e-15 0)
(0.110687 -1.90804e-15 0)
(0.110687 -8.3312e-16 0)
(0.110687 -4.70998e-16 0)
(0.110687 -2.54189e-16 0)
(0.110687 -1.48613e-16 0)
(0.110687 -1.04958e-16 0)
(0.110687 -6.17179e-17 0)
(0.110687 -3.77752e-17 0)
(0.110687 -2.85986e-17 0)
(0.110687 -1.30779e-17 0)
(0.110687 -3.76892e-17 0)
(0.110687 -9.05735e-18 0)
(0.110687 2.26862e-18 0)
(0.110687 -2.08074e-17 0)
(0.110687 -1.0296e-18 0)
(0.110687 2.84157e-18 0)
(0.110687 -1.69432e-17 0)
(0.110687 -5.28911e-17 0)
(0.110687 -5.4331e-17 0)
(0.110687 -2.63087e-17 0)
(0.110687 -3.68286e-17 0)
(0.110687 -5.3742e-17 0)
(0.110687 -4.63639e-17 0)
(0.110687 -6.56894e-17 0)
(0.110687 -5.70562e-17 0)
(0.110687 9.74205e-18 0)
(0.110687 -2.20955e-17 0)
(0.110687 -5.99259e-17 0)
(0.110687 -4.21176e-17 0)
(0.110687 -9.25802e-18 0)
(0.110687 5.30362e-17 0)
(0.110687 4.50112e-17 0)
(0.110687 1.474e-18 0)
(0.110687 6.74065e-18 0)
(0.110687 1.84444e-17 0)
(0.110687 5.19146e-17 0)
(0.110687 -1.47621e-17 0)
(0.110687 -1.159e-17 0)
(0.110687 7.33052e-17 0)
(0.110687 3.4505e-18 0)
(0.110687 1.13685e-17 0)
(0.110687 6.99198e-19 0)
(0.110687 -1.6985e-17 0)
(0.110687 6.1388e-17 0)
(0.110687 2.73173e-17 0)
(0.110687 3.57299e-17 0)
(0.110687 2.27179e-17 0)
(0.110687 2.76005e-19 0)
(0.110687 -2.18664e-17 0)
(0.110687 -5.92476e-17 0)
(0.110687 3.72983e-17 0)
(0.110687 5.31303e-18 0)
(0.110687 8.6604e-18 0)
(0.110687 6.50681e-17 0)
(0.110687 -2.64747e-17 0)
(0.110687 2.98149e-18 0)
(0.110687 1.15161e-17 0)
(0.110687 1.73202e-17 0)
(0.110687 4.34725e-17 0)
(0.110687 -3.50974e-17 0)
(0.110687 5.81073e-17 0)
(0.110687 3.21902e-17 0)
(0.110687 7.13304e-18 0)
(0.110687 2.14642e-17 0)
(0.110687 -5.28203e-17 0)
(0.110687 -1.2049e-17 0)
(0.110687 4.01949e-18 0)
(0.110687 1.80018e-17 0)
(0.110687 2.48262e-17 0)
(0.110687 -4.63063e-17 0)
(0.110687 -1.58996e-17 0)
(0.110687 -2.95093e-17 0)
(0.110687 -2.90631e-17 0)
(0.110687 1.04248e-16 0)
(0.110687 -6.32858e-17 0)
(0.110687 -1.0506e-16 0)
(0.110687 3.80224e-17 0)
(0.110687 8.44908e-18 0)
(0.110687 4.82052e-17 0)
(0.110687 -4.9474e-17 0)
(0.110687 -1.22954e-16 0)
(0.110687 1.13619e-17 0)
(0.110687 8.38193e-17 0)
(0.110687 9.12093e-17 0)
(0.110687 4.61697e-18 0)
(0.110687 -1.06346e-16 0)
(0.110687 -7.32154e-17 0)
(0.110687 7.90429e-17 0)
(0.110687 1.23631e-16 0)
(0.110687 -2.65632e-17 0)
(0.110687 -1.11728e-16 0)
(0.110687 -9.65048e-18 0)
(0.110687 9.2056e-17 0)
(0.110687 -6.49488e-18 0)
(0.110687 -1.12356e-16 0)
(0.110687 -3.02376e-17 0)
(0.110687 -3.33837e-18 0)
(0.110687 8.51552e-17 0)
(0.110687 2.92196e-17 0)
(0.110687 -1.63598e-16 0)
(0.110687 -1.02778e-17 0)
(0.110687 -6.2281e-17 0)
(0.110687 1.19572e-17 0)
(0.110687 3.47709e-17 0)
(0.110687 -5.55571e-17 0)
(0.110687 -9.00136e-17 0)
(0.110687 7.02365e-18 0)
(0.110687 7.06123e-17 0)
(0.110687 7.69452e-19 0)
(0.110687 1.68582e-17 0)
(0.110687 -2.10199e-16 0)
(0.110687 2.20485e-17 0)
(0.110687 1.83571e-16 0)
(0.110687 1.25906e-17 0)
(0.110687 -6.92615e-17 0)
(0.110687 -1.26968e-16 0)
(0.110687 2.90751e-17 0)
(0.110687 1.36775e-16 0)
(0.110687 2.09591e-17 0)
(0.110687 -4.70351e-17 0)
(0.110687 -1.07919e-16 0)
(0.110687 2.60079e-17 0)
(0.110687 1.92252e-16 0)
(0.110687 6.99877e-17 0)
(0.110687 -9.25567e-17 0)
(0.110687 -1.63516e-16 0)
(0.110687 -3.55667e-18 0)
(0.110687 1.74812e-16 0)
(0.110687 1.44528e-17 0)
(0.110687 -1.00117e-16 0)
(0.110687 -1.06079e-16 0)
(0.110687 7.16224e-17 0)
(0.110687 1.34778e-16 0)
(0.110687 1.74399e-17 0)
(0.110687 1.67384e-17 0)
(0.110687 -9.94751e-17 0)
(0.110687 -4.26144e-17 0)
(0.110687 1.35116e-16 0)
(0.110687 8.06067e-17 0)
(0.110687 2.31453e-17 0)
(0.110687 -8.773e-17 0)
(0.110687 -2.81438e-17 0)
(0.110687 9.30388e-17 0)
(0.110687 4.92845e-17 0)
(0.110687 -3.00744e-17 0)
(0.110687 -1.32284e-16 0)
(0.110687 -1.65819e-17 0)
(0.110687 2.44967e-17 0)
(0.110687 9.06156e-17 0)
(0.110687 8.77771e-17 0)
(0.110687 -2.08748e-16 0)
(0.110687 -1.30674e-16 0)
(0.110687 1.06715e-16 0)
(0.110687 1.07359e-16 0)
(0.110687 8.66319e-17 0)
(0.110687 -6.08241e-17 0)
(0.110687 -8.87986e-17 0)
(0.110687 5.5445e-17 0)
(0.110687 7.62708e-17 0)
(0.110687 1.27621e-16 0)
(0.110687 -1.15518e-16 0)
(0.110687 -2.48325e-17 0)
(0.110687 1.27983e-16 0)
(0.110687 -1.46108e-16 0)
(0.110687 3.4024e-17 0)
(0.110687 -5.424e-17 0)
(0.110687 -1.98981e-16 0)
(0.110687 1.35218e-16 0)
(0.110687 8.18343e-17 0)
(0.110687 -4.06474e-17 0)
(0.110687 -1.60922e-16 0)
(0.110687 -4.65322e-17 0)
(0.110687 1.40968e-17 0)
(0.110687 -7.49205e-17 0)
(0.110687 -4.88984e-17 0)
(0.110687 -3.16083e-17 0)
(0.110687 2.66061e-16 0)
(0.110687 -4.30323e-17 0)
(0.110687 -1.0795e-16 0)
(0.110687 1.57793e-16 0)
(0.110687 -1.6481e-16 0)
(0.110687 -3.82428e-17 0)
(0.110687 2.57809e-17 0)
(0.110687 -5.67983e-17 0)
(0.110687 1.77708e-16 0)
(0.110687 -1.06063e-16 0)
(0.110687 -2.05858e-17 0)
(0.110687 9.90465e-17 0)
(0.110687 -1.66417e-16 0)
(0.110687 3.55535e-17 0)
(0.110687 -3.89911e-17 0)
(0.110687 -9.48436e-17 0)
(0.110687 1.83714e-16 0)
(0.110687 -4.6554e-17 0)
(0.110687 -2.79063e-17 0)
(0.110687 -1.06069e-16 0)
(0.110687 2.46662e-17 0)
(0.110687 2.72029e-16 0)
(0.110687 -1.66146e-16 0)
(0.110687 -6.33097e-17 0)
(0.110687 -1.12339e-16 0)
(0.110687 5.25564e-17 0)
(0.110687 3.23257e-16 0)
(0.110687 -6.68391e-17 0)
(0.110687 -2.26454e-16 0)
(0.110687 -1.29279e-16 0)
(0.110687 1.89961e-16 0)
(0.110687 2.17955e-16 0)
(0.110687 -8.71223e-17 0)
(0.110687 -2.27259e-16 0)
(0.110687 -1.01912e-16 0)
(0.110687 3.65994e-16 0)
(0.110687 3.17576e-17 0)
(0.110687 -3.1908e-16 0)
(0.110687 2.75277e-16 0)
(0.110687 1.1255e-16 0)
(0.110687 -1.5901e-16 0)
(0.110687 -1.62139e-16 0)
(0.110687 -1.46405e-16 0)
(0.110687 3.6805e-16 0)
(0.110687 1.4999e-16 0)
(0.110687 -2.14333e-16 0)
(0.110687 -1.83673e-16 0)
(0.110687 -1.51574e-16 0)
(0.110687 3.49231e-16 0)
(0.110687 4.53782e-17 0)
(0.110687 -1.60658e-16 0)
(0.110687 2.73442e-17 0)
(0.110687 -1.04553e-16 0)
(0.110687 1.06863e-16 0)
(0.110687 -3.42752e-17 0)
(0.110687 5.29347e-17 0)
(0.110687 4.83414e-17 0)
(0.110687 -2.83876e-16 0)
(0.110687 3.09888e-17 0)
(0.110687 9.89572e-17 0)
(0.110687 1.8162e-17 0)
(0.110687 4.0684e-17 0)
(0.110687 -1.74079e-16 0)
(0.110687 8.52709e-17 0)
(0.110687 -3.4186e-17 0)
(0.110687 1.11694e-17 0)
(0.110687 9.20514e-17 0)
(0.110687 -3.06829e-16 0)
(0.110687 -4.26023e-17 0)
(0.110687 1.33333e-16 0)
(0.110687 1.39618e-16 0)
(0.110687 -2.98535e-18 0)
(0.110687 -2.32642e-16 0)
(0.110687 1.79541e-16 0)
(0.110687 7.19936e-17 0)
(0.110687 -4.15806e-17 0)
(0.110687 2.58838e-18 0)
(0.110687 -2.07586e-16 0)
(0.110687 2.28584e-16 0)
(0.110687 6.92058e-17 0)
(0.110687 -2.01574e-17 0)
(0.110687 6.62959e-17 0)
(0.110687 -2.51044e-16 0)
(0.110687 9.66699e-17 0)
(0.110687 9.62066e-17 0)
(0.110687 -6.58481e-17 0)
(0.110687 -9.74757e-18 0)
(0.110687 -1.07697e-16 0)
(0.110687 2.00627e-16 0)
(0.110687 1.65011e-16 0)
(0.110687 3.12843e-17 0)
(0.110687 -8.29362e-17 0)
(0.110687 -1.86959e-16 0)
(0.110687 9.67242e-17 0)
(0.110687 5.94774e-17 0)
(0.110687 1.01476e-16 0)
(0.110687 -1.00088e-16 0)
(0.110687 -2.19499e-16 0)
(0.110687 6.51161e-17 0)
(0.110687 -2.27964e-17 0)
(0.110687 -1.2381e-16 0)
(0.110687 6.9599e-17 0)
(0.110687 -7.8577e-17 0)
(0.110687 2.87535e-17 0)
(0.110687 1.28402e-16 0)
(0.110687 1.01242e-17 0)
(0.110687 -7.39e-17 0)
(0.110687 -1.60925e-16 0)
(0.110687 6.18516e-17 0)
(0.110687 2.11871e-16 0)
(0.110687 1.37149e-16 0)
(0.110687 -2.36249e-16 0)
(0.110687 -1.60373e-16 0)
(0.110687 2.23322e-16 0)
(0.110687 5.00428e-18 0)
(0.110687 -7.09638e-17 0)
(0.110687 -1.22e-16 0)
(0.110687 3.53711e-19 0)
(0.110687 2.96925e-16 0)
(0.110687 -7.15407e-17 0)
(0.110687 -6.95065e-17 0)
(0.110687 -1.47753e-16 0)
(0.110687 -4.44198e-18 0)
(0.110687 3.27413e-16 0)
(0.110687 -1.39968e-17 0)
(0.110687 7.03798e-17 0)
(0.110687 -1.52268e-16 0)
(0.110687 -3.68227e-16 0)
(0.110687 -4.49806e-17 0)
(0.110687 5.27411e-17 0)
(0.110687 1.0805e-16 0)
(0.110687 -1.8659e-16 0)
(0.110687 -5.96518e-17 0)
(0.110687 -9.46784e-18 0)
(0.110687 -1.25295e-16 0)
(0.110687 1.39714e-16 0)
(0.110687 -1.55743e-16 0)
(0.110687 -2.48895e-16 0)
(0.110687 -7.44527e-17 0)
(0.110687 -4.08047e-16 0)
(0.110687 -4.56305e-16 0)
(0.110687 -8.41223e-16 0)
(0.110687 -1.9992e-15 0)
(0.181975 -1.98559e-15 0)
(0.181975 -1.36201e-15 0)
(0.181975 -8.90109e-16 0)
(0.181975 -5.71716e-16 0)
(0.181975 -3.53744e-16 0)
(0.181975 -2.02895e-16 0)
(0.181975 -1.33093e-16 0)
(0.181975 -8.6823e-17 0)
(0.181975 -3.78696e-17 0)
(0.181975 -3.37118e-17 0)
(0.181975 -8.8243e-18 0)
(0.181975 -2.87544e-17 0)
(0.181975 1.4795e-17 0)
(0.181975 2.20485e-18 0)
(0.181975 -4.16644e-17 0)
(0.181975 -3.29869e-18 0)
(0.181975 -1.71272e-17 0)
(0.181975 -4.19894e-17 0)
(0.181975 -7.98305e-17 0)
(0.181975 -8.08437e-17 0)
(0.181975 -5.58259e-17 0)
(0.181975 -9.86802e-17 0)
(0.181975 -1.30023e-16 0)
(0.181975 -9.76365e-17 0)
(0.181975 -1.18202e-16 0)
(0.181975 -1.09356e-16 0)
(0.181975 -4.91916e-17 0)
(0.181975 -5.03036e-17 0)
(0.181975 -7.15846e-17 0)
(0.181975 -7.83197e-17 0)
(0.181975 2.67133e-18 0)
(0.181975 1.19277e-16 0)
(0.181975 9.4436e-17 0)
(0.181975 1.67425e-17 0)
(0.181975 6.86332e-18 0)
(0.181975 1.17464e-17 0)
(0.181975 6.93771e-17 0)
(0.181975 4.60808e-17 0)
(0.181975 1.20653e-17 0)
(0.181975 6.42418e-17 0)
(0.181975 6.39732e-17 0)
(0.181975 4.28548e-17 0)
(0.181975 3.39844e-17 0)
(0.181975 -4.06316e-18 0)
(0.181975 1.87262e-17 0)
(0.181975 8.46452e-17 0)
(0.181975 7.77373e-17 0)
(0.181975 4.97128e-17 0)
(0.181975 5.85043e-18 0)
(0.181975 -1.66412e-17 0)
(0.181975 -1.54404e-17 0)
(0.181975 1.49761e-17 0)
(0.181975 1.07588e-18 0)
(0.181975 1.5723e-17 0)
(0.181975 7.6182e-17 0)
(0.181975 1.3549e-17 0)
(0.181975 1.13803e-17 0)
(0.181975 3.61443e-17 0)
(0.181975 6.02817e-17 0)
(0.181975 8.0402e-17 0)
(0.181975 -1.57219e-17 0)
(0.181975 1.34565e-16 0)
(0.181975 3.87236e-17 0)
(0.181975 -3.67655e-17 0)
(0.181975 5.02111e-17 0)
(0.181975 -1.03676e-16 0)
(0.181975 -1.01289e-17 0)
(0.181975 9.79929e-18 0)
(0.181975 3.34694e-17 0)
(0.181975 2.17649e-17 0)
(0.181975 -7.56772e-17 0)
(0.181975 -5.24719e-17 0)
(0.181975 -6.52595e-17 0)
(0.181975 3.37102e-17 0)
(0.181975 8.36564e-17 0)
(0.181975 -9.69238e-17 0)
(0.181975 -1.14282e-16 0)
(0.181975 1.54001e-18 0)
(0.181975 -1.56721e-17 0)
(0.181975 1.98028e-17 0)
(0.181975 -7.01897e-17 0)
(0.181975 -9.68456e-17 0)
(0.181975 6.28605e-17 0)
(0.181975 9.75235e-17 0)
(0.181975 5.55049e-17 0)
(0.181975 -2.00059e-17 0)
(0.181975 -2.23221e-17 0)
(0.181975 -1.00817e-16 0)
(0.181975 -4.64269e-17 0)
(0.181975 1.62191e-16 0)
(0.181975 7.62181e-18 0)
(0.181975 -5.73756e-17 0)
(0.181975 3.15802e-17 0)
(0.181975 9.76523e-18 0)
(0.181975 -1.85943e-17 0)
(0.181975 -7.25798e-17 0)
(0.181975 -6.91786e-17 0)
(0.181975 -4.58761e-17 0)
(0.181975 -1.23363e-17 0)
(0.181975 -2.95905e-17 0)
(0.181975 -8.03796e-17 0)
(0.181975 -7.15325e-17 0)
(0.181975 -9.51504e-17 0)
(0.181975 -8.09713e-17 0)
(0.181975 -3.85354e-17 0)
(0.181975 -3.15404e-17 0)
(0.181975 -1.6095e-16 0)
(0.181975 -1.20017e-16 0)
(0.181975 7.55617e-17 0)
(0.181975 1.06472e-16 0)
(0.181975 1.36174e-17 0)
(0.181975 -2.44989e-16 0)
(0.181975 -2.6361e-18 0)
(0.181975 2.03251e-16 0)
(0.181975 9.66493e-17 0)
(0.181975 -4.09181e-17 0)
(0.181975 -2.19708e-16 0)
(0.181975 -6.48599e-17 0)
(0.181975 2.70178e-16 0)
(0.181975 1.50247e-16 0)
(0.181975 -1.27727e-16 0)
(0.181975 -2.0211e-16 0)
(0.181975 5.81121e-17 0)
(0.181975 3.48739e-16 0)
(0.181975 2.22621e-16 0)
(0.181975 -1.2593e-16 0)
(0.181975 -4.07434e-16 0)
(0.181975 -2.69259e-17 0)
(0.181975 2.40683e-16 0)
(0.181975 3.85513e-17 0)
(0.181975 -8.3706e-17 0)
(0.181975 -1.91119e-16 0)
(0.181975 8.26119e-17 0)
(0.181975 2.73571e-16 0)
(0.181975 8.16203e-17 0)
(0.181975 -1.6939e-17 0)
(0.181975 -1.13771e-16 0)
(0.181975 1.38535e-17 0)
(0.181975 2.68107e-16 0)
(0.181975 1.56788e-16 0)
(0.181975 -4.07621e-17 0)
(0.181975 -1.10914e-16 0)
(0.181975 7.20329e-17 0)
(0.181975 1.02166e-16 0)
(0.181975 -2.59757e-17 0)
(0.181975 -1.03429e-16 0)
(0.181975 -1.24247e-16 0)
(0.181975 5.96024e-17 0)
(0.181975 3.19164e-17 0)
(0.181975 -4.49387e-17 0)
(0.181975 9.65543e-17 0)
(0.181975 -1.02277e-16 0)
(0.181975 -1.5594e-16 0)
(0.181975 3.4688e-17 0)
(0.181975 1.08376e-16 0)
(0.181975 1.75187e-16 0)
(0.181975 -9.46928e-18 0)
(0.181975 -8.71964e-17 0)
(0.181975 5.86507e-17 0)
(0.181975 1.59838e-16 0)
(0.181975 1.69785e-16 0)
(0.181975 -1.34092e-16 0)
(0.181975 -1.10613e-16 0)
(0.181975 1.3421e-16 0)
(0.181975 -3.89392e-17 0)
(0.181975 -6.06187e-17 0)
(0.181975 -1.0379e-16 0)
(0.181975 -1.34024e-16 0)
(0.181975 -4.31183e-17 0)
(0.181975 -5.1375e-17 0)
(0.181975 -9.74089e-17 0)
(0.181975 -1.6873e-16 0)
(0.181975 -8.32598e-17 0)
(0.181975 4.6242e-17 0)
(0.181975 7.39202e-17 0)
(0.181975 -1.59605e-16 0)
(0.181975 -1.63922e-16 0)
(0.181975 1.12145e-16 0)
(0.181975 4.49951e-17 0)
(0.181975 1.41463e-16 0)
(0.181975 2.24206e-17 0)
(0.181975 -3.37356e-16 0)
(0.181975 -9.0341e-17 0)
(0.181975 1.19293e-16 0)
(0.181975 5.5156e-17 0)
(0.181975 1.33849e-16 0)
(0.181975 -1.31306e-16 0)
(0.181975 -1.15872e-16 0)
(0.181975 1.04434e-16 0)
(0.181975 -5.45805e-17 0)
(0.181975 -8.58003e-17 0)
(0.181975 -6.03435e-17 0)
(0.181975 -6.39083e-17 0)
(0.181975 5.00265e-17 0)
(0.181975 6.56482e-18 0)
(0.181975 -2.30824e-17 0)
(0.181975 -3.55143e-17 0)
(0.181975 2.46489e-17 0)
(0.181975 1.05842e-16 0)
(0.181975 -3.67214e-17 0)
(0.181975 -5.77553e-17 0)
(0.181975 -4.87279e-17 0)
(0.181975 7.11746e-17 0)
(0.181975 1.70075e-16 0)
(0.181975 1.33534e-17 0)
(0.181975 -8.50985e-17 0)
(0.181975 -8.70554e-17 0)
(0.181975 5.65854e-17 0)
(0.181975 8.05595e-17 0)
(0.181975 -2.95636e-17 0)
(0.181975 -8.87304e-17 0)
(0.181975 -9.79927e-17 0)
(0.181975 3.50204e-16 0)
(0.181975 7.85154e-17 0)
(0.181975 -2.56989e-16 0)
(0.181975 2.26409e-16 0)
(0.181975 -3.72183e-17 0)
(0.181975 -2.72486e-17 0)
(0.181975 -1.06293e-16 0)
(0.181975 -2.40351e-16 0)
(0.181975 4.16203e-16 0)
(0.181975 1.16729e-16 0)
(0.181975 -1.51145e-16 0)
(0.181975 -1.45371e-16 0)
(0.181975 -2.77284e-16 0)
(0.181975 3.94418e-16 0)
(0.181975 6.29134e-17 0)
(0.181975 -2.35995e-16 0)
(0.181975 -1.17752e-16 0)
(0.181975 -1.55761e-16 0)
(0.181975 4.06354e-16 0)
(0.181975 8.42067e-17 0)
(0.181975 -9.42167e-17 0)
(0.181975 -6.32372e-18 0)
(0.181975 -3.80006e-16 0)
(0.181975 -2.43617e-17 0)
(0.181975 -2.28865e-17 0)
(0.181975 2.36309e-16 0)
(0.181975 2.27984e-16 0)
(0.181975 -3.66927e-16 0)
(0.181975 9.43063e-18 0)
(0.181975 -1.37692e-16 0)
(0.181975 6.05578e-17 0)
(0.181975 1.20077e-16 0)
(0.181975 -5.46415e-16 0)
(0.181975 -2.32919e-17 0)
(0.181975 1.66714e-16 0)
(0.181975 1.76533e-16 0)
(0.181975 -2.7747e-18 0)
(0.181975 -3.30454e-16 0)
(0.181975 4.56528e-16 0)
(0.181975 1.39477e-16 0)
(0.181975 -2.14545e-16 0)
(0.181975 -2.10827e-16 0)
(0.181975 -2.02577e-16 0)
(0.181975 6.4033e-16 0)
(0.181975 9.90667e-17 0)
(0.181975 -1.47963e-16 0)
(0.181975 4.16565e-17 0)
(0.181975 -3.0606e-16 0)
(0.181975 2.13175e-16 0)
(0.181975 4.08087e-17 0)
(0.181975 -5.30701e-17 0)
(0.181975 2.24803e-19 0)
(0.181975 -1.65227e-16 0)
(0.181975 4.3045e-16 0)
(0.181975 1.9564e-16 0)
(0.181975 3.61109e-17 0)
(0.181975 4.16686e-17 0)
(0.181975 -2.95032e-16 0)
(0.181975 9.63344e-17 0)
(0.181975 7.62114e-17 0)
(0.181975 6.58647e-17 0)
(0.181975 -2.10127e-17 0)
(0.181975 -3.89959e-16 0)
(0.181975 1.75584e-17 0)
(0.181975 -6.50687e-17 0)
(0.181975 -7.17947e-17 0)
(0.181975 4.85915e-17 0)
(0.181975 -2.78101e-16 0)
(0.181975 9.78279e-17 0)
(0.181975 7.10535e-17 0)
(0.181975 3.16097e-17 0)
(0.181975 5.71128e-17 0)
(0.181975 -2.57768e-16 0)
(0.181975 1.94529e-16 0)
(0.181975 2.71564e-16 0)
(0.181975 -4.02841e-17 0)
(0.181975 -1.44794e-16 0)
(0.181975 -1.77397e-16 0)
(0.181975 2.30992e-16 0)
(0.181975 1.50769e-16 0)
(0.181975 -1.84577e-16 0)
(0.181975 4.794e-18 0)
(0.181975 -4.43507e-17 0)
(0.181975 6.81946e-17 0)
(0.181975 2.03463e-16 0)
(0.181975 -1.30161e-16 0)
(0.181975 -1.29465e-16 0)
(0.181975 -1.15831e-16 0)
(0.181975 2.21154e-16 0)
(0.181975 3.86413e-16 0)
(0.181975 4.5094e-18 0)
(0.181975 -4.63932e-16 0)
(0.181975 -3.12941e-16 0)
(0.181975 2.12801e-17 0)
(0.181975 -6.20209e-17 0)
(0.181975 -5.30822e-17 0)
(0.181975 -3.24681e-16 0)
(0.181975 -5.65819e-17 0)
(0.181975 -4.75328e-18 0)
(0.181975 -1.63199e-16 0)
(0.181975 1.04286e-16 0)
(0.181975 -1.86215e-16 0)
(0.181975 -3.22282e-16 0)
(0.181975 -3.74757e-16 0)
(0.181975 -5.81448e-16 0)
(0.181975 -4.26806e-16 0)
(0.181975 -9.49804e-16 0)
(0.181975 -1.54673e-15 0)
(0.251386 -1.16148e-15 0)
(0.251386 -1.01859e-15 0)
(0.251386 -7.81565e-16 0)
(0.251386 -5.45533e-16 0)
(0.251386 -3.56165e-16 0)
(0.251386 -2.05066e-16 0)
(0.251386 -1.17526e-16 0)
(0.251386 -5.995e-17 0)
(0.251386 -4.7089e-17 0)
(0.251386 -4.59522e-17 0)
(0.251386 2.8789e-18 0)
(0.251386 3.62208e-18 0)
(0.251386 3.62202e-17 0)
(0.251386 -5.28507e-19 0)
(0.251386 -5.06315e-17 0)
(0.251386 -1.8393e-17 0)
(0.251386 -5.327e-17 0)
(0.251386 -8.53729e-17 0)
(0.251386 -1.03848e-16 0)
(0.251386 -1.08187e-16 0)
(0.251386 -1.22835e-16 0)
(0.251386 -1.53339e-16 0)
(0.251386 -1.75064e-16 0)
(0.251386 -1.90914e-16 0)
(0.251386 -2.05295e-16 0)
(0.251386 -1.19659e-16 0)
(0.251386 -5.67563e-17 0)
(0.251386 -1.00995e-16 0)
(0.251386 -1.28145e-16 0)
(0.251386 -7.22303e-17 0)
(0.251386 5.31022e-17 0)
(0.251386 1.57863e-16 0)
(0.251386 1.19213e-16 0)
(0.251386 5.19003e-17 0)
(0.251386 8.15316e-19 0)
(0.251386 1.37096e-18 0)
(0.251386 1.0087e-16 0)
(0.251386 1.14422e-16 0)
(0.251386 3.13204e-17 0)
(0.251386 8.06836e-17 0)
(0.251386 9.67289e-17 0)
(0.251386 6.34693e-17 0)
(0.251386 5.86144e-17 0)
(0.251386 3.16936e-17 0)
(0.251386 4.69266e-17 0)
(0.251386 1.12119e-16 0)
(0.251386 1.25723e-16 0)
(0.251386 9.53332e-17 0)
(0.251386 5.68267e-17 0)
(0.251386 1.42925e-17 0)
(0.251386 -2.75005e-17 0)
(0.251386 2.54372e-17 0)
(0.251386 4.75704e-17 0)
(0.251386 4.317e-17 0)
(0.251386 1.0344e-16 0)
(0.251386 3.96402e-17 0)
(0.251386 5.08375e-17 0)
(0.251386 8.59671e-17 0)
(0.251386 1.03621e-16 0)
(0.251386 1.48296e-16 0)
(0.251386 4.26678e-17 0)
(0.251386 1.04412e-16 0)
(0.251386 6.5881e-17 0)
(0.251386 1.59552e-17 0)
(0.251386 2.03232e-18 0)
(0.251386 -1.25744e-16 0)
(0.251386 4.1813e-17 0)
(0.251386 1.41165e-17 0)
(0.251386 4.45249e-17 0)
(0.251386 5.51813e-17 0)
(0.251386 -1.25421e-16 0)
(0.251386 -1.05892e-16 0)
(0.251386 -1.23867e-16 0)
(0.251386 -1.61085e-17 0)
(0.251386 1.06062e-16 0)
(0.251386 -1.17028e-16 0)
(0.251386 -1.12721e-16 0)
(0.251386 -3.17047e-17 0)
(0.251386 -4.15254e-17 0)
(0.251386 6.09454e-17 0)
(0.251386 -6.02513e-17 0)
(0.251386 -9.58306e-17 0)
(0.251386 7.92307e-17 0)
(0.251386 1.01592e-16 0)
(0.251386 1.46913e-17 0)
(0.251386 -1.08578e-16 0)
(0.251386 -4.84639e-17 0)
(0.251386 -2.79821e-17 0)
(0.251386 -2.07075e-17 0)
(0.251386 1.2796e-16 0)
(0.251386 4.64682e-17 0)
(0.251386 -2.08174e-17 0)
(0.251386 1.80843e-17 0)
(0.251386 2.49713e-17 0)
(0.251386 -1.4429e-17 0)
(0.251386 -1.38206e-16 0)
(0.251386 -7.6571e-17 0)
(0.251386 -6.14088e-17 0)
(0.251386 -1.0672e-16 0)
(0.251386 -8.54185e-17 0)
(0.251386 -1.24627e-16 0)
(0.251386 -1.65724e-16 0)
(0.251386 -2.40422e-16 0)
(0.251386 -1.44471e-16 0)
(0.251386 -2.66227e-17 0)
(0.251386 -6.5972e-17 0)
(0.251386 -2.81335e-16 0)
(0.251386 -2.38383e-16 0)
(0.251386 1.06442e-16 0)
(0.251386 2.14382e-16 0)
(0.251386 -1.40849e-17 0)
(0.251386 -2.61548e-16 0)
(0.251386 1.97896e-17 0)
(0.251386 2.27761e-16 0)
(0.251386 1.84351e-16 0)
(0.251386 3.84011e-17 0)
(0.251386 -2.99902e-16 0)
(0.251386 -1.54339e-16 0)
(0.251386 3.0852e-16 0)
(0.251386 2.61972e-16 0)
(0.251386 -1.42341e-16 0)
(0.251386 -2.83408e-16 0)
(0.251386 1.30378e-16 0)
(0.251386 4.18515e-16 0)
(0.251386 2.03662e-16 0)
(0.251386 -1.04623e-16 0)
(0.251386 -3.84948e-16 0)
(0.251386 -1.27081e-16 0)
(0.251386 2.49455e-16 0)
(0.251386 6.37228e-17 0)
(0.251386 -1.49241e-16 0)
(0.251386 -9.85243e-17 0)
(0.251386 7.59789e-17 0)
(0.251386 3.05745e-16 0)
(0.251386 2.20283e-16 0)
(0.251386 3.05473e-17 0)
(0.251386 -1.81357e-16 0)
(0.251386 -5.64353e-18 0)
(0.251386 4.39683e-16 0)
(0.251386 2.68113e-16 0)
(0.251386 -4.52409e-17 0)
(0.251386 -2.16454e-16 0)
(0.251386 1.09117e-16 0)
(0.251386 1.62176e-16 0)
(0.251386 1.10947e-17 0)
(0.251386 -9.28354e-17 0)
(0.251386 -3.37671e-16 0)
(0.251386 3.76713e-17 0)
(0.251386 1.16261e-16 0)
(0.251386 2.28998e-17 0)
(0.251386 2.12465e-17 0)
(0.251386 -2.31322e-16 0)
(0.251386 -6.11835e-17 0)
(0.251386 1.01924e-16 0)
(0.251386 1.56381e-16 0)
(0.251386 1.5143e-16 0)
(0.251386 -4.95709e-17 0)
(0.251386 -3.34744e-17 0)
(0.251386 1.71146e-16 0)
(0.251386 2.075e-16 0)
(0.251386 1.66584e-16 0)
(0.251386 -1.77211e-16 0)
(0.251386 -4.62804e-17 0)
(0.251386 1.67995e-16 0)
(0.251386 -1.71143e-16 0)
(0.251386 -1.44192e-16 0)
(0.251386 -1.54868e-16 0)
(0.251386 -1.5576e-16 0)
(0.251386 -9.068e-17 0)
(0.251386 -1.25068e-16 0)
(0.251386 -1.59379e-16 0)
(0.251386 -2.55001e-16 0)