/*--------------------------------*- C++ -*----------------------------------*\
| =========                 |                                                 |
| \\      /  F ield         | OpenFOAM: The Open Source CFD Toolbox           |
|  \\    /   O peration     | Version:  2112                                  |
|   \\  /    A nd           | Website:  www.openfoam.com                      |
|    \\/     M anipulation  |                                                 |
\*---------------------------------------------------------------------------*/
FoamFile
{
    version     2.0;
    format      ascii;
    arch        "LSB;label=32;scalar=64";
    class       volScalarField;
    location    "7";
    object      p;
}
// * * * * * * * * * * * * * * * * * * * * * * * * * * * * * * * * * * * * * //

dimensions      [0 2 -2 0 0 0 0];

internalField   nonuniform List<scalar> 
25600
(
2.52114e-14
4.82529e-14
6.19038e-14
7.10404e-14
7.76979e-14
8.29575e-14
8.74368e-14
9.13906e-14
9.49383e-14
9.81926e-14
1.01172e-13
1.04019e-13
1.06603e-13
1.09029e-13
1.11301e-13
1.13433e-13
1.15563e-13
1.17629e-13
1.1957e-13
1.21395e-13
1.23136e-13
1.2487e-13
1.26572e-13
1.28236e-13
1.29838e-13
1.3133e-13
1.32793e-13
1.34411e-13
1.36008e-13
1.37486e-13
1.38921e-13
1.4035e-13
1.41829e-13
1.433e-13
1.44719e-13
1.46171e-13
1.47619e-13
1.49176e-13
1.50709e-13
1.52182e-13
1.53759e-13
1.55245e-13
1.56795e-13
1.58318e-13
1.59733e-13
1.61289e-13
1.62802e-13
1.6425e-13
1.65795e-13
1.67324e-13
1.68762e-13
1.70043e-13
1.71452e-13
1.72822e-13
1.74073e-13
1.75471e-13
1.76725e-13
1.78013e-13
1.79242e-13
1.80419e-13
1.81701e-13
1.82841e-13
1.84015e-13
1.85195e-13
1.86343e-13
1.87612e-13
1.88802e-13
1.89921e-13
1.91002e-13
1.92038e-13
1.93179e-13
1.94297e-13
1.95342e-13
1.96332e-13
1.97221e-13
1.98249e-13
1.99199e-13
2e-13
2.00888e-13
2.0181e-13
2.02836e-13
2.03738e-13
2.04333e-13
2.05023e-13
2.05823e-13
2.06779e-13
2.07735e-13
2.08373e-13
2.08849e-13
2.09507e-13
2.10411e-13
2.11188e-13
2.11623e-13
2.12019e-13
2.12726e-13
2.1343e-13
2.13799e-13
2.14158e-13
2.1449e-13
2.15089e-13
2.15781e-13
2.16115e-13
2.1649e-13
2.16775e-13
2.17234e-13
2.1782e-13
2.18332e-13
2.18669e-13
2.19007e-13
2.19527e-13
2.20049e-13
2.20636e-13
2.20683e-13
2.20813e-13
2.21292e-13
2.21771e-13
2.22046e-13
2.21932e-13
2.21943e-13
2.22287e-13
2.22642e-13
2.22872e-13
2.22757e-13
2.2269e-13
2.22964e-13
2.23389e-13
2.23655e-13
2.23505e-13
2.23428e-13
2.2374e-13
2.241e-13
2.24191e-13
2.24025e-13
2.24033e-13
2.24266e-13
2.24336e-13
2.24355e-13
2.24258e-13
2.24129e-13
2.24204e-13
2.24327e-13
2.24378e-13
2.24336e-13
2.24349e-13
2.24466e-13
2.2448e-13
2.24611e-13
2.24599e-13
2.24483e-13
2.2435e-13
2.24314e-13
2.2466e-13
2.24698e-13
2.24358e-13
2.24265e-13
2.2434e-13
2.24579e-13
2.24612e-13
2.24379e-13
2.24226e-13
2.24213e-13
2.24576e-13
2.24576e-13
2.24403e-13
2.2459e-13
2.24482e-13
2.24645e-13
2.24688e-13
2.24392e-13
2.24301e-13
2.24212e-13
2.2434e-13
2.24165e-13
2.23989e-13
2.23936e-13
2.23638e-13
2.23492e-13
2.23049e-13
2.23091e-13
2.22998e-13
2.22649e-13
2.22836e-13
2.22622e-13
2.22398e-13
2.22284e-13
2.21844e-13
2.21941e-13
2.21717e-13
2.21425e-13
2.21465e-13
2.20978e-13
2.20774e-13
2.20524e-13
2.19947e-13
2.19894e-13
2.1962e-13
2.19328e-13
2.18705e-13
2.17994e-13
2.18078e-13
2.17688e-13
2.17208e-13
2.16493e-13
2.15767e-13
2.15927e-13
2.15681e-13
2.14947e-13
2.13952e-13
2.13403e-13
2.13408e-13
2.13165e-13
2.12354e-13
2.11171e-13
2.11067e-13
2.10976e-13
2.09773e-13
2.09481e-13
2.09458e-13
2.09004e-13
2.08219e-13
2.06991e-13
2.06786e-13
2.06861e-13
2.06246e-13
2.05315e-13
2.03993e-13
2.03657e-13
2.03391e-13
2.02708e-13
2.02078e-13
2.01014e-13
2.00546e-13
2.00028e-13
1.9937e-13
1.98958e-13
1.97886e-13
1.97185e-13
1.96583e-13
1.9592e-13
1.95419e-13
1.94288e-13
1.937e-13
1.93004e-13
1.92182e-13
1.91851e-13
1.90705e-13
1.89474e-13
1.88594e-13
1.88099e-13
1.87559e-13
1.86219e-13
1.85406e-13
1.84679e-13
1.83818e-13
1.83058e-13
1.81616e-13
1.8075e-13
1.79911e-13
1.79024e-13
1.78399e-13
1.7707e-13
1.76108e-13
1.75317e-13
1.74293e-13
1.73329e-13
1.71866e-13
1.70907e-13
1.70253e-13
1.694e-13
1.68453e-13
1.67045e-13
1.66033e-13
1.65119e-13
1.64179e-13
1.63244e-13
1.61955e-13
1.6086e-13
1.59914e-13
1.58578e-13
1.57511e-13
1.56261e-13
1.55002e-13
1.54007e-13
1.52758e-13
1.5161e-13
1.50151e-13
1.48565e-13
1.47494e-13
1.46578e-13
1.45169e-13
1.43319e-13
1.41871e-13
1.4073e-13
1.39426e-13
1.37568e-13
1.35637e-13
1.34299e-13
1.32748e-13
1.31214e-13
1.29041e-13
1.2668e-13
1.2494e-13
1.2304e-13
1.21287e-13
1.19146e-13
1.16521e-13
1.1388e-13
1.11165e-13
1.08783e-13
1.0583e-13
1.02655e-13
9.94321e-14
9.56412e-14
9.21778e-14
8.81198e-14
8.31763e-14
7.78053e-14
7.09414e-14
6.20422e-14
4.86038e-14
5.24548e-14
5.88562e-14
6.6608e-14
7.35252e-14
7.91992e-14
8.39031e-14
8.81222e-14
9.19075e-14
9.53936e-14
9.8552e-14
1.01467e-13
1.04284e-13
1.0685e-13
1.09176e-13
1.1139e-13
1.13546e-13
1.15687e-13
1.17768e-13
1.19641e-13
1.21431e-13
1.23192e-13
1.24965e-13
1.26613e-13
1.28249e-13
1.2981e-13
1.3137e-13
1.32905e-13
1.34456e-13
1.35974e-13
1.37476e-13
1.38989e-13
1.40427e-13
1.41892e-13
1.43312e-13
1.44729e-13
1.46193e-13
1.47621e-13
1.49118e-13
1.50695e-13
1.52264e-13
1.53778e-13
1.55296e-13
1.5679e-13
1.58324e-13
1.59809e-13
1.61275e-13
1.62831e-13
1.64292e-13
1.65816e-13
1.67369e-13
1.6872e-13
1.70138e-13
1.71519e-13
1.72875e-13
1.74164e-13
1.75411e-13
1.767e-13
1.78043e-13
1.7932e-13
1.80492e-13
1.81681e-13
1.82831e-13
1.84031e-13
1.85188e-13
1.86404e-13
1.87612e-13
1.88788e-13
1.8989e-13
1.91058e-13
1.92106e-13
1.93173e-13
1.94255e-13
1.9533e-13
1.96383e-13
1.97291e-13
1.98246e-13
1.99138e-13
2.0004e-13
2.00912e-13
2.01858e-13
2.02859e-13
2.03685e-13
2.04293e-13
2.05119e-13
2.05934e-13
2.06781e-13
2.0759e-13
2.08335e-13
2.09034e-13
2.09724e-13
2.10405e-13
2.11015e-13
2.11612e-13
2.12202e-13
2.12706e-13
2.13272e-13
2.13785e-13
2.14196e-13
2.14672e-13
2.15175e-13
2.15556e-13
2.16043e-13
2.16462e-13
2.1688e-13
2.17283e-13
2.17692e-13
2.18234e-13
2.18775e-13
2.19071e-13
2.19493e-13
2.20027e-13
2.20489e-13
2.20822e-13
2.21054e-13
2.21307e-13
2.2164e-13
2.22014e-13
2.22069e-13
2.22047e-13
2.22265e-13
2.22667e-13
2.22811e-13
2.22782e-13
2.22819e-13
2.2298e-13
2.2329e-13
2.23625e-13
2.23521e-13
2.2352e-13
2.23771e-13
2.24061e-13
2.24158e-13
2.2415e-13
2.2407e-13
2.24227e-13
2.24339e-13
2.2438e-13
2.24313e-13
2.24144e-13
2.24157e-13
2.24316e-13
2.24356e-13
2.24369e-13
2.24347e-13
2.24465e-13
2.24511e-13
2.24518e-13
2.24442e-13
2.24535e-13
2.24493e-13
2.2445e-13
2.24535e-13
2.24504e-13
2.2435e-13
2.24426e-13
2.24433e-13
2.24548e-13
2.24567e-13
2.24433e-13
2.24253e-13
2.24282e-13
2.24457e-13
2.24528e-13
2.24447e-13
2.24477e-13
2.2455e-13
2.24537e-13
2.24548e-13
2.24529e-13
2.24411e-13
2.24323e-13
2.24196e-13
2.24062e-13
2.23919e-13
2.23764e-13
2.23777e-13
2.23615e-13
2.23202e-13
2.2301e-13
2.22804e-13
2.22851e-13
2.22847e-13
2.22609e-13
2.22275e-13
2.22205e-13
2.22082e-13
2.21894e-13
2.2175e-13
2.21462e-13
2.21189e-13
2.21024e-13
2.20795e-13
2.20466e-13
2.20174e-13
2.19819e-13
2.19536e-13
2.19185e-13
2.18906e-13
2.18446e-13
2.17917e-13
2.17488e-13
2.17077e-13
2.16597e-13
2.16193e-13
2.15739e-13
2.15344e-13
2.14914e-13
2.14323e-13
2.13767e-13
2.13196e-13
2.12716e-13
2.12236e-13
2.11534e-13
2.11083e-13
2.10696e-13
2.10179e-13
2.09728e-13
2.09062e-13
2.08624e-13
2.08183e-13
2.07501e-13
2.07047e-13
2.0656e-13
2.05946e-13
2.05239e-13
2.04417e-13
2.03797e-13
2.03284e-13
2.02662e-13
2.01899e-13
2.01122e-13
2.00527e-13
1.99984e-13
1.99427e-13
1.98905e-13
1.981e-13
1.97299e-13
1.96401e-13
1.95753e-13
1.95304e-13
1.94528e-13
1.93824e-13
1.92985e-13
1.9211e-13
1.91584e-13
1.90658e-13
1.8976e-13
1.88837e-13
1.88052e-13
1.87319e-13
1.86256e-13
1.85477e-13
1.84814e-13
1.83927e-13
1.82855e-13
1.81607e-13
1.80868e-13
1.80002e-13
1.79061e-13
1.78254e-13
1.77126e-13
1.76225e-13
1.75349e-13
1.74304e-13
1.73171e-13
1.71985e-13
1.71124e-13
1.70235e-13
1.69211e-13
1.6837e-13
1.67192e-13
1.66138e-13
1.65003e-13
1.64088e-13
1.63203e-13
1.62039e-13
1.60909e-13
1.59745e-13
1.58656e-13
1.57629e-13
1.5637e-13
1.55159e-13
1.53863e-13
1.52658e-13
1.51587e-13
1.50114e-13
1.48826e-13
1.47662e-13
1.46475e-13
1.45055e-13
1.43507e-13
1.42087e-13
1.40771e-13
1.39138e-13
1.3762e-13
1.35958e-13
1.3435e-13
1.32897e-13
1.31028e-13
1.29143e-13
1.27028e-13
1.2504e-13
1.23211e-13
1.21208e-13
1.19034e-13
1.16568e-13
1.141e-13
1.11643e-13
1.08935e-13
1.05995e-13
1.02854e-13
9.97216e-14
9.62218e-14
9.25324e-14
8.85913e-14
8.42763e-14
7.92707e-14
7.33686e-14
6.66384e-14
5.89913e-14
6.55778e-14
6.8009e-14
7.25566e-14
7.73349e-14
8.15919e-14
8.56355e-14
8.9447e-14
9.2993e-14
9.61783e-14
9.92092e-14
1.02004e-13
1.04793e-13
1.07203e-13
1.09552e-13
1.11737e-13
1.13799e-13
1.15904e-13
1.17989e-13
1.19837e-13
1.21635e-13
1.23387e-13
1.25055e-13
1.2676e-13
1.28307e-13
1.29835e-13
1.31509e-13
1.33002e-13
1.3447e-13
1.36003e-13
1.37581e-13
1.39045e-13
1.40537e-13
1.41933e-13
1.43411e-13
1.44753e-13
1.4616e-13
1.47596e-13
1.49073e-13
1.50707e-13
1.52369e-13
1.53861e-13
1.55397e-13
1.56794e-13
1.5833e-13
1.5979e-13
1.61317e-13
1.62887e-13
1.64345e-13
1.65836e-13
1.67374e-13
1.6876e-13
1.70272e-13
1.71628e-13
1.72948e-13
1.74258e-13
1.75436e-13
1.76743e-13
1.78054e-13
1.79409e-13
1.80544e-13
1.81707e-13
1.82939e-13
1.84013e-13
1.85141e-13
1.86413e-13
1.87625e-13
1.88833e-13
1.90018e-13
1.91098e-13
1.92175e-13
1.93285e-13
1.94278e-13
1.9535e-13
1.96389e-13
1.97285e-13
1.98252e-13
1.99143e-13
2.00183e-13
2.00983e-13
2.0197e-13
2.02932e-13
2.03697e-13
2.0434e-13
2.05153e-13
2.05975e-13
2.06766e-13
2.07583e-13
2.08342e-13
2.09128e-13
2.09875e-13
2.10476e-13
2.1098e-13
2.11648e-13
2.12279e-13
2.12757e-13
2.13342e-13
2.13823e-13
2.1417e-13
2.14727e-13
2.15139e-13
2.1551e-13
2.15965e-13
2.16399e-13
2.16907e-13
2.1731e-13
2.17646e-13
2.18189e-13
2.18716e-13
2.19138e-13
2.19469e-13
2.20006e-13
2.20455e-13
2.20993e-13
2.21162e-13
2.21287e-13
2.2168e-13
2.2204e-13
2.22128e-13
2.22168e-13
2.22244e-13
2.22635e-13
2.22729e-13
2.22753e-13
2.22993e-13
2.2314e-13
2.23279e-13
2.23514e-13
2.23505e-13
2.23586e-13
2.23856e-13
2.24066e-13
2.24088e-13
2.24191e-13
2.24158e-13
2.2426e-13
2.24374e-13
2.24454e-13
2.2429e-13
2.24085e-13
2.2411e-13
2.24393e-13
2.24396e-13
2.24321e-13
2.24339e-13
2.24515e-13
2.24496e-13
2.24545e-13
2.24498e-13
2.24541e-13
2.24604e-13
2.2455e-13
2.24422e-13
2.24314e-13
2.24306e-13
2.24394e-13
2.24603e-13
2.24608e-13
2.24557e-13
2.24373e-13
2.2427e-13
2.24365e-13
2.24508e-13
2.24468e-13
2.24356e-13
2.24348e-13
2.24496e-13
2.24571e-13
2.24619e-13
2.24627e-13
2.24553e-13
2.24363e-13
2.2417e-13
2.24085e-13
2.23872e-13
2.23614e-13
2.23646e-13
2.23628e-13
2.23411e-13
2.22971e-13
2.22701e-13
2.22807e-13
2.228e-13
2.22588e-13
2.22366e-13
2.22212e-13
2.22226e-13
2.21822e-13
2.21711e-13
2.21515e-13
2.21162e-13
2.21077e-13
2.20854e-13
2.20503e-13
2.20187e-13
2.19795e-13
2.19529e-13
2.19175e-13
2.18968e-13
2.18551e-13
2.17954e-13
2.17438e-13
2.17008e-13
2.16632e-13
2.16295e-13
2.1575e-13
2.15288e-13
2.14882e-13
2.14461e-13
2.13967e-13
2.13186e-13
2.12567e-13
2.12157e-13
2.1163e-13
2.11115e-13
2.10749e-13
2.10315e-13
2.0969e-13
2.08837e-13
2.08422e-13
2.08235e-13
2.07791e-13
2.07179e-13
2.06451e-13
2.05805e-13
2.05191e-13
2.04571e-13
2.0397e-13
2.03342e-13
2.0265e-13
2.01778e-13
2.0107e-13
2.00491e-13
2.00009e-13
1.99519e-13
1.98887e-13
1.98172e-13
1.97341e-13
1.96382e-13
1.95778e-13
1.95194e-13
1.94471e-13
1.93892e-13
1.93102e-13
1.92181e-13
1.91386e-13
1.90524e-13
1.89892e-13
1.88996e-13
1.88053e-13
1.87248e-13
1.86448e-13
1.85557e-13
1.84722e-13
1.83851e-13
1.82812e-13
1.81779e-13
1.80918e-13
1.80028e-13
1.79112e-13
1.78209e-13
1.77259e-13
1.76386e-13
1.75256e-13
1.7422e-13
1.73125e-13
1.72154e-13
1.71331e-13
1.70197e-13
1.69101e-13
1.68378e-13
1.67287e-13
1.66062e-13
1.64973e-13
1.64076e-13
1.6325e-13
1.62057e-13
1.60949e-13
1.59745e-13
1.58695e-13
1.57819e-13
1.56328e-13
1.5526e-13
1.53961e-13
1.52671e-13
1.5161e-13
1.50119e-13
1.48844e-13
1.47767e-13
1.46569e-13
1.45149e-13
1.43637e-13
1.42154e-13
1.40832e-13
1.39249e-13
1.37849e-13
1.36106e-13
1.34443e-13
1.32964e-13
1.31173e-13
1.29334e-13
1.27345e-13
1.2533e-13
1.234e-13
1.21224e-13
1.18995e-13
1.16654e-13
1.14602e-13
1.1229e-13
1.09354e-13
1.06373e-13
1.03259e-13
1.00372e-13
9.71505e-14
9.35094e-14
8.99139e-14
8.60537e-14
8.17096e-14
7.70676e-14
7.24514e-14
6.81231e-14
7.43423e-14
7.55777e-14
7.81185e-14
8.14258e-14
8.46917e-14
8.78583e-14
9.11583e-14
9.44201e-14
9.73359e-14
1.00032e-13
1.02802e-13
1.05636e-13
1.0777e-13
1.1006e-13
1.12184e-13
1.14297e-13
1.16426e-13
1.18278e-13
1.20079e-13
1.22014e-13
1.23645e-13
1.25295e-13
1.26894e-13
1.28405e-13
1.30019e-13
1.31649e-13
1.33249e-13
1.34474e-13
1.36061e-13
1.37666e-13
1.39113e-13
1.40588e-13
1.41988e-13
1.43494e-13
1.44795e-13
1.46205e-13
1.47664e-13
1.49128e-13
1.50759e-13
1.52315e-13
1.53887e-13
1.55512e-13
1.56864e-13
1.5835e-13
1.59796e-13
1.6138e-13
1.63105e-13
1.64428e-13
1.65769e-13
1.67427e-13
1.68858e-13
1.70384e-13
1.7181e-13
1.73122e-13
1.74314e-13
1.75607e-13
1.76795e-13
1.78192e-13
1.79397e-13
1.8052e-13
1.81723e-13
1.82975e-13
1.84089e-13
1.85152e-13
1.8646e-13
1.87683e-13
1.88894e-13
1.90135e-13
1.91284e-13
1.92265e-13
1.93342e-13
1.94369e-13
1.9537e-13
1.96452e-13
1.97304e-13
1.98313e-13
1.9922e-13
2.00167e-13
2.01105e-13
2.02019e-13
2.03039e-13
2.03726e-13
2.04375e-13
2.05141e-13
2.0608e-13
2.06857e-13
2.07629e-13
2.08323e-13
2.09198e-13
2.09876e-13
2.10416e-13
2.11085e-13
2.11703e-13
2.12362e-13
2.12949e-13
2.13469e-13
2.13893e-13
2.14104e-13
2.14674e-13
2.15018e-13
2.15456e-13
2.1594e-13
2.16427e-13
2.16912e-13
2.17456e-13
2.17758e-13
2.18008e-13
2.18554e-13
2.19154e-13
2.19526e-13
2.19879e-13
2.20457e-13
2.21194e-13
2.21337e-13
2.21521e-13
2.21782e-13
2.21911e-13
2.22121e-13
2.22342e-13
2.22403e-13
2.22581e-13
2.2255e-13
2.22778e-13
2.23137e-13
2.23262e-13
2.23432e-13
2.2345e-13
2.2356e-13
2.2365e-13
2.2375e-13
2.24043e-13
2.24038e-13
2.24195e-13
2.24319e-13
2.24352e-13
2.24253e-13
2.24343e-13
2.24187e-13
2.24141e-13
2.24137e-13
2.24357e-13
2.24297e-13
2.24396e-13
2.2439e-13
2.24472e-13
2.24583e-13
2.24631e-13
2.24637e-13
2.24645e-13
2.24599e-13
2.24485e-13
2.24415e-13
2.24293e-13
2.24165e-13
2.24382e-13
2.24683e-13
2.24566e-13
2.24361e-13
2.24299e-13
2.24323e-13
2.24543e-13
2.24437e-13
2.24361e-13
2.24243e-13
2.24444e-13
2.24643e-13
2.24648e-13
2.24761e-13
2.24703e-13
2.24572e-13
2.2425e-13
2.24375e-13
2.24039e-13
2.23756e-13
2.23786e-13
2.23494e-13
2.2351e-13
2.23348e-13
2.22947e-13
2.22694e-13
2.22754e-13
2.22822e-13
2.22713e-13
2.22459e-13
2.22301e-13
2.22183e-13
2.21746e-13
2.21693e-13
2.21405e-13
2.21297e-13
2.2127e-13
2.20934e-13
2.20513e-13
2.20167e-13
2.20021e-13
2.19627e-13
2.19216e-13
2.18774e-13
2.18333e-13
2.18022e-13
2.17522e-13
2.16992e-13
2.16619e-13
2.1619e-13
2.15802e-13
2.15465e-13
2.14894e-13
2.14299e-13
2.13968e-13
2.13357e-13
2.12856e-13
2.12226e-13
2.1156e-13
2.11118e-13
2.10873e-13
2.1028e-13
2.09484e-13
2.08901e-13
2.08324e-13
2.08211e-13
2.07931e-13
2.07178e-13
2.06405e-13
2.0586e-13
2.05249e-13
2.0459e-13
2.04118e-13
2.03399e-13
2.02707e-13
2.01991e-13
2.0109e-13
2.0052e-13
2.00058e-13
1.99417e-13
1.98716e-13
1.98108e-13
1.97507e-13
1.966e-13
1.95724e-13
1.95122e-13
1.94582e-13
1.94054e-13
1.93016e-13
1.92121e-13
1.91357e-13
1.90737e-13
1.90057e-13
1.88881e-13
1.88038e-13
1.87253e-13
1.86443e-13
1.85696e-13
1.84731e-13
1.83735e-13
1.8271e-13
1.82035e-13
1.8095e-13
1.8008e-13
1.79068e-13
1.78157e-13
1.77584e-13
1.76384e-13
1.75177e-13
1.7417e-13
1.73332e-13
1.72316e-13
1.71301e-13
1.7019e-13
1.69184e-13
1.68246e-13
1.67153e-13
1.66077e-13
1.651e-13
1.64261e-13
1.63267e-13
1.62192e-13
1.60999e-13
1.59821e-13
1.58663e-13
1.57663e-13
1.56573e-13
1.5535e-13
1.5403e-13
1.52878e-13
1.5164e-13
1.50314e-13
1.48887e-13
1.47707e-13
1.46498e-13
1.45239e-13
1.43985e-13
1.42405e-13
1.40746e-13
1.39275e-13
1.38032e-13
1.36517e-13
1.34788e-13
1.33046e-13
1.31368e-13
1.29523e-13
1.27597e-13
1.25661e-13
1.23761e-13
1.2171e-13
1.19307e-13
1.17228e-13
1.15027e-13
1.12745e-13
1.09904e-13
1.07099e-13
1.04155e-13
1.01339e-13
9.83501e-14
9.48248e-14
9.15965e-14
8.84105e-14
8.48063e-14
8.12095e-14
7.79653e-14
7.55955e-14
8.08654e-14
8.144e-14
8.31963e-14
8.56282e-14
8.7934e-14
9.05429e-14
9.32147e-14
9.58708e-14
9.87562e-14
1.01327e-13
1.03943e-13
1.06576e-13
1.08725e-13
1.10768e-13
1.12741e-13
1.14793e-13
1.16888e-13
1.18812e-13
1.2049e-13
1.2244e-13
1.24032e-13
1.25721e-13
1.2711e-13
1.28568e-13
1.30352e-13
1.31724e-13
1.33386e-13
1.34809e-13
1.36299e-13
1.37691e-13
1.39234e-13
1.40613e-13
1.42144e-13
1.43685e-13
1.44889e-13
1.46221e-13
1.47615e-13
1.49063e-13
1.50748e-13
1.52402e-13
1.54022e-13
1.55677e-13
1.56979e-13
1.58434e-13
1.6004e-13
1.61413e-13
1.62926e-13
1.64406e-13
1.65895e-13
1.67491e-13
1.68902e-13
1.70555e-13
1.71851e-13
1.73162e-13
1.74523e-13
1.75727e-13
1.76962e-13
1.78187e-13
1.79378e-13
1.80641e-13
1.81792e-13
1.82933e-13
1.84145e-13
1.85183e-13
1.8642e-13
1.87722e-13
1.89047e-13
1.90112e-13
1.91348e-13
1.92455e-13
1.93457e-13
1.94407e-13
1.9546e-13
1.96709e-13
1.97543e-13
1.9864e-13
1.99364e-13
2.00002e-13
2.01065e-13
2.02002e-13
2.03016e-13
2.03876e-13
2.04457e-13
2.05222e-13
2.06033e-13
2.06897e-13
2.07722e-13
2.08493e-13
2.09169e-13
2.09903e-13
2.1051e-13
2.11164e-13
2.11874e-13
2.12564e-13
2.13096e-13
2.13487e-13
2.13947e-13
2.1421e-13
2.14676e-13
2.15074e-13
2.15514e-13
2.16027e-13
2.16418e-13
2.16938e-13
2.17416e-13
2.17772e-13
2.18084e-13
2.18544e-13
2.1918e-13
2.19566e-13
2.19945e-13
2.20529e-13
2.21145e-13
2.21366e-13
2.21709e-13
2.21839e-13
2.21806e-13
2.22151e-13
2.22469e-13
2.22632e-13
2.22631e-13
2.22672e-13
2.22903e-13
2.23255e-13
2.23223e-13
2.23437e-13
2.23594e-13
2.23741e-13
2.23662e-13
2.23713e-13
2.23966e-13
2.24079e-13
2.24186e-13
2.24375e-13
2.24185e-13
2.24002e-13
2.24231e-13
2.24266e-13
2.24315e-13
2.24236e-13
2.24231e-13
2.24176e-13
2.24484e-13
2.24552e-13
2.24506e-13
2.24584e-13
2.24705e-13
2.248e-13
2.24873e-13
2.24473e-13
2.24349e-13
2.24438e-13
2.24439e-13
2.24246e-13
2.24326e-13
2.24489e-13
2.24471e-13
2.24337e-13
2.24387e-13
2.24307e-13
2.24415e-13
2.24371e-13
2.24447e-13
2.2444e-13
2.24496e-13
2.24707e-13
2.24756e-13
2.24673e-13
2.24723e-13
2.24669e-13
2.24484e-13
2.24189e-13
2.23903e-13
2.23968e-13
2.23787e-13
2.23526e-13
2.23471e-13
2.23131e-13
2.22925e-13
2.22973e-13
2.22836e-13
2.22786e-13
2.22697e-13
2.22299e-13
2.22165e-13
2.22111e-13
2.21782e-13
2.21648e-13
2.21409e-13
2.2136e-13
2.21312e-13
2.21025e-13
2.20627e-13
2.20331e-13
2.20054e-13
2.19525e-13
2.19324e-13
2.18872e-13
2.18251e-13
2.17885e-13
2.17467e-13
2.17025e-13
2.1671e-13
2.162e-13
2.15778e-13
2.15545e-13
2.14956e-13
2.1433e-13
2.13978e-13
2.13496e-13
2.1292e-13
2.12075e-13
2.11625e-13
2.11216e-13
2.10794e-13
2.10208e-13
2.09551e-13
2.08974e-13
2.08508e-13
2.08149e-13
2.07708e-13
2.07158e-13
2.06566e-13
2.05928e-13
2.05267e-13
2.04617e-13
2.04021e-13
2.03502e-13
2.0281e-13
2.02083e-13
2.00999e-13
2.00282e-13
1.99896e-13
1.99345e-13
1.98665e-13
1.98047e-13
1.9763e-13
1.96748e-13
1.95743e-13
1.95122e-13
1.94727e-13
1.9381e-13
1.92864e-13
1.92176e-13
1.9143e-13
1.90891e-13
1.90183e-13
1.8907e-13
1.88205e-13
1.87225e-13
1.86357e-13
1.85672e-13
1.84742e-13
1.8381e-13
1.82791e-13
1.82178e-13
1.81052e-13
1.80072e-13
1.79117e-13
1.78159e-13
1.77421e-13
1.76433e-13
1.75408e-13
1.74375e-13
1.73294e-13
1.72385e-13
1.71173e-13
1.70258e-13
1.69193e-13
1.68033e-13
1.67264e-13
1.66189e-13
1.65378e-13
1.64322e-13
1.63181e-13
1.62376e-13
1.6111e-13
1.59991e-13
1.58795e-13
1.57567e-13
1.56464e-13
1.55509e-13
1.54307e-13
1.531e-13
1.51577e-13
1.5051e-13
1.49011e-13
1.47684e-13
1.46515e-13
1.45324e-13
1.44334e-13
1.42412e-13
1.40982e-13
1.39546e-13
1.38209e-13
1.36968e-13
1.35138e-13
1.33153e-13
1.31571e-13
1.29921e-13
1.27976e-13
1.25865e-13
1.24217e-13
1.22244e-13
1.19991e-13
1.18002e-13
1.15654e-13
1.13252e-13
1.10754e-13
1.08016e-13
1.05435e-13
1.02549e-13
9.96371e-14
9.67821e-14
9.36903e-14
9.09652e-14
8.82594e-14
8.53916e-14
8.30336e-14
8.17042e-14
8.59751e-14
8.64314e-14
8.77774e-14
8.95067e-14
9.12519e-14
9.33299e-14
9.55302e-14
9.78095e-14
1.00231e-13
1.02664e-13
1.05117e-13
1.07675e-13
1.09827e-13
1.11577e-13
1.13432e-13
1.15507e-13
1.17532e-13
1.19508e-13
1.21056e-13
1.22774e-13
1.24367e-13
1.25865e-13
1.27408e-13
1.28902e-13
1.30547e-13
1.31959e-13
1.33562e-13
1.34891e-13
1.36407e-13
1.37795e-13
1.39383e-13
1.40797e-13
1.42345e-13
1.43739e-13
1.45012e-13
1.46229e-13
1.47562e-13
1.49078e-13
1.5071e-13
1.52537e-13
1.54144e-13
1.55731e-13
1.57164e-13
1.58531e-13
1.59995e-13
1.61529e-13
1.62779e-13
1.64485e-13
1.66012e-13
1.6764e-13
1.69205e-13
1.70542e-13
1.71778e-13
1.73232e-13
1.74614e-13
1.75888e-13
1.77191e-13
1.78321e-13
1.79496e-13
1.80753e-13
1.82039e-13
1.83015e-13
1.84101e-13
1.85223e-13
1.86377e-13
1.87746e-13
1.89044e-13
1.90163e-13
1.9151e-13
1.92667e-13
1.93693e-13
1.94417e-13
1.95631e-13
1.96823e-13
1.97741e-13
1.98749e-13
1.99457e-13
2.00134e-13
2.01017e-13
2.021e-13
2.02995e-13
2.039e-13
2.04411e-13
2.05481e-13
2.06265e-13
2.06969e-13
2.07836e-13
2.08593e-13
2.09229e-13
2.09942e-13
2.10617e-13
2.11218e-13
2.11852e-13
2.12704e-13
2.13046e-13
2.13551e-13
2.14187e-13
2.14617e-13
2.14872e-13
2.15118e-13
2.15665e-13
2.16067e-13
2.16617e-13
2.17129e-13
2.17424e-13
2.17641e-13
2.18083e-13
2.18461e-13
2.19079e-13
2.19547e-13
2.20049e-13
2.20587e-13
2.21177e-13
2.21328e-13
2.21823e-13
2.21868e-13
2.22045e-13
2.2231e-13
2.22516e-13
2.22757e-13
2.22694e-13
2.22763e-13
2.23167e-13
2.23395e-13
2.23353e-13
2.23521e-13
2.23633e-13
2.23748e-13
2.23701e-13
2.23884e-13
2.2392e-13
2.2395e-13
2.24006e-13
2.24108e-13
2.23977e-13
2.23858e-13
2.24216e-13
2.24483e-13
2.24424e-13
2.24275e-13
2.24375e-13
2.24359e-13
2.24368e-13
2.24576e-13
2.24615e-13
2.24651e-13
2.24821e-13
2.24831e-13
2.24748e-13
2.24637e-13
2.24474e-13
2.24465e-13
2.24388e-13
2.24235e-13
2.24333e-13
2.24446e-13
2.24387e-13
2.24231e-13
2.24499e-13
2.24558e-13
2.24243e-13
2.24356e-13
2.24599e-13
2.24441e-13
2.24387e-13
2.24735e-13
2.24904e-13
2.24861e-13
2.24834e-13
2.24667e-13
2.24472e-13
2.24147e-13
2.24099e-13
2.23867e-13
2.23861e-13
2.2366e-13
2.2341e-13
2.2305e-13
2.23029e-13
2.23006e-13
2.22765e-13
2.22548e-13
2.22458e-13
2.22425e-13
2.22322e-13
2.22001e-13
2.21785e-13
2.21757e-13
2.21446e-13
2.21371e-13
2.21258e-13
2.21066e-13
2.2071e-13
2.20319e-13
2.20059e-13
2.1972e-13
2.19307e-13
2.18761e-13
2.18321e-13
2.18019e-13
2.17474e-13
2.17024e-13
2.16831e-13
2.16261e-13
2.1583e-13
2.15386e-13
2.14833e-13
2.14229e-13
2.13957e-13
2.13716e-13
2.13145e-13
2.12333e-13
2.118e-13
2.11171e-13
2.10703e-13
2.10264e-13
2.09528e-13
2.08797e-13
2.08521e-13
2.08201e-13
2.07813e-13
2.07232e-13
2.0668e-13
2.05694e-13
2.0508e-13
2.04703e-13
2.04127e-13
2.03348e-13
2.02696e-13
2.01903e-13
2.01085e-13
2.00465e-13
1.9986e-13
1.99324e-13
1.98731e-13
1.97875e-13
1.97668e-13
1.96912e-13
1.95827e-13
1.95034e-13
1.94542e-13
1.93917e-13
1.93e-13
1.92236e-13
1.91372e-13
1.90793e-13
1.90069e-13
1.8904e-13
1.88384e-13
1.87524e-13
1.86669e-13
1.85526e-13
1.84565e-13
1.83852e-13
1.82933e-13
1.82128e-13
1.8103e-13
1.80255e-13
1.79267e-13
1.78155e-13
1.77633e-13
1.7658e-13
1.75458e-13
1.74196e-13
1.73172e-13
1.72355e-13
1.71244e-13
1.70289e-13
1.69246e-13
1.68057e-13
1.67283e-13
1.66407e-13
1.6546e-13
1.6445e-13
1.63461e-13
1.62406e-13
1.61261e-13
1.60057e-13
1.58951e-13
1.57621e-13
1.56607e-13
1.55696e-13
1.5444e-13
1.5314e-13
1.51644e-13
1.50563e-13
1.49291e-13
1.47941e-13
1.46706e-13
1.45462e-13
1.44188e-13
1.4269e-13
1.41302e-13
1.39801e-13
1.38549e-13
1.37125e-13
1.35424e-13
1.33734e-13
1.32095e-13
1.30209e-13
1.28256e-13
1.26621e-13
1.24774e-13
1.22785e-13
1.20622e-13
1.18759e-13
1.16601e-13
1.14116e-13
1.11702e-13
1.09166e-13
1.06608e-13
1.04166e-13
1.01376e-13
9.87355e-14
9.60128e-14
9.35108e-14
9.13852e-14
8.94087e-14
8.76208e-14
8.65807e-14
9.02702e-14
9.07948e-14
9.17842e-14
9.29765e-14
9.43452e-14
9.59082e-14
9.78006e-14
9.98637e-14
1.01947e-13
1.04104e-13
1.06367e-13
1.0875e-13
1.10949e-13
1.12782e-13
1.14504e-13
1.16453e-13
1.1824e-13
1.19741e-13
1.21532e-13
1.23123e-13
1.2477e-13
1.26224e-13
1.27695e-13
1.29168e-13
1.30848e-13
1.32251e-13
1.33789e-13
1.35003e-13
1.36577e-13
1.37952e-13
1.39681e-13
1.40976e-13
1.4244e-13
1.43972e-13
1.45161e-13
1.46219e-13
1.47626e-13
1.49276e-13
1.50916e-13
1.52545e-13
1.54184e-13
1.55629e-13
1.57071e-13
1.58816e-13
1.6006e-13
1.61459e-13
1.6282e-13
1.64437e-13
1.66122e-13
1.67797e-13
1.69283e-13
1.70546e-13
1.71921e-13
1.73423e-13
1.74658e-13
1.76103e-13
1.77419e-13
1.78557e-13
1.7961e-13
1.80978e-13
1.82193e-13
1.83284e-13
1.84092e-13
1.85208e-13
1.86507e-13
1.87917e-13
1.8891e-13
1.90051e-13
1.91579e-13
1.92965e-13
1.94034e-13
1.94744e-13
1.95702e-13
1.96896e-13
1.97875e-13
1.98679e-13
1.99667e-13
2.00486e-13
2.0126e-13
2.02222e-13
2.03101e-13
2.03874e-13
2.04537e-13
2.05706e-13
2.06681e-13
2.07125e-13
2.07985e-13
2.08541e-13
2.09303e-13
2.1004e-13
2.10745e-13
2.11263e-13
2.11835e-13
2.12683e-13
2.13271e-13
2.13745e-13
2.14416e-13
2.14813e-13
2.149e-13
2.15255e-13
2.15707e-13
2.16393e-13
2.16602e-13
2.17061e-13
2.17469e-13
2.17825e-13
2.18167e-13
2.18362e-13
2.19037e-13
2.19598e-13
2.20142e-13
2.20534e-13
2.21408e-13
2.21539e-13
2.21973e-13
2.2228e-13
2.22264e-13
2.22114e-13
2.22363e-13
2.2267e-13
2.22794e-13
2.22595e-13
2.23144e-13
2.23818e-13
2.236e-13
2.23565e-13
2.23673e-13
2.2357e-13
2.23755e-13
2.24053e-13
2.23813e-13
2.23754e-13
2.23929e-13
2.24121e-13
2.23971e-13
2.23504e-13
2.24018e-13
2.24509e-13
2.2463e-13
2.2418e-13
2.24405e-13
2.24501e-13
2.2437e-13
2.24783e-13
2.24638e-13
2.24659e-13
2.24817e-13
2.24781e-13
2.24802e-13
2.24899e-13
2.24607e-13
2.24465e-13
2.24091e-13
2.24235e-13
2.2437e-13
2.24441e-13
2.24346e-13
2.24414e-13
2.24473e-13
2.24321e-13
2.24193e-13
2.24355e-13
2.24631e-13
2.24416e-13
2.2443e-13
2.24775e-13
2.24904e-13
2.24787e-13
2.24912e-13
2.24806e-13
2.24269e-13
2.24352e-13
2.24053e-13
2.23898e-13
2.2395e-13
2.23888e-13
2.23423e-13
2.23006e-13
2.22762e-13
2.22853e-13
2.2295e-13
2.22624e-13
2.2234e-13
2.22291e-13
2.22248e-13
2.21925e-13
2.21916e-13
2.21818e-13
2.21564e-13
2.2141e-13
2.21144e-13
2.21091e-13
2.20917e-13
2.20341e-13
2.20119e-13
2.19661e-13
2.19318e-13
2.18748e-13
2.18288e-13
2.17882e-13
2.17497e-13
2.17428e-13
2.16853e-13
2.1615e-13
2.15939e-13
2.15455e-13
2.14733e-13
2.14269e-13
2.14001e-13
2.13779e-13
2.13086e-13
2.12644e-13
2.11789e-13
2.11367e-13
2.10845e-13
2.10157e-13
2.09475e-13
2.09055e-13
2.08419e-13
2.08004e-13
2.07821e-13
2.07351e-13
2.06402e-13
2.05687e-13
2.05062e-13
2.04824e-13
2.0415e-13
2.03463e-13
2.02712e-13
2.01816e-13
2.01303e-13
2.00513e-13
1.99698e-13
1.99263e-13
1.98591e-13
1.97875e-13
1.97386e-13
1.96837e-13
1.96002e-13
1.95136e-13
1.94534e-13
1.93952e-13
1.92926e-13
1.92322e-13
1.91318e-13
1.90804e-13
1.89996e-13
1.89209e-13
1.88396e-13
1.87618e-13
1.86798e-13
1.85429e-13
1.84551e-13
1.83943e-13
1.82878e-13
1.81959e-13
1.81105e-13
1.80349e-13
1.79224e-13
1.78251e-13
1.77736e-13
1.76682e-13
1.75545e-13
1.74463e-13
1.73139e-13
1.72342e-13
1.71346e-13
1.70354e-13
1.69384e-13
1.68265e-13
1.67466e-13
1.6645e-13
1.65285e-13
1.64542e-13
1.63757e-13
1.62491e-13
1.61186e-13
1.60136e-13
1.59128e-13
1.575e-13
1.56852e-13
1.56e-13
1.54639e-13
1.53289e-13
1.51868e-13
1.50864e-13
1.49573e-13
1.48018e-13
1.46698e-13
1.45504e-13
1.44247e-13
1.43085e-13
1.41739e-13
1.40203e-13
1.38891e-13
1.37348e-13
1.36045e-13
1.34295e-13
1.32497e-13
1.30692e-13
1.28874e-13
1.27346e-13
1.25411e-13
1.23564e-13
1.2173e-13
1.19713e-13
1.17461e-13
1.15059e-13
1.12707e-13
1.1052e-13
1.07971e-13
1.05611e-13
1.03019e-13
1.00563e-13
9.83996e-14
9.63002e-14
9.44754e-14
9.30016e-14
9.1727e-14
9.07754e-14
9.40298e-14
9.43123e-14
9.5355e-14
9.62633e-14
9.71944e-14
9.84485e-14
1.0004e-13
1.01636e-13
1.0376e-13
1.0576e-13
1.07509e-13
1.10019e-13
1.12084e-13
1.13814e-13
1.15718e-13
1.17344e-13
1.1888e-13
1.20396e-13
1.22075e-13
1.2382e-13
1.25354e-13
1.26733e-13
1.28153e-13
1.29626e-13
1.31213e-13
1.32456e-13
1.33956e-13
1.35258e-13
1.36638e-13
1.38273e-13
1.39936e-13
1.41244e-13
1.42775e-13
1.4404e-13
1.45073e-13
1.46096e-13
1.47633e-13
1.49368e-13
1.51081e-13
1.5292e-13
1.54153e-13
1.55556e-13
1.56915e-13
1.58847e-13
1.60098e-13
1.61429e-13
1.62925e-13
1.64438e-13
1.65846e-13
1.67769e-13
1.69667e-13
1.70788e-13
1.72266e-13
1.73375e-13
1.74621e-13
1.76312e-13
1.77553e-13
1.78641e-13
1.79892e-13
1.8117e-13
1.82425e-13
1.835e-13
1.84246e-13
1.85381e-13
1.86566e-13
1.88054e-13
1.8883e-13
1.89796e-13
1.91652e-13
1.92913e-13
1.9414e-13
1.94939e-13
1.95747e-13
1.97048e-13
1.98138e-13
1.98846e-13
1.99752e-13
2.0059e-13
2.01485e-13
2.02528e-13
2.0332e-13
2.03812e-13
2.04995e-13
2.0587e-13
2.0689e-13
2.07381e-13
2.08178e-13
2.08824e-13
2.09396e-13
2.10046e-13
2.10799e-13
2.11321e-13
2.11923e-13
2.12814e-13
2.13357e-13
2.14022e-13
2.14345e-13
2.14818e-13
2.1497e-13
2.15503e-13
2.15954e-13
2.16225e-13
2.16785e-13
2.17274e-13
2.17434e-13
2.1762e-13
2.1813e-13
2.18631e-13
2.18987e-13
2.19539e-13
2.2023e-13
2.20834e-13
2.21321e-13
2.21571e-13
2.2214e-13
2.22395e-13
2.22398e-13
2.22288e-13
2.22286e-13
2.22515e-13
2.22802e-13
2.22775e-13
2.23365e-13
2.23996e-13
2.23359e-13
2.23304e-13
2.23739e-13
2.23632e-13
2.23445e-13
2.23901e-13
2.23922e-13
2.23819e-13
2.23647e-13
2.23904e-13
2.23907e-13
2.23584e-13
2.23935e-13
2.24333e-13
2.24479e-13
2.23922e-13
2.24425e-13
2.24703e-13
2.2448e-13
2.24555e-13
2.24588e-13
2.24804e-13
2.24878e-13
2.24717e-13
2.25065e-13
2.25153e-13
2.24667e-13
2.24434e-13
2.24383e-13
2.24295e-13
2.2426e-13
2.24411e-13
2.24432e-13
2.24494e-13
2.24413e-13
2.24191e-13
2.24386e-13
2.24417e-13
2.2462e-13
2.24158e-13
2.24442e-13
2.24935e-13
2.24849e-13
2.25143e-13
2.24908e-13
2.24833e-13
2.2429e-13
2.24236e-13
2.24035e-13
2.23907e-13
2.23961e-13
2.23635e-13
2.23294e-13
2.23233e-13
2.22937e-13
2.22565e-13
2.22712e-13
2.22391e-13
2.22323e-13
2.22448e-13
2.22312e-13
2.21707e-13
2.21755e-13
2.21775e-13
2.21556e-13
2.2129e-13
2.21395e-13
2.2123e-13
2.21102e-13
2.20335e-13
2.20143e-13
2.19823e-13
2.19442e-13
2.18967e-13
2.18338e-13
2.17855e-13
2.17323e-13
2.17296e-13
2.16888e-13
2.1649e-13
2.15999e-13
2.15568e-13
2.14883e-13
2.14274e-13
2.14101e-13
2.138e-13