/*--------------------------------*- C++ -*----------------------------------*\
| =========                 |                                                 |
| \\      /  F ield         | OpenFOAM: The Open Source CFD Toolbox           |
|  \\    /   O peration     | Version:  2112                                  |
|   \\  /    A nd           | Website:  www.openfoam.com                      |
|    \\/     M anipulation  |                                                 |
\*---------------------------------------------------------------------------*/
FoamFile
{
    version     2.0;
    format      ascii;
    arch        "LSB;label=32;scalar=64";
    class       surfaceScalarField;
    location    "7";
    object      phi;
}
// * * * * * * * * * * * * * * * * * * * * * * * * * * * * * * * * * * * * * //

dimensions      [0 3 -1 0 0 0 0];

oriented        oriented;

internalField   nonuniform List<scalar> 
50800
(
4.71607e-05
-3.46706e-18
4.71607e-05
-1.24346e-18
4.71607e-05
-5.83518e-19
4.71607e-05
-3.27671e-19
4.71607e-05
-1.73938e-19
4.71607e-05
-8.90638e-20
4.71607e-05
-6.71798e-20
4.71607e-05
-4.41877e-20
4.71607e-05
-4.28796e-20
4.71607e-05
-3.25108e-20
4.71607e-05
-1.86603e-20
4.71607e-05
-3.70389e-20
4.71607e-05
-1.68797e-20
4.71607e-05
4.13038e-21
4.71607e-05
-1.30481e-20
4.71607e-05
6.101e-21
4.71607e-05
-5.46279e-21
4.71607e-05
-3.05925e-20
4.71607e-05
-4.28829e-20
4.71607e-05
-2.96615e-20
4.71607e-05
-8.09814e-21
4.71607e-05
-1.28874e-20
4.71607e-05
-2.77802e-20
4.71607e-05
-3.20616e-20
4.71607e-05
-3.47775e-20
4.71607e-05
-1.90679e-20
4.71607e-05
2.96887e-20
4.71607e-05
-4.01233e-21
4.71607e-05
-3.64163e-20
4.71607e-05
-1.51471e-20
4.71607e-05
1.26006e-20
4.71607e-05
5.01157e-20
4.71607e-05
1.89256e-20
4.71607e-05
-3.2587e-21
4.71607e-05
6.18942e-21
4.71607e-05
1.29931e-20
4.71607e-05
3.43479e-20
4.71607e-05
-4.55571e-21
4.71607e-05
-4.77626e-21
4.71607e-05
4.7102e-20
4.71607e-05
3.01052e-21
4.71607e-05
1.19878e-20
4.71607e-05
1.77964e-21
4.71607e-05
-2.07215e-20
4.71607e-05
5.42006e-20
4.71607e-05
1.18775e-20
4.71607e-05
2.16293e-20
4.71607e-05
1.85063e-20
4.71607e-05
3.71107e-21
4.71607e-05
-1.76101e-20
4.71607e-05
-5.03171e-20
4.71607e-05
2.45283e-20
4.71607e-05
-7.407e-21
4.71607e-05
-2.67077e-21
4.71607e-05
4.8533e-20
4.71607e-05
-2.06939e-20
4.71607e-05
1.31717e-20
4.71607e-05
-4.54509e-21
4.71607e-05
3.58117e-21
4.71607e-05
4.71334e-20
4.71607e-05
-4.74839e-20
4.71607e-05
4.033e-20
4.71607e-05
1.48021e-20
4.71607e-05
7.47423e-21
4.71607e-05
2.98612e-20
4.71607e-05
-4.22141e-20
4.71607e-05
-1.36899e-20
4.71607e-05
-7.31045e-21
4.71607e-05
5.0698e-21
4.71607e-05
6.48937e-21
4.71607e-05
-3.15003e-20
4.71607e-05
-1.4019e-20
4.71607e-05
-2.43316e-20
4.71607e-05
-3.27099e-20
4.71607e-05
6.04373e-20
4.71607e-05
-4.87126e-20
4.71607e-05
-8.30657e-20
4.71607e-05
4.40619e-20
4.71607e-05
1.99625e-20
4.71607e-05
5.38711e-20
4.71607e-05
-5.08981e-20
4.71607e-05
-9.98048e-20
4.71607e-05
4.55066e-20
4.71607e-05
5.50186e-20
4.71607e-05
6.3834e-20
4.71607e-05
7.66136e-23
4.71607e-05
-8.83025e-20
4.71607e-05
-4.47644e-20
4.71607e-05
5.54088e-20
4.71607e-05
8.77833e-20
4.71607e-05
-2.42838e-20
4.71607e-05
-9.95374e-20
4.71607e-05
-8.97818e-22
4.71607e-05
8.02383e-20
4.71607e-05
-5.89792e-22
4.71607e-05
-1.05167e-19
4.71607e-05
-2.89234e-20
4.71607e-05
-5.31663e-21
4.71607e-05
7.85522e-20
4.71607e-05
2.4629e-20
4.71607e-05
-1.43353e-19
4.71607e-05
-5.67936e-21
4.71607e-05
-4.43069e-20
4.71607e-05
4.0103e-20
4.71607e-05
2.42972e-20
4.71607e-05
-2.74862e-20
4.71607e-05
-6.10613e-20
4.71607e-05
7.21609e-21
4.71607e-05
6.20075e-20
4.71607e-05
3.04774e-22
4.71607e-05
3.2948e-20
4.71607e-05
-1.78344e-19
4.71607e-05
1.58882e-20
4.71607e-05
1.41594e-19
4.71607e-05
1.3552e-20
4.71607e-05
-3.91287e-20
4.71607e-05
-1.15393e-19
4.71607e-05
4.41271e-20
4.71607e-05
1.1847e-19
4.71607e-05
3.58506e-20
4.71607e-05
-4.43186e-20
4.71607e-05
-1.13749e-19
4.71607e-05
1.59728e-20
4.71607e-05
1.7406e-19
4.71607e-05
6.28785e-20
4.71607e-05
-6.46424e-20
4.71607e-05
-1.47434e-19
4.71607e-05
3.10833e-22
4.71607e-05
1.62891e-19
4.71607e-05
2.28439e-20
4.71607e-05
-7.89732e-20
4.71607e-05
-9.68178e-20
4.71607e-05
4.71422e-20
4.71607e-05
1.10906e-19
4.71607e-05
-1.09454e-20
4.71607e-05
-1.66166e-20
4.71607e-05
-7.63468e-20
4.71607e-05
7.18888e-21
4.71607e-05
1.00232e-19
4.71607e-05
3.63815e-20
4.71607e-05
-1.38136e-20
4.71607e-05
-6.53423e-20
4.71607e-05
1.04473e-20
4.71607e-05
5.4143e-20
4.71607e-05
-1.31914e-20
4.71607e-05
2.12526e-21
4.71607e-05
-8.15758e-20
4.71607e-05
-1.32879e-20
4.71607e-05
-3.26501e-21
4.71607e-05
4.5642e-20
4.71607e-05
1.00696e-19
4.71607e-05
-1.20143e-19
4.71607e-05
-1.06763e-19
4.71607e-05
8.15422e-20
4.71607e-05
7.2839e-20
4.71607e-05
6.55047e-20
4.71607e-05
-6.68912e-20
4.71607e-05
-9.14825e-20
4.71607e-05
4.22611e-20
4.71607e-05
4.71546e-20
4.71607e-05
1.0645e-19
4.71607e-05
-1.10617e-19
4.71607e-05
-6.72003e-20
4.71607e-05
1.10082e-19
4.71607e-05
-8.39107e-20
4.71607e-05
5.19411e-20
4.71607e-05
-6.34666e-20
4.71607e-05
-1.26483e-19
4.71607e-05
5.99931e-20
4.71607e-05
7.02839e-21
4.71607e-05
2.84176e-20
4.71607e-05
-1.26299e-19
4.71607e-05
-2.03692e-20
4.71607e-05
9.89337e-21
4.71607e-05
-5.35761e-20
4.71607e-05
8.57413e-21
4.71607e-05
-8.3934e-20
4.71607e-05
1.74488e-19
4.71607e-05
-5.65726e-21
4.71607e-05
-6.9677e-20
4.71607e-05
1.64246e-19
4.71607e-05
-1.44953e-19
4.71607e-05
-2.89981e-20
4.71607e-05
3.46483e-20
4.71607e-05
-6.26898e-20
4.71607e-05
1.71013e-19
4.71607e-05
-1.02289e-19
4.71607e-05
-3.34086e-20
4.71607e-05
9.08953e-20
4.71607e-05
-1.48891e-19
4.71607e-05
5.45857e-20
4.71607e-05
-2.9177e-20
4.71607e-05
-9.0124e-20
4.71607e-05
1.62e-19
4.71607e-05
-6.30545e-20
4.71607e-05
-2.36981e-20
4.71607e-05
-9.08867e-20
4.71607e-05
3.62158e-21
4.71607e-05
2.47708e-19
4.71607e-05
-1.38634e-19
4.71607e-05
-3.77213e-21
4.71607e-05
-9.27825e-20
4.71607e-05
2.51649e-20
4.71607e-05
2.72007e-19
4.71607e-05
-9.16258e-20
4.71607e-05
-1.61552e-19
4.71607e-05
-8.41355e-20
4.71607e-05
1.26525e-19
4.71607e-05
1.80948e-19
4.71607e-05
-6.1334e-20
4.71607e-05
-1.76846e-19
4.71607e-05
-1.0547e-19
4.71607e-05
3.09218e-19
4.71607e-05
9.35019e-21
4.71607e-05
-3.02071e-19
4.71607e-05
2.42995e-19
4.71607e-05
7.88251e-20
4.71607e-05
-1.44069e-19
4.71607e-05
-1.10806e-19
4.71607e-05
-1.39439e-19
4.71607e-05
3.04958e-19
4.71607e-05
1.08302e-19
4.71607e-05
-1.93875e-19
4.71607e-05
-1.3523e-19
4.71607e-05
-1.15731e-19
4.71607e-05
3.18253e-19
4.71607e-05
2.00997e-20
4.71607e-05
-1.34269e-19
4.71607e-05
3.52978e-21
4.71607e-05
-1.17542e-19
4.71607e-05
1.89361e-19
4.71607e-05
-2.91374e-21
4.71607e-05
-2.71021e-20
4.71607e-05
5.41932e-20
4.71607e-05
-2.28497e-19
4.71607e-05
7.13924e-20
4.71607e-05
5.27305e-20
4.71607e-05
8.80166e-21
4.71607e-05
6.48731e-20
4.71607e-05
-1.75207e-19
4.71607e-05
1.24672e-19
4.71607e-05
-4.12902e-20
4.71607e-05
-3.06666e-20
4.71607e-05
1.07811e-19
4.71607e-05
-2.71981e-19
4.71607e-05
-2.98907e-20
4.71607e-05
9.46271e-20
4.71607e-05
1.14813e-19
4.71607e-05
4.86965e-21
4.71607e-05
-2.0816e-19
4.71607e-05
1.75843e-19
4.71607e-05
5.05425e-20
4.71607e-05
-4.61237e-20
4.71607e-05
1.93986e-20
4.71607e-05
-1.85404e-19
4.71607e-05
2.12426e-19
4.71607e-05
1.88365e-20
4.71607e-05
-3.64374e-20
4.71607e-05
8.43608e-20
4.71607e-05
-2.23504e-19
4.71607e-05
1.11305e-19
4.71607e-05
5.98452e-20
4.71607e-05
-6.51293e-20
4.71607e-05
1.84605e-20
4.71607e-05
-1.23147e-19
4.71607e-05
1.71376e-19
4.71607e-05
1.26493e-19
4.71607e-05
-2.47867e-20
4.71607e-05
-3.8236e-20
4.71607e-05
-1.56531e-19
4.71607e-05
8.96402e-20
4.71607e-05
6.63555e-20
4.71607e-05
1.53952e-20
4.71607e-05
-1.94836e-20
4.71607e-05
-1.49248e-19
4.71607e-05
2.35895e-20
4.71607e-05
1.50969e-20
4.71607e-05
-1.2227e-19
4.71607e-05
7.87125e-20
4.71607e-05
-6.90676e-20
4.71607e-05
5.09527e-21
4.71607e-05
9.13902e-20
4.71607e-05
-4.19409e-20
4.71607e-05
-1.12742e-21
4.71607e-05
-1.27419e-19
4.71607e-05
2.70736e-21
4.71607e-05
1.73547e-19
4.71607e-05
3.64783e-20
4.71607e-05
-1.62474e-19
4.71607e-05
-1.39033e-19
4.71607e-05
1.3836e-19
4.71607e-05
9.27801e-20
4.71607e-05
-6.51298e-20
4.71607e-05
-1.54123e-19
4.71607e-05
-7.15739e-21
4.71607e-05
2.02178e-19
4.71607e-05
-4.09404e-20
4.71607e-05
-3.54813e-21
4.71607e-05
-1.90603e-19
4.71607e-05
-3.63343e-20
4.71607e-05
2.27996e-19
4.71607e-05
9.78377e-21
4.71607e-05
7.58409e-20
4.71607e-05
-1.62686e-19
4.71607e-05
-1.94837e-19
4.71607e-05
-1.65805e-20
4.71607e-05
-8.23281e-22
4.71607e-05
1.11615e-19
4.71607e-05
-1.63901e-19
4.71607e-05
-3.61753e-20
4.71607e-05
-9.06823e-21
4.71607e-05
-1.16028e-19
4.71607e-05
1.64639e-19
4.71607e-05
-1.21124e-19
4.71607e-05
-1.83833e-19
4.71607e-05
-4.15526e-20
4.71607e-05
-2.80298e-19
4.71607e-05
-2.76191e-19
4.71607e-05
-6.49272e-19
-1.37619e-18
0.00013912
-1.46811e-18
0.00013912
-9.91583e-19
0.00013912
-6.90385e-19
0.00013912
-4.31593e-19
0.00013912
-1.96463e-19
0.00013912
-1.11179e-19
0.00013912
-1.00641e-19
0.00013912
-6.35956e-20
0.00013912
-3.00454e-20
0.00013912
-1.89281e-20
0.00013912
-7.47233e-22
0.00013912
-2.82085e-20
0.00013912
3.20789e-20
0.00013912
-7.84656e-22
0.00013912
-5.78201e-20
0.00013912
4.22205e-22
0.00013912
-1.12573e-20
0.00013912
-4.74708e-20
0.00013912
-8.70456e-20
0.00013912
-9.5188e-20
0.00013912
-3.60522e-20
0.00013912
-4.69094e-20
0.00013912
-9.24536e-20
0.00013912
-7.35188e-20
0.00013912
-7.56413e-20
0.00013912
-6.80123e-20
0.00013912
3.47103e-20
0.00013912
1.02988e-20
0.00013912
-5.0315e-20
0.00013912
-4.9891e-20
0.00013912
5.07485e-20
0.00013912
1.25545e-19
0.00013912
8.55441e-20
0.00013912
-3.30301e-21
0.00013912
8.29273e-21
0.00013912
4.16488e-20
0.00013912
9.62415e-20
0.00013912
2.93898e-20
0.00013912
1.07358e-21
0.00013912
7.92068e-20
0.00013912
2.42071e-20
0.00013912
1.15752e-20
0.00013912
3.66889e-20
0.00013912
-1.19732e-20
0.00013912
6.14027e-20
0.00013912
7.70525e-20
0.00013912
8.17748e-20
0.00013912
5.9217e-20
0.00013912
2.91581e-20
0.00013912
1.01576e-21
0.00013912
-5.819e-20
0.00013912
-8.0479e-22
0.00013912
-1.91357e-20
0.00013912
1.24077e-21
0.00013912
8.07054e-20
0.00013912
-5.57153e-21
0.00013912
1.72768e-20
0.00013912
3.3562e-20
0.00013912
4.23267e-20
0.00013912
7.02869e-20
0.00013912
-5.88517e-20
0.00013912
6.70777e-20
0.00013912
4.15152e-20
0.00013912
1.44788e-20
0.00013912
6.698e-20
0.00013912
-8.83621e-20
0.00013912
-4.03552e-20
0.00013912
-3.34188e-20
0.00013912
1.62498e-20
0.00013912
1.75259e-20
0.00013912
-1.03644e-19
0.00013912
-7.44732e-20
0.00013912
-8.34595e-20
0.00013912
-1.52574e-20
0.00013912
1.31708e-19
0.00013912
-9.48197e-20
0.00013912
-1.47997e-19
0.00013912
1.21111e-20
0.00013912
1.14839e-20
0.00013912
5.64514e-20
0.00013912
-7.06191e-20
0.00013912
-1.44931e-19
0.00013912
5.57638e-20
0.00013912
1.13237e-19
0.00013912
9.24266e-20
0.00013912
1.85151e-20
0.00013912
-6.52639e-20
0.00013912
-8.36459e-20
0.00013912
4.11964e-20
0.00013912
1.70336e-19
0.00013912
-4.13988e-20
0.00013912
-1.30145e-19
0.00013912
8.16444e-22
0.00013912
5.18083e-20
0.00013912
-3.65523e-20
0.00013912
-1.68948e-19
0.00013912
-7.34913e-20
0.00013912
-2.08647e-20
0.00013912
4.96232e-20
0.00013912
9.74511e-21
0.00013912
-1.74521e-19
0.00013912
-5.44884e-20
0.00013912
-1.02661e-19
0.00013912
-2.48671e-20
0.00013912
1.84345e-20
0.00013912
-2.6049e-20
0.00013912
-1.42342e-19
0.00013912
-4.88816e-20
0.00013912
9.57661e-20
0.00013912
8.5966e-20
0.00013912
1.60114e-20
0.00013912
-2.96661e-19
0.00013912
3.77854e-21
0.00013912
2.53182e-19
0.00013912
9.57773e-20
0.00013912
-4.5407e-20
0.00013912
-1.99014e-19
0.00013912
8.97792e-21
0.00013912
2.75013e-19
0.00013912
1.53698e-19
0.00013912
-8.89425e-20
0.00013912
-1.88138e-19
0.00013912
6.36474e-20
0.00013912
3.25699e-19
0.00013912
1.65204e-19
0.00013912
-1.36574e-19
0.00013912
-3.34154e-19
0.00013912
-7.66081e-21
0.00013912
2.80551e-19
0.00013912
5.64145e-20
0.00013912
-1.15774e-19
0.00013912
-1.78512e-19
0.00013912
9.36952e-20
0.00013912
2.34446e-19
0.00013912
2.49753e-20
0.00013912
-4.32443e-20
0.00013912
-1.64551e-19
0.00013912
-6.48311e-21
0.00013912
2.80626e-19
0.00013912
1.50255e-19
0.00013912
-5.10171e-20
0.00013912
-1.63659e-19
0.00013912
1.24836e-20
0.00013912
1.12251e-19
0.00013912
-1.56614e-20
0.00013912
-9.60217e-20
0.00013912
-1.89044e-19
0.00013912
1.51484e-20
0.00013912
4.13149e-20
0.00013912
2.44639e-20
0.00013912
1.35649e-19
0.00013912
-1.62076e-19
0.00013912
-1.49985e-19
0.00013912
1.0652e-19
0.00013912
1.41329e-19
0.00013912
1.13426e-19
0.00013912
-9.62612e-20
0.00013912
-1.60118e-19
0.00013912
6.04809e-20
0.00013912
1.21313e-19
0.00013912
1.53417e-19
0.00013912
-2.15454e-19
0.00013912
-1.04401e-19
0.00013912
1.77631e-19
0.00013912
-1.02501e-19
0.00013912
-5.9676e-21
0.00013912
-1.34971e-19
0.00013912
-2.48602e-19
0.00013912
3.12195e-20
0.00013912
-1.5852e-20
0.00013912
-8.5898e-20
0.00013912
-2.15881e-19
0.00013912
-1.16376e-19
0.00013912
3.90991e-20
0.00013912
1.77082e-20
0.00013912
-9.36878e-20
0.00013912
-1.0787e-19
0.00013912
2.33886e-19
0.00013912
4.10668e-20
0.00013912
4.12479e-20
0.00013912
1.63767e-19
0.00013912
-2.70228e-19
0.00013912
-7.26242e-20
0.00013912
5.60151e-20
0.00013912
-2.21778e-20
0.00013912
1.80267e-19
0.00013912
-1.42927e-19
0.00013912
-9.28336e-20
0.00013912
1.04202e-19
0.00013912
-1.63432e-19
0.00013912
-2.32768e-20
0.00013912
-8.08199e-20
0.00013912
-1.15266e-19
0.00013912
1.55887e-19
0.00013912
-2.2516e-20
0.00013912
-5.20286e-20
0.00013912
-9.0554e-20
0.00013912
5.46799e-20
0.00013912
2.71198e-19
0.00013912
-1.07295e-19
0.00013912
-3.63506e-20
0.00013912
-6.90407e-20
0.00013912
7.63063e-20
0.00013912
3.08076e-19
0.00013912
-5.71159e-20
0.00013912
-2.09244e-19
0.00013912
-1.36737e-19
0.00013912
1.47796e-19
0.00013912
1.65878e-19
0.00013912
-7.16873e-20
0.00013912
-2.05631e-19
0.00013912
-1.60253e-19
0.00013912
4.40836e-19
0.00013912
3.79864e-20
0.00013912
-4.31789e-19
0.00013912
3.10228e-19
0.00013912
9.22073e-20
0.00013912
-1.12516e-19
0.00013912
-1.93396e-19
0.00013912
-2.89379e-19
0.00013912
4.6026e-19
0.00013912
1.55929e-19
0.00013912
-2.37113e-19
0.00013912
-2.0247e-19
0.00013912
-2.26371e-19
0.00013912
4.99184e-19
0.00013912
4.90438e-20
0.00013912
-2.73129e-19
0.00013912
-4.85589e-20
0.00013912
-1.28997e-19
0.00013912
3.70121e-19
0.00013912
6.93628e-20
0.00013912
-2.11123e-20
0.00013912
-4.12482e-21
0.00013912
-4.30569e-19
0.00013912
1.08725e-20
0.00013912
6.35992e-20
0.00013912
1.73572e-19
0.00013912
1.59457e-19
0.00013912
-3.19389e-19
0.00013912
1.01939e-19
0.00013912
-1.36298e-19
0.00013912
-3.10429e-20
0.00013912
9.15099e-20
0.00013912
-5.20738e-19
0.00013912
-1.15528e-20
0.00013912
1.79877e-19
0.00013912
1.96895e-19
0.00013912
-6.01371e-21
0.00013912
-3.48186e-19
0.00013912
3.80019e-19
0.00013912
1.46451e-19
0.00013912
-1.0403e-19
0.00013912
-9.01293e-20
0.00013912
-2.67744e-19
0.00013912
5.19666e-19
0.00013912
8.36291e-20
0.00013912
-1.16482e-19
0.00013912
7.55112e-20
0.00013912
-3.38447e-19
0.00013912
2.00707e-19
0.00013912
6.30475e-20
0.00013912
-7.10305e-20
0.00013912
5.89354e-21
0.00013912
-1.41809e-19
0.00013912
3.7203e-19
0.00013912
1.66049e-19
0.00013912
2.80686e-20
0.00013912
-2.91069e-20
0.00013912
-3.27894e-19
0.00013912
1.32124e-19
0.00013912
1.23681e-19
0.00013912
9.90109e-20
0.00013912
-8.32486e-20
0.00013912
-4.32019e-19
0.00013912
4.44666e-20
0.00013912
-4.49268e-20
0.00013912
-1.11536e-19
0.00013912
7.90782e-20
0.00013912
-2.64699e-19
0.00013912
1.23223e-19
0.00013912
1.11684e-19
0.00013912
-4.55718e-21
0.00013912
-3.10381e-20
0.00013912
-3.27709e-19
0.00013912
1.29242e-19
0.00013912
2.99078e-19
0.00013912
1.44283e-20
0.00013912
-3.01081e-19
0.00013912
-2.48293e-19
0.00013912
2.87511e-19
0.00013912
1.14015e-19
0.00013912
-1.86472e-19
0.00013912
-1.32478e-19
0.00013912
-4.2244e-20
0.00013912
2.71006e-19
0.00013912
7.75949e-20
0.00013912
-1.48712e-19
0.00013912
-2.36517e-19
0.00013912
-9.81523e-20
0.00013912
3.35412e-19
0.00013912
2.04245e-19
0.00013912
6.21094e-20
0.00013912
-3.4672e-19
0.00013912
-3.93044e-19
0.00013912
4.40912e-20
0.00013912
-1.56485e-20
0.00013912
9.07948e-21
0.00013912
-3.26145e-19
0.00013912
-5.08526e-20
0.00013912
4.21028e-20
0.00013912
-1.40119e-19
0.00013912
1.91297e-19
0.00013912
-1.82383e-19
0.00013912
-3.41641e-19
0.00013912
-1.88051e-19
0.00013912
-4.71041e-19
0.00013912
-3.5582e-19
0.00013912
-7.94647e-19
-1.28246e-18
0.00022871
-8.38195e-19
0.00022871
-7.5703e-19
0.00022871
-5.49182e-19
0.00022871
-3.53482e-19
0.00022871
-2.19146e-19
0.00022871
-7.84385e-20
0.00022871
-2.35101e-20
0.00022871
8.16897e-21
0.00022871
1.08914e-20
0.00022871
4.80504e-20
0.00022871
4.3415e-20
0.00022871
-4.77197e-21
0.00022871
4.49811e-20
0.00022871
1.67582e-20
0.00022871
-4.85417e-20
0.00022871
-4.62237e-20
0.00022871
-7.91933e-20
0.00022871
-7.2947e-20
0.00022871
-1.0812e-19
0.00022871
-1.36084e-19
0.00022871
-8.80185e-20
0.00022871
-1.20196e-19
0.00022871
-1.21188e-19
0.00022871
-9.81633e-20
0.00022871
-1.36446e-19
0.00022871
-6.98154e-20
0.00022871
5.34468e-22
0.00022871
1.09353e-20
0.00022871
-5.04809e-20
0.00022871
-2.09711e-20
0.00022871
1.02401e-19
0.00022871
2.26078e-19
0.00022871
1.44373e-19
0.00022871
2.61189e-21
0.00022871
9.34805e-21
0.00022871
4.04179e-20
0.00022871
1.22836e-19
0.00022871
9.87446e-20
0.00022871
3.05823e-20
0.00022871
1.29802e-19
0.00022871
9.94358e-20
0.00022871
5.56319e-20
0.00022871
5.68913e-20
0.00022871
9.36357e-21
0.00022871
7.26377e-20
0.00022871
1.35929e-19
0.00022871
9.86998e-20
0.00022871
1.04016e-19
0.00022871
8.71027e-20
0.00022871
1.97208e-20
0.00022871
-3.50756e-20
0.00022871
1.7491e-20
0.00022871
-4.44117e-21
0.00022871
8.78547e-21
0.00022871
1.13254e-19
0.00022871
-4.17386e-21
0.00022871
4.51232e-20
0.00022871
3.4575e-20
0.00022871
9.48719e-20
0.00022871
1.30308e-19
0.00022871
-1.74127e-20
0.00022871
1.31138e-19
0.00022871
4.31679e-20
0.00022871
-1.25976e-20
0.00022871
3.92644e-20
0.00022871
-1.39337e-19
0.00022871
-1.51639e-20
0.00022871
-2.39805e-20
0.00022871
-9.74327e-21
0.00022871
1.95861e-20
0.00022871
-1.5908e-19
0.00022871
-1.2307e-19
0.00022871
-1.19958e-19
0.00022871
-5.77857e-21
0.00022871
1.25158e-19
0.00022871
-1.53487e-19
0.00022871
-1.57841e-19
0.00022871
-2.88297e-21
0.00022871
-2.85953e-20
0.00022871
7.86264e-20
0.00022871
-8.65566e-20
0.00022871
-1.10557e-19
0.00022871
1.0805e-19
0.00022871
1.30253e-19
0.00022871
6.59254e-20
0.00022871
-4.56513e-20
0.00022871
-1.08224e-20
0.00022871
-2.2988e-20
0.00022871
-2.9066e-20
0.00022871
1.78612e-19
0.00022871
4.48597e-20
0.00022871
-9.20719e-20
0.00022871
1.09564e-20
0.00022871
3.70965e-21
0.00022871
-9.59003e-20
0.00022871
-2.0067e-19
0.00022871
-1.19233e-19
0.00022871
-5.62891e-20
0.00022871
-7.0897e-20
0.00022871
-5.54235e-20
0.00022871
-1.33781e-19
0.00022871
-1.50036e-19
0.00022871
-2.14154e-19
0.00022871
-1.37625e-19
0.00022871
-4.74997e-20
0.00022871
-5.28467e-20
0.00022871
-2.10579e-19
0.00022871
-1.7262e-19
0.00022871
1.27847e-19
0.00022871
1.85932e-19
0.00022871
1.23856e-20
0.00022871
-3.25094e-19
0.00022871
-1.01247e-20
0.00022871
2.64798e-19
0.00022871
1.4431e-19
0.00022871
3.8107e-20
0.00022871
-2.2811e-19
0.00022871
-2.3262e-20
0.00022871
4.15161e-19
0.00022871
2.90132e-19
0.00022871
-1.39245e-19
0.00022871
-2.68645e-19
0.00022871
1.08277e-19
0.00022871
4.56337e-19
0.00022871
2.61136e-19
0.00022871
-1.66473e-19
0.00022871
-4.62864e-19
0.00022871
-5.80671e-20
0.00022871
3.25223e-19
0.00022871
1.03267e-19
0.00022871
-1.23232e-19
0.00022871
-1.56683e-19
0.00022871
9.67211e-20
0.00022871
3.08634e-19
0.00022871
1.30754e-19
0.00022871
-1.49072e-20
0.00022871
-1.78168e-19
0.00022871
2.32168e-20
0.00022871
4.42805e-19
0.00022871
2.29526e-19
0.00022871
-7.82885e-20
0.00022871
-2.42761e-19
0.00022871
5.79795e-20
0.00022871
1.44835e-19
0.00022871
-5.34154e-20
0.00022871
-1.71615e-19
0.00022871
-3.24915e-19
0.00022871
3.44891e-20
0.00022871
8.43081e-20
0.00022871
3.16513e-20
0.00022871
1.2411e-19
0.00022871
-1.87596e-19
0.00022871
-1.25958e-19
0.00022871
1.11972e-19
0.00022871
1.41946e-19
0.00022871
1.07454e-19
0.00022871
-7.96799e-20
0.00022871
-1.08206e-19
0.00022871
1.12578e-19
0.00022871
1.75068e-19
0.00022871
1.27893e-19
0.00022871
-2.41237e-19
0.00022871
-1.10999e-19
0.00022871
2.05563e-19
0.00022871
-1.81543e-19
0.00022871
-1.66686e-19
0.00022871
-1.76137e-19
0.00022871
-2.1407e-19
0.00022871
-1.21065e-19
0.00022871
-1.10593e-19
0.00022871
-1.72012e-19
0.00022871
-3.50282e-19
0.00022871
-1.68232e-19
0.00022871
1.35747e-19
0.00022871
1.54795e-20
0.00022871
-1.99419e-19
0.00022871
-1.27443e-19
0.00022871
1.48944e-19
0.00022871
1.00109e-19
0.00022871
1.86561e-19
0.00022871
6.61581e-20
0.00022871
-3.87056e-19
0.00022871
-1.06303e-19
0.00022871
1.30874e-19
0.00022871
8.21066e-21
0.00022871
1.20896e-19
0.00022871
-1.37035e-19
0.00022871
-1.18357e-19
0.00022871
8.91761e-20
0.00022871
-1.5179e-19
0.00022871
-1.50675e-19
0.00022871
-1.22144e-19
0.00022871
-1.35936e-19
0.00022871
8.89146e-20
0.00022871
5.89253e-21
0.00022871
-9.87495e-20
0.00022871
-7.41275e-20
0.00022871
1.02767e-19
0.00022871
2.35488e-19
0.00022871
3.67615e-20
0.00022871
-2.41812e-20
0.00022871
-5.47248e-20
0.00022871
1.63574e-19
0.00022871
2.84114e-19
0.00022871
-1.10011e-20
0.00022871
-1.65489e-19
0.00022871
-1.58801e-19
0.00022871
1.43403e-19
0.00022871
8.30227e-20
0.00022871
-7.11555e-20
0.00022871
-1.65168e-19
0.00022871
-2.52408e-19
0.00022871
4.42463e-19
0.00022871
7.99311e-20
0.00022871
-3.7861e-19
0.00022871
2.53501e-19
0.00022871
1.24721e-20
0.00022871
9.75582e-21
0.00022871
-1.76994e-19
0.00022871
-3.66298e-19
0.00022871
4.41868e-19
0.00022871
1.08372e-19
0.00022871
-1.20799e-19
0.00022871
-1.79018e-19
0.00022871
-3.43293e-19
0.00022871
5.12267e-19
0.00022871
6.45946e-20
0.00022871
-3.79274e-19
0.00022871
-9.11996e-20
0.00022871
-7.31201e-20
0.00022871
5.55058e-19
0.00022871
1.37414e-19
0.00022871
-8.83555e-20
0.00022871
-5.14091e-20
0.00022871
-5.29078e-19
0.00022871
-9.5682e-20
0.00022871
1.73089e-20
0.00022871
3.79991e-19
0.00022871
2.42929e-19
0.00022871
-4.67101e-19
0.00022871
7.11281e-20
0.00022871
-2.7823e-19
0.00022871
-1.08332e-19
0.00022871
6.58904e-20
0.00022871
-7.02753e-19
0.00022871
-2.85531e-20
0.00022871
1.02881e-19
0.00022871
1.98513e-19
0.00022871
5.73035e-20
0.00022871
-3.62921e-19
0.00022871
5.34452e-19
0.00022871
2.11207e-19
0.00022871
-1.22963e-19
0.00022871
-1.8259e-19
0.00022871
-2.60655e-19
0.00022871
7.32073e-19
0.00022871
1.45021e-19
0.00022871
-9.29319e-20
0.00022871
1.27384e-19
0.00022871
-4.06902e-19
0.00022871
1.23003e-19
0.00022871
-1.02563e-20
0.00022871
1.38643e-20
0.00022871
5.94296e-20
0.00022871
-1.52342e-19
0.00022871
5.10243e-19
0.00022871
1.30488e-19
0.00022871
1.52539e-19
0.00022871
2.40999e-20
0.00022871
-4.61548e-19
0.00022871
2.47924e-19
0.00022871
4.63592e-20
0.00022871
1.03012e-19
0.00022871
-1.17436e-19
0.00022871
-7.1417e-19
0.00022871
6.90934e-20
0.00022871
-1.38133e-19
0.00022871
-7.45012e-20
0.00022871
1.37938e-19
0.00022871
-4.75035e-19
0.00022871
1.83708e-19
0.00022871
3.53503e-20
0.00022871
3.44606e-20
0.00022871
4.73756e-20
0.00022871
-5.59722e-19
0.00022871
2.6276e-19
0.00022871
3.10844e-19
0.00022871
-1.57981e-19
0.00022871
-2.58851e-19
0.00022871
-2.84835e-19
0.00022871
4.38366e-19
0.00022871
1.56427e-19
0.00022871
-2.33196e-19
0.00022871
-6.55332e-20
0.00022871
-1.52649e-19
0.00022871
2.83302e-19
0.00022871
1.82812e-19
0.00022871
-2.73051e-19
0.00022871
-2.32313e-19
0.00022871
-1.55976e-19
0.00022871
4.39697e-19
0.00022871
3.34441e-19
0.00022871
-6.84328e-20
0.00022871
-4.75929e-19
0.00022871
-5.31123e-19
0.00022871
9.8627e-20
0.00022871
-8.56508e-20
0.00022871
-1.7005e-19
0.00022871
-3.1888e-19
0.00022871
-1.65922e-19
0.00022871
1.50745e-19
0.00022871
-1.34686e-19
0.00022871
5.67078e-20
0.00022871
-1.44928e-20
0.00022871
-4.56488e-19
0.00022871
-4.14584e-19
0.00022871
-5.45921e-19
0.00022871
-2.90525e-19
0.00022871
-6.42367e-19
-1.08918e-18
0.000315925
-5.20781e-19
0.000315925
-4.5192e-19
0.000315925
-4.01101e-19
0.000315925
-3.09865e-19
0.000315925
-1.59468e-19
0.000315925
-7.86765e-20
0.000315925
4.9994e-20
0.000315925
1.53287e-19
0.000315925
7.75563e-20
0.000315925
5.22022e-20
0.000315925
5.63774e-20
0.000315925
4.06419e-20
0.000315925
1.83299e-20
0.000315925
1.46154e-20
0.000315925
-4.61697e-20
0.000315925
-5.12197e-20
0.000315925
-6.72233e-20
0.000315925
-1.28425e-19
0.000315925
-1.32408e-19
0.000315925
-1.49873e-19
0.000315925
-1.06476e-19
0.000315925
-1.72494e-19
0.000315925
-1.56854e-19
0.000315925
-1.61707e-19
0.000315925
-1.9914e-19
0.000315925
-3.73602e-20
0.000315925
2.64329e-20
0.000315925
-2.99459e-20
0.000315925
-6.28845e-20
0.000315925
5.29714e-22
0.000315925
1.53982e-19
0.000315925
2.97855e-19
0.000315925
1.73785e-19
0.000315925
4.50274e-20
0.000315925
1.48859e-20
0.000315925
5.54518e-20
0.000315925
2.02848e-19
0.000315925
1.87332e-19
0.000315925
8.01276e-20
0.000315925
1.24121e-19
0.000315925
1.14165e-19
0.000315925
7.794e-20
0.000315925
6.80926e-20
0.000315925
4.07332e-20
0.000315925
8.32829e-20
0.000315925
1.79978e-19
0.000315925
2.43351e-19
0.000315925
2.02453e-19
0.000315925
8.42725e-20
0.000315925
4.7176e-20
0.000315925
-7.75841e-22
0.000315925
7.83157e-21
0.000315925
9.73283e-20
0.000315925
9.85221e-20
0.000315925
1.17933e-19
0.000315925
-6.24931e-21
0.000315925
3.45664e-20
0.000315925
1.44355e-19
0.000315925
1.47167e-19
0.000315925
1.31195e-19
0.000315925
-4.68401e-20
0.000315925
1.78324e-19
0.000315925
8.09233e-20
0.000315925
-3.15385e-21
0.000315925
2.53917e-20
0.000315925
-1.77583e-19
0.000315925
-7.16472e-21
0.000315925
8.73511e-21
0.000315925
3.07346e-20
0.000315925
1.43175e-21
0.000315925
-1.86253e-19
0.000315925
-1.34096e-19
0.000315925
-1.49566e-19
0.000315925
-6.38448e-20
0.000315925
3.01075e-20
0.000315925
-1.9817e-19
0.000315925
-1.70833e-19
0.000315925
1.53684e-21
0.000315925
-3.22996e-20
0.000315925
1.21087e-19
0.000315925
1.19128e-20
0.000315925
-1.23374e-19
0.000315925
7.24689e-20
0.000315925
1.48928e-19
0.000315925
1.03978e-19
0.000315925
-7.54362e-20
0.000315925
-2.70363e-20
0.000315925
-1.03519e-20
0.000315925
-4.2182e-21
0.000315925
1.86155e-19
0.000315925
4.15545e-20
0.000315925
-8.84992e-20
0.000315925
-5.69873e-20
0.000315925
-3.3798e-20
0.000315925
-5.67806e-20
0.000315925
-2.11722e-19
0.000315925
-1.70372e-19
0.000315925
-1.77895e-19
0.000315925
-2.0081e-19
0.000315925
-1.69498e-19
0.000315925
-1.95342e-19
0.000315925
-2.64526e-19
0.000315925
-3.32181e-19
0.000315925
-2.58696e-19
0.000315925
-8.53454e-20
0.000315925
-9.03051e-20
0.000315925
-3.28977e-19
0.000315925
-2.77749e-19
0.000315925
1.09177e-19
0.000315925
2.54295e-19
0.000315925
2.27584e-20
0.000315925
-3.45115e-19
0.000315925
-1.14193e-20
0.000315925
3.49871e-19
0.000315925
2.90872e-19
0.000315925
5.71305e-20
0.000315925
-2.24613e-19
0.000315925
3.71309e-21
0.000315925
5.23032e-19
0.000315925
3.16443e-19
0.000315925
-1.96961e-19
0.000315925
-3.37537e-19
0.000315925
7.71914e-20
0.000315925
5.67889e-19
0.000315925
4.17016e-19
0.000315925
-1.75417e-19
0.000315925
-5.07505e-19
0.000315925
-7.10867e-20
0.000315925
3.67926e-19
0.000315925
6.52757e-20
0.000315925
-1.14245e-19
0.000315925
-1.16333e-19
0.000315925
1.00063e-19
0.000315925
3.78412e-19
0.000315925
2.76045e-19
0.000315925
6.82781e-20
0.000315925
-1.9249e-19
0.000315925
-7.7567e-21
0.000315925
4.3098e-19
0.000315925
2.60015e-19
0.000315925
-5.36714e-20
0.000315925
-2.1461e-19
0.000315925
6.87406e-20
0.000315925
1.16832e-19
0.000315925
-9.28041e-20
0.000315925
-1.95324e-19
0.000315925
-3.53527e-19
0.000315925
2.40902e-20
0.000315925
7.40268e-20
0.000315925
4.00417e-20
0.000315925
1.32719e-19
0.000315925
-1.72971e-19
0.000315925
-1.5903e-19
0.000315925
5.23567e-20
0.000315925
1.83901e-19
0.000315925
1.62178e-19
0.000315925
-1.18828e-19
0.000315925
-1.42127e-19
0.000315925
3.4624e-20
0.000315925
1.94217e-19
0.000315925
2.14869e-19
0.000315925
-2.4896e-19
0.000315925
-1.48317e-19
0.000315925
4.02803e-20
0.000315925
-2.92626e-19
0.000315925
-1.83371e-19
0.000315925
-2.09936e-19
0.000315925
-1.77037e-19
0.000315925
-1.40934e-19
0.000315925
-2.08872e-19
0.000315925
-3.10519e-19
0.000315925
-4.71543e-19
0.000315925
-1.40773e-19
0.000315925
1.48004e-19
0.000315925
-1.08293e-19
0.000315925
-2.78278e-19
0.000315925
-1.7623e-19
0.000315925
6.99406e-20
0.000315925
9.19986e-20
0.000315925
2.32541e-19
0.000315925
6.80403e-20
0.000315925
-4.77646e-19
0.000315925
-1.13107e-19
0.000315925
2.17177e-19
0.000315925
4.38033e-20
0.000315925
-6.74799e-21
0.000315925
-2.24122e-19
0.000315925
-4.76912e-20
0.000315925
6.38708e-20
0.000315925
-1.74548e-19
0.000315925
-1.64151e-19
0.000315925
-1.44953e-19
0.000315925
-2.02283e-19
0.000315925
-6.09983e-21
0.000315925
5.8531e-20
0.000315925
-2.533e-20
0.000315925
-7.01152e-20
0.000315925
-1.09703e-20
0.000315925
1.84565e-19
0.000315925
1.60762e-19
0.000315925
8.30879e-20
0.000315925
-1.60541e-20
0.000315925
1.53046e-19
0.000315925
2.49221e-19
0.000315925
5.36515e-20
0.000315925
-8.99318e-20
0.000315925
-1.70524e-19
0.000315925
3.90819e-20
0.000315925
4.66584e-20
0.000315925
-6.70148e-20
0.000315925
-9.20264e-20
0.000315925
-1.85761e-19
0.000315925
3.89751e-19
0.000315925
9.69401e-20
0.000315925
-2.66519e-19
0.000315925
2.88588e-19
0.000315925
-7.07201e-20
0.000315925
-1.27939e-20
0.000315925
-2.56254e-19
0.000315925
-4.10688e-19
0.000315925
5.15832e-19
0.000315925
1.58553e-19
0.000315925
-4.85474e-20
0.000315925
-1.35052e-19
0.000315925
-4.56574e-19
0.000315925
4.16014e-19
0.000315925
1.30561e-19
0.000315925
-3.31927e-19
0.000315925
-1.78202e-20
0.000315925
-3.28778e-20
0.000315925
6.1032e-19
0.000315925
2.34159e-19
0.000315925
-1.04056e-19
0.000315925
-9.9184e-20
0.000315925
-5.38613e-19
0.000315925
-1.47073e-19
0.000315925
-4.9483e-20
0.000315925
4.46822e-19
0.000315925
3.43058e-19
0.000315925
-5.12777e-19
0.000315925
-1.30182e-19
0.000315925
-3.09924e-19
0.000315925
-1.12559e-19
0.000315925
-1.22689e-20
0.000315925
-8.29794e-19
0.000315925
-1.13782e-19
0.000315925
1.78006e-20
0.000315925
1.52485e-19
0.000315925
1.24283e-19
0.000315925
-3.31743e-19
0.000315925
6.65141e-19
0.000315925
3.01392e-19
0.000315925
-2.79587e-19
0.000315925
-2.52562e-19
0.000315925
-1.17104e-19
0.000315925
8.29241e-19
0.000315925
1.49126e-19