/*--------------------------------*- C++ -*----------------------------------*\
| =========                 |                                                 |
| \\      /  F ield         | OpenFOAM: The Open Source CFD Toolbox           |
|  \\    /   O peration     | Version:  2112                                  |
|   \\  /    A nd           | Website:  www.openfoam.com                      |
|    \\/     M anipulation  |                                                 |
\*---------------------------------------------------------------------------*/
FoamFile
{
    version     2.0;
    format      ascii;
    arch        "LSB;label=32;scalar=64";
    class       volVectorField;
    location    "7";
    object      U;
}
// * * * * * * * * * * * * * * * * * * * * * * * * * * * * * * * * * * * * * //

dimensions      [0 1 -1 0 0 0 0];

internalField   nonuniform List<vector> 
25600
(
(0.0377286 -1.08555e-15 0)
(0.0377286 -3.59208e-16 0)
(0.0377286 -2.55177e-16 0)
(0.0377286 -1.60834e-16 0)
(0.0377286 -8.60834e-17 0)
(0.0377286 -5.11118e-17 0)
(0.0377286 -4.21666e-17 0)
(0.0377286 -2.6141e-17 0)
(0.0377286 -2.606e-17 0)
(0.0377286 -2.1485e-17 0)
(0.0377286 -9.88049e-18 0)
(0.0377286 -2.37004e-17 0)
(0.0377286 -7.21401e-18 0)
(0.0377286 -3.82203e-18 0)
(0.0377286 -1.40285e-17 0)
(0.0377286 6.06884e-18 0)
(0.0377286 -3.60099e-18 0)
(0.0377286 -1.60109e-17 0)
(0.0377286 -1.50166e-17 0)
(0.0377286 -7.68313e-18 0)
(0.0377286 2.64564e-18 0)
(0.0377286 5.92763e-18 0)
(0.0377286 -4.84746e-18 0)
(0.0377286 -1.61469e-17 0)
(0.0377286 -2.25116e-17 0)
(0.0377286 -3.19368e-18 0)
(0.0377286 3.69286e-17 0)
(0.0377286 -1.87167e-19 0)
(0.0377286 -3.15849e-17 0)
(0.0377286 -6.1688e-18 0)
(0.0377286 1.11455e-17 0)
(0.0377286 1.7871e-17 0)
(0.0377286 1.35249e-18 0)
(0.0377286 -1.14812e-17 0)
(0.0377286 -4.79522e-19 0)
(0.0377286 5.9486e-18 0)
(0.0377286 5.90524e-18 0)
(0.0377286 -4.61315e-18 0)
(0.0377286 -8.66657e-20 0)
(0.0377286 9.85166e-18 0)
(0.0377286 7.02147e-19 0)
(0.0377286 1.65862e-17 0)
(0.0377286 -1.51918e-17 0)
(0.0377286 -2.10182e-17 0)
(0.0377286 3.7127e-17 0)
(0.0377286 -1.07469e-17 0)
(0.0377286 5.38431e-18 0)
(0.0377286 3.52484e-18 0)
(0.0377286 -2.04576e-18 0)
(0.0377286 -7.32102e-18 0)
(0.0377286 -3.76818e-17 0)
(0.0377286 2.98166e-17 0)
(0.0377286 -9.50192e-19 0)
(0.0377286 -1.46246e-18 0)
(0.0377286 3.29811e-17 0)
(0.0377286 -3.06726e-17 0)
(0.0377286 -3.34002e-19 0)
(0.0377286 -2.0562e-17 0)
(0.0377286 2.36984e-18 0)
(0.0377286 5.40473e-17 0)
(0.0377286 -3.82719e-17 0)
(0.0377286 4.25858e-18 0)
(0.0377286 1.52742e-18 0)
(0.0377286 6.75334e-18 0)
(0.0377286 1.98057e-17 0)
(0.0377286 -2.17416e-17 0)
(0.0377286 -7.27875e-18 0)
(0.0377286 -1.68484e-17 0)
(0.0377286 1.69507e-17 0)
(0.0377286 1.62703e-18 0)
(0.0377286 -8.73984e-18 0)
(0.0377286 -2.77894e-18 0)
(0.0377286 -1.26732e-18 0)
(0.0377286 -1.11653e-17 0)
(0.0377286 8.55702e-18 0)
(0.0377286 -9.09578e-18 0)
(0.0377286 -2.66098e-17 0)
(0.0377286 1.96774e-17 0)
(0.0377286 7.25956e-18 0)
(0.0377286 3.87834e-17 0)
(0.0377286 -4.42817e-17 0)
(0.0377286 -5.05634e-17 0)
(0.0377286 3.87845e-17 0)
(0.0377286 1.71247e-17 0)
(0.0377286 4.28541e-17 0)
(0.0377286 -2.28483e-18 0)
(0.0377286 -7.71872e-17 0)
(0.0377286 -1.27857e-17 0)
(0.0377286 4.09112e-17 0)
(0.0377286 4.67652e-17 0)
(0.0377286 -8.92255e-18 0)
(0.0377286 -8.12986e-17 0)
(0.0377286 -2.55046e-18 0)
(0.0377286 7.63665e-17 0)
(0.0377286 3.46278e-18 0)
(0.0377286 -8.03775e-17 0)
(0.0377286 -8.93907e-18 0)
(0.0377286 4.40771e-18 0)
(0.0377286 7.66932e-17 0)
(0.0377286 3.1107e-17 0)
(0.0377286 -1.15744e-16 0)
(0.0377286 -1.07759e-17 0)
(0.0377286 -1.12572e-18 0)
(0.0377286 7.3906e-17 0)
(0.0377286 8.04108e-18 0)
(0.0377286 -3.21301e-17 0)
(0.0377286 -3.79333e-17 0)
(0.0377286 2.91672e-17 0)
(0.0377286 4.43541e-17 0)
(0.0377286 -2.11734e-17 0)
(0.0377286 2.34486e-17 0)
(0.0377286 -1.20204e-16 0)
(0.0377286 2.60342e-17 0)
(0.0377286 8.49383e-17 0)
(0.0377286 4.9776e-18 0)
(0.0377286 -4.05272e-17 0)
(0.0377286 -8.44565e-17 0)
(0.0377286 6.19316e-17 0)
(0.0377286 6.22076e-17 0)
(0.0377286 1.52319e-17 0)
(0.0377286 -1.80434e-17 0)
(0.0377286 -8.48918e-17 0)
(0.0377286 1.42257e-18 0)
(0.0377286 9.16394e-17 0)
(0.0377286 1.57483e-17 0)
(0.0377286 -4.29837e-17 0)
(0.0377286 -6.40434e-17 0)
(0.0377286 3.82213e-18 0)
(0.0377286 9.61199e-17 0)
(0.0377286 6.65881e-18 0)
(0.0377286 -4.82236e-17 0)
(0.0377286 -4.96058e-17 0)
(0.0377286 3.88457e-17 0)
(0.0377286 5.03375e-17 0)
(0.0377286 -3.56397e-17 0)
(0.0377286 -3.92563e-17 0)
(0.0377286 -1.4489e-17 0)
(0.0377286 6.39775e-17 0)
(0.0377286 2.59281e-17 0)
(0.0377286 -2.94617e-17 0)
(0.0377286 -4.21763e-17 0)
(0.0377286 -8.16742e-18 0)
(0.0377286 6.75194e-17 0)
(0.0377286 1.27493e-17 0)
(0.0377286 -6.18155e-17 0)
(0.0377286 5.60462e-17 0)
(0.0377286 -1.24504e-17 0)
(0.0377286 -6.13442e-17 0)
(0.0377286 -1.09738e-17 0)
(0.0377286 9.43e-18 0)
(0.0377286 8.14074e-17 0)
(0.0377286 -1.27602e-17 0)
(0.0377286 -7.51973e-17 0)
(0.0377286 1.33328e-17 0)
(0.0377286 4.22783e-17 0)
(0.0377286 4.18146e-17 0)
(0.0377286 -4.49513e-17 0)
(0.0377286 -5.34132e-17 0)
(0.0377286 3.30051e-17 0)
(0.0377286 1.88313e-17 0)
(0.0377286 7.70857e-17 0)
(0.0377286 -8.49078e-17 0)
(0.0377286 -7.82975e-17 0)
(0.0377286 8.17573e-17 0)
(0.0377286 8.53238e-18 0)
(0.0377286 7.00096e-17 0)
(0.0377286 -6.63545e-17 0)
(0.0377286 -2.87728e-17 0)
(0.0377286 -5.91021e-18 0)
(0.0377286 -5.87981e-17 0)
(0.0377286 1.1991e-16 0)
(0.0377286 -7.04942e-17 0)
(0.0377286 -6.84708e-18 0)
(0.0377286 -6.23958e-19 0)
(0.0377286 -5.10724e-17 0)
(0.0377286 1.16226e-16 0)
(0.0377286 -7.58578e-17 0)
(0.0377286 1.13477e-17 0)
(0.0377286 -5.32452e-18 0)
(0.0377286 -5.46423e-17 0)
(0.0377286 1.48029e-16 0)
(0.0377286 -7.73702e-17 0)
(0.0377286 -1.1951e-17 0)
(0.0377286 5.93567e-18 0)
(0.0377286 -6.09216e-17 0)
(0.0377286 1.40442e-16 0)
(0.0377286 -7.03051e-17 0)
(0.0377286 -7.59716e-18 0)
(0.0377286 6.99269e-17 0)
(0.0377286 -1.34432e-16 0)
(0.0377286 6.02447e-17 0)
(0.0377286 -6.57641e-18 0)
(0.0377286 -6.78435e-17 0)
(0.0377286 1.39472e-16 0)
(0.0377286 -5.81774e-17 0)
(0.0377286 -1.73262e-17 0)
(0.0377286 -7.74259e-17 0)
(0.0377286 7.58033e-18 0)
(0.0377286 2.11919e-16 0)
(0.0377286 -1.3129e-16 0)
(0.0377286 -1.52236e-17 0)
(0.0377286 -7.53873e-17 0)
(0.0377286 1.33922e-17 0)
(0.0377286 2.16723e-16 0)
(0.0377286 -1.25571e-16 0)
(0.0377286 -9.86198e-17 0)
(0.0377286 -1.51113e-17 0)
(0.0377286 9.03963e-17 0)
(0.0377286 1.52101e-16 0)
(0.0377286 -6.81111e-17 0)
(0.0377286 -1.59059e-16 0)
(0.0377286 -7.81157e-17 0)
(0.0377286 2.35218e-16 0)
(0.0377286 6.81085e-19 0)
(0.0377286 -2.28463e-16 0)
(0.0377286 2.1037e-16 0)
(0.0377286 8.05405e-17 0)
(0.0377286 -1.37867e-16 0)
(0.0377286 -9.21831e-17 0)
(0.0377286 -8.27434e-17 0)
(0.0377286 2.35332e-16 0)
(0.0377286 8.36871e-17 0)
(0.0377286 -1.56152e-16 0)
(0.0377286 -9.92305e-17 0)
(0.0377286 -7.37736e-17 0)
(0.0377286 2.36103e-16 0)
(0.0377286 1.29238e-17 0)
(0.0377286 -9.10819e-17 0)
(0.0377286 -2.20506e-17 0)
(0.0377286 -1.27429e-16 0)
(0.0377286 2.21596e-16 0)
(0.0377286 1.09403e-17 0)
(0.0377286 -1.27652e-16 0)
(0.0377286 5.01462e-17 0)
(0.0377286 -8.96764e-17 0)
(0.0377286 1.31274e-16 0)
(0.0377286 1.2864e-17 0)
(0.0377286 -5.32665e-17 0)
(0.0377286 -8.36973e-19 0)
(0.0377286 -1.41501e-16 0)
(0.0377286 2.00986e-16 0)
(0.0377286 4.19722e-18 0)
(0.0377286 -6.31852e-17 0)
(0.0377286 6.8899e-17 0)
(0.0377286 -1.68972e-16 0)
(0.0377286 -1.11751e-17 0)
(0.0377286 7.91324e-17 0)
(0.0377286 8.5338e-17 0)
(0.0377286 -7.97695e-19 0)
(0.0377286 -1.58337e-16 0)
(0.0377286 8.4786e-17 0)
(0.0377286 1.59721e-17 0)
(0.0377286 -5.85021e-18 0)
(0.0377286 5.23799e-17 0)
(0.0377286 -1.47689e-16 0)
(0.0377286 9.51745e-17 0)
(0.0377286 4.68959e-18 0)
(0.0377286 -5.02895e-18 0)
(0.0377286 7.01898e-17 0)
(0.0377286 -1.58638e-16 0)
(0.0377286 6.92038e-17 0)
(0.0377286 1.40088e-17 0)
(0.0377286 -2.46515e-18 0)
(0.0377286 5.79147e-17 0)
(0.0377286 -1.3527e-16 0)
(0.0377286 8.45719e-17 0)
(0.0377286 7.87716e-17 0)
(0.0377286 -6.32732e-17 0)
(0.0377286 -9.27433e-18 0)
(0.0377286 -8.73897e-17 0)
(0.0377286 7.79177e-17 0)
(0.0377286 6.81023e-17 0)
(0.0377286 -1.07929e-16 0)
(0.0377286 5.24994e-17 0)
(0.0377286 -2.03435e-17 0)
(0.0377286 1.1525e-17 0)
(0.0377286 5.24275e-17 0)
(0.0377286 -1.35707e-16 0)
(0.0377286 6.2094e-17 0)
(0.0377286 -1.50292e-17 0)
(0.0377286 7.15031e-18 0)
(0.0377286 6.08044e-17 0)
(0.0377286 -1.18949e-16 0)
(0.0377286 5.91887e-17 0)
(0.0377286 -2.30909e-17 0)
(0.0377286 -4.77055e-17 0)
(0.0377286 1.41156e-16 0)
(0.0377286 -5.36187e-17 0)
(0.0377286 -4.29495e-17 0)
(0.0377286 -9.01934e-17 0)
(0.0377286 3.84606e-17 0)
(0.0377286 2.10434e-16 0)
(0.0377286 -1.13477e-17 0)
(0.0377286 -2.17226e-16 0)
(0.0377286 -2.48965e-17 0)
(0.0377286 9.20609e-17 0)
(0.0377286 1.68741e-17 0)
(0.0377286 1.05159e-16 0)
(0.0377286 -2.07101e-16 0)
(0.0377286 -3.23191e-17 0)
(0.0377286 9.28542e-17 0)
(0.0377286 1.66723e-17 0)
(0.0377286 6.36663e-17 0)
(0.0377286 -1.38417e-16 0)
(0.0377286 2.26039e-17 0)
(0.0377286 9.50103e-19 0)
(0.0377286 -6.36043e-17 0)
(0.0377286 1.13942e-16 0)
(0.0377286 -9.01173e-17 0)
(0.0377286 -1.97463e-17 0)
(0.0377286 -1.15466e-17 0)
(0.0377286 -8.63008e-17 0)
(0.0377286 1.26887e-16 0)
(0.0377286 -9.34145e-17 0)
(0.0377286 -1.24982e-16 0)
(0.0377286 5.71385e-18 0)
(0.0377286 -9.66386e-17 0)
(0.0377286 -8.10519e-17 0)
(0.0377286 -3.20064e-16 0)
(0.0377286 -4.56644e-16 0)
(0.111296 -2.02761e-15 0)
(0.111296 -9.05456e-16 0)
(0.111296 -4.87241e-16 0)
(0.111296 -3.01934e-16 0)
(0.111296 -1.52555e-16 0)
(0.111296 -8.66275e-17 0)
(0.111296 -7.31768e-17 0)
(0.111296 -5.21565e-17 0)
(0.111296 -3.67389e-17 0)
(0.111296 -2.48457e-17 0)
(0.111296 -1.09891e-17 0)
(0.111296 -3.53888e-17 0)
(0.111296 -3.47422e-18 0)
(0.111296 2.56516e-18 0)
(0.111296 -3.10382e-17 0)
(0.111296 3.44215e-18 0)
(0.111296 -4.85822e-18 0)
(0.111296 -2.8224e-17 0)
(0.111296 -5.70148e-17 0)
(0.111296 -5.5211e-17 0)
(0.111296 -1.66823e-17 0)
(0.111296 -1.6371e-17 0)
(0.111296 -4.65832e-17 0)
(0.111296 -4.70334e-17 0)
(0.111296 -5.01952e-17 0)
(0.111296 -3.55682e-17 0)
(0.111296 3.57916e-17 0)
(0.111296 4.12757e-18 0)
(0.111296 -3.87842e-17 0)
(0.111296 -3.12728e-17 0)
(0.111296 1.78486e-17 0)
(0.111296 6.59219e-17 0)
(0.111296 3.96414e-17 0)
(0.111296 -1.20327e-18 0)
(0.111296 7.52292e-18 0)
(0.111296 2.39591e-17 0)
(0.111296 5.52992e-17 0)
(0.111296 -1.10229e-17 0)
(0.111296 -7.94773e-18 0)
(0.111296 7.17911e-17 0)
(0.111296 -6.75073e-21 0)
(0.111296 2.03978e-18 0)
(0.111296 1.12597e-17 0)
(0.111296 -1.54985e-17 0)
(0.111296 6.61759e-17 0)
(0.111296 2.797e-17 0)
(0.111296 3.50546e-17 0)
(0.111296 2.56165e-17 0)
(0.111296 8.90079e-18 0)
(0.111296 -1.2336e-17 0)
(0.111296 -6.12796e-17 0)
(0.111296 1.8191e-17 0)
(0.111296 -8.58474e-18 0)
(0.111296 -2.14258e-18 0)
(0.111296 6.13587e-17 0)
(0.111296 -1.8801e-17 0)
(0.111296 1.07955e-17 0)
(0.111296 1.53383e-17 0)
(0.111296 1.50353e-17 0)
(0.111296 3.86605e-17 0)
(0.111296 -4.64185e-17 0)
(0.111296 4.22645e-17 0)
(0.111296 2.51844e-17 0)
(0.111296 1.46216e-17 0)
(0.111296 3.52319e-17 0)
(0.111296 -5.11201e-17 0)
(0.111296 -2.58794e-17 0)
(0.111296 -1.21881e-17 0)
(0.111296 5.33266e-18 0)
(0.111296 1.43842e-17 0)
(0.111296 -5.33148e-17 0)
(0.111296 -3.43024e-17 0)
(0.111296 -4.2221e-17 0)
(0.111296 -3.67952e-17 0)
(0.111296 1.03727e-16 0)
(0.111296 -6.88824e-17 0)
(0.111296 -1.12909e-16 0)
(0.111296 4.21397e-17 0)
(0.111296 1.92582e-17 0)
(0.111296 5.32602e-17 0)
(0.111296 -4.20794e-17 0)
(0.111296 -1.27813e-16 0)
(0.111296 2.04619e-17 0)
(0.111296 8.99008e-17 0)
(0.111296 8.33752e-17 0)
(0.111296 7.08303e-18 0)
(0.111296 -1.04716e-16 0)
(0.111296 -6.79884e-17 0)
(0.111296 8.59936e-17 0)
(0.111296 1.3038e-16 0)
(0.111296 -4.19989e-17 0)
(0.111296 -1.18649e-16 0)
(0.111296 -8.51418e-18 0)
(0.111296 8.33293e-17 0)
(0.111296 -1.33609e-17 0)
(0.111296 -1.37219e-16 0)
(0.111296 -4.54241e-17 0)
(0.111296 -1.28033e-18 0)
(0.111296 9.35666e-17 0)
(0.111296 3.21662e-17 0)
(0.111296 -1.66902e-16 0)
(0.111296 -7.78745e-18 0)
(0.111296 -6.58522e-17 0)
(0.111296 1.81437e-17 0)
(0.111296 4.0109e-17 0)
(0.111296 -4.10653e-17 0)
(0.111296 -7.85016e-17 0)
(0.111296 1.41108e-17 0)
(0.111296 6.67727e-17 0)
(0.111296 1.0352e-17 0)
(0.111296 2.74636e-17 0)
(0.111296 -2.04074e-16 0)
(0.111296 1.29776e-17 0)
(0.111296 1.88717e-16 0)
(0.111296 1.96578e-17 0)
(0.111296 -5.83404e-17 0)
(0.111296 -1.16339e-16 0)
(0.111296 3.99457e-17 0)
(0.111296 1.39079e-16 0)
(0.111296 3.80214e-17 0)
(0.111296 -3.97008e-17 0)
(0.111296 -1.04025e-16 0)
(0.111296 3.37004e-17 0)
(0.111296 1.96868e-16 0)
(0.111296 7.11398e-17 0)
(0.111296 -8.61564e-17 0)
(0.111296 -1.64569e-16 0)
(0.111296 3.09964e-19 0)
(0.111296 1.80821e-16 0)
(0.111296 3.09778e-17 0)
(0.111296 -9.33109e-17 0)
(0.111296 -1.04539e-16 0)
(0.111296 5.96448e-17 0)
(0.111296 1.23142e-16 0)
(0.111296 -2.83393e-19 0)
(0.111296 8.42221e-18 0)
(0.111296 -1.07298e-16 0)
(0.111296 -3.85477e-17 0)
(0.111296 1.43194e-16 0)
(0.111296 8.31925e-17 0)
(0.111296 1.30527e-17 0)
(0.111296 -1.00212e-16 0)
(0.111296 -3.83853e-17 0)
(0.111296 7.55423e-17 0)
(0.111296 3.8644e-17 0)
(0.111296 -3.92596e-17 0)
(0.111296 -1.46232e-16 0)
(0.111296 -9.22444e-18 0)
(0.111296 1.83566e-17 0)
(0.111296 9.001e-17 0)
(0.111296 1.0593e-16 0)
(0.111296 -1.99545e-16 0)
(0.111296 -1.28014e-16 0)
(0.111296 1.21967e-16 0)
(0.111296 1.14744e-16 0)
(0.111296 7.05454e-17 0)
(0.111296 -8.39794e-17 0)
(0.111296 -1.03518e-16 0)
(0.111296 5.15757e-17 0)
(0.111296 6.21124e-17 0)
(0.111296 1.11882e-16 0)
(0.111296 -1.29569e-16 0)
(0.111296 -3.4742e-17 0)
(0.111296 1.18654e-16 0)
(0.111296 -1.50021e-16 0)
(0.111296 3.59125e-17 0)
(0.111296 -7.33341e-17 0)
(0.111296 -2.208e-16 0)
(0.111296 1.2475e-16 0)
(0.111296 7.4332e-17 0)
(0.111296 -4.26533e-17 0)
(0.111296 -1.6604e-16 0)
(0.111296 -5.71564e-17 0)
(0.111296 6.45217e-18 0)
(0.111296 -6.36381e-17 0)
(0.111296 -4.59785e-17 0)
(0.111296 -2.73927e-17 0)
(0.111296 2.84041e-16 0)
(0.111296 -2.21694e-17 0)
(0.111296 -1.01016e-16 0)
(0.111296 1.75174e-16 0)
(0.111296 -1.44674e-16 0)
(0.111296 -4.34203e-17 0)
(0.111296 1.1249e-17 0)
(0.111296 -6.09046e-17 0)
(0.111296 1.77619e-16 0)
(0.111296 -9.79933e-17 0)
(0.111296 -2.98692e-17 0)
(0.111296 8.52285e-17 0)
(0.111296 -1.77373e-16 0)
(0.111296 2.9237e-17 0)
(0.111296 -4.19502e-17 0)
(0.111296 -9.36981e-17 0)
(0.111296 1.78202e-16 0)
(0.111296 -5.86818e-17 0)
(0.111296 -4.01976e-17 0)
(0.111296 -1.03884e-16 0)
(0.111296 3.7417e-17 0)
(0.111296 2.90328e-16 0)
(0.111296 -1.48677e-16 0)
(0.111296 -3.7191e-17 0)
(0.111296 -9.76417e-17 0)
(0.111296 5.01129e-17 0)
(0.111296 3.19941e-16 0)
(0.111296 -7.23417e-17 0)
(0.111296 -2.38952e-16 0)
(0.111296 -1.34545e-16 0)
(0.111296 1.889e-16 0)
(0.111296 2.13622e-16 0)
(0.111296 -8.17685e-17 0)
(0.111296 -2.26788e-16 0)
(0.111296 -1.15475e-16 0)
(0.111296 3.50347e-16 0)
(0.111296 1.94001e-17 0)
(0.111296 -3.3736e-16 0)
(0.111296 2.69407e-16 0)
(0.111296 1.19456e-16 0)
(0.111296 -1.64993e-16 0)
(0.111296 -1.6594e-16 0)
(0.111296 -1.59973e-16 0)
(0.111296 3.4982e-16 0)
(0.111296 1.42677e-16 0)
(0.111296 -2.2126e-16 0)
(0.111296 -1.81249e-16 0)
(0.111296 -1.2643e-16 0)
(0.111296 3.64622e-16 0)
(0.111296 3.974e-17 0)
(0.111296 -1.61736e-16 0)
(0.111296 1.7835e-17 0)
(0.111296 -9.3308e-17 0)
(0.111296 1.17919e-16 0)
(0.111296 -1.65369e-17 0)
(0.111296 6.23816e-17 0)
(0.111296 4.0431e-17 0)
(0.111296 -2.89638e-16 0)
(0.111296 3.59704e-17 0)
(0.111296 1.01182e-16 0)
(0.111296 2.25182e-17 0)
(0.111296 5.29604e-17 0)
(0.111296 -1.61149e-16 0)
(0.111296 7.66657e-17 0)
(0.111296 -4.65148e-17 0)
(0.111296 -1.19501e-17 0)
(0.111296 7.77521e-17 0)
(0.111296 -3.04967e-16 0)
(0.111296 -3.48687e-17 0)
(0.111296 1.26527e-16 0)
(0.111296 1.45075e-16 0)
(0.111296 -4.0364e-18 0)
(0.111296 -2.3467e-16 0)
(0.111296 1.7663e-16 0)
(0.111296 7.77907e-17 0)
(0.111296 -2.15215e-17 0)
(0.111296 2.20371e-17 0)
(0.111296 -2.00914e-16 0)
(0.111296 2.22502e-16 0)
(0.111296 5.2892e-17 0)
(0.111296 -2.70266e-17 0)
(0.111296 7.22382e-17 0)
(0.111296 -2.42113e-16 0)
(0.111296 1.01645e-16 0)
(0.111296 9.48453e-17 0)
(0.111296 -8.06064e-17 0)
(0.111296 -1.34939e-17 0)
(0.111296 -9.47321e-17 0)
(0.111296 1.99182e-16 0)
(0.111296 1.56654e-16 0)
(0.111296 2.05291e-17 0)
(0.111296 -9.25178e-17 0)
(0.111296 -1.87425e-16 0)
(0.111296 9.87223e-17 0)
(0.111296 7.69721e-17 0)
(0.111296 1.02888e-16 0)
(0.111296 -1.05549e-16 0)
(0.111296 -2.31955e-16 0)
(0.111296 4.15393e-17 0)
(0.111296 -2.22356e-17 0)
(0.111296 -1.08206e-16 0)
(0.111296 7.34498e-17 0)
(0.111296 -8.37522e-17 0)
(0.111296 3.44801e-17 0)
(0.111296 1.16266e-16 0)
(0.111296 5.33456e-18 0)
(0.111296 -9.11314e-17 0)
(0.111296 -1.90643e-16 0)
(0.111296 4.30548e-17 0)
(0.111296 2.02276e-16 0)
(0.111296 1.37559e-16 0)
(0.111296 -2.56758e-16 0)
(0.111296 -1.72202e-16 0)
(0.111296 2.06608e-16 0)
(0.111296 -6.96868e-18 0)
(0.111296 -8.22671e-17 0)
(0.111296 -1.24593e-16 0)
(0.111296 -5.43503e-19 0)
(0.111296 2.98545e-16 0)
(0.111296 -8.76174e-17 0)
(0.111296 -8.66687e-17 0)
(0.111296 -1.71871e-16 0)
(0.111296 -2.20671e-17 0)
(0.111296 3.24e-16 0)
(0.111296 -2.29838e-17 0)
(0.111296 7.49848e-17 0)
(0.111296 -1.44995e-16 0)
(0.111296 -3.65063e-16 0)
(0.111296 -3.23287e-17 0)
(0.111296 5.89144e-17 0)
(0.111296 1.09609e-16 0)
(0.111296 -1.86842e-16 0)
(0.111296 -5.05977e-17 0)
(0.111296 -6.03336e-18 0)
(0.111296 -1.12143e-16 0)
(0.111296 1.6287e-16 0)
(0.111296 -1.40097e-16 0)
(0.111296 -2.27566e-16 0)
(0.111296 -2.73071e-17 0)
(0.111296 -3.25537e-16 0)
(0.111296 -3.04989e-16 0)
(0.111296 -5.4034e-16 0)
(0.111296 -1.07531e-15 0)
(0.182968 -9.13214e-16 0)
(0.182968 -6.73039e-16 0)
(0.182968 -4.91943e-16 0)
(0.182968 -3.10896e-16 0)
(0.182968 -1.60556e-16 0)
(0.182968 -7.36288e-17 0)
(0.182968 -5.51242e-17 0)
(0.182968 -2.84687e-17 0)
(0.182968 -1.20249e-17 0)
(0.182968 5.62803e-18 0)
(0.182968 6.19452e-18 0)
(0.182968 -1.35412e-17 0)
(0.182968 3.40869e-17 0)
(0.182968 5.84755e-18 0)
(0.182968 -4.00689e-17 0)
(0.182968 -1.87063e-17 0)
(0.182968 -2.99151e-17 0)
(0.182968 -4.74442e-17 0)
(0.182968 -7.81384e-17 0)
(0.182968 -9.27491e-17 0)
(0.182968 -4.77668e-17 0)
(0.182968 -7.68819e-17 0)
(0.182968 -8.99862e-17 0)
(0.182968 -6.2084e-17 0)
(0.182968 -7.60581e-17 0)
(0.182968 -5.98364e-17 0)
(0.182968 -3.29911e-18 0)
(0.182968 8.81561e-18 0)
(0.182968 -3.81859e-17 0)
(0.182968 -3.74275e-17 0)
(0.182968 5.96661e-17 0)
(0.182968 1.55175e-16 0)
(0.182968 9.18195e-17 0)
(0.182968 -5.80945e-18 0)
(0.182968 7.75125e-18 0)
(0.182968 2.93595e-17 0)
(0.182968 8.50262e-17 0)
(0.182968 5.33062e-17 0)
(0.182968 1.21517e-17 0)
(0.182968 7.77671e-17 0)
(0.182968 5.30727e-17 0)
(0.182968 2.19675e-17 0)
(0.182968 4.70766e-17 0)
(0.182968 -5.80627e-18 0)
(0.182968 2.59388e-17 0)
(0.182968 9.30292e-17 0)
(0.182968 7.39093e-17 0)
(0.182968 6.9617e-17 0)
(0.182968 4.65073e-17 0)
(0.182968 3.1079e-18 0)
(0.182968 -2.49877e-17 0)
(0.182968 -9.35939e-18 0)
(0.182968 -2.33759e-17 0)
(0.182968 3.75849e-18 0)
(0.182968 7.00755e-17 0)
(0.182968 5.04701e-18 0)
(0.182968 2.33776e-17 0)
(0.182968 2.51104e-17 0)
(0.182968 6.0335e-17 0)
(0.182968 7.16914e-17 0)
(0.182968 -4.02535e-17 0)
(0.182968 9.91403e-17 0)
(0.182968 2.84021e-17 0)
(0.182968 -1.29951e-17 0)
(0.182968 7.05094e-17 0)
(0.182968 -9.28334e-17 0)
(0.182968 -3.84099e-17 0)
(0.182968 -2.21301e-17 0)
(0.182968 -2.246e-19 0)
(0.182968 1.00175e-17 0)
(0.182968 -9.86357e-17 0)
(0.182968 -8.16464e-17 0)
(0.182968 -8.50685e-17 0)
(0.182968 1.10078e-17 0)
(0.182968 9.65657e-17 0)
(0.182968 -1.01808e-16 0)
(0.182968 -1.34871e-16 0)
(0.182968 1.03938e-17 0)
(0.182968 3.76486e-18 0)
(0.182968 4.00582e-17 0)
(0.182968 -6.92344e-17 0)
(0.182968 -9.62544e-17 0)
(0.182968 8.25238e-17 0)
(0.182968 8.91628e-17 0)
(0.182968 5.32418e-17 0)
(0.182968 4.08114e-18 0)
(0.182968 5.16209e-18 0)
(0.182968 -6.62165e-17 0)
(0.182968 -2.91935e-17 0)
(0.182968 1.52343e-16 0)
(0.182968 -4.53882e-18 0)
(0.182968 -8.45202e-17 0)
(0.182968 2.04551e-17 0)
(0.182968 -2.07983e-18 0)
(0.182968 -5.48957e-17 0)
(0.182968 -1.13753e-16 0)
(0.182968 -8.01653e-17 0)
(0.182968 -3.84811e-17 0)
(0.182968 -2.12097e-17 0)
(0.182968 -2.27621e-17 0)
(0.182968 -8.70497e-17 0)
(0.182968 -7.93048e-17 0)
(0.182968 -1.09113e-16 0)
(0.182968 -7.32599e-17 0)
(0.182968 -3.1313e-17 0)
(0.182968 -6.67636e-18 0)
(0.182968 -1.30772e-16 0)
(0.182968 -9.68823e-17 0)
(0.182968 8.36289e-17 0)
(0.182968 1.17926e-16 0)
(0.182968 7.23887e-18 0)
(0.182968 -2.5132e-16 0)
(0.182968 -8.26422e-19 0)
(0.182968 2.04688e-16 0)
(0.182968 9.67764e-17 0)
(0.182968 -1.14927e-17 0)
(0.182968 -1.68696e-16 0)
(0.182968 -2.03833e-17 0)
(0.182968 2.97099e-16 0)
(0.182968 1.84304e-16 0)
(0.182968 -1.10311e-16 0)
(0.182968 -1.84044e-16 0)
(0.182968 5.50631e-17 0)
(0.182968 3.30917e-16 0)
(0.182968 2.16853e-16 0)
(0.182968 -1.33202e-16 0)
(0.182968 -3.95414e-16 0)
(0.182968 -1.5096e-17 0)
(0.182968 2.60102e-16 0)
(0.182968 7.61161e-17 0)
(0.182968 -7.80527e-17 0)
(0.182968 -1.87293e-16 0)
(0.182968 8.43006e-17 0)
(0.182968 2.51603e-16 0)
(0.182968 4.56567e-17 0)
(0.182968 -5.10868e-17 0)
(0.182968 -1.24966e-16 0)
(0.182968 2.62831e-17 0)
(0.182968 2.84988e-16 0)
(0.182968 1.42848e-16 0)
(0.182968 -6.52719e-17 0)
(0.182968 -1.43323e-16 0)
(0.182968 3.98189e-17 0)
(0.182968 9.42782e-17 0)
(0.182968 -6.31058e-17 0)
(0.182968 -1.34934e-16 0)
(0.182968 -1.42572e-16 0)
(0.182968 5.19583e-17 0)
(0.182968 2.6871e-17 0)
(0.182968 -3.29845e-17 0)
(0.182968 1.24253e-16 0)
(0.182968 -7.20816e-17 0)
(0.182968 -1.39924e-16 0)
(0.182968 4.57073e-17 0)
(0.182968 9.57715e-17 0)
(0.182968 1.23282e-16 0)
(0.182968 -3.52247e-17 0)
(0.182968 -1.24461e-16 0)
(0.182968 4.30259e-17 0)
(0.182968 1.29843e-16 0)
(0.182968 1.21574e-16 0)
(0.182968 -1.72026e-16 0)
(0.182968 -1.23825e-16 0)
(0.182968 1.4719e-16 0)
(0.182968 -5.38064e-17 0)
(0.182968 -8.36707e-17 0)
(0.182968 -1.21814e-16 0)
(0.182968 -1.56447e-16 0)
(0.182968 -7.56338e-17 0)
(0.182968 -7.25301e-17 0)
(0.182968 -1.07714e-16 0)
(0.182968 -1.9433e-16 0)
(0.182968 -9.57966e-17 0)
(0.182968 5.83895e-17 0)
(0.182968 6.06881e-17 0)
(0.182968 -1.43634e-16 0)
(0.182968 -1.40316e-16 0)
(0.182968 1.42799e-16 0)
(0.182968 9.45533e-17 0)
(0.182968 1.68466e-16 0)
(0.182968 5.22634e-17 0)
(0.182968 -3.13418e-16 0)
(0.182968 -9.12154e-17 0)
(0.182968 9.80737e-17 0)
(0.182968 3.94748e-17 0)
(0.182968 1.29312e-16 0)
(0.182968 -1.31266e-16 0)
(0.182968 -1.31011e-16 0)
(0.182968 9.36524e-17 0)
(0.182968 -7.77812e-17 0)
(0.182968 -8.2472e-17 0)
(0.182968 -8.35924e-17 0)
(0.182968 -7.09647e-17 0)
(0.182968 4.82045e-17 0)
(0.182968 -4.52921e-18 0)
(0.182968 -4.49146e-17 0)
(0.182968 -4.06581e-17 0)
(0.182968 6.13775e-17 0)
(0.182968 1.47004e-16 0)
(0.182968 9.24312e-18 0)
(0.182968 -1.97985e-17 0)
(0.182968 -2.02578e-17 0)
(0.182968 7.20671e-17 0)
(0.182968 1.59698e-16 0)
(0.182968 8.43009e-18 0)
(0.182968 -1.04001e-16 0)
(0.182968 -8.51065e-17 0)
(0.182968 5.91331e-17 0)
(0.182968 5.1055e-17 0)
(0.182968 -3.24865e-17 0)
(0.182968 -1.18554e-16 0)
(0.182968 -1.48893e-16 0)
(0.182968 3.388e-16 0)
(0.182968 4.45691e-17 0)
(0.182968 -3.09023e-16 0)
(0.182968 2.15626e-16 0)
(0.182968 9.1487e-19 0)
(0.182968 -3.86367e-17 0)
(0.182968 -1.31119e-16 0)
(0.182968 -2.76705e-16 0)
(0.182968 3.80934e-16 0)
(0.182968 1.0306e-16 0)
(0.182968 -1.46754e-16 0)
(0.182968 -1.39323e-16 0)
(0.182968 -2.39022e-16 0)
(0.182968 4.13229e-16 0)
(0.182968 4.65788e-17 0)
(0.182968 -2.42007e-16 0)
(0.182968 -1.02921e-16 0)
(0.182968 -1.45562e-16 0)
(0.182968 4.40934e-16 0)
(0.182968 1.23593e-16 0)
(0.182968 -8.19022e-17 0)
(0.182968 -1.4965e-17 0)
(0.182968 -3.71494e-16 0)
(0.182968 -2.58929e-17 0)
(0.182968 -3.25591e-17 0)
(0.182968 2.36738e-16 0)
(0.182968 2.45832e-16 0)
(0.182968 -3.46229e-16 0)
(0.182968 9.16799e-18 0)
(0.182968 -1.82884e-16 0)
(0.182968 2.09033e-17 0)
(0.182968 1.05075e-16 0)
(0.182968 -5.57269e-16 0)
(0.182968 -3.71159e-17 0)
(0.182968 1.40212e-16 0)
(0.182968 1.94239e-16 0)
(0.182968 1.04891e-18 0)
(0.182968 -3.06603e-16 0)
(0.182968 4.77127e-16 0)
(0.182968 1.4468e-16 0)
(0.182968 -1.90509e-16 0)
(0.182968 -1.91839e-16 0)
(0.182968 -1.95098e-16 0)
(0.182968 6.23396e-16 0)
(0.182968 8.12497e-17 0)
(0.182968 -1.70096e-16 0)
(0.182968 5.45275e-17 0)
(0.182968 -2.75267e-16 0)
(0.182968 2.16337e-16 0)
(0.182968 3.19225e-17 0)
(0.182968 -5.74875e-17 0)
(0.182968 -9.48445e-18 0)
(0.182968 -1.60577e-16 0)
(0.182968 4.12658e-16 0)
(0.182968 1.51317e-16 0)
(0.182968 1.31407e-17 0)
(0.182968 2.74354e-17 0)
(0.182968 -3.05042e-16 0)
(0.182968 1.30322e-16 0)
(0.182968 7.93964e-17 0)
(0.182968 5.12683e-17 0)
(0.182968 -4.17464e-17 0)
(0.182968 -4.38762e-16 0)
(0.182968 1.57046e-19 0)
(0.182968 -5.97135e-17 0)
(0.182968 -5.02581e-17 0)
(0.182968 7.01862e-17 0)
(0.182968 -2.92903e-16 0)
(0.182968 9.99143e-17 0)
(0.182968 5.81959e-17 0)
(0.182968 2.5151e-17 0)
(0.182968 3.07938e-17 0)
(0.182968 -3.27243e-16 0)
(0.182968 1.37184e-16 0)
(0.182968 2.39778e-16 0)
(0.182968 -8.99007e-17 0)
(0.182968 -1.81261e-16 0)
(0.182968 -1.98644e-16 0)
(0.182968 2.17218e-16 0)
(0.182968 1.40837e-16 0)
(0.182968 -2.08442e-16 0)
(0.182968 -1.19701e-17 0)
(0.182968 -4.16311e-17 0)
(0.182968 6.70588e-17 0)
(0.182968 1.90177e-16 0)
(0.182968 -1.44972e-16 0)
(0.182968 -1.62854e-16 0)
(0.182968 -1.26288e-16 0)
(0.182968 2.13933e-16 0)
(0.182968 3.89029e-16 0)
(0.182968 5.14596e-18 0)
(0.182968 -4.63713e-16 0)
(0.182968 -3.00706e-16 0)
(0.182968 4.28088e-17 0)
(0.182968 -3.58102e-17 0)
(0.182968 -4.21244e-17 0)
(0.182968 -3.21015e-16 0)
(0.182968 -3.39731e-17 0)
(0.182968 2.91819e-17 0)
(0.182968 -1.15567e-16 0)
(0.182968 1.55485e-16 0)
(0.182968 -1.24387e-16 0)
(0.182968 -2.60891e-16 0)
(0.182968 -2.74501e-16 0)
(0.182968 -4.17729e-16 0)
(0.182968 -2.05219e-16 0)
(0.182968 -6.21429e-16 0)
(0.182968 -9.30411e-16 0)
(0.25274 -5.21269e-16 0)
(0.25274 -4.91357e-16 0)
(0.25274 -3.79939e-16 0)
(0.25274 -2.60744e-16 0)
(0.25274 -1.50192e-16 0)
(0.25274 -5.70252e-17 0)
(0.25274 1.53769e-17 0)
(0.25274 6.92783e-17 0)
(0.25274 3.21252e-17 0)
(0.25274 3.70988e-17 0)
(0.25274 4.68725e-17 0)
(0.25274 1.56857e-17 0)
(0.25274 2.99345e-17 0)
(0.25274 1.59815e-17 0)
(0.25274 -3.21937e-17 0)
(0.25274 -3.5074e-17 0)
(0.25274 -6.50099e-17 0)
(0.25274 -8.32421e-17 0)
(0.25274 -9.8537e-17 0)
(0.25274 -1.15734e-16 0)
(0.25274 -8.47302e-17 0)
(0.25274 -1.17858e-16 0)
(0.25274 -1.11675e-16 0)
(0.25274 -1.06383e-16 0)
(0.25274 -1.40026e-16 0)
(0.25274 -3.99675e-17 0)
(0.25274 1.7357e-17 0)
(0.25274 -2.29742e-17 0)
(0.25274 -5.62635e-17 0)
(0.25274 7.79151e-18 0)
(0.25274 1.08341e-16 0)
(0.25274 1.91646e-16 0)
(0.25274 1.3181e-16 0)
(0.25274 2.24683e-17 0)
(0.25274 5.62287e-18 0)
(0.25274 3.49619e-17 0)
(0.25274 1.32977e-16 0)
(0.25274 1.25248e-16 0)
(0.25274 4.18352e-17 0)
(0.25274 9.49304e-17 0)
(0.25274 9.15642e-17 0)
(0.25274 5.86042e-17 0)
(0.25274 4.51123e-17 0)
(0.25274 2.61018e-17 0)
(0.25274 5.91776e-17 0)
(0.25274 1.25347e-16 0)
(0.25274 1.34472e-16 0)
(0.25274 1.10721e-16 0)
(0.25274 7.2282e-17 0)
(0.25274 3.07092e-17 0)
(0.25274 -2.39337e-17 0)
(0.25274 1.41259e-17 0)
(0.25274 4.20174e-17 0)
(0.25274 3.34154e-17 0)
(0.25274 8.48851e-17 0)
(0.25274 -6.29946e-18 0)
(0.25274 3.16683e-17 0)
(0.25274 6.76054e-17 0)
(0.25274 8.13817e-17 0)
(0.25274 1.19405e-16 0)
(0.25274 -2.3772e-18 0)
(0.25274 9.42655e-17 0)
(0.25274 5.70627e-17 0)
(0.25274 8.68839e-18 0)
(0.25274 1.96993e-18 0)
(0.25274 -1.23168e-16 0)
(0.25274 1.34571e-17 0)
(0.25274 -1.2944e-17 0)
(0.25274 1.12166e-17 0)
(0.25274 2.17528e-17 0)
(0.25274 -1.65652e-16 0)
(0.25274 -1.09866e-16 0)
(0.25274 -1.18324e-16 0)
(0.25274 -3.95049e-17 0)
(0.25274 8.05129e-17 0)
(0.25274 -1.42007e-16 0)
(0.25274 -1.19566e-16 0)
(0.25274 -1.26794e-17 0)
(0.25274 -2.61733e-17 0)
(0.25274 9.34494e-17 0)
(0.25274 -4.89104e-17 0)
(0.25274 -9.1313e-17 0)
(0.25274 8.4093e-17 0)
(0.25274 1.06338e-16 0)
(0.25274 6.14264e-17 0)
(0.25274 -5.74278e-17 0)
(0.25274 5.26067e-18 0)
(0.25274 1.46513e-17 0)
(0.25274 -1.7167e-17 0)
(0.25274 1.10641e-16 0)
(0.25274 4.97309e-17 0)
(0.25274 -4.37917e-17 0)
(0.25274 -1.98292e-17 0)
(0.25274 -1.94573e-17 0)
(0.25274 -7.54634e-17 0)
(0.25274 -1.82822e-16 0)
(0.25274 -9.66084e-17 0)
(0.25274 -6.94386e-17 0)
(0.25274 -1.18873e-16 0)
(0.25274 -9.11989e-17 0)
(0.25274 -1.30095e-16 0)
(0.25274 -1.72589e-16 0)
(0.25274 -2.34929e-16 0)
(0.25274 -1.48161e-16 0)
(0.25274 -6.3806e-18 0)
(0.25274 -4.57827e-17 0)
(0.25274 -2.41156e-16 0)
(0.25274 -2.14221e-16 0)
(0.25274 1.17382e-16 0)
(0.25274 2.09756e-16 0)
(0.25274 -1.06178e-17 0)
(0.25274 -2.7733e-16 0)
(0.25274 2.37446e-18 0)
(0.25274 2.25135e-16 0)
(0.25274 1.91757e-16 0)
(0.25274 9.64645e-17 0)
(0.25274 -2.24129e-16 0)
(0.25274 -4.68474e-17 0)
(0.25274 3.75785e-16 0)
(0.25274 2.99286e-16 0)
(0.25274 -1.31309e-16 0)
(0.25274 -2.94691e-16 0)
(0.25274 1.17802e-16 0)
(0.25274 4.12299e-16 0)
(0.25274 2.06919e-16 0)
(0.25274 -1.16507e-16 0)
(0.25274 -3.62884e-16 0)
(0.25274 -1.06412e-16 0)
(0.25274 2.73073e-16 0)
(0.25274 8.39117e-17 0)
(0.25274 -1.14824e-16 0)
(0.25274 -8.22784e-17 0)
(0.25274 6.91745e-17 0)
(0.25274 2.74136e-16 0)
(0.25274 1.96596e-16 0)
(0.25274 8.77719e-18 0)
(0.25274 -1.90605e-16 0)
(0.25274 -8.91799e-18 0)
(0.25274 4.20879e-16 0)
(0.25274 2.31735e-16 0)
(0.25274 -8.39347e-17 0)
(0.25274 -2.565e-16 0)
(0.25274 6.52575e-17 0)
(0.25274 1.36885e-16 0)
(0.25274 -3.05169e-17 0)
(0.25274 -1.26832e-16 0)
(0.25274 -3.75764e-16 0)
(0.25274 1.41592e-17 0)
(0.25274 1.16402e-16 0)
(0.25274 6.86092e-17 0)
(0.25274 5.7608e-17 0)
(0.25274 -2.20943e-16 0)
(0.25274 -4.20838e-17 0)
(0.25274 1.15791e-16 0)
(0.25274 1.18932e-16 0)
(0.25274 8.18694e-17 0)
(0.25274 -1.05523e-16 0)
(0.25274 -9.28718e-17 0)
(0.25274 1.09104e-16 0)
(0.25274 1.54175e-16 0)
(0.25274 1.20549e-16 0)
(0.25274 -2.38072e-16 0)
(0.25274 -9.03723e-17 0)
(0.25274 1.55489e-16 0)
(0.25274 -1.93463e-16 0)
(0.25274 -1.52434e-16 0)
(0.25274 -1.6158e-16 0)
(0.25274 -1.60329e-16 0)
(0.25274 -1.15633e-16 0)
(0.25274 -1.37515e-16 0)
(0.25274 -2.01607e-16 0)
(0.25274 -2.83127e-16 0)
(0.25274 -1.77157e-16 0)
(0.25274 1.10772e-16 0)
(0.25274 1.70908e-17 0)
(0.25274 -2.02177e-16 0)
(0.25274 -1.07934e-16 0)
(0.25274 6.4244e-17 0)