/*--------------------------------*- C++ -*----------------------------------*\
| =========                 |                                                 |
| \\      /  F ield         | OpenFOAM: The Open Source CFD Toolbox           |
|  \\    /   O peration     | Version:  2112                                  |
|   \\  /    A nd           | Website:  www.openfoam.com                      |
|    \\/     M anipulation  |                                                 |
\*---------------------------------------------------------------------------*/
FoamFile
{
    version     2.0;
    format      ascii;
    arch        "LSB;label=32;scalar=64";
    class       volScalarField;
    location    "1";
    object      p;
}
// * * * * * * * * * * * * * * * * * * * * * * * * * * * * * * * * * * * * * //

dimensions      [0 2 -2 0 0 0 0];

internalField   nonuniform List<scalar> 
25600
(
-1.66872e-14
-2.13736e-14
-2.07805e-14
-1.91395e-14
-1.78966e-14
-1.68426e-14
-1.58537e-14
-1.4912e-14
-1.40155e-14
-1.32049e-14
-1.23298e-14
-1.14543e-14
-1.07783e-14
-1.0161e-14
-9.45967e-15
-8.85762e-15
-8.19382e-15
-7.43115e-15
-6.74216e-15
-6.15178e-15
-5.56224e-15
-4.89717e-15
-4.20316e-15
-3.49463e-15
-2.84187e-15
-2.40323e-15
-1.97173e-15
-1.3393e-15
-8.19085e-16
-4.65489e-16
-1.94543e-16
1.8485e-16
7.38053e-16
1.30474e-15
1.78892e-15
2.31769e-15
2.8261e-15
3.34923e-15
3.85097e-15
4.34237e-15
4.98743e-15
5.47893e-15
5.95735e-15
6.50861e-15
6.86983e-15
7.43358e-15
7.86173e-15
8.30616e-15
8.74885e-15
9.22588e-15
9.69891e-15
9.87935e-15
1.02282e-14
1.04997e-14
1.07292e-14
1.11869e-14
1.14764e-14
1.17758e-14
1.20136e-14
1.22274e-14
1.25798e-14
1.26778e-14
1.28765e-14
1.31184e-14
1.33781e-14
1.3805e-14
1.39796e-14
1.418e-14
1.43403e-14
1.45023e-14
1.48191e-14
1.50812e-14
1.52454e-14
1.52626e-14
1.52197e-14
1.54288e-14
1.55604e-14
1.53911e-14
1.54637e-14
1.56156e-14
1.59944e-14
1.62426e-14
1.61283e-14
1.61258e-14
1.62415e-14
1.66067e-14
1.69488e-14
1.6844e-14
1.65737e-14
1.65469e-14
1.6862e-14
1.71307e-14
1.68325e-14
1.65418e-14
1.66659e-14
1.68596e-14
1.66717e-14
1.64224e-14
1.61536e-14
1.62434e-14
1.64829e-14
1.6136e-14
1.5914e-14
1.55928e-14
1.5442e-14
1.54788e-14
1.54103e-14
1.50059e-14
1.46986e-14
1.46341e-14
1.4525e-14
1.45518e-14
1.38237e-14
1.3228e-14
1.3329e-14
1.34421e-14
1.32757e-14
1.26707e-14
1.21689e-14
1.20407e-14
1.20845e-14
1.19229e-14
1.11448e-14
1.04862e-14
1.0427e-14
1.0507e-14
1.03955e-14
9.84399e-15
9.22742e-15
9.24509e-15
9.3777e-15
9.2008e-15
8.73767e-15
8.40695e-15
8.44171e-15
8.27234e-15
8.10104e-15
7.64941e-15
7.22388e-15
7.04266e-15
6.80278e-15
6.51849e-15
6.08876e-15
5.66364e-15
5.44967e-15
5.03685e-15
4.77685e-15
4.29639e-15
3.75187e-15
3.15437e-15
2.7587e-15
2.83226e-15
2.4176e-15
1.59856e-15
9.83867e-16
6.07869e-16
4.69199e-16
8.8666e-17
-5.92881e-16
-1.11998e-15
-1.48022e-15
-1.34926e-15
-1.78085e-15
-2.45833e-15
-2.53326e-15
-3.00682e-15
-3.16401e-15
-3.45987e-15
-4.15613e-15
-4.46592e-15
-4.6747e-15
-4.54619e-15
-4.81903e-15
-5.19585e-15
-5.34155e-15
-5.66221e-15
-5.92719e-15
-6.52125e-15
-6.43005e-15
-6.64079e-15
-7.23664e-15
-7.01998e-15
-7.41533e-15
-7.73634e-15
-7.95891e-15
-8.51236e-15
-8.32806e-15
-8.73482e-15
-9.19859e-15
-9.04149e-15
-9.66279e-15
-9.89166e-15
-1.01899e-14
-1.08362e-14
-1.06145e-14
-1.07581e-14
-1.09366e-14
-1.15702e-14
-1.21552e-14
-1.15314e-14
-1.15885e-14
-1.17769e-14
-1.23323e-14
-1.29604e-14
-1.23442e-14
-1.22293e-14
-1.27892e-14
-1.37131e-14
-1.39461e-14
-1.3276e-14
-1.29934e-14
-1.35975e-14
-1.46388e-14
-1.4152e-14
-1.36483e-14
-1.47192e-14
-1.45923e-14
-1.39388e-14
-1.39988e-14
-1.45411e-14
-1.58062e-14
-1.55388e-14
-1.46968e-14
-1.47668e-14
-1.5263e-14
-1.6355e-14
-1.61358e-14
-1.56088e-14
-1.56033e-14
-1.53857e-14
-1.58745e-14
-1.55325e-14
-1.53495e-14
-1.53475e-14
-1.49224e-14
-1.55046e-14
-1.57416e-14
-1.56219e-14
-1.55055e-14
-1.51977e-14
-1.58348e-14
-1.56633e-14
-1.55859e-14
-1.56076e-14
-1.50668e-14
-1.57092e-14
-1.63951e-14
-1.65319e-14
-1.61453e-14
-1.57421e-14
-1.64748e-14
-1.64503e-14
-1.62908e-14
-1.62926e-14
-1.60564e-14
-1.68189e-14
-1.66943e-14
-1.65337e-14
-1.65102e-14
-1.60077e-14
-1.64848e-14
-1.65312e-14
-1.63348e-14
-1.63032e-14
-1.61967e-14
-1.6932e-14
-1.69735e-14
-1.66147e-14
-1.64831e-14
-1.63981e-14
-1.68342e-14
-1.68132e-14
-1.65337e-14
-1.64072e-14
-1.62591e-14
-1.66568e-14
-1.66854e-14
-1.64452e-14
-1.68395e-14
-1.66636e-14
-1.68194e-14
-1.69115e-14
-1.65204e-14
-1.64325e-14
-1.62116e-14
-1.65193e-14
-1.68946e-14
-1.64997e-14
-1.58822e-14
-1.5968e-14
-1.67357e-14
-1.68772e-14
-1.63908e-14
-1.61058e-14
-1.65716e-14
-1.71283e-14
-1.67748e-14
-1.65233e-14
-1.61982e-14
-1.66142e-14
-1.72859e-14
-1.71038e-14
-1.69565e-14
-1.63979e-14
-1.6308e-14
-1.67951e-14
-1.72303e-14
-1.75631e-14
-1.72153e-14
-1.74459e-14
-1.77106e-14
-1.79549e-14
-1.87467e-14
-1.86288e-14
-1.88305e-14
-1.95987e-14
-1.98238e-14
-2.04889e-14
-2.11717e-14
-2.10122e-14
-2.03301e-14
-2.07626e-14
-1.99162e-14
-1.85721e-14
-1.75116e-14
-1.65792e-14
-1.56605e-14
-1.47506e-14
-1.38701e-14
-1.31019e-14
-1.2189e-14
-1.13917e-14
-1.06691e-14
-1.01129e-14
-9.42596e-15
-8.85927e-15
-8.05393e-15
-7.38289e-15
-6.75591e-15
-6.10978e-15
-5.53547e-15
-4.84613e-15
-4.1685e-15
-3.48211e-15
-2.85561e-15
-2.34736e-15
-1.80597e-15
-1.22299e-15
-8.29803e-16
-4.70112e-16
-1.78352e-16
1.58061e-16
7.31676e-16
1.25436e-15
1.78523e-15
2.38823e-15
2.86882e-15
3.30631e-15
3.7697e-15
4.47813e-15
5.02152e-15
5.52876e-15
5.8881e-15
6.51079e-15
6.94017e-15
7.43421e-15
7.86378e-15
8.35369e-15
8.78455e-15
9.21272e-15
9.62388e-15
9.95269e-15
1.03082e-14
1.06384e-14
1.08217e-14
1.10809e-14
1.1394e-14
1.17832e-14
1.20931e-14
1.22905e-14
1.25324e-14
1.26734e-14
1.28362e-14
1.30675e-14
1.34443e-14
1.38042e-14
1.3969e-14
1.41721e-14
1.43767e-14
1.4593e-14
1.47908e-14
1.51069e-14
1.52855e-14
1.52339e-14
1.52573e-14
1.54137e-14
1.54701e-14
1.54575e-14
1.55175e-14
1.57013e-14
1.59227e-14
1.60783e-14
1.60714e-14
1.6227e-14
1.63804e-14
1.65527e-14
1.66335e-14
1.67683e-14
1.68755e-14
1.67602e-14
1.67544e-14
1.68075e-14
1.68179e-14
1.679e-14
1.669e-14
1.65631e-14
1.6543e-14
1.65378e-14
1.64588e-14
1.63586e-14
1.61165e-14
1.60429e-14
1.59735e-14
1.58201e-14
1.55059e-14
1.52803e-14
1.53535e-14
1.51837e-14
1.47894e-14
1.46092e-14
1.44903e-14
1.42581e-14
1.38996e-14
1.35534e-14
1.32732e-14
1.32739e-14
1.31882e-14
1.28651e-14
1.22831e-14
1.19614e-14
1.20613e-14
1.18438e-14
1.11648e-14
1.0611e-14
1.04346e-14
1.03916e-14
1.02777e-14
9.88303e-15
9.36427e-15
9.23501e-15
9.30313e-15
9.11283e-15
8.85707e-15
8.50187e-15
8.4008e-15
8.29038e-15
8.10003e-15
7.73385e-15
7.1958e-15
6.93946e-15
6.84216e-15
6.58497e-15
6.10566e-15
5.73728e-15
5.43943e-15
5.05967e-15
4.6336e-15
4.05688e-15
3.71372e-15
3.3941e-15
2.93737e-15
2.57747e-15
2.13278e-15
1.69056e-15
1.17773e-15
7.58651e-16
4.12474e-16
6.96482e-17
-5.46575e-16
-9.91348e-16
-1.28303e-15
-1.44833e-15
-1.91792e-15
-2.42941e-15
-2.61814e-15
-2.85423e-15
-3.33733e-15
-3.6934e-15
-4.02539e-15
-4.3701e-15
-4.42159e-15
-4.74295e-15
-4.94487e-15
-5.35414e-15
-5.59491e-15
-5.37651e-15
-5.77239e-15
-6.20428e-15
-6.50861e-15
-6.99934e-15
-6.93564e-15
-7.10292e-15
-7.50679e-15
-7.8777e-15
-8.10887e-15
-8.13755e-15
-8.32199e-15
-8.72224e-15
-9.17997e-15
-9.40672e-15
-9.66155e-15
-9.86665e-15
-1.0237e-14
-1.04814e-14
-1.07285e-14
-1.09022e-14
-1.1147e-14
-1.14086e-14
-1.16553e-14
-1.18661e-14
-1.1839e-14
-1.19425e-14
-1.20922e-14
-1.23921e-14
-1.2637e-14
-1.2693e-14
-1.29518e-14
-1.32908e-14
-1.34227e-14
-1.35209e-14
-1.36296e-14
-1.38071e-14
-1.40579e-14
-1.41125e-14
-1.3977e-14
-1.41699e-14
-1.43001e-14
-1.44997e-14
-1.44877e-14
-1.46231e-14
-1.51122e-14
-1.52338e-14
-1.51462e-14
-1.52705e-14
-1.53795e-14
-1.57243e-14
-1.59224e-14
-1.57881e-14
-1.5697e-14
-1.56856e-14
-1.56839e-14
-1.55799e-14
-1.54458e-14
-1.5258e-14
-1.49369e-14
-1.51243e-14
-1.5632e-14
-1.5978e-14
-1.57233e-14
-1.53499e-14
-1.55021e-14
-1.5481e-14
-1.56343e-14
-1.5604e-14
-1.54146e-14
-1.57716e-14
-1.60861e-14
-1.62253e-14
-1.62003e-14
-1.6064e-14
-1.65176e-14
-1.63448e-14
-1.61636e-14
-1.61481e-14
-1.6388e-14
-1.68959e-14
-1.65512e-14
-1.63863e-14
-1.64497e-14
-1.63178e-14
-1.64155e-14
-1.64009e-14
-1.63608e-14
-1.63164e-14
-1.63847e-14
-1.6759e-14
-1.66049e-14
-1.67364e-14
-1.68095e-14
-1.66023e-14
-1.66217e-14
-1.65941e-14
-1.66253e-14
-1.64758e-14
-1.61892e-14
-1.66412e-14
-1.66158e-14
-1.67383e-14
-1.68205e-14
-1.66054e-14
-1.6722e-14
-1.66773e-14
-1.67127e-14
-1.66264e-14
-1.63848e-14
-1.66344e-14
-1.6542e-14
-1.62322e-14
-1.60015e-14
-1.61356e-14
-1.65775e-14
-1.65914e-14
-1.63903e-14
-1.65878e-14
-1.65787e-14
-1.67401e-14
-1.68001e-14
-1.64099e-14
-1.65458e-14
-1.66028e-14
-1.68421e-14
-1.70552e-14
-1.68728e-14
-1.66778e-14
-1.65941e-14
-1.68979e-14
-1.70079e-14
-1.70769e-14
-1.71992e-14
-1.74769e-14
-1.76372e-14
-1.79177e-14
-1.84068e-14
-1.8705e-14
-1.88985e-14
-1.91119e-14
-1.94865e-14
-2.0022e-14
-2.05274e-14
-2.0756e-14
-1.95533e-14
-1.93467e-14
-1.86467e-14
-1.77587e-14
-1.69592e-14
-1.62693e-14
-1.53663e-14
-1.43276e-14
-1.36037e-14
-1.28518e-14
-1.20174e-14
-1.12154e-14
-1.04852e-14
-9.99664e-15
-9.35053e-15
-8.80238e-15
-7.99708e-15
-7.38531e-15
-6.69268e-15
-5.98924e-15
-5.32781e-15
-4.71821e-15
-4.11867e-15
-3.42923e-15
-2.90842e-15
-2.31939e-15
-1.69165e-15
-1.23454e-15
-8.62741e-16
-3.97075e-16
-1.72929e-16
2.63351e-16
8.30029e-16
1.33161e-15
1.76251e-15
2.32745e-15
2.97462e-15
3.20902e-15
3.72989e-15
4.52124e-15
5.02466e-15
5.63484e-15
5.95351e-15
6.52595e-15
6.96388e-15
7.35795e-15
7.93196e-15
8.48123e-15
8.87539e-15
9.34734e-15
9.56507e-15
9.97354e-15
1.0376e-14
1.05863e-14
1.09102e-14
1.11612e-14
1.14253e-14
1.17881e-14
1.201e-14
1.22969e-14
1.25584e-14
1.27803e-14
1.28254e-14
1.30487e-14
1.35709e-14
1.38901e-14
1.39761e-14
1.42172e-14
1.43095e-14
1.45825e-14
1.4889e-14
1.51355e-14
1.5288e-14
1.51788e-14
1.52512e-14
1.53909e-14
1.54739e-14
1.55864e-14
1.56442e-14
1.57868e-14
1.58681e-14
1.58378e-14
1.60667e-14
1.62096e-14
1.63933e-14
1.66507e-14
1.65468e-14
1.67053e-14
1.69654e-14
1.68832e-14
1.66362e-14
1.67778e-14
1.69314e-14
1.68411e-14
1.65923e-14
1.64898e-14
1.65821e-14
1.6544e-14
1.66056e-14
1.64153e-14
1.59697e-14
1.60305e-14
1.5997e-14
1.58644e-14
1.5532e-14
1.52029e-14
1.5255e-14
1.52756e-14
1.4898e-14
1.45671e-14
1.44571e-14
1.41431e-14
1.40831e-14
1.37207e-14
1.32433e-14
1.31022e-14
1.31294e-14
1.29289e-14
1.23357e-14
1.19101e-14
1.18827e-14
1.17872e-14
1.11167e-14
1.07523e-14
1.05823e-14
1.02819e-14
1.00325e-14
9.91187e-15
9.40646e-15
9.23118e-15
9.38421e-15
9.05856e-15
8.99919e-15
8.56267e-15
8.29777e-15
8.21927e-15
8.07194e-15
7.70931e-15
7.18998e-15
6.93387e-15
6.84175e-15
6.6513e-15
6.06749e-15
5.71738e-15
5.44892e-15
5.01516e-15
4.56491e-15
4.04107e-15
3.70717e-15
3.47734e-15
2.96388e-15
2.47608e-15
1.80791e-15
1.69645e-15
1.20488e-15
8.72547e-16
4.08925e-16
5.79662e-17
-4.28629e-16
-8.90431e-16
-1.08487e-15
-1.53682e-15
-1.93988e-15
-2.49212e-15
-2.72416e-15
-2.89413e-15
-3.2537e-15
-3.79927e-15
-3.91355e-15
-4.14795e-15
-4.48964e-15
-4.93684e-15
-5.05047e-15
-5.37684e-15
-5.68699e-15
-5.46846e-15
-5.71753e-15
-5.89505e-15
-6.44001e-15
-7.07636e-15
-7.02145e-15
-7.24067e-15
-7.6656e-15
-7.77227e-15
-7.9993e-15
-8.07346e-15
-8.34931e-15
-8.90869e-15
-9.14239e-15
-9.55181e-15
-9.63613e-15
-9.79351e-15
-1.01716e-14
-1.04327e-14
-1.09115e-14
-1.10253e-14
-1.11975e-14
-1.13761e-14
-1.14797e-14
-1.19287e-14
-1.19582e-14
-1.19238e-14
-1.21562e-14
-1.21568e-14
-1.25896e-14
-1.29402e-14
-1.30408e-14
-1.31028e-14
-1.32232e-14
-1.36318e-14
-1.40627e-14
-1.39305e-14
-1.38165e-14
-1.40615e-14
-1.39585e-14
-1.39525e-14
-1.42638e-14
-1.46887e-14
-1.46632e-14
-1.46189e-14
-1.48587e-14
-1.5128e-14
-1.54238e-14
-1.54551e-14
-1.53464e-14
-1.54912e-14
-1.57924e-14
-1.58647e-14
-1.588e-14
-1.58704e-14
-1.56812e-14
-1.55662e-14
-1.53686e-14
-1.5244e-14
-1.49465e-14
-1.49939e-14
-1.56065e-14
-1.59988e-14
-1.56759e-14
-1.54124e-14
-1.56545e-14
-1.54457e-14
-1.54313e-14
-1.55079e-14
-1.5681e-14
-1.59541e-14
-1.58299e-14
-1.60069e-14
-1.62747e-14
-1.61377e-14
-1.6265e-14
-1.62293e-14
-1.64392e-14
-1.63167e-14
-1.64742e-14
-1.67304e-14
-1.64367e-14
-1.66373e-14
-1.64931e-14
-1.62312e-14
-1.61271e-14
-1.63445e-14
-1.66062e-14
-1.65237e-14
-1.65224e-14
-1.65115e-14
-1.62493e-14
-1.67786e-14
-1.69331e-14
-1.67354e-14
-1.66974e-14
-1.65799e-14
-1.65541e-14
-1.63882e-14
-1.61673e-14
-1.66814e-14
-1.66237e-14
-1.68296e-14
-1.67525e-14
-1.64174e-14
-1.67627e-14
-1.6663e-14
-1.6645e-14
-1.6863e-14
-1.65447e-14
-1.67475e-14
-1.63659e-14
-1.59392e-14
-1.6052e-14
-1.62464e-14
-1.6548e-14
-1.66755e-14
-1.65681e-14
-1.64354e-14
-1.63778e-14
-1.66808e-14
-1.68167e-14
-1.64609e-14
-1.66301e-14
-1.64922e-14
-1.65241e-14
-1.69474e-14
-1.6921e-14
-1.70082e-14
-1.67713e-14
-1.69837e-14
-1.66234e-14
-1.67247e-14
-1.71933e-14
-1.73572e-14
-1.76982e-14
-1.77138e-14
-1.80267e-14
-1.85817e-14
-1.85269e-14
-1.86818e-14
-1.91619e-14
-1.93691e-14
-1.95337e-14
-1.95633e-14
-1.82314e-14
-1.77761e-14
-1.74059e-14
-1.68329e-14
-1.63329e-14
-1.5597e-14
-1.47747e-14
-1.39468e-14
-1.32309e-14
-1.26485e-14
-1.19469e-14
-1.10453e-14
-1.03913e-14
-9.78485e-15
-9.32622e-15
-8.71284e-15
-7.7629e-15
-7.38063e-15
-6.68551e-15
-5.89825e-15
-5.14107e-15
-4.59816e-15
-3.98595e-15
-3.56492e-15
-2.89688e-15
-2.17178e-15
-1.78153e-15
-1.32847e-15
-9.07163e-16
-3.85565e-16
-9.79601e-17
3.96604e-16
7.80574e-16
1.39449e-15
1.76841e-15
2.35598e-15
2.99103e-15
3.32189e-15
3.77468e-15
4.46497e-15
5.1124e-15
5.60016e-15
6.02246e-15
6.46831e-15
6.7704e-15
7.39302e-15
8.0369e-15
8.48551e-15
8.93168e-15
9.30505e-15
9.55178e-15
9.96317e-15
1.03168e-14
1.05782e-14
1.09725e-14
1.12868e-14
1.16157e-14
1.17408e-14
1.2007e-14
1.2326e-14
1.26084e-14
1.27502e-14
1.27977e-14
1.30794e-14
1.36128e-14
1.39748e-14
1.42376e-14
1.43268e-14
1.43439e-14
1.44981e-14
1.47733e-14
1.50308e-14
1.51694e-14
1.51414e-14
1.53387e-14
1.54504e-14
1.55962e-14
1.57023e-14
1.56284e-14
1.57842e-14
1.57794e-14
1.56865e-14
1.58546e-14
1.60179e-14
1.62546e-14
1.67257e-14
1.69798e-14
1.68416e-14
1.68058e-14
1.6731e-14
1.67184e-14
1.69241e-14
1.69664e-14
1.65955e-14
1.65573e-14
1.66575e-14
1.66601e-14
1.65805e-14
1.66521e-14
1.65005e-14
1.60954e-14
1.59997e-14
1.59459e-14
1.57872e-14
1.56456e-14
1.54498e-14
1.5254e-14
1.50427e-14
1.48774e-14
1.46292e-14
1.42523e-14
1.41628e-14
1.40775e-14
1.36219e-14
1.34062e-14
1.32746e-14
1.2903e-14
1.28619e-14
1.22992e-14
1.19245e-14
1.17818e-14
1.15368e-14
1.11235e-14
1.09402e-14
1.04776e-14
1.03086e-14
9.97702e-15
9.8013e-15
9.38611e-15
9.37441e-15
9.38527e-15
9.1562e-15
9.05271e-15
8.74434e-15
8.30735e-15
8.12691e-15
7.95588e-15
7.8079e-15
7.42949e-15
6.99191e-15
6.75545e-15
6.57196e-15
6.13976e-15
5.85936e-15
5.25419e-15
4.95531e-15
4.46381e-15
4.00413e-15
3.63133e-15
3.43609e-15
2.9063e-15
2.49718e-15
2.01397e-15
1.67049e-15
1.16281e-15
9.72729e-16
3.74432e-16
-2.86311e-16
-4.05038e-16
-7.30223e-16
-9.70049e-16
-1.49539e-15
-2.11862e-15
-2.32164e-15
-2.50666e-15
-2.93088e-15
-3.32812e-15
-3.78492e-15
-3.94954e-15
-4.27229e-15
-4.52266e-15
-4.92069e-15
-5.22526e-15
-5.40453e-15
-5.41706e-15
-5.60572e-15
-5.72097e-15
-6.0955e-15
-6.36974e-15
-7.04328e-15
-7.27686e-15
-7.21209e-15
-7.58538e-15
-7.89426e-15
-8.0472e-15
-8.08582e-15
-8.43504e-15
-8.98703e-15
-9.25311e-15
-9.451e-15
-9.68071e-15
-9.83554e-15
-1.02014e-14
-1.04779e-14
-1.0944e-14
-1.10829e-14
-1.11151e-14
-1.1438e-14
-1.16792e-14
-1.18229e-14
-1.20409e-14
-1.19019e-14
-1.2005e-14
-1.2442e-14
-1.2709e-14
-1.27935e-14
-1.28593e-14
-1.32759e-14
-1.34055e-14
-1.37122e-14
-1.3757e-14
-1.38349e-14
-1.39121e-14
-1.40853e-14
-1.41129e-14
-1.40555e-14
-1.42371e-14
-1.44518e-14
-1.46229e-14
-1.47625e-14
-1.49856e-14
-1.53802e-14
-1.56086e-14
-1.53695e-14
-1.52538e-14
-1.54089e-14
-1.58184e-14
-1.59662e-14
-1.60153e-14
-1.56884e-14
-1.54622e-14
-1.54063e-14
-1.53902e-14
-1.53492e-14
-1.52166e-14
-1.5328e-14
-1.54386e-14
-1.55431e-14
-1.56761e-14
-1.54578e-14
-1.54409e-14
-1.55358e-14
-1.56132e-14
-1.55094e-14
-1.55949e-14
-1.56724e-14
-1.56989e-14
-1.61515e-14
-1.64286e-14
-1.61494e-14
-1.61986e-14
-1.63163e-14
-1.64807e-14
-1.66961e-14
-1.66014e-14
-1.64225e-14
-1.65772e-14
-1.66191e-14
-1.66135e-14
-1.63645e-14
-1.59849e-14
-1.62696e-14
-1.66545e-14
-1.64955e-14
-1.62938e-14
-1.62652e-14
-1.63299e-14
-1.66764e-14
-1.67878e-14
-1.69212e-14
-1.68144e-14
-1.65802e-14
-1.62792e-14
-1.62606e-14
-1.62605e-14
-1.63769e-14
-1.64437e-14
-1.68479e-14
-1.67123e-14
-1.66464e-14
-1.66229e-14
-1.65714e-14
-1.65561e-14
-1.66526e-14
-1.67399e-14
-1.65171e-14
-1.62955e-14
-1.6132e-14
-1.61896e-14
-1.61894e-14
-1.62684e-14
-1.64473e-14
-1.67701e-14
-1.667e-14
-1.63679e-14
-1.63381e-14
-1.6589e-14
-1.66582e-14
-1.67241e-14
-1.65704e-14
-1.64068e-14
-1.68439e-14
-1.69482e-14
-1.69971e-14
-1.68028e-14
-1.67111e-14
-1.65446e-14
-1.69159e-14
-1.70262e-14
-1.71143e-14
-1.73808e-14
-1.73506e-14
-1.76456e-14
-1.8251e-14
-1.84015e-14
-1.84922e-14
-1.85094e-14
-1.83607e-14
-1.85621e-14
-1.86574e-14
-1.71862e-14
-1.67644e-14
-1.64153e-14
-1.5786e-14
-1.54457e-14
-1.50085e-14
-1.43165e-14
-1.36188e-14
-1.29967e-14
-1.22563e-14
-1.16953e-14
-1.08684e-14
-1.02072e-14
-9.81627e-15
-9.27745e-15
-8.3887e-15
-7.72373e-15
-7.05722e-15
-6.51177e-15
-5.72852e-15
-4.89011e-15
-4.44888e-15
-4.14495e-15
-3.6408e-15
-2.9169e-15
-2.25392e-15
-1.76135e-15
-1.30424e-15
-5.1305e-16
-3.9461e-16
5.75708e-17
2.13695e-16
7.05863e-16
1.24632e-15
1.52546e-15
2.17696e-15
3.17879e-15
3.40188e-15
3.79187e-15
4.61438e-15
5.29547e-15
5.70847e-15
5.95167e-15
6.27133e-15
6.90883e-15
7.48781e-15
7.89804e-15
8.32399e-15
8.8774e-15
9.28604e-15
9.6968e-15
1.00578e-14
1.03027e-14
1.07043e-14
1.12105e-14
1.11265e-14
1.16867e-14
1.17009e-14
1.20931e-14
1.23956e-14
1.2544e-14
1.24886e-14
1.27778e-14
1.30821e-14
1.34811e-14
1.40625e-14
1.4454e-14
1.45122e-14
1.43872e-14
1.44742e-14
1.48304e-14
1.49861e-14
1.51052e-14
1.54338e-14
1.53477e-14
1.54173e-14
1.55196e-14
1.55925e-14
1.56009e-14
1.59689e-14
1.5891e-14
1.5482e-14
1.56015e-14
1.57197e-14
1.61436e-14
1.68621e-14
1.71007e-14
1.70266e-14
1.69295e-14
1.69712e-14
1.66918e-14
1.66949e-14
1.69093e-14
1.66898e-14
1.65642e-14
1.65316e-14
1.66688e-14
1.68161e-14
1.66618e-14
1.64583e-14
1.6228e-14
1.59794e-14
1.58697e-14
1.57607e-14
1.57773e-14
1.55219e-14
1.52419e-14
1.51267e-14
1.49876e-14
1.45551e-14
1.42167e-14
1.42406e-14
1.39372e-14
1.37635e-14
1.34239e-14
1.31662e-14
1.28241e-14
1.26931e-14
1.23403e-14
1.20146e-14
1.16596e-14
1.14571e-14
1.13215e-14
1.1001e-14
1.03169e-14
1.02175e-14
1.01997e-14
9.91596e-15
9.41458e-15
9.27872e-15
9.32153e-15
9.1688e-15
9.10932e-15
8.74045e-15
8.44778e-15
7.94837e-15
7.95398e-15
7.99388e-15
7.64011e-15
7.21614e-15
6.80435e-15
6.40816e-15
6.04329e-15
5.8846e-15
5.21611e-15
4.90844e-15
4.36586e-15
3.89433e-15
3.63631e-15
3.37224e-15
2.8163e-15
2.31012e-15
2.33974e-15
1.86634e-15
1.00451e-15
7.79902e-16
2.41307e-16
-1.66329e-16
-2.8847e-16
-7.7784e-16
-9.81714e-16
-1.77313e-15
-2.08392e-15
-2.21009e-15
-2.52533e-15
-2.76578e-15
-3.09572e-15
-3.85083e-15
-4.24664e-15
-4.27487e-15
-4.58995e-15
-5.13426e-15
-5.32555e-15
-5.38584e-15
-5.45458e-15
-5.48392e-15
-5.73608e-15
-6.20913e-15
-6.62822e-15
-7.04191e-15
-7.14527e-15
-7.39926e-15
-7.52378e-15
-7.70959e-15
-8.20453e-15
-8.21461e-15
-8.28739e-15
-8.78725e-15
-9.30824e-15
-9.61928e-15
-9.7677e-15
-1.00555e-14
-1.02395e-14
-1.04715e-14
-1.11288e-14
-1.12687e-14
-1.111e-14
-1.14131e-14
-1.16808e-14
-1.18933e-14
-1.20208e-14
-1.18463e-14
-1.21432e-14
-1.27179e-14
-1.27665e-14
-1.26906e-14
-1.29332e-14
-1.3232e-14
-1.33999e-14
-1.35487e-14
-1.36185e-14
-1.40291e-14
-1.41226e-14
-1.43017e-14
-1.40295e-14
-1.3907e-14
-1.42709e-14
-1.43034e-14
-1.47263e-14
-1.4981e-14
-1.49294e-14
-1.54721e-14
-1.55313e-14
-1.55765e-14
-1.5625e-14
-1.53995e-14
-1.57044e-14
-1.60068e-14
-1.57319e-14
-1.53827e-14
-1.54003e-14
-1.56393e-14
-1.5418e-14
-1.532e-14
-1.54769e-14
-1.56161e-14
-1.54318e-14
-1.53956e-14
-1.55973e-14
-1.5483e-14
-1.51121e-14
-1.53414e-14
-1.56724e-14
-1.5382e-14
-1.55025e-14
-1.55446e-14
-1.56004e-14
-1.59401e-14
-1.63295e-14
-1.64458e-14
-1.64034e-14
-1.65562e-14
-1.65289e-14
-1.66923e-14
-1.65389e-14
-1.63893e-14
-1.65526e-14
-1.65391e-14
-1.64359e-14
-1.63523e-14
-1.61635e-14
-1.62333e-14
-1.64268e-14
-1.63194e-14
-1.62076e-14
-1.62054e-14
-1.66857e-14
-1.64771e-14
-1.66259e-14
-1.72127e-14
-1.67284e-14
-1.65457e-14
-1.61575e-14
-1.62409e-14
-1.64439e-14
-1.59713e-14
-1.62795e-14
-1.66791e-14
-1.66924e-14
-1.70969e-14
-1.66005e-14
-1.6559e-14
-1.63371e-14
-1.64345e-14
-1.68101e-14
-1.64337e-14
-1.62432e-14
-1.60712e-14
-1.645e-14
-1.64357e-14
-1.6244e-14
-1.63422e-14
-1.67058e-14
-1.65489e-14
-1.66534e-14
-1.60912e-14
-1.63384e-14
-1.67029e-14
-1.67698e-14
-1.65802e-14
-1.65458e-14
-1.7109e-14
-1.69809e-14
-1.66174e-14
-1.68271e-14
-1.6411e-14
-1.6458e-14
-1.6913e-14
-1.67739e-14
-1.69011e-14
-1.6851e-14
-1.67949e-14
-1.75673e-14
-1.76751e-14
-1.82124e-14
-1.81967e-14
-1.78738e-14
-1.74977e-14
-1.7463e-14
-1.7531e-14
-1.6218e-14
-1.57284e-14
-1.52511e-14
-1.49528e-14
-1.4633e-14
-1.43807e-14
-1.3926e-14
-1.34966e-14
-1.27236e-14
-1.19491e-14
-1.15048e-14
-1.08367e-14
-1.01272e-14
-9.97417e-15
-9.08751e-15
-8.04146e-15
-7.80841e-15
-6.95685e-15
-6.24258e-15
-5.31507e-15
-4.78349e-15
-4.49326e-15
-4.27186e-15
-3.80534e-15
-2.99016e-15
-2.47954e-15
-2.02475e-15
-1.26267e-15
-5.56466e-16
-3.63568e-16
-1.01176e-16
1.03406e-16
7.01348e-16
1.27562e-15
1.52363e-15
2.31638e-15
3.05751e-15
3.64435e-15
4.13549e-15
4.76939e-15
5.35253e-15
5.64345e-15
6.05505e-15
6.35964e-15
7.09702e-15
7.5336e-15
7.75058e-15
8.35769e-15
8.7444e-15
9.36743e-15
9.86465e-15
1.02197e-14
1.04063e-14
1.08274e-14
1.14586e-14
1.12558e-14
1.14617e-14
1.18181e-14
1.21812e-14
1.24524e-14
1.23877e-14
1.24583e-14
1.27607e-14
1.29016e-14
1.37785e-14
1.43209e-14
1.45128e-14
1.43465e-14
1.44919e-14
1.46951e-14
1.51117e-14
1.53225e-14
1.51878e-14
1.54001e-14
1.54626e-14
1.53623e-14
1.55905e-14
1.57526e-14
1.57501e-14
1.6015e-14
1.58162e-14
1.53877e-14
1.56082e-14
1.57647e-14
1.61774e-14
1.69005e-14
1.70667e-14
1.7272e-14
1.70261e-14
1.71063e-14
1.67029e-14
1.66811e-14
1.69557e-14
1.68395e-14
1.64116e-14
1.64639e-14
1.66995e-14
1.67895e-14
1.67964e-14
1.6409e-14
1.63135e-14
1.59131e-14
1.56693e-14
1.57183e-14
1.56436e-14
1.52494e-14
1.53517e-14
1.49864e-14
1.51569e-14
1.4773e-14
1.45091e-14
1.42581e-14
1.39722e-14
1.38049e-14
1.34076e-14
1.31888e-14
1.29069e-14
1.27426e-14
1.24397e-14
1.20387e-14
1.14661e-14
1.15666e-14
1.15485e-14
1.08608e-14
1.03604e-14
1.02731e-14
1.05385e-14
1.00897e-14
9.21763e-15
9.31716e-15
9.43057e-15
9.02059e-15
8.5931e-15
8.8547e-15
8.43748e-15
7.9922e-15
8.19651e-15
8.26805e-15
7.73998e-15
7.26463e-15
6.93398e-15
6.63764e-15
6.14421e-15
5.9646e-15
5.42885e-15
4.8567e-15
4.49089e-15
4.05681e-15
3.39029e-15
2.84523e-15
3.0373e-15
2.47931e-15
2.14567e-15
1.87102e-15
1.01688e-15
7.06753e-16
3.91198e-16
-2.00683e-16
-7.86338e-16
-8.93149e-16
-1.28298e-15
-1.83291e-15
-1.80422e-15
-2.19232e-15
-2.95987e-15
-2.82341e-15
-3.06458e-15
-3.83492e-15
-4.12306e-15
-4.27165e-15
-4.87397e-15
-5.27827e-15
-5.10601e-15
-5.44687e-15
-5.62759e-15
-5.36704e-15
-5.7701e-15
-6.49292e-15
-6.78837e-15
-6.97608e-15
-7.31999e-15
-7.65451e-15
-7.42539e-15
-7.89531e-15
-8.04598e-15
-8.28434e-15
-8.5056e-15
-8.69822e-15
-9.08259e-15
-9.55544e-15
-1.00486e-14
-1.02332e-14
-1.03073e-14
-1.08841e-14
-1.09471e-14
-1.11017e-14
-1.12163e-14
-1.17752e-14
-1.19478e-14
-1.18175e-14
-1.21049e-14
-1.1995e-14
-1.21717e-14
-1.28469e-14
-1.27205e-14
-1.30909e-14
-1.31441e-14
-1.30552e-14
-1.32889e-14
-1.3369e-14
-1.3949e-14
-1.42258e-14
-1.41124e-14
-1.41253e-14
-1.40241e-14
-1.37613e-14
-1.42542e-14
-1.46976e-14
-1.49878e-14
-1.51294e-14
-1.49204e-14
-1.53521e-14
-1.54655e-14
-1.60499e-14
-1.60813e-14
-1.55384e-14
-1.58745e-14
-1.60292e-14
-1.55495e-14
-1.55015e-14
-1.52635e-14
-1.53068e-14
-1.54379e-14
-1.5373e-14
-1.5521e-14
-1.54307e-14
-1.55897e-14
-1.5353e-14
-1.55219e-14
-1.5612e-14
-1.51921e-14
-1.51721e-14
-1.53497e-14
-1.54359e-14
-1.56668e-14
-1.55911e-14
-1.56106e-14
-1.58422e-14
-1.63829e-14
-1.64929e-14
-1.63152e-14
-1.68876e-14
-1.68244e-14
-1.66227e-14
-1.65168e-14
-1.62972e-14
-1.63789e-14
-1.65155e-14
-1.62631e-14
-1.62606e-14
-1.60833e-14
-1.62109e-14
-1.6287e-14
-1.63552e-14
-1.61925e-14
-1.61847e-14
-1.65743e-14
-1.68461e-14
-1.68938e-14
-1.70229e-14
-1.66054e-14
-1.63955e-14
-1.60816e-14
-1.61929e-14
-1.64131e-14
-1.60848e-14
-1.63535e-14
-1.62372e-14
-1.6284e-14
-1.71217e-14
-1.69036e-14
-1.63431e-14
-1.63957e-14
-1.65217e-14
-1.65377e-14
-1.61996e-14
-1.60876e-14
-1.61879e-14
-1.65371e-14
-1.63693e-14
-1.61464e-14
-1.63686e-14
-1.6382e-14
-1.63234e-14
-1.66254e-14
-1.63868e-14
-1.61866e-14
-1.65895e-14
-1.67208e-14
-1.67163e-14
-1.67352e-14
-1.6993e-14
-1.71614e-14
-1.69024e-14
-1.69233e-14
-1.63123e-14
-1.63252e-14
-1.66173e-14
-1.67918e-14
-1.67251e-14
-1.65794e-14
-1.64628e-14
-1.69127e-14
-1.74225e-14
-1.79952e-14
-1.75735e-14
-1.69546e-14
-1.6398e-14
-1.66952e-14
-1.68175e-14
-1.51398e-14
-1.48289e-14
-1.43195e-14
-1.44182e-14
-1.38082e-14
-1.39421e-14
-1.34316e-14
-1.28996e-14
-1.24646e-14
-1.18047e-14
-1.09551e-14
-1.03e-14
-1.00117e-14
-9.66031e-15
-8.92163e-15
-8.07179e-15
-7.61903e-15
-7.00075e-15
-6.24537e-15
-5.22992e-15
-4.68529e-15
-4.14652e-15
-4.14394e-15
-3.72598e-15
-3.22892e-15
-2.53304e-15
-2.04138e-15
-1.45679e-15
-6.32462e-16
-4.08103e-16
-1.03515e-17
2.04617e-16
5.83422e-16
1.25866e-15
1.59179e-15
2.60004e-15
3.05546e-15
3.38321e-15
4.19837e-15
4.90889e-15
5.2953e-15
5.40595e-15
6.05123e-15
6.64684e-15
7.40627e-15
7.4491e-15
7.93366e-15
8.55723e-15
8.61013e-15
9.39802e-15
9.68352e-15
1.04309e-14
1.05823e-14
1.1092e-14
1.1408e-14
1.11893e-14
1.1605e-14
1.17019e-14
1.19549e-14
1.22394e-14
1.25495e-14
1.2625e-14
1.27292e-14
1.33222e-14
1.41527e-14
1.41557e-14
1.40818e-14
1.42967e-14
1.44776e-14
1.49801e-14
1.53852e-14
1.51821e-14
1.53042e-14
1.56258e-14
1.53495e-14
1.50901e-14
1.56113e-14
1.5907e-14
1.57373e-14
1.58761e-14
1.56742e-14
1.57457e-14
1.55789e-14
1.57999e-14
1.62702e-14
1.68815e-14
1.73509e-14
1.73671e-14
1.72125e-14
1.74809e-14
1.71737e-14
1.65918e-14
1.68897e-14
1.6884e-14
1.66134e-14
1.67263e-14
1.65393e-14
1.6598e-14
1.6566e-14
1.63927e-14
1.64798e-14
1.6072e-14
1.52889e-14
1.56061e-14
1.5459e-14
1.54947e-14
1.53643e-14
1.50606e-14
1.51407e-14
1.50077e-14
1.47143e-14
1.44044e-14
1.41903e-14
1.39583e-14
1.35142e-14
1.31789e-14
1.27891e-14
1.28732e-14
1.25825e-14
1.20463e-14
1.14202e-14
1.12661e-14
1.13605e-14
1.07599e-14
1.06293e-14
1.03797e-14
1.03472e-14
9.93143e-15
9.38405e-15
9.23315e-15
9.48451e-15
8.9405e-15
8.47194e-15
8.80515e-15
8.57105e-15
8.45422e-15
8.48128e-15
8.49841e-15
8.12423e-15
7.4907e-15
6.90554e-15
6.37237e-15
6.47778e-15
6.24765e-15
5.23744e-15
4.73118e-15
4.29096e-15
4.03153e-15
3.46522e-15
2.94772e-15
2.76772e-15
2.45536e-15
2.07906e-15
1.84576e-15
1.299e-15
6.82126e-16
3.13834e-16
-2.98269e-16
-1.03518e-15
-1.08023e-15
-1.18359e-15
-1.7811e-15
-1.83183e-15
-2.56495e-15
-2.82342e-15
-2.8669e-15
-3.12667e-15
-3.87989e-15
-4.03419e-15
-3.97675e-15
-4.96462e-15
-5.09969e-15
-5.08202e-15
-5.72446e-15
-5.54498e-15
-5.74328e-15
-5.90093e-15
-6.34296e-15
-7.01225e-15
-7.08187e-15
-7.50571e-15
-7.89117e-15
-7.793e-15
-8.18918e-15
-8.15744e-15
-8.15375e-15
-8.58063e-15
-8.79897e-15
-8.97079e-15
-9.74174e-15
-1.04625e-14
-1.01348e-14
-1.06252e-14
-1.07369e-14
-1.09509e-14
-1.11586e-14
-1.13814e-14
-1.19228e-14
-1.22015e-14
-1.19517e-14
-1.22135e-14
-1.20766e-14
-1.21983e-14
-1.27203e-14
-1.27986e-14
-1.32853e-14
-1.30089e-14
-1.27756e-14
-1.3236e-14
-1.33324e-14
-1.37838e-14
-1.42199e-14
-1.42492e-14
-1.41546e-14
-1.40513e-14
-1.4159e-14
-1.46718e-14
-1.50588e-14
-1.50494e-14
-1.50562e-14
-1.48108e-14
-1.52538e-14
-1.58139e-14
-1.62605e-14
-1.62871e-14
-1.58246e-14
-1.57895e-14
-1.602e-14
-1.5618e-14
-1.54422e-14
-1.50529e-14
-1.51671e-14
-1.53731e-14
-1.52679e-14
-1.55578e-14
-1.58713e-14
-1.53034e-14
-1.52146e-14
-1.53186e-14
-1.54336e-14
-1.545e-14
-1.52401e-14
-1.51453e-14
-1.54384e-14
-1.58391e-14
-1.57407e-14
-1.5674e-14
-1.58135e-14
-1.63475e-14
-1.67302e-14
-1.62317e-14
-1.66786e-14
-1.6851e-14
-1.66954e-14
-1.6558e-14
-1.62865e-14
-1.65769e-14
-1.64042e-14
-1.62252e-14
-1.63452e-14
-1.59319e-14
-1.60212e-14
-1.61094e-14
-1.62622e-14
-1.62302e-14
-1.59788e-14
-1.66018e-14
-1.70754e-14
-1.6712e-14
-1.64797e-14
-1.66826e-14
-1.64245e-14
-1.64814e-14
-1.60886e-14
-1.59291e-14
-1.58711e-14
-1.62129e-14
-1.61915e-14
-1.61809e-14
-1.72185e-14
-1.68822e-14
-1.65212e-14
-1.65311e-14
-1.65073e-14
-1.62232e-14
-1.60853e-14
-1.58964e-14
-1.62866e-14
-1.64588e-14
-1.64969e-14
-1.63841e-14
-1.6325e-14
-1.61118e-14
-1.62476e-14
-1.66476e-14
-1.63279e-14
-1.63259e-14
-1.65484e-14
-1.67584e-14
-1.68724e-14
-1.71215e-14
-1.68816e-14
-1.68967e-14
-1.69414e-14
-1.68895e-14
-1.62798e-14
-1.62636e-14
-1.6268e-14
-1.64949e-14
-1.65856e-14
-1.63518e-14
-1.61902e-14
-1.64222e-14
-1.66675e-14
-1.71035e-14
-1.70064e-14
-1.62131e-14
-1.57984e-14
-1.60143e-14
-1.58369e-14
-1.46643e-14
-1.41824e-14
-1.35047e-14
-1.33434e-14
-1.31413e-14
-1.31442e-14
-1.30099e-14
-1.24159e-14
-1.1895e-14
-1.17174e-14
-1.07878e-14
-1.02196e-14
-9.83218e-15
-9.40789e-15
-8.71642e-15
-7.98899e-15
-7.60072e-15
-6.98008e-15
-6.14972e-15
-5.1599e-15
-4.30595e-15
-3.94843e-15
-4.05457e-15
-3.57847e-15
-2.84947e-15
-2.60934e-15
-2.12544e-15
-1.33395e-15
-6.74981e-16
-3.69151e-16
1.97019e-16
4.29108e-16
5.67591e-16
1.42429e-15
1.61021e-15
2.54152e-15
2.92052e-15
3.40194e-15
4.00204e-15
4.90801e-15
5.30244e-15
5.36787e-15
5.89148e-15
6.61457e-15
7.32093e-15
7.47468e-15
8.19592e-15
8.64905e-15
8.97773e-15
9.57875e-15
9.9437e-15
1.02199e-14
1.09575e-14
1.13117e-14
1.17806e-14
1.12011e-14
1.1094e-14
1.14208e-14
1.19496e-14
1.22973e-14
1.25026e-14
1.25853e-14
1.30986e-14
1.34435e-14
1.41996e-14
1.42504e-14
1.39889e-14
1.40055e-14
1.45508e-14
1.49058e-14
1.51465e-14
1.51137e-14
1.53718e-14
1.55954e-14
1.54594e-14
1.54166e-14
1.57012e-14
1.59958e-14
1.57352e-14
1.60086e-14
1.5978e-14
1.57423e-14
1.57863e-14
1.59771e-14
1.58443e-14
1.67118e-14
1.73823e-14
1.7247e-14
1.74405e-14
1.77358e-14