/*--------------------------------*- C++ -*----------------------------------*\
| =========                 |                                                 |
| \\      /  F ield         | OpenFOAM: The Open Source CFD Toolbox           |
|  \\    /   O peration     | Version:  2112                                  |
|   \\  /    A nd           | Website:  www.openfoam.com                      |
|    \\/     M anipulation  |                                                 |
\*---------------------------------------------------------------------------*/
FoamFile
{
    version     2.0;
    format      ascii;
    arch        "LSB;label=32;scalar=64";
    class       surfaceScalarField;
    location    "1";
    object      phi;
}
// * * * * * * * * * * * * * * * * * * * * * * * * * * * * * * * * * * * * * //

dimensions      [0 3 -1 0 0 0 0];

oriented        oriented;

internalField   nonuniform List<scalar> 
50800
(
6.80987e-05
2.90828e-18
6.80987e-05
1.11018e-18
6.80987e-05
3.77695e-19
6.80987e-05
1.5383e-19
6.80987e-05
1.12762e-19
6.80987e-05
8.23254e-20
6.80987e-05
4.51639e-20
6.80987e-05
3.19346e-20
6.80987e-05
1.05965e-20
6.80987e-05
1.24237e-20
6.80987e-05
1.3604e-20
6.80987e-05
-1.12488e-20
6.80987e-05
1.58204e-20
6.80987e-05
2.97049e-20
6.80987e-05
-5.53523e-21
6.80987e-05
5.25323e-20
6.80987e-05
1.90156e-20
6.80987e-05
1.29355e-20
6.80987e-05
-5.41177e-21
6.80987e-05
-1.37122e-20
6.80987e-05
2.80778e-20
6.80987e-05
1.91185e-20
6.80987e-05
2.79213e-21
6.80987e-05
-1.07245e-20
6.80987e-05
-2.76239e-20
6.80987e-05
-1.3737e-21
6.80987e-05
6.57466e-20
6.80987e-05
-8.0274e-21
6.80987e-05
-4.55942e-20
6.80987e-05
-1.58937e-20
6.80987e-05
2.08552e-20
6.80987e-05
8.76356e-20
6.80987e-05
2.96979e-20
6.80987e-05
1.1239e-20
6.80987e-05
8.57454e-21
6.80987e-05
-3.91364e-21
6.80987e-05
2.99344e-20
6.80987e-05
-4.11253e-21
6.80987e-05
1.15641e-20
6.80987e-05
5.66564e-20
6.80987e-05
-2.426e-21
6.80987e-05
1.1036e-20
6.80987e-05
4.56555e-22
6.80987e-05
-5.01006e-20
6.80987e-05
5.25038e-20
6.80987e-05
-1.25272e-20
6.80987e-05
1.6685e-20
6.80987e-05
-3.34745e-22
6.80987e-05
-6.94652e-21
6.80987e-05
-1.4325e-20
6.80987e-05
-6.98169e-20
6.80987e-05
5.94983e-20
6.80987e-05
-1.33741e-21
6.80987e-05
-8.06399e-21
6.80987e-05
7.0979e-20
6.80987e-05
-5.94475e-20
6.80987e-05
1.90434e-21
6.80987e-05
-1.18364e-20
6.80987e-05
-4.63394e-21
6.80987e-05
5.37827e-20
6.80987e-05
-8.95965e-20
6.80987e-05
1.93618e-20
6.80987e-05
8.307e-21
6.80987e-05
1.69899e-20
6.80987e-05
4.56908e-20
6.80987e-05
-4.84939e-20
6.80987e-05
-8.61013e-21
6.80987e-05
5.83113e-21
6.80987e-05
4.10065e-20
6.80987e-05
4.3312e-20
6.80987e-05
-1.05228e-20
6.80987e-05
-1.88207e-20
6.80987e-05
-2.82764e-20
6.80987e-05
-2.51071e-20
6.80987e-05
1.02679e-19
6.80987e-05
-4.20136e-20
6.80987e-05
-8.49769e-20
6.80987e-05
8.72005e-20
6.80987e-05
4.23336e-20
6.80987e-05
9.78425e-20
6.80987e-05
-3.8669e-20
6.80987e-05
-1.37462e-19
6.80987e-05
2.14974e-20
6.80987e-05
3.62918e-20
6.80987e-05
6.15177e-20
6.80987e-05
-1.79837e-20
6.80987e-05
-1.26611e-19
6.80987e-05
-7.24824e-20
6.80987e-05
4.68258e-20
6.80987e-05
1.19967e-19
6.80987e-05
-4.95789e-20
6.80987e-05
-1.49671e-19
6.80987e-05
-2.56766e-20
6.80987e-05
1.06879e-19
6.80987e-05
-1.72847e-22
6.80987e-05
-1.14031e-19
6.80987e-05
-1.18202e-20
6.80987e-05
-1.72867e-20
6.80987e-05
1.096e-19
6.80987e-05
5.59154e-20
6.80987e-05
-1.66998e-19
6.80987e-05
2.40247e-20
6.80987e-05
-4.61768e-20
6.80987e-05
5.98845e-20
6.80987e-05
4.96124e-20
6.80987e-05
-2.02565e-20
6.80987e-05
-1.0523e-19
6.80987e-05
5.09408e-21
6.80987e-05
8.73759e-20
6.80987e-05
-2.21392e-20
6.80987e-05
3.96663e-20
6.80987e-05
-2.53567e-19
6.80987e-05
3.90013e-20
6.80987e-05
2.15306e-19
6.80987e-05
4.29771e-20
6.80987e-05
-5.37479e-20
6.80987e-05
-1.65657e-19
6.80987e-05
3.3401e-20
6.80987e-05
1.39602e-19
6.80987e-05
4.66245e-20
6.80987e-05
-5.30572e-20
6.80987e-05
-1.86313e-19
6.80987e-05
-4.1089e-21
6.80987e-05
2.37214e-19
6.80987e-05
9.45565e-20
6.80987e-05
-9.10465e-20
6.80987e-05
-1.79487e-19
6.80987e-05
-1.25092e-20
6.80987e-05
2.43942e-19
6.80987e-05
6.27618e-20
6.80987e-05
-1.00179e-19
6.80987e-05
-1.3636e-19
6.80987e-05
5.25705e-20
6.80987e-05
1.38047e-19
6.80987e-05
-2.5705e-20
6.80987e-05
-2.74739e-20
6.80987e-05
-9.4568e-20
6.80987e-05
-2.20877e-20
6.80987e-05
1.14748e-19
6.80987e-05
4.29276e-20
6.80987e-05
-3.56439e-20
6.80987e-05
-1.22839e-19
6.80987e-05
8.8827e-22
6.80987e-05
5.41559e-20
6.80987e-05
-1.11323e-20
6.80987e-05
1.58348e-20
6.80987e-05
-1.10159e-19
6.80987e-05
-2.58714e-20
6.80987e-05
1.69157e-20
6.80987e-05
5.23676e-20
6.80987e-05
1.30893e-19
6.80987e-05
-1.75204e-19
6.80987e-05
-1.72634e-19
6.80987e-05
7.99568e-20
6.80987e-05
1.27218e-19
6.80987e-05
1.26955e-19
6.80987e-05
-6.00647e-20
6.80987e-05
-1.12097e-19
6.80987e-05
9.74643e-20
6.80987e-05
7.27463e-20
6.80987e-05
1.62222e-19
6.80987e-05
-1.62392e-19
6.80987e-05
-7.43905e-20
6.80987e-05
1.70085e-19
6.80987e-05
-1.30871e-19
6.80987e-05
8.79468e-20
6.80987e-05
-4.0219e-20
6.80987e-05
-1.31212e-19
6.80987e-05
1.42085e-19
6.80987e-05
4.65314e-20
6.80987e-05
6.48618e-20
6.80987e-05
-1.31392e-19
6.80987e-05
-6.44357e-21
6.80987e-05
4.44449e-20
6.80987e-05
-6.07494e-20
6.80987e-05
1.07068e-20
6.80987e-05
-1.03942e-19
6.80987e-05
2.13096e-19
6.80987e-05
-4.45153e-20
6.80987e-05
-1.14715e-19
6.80987e-05
2.10463e-19
6.80987e-05
-1.99011e-19
6.80987e-05
-3.99142e-20
6.80987e-05
3.24829e-20
6.80987e-05
-7.71833e-20
6.80987e-05
2.23191e-19
6.80987e-05
-1.67875e-19
6.80987e-05
-3.80693e-20
6.80987e-05
1.60055e-19
6.80987e-05
-2.03901e-19
6.80987e-05
1.16124e-19
6.80987e-05
-1.3349e-20
6.80987e-05
-1.21134e-19
6.80987e-05
2.34697e-19
6.80987e-05
-8.3831e-20
6.80987e-05
-6.69606e-21
6.80987e-05
-1.28164e-19
6.80987e-05
-4.23532e-21
6.80987e-05
3.68017e-19
6.80987e-05
-1.98729e-19
6.80987e-05
-3.87929e-20
6.80987e-05
-1.51895e-19
6.80987e-05
-4.19314e-22
6.80987e-05
3.74806e-19
6.80987e-05
-1.50607e-19
6.80987e-05
-2.51755e-19
6.80987e-05
-1.10656e-19
6.80987e-05
2.00633e-19
6.80987e-05
2.68549e-19
6.80987e-05
-8.80759e-20
6.80987e-05
-2.51839e-19
6.80987e-05
-1.38295e-19
6.80987e-05
4.42965e-19
6.80987e-05
3.03418e-20
6.80987e-05
-4.38329e-19
6.80987e-05
3.52308e-19
6.80987e-05
1.14837e-19
6.80987e-05
-2.3209e-19
6.80987e-05
-1.87621e-19
6.80987e-05
-2.06753e-19
6.80987e-05
4.4379e-19
6.80987e-05
2.0537e-19
6.80987e-05
-2.43153e-19
6.80987e-05
-1.6329e-19
6.80987e-05
-1.82313e-19
6.80987e-05
4.55426e-19
6.80987e-05
7.2745e-20
6.80987e-05
-1.27391e-19
6.80987e-05
6.78911e-20
6.80987e-05
-1.49403e-19
6.80987e-05
2.41092e-19
6.80987e-05
-3.0566e-20
6.80987e-05
-4.83689e-20
6.80987e-05
8.13613e-20
6.80987e-05
-3.42802e-19
6.80987e-05
7.99497e-20
6.80987e-05
9.57187e-20
6.80987e-05
2.64532e-20
6.80987e-05
7.74516e-20
6.80987e-05
-2.49448e-19
6.80987e-05
1.96148e-19
6.80987e-05
-3.16537e-20
6.80987e-05
-1.90541e-20
6.80987e-05
1.48832e-19
6.80987e-05
-3.76625e-19
6.80987e-05
-4.90154e-20
6.80987e-05
1.59816e-19
6.80987e-05
1.81949e-19
6.80987e-05
1.67565e-20
6.80987e-05
-2.9975e-19
6.80987e-05
2.54025e-19
6.80987e-05
5.30734e-20
6.80987e-05
-7.16867e-20
6.80987e-05
1.86769e-20
6.80987e-05
-2.8693e-19
6.80987e-05
2.92557e-19
6.80987e-05
4.75891e-20
6.80987e-05
-2.6355e-20
6.80987e-05
1.19197e-19
6.80987e-05
-3.10329e-19
6.80987e-05
1.37017e-19
6.80987e-05
7.37956e-20
6.80987e-05
-9.94322e-20
6.80987e-05
8.25652e-22
6.80987e-05
-2.16078e-19
6.80987e-05
2.14726e-19
6.80987e-05
1.44752e-19
6.80987e-05
-3.01392e-20
6.80987e-05
-4.9612e-20
6.80987e-05
-1.95093e-19
6.80987e-05
1.28571e-19
6.80987e-05
9.03608e-20
6.80987e-05
3.83401e-20
6.80987e-05
4.16252e-21
6.80987e-05
-1.99834e-19
6.80987e-05
8.45335e-20
6.80987e-05
5.16825e-20
6.80987e-05
-1.49107e-19
6.80987e-05
1.23199e-19
6.80987e-05
-9.09054e-20
6.80987e-05
1.22682e-20
6.80987e-05
1.33568e-19
6.80987e-05
-5.82915e-20
6.80987e-05
1.20178e-20
6.80987e-05
-1.69421e-19
6.80987e-05
-1.29885e-20
6.80987e-05
2.29422e-19
6.80987e-05
4.28004e-20
6.80987e-05
-2.30115e-19
6.80987e-05
-1.85335e-19
6.80987e-05
2.28844e-19
6.80987e-05
1.61398e-19
6.80987e-05
-6.58301e-20
6.80987e-05
-2.12135e-19
6.80987e-05
-3.94504e-21
6.80987e-05
2.9701e-19
6.80987e-05
-3.31544e-20
6.80987e-05
2.76916e-20
6.80987e-05
-2.64465e-19
6.80987e-05
-3.56453e-20
6.80987e-05
3.1328e-19
6.80987e-05
2.04105e-20
6.80987e-05
1.46853e-19
6.80987e-05
-1.84985e-19
6.80987e-05
-2.46495e-19
6.80987e-05
9.9652e-21
6.80987e-05
3.32764e-20
6.80987e-05
2.39285e-19
6.80987e-05
-1.65448e-19
6.80987e-05
-6.53449e-21
6.80987e-05
3.9206e-21
6.80987e-05
-1.05311e-19
6.80987e-05
3.24037e-19
6.80987e-05
-6.1458e-20
6.80987e-05
-1.08937e-19
6.80987e-05
1.72194e-19
6.80987e-05
-3.04102e-20
6.80987e-05
2.26997e-19
6.80987e-05
2.56822e-19
8.64056e-19
0.000200444
1.58895e-18
0.000200444
1.02209e-18
0.000200444
5.00453e-19
0.000200444
3.08915e-19
0.000200444
2.4504e-19
0.000200444
2.13851e-19
0.000200444
1.2095e-19
0.000200444
4.16546e-20
0.000200444
5.38806e-20
0.000200444
3.76149e-20
0.000200444
5.41317e-20
0.000200444
-2.18743e-21
0.000200444
4.94446e-20
0.000200444
7.29889e-20
0.000200444
2.09058e-20
0.000200444
7.97792e-20
0.000200444
7.72875e-20
0.000200444
6.17225e-20
0.000200444
-2.00769e-20
0.000200444
-2.43932e-20
0.000200444
1.9721e-20
0.000200444
1.40311e-20
0.000200444
2.18942e-20
0.000200444
1.13993e-20
0.000200444
3.99892e-21
0.000200444
2.28788e-20
0.000200444
1.10531e-19
0.000200444
6.99705e-20
0.000200444
-5.14037e-21
0.000200444
-4.10498e-20
0.000200444
6.06704e-20
0.000200444
1.38847e-19
0.000200444
7.14587e-20
0.000200444
1.21651e-20
0.000200444
4.36812e-20
0.000200444
3.9956e-20
0.000200444
9.01729e-20
0.000200444
4.16213e-20
0.000200444
-1.08561e-20
0.000200444
9.84984e-20
0.000200444
3.92672e-20
0.000200444
1.15257e-20
0.000200444
-9.31439e-21
0.000200444
-6.99436e-20
0.000200444
2.6806e-20
0.000200444
6.70493e-20
0.000200444
1.28094e-20
0.000200444
4.374e-21
0.000200444
1.91659e-20
0.000200444
-2.81284e-20
0.000200444
-5.6826e-20
0.000200444
4.4966e-20
0.000200444
3.22102e-20
0.000200444
4.76822e-20
0.000200444
7.89208e-20
0.000200444
-1.01871e-19
0.000200444
-4.7676e-20
0.000200444
8.20983e-21
0.000200444
4.02682e-20
0.000200444
5.0972e-20
0.000200444
-1.74967e-19
0.000200444
3.28047e-20
0.000200444
-3.81003e-21
0.000200444
-1.18511e-20
0.000200444
9.11024e-20
0.000200444
-9.68313e-20
0.000200444
1.05994e-20
0.000200444
2.90873e-20
0.000200444
1.03473e-19
0.000200444
1.3993e-19
0.000200444
-4.95569e-20
0.000200444
-3.5428e-20
0.000200444
-5.87659e-20
0.000200444
2.23731e-20
0.000200444
2.11153e-19
0.000200444
-7.30476e-20
0.000200444
-1.32073e-19
0.000200444
1.10648e-19
0.000200444
7.03116e-20
0.000200444
1.26134e-19
0.000200444
-5.39125e-20
0.000200444
-1.91537e-19
0.000200444
-6.8694e-21
0.000200444
5.99894e-20
0.000200444
5.69028e-20
0.000200444
-9.02658e-20
0.000200444
-1.67186e-19
0.000200444
-1.5312e-19
0.000200444
-2.47676e-21
0.000200444
1.4274e-19
0.000200444
-1.00486e-19
0.000200444
-2.68107e-19
0.000200444
-5.95873e-20
0.000200444
9.5721e-20
0.000200444
1.62557e-20
0.000200444
-1.59476e-19
0.000200444
-7.87103e-20
0.000200444
-1.28101e-20
0.000200444
9.51659e-20
0.000200444
5.3589e-20
0.000200444
-1.58689e-19
0.000200444
-6.99923e-21
0.000200444
-5.78091e-20
0.000200444
5.34982e-20
0.000200444
8.75865e-20
0.000200444
-2.01669e-21
0.000200444
-1.77144e-19
0.000200444
-8.58131e-20
0.000200444
1.36686e-19
0.000200444
9.98667e-20
0.000200444
-1.76943e-20
0.000200444
-4.55136e-19
0.000200444
-1.29442e-20
0.000200444
3.54052e-19
0.000200444
1.27311e-19
0.000200444
-1.14218e-20
0.000200444
-3.05134e-19
0.000200444
-6.96418e-20
0.000200444
3.31725e-19
0.000200444
1.90099e-19
0.000200444
-1.19023e-19
0.000200444
-3.2887e-19
0.000200444
2.3311e-20
0.000200444
4.36563e-19
0.000200444
2.44508e-19
0.000200444
-1.27344e-19
0.000200444
-4.1677e-19
0.000200444
-8.14832e-21
0.000200444
4.36721e-19
0.000200444
1.26677e-19
0.000200444
-1.76851e-19
0.000200444
-2.94403e-19
0.000200444
6.20394e-20
0.000200444
3.07246e-19
0.000200444
6.05816e-20
0.000200444
-2.12406e-20
0.000200444
-2.00982e-19
0.000200444
-8.21755e-20
0.000200444
2.57295e-19
0.000200444
1.10326e-19
0.000200444
-9.73806e-20
0.000200444
-2.79228e-19
0.000200444
-3.33646e-20
0.000200444
1.3584e-19
0.000200444
-1.58546e-20
0.000200444
-1.23273e-19
0.000200444
-2.475e-19
0.000200444
1.9198e-20
0.000200444
4.01179e-20
0.000200444
2.90156e-20
0.000200444
1.742e-19
0.000200444
-2.91418e-19
0.000200444
-2.38995e-19
0.000200444
1.2821e-19
0.000200444
2.24608e-19
0.000200444
2.83111e-19
0.000200444
-1.46961e-20
0.000200444
-1.37357e-19
0.000200444
1.36489e-19
0.000200444
2.51046e-19
0.000200444
2.85287e-19
0.000200444
-2.0897e-19
0.000200444
-1.43612e-19
0.000200444
2.54564e-19
0.000200444
-1.28441e-19
0.000200444
4.99516e-20
0.000200444
-9.91012e-20
0.000200444
-1.90604e-19
0.000200444
1.60041e-19
0.000200444
9.87924e-20
0.000200444
5.13577e-20
0.000200444
-1.50153e-19
0.000200444
-4.66797e-20
0.000200444
6.95305e-20
0.000200444
4.44156e-20
0.000200444
-1.12194e-19
0.000200444
-1.48177e-19
0.000200444
2.88002e-19
0.000200444
-5.18126e-20
0.000200444
-2.1464e-20
0.000200444
2.12663e-19
0.000200444
-4.14286e-19
0.000200444
-1.09475e-19
0.000200444
5.97376e-20
0.000200444
-8.73645e-20
0.000200444
2.68177e-19
0.000200444
-2.11206e-19
0.000200444
-6.94034e-20
0.000200444
1.82349e-19
0.000200444
-1.74942e-19
0.000200444
3.77574e-20
0.000200444
-4.13805e-20
0.000200444
-1.5245e-19
0.000200444
2.51654e-19
0.000200444
3.95612e-20
0.000200444
-1.30641e-20
0.000200444
-1.23002e-19
0.000200444
2.42194e-20
0.000200444
3.11546e-19
0.000200444
-1.77101e-19
0.000200444
-8.55059e-20
0.000200444
-1.9288e-19
0.000200444
8.02494e-20
0.000200444
3.55897e-19
0.000200444
-1.69353e-19
0.000200444
-3.28509e-19
0.000200444
-2.00976e-19
0.000200444
2.02471e-19
0.000200444
2.79117e-19
0.000200444
-6.032e-20
0.000200444
-2.36505e-19
0.000200444
-2.16917e-19
0.000200444
6.2824e-19
0.000200444
8.77447e-20
0.000200444
-6.00693e-19
0.000200444
4.15693e-19
0.000200444
6.01766e-20
0.000200444
-2.44713e-19
0.000200444
-3.11158e-19
0.000200444
-4.13102e-19
0.000200444
6.96734e-19
0.000200444
3.08337e-19
0.000200444
-2.52118e-19
0.000200444
-2.72428e-19
0.000200444
-3.52999e-19
0.000200444
7.42653e-19
0.000200444
2.18707e-19
0.000200444
-1.89445e-19
0.000200444
8.31591e-20
0.000200444
-1.57249e-19
0.000200444
4.44014e-19
0.000200444
1.6311e-20
0.000200444
-7.68051e-20
0.000200444
3.79493e-20
0.000200444
-5.96415e-19
0.000200444
1.40981e-20
0.000200444
9.42204e-20
0.000200444
2.05012e-19
0.000200444
2.06415e-19
0.000200444
-4.63443e-19
0.000200444
2.13497e-19
0.000200444
-1.02854e-19
0.000200444
2.31056e-20
0.000200444
2.23885e-19
0.000200444
-6.9878e-19
0.000200444
-4.92428e-21
0.000200444
2.45902e-19
0.000200444
2.98144e-19
0.000200444
6.28401e-20
0.000200444
-4.96783e-19
0.000200444
4.98526e-19
0.000200444
1.69858e-19
0.000200444
-1.43793e-19
0.000200444
-1.67096e-19
0.000200444
-4.784e-19
0.000200444
6.63638e-19
0.000200444
1.20847e-19
0.000200444
-5.32799e-20
0.000200444
1.38788e-19
0.000200444
-5.55738e-19
0.000200444
2.00085e-19
0.000200444
6.01086e-20
0.000200444
-1.56328e-19
0.000200444
-4.91169e-20
0.000200444
-2.7235e-19
0.000200444
4.59724e-19
0.000200444
1.59667e-19
0.000200444
-1.63438e-20
0.000200444
-6.11051e-20
0.000200444
-4.14253e-19
0.000200444
2.37604e-19
0.000200444
1.85999e-19
0.000200444
2.21118e-19
0.000200444
-1.00462e-20
0.000200444
-4.74529e-19
0.000200444
1.82824e-19
0.000200444
3.45313e-20
0.000200444
-1.20549e-19
0.000200444
1.15492e-19
0.000200444
-3.82868e-19
0.000200444
1.23762e-19
0.000200444
1.7817e-19
0.000200444
1.20365e-20
0.000200444
1.97821e-20
0.000200444
-4.51558e-19
0.000200444
1.52908e-19
0.000200444
3.54603e-19
0.000200444
-1.81736e-20
0.000200444
-3.80697e-19
0.000200444
-2.76948e-19
0.000200444
4.94952e-19
0.000200444
2.59418e-19
0.000200444
-1.95944e-19
0.000200444
-2.07888e-19
0.000200444
-6.30339e-20
0.000200444
4.03162e-19
0.000200444
1.58121e-19
0.000200444
-1.38703e-19
0.000200444
-2.63538e-19
0.000200444
-1.50716e-19
0.000200444
4.56533e-19
0.000200444
3.47744e-19
0.000200444
1.75305e-19
0.000200444
-3.73369e-19
0.000200444
-5.13975e-19
0.000200444
1.17882e-19
0.000200444
9.87091e-20
0.000200444
2.1354e-19
0.000200444
-2.8135e-19
0.000200444
5.00087e-21
0.000200444
1.21175e-19
0.000200444
-1.07568e-19
0.000200444
4.05564e-19
0.000200444
-1.55916e-20
0.000200444
-1.8008e-19
0.000200444
1.62607e-19
0.000200444
-2.33661e-20
0.000200444
4.25471e-19
0.000200444
3.34699e-19
5.80397e-19
0.000328151
1.02898e-18
0.000328151
7.19239e-19
0.000328151
4.67569e-19
0.000328151
3.44314e-19
0.000328151
2.88502e-19
0.000328151
1.95595e-19
0.000328151
1.27867e-19
0.000328151
1.63455e-19
0.000328151
1.10346e-19
0.000328151
1.25883e-19
0.000328151
1.72122e-19
0.000328151
1.08214e-19
0.000328151
1.7774e-19
0.000328151
1.17483e-19
0.000328151
7.03952e-20
0.000328151
9.81314e-20
0.000328151
5.35131e-20
0.000328151
7.24708e-20
0.000328151
4.27205e-20
0.000328151
1.85614e-20
0.000328151
5.1514e-20
0.000328151
2.3952e-20
0.000328151
8.78875e-21
0.000328151
1.14053e-19
0.000328151
2.65449e-20
0.000328151
5.6566e-20
0.000328151
2.0856e-19
0.000328151
1.46454e-19
0.000328151
2.78092e-20
0.000328151
-1.47712e-20
0.000328151
9.95422e-20
0.000328151
2.22347e-19
0.000328151
1.80996e-19
0.000328151
7.59813e-20
0.000328151
8.85857e-20
0.000328151
8.55726e-20
0.000328151
1.57328e-19
0.000328151
8.41605e-20
0.000328151
-4.03753e-20
0.000328151
9.00356e-20
0.000328151
7.69303e-20
0.000328151
7.54409e-20
0.000328151
4.13101e-20
0.000328151
-3.2825e-20
0.000328151
3.93935e-20
0.000328151
5.61843e-20
0.000328151
3.38362e-20
0.000328151
4.64338e-20
0.000328151
5.13504e-20
0.000328151
7.73617e-20
0.000328151
5.15448e-22
0.000328151
4.83279e-20
0.000328151
5.13737e-20
0.000328151
3.63393e-20
0.000328151
7.30598e-20
0.000328151
-1.23206e-19
0.000328151
-9.36094e-20
0.000328151
2.21987e-20
0.000328151
3.24781e-20
0.000328151
4.72626e-20
0.000328151
-1.7705e-19
0.000328151
1.00432e-19
0.000328151
4.14719e-20
0.000328151
-3.87328e-20
0.000328151
9.03213e-20
0.000328151
-1.24165e-19
0.000328151
3.24477e-20
0.000328151
6.58857e-20
0.000328151
1.08572e-19
0.000328151
2.2651e-19
0.000328151
1.95056e-20
0.000328151
2.73353e-20
0.000328151
-5.79518e-20
0.000328151
5.19141e-20
0.000328151
2.32925e-19
0.000328151
-6.16391e-20
0.000328151
-1.02779e-19
0.000328151
6.81713e-20
0.000328151
9.92092e-20
0.000328151
1.84691e-19
0.000328151
-6.67421e-20
0.000328151
-2.15668e-19
0.000328151
3.63761e-20
0.000328151
6.69957e-20
0.000328151
1.33138e-20
0.000328151
-2.09151e-19
0.000328151
-2.48686e-19
0.000328151
-2.34954e-19
0.000328151
-1.4903e-19
0.000328151
9.95423e-20
0.000328151
-1.59888e-19
0.000328151
-2.61904e-19
0.000328151
-7.83617e-20
0.000328151
6.2482e-20
0.000328151
-7.4237e-22
0.000328151
-2.12248e-19
0.000328151
-9.13813e-20
0.000328151
-3.37049e-20
0.000328151
-3.32451e-20
0.000328151
-1.42161e-20
0.000328151
-7.35668e-20
0.000328151
-1.80026e-20
0.000328151
-8.10795e-20
0.000328151
6.74986e-22
0.000328151
1.03435e-19
0.000328151
-7.88699e-21
0.000328151
-3.10546e-19
0.000328151
-2.15912e-19
0.000328151
2.03282e-19
0.000328151
2.7452e-19
0.000328151
-3.74368e-20
0.000328151
-5.69629e-19
0.000328151
-5.23274e-20
0.000328151
3.71821e-19
0.000328151
2.42897e-19
0.000328151
2.0347e-20
0.000328151
-4.16539e-19
0.000328151
-2.08509e-19
0.000328151
5.13127e-19
0.000328151
3.69597e-19
0.000328151
-2.46805e-19
0.000328151
-4.38938e-19
0.000328151
7.76458e-20
0.000328151
6.07994e-19
0.000328151
4.26905e-19
0.000328151
-1.27406e-19
0.000328151
-6.22732e-19
0.000328151
-3.64913e-20
0.000328151
5.51035e-19
0.000328151
1.27049e-19
0.000328151
-1.76963e-19
0.000328151
-3.09173e-19
0.000328151
4.87532e-20
0.000328151
4.03772e-19
0.000328151
1.71895e-19
0.000328151
-5.37159e-20
0.000328151
-3.12102e-19
0.000328151
-1.374e-19
0.000328151
3.8426e-19
0.000328151
1.45609e-19
0.000328151
-2.38315e-19
0.000328151
-4.80279e-19
0.000328151
-4.88021e-20
0.000328151
1.30689e-19
0.000328151
-3.83329e-20
0.000328151
-2.10693e-19
0.000328151
-4.34754e-19
0.000328151
4.51201e-20
0.000328151
1.3268e-19
0.000328151
-2.6244e-20
0.000328151
1.08236e-19
0.000328151
-3.4258e-19
0.000328151
-2.94565e-19
0.000328151
1.32189e-19
0.000328151
3.00019e-19
0.000328151
3.25702e-19
0.000328151
2.54854e-20
0.000328151
2.7027e-20
0.000328151
3.04832e-19
0.000328151
4.15972e-19
0.000328151
3.87963e-19
0.000328151
-2.4092e-19
0.000328151
-8.21114e-20
0.000328151
3.00816e-19
0.000328151
-1.25772e-19
0.000328151
-3.28257e-20
0.000328151
-5.91321e-20
0.000328151
-9.90388e-20
0.000328151
5.75478e-20
0.000328151
9.0383e-20
0.000328151
-8.21447e-21
0.000328151
-2.09588e-19
0.000328151
-7.77061e-20
0.000328151
2.25375e-19
0.000328151
1.36133e-19
0.000328151
-1.90799e-19
0.000328151
-2.13182e-19
0.000328151
1.7687e-19
0.000328151
1.91258e-20
0.000328151
1.68481e-19
0.000328151
6.71213e-20
0.000328151
-6.11216e-19
0.000328151
-2.2064e-19
0.000328151
1.67328e-19
0.000328151
-4.47124e-20
0.000328151
1.04342e-19
0.000328151
-1.6461e-19
0.000328151
-1.04528e-19
0.000328151
1.70061e-19
0.000328151
-1.13728e-19
0.000328151
-7.58068e-20
0.000328151
-6.44447e-20
0.000328151
-9.70885e-20
0.000328151
2.1264e-19
0.000328151
1.74377e-19
0.000328151
-3.99986e-20
0.000328151
-9.8763e-20
0.000328151
9.30421e-21
0.000328151
1.56814e-19
0.000328151
-5.69153e-20
0.000328151
-6.82297e-20
0.000328151
-1.71067e-19
0.000328151
6.48709e-20
0.000328151
2.8732e-19
0.000328151
-1.00794e-19
0.000328151
-2.70448e-19
0.000328151
-2.97289e-19
0.000328151
1.62797e-19
0.000328151
1.64123e-19
0.000328151
-3.47833e-20
0.000328151
-2.15206e-19
0.000328151
-3.56424e-19
0.000328151
6.27264e-19
0.000328151
1.7356e-19
0.000328151
-4.5897e-19
0.000328151
3.16425e-19
0.000328151
-1.41316e-19
0.000328151
-7.66201e-20
0.000328151
-2.82657e-19
0.000328151
-4.96876e-19
0.000328151
6.96883e-19
0.000328151
2.96222e-19
0.000328151
-4.37132e-20
0.000328151
-1.99916e-19
0.000328151
-4.96505e-19
0.000328151
7.81916e-19
0.000328151
3.46985e-19
0.000328151
-2.41785e-19
0.000328151
9.98276e-20
0.000328151
-8.27483e-20
0.000328151
6.33643e-19
0.000328151
6.93283e-20
0.000328151
-1.41369e-19
0.000328151
-7.35917e-20
0.000328151
-7.24069e-19
0.000328151
-4.40847e-20
0.000328151
4.27017e-20
0.000328151
4.86687e-19
0.000328151
3.56009e-19
0.000328151
-6.39248e-19
0.000328151
1.32277e-19
0.000328151
-2.13015e-19
0.000328151
-1.02279e-20
0.000328151
2.28818e-19
0.000328151
-8.85104e-19
0.000328151
1.87581e-20
0.000328151
2.02981e-19
0.000328151
3.11719e-19
0.000328151
2.13463e-19
0.000328151
-4.75482e-19
0.000328151
6.85102e-19
0.000328151
3.00293e-19
0.000328151
-2.46149e-19
0.000328151
-3.4972e-19
0.000328151
-5.44816e-19
0.000328151
8.97435e-19
0.000328151
1.91749e-19
0.000328151
-1.40373e-19
0.000328151
1.4373e-19
0.000328151
-6.49895e-19
0.000328151
1.37324e-19
0.000328151
-1.30513e-19
0.000328151
-1.41726e-19
0.000328151
-8.07897e-20
0.000328151
-3.47173e-19
0.000328151
5.9716e-19
0.000328151
7.37064e-20
0.000328151
9.14685e-20
0.000328151
5.0111e-20
0.000328151
-6.02144e-19
0.000328151
3.59318e-19
0.000328151
1.93617e-19
0.000328151
2.86161e-19
0.000328151
1.01283e-19
0.000328151
-7.62282e-19
0.000328151
2.4265e-19
0.000328151
-5.60647e-20
0.000328151
-2.63543e-20
0.000328151
1.50087e-19
0.000328151
-6.78321e-19
0.000328151
2.69111e-19
0.000328151
3.31654e-20
0.000328151
4.18229e-20
0.000328151
1.15278e-19
0.000328151
-7.29728e-19
0.000328151
3.15569e-19
0.000328151
4.04971e-19
0.000328151
-1.82576e-19
0.000328151
-3.32107e-19
0.000328151
-3.78695e-19
0.000328151
6.82254e-19
0.000328151
2.8682e-19
0.000328151
-2.80756e-19
0.000328151
-4.9868e-20
0.000328151
-1.77343e-19
0.000328151
4.57316e-19
0.000328151
3.28323e-19
0.000328151
-3.208e-19
0.000328151
-2.39421e-19
0.000328151
-2.24154e-19
0.000328151
5.49173e-19
0.000328151
5.08641e-19
0.000328151
9.40888e-20
0.000328151
-4.52799e-19
0.000328151
-6.01786e-19
0.000328151
3.07045e-19
0.000328151
8.54861e-20
0.000328151
5.90874e-20
0.000328151
-2.59761e-19
0.000328151
-1.19281e-19
0.000328151
3.01589e-19
0.000328151
-1.09908e-19
0.000328151
2.43045e-19
0.000328151
2.15066e-19
0.000328151
-1.81655e-19
0.000328151
5.11719e-20
0.000328151
-6.55422e-20
0.000328151
4.62496e-19
0.000328151
3.53796e-19
3.07918e-19
0.000450471
6.37621e-19
0.000450471
5.58488e-19
0.000450471
4.22917e-19
0.000450471
2.68841e-19
0.000450471
1.85439e-19
0.000450471
1.96797e-19
0.000450471
1.96723e-19
0.000450471
2.17235e-19
0.000450471
2.14202e-19
0.000450471
1.98375e-19
0.000450471
2.45222e-19
0.000450471
2.33695e-19
0.000450471
2.40025e-19
0.000450471
2.464e-19
0.000450471
1.37024e-19
0.000450471
1.08382e-19
0.000450471
1.49418e-19
0.000450471
1.33727e-20
0.000450471
1.8633e-20
0.000450471
2.76583e-20
0.000450471
7.46929e-20
0.000450471
4.30828e-20
0.000450471
9.15973e-20
0.000450471
8.3927e-20
0.000450471
6.4189e-20
0.000450471
2.19461e-19
0.000450471
3.04539e-19
0.000450471
2.30474e-19
0.000450471
-2.24736e-20
0.000450471
3.71816e-22
0.000450471
1.37366e-19
0.000450471
3.80206e-19
0.000450471
2.78113e-19
0.000450471
2.04629e-19
0.000450471
2.08191e-19
0.000450471
1.66785e-19
0.000450471
1.46536e-19
0.000450471
1.10403e-19
0.000450471
-6.61539e-20
0.000450471
2.93818e-21
0.000450471
5.41638e-20
0.000450471
1.01672e-19
0.000450471
9.84615e-20
0.000450471
3.5326e-20
0.000450471
4.29892e-21
0.000450471
5.11848e-20
0.000450471
9.67939e-20
0.000450471
1.61159e-19
0.000450471
1.34319e-19
0.000450471
8.99198e-20
0.000450471
-1.51842e-20
0.000450471
4.38121e-20
0.000450471
4.6995e-20
0.000450471
-2.32904e-20
0.000450471
2.2997e-20
0.000450471
-2.43703e-20
0.000450471
-3.22005e-20
0.000450471
4.1312e-20
0.000450471
1.22582e-20
0.000450471
3.97873e-20
0.000450471
-1.5024e-19
0.000450471
2.02773e-19
0.000450471
1.11636e-19
0.000450471
4.84653e-20
0.000450471
1.1582e-19
0.000450471
-1.48739e-19
0.000450471
6.72171e-20
0.000450471
6.85824e-20
0.000450471
1.8516e-19
0.000450471
2.61871e-19
0.000450471
2.15153e-20
0.000450471
5.10893e-20
0.000450471
-6.47529e-20
0.000450471
3.41063e-21
0.000450471
2.87301e-19
0.000450471
4.86492e-20
0.000450471
1.86916e-20
0.000450471
9.77123e-20
0.000450471
-3.64593e-22
0.000450471
7.37782e-20
0.000450471
-1.08267e-19
0.000450471
-2.34891e-19
0.000450471
-8.72276e-21
0.000450471
1.12359e-19
0.000450471
2.75919e-20
0.000450471
-2.80889e-19
0.000450471
-2.89442e-19
0.000450471
-2.78448e-19
0.000450471
-3.53013e-19
0.000450471
-1.156e-19
0.000450471
-1.87023e-19
0.000450471
-2.30558e-19
0.000450471
-9.83106e-20
0.000450471
1.83919e-20
0.000450471
-1.61983e-20
0.000450471
-2.20786e-19
0.000450471
-1.4358e-19
0.000450471
-1.37465e-19
0.000450471
-1.13363e-19
0.000450471
-2.00471e-20
0.000450471
-1.39463e-20
0.000450471
-3.82376e-20
0.000450471
-1.20234e-19
0.000450471
-3.35446e-20
0.000450471
7.16366e-20
0.000450471
5.43014e-20
0.000450471
-3.2846e-19
0.000450471
-3.72508e-19
0.000450471
1.48953e-19
0.000450471
2.83411e-19
0.000450471
-5.46885e-20
0.000450471
-5.9971e-19
0.000450471
-1.34187e-19
0.000450471
2.91104e-19
0.000450471
3.08013e-19
0.000450471
1.79905e-20
0.000450471
-4.74182e-19
0.000450471
-1.53946e-19
0.000450471
5.37155e-19
0.000450471
3.72978e-19
0.000450471
-2.71373e-19
0.000450471
-4.69913e-19
0.000450471
-5.22739e-21
0.000450471
7.10668e-19
0.000450471
6.29472e-19
0.000450471
-9.5732e-20
0.000450471
-6.58371e-19
0.000450471
-8.24805e-20
0.000450471
5.26627e-19
0.000450471
1.36165e-19
0.000450471
-1.61266e-19
0.000450471
-1.56506e-19
0.000450471
1.05963e-19
0.000450471
5.28267e-19
0.000450471
2.70999e-19
0.000450471
-3.18924e-20
0.000450471
-4.03174e-19
0.000450471
-1.80577e-19
0.000450471
3.68182e-19
0.000450471
8.5589e-20
0.000450471
-3.48929e-19
0.000450471
-5.25034e-19
0.000450471
-3.67667e-20
0.000450471
1.14482e-19
0.000450471
-1.61176e-19
0.000450471
-3.0017e-19
0.000450471
-5.1295e-19
0.000450471
-2.70585e-20
0.000450471
5.55706e-20
0.000450471
-6.43233e-20
0.000450471
9.32984e-20
0.000450471
-2.37717e-19
0.000450471
-2.85593e-19
0.000450471
7.81033e-20
0.000450471
4.04135e-19
0.000450471
4.3061e-19
0.000450471
1.0229e-19
0.000450471
3.17323e-20
0.000450471
3.83232e-19
0.000450471
5.79897e-19
0.000450471
5.08518e-19
0.000450471
-8.47648e-20
0.000450471
2.29318e-20
0.000450471
2.91819e-19
0.000450471
-1.54361e-19
0.000450471
-4.0232e-20
0.000450471
-5.09552e-20
0.000450471
6.71835e-21
0.000450471
1.35843e-19
0.000450471
4.31452e-20
0.000450471
-2.51427e-20
0.000450471
-4.16726e-19
0.000450471
-4.26129e-20
0.000450471
4.76316e-19
0.000450471
6.48132e-20
0.000450471
-2.24853e-19
0.000450471
-1.64526e-19
0.000450471
1.17406e-20
0.000450471
5.44058e-21
0.000450471
2.51863e-19
0.000450471
1.30136e-20
0.000450471
-6.9864e-19
0.000450471
-3.2873e-19
0.000450471
6.09514e-20
0.000450471
-1.8636e-20
0.000450471
-1.1191e-20
0.000450471
-2.96717e-19
0.000450471
-8.27535e-20
0.000450471
1.47656e-19
0.000450471
-1.37505e-19
0.000450471
-1.36432e-19
0.000450471
-3.70724e-20
0.000450471
-8.2267e-20
0.000450471
1.85166e-19
0.000450471
2.95696e-19
0.000450471
9.02609e-20
0.000450471
-8.17892e-20
0.000450471
-1.31159e-19
0.000450471
6.5125e-20
0.000450471
1.47291e-20
0.000450471
-6.62058e-20
0.000450471
-1.66276e-19
0.000450471
1.10423e-19
0.000450471
2.08241e-19
0.000450471
-9.6409e-20
0.000450471
-1.90721e-19
0.000450471
-2.2513e-19
0.000450471
4.6703e-20
0.000450471
1.10358e-21
0.000450471
-1.95987e-19
0.000450471
-1.82703e-19
0.000450471
-3.46038e-19
0.000450471
5.96188e-19
0.000450471
2.54016e-19
0.000450471
-4.35408e-19
0.000450471
2.41227e-19
0.000450471
-1.75746e-19
0.000450471
-4.2391e-20
0.000450471
-2.18755e-19
0.000450471
-5.28915e-19
0.000450471
5.86525e-19
0.000450471
2.54359e-19
0.000450471
8.88521e-20
0.000450471
8.39516e-21
0.000450471
-4.04966e-19
0.000450471
7.39329e-19
0.000450471
3.88354e-19
0.000450471
-1.18744e-19
0.000450471
1.12155e-19
0.000450471
-6.20066e-20
0.000450471
6.73603e-19
0.000450471
2.27221e-19
0.000450471
-2.06609e-19
0.000450471
-1.73672e-19
0.000450471
-6.99001e-19
0.000450471
-1.43396e-19
0.000450471
1.87306e-20