/*--------------------------------*- C++ -*----------------------------------*\
| =========                 |                                                 |
| \\      /  F ield         | OpenFOAM: The Open Source CFD Toolbox           |
|  \\    /   O peration     | Version:  2112                                  |
|   \\  /    A nd           | Website:  www.openfoam.com                      |
|    \\/     M anipulation  |                                                 |
\*---------------------------------------------------------------------------*/
FoamFile
{
    version     2.0;
    format      ascii;
    arch        "LSB;label=32;scalar=64";
    class       volVectorField;
    location    "1";
    object      U;
}
// * * * * * * * * * * * * * * * * * * * * * * * * * * * * * * * * * * * * * //

dimensions      [0 1 -1 0 0 0 0];

internalField   nonuniform List<vector> 
25600
(
(0.0544781 1.3933e-15 0)
(0.0544781 5.92872e-16 0)
(0.0544781 1.80919e-16 0)
(0.0544781 6.97226e-17 0)
(0.0544781 5.23661e-17 0)
(0.0544781 3.01598e-17 0)
(0.0544781 1.21248e-17 0)
(0.0544781 1.1249e-17 0)
(0.0544781 4.80778e-18 0)
(0.0544781 -9.17023e-19 0)
(0.0544781 1.33164e-17 0)
(0.0544781 -1.47907e-17 0)
(0.0544781 6.87693e-18 0)
(0.0544781 1.20898e-17 0)
(0.0544781 -1.21245e-17 0)
(0.0544781 2.9198e-17 0)
(0.0544781 3.08182e-18 0)
(0.0544781 -2.5598e-18 0)
(0.0544781 -4.20817e-18 0)
(0.0544781 -3.99973e-18 0)
(0.0544781 1.1819e-17 0)
(0.0544781 1.47182e-17 0)
(0.0544781 4.25466e-18 0)
(0.0544781 -1.49557e-17 0)
(0.0544781 -3.15636e-17 0)
(0.0544781 5.95945e-19 0)
(0.0544781 5.4922e-17 0)
(0.0544781 -8.78151e-18 0)
(0.0544781 -4.76143e-17 0)
(0.0544781 -7.15464e-18 0)
(0.0544781 1.80627e-17 0)
(0.0544781 3.38116e-17 0)
(0.0544781 9.03267e-18 0)
(0.0544781 -8.81214e-18 0)
(0.0544781 -1.90472e-18 0)
(0.0544781 -1.85888e-18 0)
(0.0544781 1.65626e-18 0)
(0.0544781 -7.42336e-18 0)
(0.0544781 5.78798e-18 0)
(0.0544781 1.63988e-17 0)
(0.0544781 -1.16935e-18 0)
(0.0544781 2.78149e-17 0)
(0.0544781 -1.97908e-17 0)
(0.0544781 -3.7315e-17 0)
(0.0544781 4.73059e-17 0)
(0.0544781 -1.85805e-17 0)
(0.0544781 4.27843e-18 0)
(0.0544781 -7.90523e-20 0)
(0.0544781 -3.48114e-18 0)
(0.0544781 -9.1009e-18 0)
(0.0544781 -5.73455e-17 0)
(0.0544781 4.74858e-17 0)
(0.0544781 2.57914e-18 0)
(0.0544781 5.08706e-19 0)
(0.0544781 5.32048e-17 0)
(0.0544781 -5.32972e-17 0)
(0.0544781 -5.49423e-18 0)
(0.0544781 -2.23005e-17 0)
(0.0544781 4.85436e-18 0)
(0.0544781 7.57555e-17 0)
(0.0544781 -5.67475e-17 0)
(0.0544781 -5.10015e-19 0)
(0.0544781 3.27834e-18 0)
(0.0544781 9.86251e-18 0)
(0.0544781 2.68938e-17 0)
(0.0544781 -3.25495e-17 0)
(0.0544781 -6.01261e-18 0)
(0.0544781 -2.00259e-17 0)
(0.0544781 3.26507e-17 0)
(0.0544781 1.11022e-17 0)
(0.0544781 -4.42872e-18 0)
(0.0544781 -8.52041e-18 0)
(0.0544781 -7.90518e-18 0)
(0.0544781 -2.99019e-18 0)
(0.0544781 1.49018e-17 0)
(0.0544781 -7.77024e-18 0)
(0.0544781 -3.01278e-17 0)
(0.0544781 3.35007e-17 0)
(0.0544781 1.29349e-17 0)
(0.0544781 5.9625e-17 0)
(0.0544781 -5.43976e-17 0)
(0.0544781 -6.96981e-17 0)
(0.0544781 4.66329e-17 0)
(0.0544781 1.39037e-17 0)
(0.0544781 5.611e-17 0)
(0.0544781 -5.96135e-18 0)
(0.0544781 -1.03818e-16 0)
(0.0544781 -1.61288e-17 0)
(0.0544781 5.12402e-17 0)
(0.0544781 6.99796e-17 0)
(0.0544781 -1.1094e-17 0)
(0.0544781 -1.1612e-16 0)
(0.0544781 -9.58806e-18 0)
(0.0544781 1.05974e-16 0)
(0.0544781 3.94214e-18 0)
(0.0544781 -1.04353e-16 0)
(0.0544781 -4.53554e-18 0)
(0.0544781 1.20663e-18 0)
(0.0544781 1.06147e-16 0)
(0.0544781 4.54069e-17 0)
(0.0544781 -1.58792e-16 0)
(0.0544781 -9.72535e-18 0)
(0.0544781 4.50083e-18 0)
(0.0544781 1.0008e-16 0)
(0.0544781 1.488e-17 0)
(0.0544781 -4.62168e-17 0)
(0.0544781 -6.14196e-17 0)
(0.0544781 3.96873e-17 0)
(0.0544781 5.94173e-17 0)
(0.0544781 -3.66704e-17 0)
(0.0544781 3.50723e-17 0)
(0.0544781 -1.71784e-16 0)
(0.0544781 4.56717e-17 0)
(0.0544781 1.2539e-16 0)
(0.0544781 1.51165e-17 0)
(0.0544781 -5.81393e-17 0)
(0.0544781 -1.17943e-16 0)
(0.0544781 8.77742e-17 0)
(0.0544781 8.2682e-17 0)
(0.0544781 2.28327e-17 0)
(0.0544781 -2.2364e-17 0)
(0.0544781 -1.29229e-16 0)
(0.0544781 -5.03163e-18 0)
(0.0544781 1.31315e-16 0)
(0.0544781 2.54821e-17 0)
(0.0544781 -6.60491e-17 0)
(0.0544781 -7.96154e-17 0)
(0.0544781 1.05077e-18 0)
(0.0544781 1.36409e-16 0)
(0.0544781 1.59532e-17 0)
(0.0544781 -6.86749e-17 0)
(0.0544781 -6.63666e-17 0)
(0.0544781 5.70413e-17 0)
(0.0544781 6.62481e-17 0)
(0.0544781 -5.36358e-17 0)
(0.0544781 -6.11178e-17 0)
(0.0544781 -1.41283e-17 0)
(0.0544781 8.64553e-17 0)
(0.0544781 3.20259e-17 0)
(0.0544781 -3.98615e-17 0)
(0.0544781 -6.44533e-17 0)
(0.0544781 -1.8089e-17 0)
(0.0544781 9.69085e-17 0)
(0.0544781 1.2012e-17 0)
(0.0544781 -8.85219e-17 0)
(0.0544781 8.78825e-17 0)
(0.0544781 -1.52967e-17 0)
(0.0544781 -8.79522e-17 0)
(0.0544781 -6.53971e-18 0)
(0.0544781 9.33402e-18 0)
(0.0544781 1.10064e-16 0)
(0.0544781 -2.08635e-17 0)
(0.0544781 -1.11556e-16 0)
(0.0544781 9.7086e-18 0)
(0.0544781 6.77181e-17 0)
(0.0544781 6.5394e-17 0)
(0.0544781 -5.7448e-17 0)
(0.0544781 -7.318e-17 0)
(0.0544781 5.65365e-17 0)
(0.0544781 2.27738e-17 0)
(0.0544781 1.10703e-16 0)
(0.0544781 -1.25809e-16 0)
(0.0544781 -1.06073e-16 0)
(0.0544781 1.20351e-16 0)
(0.0544781 3.25378e-18 0)
(0.0544781 9.83259e-17 0)
(0.0544781 -7.87699e-17 0)
(0.0544781 -2.9061e-17 0)
(0.0544781 4.96549e-18 0)
(0.0544781 -7.8944e-17 0)
(0.0544781 1.72058e-16 0)
(0.0544781 -8.93637e-17 0)
(0.0544781 -4.51353e-18 0)
(0.0544781 8.79735e-18 0)
(0.0544781 -7.14247e-17 0)
(0.0544781 1.63467e-16 0)
(0.0544781 -1.03224e-16 0)
(0.0544781 6.30416e-18 0)
(0.0544781 -1.88396e-17 0)
(0.0544781 -7.65959e-17 0)
(0.0544781 2.06274e-16 0)
(0.0544781 -1.04537e-16 0)
(0.0544781 -1.50078e-17 0)
(0.0544781 3.29273e-18 0)
(0.0544781 -8.31409e-17 0)
(0.0544781 1.95709e-16 0)
(0.0544781 -1.06209e-16 0)
(0.0544781 -7.5776e-18 0)
(0.0544781 1.0963e-16 0)
(0.0544781 -1.92728e-16 0)
(0.0544781 9.36239e-17 0)
(0.0544781 -4.33429e-18 0)
(0.0544781 -9.79986e-17 0)
(0.0544781 1.99425e-16 0)
(0.0544781 -8.16278e-17 0)
(0.0544781 -1.79474e-17 0)
(0.0544781 -1.06566e-16 0)
(0.0544781 9.26962e-18 0)
(0.0544781 3.14382e-16 0)
(0.0544781 -1.86811e-16 0)
(0.0544781 -3.29299e-17 0)
(0.0544781 -1.13304e-16 0)
(0.0544781 1.2627e-17 0)
(0.0544781 3.10685e-16 0)
(0.0544781 -1.83847e-16 0)
(0.0544781 -1.45365e-16 0)
(0.0544781 -1.1979e-17 0)
(0.0544781 1.40233e-16 0)
(0.0544781 2.211e-16 0)
(0.0544781 -9.76674e-17 0)
(0.0544781 -2.31377e-16 0)
(0.0544781 -1.04885e-16 0)
(0.0544781 3.35496e-16 0)
(0.0544781 9.0113e-18 0)
(0.0544781 -3.30646e-16 0)
(0.0544781 3.07548e-16 0)
(0.0544781 1.20854e-16 0)
(0.0544781 -2.10582e-16 0)
(0.0544781 -1.43463e-16 0)
(0.0544781 -1.23134e-16 0)
(0.0544781 3.43352e-16 0)
(0.0544781 1.38256e-16 0)
(0.0544781 -2.13588e-16 0)
(0.0544781 -1.34566e-16 0)
(0.0544781 -1.10273e-16 0)
(0.0544781 3.33668e-16 0)
(0.0544781 2.90352e-17 0)
(0.0544781 -1.17195e-16 0)
(0.0544781 -1.28968e-17 0)
(0.0544781 -1.77785e-16 0)
(0.0544781 3.08701e-16 0)
(0.0544781 1.28472e-17 0)
(0.0544781 -1.84669e-16 0)
(0.0544781 6.83333e-17 0)
(0.0544781 -1.33146e-16 0)
(0.0544781 1.78013e-16 0)
(0.0544781 2.9428e-17 0)
(0.0544781 -7.38422e-17 0)
(0.0544781 -5.55534e-18 0)
(0.0544781 -2.04247e-16 0)
(0.0544781 2.93758e-16 0)
(0.0544781 1.615e-17 0)
(0.0544781 -8.67778e-17 0)
(0.0544781 9.13859e-17 0)
(0.0544781 -2.44977e-16 0)
(0.0544781 -1.82907e-17 0)
(0.0544781 1.23931e-16 0)
(0.0544781 1.25181e-16 0)
(0.0544781 -1.39314e-18 0)
(0.0544781 -2.28217e-16 0)
(0.0544781 1.25518e-16 0)
(0.0544781 1.75441e-17 0)
(0.0544781 -7.65195e-18 0)
(0.0544781 8.05857e-17 0)
(0.0544781 -2.15242e-16 0)
(0.0544781 1.3244e-16 0)
(0.0544781 1.61879e-17 0)
(0.0544781 2.36915e-18 0)
(0.0544781 9.9897e-17 0)
(0.0544781 -2.22022e-16 0)
(0.0544781 9.17371e-17 0)
(0.0544781 2.02603e-17 0)
(0.0544781 -4.10682e-18 0)
(0.0544781 8.18944e-17 0)
(0.0544781 -2.04918e-16 0)
(0.0544781 1.17235e-16 0)
(0.0544781 1.05654e-16 0)
(0.0544781 -8.60815e-17 0)
(0.0544781 -1.43997e-17 0)
(0.0544781 -1.1554e-16 0)
(0.0544781 1.14156e-16 0)
(0.0544781 9.19325e-17 0)
(0.0544781 -1.58872e-16 0)
(0.0544781 8.10607e-17 0)
(0.0544781 -3.05143e-17 0)
(0.0544781 3.16718e-17 0)
(0.0544781 8.31262e-17 0)
(0.0544781 -1.88022e-16 0)
(0.0544781 9.37574e-17 0)
(0.0544781 -1.98616e-17 0)
(0.0544781 1.23484e-17 0)
(0.0544781 9.07994e-17 0)
(0.0544781 -1.70177e-16 0)
(0.0544781 9.19459e-17 0)
(0.0544781 -2.76664e-17 0)
(0.0544781 -7.1956e-17 0)
(0.0544781 1.96628e-16 0)
(0.0544781 -7.8634e-17 0)
(0.0544781 -6.39698e-17 0)
(0.0544781 -1.25428e-16 0)
(0.0544781 6.77205e-17 0)
(0.0544781 3.09985e-16 0)
(0.0544781 -7.70174e-18 0)
(0.0544781 -3.05178e-16 0)
(0.0544781 -4.06228e-17 0)
(0.0544781 1.33693e-16 0)
(0.0544781 3.4668e-17 0)
(0.0544781 1.65997e-16 0)
(0.0544781 -2.95186e-16 0)
(0.0544781 -3.95732e-17 0)
(0.0544781 1.30006e-16 0)
(0.0544781 2.94911e-17 0)
(0.0544781 1.06455e-16 0)
(0.0544781 -1.81542e-16 0)
(0.0544781 4.17128e-17 0)
(0.0544781 1.48955e-17 0)
(0.0544781 -7.89864e-17 0)
(0.0544781 1.93097e-16 0)
(0.0544781 -1.01603e-16 0)
(0.0544781 -1.12413e-17 0)
(0.0544781 -4.83745e-18 0)
(0.0544781 -9.25969e-17 0)
(0.0544781 2.25293e-16 0)
(0.0544781 -8.2252e-17 0)
(0.0544781 -1.0459e-16 0)
(0.0544781 1.17216e-16 0)
(0.0544781 4.16721e-17 0)
(0.0544781 1.76151e-16 0)
(0.0544781 7.02417e-17 0)
(0.0544781 4.48876e-16 0)
(0.160354 1.95881e-15 0)
(0.160354 9.85989e-16 0)
(0.160354 4.13845e-16 0)
(0.160354 2.0288e-16 0)
(0.160354 1.55145e-16 0)
(0.160354 1.23531e-16 0)
(0.160354 6.86192e-17 0)
(0.160354 2.97236e-17 0)
(0.160354 1.4964e-17 0)
(0.160354 1.98563e-17 0)
(0.160354 2.49236e-17 0)
(0.160354 -1.51658e-17 0)
(0.160354 1.88334e-17 0)
(0.160354 3.79124e-17 0)
(0.160354 3.33814e-19 0)
(0.160354 5.12834e-17 0)
(0.160354 4.41933e-17 0)
(0.160354 3.45015e-17 0)
(0.160354 -1.82426e-17 0)
(0.160354 -2.68395e-17 0)
(0.160354 2.05561e-17 0)
(0.160354 2.01397e-17 0)
(0.160354 9.97913e-18 0)
(0.160354 -1.33336e-17 0)
(0.160354 -2.3126e-17 0)
(0.160354 2.98584e-18 0)
(0.160354 8.32542e-17 0)
(0.160354 2.38215e-17 0)
(0.160354 -2.57115e-17 0)
(0.160354 -2.69882e-17 0)
(0.160354 2.37197e-17 0)
(0.160354 8.87002e-17 0)
(0.160354 3.29186e-17 0)
(0.160354 8.39654e-18 0)
(0.160354 1.8031e-17 0)
(0.160354 1.49636e-17 0)
(0.160354 4.99665e-17 0)
(0.160354 -3.95087e-18 0)
(0.160354 -4.21691e-18 0)
(0.160354 9.64117e-17 0)
(0.160354 4.28696e-18 0)
(0.160354 -5.72966e-18 0)
(0.160354 -1.00804e-17 0)
(0.160354 -5.21579e-17 0)
(0.160354 5.7795e-17 0)
(0.160354 8.97575e-18 0)
(0.160354 1.047e-17 0)
(0.160354 -2.37243e-18 0)
(0.160354 -1.6029e-18 0)
(0.160354 -2.5526e-17 0)
(0.160354 -7.61758e-17 0)
(0.160354 6.07577e-17 0)
(0.160354 1.77052e-17 0)
(0.160354 1.91746e-17 0)
(0.160354 7.7243e-17 0)
(0.160354 -7.62026e-17 0)
(0.160354 -1.95052e-17 0)
(0.160354 7.25315e-18 0)
(0.160354 1.36143e-17 0)
(0.160354 3.26455e-17 0)
(0.160354 -1.11085e-16 0)
(0.160354 1.25558e-17 0)
(0.160354 3.47078e-18 0)
(0.160354 1.13535e-17 0)
(0.160354 4.83709e-17 0)
(0.160354 -5.66063e-17 0)
(0.160354 -6.80103e-18 0)
(0.160354 1.69629e-17 0)
(0.160354 5.40799e-17 0)
(0.160354 8.00847e-17 0)
(0.160354 -3.05366e-17 0)
(0.160354 -2.60818e-17 0)
(0.160354 -3.31867e-17 0)
(0.160354 -3.43871e-17 0)
(0.160354 1.64265e-16 0)
(0.160354 -6.56831e-17 0)
(0.160354 -1.20419e-16 0)
(0.160354 1.05991e-16 0)
(0.160354 5.84093e-17 0)
(0.160354 1.09577e-16 0)
(0.160354 -2.52651e-17 0)
(0.160354 -1.71866e-16 0)
(0.160354 -2.14128e-17 0)
(0.160354 7.12846e-17 0)
(0.160354 7.82626e-17 0)
(0.160354 -4.10015e-17 0)
(0.160354 -1.74478e-16 0)
(0.160354 -1.06914e-16 0)
(0.160354 9.13448e-17 0)
(0.160354 1.53858e-16 0)
(0.160354 -7.52648e-17 0)
(0.160354 -2.04768e-16 0)
(0.160354 -4.624e-17 0)
(0.160354 1.24886e-16 0)
(0.160354 8.10452e-18 0)
(0.160354 -1.51356e-16 0)
(0.160354 -4.78166e-17 0)
(0.160354 -3.411e-18 0)
(0.160354 1.36816e-16 0)
(0.160354 6.75771e-17 0)
(0.160354 -1.87459e-16 0)
(0.160354 2.36745e-17 0)
(0.160354 -6.52329e-17 0)
(0.160354 5.55565e-17 0)
(0.160354 7.83632e-17 0)
(0.160354 -3.41825e-17 0)
(0.160354 -1.14895e-16 0)
(0.160354 9.72578e-18 0)
(0.160354 9.94947e-17 0)
(0.160354 -4.84123e-18 0)
(0.160354 1.6817e-17 0)
(0.160354 -2.98541e-16 0)
(0.160354 2.22991e-17 0)
(0.160354 2.78033e-16 0)
(0.160354 4.31369e-17 0)
(0.160354 -5.70209e-17 0)
(0.160354 -1.70935e-16 0)
(0.160354 1.0333e-17 0)
(0.160354 1.65782e-16 0)
(0.160354 4.34646e-17 0)
(0.160354 -4.3472e-17 0)
(0.160354 -1.82811e-16 0)
(0.160354 4.75343e-18 0)
(0.160354 2.6487e-16 0)
(0.160354 1.03464e-16 0)
(0.160354 -9.94307e-17 0)
(0.160354 -1.9816e-16 0)
(0.160354 -6.67877e-18 0)
(0.160354 2.79368e-16 0)
(0.160354 7.76348e-17 0)
(0.160354 -1.30457e-16 0)
(0.160354 -1.63615e-16 0)
(0.160354 4.98161e-17 0)
(0.160354 1.57939e-16 0)
(0.160354 2.68796e-18 0)
(0.160354 3.23949e-17 0)
(0.160354 -1.30074e-16 0)
(0.160354 -9.63012e-17 0)
(0.160354 1.39737e-16 0)
(0.160354 8.27763e-17 0)
(0.160354 1.08639e-17 0)
(0.160354 -1.64847e-16 0)
(0.160354 -7.65548e-17 0)
(0.160354 8.78593e-17 0)
(0.160354 6.3423e-17 0)
(0.160354 -4.457e-17 0)
(0.160354 -1.96106e-16 0)
(0.160354 -1.68545e-17 0)
(0.160354 2.91165e-17 0)
(0.160354 1.257e-16 0)
(0.160354 1.4322e-16 0)
(0.160354 -3.05752e-16 0)
(0.160354 -2.04425e-16 0)
(0.160354 1.43552e-16 0)
(0.160354 1.78036e-16 0)
(0.160354 1.62159e-16 0)
(0.160354 -5.86174e-17 0)
(0.160354 -1.09219e-16 0)
(0.160354 1.03119e-16 0)
(0.160354 1.17883e-16 0)
(0.160354 1.83369e-16 0)
(0.160354 -1.5689e-16 0)
(0.160354 -4.22708e-17 0)
(0.160354 1.71383e-16 0)
(0.160354 -2.21792e-16 0)
(0.160354 7.94799e-17 0)
(0.160354 -4.88046e-17 0)
(0.160354 -2.30139e-16 0)
(0.160354 2.42182e-16 0)
(0.160354 1.626e-16 0)
(0.160354 1.59633e-17 0)
(0.160354 -1.57793e-16 0)
(0.160354 -2.88449e-17 0)
(0.160354 2.36558e-17 0)
(0.160354 -8.1395e-17 0)
(0.160354 -6.11326e-17 0)
(0.160354 -3.19922e-17 0)
(0.160354 3.72148e-16 0)
(0.160354 -8.62792e-17 0)
(0.160354 -1.8748e-16 0)
(0.160354 2.27251e-16 0)
(0.160354 -2.17175e-16 0)
(0.160354 -5.4667e-17 0)
(0.160354 4.80275e-18 0)
(0.160354 -9.75367e-17 0)
(0.160354 2.49976e-16 0)
(0.160354 -1.56468e-16 0)
(0.160354 -1.84792e-17 0)
(0.160354 1.48703e-16 0)
(0.160354 -2.2469e-16 0)
(0.160354 9.26689e-17 0)
(0.160354 -1.83763e-17 0)
(0.160354 -1.28789e-16 0)
(0.160354 2.60637e-16 0)
(0.160354 -5.90962e-17 0)
(0.160354 -2.11585e-17 0)
(0.160354 -1.41451e-16 0)
(0.160354 2.51434e-17 0)
(0.160354 3.92163e-16 0)
(0.160354 -2.13206e-16 0)
(0.160354 -7.84899e-17 0)
(0.160354 -1.82032e-16 0)
(0.160354 4.78931e-17 0)
(0.160354 4.15509e-16 0)
(0.160354 -1.43684e-16 0)
(0.160354 -3.57896e-16 0)
(0.160354 -1.93112e-16 0)
(0.160354 2.74025e-16 0)
(0.160354 3.29182e-16 0)
(0.160354 -9.46269e-17 0)
(0.160354 -2.98797e-16 0)
(0.160354 -1.58201e-16 0)
(0.160354 5.05779e-16 0)
(0.160354 4.61658e-17 0)
(0.160354 -4.76142e-16 0)
(0.160354 3.77745e-16 0)
(0.160354 1.46401e-16 0)
(0.160354 -2.82432e-16 0)
(0.160354 -2.67025e-16 0)
(0.160354 -2.31687e-16 0)
(0.160354 5.20617e-16 0)
(0.160354 2.61088e-16 0)
(0.160354 -2.67014e-16 0)
(0.160354 -2.41799e-16 0)
(0.160354 -2.07298e-16 0)
(0.160354 5.32684e-16 0)
(0.160354 1.27647e-16 0)
(0.160354 -1.22851e-16 0)
(0.160354 1.15668e-16 0)
(0.160354 -1.12904e-16 0)
(0.160354 1.25201e-16 0)
(0.160354 -7.15736e-17 0)
(0.160354 6.67842e-17 0)
(0.160354 8.17083e-17 0)
(0.160354 -4.17797e-16 0)
(0.160354 3.87858e-17 0)
(0.160354 1.55366e-16 0)
(0.160354 2.39799e-17 0)
(0.160354 5.45052e-17 0)
(0.160354 -2.37009e-16 0)
(0.160354 1.44802e-16 0)
(0.160354 -2.12477e-17 0)
(0.160354 1.39067e-17 0)
(0.160354 1.391e-16 0)
(0.160354 -4.17488e-16 0)
(0.160354 -5.76337e-17 0)
(0.160354 1.82426e-16 0)
(0.160354 2.21261e-16 0)
(0.160354 2.52587e-17 0)
(0.160354 -3.36923e-16 0)
(0.160354 2.3533e-16 0)
(0.160354 8.50695e-17 0)
(0.160354 -3.11719e-17 0)
(0.160354 1.33981e-17 0)
(0.160354 -3.25968e-16 0)
(0.160354 2.92693e-16 0)
(0.160354 8.72427e-17 0)
(0.160354 2.42858e-17 0)
(0.160354 1.20871e-16 0)
(0.160354 -3.67495e-16 0)
(0.160354 1.06628e-16 0)
(0.160354 1.17976e-16 0)
(0.160354 -1.30566e-16 0)
(0.160354 -5.33335e-17 0)
(0.160354 -1.78383e-16 0)
(0.160354 2.43975e-16 0)
(0.160354 1.78659e-16 0)
(0.160354 1.37937e-17 0)
(0.160354 -1.32669e-16 0)
(0.160354 -2.38504e-16 0)
(0.160354 1.55389e-16 0)
(0.160354 1.08449e-16 0)
(0.160354 1.83963e-16 0)
(0.160354 -9.93481e-17 0)
(0.160354 -2.79665e-16 0)
(0.160354 1.22563e-16 0)
(0.160354 1.60726e-17 0)
(0.160354 -1.26086e-16 0)
(0.160354 1.07744e-16 0)
(0.160354 -1.18818e-16 0)
(0.160354 3.41079e-17 0)
(0.160354 1.74315e-16 0)
(0.160354 1.94892e-17 0)
(0.160354 -9.7109e-17 0)
(0.160354 -2.66996e-16 0)
(0.160354 3.82171e-17 0)
(0.160354 2.49884e-16 0)
(0.160354 1.76484e-16 0)
(0.160354 -3.44681e-16 0)
(0.160354 -2.08596e-16 0)
(0.160354 3.46064e-16 0)
(0.160354 4.0465e-17 0)
(0.160354 -7.63165e-17 0)
(0.160354 -1.84711e-16 0)
(0.160354 4.56326e-18 0)
(0.160354 4.37986e-16 0)
(0.160354 -9.46734e-17 0)
(0.160354 -7.93638e-17 0)
(0.160354 -2.15798e-16 0)
(0.160354 -2.77889e-17 0)
(0.160354 4.47549e-16 0)
(0.160354 -2.73057e-18 0)
(0.160354 1.56911e-16 0)
(0.160354 -1.44044e-16 0)
(0.160354 -4.92472e-16 0)
(0.160354 -1.54252e-17 0)
(0.160354 1.3989e-16 0)
(0.160354 2.71577e-16 0)
(0.160354 -1.59573e-16 0)
(0.160354 -2.1152e-17 0)
(0.160354 3.03257e-17 0)
(0.160354 -9.46475e-17 0)
(0.160354 3.28365e-16 0)
(0.160354 -5.1857e-17 0)
(0.160354 -1.37441e-16 0)
(0.160354 2.30781e-16 0)
(0.160354 -4.62171e-17 0)
(0.160354 2.00689e-16 0)
(0.160354 3.16397e-16 0)
(0.160354 6.8071e-16 0)
(0.26252 1.10529e-15 0)
(0.26252 7.23321e-16 0)
(0.26252 4.05617e-16 0)
(0.26252 2.80586e-16 0)
(0.26252 2.30506e-16 0)
(0.26252 1.81553e-16 0)
(0.26252 1.06383e-16 0)
(0.26252 8.06595e-17 0)
(0.26252 6.8905e-17 0)
(0.26252 5.49605e-17 0)
(0.26252 7.23533e-17 0)
(0.26252 3.6907e-17 0)
(0.26252 8.30086e-17 0)
(0.26252 7.21225e-17 0)
(0.26252 3.93825e-17 0)
(0.26252 6.7671e-17 0)
(0.26252 5.58853e-17 0)
(0.26252 5.427e-17 0)
(0.26252 7.78202e-18 0)
(0.26252 4.17601e-18 0)
(0.26252 3.45451e-17 0)
(0.26252 4.03609e-18 0)
(0.26252 6.33002e-18 0)
(0.26252 6.85547e-17 0)
(0.26252 2.74832e-17 0)
(0.26252 1.99144e-17 0)
(0.26252 9.53294e-17 0)
(0.26252 7.91049e-17 0)
(0.26252 1.40713e-17 0)
(0.26252 -3.03307e-17 0)
(0.26252 5.99705e-17 0)
(0.26252 1.5779e-16 0)
(0.26252 9.77409e-17 0)
(0.26252 2.58945e-17 0)
(0.26252 4.92268e-17 0)
(0.26252 4.41037e-17 0)
(0.26252 1.02576e-16 0)
(0.26252 5.21463e-17 0)
(0.26252 -1.38418e-17 0)
(0.26252 7.31349e-17 0)
(0.26252 4.95147e-17 0)
(0.26252 3.48722e-17 0)
(0.26252 2.09856e-17 0)
(0.26252 -5.02467e-17 0)
(0.26252 -6.37154e-18 0)
(0.26252 6.87379e-17 0)
(0.26252 1.96586e-17 0)
(0.26252 2.18842e-17 0)
(0.26252 2.66549e-17 0)
(0.26252 1.58609e-17 0)
(0.26252 -5.86502e-18 0)
(0.26252 1.59966e-17 0)
(0.26252 2.62137e-17 0)
(0.26252 3.99435e-17 0)
(0.26252 4.95522e-17 0)
(0.26252 -8.14133e-17 0)
(0.26252 -5.58063e-17 0)
(0.26252 1.02353e-17 0)
(0.26252 3.5875e-17 0)
(0.26252 2.71302e-17 0)
(0.26252 -1.58643e-16 0)
(0.26252 7.38916e-17 0)
(0.26252 -4.22174e-18 0)
(0.26252 -4.85706e-17 0)
(0.26252 1.11115e-16 0)
(0.26252 -8.86201e-17 0)
(0.26252 -1.73463e-18 0)
(0.26252 4.32242e-17 0)
(0.26252 7.95989e-17 0)
(0.26252 1.34806e-16 0)
(0.26252 -3.53664e-18 0)
(0.26252 -2.31683e-18 0)
(0.26252 -4.76824e-17 0)
(0.26252 5.12513e-17 0)
(0.26252 1.58664e-16 0)
(0.26252 -6.24375e-17 0)
(0.26252 -1.10536e-16 0)
(0.26252 8.63141e-17 0)
(0.26252 8.09353e-17 0)
(0.26252 1.0814e-16 0)
(0.26252 -4.46914e-17 0)
(0.26252 -1.46762e-16 0)
(0.26252 2.84211e-17 0)
(0.26252 3.52218e-17 0)
(0.26252 9.82413e-18 0)
(0.26252 -1.0225e-16 0)
(0.26252 -1.18046e-16 0)
(0.26252 -1.76275e-16 0)
(0.26252 -9.97505e-17 0)
(0.26252 1.19021e-16 0)
(0.26252 -1.08342e-16 0)
(0.26252 -2.03204e-16 0)
(0.26252 -3.3272e-17 0)
(0.26252 2.94279e-17 0)
(0.26252 7.69442e-18 0)
(0.26252 -9.82708e-17 0)
(0.26252 -6.99003e-17 0)
(0.26252 -3.25307e-17 0)
(0.26252 3.98527e-18 0)
(0.26252 1.01595e-17 0)
(0.26252 -5.63603e-17 0)
(0.26252 -1.81747e-17 0)
(0.26252 -3.22165e-17 0)
(0.26252 3.48046e-18 0)
(0.26252 4.67012e-17 0)
(0.26252 1.8529e-17 0)
(0.26252 -1.89585e-16 0)
(0.26252 -1.34301e-16 0)
(0.26252 1.316e-16 0)
(0.26252 1.65059e-16 0)
(0.26252 -2.47195e-17 0)
(0.26252 -4.1727e-16 0)
(0.26252 -1.76797e-17 0)
(0.26252 2.99215e-16 0)
(0.26252 1.5527e-16 0)
(0.26252 5.5917e-19 0)
(0.26252 -2.87661e-16 0)
(0.26252 -1.2747e-16 0)
(0.26252 3.72141e-16 0)
(0.26252 2.34414e-16 0)
(0.26252 -1.79604e-16 0)
(0.26252 -3.12216e-16 0)
(0.26252 2.38083e-17 0)
(0.26252 4.42429e-16 0)
(0.26252 3.41422e-16 0)
(0.26252 -1.18033e-16 0)
(0.26252 -5.29218e-16 0)
(0.26252 3.1941e-18 0)
(0.26252 4.29611e-16 0)
(0.26252 1.21332e-16 0)
(0.26252 -1.16208e-16 0)
(0.26252 -3.24792e-16 0)
(0.26252 4.04189e-17 0)
(0.26252 3.28082e-16 0)
(0.26252 7.56424e-17 0)
(0.26252 -6.29489e-17 0)
(0.26252 -1.85929e-16 0)
(0.26252 -5.88283e-17 0)
(0.26252 2.49471e-16 0)
(0.26252 8.84909e-17 0)
(0.26252 -1.46843e-16 0)
(0.26252 -2.75047e-16 0)
(0.26252 -1.46462e-17 0)
(0.26252 1.03031e-16 0)
(0.26252 -6.36178e-17 0)
(0.26252 -1.734e-16 0)
(0.26252 -1.79972e-16 0)
(0.26252 8.35292e-17 0)
(0.26252 4.43059e-17 0)
(0.26252 -8.1229e-17 0)
(0.26252 1.36968e-16 0)
(0.26252 -1.66708e-16 0)
(0.26252 -2.58715e-16 0)
(0.26252 4.29813e-17 0)
(0.26252 1.89619e-16 0)
(0.26252 2.93697e-16 0)
(0.26252 5.32132e-17 0)
(0.26252 -7.8293e-17 0)
(0.26252 1.25247e-16 0)
(0.26252 2.74198e-16 0)
(0.26252 2.83991e-16 0)
(0.26252 -1.70355e-16 0)
(0.26252 -1.56161e-16 0)
(0.26252 2.00096e-16 0)
(0.26252 -2.37294e-17 0)
(0.26252 -1.95624e-17 0)
(0.26252 -6.21547e-17 0)
(0.26252 -7.57809e-17 0)
(0.26252 3.46895e-17 0)
(0.26252 4.56009e-17 0)
(0.26252 5.03252e-18 0)
(0.26252 -9.2449e-17 0)
(0.26252 -2.36516e-17 0)
(0.26252 9.8683e-17 0)
(0.26252 1.31114e-16 0)
(0.26252 -1.68069e-16 0)
(0.26252 -2.14131e-16 0)
(0.26252 1.65548e-16 0)
(0.26252 3.47779e-17 0)
(0.26252 1.7276e-16 0)
(0.26252 6.09106e-17 0)
(0.26252 -4.78613e-16 0)
(0.26252 -1.6521e-16 0)
(0.26252 1.27227e-16 0)
(0.26252 1.58816e-17 0)
(0.26252 1.5623e-16 0)
(0.26252 -1.76851e-16 0)
(0.26252 -1.32902e-16 0)
(0.26252 1.67424e-16 0)
(0.26252 -4.26206e-17 0)
(0.26252 -3.48971e-17 0)
(0.26252 -4.15481e-17 0)
(0.26252 -5.75301e-17 0)
(0.26252 1.15327e-16 0)
(0.26252 8.21414e-17 0)
(0.26252 -6.40727e-18 0)
(0.26252 -6.15809e-17 0)
(0.26252 1.07793e-17 0)
(0.26252 1.14956e-16 0)
(0.26252 -4.04994e-17 0)
(0.26252 -5.34384e-17 0)
(0.26252 -9.76457e-17 0)
(0.26252 2.85316e-17 0)
(0.26252 1.58868e-16 0)
(0.26252 -5.64999e-17 0)
(0.26252 -1.81467e-16 0)
(0.26252 -1.58147e-16 0)
(0.26252 6.55352e-17 0)
(0.26252 1.16589e-16 0)
(0.26252 -4.35659e-19 0)
(0.26252 -1.34217e-16 0)
(0.26252 -1.99631e-16 0)
(0.26252 4.87934e-16 0)
(0.26252 1.0399e-16 0)
(0.26252 -3.99136e-16 0)
(0.26252 2.81025e-16 0)
(0.26252 -9.32108e-17 0)
(0.26252 -1.26607e-16 0)
(0.26252 -2.22084e-16 0)
(0.26252 -3.88826e-16 0)
(0.26252 5.85725e-16 0)
(0.26252 2.49589e-16 0)
(0.26252 -1.18912e-16 0)
(0.26252 -1.78267e-16 0)
(0.26252 -3.65067e-16 0)
(0.26252 6.13004e-16 0)
(0.26252 2.34999e-16 0)
(0.26252 -1.4447e-16 0)
(0.26252 8.98176e-18 0)
(0.26252 -1.84272e-16 0)
(0.26252 5.27678e-16 0)
(0.26252 8.61877e-17 0)
(0.26252 -1.42179e-16 0)
(0.26252 -4.04046e-18 0)
(0.26252 -5.09681e-16 0)
(0.26252 -2.80591e-18 0)
(0.26252 -3.93709e-17 0)
(0.26252 2.89515e-16 0)
(0.26252 3.42097e-16 0)
(0.26252 -4.8482e-16 0)
(0.26252 5.28521e-17 0)
(0.26252 -1.50249e-16 0)
(0.26252 1.19814e-16 0)
(0.26252 2.4568e-16 0)
(0.26252 -7.37759e-16 0)
(0.26252 -3.27306e-17 0)
(0.26252 2.10134e-16 0)
(0.26252 2.91652e-16 0)
(0.26252 7.97477e-17 0)
(0.26252 -4.30624e-16 0)
(0.26252 6.22538e-16 0)
(0.26252 1.99931e-16 0)
(0.26252 -2.92073e-16 0)
(0.26252 -3.17529e-16 0)
(0.26252 -3.91702e-16 0)
(0.26252 8.03292e-16 0)
(0.26252 1.22315e-16 0)
(0.26252 -1.88142e-16 0)
(0.26252 9.00849e-17 0)
(0.26252 -4.4225e-16 0)
(0.26252 2.61327e-16 0)
(0.26252 -9.9006e-18 0)
(0.26252 -1.72536e-16 0)
(0.26252 -1.0005e-16 0)
(0.26252 -3.04207e-16 0)
(0.26252 5.07508e-16 0)
(0.26252 1.35612e-16 0)
(0.26252 -5.71338e-17 0)
(0.26252 3.26104e-17 0)
(0.26252 -3.87353e-16 0)
(0.26252 2.07878e-16 0)
(0.26252 1.63277e-16 0)
(0.26252 1.58345e-16 0)
(0.26252 8.17682e-17 0)
(0.26252 -4.63904e-16 0)
(0.26252 1.02893e-16 0)
(0.26252 7.553e-18 0)
(0.26252 -2.78598e-17 0)
(0.26252 8.80282e-17 0)
(0.26252 -4.21529e-16 0)
(0.26252 1.17167e-16 0)
(0.26252 7.87734e-17 0)
(0.26252 3.35952e-17 0)
(0.26252 8.5795e-17 0)
(0.26252 -4.29962e-16 0)
(0.26252 1.60145e-16 0)
(0.26252 2.93445e-16 0)
(0.26252 -1.32956e-16 0)
(0.26252 -2.28811e-16 0)
(0.26252 -2.41672e-16 0)
(0.26252 3.74565e-16 0)
(0.26252 2.78492e-16 0)
(0.26252 -2.42928e-16 0)
(0.26252 -7.90041e-18 0)
(0.26252 -4.40778e-17 0)
(0.26252 1.25118e-16 0)
(0.26252 3.16293e-16 0)
(0.26252 -1.54157e-16 0)
(0.26252 -1.64675e-16 0)
(0.26252 -1.81325e-16 0)
(0.26252 2.70066e-16 0)
(0.26252 5.86592e-16 0)
(0.26252 1.18203e-16 0)
(0.26252 -5.23798e-16 0)
(0.26252 -3.50478e-16 0)
(0.26252 1.48471e-16 0)
(0.26252 7.63685e-17 0)
(0.26252 1.4028e-16 0)
(0.26252 -3.03277e-16 0)
(0.26252 3.40181e-17 0)
(0.26252 9.69518e-17 0)
(0.26252 -9.85572e-17 0)
(0.26252 3.40184e-16 0)
(0.26252 2.31015e-17 0)
(0.26252 -5.87335e-17 0)
(0.26252 4.44093e-17 0)
(0.26252 -5.2303e-17 0)
(0.26252 4.39099e-16 0)
(0.26252 2.13281e-16 0)
(0.26252 3.65267e-16 0)
(0.360376 6.52396e-16 0)
(0.360376 4.90333e-16 0)
(0.360376 3.60668e-16 0)
(0.360376 2.54561e-16 0)
(0.360376 1.97452e-16 0)
(0.360376 1.66368e-16 0)
(0.360376 1.34318e-16 0)
(0.360376 1.5453e-16 0)
(0.360376 1.29663e-16 0)
(0.360376 1.29788e-16 0)
(0.360376 1.73885e-16 0)
(0.360376 1.36891e-16 0)
(0.360376 1.74357e-16 0)
(0.360376 1.45389e-16 0)
(0.360376 7.6924e-17 0)
(0.360376 8.65569e-17 0)
(0.360376 6.24454e-17 0)
(0.360376 2.30009e-17 0)
(0.360376 2.93114e-17 0)
(0.360376 2.11982e-17 0)
(0.360376 4.76216e-17 0)
(0.360376 3.77745e-17 0)
(0.360376 4.84231e-17 0)
(0.360376 7.41155e-17 0)
(0.360376 2.8569e-17 0)
(0.360376 1.19527e-16 0)
(0.360376 2.16724e-16 0)
(0.360376 1.33337e-16 0)
(0.360376 -2.00755e-17 0)
(0.360376 3.00739e-18 0)
(0.360376 1.03482e-16 0)
(0.360376 2.17842e-16 0)
(0.360376 1.89546e-16 0)
(0.360376 1.17197e-16 0)
(0.360376 1.28142e-16 0)
(0.360376 9.42396e-17 0)
(0.360376 1.25492e-16 0)
(0.360376 9.81462e-17 0)
(0.360376 -4.16706e-17 0)
(0.360376 2.42294e-17 0)
(0.360376 6.07944e-17 0)
(0.360376 7.06215e-17 0)
(0.360376 5.13679e-17 0)
(0.360376 1.53021e-17 0)
(0.360376 8.83822e-18 0)
(0.360376 3.89678e-17 0)
(0.360376 4.70683e-17 0)
(0.360376 6.54577e-17 0)
(0.360376 8.06003e-17 0)
(0.360376 7.54095e-17 0)
(0.360376 -1.45203e-17 0)
(0.360376 3.99509e-17 0)
(0.360376 4.49536e-17 0)
(0.360376 -6.46435e-18 0)
(0.360376 3.40651e-17 0)
(0.360376 -6.42022e-17 0)
(0.360376 -6.05425e-17 0)
(0.360376 1.49627e-17 0)
(0.360376 -2.24508e-18 0)
(0.360376 5.23241e-17 0)
(0.360376 -9.64639e-17 0)
(0.360376 8.28195e-17 0)
(0.360376 6.93575e-17 0)
(0.360376 2.16225e-17 0)
(0.360376 4.77595e-17 0)
(0.360376 -1.02087e-16 0)
(0.360376 7.08133e-17 0)
(0.360376 4.07765e-17 0)
(0.360376 1.14097e-16 0)
(0.360376 2.16934e-16 0)
(0.360376 -1.33009e-17 0)
(0.360376 2.13247e-17 0)
(0.360376 -7.24611e-17 0)
(0.360376 8.32123e-18 0)
(0.360376 2.28509e-16 0)
(0.360376 -1.29036e-18 0)
(0.360376 -1.48296e-17 0)
(0.360376 4.75686e-17 0)
(0.360376 4.55383e-17 0)
(0.360376 1.35076e-16 0)
(0.360376 -8.76748e-17 0)
(0.360376 -1.74394e-16 0)
(0.360376 2.86255e-17 0)
(0.360376 5.69546e-17 0)
(0.360376 -5.78016e-18 0)
(0.360376 -2.19819e-16 0)
(0.360376 -1.83997e-16 0)
(0.360376 -1.68563e-16 0)
(0.360376 -1.97359e-16 0)
(0.360376 -5.49226e-17 0)
(0.360376 -1.3095e-16 0)
(0.360376 -1.55905e-16 0)
(0.360376 -7.41644e-17 0)
(0.360376 2.44924e-17 0)
(0.360376 -1.35894e-17 0)
(0.360376 -1.78637e-16 0)
(0.360376 -6.46328e-17 0)
(0.360376 -4.53172e-17 0)
(0.360376 -8.39862e-17 0)
(0.360376 -2.59421e-17 0)
(0.360376 -2.626e-17 0)
(0.360376 -2.36664e-17 0)
(0.360376 -1.11662e-16 0)
(0.360376 9.72848e-19 0)
(0.360376 1.28983e-16 0)
(0.360376 3.20838e-17 0)
(0.360376 -2.8822e-16 0)
(0.360376 -2.8347e-16 0)
(0.360376 1.65768e-16 0)
(0.360376 2.72389e-16 0)
(0.360376 -6.67758e-17 0)
(0.360376 -4.78515e-16 0)
(0.360376 -5.47003e-17 0)
(0.360376 2.46105e-16 0)
(0.360376 2.53066e-16 0)
(0.360376 1.01327e-16 0)
(0.360376 -4.08153e-16 0)
(0.360376 -1.98249e-16 0)
(0.360376 4.17805e-16 0)
(0.360376 3.74167e-16 0)
(0.360376 -2.1026e-16 0)
(0.360376 -4.4297e-16 0)
(0.360376 9.08888e-17 0)
(0.360376 5.33494e-16 0)
(0.360376 3.29803e-16 0)
(0.360376 -5.28926e-17 0)
(0.360376 -4.65025e-16 0)
(0.360376 -1.1422e-16 0)
(0.360376 4.25529e-16 0)
(0.360376 1.32371e-16 0)
(0.360376 -1.67881e-16 0)
(0.360376 -1.57163e-16 0)
(0.360376 4.7616e-17 0)
(0.360376 3.66418e-16 0)
(0.360376 2.19344e-16 0)
(0.360376 -5.20708e-17 0)
(0.360376 -3.35436e-16 0)
(0.360376 -1.51683e-16 0)
(0.360376 4.00845e-16 0)
(0.360376 1.40576e-16 0)
(0.360376 -2.84858e-16 0)
(0.360376 -4.98869e-16 0)
(0.360376 -1.33067e-17 0)
(0.360376 1.43309e-16 0)
(0.360376 -4.21575e-17 0)
(0.360376 -1.621e-16 0)
(0.360376 -5.1447e-16 0)
(0.360376 -6.29932e-18 0)
(0.360376 1.49497e-16 0)
(0.360376 1.8953e-17 0)
(0.360376 7.63676e-18 0)
(0.360376 -3.45442e-16 0)
(0.360376 -1.35655e-16 0)
(0.360376 1.52847e-16 0)
(0.360376 2.7013e-16 0)
(0.360376 2.62476e-16 0)
(0.360376 6.29463e-18 0)
(0.360376 2.9996e-17 0)
(0.360376 3.43025e-16 0)
(0.360376 4.07518e-16 0)
(0.360376 3.25444e-16 0)
(0.360376 -1.92802e-16 0)
(0.360376 -1.6822e-17 0)
(0.360376 3.06593e-16 0)
(0.360376 -1.2056e-16 0)
(0.360376 -5.40407e-17 0)
(0.360376 -5.87867e-17 0)
(0.360376 -4.66184e-17 0)
(0.360376 5.9717e-17 0)
(0.360376 4.35528e-17 0)
(0.360376 -1.80134e-17 0)
(0.360376 -1.92516e-16 0)
(0.360376 -1.25666e-16 0)
(0.360376 2.68088e-16 0)
(0.360376 1.62843e-16 0)
(0.360376 -1.70809e-16 0)
(0.360376 -1.29804e-16 0)
(0.360376 4.13025e-17 0)
(0.360376 2.26339e-17 0)
(0.360376 1.08198e-16 0)
(0.360376 1.73589e-18 0)
(0.360376 -4.52204e-16 0)
(0.360376 -1.55592e-16 0)
(0.360376 1.01228e-16 0)
(0.360376 -8.84545e-17 0)
(0.360376 3.31468e-18 0)
(0.360376 -1.25708e-16 0)
(0.360376 -6.43552e-17 0)
(0.360376 7.2753e-17 0)