/*--------------------------------*- C++ -*----------------------------------*\
| =========                 |                                                 |
| \\      /  F ield         | OpenFOAM: The Open Source CFD Toolbox           |
|  \\    /   O peration     | Version:  2112                                  |
|   \\  /    A nd           | Website:  www.openfoam.com                      |
|    \\/     M anipulation  |                                                 |
\*---------------------------------------------------------------------------*/
FoamFile
{
    version     2.0;
    format      ascii;
    arch        "LSB;label=32;scalar=64";
    class       volScalarField;
    location    "9";
    object      p;
}
// * * * * * * * * * * * * * * * * * * * * * * * * * * * * * * * * * * * * * //

dimensions      [0 2 -2 0 0 0 0];

internalField   nonuniform List<scalar> 
25600
(
8.22858e-15
1.69572e-14
2.17003e-14
2.49261e-14
2.69892e-14
2.86343e-14
2.99658e-14
3.1088e-14
3.19711e-14
3.28209e-14
3.36282e-14
3.42837e-14
3.45439e-14
3.48802e-14
3.53188e-14
3.55003e-14
3.58997e-14
3.62966e-14
3.67052e-14
3.69215e-14
3.68513e-14
3.68156e-14
3.69182e-14
3.71383e-14
3.74131e-14
3.72808e-14
3.71796e-14
3.72934e-14
3.73089e-14
3.69928e-14
3.66338e-14
3.65717e-14
3.68574e-14
3.71074e-14
3.71455e-14
3.71682e-14
3.71118e-14
3.73098e-14
3.75079e-14
3.72027e-14
3.71871e-14
3.70468e-14
3.69166e-14
3.68259e-14
3.63468e-14
3.62908e-14
3.62026e-14
3.6011e-14
3.59408e-14
3.59669e-14
3.61095e-14
3.57449e-14
3.55408e-14
3.53268e-14
3.50052e-14
3.51704e-14
3.47971e-14
3.43769e-14
3.39864e-14
3.34861e-14
3.3616e-14
3.28433e-14
3.26468e-14
3.24504e-14
3.1971e-14
3.23375e-14
3.19605e-14
3.16642e-14
3.13599e-14
3.11009e-14
3.13541e-14
3.13666e-14
3.12872e-14
3.11122e-14
3.0774e-14
3.12604e-14
3.11227e-14
3.04578e-14
3.03758e-14
3.00962e-14
3.04157e-14
3.07307e-14
3.01846e-14
2.99681e-14
2.97885e-14
2.97564e-14
2.97233e-14
2.94895e-14
2.91486e-14
2.88021e-14
2.95581e-14
2.99404e-14
2.96214e-14
2.92545e-14
2.94958e-14
2.98264e-14
2.92923e-14
2.90026e-14
2.8432e-14
2.84398e-14
2.90024e-14
2.86042e-14
2.86791e-14
2.82347e-14
2.79346e-14
2.80201e-14
2.80982e-14
2.74663e-14
2.6777e-14
2.6742e-14
2.68214e-14
2.77953e-14
2.68546e-14
2.63043e-14
2.70757e-14
2.78345e-14
2.86127e-14
2.8265e-14
2.75779e-14
2.79998e-14
2.88552e-14
2.94645e-14
2.90226e-14
2.82177e-14
2.87212e-14
2.97714e-14
3.05329e-14
2.98824e-14
2.9329e-14
3.04067e-14
3.14553e-14
3.2149e-14
3.19226e-14
3.1854e-14
3.28516e-14
3.34761e-14
3.42495e-14
3.42306e-14
3.39915e-14
3.50345e-14
3.60616e-14
3.69998e-14
3.70448e-14
3.74123e-14
3.87068e-14
3.97507e-14
4.11091e-14
4.16469e-14
4.24095e-14
4.3184e-14
4.36453e-14
4.52374e-14
4.58168e-14
4.55462e-14
4.58857e-14
4.64826e-14
4.76997e-14
4.81879e-14
4.77911e-14
4.77736e-14
4.78646e-14
4.9355e-14
4.94613e-14
4.90534e-14
5.02669e-14
5.00378e-14
5.06083e-14
5.09859e-14
5.03867e-14
5.07829e-14
5.10693e-14
5.1926e-14
5.16573e-14
5.15392e-14
5.21473e-14
5.236e-14
5.28137e-14
5.21224e-14
5.31214e-14
5.33229e-14
5.27644e-14
5.42674e-14
5.38046e-14
5.33171e-14
5.37187e-14
5.31409e-14
5.44643e-14
5.43601e-14
5.39216e-14
5.53817e-14
5.52064e-14
5.58967e-14
5.6597e-14
5.6272e-14
5.74814e-14
5.81047e-14
5.91853e-14
5.94736e-14
5.90958e-14
6.07981e-14
6.09393e-14
6.13769e-14
6.1119e-14
6.07978e-14
6.28629e-14
6.38777e-14
6.43009e-14
6.39712e-14
6.44602e-14
6.60736e-14
6.70138e-14
6.74886e-14
6.6543e-14
6.87293e-14
7.08382e-14
6.91791e-14
7.07689e-14
7.19996e-14
7.25156e-14
7.307e-14
7.12232e-14
7.26844e-14
7.44929e-14
7.49618e-14
7.53027e-14
7.30195e-14
7.43514e-14
7.54478e-14
7.51401e-14
7.6119e-14
7.50156e-14
7.62115e-14
7.66608e-14
7.62818e-14
7.75656e-14
7.62747e-14
7.64352e-14
7.64782e-14
7.65433e-14
7.79604e-14
7.63713e-14
7.69656e-14
7.67283e-14
7.61338e-14
7.76717e-14
7.57393e-14
7.46558e-14
7.41782e-14
7.4273e-14
7.49344e-14
7.22878e-14
7.23715e-14
7.25394e-14
7.17396e-14
7.15839e-14
6.87285e-14
6.9412e-14
6.92693e-14
6.81113e-14
6.88235e-14
6.6506e-14
6.59809e-14
6.55588e-14
6.47347e-14
6.47866e-14
6.25938e-14
6.2537e-14
6.24709e-14
6.19475e-14
6.19936e-14
5.97211e-14
5.91786e-14
5.84738e-14
5.79196e-14
5.78981e-14
5.56648e-14
5.53739e-14
5.53187e-14
5.41014e-14
5.4672e-14
5.32969e-14
5.27654e-14
5.2648e-14
5.21072e-14
5.25576e-14
5.09303e-14
4.98268e-14
5.00555e-14
5.02286e-14
4.96051e-14
4.73989e-14
4.71593e-14
4.73373e-14
4.68663e-14
4.59108e-14
4.40482e-14
4.40196e-14
4.39763e-14
4.38356e-14
4.27535e-14
4.09172e-14
4.08439e-14
4.07125e-14
4.15165e-14
4.09708e-14
3.90515e-14
3.85073e-14
3.73769e-14
3.78679e-14
3.68616e-14
3.58657e-14
3.55707e-14
3.32488e-14
3.26699e-14
3.15899e-14
2.92373e-14
2.79811e-14
2.49035e-14
2.22339e-14
1.78746e-14
1.41755e-14
1.82827e-14
2.21744e-14
2.51721e-14
2.71151e-14
2.8686e-14
2.99903e-14
3.11295e-14
3.20075e-14
3.2836e-14
3.36608e-14
3.42594e-14
3.45746e-14
3.49309e-14
3.53427e-14
3.55611e-14
3.59461e-14
3.62822e-14
3.6698e-14
3.69552e-14
3.6904e-14
3.68601e-14
3.68731e-14
3.71115e-14
3.73391e-14
3.7289e-14
3.73332e-14
3.73451e-14
3.73036e-14
3.69538e-14
3.66767e-14
3.66147e-14
3.68582e-14
3.7084e-14
3.71055e-14
3.71745e-14
3.71235e-14
3.71943e-14
3.74366e-14
3.73124e-14
3.71861e-14
3.7054e-14
3.68957e-14
3.67709e-14
3.64404e-14
3.62314e-14
3.62315e-14
3.60097e-14
3.59429e-14
3.59701e-14
3.59741e-14
3.58741e-14
3.56069e-14
3.53661e-14
3.51314e-14
3.50576e-14
3.47974e-14
3.43767e-14
3.39757e-14
3.35557e-14
3.34711e-14
3.28308e-14
3.26513e-14
3.24467e-14
3.20328e-14
3.22792e-14
3.19473e-14
3.16249e-14
3.13651e-14
3.11595e-14
3.13345e-14
3.13046e-14
3.12792e-14
3.10238e-14
3.08893e-14
3.12233e-14
3.09711e-14
3.05724e-14
3.03833e-14
3.01942e-14
3.03503e-14
3.04901e-14
3.0217e-14
3.00776e-14
2.99548e-14
2.97413e-14
2.94068e-14
2.93509e-14
2.94107e-14
2.9044e-14
2.95109e-14
2.96362e-14
2.95868e-14
2.95279e-14
2.95282e-14
2.95108e-14
2.92191e-14
2.90329e-14
2.87481e-14
2.8555e-14
2.85963e-14
2.86236e-14
2.86473e-14
2.84362e-14
2.80211e-14
2.79106e-14
2.79567e-14
2.75931e-14
2.68917e-14
2.66541e-14
2.68759e-14
2.74101e-14
2.70166e-14
2.6679e-14
2.7026e-14
2.76317e-14
2.8447e-14
2.84576e-14
2.77461e-14
2.79145e-14
2.87855e-14
2.92412e-14
2.90499e-14
2.85215e-14
2.87994e-14
2.96089e-14
3.03622e-14
2.98832e-14
2.96091e-14
3.04355e-14
3.12994e-14
3.20094e-14
3.20764e-14
3.20054e-14
3.27475e-14
3.34687e-14
3.42029e-14
3.42427e-14
3.4049e-14
3.49737e-14
3.60478e-14
3.69837e-14
3.70493e-14
3.74361e-14
3.86793e-14
3.98352e-14
4.09713e-14
4.1471e-14
4.24492e-14
4.34157e-14
4.39322e-14
4.49028e-14
4.54828e-14
4.56674e-14
4.61174e-14
4.66528e-14
4.75712e-14
4.80216e-14
4.78808e-14
4.78584e-14
4.81004e-14
4.90993e-14
4.93672e-14
4.92542e-14
5.00343e-14
5.02422e-14
5.04615e-14
5.07122e-14
5.06427e-14
5.08922e-14
5.12256e-14
5.16521e-14
5.16178e-14
5.14882e-14
5.18905e-14
5.25608e-14
5.2801e-14
5.25212e-14
5.30162e-14
5.29606e-14
5.32202e-14
5.40637e-14
5.37764e-14
5.33089e-14
5.35377e-14
5.36429e-14
5.42628e-14
5.44039e-14
5.41317e-14
5.48745e-14
5.53881e-14
5.59132e-14
5.63775e-14
5.67418e-14
5.72984e-14
5.80405e-14
5.89113e-14
5.95881e-14
5.98639e-14
6.03379e-14
6.08414e-14
6.1121e-14
6.12355e-14
6.15379e-14
6.25025e-14
6.33816e-14
6.41158e-14
6.44243e-14
6.50339e-14
6.57966e-14
6.63623e-14
6.72614e-14
6.73253e-14
6.87901e-14
7.01736e-14
6.99281e-14
7.10964e-14
7.13585e-14
7.20831e-14
7.28719e-14
7.20648e-14
7.30399e-14
7.39794e-14
7.45629e-14
7.51188e-14
7.379e-14
7.44604e-14
7.52318e-14
7.51438e-14
7.57736e-14
7.52749e-14
7.60995e-14
7.65723e-14
7.64261e-14
7.72438e-14
7.65968e-14
7.65972e-14
7.62099e-14
7.64425e-14
7.76047e-14
7.68224e-14
7.69942e-14
7.67104e-14
7.62729e-14
7.71204e-14
7.5654e-14
7.49842e-14
7.45715e-14
7.42249e-14
7.44687e-14
7.2534e-14
7.24285e-14
7.25053e-14
7.18895e-14
7.11089e-14
6.8954e-14
6.95367e-14
6.93598e-14
6.83128e-14
6.8342e-14
6.67351e-14
6.62079e-14
6.54486e-14
6.47407e-14
6.44357e-14
6.28581e-14
6.29169e-14
6.2348e-14
6.17036e-14
6.17326e-14
5.99383e-14
5.93463e-14
5.83663e-14
5.78684e-14
5.78245e-14
5.5751e-14
5.54924e-14
5.50219e-14
5.42703e-14
5.47204e-14
5.33053e-14
5.30433e-14
5.24198e-14
5.19763e-14
5.23632e-14
5.07756e-14
5.02535e-14
5.02268e-14
4.99032e-14
4.93382e-14
4.76549e-14
4.74576e-14
4.73028e-14
4.63549e-14
4.59562e-14
4.45207e-14
4.38495e-14
4.41258e-14
4.33199e-14
4.27264e-14
4.14605e-14
4.07376e-14
4.0902e-14
4.11549e-14
4.059e-14
3.90037e-14
3.86838e-14
3.78842e-14
3.76516e-14
3.68333e-14
3.58276e-14
3.54505e-14
3.37741e-14
3.24522e-14
3.13731e-14
2.97124e-14
2.80491e-14
2.51973e-14
2.26098e-14
1.89733e-14
1.79416e-14
1.99998e-14
2.28395e-14
2.54604e-14
2.72321e-14
2.87426e-14
3.0025e-14
3.11475e-14
3.21352e-14
3.2873e-14
3.36935e-14
3.42997e-14
3.46074e-14
3.49469e-14
3.53733e-14
3.5611e-14
3.60216e-14
3.63136e-14
3.66714e-14
3.69963e-14
3.7002e-14
3.68962e-14
3.68334e-14
3.71113e-14
3.72786e-14
3.72839e-14
3.74726e-14
3.74549e-14
3.73129e-14
3.68914e-14
3.66665e-14
3.67033e-14
3.68832e-14
3.70511e-14
3.69913e-14
3.7092e-14
3.71396e-14
3.7157e-14
3.74312e-14
3.74387e-14
3.71775e-14
3.70587e-14
3.69452e-14
3.67244e-14
3.63846e-14
3.62238e-14
3.6281e-14
3.60129e-14
3.59807e-14
3.59415e-14
3.5996e-14
3.59362e-14
3.56307e-14
3.54283e-14
3.51625e-14
3.5098e-14
3.48112e-14
3.44255e-14
3.38959e-14
3.35681e-14
3.33686e-14
3.28616e-14
3.2618e-14
3.24008e-14
3.21629e-14
3.2251e-14
3.1916e-14
3.16289e-14
3.13265e-14
3.11591e-14
3.13431e-14
3.12896e-14
3.12289e-14
3.09931e-14
3.09253e-14
3.11015e-14
3.0841e-14
3.07457e-14
3.04183e-14
3.01542e-14
3.02914e-14
3.0364e-14
3.02706e-14
3.01644e-14
2.99976e-14
2.98125e-14
2.9283e-14
2.91904e-14
2.94668e-14
2.91761e-14
2.943e-14
2.9534e-14
2.96804e-14
2.95951e-14
2.95179e-14
2.94255e-14
2.92065e-14
2.91007e-14
2.88776e-14
2.85575e-14
2.8408e-14
2.86205e-14
2.86433e-14
2.84813e-14
2.81075e-14
2.78453e-14
2.78303e-14
2.7624e-14
2.70159e-14
2.66738e-14
2.68305e-14
2.71113e-14
2.71477e-14
2.68892e-14
2.70343e-14
2.75479e-14
2.82739e-14
2.85679e-14
2.79516e-14
2.78744e-14
2.86362e-14
2.90091e-14
2.91587e-14
2.88199e-14
2.88657e-14
2.94331e-14
3.00823e-14
2.98908e-14
2.98586e-14
3.04958e-14
3.12375e-14
3.17065e-14
3.22247e-14
3.22436e-14
3.2719e-14
3.34048e-14
3.41155e-14
3.41458e-14
3.4133e-14
3.50012e-14
3.60789e-14
3.69096e-14
3.70427e-14
3.74428e-14
3.86888e-14
3.97459e-14
4.08526e-14
4.15504e-14
4.24935e-14
4.34417e-14
4.41131e-14
4.47325e-14
4.53147e-14
4.57708e-14
4.62329e-14
4.68302e-14
4.75607e-14
4.78598e-14
4.79278e-14
4.7909e-14
4.82461e-14
4.8932e-14
4.92391e-14
4.93723e-14
4.99698e-14
5.02836e-14
5.04072e-14
5.05066e-14
5.08293e-14
5.10298e-14
5.12099e-14
5.15377e-14
5.15456e-14
5.14264e-14
5.18756e-14
5.24026e-14
5.28134e-14
5.29188e-14
5.3028e-14
5.28214e-14
5.32927e-14
5.38473e-14
5.37924e-14
5.33789e-14
5.35031e-14
5.39332e-14
5.41559e-14
5.42859e-14
5.41944e-14
5.46743e-14
5.55165e-14
5.59416e-14
5.62855e-14
5.69112e-14
5.71706e-14
5.79927e-14
5.8761e-14
5.97185e-14
6.02561e-14
6.01832e-14
6.08061e-14
6.10476e-14
6.12754e-14
6.18309e-14
6.24082e-14
6.30187e-14
6.40575e-14
6.46673e-14
6.53197e-14
6.56724e-14
6.59217e-14
6.7188e-14
6.7831e-14
6.88138e-14
6.98077e-14
7.03717e-14
7.12084e-14
7.09955e-14
7.18592e-14
7.27585e-14
7.26386e-14
7.32685e-14
7.364e-14
7.43197e-14
7.50188e-14
7.43486e-14
7.45851e-14
7.50203e-14
7.50529e-14
7.55926e-14
7.55053e-14
7.60782e-14
7.65832e-14
7.65023e-14
7.6902e-14
7.66439e-14
7.66457e-14
7.62551e-14
7.64716e-14
7.7384e-14
7.68781e-14
7.69694e-14
7.68048e-14
7.63985e-14
7.66721e-14
7.55984e-14
7.52831e-14
7.4864e-14
7.41066e-14
7.40734e-14
7.29387e-14
7.25831e-14
7.23035e-14
7.17806e-14
7.07412e-14
6.93724e-14
6.96122e-14
6.92833e-14
6.84618e-14
6.81439e-14
6.70696e-14
6.63594e-14
6.52191e-14
6.45596e-14
6.42827e-14
6.31439e-14
6.31957e-14
6.23094e-14
6.15666e-14
6.15547e-14
6.00428e-14
5.94173e-14
5.84711e-14
5.78211e-14
5.7684e-14
5.58238e-14
5.55509e-14
5.49147e-14
5.43531e-14
5.47259e-14
5.33407e-14
5.32078e-14
5.2357e-14
5.17714e-14
5.22231e-14
5.0805e-14
5.04032e-14
5.02851e-14
4.96062e-14
4.92115e-14
4.78871e-14
4.74901e-14
4.71378e-14
4.62441e-14
4.61374e-14
4.46884e-14
4.37957e-14
4.40681e-14
4.3104e-14
4.27048e-14
4.1879e-14
4.08584e-14
4.08576e-14
4.08587e-14
4.02574e-14
3.8998e-14
3.8902e-14
3.82038e-14
3.74522e-14
3.69157e-14
3.5722e-14
3.54792e-14
3.4238e-14
3.22814e-14
3.1343e-14
2.9965e-14
2.81466e-14
2.56203e-14
2.31092e-14
2.04047e-14
2.05775e-14
2.16217e-14
2.3695e-14
2.58744e-14
2.73889e-14
2.88471e-14
3.00214e-14
3.11889e-14
3.22861e-14
3.28933e-14
3.3748e-14
3.44085e-14
3.46256e-14
3.4967e-14
3.54643e-14
3.55983e-14
3.6082e-14
3.63502e-14
3.6783e-14
3.69821e-14
3.70796e-14
3.69519e-14
3.68266e-14
3.71534e-14
3.72503e-14
3.73733e-14
3.75024e-14
3.74295e-14
3.73404e-14
3.69498e-14
3.66511e-14
3.66891e-14
3.68929e-14
3.71236e-14
3.69525e-14
3.69349e-14
3.70207e-14
3.72087e-14
3.75346e-14
3.74384e-14
3.717e-14
3.70697e-14
3.69789e-14
3.67731e-14
3.6275e-14
3.62713e-14
3.63284e-14
3.59854e-14
3.59958e-14
3.59703e-14
3.60906e-14
3.60086e-14
3.5587e-14
3.548e-14
3.51854e-14
3.50885e-14
3.48109e-14
3.44569e-14
3.3828e-14
3.35363e-14
3.33109e-14
3.28118e-14
3.25697e-14
3.23536e-14
3.22464e-14
3.23385e-14
3.19914e-14
3.16121e-14
3.12866e-14
3.11365e-14
3.12306e-14
3.12152e-14
3.1249e-14
3.10321e-14
3.09279e-14
3.10336e-14
3.0905e-14
3.08105e-14
3.03938e-14
3.02069e-14
3.01575e-14
3.0231e-14
3.03701e-14
3.02078e-14
2.9952e-14
2.97952e-14
2.94285e-14
2.91469e-14
2.93534e-14
2.91869e-14
2.93295e-14
2.95357e-14
2.97452e-14
2.96512e-14
2.95235e-14
2.94214e-14
2.92838e-14
2.92325e-14
2.87552e-14
2.85019e-14
2.84505e-14
2.85426e-14
2.86288e-14
2.84292e-14
2.82133e-14
2.79198e-14
2.77764e-14
2.7427e-14
2.7151e-14
2.6897e-14
2.6755e-14
2.68161e-14
2.71144e-14
2.69786e-14
2.70881e-14
2.75463e-14
2.80335e-14
2.84582e-14
2.82501e-14
2.79702e-14
2.84473e-14
2.87573e-14
2.93927e-14
2.89867e-14
2.87279e-14
2.94668e-14
2.99275e-14
2.97846e-14
2.99542e-14
3.04363e-14
3.10473e-14
3.1637e-14
3.23445e-14
3.24408e-14
3.27527e-14
3.32745e-14
3.39779e-14
3.40862e-14
3.44124e-14
3.5022e-14
3.59882e-14
3.66314e-14
3.71967e-14
3.74956e-14
3.8678e-14
3.96627e-14
4.06579e-14
4.17102e-14
4.26142e-14
4.33513e-14
4.4098e-14
4.4711e-14
4.54003e-14
4.59377e-14
4.62012e-14
4.69269e-14
4.75787e-14
4.77776e-14
4.80861e-14
4.79271e-14
4.81956e-14
4.87673e-14
4.91229e-14
4.9468e-14
5.00211e-14
5.02395e-14
5.03956e-14
5.0589e-14
5.07433e-14
5.09992e-14
5.12128e-14
5.16604e-14
5.13641e-14
5.14556e-14
5.20857e-14
5.21746e-14
5.27365e-14
5.29165e-14
5.31833e-14
5.2923e-14
5.31157e-14
5.37124e-14
5.39296e-14
5.34784e-14
5.3502e-14
5.39365e-14
5.41128e-14
5.4151e-14
5.40955e-14
5.47443e-14
5.56737e-14
5.59135e-14
5.62719e-14
5.68974e-14
5.72421e-14
5.78069e-14
5.88117e-14
5.99241e-14
6.02525e-14
6.01599e-14
6.08328e-14
6.09973e-14
6.1321e-14
6.1749e-14
6.23704e-14
6.29766e-14
6.40535e-14
6.46669e-14
6.52511e-14
6.57541e-14
6.59532e-14
6.70674e-14
6.79721e-14
6.88273e-14
6.96777e-14
7.04235e-14
7.11079e-14
7.11454e-14
7.18211e-14
7.2752e-14
7.28044e-14
7.33242e-14
7.36441e-14
7.42754e-14
7.49356e-14
7.46276e-14
7.46087e-14
7.46521e-14
7.49248e-14
7.58785e-14
7.59239e-14
7.60855e-14
7.65001e-14
7.63189e-14
7.64768e-14
7.64665e-14
7.67325e-14
7.67074e-14
7.64083e-14
7.71939e-14
7.71746e-14
7.692e-14
7.66214e-14
7.64213e-14
7.6433e-14
7.58148e-14
7.54165e-14
7.49163e-14
7.40631e-14
7.39478e-14
7.31467e-14
7.2676e-14
7.22653e-14
7.16111e-14
7.04293e-14
6.97604e-14
6.95778e-14
6.92689e-14
6.86056e-14
6.79312e-14
6.7356e-14
6.62416e-14
6.50991e-14
6.46382e-14
6.43778e-14
6.33836e-14
6.30024e-14
6.25236e-14
6.16826e-14
6.11532e-14
6.0124e-14
5.94823e-14
5.86699e-14
5.78957e-14
5.72653e-14
5.60387e-14
5.5567e-14
5.49023e-14
5.44374e-14
5.44067e-14
5.36382e-14
5.3158e-14
5.23404e-14
5.18285e-14
5.18488e-14
5.11423e-14
5.05131e-14
4.99278e-14
4.9421e-14
4.9164e-14
4.82912e-14
4.7523e-14
4.67766e-14
4.61568e-14
4.61586e-14
4.50677e-14
4.38405e-14
4.3684e-14
4.30929e-14
4.27038e-14
4.22328e-14
4.08818e-14
4.06895e-14
4.09079e-14
4.00896e-14
3.93612e-14
3.88603e-14
3.79544e-14
3.74964e-14
3.69397e-14
3.59449e-14
3.56408e-14
3.43842e-14
3.23928e-14
3.11127e-14
2.99542e-14
2.84014e-14
2.62521e-14
2.38288e-14
2.17759e-14
2.2425e-14
2.30111e-14
2.44948e-14
2.61729e-14
2.75775e-14
2.8951e-14
3.02048e-14
3.12997e-14
3.23076e-14
3.30234e-14
3.39342e-14
3.45907e-14
3.47378e-14
3.49961e-14
3.53782e-14
3.57129e-14
3.60241e-14
3.63729e-14
3.68874e-14
3.69397e-14
3.71322e-14
3.70301e-14
3.67909e-14
3.70711e-14
3.72271e-14
3.73932e-14
3.75788e-14
3.74088e-14
3.73448e-14
3.70223e-14
3.66192e-14
3.66426e-14
3.69657e-14
3.69618e-14
3.69953e-14
3.69145e-14
3.69824e-14
3.72933e-14
3.76055e-14
3.74366e-14
3.7137e-14
3.71026e-14
3.70251e-14
3.66945e-14
3.63358e-14
3.63596e-14
3.61815e-14
3.59613e-14
3.59902e-14
3.60459e-14
3.61998e-14
3.60366e-14
3.55568e-14
3.54186e-14
3.52972e-14
3.50807e-14
3.48347e-14
3.45095e-14
3.36565e-14
3.35489e-14
3.32902e-14
3.29142e-14
3.2505e-14
3.23089e-14
3.22689e-14
3.23135e-14
3.20794e-14
3.1677e-14
3.13787e-14
3.102e-14
3.10224e-14
3.13733e-14
3.12189e-14
3.10657e-14
3.08806e-14
3.09109e-14
3.10593e-14
3.0691e-14
3.03559e-14
3.02068e-14
3.01285e-14
3.02318e-14
3.02525e-14
3.03322e-14
3.00064e-14
2.97366e-14
2.9482e-14
2.92231e-14
2.92607e-14
2.90649e-14
2.93789e-14
2.95232e-14
2.98051e-14
2.9791e-14
2.95605e-14
2.94388e-14
2.9359e-14
2.93112e-14
2.86321e-14
2.83757e-14
2.84688e-14
2.84961e-14
2.8582e-14
2.8449e-14
2.82327e-14
2.79894e-14
2.76694e-14
2.73294e-14
2.73455e-14
2.71512e-14
2.65975e-14
2.67173e-14
2.70064e-14
2.69612e-14
2.72295e-14
2.75683e-14
2.78047e-14
2.83033e-14
2.84071e-14
2.81086e-14
2.8349e-14
2.86543e-14
2.92434e-14
2.9215e-14
2.86221e-14
2.94112e-14
2.99288e-14
2.97717e-14
2.9853e-14
3.02893e-14
3.09299e-14
3.18087e-14
3.23938e-14
3.24285e-14
3.26415e-14
3.33213e-14
3.39365e-14
3.41307e-14
3.44965e-14
3.50072e-14
3.58666e-14
3.62972e-14
3.72032e-14
3.77439e-14
3.87125e-14
3.94459e-14
4.04071e-14
4.18984e-14
4.27881e-14
4.3376e-14
4.39398e-14
4.47484e-14
4.56239e-14
4.60439e-14
4.62396e-14
4.68617e-14
4.74536e-14
4.77977e-14
4.82144e-14
4.80711e-14
4.82215e-14
4.84691e-14
4.92084e-14
4.95918e-14
4.98933e-14
5.01633e-14
5.04092e-14
5.06581e-14
5.06494e-14
5.0996e-14
5.1332e-14
5.15727e-14
5.11322e-14
5.16061e-14
5.21436e-14
5.21977e-14
5.2819e-14
5.28228e-14
5.31194e-14
5.30938e-14
5.30637e-14
5.36407e-14
5.40006e-14
5.35503e-14
5.347e-14
5.38782e-14
5.41768e-14
5.41561e-14
5.39086e-14
5.47525e-14
5.58033e-14
5.59378e-14
5.62399e-14
5.67747e-14
5.72873e-14
5.76953e-14
5.90572e-14
6.00134e-14
6.00808e-14
6.02233e-14
6.07769e-14
6.10179e-14
6.14375e-14
6.16473e-14
6.22857e-14
6.30231e-14
6.40911e-14
6.47627e-14
6.51309e-14
6.5706e-14
6.61661e-14
6.69256e-14
6.7963e-14
6.88142e-14
6.9486e-14
7.04013e-14
7.1109e-14
7.13345e-14
7.18332e-14
7.26107e-14
7.29419e-14
7.35127e-14
7.36338e-14
7.42836e-14
7.46943e-14
7.47793e-14
7.46579e-14
7.43024e-14
7.49647e-14
7.61396e-14
7.6186e-14
7.61643e-14
7.6366e-14
7.61195e-14
7.61204e-14
7.63173e-14
7.69149e-14
7.71369e-14
7.64219e-14
7.71061e-14
7.72599e-14
7.67063e-14
7.64792e-14
7.662e-14
7.63825e-14
7.58874e-14
7.53697e-14
7.50545e-14
7.42837e-14
7.37597e-14
7.31767e-14
7.2787e-14
7.22125e-14
7.14393e-14
7.03775e-14
7.00453e-14
6.9492e-14
6.93354e-14
6.87824e-14
6.78914e-14
6.71392e-14
6.60082e-14
6.53757e-14
6.48718e-14
6.42927e-14
6.34946e-14
6.28533e-14
6.27435e-14
6.16449e-14
6.08522e-14
6.03553e-14
5.94907e-14
5.88117e-14
5.78197e-14
5.6993e-14
5.63629e-14
5.54317e-14
5.49787e-14
5.46442e-14
5.40026e-14
5.37005e-14
5.30563e-14
5.23912e-14
5.18512e-14
5.15106e-14
5.1529e-14
5.05425e-14
4.96423e-14
4.93265e-14
4.89239e-14
4.85836e-14
4.73899e-14
4.66991e-14
4.62403e-14
4.59006e-14
4.54612e-14
4.39944e-14
4.32526e-14
4.3067e-14
4.27226e-14
4.24006e-14
4.08769e-14
4.08001e-14
4.10139e-14
3.99786e-14
3.96201e-14
3.88925e-14
3.78888e-14
3.75497e-14
3.68692e-14
3.63419e-14
3.5515e-14
3.43253e-14
3.2723e-14
3.09703e-14
2.98247e-14
2.85763e-14
2.6886e-14
2.48592e-14
2.29335e-14
2.36572e-14
2.42439e-14
2.52694e-14
2.65661e-14
2.77363e-14
2.91761e-14
3.03877e-14
3.1396e-14
3.22668e-14
3.31909e-14
3.41398e-14
3.46381e-14
3.48052e-14
3.51253e-14
3.53363e-14
3.56619e-14
3.61978e-14
3.65899e-14
3.67598e-14
3.70445e-14
3.73216e-14
3.68868e-14
3.66768e-14
3.71527e-14
3.74003e-14
3.74411e-14
3.75374e-14
3.74623e-14
3.73625e-14
3.70252e-14
3.6524e-14
3.65809e-14
3.69773e-14
3.69988e-14
3.71e-14
3.68442e-14
3.69498e-14
3.72693e-14
3.77251e-14
3.75733e-14
3.69918e-14
3.70392e-14
3.70564e-14
3.67775e-14
3.63896e-14
3.64982e-14
3.62279e-14
3.58159e-14
3.60258e-14
3.60979e-14
3.61308e-14
3.60394e-14
3.55082e-14
3.54384e-14
3.52922e-14
3.4977e-14
3.49202e-14
3.45434e-14
3.36708e-14
3.34569e-14
3.32842e-14
3.30128e-14
3.24423e-14
3.22589e-14
3.24177e-14
3.22066e-14
3.2028e-14
3.17157e-14
3.13412e-14
3.08111e-14
3.1088e-14
3.14156e-14
3.11887e-14
3.11708e-14
3.09237e-14
3.09261e-14
3.11082e-14
3.06185e-14
3.02927e-14
3.01327e-14
3.01733e-14
3.02254e-14
3.02039e-14
3.05471e-14
3.00071e-14
2.97368e-14
2.94545e-14
2.91775e-14
2.92504e-14
2.89941e-14
2.94079e-14
2.9559e-14
2.99146e-14
2.97898e-14
2.95912e-14
2.94487e-14
2.94091e-14
2.95303e-14
2.85469e-14
2.83365e-14
2.84311e-14
2.84056e-14
2.85514e-14
2.84849e-14
2.82447e-14
2.79891e-14
2.76202e-14
2.74349e-14
2.74816e-14
2.70743e-14
2.65553e-14
2.65975e-14
2.6965e-14
2.68637e-14
2.71245e-14
2.74188e-14
2.78243e-14
2.84057e-14
2.85449e-14
2.80636e-14
2.81325e-14
2.86345e-14
2.92658e-14
2.942e-14
2.88751e-14
2.92157e-14
2.97051e-14
2.98179e-14
2.98562e-14
3.01051e-14
3.07826e-14
3.17037e-14
3.25183e-14
3.24212e-14
3.2451e-14
3.32738e-14
3.38649e-14
3.42192e-14
3.45393e-14
3.50485e-14
3.58526e-14
3.60888e-14
3.70519e-14
3.78432e-14
3.85813e-14
3.94588e-14
4.05196e-14
4.18965e-14
4.27317e-14
4.34621e-14
4.41084e-14
4.48141e-14
4.55027e-14
4.60927e-14
4.6342e-14
4.69849e-14
4.74041e-14
4.78102e-14
4.82376e-14
4.81705e-14
4.81751e-14
4.83691e-14
4.9303e-14
4.96451e-14
4.95826e-14
5.00606e-14
5.05297e-14
5.07639e-14
5.05692e-14
5.0945e-14
5.12327e-14
5.15147e-14
5.13375e-14
5.1532e-14
5.19951e-14
5.24249e-14
5.28856e-14
5.28845e-14
5.29703e-14
5.32079e-14
5.30442e-14
5.33906e-14
5.40083e-14
5.36134e-14
5.35858e-14
5.39228e-14
5.40578e-14
5.40887e-14
5.39215e-14
5.47249e-14
5.57078e-14
5.60497e-14
5.64633e-14
5.66293e-14
5.71416e-14
5.77383e-14
5.90906e-14
6.00528e-14
6.00944e-14
6.02353e-14
6.07226e-14
6.11052e-14
6.13236e-14
6.1581e-14
6.23087e-14
6.30141e-14
6.41317e-14
6.49321e-14
6.50849e-14
6.57186e-14
6.62091e-14
6.7023e-14
6.79509e-14
6.85508e-14
6.94083e-14
7.04518e-14
7.12209e-14
7.13355e-14
7.16734e-14
7.26773e-14
7.3306e-14
7.35372e-14
7.36277e-14
7.41375e-14
7.44514e-14
7.48988e-14
7.48067e-14
7.40693e-14
7.49387e-14
7.60351e-14
7.64535e-14
7.63472e-14
7.62245e-14
7.60338e-14
7.60209e-14
7.63739e-14
7.68848e-14
7.72288e-14
7.67818e-14
7.68617e-14
7.69465e-14
7.67535e-14
7.66798e-14
7.67445e-14
7.61779e-14
7.58531e-14
7.55591e-14
7.53193e-14
7.43985e-14
7.3677e-14
7.34148e-14
7.27782e-14
7.18895e-14
7.13385e-14
7.05548e-14
7.0316e-14
6.95434e-14
6.93622e-14
6.88758e-14
6.77273e-14
6.7075e-14
6.61185e-14
6.55125e-14
6.49701e-14
6.41332e-14
6.35866e-14
6.29988e-14
6.2592e-14
6.17239e-14
6.08302e-14
6.04657e-14
5.95014e-14
5.87592e-14
5.77462e-14
5.69948e-14
5.62493e-14
5.54415e-14
5.50711e-14
5.46601e-14
5.38871e-14
5.354e-14
5.29789e-14
5.23714e-14
5.17634e-14
5.14604e-14
5.169e-14
5.06548e-14
4.94756e-14
4.92828e-14
4.89348e-14
4.8402e-14
4.72343e-14
4.67839e-14
4.63106e-14
4.57635e-14
4.52359e-14
4.42304e-14
4.33696e-14
4.30366e-14
4.27917e-14
4.2288e-14
4.13456e-14
4.09471e-14
4.05915e-14
4.01291e-14
3.9745e-14
3.8875e-14
3.79067e-14
3.75463e-14
3.70297e-14
3.64482e-14
3.55606e-14
3.44312e-14
3.29303e-14
3.11562e-14
2.95607e-14
2.86067e-14
2.758e-14
2.5703e-14
2.40783e-14
2.46376e-14
2.53561e-14
2.61222e-14
2.69124e-14
2.79318e-14
2.94051e-14
3.07001e-14
3.14664e-14
3.2252e-14
3.3345e-14
3.41809e-14
3.47884e-14
3.48071e-14
3.51709e-14
3.54724e-14
3.58311e-14
3.63309e-14
3.671e-14
3.66586e-14
3.71803e-14
3.71829e-14
3.67713e-14
3.65624e-14
3.73118e-14
3.76903e-14
3.75206e-14
3.74869e-14
3.75259e-14
3.72583e-14
3.71642e-14
3.65135e-14
3.6428e-14
3.69054e-14
3.6961e-14
3.71653e-14
3.6907e-14
3.68866e-14
3.71669e-14
3.78914e-14
3.7873e-14
3.68802e-14
3.70019e-14
3.70447e-14
3.68767e-14
3.65054e-14
3.647e-14
3.6198e-14
3.57085e-14
3.61923e-14
3.60969e-14
3.61418e-14
3.59878e-14
3.54391e-14
3.54837e-14
3.51945e-14
3.49234e-14
3.50154e-14
3.46482e-14
3.38085e-14
3.35938e-14
3.31439e-14
3.29796e-14
3.2427e-14
3.23422e-14
3.24961e-14
3.19812e-14
3.2013e-14
3.17074e-14
3.13437e-14
3.06852e-14
3.1059e-14
3.13996e-14
3.12289e-14
3.12284e-14
3.11312e-14
3.09394e-14
3.10415e-14
3.05796e-14
3.01665e-14
3.01224e-14
3.02085e-14
3.01496e-14
3.03538e-14
3.07192e-14
2.99172e-14
2.96484e-14
2.94452e-14
2.91311e-14
2.92866e-14
2.89539e-14
2.94185e-14
2.95774e-14
2.99733e-14
2.97616e-14
2.97155e-14
2.95176e-14
2.95621e-14
2.9545e-14
2.85476e-14
2.81592e-14
2.84855e-14
2.8394e-14
2.83745e-14
2.84647e-14
2.81837e-14
2.80387e-14
2.76669e-14
2.75036e-14
2.75258e-14
2.71506e-14
2.65299e-14
2.6443e-14
2.68686e-14
2.67571e-14
2.69915e-14
2.74476e-14
2.78848e-14
2.84052e-14
2.86303e-14
2.80013e-14
2.79204e-14
2.8737e-14
2.92543e-14
2.96534e-14
2.91765e-14
2.89442e-14
2.93184e-14
2.98652e-14
2.99629e-14
2.99636e-14
3.0642e-14
3.161e-14
3.25571e-14
3.25065e-14
3.24886e-14
3.30989e-14
3.36041e-14
3.42479e-14
3.48273e-14
3.51283e-14
3.57345e-14
3.59149e-14
3.69288e-14
3.78065e-14
3.85154e-14
3.93456e-14
4.06575e-14
4.21697e-14
4.28113e-14
4.34026e-14
4.42095e-14
4.49996e-14
4.53748e-14
4.60578e-14
4.64268e-14
4.72913e-14
4.75519e-14
4.77892e-14
4.81466e-14
4.81615e-14
4.80631e-14
4.84698e-14
4.93238e-14
4.95735e-14
4.93403e-14
4.98903e-14
5.05742e-14
5.08151e-14
5.06205e-14
5.09889e-14
5.11667e-14
5.16031e-14
5.1472e-14
5.13206e-14
5.18691e-14
5.25779e-14
5.29463e-14
5.2948e-14
5.2804e-14
5.31931e-14
5.29728e-14
5.33835e-14
5.39826e-14
5.35357e-14
5.37064e-14
5.37542e-14
5.39498e-14
5.41529e-14
5.40104e-14
5.47271e-14
5.54832e-14
5.62858e-14
5.65951e-14
5.64119e-14
5.71191e-14
5.77353e-14
5.90624e-14
6.00925e-14
6.0204e-14
6.03445e-14
6.05677e-14
6.12029e-14
6.10688e-14
6.14504e-14
6.24335e-14
6.30672e-14
6.43976e-14
6.50152e-14
6.50651e-14
6.57568e-14
6.60645e-14
6.70769e-14
6.81134e-14
6.83665e-14
6.93856e-14
7.0495e-14
7.12726e-14
7.13169e-14
7.16682e-14
7.27323e-14
7.33653e-14
7.359e-14
7.36184e-14
7.41086e-14
7.42744e-14
7.49706e-14
7.49346e-14
7.39709e-14
7.48439e-14
7.61326e-14
7.65795e-14
7.64658e-14
7.6142e-14
7.60778e-14
7.59512e-14
7.63842e-14
7.67979e-14
7.72247e-14
7.70393e-14
7.67344e-14
7.669e-14
7.68077e-14
7.68526e-14
7.68514e-14
7.60898e-14
7.57371e-14
7.56433e-14
7.56633e-14
7.45333e-14
7.36594e-14
7.35591e-14
7.27703e-14
7.16882e-14
7.11569e-14
7.0846e-14
7.04605e-14
6.95394e-14
6.93955e-14
6.89099e-14
6.76758e-14
6.70917e-14
6.62741e-14
6.56466e-14
6.49624e-14
6.40128e-14
6.37825e-14
6.32796e-14
6.23206e-14
6.17152e-14
6.07671e-14
6.06455e-14
5.96037e-14
5.84818e-14
5.76835e-14
5.71889e-14
5.5977e-14
5.53589e-14
5.51985e-14
5.48163e-14
5.39596e-14
5.3228e-14
5.29035e-14
5.23485e-14
5.18443e-14
5.13548e-14
5.16995e-14
5.08017e-14
4.96114e-14
4.93164e-14
4.89522e-14
4.81155e-14
4.71231e-14
4.67712e-14
4.63849e-14
4.56905e-14
4.49416e-14
4.45314e-14
4.36159e-14
4.30231e-14
4.26747e-14
4.22686e-14
4.18217e-14
4.1129e-14
4.01902e-14
4.02916e-14
3.97964e-14
3.88155e-14
3.79781e-14
3.75403e-14
3.73206e-14
3.63718e-14
3.54738e-14
3.46335e-14
3.31105e-14
3.13788e-14
2.94258e-14
2.86821e-14
2.80214e-14
2.6344e-14
2.50362e-14
2.55663e-14
2.64103e-14
2.67419e-14
2.72855e-14
2.81898e-14
2.973e-14
3.09698e-14
3.14056e-14
3.23171e-14
3.34449e-14
3.41411e-14
3.48068e-14
3.50703e-14
3.52179e-14
3.57277e-14
3.58645e-14
3.61753e-14
3.68529e-14
3.66687e-14
3.72756e-14
3.71583e-14
3.6831e-14
3.67675e-14
3.7276e-14
3.77808e-14
3.74531e-14
3.74898e-14
3.76277e-14
3.725e-14
3.73497e-14
3.6598e-14
3.62588e-14
3.68179e-14
3.69945e-14
3.7113e-14
3.69399e-14
3.6958e-14
3.71019e-14
3.78926e-14
3.80397e-14
3.68739e-14
3.70028e-14
3.7097e-14
3.6847e-14
3.66672e-14
3.62832e-14
3.61328e-14
3.57233e-14
3.60688e-14
3.62675e-14
3.63757e-14
3.60246e-14
3.55114e-14
3.55057e-14
3.50722e-14
3.47813e-14
3.50021e-14
3.45558e-14
3.41651e-14
3.37486e-14
3.3005e-14
3.29367e-14
3.2336e-14
3.24239e-14
3.23469e-14
3.18618e-14
3.20297e-14
3.16012e-14
3.12809e-14
3.05681e-14
3.10057e-14
3.14542e-14
3.11589e-14
3.14026e-14
3.12599e-14
3.0994e-14
3.09408e-14
3.04879e-14
3.00907e-14
3.01533e-14
3.02599e-14
3.01133e-14
3.04641e-14
3.06562e-14
2.99229e-14
2.97603e-14
2.91758e-14
2.91311e-14
2.93683e-14
2.90975e-14
2.94263e-14
2.95315e-14
3.00651e-14
2.99068e-14
2.98024e-14
2.97399e-14
2.96965e-14
2.94189e-14
2.83536e-14
2.83147e-14
2.85035e-14
2.81193e-14
2.8539e-14
2.8471e-14
2.81672e-14
2.77021e-14
2.76681e-14
2.76028e-14
2.7342e-14
2.70591e-14
2.64123e-14
2.66017e-14
2.66755e-14
2.66737e-14
2.68145e-14
2.74294e-14
2.81219e-14
2.81967e-14
2.88177e-14
2.77933e-14
2.80513e-14
2.87923e-14
2.91583e-14
2.97286e-14
2.93055e-14
2.88268e-14
2.92211e-14
2.98901e-14
2.99514e-14
2.97347e-14
3.06198e-14
3.16514e-14
3.259e-14
3.24808e-14
3.25227e-14
3.28353e-14
3.33518e-14
3.42942e-14
3.50445e-14
3.51954e-14
3.56797e-14
3.59755e-14
3.67585e-14
3.78504e-14
3.84814e-14
3.92458e-14
4.07037e-14
4.2636e-14
4.27837e-14
4.35859e-14
4.40219e-14
4.49683e-14
4.55282e-14
4.58225e-14
4.67894e-14
4.74079e-14
4.76781e-14
4.80605e-14
4.80628e-14
4.82952e-14
4.81506e-14
4.83508e-14
4.90514e-14
4.92156e-14
4.9457e-14
4.98369e-14
5.04096e-14
5.09194e-14
5.06837e-14
5.09021e-14
5.13578e-14
5.14398e-14
5.14799e-14
5.12504e-14
5.17123e-14
5.27037e-14
5.3033e-14
5.29072e-14
5.28656e-14
5.30866e-14
5.31791e-14
5.34629e-14
5.37961e-14
5.35886e-14
5.38309e-14
5.3679e-14
5.38996e-14
5.42597e-14
5.41276e-14
5.45841e-14
5.5473e-14
5.61946e-14
5.66812e-14
5.63874e-14
5.70188e-14
5.7714e-14
5.90573e-14
6.01568e-14
6.03925e-14
6.05545e-14
6.05249e-14
6.08509e-14
6.07939e-14
6.16494e-14
6.24826e-14
6.36076e-14
6.44164e-14
6.50189e-14