/*--------------------------------*- C++ -*----------------------------------*\
| =========                 |                                                 |
| \\      /  F ield         | OpenFOAM: The Open Source CFD Toolbox           |
|  \\    /   O peration     | Version:  2112                                  |
|   \\  /    A nd           | Website:  www.openfoam.com                      |
|    \\/     M anipulation  |                                                 |
\*---------------------------------------------------------------------------*/
FoamFile
{
    version     2.0;
    format      ascii;
    arch        "LSB;label=32;scalar=64";
    class       volScalarField;
    location    "9";
    object      p;
}
// * * * * * * * * * * * * * * * * * * * * * * * * * * * * * * * * * * * * * //

dimensions      [0 2 -2 0 0 0 0];

internalField   nonuniform List<scalar> 
50000
(
-2.05844e-15
-1.24951e-14
-2.26374e-14
-2.94408e-14
-3.39983e-14
-3.72648e-14
-3.97054e-14
-4.1577e-14
-4.30986e-14
-4.43124e-14
-4.52447e-14
-4.59941e-14
-4.66909e-14
-4.72765e-14
-4.78037e-14
-4.82384e-14
-4.86875e-14
-4.91901e-14
-4.96817e-14
-5.01077e-14
-5.04452e-14
-5.05901e-14
-5.07612e-14
-5.08312e-14
-5.08569e-14
-5.08149e-14
-5.08393e-14
-5.07884e-14
-5.05251e-14
-5.04506e-14
-5.03121e-14
-5.00329e-14
-4.98676e-14
-4.9693e-14
-4.95163e-14
-4.94878e-14
-4.93588e-14
-4.93087e-14
-4.92793e-14
-4.92028e-14
-4.92662e-14
-4.90921e-14
-4.91655e-14
-4.92287e-14
-4.90505e-14
-4.8989e-14
-4.88107e-14
-4.84885e-14
-4.84324e-14
-4.83621e-14
-4.80532e-14
-4.76914e-14
-4.73841e-14
-4.72688e-14
-4.71894e-14
-4.69148e-14
-4.68102e-14
-4.64468e-14
-4.61294e-14
-4.60773e-14
-4.59184e-14
-4.57163e-14
-4.56265e-14
-4.56109e-14
-4.5467e-14
-4.53443e-14
-4.5178e-14
-4.50783e-14
-4.50026e-14
-4.47241e-14
-4.4537e-14
-4.44626e-14
-4.44001e-14
-4.40709e-14
-4.3865e-14
-4.4014e-14
-4.36907e-14
-4.32707e-14
-4.32776e-14
-4.33859e-14
-4.32324e-14
-4.28898e-14
-4.2759e-14
-4.24795e-14
-4.21779e-14
-4.21943e-14
-4.1977e-14
-4.17839e-14
-4.16712e-14
-4.14604e-14
-4.128e-14
-4.10918e-14
-4.08e-14
-4.04805e-14
-4.01048e-14
-3.95792e-14
-3.95374e-14
-3.93667e-14
-3.86395e-14
-3.82101e-14
-3.80871e-14
-3.76634e-14
-3.70448e-14
-3.6507e-14
-3.61256e-14
-3.55824e-14
-3.49285e-14
-3.44612e-14
-3.41125e-14
-3.35743e-14
-3.26704e-14
-3.20094e-14
-3.16016e-14
-3.11503e-14
-3.03012e-14
-2.92973e-14
-2.88222e-14
-2.8656e-14
-2.81205e-14
-2.73291e-14
-2.67527e-14
-2.63985e-14
-2.59552e-14
-2.51338e-14
-2.4424e-14
-2.42275e-14
-2.36089e-14
-2.28547e-14
-2.2423e-14
-2.18458e-14
-2.11988e-14
-2.05801e-14
-2.01056e-14
-1.90285e-14
-1.84232e-14
-1.83113e-14
-1.77043e-14
-1.70021e-14
-1.67198e-14
-1.60972e-14
-1.50757e-14
-1.47141e-14
-1.47941e-14
-1.4428e-14
-1.33783e-14
-1.29946e-14
-1.28949e-14
-1.18392e-14
-1.1114e-14
-1.09843e-14
-1.00088e-14
-9.44972e-15
-9.10326e-15
-7.88118e-15
-7.45322e-15
-7.07543e-15
-6.25306e-15
-6.0444e-15
-5.76826e-15
-5.55797e-15
-4.89034e-15
-4.1493e-15
-3.76055e-15
-3.4619e-15
-2.98672e-15
-2.6587e-15
-2.46748e-15
-1.8553e-15
-2.17651e-15
-1.90987e-15
-1.00655e-15
-1.13331e-15
-9.27913e-16
-9.34575e-17
1.26527e-16
1.7941e-16
2.55047e-16
8.21709e-16
1.19963e-15
1.07915e-15
1.60778e-15
1.97013e-15
2.06795e-15
2.45726e-15
2.31653e-15
2.80211e-15
3.29499e-15
3.07534e-15
3.01596e-15
2.97809e-15
2.91881e-15
2.6089e-15
2.08163e-15
1.31775e-15
1.2936e-15
1.45684e-15
1.26625e-15
1.46646e-15
1.80091e-15
1.40276e-15
9.75482e-16
1.03385e-15
8.43296e-17
-1.87044e-16
-4.57966e-16
-7.4318e-16
-4.5454e-16
-8.64933e-16
-1.57417e-15
-1.89819e-15
-2.25606e-15
-2.38432e-15
-2.49879e-15
-3.28571e-15
-3.26357e-15
-3.8174e-15
-4.29093e-15
-4.70295e-15
-5.48161e-15
-5.88468e-15
-5.84624e-15
-5.90166e-15
-6.46962e-15
-6.66907e-15
-7.18529e-15
-7.45687e-15
-7.96623e-15
-8.54394e-15
-8.92765e-15
-8.92208e-15
-9.09495e-15
-9.2482e-15
-9.95137e-15
-1.03814e-14
-1.03362e-14
-1.10584e-14
-1.14145e-14
-1.16832e-14
-1.1681e-14
-1.2115e-14
-1.24896e-14
-1.2801e-14
-1.37117e-14
-1.45428e-14
-1.42947e-14
-1.45739e-14
-1.51937e-14
-1.51016e-14
-1.56456e-14
-1.60139e-14
-1.64014e-14
-1.6964e-14
-1.77049e-14
-1.76254e-14
-1.79809e-14
-1.89165e-14
-1.90957e-14
-1.9453e-14
-2.03199e-14
-2.0562e-14
-2.14571e-14
-2.22003e-14
-2.17694e-14
-2.26046e-14
-2.26738e-14
-2.33797e-14
-2.48372e-14
-2.43811e-14
-2.52617e-14
-2.68843e-14
-2.58234e-14
-2.61959e-14
-2.74067e-14
-2.77583e-14
-2.90577e-14
-2.93921e-14
-3.05132e-14
-3.19457e-14
-3.25639e-14
-3.27917e-14
-3.35767e-14
-3.44684e-14
-3.58095e-14
-3.68383e-14
-3.69564e-14
-3.872e-14
-3.89967e-14
-3.9081e-14
-4.08406e-14
-4.13472e-14
-4.13031e-14
-4.27508e-14
-4.37352e-14
-4.44708e-14
-4.64845e-14
-4.64653e-14
-4.59244e-14
-4.75194e-14
-4.82575e-14
-4.89724e-14
-5.09554e-14
-5.11765e-14
-5.2278e-14
-5.42697e-14
-5.37874e-14
-5.43144e-14
-5.62453e-14
-5.643e-14
-5.74379e-14
-5.95682e-14
-6.00941e-14
-6.03587e-14
-6.21009e-14
-6.29425e-14
-6.33259e-14
-6.46245e-14
-6.52111e-14
-6.61216e-14
-6.7325e-14
-6.85908e-14
-6.9242e-14
-6.95097e-14
-6.98967e-14
-7.10415e-14
-7.25352e-14
-7.27841e-14
-7.35186e-14
-7.47042e-14
-7.62716e-14
-7.68698e-14
-7.64755e-14
-7.81674e-14
-7.96361e-14
-7.99477e-14
-8.19439e-14
-8.31281e-14
-8.30023e-14
-8.53719e-14
-8.60878e-14
-8.59101e-14
-8.77501e-14
-8.8819e-14
-8.98718e-14
-9.15569e-14
-9.3034e-14
-9.35471e-14
-9.40761e-14
-9.45493e-14
-9.56032e-14
-9.68973e-14
-9.71382e-14
-9.76304e-14
-9.90209e-14
-1.00211e-13
-1.00316e-13
-1.00477e-13
-1.00717e-13
-1.01718e-13
-1.02994e-13
-1.03341e-13
-1.04198e-13
-1.04054e-13
-1.05017e-13
-1.06213e-13
-1.05385e-13
-1.06031e-13
-1.0672e-13
-1.07126e-13
-1.07738e-13
-1.09211e-13
-1.09021e-13
-1.08492e-13
-1.09128e-13
-1.099e-13
-1.10771e-13
-1.10753e-13
-1.11399e-13
-1.11372e-13
-1.12391e-13
-1.12335e-13
-1.11795e-13
-1.12245e-13
-1.13122e-13
-1.13557e-13
-1.13562e-13
-1.1456e-13
-1.13886e-13
-1.14692e-13
-1.14932e-13
-1.1432e-13
-1.14356e-13
-1.14773e-13
-1.14444e-13
-1.14116e-13
-1.15322e-13
-1.14835e-13
-1.13257e-13
-1.12985e-13
-1.13382e-13
-1.13831e-13
-1.14567e-13
-1.14975e-13
-1.13068e-13
-1.12981e-13
-1.13569e-13
-1.14579e-13
-1.14112e-13
-1.12233e-13
-1.13112e-13
-1.14027e-13
-1.13703e-13
-1.11769e-13
-1.12335e-13
-1.12429e-13
-1.11571e-13
-1.11332e-13
-1.10472e-13
-1.1105e-13
-1.11498e-13
-1.10583e-13
-1.08689e-13
-1.08927e-13
-1.09962e-13
-1.08126e-13
-1.07194e-13
-1.07333e-13
-1.07152e-13
-1.06599e-13
-1.0615e-13
-1.05028e-13
-1.0496e-13
-1.06094e-13
-1.04285e-13
-1.02809e-13
-1.03852e-13
-1.04929e-13
-1.02936e-13
-1.024e-13
-1.0182e-13
-1.01029e-13
-1.02024e-13
-1.00121e-13
-9.97004e-14
-9.94853e-14
-9.95896e-14
-9.86994e-14
-9.7595e-14
-9.76694e-14
-9.69069e-14
-9.72166e-14
-9.62245e-14
-9.57878e-14
-9.48928e-14
-9.51264e-14
-9.44263e-14
-9.36166e-14
-9.39255e-14
-9.33682e-14
-9.25696e-14
-9.0599e-14
-9.18462e-14
-9.13779e-14
-9.06851e-14
-8.9605e-14
-8.74068e-14
-8.82157e-14
-8.80637e-14
-8.66198e-14
-8.53437e-14
-8.54585e-14
-8.45096e-14
-8.40177e-14
-8.32062e-14
-8.17917e-14
-8.17834e-14
-8.06944e-14
-7.95607e-14
-7.75666e-14
-7.72538e-14
-7.68648e-14
-7.55605e-14
-7.38896e-14
-7.2446e-14
-7.21197e-14
-6.96792e-14
-6.88422e-14
-6.72493e-14
-6.55353e-14
-6.45661e-14
-6.11545e-14
-5.87346e-14
-5.77602e-14
-5.55925e-14
-5.16179e-14
-4.87117e-14
-4.47711e-14
-4.04735e-14
-3.507e-14
-2.61494e-14
-1.482e-14
-9.74183e-15
-1.57853e-14
-2.39793e-14
-3.00179e-14
-3.4322e-14
-3.74877e-14
-3.98647e-14
-4.1689e-14
-4.31917e-14
-4.43888e-14
-4.53133e-14
-4.60445e-14
-4.67394e-14
-4.72835e-14
-4.78329e-14
-4.8258e-14
-4.87015e-14
-4.92017e-14
-4.97092e-14
-5.01196e-14
-5.04873e-14
-5.0608e-14
-5.07697e-14
-5.08519e-14
-5.0878e-14
-5.08271e-14
-5.08396e-14
-5.07985e-14
-5.05705e-14
-5.04453e-14
-5.03042e-14
-5.00856e-14
-4.98813e-14
-4.96445e-14
-4.95434e-14
-4.95052e-14
-4.93543e-14
-4.93332e-14
-4.92974e-14
-4.92597e-14
-4.92549e-14
-4.91357e-14
-4.9145e-14
-4.91892e-14
-4.91072e-14
-4.89659e-14
-4.87628e-14
-4.8518e-14
-4.84511e-14
-4.8342e-14
-4.80299e-14
-4.76423e-14
-4.7428e-14
-4.73048e-14
-4.71347e-14
-4.69281e-14
-4.68158e-14
-4.64697e-14
-4.61831e-14
-4.60512e-14
-4.58957e-14
-4.57401e-14
-4.56282e-14
-4.55681e-14
-4.5545e-14
-4.53109e-14
-4.51796e-14
-4.51044e-14
-4.49336e-14
-4.47737e-14
-4.46154e-14
-4.4426e-14
-4.43246e-14
-4.4098e-14
-4.38876e-14
-4.38889e-14
-4.37028e-14
-4.33474e-14
-4.3254e-14
-4.33392e-14
-4.32709e-14
-4.29111e-14
-4.27067e-14
-4.24968e-14
-4.22923e-14
-4.20809e-14
-4.19023e-14
-4.18836e-14
-4.16642e-14
-4.14935e-14
-4.12612e-14
-4.10278e-14
-4.07916e-14
-4.04855e-14
-4.01142e-14
-3.96731e-14
-3.95236e-14
-3.92844e-14
-3.86576e-14
-3.82018e-14
-3.80933e-14
-3.76404e-14
-3.70828e-14
-3.64919e-14
-3.60556e-14
-3.57467e-14
-3.49595e-14
-3.43662e-14
-3.40877e-14
-3.34875e-14
-3.27395e-14
-3.21729e-14
-3.15879e-14
-3.10477e-14
-3.02399e-14
-2.93364e-14
-2.89371e-14
-2.86552e-14
-2.80375e-14
-2.72916e-14
-2.67386e-14
-2.63812e-14
-2.58691e-14
-2.51521e-14
-2.45842e-14
-2.41714e-14
-2.35203e-14
-2.28957e-14
-2.24137e-14
-2.184e-14
-2.12753e-14
-2.05689e-14
-1.9946e-14
-1.90898e-14
-1.85049e-14
-1.82414e-14
-1.76404e-14
-1.70661e-14
-1.66754e-14
-1.60756e-14
-1.52073e-14
-1.47805e-14
-1.47795e-14
-1.4342e-14
-1.33205e-14
-1.29653e-14
-1.28432e-14
-1.19152e-14
-1.11716e-14
-1.08643e-14
-1.00929e-14
-9.51959e-15
-8.90827e-15
-7.98587e-15
-7.50966e-15
-6.97487e-15
-6.40403e-15
-6.05431e-15
-5.65614e-15
-5.46506e-15
-4.92128e-15
-4.18579e-15
-3.7934e-15
-3.43937e-15
-2.96971e-15
-2.63618e-15
-2.37899e-15
-2.05924e-15
-2.04675e-15
-1.79994e-15
-1.24527e-15
-9.24162e-16
-7.48817e-16
-3.47111e-16
1.1936e-16
2.34549e-16
2.70522e-16
8.78256e-16
1.16696e-15
1.09546e-15
1.52515e-15
1.90974e-15
2.07966e-15
2.45512e-15
2.47461e-15
2.81131e-15
3.15914e-15
3.17533e-15
2.97762e-15
2.95564e-15
2.86127e-15
2.53586e-15
1.96062e-15
1.44649e-15
1.47222e-15
1.39671e-15
1.31143e-15
1.61523e-15
1.5787e-15
1.17342e-15
1.10518e-15
9.98869e-16
1.86651e-16
-5.81484e-17
-4.68039e-16
-8.41206e-16
-5.32805e-16
-8.05903e-16
-1.51276e-15
-1.98483e-15
-2.19046e-15
-2.46857e-15
-2.63386e-15
-3.08383e-15
-3.31012e-15
-3.90363e-15
-4.24863e-15
-4.67618e-15
-5.4354e-15
-5.70401e-15
-5.85746e-15
-6.07307e-15
-6.59282e-15
-6.76526e-15
-7.11472e-15
-7.38872e-15
-7.87321e-15
-8.41728e-15
-8.87947e-15
-8.84481e-15
-9.2201e-15
-9.50972e-15
-9.8517e-15
-1.03878e-14
-1.04646e-14
-1.09106e-14
-1.13656e-14
-1.15224e-14
-1.18044e-14
-1.21364e-14
-1.25277e-14
-1.2952e-14
-1.35063e-14
-1.43651e-14
-1.44164e-14
-1.45806e-14
-1.50468e-14
-1.524e-14
-1.57291e-14
-1.62054e-14
-1.63955e-14
-1.68254e-14
-1.74339e-14
-1.7672e-14
-1.80617e-14
-1.8773e-14
-1.92972e-14
-1.96524e-14
-2.01958e-14
-2.05186e-14
-2.14391e-14
-2.20732e-14
-2.20242e-14
-2.25289e-14
-2.26792e-14
-2.33525e-14
-2.47128e-14
-2.47106e-14
-2.52278e-14
-2.64129e-14
-2.60891e-14
-2.63771e-14
-2.72868e-14
-2.78372e-14
-2.87518e-14
-2.97136e-14
-3.05182e-14
-3.15351e-14
-3.24531e-14
-3.30758e-14
-3.37297e-14
-3.43916e-14
-3.58188e-14
-3.68436e-14
-3.70253e-14
-3.8438e-14
-3.9147e-14
-3.92128e-14
-4.07004e-14
-4.11807e-14
-4.1424e-14
-4.27487e-14
-4.37837e-14
-4.4588e-14
-4.61645e-14
-4.63117e-14
-4.63963e-14
-4.7537e-14
-4.8194e-14
-4.91578e-14
-5.06036e-14
-5.14811e-14
-5.22163e-14
-5.3801e-14
-5.40783e-14
-5.4479e-14
-5.59211e-14
-5.66803e-14
-5.76408e-14
-5.91498e-14
-6.00843e-14
-6.06894e-14
-6.19873e-14
-6.29709e-14
-6.34447e-14
-6.4352e-14
-6.53683e-14
-6.63306e-14
-6.71398e-14
-6.83636e-14
-6.91915e-14
-6.95439e-14
-7.02074e-14
-7.12913e-14
-7.21426e-14
-7.27929e-14
-7.37206e-14
-7.46915e-14
-7.58877e-14
-7.67098e-14
-7.69155e-14
-7.81444e-14
-7.94553e-14
-8.02864e-14
-8.16592e-14
-8.28415e-14
-8.35666e-14
-8.49599e-14
-8.58703e-14
-8.64748e-14
-8.76596e-14
-8.86048e-14
-9.02826e-14
-9.14367e-14
-9.25315e-14
-9.36426e-14
-9.42259e-14
-9.47332e-14
-9.58697e-14
-9.67352e-14
-9.69268e-14
-9.80482e-14
-9.89297e-14
-9.96796e-14
-1.0039e-13
-1.00633e-13
-1.00959e-13
-1.01922e-13
-1.02663e-13
-1.03343e-13
-1.04262e-13
-1.0413e-13
-1.04933e-13
-1.05922e-13
-1.0569e-13
-1.06086e-13
-1.06655e-13
-1.07222e-13
-1.07742e-13
-1.08817e-13
-1.08819e-13
-1.08766e-13
-1.09466e-13
-1.10002e-13
-1.10457e-13
-1.10773e-13
-1.11386e-13
-1.11597e-13
-1.12195e-13
-1.1207e-13
-1.11943e-13
-1.12471e-13
-1.1316e-13
-1.13475e-13
-1.13492e-13
-1.14606e-13
-1.14163e-13
-1.14221e-13
-1.14928e-13
-1.14687e-13
-1.14209e-13
-1.14562e-13
-1.14642e-13
-1.14317e-13
-1.15103e-13
-1.14437e-13
-1.13252e-13
-1.13528e-13
-1.13668e-13
-1.13703e-13
-1.14293e-13
-1.14667e-13
-1.13414e-13
-1.13375e-13
-1.13379e-13
-1.14042e-13
-1.14283e-13
-1.12719e-13
-1.12847e-13
-1.13769e-13
-1.13765e-13
-1.12072e-13
-1.12335e-13
-1.12294e-13
-1.11531e-13
-1.11203e-13
-1.10665e-13
-1.11226e-13
-1.11128e-13
-1.10449e-13
-1.09208e-13
-1.0906e-13
-1.0936e-13
-1.08412e-13
-1.07492e-13
-1.07018e-13
-1.07125e-13
-1.06538e-13
-1.05993e-13
-1.05229e-13
-1.05049e-13
-1.05682e-13
-1.046e-13
-1.03117e-13
-1.035e-13
-1.04603e-13
-1.03164e-13
-1.02453e-13
-1.01909e-13
-1.01281e-13
-1.01457e-13
-1.00366e-13
-9.97855e-14
-9.9632e-14
-9.94369e-14
-9.84994e-14
-9.7851e-14
-9.7623e-14
-9.70757e-14
-9.70233e-14
-9.60837e-14
-9.55106e-14
-9.53314e-14
-9.50255e-14
-9.42932e-14
-9.38684e-14
-9.38084e-14
-9.32059e-14
-9.26029e-14
-9.09813e-14
-9.146e-14
-9.16171e-14
-9.05082e-14
-8.91966e-14
-8.82126e-14
-8.82905e-14
-8.7367e-14
-8.65788e-14
-8.59771e-14
-8.52727e-14
-8.44844e-14
-8.40153e-14
-8.32494e-14
-8.20583e-14
-8.14838e-14
-8.05937e-14
-7.92399e-14
-7.79081e-14
-7.76235e-14
-7.65082e-14
-7.51933e-14
-7.4277e-14
-7.28019e-14
-7.15647e-14
-6.99192e-14
-6.89302e-14
-6.73446e-14
-6.58333e-14
-6.39731e-14
-6.11629e-14
-5.94679e-14
-5.787e-14
-5.50581e-14
-5.19745e-14
-4.89134e-14
-4.49875e-14
-4.07536e-14
-3.53735e-14
-2.77683e-14
-1.80856e-14
-1.69111e-14
-1.98933e-14
-2.58226e-14
-3.094e-14
-3.49069e-14
-3.78299e-14
-4.01798e-14
-4.19224e-14
-4.3333e-14
-4.45743e-14
-4.54034e-14
-4.61174e-14
-4.68328e-14
-4.73185e-14
-4.78743e-14
-4.8268e-14
-4.86691e-14
-4.92523e-14
-4.97331e-14
-5.01507e-14
-5.05507e-14
-5.06478e-14
-5.07471e-14
-5.09178e-14
-5.09634e-14
-5.08179e-14
-5.09052e-14
-5.0818e-14
-5.05602e-14
-5.04537e-14
-5.03287e-14
-5.01435e-14
-4.98775e-14
-4.96232e-14
-4.95718e-14
-4.95379e-14
-4.93331e-14
-4.937e-14
-4.93173e-14
-4.92877e-14
-4.92305e-14
-4.91401e-14
-4.92018e-14
-4.91684e-14
-4.91387e-14
-4.89383e-14
-4.87604e-14
-4.8537e-14
-4.84402e-14
-4.82941e-14
-4.80843e-14
-4.76621e-14
-4.74242e-14
-4.72991e-14
-4.70874e-14
-4.69846e-14
-4.68126e-14
-4.64822e-14
-4.62221e-14
-4.59565e-14
-4.59149e-14
-4.57452e-14
-4.56415e-14
-4.55496e-14
-4.55637e-14
-4.52557e-14
-4.51857e-14
-4.51844e-14
-4.48981e-14
-4.4773e-14
-4.46316e-14
-4.43819e-14
-4.4293e-14
-4.41559e-14
-4.39057e-14
-4.38362e-14
-4.37034e-14
-4.33952e-14
-4.31929e-14
-4.33461e-14
-4.32477e-14
-4.29458e-14
-4.26857e-14
-4.2525e-14
-4.23624e-14
-4.20141e-14
-4.19178e-14
-4.1895e-14
-4.16357e-14
-4.15692e-14
-4.12697e-14
-4.095e-14
-4.07086e-14
-4.04696e-14
-4.01441e-14
-3.97803e-14
-3.95347e-14
-3.91793e-14
-3.86344e-14
-3.826e-14
-3.80882e-14
-3.76242e-14
-3.71263e-14
-3.64634e-14
-3.60746e-14
-3.58251e-14
-3.49875e-14
-3.43267e-14
-3.41033e-14
-3.34207e-14
-3.27608e-14
-3.22526e-14
-3.15873e-14
-3.09081e-14
-3.01999e-14
-2.94868e-14
-2.8994e-14
-2.85538e-14
-2.80228e-14
-2.72916e-14
-2.67744e-14
-2.63151e-14
-2.5775e-14
-2.52166e-14
-2.46317e-14
-2.41566e-14
-2.35507e-14
-2.28784e-14
-2.23251e-14
-2.18738e-14
-2.12818e-14
-2.05727e-14
-1.99156e-14
-1.91507e-14
-1.85498e-14
-1.81911e-14
-1.75952e-14
-1.71187e-14
-1.66629e-14
-1.60128e-14
-1.52998e-14
-1.48646e-14
-1.47428e-14
-1.42139e-14
-1.32793e-14
-1.2989e-14
-1.2804e-14
-1.19397e-14
-1.13114e-14
-1.08724e-14
-1.01588e-14
-9.49061e-15
-8.78651e-15
-8.06392e-15
-7.51219e-15
-6.90017e-15
-6.46106e-15
-6.04839e-15
-5.59086e-15
-5.47646e-15
-5.00085e-15
-4.18322e-15
-3.69618e-15
-3.38799e-15
-2.94177e-15
-2.62797e-15
-2.29653e-15
-2.13201e-15
-2.09546e-15
-1.74828e-15
-1.28407e-15
-8.92624e-16
-6.37687e-16
-4.08107e-16
3.93219e-17
2.50048e-16
3.54755e-16
9.0829e-16
1.10507e-15
1.09931e-15
1.45095e-15
1.87379e-15
2.04642e-15
2.46461e-15
2.66108e-15
2.86101e-15
3.0231e-15
3.20976e-15
3.04204e-15
2.90579e-15
2.8293e-15
2.43466e-15
1.91591e-15
1.56513e-15
1.52168e-15
1.45973e-15
1.42016e-15
1.5252e-15
1.39628e-15
1.10051e-15
1.17678e-15
9.88615e-16
3.82707e-16
-1.39454e-17
-4.92359e-16
-7.94342e-16
-6.54625e-16
-9.08857e-16
-1.4864e-15
-1.9715e-15
-2.15706e-15
-2.46191e-15
-2.73975e-15
-3.03788e-15
-3.31356e-15
-3.9843e-15
-4.28451e-15
-4.58546e-15
-5.28437e-15
-5.62442e-15
-5.94868e-15
-6.20538e-15
-6.60042e-15
-6.8872e-15
-7.05108e-15
-7.26895e-15
-7.88735e-15
-8.23099e-15
-8.70017e-15
-8.96312e-15
-9.37048e-15
-9.60339e-15
-9.92753e-15
-1.02951e-14
-1.04783e-14
-1.08326e-14
-1.13183e-14
-1.14983e-14
-1.1852e-14
-1.20506e-14
-1.26199e-14
-1.3089e-14
-1.33927e-14
-1.42553e-14
-1.43918e-14
-1.46932e-14
-1.4916e-14
-1.52052e-14
-1.58204e-14
-1.63516e-14
-1.63604e-14
-1.67876e-14
-1.72013e-14
-1.77443e-14
-1.82579e-14
-1.85996e-14
-1.93157e-14
-1.98209e-14
-2.01658e-14
-2.04537e-14
-2.14196e-14
-2.19638e-14
-2.20859e-14
-2.25086e-14
-2.28544e-14
-2.3364e-14
-2.45239e-14
-2.49617e-14
-2.51737e-14
-2.60541e-14
-2.6199e-14
-2.65239e-14
-2.73097e-14
-2.7799e-14
-2.84598e-14
-2.99823e-14
-3.05727e-14
-3.11289e-14
-3.23582e-14
-3.32394e-14
-3.38401e-14
-3.4449e-14
-3.58815e-14
-3.67858e-14
-3.70798e-14
-3.82853e-14
-3.91545e-14
-3.92928e-14
-4.05966e-14
-4.11581e-14
-4.14277e-14
-4.26579e-14
-4.39906e-14
-4.46546e-14
-4.58114e-14
-4.63073e-14
-4.66434e-14
-4.75706e-14
-4.82412e-14
-4.91489e-14
-5.0441e-14
-5.17183e-14
-5.21815e-14
-5.33983e-14
-5.4226e-14
-5.45535e-14
-5.58477e-14
-5.69008e-14
-5.76137e-14
-5.88754e-14
-6.01778e-14
-6.09121e-14
-6.18455e-14
-6.29552e-14
-6.35421e-14
-6.43236e-14
-6.535e-14
-6.63989e-14
-6.71325e-14
-6.81622e-14
-6.91271e-14
-6.96415e-14
-7.04436e-14
-7.12943e-14
-7.20161e-14
-7.26983e-14
-7.38375e-14
-7.477e-14
-7.56984e-14
-7.65867e-14
-7.70741e-14
-7.81586e-14
-7.94207e-14
-8.04317e-14
-8.14198e-14
-8.29042e-14
-8.37433e-14
-8.46302e-14
-8.5856e-14
-8.66287e-14
-8.76833e-14
-8.86599e-14
-9.03625e-14
-9.14099e-14
-9.24125e-14
-9.3438e-14
-9.43304e-14
-9.50684e-14
-9.58737e-14
-9.67017e-14
-9.69937e-14
-9.80471e-14
-9.89138e-14
-9.94921e-14
-1.00214e-13
-1.00822e-13
-1.01256e-13
-1.01995e-13
-1.02402e-13
-1.03233e-13
-1.04362e-13
-1.04248e-13
-1.04776e-13
-1.05733e-13
-1.05847e-13
-1.06176e-13
-1.0677e-13
-1.07142e-13
-1.07739e-13
-1.08424e-13
-1.08687e-13
-1.0905e-13
-1.09627e-13
-1.10039e-13
-1.1044e-13
-1.10758e-13
-1.11306e-13
-1.11859e-13
-1.11929e-13
-1.11843e-13
-1.12128e-13
-1.12646e-13
-1.13075e-13
-1.13429e-13
-1.13595e-13
-1.14499e-13
-1.14345e-13
-1.14133e-13
-1.14859e-13
-1.14819e-13
-1.14282e-13
-1.14324e-13
-1.1469e-13
-1.14666e-13
-1.1479e-13
-1.1423e-13
-1.13428e-13
-1.13622e-13
-1.13899e-13
-1.13801e-13
-1.13949e-13
-1.14333e-13
-1.13766e-13
-1.13657e-13
-1.13473e-13
-1.13692e-13
-1.13986e-13
-1.13167e-13
-1.13011e-13
-1.13331e-13
-1.13722e-13
-1.12512e-13
-1.12134e-13
-1.12119e-13
-1.1163e-13
-1.1114e-13
-1.10893e-13
-1.11284e-13
-1.10849e-13
-1.10379e-13
-1.09595e-13
-1.0917e-13
-1.09059e-13
-1.0851e-13
-1.07425e-13
-1.06944e-13
-1.07298e-13
-1.06369e-13
-1.05859e-13
-1.05499e-13
-1.04942e-13
-1.05359e-13
-1.04794e-13
-1.03417e-13
-1.03398e-13
-1.04191e-13
-1.03114e-13
-1.02491e-13
-1.02167e-13
-1.01473e-13
-1.01039e-13
-1.00578e-13
-9.99785e-14
-9.96232e-14
-9.92887e-14
-9.82982e-14
-9.79821e-14
-9.77055e-14
-9.72843e-14
-9.66328e-14
-9.59757e-14
-9.56244e-14
-9.54771e-14
-9.49219e-14
-9.42732e-14
-9.37872e-14
-9.37434e-14
-9.32927e-14
-9.2483e-14
-9.1364e-14
-9.14037e-14
-9.1523e-14
-9.02879e-14
-8.90441e-14
-8.87509e-14
-8.83371e-14
-8.71476e-14
-8.63599e-14
-8.61747e-14
-8.53296e-14
-8.46311e-14
-8.38692e-14
-8.31741e-14
-8.22775e-14
-8.1346e-14
-8.06124e-14
-7.90932e-14
-7.80743e-14
-7.77897e-14
-7.63107e-14
-7.48198e-14
-7.45698e-14
-7.32495e-14
-7.12506e-14
-6.996e-14
-6.90722e-14
-6.75984e-14
-6.58761e-14
-6.36355e-14
-6.12465e-14
-5.99185e-14
-5.81582e-14
-5.50527e-14
-5.20678e-14
-4.90963e-14
-4.55943e-14
-4.11551e-14
-3.60507e-14
-2.97794e-14
-2.21528e-14
-2.30611e-14
-2.39313e-14
-2.7961e-14
-3.21514e-14
-3.57089e-14
-3.83283e-14
-4.05673e-14
-4.22843e-14
-4.35553e-14
-4.48084e-14
-4.55391e-14
-4.61686e-14
-4.68736e-14
-4.73942e-14
-4.79147e-14
-4.83007e-14
-4.8682e-14
-4.93372e-14
-4.97624e-14
-5.02188e-14
-5.05576e-14
-5.06781e-14
-5.07855e-14
-5.09369e-14
-5.09745e-14
-5.08983e-14
-5.09572e-14
-5.08583e-14
-5.05613e-14
-5.05101e-14
-5.03068e-14
-5.0107e-14
-4.99422e-14
-4.97046e-14
-4.95534e-14
-4.94837e-14
-4.93278e-14
-4.93901e-14
-4.9326e-14
-4.93031e-14
-4.91934e-14
-4.90793e-14
-4.92544e-14
-4.92315e-14
-4.9131e-14
-4.89596e-14
-4.87611e-14
-4.85374e-14
-4.84357e-14
-4.83005e-14
-4.8098e-14
-4.76886e-14
-4.73781e-14
-4.72644e-14
-4.70914e-14
-4.69492e-14
-4.66992e-14
-4.65315e-14
-4.62937e-14
-4.59281e-14
-4.59177e-14
-4.57183e-14
-4.56344e-14
-4.56004e-14
-4.55522e-14
-4.52597e-14
-4.52073e-14
-4.5165e-14
-4.4942e-14
-4.47182e-14
-4.46038e-14
-4.44405e-14
-4.4216e-14
-4.42426e-14
-4.39787e-14
-4.37426e-14
-4.36491e-14
-4.34465e-14
-4.32107e-14
-4.33451e-14
-4.32603e-14
-4.30092e-14
-4.2673e-14
-4.24612e-14
-4.22766e-14
-4.20705e-14
-4.19863e-14
-4.18255e-14
-4.16491e-14
-4.1615e-14
-4.12603e-14
-4.08753e-14
-4.06873e-14
-4.04553e-14
-4.02675e-14
-3.98287e-14
-3.94809e-14
-3.90633e-14
-3.86722e-14
-3.83545e-14
-3.80401e-14
-3.75961e-14
-3.71422e-14
-3.65224e-14
-3.61562e-14
-3.59044e-14
-3.50053e-14
-3.43662e-14
-3.40509e-14
-3.33416e-14
-3.27468e-14
-3.22259e-14
-3.16358e-14
-3.07989e-14
-3.0227e-14
-2.96577e-14
-2.89692e-14
-2.84446e-14
-2.79875e-14
-2.73265e-14
-2.68174e-14
-2.63035e-14
-2.56393e-14
-2.51872e-14
-2.46296e-14
-2.41452e-14
-2.36663e-14
-2.2822e-14
-2.22578e-14
-2.19018e-14
-2.12699e-14
-2.05533e-14
-1.99163e-14
-1.92369e-14
-1.85668e-14
-1.81414e-14
-1.75593e-14
-1.70959e-14
-1.66224e-14
-1.59805e-14
-1.53223e-14
-1.49292e-14
-1.47098e-14
-1.41351e-14
-1.33713e-14
-1.29961e-14
-1.26905e-14
-1.19769e-14
-1.14986e-14
-1.09484e-14
-1.01017e-14
-9.36972e-15
-8.74643e-15
-8.08748e-15
-7.53674e-15
-6.87171e-15
-6.44213e-15
-6.06151e-15
-5.5993e-15
-5.42881e-15
-5.04413e-15
-4.18857e-15
-3.63249e-15
-3.41571e-15
-2.8765e-15
-2.56946e-15
-2.33063e-15
-2.14011e-15
-1.97764e-15
-1.68944e-15
-1.23633e-15
-9.39022e-16
-6.19535e-16
-2.75703e-16
-1.22165e-16
1.40817e-16
4.7228e-16
8.05648e-16
1.09989e-15
1.24935e-15
1.41125e-15
1.86779e-15
2.00298e-15
2.39144e-15
2.72176e-15
2.92734e-15
3.02734e-15
3.31103e-15
3.13197e-15
2.85476e-15
2.85253e-15
2.38893e-15
1.93703e-15
1.6283e-15
1.42368e-15
1.55963e-15
1.52715e-15
1.26385e-15
1.41392e-15
1.24984e-15
1.0848e-15
9.47886e-16
5.93822e-16
-1.54665e-17
-4.31218e-16
-7.00197e-16
-9.35757e-16
-1.03553e-15
-1.45311e-15
-1.9148e-15
-2.16103e-15
-2.41842e-15
-2.71803e-15
-3.0199e-15
-3.41643e-15
-4.02164e-15
-4.35845e-15
-4.4172e-15
-5.00771e-15
-5.64174e-15
-6.10541e-15
-6.26966e-15
-6.62167e-15
-6.91654e-15
-7.02729e-15
-7.30261e-15
-7.84593e-15
-8.02919e-15
-8.56957e-15
-9.16979e-15
-9.39156e-15
-9.5273e-15
-1.00469e-14
-1.02631e-14
-1.05302e-14
-1.0749e-14
-1.1175e-14
-1.16015e-14
-1.19007e-14
-1.19547e-14
-1.26716e-14
-1.31994e-14
-1.33882e-14
-1.41321e-14
-1.43232e-14
-1.4826e-14
-1.4871e-14
-1.51235e-14
-1.57677e-14
-1.63021e-14
-1.63853e-14
-1.68876e-14
-1.71352e-14
-1.77132e-14
-1.84464e-14
-1.85452e-14
-1.91127e-14
-1.99391e-14
-2.02788e-14
-2.04684e-14
-2.1258e-14
-2.186e-14
-2.20842e-14
-2.25283e-14
-2.30195e-14
-2.35587e-14
-2.42617e-14
-2.49713e-14
-2.52799e-14
-2.58634e-14
-2.62188e-14
-2.66641e-14
-2.72224e-14
-2.76524e-14
-2.85357e-14
-2.99371e-14
-3.05682e-14
-3.10996e-14
-3.23227e-14
-3.31166e-14
-3.38811e-14
-3.46842e-14
-3.58181e-14
-3.67081e-14
-3.7286e-14
-3.81433e-14
-3.89273e-14
-3.95115e-14
-4.03934e-14
-4.12089e-14
-4.15547e-14
-4.26227e-14
-4.4034e-14
-4.46396e-14
-4.55338e-14
-4.6459e-14
-4.67811e-14
-4.74163e-14
-4.83515e-14
-4.91834e-14
-5.03347e-14
-5.17098e-14
-5.22293e-14
-5.31907e-14
-5.42982e-14
-5.46004e-14
-5.57805e-14
-5.69711e-14
-5.75308e-14
-5.88955e-14
-6.02907e-14
-6.09681e-14
-6.17187e-14
-6.30536e-14
-6.35417e-14
-6.43351e-14
-6.54104e-14
-6.63421e-14
-6.71628e-14
-6.80497e-14
-6.91192e-14
-6.9767e-14
-7.05817e-14
-7.12071e-14
-7.20636e-14
-7.27564e-14
-7.38672e-14
-7.47689e-14
-7.55669e-14
-7.65652e-14
-7.71354e-14
-7.8135e-14
-7.93383e-14
-8.04631e-14
-8.14846e-14
-8.29418e-14
-8.35266e-14
-8.45344e-14
-8.59315e-14
-8.64357e-14
-8.77461e-14
-8.89245e-14
-9.01652e-14
-9.14744e-14
-9.25179e-14
-9.32199e-14
-9.44099e-14
-9.51559e-14
-9.57154e-14
-9.6757e-14
-9.73388e-14
-9.77444e-14
-9.88471e-14
-9.96041e-14
-1.00138e-13
-1.00986e-13
-1.01432e-13
-1.01872e-13
-1.02408e-13
-1.03236e-13
-1.04257e-13
-1.04343e-13
-1.04751e-13
-1.05512e-13
-1.05748e-13
-1.06354e-13
-1.06953e-13
-1.06946e-13
-1.07676e-13
-1.08417e-13
-1.087e-13
-1.09235e-13
-1.09509e-13
-1.09889e-13
-1.10627e-13
-1.10903e-13
-1.11158e-13
-1.11825e-13
-1.11794e-13
-1.11816e-13
-1.12335e-13
-1.12649e-13
-1.12799e-13
-1.13492e-13
-1.13897e-13
-1.14247e-13
-1.1438e-13
-1.14477e-13
-1.1477e-13
-1.14601e-13
-1.14563e-13
-1.14385e-13
-1.14439e-13
-1.14769e-13
-1.14593e-13
-1.1426e-13
-1.13868e-13
-1.13503e-13
-1.13759e-13
-1.13839e-13
-1.13784e-13
-1.14115e-13
-1.13965e-13
-1.13719e-13
-1.13722e-13
-1.13639e-13
-1.13619e-13
-1.13486e-13
-1.13287e-13
-1.1296e-13
-1.13424e-13
-1.12941e-13
-1.12121e-13
-1.12028e-13
-1.11722e-13
-1.11152e-13
-1.11046e-13
-1.11101e-13
-1.10679e-13
-1.10323e-13
-1.09898e-13
-1.09287e-13
-1.08941e-13
-1.08383e-13
-1.07418e-13
-1.07039e-13
-1.07302e-13
-1.06298e-13
-1.05769e-13
-1.05689e-13
-1.04924e-13
-1.05076e-13
-1.0489e-13
-1.03914e-13
-1.03417e-13
-1.03438e-13
-1.02959e-13
-1.02551e-13
-1.02381e-13
-1.01524e-13
-1.00916e-13
-1.00802e-13
-1.00283e-13
-9.96072e-14
-9.88889e-14
-9.8219e-14
-9.82128e-14
-9.76635e-14
-9.70636e-14
-9.64735e-14
-9.62191e-14
-9.58833e-14
-9.5284e-14
-9.47097e-14
-9.43236e-14
-9.38459e-14
-9.34814e-14
-9.32416e-14
-9.25315e-14
-9.19085e-14
-9.14726e-14
-9.10268e-14
-9.01603e-14
-8.93392e-14
-8.89154e-14
-8.80892e-14
-8.72582e-14
-8.65441e-14
-8.60489e-14
-8.53481e-14
-8.47553e-14
-8.37312e-14
-8.30556e-14
-8.23316e-14
-8.13102e-14
-8.07e-14
-7.94486e-14
-7.8191e-14
-7.73439e-14
-7.63558e-14
-7.48772e-14
-7.45541e-14
-7.34615e-14
-7.12159e-14
-7.01972e-14
-6.93408e-14
-6.7559e-14
-6.56661e-14
-6.37089e-14
-6.15976e-14
-6.00986e-14
-5.82049e-14
-5.54035e-14
-5.22693e-14
-4.94588e-14
-4.62807e-14
-4.17003e-14
-3.70921e-14
-3.19884e-14
-2.61726e-14
-2.7301e-14
-2.74684e-14
-3.02412e-14
-3.35496e-14
-3.66729e-14
-3.89601e-14
-4.10403e-14
-4.26423e-14
-4.38428e-14
-4.50237e-14
-4.57625e-14
-4.61814e-14
-4.7001e-14
-4.75255e-14
-4.79173e-14
-4.83649e-14
-4.87397e-14
-4.94096e-14
-4.98207e-14
-5.02237e-14
-5.05739e-14
-5.07148e-14
-5.09017e-14
-5.09093e-14
-5.10515e-14
-5.10566e-14
-5.10621e-14
-5.07959e-14
-5.0561e-14
-5.05815e-14
-5.03257e-14
-5.00147e-14
-5.0031e-14
-4.97071e-14
-4.9546e-14
-4.95136e-14
-4.92802e-14
-4.93573e-14
-4.93377e-14
-4.92975e-14
-4.91522e-14
-4.90528e-14
-4.92497e-14
-4.93525e-14
-4.91349e-14
-4.89533e-14
-4.87573e-14
-4.8522e-14
-4.84475e-14
-4.83661e-14
-4.80686e-14
-4.76904e-14
-4.73261e-14
-4.72682e-14
-4.71051e-14
-4.69436e-14
-4.67327e-14
-4.65017e-14
-4.6255e-14
-4.596e-14
-4.59071e-14
-4.56684e-14
-4.55627e-14
-4.55989e-14
-4.56705e-14
-4.5277e-14
-4.51996e-14
-4.51546e-14
-4.49046e-14
-4.47131e-14
-4.46226e-14
-4.44663e-14
-4.40694e-14
-4.43006e-14
-4.40939e-14
-4.3653e-14
-4.36925e-14
-4.35582e-14
-4.31848e-14
-4.32934e-14
-4.32177e-14
-4.31173e-14
-4.26532e-14
-4.24044e-14
-4.22148e-14
-4.21016e-14
-4.20238e-14
-4.17328e-14
-4.16902e-14
-4.15766e-14
-4.12055e-14
-4.09498e-14
-4.06421e-14
-4.04549e-14
-4.04182e-14
-3.98274e-14
-3.94255e-14
-3.89392e-14
-3.87551e-14
-3.85654e-14
-3.79267e-14
-3.74726e-14
-3.71605e-14
-3.6603e-14
-3.62256e-14
-3.59813e-14
-3.50299e-14
-3.4431e-14
-3.39799e-14
-3.32698e-14
-3.27302e-14
-3.21292e-14
-3.1659e-14
-3.08423e-14
-3.03156e-14
-2.9741e-14
-2.89462e-14
-2.84109e-14
-2.79658e-14
-2.73588e-14
-2.68594e-14
-2.63225e-14
-2.55183e-14
-2.51349e-14
-2.46012e-14
-2.41236e-14
-2.36379e-14
-2.28114e-14
-2.22557e-14
-2.19323e-14
-2.13485e-14
-2.04734e-14
-1.98002e-14
-1.93187e-14
-1.87076e-14
-1.81017e-14
-1.74621e-14
-1.70096e-14
-1.65539e-14
-1.60344e-14
-1.52151e-14
-1.50122e-14
-1.47498e-14
-1.40797e-14
-1.34798e-14
-1.299e-14
-1.25195e-14
-1.21227e-14
-1.16556e-14
-1.09708e-14
-1.01307e-14
-9.30314e-15
-8.64039e-15
-8.12565e-15
-7.51266e-15
-6.88701e-15
-6.42495e-15
-6.12527e-15
-5.58168e-15
-5.32898e-15
-4.98607e-15
-4.25749e-15
-3.69585e-15
-3.35948e-15
-2.79206e-15
-2.59419e-15
-2.34848e-15
-2.21441e-15
-1.80864e-15
-1.51732e-15
-1.1787e-15
-9.38892e-16
-6.26175e-16
-2.57146e-16
-1.54125e-16
3.48185e-17
3.74627e-16
6.42785e-16
1.16202e-15
1.43286e-15
1.44833e-15
1.88417e-15
2.02778e-15
2.42271e-15
2.66239e-15
2.96951e-15
3.18731e-15
3.36567e-15
3.23622e-15
2.88135e-15
2.72601e-15
2.36239e-15
1.99916e-15
1.66514e-15
1.35746e-15
1.58959e-15
1.6092e-15
1.07255e-15
1.38812e-15
1.43672e-15
9.79773e-16
8.67647e-16
7.02181e-16
6.8626e-17
-3.43557e-16
-6.18093e-16
-1.13282e-15
-1.18299e-15
-1.32658e-15
-1.96369e-15
-2.16008e-15
-2.47989e-15
-2.7506e-15
-2.89215e-15
-3.53486e-15
-4.06186e-15
-4.3465e-15
-4.2038e-15
-4.91026e-15
-5.62076e-15
-6.25777e-15
-6.31122e-15
-6.68618e-15
-6.87189e-15
-7.0657e-15
-7.38443e-15
-7.71439e-15
-8.00934e-15
-8.4194e-15
-9.31232e-15
-9.39245e-15
-9.35344e-15
-1.00149e-14
-1.04481e-14
-1.07251e-14
-1.06513e-14
-1.09059e-14
-1.16718e-14
-1.20232e-14
-1.19551e-14
-1.26468e-14
-1.32071e-14
-1.34233e-14
-1.3976e-14
-1.44224e-14
-1.48802e-14
-1.48109e-14
-1.51596e-14
-1.56341e-14
-1.61978e-14
-1.63286e-14
-1.69671e-14
-1.71825e-14
-1.77579e-14
-1.85792e-14
-1.85408e-14
-1.89127e-14
-1.98944e-14
-2.03101e-14
-2.06995e-14
-2.10945e-14
-2.1696e-14
-2.22214e-14
-2.24888e-14
-2.30189e-14
-2.37397e-14
-2.40651e-14
-2.48825e-14
-2.54498e-14