/*--------------------------------*- C++ -*----------------------------------*\
| =========                 |                                                 |
| \\      /  F ield         | OpenFOAM: The Open Source CFD Toolbox           |
|  \\    /   O peration     | Version:  2112                                  |
|   \\  /    A nd           | Website:  www.openfoam.com                      |
|    \\/     M anipulation  |                                                 |
\*---------------------------------------------------------------------------*/
FoamFile
{
    version     2.0;
    format      ascii;
    arch        "LSB;label=32;scalar=64";
    class       volScalarField;
    location    "9";
    object      p;
}
// * * * * * * * * * * * * * * * * * * * * * * * * * * * * * * * * * * * * * //

dimensions      [0 2 -2 0 0 0 0];

internalField   nonuniform List<scalar> 
25600
(
-1.0897e-13
-2.25964e-13
-2.67538e-13
-2.89838e-13
-3.06836e-13
-3.19786e-13
-3.30718e-13
-3.4087e-13
-3.49242e-13
-3.57177e-13
-3.65531e-13
-3.73724e-13
-3.81461e-13
-3.8733e-13
-3.92612e-13
-3.99337e-13
-4.05839e-13
-4.11233e-13
-4.1658e-13
-4.23021e-13
-4.29591e-13
-4.34693e-13
-4.38923e-13
-4.42975e-13
-4.47537e-13
-4.53e-13
-4.58699e-13
-4.62165e-13
-4.66456e-13
-4.72347e-13
-4.79482e-13
-4.8487e-13
-4.88481e-13
-4.92544e-13
-4.97544e-13
-5.01837e-13
-5.06284e-13
-5.09055e-13
-5.12798e-13
-5.18479e-13
-5.2245e-13
-5.27821e-13
-5.33163e-13
-5.36649e-13
-5.41382e-13
-5.448e-13
-5.48644e-13
-5.53233e-13
-5.57365e-13
-5.61189e-13
-5.66091e-13
-5.72529e-13
-5.75531e-13
-5.79291e-13
-5.83679e-13
-5.8576e-13
-5.90481e-13
-5.93956e-13
-5.97458e-13
-6.01652e-13
-6.03509e-13
-6.09524e-13
-6.12387e-13
-6.15883e-13
-6.2046e-13
-6.21176e-13
-6.24206e-13
-6.26244e-13
-6.28303e-13
-6.30999e-13
-6.32011e-13
-6.34604e-13
-6.37083e-13
-6.40666e-13
-6.45943e-13
-6.45848e-13
-6.47819e-13
-6.52296e-13
-6.53929e-13
-6.57862e-13
-6.59257e-13
-6.6166e-13
-6.67699e-13
-6.71493e-13
-6.74433e-13
-6.75972e-13
-6.77638e-13
-6.80879e-13
-6.85426e-13
-6.884e-13
-6.866e-13
-6.87186e-13
-6.92803e-13
-6.96928e-13
-6.97193e-13
-6.97083e-13
-7.00738e-13
-7.0275e-13
-7.05562e-13
-7.06168e-13
-7.04433e-13
-7.08229e-13
-7.10024e-13
-7.13861e-13
-7.16868e-13
-7.18361e-13
-7.1968e-13
-7.24427e-13
-7.29514e-13
-7.30896e-13
-7.32644e-13
-7.30994e-13
-7.39133e-13
-7.45111e-13
-7.45036e-13
-7.45349e-13
-7.46248e-13
-7.53612e-13
-7.6038e-13
-7.60721e-13
-7.60291e-13
-7.623e-13
-7.69539e-13
-7.77618e-13
-7.77914e-13
-7.76513e-13
-7.78198e-13
-7.86288e-13
-7.93106e-13
-7.92238e-13
-7.92187e-13
-7.94342e-13
-8.00262e-13
-8.04183e-13
-8.03265e-13
-8.04685e-13
-8.05676e-13
-8.10918e-13
-8.16975e-13
-8.16804e-13
-8.17476e-13
-8.19147e-13
-8.24665e-13
-8.27959e-13
-8.28126e-13
-8.29689e-13
-8.29601e-13
-8.33692e-13
-8.36034e-13
-8.37599e-13
-8.40146e-13
-8.36171e-13
-8.37509e-13
-8.42978e-13
-8.4555e-13
-8.46899e-13
-8.44689e-13
-8.45205e-13
-8.49344e-13
-8.49935e-13
-8.501e-13
-8.44615e-13
-8.46677e-13
-8.50315e-13
-8.45274e-13
-8.47786e-13
-8.45093e-13
-8.43299e-13
-8.45972e-13
-8.43294e-13
-8.40896e-13
-8.35968e-13
-8.36823e-13
-8.36059e-13
-8.31665e-13
-8.3013e-13
-8.28884e-13
-8.32456e-13
-8.26904e-13
-8.25196e-13
-8.26727e-13
-8.20108e-13
-8.2449e-13
-8.27295e-13
-8.25616e-13
-8.29561e-13
-8.2467e-13
-8.27462e-13
-8.30921e-13
-8.26582e-13
-8.31039e-13
-8.30221e-13
-8.29293e-13
-8.34573e-13
-8.31198e-13
-8.30646e-13
-8.2915e-13
-8.31121e-13
-8.34886e-13
-8.27154e-13
-8.2773e-13
-8.25647e-13
-8.2743e-13
-8.29542e-13
-8.2036e-13
-8.16443e-13
-8.17033e-13
-8.2105e-13
-8.2009e-13
-8.12657e-13
-8.08261e-13
-8.07802e-13
-8.14991e-13
-8.04994e-13
-7.94518e-13
-8.02978e-13
-7.94616e-13
-7.87293e-13
-7.83548e-13
-7.80074e-13
-7.88334e-13
-7.78024e-13
-7.6662e-13
-7.62604e-13
-7.5832e-13
-7.65797e-13
-7.54825e-13
-7.46333e-13
-7.45646e-13
-7.3909e-13
-7.42701e-13
-7.33684e-13
-7.29416e-13
-7.27953e-13
-7.1847e-13
-7.22477e-13
-7.18285e-13
-7.13774e-13
-7.07423e-13
-6.94531e-13
-6.96626e-13
-6.87076e-13
-6.8253e-13
-6.78149e-13
-6.62401e-13
-6.64842e-13
-6.63169e-13
-6.57775e-13
-6.47847e-13
-6.35286e-13
-6.39899e-13
-6.29932e-13
-6.20994e-13
-6.17669e-13
-6.11376e-13
-6.18274e-13
-6.07051e-13
-6.00245e-13
-5.97475e-13
-5.85363e-13
-5.88198e-13
-5.81447e-13
-5.74989e-13
-5.70432e-13
-5.62528e-13
-5.6645e-13
-5.57183e-13
-5.48006e-13
-5.42119e-13
-5.33924e-13
-5.37186e-13
-5.30713e-13
-5.24497e-13
-5.18363e-13
-5.09947e-13
-5.12511e-13
-5.0615e-13
-5.00142e-13
-4.98632e-13
-4.90253e-13
-4.91741e-13
-4.88506e-13
-4.8261e-13
-4.80107e-13
-4.72967e-13
-4.75232e-13
-4.72466e-13
-4.6379e-13
-4.55916e-13
-4.51881e-13
-4.54862e-13
-4.4717e-13
-4.3815e-13
-4.32522e-13
-4.29393e-13
-4.29923e-13
-4.20919e-13
-4.13207e-13
-4.05963e-13
-4.03744e-13
-4.06312e-13
-3.98096e-13
-3.90269e-13
-3.78872e-13
-3.73493e-13
-3.73681e-13
-3.66617e-13
-3.61712e-13
-3.4961e-13
-3.45642e-13
-3.41171e-13
-3.31357e-13
-3.30202e-13
-3.18743e-13
-3.09266e-13
-3.05625e-13
-2.93166e-13
-2.83155e-13
-2.60059e-13
-2.19006e-13
-1.85095e-13
-2.37338e-13
-2.69209e-13
-2.90298e-13
-3.06977e-13
-3.19973e-13
-3.30873e-13
-3.40882e-13
-3.4923e-13
-3.5705e-13
-3.65524e-13
-3.73876e-13
-3.81456e-13
-3.87219e-13
-3.92805e-13
-3.99163e-13
-4.05677e-13
-4.1095e-13
-4.16658e-13
-4.23147e-13
-4.29447e-13
-4.3459e-13
-4.39133e-13
-4.43223e-13
-4.48063e-13
-4.53093e-13
-4.58185e-13
-4.62189e-13
-4.67011e-13
-4.72706e-13
-4.79456e-13
-4.84547e-13
-4.88363e-13
-4.92668e-13
-4.97696e-13
-5.01862e-13
-5.06061e-13
-5.09403e-13
-5.12933e-13
-5.18068e-13
-5.22535e-13
-5.27817e-13
-5.33408e-13
-5.36998e-13
-5.4079e-13
-5.45025e-13
-5.4869e-13
-5.53346e-13
-5.57552e-13
-5.61294e-13
-5.67034e-13
-5.72275e-13
-5.75395e-13
-5.79191e-13
-5.83186e-13
-5.8655e-13
-5.90863e-13
-5.94131e-13
-5.97371e-13
-6.01135e-13
-6.04114e-13
-6.09482e-13
-6.12344e-13
-6.15873e-13
-6.19979e-13
-6.21178e-13
-6.24381e-13
-6.26279e-13
-6.27998e-13
-6.30656e-13
-6.32008e-13
-6.3467e-13
-6.37012e-13
-6.40932e-13
-6.45533e-13
-6.46333e-13
-6.48598e-13
-6.51706e-13
-6.53896e-13
-6.5736e-13
-6.59775e-13
-6.62804e-13
-6.67677e-13
-6.7093e-13
-6.7348e-13
-6.7578e-13
-6.79156e-13
-6.81415e-13
-6.8404e-13
-6.87082e-13
-6.86864e-13
-6.88487e-13
-6.92924e-13
-6.95528e-13
-6.97188e-13
-6.98445e-13
-7.00986e-13
-7.02432e-13
-7.04099e-13
-7.0559e-13
-7.0644e-13
-7.08175e-13
-7.10205e-13
-7.12822e-13
-7.16401e-13
-7.18962e-13
-7.20261e-13
-7.23689e-13
-7.28686e-13
-7.31207e-13
-7.32388e-13
-7.3286e-13
-7.383e-13
-7.42983e-13
-7.45131e-13
-7.46362e-13
-7.47261e-13
-7.52773e-13
-7.59598e-13
-7.61101e-13
-7.60577e-13
-7.63351e-13
-7.69493e-13
-7.7614e-13
-7.77477e-13
-7.77338e-13
-7.79031e-13
-7.86228e-13
-7.91767e-13
-7.91918e-13
-7.92965e-13
-7.9503e-13
-7.99594e-13
-8.03644e-13
-8.04064e-13
-8.04988e-13
-8.06061e-13
-8.10858e-13
-8.16922e-13
-8.17105e-13
-8.17487e-13
-8.1942e-13
-8.248e-13
-8.27622e-13
-8.28279e-13
-8.29263e-13
-8.30305e-13
-8.34634e-13
-8.36078e-13
-8.36589e-13
-8.39009e-13
-8.37698e-13
-8.39258e-13
-8.42314e-13
-8.44471e-13
-8.46038e-13
-8.45178e-13
-8.45889e-13
-8.48942e-13
-8.49446e-13
-8.48739e-13
-8.45625e-13
-8.47121e-13
-8.4924e-13
-8.46247e-13
-8.46786e-13
-8.45692e-13
-8.44441e-13
-8.44515e-13
-8.42728e-13
-8.39739e-13
-8.36908e-13
-8.36846e-13
-8.36335e-13
-8.32853e-13
-8.29183e-13
-8.29123e-13
-8.3051e-13
-8.2761e-13
-8.26973e-13
-8.24477e-13
-8.21038e-13
-8.24709e-13
-8.27487e-13
-8.26362e-13
-8.26979e-13
-8.2581e-13
-8.27518e-13
-8.29753e-13
-8.29058e-13
-8.30189e-13
-8.3019e-13
-8.30016e-13
-8.32211e-13
-8.32221e-13
-8.30995e-13
-8.30454e-13
-8.30567e-13
-8.31236e-13
-8.29498e-13
-8.28447e-13
-8.26843e-13
-8.27059e-13
-8.25863e-13
-8.22202e-13
-8.19062e-13
-8.17956e-13
-8.18704e-13
-8.17202e-13
-8.14023e-13
-8.11481e-13
-8.08985e-13
-8.111e-13
-8.0488e-13
-7.97964e-13
-7.99209e-13
-7.92946e-13
-7.90265e-13
-7.8562e-13
-7.81098e-13
-7.84162e-13
-7.76125e-13
-7.69321e-13
-7.64706e-13
-7.59359e-13
-7.61693e-13
-7.54122e-13
-7.4723e-13
-7.45338e-13
-7.40725e-13
-7.41064e-13
-7.33845e-13
-7.29776e-13
-7.27156e-13
-7.20208e-13
-7.20744e-13
-7.17257e-13
-7.14856e-13
-7.0766e-13
-6.96166e-13
-6.94522e-13
-6.86686e-13
-6.82769e-13
-6.77516e-13
-6.65147e-13
-6.65134e-13
-6.61273e-13
-6.55989e-13
-6.48095e-13
-6.37915e-13
-6.38734e-13
-6.29646e-13
-6.21219e-13
-6.17134e-13
-6.13722e-13
-6.1705e-13
-6.06475e-13
-6.0006e-13
-5.96636e-13
-5.87734e-13
-5.87101e-13
-5.80278e-13
-5.75459e-13
-5.70185e-13
-5.64353e-13
-5.65351e-13
-5.55331e-13
-5.48656e-13
-5.43302e-13
-5.34952e-13
-5.36104e-13
-5.29805e-13
-5.25061e-13
-5.18867e-13
-5.1044e-13
-5.11987e-13
-5.05566e-13
-5.01691e-13
-4.97792e-13
-4.89959e-13
-4.91713e-13
-4.86995e-13
-4.83618e-13
-4.80702e-13
-4.73795e-13
-4.75811e-13
-4.70313e-13
-4.62823e-13
-4.57571e-13
-4.53353e-13
-4.53722e-13
-4.45798e-13
-4.38378e-13
-4.35219e-13
-4.29262e-13
-4.27426e-13
-4.21825e-13
-4.1235e-13
-4.08547e-13
-4.037e-13
-4.0351e-13
-3.98543e-13
-3.89231e-13
-3.8061e-13
-3.75309e-13
-3.74015e-13
-3.65962e-13
-3.5922e-13
-3.50711e-13
-3.45849e-13
-3.41664e-13
-3.32292e-13
-3.2798e-13
-3.20381e-13
-3.10641e-13
-3.0396e-13
-2.93821e-13
-2.83401e-13
-2.62412e-13
-2.31651e-13
-2.19427e-13
-2.48444e-13
-2.73468e-13
-2.92625e-13
-3.08099e-13
-3.20723e-13
-3.31477e-13
-3.41197e-13
-3.49497e-13
-3.57161e-13
-3.65751e-13
-3.74208e-13
-3.81749e-13
-3.87325e-13
-3.92773e-13
-3.99177e-13
-4.05319e-13
-4.10732e-13
-4.16977e-13
-4.23209e-13
-4.29515e-13
-4.34851e-13
-4.39355e-13
-4.43314e-13
-4.48307e-13
-4.53122e-13
-4.5805e-13
-4.62087e-13
-4.67558e-13
-4.73145e-13
-4.79576e-13
-4.84421e-13
-4.88243e-13
-4.92545e-13
-4.98015e-13
-5.02125e-13
-5.05861e-13
-5.09658e-13
-5.12974e-13
-5.17448e-13
-5.22619e-13
-5.2792e-13
-5.33573e-13
-5.37196e-13
-5.40654e-13
-5.45147e-13
-5.48678e-13
-5.53308e-13
-5.57483e-13
-5.6163e-13
-5.67782e-13
-5.72252e-13
-5.75268e-13
-5.79215e-13
-5.82869e-13
-5.86936e-13
-5.91147e-13
-5.94465e-13
-5.97382e-13
-6.00893e-13
-6.04353e-13
-6.09411e-13
-6.12493e-13
-6.16099e-13
-6.19557e-13
-6.21086e-13
-6.24576e-13
-6.26248e-13
-6.27696e-13
-6.30252e-13
-6.32122e-13
-6.34684e-13
-6.37129e-13
-6.40882e-13
-6.45041e-13
-6.47233e-13
-6.49271e-13
-6.51163e-13
-6.53764e-13
-6.57043e-13
-6.59987e-13
-6.63702e-13
-6.67509e-13
-6.70468e-13
-6.73227e-13
-6.75567e-13
-6.79615e-13
-6.82136e-13
-6.83502e-13
-6.86146e-13
-6.86867e-13
-6.88943e-13
-6.92831e-13
-6.95096e-13
-6.9729e-13
-6.98834e-13
-7.01123e-13
-7.02354e-13
-7.03474e-13
-7.05377e-13
-7.07097e-13
-7.08181e-13
-7.10286e-13
-7.1254e-13
-7.15977e-13
-7.18949e-13
-7.20656e-13
-7.23408e-13
-7.28399e-13
-7.31311e-13
-7.32368e-13
-7.33971e-13
-7.37497e-13
-7.4128e-13
-7.45061e-13
-7.4672e-13
-7.47818e-13
-7.52739e-13
-7.5882e-13
-7.61252e-13
-7.61052e-13
-7.64184e-13
-7.69205e-13
-7.74568e-13
-7.76919e-13
-7.77879e-13
-7.80696e-13
-7.86097e-13
-7.9028e-13
-7.91563e-13
-7.93594e-13
-7.96052e-13
-7.99291e-13
-8.02802e-13
-8.04617e-13
-8.05517e-13
-8.06641e-13
-8.11244e-13
-8.1653e-13
-8.1697e-13
-8.17822e-13
-8.19941e-13
-8.25047e-13
-8.27318e-13
-8.2811e-13
-8.29611e-13
-8.30828e-13
-8.34566e-13
-8.36205e-13
-8.36209e-13
-8.38069e-13
-8.38833e-13
-8.40663e-13
-8.41964e-13
-8.44041e-13
-8.45028e-13
-8.4551e-13
-8.46489e-13
-8.48823e-13
-8.49128e-13
-8.47827e-13
-8.46203e-13
-8.47699e-13
-8.4863e-13
-8.46292e-13
-8.46269e-13
-8.45844e-13
-8.44915e-13
-8.4346e-13
-8.42062e-13
-8.39526e-13
-8.36986e-13
-8.36824e-13
-8.36371e-13
-8.32924e-13
-8.29778e-13
-8.29538e-13
-8.28519e-13
-8.27528e-13
-8.27701e-13
-8.23831e-13
-8.2205e-13
-8.24609e-13
-8.27167e-13
-8.26122e-13
-8.25374e-13
-8.26659e-13
-8.2796e-13
-8.29164e-13
-8.30025e-13
-8.30012e-13
-8.30198e-13
-8.29964e-13
-8.30968e-13
-8.3286e-13
-8.31325e-13
-8.30907e-13
-8.3037e-13
-8.29871e-13
-8.30391e-13
-8.2891e-13
-8.27235e-13
-8.26752e-13
-8.24371e-13
-8.22901e-13
-8.20682e-13
-8.18435e-13
-8.17412e-13
-8.15926e-13
-8.14688e-13
-8.13008e-13
-8.09594e-13
-8.09064e-13
-8.04605e-13
-7.99551e-13
-7.97214e-13
-7.92539e-13
-7.91846e-13
-7.86815e-13
-7.81649e-13
-7.81716e-13
-7.74957e-13
-7.71071e-13
-7.65978e-13
-7.59818e-13
-7.59169e-13
-7.53223e-13
-7.47815e-13
-7.45576e-13
-7.41418e-13
-7.39677e-13
-7.33761e-13
-7.29367e-13
-7.26672e-13
-7.21746e-13
-7.20155e-13
-7.16855e-13
-7.14891e-13
-7.07237e-13
-6.97316e-13
-6.94186e-13
-6.86483e-13
-6.82286e-13
-6.76746e-13
-6.67506e-13
-6.65246e-13
-6.59757e-13
-6.55011e-13
-6.48461e-13
-6.39302e-13
-6.36928e-13
-6.29376e-13
-6.22157e-13
-6.17898e-13
-6.14963e-13
-6.14669e-13
-6.0607e-13
-6.00807e-13
-5.96755e-13
-5.88943e-13
-5.85304e-13
-5.79343e-13
-5.76264e-13
-5.70549e-13
-5.6511e-13
-5.6395e-13
-5.54273e-13
-5.49119e-13
-5.43595e-13
-5.3584e-13
-5.35634e-13
-5.29671e-13
-5.24658e-13
-5.19074e-13
-5.11222e-13
-5.11618e-13
-5.05233e-13
-5.01981e-13
-4.97287e-13
-4.90184e-13
-4.91539e-13
-4.8618e-13
-4.83521e-13
-4.81051e-13
-4.75169e-13
-4.75634e-13
-4.68967e-13
-4.62172e-13
-4.59254e-13
-4.54361e-13
-4.52662e-13
-4.45398e-13
-4.39478e-13
-4.36145e-13
-4.28555e-13
-4.26318e-13
-4.21985e-13
-4.12614e-13
-4.09231e-13
-4.03948e-13
-4.0174e-13
-3.97529e-13
-3.89079e-13
-3.82467e-13
-3.77204e-13
-3.74372e-13
-3.65223e-13
-3.57962e-13
-3.51943e-13
-3.45736e-13
-3.42222e-13
-3.3311e-13
-3.26575e-13
-3.21849e-13
-3.11628e-13
-3.04045e-13
-2.95578e-13
-2.85227e-13
-2.67438e-13
-2.43752e-13
-2.41346e-13
-2.59687e-13
-2.79105e-13
-2.95521e-13
-3.09792e-13
-3.22186e-13
-3.32736e-13
-3.41601e-13
-3.49742e-13
-3.57722e-13
-3.66245e-13
-3.74801e-13
-3.82326e-13
-3.87401e-13
-3.93271e-13
-3.98871e-13
-4.05247e-13
-4.10651e-13
-4.17082e-13
-4.23706e-13
-4.2991e-13
-4.35276e-13
-4.39318e-13
-4.43408e-13
-4.48404e-13
-4.52754e-13
-4.57949e-13
-4.62142e-13
-4.68052e-13
-4.73414e-13
-4.79944e-13
-4.84276e-13
-4.88393e-13
-4.92542e-13
-4.98233e-13
-5.028e-13
-5.06071e-13
-5.09386e-13
-5.13033e-13
-5.17225e-13
-5.22284e-13
-5.27854e-13
-5.33486e-13
-5.37502e-13
-5.40921e-13
-5.44899e-13
-5.4843e-13
-5.53292e-13
-5.57481e-13
-5.61724e-13
-5.68063e-13
-5.72636e-13
-5.75309e-13
-5.79305e-13
-5.83083e-13
-5.86928e-13
-5.91393e-13
-5.94882e-13
-5.97739e-13
-6.00647e-13
-6.04207e-13
-6.09509e-13
-6.1241e-13
-6.16407e-13
-6.19656e-13
-6.20674e-13
-6.24481e-13
-6.26115e-13
-6.27385e-13
-6.29509e-13
-6.32579e-13
-6.35036e-13
-6.37494e-13
-6.40739e-13
-6.448e-13
-6.47547e-13
-6.49504e-13
-6.51435e-13
-6.53852e-13
-6.56743e-13
-6.60232e-13
-6.63659e-13
-6.66962e-13
-6.70652e-13
-6.73311e-13
-6.75847e-13
-6.79003e-13
-6.81807e-13
-6.84011e-13
-6.86026e-13
-6.87046e-13
-6.89012e-13
-6.92585e-13
-6.94852e-13
-6.97633e-13
-6.98776e-13
-7.00993e-13
-7.02107e-13
-7.03624e-13
-7.05335e-13
-7.07026e-13
-7.08214e-13
-7.10117e-13
-7.12033e-13
-7.15629e-13
-7.18591e-13
-7.21444e-13
-7.23654e-13
-7.27744e-13
-7.30859e-13
-7.32737e-13
-7.34589e-13
-7.36967e-13
-7.4069e-13
-7.44673e-13
-7.46287e-13
-7.48703e-13
-7.5359e-13
-7.57879e-13
-7.60325e-13
-7.6173e-13
-7.64918e-13
-7.68253e-13
-7.73799e-13
-7.77108e-13
-7.77736e-13
-7.81712e-13
-7.86578e-13
-7.89076e-13
-7.91543e-13
-7.94198e-13
-7.96483e-13
-7.99479e-13
-8.01943e-13
-8.04414e-13
-8.06321e-13
-8.079e-13
-8.11735e-13
-8.1498e-13
-8.16473e-13
-8.18613e-13
-8.21809e-13
-8.24852e-13
-8.2621e-13
-8.2836e-13
-8.29695e-13
-8.31945e-13
-8.34013e-13
-8.35879e-13
-8.3643e-13
-8.38226e-13
-8.39085e-13
-8.40445e-13
-8.41727e-13
-8.44167e-13
-8.44831e-13
-8.46353e-13
-8.46787e-13
-8.48412e-13
-8.48992e-13
-8.47476e-13
-8.47259e-13
-8.48371e-13
-8.47272e-13
-8.45603e-13
-8.4632e-13
-8.4558e-13
-8.44717e-13
-8.43453e-13
-8.4209e-13
-8.39939e-13
-8.36494e-13
-8.37002e-13
-8.35529e-13
-8.31804e-13
-8.30505e-13
-8.29863e-13
-8.28849e-13
-8.27513e-13
-8.26757e-13
-8.24077e-13
-8.22511e-13
-8.24047e-13
-8.26257e-13
-8.25648e-13
-8.25236e-13
-8.26559e-13
-8.28379e-13
-8.29124e-13
-8.29596e-13
-8.3042e-13
-8.3032e-13
-8.29786e-13
-8.30348e-13
-8.32555e-13
-8.32132e-13
-8.30335e-13
-8.30512e-13
-8.30686e-13
-8.30042e-13
-8.28762e-13
-8.27375e-13
-8.2633e-13
-8.24469e-13
-8.22994e-13
-8.20754e-13
-8.18423e-13
-8.17447e-13
-8.16268e-13
-8.1422e-13
-8.12528e-13
-8.10377e-13
-8.08554e-13
-8.04634e-13
-8.00007e-13
-7.97281e-13
-7.93238e-13
-7.90853e-13
-7.86322e-13
-7.82322e-13
-7.80987e-13
-7.75234e-13
-7.70999e-13
-7.66395e-13
-7.60326e-13
-7.57695e-13
-7.52627e-13
-7.49004e-13
-7.45954e-13
-7.40356e-13
-7.37663e-13
-7.33491e-13
-7.29331e-13
-7.27271e-13
-7.23496e-13
-7.20322e-13
-7.16242e-13
-7.12891e-13
-7.07522e-13
-6.98548e-13
-6.92916e-13
-6.86518e-13
-6.83306e-13
-6.76387e-13
-6.68505e-13
-6.63789e-13
-6.5886e-13
-6.55239e-13
-6.4901e-13
-6.39466e-13
-6.35733e-13
-6.29082e-13
-6.22392e-13
-6.18583e-13
-6.16129e-13
-6.12241e-13
-6.06326e-13
-6.01432e-13
-5.96813e-13
-5.90121e-13
-5.83856e-13
-5.79481e-13
-5.76549e-13
-5.69991e-13
-5.64229e-13
-5.63121e-13
-5.55589e-13
-5.48182e-13
-5.42741e-13
-5.37803e-13
-5.35403e-13
-5.29851e-13
-5.2339e-13
-5.18211e-13
-5.13464e-13
-5.1038e-13
-5.04851e-13
-5.01732e-13
-4.96788e-13
-4.92209e-13
-4.89929e-13
-4.86312e-13
-4.83026e-13
-4.80539e-13
-4.77559e-13
-4.73637e-13
-4.68496e-13
-4.6405e-13
-4.6021e-13
-4.5489e-13
-4.50676e-13
-4.45231e-13
-4.41557e-13
-4.36718e-13
-4.28548e-13
-4.24625e-13
-4.21459e-13
-4.1427e-13
-4.09436e-13
-4.04096e-13
-4.00161e-13
-3.97481e-13
-3.89922e-13
-3.82515e-13
-3.78069e-13
-3.73163e-13
-3.65786e-13
-3.59209e-13
-3.52593e-13
-3.46328e-13
-3.41643e-13
-3.3312e-13
-3.27123e-13
-3.22314e-13
-3.13807e-13
-3.06588e-13
-2.97355e-13
-2.87466e-13
-2.73205e-13
-2.55321e-13
-2.58411e-13
-2.70032e-13
-2.85293e-13
-2.99083e-13
-3.12035e-13
-3.24076e-13
-3.3399e-13
-3.42334e-13
-3.50939e-13
-3.57808e-13
-3.66324e-13
-3.7565e-13
-3.82875e-13
-3.88062e-13
-3.93799e-13
-3.99203e-13
-4.05573e-13
-4.10736e-13
-4.17405e-13
-4.24242e-13
-4.30356e-13
-4.35836e-13
-4.39997e-13
-4.43391e-13
-4.48067e-13
-4.5273e-13
-4.57765e-13
-4.62369e-13
-4.68209e-13
-4.73913e-13
-4.7996e-13
-4.84306e-13
-4.88474e-13
-4.93013e-13
-4.98206e-13
-5.03032e-13
-5.06204e-13
-5.0926e-13
-5.13464e-13
-5.17273e-13
-5.21869e-13
-5.27898e-13
-5.33463e-13
-5.37835e-13
-5.4067e-13
-5.45057e-13
-5.48569e-13
-5.53293e-13
-5.57207e-13
-5.6137e-13
-5.68035e-13
-5.72758e-13
-5.75413e-13
-5.79808e-13
-5.83052e-13
-5.87343e-13
-5.91682e-13
-5.95244e-13
-5.98025e-13
-6.0097e-13
-6.04517e-13
-6.08501e-13
-6.12315e-13
-6.16316e-13
-6.19777e-13
-6.2139e-13
-6.23418e-13
-6.26124e-13
-6.2715e-13
-6.28988e-13
-6.33334e-13
-6.35327e-13
-6.37704e-13
-6.40677e-13
-6.44741e-13
-6.47485e-13
-6.49541e-13
-6.51598e-13
-6.54043e-13
-6.56378e-13
-6.60348e-13
-6.63641e-13
-6.66453e-13
-6.70825e-13
-6.73268e-13
-6.75842e-13
-6.78717e-13
-6.81352e-13
-6.84595e-13
-6.86365e-13
-6.86668e-13
-6.8897e-13
-6.92659e-13
-6.94528e-13
-6.97068e-13
-6.9947e-13
-7.00834e-13
-7.01507e-13
-7.03864e-13
-7.05309e-13
-7.06689e-13
-7.0773e-13
-7.09605e-13
-7.12254e-13
-7.15418e-13
-7.18234e-13
-7.2137e-13
-7.24084e-13
-7.27089e-13
-7.30635e-13
-7.32979e-13
-7.35274e-13
-7.3664e-13
-7.40241e-13
-7.44023e-13
-7.46227e-13
-7.49782e-13
-7.53934e-13
-7.56788e-13
-7.59491e-13
-7.62211e-13
-7.65373e-13
-7.68004e-13
-7.73195e-13
-7.77671e-13
-7.77832e-13
-7.81772e-13
-7.86106e-13
-7.88598e-13
-7.92047e-13
-7.95001e-13
-7.95605e-13
-7.99637e-13
-8.01998e-13
-8.04245e-13
-8.06767e-13
-8.09183e-13
-8.12045e-13
-8.1425e-13
-8.16443e-13
-8.19579e-13
-8.22565e-13
-8.24515e-13
-8.25827e-13
-8.28217e-13
-8.30159e-13
-8.33093e-13
-8.34212e-13
-8.35166e-13
-8.3601e-13
-8.38482e-13
-8.40161e-13
-8.39665e-13
-8.41392e-13
-8.44054e-13
-8.45506e-13
-8.47465e-13
-8.46797e-13
-8.48343e-13
-8.48744e-13
-8.46828e-13
-8.47671e-13
-8.48553e-13
-8.46779e-13
-8.45326e-13
-8.45496e-13
-8.45159e-13
-8.44486e-13
-8.44353e-13
-8.4218e-13
-8.39663e-13
-8.37113e-13
-8.36509e-13
-8.34076e-13
-8.31707e-13
-8.30342e-13
-8.30172e-13
-8.29257e-13
-8.27395e-13
-8.25562e-13
-8.23504e-13
-8.23082e-13
-8.23632e-13
-8.24978e-13
-8.25181e-13
-8.26015e-13
-8.25907e-13
-8.27705e-13
-8.29479e-13
-8.29594e-13
-8.30536e-13
-8.30833e-13
-8.30376e-13
-8.30605e-13
-8.31703e-13
-8.32943e-13
-8.29517e-13
-8.30331e-13
-8.315e-13
-8.29703e-13
-8.28417e-13
-8.271e-13
-8.26467e-13
-8.24539e-13
-8.23119e-13
-8.20383e-13
-8.18693e-13
-8.17217e-13
-8.16842e-13
-8.14511e-13
-8.12105e-13
-8.10437e-13
-8.08149e-13
-8.04817e-13
-7.99731e-13
-7.9738e-13
-7.93758e-13
-7.89928e-13
-7.86006e-13
-7.8316e-13
-7.80625e-13
-7.7469e-13
-7.70877e-13
-7.66361e-13
-7.60531e-13
-7.56973e-13
-7.52577e-13
-7.49696e-13
-7.4541e-13
-7.39316e-13
-7.36146e-13
-7.33335e-13
-7.29962e-13
-7.27773e-13
-7.25094e-13
-7.20792e-13
-7.15566e-13
-7.10695e-13
-7.07784e-13
-6.99845e-13
-6.92657e-13
-6.86473e-13
-6.83839e-13
-6.75907e-13
-6.68642e-13
-6.62331e-13
-6.58484e-13
-6.55486e-13
-6.48399e-13
-6.40372e-13
-6.35157e-13
-6.28332e-13
-6.22803e-13
-6.18604e-13
-6.1556e-13
-6.109e-13
-6.06933e-13
-6.01869e-13
-5.96207e-13
-5.91162e-13
-5.85143e-13
-5.79968e-13
-5.75277e-13
-5.68866e-13
-5.6432e-13
-5.62279e-13
-5.56655e-13
-5.4717e-13
-5.42515e-13
-5.39538e-13
-5.34956e-13
-5.29315e-13
-5.22091e-13
-5.17838e-13
-5.15012e-13
-5.09e-13
-5.04882e-13
-5.01067e-13
-4.96119e-13
-4.94361e-13
-4.88361e-13
-4.86501e-13
-4.82867e-13
-4.79944e-13
-4.79966e-13
-4.72576e-13
-4.68439e-13
-4.65405e-13
-4.60871e-13
-4.5526e-13
-4.49636e-13
-4.46034e-13
-4.41867e-13
-4.3665e-13
-4.30109e-13
-4.22664e-13
-4.20842e-13
-4.15724e-13
-4.10135e-13
-4.03965e-13
-3.99117e-13
-3.98012e-13
-3.903e-13
-3.81746e-13
-3.79228e-13
-3.72074e-13
-3.66399e-13
-3.59885e-13
-3.53055e-13
-3.47693e-13
-3.40497e-13
-3.34727e-13
-3.28729e-13
-3.21814e-13
-3.16368e-13
-3.09014e-13
-3.00294e-13
-2.91522e-13
-2.78162e-13
-2.65913e-13
-2.71618e-13
-2.79157e-13
-2.91158e-13
-3.03057e-13
-3.14673e-13
-3.26295e-13
-3.3526e-13
-3.43349e-13
-3.52446e-13
-3.58974e-13
-3.66888e-13
-3.76479e-13
-3.83777e-13
-3.8865e-13
-3.94421e-13
-3.9978e-13
-4.05664e-13
-4.10615e-13
-4.179e-13
-4.24536e-13
-4.30592e-13
-4.36147e-13
-4.40587e-13
-4.43809e-13
-4.4785e-13
-4.52634e-13
-4.58255e-13
-4.62789e-13
-4.68265e-13
-4.73896e-13
-4.80537e-13
-4.84211e-13
-4.8839e-13
-4.93313e-13
-4.9825e-13
-5.03067e-13
-5.0629e-13
-5.10029e-13
-5.13971e-13
-5.17277e-13
-5.21479e-13
-5.28096e-13
-5.33082e-13
-5.37353e-13
-5.4101e-13
-5.45505e-13
-5.48893e-13
-5.52637e-13
-5.5659e-13
-5.61593e-13
-5.68153e-13
-5.7281e-13
-5.75802e-13
-5.80868e-13
-5.83399e-13
-5.87289e-13
-5.9155e-13
-5.94638e-13
-5.98417e-13
-6.01502e-13
-6.04469e-13
-6.07836e-13
-6.12272e-13
-6.16367e-13
-6.19436e-13
-6.21283e-13
-6.23456e-13
-6.25913e-13
-6.27541e-13
-6.29083e-13
-6.32711e-13
-6.35689e-13
-6.38142e-13
-6.40943e-13
-6.4469e-13
-6.46825e-13
-6.49402e-13
-6.51743e-13
-6.53766e-13
-6.56219e-13
-6.60076e-13
-6.6302e-13
-6.65979e-13
-6.70605e-13
-6.73339e-13
-6.76052e-13
-6.79005e-13
-6.81638e-13
-6.84812e-13
-6.86854e-13
-6.86657e-13
-6.88678e-13
-6.9254e-13
-6.94378e-13
-6.96967e-13
-6.98981e-13
-7.00779e-13
-7.01596e-13
-7.04022e-13
-7.04969e-13
-7.06321e-13
-7.07658e-13
-7.09316e-13
-7.12343e-13
-7.14969e-13
-7.18108e-13
-7.21643e-13
-7.24132e-13
-7.276e-13
-7.30639e-13
-7.32475e-13
-7.353e-13
-7.37303e-13
-7.39647e-13
-7.43583e-13
-7.46626e-13
-7.49758e-13
-7.53624e-13
-7.55839e-13
-7.595e-13
-7.62711e-13
-7.64588e-13
-7.68337e-13
-7.73265e-13
-7.76829e-13
-7.77963e-13
-7.82667e-13
-7.85855e-13
-7.88031e-13
-7.92408e-13
-7.94992e-13
-7.95766e-13
-7.99151e-13
-8.02223e-13
-8.05088e-13
-8.0653e-13
-8.09444e-13
-8.11993e-13
-8.14589e-13
-8.17661e-13
-8.19526e-13
-8.22758e-13
-8.23782e-13
-8.2532e-13
-8.29021e-13
-8.31242e-13
-8.32724e-13
-8.34036e-13
-8.34803e-13
-8.36316e-13
-8.38017e-13
-8.40175e-13
-8.4049e-13
-8.42007e-13
-8.43464e-13
-8.46119e-13
-8.48401e-13
-8.4778e-13
-8.48174e-13
-8.47441e-13
-8.47004e-13
-8.47994e-13
-8.47732e-13
-8.46338e-13
-8.45662e-13
-8.45429e-13
-8.44476e-13
-8.446e-13
-8.44321e-13
-8.41797e-13
-8.4059e-13
-8.37687e-13
-8.35263e-13
-8.33683e-13
-8.31423e-13
-8.30619e-13
-8.29909e-13
-8.28663e-13
-8.2706e-13
-8.24332e-13
-8.23492e-13
-8.23927e-13
-8.2342e-13
-8.23625e-13
-8.24093e-13
-8.26672e-13
-8.25756e-13
-8.27085e-13
-8.29163e-13
-8.29706e-13
-8.31054e-13
-8.29996e-13
-8.30008e-13
-8.31349e-13
-8.32318e-13
-8.32337e-13
-8.30051e-13
-8.30708e-13
-8.31253e-13
-8.29148e-13
-8.28009e-13
-8.26467e-13
-8.26486e-13
-8.25292e-13
-8.2255e-13
-8.20253e-13
-8.18932e-13
-8.17238e-13
-8.17375e-13
-8.15174e-13
-8.12096e-13
-8.09731e-13
-8.07302e-13
-8.04918e-13
-8.00138e-13
-7.97602e-13
-7.94179e-13
-7.90314e-13
-7.85763e-13
-7.82587e-13
-7.79865e-13
-7.74335e-13
-7.70312e-13
-7.6682e-13
-7.6162e-13
-7.5619e-13
-7.51965e-13
-7.48955e-13
-7.45465e-13
-7.38988e-13
-7.35129e-13
-7.32986e-13
-7.3053e-13
-7.28223e-13
-7.25099e-13
-7.20911e-13
-7.15754e-13
-7.10722e-13
-7.06212e-13
-7.01598e-13
-6.94058e-13
-6.8618e-13
-6.82354e-13
-6.75621e-13
-6.69769e-13
-6.62405e-13
-6.57577e-13
-6.5479e-13
-6.47444e-13
-6.40002e-13
-6.33542e-13
-6.27271e-13
-6.24558e-13
-6.19103e-13
-6.14803e-13
-6.09789e-13
-6.0687e-13
-6.02431e-13
-5.95828e-13
-5.9172e-13
-5.85636e-13
-5.79517e-13
-5.74409e-13
-5.69509e-13
-5.65172e-13
-5.61079e-13
-5.55603e-13
-5.47609e-13
-5.42678e-13
-5.39903e-13
-5.34476e-13
-5.28649e-13
-5.21511e-13
-5.17742e-13
-5.14873e-13
-5.08442e-13
-5.04853e-13
-5.0074e-13
-4.95956e-13
-4.94283e-13
-4.88991e-13
-4.86324e-13
-4.82444e-13
-4.80155e-13
-4.80757e-13
-4.73263e-13
-4.68795e-13
-4.66067e-13
-4.60551e-13
-4.5581e-13
-4.50415e-13
-4.46007e-13
-4.41931e-13
-4.36104e-13
-4.31524e-13
-4.2351e-13
-4.19635e-13
-4.15369e-13
-4.0987e-13
-4.04146e-13
-3.99699e-13
-3.96384e-13
-3.90878e-13
-3.83407e-13
-3.78777e-13
-3.72838e-13
-3.6648e-13
-3.60222e-13
-3.53768e-13
-3.47472e-13
-3.41059e-13
-3.35503e-13
-3.2971e-13
-3.23177e-13
-3.17889e-13
-3.1184e-13
-3.0359e-13
-2.9477e-13
-2.8391e-13
-2.75317e-13
-2.81554e-13
-2.86691e-13
-2.96513e-13
-3.07389e-13
-3.18385e-13
-3.28546e-13
-3.36663e-13
-3.44365e-13
-3.53799e-13
-3.60424e-13
-3.68605e-13
-3.77522e-13
-3.85122e-13
-3.88966e-13
-3.94283e-13
-4.00326e-13
-4.05778e-13
-4.11436e-13
-4.18993e-13
-4.25112e-13
-4.30789e-13
-4.36395e-13
-4.40837e-13
-4.44354e-13
-4.48481e-13
-4.52234e-13
-4.58002e-13
-4.63279e-13
-4.67998e-13
-4.74203e-13
-4.80675e-13
-4.84407e-13
-4.88513e-13
-4.93963e-13
-4.98571e-13
-5.02613e-13
-5.06335e-13
-5.10562e-13
-5.14418e-13
-5.173e-13
-5.20817e-13
-5.28128e-13
-5.33227e-13
-5.37458e-13
-5.41196e-13
-5.45181e-13
-5.49249e-13
-5.52197e-13
-5.55929e-13
-5.61887e-13
-5.67614e-13
-5.73558e-13
-5.76128e-13
-5.81394e-13
-5.83871e-13
-5.87477e-13
-5.91298e-13
-5.94765e-13
-5.98268e-13
-6.01116e-13
-6.05165e-13
-6.07197e-13
-6.12072e-13
-6.17417e-13
-6.19144e-13
-6.21375e-13
-6.23385e-13
-6.25738e-13
-6.27603e-13
-6.28673e-13
-6.31838e-13
-6.36461e-13
-6.38276e-13
-6.40995e-13
-6.44493e-13
-6.46423e-13
-6.4926e-13
-6.51722e-13
-6.54113e-13
-6.56365e-13
-6.58805e-13
-6.62299e-13
-6.66251e-13
-6.70075e-13
-6.73687e-13
-6.76324e-13
-6.78714e-13
-6.81916e-13
-6.85531e-13
-6.86602e-13
-6.86092e-13
-6.89195e-13
-6.92066e-13
-6.94794e-13
-6.96339e-13
-6.98489e-13
-7.0095e-13
-7.0144e-13
-7.03739e-13
-7.04521e-13
-7.05921e-13
-7.06966e-13
-7.09497e-13
-7.13375e-13
-7.14817e-13
-7.17177e-13
-7.21416e-13
-7.23732e-13
-7.2877e-13
-7.30717e-13
-7.32228e-13
-7.34882e-13
-7.3798e-13
-7.39476e-13
-7.43363e-13
-7.46846e-13
-7.49824e-13
-7.52313e-13
-7.55183e-13
-7.59062e-13
-7.62781e-13
-7.64847e-13
-7.69183e-13
-7.72763e-13
-7.75619e-13
-7.78497e-13
-7.83834e-13
-7.85739e-13
-7.87885e-13
-7.92143e-13
-7.95262e-13
-7.96207e-13
-7.989e-13
-8.01851e-13
-8.05507e-13
-8.0721e-13
-8.10006e-13
-8.1141e-13
-8.15277e-13
-8.18663e-13
-8.20271e-13
-8.21749e-13
-8.23201e-13
-8.25381e-13
-8.30158e-13
-8.31611e-13
-8.3249e-13
-8.34187e-13
-8.34806e-13
-8.36627e-13
-8.37413e-13
-8.40095e-13
-8.41556e-13
-8.42171e-13
-8.4371e-13
-8.46319e-13
-8.48674e-13
-8.49026e-13
-8.48053e-13
-8.46812e-13
-8.47499e-13
-8.47653e-13
-8.47215e-13
-8.46594e-13
-8.45786e-13
-8.46546e-13
-8.43521e-13
-8.44501e-13
-8.44532e-13
-8.41297e-13
-8.41523e-13
-8.37552e-13
-8.34385e-13
-8.33434e-13
-8.30988e-13
-8.30812e-13
-8.29805e-13
-8.28049e-13
-8.26455e-13
-8.22937e-13
-8.23482e-13
-8.23665e-13
-8.23166e-13
-8.23519e-13
-8.23373e-13
-8.26952e-13
-8.2556e-13
-8.25525e-13
-8.28651e-13
-8.30338e-13
-8.31269e-13
-8.29118e-13
-8.30235e-13
-8.31937e-13
-8.32344e-13
-8.32064e-13
-8.3057e-13
-8.31209e-13
-8.31213e-13
-8.28659e-13
-8.27846e-13
-8.25297e-13
-8.26502e-13
-8.25823e-13
-8.21537e-13
-8.20829e-13
-8.19281e-13
-8.17382e-13
-8.18019e-13
-8.14839e-13
-8.12856e-13
-8.09235e-13
-8.06139e-13
-8.05e-13
-8.00445e-13
-7.98119e-13
-7.94359e-13
-7.89895e-13
-7.86292e-13
-7.81633e-13
-7.78367e-13
-7.74178e-13
-7.70317e-13
-7.67536e-13
-7.62765e-13
-7.55479e-13
-7.5123e-13
-7.4805e-13
-7.45639e-13
-7.38838e-13
-7.34328e-13
-7.32708e-13
-7.31104e-13
-7.27702e-13
-7.24809e-13
-7.21493e-13
-7.16053e-13
-7.10779e-13
-7.05457e-13
-7.02436e-13
-6.96032e-13
-6.86757e-13
-6.80599e-13
-6.74309e-13
-6.70348e-13
-6.62624e-13
-6.56753e-13
-6.53825e-13
-6.46851e-13
-6.39392e-13
-6.31493e-13
-6.26509e-13
-6.25725e-13
-6.19536e-13
-6.1325e-13
-6.09244e-13
-6.06779e-13
-6.02023e-13
-5.95528e-13
-5.92406e-13
-5.865e-13
-5.78843e-13
-5.73568e-13
-5.70184e-13
-5.65729e-13
-5.60433e-13
-5.54628e-13
-5.48471e-13
-5.43155e-13
-5.39376e-13
-5.33592e-13
-5.28059e-13
-5.21663e-13
-5.17469e-13
-5.13781e-13
-5.08945e-13
-5.04907e-13
-5.00693e-13
-4.95015e-13
-4.93407e-13
-4.90019e-13
-4.86473e-13
-4.82844e-13
-4.8022e-13
-4.80679e-13
-4.74426e-13
-4.6949e-13
-4.66587e-13
-4.60313e-13
-4.56584e-13
-4.51186e-13
-4.4633e-13
-4.41908e-13
-4.35607e-13
-4.3223e-13
-4.25563e-13
-4.18804e-13
-4.14718e-13
-4.09543e-13
-4.04429e-13
-4.00668e-13
-3.94848e-13
-3.91121e-13
-3.85369e-13
-3.78401e-13
-3.73775e-13
-3.6698e-13
-3.59814e-13
-3.54563e-13
-3.47459e-13
-3.4226e-13
-3.37014e-13
-3.31011e-13
-3.24381e-13
-3.19416e-13
-3.15084e-13
-3.0684e-13
-2.9821e-13
-2.89742e-13
-2.83959e-13
-2.89606e-13
-2.93756e-13
-3.02604e-13
-3.11834e-13
-3.22235e-13
-3.31351e-13
-3.38537e-13
-3.46063e-13
-3.55604e-13
-3.62076e-13
-3.69891e-13
-3.78537e-13
-3.85718e-13
-3.89258e-13
-3.95474e-13
-4.00834e-13
-4.06203e-13
-4.12308e-13
-4.19597e-13