/*--------------------------------*- C++ -*----------------------------------*\
| =========                 |                                                 |
| \\      /  F ield         | OpenFOAM: The Open Source CFD Toolbox           |
|  \\    /   O peration     | Version:  2112                                  |
|   \\  /    A nd           | Website:  www.openfoam.com                      |
|    \\/     M anipulation  |                                                 |
\*---------------------------------------------------------------------------*/
FoamFile
{
    version     2.0;
    format      ascii;
    arch        "LSB;label=32;scalar=64";
    class       surfaceScalarField;
    location    "9";
    object      phi;
}
// * * * * * * * * * * * * * * * * * * * * * * * * * * * * * * * * * * * * * //

dimensions      [0 3 -1 0 0 0 0];

oriented        oriented;

internalField   nonuniform List<scalar> 
50800
(
2.34302e-05
-1.15966e-18
2.34302e-05
-2.22485e-19
2.34302e-05
-7.26086e-20
2.34302e-05
-3.94929e-20
2.34302e-05
-5.52505e-21
2.34302e-05
-7.52443e-22
2.34302e-05
-1.29433e-20
2.34302e-05
-7.40863e-22
2.34302e-05
-8.29988e-21
2.34302e-05
-1.21012e-20
2.34302e-05
-6.92815e-21
2.34302e-05
-1.80301e-20
2.34302e-05
1.02462e-20
2.34302e-05
1.14395e-20
2.34302e-05
-8.33681e-21
2.34302e-05
2.68792e-20
2.34302e-05
1.34378e-20
2.34302e-05
5.33808e-22
2.34302e-05
-1.55527e-20
2.34302e-05
-1.30661e-20
2.34302e-05
4.96365e-21
2.34302e-05
9.6938e-21
2.34302e-05
1.55266e-20
2.34302e-05
-7.67047e-21
2.34302e-05
-1.5185e-20
2.34302e-05
-5.35383e-21
2.34302e-05
2.67442e-20
2.34302e-05
9.07087e-21
2.34302e-05
-1.85149e-20
2.34302e-05
4.82045e-21
2.34302e-05
1.69295e-20
2.34302e-05
3.9583e-20
2.34302e-05
-1.623e-21
2.34302e-05
-2.32241e-20
2.34302e-05
-1.08682e-20
2.34302e-05
-1.37693e-20
2.34302e-05
1.83812e-20
2.34302e-05
-1.35496e-20
2.34302e-05
-3.31239e-20
2.34302e-05
9.82627e-21
2.34302e-05
-9.0813e-21
2.34302e-05
1.06281e-20
2.34302e-05
1.79941e-21
2.34302e-05
-2.78783e-20
2.34302e-05
1.59078e-20
2.34302e-05
-1.46569e-21
2.34302e-05
1.22251e-20
2.34302e-05
1.909e-20
2.34302e-05
4.39036e-21
2.34302e-05
-4.84909e-21
2.34302e-05
-3.32983e-20
2.34302e-05
1.40952e-20
2.34302e-05
-3.83899e-21
2.34302e-05
8.64101e-21
2.34302e-05
3.91538e-20
2.34302e-05
-2.79576e-20
2.34302e-05
-1.2304e-20
2.34302e-05
-8.80878e-21
2.34302e-05
1.76817e-21
2.34302e-05
2.87471e-20
2.34302e-05
-6.15046e-20
2.34302e-05
3.30661e-20
2.34302e-05
2.34772e-24
2.34302e-05
-6.13452e-21
2.34302e-05
3.85909e-20
2.34302e-05
-4.06961e-20
2.34302e-05
-3.09387e-21
2.34302e-05
-3.75254e-21
2.34302e-05
1.56189e-20
2.34302e-05
3.0142e-20
2.34302e-05
-2.11435e-20
2.34302e-05
-1.09703e-20
2.34302e-05
-2.46882e-20
2.34302e-05
-7.44822e-21
2.34302e-05
6.4726e-20
2.34302e-05
-3.86352e-20
2.34302e-05
-5.1157e-20
2.34302e-05
2.65944e-20
2.34302e-05
-2.24368e-21
2.34302e-05
4.42767e-20
2.34302e-05
-1.37616e-20
2.34302e-05
-6.63846e-20
2.34302e-05
8.26002e-21
2.34302e-05
1.68121e-21
2.34302e-05
1.68937e-20
2.34302e-05
-6.81957e-21
2.34302e-05
-2.94891e-20
2.34302e-05
-1.50449e-20
2.34302e-05
6.51514e-21
2.34302e-05
7.74074e-20
2.34302e-05
-2.04396e-20
2.34302e-05
-5.23228e-20
2.34302e-05
1.13695e-20
2.34302e-05
4.46822e-20
2.34302e-05
-2.69974e-21
2.34302e-05
-6.31623e-20
2.34302e-05
-9.18114e-21
2.34302e-05
-1.95919e-20
2.34302e-05
3.65538e-20
2.34302e-05
3.88604e-20
2.34302e-05
-6.07725e-20
2.34302e-05
1.81991e-20
2.34302e-05
-3.38613e-20
2.34302e-05
9.97458e-21
2.34302e-05
3.45318e-20
2.34302e-05
3.05175e-21
2.34302e-05
-6.28849e-20
2.34302e-05
-2.29472e-20
2.34302e-05
6.03408e-20
2.34302e-05
3.57138e-20
2.34302e-05
5.43592e-20
2.34302e-05
-1.34779e-19
2.34302e-05
7.64509e-21
2.34302e-05
1.1112e-19
2.34302e-05
2.9922e-20
2.34302e-05
4.27011e-21
2.34302e-05
-1.05578e-19
2.34302e-05
-2.22533e-20
2.34302e-05
9.46334e-20
2.34302e-05
5.02719e-20
2.34302e-05
-3.49409e-20
2.34302e-05
-1.08945e-19
2.34302e-05
-3.01158e-20
2.34302e-05
1.24068e-19
2.34302e-05
7.237e-20
2.34302e-05
-4.02697e-20
2.34302e-05
-1.32184e-19
2.34302e-05
4.43227e-21
2.34302e-05
1.38787e-19
2.34302e-05
2.91667e-20
2.34302e-05
-2.97456e-20
2.34302e-05
-7.92442e-20
2.34302e-05
7.19518e-21
2.34302e-05
8.59156e-20
2.34302e-05
6.69341e-21
2.34302e-05
-3.37421e-21
2.34302e-05
-7.00233e-20
2.34302e-05
1.19714e-22
2.34302e-05
9.91471e-20
2.34302e-05
2.63772e-20
2.34302e-05
-3.11592e-20
2.34302e-05
-7.8017e-20
2.34302e-05
3.16547e-20
2.34302e-05
6.60023e-20
2.34302e-05
-4.65045e-21
2.34302e-05
7.56578e-21
2.34302e-05
-6.45402e-20
2.34302e-05
1.70319e-20
2.34302e-05
5.45869e-22
2.34302e-05
-7.51474e-21
2.34302e-05
6.85279e-20
2.34302e-05
-7.33045e-20
2.34302e-05
-5.91051e-20
2.34302e-05
4.81599e-20
2.34302e-05
2.86883e-20
2.34302e-05
3.50629e-20
2.34302e-05
-7.0517e-20
2.34302e-05
-8.10364e-20
2.34302e-05
2.40821e-20
2.34302e-05
2.18904e-20
2.34302e-05
9.43392e-20
2.34302e-05
-8.3479e-20
2.34302e-05
-3.70095e-20
2.34302e-05
1.01076e-19
2.34302e-05
-8.27535e-20
2.34302e-05
3.30906e-20
2.34302e-05
-2.23499e-20
2.34302e-05
-6.82839e-20
2.34302e-05
6.2351e-20
2.34302e-05
-1.61929e-21
2.34302e-05
9.07996e-21
2.34302e-05
-9.87799e-20
2.34302e-05
6.87102e-21
2.34302e-05
6.70116e-20
2.34302e-05
-7.87368e-21
2.34302e-05
-2.5577e-21
2.34302e-05
-7.59541e-20
2.34302e-05
9.06633e-20
2.34302e-05
-3.63795e-20
2.34302e-05
-1.09545e-20
2.34302e-05
1.21149e-19
2.34302e-05
-1.43886e-19
2.34302e-05
-1.12959e-20
2.34302e-05
7.44417e-20
2.34302e-05
-1.41823e-20
2.34302e-05
1.2061e-19
2.34302e-05
-8.54575e-20
2.34302e-05
-1.52462e-20
2.34302e-05
1.17105e-19
2.34302e-05
-7.46098e-20
2.34302e-05
3.61037e-20
2.34302e-05
-1.64833e-20
2.34302e-05
-7.0493e-20
2.34302e-05
1.03881e-19
2.34302e-05
-6.4118e-21
2.34302e-05
2.76391e-20
2.34302e-05
-5.64706e-20
2.34302e-05
-5.07162e-20
2.34302e-05
1.25384e-19
2.34302e-05
-7.12155e-20
2.34302e-05
1.35232e-20
2.34302e-05
-4.86718e-20
2.34302e-05
4.99221e-22
2.34302e-05
1.66463e-19
2.34302e-05
-4.11373e-20
2.34302e-05
-7.10351e-20
2.34302e-05
-7.162e-20
2.34302e-05
5.42932e-20
2.34302e-05
7.50113e-20
2.34302e-05
-3.41007e-20
2.34302e-05
-4.15638e-20
2.34302e-05
-8.51214e-20
2.34302e-05
2.20802e-19
2.34302e-05
1.00214e-20
2.34302e-05
-2.29496e-19
2.34302e-05
1.6516e-19
2.34302e-05
-2.655e-20
2.34302e-05
-4.95475e-20
2.34302e-05
-2.53495e-20
2.34302e-05
-1.50203e-19
2.34302e-05
2.15287e-19
2.34302e-05
4.97254e-20
2.34302e-05
-8.48332e-20
2.34302e-05
-3.97186e-20
2.34302e-05
-1.67147e-19
2.34302e-05
2.29297e-19
2.34302e-05
9.58513e-21
2.34302e-05
-7.76063e-20
2.34302e-05
5.86926e-20
2.34302e-05
-1.32264e-19
2.34302e-05
1.35391e-19
2.34302e-05
-4.42282e-20
2.34302e-05
-5.81153e-20
2.34302e-05
7.92469e-20
2.34302e-05
-1.71671e-19
2.34302e-05
6.28252e-20
2.34302e-05
-8.74696e-21
2.34302e-05
3.14966e-20
2.34302e-05
9.21788e-20
2.34302e-05
-1.81194e-19
2.34302e-05
8.94416e-20
2.34302e-05
-4.80975e-20
2.34302e-05
-1.62996e-20
2.34302e-05
1.17612e-19
2.34302e-05
-2.43023e-19
2.34302e-05
3.19543e-20
2.34302e-05
5.13537e-20
2.34302e-05
4.98344e-20
2.34302e-05
3.26262e-20
2.34302e-05
-1.91574e-19
2.34302e-05
1.9232e-19
2.34302e-05
1.73946e-20
2.34302e-05
-9.49674e-20
2.34302e-05
-1.80498e-20
2.34302e-05
-1.46882e-19
2.34302e-05
2.63095e-19
2.34302e-05
-3.81249e-21
2.34302e-05
-5.64839e-20
2.34302e-05
9.54838e-20
2.34302e-05
-1.92423e-19
2.34302e-05
9.53206e-20
2.34302e-05
2.16379e-20
2.34302e-05
-1.15613e-20
2.34302e-05
4.67382e-20
2.34302e-05
-1.29508e-19
2.34302e-05
1.55043e-19
2.34302e-05
1.65164e-20
2.34302e-05
-3.10237e-20
2.34302e-05
2.25953e-21
2.34302e-05
-1.56597e-19
2.34302e-05
9.58674e-20
2.34302e-05
6.14825e-21
2.34302e-05
2.38059e-20
2.34302e-05
3.10816e-20
2.34302e-05
-1.44949e-19
2.34302e-05
1.1911e-19
2.34302e-05
3.10778e-20
2.34302e-05
-4.28514e-20
2.34302e-05
1.08672e-19
2.34302e-05
-1.29426e-19
2.34302e-05
4.5267e-20
2.34302e-05
2.9055e-20
2.34302e-05
-2.27054e-20
2.34302e-05
3.50532e-20
2.34302e-05
-1.52381e-19
2.34302e-05
3.06692e-20
2.34302e-05
9.46604e-20
2.34302e-05
-1.27015e-20
2.34302e-05
-9.39428e-20
2.34302e-05
-1.12859e-19
2.34302e-05
1.37153e-19
2.34302e-05
3.93747e-20
2.34302e-05
-4.31535e-20
2.34302e-05
-3.56623e-20
2.34302e-05
-4.81548e-20
2.34302e-05
1.31101e-19
2.34302e-05
9.49388e-21
2.34302e-05
-1.46089e-20
2.34302e-05
-9.0383e-20
2.34302e-05
-5.47343e-20
2.34302e-05
1.34639e-19
2.34302e-05
2.78429e-20
2.34302e-05
4.94523e-20
2.34302e-05
-1.25953e-19
2.34302e-05
-1.20262e-19
2.34302e-05
8.30616e-20
2.34302e-05
3.75385e-21
2.34302e-05
9.7679e-20
2.34302e-05
-1.08962e-19
2.34302e-05
-2.91351e-21
2.34302e-05
5.56903e-20
2.34302e-05
-1.19573e-19
2.34302e-05
1.06621e-19
2.34302e-05
-1.94732e-20
2.34302e-05
-6.48358e-20
2.34302e-05
6.01777e-20
2.34302e-05
-7.97042e-20
2.34302e-05
7.62103e-20
2.34302e-05
-6.69302e-20
-3.2321e-19
6.9119e-05
-5.98326e-19
6.9119e-05
-3.05106e-19
6.9119e-05
-1.12273e-19
6.9119e-05
-3.31864e-20
6.9119e-05
1.91501e-20
6.9119e-05
1.38968e-20
6.9119e-05
-1.49557e-20
6.9119e-05
2.81311e-21
6.9119e-05
-2.41526e-20
6.9119e-05
-3.05162e-20
6.9119e-05
-3.38664e-20
6.9119e-05
-3.88833e-20
6.9119e-05
2.30857e-20
6.9119e-05
3.32994e-20
6.9119e-05
1.05814e-20
6.9119e-05
7.84461e-20
6.9119e-05
4.15545e-20
6.9119e-05
-5.7701e-21
6.9119e-05
-7.91399e-21
6.9119e-05
-1.18953e-20
6.9119e-05
1.64401e-20
6.9119e-05
2.11428e-20
6.9119e-05
2.28966e-20
6.9119e-05
-8.54804e-21
6.9119e-05
-2.80653e-20
6.9119e-05
-9.68157e-21
6.9119e-05
4.71141e-20
6.9119e-05
2.65992e-20
6.9119e-05
-3.70018e-21
6.9119e-05
1.25367e-20
6.9119e-05
5.8008e-20
6.9119e-05
9.04492e-20
6.9119e-05
-1.21236e-21
6.9119e-05
-4.79071e-20
6.9119e-05
-2.94153e-20
6.9119e-05
-2.20186e-20
6.9119e-05
3.18912e-20
6.9119e-05
-4.68361e-20
6.9119e-05
-1.01689e-19
6.9119e-05
3.89757e-21
6.9119e-05
-1.36659e-20
6.9119e-05
1.04548e-20
6.9119e-05
6.39759e-21
6.9119e-05
-5.48861e-20
6.9119e-05
1.46467e-20
6.9119e-05
1.13973e-20
6.9119e-05
3.49075e-20
6.9119e-05
3.66077e-20
6.9119e-05
5.15387e-21
6.9119e-05
-2.04087e-21
6.9119e-05
-7.25806e-20
6.9119e-05
1.70782e-20
6.9119e-05
1.47895e-20
6.9119e-05
1.92125e-20
6.9119e-05
9.14551e-20
6.9119e-05
-5.51423e-20
6.9119e-05
-2.31502e-20
6.9119e-05
-2.5893e-20
6.9119e-05
1.46914e-20
6.9119e-05
3.24236e-20
6.9119e-05
-1.51675e-19
6.9119e-05
5.71574e-20
6.9119e-05
1.11076e-20
6.9119e-05
-1.16604e-20
6.9119e-05
6.69776e-20
6.9119e-05
-8.99101e-20
6.9119e-05
3.35141e-21
6.9119e-05
-1.51227e-20
6.9119e-05
2.92424e-20
6.9119e-05
9.16483e-20
6.9119e-05
-6.22755e-20
6.9119e-05
-5.44482e-20
6.9119e-05
-6.62207e-20
6.9119e-05
-1.3072e-21
6.9119e-05
1.52696e-19
6.9119e-05
-6.77412e-20
6.9119e-05
-1.12385e-19
6.9119e-05
1.54917e-20
6.9119e-05
-1.51142e-20
6.9119e-05
9.47907e-20
6.9119e-05
-2.786e-20
6.9119e-05
-1.6374e-19
6.9119e-05
-1.2403e-20
6.9119e-05
5.05919e-21
6.9119e-05
4.0954e-20
6.9119e-05
-4.4693e-20
6.9119e-05
-3.88203e-20
6.9119e-05
-4.52706e-20
6.9119e-05
8.09817e-22
6.9119e-05
1.88471e-19
6.9119e-05
-2.39644e-20
6.9119e-05
-1.22589e-19
6.9119e-05
-6.83495e-21
6.9119e-05
8.15552e-20
6.9119e-05
5.68231e-21
6.9119e-05
-1.53268e-19
6.9119e-05
-5.96572e-20
6.9119e-05
-3.93362e-20
6.9119e-05
6.09401e-20
6.9119e-05
7.10277e-20
6.9119e-05
-7.80641e-20
6.9119e-05
2.2804e-20
6.9119e-05
-7.50386e-20
6.9119e-05
-3.13009e-22
6.9119e-05
8.12604e-20
6.9119e-05
5.94373e-20
6.9119e-05
-1.437e-19
6.9119e-05
-1.00987e-19
6.9119e-05
1.25463e-19
6.9119e-05
1.40713e-19
6.9119e-05
8.84499e-20
6.9119e-05
-2.72365e-19
6.9119e-05
9.90384e-21
6.9119e-05
2.60109e-19
6.9119e-05
1.07145e-19
6.9119e-05
9.11839e-22
6.9119e-05
-2.43428e-19
6.9119e-05
-1.10605e-19
6.9119e-05
2.47398e-19
6.9119e-05
1.54627e-19
6.9119e-05
-1.32055e-19
6.9119e-05
-2.62595e-19
6.9119e-05
-6.64459e-20
6.9119e-05
2.95812e-19
6.9119e-05
2.32057e-19
6.9119e-05
-7.75939e-20
6.9119e-05
-3.356e-19
6.9119e-05
2.55715e-20
6.9119e-05
3.31846e-19
6.9119e-05
7.74881e-20
6.9119e-05
-7.12257e-20
6.9119e-05
-1.5801e-19
6.9119e-05
1.25176e-22
6.9119e-05
2.06301e-19
6.9119e-05
4.77541e-20
6.9119e-05
-1.12225e-20
6.9119e-05
-1.6706e-19
6.9119e-05
-1.64655e-20
6.9119e-05
2.57764e-19
6.9119e-05
7.58755e-20
6.9119e-05
-1.00182e-19
6.9119e-05
-1.704e-19
6.9119e-05
5.88368e-20
6.9119e-05
1.40855e-19
6.9119e-05
5.74e-22
6.9119e-05
-5.373e-21
6.9119e-05
-1.44426e-19
6.9119e-05
3.83581e-20
6.9119e-05
3.16103e-20
6.9119e-05
-7.75914e-21
6.9119e-05
1.29339e-19
6.9119e-05
-1.69733e-19
6.9119e-05
-1.4305e-19
6.9119e-05
8.51854e-20
6.9119e-05
9.1864e-20
6.9119e-05
6.83461e-20
6.9119e-05
-1.63481e-19
6.9119e-05
-2.03507e-19
6.9119e-05
1.52759e-20
6.9119e-05
1.06331e-19
6.9119e-05
1.85175e-19
6.9119e-05
-1.79455e-19
6.9119e-05
-5.7091e-20
6.9119e-05
2.00669e-19
6.9119e-05
-1.61328e-19
6.9119e-05
2.54561e-20
6.9119e-05
-4.85956e-20
6.9119e-05
-1.2412e-19
6.9119e-05
1.00666e-19
6.9119e-05
2.26461e-20
6.9119e-05
-5.44239e-20
6.9119e-05
-2.27332e-19
6.9119e-05
2.63395e-21
6.9119e-05
1.77897e-19
6.9119e-05
4.28491e-20
6.9119e-05
-5.42586e-20
6.9119e-05
-1.50265e-19
6.9119e-05
1.24907e-19
6.9119e-05
-6.48829e-20
6.9119e-05
8.14041e-20
6.9119e-05
2.09957e-19
6.9119e-05
-3.09081e-19
6.9119e-05
-3.19114e-20
6.9119e-05
1.9226e-19
6.9119e-05
4.42582e-20
6.9119e-05
2.09677e-19
6.9119e-05
-1.48761e-19
6.9119e-05
-6.70805e-21
6.9119e-05
2.46643e-19
6.9119e-05
-8.31803e-20
6.9119e-05
3.1448e-21
6.9119e-05
-4.77584e-20
6.9119e-05
-1.22433e-19
6.9119e-05
1.70157e-19
6.9119e-05
7.66466e-20
6.9119e-05
4.82596e-20
6.9119e-05
-1.03034e-19
6.9119e-05
-1.02142e-19
6.9119e-05
1.61997e-19
6.9119e-05
-6.4115e-20
6.9119e-05
7.27816e-21
6.9119e-05
-9.15507e-20
6.9119e-05
5.44553e-20
6.9119e-05
2.76793e-19
6.9119e-05
-3.77317e-20
6.9119e-05
-1.2114e-19
6.9119e-05
-1.89689e-19
6.9119e-05
7.17104e-20
6.9119e-05
1.05312e-19
6.9119e-05
-3.47825e-20
6.9119e-05
-3.28888e-20
6.9119e-05
-1.78122e-19
6.9119e-05
4.33887e-19
6.9119e-05
5.01381e-20
6.9119e-05
-4.18002e-19
6.9119e-05
2.65472e-19
6.9119e-05
-1.0925e-19
6.9119e-05
-6.80329e-20
6.9119e-05
-9.4959e-20
6.9119e-05
-3.37939e-19
6.9119e-05
4.44109e-19
6.9119e-05
9.93065e-20
6.9119e-05
-1.16472e-19
6.9119e-05
-9.39544e-20
6.9119e-05
-3.71684e-19
6.9119e-05
4.58421e-19
6.9119e-05
5.08354e-20
6.9119e-05
-1.41276e-19
6.9119e-05
8.26018e-20
6.9119e-05
-2.65589e-19
6.9119e-05
2.5462e-19
6.9119e-05
-9.22596e-20
6.9119e-05
-1.26657e-19
6.9119e-05
9.48069e-20
6.9119e-05
-3.5832e-19
6.9119e-05
7.9232e-20
6.9119e-05
-3.00451e-20
6.9119e-05
1.33998e-19
6.9119e-05
2.12046e-19
6.9119e-05
-4.33949e-19
6.9119e-05
1.51683e-19
6.9119e-05
-1.28012e-19
6.9119e-05
2.17196e-20
6.9119e-05
2.09881e-19
6.9119e-05
-5.77438e-19
6.9119e-05
6.53596e-20
6.9119e-05
1.08888e-19
6.9119e-05
1.245e-19
6.9119e-05
7.23628e-20
6.9119e-05
-3.70548e-19
6.9119e-05
4.50146e-19
6.9119e-05
3.94979e-20
6.9119e-05
-2.50888e-19
6.9119e-05
-1.36203e-19
6.9119e-05
-2.66502e-19
6.9119e-05
6.44062e-19
6.9119e-05
3.6994e-20
6.9119e-05
-9.79411e-20
6.9119e-05
1.57207e-19
6.9119e-05
-4.16276e-19
6.9119e-05
1.9228e-19
6.9119e-05
6.04246e-20
6.9119e-05
2.62485e-20
6.9119e-05
7.69176e-20
6.9119e-05
-2.59454e-19
6.9119e-05
3.80629e-19
6.9119e-05
1.82615e-20
6.9119e-05
-5.99751e-20
6.9119e-05
-3.49615e-21
6.9119e-05
-3.92452e-19
6.9119e-05
2.02051e-19
6.9119e-05
9.39948e-21
6.9119e-05
7.84248e-20
6.9119e-05
6.48763e-20
6.9119e-05
-3.49278e-19
6.9119e-05
2.7963e-19
6.9119e-05
5.73585e-20
6.9119e-05
5.03195e-21
6.9119e-05
1.98636e-19
6.9119e-05
-3.65145e-19
6.9119e-05
1.48173e-19
6.9119e-05
2.84519e-20
6.9119e-05
-9.06427e-21
6.9119e-05
7.69638e-20
6.9119e-05
-4.4257e-19
6.9119e-05
1.0952e-19
6.9119e-05
2.10801e-19
6.9119e-05
-6.72453e-20
6.9119e-05
-2.03451e-19
6.9119e-05
-2.6793e-19
6.9119e-05
3.19202e-19
6.9119e-05
1.02448e-19
6.9119e-05
-1.34842e-19
6.9119e-05
-8.8279e-21
6.9119e-05
-1.39033e-19
6.9119e-05
2.44281e-19
6.9119e-05
1.32829e-19
6.9119e-05
-1.36492e-19
6.9119e-05
-1.36411e-19
6.9119e-05
-1.69857e-19
6.9119e-05
2.43328e-19
6.9119e-05
1.83593e-19
6.9119e-05
6.02801e-20
6.9119e-05
-3.38554e-19
6.9119e-05
-3.05993e-19
6.9119e-05
2.20947e-19
6.9119e-05
5.63017e-20
6.9119e-05
1.30376e-19
6.9119e-05
-2.19773e-19
6.9119e-05
-3.23271e-20
6.9119e-05
1.6741e-19
6.9119e-05
-2.14691e-19
6.9119e-05
1.54571e-19
6.9119e-05
1.9587e-20
6.9119e-05
-1.38093e-19
6.9119e-05
1.03211e-19
6.9119e-05
-1.25705e-19
6.9119e-05
2.1144e-19
6.9119e-05
-4.66217e-20
-4.68384e-19
0.000113636
-3.12889e-19
0.000113636
-2.67453e-19
0.000113636
-1.30724e-19
0.000113636
-2.43278e-20
0.000113636
3.7903e-20
0.000113636
2.7166e-20
0.000113636
9.29646e-21
0.000113636
1.26468e-21
0.000113636
-1.81848e-20
0.000113636
-3.09933e-20
0.000113636
-6.11928e-20
0.000113636
-6.79967e-20
0.000113636
4.82965e-20
0.000113636
5.55697e-20
0.000113636
2.21443e-20
0.000113636
1.4749e-19
0.000113636
8.33921e-20
0.000113636
9.99837e-21
0.000113636
-9.16907e-21
0.000113636
1.18555e-20
0.000113636
5.13429e-20
0.000113636
4.81848e-20
0.000113636
2.97276e-20
0.000113636
-2.00755e-20
0.000113636
-4.94513e-20
0.000113636
-2.85039e-20
0.000113636
9.00481e-20
0.000113636
8.84292e-20
0.000113636
2.18263e-20
0.000113636
-5.57184e-22
0.000113636
9.93152e-20
0.000113636
1.63597e-19
0.000113636
2.04431e-20
0.000113636
-1.00584e-19
0.000113636
-9.8776e-20
0.000113636
-6.48516e-20
0.000113636
6.21457e-20
0.000113636
-5.71284e-20
0.000113636
-1.77234e-19
0.000113636
-5.39475e-21
0.000113636
1.05014e-20
0.000113636
-7.82276e-22
0.000113636
8.92285e-21
0.000113636
-9.08713e-20
0.000113636
-1.67228e-20
0.000113636
1.47932e-20
0.000113636
6.37181e-20
0.000113636
8.10388e-20
0.000113636
1.76941e-20
0.000113636
-1.47296e-20
0.000113636
-7.97757e-20
0.000113636
1.12361e-20
0.000113636
5.46906e-20
0.000113636
2.20765e-20
0.000113636
1.26544e-19
0.000113636
-2.28597e-20
0.000113636
-2.27378e-20
0.000113636
-3.37205e-20
0.000113636
-9.67627e-21
0.000113636
3.1821e-20
0.000113636
-2.24311e-19
0.000113636
8.96779e-20
0.000113636
3.66046e-20
0.000113636
-1.74198e-20
0.000113636
8.32801e-20
0.000113636
-1.54006e-19
0.000113636
1.0309e-20
0.000113636
-1.53929e-20
0.000113636
3.07675e-20
0.000113636
1.2945e-19
0.000113636
-8.39677e-20
0.000113636
-7.81804e-20
0.000113636
-1.33975e-19
0.000113636
3.74182e-21
0.000113636
1.95685e-19
0.000113636
-1.05412e-19
0.000113636
-1.76004e-19
0.000113636
-8.8589e-22
0.000113636
-3.16713e-20
0.000113636
8.76352e-20
0.000113636
-4.40322e-20
0.000113636
-2.10242e-19
0.000113636
-5.41713e-20
0.000113636
2.84688e-21
0.000113636
5.64783e-20
0.000113636
-6.45595e-20
0.000113636
-6.64918e-20
0.000113636
-6.18055e-20
0.000113636
-4.70986e-20
0.000113636
2.3137e-19
0.000113636
1.03484e-20
0.000113636
-1.35777e-19
0.000113636
-8.96107e-21
0.000113636
3.86882e-20
0.000113636
1.54282e-21
0.000113636
-2.0404e-19
0.000113636
-1.12229e-19
0.000113636
-6.37996e-20
0.000113636
5.82723e-20
0.000113636
7.73311e-20
0.000113636
-5.55834e-20
0.000113636
1.65466e-20
0.000113636
-1.18456e-19
0.000113636
-2.33598e-20
0.000113636
1.35154e-19
0.000113636
9.80189e-20
0.000113636
-2.38802e-19
0.000113636
-1.66789e-19
0.000113636
1.89535e-19
0.000113636
2.55404e-19
0.000113636
9.95051e-20
0.000113636
-3.4997e-19
0.000113636
1.89879e-20
0.000113636
3.66996e-19
0.000113636
2.36816e-19
0.000113636
3.25966e-20
0.000113636
-3.91096e-19
0.000113636
-1.75312e-19
0.000113636
3.76193e-19
0.000113636
2.76323e-19
0.000113636
-2.45089e-19
0.000113636
-4.32369e-19
0.000113636
-9.56439e-20
0.000113636
4.80394e-19
0.000113636
4.08278e-19
0.000113636
-1.43008e-19
0.000113636
-5.2552e-19
0.000113636
6.18707e-20
0.000113636
5.36121e-19
0.000113636
1.54496e-19
0.000113636
-8.28143e-20
0.000113636
-2.50193e-19
0.000113636
-3.79459e-20
0.000113636
3.36377e-19
0.000113636
1.41286e-19
0.000113636
-3.75229e-20
0.000113636
-2.63639e-19
0.000113636
-4.72311e-20
0.000113636
3.98355e-19
0.000113636
1.4145e-19
0.000113636
-1.71198e-19
0.000113636
-2.40735e-19
0.000113636
9.87727e-20
0.000113636
1.97822e-19
0.000113636
-1.34996e-20
0.000113636
-1.64544e-20
0.000113636
-2.26472e-19
0.000113636
6.34581e-20
0.000113636
7.10801e-20
0.000113636
-3.62197e-20
0.000113636
1.57108e-19
0.000113636
-2.32708e-19
0.000113636
-1.70766e-19
0.000113636
8.41391e-20
0.000113636
1.56726e-19
0.000113636
7.40948e-20
0.000113636
-2.67121e-19
0.000113636
-3.14028e-19
0.000113636
-1.63481e-20
0.000113636
1.853e-19
0.000113636
2.57143e-19
0.000113636
-2.67317e-19
0.000113636
-7.4714e-20
0.000113636
2.84113e-19
0.000113636
-1.91256e-19
0.000113636
-2.11948e-20
0.000113636
-8.33825e-20
0.000113636
-1.54607e-19
0.000113636
9.73924e-20
0.000113636
3.37809e-20
0.000113636
-1.36562e-19
0.000113636
-3.98383e-19
0.000113636
-3.93728e-21
0.000113636
3.33161e-19
0.000113636
1.0303e-19
0.000113636
-1.31891e-19
0.000113636
-1.97321e-19
0.000113636
8.17298e-20
0.000113636
-4.86956e-20
0.000113636
2.22574e-19
0.000113636
2.3165e-19
0.000113636
-4.45557e-19
0.000113636
-3.87013e-20
0.000113636
3.40606e-19
0.000113636
1.34841e-19
0.000113636
2.43819e-19
0.000113636
-1.427e-19
0.000113636
2.84478e-20
0.000113636
3.30768e-19
0.000113636
-5.27165e-20
0.000113636
-6.89575e-20
0.000113636
-6.57981e-20
0.000113636
-1.6461e-19
0.000113636
1.95349e-19
0.000113636
1.85901e-19
0.000113636
8.94874e-20
0.000113636
-1.56241e-19
0.000113636
-1.7801e-19
0.000113636
1.54865e-19
0.000113636
3.76015e-20
0.000113636
1.27863e-20
0.000113636
-9.17555e-20
0.000113636
1.18443e-19
0.000113636
3.24574e-19
0.000113636
-1.62227e-20
0.000113636
-1.45615e-19
0.000113636
-2.82688e-19
0.000113636
3.9537e-20
0.000113636
1.03858e-19
0.000113636
-3.07826e-20
0.000113636
-1.07506e-20
0.000113636
-2.229e-19
0.000113636
5.9099e-19
0.000113636
1.03425e-19
0.000113636
-5.21213e-19
0.000113636
2.76536e-19
0.000113636
-2.24674e-19
0.000113636
-6.63502e-20
0.000113636
-1.47862e-19
0.000113636
-5.21557e-19
0.000113636
6.12719e-19
0.000113636
1.19934e-19
0.000113636
-9.05922e-20
0.000113636
-1.17113e-19
0.000113636
-5.45571e-19
0.000113636
5.98604e-19
0.000113636
1.17657e-19
0.000113636
-1.76902e-19
0.000113636
7.89381e-20
0.000113636
-4.00825e-19
0.000113636
3.36827e-19
0.000113636
-1.07388e-19
0.000113636
-2.27214e-19
0.000113636
6.46593e-20
0.000113636
-4.99869e-19
0.000113636
4.48951e-20
0.000113636
-8.91034e-20
0.000113636
2.8286e-19
0.000113636
3.1911e-19
0.000113636
-6.41752e-19
0.000113636
1.17154e-19
0.000113636
-2.39707e-19
0.000113636
4.44517e-20
0.000113636
2.68065e-19
0.000113636
-8.40844e-19
0.000113636
7.19353e-20
0.000113636
1.12368e-19
0.000113636
1.67732e-19
0.000113636
1.25497e-19
0.000113636
-5.13548e-19
0.000113636
6.81827e-19
0.000113636
1.03272e-19
0.000113636
-4.13684e-19
0.000113636
-2.89418e-19
0.000113636
-3.25092e-19
0.000113636
9.71922e-19
0.000113636
1.10798e-19
0.000113636
-9.24217e-20
0.000113636
2.24915e-19
0.000113636
-5.39946e-19
0.000113636
2.1307e-19
0.000113636
7.38711e-20
0.000113636
1.23898e-19
0.000113636
5.23605e-20
0.000113636
-3.53702e-19
0.000113636
5.72047e-19
0.000113636
1.33275e-20
0.000113636
-6.35953e-20
0.000113636
-1.87307e-20
0.000113636
-5.89033e-19
0.000113636
2.98937e-19
0.000113636
-8.89648e-21
0.000113636
1.28191e-19
0.000113636
1.09552e-19
0.000113636
-5.1634e-19
0.000113636
4.70166e-19
0.000113636
7.28557e-20
0.000113636
7.062e-20
0.000113636
2.52749e-19
0.000113636
-6.07398e-19
0.000113636
2.69403e-19
0.000113636
-5.62721e-22
0.000113636
-2.34595e-20
0.000113636
1.10531e-19
0.000113636
-7.01379e-19
0.000113636
2.02563e-19
0.000113636
2.38742e-19
0.000113636
-1.82799e-19
0.000113636
-2.91818e-19
0.000113636
-4.18211e-19
0.000113636
4.74279e-19
0.000113636
1.5754e-19
0.000113636
-1.69124e-19
0.000113636
4.61003e-20
0.000113636
-2.31452e-19
0.000113636
2.91335e-19
0.000113636
2.85455e-19
0.000113636
-2.22494e-19
0.000113636
-1.86004e-19
0.000113636
-3.04837e-19
0.000113636
3.22429e-19
0.000113636
3.57187e-19
0.000113636
-2.86408e-21
0.000113636
-5.20982e-19
0.000113636
-4.61431e-19
0.000113636
3.41678e-19
0.000113636
1.01916e-19
0.000113636
1.24018e-19
0.000113636
-2.78531e-19
0.000113636
-9.93945e-20
0.000113636
2.98586e-19
0.000113636
-2.55998e-19
0.000113636
1.18027e-19
0.000113636
1.28361e-19
0.000113636
-1.81634e-19
0.000113636
1.03376e-19
0.000113636
-1.06025e-19
0.000113636
3.33867e-19
0.000113636
4.57625e-20
-4.67995e-19
0.000156982
-1.75446e-19
0.000156982
-1.89403e-19
0.000156982
-8.89403e-20
0.000156982
5.15681e-20
0.000156982
6.77325e-20
0.000156982
3.9531e-20
0.000156982
-2.66412e-20
0.000156982
1.30531e-20
0.000156982
1.62212e-20
0.000156982
-7.14233e-20
0.000156982
-1.05848e-19
0.000156982
-7.93979e-20
0.000156982
3.01537e-20
0.000156982
8.58196e-20
0.000156982
9.22361e-20
0.000156982
1.59357e-19
0.000156982
1.62502e-19
0.000156982
5.52887e-20
0.000156982
4.08301e-20
0.000156982
5.15427e-20
0.000156982
1.03666e-19
0.000156982
9.52999e-20
0.000156982
5.56584e-20
0.000156982
3.37714e-21
0.000156982
-7.30228e-20
0.000156982
-2.09426e-20
0.000156982
1.16385e-19
0.000156982
1.40608e-19
0.000156982
5.68055e-20
0.000156982
-8.44589e-21
0.000156982
1.3213e-19
0.000156982
2.30092e-19
0.000156982
2.63799e-20
0.000156982
-6.82808e-20
0.000156982
-1.71347e-19
0.000156982
-1.46187e-19
0.000156982
3.43803e-20
0.000156982
-5.83172e-20
0.000156982
-2.12364e-19
0.000156982
-3.7303e-20
0.000156982
1.18115e-20
0.000156982
-2.04542e-21
0.000156982
-1.48661e-20
0.000156982
-1.10313e-19
0.000156982
-5.29e-20
0.000156982
-7.68699e-21
0.000156982
1.27534e-19
0.000156982
1.36e-19
0.000156982
2.13853e-20
0.000156982
-2.52742e-20
0.000156982
-6.16893e-20
0.000156982
4.38694e-20
0.000156982
8.33466e-20
0.000156982
5.7822e-20
0.000156982
1.4184e-19
0.000156982
-8.47843e-21
0.000156982
-3.15618e-20
0.000156982
-5.09697e-20
0.000156982
-1.7968e-20
0.000156982
-1.55922e-20
0.000156982
-3.00721e-19
0.000156982
8.13742e-20
0.000156982
6.72547e-20
0.000156982
-9.38917e-21
0.000156982
1.00399e-19
0.000156982
-1.55409e-19
0.000156982
3.43361e-20
0.000156982
-4.70191e-20
0.000156982
-7.14488e-21
0.000156982
1.55447e-19
0.000156982
-8.81536e-20
0.000156982
-1.69092e-19
0.000156982
-1.55211e-19
0.000156982
-2.56612e-21
0.000156982
2.01639e-19
0.000156982
-1.06217e-19
0.000156982
-2.02954e-19
0.000156982
-7.51143e-21
0.000156982
-8.88995e-20
0.000156982
1.04061e-19
0.000156982
-6.9216e-20
0.000156982
-3.16814e-19
0.000156982
-6.8742e-20
0.000156982
1.11963e-20
0.000156982
4.38506e-20
0.000156982
-8.96919e-20
0.000156982
-8.37799e-20
0.000156982
-9.61091e-20
0.000156982
-1.03614e-19
0.000156982
2.86869e-19
0.000156982
6.02505e-22
0.000156982
-1.62849e-19
0.000156982
-6.06197e-20
0.000156982
1.17573e-20
0.000156982
1.9629e-22
0.000156982
-2.72196e-19
0.000156982
-1.48801e-19
0.000156982
-8.38437e-20
0.000156982
4.24964e-20
0.000156982
1.06554e-19
0.000156982
-2.86809e-20
0.000156982
-8.92942e-21
0.000156982
-1.49092e-19
0.000156982
-6.98807e-20
0.000156982
1.87042e-19
0.000156982
1.26734e-19
0.000156982
-2.70461e-19
0.000156982
-2.46868e-19
0.000156982
2.13093e-19
0.000156982
3.60092e-19
0.000156982
1.92692e-19
0.000156982
-4.30607e-19
0.000156982
-1.79148e-20
0.000156982
5.08324e-19
0.000156982
3.33206e-19
0.000156982
-2.49909e-20
0.000156982
-4.88578e-19
0.000156982
-2.01263e-19
0.000156982
5.2097e-19
0.000156982
3.20413e-19
0.000156982
-3.44448e-19
0.000156982
-5.44093e-19
0.000156982
-6.34899e-20
0.000156982
5.65349e-19
0.000156982
5.80089e-19
0.000156982
-1.60102e-19
0.000156982
-6.22475e-19
0.000156982
9.80915e-20
0.000156982
7.00566e-19
0.000156982
1.84472e-19
0.000156982
-1.18623e-19
0.000156982
-3.01691e-19
0.000156982
-6.4921e-20
0.000156982
4.2668e-19
0.000156982
2.48398e-19
0.000156982
-3.94694e-20
0.000156982
-3.27926e-19
0.000156982
-8.1268e-20
0.000156982
4.92449e-19
0.000156982
1.78924e-19
0.000156982
-1.87375e-19
0.000156982
-2.6366e-19
0.000156982
1.64318e-19
0.000156982
2.02649e-19
0.000156982
-3.63027e-20
0.000156982
-6.67002e-21
0.000156982
-2.48396e-19
0.000156982
3.44298e-20
0.000156982
6.9728e-20
0.000156982
-8.63252e-20
0.000156982
2.12495e-19
0.000156982
-2.34287e-19
0.000156982
-2.46267e-19
0.000156982
7.94886e-20
0.000156982
1.97702e-19
0.000156982
8.10042e-20
0.000156982
-3.29409e-19
0.000156982
-4.07594e-19
0.000156982
-3.84048e-20
0.000156982
2.10874e-19
0.000156982
2.46912e-19
0.000156982
-2.71802e-19
0.000156982
-8.13966e-20
0.000156982
2.60644e-19
0.000156982
-2.21895e-19
0.000156982
-2.02878e-20
0.000156982
-1.30537e-19
0.000156982
-1.57447e-19
0.000156982
8.0716e-20
0.000156982
4.78351e-21
0.000156982
-2.03599e-19
0.000156982
-5.88463e-19
0.000156982
6.62903e-20
0.000156982
5.40124e-19
0.000156982
8.03898e-20
0.000156982
-1.88593e-19
0.000156982
-3.02556e-19
0.000156982
5.7154e-21
0.000156982
1.29425e-20
0.000156982
3.8224e-19
0.000156982
2.83019e-19
0.000156982
-5.86782e-19
0.000156982
-4.53311e-20
0.000156982
4.65364e-19
0.000156982
2.68666e-19
0.000156982
2.54884e-19
0.000156982
-1.87704e-19
0.000156982
1.07883e-19
0.000156982
4.44934e-19
0.000156982
-5.41702e-20
0.000156982
-1.05585e-19
0.000156982
-9.46715e-20
0.000156982
-1.70596e-19
0.000156982
2.30516e-19
0.000156982
2.67138e-19
0.000156982
1.5176e-19
0.000156982
-2.4959e-19
0.000156982
-2.04063e-19
0.000156982
2.19737e-19
0.000156982
7.82171e-20
0.000156982
7.18009e-20
0.000156982
-8.69486e-20
0.000156982
1.30868e-19
0.000156982
3.29166e-19
0.000156982
3.52057e-20
0.000156982
-1.78793e-19
0.000156982
-3.79026e-19
0.000156982
-5.58518e-20
0.000156982
9.28179e-20
0.000156982
1.66609e-20
0.000156982
-7.2193e-21
0.000156982
-2.27715e-19
0.000156982
6.95284e-19
0.000156982
1.59151e-19
0.000156982
-5.71599e-19
0.000156982
2.5507e-19
0.000156982
-3.3986e-19
0.000156982
-1.061e-19
0.000156982
-2.19683e-19
0.000156982
-5.9286e-19
0.000156982
6.93076e-19
0.000156982
1.10352e-19
0.000156982
1.75502e-20
0.000156982
-9.61428e-20
0.000156982
-6.61255e-19
0.000156982
6.2839e-19
0.000156982
1.33639e-19
0.000156982
-1.4263e-19
0.000156982
4.39365e-20
0.000156982
-5.01599e-19
0.000156982
3.95134e-19
0.000156982
-1.22203e-19
0.000156982
-3.68031e-19
0.000156982
-1.74761e-20
0.000156982
-5.86392e-19
0.000156982
-2.26376e-20
0.000156982
-2.00623e-19
0.000156982
3.63898e-19
0.000156982
4.59107e-19
0.000156982
-7.61606e-19
0.000156982
-3.2753e-21
0.000156982
-2.8904e-19
0.000156982
7.66422e-20
0.000156982
2.51118e-19
0.000156982
-1.06475e-18
0.000156982
4.28851e-20
0.000156982
9.7691e-20