/*--------------------------------*- C++ -*----------------------------------*\
| =========                 |                                                 |
| \\      /  F ield         | OpenFOAM: The Open Source CFD Toolbox           |
|  \\    /   O peration     | Version:  2112                                  |
|   \\  /    A nd           | Website:  www.openfoam.com                      |
|    \\/     M anipulation  |                                                 |
\*---------------------------------------------------------------------------*/
FoamFile
{
    version     2.0;
    format      ascii;
    arch        "LSB;label=32;scalar=64";
    class       surfaceScalarField;
    location    "9";
    object      phi;
}
// * * * * * * * * * * * * * * * * * * * * * * * * * * * * * * * * * * * * * //

dimensions      [0 3 -1 0 0 0 0];

oriented        oriented;

internalField   nonuniform List<scalar> 
50800
(
2.34302e-05
4.29207e-18
2.34302e-05
7.27841e-19
2.34302e-05
1.95764e-19
2.34302e-05
7.3577e-20
2.34302e-05
5.002e-20
2.34302e-05
3.17301e-20
2.34302e-05
1.51116e-20
2.34302e-05
1.90156e-20
2.34302e-05
1.82162e-20
2.34302e-05
2.29854e-21
2.34302e-05
1.18977e-20
2.34302e-05
1.50206e-20
2.34302e-05
3.69132e-20
2.34302e-05
1.64261e-20
2.34302e-05
-1.203e-20
2.34302e-05
1.5943e-20
2.34302e-05
2.53787e-20
2.34302e-05
1.06804e-20
2.34302e-05
-1.53383e-21
2.34302e-05
8.79204e-21
2.34302e-05
2.24613e-20
2.34302e-05
9.31508e-21
2.34302e-05
-1.49241e-21
2.34302e-05
-1.90033e-20
2.34302e-05
-2.31694e-20
2.34302e-05
-1.60752e-20
2.34302e-05
2.04714e-20
2.34302e-05
-2.23712e-20
2.34302e-05
-4.42044e-20
2.34302e-05
-2.34458e-20
2.34302e-05
1.86612e-20
2.34302e-05
3.5927e-20
2.34302e-05
1.93832e-21
2.34302e-05
-1.6777e-20
2.34302e-05
-2.61469e-21
2.34302e-05
1.74682e-21
2.34302e-05
2.80693e-20
2.34302e-05
-1.03845e-20
2.34302e-05
-3.08761e-20
2.34302e-05
1.82691e-20
2.34302e-05
-1.49442e-20
2.34302e-05
1.04653e-20
2.34302e-05
9.65724e-21
2.34302e-05
-2.34693e-20
2.34302e-05
1.40344e-20
2.34302e-05
-1.13225e-20
2.34302e-05
-1.18246e-21
2.34302e-05
-1.89784e-21
2.34302e-05
-1.3638e-20
2.34302e-05
-2.50852e-20
2.34302e-05
-3.33445e-20
2.34302e-05
2.99387e-20
2.34302e-05
-1.48783e-20
2.34302e-05
-1.68835e-20
2.34302e-05
1.788e-20
2.34302e-05
-3.8369e-20
2.34302e-05
6.537e-21
2.34302e-05
-3.67718e-21
2.34302e-05
-7.39773e-21
2.34302e-05
2.15892e-20
2.34302e-05
-5.79878e-20
2.34302e-05
3.36837e-20
2.34302e-05
-3.38264e-21
2.34302e-05
2.01481e-21
2.34302e-05
5.81866e-20
2.34302e-05
-2.47321e-20
2.34302e-05
3.09406e-20
2.34302e-05
9.93037e-21
2.34302e-05
1.01439e-20
2.34302e-05
2.8146e-20
2.34302e-05
-2.36621e-20
2.34302e-05
-2.17161e-21
2.34302e-05
-1.85695e-20
2.34302e-05
-1.13223e-20
2.34302e-05
5.73945e-20
2.34302e-05
-3.90111e-20
2.34302e-05
-5.04936e-20
2.34302e-05
2.02167e-20
2.34302e-05
-2.11787e-20
2.34302e-05
2.71141e-20
2.34302e-05
-2.77195e-20
2.34302e-05
-7.2712e-20
2.34302e-05
2.73672e-20
2.34302e-05
3.62218e-20
2.34302e-05
3.19151e-20
2.34302e-05
-1.35121e-21
2.34302e-05
-1.00596e-20
2.34302e-05
-3.94443e-22
2.34302e-05
2.35688e-20
2.34302e-05
7.47355e-20
2.34302e-05
-2.54907e-20
2.34302e-05
-6.39286e-20
2.34302e-05
2.61209e-20
2.34302e-05
5.13953e-20
2.34302e-05
7.39177e-21
2.34302e-05
-4.6995e-20
2.34302e-05
2.09387e-20
2.34302e-05
-8.5463e-21
2.34302e-05
3.03442e-20
2.34302e-05
2.50108e-20
2.34302e-05
-6.92487e-20
2.34302e-05
1.11991e-20
2.34302e-05
-3.53539e-20
2.34302e-05
1.22418e-20
2.34302e-05
2.63505e-20
2.34302e-05
1.85291e-21
2.34302e-05
-5.01766e-20
2.34302e-05
-3.63137e-21
2.34302e-05
7.34721e-20
2.34302e-05
3.67395e-20
2.34302e-05
2.61407e-20
2.34302e-05
-1.41857e-19
2.34302e-05
2.6476e-20
2.34302e-05
1.12115e-19
2.34302e-05
2.29474e-20
2.34302e-05
-1.30359e-20
2.34302e-05
-1.09727e-19
2.34302e-05
2.97771e-21
2.34302e-05
1.09331e-19
2.34302e-05
3.19468e-20
2.34302e-05
-6.67155e-20
2.34302e-05
-1.16862e-19
2.34302e-05
-2.20053e-21
2.34302e-05
1.47532e-19
2.34302e-05
5.54041e-20
2.34302e-05
-6.00875e-20
2.34302e-05
-1.22631e-19
2.34302e-05
2.71339e-20
2.34302e-05
1.36334e-19
2.34302e-05
4.82786e-21
2.34302e-05
-4.39108e-20
2.34302e-05
-8.08705e-20
2.34302e-05
2.81292e-20
2.34302e-05
8.89675e-20
2.34302e-05
-2.49786e-20
2.34302e-05
-3.94646e-20
2.34302e-05
-9.28504e-20
2.34302e-05
-1.54751e-20
2.34302e-05
9.02488e-20
2.34302e-05
1.15497e-21
2.34302e-05
-4.11596e-20
2.34302e-05
-7.16075e-20
2.34302e-05
3.73248e-20
2.34302e-05
5.03552e-20
2.34302e-05
-1.49247e-20
2.34302e-05
-6.07992e-21
2.34302e-05
-6.49693e-20
2.34302e-05
2.88463e-20
2.34302e-05
8.30801e-21
2.34302e-05
-1.38907e-20
2.34302e-05
7.64674e-20
2.34302e-05
-8.0489e-20
2.34302e-05
-7.4629e-20
2.34302e-05
4.11275e-20
2.34302e-05
4.01558e-20
2.34302e-05
5.83677e-20
2.34302e-05
-4.26913e-20
2.34302e-05
-5.56337e-20
2.34302e-05
5.48406e-20
2.34302e-05
3.84249e-20
2.34302e-05
8.07005e-20
2.34302e-05
-9.07899e-20
2.34302e-05
-1.68516e-20
2.34302e-05
1.19841e-19
2.34302e-05
-8.06989e-20
2.34302e-05
6.2386e-20
2.34302e-05
7.33563e-21
2.34302e-05
-3.07811e-20
2.34302e-05
8.08784e-20
2.34302e-05
1.39537e-20
2.34302e-05
2.7031e-20
2.34302e-05
-7.19492e-20
2.34302e-05
2.74638e-20
2.34302e-05
6.58826e-20
2.34302e-05
-3.73196e-20
2.34302e-05
-3.01828e-20
2.34302e-05
-7.85905e-20
2.34302e-05
9.74825e-20
2.34302e-05
-2.75193e-20
2.34302e-05
-3.12234e-20
2.34302e-05
8.37005e-20
2.34302e-05
-1.61587e-19
2.34302e-05
3.29864e-21
2.34302e-05
6.8227e-20
2.34302e-05
-3.29658e-20
2.34302e-05
1.04553e-19
2.34302e-05
-9.90141e-20
2.34302e-05
-1.72985e-20
2.34302e-05
1.00249e-19
2.34302e-05
-8.71862e-20
2.34302e-05
4.61829e-20
2.34302e-05
-8.97769e-21
2.34302e-05
-7.31103e-20
2.34302e-05
1.09414e-19
2.34302e-05
-6.4484e-21
2.34302e-05
2.02488e-20
2.34302e-05
-5.73699e-20
2.34302e-05
-3.27139e-20
2.34302e-05
1.43162e-19
2.34302e-05
-8.53728e-20
2.34302e-05
1.14584e-20
2.34302e-05
-6.16195e-20
2.34302e-05
6.63548e-21
2.34302e-05
1.51161e-19
2.34302e-05
-6.6411e-20
2.34302e-05
-8.88123e-20
2.34302e-05
-6.37078e-20
2.34302e-05
5.99361e-20
2.34302e-05
8.60979e-20
2.34302e-05
-2.90536e-20
2.34302e-05
-6.23936e-20
2.34302e-05
-8.5097e-20
2.34302e-05
2.27662e-19
2.34302e-05
8.5028e-21
2.34302e-05
-2.26027e-19
2.34302e-05
1.86497e-19
2.34302e-05
-4.31887e-21
2.34302e-05
-4.50065e-20
2.34302e-05
-3.00085e-20
2.34302e-05
-1.3552e-19
2.34302e-05
2.49221e-19
2.34302e-05
3.54116e-20
2.34302e-05
-9.92708e-20
2.34302e-05
-3.10192e-20
2.34302e-05
-1.42591e-19
2.34302e-05
2.37765e-19
2.34302e-05
-2.77189e-21
2.34302e-05
-1.00341e-19
2.34302e-05
6.27135e-20
2.34302e-05
-9.50751e-20
2.34302e-05
1.75576e-19
2.34302e-05
-3.38037e-20
2.34302e-05
-4.35081e-20
2.34302e-05
8.22821e-20
2.34302e-05
-1.67834e-19
2.34302e-05
8.08173e-20
2.34302e-05
2.71358e-20
2.34302e-05
6.70747e-20
2.34302e-05
1.03774e-19
2.34302e-05
-1.83832e-19
2.34302e-05
1.04075e-19
2.34302e-05
-5.6847e-20
2.34302e-05
2.196e-20
2.34302e-05
1.28214e-19
2.34302e-05
-2.55316e-19
2.34302e-05
2.70125e-20
2.34302e-05
6.00887e-20
2.34302e-05
7.89286e-20
2.34302e-05
2.81358e-20
2.34302e-05
-2.0043e-19
2.34302e-05
1.72713e-19
2.34302e-05
-2.45445e-20
2.34302e-05
-1.17575e-19
2.34302e-05
-1.23228e-20
2.34302e-05
-1.40945e-19
2.34302e-05
2.54597e-19
2.34302e-05
-2.68603e-20
2.34302e-05
-5.66781e-20
2.34302e-05
8.28702e-20
2.34302e-05
-1.90182e-19
2.34302e-05
1.12574e-19
2.34302e-05
1.38188e-20
2.34302e-05
-2.37097e-20
2.34302e-05
2.89881e-20
2.34302e-05
-1.16175e-19
2.34302e-05
1.88338e-19
2.34302e-05
1.59722e-20
2.34302e-05
-4.19241e-20
2.34302e-05
-9.21181e-21
2.34302e-05
-1.56301e-19
2.34302e-05
1.27738e-19
2.34302e-05
1.41802e-20
2.34302e-05
5.90675e-21
2.34302e-05
7.44062e-21
2.34302e-05
-1.51186e-19
2.34302e-05
1.089e-19
2.34302e-05
3.0075e-21
2.34302e-05
-5.14444e-20
2.34302e-05
8.35489e-20
2.34302e-05
-1.35917e-19
2.34302e-05
5.38581e-20
2.34302e-05
3.52113e-20
2.34302e-05
-2.94919e-20
2.34302e-05
4.9558e-20
2.34302e-05
-1.17427e-19
2.34302e-05
7.4076e-20
2.34302e-05
1.1058e-19
2.34302e-05
-1.19636e-20
2.34302e-05
-8.8449e-20
2.34302e-05
-9.52803e-20
2.34302e-05
1.41134e-19
2.34302e-05
2.09619e-20
2.34302e-05
-5.99577e-20
2.34302e-05
-4.02455e-20
2.34302e-05
-4.2491e-20
2.34302e-05
1.35748e-19
2.34302e-05
9.91502e-21
2.34302e-05
-2.87259e-20
2.34302e-05
-8.41726e-20
2.34302e-05
-4.43593e-20
2.34302e-05
1.62634e-19
2.34302e-05
3.98952e-20
2.34302e-05
5.50886e-20
2.34302e-05
-1.04964e-19
2.34302e-05
-9.67312e-20
2.34302e-05
9.77984e-20
2.34302e-05
4.03442e-21
2.34302e-05
7.68956e-20
2.34302e-05
-1.17394e-19
2.34302e-05
5.36876e-21
2.34302e-05
6.38676e-20
2.34302e-05
-1.02675e-19
2.34302e-05
1.20252e-19
2.34302e-05
-1.44118e-20
2.34302e-05
-7.58914e-20
2.34302e-05
8.06582e-20
2.34302e-05
-2.95512e-20
2.34302e-05
1.87232e-19
2.34302e-05
1.88458e-19
6.229e-19
6.9119e-05
2.70883e-18
6.9119e-05
9.04267e-19
6.9119e-05
3.51842e-19
6.9119e-05
1.96679e-19
6.9119e-05
1.15527e-19
6.9119e-05
8.09771e-20
6.9119e-05
4.80703e-20
6.9119e-05
5.21483e-20
6.9119e-05
6.13859e-20
6.9119e-05
2.46019e-20
6.9119e-05
2.85185e-20
6.9119e-05
4.6174e-20
6.9119e-05
1.07796e-19
6.9119e-05
5.12248e-20
6.9119e-05
-2.86778e-20
6.9119e-05
4.30595e-20
6.9119e-05
6.42759e-20
6.9119e-05
4.6988e-20
6.9119e-05
3.31157e-20
6.9119e-05
2.27332e-20
6.9119e-05
6.39071e-20
6.9119e-05
1.71412e-20
6.9119e-05
-2.33383e-20
6.9119e-05
-5.26652e-20
6.9119e-05
-7.09793e-20
6.9119e-05
-5.04307e-20
6.9119e-05
1.70367e-20
6.9119e-05
-7.85331e-20
6.9119e-05
-1.06612e-19
6.9119e-05
-7.85826e-20
6.9119e-05
3.66645e-20
6.9119e-05
9.71892e-20
6.9119e-05
1.39296e-20
6.9119e-05
-4.49802e-20
6.9119e-05
-6.68696e-21
6.9119e-05
7.42501e-22
6.9119e-05
6.90107e-20
6.9119e-05
-1.21661e-20
6.9119e-05
-8.44658e-20
6.9119e-05
2.53388e-21
6.9119e-05
-2.1257e-20
6.9119e-05
8.7916e-21
6.9119e-05
2.83684e-20
6.9119e-05
-5.30429e-20
6.9119e-05
4.06945e-21
6.9119e-05
6.26763e-21
6.9119e-05
-1.22417e-20
6.9119e-05
-2.82887e-20
6.9119e-05
-6.50168e-20
6.9119e-05
-6.4677e-20
6.9119e-05
-6.67677e-20
6.9119e-05
4.75435e-21
6.9119e-05
-4.39735e-20
6.9119e-05
-3.50789e-20
6.9119e-05
1.13471e-20
6.9119e-05
-9.58133e-20
6.9119e-05
-1.94883e-20
6.9119e-05
-4.23261e-21
6.9119e-05
-1.21512e-20
6.9119e-05
2.59424e-20
6.9119e-05
-1.39916e-19
6.9119e-05
7.53637e-20
6.9119e-05
1.55948e-21
6.9119e-05
1.80823e-20
6.9119e-05
1.53833e-19
6.9119e-05
-2.93686e-20
6.9119e-05
8.22976e-20
6.9119e-05
4.50911e-20
6.9119e-05
3.8418e-20
6.9119e-05
6.95733e-20
6.9119e-05
-4.65519e-20
6.9119e-05
-5.48928e-21
6.9119e-05
-4.04145e-20
6.9119e-05
-1.01079e-20
6.9119e-05
1.02845e-19
6.9119e-05
-9.17886e-20
6.9119e-05
-1.2193e-19
6.9119e-05
1.06784e-20
6.9119e-05
-6.10688e-20
6.9119e-05
3.062e-20
6.9119e-05
-9.11334e-20
6.9119e-05
-1.58771e-19
6.9119e-05
3.62301e-20
6.9119e-05
1.03744e-19
6.9119e-05
1.04349e-19
6.9119e-05
1.50956e-20
6.9119e-05
1.21971e-20
6.9119e-05
2.18472e-20
6.9119e-05
5.90562e-20
6.9119e-05
1.84247e-19
6.9119e-05
-5.42925e-20
6.9119e-05
-1.24383e-19
6.9119e-05
4.661e-20
6.9119e-05
1.05467e-19
6.9119e-05
3.27589e-20
6.9119e-05
-8.52581e-20
6.9119e-05
2.87194e-20
6.9119e-05
7.70291e-21
6.9119e-05
3.67522e-20
6.9119e-05
3.42697e-20
6.9119e-05
-1.14395e-19
6.9119e-05
-2.05659e-20
6.9119e-05
-8.08149e-20
6.9119e-05
2.80112e-20
6.9119e-05
7.25585e-20
6.9119e-05
3.55348e-20
6.9119e-05
-1.10213e-19
6.9119e-05
-4.70256e-20
6.9119e-05
2.11224e-19
6.9119e-05
1.71025e-19
6.9119e-05
2.45413e-20
6.9119e-05
-3.03519e-19
6.9119e-05
5.0115e-20
6.9119e-05
2.68006e-19
6.9119e-05
9.9615e-20
6.9119e-05
-3.85214e-20
6.9119e-05
-2.73893e-19
6.9119e-05
-4.84054e-20
6.9119e-05
2.82505e-19
6.9119e-05
1.03311e-19
6.9119e-05
-2.10166e-19
6.9119e-05
-2.94335e-19
6.9119e-05
-9.7353e-21
6.9119e-05
3.41837e-19
6.9119e-05
1.89231e-19
6.9119e-05
-1.47679e-19
6.9119e-05
-2.96109e-19
6.9119e-05
7.54972e-20
6.9119e-05
3.09418e-19
6.9119e-05
3.82917e-20
6.9119e-05
-9.73742e-20
6.9119e-05
-1.91577e-19
6.9119e-05
5.49783e-20
6.9119e-05
2.02238e-19
6.9119e-05
-4.81169e-20
6.9119e-05
-1.35866e-19
6.9119e-05
-2.38521e-19
6.9119e-05
-6.23355e-20
6.9119e-05
2.05777e-19
6.9119e-05
1.23692e-20
6.9119e-05
-1.03558e-19
6.9119e-05
-1.85881e-19
6.9119e-05
5.79787e-20
6.9119e-05
1.23128e-19
6.9119e-05
-3.77108e-20
6.9119e-05
-4.95897e-20
6.9119e-05
-1.48129e-19
6.9119e-05
7.67075e-20
6.9119e-05
2.94803e-20
6.9119e-05
-3.86811e-20
6.9119e-05
1.19097e-19
6.9119e-05
-1.67959e-19
6.9119e-05
-1.50054e-19
6.9119e-05
7.43937e-20
6.9119e-05
1.1649e-19
6.9119e-05
1.27455e-19
6.9119e-05
-6.60041e-20
6.9119e-05
-1.21695e-19
6.9119e-05
1.11977e-19
6.9119e-05
1.55579e-19
6.9119e-05
1.83115e-19
6.9119e-05
-1.79127e-19
6.9119e-05
-1.65241e-22
6.9119e-05
2.64554e-19
6.9119e-05
-1.38076e-19
6.9119e-05
8.16835e-20
6.9119e-05
5.97841e-20
6.9119e-05
-1.57054e-20
6.9119e-05
1.70255e-19
6.9119e-05
8.3802e-20
6.9119e-05
2.02078e-20
6.9119e-05
-1.28544e-19
6.9119e-05
6.19478e-20
6.9119e-05
1.52576e-19
6.9119e-05
-3.17659e-20
6.9119e-05
-1.41859e-19
6.9119e-05
-1.58209e-19
6.9119e-05
1.2688e-19
6.9119e-05
-6.51422e-20
6.9119e-05
3.62628e-20
6.9119e-05
1.02911e-19
6.9119e-05
-3.5547e-19
6.9119e-05
-2.99502e-20
6.9119e-05
1.62046e-19
6.9119e-05
-1.48945e-20
6.9119e-05
1.66269e-19
6.9119e-05
-1.87724e-19
6.9119e-05
-4.5543e-20
6.9119e-05
2.00605e-19
6.9119e-05
-1.17997e-19
6.9119e-05
4.12394e-20
6.9119e-05
-2.61124e-20
6.9119e-05
-1.06552e-19
6.9119e-05
1.69708e-19
6.9119e-05
7.01597e-20
6.9119e-05
3.47285e-20
6.9119e-05
-1.06075e-19
6.9119e-05
-3.62807e-20
6.9119e-05
2.02359e-19
6.9119e-05
-1.07925e-19
6.9119e-05
-2.32245e-20
6.9119e-05
-1.15157e-19
6.9119e-05
4.2612e-20
6.9119e-05
2.28891e-19
6.9119e-05
-1.03862e-19
6.9119e-05
-1.81521e-19
6.9119e-05
-1.70199e-19
6.9119e-05
9.0182e-20
6.9119e-05
1.35479e-19
6.9119e-05
-2.13321e-20
6.9119e-05
-9.47106e-20
6.9119e-05
-1.70368e-19
6.9119e-05
4.53535e-19
6.9119e-05
1.79886e-20
6.9119e-05
-4.19391e-19
6.9119e-05
3.39211e-19
6.9119e-05
-2.90774e-20
6.9119e-05
-3.7042e-20
6.9119e-05
-8.62837e-20
6.9119e-05
-3.03565e-19
6.9119e-05
5.34143e-19
6.9119e-05
7.51794e-20
6.9119e-05
-1.52505e-19
6.9119e-05
-8.57983e-20
6.9119e-05
-3.31245e-19
6.9119e-05
5.19997e-19
6.9119e-05
3.56144e-20
6.9119e-05
-1.9059e-19
6.9119e-05
1.19191e-19
6.9119e-05
-1.52372e-19
6.9119e-05
3.80347e-19
6.9119e-05
-2.45781e-20
6.9119e-05
-9.78698e-20
6.9119e-05
1.18016e-19
6.9119e-05
-3.47041e-19
6.9119e-05
1.33751e-19
6.9119e-05
8.09246e-20
6.9119e-05
2.60962e-19
6.9119e-05
2.64936e-19
6.9119e-05
-4.00636e-19
6.9119e-05
1.73993e-19
6.9119e-05
-1.31683e-19
6.9119e-05
8.60072e-20
6.9119e-05
2.21585e-19
6.9119e-05
-5.84354e-19
6.9119e-05
7.14268e-20
6.9119e-05
1.41492e-19
6.9119e-05
2.05163e-19
6.9119e-05
4.62005e-20
6.9119e-05
-4.4839e-19
6.9119e-05
3.98271e-19
6.9119e-05
-5.13714e-20
6.9119e-05
-3.36995e-19
6.9119e-05
-1.45479e-19
6.9119e-05
-2.78126e-19
6.9119e-05
6.03083e-19
6.9119e-05
-3.6223e-20
6.9119e-05
-1.21131e-19
6.9119e-05
1.59961e-19
6.9119e-05
-4.07787e-19
6.9119e-05
2.1149e-19
6.9119e-05
4.66928e-20
6.9119e-05
-1.00866e-20
6.9119e-05
3.62934e-20
6.9119e-05
-2.38165e-19
6.9119e-05
4.3147e-19
6.9119e-05
1.9392e-20
6.9119e-05
-6.77619e-20
6.9119e-05
-4.49794e-20
6.9119e-05
-3.58542e-19
6.9119e-05
2.71485e-19
6.9119e-05
5.30576e-20
6.9119e-05
3.63612e-20
6.9119e-05
-2.2861e-20
6.9119e-05
-3.79182e-19
6.9119e-05
2.66762e-19
6.9119e-05
-1.28726e-20
6.9119e-05
-5.64724e-20
6.9119e-05
1.37152e-19
6.9119e-05
-3.59185e-19
6.9119e-05
1.61473e-19
6.9119e-05
5.26235e-20
6.9119e-05
-9.76425e-21
6.9119e-05
8.88709e-20
6.9119e-05
-3.06035e-19
6.9119e-05
2.34828e-19
6.9119e-05
2.45222e-19
6.9119e-05
-6.84096e-20
6.9119e-05
-1.8864e-19
6.9119e-05
-2.2312e-19
6.9119e-05
3.21539e-19
6.9119e-05
3.13429e-20
6.9119e-05
-1.7301e-19
6.9119e-05
-2.52278e-20
6.9119e-05
-1.21429e-19
6.9119e-05
2.53822e-19
6.9119e-05
1.16557e-19
6.9119e-05
-1.54023e-19
6.9119e-05
-1.51626e-19
6.9119e-05
-1.11405e-19
6.9119e-05
3.48105e-19
6.9119e-05
2.22091e-19
6.9119e-05
8.61896e-20
6.9119e-05
-2.58756e-19
6.9119e-05
-2.24202e-19
6.9119e-05
2.65442e-19
6.9119e-05
5.58793e-20
6.9119e-05
7.56683e-20
6.9119e-05
-2.41706e-19
6.9119e-05
5.38389e-22
6.9119e-05
1.41934e-19
6.9119e-05
-1.89554e-19
6.9119e-05
1.79444e-19
6.9119e-05
-7.26572e-21
6.9119e-05
-1.64941e-19
6.9119e-05
1.15372e-19
6.9119e-05
-3.03367e-20
6.9119e-05
4.25424e-19
6.9119e-05
3.58019e-19
6.88474e-19
0.000113636
1.7725e-18
0.000113636
8.74623e-19
0.000113636
4.31643e-19
0.000113636
2.45261e-19
0.000113636
1.48616e-19
0.000113636
1.39343e-19
0.000113636
1.04934e-19
0.000113636
6.65618e-20
0.000113636
9.28312e-20
0.000113636
7.42637e-20
0.000113636
5.59579e-20
0.000113636
8.72105e-20
0.000113636
1.81644e-19
0.000113636
7.58499e-20
0.000113636
1.12195e-20
0.000113636
5.89236e-20
0.000113636
1.25146e-19
0.000113636
9.68905e-20
0.000113636
5.96654e-20
0.000113636
7.02991e-20
0.000113636
9.95727e-20
0.000113636
1.40216e-20
0.000113636
-6.02404e-20
0.000113636
-9.11444e-20
0.000113636
-1.1856e-19
0.000113636
-1.08354e-19
0.000113636
-3.55359e-20
0.000113636
-1.35494e-19
0.000113636
-1.86358e-19
0.000113636
-1.49253e-19
0.000113636
5.74988e-20
0.000113636
1.29647e-19
0.000113636
4.00798e-20
0.000113636
-5.15353e-20
0.000113636
-2.90236e-20
0.000113636
7.48357e-21
0.000113636
1.09357e-19
0.000113636
-1.86185e-20
0.000113636
-1.23043e-19
0.000113636
-1.96582e-20
0.000113636
-3.7644e-20
0.000113636
8.71864e-22
0.000113636
1.23948e-20
0.000113636
-6.72142e-20
0.000113636
-9.63176e-21
0.000113636
7.73331e-21
0.000113636
-3.04254e-20
0.000113636
-6.32939e-20
0.000113636
-1.25616e-19
0.000113636
-1.45265e-19
0.000113636
-1.34521e-19
0.000113636
-3.42329e-20
0.000113636
-6.18087e-20
0.000113636
-7.56174e-20
0.000113636
2.40976e-21
0.000113636
-1.55656e-19
0.000113636
-6.49631e-20
0.000113636
-2.87111e-20
0.000113636
-2.16097e-20
0.000113636
2.71326e-20
0.000113636
-1.99197e-19
0.000113636
9.26179e-20
0.000113636
1.05933e-21
0.000113636
5.61692e-20
0.000113636
2.33986e-19
0.000113636
-3.42487e-20
0.000113636
1.60178e-19
0.000113636
8.27663e-20
0.000113636
8.79376e-20
0.000113636
1.08262e-19
0.000113636
-5.76908e-20
0.000113636
2.56614e-21
0.000113636
-5.30327e-20
0.000113636
1.82553e-20
0.000113636
1.21942e-19
0.000113636
-1.88722e-19
0.000113636
-1.7509e-19
0.000113636
-2.88784e-20
0.000113636
-1.12599e-19
0.000113636
1.33568e-20
0.000113636
-1.61495e-19
0.000113636
-2.60234e-19
0.000113636
4.32371e-20
0.000113636
2.06154e-19
0.000113636
1.81034e-19
0.000113636
4.36374e-20
0.000113636
4.94657e-20
0.000113636
4.58379e-20
0.000113636
9.85986e-20
0.000113636
2.71415e-19
0.000113636
-6.23599e-21
0.000113636
-1.08271e-19
0.000113636
4.55353e-20
0.000113636
1.11115e-19
0.000113636
8.33464e-20
0.000113636
-9.65003e-20
0.000113636
3.71658e-20
0.000113636
2.41588e-20
0.000113636
5.8747e-21
0.000113636
3.7606e-21
0.000113636
-1.01117e-19
0.000113636
-8.24619e-20
0.000113636
-1.32952e-19
0.000113636
6.66848e-21
0.000113636
1.44532e-19
0.000113636
8.56217e-20
0.000113636
-1.41239e-19
0.000113636
-1.03686e-19
0.000113636
3.25378e-19
0.000113636
3.31541e-19
0.000113636
1.78822e-20
0.000113636
-4.10151e-19
0.000113636
7.0968e-20
0.000113636
4.14895e-19
0.000113636
2.30393e-19
0.000113636
-2.48744e-20
0.000113636
-4.16514e-19
0.000113636
-1.1394e-19
0.000113636
4.2804e-19
0.000113636
1.69585e-19
0.000113636
-3.73447e-19
0.000113636
-5.07324e-19
0.000113636
-2.19944e-20
0.000113636
5.61714e-19
0.000113636
3.39998e-19
0.000113636
-2.25872e-19
0.000113636
-4.68613e-19
0.000113636
1.59342e-19
0.000113636
4.83718e-19
0.000113636
7.65065e-20
0.000113636
-1.72557e-19
0.000113636
-2.76634e-19
0.000113636
4.59506e-20
0.000113636
2.73519e-19
0.000113636
-6.24713e-20
0.000113636
-2.56792e-19
0.000113636
-3.8299e-19
0.000113636
-1.09266e-19
0.000113636
2.92146e-19
0.000113636
2.67017e-20
0.000113636
-2.29285e-19
0.000113636
-2.84331e-19
0.000113636
8.33851e-20
0.000113636
1.39394e-19
0.000113636
-4.74168e-20
0.000113636
-1.10849e-19
0.000113636
-2.36666e-19
0.000113636
1.21706e-19
0.000113636
5.86606e-20
0.000113636
-7.6759e-20
0.000113636
1.50561e-19
0.000113636
-2.47036e-19
0.000113636
-2.07696e-19
0.000113636
7.63906e-20
0.000113636
1.80506e-19
0.000113636
1.91965e-19
0.000113636
-6.91336e-20
0.000113636
-1.47292e-19
0.000113636
1.71939e-19
0.000113636
2.89514e-19
0.000113636
2.62834e-19
0.000113636
-2.01614e-19
0.000113636
5.59052e-20
0.000113636
3.50948e-19
0.000113636
-1.12703e-19
0.000113636
1.24533e-19
0.000113636
1.24811e-19
0.000113636
1.1691e-19
0.000113636
2.35253e-19
0.000113636
1.26592e-19
0.000113636
5.53342e-20
0.000113636
-1.79465e-19
0.000113636
9.78269e-20
0.000113636
2.62986e-19
0.000113636
-5.44698e-20
0.000113636
-2.65275e-19
0.000113636
-2.48683e-19
0.000113636
8.57181e-20
0.000113636
-3.55211e-20
0.000113636
1.15826e-19
0.000113636
5.32155e-20
0.000113636
-5.32858e-19
0.000113636
-4.65031e-20
0.000113636
2.50967e-19
0.000113636
4.93032e-20
0.000113636
1.6026e-19
0.000113636
-2.48404e-19
0.000113636
-4.036e-20
0.000113636
2.41473e-19
0.000113636
-1.19985e-19
0.000113636
1.84875e-22
0.000113636
-3.39945e-20
0.000113636
-1.02563e-19
0.000113636
1.98373e-19
0.000113636
1.69312e-19
0.000113636
7.0769e-20
0.000113636
-1.47731e-19
0.000113636
-5.28339e-20
0.000113636
1.8935e-19
0.000113636
-8.06598e-20
0.000113636
-7.83372e-20
0.000113636
-1.43503e-19
0.000113636
9.1145e-20
0.000113636
2.24125e-19
0.000113636
-1.37665e-19
0.000113636
-2.43074e-19
0.000113636
-2.87973e-19
0.000113636
7.98864e-20
0.000113636
1.38189e-19
0.000113636
-8.56166e-21
0.000113636
-4.72801e-20
0.000113636
-2.23443e-19
0.000113636
5.75003e-19
0.000113636
6.03106e-20
0.000113636
-4.8866e-19
0.000113636
4.18402e-19
0.000113636
-8.2477e-20
0.000113636
7.71884e-21
0.000113636
-1.71719e-19
0.000113636
-4.23955e-19
0.000113636
7.01868e-19
0.000113636
1.05853e-19
0.000113636
-1.504e-19
0.000113636
-9.91927e-20
0.000113636
-4.74153e-19
0.000113636
6.88369e-19
0.000113636
1.15391e-19
0.000113636
-2.29024e-19
0.000113636
1.64192e-19
0.000113636
-1.57473e-19
0.000113636
5.76194e-19
0.000113636
2.6855e-20
0.000113636
-1.43953e-19
0.000113636
1.26378e-19
0.000113636
-4.46526e-19
0.000113636
1.53083e-19
0.000113636
1.19346e-19
0.000113636
4.92352e-19
0.000113636
4.28548e-19
0.000113636
-5.60761e-19
0.000113636
1.96538e-19
0.000113636
-1.99063e-19
0.000113636
1.53979e-19
0.000113636
2.80128e-19
0.000113636
-8.58314e-19
0.000113636
9.46666e-20
0.000113636
1.57401e-19
0.000113636
2.67191e-19
0.000113636
1.14082e-19
0.000113636
-6.14493e-19
0.000113636
5.66174e-19
0.000113636
-1.02037e-19
0.000113636
-5.7115e-19
0.000113636
-3.54047e-19
0.000113636
-3.1817e-19
0.000113636
9.03604e-19
0.000113636
-1.86356e-20
0.000113636
-1.6361e-19
0.000113636
1.84271e-19
0.000113636
-5.59496e-19
0.000113636
2.40178e-19
0.000113636
5.17061e-20
0.000113636
9.97004e-20
0.000113636
3.08745e-20
0.000113636
-3.30128e-19
0.000113636
6.527e-19
0.000113636
6.7709e-21
0.000113636
-8.92631e-20
0.000113636
-7.19209e-20
0.000113636
-5.33128e-19
0.000113636
4.22897e-19
0.000113636
5.94192e-20
0.000113636
2.53645e-20
0.000113636
-4.93824e-20
0.000113636
-5.63193e-19
0.000113636
4.16804e-19
0.000113636
-5.20725e-20
0.000113636
-2.9528e-20
0.000113636
1.68407e-19
0.000113636
-5.99066e-19
0.000113636
2.78244e-19
0.000113636
3.42871e-20
0.000113636
1.86433e-20
0.000113636
1.79088e-19
0.000113636
-5.13939e-19
0.000113636
4.06152e-19
0.000113636
3.69919e-19
0.000113636
-1.49511e-19
0.000113636
-2.78597e-19
0.000113636
-3.67116e-19
0.000113636
4.66752e-19
0.000113636
6.51443e-20
0.000113636
-2.44417e-19
0.000113636
-4.88997e-21
0.000113636
-2.15161e-19
0.000113636
3.45149e-19
0.000113636
2.59647e-19
0.000113636
-2.62233e-19
0.000113636
-1.75725e-19
0.000113636
-1.93297e-19
0.000113636
5.08103e-19
0.000113636
4.90594e-19
0.000113636
8.60447e-20
0.000113636
-3.985e-19
0.000113636
-3.44455e-19
0.000113636
4.25621e-19
0.000113636
7.78383e-20
0.000113636
2.56589e-21
0.000113636
-3.042e-19
0.000113636
-5.97994e-20
0.000113636
2.64285e-19
0.000113636
-2.87985e-19
0.000113636
1.34705e-19
0.000113636
7.23217e-20
0.000113636
-2.51773e-19
0.000113636
1.1292e-19
0.000113636
-3.16317e-20
0.000113636
5.69186e-19
0.000113636
4.63725e-19
5.45257e-19
0.000156982
1.23268e-18
0.000156982
7.26845e-19
0.000156982
4.57063e-19
0.000156982
2.83209e-19
0.000156982
1.81357e-19
0.000156982
1.67392e-19
0.000156982
1.26004e-19
0.000156982
1.15678e-19
0.000156982
1.79428e-19
0.000156982
7.91951e-20
0.000156982
5.57251e-20
0.000156982
1.3137e-19
0.000156982
2.3258e-19
0.000156982
1.55416e-19
0.000156982
3.32294e-20
0.000156982
1.33167e-19
0.000156982
1.9983e-19
0.000156982
1.69845e-19
0.000156982
1.11759e-19
0.000156982
8.96273e-20
0.000156982
1.16907e-19
0.000156982
1.73982e-20
0.000156982
-5.7066e-20
0.000156982
-1.43327e-19
0.000156982
-2.01612e-19
0.000156982
-1.4245e-19
0.000156982
-9.96794e-20
0.000156982
-1.84628e-19
0.000156982
-2.8815e-19
0.000156982
-2.18212e-19
0.000156982
2.68795e-20
0.000156982
1.84385e-19
0.000156982
3.5457e-20
0.000156982
-5.00028e-20
0.000156982
-5.19351e-20
0.000156982
-2.25955e-20
0.000156982
9.30195e-20
0.000156982
-2.08789e-20
0.000156982
-1.40042e-19
0.000156982
-2.58198e-20
0.000156982
-5.43299e-20
0.000156982
-4.79652e-21
0.000156982
-8.43383e-21
0.000156982
-1.08765e-19
0.000156982
-1.96661e-20
0.000156982
1.91531e-20
0.000156982
-7.04861e-21
0.000156982
-9.9508e-20
0.000156982
-2.44871e-19
0.000156982
-2.42112e-19
0.000156982
-2.28593e-19
0.000156982
-1.12065e-19
0.000156982
-9.83123e-20
0.000156982
-9.98767e-20
0.000156982
-4.26659e-20
0.000156982
-1.99343e-19
0.000156982
-1.33799e-19
0.000156982
-7.46016e-20
0.000156982
-6.10362e-20
0.000156982
3.01884e-20
0.000156982
-2.23929e-19
0.000156982
6.81726e-20
0.000156982
3.32283e-20
0.000156982
8.33239e-20
0.000156982
2.82588e-19
0.000156982
4.3203e-20
0.000156982
1.88948e-19
0.000156982
1.60122e-19
0.000156982
1.58927e-19
0.000156982
1.59268e-19
0.000156982
-4.541e-20
0.000156982
-6.46245e-21
0.000156982
-7.14254e-20
0.000156982
3.38114e-20
0.000156982
1.13565e-19
0.000156982
-2.68053e-19
0.000156982
-2.29901e-19
0.000156982
-1.26641e-19
0.000156982
-1.91505e-19
0.000156982
-2.64112e-20
0.000156982
-2.01558e-19
0.000156982
-3.25995e-19
0.000156982
4.35122e-20
0.000156982
3.24112e-19
0.000156982
2.77841e-19
0.000156982
3.44286e-20
0.000156982
7.76149e-20
0.000156982
1.2497e-19
0.000156982
1.68263e-19
0.000156982
3.87003e-19
0.000156982
2.37095e-20
0.000156982
-1.27923e-19
0.000156982
5.89072e-20
0.000156982
1.67831e-19
0.000156982
9.84465e-20
0.000156982
-7.33756e-20
0.000156982
3.57041e-20
0.000156982
6.65728e-21
0.000156982
5.94665e-21
0.000156982
-2.93176e-20
0.000156982
-1.32291e-19
0.000156982
-1.44045e-19
0.000156982
-1.72762e-19
0.000156982
5.38438e-20
0.000156982
2.0572e-19
0.000156982
1.16074e-19
0.000156982
-2.15265e-19
0.000156982
-9.44423e-20
0.000156982
4.36625e-19
0.000156982
4.79498e-19
0.000156982
4.92255e-20
0.000156982
-4.5931e-19
0.000156982
5.74832e-20
0.000156982
5.57745e-19
0.000156982
3.37255e-19
0.000156982
-3.72888e-20
0.000156982
-4.72134e-19
0.000156982
-1.57977e-19
0.000156982
5.13813e-19
0.000156982
1.77626e-19
0.000156982
-5.28431e-19
0.000156982
-6.36622e-19
0.000156982
-3.43336e-20
0.000156982
6.92413e-19
0.000156982
5.11308e-19
0.000156982
-2.74457e-19
0.000156982
-5.76743e-19
0.000156982
1.98593e-19
0.000156982
6.61422e-19
0.000156982
7.74178e-20
0.000156982
-2.30059e-19
0.000156982
-3.64607e-19
0.000156982
-8.26733e-21
0.000156982
3.28832e-19
0.000156982
-5.78276e-20
0.000156982
-3.54421e-19
0.000156982
-5.28269e-19
0.000156982
-1.79324e-19
0.000156982
3.68256e-19
0.000156982
4.25306e-20
0.000156982
-3.21402e-19
0.000156982
-4.57053e-19
0.000156982
4.03973e-20
0.000156982
1.94186e-19
0.000156982
-8.17543e-20
0.000156982
-1.44014e-19
0.000156982
-2.84048e-19
0.000156982
1.60199e-19
0.000156982
5.4321e-20
0.000156982
-1.40806e-19
0.000156982
1.58563e-19
0.000156982
-2.09388e-19
0.000156982
-2.82719e-19
0.000156982
5.03728e-20
0.000156982
2.50366e-19
0.000156982
2.19767e-19
0.000156982
-9.70148e-20
0.000156982
-1.08404e-19
0.000156982
2.62216e-19
0.000156982
4.02288e-19
0.000156982
3.12637e-19
0.000156982
-2.01427e-19
0.000156982
1.53365e-19
0.000156982
4.70645e-19
0.000156982
-7.56043e-20
0.000156982
1.87073e-19
0.000156982
2.30182e-19
0.000156982
2.38231e-19
0.000156982
3.80517e-19
0.000156982
1.75906e-19
0.000156982
4.3275e-20
0.000156982
-2.76766e-19
0.000156982
1.75142e-19
0.000156982
4.17275e-19
0.000156982
-1.55749e-19
0.000156982
-3.4638e-19
0.000156982
-3.00724e-19
0.000156982
-3.0062e-20
0.000156982
-9.07398e-20
0.000156982
2.16682e-19
0.000156982
2.52107e-20
0.000156982
-6.96111e-19
0.000156982
-7.00792e-20
0.000156982
3.1316e-19
0.000156982
1.31898e-19
0.000156982
1.56073e-19
0.000156982
-3.38481e-19
0.000156982
-1.37214e-20
0.000156982
3.2693e-19
0.000156982
-1.38849e-19
0.000156982
-7.08641e-20
0.000156982
-1.35307e-20
0.000156982
-2.65663e-20
0.000156982
2.64608e-19
0.000156982
2.10424e-19
0.000156982
1.49014e-19
0.000156982
-1.98268e-19
0.000156982
-1.27113e-19
0.000156982
1.95494e-19
0.000156982
-6.5341e-20
0.000156982
-1.15563e-19
0.000156982
-1.86493e-19
0.000156982
1.22729e-19
0.000156982
1.89805e-19
0.000156982
-1.18803e-19
0.000156982
-3.19725e-19
0.000156982
-3.73003e-19
0.000156982
5.07625e-21
0.000156982
1.41304e-19
0.000156982
7.5654e-20
0.000156982
5.60038e-21
0.000156982
-2.83983e-19
0.000156982
6.24232e-19
0.000156982
9.34866e-20
0.000156982
-5.43274e-19
0.000156982
4.56994e-19
0.000156982
-1.18802e-19
0.000156982
2.74113e-20
0.000156982
-1.99441e-19
0.000156982
-4.87493e-19
0.000156982
8.08173e-19
0.000156982
7.52898e-20
0.000156982
-5.2956e-20
0.000156982
-8.94816e-20
0.000156982
-6.16957e-19
0.000156982
7.62276e-19
0.000156982
2.14708e-19
0.000156982
-1.55302e-19
0.000156982
1.95227e-19
0.000156982
-1.59404e-19
0.000156982
7.16446e-19
0.000156982
1.19481e-19
0.000156982
-1.68515e-19
0.000156982
1.14681e-19
0.000156982
-4.47989e-19
0.000156982
2.12872e-19
0.000156982
1.42966e-19
0.000156982
6.43876e-19
0.000156982
6.11861e-19
0.000156982
-6.00068e-19
0.000156982
1.53377e-19
0.000156982
-2.34529e-19
0.000156982
2.22927e-19
0.000156982
2.91239e-19
0.000156982
-1.07206e-18
0.000156982
5.29984e-20
0.000156982
1.44787e-19
0.000156982
3.49934e-19