/*--------------------------------*- C++ -*----------------------------------*\
| =========                 |                                                 |
| \\      /  F ield         | OpenFOAM: The Open Source CFD Toolbox           |
|  \\    /   O peration     | Version:  2112                                  |
|   \\  /    A nd           | Website:  www.openfoam.com                      |
|    \\/     M anipulation  |                                                 |
\*---------------------------------------------------------------------------*/
FoamFile
{
    version     2.0;
    format      ascii;
    arch        "LSB;label=32;scalar=64";
    class       surfaceScalarField;
    location    "9";
    object      phi;
}
// * * * * * * * * * * * * * * * * * * * * * * * * * * * * * * * * * * * * * //

dimensions      [0 3 -1 0 0 0 0];

oriented        oriented;

internalField   nonuniform List<scalar> 
99400
(
3.00429e-05
-2.05185e-19
3.00429e-05
1.32032e-20
3.00429e-05
1.68017e-19
3.00429e-05
1.093e-19
3.00429e-05
8.34899e-20
3.00429e-05
5.13621e-20
3.00429e-05
4.49489e-20
3.00429e-05
2.84365e-20
3.00429e-05
1.44255e-20
3.00429e-05
1.5434e-20
3.00429e-05
-1.04863e-20
3.00429e-05
-2.23189e-20
3.00429e-05
-1.02119e-20
3.00429e-05
-1.50272e-20
3.00429e-05
8.41374e-21
3.00429e-05
-1.82571e-20
3.00429e-05
-2.8571e-20
3.00429e-05
-1.25607e-20
3.00429e-05
-8.05699e-22
3.00429e-05
4.65619e-21
3.00429e-05
1.41249e-20
3.00429e-05
4.39739e-21
3.00429e-05
2.61214e-20
3.00429e-05
-2.74499e-21
3.00429e-05
-2.433e-20
3.00429e-05
-2.63728e-20
3.00429e-05
6.97104e-23
3.00429e-05
3.62539e-20
3.00429e-05
-2.39478e-20
3.00429e-05
-7.7262e-21
3.00429e-05
9.40213e-21
3.00429e-05
-2.05227e-20
3.00429e-05
-1.2701e-20
3.00429e-05
-2.01433e-20
3.00429e-05
-4.05715e-20
3.00429e-05
2.36118e-21
3.00429e-05
-3.4282e-20
3.00429e-05
-2.55989e-20
3.00429e-05
-5.88344e-21
3.00429e-05
-2.62622e-20
3.00429e-05
1.14199e-20
3.00429e-05
-3.26646e-20
3.00429e-05
-1.26253e-20
3.00429e-05
2.87215e-20
3.00429e-05
6.33735e-21
3.00429e-05
3.43335e-20
3.00429e-05
3.00207e-20
3.00429e-05
-3.43511e-20
3.00429e-05
1.28677e-21
3.00429e-05
5.21836e-20
3.00429e-05
1.49736e-20
3.00429e-05
-4.94767e-21
3.00429e-05
-4.11734e-20
3.00429e-05
-1.34364e-20
3.00429e-05
4.14708e-20
3.00429e-05
-1.54521e-20
3.00429e-05
3.70756e-20
3.00429e-05
-1.77332e-20
3.00429e-05
-5.80003e-20
3.00429e-05
-3.84027e-21
3.00429e-05
7.30896e-21
3.00429e-05
-2.37489e-20
3.00429e-05
-1.35336e-20
3.00429e-05
1.84497e-20
3.00429e-05
-8.71332e-21
3.00429e-05
1.75232e-20
3.00429e-05
-3.65501e-20
3.00429e-05
-1.23417e-20
3.00429e-05
4.89252e-20
3.00429e-05
-8.31032e-21
3.00429e-05
-6.85421e-21
3.00429e-05
2.30778e-21
3.00429e-05
5.47418e-20
3.00429e-05
-2.13795e-20
3.00429e-05
-5.93723e-20
3.00429e-05
9.71529e-20
3.00429e-05
4.26776e-20
3.00429e-05
-6.25315e-20
3.00429e-05
-2.61639e-20
3.00429e-05
3.39722e-20
3.00429e-05
1.71939e-20
3.00429e-05
-3.61996e-20
3.00429e-05
3.34629e-21
3.00429e-05
8.79645e-21
3.00429e-05
-5.26283e-20
3.00429e-05
3.8185e-20
3.00429e-05
-2.20077e-21
3.00429e-05
-1.74742e-20
3.00429e-05
1.23152e-20
3.00429e-05
4.007e-21
3.00429e-05
2.44237e-20
3.00429e-05
2.97463e-20
3.00429e-05
2.96262e-20
3.00429e-05
1.18854e-20
3.00429e-05
2.71741e-20
3.00429e-05
-9.14026e-20
3.00429e-05
1.17093e-20
3.00429e-05
1.04802e-19
3.00429e-05
-5.07897e-20
3.00429e-05
-5.49634e-20
3.00429e-05
6.46102e-20
3.00429e-05
4.8217e-20
3.00429e-05
-2.09065e-20
3.00429e-05
-4.13163e-20
3.00429e-05
2.48659e-20
3.00429e-05
1.00695e-20
3.00429e-05
-3.05179e-20
3.00429e-05
-1.07853e-20
3.00429e-05
4.09501e-20
3.00429e-05
5.69572e-20
3.00429e-05
-4.91826e-20
3.00429e-05
-7.72243e-20
3.00429e-05
-6.21673e-21
3.00429e-05
9.71535e-20
3.00429e-05
3.77884e-20
3.00429e-05
-9.88942e-20
3.00429e-05
-6.87411e-20
3.00429e-05
7.0841e-20
3.00429e-05
7.4083e-20
3.00429e-05
-1.95358e-20
3.00429e-05
-3.03742e-20
3.00429e-05
1.82695e-20
3.00429e-05
5.13126e-20
3.00429e-05
-2.36997e-20
3.00429e-05
-7.0383e-20
3.00429e-05
7.56471e-20
3.00429e-05
3.26538e-20
3.00429e-05
-4.2869e-20
3.00429e-05
3.69492e-20
3.00429e-05
2.66648e-20
3.00429e-05
1.09855e-20
3.00429e-05
-9.72439e-21
3.00429e-05
9.54414e-20
3.00429e-05
-6.32283e-20
3.00429e-05
-8.2117e-20
3.00429e-05
5.85672e-20
3.00429e-05
5.26177e-21
3.00429e-05
-6.18907e-20
3.00429e-05
7.83665e-20
3.00429e-05
6.33708e-20
3.00429e-05
-1.41304e-19
3.00429e-05
-8.419e-20
3.00429e-05
8.79822e-20
3.00429e-05
1.46854e-19
3.00429e-05
-1.01205e-19
3.00429e-05
-4.2759e-20
3.00429e-05
1.9194e-19
3.00429e-05
-3.6822e-20
3.00429e-05
-1.15125e-19
3.00429e-05
1.10772e-19
3.00429e-05
-6.49561e-20
3.00429e-05
-9.16809e-21
3.00429e-05
1.33812e-19
3.00429e-05
-1.50119e-19
3.00429e-05
-3.5055e-20
3.00429e-05
7.42977e-20
3.00429e-05
-1.1339e-19
3.00429e-05
-7.41853e-21
3.00429e-05
4.17826e-21
3.00429e-05
1.19504e-19
3.00429e-05
4.05539e-20
3.00429e-05
-4.89668e-20
3.00429e-05
-1.49668e-20
3.00429e-05
5.8832e-21
3.00429e-05
-4.04831e-20
3.00429e-05
-9.04875e-21
3.00429e-05
7.21507e-20
3.00429e-05
-1.42452e-19
3.00429e-05
1.21203e-19
3.00429e-05
1.2903e-19
3.00429e-05
-1.54629e-19
3.00429e-05
5.05243e-20
3.00429e-05
1.14785e-19
3.00429e-05
-1.06683e-19
3.00429e-05
-6.60131e-20
3.00429e-05
1.90092e-20
3.00429e-05
1.05625e-19
3.00429e-05
-2.39348e-20
3.00429e-05
-7.24141e-20
3.00429e-05
1.23385e-19
3.00429e-05
-2.18932e-20
3.00429e-05
-6.80934e-20
3.00429e-05
1.63341e-20
3.00429e-05
-6.17378e-20
3.00429e-05
9.75941e-20
3.00429e-05
-1.96646e-20
3.00429e-05
-1.42702e-19
3.00429e-05
-1.25357e-20
3.00429e-05
-8.20898e-21
3.00429e-05
-2.90515e-20
3.00429e-05
-8.03823e-20
3.00429e-05
-4.34773e-20
3.00429e-05
-1.18151e-21
3.00429e-05
1.65504e-19
3.00429e-05
6.44697e-20
3.00429e-05
-2.87794e-20
3.00429e-05
7.95741e-20
3.00429e-05
-1.4902e-20
3.00429e-05
-1.78408e-19
3.00429e-05
-5.34696e-20
3.00429e-05
5.43139e-20
3.00429e-05
-1.56001e-19
3.00429e-05
1.19248e-19
3.00429e-05
3.05342e-20
3.00429e-05
4.95226e-20
3.00429e-05
1.06379e-19
3.00429e-05
-1.61804e-19
3.00429e-05
-1.11871e-19
3.00429e-05
3.1631e-20
3.00429e-05
1.38631e-20
3.00429e-05
4.45913e-20
3.00429e-05
1.48056e-20
3.00429e-05
-1.11954e-19
3.00429e-05
9.04911e-20
3.00429e-05
-9.30179e-20
3.00429e-05
7.29982e-21
3.00429e-05
-2.82893e-20
3.00429e-05
-5.70489e-20
3.00429e-05
1.18849e-19
3.00429e-05
1.18064e-19
3.00429e-05
-2.54732e-20
3.00429e-05
-8.04765e-20
3.00429e-05
5.04419e-20
3.00429e-05
-5.92905e-20
3.00429e-05
4.25689e-20
3.00429e-05
-2.16165e-20
3.00429e-05
-6.21406e-21
3.00429e-05
7.5235e-20
3.00429e-05
9.63746e-20
3.00429e-05
-1.96097e-20
3.00429e-05
-2.8709e-20
3.00429e-05
-1.21144e-19
3.00429e-05
-5.65954e-21
3.00429e-05
6.35279e-20
3.00429e-05
-9.68693e-20
3.00429e-05
7.73308e-20
3.00429e-05
2.14989e-20
3.00429e-05
3.81758e-20
3.00429e-05
-6.337e-20
3.00429e-05
8.78597e-21
3.00429e-05
-1.03386e-21
3.00429e-05
-1.05291e-19
3.00429e-05
2.75521e-20
3.00429e-05
1.89596e-19
3.00429e-05
-4.45517e-20
3.00429e-05
-4.4511e-20
3.00429e-05
9.52039e-20
3.00429e-05
-1.08646e-19
3.00429e-05
9.19408e-21
3.00429e-05
-5.12474e-21
3.00429e-05
-4.98121e-20
3.00429e-05
-1.95905e-20
3.00429e-05
1.4235e-19
3.00429e-05
-4.97216e-20
3.00429e-05
-9.33841e-20
3.00429e-05
9.92496e-20
3.00429e-05
-2.63459e-20
3.00429e-05
-9.37695e-20
3.00429e-05
4.66392e-20
3.00429e-05
-1.13574e-19
3.00429e-05
5.10718e-20
3.00429e-05
2.25327e-19
3.00429e-05
-1.62531e-19
3.00429e-05
7.97924e-20
3.00429e-05
-1.7307e-19
3.00429e-05
-1.49648e-19
3.00429e-05
3.06108e-19
3.00429e-05
-1.99452e-19
3.00429e-05
-9.45557e-20
3.00429e-05
4.57404e-19
3.00429e-05
-1.91297e-19
3.00429e-05
-1.5074e-19
3.00429e-05
1.08599e-19
3.00429e-05
-1.60702e-19
3.00429e-05
1.24991e-19
3.00429e-05
-1.1217e-19
3.00429e-05
-4.18623e-20
3.00429e-05
1.48565e-19
3.00429e-05
9.64766e-20
3.00429e-05
-8.11482e-20
3.00429e-05
-8.08519e-20
3.00429e-05
-1.12002e-19
3.00429e-05
6.22754e-20
3.00429e-05
1.8782e-19
3.00429e-05
-2.27521e-19
3.00429e-05
2.53764e-19
3.00429e-05
4.12003e-20
3.00429e-05
-2.57327e-19
3.00429e-05
2.01997e-19
3.00429e-05
6.70092e-20
3.00429e-05
-2.77928e-19
3.00429e-05
6.58463e-20
3.00429e-05
6.66607e-20
3.00429e-05
-1.5685e-19
3.00429e-05
3.47439e-19
3.00429e-05
8.46951e-20
3.00429e-05
-3.53416e-19
3.00429e-05
8.12925e-20
3.00429e-05
-3.85534e-20
3.00429e-05
-2.10148e-19
3.00429e-05
2.75369e-19
3.00429e-05
-1.2069e-19
3.00429e-05
-1.01263e-19
3.00429e-05
4.21429e-19
3.00429e-05
-1.62907e-19
3.00429e-05
-2.73327e-19
3.00429e-05
2.23128e-19
3.00429e-05
-1.39212e-19
3.00429e-05
-1.66412e-19
3.00429e-05
2.84773e-19
3.00429e-05
8.47337e-20
3.00429e-05
-2.42748e-19
3.00429e-05
1.19143e-19
3.00429e-05
8.23113e-20
3.00429e-05
-1.57733e-19
3.00429e-05
7.15032e-20
3.00429e-05
-8.02708e-20
3.00429e-05
-6.39059e-20
3.00429e-05
-2.27369e-21
3.00429e-05
1.57513e-19
3.00429e-05
1.22958e-19
3.00429e-05
-5.48944e-20
3.00429e-05
-1.50214e-19
3.00429e-05
-5.88111e-20
3.00429e-05
2.01251e-19
3.00429e-05
-8.14206e-20
3.00429e-05
-9.18304e-20
3.00429e-05
-5.50293e-20
3.00429e-05
1.86356e-19
3.00429e-05
1.74932e-19
3.00429e-05
-3.42127e-19
3.00429e-05
3.35919e-21
3.00429e-05
1.69565e-19
3.00429e-05
-2.44627e-19
3.00429e-05
1.41579e-19
3.00429e-05
2.37673e-19
3.00429e-05
-3.25103e-19
3.00429e-05
2.55367e-19
3.00429e-05
1.38828e-19
3.00429e-05
-3.18945e-19
3.00429e-05
5.65391e-20
3.00429e-05
-4.25786e-20
3.00429e-05
-1.15077e-19
3.00429e-05
5.27879e-20
3.00429e-05
1.82501e-19
3.00429e-05
3.58294e-20
3.00429e-05
-2.20332e-20
3.00429e-05
-1.57832e-19
3.00429e-05
-4.55417e-20
3.00429e-05
1.63497e-19
3.00429e-05
-8.38212e-20
3.00429e-05
-1.79929e-19
3.00429e-05
5.88707e-20
3.00429e-05
2.10465e-19
3.00429e-05
1.86758e-20
3.00429e-05
-4.45741e-20
3.00429e-05
-1.91015e-19
3.00429e-05
-9.62986e-20
3.00429e-05
1.42188e-19
3.00429e-05
-3.63165e-20
3.00429e-05
1.9278e-19
3.00429e-05
-1.75277e-19
3.00429e-05
-1.43955e-20
3.00429e-05
3.56855e-19
3.00429e-05
-2.25592e-19
3.00429e-05
-5.45896e-20
3.00429e-05
1.20526e-20
3.00429e-05
-4.57353e-20
3.00429e-05
-8.85567e-20
3.00429e-05
3.07184e-19
3.00429e-05
6.80017e-20
3.00429e-05
-2.04168e-19
3.00429e-05
-4.62691e-20
3.00429e-05
-2.24724e-20
3.00429e-05
1.3493e-19
3.00429e-05
-9.75924e-20
3.00429e-05
8.1574e-20
3.00429e-05
-1.18875e-19
3.00429e-05
2.0956e-19
3.00429e-05
4.73519e-20
3.00429e-05
-1.84841e-19
3.00429e-05
-7.26706e-20
3.00429e-05
6.38849e-20
3.00429e-05
5.26118e-20
3.00429e-05
-1.10571e-19
3.00429e-05
3.04427e-19
3.00429e-05
-2.22543e-19
3.00429e-05
6.1495e-20
3.00429e-05
1.45313e-19
3.00429e-05
-1.06355e-19
3.00429e-05
-1.09235e-19
3.00429e-05
8.81462e-20
3.00429e-05
-1.69956e-20
3.00429e-05
-2.03771e-19
3.00429e-05
3.46978e-19
3.00429e-05
1.90651e-19
3.00429e-05
-2.37351e-19
3.00429e-05
-1.65777e-19
3.00429e-05
-7.25163e-20
3.00429e-05
-5.65606e-20
3.00429e-05
1.04291e-19
3.00429e-05
3.66307e-19
3.00429e-05
-2.90742e-19
3.00429e-05
-1.63029e-19
3.00429e-05
-9.26244e-20
3.00429e-05
2.90241e-19
3.00429e-05
2.80728e-19
3.00429e-05
-5.08186e-19
3.00429e-05
-7.78112e-20
3.00429e-05
2.6168e-19
3.00429e-05
3.39536e-19
3.00429e-05
-3.93324e-19
3.00429e-05
2.93841e-20
3.00429e-05
1.40685e-19
3.00429e-05
-1.00221e-19
3.00429e-05
3.26964e-20
3.00429e-05
-2.62919e-19
3.00429e-05
4.91785e-20
3.00429e-05
2.83115e-19
3.00429e-05
1.56741e-19
3.00429e-05
-3.6658e-19
3.00429e-05
-1.36885e-19
3.00429e-05
4.8807e-19
3.00429e-05
-9.57565e-20
3.00429e-05
-1.9224e-19
3.00429e-05
3.24641e-20
3.00429e-05
9.82362e-20
3.00429e-05
3.11606e-20
3.00429e-05
6.80083e-20
3.00429e-05
-1.97476e-19
3.00429e-05
-1.70274e-19
3.00429e-05
5.01341e-19
3.00429e-05
-3.03157e-20
3.00429e-05
-4.79665e-19
3.00429e-05
-3.36942e-20
3.00429e-05
5.97665e-19
3.00429e-05
-1.39225e-19
3.00429e-05
-4.34127e-20
3.00429e-05
-1.81803e-20
3.00429e-05
-2.80839e-19
3.00429e-05
4.29456e-19
3.00429e-05
-2.29711e-19
3.00429e-05
-6.94518e-20
3.00429e-05
-5.61532e-20
3.00429e-05
1.81901e-19
3.00429e-05
7.0287e-20
3.00429e-05
-1.71535e-19
3.00429e-05
9.64057e-20
3.00429e-05
-1.58455e-19
3.00429e-05
2.2338e-19
3.00429e-05
-7.76049e-20
3.00429e-05
6.87784e-20
3.00429e-05
-1.29711e-19
3.00429e-05
1.52648e-19
3.00429e-05
-1.37478e-20
3.00429e-05
-1.69468e-19
3.00429e-05
1.4313e-19
3.00429e-05
7.27607e-20
3.00429e-05
1.57365e-19
3.00429e-05
-5.43254e-19
3.00429e-05
2.881e-19
3.00429e-05
1.69474e-19
3.00429e-05
6.91025e-20
3.00429e-05
8.47022e-20
3.00429e-05
-4.76659e-19
3.00429e-05
1.55109e-19
3.00429e-05
1.88603e-19
3.00429e-05
-2.88062e-20
3.00429e-05
-2.04375e-19
3.00429e-05
1.30583e-19
3.00429e-05
-8.89872e-20
3.00429e-05
4.26215e-20
3.00429e-05
1.09019e-19
3.00429e-05
-1.92206e-19
3.00429e-05
2.03279e-19
3.00429e-05
5.48838e-20
3.00429e-05
1.01929e-19
3.00429e-05
-2.782e-19
3.00429e-05
6.7915e-20
3.00429e-05
1.442e-19
3.00429e-05
5.36508e-20
3.00429e-05
-2.40485e-20
3.00429e-05
-1.52398e-19
3.00429e-05
2.7013e-19
3.00429e-05
-3.0501e-19
3.00429e-05
8.90447e-20
3.00429e-05
3.81113e-20
3.00429e-05
-6.77087e-20
3.00429e-05
3.30461e-19
3.00429e-05
-2.18907e-19
3.00429e-05
-2.29662e-19
3.00429e-05
2.06737e-19
3.00429e-05
2.35424e-19
3.00429e-05
-2.496e-19
3.00429e-05
8.38706e-20
3.00429e-05
-1.1594e-20
3.00429e-05
4.97109e-20
3.00429e-05
2.85859e-19
3.00429e-05
2.24562e-20
1.4656e-19
8.89265e-05
-7.40844e-19
8.89265e-05
-2.08604e-20
8.89265e-05
1.31181e-19
8.89265e-05
1.81935e-19
8.89265e-05
1.89527e-19
8.89265e-05
8.27995e-20
8.89265e-05
9.86619e-20
8.89265e-05
8.09676e-20
8.89265e-05
3.78572e-21
8.89265e-05
2.05197e-20
8.89265e-05
-4.56283e-20
8.89265e-05
-7.05094e-20
8.89265e-05
-5.85034e-20
8.89265e-05
-3.83763e-20
8.89265e-05
-1.52248e-21
8.89265e-05
-4.8305e-20
8.89265e-05
-8.19614e-20
8.89265e-05
-3.67682e-20
8.89265e-05
-5.21282e-21
8.89265e-05
9.56175e-21
8.89265e-05
3.79475e-21
8.89265e-05
2.97851e-20
8.89265e-05
3.94068e-20
8.89265e-05
1.05272e-21
8.89265e-05
-2.35797e-20
8.89265e-05
-8.3414e-20
8.89265e-05
6.08857e-21
8.89265e-05
6.55085e-20
8.89265e-05
-7.43699e-20
8.89265e-05
-2.74651e-20
8.89265e-05
5.42038e-21
8.89265e-05
-2.09501e-20
8.89265e-05
-5.86187e-20
8.89265e-05
-1.02443e-19
8.89265e-05
-9.0892e-20
8.89265e-05
-7.5526e-21
8.89265e-05
-1.24662e-19
8.89265e-05
-8.33086e-20
8.89265e-05
-3.31079e-20
8.89265e-05
-1.02636e-19
8.89265e-05
-3.25286e-20
8.89265e-05
-7.79347e-20
8.89265e-05
-1.21475e-20
8.89265e-05
5.22745e-20
8.89265e-05
7.01328e-20
8.89265e-05
9.2383e-20
8.89265e-05
9.37181e-20
8.89265e-05
-6.20511e-20
8.89265e-05
-1.30103e-21
8.89265e-05
1.22857e-19
8.89265e-05
9.38728e-20
8.89265e-05
-1.20346e-20
8.89265e-05
-1.00769e-19
8.89265e-05
-2.08923e-20
8.89265e-05
6.32309e-20
8.89265e-05
8.42744e-21
8.89265e-05
6.88945e-20
8.89265e-05
-7.86773e-20
8.89265e-05
-1.44577e-19
8.89265e-05
-7.56523e-20
8.89265e-05
-9.17561e-21
8.89265e-05
-8.81823e-21
8.89265e-05
-4.57313e-20
8.89265e-05
3.28345e-20
8.89265e-05
2.78652e-20
8.89265e-05
2.1715e-21
8.89265e-05
-1.1402e-19
8.89265e-05
-3.30377e-20
8.89265e-05
9.29246e-20
8.89265e-05
1.98482e-20
8.89265e-05
8.02652e-21
8.89265e-05
2.54858e-21
8.89265e-05
1.32506e-19
8.89265e-05
-4.41792e-21
8.89265e-05
-1.36335e-19
8.89265e-05
2.41297e-19
8.89265e-05
1.5924e-19
8.89265e-05
-7.94602e-20
8.89265e-05
-1.10689e-19
8.89265e-05
3.88076e-20
8.89265e-05
2.08123e-20
8.89265e-05
-6.28368e-20
8.89265e-05
-3.40741e-20
8.89265e-05
-7.14982e-21
8.89265e-05
-4.79079e-20
8.89265e-05
4.53967e-20
8.89265e-05
-2.08616e-20
8.89265e-05
8.36202e-21
8.89265e-05
1.8857e-20
8.89265e-05
2.02246e-20
8.89265e-05
1.14547e-19
8.89265e-05
5.57628e-20
8.89265e-05
5.85694e-20
8.89265e-05
6.3476e-20
8.89265e-05
3.86895e-20
8.89265e-05
-1.84226e-19
8.89265e-05
-9.12564e-21
8.89265e-05
2.4023e-19
8.89265e-05
-1.20089e-19
8.89265e-05
-1.23219e-19
8.89265e-05
1.76279e-19
8.89265e-05
1.10722e-19
8.89265e-05
-3.51503e-20
8.89265e-05
-1.18166e-19
8.89265e-05
2.53172e-20
8.89265e-05
5.17817e-20
8.89265e-05
-3.60933e-20
8.89265e-05
-5.98351e-20
8.89265e-05
1.47687e-19
8.89265e-05
1.16852e-19
8.89265e-05
-1.54861e-19
8.89265e-05
-1.75842e-19
8.89265e-05
-6.47049e-20
8.89265e-05
2.18662e-19
8.89265e-05
1.21399e-19
8.89265e-05
-2.29968e-19
8.89265e-05
-1.29241e-19
8.89265e-05
1.72537e-19
8.89265e-05
1.84002e-19
8.89265e-05
-9.46551e-21
8.89265e-05
-5.4489e-20
8.89265e-05
5.0824e-20
8.89265e-05
9.64091e-20
8.89265e-05
-4.9858e-20
8.89265e-05
-1.15108e-19
8.89265e-05
1.39289e-19
8.89265e-05
6.96564e-20
8.89265e-05
-2.64112e-20
8.89265e-05
1.01266e-19
8.89265e-05
7.79657e-20
8.89265e-05
7.37721e-20
8.89265e-05
-1.37882e-20
8.89265e-05
1.78258e-19
8.89265e-05
-1.00233e-19
8.89265e-05
-1.51788e-19
8.89265e-05
9.05792e-20
8.89265e-05
-5.59071e-20
8.89265e-05
-1.02943e-19
8.89265e-05
1.95049e-19
8.89265e-05
1.43106e-19
8.89265e-05
-3.21181e-19
8.89265e-05
-2.37303e-19
8.89265e-05
2.73016e-19
8.89265e-05
3.41848e-19
8.89265e-05
-2.32878e-19
8.89265e-05
-6.48502e-20
8.89265e-05
4.48151e-19
8.89265e-05
-3.04436e-20
8.89265e-05
-2.42005e-19
8.89265e-05
1.79266e-19
8.89265e-05
-1.10012e-19
8.89265e-05
1.89002e-20
8.89265e-05
2.26827e-19
8.89265e-05
-3.18984e-19
8.89265e-05
-1.06212e-19
8.89265e-05
9.88981e-20
8.89265e-05
-1.93963e-19
8.89265e-05
-5.83724e-20
8.89265e-05
-1.41055e-20
8.89265e-05
3.40465e-19
8.89265e-05
1.55778e-19
8.89265e-05
-1.18249e-19
8.89265e-05
-4.52003e-20
8.89265e-05
-5.04667e-20
8.89265e-05
-8.97595e-20
8.89265e-05
2.30774e-20
8.89265e-05
1.20274e-19
8.89265e-05
-2.09238e-19
8.89265e-05
2.7176e-19
8.89265e-05
2.60845e-19
8.89265e-05
-2.27658e-19
8.89265e-05
3.48255e-20
8.89265e-05
2.2384e-19
8.89265e-05
-1.20711e-19
8.89265e-05
-2.52977e-19
8.89265e-05
6.37873e-20
8.89265e-05
3.01222e-19
8.89265e-05
-8.54001e-20
8.89265e-05
-1.48796e-19
8.89265e-05
3.06595e-19
8.89265e-05
-2.58333e-20
8.89265e-05
-1.89187e-19
8.89265e-05
-2.25517e-20
8.89265e-05
-1.33551e-19
8.89265e-05
1.47556e-19
8.89265e-05
-7.02452e-20
8.89265e-05
-3.20775e-19
8.89265e-05
-1.18378e-19
8.89265e-05
-3.27474e-20
8.89265e-05
-1.07395e-19
8.89265e-05
-2.19262e-19
8.89265e-05
-1.06668e-19
8.89265e-05
5.56825e-20
8.89265e-05
4.41653e-19
8.89265e-05
1.06314e-19
8.89265e-05
-3.09978e-20
8.89265e-05
2.55368e-19
8.89265e-05
-1.25032e-19
8.89265e-05
-4.52633e-19
8.89265e-05
-1.27391e-19
8.89265e-05
1.11305e-20
8.89265e-05
-3.3535e-19
8.89265e-05
2.79202e-19
8.89265e-05
9.22079e-20
8.89265e-05
1.43675e-19
8.89265e-05
3.05071e-19
8.89265e-05
-4.1246e-19
8.89265e-05
-3.56649e-19
8.89265e-05
1.48275e-20
8.89265e-05
6.4614e-20
8.89265e-05
6.03084e-20
8.89265e-05
8.72337e-20
8.89265e-05
-1.66793e-19
8.89265e-05
9.23655e-20
8.89265e-05
-2.11731e-19
8.89265e-05
6.24516e-20
8.89265e-05
-1.61788e-19
8.89265e-05
-1.56088e-19
8.89265e-05
3.74653e-19
8.89265e-05
2.6506e-19
8.89265e-05
-5.65851e-20
8.89265e-05
-1.40721e-19
8.89265e-05
1.29023e-19
8.89265e-05
-1.16333e-19
8.89265e-05
6.11833e-20
8.89265e-05
-1.02647e-20
8.89265e-05
-1.70983e-20
8.89265e-05
1.88311e-19
8.89265e-05
2.66136e-19
8.89265e-05
-7.67705e-20
8.89265e-05
-6.18911e-20
8.89265e-05
-2.38966e-19
8.89265e-05
-1.5671e-19
8.89265e-05
1.34973e-19
8.89265e-05
-1.38237e-19
8.89265e-05
1.29021e-19
8.89265e-05
1.08257e-19
8.89265e-05
-1.11313e-20
8.89265e-05
-6.40912e-20
8.89265e-05
-2.50424e-20
8.89265e-05
-4.24713e-20
8.89265e-05
-1.70283e-19
8.89265e-05
3.22597e-20
8.89265e-05
4.51591e-19
8.89265e-05
-4.00493e-21
8.89265e-05
-9.86426e-20
8.89265e-05
1.33656e-19
8.89265e-05
-1.93808e-19
8.89265e-05
-5.97001e-20
8.89265e-05
5.49538e-20
8.89265e-05
-1.37432e-19
8.89265e-05
-4.87333e-20
8.89265e-05
2.70468e-19
8.89265e-05
-3.86944e-20
8.89265e-05
-1.92831e-19
8.89265e-05
1.39027e-19
8.89265e-05
-3.53725e-20
8.89265e-05
-1.97836e-19
8.89265e-05
1.46069e-21
8.89265e-05
-2.73679e-19
8.89265e-05
1.73682e-19
8.89265e-05
4.98857e-19
8.89265e-05
-2.16082e-19
8.89265e-05
2.2357e-20
8.89265e-05
-4.48945e-19
8.89265e-05
-3.99041e-19
8.89265e-05
6.83896e-19
8.89265e-05
-3.31161e-19
8.89265e-05
-2.23437e-19
8.89265e-05
9.25856e-19
8.89265e-05
-3.1297e-19
8.89265e-05
-3.34722e-19
8.89265e-05
1.54099e-19
8.89265e-05
-3.06744e-19
8.89265e-05
1.01587e-19
8.89265e-05
-8.30108e-20
8.89265e-05
-8.93023e-20
8.89265e-05
2.51678e-19
8.89265e-05
2.3201e-19
8.89265e-05
-1.05531e-19
8.89265e-05
-2.50797e-19
8.89265e-05
-3.73556e-19
8.89265e-05
1.83952e-19
8.89265e-05
5.15968e-19
8.89265e-05
-4.47741e-19
8.89265e-05
4.92778e-19
8.89265e-05
1.99972e-19
8.89265e-05
-5.92632e-19
8.89265e-05
4.61846e-19
8.89265e-05
9.45782e-20
8.89265e-05
-6.67613e-19
8.89265e-05
1.53324e-19
8.89265e-05
1.94281e-19
8.89265e-05
-2.55239e-19
8.89265e-05
7.3424e-19
8.89265e-05
1.0754e-19
8.89265e-05
-6.99155e-19
8.89265e-05
1.01506e-19
8.89265e-05
-1.68162e-19
8.89265e-05
-3.9879e-19
8.89265e-05
4.63094e-19
8.89265e-05
-1.05088e-19
8.89265e-05
-2.00645e-19
8.89265e-05
8.23216e-19
8.89265e-05
-2.62084e-19
8.89265e-05
-6.72581e-19
8.89265e-05
3.10788e-19
8.89265e-05
-2.32923e-19
8.89265e-05
-2.90706e-19
8.89265e-05
5.18185e-19
8.89265e-05
2.63081e-19
8.89265e-05
-4.44808e-19
8.89265e-05
1.65222e-19
8.89265e-05
1.76549e-19
8.89265e-05
-2.71261e-19
8.89265e-05
-1.37898e-20
8.89265e-05
-1.7443e-19
8.89265e-05
-1.15352e-19
8.89265e-05
-3.96287e-20
8.89265e-05
3.72337e-19
8.89265e-05
3.71248e-19
8.89265e-05
-1.83387e-19
8.89265e-05
-3.41302e-19
8.89265e-05
-3.58653e-20
8.89265e-05
3.38056e-19
8.89265e-05
-1.49227e-19
8.89265e-05
-1.80691e-19
8.89265e-05
-9.79225e-20
8.89265e-05
4.01485e-19
8.89265e-05
3.69746e-19
8.89265e-05
-6.54156e-19
8.89265e-05
-8.61928e-20
8.89265e-05
2.91989e-19
8.89265e-05
-3.84123e-19
8.89265e-05
2.44948e-19
8.89265e-05
4.9067e-19
8.89265e-05
-4.29016e-19
8.89265e-05
4.29271e-19
8.89265e-05
2.17193e-19
8.89265e-05
-5.68165e-19
8.89265e-05
-2.35077e-20
8.89265e-05
-2.62804e-19
8.89265e-05
-8.7583e-20
8.89265e-05
1.47784e-19
8.89265e-05
2.83032e-19
8.89265e-05
2.05631e-19
8.89265e-05
-1.07215e-19
8.89265e-05
-4.42791e-19
8.89265e-05
2.22678e-21
8.89265e-05
3.61779e-19
8.89265e-05
-3.78456e-19
8.89265e-05
-2.92418e-19
8.89265e-05
1.40405e-19
8.89265e-05
3.45239e-19
8.89265e-05
1.63308e-19
8.89265e-05
-1.4938e-19
8.89265e-05
-4.87918e-19
8.89265e-05
-1.90923e-19
8.89265e-05
1.98131e-19
8.89265e-05
-2.56933e-20
8.89265e-05
5.0831e-19
8.89265e-05
-3.98013e-19
8.89265e-05
-3.85903e-22
8.89265e-05
7.63381e-19
8.89265e-05
-4.07304e-19
8.89265e-05
-2.27705e-19
8.89265e-05
1.37533e-21
8.89265e-05
-9.16705e-20
8.89265e-05
-1.0067e-19
8.89265e-05
6.64694e-19
8.89265e-05
1.28071e-19
8.89265e-05
-4.19985e-19
8.89265e-05
-6.17902e-20
8.89265e-05
-4.45732e-20
8.89265e-05
1.86553e-19
8.89265e-05
-1.74271e-19
8.89265e-05
1.06982e-19
8.89265e-05
-1.14373e-19
8.89265e-05
4.88704e-19
8.89265e-05
-2.58109e-20
8.89265e-05
-4.05886e-19
8.89265e-05
-1.43879e-19
8.89265e-05
1.38204e-19
8.89265e-05
9.4964e-20
8.89265e-05
-1.90966e-19
8.89265e-05
7.88082e-19
8.89265e-05
-3.64207e-19
8.89265e-05
-9.95243e-20
8.89265e-05
4.15546e-19
8.89265e-05
-1.37174e-19
8.89265e-05
-3.95709e-19
8.89265e-05
1.48334e-19
8.89265e-05
4.36267e-20
8.89265e-05
-4.08373e-19
8.89265e-05
8.86477e-19
8.89265e-05
3.84747e-19
8.89265e-05
-6.65739e-19
8.89265e-05
-3.07867e-19
8.89265e-05
-1.97722e-19
8.89265e-05
-2.21512e-19
8.89265e-05
2.65924e-19
8.89265e-05
7.61273e-19
8.89265e-05
-6.05042e-19
8.89265e-05
-3.06372e-19
8.89265e-05
-2.71885e-19
8.89265e-05
5.4782e-19
8.89265e-05
7.57814e-19
8.89265e-05
-1.07586e-18
8.89265e-05
-3.85228e-19
8.89265e-05
6.62887e-19
8.89265e-05
8.90145e-19
8.89265e-05
-8.39888e-19
8.89265e-05
2.00164e-20
8.89265e-05
2.42764e-19
8.89265e-05
-2.00404e-19
8.89265e-05
-6.91839e-20
8.89265e-05
-6.26497e-19
8.89265e-05
2.66292e-19
8.89265e-05
5.92798e-19
8.89265e-05
3.06769e-19
8.89265e-05
-7.24669e-19
8.89265e-05
-2.53676e-19
8.89265e-05
9.52675e-19
8.89265e-05
-3.67598e-20
8.89265e-05
-3.76302e-19
8.89265e-05
-9.67169e-20
8.89265e-05
3.36961e-19
8.89265e-05
1.3367e-19
8.89265e-05
9.60563e-20
8.89265e-05
-4.71526e-19
8.89265e-05
-3.65842e-19
8.89265e-05
1.02705e-18
8.89265e-05
1.31609e-19
8.89265e-05
-1.12653e-18
8.89265e-05
-2.352e-19
8.89265e-05
1.46484e-18
8.89265e-05
-1.38168e-19
8.89265e-05
-1.86907e-19
8.89265e-05
-1.16912e-19
8.89265e-05
-4.89466e-19
8.89265e-05
7.11336e-19
8.89265e-05
-3.63991e-19
8.89265e-05
-2.43504e-19
8.89265e-05
-8.51595e-20
8.89265e-05
4.1381e-19
8.89265e-05
1.31029e-19
8.89265e-05
-2.68521e-19
8.89265e-05
8.45309e-20
8.89265e-05
-2.84969e-19
8.89265e-05
4.94793e-19
8.89265e-05
-9.75767e-20
8.89265e-05
-2.02429e-20
8.89265e-05
-3.91324e-20
8.89265e-05
2.91234e-19
8.89265e-05
-1.42173e-19
8.89265e-05
-3.04685e-19
8.89265e-05
3.24669e-19
8.89265e-05
1.64851e-19
8.89265e-05
3.29923e-19
8.89265e-05
-1.08178e-18
8.89265e-05
4.89533e-19
8.89265e-05
7.11661e-19
8.89265e-05
1.00095e-19
8.89265e-05
-1.47178e-19
8.89265e-05
-8.22392e-19
8.89265e-05
3.9903e-19
8.89265e-05
2.04886e-19
8.89265e-05
-1.05051e-19
8.89265e-05
-1.66354e-19
8.89265e-05
8.3328e-20
8.89265e-05
-1.94716e-19
8.89265e-05
8.62138e-20
8.89265e-05
2.40896e-19
8.89265e-05
-2.45419e-19
8.89265e-05
3.7483e-19
8.89265e-05
2.68334e-19
8.89265e-05
4.41262e-20
8.89265e-05
-6.01793e-19
8.89265e-05
3.90748e-19
8.89265e-05
2.57537e-19
8.89265e-05
-5.70991e-20
8.89265e-05
1.10172e-19
8.89265e-05
-1.94345e-19
8.89265e-05
2.6838e-19
8.89265e-05
-6.12963e-19
8.89265e-05
1.83151e-19
8.89265e-05
9.80152e-20
8.89265e-05
6.43126e-20
8.89265e-05
4.75816e-19
8.89265e-05
-6.08371e-19
8.89265e-05
-2.70161e-19
8.89265e-05
5.72273e-19
8.89265e-05
2.47917e-19
8.89265e-05
-5.22473e-19
8.89265e-05
1.23362e-19
8.89265e-05
-3.15169e-22
8.89265e-05
1.32111e-19
8.89265e-05
4.10519e-19
8.89265e-05
-6.37645e-20
2.3154e-19
0.000146607
-8.41121e-19
0.000146607
-1.00887e-19
0.000146607
9.62986e-20
0.000146607
2.39528e-19
0.000146607
2.67503e-19
0.000146607
1.07373e-19
0.000146607
9.91043e-20
0.000146607
1.40625e-19
0.000146607
3.35064e-22
0.000146607
-6.15133e-20
0.000146607
-1.09811e-19
0.000146607
-1.57481e-19
0.000146607
-1.76896e-19
0.000146607
-7.35651e-20
0.000146607
-4.48949e-20
0.000146607
-7.76897e-20
0.000146607
-6.17593e-20
0.000146607
-7.45646e-20
0.000146607
-9.4685e-21
0.000146607
4.28446e-20
0.000146607
-4.66083e-20
0.000146607
1.74155e-20
0.000146607
9.04335e-20
0.000146607
-3.8122e-20
0.000146607
-7.63389e-20
0.000146607
-8.41546e-20
0.000146607
-3.27674e-20
0.000146607
1.08924e-19
0.000146607
-7.55858e-20
0.000146607
-7.5529e-20
0.000146607
-6.37249e-20
0.000146607
-7.3727e-20
0.000146607
-8.43212e-20
0.000146607
-1.40418e-19
0.000146607
-1.79114e-19
0.000146607
-1.01992e-19
0.000146607
-2.53128e-19
0.000146607
-1.63451e-19
0.000146607
-1.0218e-19
0.000146607
-2.01322e-19
0.000146607
-8.8466e-20
0.000146607
-1.50469e-19
0.000146607
-4.55055e-20
0.000146607
9.87409e-20
0.000146607
1.68516e-19
0.000146607
2.02056e-19
0.000146607
1.124e-19
0.000146607
-5.98511e-20
0.000146607
2.77644e-20
0.000146607
2.02618e-19
0.000146607
1.56161e-19
0.000146607
-1.16547e-20
0.000146607
-1.76889e-19
0.000146607
-1.9975e-20
0.000146607
1.29511e-19
0.000146607
-2.13732e-20
0.000146607
1.61601e-20
0.000146607
-1.64866e-19
0.000146607
-1.98899e-19
0.000146607
-9.40655e-20
0.000146607
-8.56711e-20
0.000146607
-5.02221e-21
0.000146607
-7.67175e-20
0.000146607
3.42e-20
0.000146607
7.12014e-20
0.000146607
3.03601e-20
0.000146607
-1.67508e-19
0.000146607
-1.49628e-19
0.000146607
1.83134e-19
0.000146607
1.09956e-19
0.000146607
4.63038e-20
0.000146607
4.38145e-20
0.000146607
1.8107e-19
0.000146607
3.83001e-20
0.000146607
-2.01809e-19
0.000146607
3.35998e-19
0.000146607
2.90792e-19
0.000146607
-4.47086e-20
0.000146607
-1.75057e-19
0.000146607
3.10305e-20
0.000146607
6.6544e-20
0.000146607
-1.24765e-19
0.000146607
-1.01656e-19
0.000146607
-4.15234e-20
0.000146607
-8.36808e-20
0.000146607
5.07436e-20
0.000146607
-2.83973e-20
0.000146607
3.13895e-20
0.000146607
2.00842e-20
0.000146607
5.95558e-20
0.000146607
2.22821e-19
0.000146607
6.51333e-20
0.000146607
1.79705e-19
0.000146607
1.38054e-19
0.000146607
4.46256e-20
0.000146607
-2.63635e-19
0.000146607
-3.71177e-20
0.000146607
2.99613e-19
0.000146607
-1.37708e-19
0.000146607
-1.86425e-19
0.000146607
2.47078e-19
0.000146607
2.13396e-19
0.000146607
-4.36279e-20
0.000146607
-2.05728e-19
0.000146607
2.01162e-20
0.000146607
1.54367e-19
0.000146607
-8.85645e-20
0.000146607
-1.20335e-19
0.000146607
2.47716e-19
0.000146607
1.30393e-19
0.000146607
-2.78427e-19
0.000146607
-2.45287e-19
0.000146607
-5.29309e-20
0.000146607
2.93533e-19
0.000146607
2.26727e-19
0.000146607
-2.5576e-19
0.000146607
-2.24465e-19
0.000146607
2.08957e-19
0.000146607
2.59627e-19
0.000146607
5.75461e-20
0.000146607
-4.47672e-20
0.000146607
1.15144e-19
0.000146607
1.22813e-19
0.000146607
-1.30965e-19
0.000146607
-9.95559e-20
0.000146607
1.43529e-19
0.000146607
1.29319e-19
0.000146607
3.32827e-20
0.000146607
1.66136e-19
0.000146607
1.66168e-19
0.000146607
2.05662e-19
0.000146607
-3.12081e-20
0.000146607
1.33983e-19
0.000146607
-7.24839e-20
0.000146607
-1.69567e-19
0.000146607
1.3947e-19
0.000146607
-2.2306e-19
0.000146607
-1.41561e-19
0.000146607
3.14195e-19
0.000146607
1.41655e-19
0.000146607
-3.96287e-19
0.000146607
-3.76951e-19
0.000146607
4.62579e-19
0.000146607
6.11547e-19
0.000146607
-3.0677e-19
0.000146607
-5.53928e-20
0.000146607
6.54365e-19
0.000146607
-9.66696e-20
0.000146607
-3.11255e-19
0.000146607
1.69627e-19
0.000146607
-1.65474e-19
0.000146607
9.95252e-20
0.000146607
2.18994e-19
0.000146607
-4.72191e-19
0.000146607
-1.006e-19
0.000146607
8.3116e-20
0.000146607
-2.75745e-19
0.000146607
-1.60281e-19
0.000146607
-4.00337e-20
0.000146607
5.87298e-19
0.000146607
3.17314e-19
0.000146607
-1.19187e-19
0.000146607
-1.44399e-19
0.000146607
-1.15916e-19
0.000146607
-5.42388e-20
0.000146607
7.9626e-20
0.000146607
1.61647e-19
0.000146607
-1.71613e-19
0.000146607
3.27213e-19
0.000146607
3.15303e-19
0.000146607
-2.61887e-19
0.000146607
2.5025e-20
0.000146607
3.00157e-19
0.000146607
-1.65526e-19
0.000146607
-3.70198e-19
0.000146607
1.71067e-19
0.000146607
4.46113e-19
0.000146607
-1.34303e-19
0.000146607
-2.38944e-19
0.000146607
4.17471e-19
0.000146607
-1.33257e-20
0.000146607
-3.64188e-19
0.000146607
-3.92534e-20
0.000146607
-1.37278e-19
0.000146607
8.01423e-20
0.000146607
-1.61818e-19
0.000146607
-4.78907e-19
0.000146607
-3.79938e-19
0.000146607
-5.22387e-20
0.000146607
-2.15148e-19
0.000146607
-4.0061e-19
0.000146607