/*--------------------------------*- C++ -*----------------------------------*\
| =========                 |                                                 |
| \\      /  F ield         | OpenFOAM: The Open Source CFD Toolbox           |
|  \\    /   O peration     | Version:  2112                                  |
|   \\  /    A nd           | Website:  www.openfoam.com                      |
|    \\/     M anipulation  |                                                 |
\*---------------------------------------------------------------------------*/
FoamFile
{
    version     2.0;
    format      ascii;
    arch        "LSB;label=32;scalar=64";
    class       volVectorField;
    location    "9";
    object      U;
}
// * * * * * * * * * * * * * * * * * * * * * * * * * * * * * * * * * * * * * //

dimensions      [0 1 -1 0 0 0 0];

internalField   nonuniform List<vector> 
25600
(
(0.037552 -1.37114e-15 0)
(0.037552 -5.08279e-16 0)
(0.037552 -1.20965e-16 0)
(0.037552 -5.59894e-17 0)
(0.037552 -2.12903e-17 0)
(0.037552 -1.49617e-17 0)
(0.037552 -1.47403e-17 0)
(0.037552 -6.47421e-18 0)
(0.037552 -4.33756e-18 0)
(0.037552 -4.65699e-18 0)
(0.037552 -1.56522e-18 0)
(0.037552 -1.76576e-17 0)
(0.037552 2.64965e-18 0)
(0.037552 1.32751e-18 0)
(0.037552 -1.41943e-17 0)
(0.037552 1.21387e-17 0)
(0.037552 -9.48083e-20 0)
(0.037552 -1.27969e-17 0)
(0.037552 -1.36781e-17 0)
(0.037552 -1.25978e-17 0)
(0.037552 5.81788e-19 0)
(0.037552 7.65448e-18 0)
(0.037552 -7.63833e-18 0)
(0.037552 -1.48398e-17 0)
(0.037552 -2.31155e-17 0)
(0.037552 -6.37527e-18 0)
(0.037552 3.139e-17 0)
(0.037552 -6.48908e-18 0)
(0.037552 -3.4889e-17 0)
(0.037552 -8.05102e-18 0)
(0.037552 1.10469e-17 0)
(0.037552 1.70851e-17 0)
(0.037552 5.58729e-18 0)
(0.037552 -6.96955e-18 0)
(0.037552 -2.4869e-18 0)
(0.037552 1.23064e-18 0)
(0.037552 7.65129e-18 0)
(0.037552 -6.27557e-18 0)
(0.037552 -6.84015e-18 0)
(0.037552 1.31873e-17 0)
(0.037552 3.18152e-18 0)
(0.037552 1.71624e-17 0)
(0.037552 -1.66593e-17 0)
(0.037552 -1.55379e-17 0)
(0.037552 3.86271e-17 0)
(0.037552 -9.97473e-18 0)
(0.037552 5.9138e-18 0)
(0.037552 4.89287e-18 0)
(0.037552 -5.0475e-18 0)
(0.037552 -6.41527e-18 0)
(0.037552 -3.69332e-17 0)
(0.037552 3.31171e-17 0)
(0.037552 1.18577e-18 0)
(0.037552 -3.09048e-18 0)
(0.037552 3.49752e-17 0)
(0.037552 -3.80767e-17 0)
(0.037552 -2.60658e-18 0)
(0.037552 -1.09098e-17 0)
(0.037552 4.9648e-18 0)
(0.037552 5.2685e-17 0)
(0.037552 -3.51942e-17 0)
(0.037552 1.29664e-18 0)
(0.037552 -7.38628e-19 0)
(0.037552 5.56263e-18 0)
(0.037552 2.54228e-17 0)
(0.037552 -2.37286e-17 0)
(0.037552 -9.5313e-18 0)
(0.037552 -1.57288e-17 0)
(0.037552 1.97188e-17 0)
(0.037552 4.82741e-18 0)
(0.037552 -5.48674e-18 0)
(0.037552 1.52063e-18 0)
(0.037552 -1.99064e-18 0)
(0.037552 -3.53514e-18 0)
(0.037552 1.30704e-17 0)
(0.037552 -5.35729e-18 0)
(0.037552 -2.62109e-17 0)
(0.037552 1.69117e-17 0)
(0.037552 6.45886e-18 0)
(0.037552 3.98044e-17 0)
(0.037552 -4.27318e-17 0)
(0.037552 -5.13703e-17 0)
(0.037552 3.39892e-17 0)
(0.037552 1.55361e-17 0)
(0.037552 4.55206e-17 0)
(0.037552 -5.54114e-18 0)
(0.037552 -7.45517e-17 0)
(0.037552 -1.24139e-17 0)
(0.037552 3.73649e-17 0)
(0.037552 5.02912e-17 0)
(0.037552 -9.60451e-18 0)
(0.037552 -8.31013e-17 0)
(0.037552 1.14875e-18 0)
(0.037552 7.94651e-17 0)
(0.037552 3.79138e-18 0)
(0.037552 -7.76496e-17 0)
(0.037552 -6.06514e-18 0)
(0.037552 6.52448e-18 0)
(0.037552 7.86971e-17 0)
(0.037552 3.12193e-17 0)
(0.037552 -1.14536e-16 0)
(0.037552 -6.22902e-18 0)
(0.037552 -4.01746e-18 0)
(0.037552 7.41833e-17 0)
(0.037552 8.95669e-18 0)
(0.037552 -3.36135e-17 0)
(0.037552 -4.16288e-17 0)
(0.037552 2.59853e-17 0)
(0.037552 4.22626e-17 0)
(0.037552 -1.89242e-17 0)
(0.037552 2.69118e-17 0)
(0.037552 -1.22702e-16 0)
(0.037552 3.23012e-17 0)
(0.037552 8.83087e-17 0)
(0.037552 5.31372e-18 0)
(0.037552 -4.35103e-17 0)
(0.037552 -8.19285e-17 0)
(0.037552 5.97686e-17 0)
(0.037552 5.7494e-17 0)
(0.037552 1.36877e-17 0)
(0.037552 -1.46772e-17 0)
(0.037552 -8.41661e-17 0)
(0.037552 8.5524e-19 0)
(0.037552 9.45249e-17 0)
(0.037552 1.69952e-17 0)
(0.037552 -4.35252e-17 0)
(0.037552 -6.01933e-17 0)
(0.037552 7.39056e-18 0)
(0.037552 8.7688e-17 0)
(0.037552 5.83767e-18 0)
(0.037552 -4.76795e-17 0)
(0.037552 -4.72999e-17 0)
(0.037552 3.92144e-17 0)
(0.037552 5.07711e-17 0)
(0.037552 -2.98248e-17 0)
(0.037552 -3.72194e-17 0)
(0.037552 -1.19541e-17 0)
(0.037552 6.07587e-17 0)
(0.037552 2.60836e-17 0)
(0.037552 -2.89693e-17 0)
(0.037552 -3.97057e-17 0)
(0.037552 -7.96538e-18 0)
(0.037552 6.95754e-17 0)
(0.037552 1.697e-17 0)
(0.037552 -5.95975e-17 0)
(0.037552 6.09583e-17 0)
(0.037552 -8.38304e-18 0)
(0.037552 -5.9942e-17 0)
(0.037552 -8.09239e-18 0)
(0.037552 4.33126e-18 0)
(0.037552 8.07668e-17 0)
(0.037552 -1.24391e-17 0)
(0.037552 -7.37699e-17 0)
(0.037552 9.56098e-18 0)
(0.037552 4.50246e-17 0)
(0.037552 4.04034e-17 0)
(0.037552 -4.82124e-17 0)
(0.037552 -5.17566e-17 0)
(0.037552 3.188e-17 0)
(0.037552 1.97089e-17 0)
(0.037552 7.93999e-17 0)
(0.037552 -8.38237e-17 0)
(0.037552 -7.27978e-17 0)
(0.037552 8.11752e-17 0)
(0.037552 1.87253e-18 0)
(0.037552 7.36649e-17 0)
(0.037552 -5.93322e-17 0)
(0.037552 -2.65436e-17 0)
(0.037552 -3.12751e-18 0)
(0.037552 -5.4539e-17 0)
(0.037552 1.18412e-16 0)
(0.037552 -6.57655e-17 0)
(0.037552 -7.60086e-18 0)
(0.037552 4.1348e-18 0)
(0.037552 -5.04591e-17 0)
(0.037552 1.15454e-16 0)
(0.037552 -7.53887e-17 0)
(0.037552 9.03975e-18 0)
(0.037552 -1.54065e-17 0)
(0.037552 -5.32823e-17 0)
(0.037552 1.49976e-16 0)
(0.037552 -7.48178e-17 0)
(0.037552 -7.16112e-18 0)
(0.037552 6.25946e-18 0)
(0.037552 -5.79842e-17 0)
(0.037552 1.39912e-16 0)
(0.037552 -6.9854e-17 0)
(0.037552 -7.73708e-18 0)
(0.037552 6.73651e-17 0)
(0.037552 -1.36317e-16 0)
(0.037552 6.03751e-17 0)
(0.037552 -8.03757e-18 0)
(0.037552 -6.61493e-17 0)
(0.037552 1.41006e-16 0)
(0.037552 -5.84006e-17 0)
(0.037552 -1.09343e-17 0)
(0.037552 -7.42207e-17 0)
(0.037552 1.08744e-17 0)
(0.037552 2.09334e-16 0)
(0.037552 -1.30154e-16 0)
(0.037552 -2.2451e-17 0)
(0.037552 -7.32935e-17 0)
(0.037552 1.27234e-17 0)
(0.037552 2.14157e-16 0)
(0.037552 -1.27624e-16 0)
(0.037552 -9.6356e-17 0)
(0.037552 -6.92256e-18 0)
(0.037552 9.54271e-17 0)
(0.037552 1.5131e-16 0)
(0.037552 -6.64263e-17 0)
(0.037552 -1.58126e-16 0)
(0.037552 -7.30279e-17 0)
(0.037552 2.3388e-16 0)
(0.037552 8.10886e-19 0)
(0.037552 -2.32799e-16 0)
(0.037552 2.15366e-16 0)
(0.037552 8.58039e-17 0)
(0.037552 -1.38853e-16 0)
(0.037552 -9.03807e-17 0)
(0.037552 -7.97617e-17 0)
(0.037552 2.37561e-16 0)
(0.037552 8.57371e-17 0)
(0.037552 -1.5609e-16 0)
(0.037552 -9.39312e-17 0)
(0.037552 -7.93111e-17 0)
(0.037552 2.33748e-16 0)
(0.037552 1.41973e-17 0)
(0.037552 -9.05028e-17 0)
(0.037552 -1.39051e-17 0)
(0.037552 -1.25815e-16 0)
(0.037552 2.23295e-16 0)
(0.037552 1.24224e-17 0)
(0.037552 -1.26785e-16 0)
(0.037552 5.09107e-17 0)
(0.037552 -8.59867e-17 0)
(0.037552 1.29323e-16 0)
(0.037552 1.2815e-17 0)
(0.037552 -5.56673e-17 0)
(0.037552 -2.34806e-18 0)
(0.037552 -1.4085e-16 0)
(0.037552 2.00132e-16 0)
(0.037552 8.05022e-18 0)
(0.037552 -5.9973e-17 0)
(0.037552 6.56687e-17 0)
(0.037552 -1.70957e-16 0)
(0.037552 -7.12686e-18 0)
(0.037552 8.56365e-17 0)
(0.037552 8.70224e-17 0)
(0.037552 -5.32952e-18 0)
(0.037552 -1.61912e-16 0)
(0.037552 8.73087e-17 0)
(0.037552 2.10221e-17 0)
(0.037552 -7.41397e-18 0)
(0.037552 5.43713e-17 0)
(0.037552 -1.50982e-16 0)
(0.037552 9.34142e-17 0)
(0.037552 6.88706e-18 0)
(0.037552 -6.743e-18 0)
(0.037552 6.93937e-17 0)
(0.037552 -1.57622e-16 0)
(0.037552 6.91433e-17 0)
(0.037552 1.97565e-17 0)
(0.037552 -3.59479e-18 0)
(0.037552 5.73244e-17 0)
(0.037552 -1.36609e-16 0)
(0.037552 8.86569e-17 0)
(0.037552 8.45918e-17 0)
(0.037552 -5.57483e-17 0)
(0.037552 -1.31831e-17 0)
(0.037552 -8.72706e-17 0)
(0.037552 8.32302e-17 0)
(0.037552 6.34163e-17 0)
(0.037552 -1.0814e-16 0)
(0.037552 4.7881e-17 0)
(0.037552 -2.05509e-17 0)
(0.037552 1.9567e-17 0)
(0.037552 5.37978e-17 0)
(0.037552 -1.34281e-16 0)
(0.037552 5.97559e-17 0)
(0.037552 -1.49887e-17 0)
(0.037552 9.74023e-18 0)
(0.037552 6.39863e-17 0)
(0.037552 -1.18687e-16 0)
(0.037552 5.73339e-17 0)
(0.037552 -2.20876e-17 0)
(0.037552 -4.42695e-17 0)
(0.037552 1.4688e-16 0)
(0.037552 -5.1555e-17 0)
(0.037552 -4.34092e-17 0)
(0.037552 -8.77779e-17 0)
(0.037552 4.80225e-17 0)
(0.037552 2.04884e-16 0)
(0.037552 -1.2532e-17 0)
(0.037552 -2.1536e-16 0)
(0.037552 -2.31406e-17 0)
(0.037552 9.31609e-17 0)
(0.037552 1.4519e-17 0)
(0.037552 1.09038e-16 0)
(0.037552 -1.98789e-16 0)
(0.037552 -2.97031e-17 0)
(0.037552 9.45221e-17 0)
(0.037552 2.00134e-17 0)
(0.037552 6.76586e-17 0)
(0.037552 -1.34971e-16 0)
(0.037552 2.40274e-17 0)
(0.037552 1.15797e-17 0)
(0.037552 -5.95268e-17 0)
(0.037552 1.20364e-16 0)
(0.037552 -8.55426e-17 0)
(0.037552 -1.02905e-17 0)
(0.037552 4.72908e-18 0)
(0.037552 -7.18004e-17 0)
(0.037552 1.3966e-16 0)
(0.037552 -7.49444e-17 0)
(0.037552 -9.63825e-17 0)
(0.037552 4.77381e-17 0)
(0.037552 -3.26543e-17 0)
(0.037552 1.25612e-17 0)
(0.037552 -1.97776e-16 0)
(0.037552 -6.15026e-16 0)
(0.110778 -2.03927e-15 0)
(0.110778 -9.78848e-16 0)
(0.110778 -4.7057e-16 0)
(0.110778 -2.55855e-16 0)
(0.110778 -1.23528e-16 0)
(0.110778 -6.96024e-17 0)
(0.110778 -5.4434e-17 0)
(0.110778 -2.85177e-17 0)
(0.110778 -1.84019e-17 0)
(0.110778 -1.26838e-17 0)
(0.110778 -5.67076e-18 0)
(0.110778 -3.93864e-17 0)
(0.110778 -6.39611e-18 0)
(0.110778 -2.70044e-19 0)
(0.110778 -3.03429e-17 0)
(0.110778 7.73687e-19 0)
(0.110778 -7.76714e-18 0)
(0.110778 -2.85941e-17 0)
(0.110778 -5.59504e-17 0)
(0.110778 -6.06519e-17 0)
(0.110778 -2.40331e-17 0)
(0.110778 -2.06431e-17 0)
(0.110778 -4.87149e-17 0)
(0.110778 -5.19804e-17 0)
(0.110778 -7.78201e-17 0)
(0.110778 -5.43743e-17 0)
(0.110778 2.36688e-17 0)
(0.110778 -1.5315e-17 0)
(0.110778 -4.69338e-17 0)
(0.110778 -3.09396e-17 0)
(0.110778 8.70849e-18 0)
(0.110778 6.91677e-17 0)
(0.110778 4.73312e-17 0)
(0.110778 1.41811e-17 0)
(0.110778 1.11532e-17 0)
(0.110778 1.36059e-17 0)
(0.110778 4.94007e-17 0)
(0.110778 -9.08555e-18 0)
(0.110778 -1.00341e-17 0)
(0.110778 7.39053e-17 0)
(0.110778 -3.68869e-18 0)
(0.110778 -1.46662e-18 0)
(0.110778 1.29103e-18 0)
(0.110778 -9.75388e-18 0)
(0.110778 5.72315e-17 0)
(0.110778 1.7852e-17 0)
(0.110778 3.01801e-17 0)
(0.110778 2.36417e-17 0)
(0.110778 -3.16936e-18 0)
(0.110778 -1.95469e-17 0)
(0.110778 -5.45988e-17 0)
(0.110778 2.76865e-17 0)
(0.110778 -2.17162e-18 0)
(0.110778 1.92546e-18 0)
(0.110778 6.54991e-17 0)
(0.110778 -3.35193e-17 0)
(0.110778 5.99531e-18 0)
(0.110778 1.70966e-17 0)
(0.110778 2.37849e-17 0)
(0.110778 4.79703e-17 0)
(0.110778 -3.99606e-17 0)
(0.110778 4.91812e-17 0)
(0.110778 2.61285e-17 0)
(0.110778 2.41397e-17 0)
(0.110778 4.43509e-17 0)
(0.110778 -4.18966e-17 0)
(0.110778 -5.7267e-18 0)
(0.110778 6.34727e-18 0)
(0.110778 2.01973e-17 0)
(0.110778 3.15863e-17 0)
(0.110778 -3.47239e-17 0)
(0.110778 -2.14802e-17 0)
(0.110778 -3.291e-17 0)
(0.110778 -3.2448e-17 0)
(0.110778 1.03414e-16 0)
(0.110778 -5.73902e-17 0)
(0.110778 -1.01576e-16 0)
(0.110778 3.8242e-17 0)
(0.110778 4.45011e-18 0)
(0.110778 5.71915e-17 0)
(0.110778 -3.82318e-17 0)
(0.110778 -1.3315e-16 0)
(0.110778 1.19495e-17 0)
(0.110778 9.02049e-17 0)
(0.110778 9.12416e-17 0)
(0.110778 5.53757e-18 0)
(0.110778 -1.02178e-16 0)
(0.110778 -7.33952e-17 0)
(0.110778 7.6772e-17 0)
(0.110778 1.33059e-16 0)
(0.110778 -3.23083e-17 0)
(0.110778 -1.15368e-16 0)
(0.110778 4.74637e-18 0)
(0.110778 9.08015e-17 0)
(0.110778 -3.06644e-18 0)
(0.110778 -1.15299e-16 0)
(0.110778 -3.29528e-17 0)
(0.110778 -1.38522e-18 0)
(0.110778 9.46806e-17 0)
(0.110778 2.48872e-17 0)
(0.110778 -1.72691e-16 0)
(0.110778 -1.66145e-17 0)
(0.110778 -7.13799e-17 0)
(0.110778 2.31311e-17 0)
(0.110778 4.79063e-17 0)
(0.110778 -4.42208e-17 0)
(0.110778 -9.34348e-17 0)
(0.110778 2.24125e-18 0)
(0.110778 7.51499e-17 0)
(0.110778 1.25272e-17 0)
(0.110778 2.98214e-17 0)
(0.110778 -1.86559e-16 0)
(0.110778 4.20535e-17 0)
(0.110778 1.85629e-16 0)
(0.110778 2.24924e-17 0)
(0.110778 -6.38797e-17 0)
(0.110778 -1.32253e-16 0)
(0.110778 2.0382e-17 0)
(0.110778 1.363e-16 0)
(0.110778 3.36746e-17 0)
(0.110778 -4.45294e-17 0)
(0.110778 -1.0715e-16 0)
(0.110778 2.16994e-17 0)
(0.110778 2.02224e-16 0)
(0.110778 7.53688e-17 0)
(0.110778 -8.8103e-17 0)
(0.110778 -1.656e-16 0)
(0.110778 -9.76322e-18 0)
(0.110778 1.66538e-16 0)
(0.110778 2.98776e-17 0)
(0.110778 -9.39058e-17 0)
(0.110778 -1.09582e-16 0)
(0.110778 5.44042e-17 0)
(0.110778 1.34162e-16 0)
(0.110778 8.3254e-18 0)
(0.110778 1.81919e-17 0)
(0.110778 -9.48526e-17 0)
(0.110778 -4.87697e-17 0)
(0.110778 1.2762e-16 0)
(0.110778 8.34545e-17 0)
(0.110778 3.06642e-17 0)
(0.110778 -9.2511e-17 0)
(0.110778 -2.14844e-17 0)
(0.110778 8.68249e-17 0)
(0.110778 4.7163e-17 0)
(0.110778 -3.06016e-17 0)
(0.110778 -1.30776e-16 0)
(0.110778 1.52292e-20 0)
(0.110778 3.43256e-17 0)
(0.110778 1.01429e-16 0)
(0.110778 1.03481e-16 0)
(0.110778 -2.03419e-16 0)
(0.110778 -1.19865e-16 0)
(0.110778 1.14765e-16 0)
(0.110778 1.09303e-16 0)
(0.110778 7.8066e-17 0)
(0.110778 -7.36851e-17 0)
(0.110778 -1.03341e-16 0)
(0.110778 3.79868e-17 0)
(0.110778 6.37452e-17 0)
(0.110778 1.24978e-16 0)
(0.110778 -1.1862e-16 0)
(0.110778 -3.27091e-17 0)
(0.110778 1.20843e-16 0)
(0.110778 -1.48055e-16 0)
(0.110778 5.01803e-17 0)
(0.110778 -5.46087e-17 0)
(0.110778 -1.87937e-16 0)
(0.110778 1.43381e-16 0)
(0.110778 8.79696e-17 0)
(0.110778 -2.30017e-17 0)
(0.110778 -1.56542e-16 0)
(0.110778 -5.43225e-17 0)
(0.110778 6.16112e-18 0)
(0.110778 -6.76743e-17 0)
(0.110778 -5.40767e-17 0)
(0.110778 -3.76872e-17 0)
(0.110778 2.57825e-16 0)
(0.110778 -4.46752e-17 0)
(0.110778 -1.01388e-16 0)
(0.110778 1.73846e-16 0)
(0.110778 -1.44532e-16 0)
(0.110778 -3.12949e-17 0)
(0.110778 2.51401e-17 0)
(0.110778 -5.2432e-17 0)
(0.110778 1.80369e-16 0)
(0.110778 -9.86911e-17 0)
(0.110778 -3.12537e-17 0)
(0.110778 7.75598e-17 0)
(0.110778 -1.85063e-16 0)
(0.110778 2.97159e-17 0)
(0.110778 -4.64282e-17 0)
(0.110778 -9.29701e-17 0)
(0.110778 1.87932e-16 0)
(0.110778 -4.60841e-17 0)
(0.110778 -2.2278e-17 0)
(0.110778 -1.00449e-16 0)
(0.110778 2.66349e-17 0)
(0.110778 2.74502e-16 0)
(0.110778 -1.64264e-16 0)
(0.110778 -5.78683e-17 0)
(0.110778 -9.71749e-17 0)
(0.110778 4.91782e-17 0)
(0.110778 3.19775e-16 0)
(0.110778 -7.29001e-17 0)
(0.110778 -2.23127e-16 0)
(0.110778 -1.12136e-16 0)
(0.110778 2.07608e-16 0)
(0.110778 2.25347e-16 0)
(0.110778 -8.07547e-17 0)
(0.110778 -2.23262e-16 0)
(0.110778 -1.13761e-16 0)
(0.110778 3.43932e-16 0)
(0.110778 2.76629e-17 0)
(0.110778 -3.26377e-16 0)
(0.110778 2.85104e-16 0)
(0.110778 1.32723e-16 0)
(0.110778 -1.6465e-16 0)
(0.110778 -1.58312e-16 0)
(0.110778 -1.35246e-16 0)
(0.110778 3.66108e-16 0)
(0.110778 1.49628e-16 0)
(0.110778 -2.21493e-16 0)
(0.110778 -1.78751e-16 0)
(0.110778 -1.27128e-16 0)
(0.110778 3.6771e-16 0)
(0.110778 4.96054e-17 0)
(0.110778 -1.50898e-16 0)
(0.110778 3.093e-17 0)
(0.110778 -8.80033e-17 0)
(0.110778 1.23133e-16 0)
(0.110778 -2.84312e-17 0)
(0.110778 5.82792e-17 0)
(0.110778 4.83229e-17 0)
(0.110778 -2.81622e-16 0)
(0.110778 3.56619e-17 0)
(0.110778 8.6257e-17 0)
(0.110778 5.62274e-18 0)
(0.110778 4.04822e-17 0)
(0.110778 -1.68823e-16 0)
(0.110778 7.64188e-17 0)
(0.110778 -2.86523e-17 0)
(0.110778 5.0479e-18 0)
(0.110778 8.20852e-17 0)
(0.110778 -3.0301e-16 0)
(0.110778 -2.40867e-17 0)
(0.110778 1.43774e-16 0)
(0.110778 1.43726e-16 0)
(0.110778 -1.23491e-17 0)
(0.110778 -2.38046e-16 0)
(0.110778 1.73232e-16 0)
(0.110778 7.37002e-17 0)
(0.110778 -2.8118e-17 0)
(0.110778 1.35429e-17 0)
(0.110778 -1.97269e-16 0)
(0.110778 2.27941e-16 0)
(0.110778 5.86989e-17 0)
(0.110778 -7.99509e-18 0)
(0.110778 8.12472e-17 0)
(0.110778 -2.39821e-16 0)
(0.110778 9.53253e-17 0)
(0.110778 9.47133e-17 0)
(0.110778 -7.66609e-17 0)
(0.110778 -1.67251e-17 0)
(0.110778 -9.39492e-17 0)
(0.110778 2.16262e-16 0)
(0.110778 1.79249e-16 0)
(0.110778 3.54408e-17 0)
(0.110778 -7.96663e-17 0)
(0.110778 -1.76104e-16 0)
(0.110778 1.01331e-16 0)
(0.110778 6.1542e-17 0)
(0.110778 9.46633e-17 0)
(0.110778 -9.80888e-17 0)
(0.110778 -2.00936e-16 0)
(0.110778 6.88138e-17 0)
(0.110778 -1.89285e-17 0)
(0.110778 -1.15062e-16 0)
(0.110778 5.73126e-17 0)
(0.110778 -8.94145e-17 0)
(0.110778 2.97503e-17 0)
(0.110778 1.11549e-16 0)
(0.110778 6.48015e-18 0)
(0.110778 -8.74326e-17 0)
(0.110778 -1.85484e-16 0)
(0.110778 4.98411e-17 0)
(0.110778 2.1805e-16 0)
(0.110778 1.39944e-16 0)
(0.110778 -2.37323e-16 0)
(0.110778 -1.55859e-16 0)
(0.110778 2.18803e-16 0)
(0.110778 1.93727e-18 0)
(0.110778 -7.13237e-17 0)
(0.110778 -1.27939e-16 0)
(0.110778 5.99358e-19 0)
(0.110778 2.94079e-16 0)
(0.110778 -7.95586e-17 0)
(0.110778 -8.26602e-17 0)
(0.110778 -1.49166e-16 0)
(0.110778 -6.96251e-18 0)
(0.110778 3.28352e-16 0)
(0.110778 -8.79793e-18 0)
(0.110778 7.3708e-17 0)
(0.110778 -1.43855e-16 0)
(0.110778 -3.56303e-16 0)
(0.110778 -2.99032e-17 0)
(0.110778 6.64556e-17 0)
(0.110778 1.18597e-16 0)
(0.110778 -1.80568e-16 0)
(0.110778 -5.0719e-17 0)
(0.110778 8.50708e-18 0)
(0.110778 -9.39462e-17 0)
(0.110778 1.73168e-16 0)
(0.110778 -1.17403e-16 0)
(0.110778 -2.02139e-16 0)
(0.110778 -1.2783e-17 0)
(0.110778 -2.99715e-16 0)
(0.110778 -2.8936e-16 0)
(0.110778 -5.50702e-16 0)
(0.110778 -1.16862e-15 0)
(0.182123 -1.09454e-15 0)
(0.182123 -7.42616e-16 0)
(0.182123 -4.84979e-16 0)
(0.182123 -2.72855e-16 0)
(0.182123 -1.43071e-16 0)
(0.182123 -6.41948e-17 0)
(0.182123 -3.72986e-17 0)
(0.182123 -7.3577e-18 0)
(0.182123 -3.4436e-18 0)
(0.182123 1.23916e-17 0)
(0.182123 2.2672e-17 0)
(0.182123 -3.28288e-17 0)
(0.182123 -1.02519e-18 0)
(0.182123 4.71809e-18 0)
(0.182123 -3.91071e-17 0)
(0.182123 -1.83258e-17 0)
(0.182123 -2.34855e-17 0)
(0.182123 -5.80628e-17 0)
(0.182123 -8.04659e-17 0)
(0.182123 -9.64236e-17 0)
(0.182123 -6.32684e-17 0)
(0.182123 -1.18135e-16 0)
(0.182123 -1.17481e-16 0)
(0.182123 -8.51564e-17 0)
(0.182123 -1.27326e-16 0)
(0.182123 -9.27308e-17 0)
(0.182123 -2.61605e-17 0)
(0.182123 -2.10337e-17 0)
(0.182123 -5.92235e-17 0)
(0.182123 -5.06898e-17 0)
(0.182123 5.2033e-17 0)
(0.182123 1.61569e-16 0)
(0.182123 9.48696e-17 0)
(0.182123 8.9769e-18 0)
(0.182123 1.5558e-17 0)
(0.182123 3.16512e-17 0)
(0.182123 8.15277e-17 0)
(0.182123 4.93125e-17 0)
(0.182123 2.45957e-17 0)
(0.182123 6.31217e-17 0)
(0.182123 3.78277e-17 0)
(0.182123 9.00811e-18 0)
(0.182123 2.87735e-17 0)
(0.182123 -2.67684e-18 0)
(0.182123 1.88574e-17 0)
(0.182123 7.59808e-17 0)
(0.182123 5.68431e-17 0)
(0.182123 2.95309e-17 0)
(0.182123 1.89869e-17 0)
(0.182123 1.33991e-18 0)
(0.182123 -1.95852e-17 0)
(0.182123 -1.37157e-17 0)
(0.182123 -1.23339e-17 0)
(0.182123 1.74865e-17 0)
(0.182123 7.52459e-17 0)
(0.182123 5.27692e-19 0)
(0.182123 2.13108e-17 0)
(0.182123 5.5003e-17 0)
(0.182123 6.63624e-17 0)
(0.182123 8.26968e-17 0)
(0.182123 -3.33463e-17 0)
(0.182123 1.21977e-16 0)
(0.182123 5.33381e-17 0)
(0.182123 -9.01554e-19 0)
(0.182123 8.88321e-17 0)
(0.182123 -6.5246e-17 0)
(0.182123 1.28667e-17 0)
(0.182123 2.55384e-17 0)
(0.182123 2.89569e-17 0)
(0.182123 4.01308e-17 0)
(0.182123 -6.9424e-17 0)
(0.182123 -4.32178e-17 0)
(0.182123 -5.85598e-17 0)
(0.182123 2.05874e-17 0)
(0.182123 9.18278e-17 0)
(0.182123 -8.99174e-17 0)
(0.182123 -1.08365e-16 0)
(0.182123 -6.83158e-18 0)
(0.182123 -1.41078e-17 0)
(0.182123 4.90721e-17 0)
(0.182123 -6.44327e-17 0)
(0.182123 -9.34308e-17 0)
(0.182123 7.94571e-17 0)
(0.182123 1.00437e-16 0)
(0.182123 4.74343e-17 0)
(0.182123 -1.32616e-17 0)
(0.182123 -1.12683e-17 0)
(0.182123 -7.80246e-17 0)
(0.182123 -1.45037e-17 0)
(0.182123 1.68615e-16 0)
(0.182123 1.3542e-18 0)
(0.182123 -6.71546e-17 0)
(0.182123 3.32421e-17 0)
(0.182123 1.92856e-17 0)
(0.182123 -2.56132e-17 0)
(0.182123 -7.32205e-17 0)
(0.182123 -5.93226e-17 0)
(0.182123 -4.24472e-17 0)
(0.182123 -1.97403e-17 0)
(0.182123 -3.4386e-17 0)
(0.182123 -1.22499e-16 0)
(0.182123 -1.06552e-16 0)
(0.182123 -1.08533e-16 0)
(0.182123 -6.89917e-17 0)
(0.182123 -2.16659e-17 0)
(0.182123 -1.14812e-17 0)
(0.182123 -1.68026e-16 0)
(0.182123 -1.24919e-16 0)
(0.182123 8.42772e-17 0)
(0.182123 1.20516e-16 0)
(0.182123 2.04076e-17 0)
(0.182123 -2.11837e-16 0)
(0.182123 4.2326e-17 0)
(0.182123 2.19248e-16 0)
(0.182123 1.06509e-16 0)
(0.182123 -2.71294e-17 0)
(0.182123 -2.17404e-16 0)
(0.182123 -6.84255e-17 0)
(0.182123 2.75716e-16 0)
(0.182123 1.74104e-16 0)
(0.182123 -1.18974e-16 0)
(0.182123 -1.91871e-16 0)
(0.182123 6.06231e-17 0)
(0.182123 3.37082e-16 0)
(0.182123 2.21228e-16 0)
(0.182123 -1.22979e-16 0)
(0.182123 -4.17084e-16 0)
(0.182123 -3.83818e-17 0)
(0.182123 2.46132e-16 0)
(0.182123 5.70241e-17 0)
(0.182123 -9.02016e-17 0)
(0.182123 -2.13675e-16 0)
(0.182123 5.88431e-17 0)
(0.182123 2.51713e-16 0)
(0.182123 7.42709e-17 0)
(0.182123 -3.21771e-17 0)
(0.182123 -1.0623e-16 0)
(0.182123 5.27442e-18 0)
(0.182123 2.6009e-16 0)
(0.182123 1.54641e-16 0)
(0.182123 -4.28091e-17 0)
(0.182123 -1.31635e-16 0)
(0.182123 5.61398e-17 0)
(0.182123 1.30211e-16 0)
(0.182123 -3.18967e-17 0)
(0.182123 -1.15152e-16 0)
(0.182123 -1.23673e-16 0)
(0.182123 8.80953e-17 0)
(0.182123 5.22228e-17 0)
(0.182123 -1.22267e-17 0)
(0.182123 1.29545e-16 0)
(0.182123 -7.82719e-17 0)
(0.182123 -1.47918e-16 0)
(0.182123 4.45767e-17 0)
(0.182123 1.04874e-16 0)
(0.182123 1.35307e-16 0)
(0.182123 -2.04811e-17 0)
(0.182123 -1.23867e-16 0)
(0.182123 4.02799e-17 0)
(0.182123 1.29639e-16 0)
(0.182123 1.48661e-16 0)
(0.182123 -1.49978e-16 0)
(0.182123 -1.21365e-16 0)
(0.182123 1.42458e-16 0)
(0.182123 -3.88559e-17 0)
(0.182123 -3.66736e-17 0)
(0.182123 -8.28338e-17 0)
(0.182123 -1.00607e-16 0)
(0.182123 -3.22213e-17 0)
(0.182123 -4.2975e-17 0)
(0.182123 -7.50241e-17 0)
(0.182123 -1.64156e-16 0)
(0.182123 -8.26126e-17 0)
(0.182123 4.1652e-17 0)
(0.182123 5.46716e-17 0)
(0.182123 -1.68623e-16 0)
(0.182123 -1.66529e-16 0)
(0.182123 9.19804e-17 0)
(0.182123 5.83022e-17 0)
(0.182123 1.52487e-16 0)
(0.182123 4.21503e-17 0)
(0.182123 -3.1811e-16 0)
(0.182123 -9.24085e-17 0)
(0.182123 1.06268e-16 0)
(0.182123 5.07235e-17 0)
(0.182123 1.43368e-16 0)
(0.182123 -1.20449e-16 0)
(0.182123 -1.24488e-16 0)
(0.182123 6.6591e-17 0)
(0.182123 -9.16931e-17 0)
(0.182123 -8.9244e-17 0)
(0.182123 -8.63263e-17 0)
(0.182123 -5.30298e-17 0)
(0.182123 6.44592e-17 0)
(0.182123 1.2341e-17 0)
(0.182123 -2.89254e-17 0)
(0.182123 -3.74908e-17 0)
(0.182123 2.30613e-17 0)
(0.182123 1.11336e-16 0)
(0.182123 -1.44726e-17 0)
(0.182123 -5.18951e-17 0)
(0.182123 -2.65014e-17 0)
(0.182123 8.72324e-17 0)
(0.182123 1.7158e-16 0)
(0.182123 8.07468e-18 0)
(0.182123 -8.1856e-17 0)
(0.182123 -5.67275e-17 0)
(0.182123 8.25553e-17 0)
(0.182123 8.32009e-17 0)
(0.182123 -3.89858e-17 0)
(0.182123 -1.03618e-16 0)
(0.182123 -1.34974e-16 0)
(0.182123 3.33063e-16 0)
(0.182123 7.25793e-17 0)
(0.182123 -2.61262e-16 0)
(0.182123 2.44752e-16 0)
(0.182123 -2.27515e-18 0)
(0.182123 -1.4024e-17 0)
(0.182123 -1.12711e-16 0)
(0.182123 -2.29805e-16 0)
(0.182123 4.24213e-16 0)
(0.182123 1.19037e-16 0)
(0.182123 -1.51655e-16 0)
(0.182123 -1.41926e-16 0)
(0.182123 -2.38051e-16 0)
(0.182123 4.31769e-16 0)
(0.182123 9.40207e-17 0)
(0.182123 -2.1842e-16 0)
(0.182123 -8.2365e-17 0)
(0.182123 -1.37516e-16 0)
(0.182123 4.27491e-16 0)
(0.182123 1.12664e-16 0)
(0.182123 -7.68557e-17 0)
(0.182123 -1.24026e-17 0)
(0.182123 -3.73041e-16 0)
(0.182123 -3.97011e-17 0)
(0.182123 -5.19677e-17 0)
(0.182123 2.23638e-16 0)
(0.182123 2.2723e-16 0)
(0.182123 -3.6316e-16 0)
(0.182123 1.0917e-17 0)
(0.182123 -1.40109e-16 0)
(0.182123 3.77066e-17 0)
(0.182123 1.20039e-16 0)
(0.182123 -5.36377e-16 0)
(0.182123 -2.07424e-17 0)
(0.182123 1.71804e-16 0)
(0.182123 1.91187e-16 0)
(0.182123 -3.83402e-18 0)
(0.182123 -3.09826e-16 0)
(0.182123 4.68214e-16 0)
(0.182123 1.5458e-16 0)
(0.182123 -2.05355e-16 0)
(0.182123 -1.86923e-16 0)
(0.182123 -1.87576e-16 0)
(0.182123 6.47169e-16 0)
(0.182123 8.57376e-17 0)
(0.182123 -1.33997e-16 0)
(0.182123 8.03375e-17 0)
(0.182123 -2.67537e-16 0)
(0.182123 2.23387e-16 0)
(0.182123 3.22261e-17 0)
(0.182123 -7.39358e-17 0)
(0.182123 -3.02136e-17 0)
(0.182123 -1.4438e-16 0)
(0.182123 4.46224e-16 0)
(0.182123 1.98124e-16 0)
(0.182123 4.14772e-17 0)
(0.182123 4.87766e-17 0)
(0.182123 -2.84313e-16 0)
(0.182123 1.28933e-16 0)
(0.182123 7.59124e-17 0)
(0.182123 4.53896e-17 0)
(0.182123 -1.09322e-17 0)
(0.182123 -3.8565e-16 0)
(0.182123 3.02774e-17 0)
(0.182123 -5.47809e-17 0)
(0.182123 -5.68365e-17 0)
(0.182123 4.12047e-17 0)
(0.182123 -3.20129e-16 0)
(0.182123 8.40248e-17 0)
(0.182123 4.865e-17 0)
(0.182123 1.35228e-17 0)
(0.182123 3.81296e-17 0)
(0.182123 -3.12506e-16 0)
(0.182123 1.58215e-16 0)
(0.182123 2.67353e-16 0)
(0.182123 -4.27344e-17 0)
(0.182123 -1.45215e-16 0)
(0.182123 -1.75533e-16 0)
(0.182123 2.32333e-16 0)
(0.182123 1.5577e-16 0)
(0.182123 -2.01529e-16 0)
(0.182123 -2.13296e-17 0)
(0.182123 -6.50352e-17 0)
(0.182123 6.48208e-17 0)
(0.182123 2.09389e-16 0)
(0.182123 -1.43139e-16 0)
(0.182123 -1.36368e-16 0)
(0.182123 -1.07994e-16 0)
(0.182123 2.29682e-16 0)
(0.182123 3.97007e-16 0)
(0.182123 1.83911e-17 0)
(0.182123 -4.51301e-16 0)
(0.182123 -2.93562e-16 0)
(0.182123 2.41293e-17 0)
(0.182123 -3.48194e-17 0)
(0.182123 -2.38998e-17 0)
(0.182123 -3.15867e-16 0)
(0.182123 -4.16947e-17 0)
(0.182123 4.97836e-17 0)
(0.182123 -1.04316e-16 0)
(0.182123 1.76629e-16 0)
(0.182123 -9.99597e-17 0)
(0.182123 -2.30942e-16 0)
(0.182123 -2.39898e-16 0)
(0.182123 -4.14655e-16 0)
(0.182123 -2.14226e-16 0)
(0.182123 -6.46281e-16 0)
(0.182123 -1.03128e-15 0)
(0.251587 -6.94786e-16 0)
(0.251587 -5.69898e-16 0)
(0.251587 -4.14214e-16 0)
(0.251587 -2.6662e-16 0)
(0.251587 -1.51401e-16 0)
(0.251587 -5.47732e-17 0)
(0.251587 8.88416e-18 0)
(0.251587 3.365e-17 0)
(0.251587 3.41418e-17 0)
(0.251587 3.20833e-17 0)
(0.251587 5.09663e-17 0)
(0.251587 -3.99341e-18 0)
(0.251587 -1.82011e-18 0)
(0.251587 -1.57975e-17 0)
(0.251587 -4.96375e-17 0)
(0.251587 -3.2835e-17 0)
(0.251587 -5.04916e-17 0)
(0.251587 -8.1549e-17 0)
(0.251587 -1.01441e-16 0)
(0.251587 -1.16727e-16 0)
(0.251587 -1.00702e-16 0)
(0.251587 -1.67142e-16 0)
(0.251587 -1.90003e-16 0)
(0.251587 -1.95414e-16 0)
(0.251587 -1.90319e-16 0)
(0.251587 -1.02112e-16 0)
(0.251587 -8.94929e-18 0)
(0.251587 -5.11043e-17 0)
(0.251587 -7.66429e-17 0)
(0.251587 -3.41196e-17 0)
(0.251587 9.22675e-17 0)
(0.251587 1.94373e-16 0)
(0.251587 1.57177e-16 0)
(0.251587 5.17072e-17 0)
(0.251587 1.96202e-17 0)
(0.251587 5.47377e-17 0)
(0.251587 1.22131e-16 0)
(0.251587 1.18894e-16 0)
(0.251587 3.1131e-17 0)
(0.251587 8.52379e-17 0)
(0.251587 8.92322e-17 0)
(0.251587 4.39939e-17 0)
(0.251587 3.14175e-17 0)
(0.251587 1.65692e-17 0)
(0.251587 6.05137e-17 0)
(0.251587 9.09624e-17 0)
(0.251587 6.62565e-17 0)
(0.251587 5.64062e-17 0)
(0.251587 4.71784e-17 0)
(0.251587 1.54183e-17 0)
(0.251587 -2.46169e-17 0)
(0.251587 8.82058e-18 0)
(0.251587 1.78231e-17 0)
(0.251587 4.29774e-17 0)
(0.251587 1.16766e-16 0)
(0.251587 1.6999e-17 0)
(0.251587 4.60894e-17 0)
(0.251587 1.04332e-16 0)
(0.251587 9.2896e-17 0)
(0.251587 1.24876e-16 0)
(0.251587 3.64268e-17 0)
(0.251587 1.22677e-16 0)
(0.251587 9.9111e-17 0)
(0.251587 5.7498e-17 0)
(0.251587 4.80179e-17 0)
(0.251587 -6.5847e-17 0)
(0.251587 7.11218e-17 0)
(0.251587 3.11385e-17 0)
(0.251587 4.23664e-17 0)
(0.251587 7.55627e-17 0)
(0.251587 -1.19541e-16 0)
(0.251587 -6.81153e-17 0)
(0.251587 -8.70245e-17 0)
(0.251587 3.44581e-18 0)
(0.251587 9.88576e-17 0)
(0.251587 -1.2268e-16 0)
(0.251587 -9.11798e-17 0)
(0.251587 -4.09085e-18 0)
(0.251587 -2.91938e-17 0)
(0.251587 7.61217e-17 0)
(0.251587 -5.09052e-17 0)
(0.251587 -7.91343e-17 0)
(0.251587 1.12228e-16 0)
(0.251587 1.09946e-16 0)
(0.251587 2.70097e-17 0)
(0.251587 -8.73081e-17 0)
(0.251587 -3.19602e-17 0)
(0.251587 -6.41833e-18 0)
(0.251587 1.7921e-17 0)
(0.251587 1.5513e-16 0)
(0.251587 6.45604e-17 0)
(0.251587 -2.09921e-17 0)
(0.251587 6.41177e-18 0)
(0.251587 2.7376e-17 0)
(0.251587 -4.29232e-17 0)
(0.251587 -1.46918e-16 0)
(0.251587 -6.84286e-17 0)
(0.251587 -5.99763e-17 0)
(0.251587 -1.17302e-16 0)
(0.251587 -8.74731e-17 0)
(0.251587 -1.56823e-16 0)
(0.251587 -2.08489e-16 0)
(0.251587 -2.46549e-16 0)
(0.251587 -1.66845e-16 0)
(0.251587 -8.6481e-18 0)
(0.251587 -6.04172e-17 0)
(0.251587 -2.79031e-16 0)
(0.251587 -2.17567e-16 0)
(0.251587 1.26684e-16 0)
(0.251587 2.20125e-16 0)
(0.251587 8.71087e-18 0)
(0.251587 -2.27246e-16 0)
(0.251587 5.68984e-17 0)
(0.251587 2.39962e-16 0)
(0.251587 1.78263e-16 0)
(0.251587 4.86369e-17 0)
(0.251587 -2.81798e-16 0)
(0.251587 -1.19862e-16 0)
(0.251587 3.4145e-16 0)
(0.251587 2.97854e-16 0)
(0.251587 -1.40525e-16 0)
(0.251587 -2.97801e-16 0)
(0.251587 1.05322e-16 0)
(0.251587 4.28537e-16 0)
(0.251587 2.25703e-16 0)
(0.251587 -1.08452e-16 0)
(0.251587 -4.16959e-16 0)
(0.251587 -1.24062e-16 0)
(0.251587 2.52331e-16 0)
(0.251587 5.25443e-17 0)
(0.251587 -1.47206e-16 0)
(0.251587 -1.13178e-16 0)
(0.251587 4.73164e-17 0)
(0.251587 2.84826e-16 0)
(0.251587 2.12972e-16 0)
(0.251587 -1.60534e-18 0)
(0.251587 -2.13252e-16 0)
(0.251587 -2.07758e-17 0)
(0.251587 4.29733e-16 0)
(0.251587 2.45939e-16 0)
(0.251587 -6.01213e-17 0)
(0.251587 -2.23835e-16 0)
(0.251587 9.28886e-17 0)
(0.251587 1.90218e-16 0)
(0.251587 1.56324e-17 0)
(0.251587 -8.30565e-17 0)
(0.251587 -3.3351e-16 0)
(0.251587 6.82807e-17 0)
(0.251587 1.64868e-16 0)
(0.251587 8.44435e-17 0)
(0.251587 6.38273e-17 0)
(0.251587 -2.09545e-16 0)
(0.251587 -6.87448e-17 0)
(0.251587 1.08157e-16 0)
(0.251587 1.60757e-16 0)
(0.251587 1.4118e-16 0)
(0.251587 -5.54619e-17 0)
(0.251587 -9.03893e-17 0)
(0.251587 1.24708e-16 0)
(0.251587 1.66296e-16 0)
(0.251587 1.3232e-16 0)
(0.251587 -2.30254e-16 0)
(0.251587 -7.86595e-17 0)
(0.251587 1.60059e-16 0)
(0.251587 -1.60404e-16 0)
(0.251587 -9.5951e-17 0)
(0.251587 -9.42503e-17 0)
(0.251587 -9.95898e-17 0)
(0.251587 -5.61347e-17 0)
(0.251587 -8.19212e-17 0)
(0.251587 -1.47419e-16 0)
(0.251587 -2.53862e-16 0)
(0.251587 -1.73349e-16 0)
(0.251587 1.10558e-16 0)
(0.251587 5.93391e-18 0)
(0.251587 -2.19104e-16 0)
(0.251587 -1.34149e-16 0)
(0.251587 1.8006e-17 0)
(0.251587 3.26672e-17 0)
(0.251587 9.80078e-17 0)
(0.251587 1.9838e-17 0)
(0.251587 -3.10603e-16 0)
(0.251587 -6.01618e-17 0)
(0.251587 1.32997e-16 0)
(0.251587 -1.57107e-17 0)