/*--------------------------------*- C++ -*----------------------------------*\
| =========                 |                                                 |
| \\      /  F ield         | OpenFOAM: The Open Source CFD Toolbox           |
|  \\    /   O peration     | Version:  2112                                  |
|   \\  /    A nd           | Website:  www.openfoam.com                      |
|    \\/     M anipulation  |                                                 |
\*---------------------------------------------------------------------------*/
FoamFile
{
    version     2.0;
    format      ascii;
    arch        "LSB;label=32;scalar=64";
    class       volVectorField;
    location    "9";
    object      U;
}
// * * * * * * * * * * * * * * * * * * * * * * * * * * * * * * * * * * * * * //

dimensions      [0 1 -1 0 0 0 0];

internalField   nonuniform List<vector> 
25600
(
(0.0374883 -3.12164e-16 0)
(0.0374883 -6.74656e-17 0)
(0.0374883 -1.30726e-17 0)
(0.0374883 -9.11348e-18 0)
(0.0374883 2.34964e-18 0)
(0.0374883 -1.08288e-19 0)
(0.0374883 -6.10814e-18 0)
(0.0374883 1.59515e-18 0)
(0.0374883 -3.89518e-18 0)
(0.0374883 -2.58125e-18 0)
(0.0374883 4.52065e-18 0)
(0.0374883 -1.12368e-17 0)
(0.0374883 4.6292e-18 0)
(0.0374883 5.59431e-18 0)
(0.0374883 -8.02699e-18 0)
(0.0374883 1.22462e-17 0)
(0.0374883 1.00982e-18 0)
(0.0374883 -1.00599e-18 0)
(0.0374883 -7.57491e-18 0)
(0.0374883 -4.42344e-18 0)
(0.0374883 1.26311e-18 0)
(0.0374883 6.37165e-18 0)
(0.0374883 5.99102e-18 0)
(0.0374883 -8.91211e-18 0)
(0.0374883 -1.10442e-17 0)
(0.0374883 -9.28916e-19 0)
(0.0374883 2.42456e-17 0)
(0.0374883 -7.32637e-19 0)
(0.0374883 -2.27741e-17 0)
(0.0374883 4.17252e-18 0)
(0.0374883 9.24873e-18 0)
(0.0374883 1.22348e-17 0)
(0.0374883 -1.30939e-19 0)
(0.0374883 -1.08925e-17 0)
(0.0374883 -1.73888e-19 0)
(0.0374883 -3.74618e-18 0)
(0.0374883 3.10525e-18 0)
(0.0374883 -4.86892e-18 0)
(0.0374883 -6.74581e-18 0)
(0.0374883 3.60596e-18 0)
(0.0374883 -3.15164e-18 0)
(0.0374883 1.49328e-17 0)
(0.0374883 -7.61976e-18 0)
(0.0374883 -1.75846e-17 0)
(0.0374883 2.43902e-17 0)
(0.0374883 -1.07049e-17 0)
(0.0374883 3.62627e-18 0)
(0.0374883 6.38902e-18 0)
(0.0374883 -1.02173e-19 0)
(0.0374883 2.18344e-19 0)
(0.0374883 -2.71088e-17 0)
(0.0374883 2.16884e-17 0)
(0.0374883 -2.7768e-18 0)
(0.0374883 3.2137e-18 0)
(0.0374883 2.5682e-17 0)
(0.0374883 -2.70024e-17 0)
(0.0374883 -6.00064e-18 0)
(0.0374883 -1.06002e-17 0)
(0.0374883 2.40314e-18 0)
(0.0374883 3.70859e-17 0)
(0.0374883 -3.24156e-17 0)
(0.0374883 7.76159e-18 0)
(0.0374883 -1.62693e-18 0)
(0.0374883 -8.19225e-19 0)
(0.0374883 2.0667e-17 0)
(0.0374883 -2.08157e-17 0)
(0.0374883 -1.22325e-19 0)
(0.0374883 -1.01725e-17 0)
(0.0374883 1.29808e-17 0)
(0.0374883 8.66943e-18 0)
(0.0374883 -8.16627e-18 0)
(0.0374883 -3.14188e-19 0)
(0.0374883 -4.9734e-18 0)
(0.0374883 -5.01675e-18 0)
(0.0374883 1.36661e-17 0)
(0.0374883 -7.52387e-18 0)
(0.0374883 -1.43774e-17 0)
(0.0374883 1.46066e-17 0)
(0.0374883 -1.98174e-18 0)
(0.0374883 2.81845e-17 0)
(0.0374883 -2.28141e-17 0)
(0.0374883 -3.29078e-17 0)
(0.0374883 2.35232e-17 0)
(0.0374883 -1.12932e-18 0)
(0.0374883 2.24143e-17 0)
(0.0374883 -3.7314e-18 0)
(0.0374883 -3.88901e-17 0)
(0.0374883 1.66355e-19 0)
(0.0374883 1.57207e-17 0)
(0.0374883 3.62999e-17 0)
(0.0374883 -5.16158e-18 0)
(0.0374883 -4.71054e-17 0)
(0.0374883 2.87855e-18 0)
(0.0374883 4.66402e-17 0)
(0.0374883 -7.43913e-19 0)
(0.0374883 -4.94821e-17 0)
(0.0374883 1.22003e-18 0)
(0.0374883 -6.86264e-18 0)
(0.0374883 4.31014e-17 0)
(0.0374883 2.97927e-17 0)
(0.0374883 -7.08945e-17 0)
(0.0374883 4.47318e-18 0)
(0.0374883 -6.36735e-18 0)
(0.0374883 4.17149e-17 0)
(0.0374883 5.52355e-18 0)
(0.0374883 -1.485e-17 0)
(0.0374883 -3.13732e-17 0)
(0.0374883 1.13326e-17 0)
(0.0374883 3.1284e-17 0)
(0.0374883 -1.19112e-17 0)
(0.0374883 3.60131e-17 0)
(0.0374883 -8.62798e-17 0)
(0.0374883 1.7881e-17 0)
(0.0374883 6.01621e-17 0)
(0.0374883 3.82099e-18 0)
(0.0374883 -1.33291e-17 0)
(0.0374883 -5.95845e-17 0)
(0.0374883 3.08941e-17 0)
(0.0374883 3.80611e-17 0)
(0.0374883 1.27999e-17 0)
(0.0374883 -4.76493e-18 0)
(0.0374883 -5.66208e-17 0)
(0.0374883 -1.09551e-17 0)
(0.0374883 5.83446e-17 0)
(0.0374883 1.45969e-17 0)
(0.0374883 -2.31609e-17 0)
(0.0374883 -4.49998e-17 0)
(0.0374883 -2.92096e-19 0)
(0.0374883 6.41707e-17 0)
(0.0374883 2.27436e-18 0)
(0.0374883 -2.37356e-17 0)
(0.0374883 -3.19661e-17 0)
(0.0374883 1.79014e-17 0)
(0.0374883 3.37319e-17 0)
(0.0374883 -1.90514e-17 0)
(0.0374883 -1.9303e-17 0)
(0.0374883 -1.35324e-17 0)
(0.0374883 4.13967e-17 0)
(0.0374883 2.30793e-17 0)
(0.0374883 -1.56378e-17 0)
(0.0374883 -2.82552e-17 0)
(0.0374883 -1.61314e-17 0)
(0.0374883 4.84928e-17 0)
(0.0374883 1.75672e-17 0)
(0.0374883 -4.46871e-17 0)
(0.0374883 4.42741e-17 0)
(0.0374883 -1.29964e-17 0)
(0.0374883 -3.45679e-17 0)
(0.0374883 -3.06377e-18 0)
(0.0374883 -7.32474e-18 0)
(0.0374883 5.28902e-17 0)
(0.0374883 -8.88358e-18 0)
(0.0374883 -4.49929e-17 0)
(0.0374883 7.30476e-18 0)
(0.0374883 2.01341e-17 0)
(0.0374883 2.62519e-17 0)
(0.0374883 -3.39127e-17 0)
(0.0374883 -3.62518e-17 0)
(0.0374883 2.54627e-17 0)
(0.0374883 1.59025e-18 0)
(0.0374883 6.01751e-17 0)
(0.0374883 -5.64205e-17 0)
(0.0374883 -4.68946e-17 0)
(0.0374883 6.36356e-17 0)
(0.0374883 -1.66654e-17 0)
(0.0374883 4.84598e-17 0)
(0.0374883 -4.11034e-17 0)
(0.0374883 -1.319e-17 0)
(0.0374883 7.18306e-18 0)
(0.0374883 -4.64263e-17 0)
(0.0374883 8.33158e-17 0)
(0.0374883 -5.58804e-17 0)
(0.0374883 3.39672e-18 0)
(0.0374883 1.64116e-17 0)
(0.0374883 -3.71383e-17 0)
(0.0374883 8.19679e-17 0)
(0.0374883 -6.00962e-17 0)
(0.0374883 9.08434e-18 0)
(0.0374883 -1.4527e-17 0)
(0.0374883 -3.62092e-17 0)
(0.0374883 1.0949e-16 0)
(0.0374883 -7.09448e-17 0)
(0.0374883 -4.0551e-18 0)
(0.0374883 1.79606e-17 0)
(0.0374883 -4.37309e-17 0)
(0.0374883 1.01128e-16 0)
(0.0374883 -5.82859e-17 0)
(0.0374883 -4.20785e-18 0)
(0.0374883 6.58463e-17 0)
(0.0374883 -9.17803e-17 0)
(0.0374883 4.56759e-17 0)
(0.0374883 -1.52965e-18 0)
(0.0374883 -5.51041e-17 0)
(0.0374883 9.67416e-17 0)
(0.0374883 -3.86579e-17 0)
(0.0374883 7.9426e-18 0)
(0.0374883 -4.58177e-17 0)
(0.0374883 -1.60872e-17 0)
(0.0374883 1.35117e-16 0)
(0.0374883 -9.01624e-17 0)
(0.0374883 7.285e-18 0)
(0.0374883 -4.83145e-17 0)
(0.0374883 -3.17627e-18 0)
(0.0374883 1.46727e-16 0)
(0.0374883 -8.50607e-17 0)
(0.0374883 -4.56422e-17 0)
(0.0374883 -1.3315e-17 0)
(0.0374883 4.69459e-17 0)
(0.0374883 8.73124e-17 0)
(0.0374883 -4.46802e-17 0)
(0.0374883 -7.35476e-17 0)
(0.0374883 -6.10761e-17 0)
(0.0374883 1.58604e-16 0)
(0.0374883 4.05638e-19 0)
(0.0374883 -1.66658e-16 0)
(0.0374883 1.53169e-16 0)
(0.0374883 2.65307e-17 0)
(0.0374883 -7.62016e-17 0)
(0.0374883 -3.42944e-17 0)
(0.0374883 -7.88319e-17 0)
(0.0374883 1.60392e-16 0)
(0.0374883 4.30564e-17 0)
(0.0374883 -8.90077e-17 0)
(0.0374883 -4.08597e-17 0)
(0.0374883 -8.54075e-17 0)
(0.0374883 1.64348e-16 0)
(0.0374883 -6.88899e-19 0)
(0.0374883 -5.51556e-17 0)
(0.0374883 1.86192e-17 0)
(0.0374883 -1.11528e-16 0)
(0.0374883 1.55404e-16 0)
(0.0374883 -7.70819e-18 0)
(0.0374883 -9.9463e-17 0)
(0.0374883 5.93424e-17 0)
(0.0374883 -7.3158e-17 0)
(0.0374883 9.65316e-17 0)
(0.0374883 -6.69739e-18 0)
(0.0374883 -3.18493e-17 0)
(0.0374883 2.29813e-17 0)
(0.0374883 -1.21943e-16 0)
(0.0374883 1.44718e-16 0)
(0.0374883 -1.08435e-17 0)
(0.0374883 -4.98906e-17 0)
(0.0374883 7.1525e-17 0)
(0.0374883 -1.33277e-16 0)
(0.0374883 1.46689e-17 0)
(0.0374883 4.29004e-17 0)
(0.0374883 4.27453e-17 0)
(0.0374883 1.40522e-17 0)
(0.0374883 -1.25094e-16 0)
(0.0374883 8.33767e-17 0)
(0.0374883 1.68572e-18 0)
(0.0374883 -2.02345e-17 0)
(0.0374883 4.30571e-17 0)
(0.0374883 -1.1481e-16 0)
(0.0374883 1.00943e-16 0)
(0.0374883 -8.30387e-18 0)
(0.0374883 -1.73248e-17 0)
(0.0374883 6.80022e-17 0)
(0.0374883 -1.26068e-16 0)
(0.0374883 5.95958e-17 0)
(0.0374883 -4.0077e-18 0)
(0.0374883 2.93011e-18 0)
(0.0374883 6.13219e-17 0)
(0.0374883 -1.15267e-16 0)
(0.0374883 7.28877e-17 0)
(0.0374883 3.17014e-17 0)
(0.0374883 -4.43542e-17 0)
(0.0374883 9.97909e-18 0)
(0.0374883 -7.82322e-17 0)
(0.0374883 6.62411e-17 0)
(0.0374883 3.50299e-17 0)
(0.0374883 -7.8267e-17 0)
(0.0374883 5.47409e-17 0)
(0.0374883 -3.55088e-17 0)
(0.0374883 3.37618e-17 0)
(0.0374883 4.24477e-17 0)
(0.0374883 -8.9559e-17 0)
(0.0374883 6.7368e-17 0)
(0.0374883 -3.76818e-17 0)
(0.0374883 1.75557e-17 0)
(0.0374883 3.67323e-17 0)
(0.0374883 -8.50303e-17 0)
(0.0374883 6.0799e-17 0)
(0.0374883 -3.54564e-17 0)
(0.0374883 -2.84228e-17 0)
(0.0374883 9.38244e-17 0)
(0.0374883 -4.70106e-17 0)
(0.0374883 -1.06258e-17 0)
(0.0374883 -6.60005e-17 0)
(0.0374883 3.05563e-17 0)
(0.0374883 1.27409e-16 0)
(0.0374883 -8.31458e-18 0)
(0.0374883 -1.19089e-16 0)
(0.0374883 -2.3237e-17 0)
(0.0374883 6.46317e-17 0)
(0.0374883 9.61993e-18 0)
(0.0374883 7.34428e-17 0)
(0.0374883 -1.2846e-16 0)
(0.0374883 -1.94589e-17 0)
(0.0374883 5.9093e-17 0)
(0.0374883 7.21956e-18 0)
(0.0374883 5.29416e-17 0)
(0.0374883 -9.78281e-17 0)
(0.0374883 2.25444e-17 0)
(0.0374883 2.89137e-17 0)
(0.0374883 -4.98416e-17 0)
(0.0374883 9.14662e-17 0)
(0.0374883 -6.19904e-17 0)
(0.0374883 -1.05195e-18 0)
(0.0374883 2.04078e-17 0)
(0.0374883 -7.37242e-17 0)
(0.0374883 9.64311e-17 0)
(0.0374883 -3.61574e-17 0)
(0.0374883 -5.46879e-17 0)
(0.0374883 5.25174e-17 0)
(0.0374883 -1.68807e-17 0)
(0.0374883 6.30089e-17 0)
(0.0374883 -4.6408e-17 0)
(0.0374883 -1.33155e-16 0)
(0.11059 -7.66796e-16 0)
(0.11059 -2.16003e-16 0)
(0.11059 -8.23649e-17 0)
(0.11059 -3.52705e-17 0)
(0.11059 2.03498e-18 0)
(0.11059 2.28466e-18 0)
(0.11059 -1.33708e-17 0)
(0.11059 2.64881e-18 0)
(0.11059 -1.63829e-17 0)
(0.11059 -1.80823e-17 0)
(0.11059 -1.25784e-17 0)
(0.11059 -2.66343e-17 0)
(0.11059 1.45864e-17 0)
(0.11059 1.94983e-17 0)
(0.11059 -4.39107e-18 0)
(0.11059 3.90993e-17 0)
(0.11059 2.12518e-17 0)
(0.11059 -3.84704e-18 0)
(0.11059 -1.67413e-17 0)
(0.11059 -1.37424e-17 0)
(0.11059 7.23638e-18 0)
(0.11059 1.4733e-17 0)
(0.11059 1.6198e-17 0)
(0.11059 -9.71421e-18 0)
(0.11059 -2.29334e-17 0)
(0.11059 -5.56086e-18 0)
(0.11059 3.66189e-17 0)
(0.11059 1.40625e-17 0)
(0.11059 -1.13066e-17 0)
(0.11059 3.28286e-18 0)
(0.11059 2.82197e-17 0)
(0.11059 5.06077e-17 0)
(0.11059 -5.44775e-18 0)
(0.11059 -2.65803e-17 0)
(0.11059 -1.30285e-17 0)
(0.11059 -8.61773e-18 0)
(0.11059 2.72297e-17 0)
(0.11059 -3.50912e-17 0)
(0.11059 -5.82453e-17 0)
(0.11059 2.10353e-17 0)
(0.11059 -1.44178e-17 0)
(0.11059 4.204e-18 0)
(0.11059 2.90284e-18 0)
(0.11059 -3.39337e-17 0)
(0.11059 2.72084e-17 0)
(0.11059 -3.28355e-18 0)
(0.11059 1.67473e-17 0)
(0.11059 2.22737e-17 0)
(0.11059 3.58336e-18 0)
(0.11059 -4.70487e-18 0)
(0.11059 -5.69025e-17 0)
(0.11059 2.13099e-17 0)
(0.11059 6.1606e-18 0)
(0.11059 1.21081e-17 0)
(0.11059 6.02082e-17 0)
(0.11059 -4.39006e-17 0)
(0.11059 -1.54707e-17 0)
(0.11059 -9.36997e-18 0)
(0.11059 6.84951e-18 0)
(0.11059 2.35707e-17 0)
(0.11059 -8.55502e-17 0)
(0.11059 3.77554e-17 0)
(0.11059 5.63963e-18 0)
(0.11059 -2.86378e-18 0)
(0.11059 3.95542e-17 0)
(0.11059 -5.2211e-17 0)
(0.11059 -5.37078e-18 0)
(0.11059 -5.31091e-18 0)
(0.11059 1.892e-17 0)
(0.11059 5.18725e-17 0)
(0.11059 -3.15361e-17 0)
(0.11059 -2.70762e-17 0)
(0.11059 -3.07472e-17 0)
(0.11059 -2.0696e-17 0)
(0.11059 1.08377e-16 0)
(0.11059 -5.02988e-17 0)
(0.11059 -8.11938e-17 0)
(0.11059 3.13999e-17 0)
(0.11059 -4.44087e-18 0)
(0.11059 6.60811e-17 0)
(0.11059 -6.62372e-18 0)
(0.11059 -1.0768e-16 0)
(0.11059 -1.03782e-17 0)
(0.11059 1.62108e-17 0)
(0.11059 3.48987e-17 0)
(0.11059 -1.78776e-17 0)
(0.11059 -6.03623e-17 0)
(0.11059 -3.40683e-17 0)
(0.11059 4.20262e-17 0)
(0.11059 1.23639e-16 0)
(0.11059 -3.04363e-17 0)
(0.11059 -8.71674e-17 0)
(0.11059 -1.2196e-18 0)
(0.11059 7.52951e-17 0)
(0.11059 2.45996e-18 0)
(0.11059 -1.07774e-16 0)
(0.11059 -2.9519e-17 0)
(0.11059 -2.47349e-17 0)
(0.11059 6.77106e-17 0)
(0.11059 5.49599e-17 0)
(0.11059 -9.04308e-17 0)
(0.11059 2.84112e-17 0)
(0.11059 -5.275e-17 0)
(0.11059 1.06129e-17 0)
(0.11059 5.70265e-17 0)
(0.11059 3.85602e-18 0)
(0.11059 -8.43892e-17 0)
(0.11059 -2.51265e-17 0)
(0.11059 7.57221e-17 0)
(0.11059 4.77526e-17 0)
(0.11059 6.74954e-17 0)
(0.11059 -1.74678e-16 0)
(0.11059 1.21695e-17 0)
(0.11059 1.70149e-16 0)
(0.11059 3.36365e-17 0)
(0.11059 -1.23937e-17 0)
(0.11059 -1.25426e-16 0)
(0.11059 -3.80848e-17 0)
(0.11059 1.25213e-16 0)
(0.11059 5.47956e-17 0)
(0.11059 -4.82221e-17 0)
(0.11059 -1.36852e-16 0)
(0.11059 -4.27925e-17 0)
(0.11059 1.68083e-16 0)
(0.11059 1.08568e-16 0)
(0.11059 -5.54449e-17 0)
(0.11059 -1.68244e-16 0)
(0.11059 7.17363e-18 0)
(0.11059 1.86762e-16 0)
(0.11059 4.29496e-17 0)
(0.11059 -4.84506e-17 0)
(0.11059 -8.93765e-17 0)
(0.11059 8.67916e-18 0)
(0.11059 1.06424e-16 0)
(0.11059 1.14746e-17 0)
(0.11059 1.90613e-17 0)
(0.11059 -9.86975e-17 0)
(0.11059 -2.75464e-17 0)
(0.11059 1.36779e-16 0)
(0.11059 4.39959e-17 0)
(0.11059 -2.42008e-17 0)
(0.11059 -1.03284e-16 0)
(0.11059 2.29663e-18 0)
(0.11059 9.02071e-17 0)
(0.11059 3.06747e-17 0)
(0.11059 -3.23337e-18 0)
(0.11059 -1.06572e-16 0)
(0.11059 1.57768e-17 0)
(0.11059 6.81338e-18 0)
(0.11059 3.99844e-17 0)
(0.11059 9.3759e-17 0)
(0.11059 -1.55594e-16 0)
(0.11059 -9.76183e-17 0)
(0.11059 8.27829e-17 0)
(0.11059 6.07853e-17 0)
(0.11059 4.29684e-17 0)
(0.11059 -1.0239e-16 0)
(0.11059 -1.10261e-16 0)
(0.11059 2.56793e-17 0)
(0.11059 4.48444e-17 0)
(0.11059 1.23488e-16 0)
(0.11059 -1.09651e-16 0)
(0.11059 -1.70617e-17 0)
(0.11059 1.26172e-16 0)
(0.11059 -1.55801e-16 0)
(0.11059 4.30092e-17 0)
(0.11059 -2.11922e-17 0)
(0.11059 -1.3089e-16 0)
(0.11059 1.26192e-16 0)
(0.11059 4.8292e-17 0)
(0.11059 -3.1878e-17 0)
(0.11059 -1.47138e-16 0)
(0.11059 7.67542e-18 0)
(0.11059 8.65592e-17 0)
(0.11059 -2.6814e-17 0)
(0.11059 -2.36999e-17 0)
(0.11059 -6.39238e-17 0)
(0.11059 1.70808e-16 0)
(0.11059 -6.93509e-17 0)
(0.11059 -4.19507e-17 0)
(0.11059 1.74544e-16 0)
(0.11059 -1.76974e-16 0)
(0.11059 -2.23246e-17 0)
(0.11059 8.90989e-17 0)
(0.11059 -1.21685e-17 0)
(0.11059 1.64749e-16 0)
(0.11059 -1.08113e-16 0)
(0.11059 1.6555e-19 0)
(0.11059 1.56814e-16 0)
(0.11059 -1.08014e-16 0)
(0.11059 3.73572e-17 0)
(0.11059 -2.62076e-17 0)
(0.11059 -9.33094e-17 0)
(0.11059 1.48186e-16 0)
(0.11059 2.96417e-18 0)
(0.11059 2.84952e-17 0)
(0.11059 -8.49359e-17 0)
(0.11059 -5.62483e-17 0)
(0.11059 1.81918e-16 0)
(0.11059 -1.02374e-16 0)
(0.11059 8.83644e-19 0)
(0.11059 -7.52792e-17 0)
(0.11059 2.16537e-17 0)
(0.11059 2.42235e-16 0)
(0.11059 -4.4171e-17 0)
(0.11059 -1.31266e-16 0)
(0.11059 -1.32621e-16 0)
(0.11059 1.0717e-16 0)
(0.11059 1.20973e-16 0)
(0.11059 -5.28075e-17 0)
(0.11059 -8.01826e-17 0)
(0.11059 -1.14525e-16 0)
(0.11059 3.02593e-16 0)
(0.11059 2.2861e-17 0)
(0.11059 -2.98357e-16 0)
(0.11059 2.18202e-16 0)
(0.11059 -1.3751e-17 0)
(0.11059 -9.53268e-17 0)
(0.11059 -7.04146e-17 0)
(0.11059 -1.87808e-16 0)
(0.11059 2.93548e-16 0)
(0.11059 8.49414e-17 0)
(0.11059 -1.17064e-16 0)
(0.11059 -7.92709e-17 0)
(0.11059 -2.08777e-16 0)
(0.11059 3.00648e-16 0)
(0.11059 2.61334e-17 0)
(0.11059 -9.1025e-17 0)
(0.11059 8.63245e-17 0)
(0.11059 -1.53878e-16 0)
(0.11059 8.92789e-17 0)
(0.11059 -8.12756e-17 0)
(0.11059 -1.32263e-17 0)
(0.11059 8.87784e-17 0)
(0.11059 -2.29631e-16 0)
(0.11059 6.51519e-17 0)
(0.11059 2.24916e-17 0)
(0.11059 2.15448e-17 0)
(0.11059 9.87326e-17 0)
(0.11059 -2.16314e-16 0)
(0.11059 8.65621e-17 0)
(0.11059 -5.46439e-17 0)
(0.11059 6.53997e-18 0)
(0.11059 1.30426e-16 0)
(0.11059 -3.18455e-16 0)
(0.11059 2.4077e-17 0)
(0.11059 7.53917e-17 0)
(0.11059 8.36681e-17 0)
(0.11059 4.02111e-17 0)
(0.11059 -2.35877e-16 0)
(0.11059 2.2756e-16 0)
(0.11059 2.2558e-17 0)
(0.11059 -1.14519e-16 0)
(0.11059 -2.54435e-17 0)
(0.11059 -1.80179e-16 0)
(0.11059 3.18579e-16 0)
(0.11059 1.97796e-17 0)
(0.11059 -4.49051e-17 0)
(0.11059 1.09928e-16 0)
(0.11059 -2.59476e-16 0)
(0.11059 9.84862e-17 0)
(0.11059 6.8334e-17 0)
(0.11059 -1.54664e-17 0)
(0.11059 3.71798e-17 0)
(0.11059 -1.48237e-16 0)
(0.11059 1.9635e-16 0)
(0.11059 4.36079e-17 0)
(0.11059 -2.62423e-17 0)
(0.11059 -4.08097e-17 0)
(0.11059 -2.05664e-16 0)
(0.11059 1.21764e-16 0)
(0.11059 2.06001e-18 0)
(0.11059 8.02994e-17 0)
(0.11059 -1.05271e-17 0)
(0.11059 -1.94876e-16 0)
(0.11059 1.65919e-16 0)
(0.11059 2.6638e-17 0)
(0.11059 -3.0196e-17 0)
(0.11059 1.32383e-16 0)
(0.11059 -1.58957e-16 0)
(0.11059 5.41091e-17 0)
(0.11059 4.7288e-17 0)
(0.11059 7.16847e-18 0)
(0.11059 -9.34733e-18 0)
(0.11059 -2.30142e-16 0)
(0.11059 4.21738e-17 0)
(0.11059 1.2928e-16 0)
(0.11059 5.57979e-17 0)
(0.11059 -1.72866e-16 0)
(0.11059 -1.57221e-16 0)
(0.11059 2.14816e-16 0)
(0.11059 -5.97679e-18 0)
(0.11059 -4.76665e-17 0)
(0.11059 -3.26688e-17 0)
(0.11059 -6.47436e-17 0)
(0.11059 2.25277e-16 0)
(0.11059 -2.47641e-17 0)
(0.11059 -5.94582e-17 0)
(0.11059 -9.74389e-17 0)
(0.11059 -7.03747e-17 0)
(0.11059 2.22215e-16 0)
(0.11059 -6.85712e-19 0)
(0.11059 6.90709e-17 0)
(0.11059 -1.43644e-16 0)
(0.11059 -2.55346e-16 0)
(0.11059 9.5235e-17 0)
(0.11059 6.56418e-17 0)
(0.11059 1.35561e-16 0)
(0.11059 -1.33584e-16 0)
(0.11059 -1.95578e-17 0)
(0.11059 7.29707e-17 0)
(0.11059 -1.46755e-16 0)
(0.11059 1.29779e-16 0)
(0.11059 -1.99143e-17 0)
(0.11059 -9.19984e-17 0)
(0.11059 1.14491e-16 0)
(0.11059 -1.07137e-16 0)
(0.11059 7.07214e-17 0)
(0.11059 -4.20634e-17 0)
(0.11059 -3.25184e-16 0)
(0.181818 -3.1599e-16 0)
(0.181818 -2.14192e-16 0)
(0.181818 -9.57574e-17 0)
(0.181818 -2.88218e-17 0)
(0.181818 2.12002e-17 0)
(0.181818 1.84343e-17 0)
(0.181818 -5.33961e-18 0)
(0.181818 -3.11708e-18 0)
(0.181818 -1.28811e-17 0)
(0.181818 -2.43817e-17 0)
(0.181818 -4.35156e-17 0)
(0.181818 -3.96095e-17 0)
(0.181818 2.52615e-17 0)
(0.181818 3.10715e-17 0)
(0.181818 1.43023e-17 0)
(0.181818 9.11675e-17 0)
(0.181818 5.06711e-17 0)
(0.181818 -6.54452e-19 0)
(0.181818 -1.06945e-17 0)
(0.181818 -1.64628e-18 0)
(0.181818 2.63485e-17 0)
(0.181818 1.7097e-17 0)
(0.181818 1.59567e-17 0)
(0.181818 -4.49817e-18 0)
(0.181818 -2.39537e-17 0)
(0.181818 -1.85295e-17 0)
(0.181818 4.60487e-17 0)
(0.181818 4.8161e-17 0)
(0.181818 7.90614e-18 0)
(0.181818 3.28513e-19 0)
(0.181818 5.91741e-17 0)
(0.181818 1.12121e-16 0)
(0.181818 8.03017e-18 0)
(0.181818 -6.58805e-17 0)
(0.181818 -5.03279e-17 0)
(0.181818 -2.90572e-17 0)
(0.181818 3.77612e-17 0)
(0.181818 -4.34554e-17 0)
(0.181818 -1.09697e-16 0)
(0.181818 1.86532e-18 0)
(0.181818 -5.0404e-18 0)
(0.181818 6.98701e-18 0)
(0.181818 1.599e-17 0)
(0.181818 -6.15329e-17 0)
(0.181818 -1.6811e-17 0)
(0.181818 2.34088e-17 0)
(0.181818 4.1209e-17 0)
(0.181818 4.19151e-17 0)
(0.181818 1.29314e-17 0)
(0.181818 -7.84806e-18 0)
(0.181818 -5.09297e-17 0)
(0.181818 -3.80619e-18 0)
(0.181818 2.05506e-17 0)
(0.181818 2.05377e-17 0)
(0.181818 7.77472e-17 0)
(0.181818 -2.30267e-17 0)
(0.181818 -1.8609e-17 0)
(0.181818 -2.47089e-17 0)
(0.181818 9.32559e-18 0)
(0.181818 2.32672e-17 0)
(0.181818 -1.56563e-16 0)
(0.181818 7.13182e-17 0)
(0.181818 1.13648e-17 0)
(0.181818 -2.41407e-17 0)
(0.181818 8.11451e-17 0)
(0.181818 -1.00354e-16 0)
(0.181818 -6.31443e-18 0)
(0.181818 -7.95895e-18 0)
(0.181818 2.25334e-17 0)
(0.181818 8.76477e-17 0)
(0.181818 -4.89357e-17 0)
(0.181818 -5.11454e-17 0)
(0.181818 -8.43834e-17 0)
(0.181818 1.51092e-17 0)
(0.181818 1.33513e-16 0)
(0.181818 -7.32509e-17 0)
(0.181818 -1.23002e-16 0)
(0.181818 1.56388e-17 0)
(0.181818 -7.29563e-18 0)
(0.181818 6.28286e-17 0)
(0.181818 -3.0027e-17 0)
(0.181818 -1.43237e-16 0)
(0.181818 -1.35925e-17 0)
(0.181818 -5.31049e-18 0)
(0.181818 2.76703e-17 0)
(0.181818 -3.36504e-17 0)
(0.181818 -1.31982e-17 0)
(0.181818 -5.64866e-17 0)
(0.181818 -4.19304e-17 0)
(0.181818 1.81824e-16 0)
(0.181818 -9.85372e-18 0)
(0.181818 -9.97756e-17 0)
(0.181818 9.93099e-18 0)
(0.181818 3.24897e-17 0)
(0.181818 1.93145e-18 0)
(0.181818 -1.20147e-16 0)
(0.181818 -7.13219e-17 0)
(0.181818 -4.27379e-17 0)
(0.181818 3.66672e-17 0)
(0.181818 5.36595e-17 0)
(0.181818 -3.44879e-17 0)
(0.181818 1.44176e-17 0)
(0.181818 -6.5943e-17 0)
(0.181818 -1.95545e-17 0)
(0.181818 7.05916e-17 0)
(0.181818 7.85666e-17 0)
(0.181818 -1.48535e-16 0)
(0.181818 -1.1966e-16 0)
(0.181818 1.2249e-16 0)
(0.181818 1.67015e-16 0)
(0.181818 6.84221e-17 0)
(0.181818 -2.55666e-16 0)
(0.181818 1.6778e-17 0)
(0.181818 2.46923e-16 0)
(0.181818 1.3767e-16 0)
(0.181818 1.49708e-17 0)
(0.181818 -2.55179e-16 0)
(0.181818 -1.25534e-16 0)
(0.181818 2.64746e-16 0)
(0.181818 1.7884e-16 0)
(0.181818 -1.68236e-16 0)
(0.181818 -2.80316e-16 0)
(0.181818 -6.89699e-17 0)
(0.181818 3.20932e-16 0)
(0.181818 2.82929e-16 0)
(0.181818 -9.20919e-17 0)
(0.181818 -3.98959e-16 0)
(0.181818 4.67772e-17 0)
(0.181818 3.57726e-16 0)
(0.181818 1.00229e-16 0)
(0.181818 -4.2835e-17 0)
(0.181818 -2.0686e-16 0)
(0.181818 -6.31347e-18 0)
(0.181818 2.42093e-16 0)
(0.181818 6.41162e-17 0)
(0.181818 -3.59635e-17 0)
(0.181818 -1.65957e-16 0)
(0.181818 -1.632e-17 0)
(0.181818 2.5894e-16 0)
(0.181818 8.49644e-17 0)
(0.181818 -1.19882e-16 0)
(0.181818 -1.52738e-16 0)
(0.181818 7.3199e-17 0)
(0.181818 1.27808e-16 0)
(0.181818 -2.32665e-17 0)
(0.181818 -2.58453e-17 0)
(0.181818 -1.08881e-16 0)
(0.181818 6.38141e-17 0)
(0.181818 3.23426e-17 0)
(0.181818 -6.03222e-17 0)
(0.181818 1.25787e-16 0)
(0.181818 -1.16019e-16 0)
(0.181818 -1.4531e-16 0)
(0.181818 4.51231e-17 0)
(0.181818 9.07082e-17 0)
(0.181818 8.08029e-17 0)
(0.181818 -1.51122e-16 0)
(0.181818 -2.22659e-16 0)
(0.181818 -1.77927e-17 0)
(0.181818 1.23306e-16 0)
(0.181818 1.84935e-16 0)
(0.181818 -1.67596e-16 0)
(0.181818 -8.11466e-17 0)
(0.181818 1.87818e-16 0)
(0.181818 -1.00583e-16 0)
(0.181818 -1.31781e-17 0)
(0.181818 -4.73957e-17 0)
(0.181818 -9.11325e-17 0)
(0.181818 5.83852e-17 0)
(0.181818 1.57301e-17 0)
(0.181818 -8.33812e-17 0)
(0.181818 -2.24141e-16 0)
(0.181818 7.32615e-18 0)
(0.181818 1.84215e-16 0)
(0.181818 9.55184e-17 0)
(0.181818 -1.00793e-16 0)
(0.181818 -1.65952e-16 0)
(0.181818 8.20329e-17 0)
(0.181818 -3.33703e-17 0)
(0.181818 1.68975e-16 0)
(0.181818 1.40181e-16 0)
(0.181818 -3.29267e-16 0)
(0.181818 -3.69731e-17 0)
(0.181818 2.25744e-16 0)
(0.181818 9.72272e-17 0)
(0.181818 1.78843e-16 0)
(0.181818 -1.27754e-16 0)
(0.181818 -2.72233e-17 0)
(0.181818 2.41113e-16 0)
(0.181818 -2.17236e-17 0)
(0.181818 -4.02682e-17 0)
(0.181818 -4.34935e-17 0)
(0.181818 -9.45578e-17 0)
(0.181818 1.10066e-16 0)
(0.181818 1.05814e-16 0)
(0.181818 6.36899e-17 0)
(0.181818 -8.96036e-17 0)
(0.181818 -1.13868e-16 0)
(0.181818 7.98691e-17 0)
(0.181818 1.90735e-17 0)
(0.181818 6.37617e-18 0)
(0.181818 -5.30906e-17 0)
(0.181818 5.72582e-17 0)
(0.181818 1.91722e-16 0)
(0.181818 8.30786e-18 0)
(0.181818 -8.46604e-17 0)
(0.181818 -1.64411e-16 0)
(0.181818 1.13479e-17 0)
(0.181818 5.38952e-17 0)
(0.181818 -1.00324e-17 0)
(0.181818 -2.53721e-18 0)
(0.181818 -1.48502e-16 0)
(0.181818 4.00306e-16 0)
(0.181818 5.84493e-17 0)
(0.181818 -3.63205e-16 0)
(0.181818 2.16638e-16 0)
(0.181818 -1.62498e-16 0)
(0.181818 -4.38548e-17 0)
(0.181818 -7.92892e-17 0)
(0.181818 -3.56931e-16 0)
(0.181818 4.35517e-16 0)
(0.181818 8.2455e-17 0)
(0.181818 -8.88697e-17 0)
(0.181818 -7.60862e-17 0)
(0.181818 -3.7802e-16 0)
(0.181818 4.3647e-16 0)
(0.181818 6.95154e-17 0)
(0.181818 -1.12644e-16 0)
(0.181818 3.77871e-17 0)
(0.181818 -3.07518e-16 0)
(0.181818 2.91839e-16 0)
(0.181818 -6.0914e-17 0)
(0.181818 -1.64959e-16 0)
(0.181818 8.38857e-17 0)
(0.181818 -3.35818e-16 0)
(0.181818 5.76954e-17 0)
(0.181818 -8.98797e-17 0)
(0.181818 1.78169e-16 0)
(0.181818 2.69387e-16 0)
(0.181818 -4.62121e-16 0)
(0.181818 7.77381e-17 0)
(0.181818 -1.56764e-16 0)
(0.181818 7.85952e-17 0)
(0.181818 2.18407e-16 0)
(0.181818 -6.21372e-16 0)
(0.181818 5.05875e-17 0)
(0.181818 1.1244e-16 0)
(0.181818 1.37429e-16 0)
(0.181818 5.98315e-17 0)
(0.181818 -3.76497e-16 0)
(0.181818 5.3409e-16 0)
(0.181818 5.62545e-17 0)
(0.181818 -3.27239e-16 0)
(0.181818 -2.19208e-16 0)
(0.181818 -2.36046e-16 0)
(0.181818 7.40565e-16 0)
(0.181818 4.67705e-17 0)
(0.181818 -1.38308e-16 0)
(0.181818 1.35693e-16 0)
(0.181818 -3.73048e-16 0)
(0.181818 2.30427e-16 0)
(0.181818 5.38626e-17 0)
(0.181818 2.71345e-17 0)
(0.181818 3.20981e-17 0)
(0.181818 -2.73945e-16 0)
(0.181818 4.24459e-16 0)
(0.181818 2.98582e-17 0)
(0.181818 -9.30137e-17 0)
(0.181818 1.70205e-17 0)
(0.181818 -3.85536e-16 0)
(0.181818 1.89778e-16 0)
(0.181818 3.98582e-18 0)
(0.181818 5.96467e-17 0)
(0.181818 9.88658e-17 0)
(0.181818 -3.39458e-16 0)
(0.181818 2.64253e-16 0)
(0.181818 6.17692e-17 0)
(0.181818 4.92638e-17 0)
(0.181818 1.73851e-16 0)
(0.181818 -3.87751e-16 0)
(0.181818 1.54021e-16 0)
(0.181818 1.04251e-17 0)
(0.181818 -5.34076e-18 0)
(0.181818 9.22828e-17 0)
(0.181818 -4.45061e-16 0)
(0.181818 1.13339e-16 0)
(0.181818 1.79384e-16 0)
(0.181818 -1.22498e-16 0)
(0.181818 -1.64395e-16 0)
(0.181818 -2.62089e-16 0)
(0.181818 2.70408e-16 0)
(0.181818 1.3713e-16 0)
(0.181818 -1.60303e-16 0)
(0.181818 6.54096e-17 0)
(0.181818 -1.22382e-16 0)
(0.181818 1.02506e-16 0)
(0.181818 2.38991e-16 0)
(0.181818 -1.43036e-16 0)
(0.181818 -1.10613e-16 0)
(0.181818 -2.03701e-16 0)
(0.181818 1.57083e-16 0)
(0.181818 3.36726e-16 0)
(0.181818 1.96304e-17 0)
(0.181818 -4.35052e-16 0)
(0.181818 -2.51123e-16 0)
(0.181818 2.19784e-16 0)
(0.181818 6.31191e-17 0)
(0.181818 1.18367e-16 0)
(0.181818 -2.46525e-16 0)
(0.181818 -1.10989e-17 0)
(0.181818 1.47208e-16 0)
(0.181818 -1.95969e-16 0)
(0.181818 1.49409e-16 0)
(0.181818 1.98098e-17 0)
(0.181818 -8.13328e-17 0)
(0.181818 5.59098e-17 0)
(0.181818 -1.094e-16 0)
(0.181818 2.58458e-16 0)
(0.181818 -4.07852e-17 0)
(0.181818 -3.71525e-16 0)
(0.251172 -2.14608e-16 0)
(0.251172 -1.88883e-16 0)
(0.251172 -8.49151e-17 0)
(0.251172 1.21945e-17 0)
(0.251172 4.21844e-17 0)
(0.251172 2.77606e-17 0)
(0.251172 -2.33336e-18 0)
(0.251172 2.53531e-18 0)
(0.251172 -4.79741e-18 0)
(0.251172 -4.13547e-17 0)
(0.251172 -6.81707e-17 0)
(0.251172 -5.97031e-17 0)
(0.251172 3.4212e-17 0)
(0.251172 5.49723e-17 0)
(0.251172 4.70256e-17 0)
(0.251172 1.2431e-16 0)
(0.251172 9.16473e-17 0)
(0.251172 1.69551e-17 0)
(0.251172 1.1946e-17 0)
(0.251172 1.75089e-17 0)
(0.251172 5.55447e-17 0)
(0.251172 5.94678e-17 0)
(0.251172 3.77551e-17 0)
(0.251172 -8.9998e-18 0)
(0.251172 -5.37851e-17 0)
(0.251172 -1.48586e-17 0)
(0.251172 8.2478e-17 0)
(0.251172 8.31125e-17 0)
(0.251172 2.98639e-17 0)
(0.251172 1.01553e-17 0)
(0.251172 9.65417e-17 0)
(0.251172 1.41267e-16 0)
(0.251172 1.92719e-17 0)
(0.251172 -5.91891e-17 0)
(0.251172 -1.11154e-16 0)
(0.251172 -9.31596e-17 0)
(0.251172 4.08874e-17 0)
(0.251172 -3.52961e-17 0)
(0.251172 -1.61372e-16 0)
(0.251172 -2.58572e-17 0)
(0.251172 2.05744e-17 0)
(0.251172 -2.17599e-18 0)
(0.251172 -6.77232e-18 0)
(0.251172 -6.47603e-17 0)
(0.251172 -3.19783e-17 0)
(0.251172 2.09783e-18 0)
(0.251172 7.903e-17 0)
(0.251172 8.21326e-17 0)
(0.251172 1.36033e-17 0)
(0.251172 -1.43196e-17 0)
(0.251172 -6.4092e-17 0)
(0.251172 2.55891e-17 0)
(0.251172 5.8841e-17 0)
(0.251172 2.544e-17 0)
(0.251172 1.09365e-16 0)
(0.251172 -1.6047e-17 0)
(0.251172 -2.28545e-17 0)
(0.251172 -3.36e-17 0)
(0.251172 -1.76738e-17 0)
(0.251172 1.96534e-17 0)
(0.251172 -1.9649e-16 0)
(0.251172 4.44257e-17 0)
(0.251172 4.34604e-17 0)
(0.251172 -2.68518e-18 0)
(0.251172 5.39332e-17 0)
(0.251172 -1.20928e-16 0)
(0.251172 3.82225e-17 0)
(0.251172 -3.26486e-17 0)
(0.251172 1.32215e-17 0)
(0.251172 1.34047e-16 0)
(0.251172 -8.9627e-17 0)
(0.251172 -1.00755e-16 0)
(0.251172 -1.22947e-16 0)
(0.251172 -1.06254e-18 0)
(0.251172 1.78879e-16 0)
(0.251172 -8.35731e-17 0)
(0.251172 -1.46662e-16 0)
(0.251172 -1.51234e-17 0)
(0.251172 -4.97425e-17 0)
(0.251172 9.15796e-17 0)
(0.251172 -5.85777e-17 0)
(0.251172 -2.06242e-16 0)
(0.251172 -4.02212e-17 0)
(0.251172 -1.48702e-18 0)
(0.251172 3.62695e-17 0)
(0.251172 -7.23508e-17 0)
(0.251172 -4.43922e-17 0)
(0.251172 -3.9409e-17 0)
(0.251172 -6.3613e-17 0)
(0.251172 1.86353e-16 0)
(0.251172 1.2476e-17 0)
(0.251172 -1.01406e-16 0)
(0.251172 -2.81617e-17 0)
(0.251172 1.59383e-17 0)
(0.251172 -4.26169e-18 0)
(0.251172 -1.95701e-16 0)
(0.251172 -9.56387e-17 0)
(0.251172 -4.70842e-17 0)
(0.251172 2.77415e-17 0)
(0.251172 6.97207e-17 0)
(0.251172 -2.28712e-17 0)
(0.251172 -5.92467e-19 0)
(0.251172 -1.22234e-16 0)
(0.251172 -3.37151e-17 0)
(0.251172 1.59915e-16 0)
(0.251172 9.47597e-17 0)
(0.251172 -2.25962e-16 0)
(0.251172 -1.86427e-16 0)
(0.251172 1.79432e-16 0)
(0.251172 2.63829e-16 0)
(0.251172 9.23895e-17 0)
(0.251172 -3.23257e-16 0)
(0.251172 7.10125e-18 0)
(0.251172 3.31826e-16 0)
(0.251172 2.41766e-16 0)
(0.251172 4.98144e-17 0)
(0.251172 -3.83148e-16 0)
(0.251172 -1.78489e-16 0)
(0.251172 3.62535e-16 0)
(0.251172 2.80463e-16 0)
(0.251172 -2.38192e-16 0)
(0.251172 -4.33598e-16 0)
(0.251172 -3.21912e-17 0)
(0.251172 4.25396e-16 0)
(0.251172 3.4918e-16 0)
(0.251172 -1.05034e-16 0)
(0.251172 -4.42757e-16 0)
(0.251172 2.97674e-17 0)
(0.251172 5.04781e-16 0)
(0.251172 1.4368e-16 0)
(0.251172 -1.08539e-16 0)
(0.251172 -1.98328e-16 0)
(0.251172 -4.97959e-17 0)
(0.251172 3.0955e-16 0)
(0.251172 1.85678e-16 0)
(0.251172 -4.90748e-17 0)
(0.251172 -2.70169e-16 0)
(0.251172 -6.51162e-17 0)
(0.251172 4.15264e-16 0)
(0.251172 1.45282e-16 0)
(0.251172 -1.66502e-16 0)
(0.251172 -2.53231e-16 0)
(0.251172 1.23217e-16 0)
(0.251172 1.81209e-16 0)
(0.251172 -6.23969e-18 0)
(0.251172 1.26893e-17 0)
(0.251172 -2.61689e-16 0)
(0.251172 4.65536e-17 0)
(0.251172 9.14604e-17 0)
(0.251172 -2.95654e-17 0)
(0.251172 1.15296e-16 0)
(0.251172 -2.44891e-16 0)
(0.251172 -1.11022e-16 0)
(0.251172 1.01103e-16 0)
(0.251172 1.32736e-16 0)
(0.251172 4.61949e-17 0)
(0.251172 -2.54406e-16 0)
(0.251172 -2.83873e-16 0)
(0.251172 7.94438e-18 0)
(0.251172 1.58139e-16 0)
(0.251172 1.9184e-16 0)
(0.251172 -2.48551e-16 0)
(0.251172 -5.76046e-17 0)
(0.251172 2.62329e-16 0)
(0.251172 -1.66216e-16 0)
(0.251172 -2.81967e-17 0)
(0.251172 -8.77164e-17 0)
(0.251172 -1.17921e-16 0)
(0.251172 6.46922e-17 0)
(0.251172 9.34222e-18 0)
(0.251172 -1.4143e-16 0)
(0.251172 -3.60088e-16 0)
(0.251172 -2.42126e-17 0)
(0.251172 3.48286e-16 0)
(0.251172 1.16936e-16 0)
(0.251172 -1.4552e-16 0)
(0.251172 -1.82518e-16 0)
(0.251172 1.32992e-17 0)
(0.251172 -6.89916e-18 0)
(0.251172 2.12051e-16 0)
(0.251172 1.86956e-16 0)
(0.251172 -3.78135e-16 0)
(0.251172 -4.10077e-18 0)
(0.251172 3.29781e-16 0)
(0.251172 1.26848e-16 0)