/*--------------------------------*- C++ -*----------------------------------*\
| =========                 |                                                 |
| \\      /  F ield         | OpenFOAM: The Open Source CFD Toolbox           |
|  \\    /   O peration     | Version:  2112                                  |
|   \\  /    A nd           | Website:  www.openfoam.com                      |
|    \\/     M anipulation  |                                                 |
\*---------------------------------------------------------------------------*/
FoamFile
{
    version     2.0;
    format      ascii;
    arch        "LSB;label=32;scalar=64";
    class       volVectorField;
    location    "9";
    object      U;
}
// * * * * * * * * * * * * * * * * * * * * * * * * * * * * * * * * * * * * * //

dimensions      [0 1 -1 0 0 0 0];

internalField   nonuniform List<vector> 
25600
(
(0.0374883 1.49923e-15 0)
(0.0374883 2.66695e-16 0)
(0.0374883 1.22888e-16 0)
(0.0374883 4.8301e-17 0)
(0.0374883 3.08796e-17 0)
(0.0374883 1.91327e-17 0)
(0.0374883 6.77225e-18 0)
(0.0374883 7.21261e-18 0)
(0.0374883 6.53296e-18 0)
(0.0374883 3.65165e-19 0)
(0.0374883 6.35895e-18 0)
(0.0374883 2.2734e-18 0)
(0.0374883 1.02062e-17 0)
(0.0374883 5.65414e-18 0)
(0.0374883 -7.83775e-18 0)
(0.0374883 1.25484e-17 0)
(0.0374883 5.30105e-18 0)
(0.0374883 9.25e-19 0)
(0.0374883 -2.5504e-18 0)
(0.0374883 1.06307e-18 0)
(0.0374883 6.23412e-18 0)
(0.0374883 7.76166e-18 0)
(0.0374883 2.44517e-18 0)
(0.0374883 -6.18239e-18 0)
(0.0374883 -1.26815e-17 0)
(0.0374883 -1.71706e-18 0)
(0.0374883 2.5883e-17 0)
(0.0374883 -6.98605e-18 0)
(0.0374883 -2.16635e-17 0)
(0.0374883 -4.08411e-18 0)
(0.0374883 1.24193e-17 0)
(0.0374883 1.26301e-17 0)
(0.0374883 7.4107e-19 0)
(0.0374883 -8.90455e-18 0)
(0.0374883 -1.62215e-19 0)
(0.0374883 1.58909e-18 0)
(0.0374883 6.67759e-18 0)
(0.0374883 -4.23878e-18 0)
(0.0374883 -7.33859e-18 0)
(0.0374883 5.93727e-18 0)
(0.0374883 -4.8127e-18 0)
(0.0374883 1.79442e-17 0)
(0.0374883 -7.85095e-18 0)
(0.0374883 -1.67073e-17 0)
(0.0374883 2.084e-17 0)
(0.0374883 -1.2937e-17 0)
(0.0374883 2.72466e-18 0)
(0.0374883 2.26544e-19 0)
(0.0374883 -3.17724e-20 0)
(0.0374883 -4.43622e-18 0)
(0.0374883 -2.88364e-17 0)
(0.0374883 2.99386e-17 0)
(0.0374883 -2.18189e-18 0)
(0.0374883 -4.84085e-18 0)
(0.0374883 2.00403e-17 0)
(0.0374883 -2.75267e-17 0)
(0.0374883 5.28217e-18 0)
(0.0374883 -8.42589e-18 0)
(0.0374883 -9.66534e-20 0)
(0.0374883 3.45136e-17 0)
(0.0374883 -3.5198e-17 0)
(0.0374883 9.45689e-18 0)
(0.0374883 -2.05233e-18 0)
(0.0374883 2.55944e-18 0)
(0.0374883 2.22556e-17 0)
(0.0374883 -1.71478e-17 0)
(0.0374883 7.79765e-18 0)
(0.0374883 -1.05688e-17 0)
(0.0374883 1.28838e-17 0)
(0.0374883 8.82996e-18 0)
(0.0374883 -8.8906e-18 0)
(0.0374883 6.73845e-19 0)
(0.0374883 -3.04981e-18 0)
(0.0374883 -4.22901e-18 0)
(0.0374883 1.39804e-17 0)
(0.0374883 -6.5583e-18 0)
(0.0374883 -1.6038e-17 0)
(0.0374883 1.20376e-17 0)
(0.0374883 -8.23029e-18 0)
(0.0374883 2.61457e-17 0)
(0.0374883 -2.58546e-17 0)
(0.0374883 -3.40519e-17 0)
(0.0374883 2.93442e-17 0)
(0.0374883 3.47947e-18 0)
(0.0374883 2.34073e-17 0)
(0.0374883 -2.61432e-18 0)
(0.0374883 -3.68371e-17 0)
(0.0374883 3.68725e-18 0)
(0.0374883 1.40731e-17 0)
(0.0374883 3.5294e-17 0)
(0.0374883 -6.73983e-18 0)
(0.0374883 -4.96371e-17 0)
(0.0374883 5.49897e-18 0)
(0.0374883 4.81006e-17 0)
(0.0374883 7.65902e-19 0)
(0.0374883 -4.86244e-17 0)
(0.0374883 1.05652e-17 0)
(0.0374883 -9.77613e-19 0)
(0.0374883 4.1263e-17 0)
(0.0374883 2.46364e-17 0)
(0.0374883 -7.31462e-17 0)
(0.0374883 5.14676e-18 0)
(0.0374883 -6.3465e-18 0)
(0.0374883 4.03969e-17 0)
(0.0374883 1.14135e-18 0)
(0.0374883 -1.97428e-17 0)
(0.0374883 -2.73981e-17 0)
(0.0374883 1.72293e-17 0)
(0.0374883 3.31126e-17 0)
(0.0374883 -1.05274e-17 0)
(0.0374883 2.43183e-17 0)
(0.0374883 -8.71155e-17 0)
(0.0374883 2.28272e-17 0)
(0.0374883 5.41888e-17 0)
(0.0374883 4.61608e-18 0)
(0.0374883 -1.77859e-17 0)
(0.0374883 -6.3293e-17 0)
(0.0374883 4.15866e-17 0)
(0.0374883 4.20796e-17 0)
(0.0374883 9.65639e-18 0)
(0.0374883 -1.48579e-17 0)
(0.0374883 -6.07483e-17 0)
(0.0374883 -2.17753e-18 0)
(0.0374883 6.57984e-17 0)
(0.0374883 9.89951e-18 0)
(0.0374883 -3.27566e-17 0)
(0.0374883 -3.83314e-17 0)
(0.0374883 7.30567e-18 0)
(0.0374883 6.30313e-17 0)
(0.0374883 -3.91006e-18 0)
(0.0374883 -2.59225e-17 0)
(0.0374883 -3.02372e-17 0)
(0.0374883 2.40965e-17 0)
(0.0374883 3.49942e-17 0)
(0.0374883 -2.51188e-17 0)
(0.0374883 -2.52264e-17 0)
(0.0374883 -1.67966e-17 0)
(0.0374883 3.79963e-17 0)
(0.0374883 2.31615e-17 0)
(0.0374883 -2.34798e-17 0)
(0.0374883 -3.14573e-17 0)
(0.0374883 -1.15411e-17 0)
(0.0374883 5.32183e-17 0)
(0.0374883 1.2226e-17 0)
(0.0374883 -4.59226e-17 0)
(0.0374883 3.9482e-17 0)
(0.0374883 -1.38724e-17 0)
(0.0374883 -3.10263e-17 0)
(0.0374883 1.21403e-18 0)
(0.0374883 -9.26043e-18 0)
(0.0374883 5.76434e-17 0)
(0.0374883 -1.02529e-17 0)
(0.0374883 -5.0556e-17 0)
(0.0374883 7.40038e-18 0)
(0.0374883 2.37498e-17 0)
(0.0374883 3.15905e-17 0)
(0.0374883 -2.85493e-17 0)
(0.0374883 -3.02972e-17 0)
(0.0374883 2.95641e-17 0)
(0.0374883 5.65029e-18 0)
(0.0374883 5.51765e-17 0)
(0.0374883 -6.21795e-17 0)
(0.0374883 -4.21454e-17 0)
(0.0374883 6.95757e-17 0)
(0.0374883 -1.804e-17 0)
(0.0374883 5.4847e-17 0)
(0.0374883 -3.8505e-17 0)
(0.0374883 -5.9049e-18 0)
(0.0374883 1.04268e-17 0)
(0.0374883 -4.55556e-17 0)
(0.0374883 8.63264e-17 0)
(0.0374883 -5.22143e-17 0)
(0.0374883 6.00744e-18 0)
(0.0374883 1.71573e-17 0)
(0.0374883 -4.76625e-17 0)
(0.0374883 7.89423e-17 0)
(0.0374883 -5.88327e-17 0)
(0.0374883 1.11475e-17 0)
(0.0374883 -7.78412e-18 0)
(0.0374883 -4.16742e-17 0)
(0.0374883 9.78869e-17 0)
(0.0374883 -7.27109e-17 0)
(0.0374883 6.07938e-18 0)
(0.0374883 1.40886e-17 0)
(0.0374883 -5.06678e-17 0)
(0.0374883 9.871e-17 0)
(0.0374883 -6.05985e-17 0)
(0.0374883 -3.50683e-18 0)
(0.0374883 6.32016e-17 0)
(0.0374883 -9.70871e-17 0)
(0.0374883 5.06003e-17 0)
(0.0374883 -8.27946e-19 0)
(0.0374883 -5.81261e-17 0)
(0.0374883 9.78178e-17 0)
(0.0374883 -4.09998e-17 0)
(0.0374883 6.83581e-18 0)
(0.0374883 -4.61991e-17 0)
(0.0374883 -1.04315e-17 0)
(0.0374883 1.42014e-16 0)
(0.0374883 -9.11354e-17 0)
(0.0374883 4.4584e-18 0)
(0.0374883 -4.76061e-17 0)
(0.0374883 6.67884e-19 0)
(0.0374883 1.4241e-16 0)
(0.0374883 -9.09262e-17 0)
(0.0374883 -4.83975e-17 0)
(0.0374883 -1.23369e-17 0)
(0.0374883 4.79874e-17 0)
(0.0374883 9.2075e-17 0)
(0.0374883 -4.46761e-17 0)
(0.0374883 -8.1732e-17 0)
(0.0374883 -5.94191e-17 0)
(0.0374883 1.62895e-16 0)
(0.0374883 1.03695e-18 0)
(0.0374883 -1.68871e-16 0)
(0.0374883 1.5922e-16 0)
(0.0374883 3.1454e-17 0)
(0.0374883 -7.6775e-17 0)
(0.0374883 -3.59275e-17 0)
(0.0374883 -7.65589e-17 0)
(0.0374883 1.71028e-16 0)
(0.0374883 3.77052e-17 0)
(0.0374883 -9.29011e-17 0)
(0.0374883 -3.50685e-17 0)
(0.0374883 -7.81802e-17 0)
(0.0374883 1.64619e-16 0)
(0.0374883 -3.99166e-18 0)
(0.0374883 -6.39852e-17 0)
(0.0374883 1.73761e-17 0)
(0.0374883 -1.03128e-16 0)
(0.0374883 1.64965e-16 0)
(0.0374883 -1.00576e-17 0)
(0.0374883 -9.71398e-17 0)
(0.0374883 6.10244e-17 0)
(0.0374883 -7.4868e-17 0)
(0.0374883 9.90886e-17 0)
(0.0374883 -1.84743e-18 0)
(0.0374883 -2.29681e-17 0)
(0.0374883 2.37921e-17 0)
(0.0374883 -1.25233e-16 0)
(0.0374883 1.47754e-16 0)
(0.0374883 -1.50809e-17 0)
(0.0374883 -3.49415e-17 0)
(0.0374883 7.32168e-17 0)
(0.0374883 -1.36793e-16 0)
(0.0374883 1.09648e-17 0)
(0.0374883 4.7445e-17 0)
(0.0374883 5.19889e-17 0)
(0.0374883 1.36438e-17 0)
(0.0374883 -1.27454e-16 0)
(0.0374883 8.02803e-17 0)
(0.0374883 -9.39355e-18 0)
(0.0374883 -2.03682e-17 0)
(0.0374883 4.52175e-17 0)
(0.0374883 -1.09802e-16 0)
(0.0374883 1.0112e-16 0)
(0.0374883 -1.58153e-17 0)
(0.0374883 -1.14795e-17 0)
(0.0374883 6.36433e-17 0)
(0.0374883 -1.24507e-16 0)
(0.0374883 6.59539e-17 0)
(0.0374883 -5.51545e-18 0)
(0.0374883 7.9182e-19 0)
(0.0374883 5.01689e-17 0)
(0.0374883 -1.09814e-16 0)
(0.0374883 8.31641e-17 0)
(0.0374883 3.19782e-17 0)
(0.0374883 -4.99039e-17 0)
(0.0374883 7.19552e-18 0)
(0.0374883 -7.88724e-17 0)
(0.0374883 7.46808e-17 0)
(0.0374883 3.57643e-17 0)
(0.0374883 -8.24505e-17 0)
(0.0374883 4.99108e-17 0)
(0.0374883 -3.79468e-17 0)
(0.0374883 3.24719e-17 0)
(0.0374883 3.25661e-17 0)
(0.0374883 -8.76734e-17 0)
(0.0374883 6.33562e-17 0)
(0.0374883 -4.04484e-17 0)
(0.0374883 1.89541e-17 0)
(0.0374883 3.97053e-17 0)
(0.0374883 -9.10862e-17 0)
(0.0374883 6.44105e-17 0)
(0.0374883 -2.71544e-17 0)
(0.0374883 -1.76397e-17 0)
(0.0374883 9.31601e-17 0)
(0.0374883 -5.02418e-17 0)
(0.0374883 -9.49299e-18 0)
(0.0374883 -5.98544e-17 0)
(0.0374883 3.47287e-17 0)
(0.0374883 1.2207e-16 0)
(0.0374883 -9.77942e-18 0)
(0.0374883 -1.18549e-16 0)
(0.0374883 -2.17103e-17 0)
(0.0374883 6.44178e-17 0)
(0.0374883 1.14405e-17 0)
(0.0374883 7.07263e-17 0)
(0.0374883 -1.28508e-16 0)
(0.0374883 -1.71791e-17 0)
(0.0374883 6.52732e-17 0)
(0.0374883 7.4277e-18 0)
(0.0374883 5.04359e-17 0)
(0.0374883 -9.26463e-17 0)
(0.0374883 3.10069e-17 0)
(0.0374883 3.16188e-17 0)
(0.0374883 -4.93396e-17 0)
(0.0374883 9.12456e-17 0)
(0.0374883 -6.27221e-17 0)
(0.0374883 -1.37097e-18 0)
(0.0374883 2.61206e-17 0)
(0.0374883 -6.30452e-17 0)
(0.0374883 1.03368e-16 0)
(0.0374883 -2.96218e-17 0)
(0.0374883 -5.38872e-17 0)
(0.0374883 6.69811e-17 0)
(0.0374883 9.44813e-18 0)
(0.0374883 1.21992e-16 0)
(0.0374883 8.59332e-17 0)
(0.0374883 1.98572e-16 0)
(0.11059 3.21206e-15 0)
(0.11059 7.07428e-16 0)
(0.11059 2.23929e-16 0)
(0.11059 1.0569e-16 0)
(0.11059 7.00557e-17 0)
(0.11059 4.14449e-17 0)
(0.11059 2.5079e-17 0)
(0.11059 2.99716e-17 0)
(0.11059 2.92482e-17 0)
(0.11059 1.09779e-17 0)
(0.11059 1.84741e-17 0)
(0.11059 2.32472e-17 0)
(0.11059 5.63753e-17 0)
(0.11059 2.76047e-17 0)
(0.11059 -2.0478e-17 0)
(0.11059 2.06109e-17 0)
(0.11059 3.34926e-17 0)
(0.11059 2.28625e-17 0)
(0.11059 4.58635e-18 0)
(0.11059 9.53922e-18 0)
(0.11059 3.70816e-17 0)
(0.11059 1.79172e-17 0)
(0.11059 -8.16269e-18 0)
(0.11059 -3.26915e-17 0)
(0.11059 -4.06778e-17 0)
(0.11059 -2.71575e-17 0)
(0.11059 2.54902e-17 0)
(0.11059 -3.24428e-17 0)
(0.11059 -5.9713e-17 0)
(0.11059 -3.76093e-17 0)
(0.11059 2.16781e-17 0)
(0.11059 5.4906e-17 0)
(0.11059 4.40325e-18 0)
(0.11059 -2.61207e-17 0)
(0.11059 -2.69829e-18 0)
(0.11059 6.79837e-18 0)
(0.11059 4.28931e-17 0)
(0.11059 -2.10475e-17 0)
(0.11059 -4.69117e-17 0)
(0.11059 2.55526e-17 0)
(0.11059 -2.10878e-17 0)
(0.11059 1.89559e-18 0)
(0.11059 1.6924e-17 0)
(0.11059 -3.0891e-17 0)
(0.11059 2.36349e-17 0)
(0.11059 -1.21391e-17 0)
(0.11059 -6.82423e-18 0)
(0.11059 -9.1088e-18 0)
(0.11059 -3.14315e-17 0)
(0.11059 -3.19148e-17 0)
(0.11059 -4.63326e-17 0)
(0.11059 2.88181e-17 0)
(0.11059 -1.87433e-17 0)
(0.11059 -1.79394e-17 0)
(0.11059 2.19063e-17 0)
(0.11059 -5.77899e-17 0)
(0.11059 -3.90586e-18 0)
(0.11059 3.21861e-18 0)
(0.11059 -7.52696e-18 0)
(0.11059 1.65102e-17 0)
(0.11059 -7.76991e-17 0)
(0.11059 4.41133e-17 0)
(0.11059 2.04346e-18 0)
(0.11059 6.88791e-18 0)
(0.11059 8.06941e-17 0)
(0.11059 -2.47923e-17 0)
(0.11059 3.92229e-17 0)
(0.11059 2.38325e-17 0)
(0.11059 9.17381e-18 0)
(0.11059 4.10773e-17 0)
(0.11059 -2.66406e-17 0)
(0.11059 -6.41105e-18 0)
(0.11059 -2.08958e-17 0)
(0.11059 -2.62829e-17 0)
(0.11059 8.35789e-17 0)
(0.11059 -5.44822e-17 0)
(0.11059 -8.12773e-17 0)
(0.11059 3.21111e-17 0)
(0.11059 -2.76246e-17 0)
(0.11059 3.1234e-17 0)
(0.11059 -3.51638e-17 0)
(0.11059 -1.09136e-16 0)
(0.11059 1.15834e-17 0)
(0.11059 6.72555e-17 0)
(0.11059 6.19474e-17 0)
(0.11059 3.50163e-18 0)
(0.11059 -3.27758e-17 0)
(0.11059 -9.41537e-18 0)
(0.11059 6.93724e-17 0)
(0.11059 1.17538e-16 0)
(0.11059 -4.51799e-17 0)
(0.11059 -9.68843e-17 0)
(0.11059 2.8648e-17 0)
(0.11059 8.30831e-17 0)
(0.11059 1.37944e-17 0)
(0.11059 -7.49031e-17 0)
(0.11059 1.58942e-17 0)
(0.11059 -1.50363e-18 0)
(0.11059 5.46225e-17 0)
(0.11059 3.48221e-17 0)
(0.11059 -1.0718e-16 0)
(0.11059 1.52583e-17 0)
(0.11059 -5.59285e-17 0)
(0.11059 1.65043e-17 0)
(0.11059 5.02253e-17 0)
(0.11059 -3.15845e-18 0)
(0.11059 -6.78855e-17 0)
(0.11059 1.70553e-18 0)
(0.11059 1.12231e-16 0)
(0.11059 5.86026e-17 0)
(0.11059 2.80576e-17 0)
(0.11059 -1.92085e-16 0)
(0.11059 3.54242e-17 0)
(0.11059 1.74141e-16 0)
(0.11059 2.61963e-17 0)
(0.11059 -3.75116e-17 0)
(0.11059 -1.41611e-16 0)
(0.11059 -1.5044e-18 0)
(0.11059 1.46912e-16 0)
(0.11059 2.94879e-17 0)
(0.11059 -9.23112e-17 0)
(0.11059 -1.50424e-16 0)
(0.11059 -6.28009e-18 0)
(0.11059 1.94438e-16 0)
(0.11059 8.35918e-17 0)
(0.11059 -8.5379e-17 0)
(0.11059 -1.52463e-16 0)
(0.11059 3.59351e-17 0)
(0.11059 1.76025e-16 0)
(0.11059 1.62456e-17 0)
(0.11059 -6.23874e-17 0)
(0.11059 -1.03056e-16 0)
(0.11059 4.18594e-17 0)
(0.11059 1.09795e-16 0)
(0.11059 -3.54794e-17 0)
(0.11059 -3.80829e-17 0)
(0.11059 -1.342e-16 0)
(0.11059 -5.04619e-17 0)
(0.11059 1.14122e-16 0)
(0.11059 9.14085e-18 0)
(0.11059 -2.6836e-17 0)
(0.11059 -1.01761e-16 0)
(0.11059 7.14601e-18 0)
(0.11059 7.50796e-17 0)
(0.11059 1.14107e-17 0)
(0.11059 -2.26868e-17 0)
(0.11059 -1.07255e-16 0)
(0.11059 3.51754e-17 0)
(0.11059 1.37295e-17 0)
(0.11059 2.07376e-17 0)
(0.11059 9.01412e-17 0)
(0.11059 -1.55741e-16 0)
(0.11059 -1.08937e-16 0)
(0.11059 7.7827e-17 0)
(0.11059 7.5857e-17 0)
(0.11059 7.39234e-17 0)
(0.11059 -5.30082e-17 0)
(0.11059 -7.30815e-17 0)
(0.11059 7.25893e-17 0)
(0.11059 6.89573e-17 0)
(0.11059 1.09086e-16 0)
(0.11059 -1.12066e-16 0)
(0.11059 1.0484e-17 0)
(0.11059 1.53015e-16 0)
(0.11059 -1.51174e-16 0)
(0.11059 7.5109e-17 0)
(0.11059 2.84172e-17 0)
(0.11059 -8.01933e-17 0)
(0.11059 1.55384e-16 0)
(0.11059 7.53214e-17 0)
(0.11059 1.59545e-18 0)
(0.11059 -1.01495e-16 0)
(0.11059 3.66755e-17 0)
(0.11059 7.75181e-17 0)
(0.11059 -6.16815e-17 0)
(0.11059 -7.18946e-17 0)
(0.11059 -6.68856e-17 0)
(0.11059 1.78817e-16 0)
(0.11059 -6.78538e-17 0)
(0.11059 -6.66823e-17 0)
(0.11059 1.16398e-16 0)
(0.11059 -2.00786e-16 0)
(0.11059 -1.25925e-17 0)
(0.11059 7.88951e-17 0)
(0.11059 -3.94615e-17 0)
(0.11059 1.39259e-16 0)
(0.11059 -1.25464e-16 0)
(0.11059 -1.5567e-17 0)
(0.11059 1.32588e-16 0)
(0.11059 -1.24378e-16 0)
(0.11059 5.51279e-17 0)
(0.11059 -1.20832e-17 0)
(0.11059 -9.11201e-17 0)
(0.11059 1.47618e-16 0)
(0.11059 2.69621e-18 0)
(0.11059 1.89183e-17 0)
(0.11059 -9.01164e-17 0)
(0.11059 -2.3591e-17 0)
(0.11059 2.09616e-16 0)
(0.11059 -1.23499e-16 0)
(0.11059 -5.30765e-18 0)
(0.11059 -9.24008e-17 0)
(0.11059 1.85987e-17 0)
(0.11059 2.20041e-16 0)
(0.11059 -7.71212e-17 0)
(0.11059 -1.65689e-16 0)
(0.11059 -1.17102e-16 0)
(0.11059 1.16562e-16 0)
(0.11059 1.376e-16 0)
(0.11059 -4.38237e-17 0)
(0.11059 -1.17835e-16 0)
(0.11059 -1.11939e-16 0)
(0.11059 3.17015e-16 0)
(0.11059 1.08009e-17 0)
(0.11059 -3.0026e-16 0)
(0.11059 2.51203e-16 0)
(0.11059 2.27429e-17 0)
(0.11059 -8.32663e-17 0)
(0.11059 -7.11928e-17 0)
(0.11059 -1.70269e-16 0)
(0.11059 3.45422e-16 0)
(0.11059 7.13931e-17 0)
(0.11059 -1.38444e-16 0)
(0.11059 -7.30231e-17 0)
(0.11059 -1.82793e-16 0)
(0.11059 3.28423e-16 0)
(0.11059 7.59753e-18 0)
(0.11059 -1.20265e-16 0)
(0.11059 1.01589e-16 0)
(0.11059 -1.01568e-16 0)
(0.11059 1.51721e-16 0)
(0.11059 -5.29211e-17 0)
(0.11059 2.05815e-18 0)
(0.11059 9.30465e-17 0)
(0.11059 -2.29826e-16 0)
(0.11059 8.98813e-17 0)
(0.11059 7.93973e-17 0)
(0.11059 8.47842e-17 0)
(0.11059 1.21623e-16 0)
(0.11059 -2.10079e-16 0)
(0.11059 1.00122e-16 0)
(0.11059 -6.38655e-17 0)
(0.11059 4.77938e-17 0)
(0.11059 1.40098e-16 0)
(0.11059 -3.30893e-16 0)
(0.11059 2.24315e-17 0)
(0.11059 9.25738e-17 0)
(0.11059 1.2606e-16 0)
(0.11059 2.968e-17 0)
(0.11059 -2.70705e-16 0)
(0.11059 2.00973e-16 0)
(0.11059 -2.45348e-17 0)
(0.11059 -1.53883e-16 0)
(0.11059 -2.29473e-17 0)
(0.11059 -1.84655e-16 0)
(0.11059 2.99083e-16 0)
(0.11059 -1.24932e-17 0)
(0.11059 -5.23742e-17 0)
(0.11059 1.07102e-16 0)
(0.11059 -2.51264e-16 0)
(0.11059 1.16924e-16 0)
(0.11059 5.42946e-17 0)
(0.11059 -3.85997e-17 0)
(0.11059 1.58473e-17 0)
(0.11059 -1.35085e-16 0)
(0.11059 2.30813e-16 0)
(0.11059 4.64259e-17 0)
(0.11059 -3.35985e-17 0)
(0.11059 -6.48149e-17 0)
(0.11059 -1.93486e-16 0)
(0.11059 1.64566e-16 0)
(0.11059 2.20216e-17 0)
(0.11059 5.78773e-17 0)
(0.11059 -5.40061e-17 0)
(0.11059 -2.05312e-16 0)
(0.11059 1.54896e-16 0)
(0.11059 -1.08469e-17 0)
(0.11059 -5.3677e-17 0)
(0.11059 9.39412e-17 0)
(0.11059 -1.59123e-16 0)
(0.11059 6.42531e-17 0)
(0.11059 6.09555e-17 0)
(0.11059 -2.03351e-18 0)
(0.11059 -1.21315e-18 0)
(0.11059 -1.62427e-16 0)
(0.11059 1.06799e-16 0)
(0.11059 1.42868e-16 0)
(0.11059 5.64157e-17 0)
(0.11059 -1.61093e-16 0)
(0.11059 -1.30621e-16 0)
(0.11059 2.12937e-16 0)
(0.11059 -3.96855e-17 0)
(0.11059 -6.84821e-17 0)
(0.11059 -3.83759e-17 0)
(0.11059 -5.82153e-17 0)
(0.11059 2.32117e-16 0)
(0.11059 -3.02013e-17 0)
(0.11059 -7.3826e-17 0)
(0.11059 -9.93638e-17 0)
(0.11059 -4.59286e-17 0)
(0.11059 2.70978e-16 0)
(0.11059 1.27102e-17 0)
(0.11059 7.81588e-17 0)
(0.11059 -1.03913e-16 0)
(0.11059 -2.1652e-16 0)
(0.11059 1.19002e-16 0)
(0.11059 6.54587e-17 0)
(0.11059 1.07168e-16 0)
(0.11059 -1.42043e-16 0)
(0.11059 -2.04725e-18 0)
(0.11059 6.95711e-17 0)
(0.11059 -1.21578e-16 0)
(0.11059 1.48855e-16 0)
(0.11059 -2.68709e-17 0)
(0.11059 -1.02618e-16 0)
(0.11059 1.34378e-16 0)
(0.11059 -4.21152e-17 0)
(0.11059 2.10811e-16 0)
(0.11059 2.39068e-16 0)
(0.11059 5.77669e-16 0)
(0.181818 1.77479e-15 0)
(0.181818 7.51943e-16 0)
(0.181818 3.11341e-16 0)
(0.181818 1.77954e-16 0)
(0.181818 1.04266e-16 0)
(0.181818 9.17087e-17 0)
(0.181818 5.67205e-17 0)
(0.181818 4.90072e-17 0)
(0.181818 6.25265e-17 0)
(0.181818 3.33014e-17 0)
(0.181818 2.77084e-17 0)
(0.181818 5.28868e-17 0)
(0.181818 1.15683e-16 0)
(0.181818 4.86993e-17 0)
(0.181818 -7.284e-18 0)
(0.181818 3.60211e-17 0)
(0.181818 8.13386e-17 0)
(0.181818 5.44519e-17 0)
(0.181818 3.68081e-17 0)
(0.181818 3.85333e-17 0)
(0.181818 6.82117e-17 0)
(0.181818 4.77675e-18 0)
(0.181818 -3.59855e-17 0)
(0.181818 -4.75178e-17 0)
(0.181818 -6.96349e-17 0)
(0.181818 -6.17982e-17 0)
(0.181818 -6.8647e-18 0)
(0.181818 -8.6072e-17 0)
(0.181818 -1.11951e-16 0)
(0.181818 -9.46521e-17 0)
(0.181818 3.91713e-17 0)
(0.181818 9.65438e-17 0)
(0.181818 2.39815e-17 0)
(0.181818 -3.75078e-17 0)
(0.181818 -1.42166e-17 0)
(0.181818 -1.35756e-18 0)
(0.181818 7.71708e-17 0)
(0.181818 -9.41911e-18 0)
(0.181818 -8.55299e-17 0)
(0.181818 -6.597e-18 0)
(0.181818 -2.27492e-17 0)
(0.181818 5.23104e-18 0)
(0.181818 2.51758e-17 0)
(0.181818 -4.74685e-17 0)
(0.181818 -1.93302e-17 0)
(0.181818 1.57254e-17 0)
(0.181818 -1.68444e-17 0)
(0.181818 -3.20131e-17 0)
(0.181818 -6.42232e-17 0)
(0.181818 -8.31449e-17 0)
(0.181818 -6.72408e-17 0)
(0.181818 -1.7541e-17 0)
(0.181818 -4.83604e-17 0)
(0.181818 -3.86419e-17 0)
(0.181818 4.99535e-18 0)
(0.181818 -9.58586e-17 0)
(0.181818 -2.63202e-17 0)
(0.181818 -1.15352e-17 0)
(0.181818 -5.81453e-18 0)
(0.181818 1.79493e-17 0)
(0.181818 -1.46583e-16 0)
(0.181818 8.17069e-17 0)
(0.181818 -1.00158e-17 0)
(0.181818 1.73451e-17 0)
(0.181818 1.76948e-16 0)
(0.181818 -2.69769e-17 0)
(0.181818 8.47066e-17 0)
(0.181818 4.82271e-17 0)
(0.181818 5.10676e-17 0)
(0.181818 6.36626e-17 0)
(0.181818 -4.15039e-17 0)
(0.181818 6.83957e-18 0)
(0.181818 -4.20999e-17 0)
(0.181818 1.57498e-17 0)
(0.181818 8.88303e-17 0)
(0.181818 -1.17056e-16 0)
(0.181818 -1.2284e-16 0)
(0.181818 3.47245e-18 0)
(0.181818 -6.16144e-17 0)
(0.181818 1.29517e-17 0)
(0.181818 -1.02369e-16 0)
(0.181818 -1.61284e-16 0)
(0.181818 4.05645e-17 0)
(0.181818 1.11796e-16 0)
(0.181818 9.64569e-17 0)
(0.181818 3.3271e-17 0)
(0.181818 5.14873e-17 0)
(0.181818 1.38787e-17 0)
(0.181818 3.02509e-17 0)
(0.181818 1.88414e-16 0)
(0.181818 -3.11412e-17 0)
(0.181818 -9.07367e-17 0)
(0.181818 4.78224e-17 0)
(0.181818 6.68268e-17 0)
(0.181818 4.16453e-17 0)
(0.181818 -4.90745e-17 0)
(0.181818 2.63515e-17 0)
(0.181818 4.06674e-18 0)
(0.181818 2.61555e-18 0)
(0.181818 1.52824e-17 0)
(0.181818 -6.09546e-17 0)
(0.181818 -4.8618e-17 0)
(0.181818 -7.70519e-17 0)
(0.181818 4.44515e-18 0)
(0.181818 6.66309e-17 0)
(0.181818 6.63824e-17 0)
(0.181818 -9.46591e-17 0)
(0.181818 -7.49254e-17 0)
(0.181818 2.04293e-16 0)
(0.181818 2.06592e-16 0)
(0.181818 1.48255e-17 0)
(0.181818 -2.87056e-16 0)
(0.181818 5.02924e-17 0)
(0.181818 2.71637e-16 0)
(0.181818 1.29432e-16 0)
(0.181818 -2.80477e-17 0)
(0.181818 -2.76951e-16 0)
(0.181818 -7.37642e-17 0)
(0.181818 3.00683e-16 0)
(0.181818 1.13829e-16 0)
(0.181818 -2.43674e-16 0)
(0.181818 -3.16991e-16 0)
(0.181818 -1.97446e-17 0)
(0.181818 3.74584e-16 0)
(0.181818 2.40801e-16 0)
(0.181818 -1.60162e-16 0)
(0.181818 -3.5818e-16 0)
(0.181818 1.00794e-16 0)
(0.181818 3.29388e-16 0)
(0.181818 5.45297e-17 0)
(0.181818 -8.96558e-17 0)
(0.181818 -2.26528e-16 0)
(0.181818 4.92671e-17 0)
(0.181818 2.20923e-16 0)
(0.181818 -5.43102e-17 0)
(0.181818 -1.77337e-16 0)
(0.181818 -2.35011e-16 0)
(0.181818 -5.82065e-17 0)
(0.181818 1.94345e-16 0)
(0.181818 1.29321e-17 0)
(0.181818 -1.35073e-16 0)
(0.181818 -1.69039e-16 0)
(0.181818 7.11502e-17 0)
(0.181818 1.02316e-16 0)
(0.181818 -5.36345e-17 0)
(0.181818 -8.24029e-17 0)
(0.181818 -1.11116e-16 0)
(0.181818 1.01066e-16 0)
(0.181818 1.96628e-17 0)
(0.181818 -8.35458e-17 0)
(0.181818 1.22515e-16 0)
(0.181818 -1.24723e-16 0)
(0.181818 -1.62787e-16 0)
(0.181818 3.66193e-17 0)
(0.181818 1.08248e-16 0)
(0.181818 1.53507e-16 0)
(0.181818 -3.53745e-17 0)
(0.181818 -1.27021e-16 0)
(0.181818 9.23366e-17 0)
(0.181818 1.80226e-16 0)
(0.181818 1.87146e-16 0)
(0.181818 -1.52407e-16 0)
(0.181818 -1.21163e-17 0)
(0.181818 2.40482e-16 0)
(0.181818 -6.48933e-17 0)
(0.181818 5.7661e-17 0)
(0.181818 6.83405e-17 0)
(0.181818 5.42003e-17 0)
(0.181818 1.3338e-16 0)
(0.181818 7.85269e-17 0)
(0.181818 2.18511e-17 0)
(0.181818 -9.69124e-17 0)
(0.181818 6.89469e-17 0)
(0.181818 1.50497e-16 0)
(0.181818 9.88611e-18 0)
(0.181818 -1.89924e-16 0)
(0.181818 -1.93198e-16 0)
(0.181818 8.28286e-17 0)
(0.181818 -1.65515e-17 0)
(0.181818 1.10348e-16 0)
(0.181818 3.05556e-17 0)
(0.181818 -3.83482e-16 0)
(0.181818 -3.90763e-17 0)
(0.181818 1.7861e-16 0)
(0.181818 3.41869e-17 0)
(0.181818 1.39014e-16 0)
(0.181818 -1.91019e-16 0)
(0.181818 -6.7394e-17 0)
(0.181818 1.88055e-16 0)
(0.181818 -6.19872e-17 0)
(0.181818 8.71509e-18 0)
(0.181818 -2.74814e-17 0)
(0.181818 -6.29228e-17 0)
(0.181818 1.11205e-16 0)
(0.181818 9.56384e-17 0)
(0.181818 4.89467e-17 0)
(0.181818 -8.38957e-17 0)
(0.181818 -3.49597e-17 0)
(0.181818 1.11903e-16 0)
(0.181818 -4.39341e-17 0)
(0.181818 -4.06392e-17 0)
(0.181818 -7.81624e-17 0)
(0.181818 4.50069e-17 0)
(0.181818 1.31107e-16 0)
(0.181818 -7.4296e-17 0)
(0.181818 -1.3886e-16 0)
(0.181818 -1.56713e-16 0)
(0.181818 3.4262e-17 0)
(0.181818 7.93443e-17 0)
(0.181818 -1.28848e-18 0)
(0.181818 -4.1497e-17 0)
(0.181818 -1.42642e-16 0)
(0.181818 4.01112e-16 0)
(0.181818 2.95642e-17 0)
(0.181818 -3.53445e-16 0)
(0.181818 2.98235e-16 0)
(0.181818 -7.32932e-17 0)
(0.181818 -5.53141e-18 0)
(0.181818 -8.63494e-17 0)
(0.181818 -3.01175e-16 0)
(0.181818 5.09852e-16 0)
(0.181818 6.60602e-17 0)
(0.181818 -1.27025e-16 0)
(0.181818 -6.48047e-17 0)
(0.181818 -3.31656e-16 0)
(0.181818 4.90809e-16 0)
(0.181818 6.21053e-17 0)
(0.181818 -1.6159e-16 0)
(0.181818 7.88984e-17 0)
(0.181818 -1.6321e-16 0)
(0.181818 4.34867e-16 0)
(0.181818 1.52772e-17 0)
(0.181818 -1.29982e-16 0)
(0.181818 1.14407e-16 0)
(0.181818 -3.1526e-16 0)
(0.181818 1.14544e-16 0)
(0.181818 2.89881e-17 0)
(0.181818 3.08733e-16 0)
(0.181818 3.36921e-16 0)
(0.181818 -4.16343e-16 0)
(0.181818 1.11265e-16 0)
(0.181818 -1.45519e-16 0)
(0.181818 1.45115e-16 0)
(0.181818 2.2798e-16 0)
(0.181818 -6.28297e-16 0)
(0.181818 5.72986e-17 0)
(0.181818 1.3972e-16 0)
(0.181818 2.12647e-16 0)
(0.181818 4.58218e-17 0)
(0.181818 -4.46326e-16 0)
(0.181818 4.67553e-16 0)
(0.181818 -5.88204e-17 0)
(0.181818 -4.21209e-16 0)
(0.181818 -2.43692e-16 0)
(0.181818 -2.35729e-16 0)
(0.181818 6.94699e-16 0)
(0.181818 -3.42889e-17 0)
(0.181818 -1.68281e-16 0)
(0.181818 1.25097e-16 0)
(0.181818 -3.73749e-16 0)
(0.181818 2.46732e-16 0)
(0.181818 4.20732e-17 0)
(0.181818 6.36042e-19 0)
(0.181818 4.33351e-18 0)
(0.181818 -2.60071e-16 0)
(0.181818 4.80708e-16 0)
(0.181818 2.43464e-17 0)
(0.181818 -1.04503e-16 0)
(0.181818 -1.42994e-17 0)
(0.181818 -3.50212e-16 0)
(0.181818 2.6022e-16 0)
(0.181818 5.19877e-17 0)
(0.181818 3.42731e-18 0)
(0.181818 -2.5444e-18 0)
(0.181818 -3.72583e-16 0)
(0.181818 2.4665e-16 0)
(0.181818 -1.64461e-17 0)
(0.181818 -1.89003e-17 0)
(0.181818 1.16667e-16 0)
(0.181818 -3.82532e-16 0)
(0.181818 1.60743e-16 0)
(0.181818 2.94628e-17 0)
(0.181818 4.95619e-18 0)
(0.181818 1.26356e-16 0)
(0.181818 -3.14313e-16 0)
(0.181818 2.42935e-16 0)
(0.181818 2.50079e-16 0)
(0.181818 -1.10633e-16 0)
(0.181818 -1.59495e-16 0)
(0.181818 -2.26238e-16 0)
(0.181818 2.77164e-16 0)
(0.181818 7.07741e-17 0)
(0.181818 -2.06112e-16 0)
(0.181818 3.35371e-17 0)
(0.181818 -1.04271e-16 0)
(0.181818 1.24666e-16 0)
(0.181818 2.17881e-16 0)
(0.181818 -1.65589e-16 0)
(0.181818 -1.08674e-16 0)
(0.181818 -1.41801e-16 0)
(0.181818 2.65008e-16 0)
(0.181818 4.02513e-16 0)
(0.181818 6.23968e-17 0)
(0.181818 -3.57776e-16 0)
(0.181818 -1.69987e-16 0)
(0.181818 2.66129e-16 0)
(0.181818 5.9235e-17 0)
(0.181818 4.65592e-17 0)
(0.181818 -2.62909e-16 0)
(0.181818 2.83241e-17 0)
(0.181818 1.25961e-16 0)
(0.181818 -1.98163e-16 0)
(0.181818 1.66768e-16 0)
(0.181818 -6.25947e-18 0)
(0.181818 -1.21477e-16 0)
(0.181818 6.79375e-17 0)
(0.181818 -3.32863e-17 0)
(0.181818 4.41818e-16 0)
(0.181818 2.87873e-16 0)
(0.181818 5.27496e-16 0)
(0.251172 1.22649e-15 0)
(0.251172 6.24776e-16 0)
(0.251172 3.60714e-16 0)
(0.251172 2.18009e-16 0)
(0.251172 1.34471e-16 0)
(0.251172 1.25118e-16 0)
(0.251172 9.58787e-17 0)
(0.251172 6.23313e-17 0)
(0.251172 1.08772e-16 0)
(0.251172 6.32447e-17 0)
(0.251172 4.54484e-17 0)
(0.251172 8.65974e-17 0)
(0.251172 1.67456e-16 0)
(0.251172 8.80879e-17 0)
(0.251172 1.29754e-17 0)
(0.251172 8.02574e-17 0)
(0.251172 1.21919e-16 0)
(0.251172 1.0124e-16 0)
(0.251172 6.93381e-17 0)
(0.251172 6.38538e-17 0)
(0.251172 8.48198e-17 0)
(0.251172 1.74692e-17 0)
(0.251172 -3.73329e-17 0)
(0.251172 -1.01614e-16 0)
(0.251172 -1.26486e-16 0)
(0.251172 -9.32473e-17 0)
(0.251172 -5.30784e-17 0)
(0.251172 -1.30669e-16 0)
(0.251172 -1.92012e-16 0)
(0.251172 -1.34673e-16 0)
(0.251172 3.92696e-17 0)
(0.251172 1.13519e-16 0)
(0.251172 3.30201e-17 0)
(0.251172 -3.57637e-17 0)
(0.251172 -3.62627e-17 0)
(0.251172 -7.50966e-18 0)
(0.251172 8.6034e-17 0)
(0.251172 -3.4835e-18 0)
(0.251172 -1.03325e-16 0)
(0.251172 -2.79594e-17 0)
(0.251172 -2.89847e-17 0)
(0.251172 3.08121e-18 0)
(0.251172 9.72758e-19 0)
(0.251172 -6.27295e-17 0)
(0.251172 -1.79589e-17 0)
(0.251172 1.73562e-17 0)
(0.251172 -1.70482e-17 0)
(0.251172 -6.90412e-17 0)
(0.251172 -1.45476e-16 0)
(0.251172 -1.54423e-16 0)
(0.251172 -1.4415e-16 0)
(0.251172 -5.29486e-17 0)
(0.251172 -5.25468e-17 0)
(0.251172 -7.47518e-17 0)
(0.251172 -2.03215e-17 0)
(0.251172 -1.32817e-16 0)
(0.251172 -7.54849e-17 0)
(0.251172 -3.79957e-17 0)
(0.251172 -3.97222e-17 0)
(0.251172 3.89552e-17 0)
(0.251172 -1.51131e-16 0)
(0.251172 3.61081e-17 0)
(0.251172 1.69436e-17 0)
(0.251172 6.17429e-17 0)
(0.251172 1.85416e-16 0)
(0.251172 6.2654e-18 0)
(0.251172 1.55879e-16 0)
(0.251172 8.9136e-17 0)
(0.251172 9.3064e-17 0)
(0.251172 1.22314e-16 0)
(0.251172 -5.31535e-17 0)
(0.251172 -1.16065e-17 0)
(0.251172 -5.27834e-17 0)
(0.251172 1.74073e-17 0)
(0.251172 1.05148e-16 0)
(0.251172 -1.79217e-16 0)
(0.251172 -1.51321e-16 0)
(0.251172 -7.13747e-17 0)
(0.251172 -1.2169e-16 0)
(0.251172 6.38973e-18 0)
(0.251172 -1.6046e-16 0)
(0.251172 -2.32557e-16 0)
(0.251172 3.86733e-17 0)
(0.251172 2.02977e-16 0)
(0.251172 1.81852e-16 0)
(0.251172 1.79559e-17 0)
(0.251172 6.37956e-17 0)
(0.251172 8.1444e-17 0)
(0.251172 1.03106e-16 0)
(0.251172 2.3613e-16 0)
(0.251172 3.87413e-18 0)
(0.251172 -7.65966e-17 0)
(0.251172 3.76607e-17 0)
(0.251172 1.03446e-16 0)
(0.251172 6.3805e-17 0)
(0.251172 -7.58168e-17 0)
(0.251172 3.90704e-17 0)
(0.251172 3.09933e-17 0)
(0.251172 -1.05279e-17 0)
(0.251172 -1.30339e-17 0)
(0.251172 -8.84424e-17 0)
(0.251172 -9.7671e-17 0)
(0.251172 -1.38022e-16 0)
(0.251172 2.9167e-17 0)
(0.251172 1.67072e-16 0)
(0.251172 7.90623e-17 0)
(0.251172 -1.61249e-16 0)
(0.251172 -1.00873e-16 0)
(0.251172 3.24787e-16 0)
(0.251172 3.43912e-16 0)
(0.251172 1.36343e-18 0)
(0.251172 -3.56163e-16 0)
(0.251172 6.20337e-17 0)
(0.251172 3.68172e-16 0)
(0.251172 2.41104e-16 0)
(0.251172 1.78928e-17 0)
(0.251172 -3.93581e-16 0)
(0.251172 -1.44003e-16 0)
(0.251172 3.85162e-16 0)
(0.251172 1.8753e-16 0)
(0.251172 -3.63367e-16 0)
(0.251172 -5.00763e-16 0)
(0.251172 1.73178e-17 0)
(0.251172 5.08138e-16 0)
(0.251172 2.94159e-16 0)
(0.251172 -1.78901e-16 0)
(0.251172 -3.98384e-16 0)
(0.251172 1.15694e-16 0)
(0.251172 4.54978e-16 0)
(0.251172 7.36277e-17 0)
(0.251172 -1.81733e-16 0)
(0.251172 -2.34692e-16 0)
(0.251172 1.23896e-17 0)
(0.251172 2.39102e-16 0)
(0.251172 -2.55984e-17 0)
(0.251172 -2.49296e-16 0)
(0.251172 -3.94455e-16 0)
(0.251172 -1.23284e-16 0)
(0.251172 3.22726e-16 0)
(0.251172 4.87458e-17 0)
(0.251172 -2.39598e-16 0)
(0.251172 -3.45431e-16 0)
(0.251172 7.0332e-17 0)
(0.251172 1.56514e-16 0)
(0.251172 -4.14387e-17 0)
(0.251172 -7.96457e-17 0)
(0.251172 -2.80754e-16 0)
(0.251172 1.23246e-16 0)
(0.251172 7.60394e-17 0)
(0.251172 -6.94418e-17 0)
(0.251172 9.38607e-17 0)
(0.251172 -2.29842e-16 0)
(0.251172 -1.41522e-16 0)
(0.251172 8.00036e-17 0)
(0.251172 1.60126e-16 0)
(0.251172 1.55269e-16 0)
(0.251172 -8.08684e-17 0)
(0.251172 -1.08077e-16 0)
(0.251172 1.97862e-16 0)
(0.251172 2.74908e-16 0)
(0.251172 2.1236e-16 0)
(0.251172 -1.97391e-16 0)
(0.251172 8.72779e-17 0)
(0.251172 3.60983e-16 0)
(0.251172 -8.70295e-17 0)
(0.251172 1.0636e-16 0)
(0.251172 1.37857e-16 0)
(0.251172 1.49728e-16 0)
(0.251172 2.37394e-16 0)
(0.251172 1.08535e-16 0)
(0.251172 3.47392e-17 0)
(0.251172 -1.47961e-16 0)
(0.251172 6.49762e-17 0)
(0.251172 2.77144e-16 0)
(0.251172 -4.24265e-17 0)
(0.251172 -2.60416e-16 0)
(0.251172 -2.03262e-16 0)
(0.251172 -1.28802e-18 0)
(0.251172 -4.21749e-17 0)
(0.251172 1.10126e-16 0)
(0.251172 1.1867e-17 0)
(0.251172 -4.52925e-16 0)
(0.251172 -2.01966e-17 0)
(0.251172 2.2838e-16 0)
(0.251172 5.01592e-17 0)
(0.251172 1.042e-16 0)
(0.251172 -1.96761e-16 0)