/*--------------------------------*- C++ -*----------------------------------*\
| =========                 |                                                 |
| \\      /  F ield         | OpenFOAM: The Open Source CFD Toolbox           |
|  \\    /   O peration     | Version:  2112                                  |
|   \\  /    A nd           | Website:  www.openfoam.com                      |
|    \\/     M anipulation  |                                                 |
\*---------------------------------------------------------------------------*/
FoamFile
{
    version     2.0;
    format      ascii;
    arch        "LSB;label=32;scalar=64";
    class       volVectorField;
    location    "9";
    object      U;
}
// * * * * * * * * * * * * * * * * * * * * * * * * * * * * * * * * * * * * * //

dimensions      [0 1 -1 0 0 0 0];

internalField   nonuniform List<vector> 
50000
(
(0.0300429 -4.32387e-16 0)
(0.0300429 -1.04484e-16 0)
(0.0300429 1.91855e-17 0)
(0.0300429 1.13945e-17 0)
(0.0300429 1.11139e-17 0)
(0.0300429 6.85072e-18 0)
(0.0300429 6.91919e-18 0)
(0.0300429 1.4741e-18 0)
(0.0300429 2.06989e-18 0)
(0.0300429 7.47146e-18 0)
(0.0300429 -1.00332e-18 0)
(0.0300429 -4.56656e-18 0)
(0.0300429 -5.19647e-19 0)
(0.0300429 -1.21321e-18 0)
(0.0300429 4.6339e-18 0)
(0.0300429 -6.16599e-18 0)
(0.0300429 -8.09459e-18 0)
(0.0300429 8.88617e-19 0)
(0.0300429 -5.11057e-19 0)
(0.0300429 -1.08978e-18 0)
(0.0300429 7.63926e-18 0)
(0.0300429 6.52663e-19 0)
(0.0300429 1.48971e-18 0)
(0.0300429 2.72891e-19 0)
(0.0300429 -5.21906e-18 0)
(0.0300429 -3.52668e-18 0)
(0.0300429 -3.74518e-19 0)
(0.0300429 1.22811e-17 0)
(0.0300429 -7.59405e-18 0)
(0.0300429 -2.44286e-19 0)
(0.0300429 6.96534e-18 0)
(0.0300429 -1.34628e-17 0)
(0.0300429 -1.46948e-18 0)
(0.0300429 6.77958e-18 0)
(0.0300429 -7.94932e-18 0)
(0.0300429 2.06874e-18 0)
(0.0300429 -5.45548e-18 0)
(0.0300429 -2.37234e-18 0)
(0.0300429 8.27077e-19 0)
(0.0300429 -8.4413e-18 0)
(0.0300429 6.63253e-18 0)
(0.0300429 -9.62179e-18 0)
(0.0300429 9.26505e-18 0)
(0.0300429 9.06442e-18 0)
(0.0300429 -1.45018e-17 0)
(0.0300429 3.16739e-18 0)
(0.0300429 1.3505e-17 0)
(0.0300429 -1.03468e-17 0)
(0.0300429 -5.27964e-18 0)
(0.0300429 1.03238e-17 0)
(0.0300429 1.34842e-18 0)
(0.0300429 8.22392e-18 0)
(0.0300429 -1.44087e-17 0)
(0.0300429 -1.1683e-17 0)
(0.0300429 1.31187e-17 0)
(0.0300429 -2.25567e-18 0)
(0.0300429 1.65884e-17 0)
(0.0300429 -9.13166e-18 0)
(0.0300429 -1.81181e-17 0)
(0.0300429 8.37651e-18 0)
(0.0300429 1.02474e-17 0)
(0.0300429 -1.12476e-17 0)
(0.0300429 -2.99293e-19 0)
(0.0300429 9.73063e-18 0)
(0.0300429 -2.10053e-17 0)
(0.0300429 1.39907e-18 0)
(0.0300429 6.80107e-18 0)
(0.0300429 8.98815e-18 0)
(0.0300429 5.62513e-18 0)
(0.0300429 -1.1135e-17 0)
(0.0300429 -9.01405e-18 0)
(0.0300429 -3.3164e-18 0)
(0.0300429 2.49618e-17 0)
(0.0300429 -1.11922e-17 0)
(0.0300429 -1.82292e-17 0)
(0.0300429 3.14098e-17 0)
(0.0300429 5.72857e-18 0)
(0.0300429 -2.81179e-17 0)
(0.0300429 -6.99147e-18 0)
(0.0300429 1.41922e-17 0)
(0.0300429 5.62647e-18 0)
(0.0300429 -5.735e-18 0)
(0.0300429 -7.86018e-19 0)
(0.0300429 1.41906e-17 0)
(0.0300429 -2.41721e-17 0)
(0.0300429 1.21677e-17 0)
(0.0300429 1.77673e-17 0)
(0.0300429 -1.97246e-17 0)
(0.0300429 6.93533e-19 0)
(0.0300429 -9.20066e-18 0)
(0.0300429 6.87363e-18 0)
(0.0300429 2.11496e-17 0)
(0.0300429 -7.82178e-18 0)
(0.0300429 1.13825e-19 0)
(0.0300429 1.50322e-17 0)
(0.0300429 -3.97533e-17 0)
(0.0300429 1.10497e-17 0)
(0.0300429 3.31215e-17 0)
(0.0300429 -1.76109e-17 0)
(0.0300429 -8.73599e-18 0)
(0.0300429 1.12662e-17 0)
(0.0300429 2.50834e-17 0)
(0.0300429 -2.21999e-17 0)
(0.0300429 -2.8464e-17 0)
(0.0300429 4.40266e-17 0)
(0.0300429 -1.08205e-17 0)
(0.0300429 -2.53124e-17 0)
(0.0300429 1.42257e-17 0)
(0.0300429 6.97937e-18 0)
(0.0300429 2.52791e-17 0)
(0.0300429 -2.56038e-17 0)
(0.0300429 -2.50331e-17 0)
(0.0300429 1.81991e-17 0)
(0.0300429 6.98137e-18 0)
(0.0300429 2.34764e-17 0)
(0.0300429 -9.63076e-18 0)
(0.0300429 -4.65279e-17 0)
(0.0300429 9.13249e-18 0)
(0.0300429 2.87653e-17 0)
(0.0300429 -4.18007e-18 0)
(0.0300429 -5.89012e-18 0)
(0.0300429 1.51276e-18 0)
(0.0300429 2.54812e-17 0)
(0.0300429 -3.07114e-18 0)
(0.0300429 -4.81578e-17 0)
(0.0300429 2.98303e-17 0)
(0.0300429 2.39879e-17 0)
(0.0300429 -2.74526e-17 0)
(0.0300429 3.03322e-18 0)
(0.0300429 3.21374e-18 0)
(0.0300429 -1.73717e-17 0)
(0.0300429 -3.2754e-18 0)
(0.0300429 3.11523e-17 0)
(0.0300429 -5.37189e-18 0)
(0.0300429 -1.05254e-17 0)
(0.0300429 7.15587e-18 0)
(0.0300429 1.82006e-17 0)
(0.0300429 -2.77353e-17 0)
(0.0300429 1.03664e-17 0)
(0.0300429 2.68518e-17 0)
(0.0300429 -3.59653e-17 0)
(0.0300429 -3.03451e-17 0)
(0.0300429 1.06805e-17 0)
(0.0300429 3.90433e-17 0)
(0.0300429 -1.88766e-17 0)
(0.0300429 -6.82636e-18 0)
(0.0300429 4.9803e-17 0)
(0.0300429 -2.76592e-17 0)
(0.0300429 -3.53538e-17 0)
(0.0300429 3.70834e-17 0)
(0.0300429 -7.5048e-18 0)
(0.0300429 1.10125e-19 0)
(0.0300429 3.52619e-17 0)
(0.0300429 -4.09742e-17 0)
(0.0300429 -8.37425e-19 0)
(0.0300429 2.83846e-17 0)
(0.0300429 -5.58274e-17 0)
(0.0300429 -1.98688e-17 0)
(0.0300429 3.71949e-17 0)
(0.0300429 5.7709e-17 0)
(0.0300429 -3.24672e-17 0)
(0.0300429 -8.92198e-18 0)
(0.0300429 -1.48228e-18 0)
(0.0300429 -1.58632e-18 0)
(0.0300429 -6.28196e-18 0)
(0.0300429 -3.64284e-18 0)
(0.0300429 9.73296e-18 0)
(0.0300429 -5.86173e-17 0)
(0.0300429 7.80727e-17 0)
(0.0300429 1.5447e-17 0)
(0.0300429 -7.90071e-17 0)
(0.0300429 6.48983e-17 0)
(0.0300429 3.27808e-17 0)
(0.0300429 -7.06728e-17 0)
(0.0300429 1.25278e-17 0)
(0.0300429 1.78446e-18 0)
(0.0300429 1.25705e-17 0)
(0.0300429 -5.30093e-18 0)
(0.0300429 -1.07522e-17 0)
(0.0300429 4.04811e-17 0)
(0.0300429 -4.24048e-17 0)
(0.0300429 -8.98806e-18 0)
(0.0300429 2.74866e-17 0)
(0.0300429 -3.02562e-17 0)
(0.0300429 4.71312e-17 0)
(0.0300429 -2.73819e-18 0)
(0.0300429 -5.68282e-17 0)
(0.0300429 3.66375e-17 0)
(0.0300429 1.49474e-18 0)
(0.0300429 -2.20245e-17 0)
(0.0300429 -8.4276e-18 0)
(0.0300429 -3.02975e-18 0)
(0.0300429 -3.85661e-17 0)
(0.0300429 4.05212e-17 0)
(0.0300429 4.30513e-17 0)
(0.0300429 -2.68668e-17 0)
(0.0300429 1.12092e-17 0)
(0.0300429 3.78814e-17 0)
(0.0300429 -5.81042e-17 0)
(0.0300429 -3.93416e-17 0)
(0.0300429 4.64015e-17 0)
(0.0300429 -2.60015e-17 0)
(0.0300429 1.33741e-17 0)
(0.0300429 -1.02804e-18 0)
(0.0300429 4.69681e-17 0)
(0.0300429 -2.13676e-17 0)
(0.0300429 -6.16727e-17 0)
(0.0300429 2.53694e-17 0)
(0.0300429 6.32235e-18 0)
(0.0300429 5.38339e-18 0)
(0.0300429 4.46227e-17 0)
(0.0300429 -3.71683e-17 0)
(0.0300429 -5.56972e-17 0)
(0.0300429 9.2133e-17 0)
(0.0300429 -5.35118e-17 0)
(0.0300429 -3.58663e-17 0)
(0.0300429 3.71867e-17 0)
(0.0300429 -8.38206e-18 0)
(0.0300429 1.32013e-17 0)
(0.0300429 5.06018e-17 0)
(0.0300429 -1.70076e-18 0)
(0.0300429 -4.72249e-17 0)
(0.0300429 -2.94933e-17 0)
(0.0300429 -3.9631e-18 0)
(0.0300429 4.48036e-17 0)
(0.0300429 -4.86306e-17 0)
(0.0300429 3.82224e-17 0)
(0.0300429 4.26203e-17 0)
(0.0300429 -3.07768e-17 0)
(0.0300429 3.75905e-17 0)
(0.0300429 6.88945e-18 0)
(0.0300429 -8.9856e-17 0)
(0.0300429 3.68215e-17 0)
(0.0300429 9.20335e-18 0)
(0.0300429 -5.40158e-17 0)
(0.0300429 4.61303e-17 0)
(0.0300429 3.10052e-18 0)
(0.0300429 4.24373e-17 0)
(0.0300429 -4.36669e-17 0)
(0.0300429 -1.47886e-18 0)
(0.0300429 4.47145e-18 0)
(0.0300429 -4.9572e-17 0)
(0.0300429 3.60323e-17 0)
(0.0300429 6.58779e-17 0)
(0.0300429 -4.82419e-17 0)
(0.0300429 -3.67221e-18 0)
(0.0300429 5.16505e-17 0)
(0.0300429 -5.71796e-17 0)
(0.0300429 5.52361e-18 0)
(0.0300429 -3.25292e-17 0)
(0.0300429 -1.13397e-17 0)
(0.0300429 -7.14011e-18 0)
(0.0300429 9.53116e-17 0)
(0.0300429 -4.20082e-18 0)
(0.0300429 -4.8321e-17 0)
(0.0300429 4.80247e-17 0)
(0.0300429 -4.1623e-17 0)
(0.0300429 -4.71275e-17 0)
(0.0300429 4.78042e-17 0)
(0.0300429 -2.25764e-17 0)
(0.0300429 5.99892e-18 0)
(0.0300429 7.10134e-17 0)
(0.0300429 -1.01459e-16 0)
(0.0300429 5.35004e-17 0)
(0.0300429 -2.20217e-17 0)
(0.0300429 -2.59581e-17 0)
(0.0300429 4.54487e-17 0)
(0.0300429 -5.7499e-17 0)
(0.0300429 2.11297e-17 0)
(0.0300429 1.38099e-16 0)
(0.0300429 -1.07599e-16 0)
(0.0300429 -5.70248e-17 0)
(0.0300429 6.20241e-17 0)
(0.0300429 -6.4591e-17 0)
(0.0300429 8.6275e-17 0)
(0.0300429 -8.211e-17 0)
(0.0300429 -6.66183e-18 0)
(0.0300429 8.33777e-17 0)
(0.0300429 8.64335e-18 0)
(0.0300429 -4.12942e-17 0)
(0.0300429 -1.76421e-18 0)
(0.0300429 -1.56238e-17 0)
(0.0300429 9.75072e-18 0)
(0.0300429 2.90534e-17 0)
(0.0300429 -8.04987e-17 0)
(0.0300429 1.1095e-16 0)
(0.0300429 -2.59453e-17 0)
(0.0300429 -8.36511e-17 0)
(0.0300429 7.17273e-17 0)
(0.0300429 4.89774e-17 0)
(0.0300429 -8.69541e-17 0)
(0.0300429 -2.75212e-17 0)
(0.0300429 5.95239e-17 0)
(0.0300429 -2.39229e-17 0)
(0.0300429 8.08736e-17 0)
(0.0300429 4.65992e-17 0)
(0.0300429 -1.62529e-16 0)
(0.0300429 1.92099e-17 0)
(0.0300429 3.67327e-17 0)
(0.0300429 -7.15893e-17 0)
(0.0300429 7.1656e-17 0)
(0.0300429 -4.3596e-17 0)
(0.0300429 1.85676e-17 0)
(0.0300429 1.30362e-16 0)
(0.0300429 -9.8157e-17 0)
(0.0300429 -8.13278e-17 0)
(0.0300429 1.12738e-16 0)
(0.0300429 -5.09724e-17 0)
(0.0300429 -6.53835e-17 0)
(0.0300429 6.8974e-17 0)
(0.0300429 5.86453e-17 0)
(0.0300429 -6.64452e-17 0)
(0.0300429 1.28153e-17 0)
(0.0300429 1.04995e-17 0)
(0.0300429 -6.03964e-17 0)
(0.0300429 8.40569e-17 0)
(0.0300429 -9.09943e-17 0)
(0.0300429 5.54524e-19 0)
(0.0300429 7.83672e-17 0)
(0.0300429 1.42165e-17 0)
(0.0300429 1.45011e-17 0)
(0.0300429 -8.38021e-18 0)
(0.0300429 -9.14944e-17 0)
(0.0300429 -4.14388e-17 0)
(0.0300429 1.39706e-16 0)
(0.0300429 -9.87833e-17 0)
(0.0300429 -4.60008e-18 0)
(0.0300429 3.59624e-17 0)
(0.0300429 5.48721e-17 0)
(0.0300429 6.20874e-17 0)
(0.0300429 -1.6418e-16 0)
(0.0300429 4.71037e-19 0)
(0.0300429 1.05088e-16 0)
(0.0300429 -1.11706e-16 0)
(0.0300429 9.87246e-18 0)
(0.0300429 1.56585e-16 0)
(0.0300429 -1.57692e-16 0)
(0.0300429 6.31613e-17 0)
(0.0300429 9.81661e-17 0)
(0.0300429 -1.55831e-16 0)
(0.0300429 1.20159e-17 0)
(0.0300429 6.93283e-17 0)
(0.0300429 -8.66328e-17 0)
(0.0300429 5.78469e-18 0)
(0.0300429 1.32424e-16 0)
(0.0300429 -3.84359e-17 0)
(0.0300429 -3.79552e-17 0)
(0.0300429 -1.24913e-17 0)
(0.0300429 -4.06898e-17 0)
(0.0300429 2.44509e-17 0)
(0.0300429 6.17579e-17 0)
(0.0300429 -9.7056e-17 0)
(0.0300429 8.32556e-18 0)
(0.0300429 1.3485e-16 0)
(0.0300429 -4.00502e-17 0)
(0.0300429 -3.9847e-17 0)
(0.0300429 -5.57311e-17 0)
(0.0300429 -3.34934e-18 0)
(0.0300429 8.56942e-17 0)
(0.0300429 -9.44303e-17 0)
(0.0300429 8.35303e-17 0)
(0.0300429 1.48857e-17 0)
(0.0300429 -9.22441e-17 0)
(0.0300429 1.26305e-16 0)
(0.0300429 -6.88196e-17 0)
(0.0300429 -4.20554e-17 0)
(0.0300429 4.83346e-17 0)
(0.0300429 3.62632e-17 0)
(0.0300429 -1.01687e-16 0)
(0.0300429 6.97298e-17 0)
(0.0300429 8.16943e-17 0)
(0.0300429 -1.01013e-16 0)
(0.0300429 -3.30312e-17 0)
(0.0300429 3.54379e-19 0)
(0.0300429 5.52665e-17 0)
(0.0300429 -1.62626e-17 0)
(0.0300429 5.32963e-17 0)
(0.0300429 -9.25757e-17 0)
(0.0300429 6.44148e-17 0)
(0.0300429 7.52808e-17 0)
(0.0300429 -1.02923e-16 0)
(0.0300429 -4.24841e-17 0)
(0.0300429 5.0624e-17 0)
(0.0300429 6.94431e-18 0)
(0.0300429 -2.59197e-17 0)
(0.0300429 5.08617e-17 0)
(0.0300429 -1.06862e-16 0)
(0.0300429 1.16916e-16 0)
(0.0300429 2.29764e-17 0)
(0.0300429 -8.73762e-17 0)
(0.0300429 1.855e-17 0)
(0.0300429 5.79119e-18 0)
(0.0300429 7.80933e-18 0)
(0.0300429 -2.55282e-17 0)
(0.0300429 4.29794e-17 0)
(0.0300429 9.74141e-17 0)
(0.0300429 -3.55833e-17 0)
(0.0300429 -1.70313e-16 0)
(0.0300429 4.4578e-18 0)
(0.0300429 7.36907e-17 0)
(0.0300429 -1.74047e-18 0)
(0.0300429 1.2371e-16 0)
(0.0300429 -1.16775e-16 0)
(0.0300429 -8.13598e-17 0)
(0.0300429 6.40379e-17 0)
(0.0300429 9.88444e-17 0)
(0.0300429 -3.76171e-17 0)
(0.0300429 -1.43063e-16 0)
(0.0300429 6.99881e-17 0)
(0.0300429 2.3807e-17 0)
(0.0300429 1.41429e-16 0)
(0.0300429 -1.33878e-16 0)
(0.0300429 -8.12526e-17 0)
(0.0300429 9.53158e-17 0)
(0.0300429 -1.68983e-17 0)
(0.0300429 7.37934e-18 0)
(0.0300429 -3.28115e-17 0)
(0.0300429 1.39261e-17 0)
(0.0300429 2.52642e-17 0)
(0.0300429 1.0382e-16 0)
(0.0300429 -1.1641e-16 0)
(0.0300429 -9.85384e-17 0)
(0.0300429 2.18251e-16 0)
(0.0300429 -9.261e-17 0)
(0.0300429 -1.05801e-16 0)
(0.0300429 7.901e-17 0)
(0.0300429 2.17308e-17 0)
(0.0300429 -2.16217e-18 0)
(0.0300429 8.86054e-17 0)
(0.0300429 -1.01369e-16 0)
(0.0300429 -1.15542e-16 0)
(0.0300429 2.25225e-16 0)
(0.0300429 -7.07674e-17 0)
(0.0300429 -1.40758e-16 0)
(0.0300429 6.32675e-17 0)
(0.0300429 1.62193e-16 0)
(0.0300429 -1.07927e-16 0)
(0.0300429 -6.46833e-18 0)
(0.0300429 1.02917e-17 0)
(0.0300429 -1.17266e-16 0)
(0.0300429 2.10684e-16 0)
(0.0300429 -1.07731e-16 0)
(0.0300429 -7.25147e-18 0)
(0.0300429 -8.51293e-17 0)
(0.0300429 1.06523e-16 0)
(0.0300429 7.9121e-17 0)
(0.0300429 -1.81605e-16 0)
(0.0300429 1.02499e-16 0)
(0.0300429 -1.72016e-17 0)
(0.0300429 2.35262e-17 0)
(0.0300429 -2.11797e-17 0)
(0.0300429 8.74274e-17 0)
(0.0300429 -1.69431e-16 0)
(0.0300429 1.03314e-16 0)
(0.0300429 7.3645e-17 0)
(0.0300429 -1.88296e-16 0)
(0.0300429 9.83036e-17 0)
(0.0300429 8.83667e-17 0)
(0.0300429 -5.22661e-17 0)
(0.0300429 -1.53451e-16 0)
(0.0300429 1.98018e-16 0)
(0.0300429 -1.34331e-16 0)
(0.0300429 7.77739e-17 0)
(0.0300429 1.6763e-16 0)
(0.0300429 -2.88061e-16 0)
(0.0300429 3.06104e-17 0)
(0.0300429 1.69516e-16 0)
(0.0300429 -1.27229e-17 0)
(0.0300429 -1.77494e-16 0)
(0.0300429 9.99156e-17 0)
(0.0300429 -1.04044e-17 0)
(0.0300429 1.70869e-18 0)
(0.0300429 1.62093e-17 0)
(0.0300429 -1.0288e-16 0)
(0.0300429 1.03368e-16 0)
(0.0300429 7.56522e-18 0)
(0.0300429 8.81723e-17 0)
(0.0300429 -1.1885e-16 0)
(0.0300429 -5.60069e-17 0)
(0.0300429 8.84196e-17 0)
(0.0300429 6.81362e-17 0)
(0.0300429 -6.85215e-17 0)
(0.0300429 -8.76323e-17 0)
(0.0300429 1.86217e-16 0)
(0.0300429 -1.26274e-16 0)
(0.0300429 2.13655e-17 0)
(0.0300429 1.00357e-17 0)
(0.0300429 -8.8937e-17 0)
(0.0300429 1.94465e-16 0)
(0.0300429 -3.94963e-17 0)
(0.0300429 -1.75757e-16 0)
(0.0300429 4.10422e-17 0)
(0.0300429 1.80437e-16 0)
(0.0300429 -1.1949e-16 0)
(0.0300429 1.53179e-17 0)
(0.0300429 1.29939e-18 0)
(0.0300429 -1.64112e-18 0)
(0.0300429 1.08934e-16 0)
(0.0300429 -7.29174e-17 0)
(0.0300429 -8.35236e-17 0)
(0.0889265 -2.78477e-16 0)
(0.0889265 -6.11888e-17 0)
(0.0889265 7.20787e-17 0)
(0.0889265 7.74246e-17 0)
(0.0889265 7.01348e-17 0)
(0.0889265 3.60998e-17 0)
(0.0889265 4.01164e-17 0)
(0.0889265 2.99696e-17 0)
(0.0889265 5.42501e-18 0)
(0.0889265 1.44314e-17 0)
(0.0889265 -1.29883e-17 0)
(0.0889265 -2.24583e-17 0)
(0.0889265 -8.48083e-18 0)
(0.0889265 -1.06193e-17 0)
(0.0889265 2.83081e-18 0)
(0.0889265 -1.82461e-17 0)
(0.0889265 -2.89204e-17 0)
(0.0889265 -8.79486e-18 0)
(0.0889265 -3.85725e-18 0)
(0.0889265 7.4869e-18 0)
(0.0889265 4.78764e-18 0)
(0.0889265 2.75728e-18 0)
(0.0889265 1.84199e-17 0)
(0.0889265 -7.66886e-20 0)
(0.0889265 -1.36178e-17 0)
(0.0889265 -2.52716e-17 0)
(0.0889265 9.21083e-18 0)
(0.0889265 2.2525e-17 0)
(0.0889265 -2.90566e-17 0)
(0.0889265 -2.81144e-18 0)
(0.0889265 8.66309e-18 0)
(0.0889265 -1.81142e-17 0)
(0.0889265 -1.75935e-17 0)
(0.0889265 -1.40134e-17 0)
(0.0889265 -3.70343e-17 0)
(0.0889265 -4.95239e-18 0)
(0.0889265 -2.67985e-17 0)
(0.0889265 -2.51632e-17 0)
(0.0889265 -1.01152e-17 0)
(0.0889265 -2.88515e-17 0)
(0.0889265 5.73474e-18 0)
(0.0889265 -3.7044e-17 0)
(0.0889265 -4.98712e-18 0)
(0.0889265 3.03078e-17 0)
(0.0889265 6.88898e-18 0)
(0.0889265 3.48841e-17 0)
(0.0889265 2.839e-17 0)
(0.0889265 -2.81487e-17 0)
(0.0889265 -7.06875e-19 0)
(0.0889265 3.84306e-17 0)
(0.0889265 2.71102e-17 0)
(0.0889265 5.59385e-18 0)
(0.0889265 -3.8744e-17 0)
(0.0889265 -1.47129e-17 0)
(0.0889265 3.69659e-17 0)
(0.0889265 -7.76061e-18 0)
(0.0889265 1.92247e-17 0)
(0.0889265 -1.38624e-17 0)
(0.0889265 -5.00891e-17 0)
(0.0889265 -1.65799e-17 0)
(0.0889265 7.63801e-18 0)
(0.0889265 -1.86165e-17 0)
(0.0889265 -9.26514e-18 0)
(0.0889265 1.7024e-17 0)
(0.0889265 -1.06801e-17 0)
(0.0889265 1.89532e-17 0)
(0.0889265 -4.25477e-17 0)
(0.0889265 -1.61318e-17 0)
(0.0889265 5.76502e-17 0)
(0.0889265 -1.4261e-17 0)
(0.0889265 -1.82141e-17 0)
(0.0889265 8.55966e-18 0)
(0.0889265 5.02393e-17 0)
(0.0889265 -9.42868e-18 0)
(0.0889265 -4.58436e-17 0)
(0.0889265 9.35793e-17 0)
(0.0889265 3.36041e-17 0)
(0.0889265 -5.23965e-17 0)
(0.0889265 -2.26198e-17 0)
(0.0889265 3.45745e-17 0)
(0.0889265 -3.24713e-19 0)
(0.0889265 -3.16181e-17 0)
(0.0889265 1.56507e-17 0)
(0.0889265 -7.58497e-18 0)
(0.0889265 -5.3178e-17 0)
(0.0889265 5.25088e-17 0)
(0.0889265 5.47804e-18 0)
(0.0889265 -3.08187e-17 0)
(0.0889265 1.23202e-17 0)
(0.0889265 1.46206e-17 0)
(0.0889265 2.47876e-17 0)
(0.0889265 1.82317e-17 0)
(0.0889265 2.72043e-17 0)
(0.0889265 6.78425e-18 0)
(0.0889265 1.54158e-17 0)
(0.0889265 -6.43757e-17 0)
(0.0889265 8.10053e-18 0)
(0.0889265 7.9268e-17 0)
(0.0889265 -4.35055e-17 0)
(0.0889265 -3.31779e-17 0)
(0.0889265 4.91566e-17 0)
(0.0889265 3.14283e-17 0)
(0.0889265 -5.00586e-18 0)
(0.0889265 -1.11885e-17 0)
(0.0889265 7.74393e-18 0)
(0.0889265 -1.89977e-17 0)
(0.0889265 -1.27889e-17 0)
(0.0889265 1.92637e-18 0)
(0.0889265 4.03295e-17 0)
(0.0889265 4.75413e-17 0)
(0.0889265 -4.03891e-17 0)
(0.0889265 -8.9521e-17 0)
(0.0889265 -1.72496e-17 0)
(0.0889265 9.67144e-17 0)
(0.0889265 2.80252e-17 0)
(0.0889265 -7.6443e-17 0)
(0.0889265 -5.35339e-17 0)
(0.0889265 4.51701e-17 0)
(0.0889265 7.22655e-17 0)
(0.0889265 -3.50995e-18 0)
(0.0889265 -1.58781e-17 0)
(0.0889265 1.07516e-17 0)
(0.0889265 3.90033e-17 0)
(0.0889265 -1.45423e-17 0)
(0.0889265 -6.82424e-17 0)
(0.0889265 6.09463e-17 0)
(0.0889265 4.54708e-17 0)
(0.0889265 -3.11221e-17 0)
(0.0889265 2.11052e-17 0)
(0.0889265 2.8713e-17 0)
(0.0889265 2.579e-18 0)
(0.0889265 3.62437e-19 0)
(0.0889265 1.09508e-16 0)
(0.0889265 -6.94673e-17 0)
(0.0889265 -8.99424e-17 0)
(0.0889265 6.25564e-17 0)
(0.0889265 4.17891e-18 0)
(0.0889265 -4.502e-17 0)
(0.0889265 8.1007e-17 0)
(0.0889265 3.32678e-17 0)
(0.0889265 -1.34185e-16 0)
(0.0889265 -6.25774e-17 0)
(0.0889265 7.51163e-17 0)
(0.0889265 1.13409e-16 0)
(0.0889265 -6.97718e-17 0)
(0.0889265 -2.0524e-17 0)
(0.0889265 1.49947e-16 0)
(0.0889265 -2.86187e-17 0)
(0.0889265 -7.8834e-17 0)
(0.0889265 1.12844e-16 0)
(0.0889265 -7.38511e-17 0)
(0.0889265 -3.53163e-17 0)
(0.0889265 1.3863e-16 0)
(0.0889265 -1.31572e-16 0)
(0.0889265 -4.93893e-17 0)
(0.0889265 6.68561e-17 0)
(0.0889265 -9.566e-17 0)
(0.0889265 5.69454e-18 0)
(0.0889265 -6.5722e-18 0)
(0.0889265 9.39582e-17 0)
(0.0889265 7.55518e-17 0)
(0.0889265 -5.17776e-17 0)
(0.0889265 -4.14673e-17 0)
(0.0889265 7.68668e-18 0)
(0.0889265 -3.12731e-17 0)
(0.0889265 -4.31673e-19 0)
(0.0889265 7.62732e-17 0)
(0.0889265 -1.39154e-16 0)
(0.0889265 9.46133e-17 0)
(0.0889265 1.39545e-16 0)
(0.0889265 -1.44863e-16 0)
(0.0889265 4.95749e-17 0)
(0.0889265 1.23088e-16 0)
(0.0889265 -1.18056e-16 0)
(0.0889265 -6.50285e-17 0)
(0.0889265 3.80675e-17 0)
(0.0889265 7.86074e-17 0)
(0.0889265 -9.89495e-19 0)
(0.0889265 -6.2514e-17 0)
(0.0889265 8.3257e-17 0)
(0.0889265 5.4992e-18 0)
(0.0889265 -7.16803e-17 0)
(0.0889265 5.80518e-19 0)
(0.0889265 -3.10093e-17 0)
(0.0889265 6.72322e-17 0)
(0.0889265 -2.39884e-17 0)
(0.0889265 -1.06199e-16 0)
(0.0889265 -2.55587e-17 0)
(0.0889265 -3.29614e-17 0)
(0.0889265 -2.92075e-18 0)
(0.0889265 -8.38784e-17 0)
(0.0889265 -4.71624e-17 0)
(0.0889265 6.45077e-18 0)
(0.0889265 1.4128e-16 0)
(0.0889265 7.41432e-17 0)
(0.0889265 -3.13042e-17 0)
(0.0889265 5.97812e-17 0)
(0.0889265 1.37967e-17 0)
(0.0889265 -1.60595e-16 0)
(0.0889265 -7.57773e-17 0)
(0.0889265 4.00467e-17 0)
(0.0889265 -1.40971e-16 0)
(0.0889265 1.03652e-16 0)
(0.0889265 6.81048e-17 0)
(0.0889265 4.3057e-18 0)
(0.0889265 8.40042e-17 0)
(0.0889265 -1.03337e-16 0)
(0.0889265 -1.00432e-16 0)
(0.0889265 4.16249e-17 0)
(0.0889265 -1.97066e-17 0)
(0.0889265 1.7164e-17 0)
(0.0889265 1.95793e-17 0)
(0.0889265 -8.52989e-17 0)
(0.0889265 5.82991e-17 0)
(0.0889265 -5.52356e-17 0)
(0.0889265 2.55087e-17 0)
(0.0889265 -4.03826e-17 0)
(0.0889265 -5.51491e-17 0)
(0.0889265 9.34242e-17 0)
(0.0889265 1.15406e-16 0)
(0.0889265 -7.34454e-18 0)
(0.0889265 -6.95947e-17 0)
(0.0889265 3.93826e-17 0)
(0.0889265 -6.51399e-17 0)
(0.0889265 8.62102e-18 0)
(0.0889265 3.21605e-17 0)
(0.0889265 -8.81249e-18 0)
(0.0889265 3.46696e-17 0)
(0.0889265 1.13261e-16 0)
(0.0889265 -7.92922e-18 0)
(0.0889265 -5.31393e-17 0)
(0.0889265 -1.01317e-16 0)
(0.0889265 6.77267e-18 0)
(0.0889265 3.21538e-17 0)
(0.0889265 -8.25309e-17 0)
(0.0889265 6.81748e-17 0)
(0.0889265 2.34296e-17 0)
(0.0889265 4.47741e-17 0)
(0.0889265 -5.355e-17 0)
(0.0889265 -1.29926e-17 0)
(0.0889265 9.10148e-19 0)
(0.0889265 -8.12183e-17 0)
(0.0889265 3.95167e-17 0)
(0.0889265 1.62933e-16 0)
(0.0889265 -4.37529e-17 0)
(0.0889265 -1.80924e-17 0)
(0.0889265 6.85657e-17 0)
(0.0889265 -1.04567e-16 0)
(0.0889265 -5.21004e-18 0)
(0.0889265 -1.25459e-17 0)
(0.0889265 -4.19555e-17 0)
(0.0889265 2.50377e-17 0)
(0.0889265 9.84346e-17 0)
(0.0889265 -5.29658e-17 0)
(0.0889265 -3.46146e-17 0)
(0.0889265 6.81767e-17 0)
(0.0889265 -4.88752e-17 0)
(0.0889265 -8.45539e-17 0)
(0.0889265 3.83313e-17 0)
(0.0889265 -8.87859e-17 0)
(0.0889265 4.6512e-17 0)
(0.0889265 1.81193e-16 0)
(0.0889265 -1.35423e-16 0)
(0.0889265 4.85754e-17 0)
(0.0889265 -1.23225e-16 0)
(0.0889265 -1.13206e-16 0)
(0.0889265 2.64893e-16 0)
(0.0889265 -2.02718e-16 0)
(0.0889265 -1.10826e-16 0)
(0.0889265 4.09205e-16 0)
(0.0889265 -1.52631e-16 0)
(0.0889265 -1.24977e-16 0)
(0.0889265 9.06047e-17 0)
(0.0889265 -1.33625e-16 0)
(0.0889265 8.91558e-17 0)
(0.0889265 -8.61121e-17 0)
(0.0889265 -2.54033e-17 0)
(0.0889265 1.26997e-16 0)
(0.0889265 1.07343e-16 0)
(0.0889265 -1.0532e-16 0)
(0.0889265 -1.07717e-16 0)
(0.0889265 -5.905e-17 0)
(0.0889265 5.80461e-17 0)
(0.0889265 1.44298e-16 0)
(0.0889265 -1.59949e-16 0)
(0.0889265 2.11985e-16 0)
(0.0889265 1.75761e-17 0)
(0.0889265 -2.03266e-16 0)
(0.0889265 1.59467e-16 0)
(0.0889265 7.03283e-17 0)
(0.0889265 -2.29716e-16 0)
(0.0889265 7.91369e-17 0)
(0.0889265 2.7122e-17 0)
(0.0889265 -1.59687e-16 0)
(0.0889265 3.10938e-16 0)
(0.0889265 8.61967e-17 0)
(0.0889265 -3.06929e-16 0)
(0.0889265 6.63782e-17 0)
(0.0889265 -4.58646e-17 0)
(0.0889265 -2.00606e-16 0)
(0.0889265 2.90526e-16 0)
(0.0889265 -1.34484e-16 0)
(0.0889265 -1.09293e-16 0)
(0.0889265 3.75958e-16 0)
(0.0889265 -1.34689e-16 0)
(0.0889265 -2.32895e-16 0)
(0.0889265 2.05292e-16 0)
(0.0889265 -1.32001e-16 0)
(0.0889265 -1.73267e-16 0)
(0.0889265 3.05695e-16 0)
(0.0889265 4.79956e-17 0)
(0.0889265 -2.43779e-16 0)
(0.0889265 1.17207e-16 0)
(0.0889265 5.93372e-17 0)
(0.0889265 -1.16224e-16 0)
(0.0889265 7.01301e-17 0)
(0.0889265 -5.02112e-17 0)
(0.0889265 -1.19086e-16 0)
(0.0889265 -1.75696e-17 0)
(0.0889265 1.8441e-16 0)
(0.0889265 1.11194e-16 0)
(0.0889265 -4.05497e-17 0)
(0.0889265 -1.1776e-16 0)
(0.0889265 -9.84742e-17 0)
(0.0889265 1.68778e-16 0)
(0.0889265 -4.71866e-18 0)
(0.0889265 -1.35612e-16 0)
(0.0889265 -7.38524e-17 0)
(0.0889265 2.23105e-16 0)
(0.0889265 1.4657e-16 0)
(0.0889265 -2.96318e-16 0)
(0.0889265 1.65569e-17 0)
(0.0889265 1.175e-16 0)
(0.0889265 -2.25205e-16 0)
(0.0889265 1.87522e-16 0)
(0.0889265 1.87766e-16 0)
(0.0889265 -3.25883e-16 0)
(0.0889265 2.68226e-16 0)
(0.0889265 1.11918e-16 0)
(0.0889265 -3.22662e-16 0)
(0.0889265 8.01039e-17 0)
(0.0889265 -2.86989e-17 0)
(0.0889265 -1.55546e-16 0)
(0.0889265 8.47454e-17 0)
(0.0889265 2.02408e-16 0)
(0.0889265 4.30251e-18 0)
(0.0889265 -1.55144e-17 0)
(0.0889265 -1.48934e-16 0)
(0.0889265 -9.23866e-17 0)
(0.0889265 1.87665e-16 0)
(0.0889265 -6.14005e-17 0)
(0.0889265 -2.22963e-16 0)
(0.0889265 7.93373e-17 0)
(0.0889265 2.20588e-16 0)
(0.0889265 1.15729e-18 0)
(0.0889265 -2.02957e-17 0)
(0.0889265 -1.66112e-16 0)
(0.0889265 -1.44486e-16 0)
(0.0889265 1.14908e-16 0)
(0.0889265 4.16943e-17 0)
(0.0889265 1.10516e-16 0)
(0.0889265 -1.94855e-16 0)
(0.0889265 7.96127e-17 0)
(0.0889265 2.94203e-16 0)
(0.0889265 -2.31907e-16 0)
(0.0889265 -1.18574e-17 0)
(0.0889265 3.55812e-18 0)
(0.0889265 -1.30499e-16 0)
(0.0889265 1.35227e-17 0)
(0.0889265 3.03337e-16 0)
(0.0889265 2.83419e-17 0)
(0.0889265 -1.4362e-16 0)
(0.0889265 -9.70499e-17 0)
(0.0889265 -5.15157e-17 0)
(0.0889265 1.81798e-16 0)
(0.0889265 -8.85958e-17 0)
(0.0889265 1.69363e-17 0)
(0.0889265 -5.32416e-17 0)
(0.0889265 1.62174e-16 0)
(0.0889265 2.06457e-17 0)
(0.0889265 -9.70435e-17 0)
(0.0889265 -6.96739e-17 0)
(0.0889265 -1.70251e-17 0)
(0.0889265 6.34076e-17 0)
(0.0889265 -4.246e-17 0)
(0.0889265 2.16078e-16 0)
(0.0889265 -1.72722e-16 0)
(0.0889265 8.8161e-17 0)
(0.0889265 1.05481e-16 0)
(0.0889265 -1.15588e-16 0)
(0.0889265 -6.24669e-17 0)
(0.0889265 1.08243e-16 0)
(0.0889265 -8.44607e-17 0)
(0.0889265 -1.82138e-16 0)
(0.0889265 3.17829e-16 0)
(0.0889265 1.90406e-16 0)
(0.0889265 -1.66624e-16 0)
(0.0889265 -1.62426e-16 0)
(0.0889265 -1.32541e-16 0)
(0.0889265 -6.43629e-17 0)
(0.0889265 1.35584e-16 0)
(0.0889265 2.81994e-16 0)
(0.0889265 -2.23892e-16 0)
(0.0889265 -1.63642e-16 0)
(0.0889265 -7.69942e-17 0)
(0.0889265 3.10716e-16 0)
(0.0889265 2.06386e-16 0)
(0.0889265 -4.47411e-16 0)
(0.0889265 -2.78418e-17 0)
(0.0889265 2.44031e-16 0)
(0.0889265 1.70047e-16 0)
(0.0889265 -2.83466e-16 0)
(0.0889265 7.24771e-17 0)
(0.0889265 6.31107e-17 0)
(0.0889265 -5.15197e-17 0)
(0.0889265 5.64503e-17 0)
(0.0889265 -2.54923e-16 0)
(0.0889265 -1.12289e-17 0)
(0.0889265 3.28604e-16 0)
(0.0889265 8.18648e-17 0)
(0.0889265 -3.50684e-16 0)
(0.0889265 -6.28151e-17 0)
(0.0889265 4.16408e-16 0)
(0.0889265 -8.47145e-17 0)
(0.0889265 -1.98299e-16 0)
(0.0889265 4.99143e-17 0)
(0.0889265 1.16685e-16 0)
(0.0889265 2.1295e-17 0)
(0.0889265 6.32493e-18 0)
(0.0889265 -1.07446e-16 0)
(0.0889265 -1.05972e-16 0)
(0.0889265 3.55796e-16 0)
(0.0889265 -2.96782e-17 0)
(0.0889265 -3.87277e-16 0)
(0.0889265 4.25236e-18 0)
(0.0889265 4.68662e-16 0)
(0.0889265 -1.17189e-16 0)
(0.0889265 -5.00771e-17 0)
(0.0889265 -1.2801e-17 0)
(0.0889265 -2.12998e-16 0)
(0.0889265 3.3295e-16 0)
(0.0889265 -1.63238e-16 0)
(0.0889265 -5.25451e-17 0)
(0.0889265 -2.07685e-17 0)
(0.0889265 9.74962e-17 0)
(0.0889265 1.91971e-17 0)
(0.0889265 -5.27849e-17 0)
(0.0889265 2.55602e-17 0)
(0.0889265 -1.5791e-16 0)
(0.0889265 1.95175e-16 0)
(0.0889265 -2.9079e-17 0)
(0.0889265 9.69267e-17 0)
(0.0889265 -7.85458e-17 0)
(0.0889265 6.50332e-17 0)
(0.0889265 -4.66962e-17 0)
(0.0889265 -8.21898e-17 0)
(0.0889265 7.09962e-17 0)
(0.0889265 5.59913e-17 0)
(0.0889265 1.75858e-16 0)
(0.0889265 -4.48658e-16 0)
(0.0889265 2.10962e-16 0)
(0.0889265 2.02977e-16 0)
(0.0889265 1.16381e-17 0)
(0.0889265 2.99955e-17 0)
(0.0889265 -3.59931e-16 0)
(0.0889265 1.06659e-16 0)
(0.0889265 2.14179e-16 0)
(0.0889265 -4.0238e-17 0)
(0.0889265 -2.08263e-16 0)
(0.0889265 1.10698e-16 0)
(0.0889265 -4.45189e-17 0)
(0.0889265 1.32131e-17 0)
(0.0889265 6.26548e-17 0)
(0.0889265 -1.40509e-16 0)
(0.0889265 1.79335e-16 0)
(0.0889265 8.36753e-17 0)
(0.0889265 9.37635e-17 0)
(0.0889265 -2.40075e-16 0)
(0.0889265 2.42107e-17 0)
(0.0889265 1.41207e-16 0)
(0.0889265 4.16209e-17 0)
(0.0889265 -3.39765e-17 0)
(0.0889265 -9.94339e-17 0)
(0.0889265 2.10254e-16 0)
(0.0889265 -2.52412e-16 0)
(0.0889265 6.63657e-17 0)
(0.0889265 4.27106e-17 0)
(0.0889265 -7.08983e-17 0)
(0.0889265 2.7458e-16 0)
(0.0889265 -1.68121e-16 0)
(0.0889265 -2.19074e-16 0)
(0.0889265 1.78242e-16 0)
(0.0889265 2.35441e-16 0)
(0.0889265 -2.33485e-16 0)
(0.0889265 3.20819e-17 0)
(0.0889265 2.78192e-17 0)
(0.0889265 3.16143e-17 0)
(0.0889265 2.04854e-16 0)
(0.0889265 -3.74833e-17 0)
(0.0889265 4.82029e-17 0)
(0.146607 -6.03383e-16 0)
(0.146607 -7.68983e-17 0)
(0.146607 4.40886e-17 0)
(0.146607 1.04451e-16 0)
(0.146607 1.16198e-16 0)
(0.146607 4.81615e-17 0)
(0.146607 5.08324e-17 0)
(0.146607 5.81754e-17 0)
(0.146607 7.41038e-18 0)
(0.146607 -9.20782e-18 0)
(0.146607 -3.62275e-17 0)
(0.146607 -5.27258e-17 0)
(0.146607 -5.98042e-17 0)
(0.146607 -2.3878e-17 0)
(0.146607 -8.27329e-18 0)
(0.146607 -2.50036e-17 0)
(0.146607 -3.85489e-17 0)
(0.146607 -3.40833e-17 0)
(0.146607 -2.14457e-19 0)
(0.146607 8.28293e-18 0)
(0.146607 -1.49518e-17 0)
(0.146607 1.73136e-17 0)
(0.146607 3.68697e-17 0)
(0.146607 -8.79398e-18 0)
(0.146607 -2.52364e-17 0)
(0.146607 -4.43369e-17 0)
(0.146607 -1.08957e-17 0)
(0.146607 4.79466e-17 0)
(0.146607 -3.81018e-17 0)
(0.146607 -2.4579e-17 0)
(0.146607 -1.47337e-17 0)
(0.146607 -1.12271e-17 0)
(0.146607 -2.89754e-17 0)
(0.146607 -7.61895e-17 0)
(0.146607 -6.15427e-17 0)
(0.146607 -1.55461e-17 0)
(0.146607 -9.61069e-17 0)
(0.146607 -5.91066e-17 0)
(0.146607 -2.32048e-17 0)
(0.146607 -7.3288e-17 0)
(0.146607 -3.86211e-17 0)
(0.146607 -4.34258e-17 0)
(0.146607 -2.2627e-17 0)
(0.146607 3.32977e-17 0)
(0.146607 6.51168e-17 0)
(0.146607 6.42249e-17 0)
(0.146607 6.20754e-17 0)
(0.146607 -3.68744e-17 0)
(0.146607 5.42103e-18 0)
(0.146607 9.59092e-17 0)
(0.146607 5.26789e-17 0)
(0.146607 -2.66564e-17 0)
(0.146607 -6.06063e-17 0)
(0.146607 2.57991e-18 0)
(0.146607 3.87522e-17 0)
(0.146607 -3.71865e-18 0)
(0.146607 3.48184e-17 0)
(0.146607 -6.25064e-17 0)
(0.146607 -9.07071e-17 0)
(0.146607 -3.9939e-17 0)
(0.146607 -2.22408e-17 0)
(0.146607 5.87785e-18 0)
(0.146607 -4.49209e-17 0)
(0.146607 2.14345e-17 0)
(0.146607 4.66036e-17 0)
(0.146607 -8.95056e-18 0)
(0.146607 -6.90734e-17 0)
(0.146607 -3.85355e-17 0)
(0.146607 4.19304e-17 0)
(0.146607 3.35604e-17 0)
(0.146607 2.904e-17 0)
(0.146607 1.2122e-17 0)
(0.146607 6.51062e-17 0)
(0.146607 4.25081e-18 0)
(0.146607 -8.37175e-17 0)
(0.146607 1.34919e-16 0)
(0.146607 1.19152e-16 0)
(0.146607 -2.26879e-17 0)
(0.146607 -6.92129e-17 0)
(0.146607 -2.00697e-18 0)
(0.146607 3.27539e-17 0)
(0.146607 -2.79999e-17 0)
(0.146607 -5.2063e-17 0)
(0.146607 -1.12864e-17 0)
(0.146607 -1.40569e-17 0)
(0.146607 -2.02815e-19 0)
(0.146607 -2.86339e-17 0)
(0.146607 4.50127e-17 0)
(0.146607 1.00453e-17 0)
(0.146607 1.23537e-18 0)
(0.146607 7.88147e-17 0)
(0.146607 3.92011e-17 0)
(0.146607 5.44067e-17 0)
(0.146607 5.60116e-17 0)
(0.146607 3.42572e-17 0)
(0.146607 -1.28967e-16 0)
(0.146607 -2.7469e-17 0)
(0.146607 1.63581e-16 0)
(0.146607 -5.87917e-17 0)
(0.146607 -9.72182e-17 0)
(0.146607 1.28041e-16 0)
(0.146607 6.90131e-17 0)
(0.146607 -3.80112e-17 0)
(0.146607 -9.194e-17 0)
(0.146607 1.07626e-17 0)
(0.146607 8.34533e-17 0)