/*--------------------------------*- C++ -*----------------------------------*\
| =========                 |                                                 |
| \\      /  F ield         | OpenFOAM: The Open Source CFD Toolbox           |
|  \\    /   O peration     | Version:  2112                                  |
|   \\  /    A nd           | Website:  www.openfoam.com                      |
|    \\/     M anipulation  |                                                 |
\*---------------------------------------------------------------------------*/
FoamFile
{
    version     2.0;
    format      ascii;
    arch        "LSB;label=32;scalar=64";
    class       volScalarField;
    location    "12";
    object      p;
}
// * * * * * * * * * * * * * * * * * * * * * * * * * * * * * * * * * * * * * //

dimensions      [0 2 -2 0 0 0 0];

internalField   nonuniform List<scalar> 
50000
(
-5.78754e-15
-2.13995e-14
-2.77025e-14
-3.12367e-14
-3.36597e-14
-3.54386e-14
-3.67657e-14
-3.78505e-14
-3.88552e-14
-3.96309e-14
-4.02596e-14
-4.08578e-14
-4.14683e-14
-4.20253e-14
-4.258e-14
-4.30406e-14
-4.34241e-14
-4.40314e-14
-4.45717e-14
-4.51016e-14
-4.56611e-14
-4.60684e-14
-4.64647e-14
-4.67497e-14
-4.70055e-14
-4.73079e-14
-4.77666e-14
-4.82075e-14
-4.84374e-14
-4.8783e-14
-4.91517e-14
-4.94214e-14
-4.97578e-14
-5.01488e-14
-5.04432e-14
-5.08644e-14
-5.11362e-14
-5.14071e-14
-5.17369e-14
-5.18466e-14
-5.2149e-14
-5.22129e-14
-5.23566e-14
-5.24857e-14
-5.24995e-14
-5.2585e-14
-5.25253e-14
-5.23066e-14
-5.23198e-14
-5.23508e-14
-5.21326e-14
-5.17399e-14
-5.13255e-14
-5.10389e-14
-5.06992e-14
-5.00794e-14
-4.97216e-14
-4.91149e-14
-4.84644e-14
-4.80124e-14
-4.7389e-14
-4.67273e-14
-4.6185e-14
-4.57909e-14
-4.52003e-14
-4.47015e-14
-4.40579e-14
-4.35002e-14
-4.3009e-14
-4.22457e-14
-4.16251e-14
-4.11388e-14
-4.06598e-14
-3.98903e-14
-3.93004e-14
-3.90001e-14
-3.819e-14
-3.7304e-14
-3.68592e-14
-3.64365e-14
-3.57551e-14
-3.50356e-14
-3.45701e-14
-3.40015e-14
-3.35102e-14
-3.33483e-14
-3.28425e-14
-3.24538e-14
-3.21281e-14
-3.17797e-14
-3.15487e-14
-3.12416e-14
-3.08608e-14
-3.04974e-14
-3.00415e-14
-2.95226e-14
-2.96072e-14
-2.96897e-14
-2.91195e-14
-2.89741e-14
-2.91064e-14
-2.88899e-14
-2.86212e-14
-2.85007e-14
-2.8557e-14
-2.84257e-14
-2.83809e-14
-2.85326e-14
-2.88192e-14
-2.89422e-14
-2.86177e-14
-2.85384e-14
-2.8906e-14
-2.93867e-14
-2.93408e-14
-2.9115e-14
-2.92998e-14
-2.97487e-14
-2.98889e-14
-2.97463e-14
-2.97945e-14
-3.00277e-14
-3.03477e-14
-3.0297e-14
-3.03471e-14
-3.08837e-14
-3.10958e-14
-3.11808e-14
-3.15266e-14
-3.17714e-14
-3.20833e-14
-3.22968e-14
-3.2649e-14
-3.25042e-14
-3.28191e-14
-3.36037e-14
-3.39561e-14
-3.43601e-14
-3.52871e-14
-3.58712e-14
-3.61345e-14
-3.70229e-14
-3.84212e-14
-3.93528e-14
-3.9705e-14
-4.0837e-14
-4.21697e-14
-4.24904e-14
-4.32899e-14
-4.47807e-14
-4.54387e-14
-4.65663e-14
-4.7826e-14
-4.82362e-14
-4.9502e-14
-5.08394e-14
-5.16667e-14
-5.31196e-14
-5.44821e-14
-5.59052e-14
-5.68465e-14
-5.77465e-14
-5.88397e-14
-6.01279e-14
-6.12769e-14
-6.25137e-14
-6.38636e-14
-6.47048e-14
-6.65437e-14
-6.78623e-14
-6.84585e-14
-7.00985e-14
-7.13877e-14
-7.21204e-14
-7.35015e-14
-7.5172e-14
-7.68225e-14
-7.80033e-14
-7.94376e-14
-8.13534e-14
-8.2457e-14
-8.38029e-14
-8.54063e-14
-8.66514e-14
-8.83437e-14
-8.94127e-14
-9.0492e-14
-9.2231e-14
-9.37296e-14
-9.50245e-14
-9.63824e-14
-9.79813e-14
-9.96139e-14
-1.01486e-13
-1.0269e-13
-1.03739e-13
-1.05192e-13
-1.06165e-13
-1.06999e-13
-1.0852e-13
-1.10139e-13
-1.11104e-13
-1.1304e-13
-1.14242e-13
-1.15432e-13
-1.16614e-13
-1.17272e-13
-1.18806e-13
-1.20605e-13
-1.21941e-13
-1.23271e-13
-1.24436e-13
-1.2548e-13
-1.27198e-13
-1.2796e-13
-1.29232e-13
-1.30507e-13
-1.31917e-13
-1.33563e-13
-1.34721e-13
-1.35435e-13
-1.36408e-13
-1.37798e-13
-1.38821e-13
-1.40202e-13
-1.4124e-13
-1.42342e-13
-1.43446e-13
-1.44291e-13
-1.44786e-13
-1.45364e-13
-1.45885e-13
-1.46942e-13
-1.47749e-13
-1.48165e-13
-1.49423e-13
-1.50115e-13
-1.50647e-13
-1.50948e-13
-1.51536e-13
-1.52016e-13
-1.52479e-13
-1.53497e-13
-1.54439e-13
-1.54404e-13
-1.54871e-13
-1.55619e-13
-1.55715e-13
-1.56389e-13
-1.56906e-13
-1.57461e-13
-1.58212e-13
-1.59166e-13
-1.59215e-13
-1.59634e-13
-1.60647e-13
-1.60908e-13
-1.61358e-13
-1.62257e-13
-1.62478e-13
-1.63364e-13
-1.64243e-13
-1.63952e-13
-1.64884e-13
-1.64959e-13
-1.65758e-13
-1.67401e-13
-1.67047e-13
-1.6815e-13
-1.69965e-13
-1.69013e-13
-1.69411e-13
-1.70559e-13
-1.70675e-13
-1.71675e-13
-1.71785e-13
-1.72641e-13
-1.73726e-13
-1.73953e-13
-1.73719e-13
-1.74011e-13
-1.7453e-13
-1.75336e-13
-1.75944e-13
-1.75541e-13
-1.76781e-13
-1.76616e-13
-1.76249e-13
-1.77396e-13
-1.77362e-13
-1.76803e-13
-1.77687e-13
-1.78053e-13
-1.78098e-13
-1.79522e-13
-1.78909e-13
-1.77776e-13
-1.78673e-13
-1.78737e-13
-1.78723e-13
-1.79936e-13
-1.79432e-13
-1.7986e-13
-1.81079e-13
-1.79841e-13
-1.797e-13
-1.80886e-13
-1.80309e-13
-1.8048e-13
-1.81697e-13
-1.81181e-13
-1.80403e-13
-1.81193e-13
-1.81104e-13
-1.80587e-13
-1.80935e-13
-1.80514e-13
-1.80493e-13
-1.80927e-13
-1.81385e-13
-1.81202e-13
-1.80508e-13
-1.79969e-13
-1.80123e-13
-1.80545e-13
-1.79737e-13
-1.79458e-13
-1.79666e-13
-1.80191e-13
-1.79876e-13
-1.78554e-13
-1.79259e-13
-1.79675e-13
-1.78787e-13
-1.79569e-13
-1.79656e-13
-1.78425e-13
-1.79589e-13
-1.79083e-13
-1.77605e-13
-1.78117e-13
-1.77892e-13
-1.77625e-13
-1.78071e-13
-1.7823e-13
-1.77538e-13
-1.76912e-13
-1.76276e-13
-1.76297e-13
-1.76603e-13
-1.75918e-13
-1.75556e-13
-1.76089e-13
-1.76282e-13
-1.75465e-13
-1.74702e-13
-1.74149e-13
-1.74387e-13
-1.74873e-13
-1.7437e-13
-1.74453e-13
-1.73478e-13
-1.73565e-13
-1.73852e-13
-1.72055e-13
-1.71839e-13
-1.71818e-13
-1.71444e-13
-1.71225e-13
-1.71815e-13
-1.70718e-13
-1.69297e-13
-1.68943e-13
-1.6877e-13
-1.6874e-13
-1.67808e-13
-1.67538e-13
-1.66652e-13
-1.66779e-13
-1.65832e-13
-1.6441e-13
-1.63894e-13
-1.63697e-13
-1.62987e-13
-1.61893e-13
-1.61894e-13
-1.60275e-13
-1.60188e-13
-1.59656e-13
-1.5827e-13
-1.57656e-13
-1.57384e-13
-1.5636e-13
-1.5538e-13
-1.56123e-13
-1.55131e-13
-1.53027e-13
-1.52035e-13
-1.51672e-13
-1.51361e-13
-1.51213e-13
-1.50697e-13
-1.48056e-13
-1.47252e-13
-1.4701e-13
-1.47153e-13
-1.45796e-13
-1.42997e-13
-1.43133e-13
-1.43291e-13
-1.42137e-13
-1.39419e-13
-1.39184e-13
-1.38499e-13
-1.36991e-13
-1.36081e-13
-1.34398e-13
-1.34029e-13
-1.33607e-13
-1.31969e-13
-1.29382e-13
-1.28854e-13
-1.29221e-13
-1.26576e-13
-1.24888e-13
-1.24398e-13
-1.23475e-13
-1.22103e-13
-1.20792e-13
-1.18837e-13
-1.17884e-13
-1.1809e-13
-1.15443e-13
-1.13209e-13
-1.13428e-13
-1.13726e-13
-1.10901e-13
-1.09472e-13
-1.08157e-13
-1.06669e-13
-1.0708e-13
-1.04638e-13
-1.03703e-13
-1.03101e-13
-1.02874e-13
-1.01558e-13
-9.98774e-14
-9.93371e-14
-9.79451e-14
-9.77082e-14
-9.60924e-14
-9.50465e-14
-9.33661e-14
-9.2722e-14
-9.11964e-14
-8.95659e-14
-8.90301e-14
-8.76563e-14
-8.61806e-14
-8.36986e-14
-8.43091e-14
-8.3086e-14
-8.17219e-14
-8.01202e-14
-7.7375e-14
-7.76833e-14
-7.71718e-14
-7.53339e-14
-7.37566e-14
-7.34613e-14
-7.2156e-14
-7.13079e-14
-7.02986e-14
-6.85879e-14
-6.83378e-14
-6.70536e-14
-6.57326e-14
-6.35802e-14
-6.3262e-14
-6.28139e-14
-6.14183e-14
-5.96993e-14
-5.83067e-14
-5.80312e-14
-5.56284e-14
-5.50264e-14
-5.37413e-14
-5.24536e-14
-5.20144e-14
-4.92138e-14
-4.74129e-14
-4.71561e-14
-4.58417e-14
-4.28605e-14
-4.12905e-14
-3.89242e-14
-3.66247e-14
-3.38702e-14
-2.89742e-14
-2.24489e-14
-1.61481e-14
-2.32547e-14
-2.80907e-14
-3.13857e-14
-3.37441e-14
-3.54902e-14
-3.67924e-14
-3.78665e-14
-3.88835e-14
-3.96546e-14
-4.02729e-14
-4.08734e-14
-4.14811e-14
-4.20354e-14
-4.25876e-14
-4.30786e-14
-4.34191e-14
-4.40425e-14
-4.45746e-14
-4.50757e-14
-4.57046e-14
-4.60976e-14
-4.64684e-14
-4.67569e-14
-4.69995e-14
-4.72823e-14
-4.77582e-14
-4.82211e-14
-4.84906e-14
-4.87732e-14
-4.91256e-14
-4.94677e-14
-4.97534e-14
-5.01076e-14
-5.04845e-14
-5.09113e-14
-5.11472e-14
-5.14154e-14
-5.17684e-14
-5.18604e-14
-5.21419e-14
-5.22776e-14
-5.23383e-14
-5.24377e-14
-5.25657e-14
-5.25656e-14
-5.24902e-14
-5.23391e-14
-5.23438e-14
-5.23495e-14
-5.2152e-14
-5.17098e-14
-5.13751e-14
-5.10997e-14
-5.06578e-14
-5.00822e-14
-4.97195e-14
-4.91607e-14
-4.85131e-14
-4.79975e-14
-4.73439e-14
-4.67635e-14
-4.61751e-14
-4.57801e-14
-4.52823e-14
-4.46826e-14
-4.40587e-14
-4.35126e-14
-4.29412e-14
-4.23055e-14
-4.16832e-14
-4.11226e-14
-4.05785e-14
-3.98995e-14
-3.93324e-14
-3.89062e-14
-3.81774e-14
-3.73842e-14
-3.68379e-14
-3.64048e-14
-3.57729e-14
-3.50229e-14
-3.45167e-14
-3.40177e-14
-3.36205e-14
-3.3257e-14
-3.27712e-14
-3.25342e-14
-3.21057e-14
-3.17861e-14
-3.15745e-14
-3.11635e-14
-3.08475e-14
-3.05109e-14
-3.00299e-14
-2.95964e-14
-2.95665e-14
-2.96093e-14
-2.91316e-14
-2.8983e-14
-2.90988e-14
-2.8822e-14
-2.86551e-14
-2.84945e-14
-2.84868e-14
-2.85527e-14
-2.84048e-14
-2.84218e-14
-2.87968e-14
-2.88693e-14
-2.8667e-14
-2.86908e-14
-2.88757e-14
-2.92826e-14
-2.92878e-14
-2.91546e-14
-2.94251e-14
-2.97607e-14
-2.97965e-14
-2.97294e-14
-2.97804e-14
-2.99752e-14
-3.02631e-14
-3.03036e-14
-3.05204e-14
-3.08066e-14
-3.09919e-14
-3.12419e-14
-3.15245e-14
-3.17588e-14
-3.21698e-14
-3.22704e-14
-3.24748e-14
-3.25578e-14
-3.29082e-14
-3.35455e-14
-3.38561e-14
-3.4391e-14
-3.52283e-14
-3.58306e-14
-3.6269e-14
-3.7076e-14
-3.84242e-14
-3.92489e-14
-3.96532e-14
-4.08289e-14
-4.21097e-14
-4.25465e-14
-4.33329e-14
-4.46531e-14
-4.5526e-14
-4.66524e-14
-4.76382e-14
-4.83325e-14
-4.95444e-14
-5.07482e-14
-5.18132e-14
-5.31276e-14
-5.43761e-14
-5.58257e-14
-5.68597e-14
-5.78015e-14
-5.88799e-14
-6.01135e-14
-6.12634e-14
-6.24968e-14
-6.38233e-14
-6.49072e-14
-6.63962e-14
-6.77561e-14
-6.86922e-14
-6.98985e-14
-7.11878e-14
-7.23806e-14
-7.34925e-14
-7.51047e-14
-7.67823e-14
-7.79316e-14
-7.94774e-14
-8.13418e-14
-8.25539e-14
-8.38639e-14
-8.54333e-14
-8.66673e-14
-8.81676e-14
-8.94105e-14
-9.06287e-14
-9.21478e-14
-9.37808e-14
-9.50501e-14
-9.64366e-14
-9.80726e-14
-9.97214e-14
-1.01391e-13
-1.02518e-13
-1.03792e-13
-1.05175e-13
-1.06015e-13
-1.07223e-13
-1.08749e-13
-1.10029e-13
-1.11123e-13
-1.1293e-13
-1.14121e-13
-1.15429e-13
-1.167e-13
-1.17347e-13
-1.18742e-13
-1.20539e-13
-1.22033e-13
-1.23221e-13
-1.24526e-13
-1.25633e-13
-1.27011e-13
-1.28022e-13
-1.29328e-13
-1.30431e-13
-1.31907e-13
-1.33523e-13
-1.34533e-13
-1.35426e-13
-1.36583e-13
-1.37922e-13
-1.38934e-13
-1.4015e-13
-1.41168e-13
-1.42261e-13
-1.43355e-13
-1.44261e-13
-1.44714e-13
-1.455e-13
-1.46155e-13
-1.46853e-13
-1.47755e-13
-1.48265e-13
-1.49308e-13
-1.50091e-13
-1.50502e-13
-1.51113e-13
-1.51543e-13
-1.52051e-13
-1.52639e-13
-1.53296e-13
-1.54276e-13
-1.54525e-13
-1.54885e-13
-1.55479e-13
-1.55851e-13
-1.56458e-13
-1.57098e-13
-1.57451e-13
-1.58067e-13
-1.58911e-13
-1.59272e-13
-1.59684e-13
-1.60524e-13
-1.61113e-13
-1.61563e-13
-1.62152e-13
-1.62419e-13
-1.63324e-13
-1.64129e-13
-1.64196e-13
-1.64788e-13
-1.64956e-13
-1.65736e-13
-1.67292e-13
-1.67348e-13
-1.68125e-13
-1.69497e-13
-1.69293e-13
-1.69637e-13
-1.70486e-13
-1.70779e-13
-1.71379e-13
-1.72111e-13
-1.72635e-13
-1.73341e-13
-1.73852e-13
-1.74e-13
-1.74133e-13
-1.74468e-13
-1.75345e-13
-1.75962e-13
-1.756e-13
-1.76494e-13
-1.76795e-13
-1.76409e-13
-1.77245e-13
-1.77192e-13
-1.7692e-13
-1.77709e-13
-1.78103e-13
-1.78206e-13
-1.79166e-13
-1.78758e-13
-1.78271e-13
-1.78699e-13
-1.78678e-13
-1.7892e-13
-1.79597e-13
-1.79714e-13
-1.79814e-13
-1.80626e-13
-1.80118e-13
-1.79866e-13
-1.80565e-13
-1.80567e-13
-1.80699e-13
-1.81307e-13
-1.8116e-13
-1.80694e-13
-1.81085e-13
-1.81131e-13
-1.80696e-13
-1.80668e-13
-1.80636e-13
-1.80699e-13
-1.8076e-13
-1.81167e-13
-1.81181e-13
-1.8055e-13
-1.80289e-13
-1.80375e-13
-1.80168e-13
-1.79733e-13
-1.79628e-13
-1.79665e-13
-1.79801e-13
-1.79722e-13
-1.7901e-13
-1.79255e-13
-1.79522e-13
-1.79123e-13
-1.7927e-13
-1.79384e-13
-1.78988e-13
-1.79204e-13
-1.78871e-13
-1.78177e-13
-1.78012e-13
-1.77666e-13
-1.78027e-13
-1.7799e-13
-1.7772e-13
-1.77619e-13
-1.77057e-13
-1.76447e-13
-1.7656e-13
-1.76435e-13
-1.757e-13
-1.7597e-13
-1.76005e-13
-1.75734e-13
-1.75538e-13
-1.74842e-13
-1.74401e-13
-1.74587e-13
-1.74537e-13
-1.74377e-13
-1.74518e-13
-1.73554e-13
-1.73485e-13
-1.73585e-13
-1.72328e-13
-1.71869e-13
-1.71776e-13
-1.7155e-13
-1.71232e-13
-1.71428e-13
-1.70528e-13
-1.69577e-13
-1.69292e-13
-1.68869e-13
-1.68418e-13
-1.67811e-13
-1.67523e-13
-1.66866e-13
-1.6659e-13
-1.65568e-13
-1.64564e-13
-1.64125e-13
-1.63755e-13
-1.62899e-13
-1.61824e-13
-1.61945e-13
-1.60519e-13
-1.59685e-13
-1.5964e-13
-1.58621e-13
-1.57505e-13
-1.57192e-13
-1.56572e-13
-1.55548e-13
-1.55941e-13
-1.54743e-13
-1.53058e-13
-1.52597e-13
-1.51964e-13
-1.51224e-13
-1.50941e-13
-1.5038e-13
-1.48386e-13
-1.47665e-13
-1.4682e-13
-1.46618e-13
-1.45965e-13
-1.43468e-13
-1.42857e-13
-1.4304e-13
-1.42188e-13
-1.39723e-13
-1.39158e-13
-1.38351e-13
-1.36945e-13
-1.35954e-13
-1.34611e-13
-1.34209e-13
-1.33239e-13
-1.31831e-13
-1.29884e-13
-1.28999e-13
-1.28638e-13
-1.2686e-13
-1.25173e-13
-1.24091e-13
-1.23472e-13
-1.22041e-13
-1.20648e-13
-1.19028e-13
-1.17967e-13
-1.1767e-13
-1.15744e-13
-1.13527e-13
-1.13072e-13
-1.13391e-13
-1.1115e-13
-1.09518e-13
-1.08226e-13
-1.06905e-13
-1.06508e-13
-1.04849e-13
-1.03758e-13
-1.03238e-13
-1.02747e-13
-1.01395e-13
-1.00142e-13
-9.92974e-14
-9.80905e-14
-9.75366e-14
-9.59803e-14
-9.47973e-14
-9.38232e-14
-9.26159e-14
-9.1059e-14
-8.98246e-14
-8.89106e-14
-8.74366e-14
-8.6199e-14
-8.41131e-14
-8.39231e-14
-8.32883e-14
-8.15241e-14
-7.97121e-14
-7.81766e-14
-7.77273e-14
-7.64764e-14
-7.52707e-14
-7.44027e-14
-7.32543e-14
-7.21278e-14
-7.12955e-14
-7.03565e-14
-6.8863e-14
-6.80266e-14
-6.69486e-14
-6.53987e-14
-6.39009e-14
-6.36218e-14
-6.24847e-14
-6.10525e-14
-6.00685e-14
-5.86528e-14
-5.74686e-14
-5.58556e-14
-5.50999e-14
-5.38129e-14
-5.27216e-14
-5.13943e-14
-4.92215e-14
-4.81205e-14
-4.72261e-14
-4.52396e-14
-4.31145e-14
-4.13906e-14
-3.89817e-14
-3.66506e-14
-3.37105e-14
-2.96534e-14
-2.43187e-14
-2.16561e-14
-2.52903e-14
-2.89216e-14
-3.18236e-14
-3.40429e-14
-3.56117e-14
-3.68956e-14
-3.79549e-14
-3.89592e-14
-3.96997e-14
-4.02834e-14
-4.09357e-14
-4.15814e-14
-4.20447e-14
-4.26132e-14
-4.31081e-14
-4.33879e-14
-4.40826e-14
-4.45654e-14
-4.50503e-14
-4.57619e-14
-4.61719e-14
-4.64508e-14
-4.67431e-14
-4.70099e-14
-4.727e-14
-4.78123e-14
-4.82412e-14
-4.85413e-14
-4.87887e-14
-4.91162e-14
-4.94959e-14
-4.97305e-14
-5.01114e-14
-5.05461e-14
-5.09503e-14
-5.11466e-14
-5.14498e-14
-5.18006e-14
-5.18507e-14
-5.21433e-14
-5.2366e-14
-5.23808e-14
-5.24196e-14
-5.25859e-14
-5.25413e-14
-5.24606e-14
-5.23956e-14
-5.23407e-14
-5.22976e-14
-5.21894e-14
-5.17625e-14
-5.14454e-14
-5.1168e-14
-5.0641e-14
-5.00992e-14
-4.97209e-14
-4.92196e-14
-4.85579e-14
-4.79479e-14
-4.73157e-14
-4.67833e-14
-4.62512e-14
-4.57684e-14
-4.52649e-14
-4.46429e-14
-4.41187e-14
-4.35444e-14
-4.29211e-14
-4.23523e-14
-4.16808e-14
-4.11125e-14
-4.05522e-14
-3.99239e-14
-3.9382e-14
-3.88432e-14
-3.81472e-14
-3.74171e-14
-3.67815e-14
-3.63928e-14
-3.57752e-14
-3.49953e-14
-3.44668e-14
-3.40185e-14
-3.36572e-14
-3.32135e-14
-3.27662e-14
-3.25642e-14
-3.20765e-14
-3.17893e-14
-3.16326e-14
-3.11004e-14
-3.07765e-14
-3.04626e-14
-3.0034e-14
-2.96779e-14
-2.95419e-14
-2.94887e-14
-2.91289e-14
-2.90573e-14
-2.90373e-14
-2.88104e-14
-2.866e-14
-2.84658e-14
-2.85098e-14
-2.86104e-14
-2.83646e-14
-2.83414e-14
-2.87737e-14
-2.88159e-14
-2.86908e-14
-2.87599e-14
-2.8884e-14
-2.91452e-14
-2.92536e-14
-2.93175e-14
-2.94881e-14
-2.96431e-14
-2.97578e-14
-2.97594e-14
-2.97894e-14
-2.99047e-14
-3.01488e-14
-3.0325e-14
-3.0584e-14
-3.07599e-14
-3.10112e-14
-3.12268e-14
-3.14509e-14
-3.17803e-14
-3.21762e-14
-3.22993e-14
-3.24107e-14
-3.25683e-14
-3.29324e-14
-3.35099e-14
-3.37657e-14
-3.44161e-14
-3.51874e-14
-3.57563e-14
-3.63724e-14
-3.71496e-14
-3.83368e-14
-3.91335e-14
-3.96309e-14
-4.08861e-14
-4.20308e-14
-4.25055e-14
-4.34452e-14
-4.46188e-14
-4.55563e-14
-4.6702e-14
-4.75016e-14
-4.83446e-14
-4.96041e-14
-5.0722e-14
-5.1863e-14
-5.31183e-14
-5.43335e-14
-5.58475e-14
-5.68759e-14
-5.78888e-14
-5.88054e-14
-6.00551e-14
-6.12438e-14
-6.2502e-14
-6.38218e-14
-6.49708e-14
-6.63883e-14
-6.77198e-14
-6.87406e-14
-6.98821e-14
-7.10972e-14
-7.23708e-14
-7.35734e-14
-7.50889e-14
-7.66367e-14
-7.79071e-14
-7.9559e-14
-8.13194e-14
-8.26391e-14
-8.3888e-14
-8.54982e-14
-8.67515e-14
-8.79418e-14
-8.93793e-14
-9.07648e-14
-9.20763e-14
-9.37895e-14
-9.51202e-14
-9.65261e-14
-9.8195e-14
-9.97584e-14
-1.01247e-13
-1.02505e-13
-1.03779e-13
-1.0511e-13
-1.06096e-13
-1.0739e-13
-1.08857e-13
-1.0999e-13
-1.11113e-13
-1.1273e-13
-1.14061e-13
-1.1544e-13
-1.16622e-13
-1.17435e-13
-1.18789e-13
-1.20544e-13
-1.22069e-13
-1.23213e-13
-1.24499e-13
-1.25752e-13
-1.26973e-13
-1.28004e-13
-1.29386e-13
-1.30472e-13
-1.31885e-13
-1.33418e-13
-1.34428e-13
-1.3546e-13
-1.36738e-13
-1.3791e-13
-1.39071e-13
-1.40087e-13
-1.41105e-13
-1.42316e-13
-1.4318e-13
-1.44131e-13
-1.44846e-13
-1.4566e-13
-1.4628e-13
-1.46947e-13
-1.47649e-13
-1.48263e-13
-1.49265e-13
-1.50038e-13
-1.50504e-13
-1.51216e-13
-1.51474e-13
-1.5217e-13
-1.52762e-13
-1.53173e-13
-1.54141e-13
-1.54517e-13
-1.55031e-13
-1.55352e-13
-1.55758e-13
-1.56618e-13
-1.57234e-13
-1.57433e-13
-1.57996e-13
-1.58684e-13
-1.59323e-13
-1.59925e-13
-1.60337e-13
-1.61155e-13
-1.61767e-13
-1.62114e-13
-1.6235e-13
-1.63308e-13
-1.64051e-13
-1.64284e-13
-1.64767e-13
-1.65063e-13
-1.65728e-13
-1.67097e-13
-1.67616e-13
-1.68064e-13
-1.69158e-13
-1.69439e-13
-1.6984e-13
-1.70615e-13
-1.7076e-13
-1.7109e-13
-1.72434e-13
-1.72693e-13
-1.72939e-13
-1.73779e-13
-1.74159e-13
-1.7425e-13
-1.74543e-13
-1.75355e-13
-1.75911e-13
-1.75638e-13
-1.76359e-13
-1.76854e-13
-1.76492e-13
-1.77161e-13
-1.77201e-13
-1.76937e-13
-1.77673e-13
-1.78308e-13
-1.78187e-13
-1.78859e-13
-1.78755e-13
-1.78525e-13
-1.78749e-13
-1.78764e-13
-1.78941e-13
-1.79406e-13
-1.79973e-13
-1.79761e-13
-1.80246e-13
-1.80242e-13
-1.79963e-13
-1.80459e-13
-1.80801e-13
-1.80728e-13
-1.81087e-13
-1.81243e-13
-1.80896e-13
-1.80903e-13
-1.81111e-13
-1.80803e-13
-1.80651e-13
-1.80532e-13
-1.8079e-13
-1.80814e-13
-1.81019e-13
-1.81118e-13
-1.80627e-13
-1.80578e-13
-1.8042e-13
-1.80027e-13
-1.79583e-13
-1.79723e-13
-1.79779e-13
-1.79519e-13
-1.7965e-13
-1.79223e-13
-1.7936e-13
-1.79501e-13
-1.79211e-13
-1.7906e-13
-1.79441e-13
-1.79164e-13
-1.78865e-13
-1.78923e-13
-1.78355e-13
-1.78036e-13
-1.77751e-13
-1.7807e-13
-1.78011e-13
-1.77574e-13
-1.77395e-13
-1.77216e-13
-1.76735e-13
-1.76509e-13
-1.76394e-13
-1.7574e-13
-1.75913e-13
-1.76051e-13
-1.75563e-13
-1.75371e-13
-1.75042e-13
-1.74647e-13
-1.74682e-13
-1.74217e-13
-1.74336e-13
-1.74702e-13
-1.73666e-13
-1.73368e-13
-1.73421e-13
-1.72406e-13
-1.71964e-13
-1.71898e-13
-1.71431e-13
-1.71256e-13
-1.71136e-13
-1.70409e-13
-1.69872e-13
-1.69462e-13
-1.68884e-13
-1.68414e-13
-1.67799e-13
-1.67421e-13
-1.67107e-13
-1.66305e-13
-1.65387e-13
-1.64781e-13
-1.64381e-13
-1.63669e-13
-1.62808e-13
-1.61872e-13
-1.61844e-13
-1.60681e-13
-1.59526e-13
-1.59489e-13
-1.58763e-13
-1.5757e-13
-1.56968e-13
-1.56633e-13
-1.55847e-13
-1.55659e-13
-1.54605e-13
-1.53235e-13
-1.5275e-13
-1.522e-13
-1.514e-13
-1.50583e-13
-1.49976e-13
-1.48758e-13
-1.47972e-13
-1.4688e-13
-1.46316e-13
-1.45671e-13
-1.43963e-13
-1.42984e-13
-1.42624e-13
-1.42105e-13
-1.40139e-13
-1.38914e-13
-1.38209e-13
-1.37051e-13
-1.35926e-13
-1.34843e-13
-1.34294e-13
-1.32864e-13
-1.31739e-13
-1.3027e-13
-1.29133e-13
-1.28306e-13
-1.26927e-13
-1.25097e-13
-1.24049e-13
-1.23688e-13
-1.21858e-13
-1.20541e-13
-1.19291e-13
-1.17871e-13
-1.17371e-13
-1.15927e-13
-1.13839e-13
-1.13e-13
-1.12979e-13
-1.11105e-13
-1.09516e-13
-1.08474e-13
-1.07088e-13
-1.06021e-13
-1.05033e-13
-1.03936e-13
-1.03229e-13
-1.02607e-13
-1.01255e-13
-1.00274e-13
-9.94174e-14
-9.82697e-14
-9.723e-14
-9.5889e-14
-9.50067e-14
-9.39871e-14
-9.25183e-14
-9.10303e-14
-8.97628e-14
-8.87979e-14
-8.74758e-14
-8.60346e-14
-8.45075e-14
-8.38748e-14
-8.31441e-14
-8.13035e-14
-7.95711e-14
-7.87161e-14
-7.77183e-14
-7.62252e-14
-7.50459e-14
-7.46144e-14
-7.33495e-14
-7.2259e-14
-7.10906e-14
-7.02901e-14
-6.90988e-14
-6.79441e-14
-6.6936e-14
-6.52219e-14
-6.407e-14
-6.3764e-14
-6.23065e-14
-6.07081e-14
-6.03333e-14
-5.9104e-14
-5.71236e-14
-5.5897e-14
-5.52183e-14
-5.40137e-14
-5.27184e-14
-5.10383e-14
-4.93042e-14
-4.85422e-14
-4.74159e-14
-4.51399e-14
-4.31049e-14
-4.14e-14
-3.93754e-14
-3.67261e-14
-3.3814e-14
-3.07206e-14
-2.63616e-14
-2.53841e-14
-2.72545e-14
-2.99469e-14
-3.24187e-14
-3.44912e-14
-3.58438e-14
-3.70732e-14
-3.81646e-14
-3.90594e-14
-3.97716e-14
-4.03145e-14
-4.09558e-14
-4.17028e-14
-4.20964e-14
-4.26041e-14
-4.30914e-14
-4.3399e-14
-4.41208e-14
-4.46307e-14
-4.51038e-14
-4.58034e-14
-4.62398e-14
-4.64364e-14
-4.67784e-14
-4.69954e-14
-4.72841e-14
-4.78749e-14
-4.83167e-14
-4.85969e-14
-4.88264e-14
-4.91149e-14
-4.94898e-14
-4.97908e-14
-5.01407e-14
-5.05907e-14
-5.09493e-14
-5.11484e-14
-5.15127e-14
-5.18716e-14
-5.19132e-14
-5.21507e-14
-5.23417e-14
-5.23995e-14
-5.24849e-14
-5.25485e-14
-5.25618e-14
-5.24848e-14
-5.24373e-14
-5.23763e-14
-5.22756e-14
-5.22433e-14
-5.18524e-14
-5.15322e-14
-5.11829e-14
-5.06668e-14
-5.01115e-14
-4.96823e-14
-4.92644e-14
-4.86456e-14
-4.79735e-14
-4.72929e-14
-4.67436e-14
-4.63253e-14
-4.57012e-14
-4.51812e-14
-4.46708e-14
-4.41819e-14
-4.3544e-14
-4.29201e-14
-4.23707e-14
-4.17447e-14
-4.11395e-14
-4.05246e-14
-3.99628e-14
-3.9426e-14
-3.87738e-14
-3.81013e-14
-3.73928e-14
-3.67823e-14
-3.64272e-14
-3.57497e-14
-3.49833e-14
-3.44383e-14
-3.39603e-14
-3.35384e-14
-3.32176e-14
-3.28142e-14
-3.25325e-14
-3.20993e-14
-3.17732e-14
-3.1603e-14
-3.10624e-14
-3.07046e-14
-3.03982e-14
-3.00841e-14
-2.97911e-14
-2.94942e-14
-2.93519e-14
-2.90704e-14
-2.91743e-14
-2.8991e-14
-2.87253e-14
-2.86152e-14
-2.8492e-14
-2.85631e-14
-2.86319e-14
-2.83709e-14
-2.8332e-14
-2.87307e-14
-2.86653e-14
-2.87117e-14
-2.87227e-14
-2.89123e-14
-2.90378e-14
-2.91932e-14
-2.95364e-14
-2.95346e-14
-2.94429e-14
-2.97165e-14
-2.98427e-14
-2.98581e-14
-2.98219e-14
-2.99549e-14
-3.03709e-14
-3.06094e-14
-3.07712e-14
-3.10635e-14
-3.11695e-14
-3.13829e-14
-3.18941e-14
-3.21791e-14
-3.22941e-14
-3.23655e-14
-3.2594e-14
-3.29469e-14
-3.34229e-14
-3.37511e-14
-3.43588e-14
-3.51414e-14
-3.56934e-14
-3.63486e-14
-3.72177e-14
-3.82434e-14
-3.90092e-14
-3.97072e-14
-4.08696e-14
-4.19052e-14
-4.2536e-14
-4.35851e-14
-4.46252e-14
-4.54976e-14
-4.66665e-14
-4.74426e-14
-4.83492e-14
-4.96678e-14
-5.07021e-14
-5.18267e-14
-5.32468e-14
-5.44002e-14
-5.57898e-14
-5.68452e-14
-5.79132e-14
-5.87677e-14
-6.00871e-14
-6.12167e-14
-6.24728e-14
-6.38924e-14
-6.49529e-14
-6.62967e-14
-6.76853e-14
-6.86965e-14
-6.99387e-14
-7.11152e-14
-7.22643e-14
-7.36168e-14
-7.51013e-14
-7.6533e-14
-7.79826e-14
-7.95998e-14
-8.11632e-14
-8.26869e-14
-8.39718e-14
-8.55354e-14
-8.682e-14
-8.78054e-14
-8.93848e-14
-9.08078e-14
-9.20236e-14
-9.37542e-14
-9.52393e-14
-9.6548e-14
-9.82954e-14
-9.98057e-14
-1.01188e-13
-1.02603e-13
-1.03694e-13
-1.05014e-13
-1.06317e-13
-1.07481e-13
-1.08751e-13
-1.10032e-13
-1.11169e-13
-1.12522e-13
-1.14055e-13
-1.15384e-13
-1.1651e-13
-1.17608e-13
-1.18937e-13
-1.205e-13
-1.22063e-13
-1.23215e-13
-1.24481e-13
-1.25718e-13
-1.26928e-13
-1.28066e-13
-1.29447e-13
-1.30615e-13
-1.31776e-13
-1.332e-13
-1.34408e-13
-1.35566e-13
-1.36807e-13
-1.37934e-13
-1.39119e-13
-1.4009e-13
-1.41255e-13
-1.42333e-13
-1.42975e-13
-1.43971e-13
-1.45122e-13
-1.45693e-13
-1.46227e-13
-1.47087e-13
-1.47642e-13
-1.4833e-13
-1.49193e-13
-1.49875e-13
-1.50673e-13
-1.51299e-13
-1.5143e-13
-1.5227e-13
-1.52834e-13
-1.53225e-13
-1.53975e-13
-1.54343e-13
-1.5521e-13
-1.55369e-13
-1.55675e-13
-1.56654e-13
-1.57134e-13
-1.57422e-13
-1.58112e-13
-1.58604e-13
-1.59357e-13
-1.60077e-13
-1.60342e-13
-1.61066e-13
-1.61858e-13
-1.62182e-13
-1.62388e-13
-1.63205e-13
-1.63937e-13
-1.64298e-13
-1.64769e-13
-1.6522e-13
-1.65857e-13
-1.6683e-13
-1.67563e-13
-1.68184e-13
-1.68992e-13
-1.69547e-13
-1.70056e-13
-1.70682e-13
-1.70725e-13
-1.71059e-13
-1.7241e-13
-1.72706e-13
-1.7293e-13
-1.73797e-13
-1.7402e-13
-1.74338e-13
-1.74801e-13
-1.75302e-13
-1.75815e-13
-1.75861e-13
-1.76249e-13
-1.76721e-13
-1.76667e-13
-1.76949e-13
-1.77309e-13
-1.77152e-13
-1.7761e-13
-1.78288e-13
-1.78131e-13
-1.786e-13
-1.78957e-13
-1.78648e-13
-1.78623e-13
-1.78982e-13
-1.78881e-13
-1.79382e-13
-1.80018e-13
-1.79738e-13
-1.79961e-13
-1.80358e-13
-1.80063e-13
-1.80394e-13
-1.80936e-13
-1.80656e-13
-1.81047e-13
-1.81371e-13
-1.8097e-13
-1.80771e-13
-1.81153e-13
-1.80833e-13
-1.8067e-13
-1.80627e-13
-1.80726e-13
-1.80859e-13
-1.8092e-13
-1.81116e-13
-1.80747e-13
-1.80662e-13
-1.80335e-13
-1.80049e-13
-1.79565e-13
-1.79748e-13
-1.79782e-13
-1.79408e-13
-1.79599e-13
-1.7933e-13
-1.79371e-13
-1.79466e-13
-1.79312e-13
-1.79181e-13
-1.79508e-13
-1.78983e-13
-1.7878e-13
-1.78992e-13
-1.78191e-13
-1.78153e-13
-1.78025e-13
-1.77794e-13
-1.78097e-13
-1.77696e-13
-1.77192e-13
-1.77324e-13
-1.76798e-13
-1.76334e-13
-1.76469e-13
-1.75993e-13
-1.75652e-13
-1.76e-13
-1.75713e-13
-1.75265e-13
-1.75222e-13
-1.74779e-13
-1.7458e-13
-1.74219e-13
-1.74353e-13
-1.74624e-13
-1.73821e-13
-1.7343e-13
-1.73259e-13
-1.72404e-13
-1.72069e-13
-1.72026e-13
-1.71262e-13
-1.71246e-13
-1.71154e-13
-1.70456e-13
-1.701e-13
-1.69355e-13
-1.68849e-13
-1.68555e-13
-1.67878e-13
-1.67251e-13
-1.67106e-13
-1.66136e-13
-1.65383e-13
-1.65012e-13
-1.64444e-13
-1.63458e-13
-1.62863e-13
-1.62216e-13
-1.61515e-13
-1.60633e-13
-1.59768e-13
-1.59343e-13
-1.58581e-13
-1.5786e-13
-1.56977e-13
-1.56396e-13
-1.55963e-13
-1.55438e-13
-1.54653e-13
-1.53673e-13
-1.52663e-13
-1.52137e-13
-1.51555e-13
-1.50426e-13
-1.49727e-13
-1.4901e-13
-1.48073e-13
-1.47172e-13
-1.46233e-13
-1.4534e-13
-1.44353e-13
-1.4323e-13
-1.42229e-13
-1.41817e-13
-1.40521e-13
-1.38793e-13
-1.38158e-13
-1.37175e-13
-1.36012e-13
-1.34975e-13
-1.34116e-13
-1.32751e-13
-1.31645e-13
-1.30607e-13
-1.29253e-13
-1.28056e-13
-1.26792e-13
-1.25141e-13
-1.24169e-13
-1.23663e-13
-1.21813e-13
-1.20419e-13
-1.19522e-13
-1.17909e-13
-1.17023e-13
-1.1598e-13
-1.14323e-13
-1.13074e-13
-1.12302e-13
-1.10922e-13
-1.09569e-13
-1.08742e-13
-1.07093e-13
-1.05804e-13
-1.05303e-13
-1.04237e-13
-1.03194e-13
-1.02208e-13
-1.01199e-13
-1.00562e-13
-9.93547e-14
-9.81424e-14
-9.71154e-14
-9.62421e-14
-9.53804e-14
-9.378e-14
-9.22979e-14
-9.11263e-14
-8.98404e-14
-8.84645e-14
-8.74017e-14
-8.60062e-14
-8.50209e-14
-8.3875e-14
-8.26311e-14
-8.1161e-14
-7.98781e-14
-7.89279e-14
-7.74011e-14
-7.63563e-14
-7.5186e-14
-7.44903e-14
-7.3409e-14
-7.2307e-14
-7.09721e-14
-7.01975e-14
-6.91559e-14
-6.78832e-14
-6.70275e-14
-6.56205e-14
-6.41483e-14
-6.33529e-14
-6.2304e-14
-6.07683e-14
-6.02853e-14
-5.92131e-14
-5.71119e-14
-5.61808e-14
-5.54351e-14
-5.4016e-14
-5.23714e-14
-5.10929e-14
-4.96482e-14
-4.86482e-14
-4.74046e-14
-4.54468e-14
-4.32257e-14
-4.14566e-14
-3.97447e-14
-3.68703e-14
-3.42734e-14
-3.17995e-14
-2.83692e-14
-2.82031e-14
-2.89956e-14
-3.10825e-14
-3.31531e-14
-3.50054e-14
-3.60724e-14
-3.72737e-14
-3.83938e-14
-3.92535e-14
-3.98763e-14
-4.03447e-14
-4.10038e-14
-4.18458e-14
-4.21493e-14
-4.25706e-14
-4.31952e-14
-4.34388e-14
-4.42133e-14
-4.4749e-14
-4.50624e-14
-4.57967e-14
-4.63975e-14
-4.65049e-14
-4.67806e-14
-4.69485e-14
-4.72935e-14
-4.7923e-14
-4.83607e-14
-4.85925e-14
-4.89272e-14
-4.90923e-14
-4.95224e-14
-4.98612e-14
-5.01381e-14
-5.06335e-14
-5.10351e-14
-5.11658e-14
-5.1499e-14
-5.19637e-14
-5.19869e-14
-5.21749e-14
-5.23479e-14
-5.24168e-14
-5.25428e-14
-5.25586e-14
-5.2567e-14
-5.25e-14
-5.2456e-14
-5.24461e-14
-5.22883e-14
-5.22572e-14
-5.19667e-14
-5.16697e-14
-5.12351e-14
-5.06804e-14
-5.01236e-14
-4.96671e-14
-4.93846e-14
-4.86819e-14
-4.7992e-14
-4.7343e-14
-4.67015e-14
-4.63181e-14
-4.56504e-14
-4.51307e-14
-4.46888e-14
-4.41293e-14
-4.35789e-14
-4.28745e-14
-4.23638e-14
-4.18737e-14
-4.11846e-14
-4.04624e-14
-3.99977e-14
-3.94938e-14
-3.87328e-14
-3.80414e-14
-3.73587e-14
-3.68155e-14
-3.64257e-14
-3.57235e-14
-3.49327e-14
-3.44526e-14
-3.39184e-14
-3.34052e-14
-3.31491e-14
-3.28256e-14
-3.25419e-14
-3.21646e-14
-3.17053e-14
-3.14546e-14
-3.11064e-14
-3.06748e-14
-3.02626e-14
-3.0222e-14
-2.99063e-14
-2.94342e-14
-2.91912e-14
-2.90939e-14
-2.93125e-14
-2.88858e-14
-2.85446e-14
-2.85824e-14
-2.85185e-14
-2.85769e-14
-2.87303e-14
-2.84134e-14
-2.82651e-14
-2.87211e-14
-2.85008e-14
-2.86782e-14
-2.87116e-14
-2.89148e-14
-2.89641e-14
-2.92159e-14
-2.96757e-14
-2.96244e-14
-2.93035e-14
-2.96938e-14
-2.99391e-14
-2.98733e-14
-2.98604e-14
-2.98599e-14
-3.02988e-14
-3.05645e-14
-3.09423e-14
-3.10839e-14
-3.11113e-14
-3.14176e-14
-3.20163e-14
-3.21429e-14
-3.22182e-14
-3.2276e-14
-3.26302e-14
-3.30323e-14
-3.33711e-14
-3.37163e-14
-3.42117e-14
-3.50286e-14
-3.56921e-14
-3.62289e-14
-3.72845e-14
-3.8163e-14
-3.87917e-14
-3.98331e-14
-4.08413e-14
-4.17448e-14
-4.26783e-14
-4.37338e-14
-4.45638e-14
-4.55181e-14
-4.66161e-14
-4.73298e-14
-4.83726e-14
-4.98061e-14
-5.06824e-14
-5.17941e-14
-5.33788e-14
-5.44095e-14
-5.56538e-14
-5.66797e-14
-5.79635e-14
-5.8883e-14
-6.01149e-14
-6.11467e-14
-6.25014e-14
-6.39991e-14
-6.49923e-14
-6.61448e-14
-6.75018e-14
-6.87231e-14
-6.99465e-14
-7.11867e-14
-7.22337e-14
-7.35651e-14
-7.50443e-14
-7.65455e-14
-7.80973e-14
-7.96157e-14
-8.09997e-14
-8.26302e-14
-8.40265e-14
-8.55374e-14
-8.69174e-14
-8.78417e-14
-8.9404e-14
-9.0669e-14
-9.2058e-14
-9.37148e-14
-9.51987e-14
-9.67362e-14
-9.84226e-14
-9.97842e-14
-1.01206e-13
-1.02611e-13
-1.03683e-13
-1.04949e-13
-1.0644e-13
-1.07577e-13
-1.08635e-13
-1.10044e-13
-1.11281e-13
-1.12512e-13
-1.14012e-13
-1.15248e-13
-1.16345e-13
-1.17713e-13
-1.19038e-13
-1.20444e-13
-1.22132e-13
-1.23227e-13
-1.24594e-13
-1.25659e-13
-1.26779e-13
-1.28192e-13
-1.29431e-13
-1.30743e-13
-1.3165e-13
-1.3304e-13
-1.34398e-13
-1.35728e-13
-1.36772e-13
-1.37939e-13
-1.3907e-13
-1.40142e-13
-1.41465e-13
-1.42292e-13
-1.42949e-13
-1.43912e-13
-1.45267e-13
-1.45761e-13
-1.46125e-13
-1.47003e-13
-1.47814e-13
-1.48501e-13
-1.49126e-13
-1.49687e-13
-1.50789e-13
-1.51407e-13
-1.51451e-13
-1.52321e-13
-1.52774e-13
-1.53324e-13
-1.53818e-13
-1.54408e-13
-1.55211e-13
-1.5544e-13
-1.55739e-13
-1.5649e-13
-1.56983e-13
-1.57458e-13
-1.58108e-13
-1.587e-13
-1.59357e-13
-1.60056e-13
-1.6045e-13
-1.61041e-13