/*--------------------------------*- C++ -*----------------------------------*\
| =========                 |                                                 |
| \\      /  F ield         | OpenFOAM: The Open Source CFD Toolbox           |
|  \\    /   O peration     | Version:  2112                                  |
|   \\  /    A nd           | Website:  www.openfoam.com                      |
|    \\/     M anipulation  |                                                 |
\*---------------------------------------------------------------------------*/
FoamFile
{
    version     2.0;
    format      ascii;
    arch        "LSB;label=32;scalar=64";
    class       surfaceScalarField;
    location    "12";
    object      phi;
}
// * * * * * * * * * * * * * * * * * * * * * * * * * * * * * * * * * * * * * //

dimensions      [0 3 -1 0 0 0 0];

oriented        oriented;

internalField   nonuniform List<scalar> 
99400
(
3.00006e-05
1.5285e-18
3.00006e-05
3.14335e-19
3.00006e-05
1.19571e-19
3.00006e-05
8.06894e-20
3.00006e-05
6.87356e-20
3.00006e-05
4.10648e-20
3.00006e-05
2.20439e-20
3.00006e-05
1.40449e-20
3.00006e-05
1.74382e-20
3.00006e-05
1.33675e-20
3.00006e-05
-1.75572e-20
3.00006e-05
-2.48455e-20
3.00006e-05
-1.2068e-20
3.00006e-05
-6.56893e-21
3.00006e-05
8.55761e-21
3.00006e-05
2.30914e-22
3.00006e-05
-4.06718e-20
3.00006e-05
-1.76224e-20
3.00006e-05
-5.83726e-21
3.00006e-05
4.08206e-21
3.00006e-05
1.38458e-20
3.00006e-05
7.76765e-21
3.00006e-05
3.38361e-20
3.00006e-05
2.65801e-21
3.00006e-05
-2.4562e-20
3.00006e-05
-2.77681e-20
3.00006e-05
-5.15907e-21
3.00006e-05
3.27378e-20
3.00006e-05
-2.40672e-20
3.00006e-05
-1.90488e-20
3.00006e-05
2.22801e-21
3.00006e-05
-1.28413e-20
3.00006e-05
-1.17396e-20
3.00006e-05
-8.15627e-21
3.00006e-05
-3.52466e-20
3.00006e-05
1.35834e-20
3.00006e-05
-2.36367e-20
3.00006e-05
-2.56854e-20
3.00006e-05
1.32362e-20
3.00006e-05
-3.44637e-20
3.00006e-05
2.16923e-20
3.00006e-05
-2.42037e-20
3.00006e-05
-8.83496e-21
3.00006e-05
2.40248e-20
3.00006e-05
3.65909e-21
3.00006e-05
3.01375e-20
3.00006e-05
3.47793e-20
3.00006e-05
-3.46363e-20
3.00006e-05
-1.17807e-20
3.00006e-05
4.2989e-20
3.00006e-05
2.60263e-20
3.00006e-05
8.74255e-21
3.00006e-05
-3.53295e-20
3.00006e-05
-8.72601e-21
3.00006e-05
3.56232e-20
3.00006e-05
-2.72026e-20
3.00006e-05
2.94032e-20
3.00006e-05
-1.63536e-20
3.00006e-05
-6.20802e-20
3.00006e-05
8.79447e-21
3.00006e-05
-3.28783e-21
3.00006e-05
-1.42477e-20
3.00006e-05
-2.02432e-20
3.00006e-05
2.4638e-20
3.00006e-05
-8.34979e-21
3.00006e-05
2.33262e-20
3.00006e-05
-4.50728e-20
3.00006e-05
-2.29883e-20
3.00006e-05
4.84509e-20
3.00006e-05
-9.57505e-21
3.00006e-05
-2.23893e-20
3.00006e-05
9.51516e-21
3.00006e-05
5.68916e-20
3.00006e-05
-2.98794e-20
3.00006e-05
-4.32584e-20
3.00006e-05
1.14103e-19
3.00006e-05
4.07751e-20
3.00006e-05
-6.38198e-20
3.00006e-05
-2.23381e-20
3.00006e-05
4.38444e-20
3.00006e-05
6.85104e-21
3.00006e-05
-5.02014e-20
3.00006e-05
5.99517e-21
3.00006e-05
-3.64638e-21
3.00006e-05
-6.04429e-20
3.00006e-05
4.82116e-20
3.00006e-05
2.91196e-21
3.00006e-05
-2.26755e-20
3.00006e-05
2.05971e-21
3.00006e-05
-1.06658e-20
3.00006e-05
3.40124e-20
3.00006e-05
2.70421e-20
3.00006e-05
2.21251e-20
3.00006e-05
1.85769e-20
3.00006e-05
1.25007e-20
3.00006e-05
-1.05675e-19
3.00006e-05
6.95668e-21
3.00006e-05
9.99953e-20
3.00006e-05
-6.57254e-20
3.00006e-05
-4.89584e-20
3.00006e-05
7.23619e-20
3.00006e-05
4.54053e-20
3.00006e-05
-2.02462e-20
3.00006e-05
-3.64065e-20
3.00006e-05
2.72256e-20
3.00006e-05
-1.0973e-21
3.00006e-05
-3.14055e-20
3.00006e-05
-1.90518e-20
3.00006e-05
4.87596e-20
3.00006e-05
7.45668e-20
3.00006e-05
-4.60129e-20
3.00006e-05
-8.80615e-20
3.00006e-05
-2.04439e-20
3.00006e-05
9.86915e-20
3.00006e-05
4.68493e-20
3.00006e-05
-8.47601e-20
3.00006e-05
-6.46749e-20
3.00006e-05
6.19515e-20
3.00006e-05
6.97609e-20
3.00006e-05
-3.80506e-21
3.00006e-05
-2.69783e-20
3.00006e-05
2.27385e-21
3.00006e-05
6.41974e-20
3.00006e-05
-2.27256e-20
3.00006e-05
-6.45472e-20
3.00006e-05
6.67619e-20
3.00006e-05
2.51108e-20
3.00006e-05
-4.06457e-20
3.00006e-05
3.62811e-20
3.00006e-05
2.10012e-20
3.00006e-05
2.5887e-20
3.00006e-05
-5.8219e-21
3.00006e-05
8.5829e-20
3.00006e-05
-6.88917e-20
3.00006e-05
-8.67549e-20
3.00006e-05
5.62377e-20
3.00006e-05
-1.14618e-20
3.00006e-05
-7.12731e-20
3.00006e-05
7.86185e-20
3.00006e-05
5.96432e-20
3.00006e-05
-1.34745e-19
3.00006e-05
-9.04024e-20
3.00006e-05
9.6639e-20
3.00006e-05
1.23813e-19
3.00006e-05
-1.04764e-19
3.00006e-05
-2.50233e-20
3.00006e-05
1.90256e-19
3.00006e-05
-4.35265e-20
3.00006e-05
-1.20443e-19
3.00006e-05
1.06204e-19
3.00006e-05
-6.6414e-20
3.00006e-05
-8.61079e-21
3.00006e-05
1.2126e-19
3.00006e-05
-1.55703e-19
3.00006e-05
-3.69956e-20
3.00006e-05
8.02465e-20
3.00006e-05
-1.04311e-19
3.00006e-05
4.84293e-21
3.00006e-05
8.02884e-21
3.00006e-05
1.28518e-19
3.00006e-05
3.76241e-20
3.00006e-05
-4.46666e-20
3.00006e-05
-2.78857e-20
3.00006e-05
-9.03094e-22
3.00006e-05
-3.5089e-20
3.00006e-05
-1.70563e-20
3.00006e-05
7.33545e-20
3.00006e-05
-1.41528e-19
3.00006e-05
1.21844e-19
3.00006e-05
1.40211e-19
3.00006e-05
-1.42328e-19
3.00006e-05
5.5613e-20
3.00006e-05
1.04795e-19
3.00006e-05
-1.06375e-19
3.00006e-05
-7.71352e-20
3.00006e-05
2.55419e-20
3.00006e-05
1.00292e-19
3.00006e-05
-3.99814e-20
3.00006e-05
-7.08812e-20
3.00006e-05
1.38211e-19
3.00006e-05
-1.52515e-20
3.00006e-05
-7.0842e-20
3.00006e-05
2.91855e-20
3.00006e-05
-5.75976e-20
3.00006e-05
9.05477e-20
3.00006e-05
-1.44819e-20
3.00006e-05
-1.27744e-19
3.00006e-05
-1.86734e-21
3.00006e-05
1.58575e-21
3.00006e-05
-2.60572e-20
3.00006e-05
-7.95092e-20
3.00006e-05
-3.35492e-20
3.00006e-05
-8.26922e-21
3.00006e-05
1.55658e-19
3.00006e-05
4.80172e-20
3.00006e-05
-4.01753e-20
3.00006e-05
8.43001e-20
3.00006e-05
-1.44795e-20
3.00006e-05
-1.70923e-19
3.00006e-05
-4.94918e-20
3.00006e-05
6.6249e-20
3.00006e-05
-1.42557e-19
3.00006e-05
1.31148e-19
3.00006e-05
3.50001e-20
3.00006e-05
4.47701e-20
3.00006e-05
9.83949e-20
3.00006e-05
-1.81256e-19
3.00006e-05
-1.15526e-19
3.00006e-05
3.85885e-20
3.00006e-05
1.08271e-20
3.00006e-05
4.20376e-20
3.00006e-05
2.79775e-20
3.00006e-05
-1.01954e-19
3.00006e-05
1.00491e-19
3.00006e-05
-9.37918e-20
3.00006e-05
6.4794e-21
3.00006e-05
-5.63116e-20
3.00006e-05
-4.5116e-20
3.00006e-05
1.28942e-19
3.00006e-05
1.04845e-19
3.00006e-05
-4.39004e-20
3.00006e-05
-8.19777e-20
3.00006e-05
4.69338e-20
3.00006e-05
-5.6246e-20
3.00006e-05
4.80191e-20
3.00006e-05
-1.58203e-20
3.00006e-05
-3.027e-22
3.00006e-05
7.78462e-20
3.00006e-05
9.61178e-20
3.00006e-05
-7.55902e-21
3.00006e-05
-2.1819e-20
3.00006e-05
-1.23377e-19
3.00006e-05
-7.74689e-21
3.00006e-05
5.25899e-20
3.00006e-05
-1.1391e-19
3.00006e-05
9.55241e-20
3.00006e-05
2.80986e-20
3.00006e-05
3.79198e-20
3.00006e-05
-4.97734e-20
3.00006e-05
-7.1613e-21
3.00006e-05
-1.86903e-21
3.00006e-05
-1.08005e-19
3.00006e-05
2.05441e-20
3.00006e-05
1.83557e-19
3.00006e-05
-5.23139e-20
3.00006e-05
-4.59411e-20
3.00006e-05
8.97946e-20
3.00006e-05
-1.03435e-19
3.00006e-05
7.59495e-21
3.00006e-05
-1.02837e-20
3.00006e-05
-4.83367e-20
3.00006e-05
-1.50275e-20
3.00006e-05
1.60182e-19
3.00006e-05
-3.35488e-20
3.00006e-05
-9.47405e-20
3.00006e-05
1.12404e-19
3.00006e-05
-2.73097e-20
3.00006e-05
-9.16735e-20
3.00006e-05
5.48476e-20
3.00006e-05
-1.21366e-19
3.00006e-05
3.44372e-20
3.00006e-05
2.31701e-19
3.00006e-05
-1.65279e-19
3.00006e-05
7.44434e-20
3.00006e-05
-1.70809e-19
3.00006e-05
-1.41126e-19
3.00006e-05
3.20478e-19
3.00006e-05
-2.07001e-19
3.00006e-05
-9.86057e-20
3.00006e-05
4.58152e-19
3.00006e-05
-1.97179e-19
3.00006e-05
-1.52962e-19
3.00006e-05
1.21053e-19
3.00006e-05
-1.55038e-19
3.00006e-05
1.21653e-19
3.00006e-05
-1.08499e-19
3.00006e-05
-4.46035e-20
3.00006e-05
1.56052e-19
3.00006e-05
1.06208e-19
3.00006e-05
-8.50815e-20
3.00006e-05
-9.85645e-20
3.00006e-05
-1.04044e-19
3.00006e-05
6.21441e-20
3.00006e-05
1.93486e-19
3.00006e-05
-2.37463e-19
3.00006e-05
2.3951e-19
3.00006e-05
4.21886e-20
3.00006e-05
-2.52954e-19
3.00006e-05
1.95506e-19
3.00006e-05
7.48433e-20
3.00006e-05
-2.66681e-19
3.00006e-05
7.40754e-20
3.00006e-05
5.98056e-20
3.00006e-05
-1.72817e-19
3.00006e-05
3.37637e-19
3.00006e-05
8.45097e-20
3.00006e-05
-3.43781e-19
3.00006e-05
8.59285e-20
3.00006e-05
-3.02613e-20
3.00006e-05
-2.0638e-19
3.00006e-05
2.74745e-19
3.00006e-05
-1.32217e-19
3.00006e-05
-9.89547e-20
3.00006e-05
4.13037e-19
3.00006e-05
-1.74264e-19
3.00006e-05
-2.66324e-19
3.00006e-05
2.2464e-19
3.00006e-05
-1.3574e-19
3.00006e-05
-1.56045e-19
3.00006e-05
3.03164e-19
3.00006e-05
9.16214e-20
3.00006e-05
-2.44192e-19
3.00006e-05
1.23966e-19
3.00006e-05
7.61341e-20
3.00006e-05
-1.5311e-19
3.00006e-05
7.66566e-20
3.00006e-05
-9.73785e-20
3.00006e-05
-8.20488e-20
3.00006e-05
-8.87605e-21
3.00006e-05
1.49717e-19
3.00006e-05
1.37923e-19
3.00006e-05
-4.79226e-20
3.00006e-05
-1.47766e-19
3.00006e-05
-4.80167e-20
3.00006e-05
2.10044e-19
3.00006e-05
-8.20104e-20
3.00006e-05
-9.84321e-20
3.00006e-05
-4.92118e-20
3.00006e-05
1.78114e-19
3.00006e-05
1.76159e-19
3.00006e-05
-3.43458e-19
3.00006e-05
5.84719e-21
3.00006e-05
1.79645e-19
3.00006e-05
-2.5686e-19
3.00006e-05
1.3087e-19
3.00006e-05
2.51968e-19
3.00006e-05
-3.19312e-19
3.00006e-05
2.7038e-19
3.00006e-05
1.42581e-19
3.00006e-05
-3.16482e-19
3.00006e-05
5.00954e-20
3.00006e-05
-4.02319e-20
3.00006e-05
-1.12183e-19
3.00006e-05
7.34541e-20
3.00006e-05
1.75576e-19
3.00006e-05
1.77516e-20
3.00006e-05
-3.29122e-20
3.00006e-05
-1.75028e-19
3.00006e-05
-5.62544e-20
3.00006e-05
1.577e-19
3.00006e-05
-9.02589e-20
3.00006e-05
-1.66067e-19
3.00006e-05
7.48904e-20
3.00006e-05
2.10414e-19
3.00006e-05
2.22548e-20
3.00006e-05
-5.63723e-20
3.00006e-05
-1.93967e-19
3.00006e-05
-8.68341e-20
3.00006e-05
1.44093e-19
3.00006e-05
-3.29194e-20
3.00006e-05
1.91006e-19
3.00006e-05
-1.7777e-19
3.00006e-05
-1.15386e-20
3.00006e-05
3.58936e-19
3.00006e-05
-2.38556e-19
3.00006e-05
-6.86237e-20
3.00006e-05
2.87073e-20
3.00006e-05
-3.78019e-20
3.00006e-05
-8.02823e-20
3.00006e-05
3.19359e-19
3.00006e-05
7.69066e-20
3.00006e-05
-2.05391e-19
3.00006e-05
-5.04313e-20
3.00006e-05
-4.0023e-20
3.00006e-05
1.3616e-19
3.00006e-05
-1.0759e-19
3.00006e-05
7.96584e-20
3.00006e-05
-1.19069e-19
3.00006e-05
2.02529e-19
3.00006e-05
5.00029e-20
3.00006e-05
-1.70436e-19
3.00006e-05
-5.94916e-20
3.00006e-05
8.39773e-20
3.00006e-05
5.17717e-20
3.00006e-05
-1.13167e-19
3.00006e-05
3.09995e-19
3.00006e-05
-2.27371e-19
3.00006e-05
5.74269e-20
3.00006e-05
1.45296e-19
3.00006e-05
-1.14107e-19
3.00006e-05
-1.12503e-19
3.00006e-05
8.19089e-20
3.00006e-05
-3.44422e-20
3.00006e-05
-2.3111e-19
3.00006e-05
3.47373e-19
3.00006e-05
1.85808e-19
3.00006e-05
-2.16351e-19
3.00006e-05
-1.51955e-19
3.00006e-05
-7.25059e-20
3.00006e-05
-5.20562e-20
3.00006e-05
1.18101e-19
3.00006e-05
3.59189e-19
3.00006e-05
-2.88953e-19
3.00006e-05
-1.56152e-19
3.00006e-05
-9.2567e-20
3.00006e-05
2.85436e-19
3.00006e-05
2.76824e-19
3.00006e-05
-5.07413e-19
3.00006e-05
-7.31383e-20
3.00006e-05
2.81888e-19
3.00006e-05
3.45485e-19
3.00006e-05
-3.74879e-19
3.00006e-05
3.08385e-20
3.00006e-05
1.3918e-19
3.00006e-05
-8.82848e-20
3.00006e-05
4.65846e-20
3.00006e-05
-2.51618e-19
3.00006e-05
3.87029e-20
3.00006e-05
2.59688e-19
3.00006e-05
1.50624e-19
3.00006e-05
-3.73622e-19
3.00006e-05
-1.38904e-19
3.00006e-05
5.00901e-19
3.00006e-05
-9.38798e-20
3.00006e-05
-2.0376e-19
3.00006e-05
2.92374e-20
3.00006e-05
1.05148e-19
3.00006e-05
3.51664e-20
3.00006e-05
7.54827e-20
3.00006e-05
-1.9278e-19
3.00006e-05
-1.6971e-19
3.00006e-05
4.96489e-19
3.00006e-05
-3.07035e-20
3.00006e-05
-4.70361e-19
3.00006e-05
-2.75655e-20
3.00006e-05
6.05871e-19
3.00006e-05
-1.26935e-19
3.00006e-05
-5.10372e-20
3.00006e-05
-2.83049e-20
3.00006e-05
-2.87856e-19
3.00006e-05
4.3214e-19
3.00006e-05
-2.41967e-19
3.00006e-05
-8.45305e-20
3.00006e-05
-5.43525e-20
3.00006e-05
1.93817e-19
3.00006e-05
8.39218e-20
3.00006e-05
-1.74771e-19
3.00006e-05
9.43704e-20
3.00006e-05
-1.69384e-19
3.00006e-05
2.30388e-19
3.00006e-05
-7.55237e-20
3.00006e-05
8.47823e-20
3.00006e-05
-1.24702e-19
3.00006e-05
1.4113e-19
3.00006e-05
-2.09697e-20
3.00006e-05
-1.7066e-19
3.00006e-05
1.47332e-19
3.00006e-05
6.34722e-20
3.00006e-05
1.59241e-19
3.00006e-05
-5.31848e-19
3.00006e-05
2.92041e-19
3.00006e-05
1.5851e-19
3.00006e-05
6.22632e-20
3.00006e-05
9.03958e-20
3.00006e-05
-4.70707e-19
3.00006e-05
1.35501e-19
3.00006e-05
1.91744e-19
3.00006e-05
-2.36933e-20
3.00006e-05
-1.91086e-19
3.00006e-05
1.32471e-19
3.00006e-05
-8.89961e-20
3.00006e-05
3.49896e-20
3.00006e-05
1.14579e-19
3.00006e-05
-1.836e-19
3.00006e-05
1.95654e-19
3.00006e-05
4.73908e-20
3.00006e-05
9.5907e-20
3.00006e-05
-2.88711e-19
3.00006e-05
5.24651e-20
3.00006e-05
1.50503e-19
3.00006e-05
4.29591e-20
3.00006e-05
-4.66148e-20
3.00006e-05
-1.62536e-19
3.00006e-05
2.67925e-19
3.00006e-05
-3.19569e-19
3.00006e-05
7.22767e-20
3.00006e-05
3.41098e-20
3.00006e-05
-7.71386e-20
3.00006e-05
3.12937e-19
3.00006e-05
-2.1625e-19
3.00006e-05
-2.35235e-19
3.00006e-05
1.91011e-19
3.00006e-05
2.22684e-19
3.00006e-05
-2.67215e-19
3.00006e-05
7.24049e-20
3.00006e-05
-2.64053e-20
3.00006e-05
2.44237e-20
3.00006e-05
2.25192e-19
3.00006e-05
-6.19437e-20
3.4755e-19
8.88017e-05
8.9816e-19
8.88017e-05
3.37799e-19
8.88017e-05
1.5192e-19
8.88017e-05
1.77845e-19
8.88017e-05
1.83418e-19
8.88017e-05
8.37369e-20
8.88017e-05
6.32175e-20
8.88017e-05
6.70403e-20
8.88017e-05
3.87326e-20
8.88017e-05
-1.41121e-20
8.88017e-05
-6.03986e-20
8.88017e-05
-6.22663e-20
8.88017e-05
-2.95693e-20
8.88017e-05
-3.63805e-20
8.88017e-05
-3.67614e-21
8.88017e-05
-2.21225e-20
8.88017e-05
-1.01226e-19
8.88017e-05
-5.31426e-20
8.88017e-05
-8.90236e-21
8.88017e-05
2.44947e-21
8.88017e-05
1.66711e-20
8.88017e-05
5.49327e-20
8.88017e-05
5.13076e-20
8.88017e-05
-5.54816e-21
8.88017e-05
-3.39807e-20
8.88017e-05
-7.24515e-20
8.88017e-05
-1.9437e-21
8.88017e-05
5.40874e-20
8.88017e-05
-6.13043e-20
8.88017e-05
-5.2383e-20
8.88017e-05
-9.39477e-21
8.88017e-05
-2.12691e-21
8.88017e-05
-3.65151e-20
8.88017e-05
-7.34079e-20
8.88017e-05
-8.37413e-20
8.88017e-05
-4.94634e-22
8.88017e-05
-1.07596e-19
8.88017e-05
-7.38074e-20
8.88017e-05
1.02841e-21
8.88017e-05
-9.68042e-20
8.88017e-05
-2.44263e-22
8.88017e-05
-3.32531e-20
8.88017e-05
-2.52547e-20
8.88017e-05
5.87486e-20
8.88017e-05
5.45064e-20
8.88017e-05
6.83152e-20
8.88017e-05
7.55419e-20
8.88017e-05
-5.83656e-20
8.88017e-05
-3.11113e-20
8.88017e-05
7.6272e-20
8.88017e-05
7.56903e-20
8.88017e-05
1.65674e-20
8.88017e-05
-6.785e-20
8.88017e-05
-1.11378e-20
8.88017e-05
5.23582e-20
8.88017e-05
-3.609e-20
8.88017e-05
4.80327e-20
8.88017e-05
-8.00246e-20
8.88017e-05
-1.44106e-19
8.88017e-05
-3.1299e-20
8.88017e-05
-2.63761e-20
8.88017e-05
1.96519e-21
8.88017e-05
-2.55067e-20
8.88017e-05
2.06328e-20
8.88017e-05
3.79973e-21
8.88017e-05
8.58426e-21
8.88017e-05
-1.03198e-19
8.88017e-05
-7.34902e-20
8.88017e-05
1.01738e-19
8.88017e-05
2.26386e-20
8.88017e-05
-2.40057e-20
8.88017e-05
1.87194e-20
8.88017e-05
1.44749e-19
8.88017e-05
-2.22623e-20
8.88017e-05
-9.75829e-20
8.88017e-05
2.53154e-19
8.88017e-05
1.64716e-19
8.88017e-05
-8.98854e-20
8.88017e-05
-1.02471e-19
8.88017e-05
4.9931e-20
8.88017e-05
3.39135e-20
8.88017e-05
-9.99462e-20
8.88017e-05
-3.59698e-20
8.88017e-05
-4.53795e-20
8.88017e-05
-8.1159e-20
8.88017e-05
7.15564e-20
8.88017e-05
-1.57747e-20
8.88017e-05
1.30867e-20
8.88017e-05
5.98657e-21
8.88017e-05
-2.29366e-20
8.88017e-05
1.13882e-19
8.88017e-05
6.63228e-20
8.88017e-05
5.11077e-20
8.88017e-05
4.8595e-20
8.88017e-05
3.55453e-21
8.88017e-05
-1.91212e-19
8.88017e-05
-2.44883e-20
8.88017e-05
2.28624e-19
8.88017e-05
-1.26511e-19
8.88017e-05
-1.20656e-19
8.88017e-05
1.89648e-19
8.88017e-05
1.50093e-19
8.88017e-05
-4.11983e-20
8.88017e-05
-1.14385e-19
8.88017e-05
3.12228e-20
8.88017e-05
6.14971e-20
8.88017e-05
-4.93158e-20
8.88017e-05
-8.45418e-20
8.88017e-05
1.46526e-19
8.88017e-05
1.50146e-19
8.88017e-05
-1.27137e-19
8.88017e-05
-1.86747e-19
8.88017e-05
-7.75293e-20
8.88017e-05
2.19421e-19
8.88017e-05
1.2951e-19
8.88017e-05
-1.9146e-19
8.88017e-05
-1.32776e-19
8.88017e-05
1.32998e-19
8.88017e-05
1.7739e-19
8.88017e-05
2.07291e-20
8.88017e-05
-4.87698e-20
8.88017e-05
4.97428e-20
8.88017e-05
1.15251e-19
8.88017e-05
-5.75505e-20
8.88017e-05
-1.13876e-19
8.88017e-05
1.29136e-19
8.88017e-05
5.92453e-20
8.88017e-05
-4.67189e-20
8.88017e-05
9.9415e-20
8.88017e-05
7.01462e-20
8.88017e-05
9.65528e-20
8.88017e-05
1.84078e-20
8.88017e-05
1.60002e-19
8.88017e-05
-1.30044e-19
8.88017e-05
-1.85579e-19
8.88017e-05
9.40889e-20
8.88017e-05
-9.2439e-20
8.88017e-05
-1.15994e-19
8.88017e-05
1.92091e-19
8.88017e-05
1.37364e-19
8.88017e-05
-2.98312e-19
8.88017e-05
-2.28442e-19
8.88017e-05
2.35563e-19
8.88017e-05
3.16436e-19
8.88017e-05
-2.42156e-19
8.88017e-05
-4.20728e-20
8.88017e-05
4.35464e-19
8.88017e-05
-5.6869e-20
8.88017e-05
-2.31667e-19
8.88017e-05
1.60772e-19
8.88017e-05
-1.28427e-19
8.88017e-05
3.6858e-20
8.88017e-05
1.8692e-19
8.88017e-05
-3.57413e-19
8.88017e-05
-7.68378e-20
8.88017e-05
1.27655e-19
8.88017e-05
-1.71774e-19
8.88017e-05
-1.65606e-20
8.88017e-05
2.59972e-21
8.88017e-05
3.52851e-19
8.88017e-05
1.37582e-19
8.88017e-05
-8.78305e-20
8.88017e-05
-8.23496e-20
8.88017e-05
-7.78486e-20
8.88017e-05
-8.24702e-20
8.88017e-05
9.93502e-21
8.88017e-05
1.19096e-19
8.88017e-05
-2.20725e-19
8.88017e-05
2.66431e-19
8.88017e-05
3.15891e-19
8.88017e-05
-2.06664e-19
8.88017e-05
5.90271e-20
8.88017e-05
2.28107e-19
8.88017e-05
-1.43391e-19
8.88017e-05
-2.62499e-19
8.88017e-05
7.39404e-20
8.88017e-05
2.99983e-19
8.88017e-05
-1.0014e-19
8.88017e-05
-1.41318e-19
8.88017e-05
3.25315e-19
8.88017e-05
-1.23786e-20
8.88017e-05
-1.93901e-19
8.88017e-05
-3.31445e-20
8.88017e-05
-9.09305e-20
8.88017e-05
1.47154e-19
8.88017e-05
-5.23933e-20
8.88017e-05
-2.89877e-19
8.88017e-05
-1.27564e-19
8.88017e-05
2.04144e-20
8.88017e-05
-9.75671e-20
8.88017e-05
-1.95581e-19
8.88017e-05
-1.00075e-19
8.88017e-05
4.11412e-20
8.88017e-05
3.7423e-19
8.88017e-05
7.63713e-20
8.88017e-05
-3.0961e-20
8.88017e-05
2.56837e-19
8.88017e-05
-1.28462e-19
8.88017e-05
-4.46285e-19
8.88017e-05
-1.10718e-19
8.88017e-05
3.02442e-20
8.88017e-05
-2.88634e-19
8.88017e-05
3.22207e-19
8.88017e-05
8.67347e-20
8.88017e-05
1.3868e-19
8.88017e-05
2.80505e-19
8.88017e-05
-4.5959e-19
8.88017e-05
-3.82395e-19
8.88017e-05
3.44792e-20
8.88017e-05
7.09598e-20
8.88017e-05
4.78613e-20
8.88017e-05
9.91375e-20
8.88017e-05
-1.44326e-19
8.88017e-05
1.00237e-19
8.88017e-05
-2.3825e-19
8.88017e-05
4.774e-20
8.88017e-05
-1.80464e-19
8.88017e-05
-1.14581e-19
8.88017e-05
4.03664e-19
8.88017e-05
2.21596e-19
8.88017e-05
-1.1399e-19
8.88017e-05
-1.25857e-19
8.88017e-05
9.98975e-20
8.88017e-05
-1.25964e-19
8.88017e-05
6.89605e-20
8.88017e-05
1.68642e-20
8.88017e-05
-5.61187e-21
8.88017e-05
1.7374e-19
8.88017e-05
2.68603e-19
8.88017e-05
-5.27507e-20
8.88017e-05
-3.86916e-20
8.88017e-05
-2.34376e-19
8.88017e-05
-1.66933e-19
8.88017e-05
1.13522e-19
8.88017e-05
-1.67504e-19
8.88017e-05
1.5843e-19
8.88017e-05
1.13075e-19
8.88017e-05
-1.31508e-20
8.88017e-05
-6.23755e-20
8.88017e-05
-3.27314e-20
8.88017e-05
-3.56187e-20
8.88017e-05
-2.00317e-19
8.88017e-05
4.3979e-21
8.88017e-05
4.2214e-19
8.88017e-05
-1.75623e-20
8.88017e-05
-1.15258e-19
8.88017e-05
1.30888e-19
8.88017e-05
-2.14876e-19
8.88017e-05
-1.63709e-20
8.88017e-05
4.15104e-20
8.88017e-05
-1.27791e-19
8.88017e-05
-4.36224e-20
8.88017e-05
3.02795e-19
8.88017e-05
3.65203e-21
8.88017e-05
-1.4914e-19
8.88017e-05
1.41042e-19
8.88017e-05
-3.73259e-20
8.88017e-05
-1.76054e-19
8.88017e-05
-6.85167e-21
8.88017e-05
-2.84546e-19
8.88017e-05
1.71508e-19
8.88017e-05
4.96439e-19
8.88017e-05
-2.0356e-19
8.88017e-05
4.90798e-20
8.88017e-05
-4.62443e-19
8.88017e-05
-3.79803e-19
8.88017e-05
7.05372e-19
8.88017e-05
-3.10621e-19
8.88017e-05
-2.52344e-19
8.88017e-05
9.21366e-19
8.88017e-05
-3.272e-19
8.88017e-05
-3.57872e-19
8.88017e-05
1.81451e-19
8.88017e-05
-3.17126e-19
8.88017e-05
8.25688e-20
8.88017e-05
-6.1731e-20
8.88017e-05
-9.05432e-20
8.88017e-05
2.59213e-19
8.88017e-05
2.57045e-19
8.88017e-05
-1.14901e-19
8.88017e-05
-2.57954e-19
8.88017e-05
-3.69644e-19
8.88017e-05
1.67892e-19
8.88017e-05
5.09168e-19
8.88017e-05
-4.68078e-19
8.88017e-05
4.7857e-19
8.88017e-05
2.02615e-19
8.88017e-05
-6.1274e-19
8.88017e-05
4.57688e-19
8.88017e-05
1.18403e-19
8.88017e-05
-6.26086e-19
8.88017e-05
1.74894e-19
8.88017e-05
1.74492e-19
8.88017e-05
-3.22599e-19
8.88017e-05
7.53938e-19
8.88017e-05
1.10492e-19
8.88017e-05
-6.87638e-19
8.88017e-05
1.01276e-19
8.88017e-05
-1.34155e-19
8.88017e-05
-3.89107e-19
8.88017e-05
4.39807e-19
8.88017e-05
-1.00872e-19
8.88017e-05
-2.19584e-19
8.88017e-05
8.04137e-19
8.88017e-05
-2.82245e-19
8.88017e-05
-6.48163e-19
8.88017e-05
3.00075e-19
8.88017e-05
-2.2175e-19
8.88017e-05
-2.62544e-19
8.88017e-05
5.63176e-19
8.88017e-05
2.84442e-19
8.88017e-05
-4.24571e-19
8.88017e-05
1.70634e-19
8.88017e-05
1.72759e-19
8.88017e-05
-2.58523e-19
8.88017e-05
1.11245e-21
8.88017e-05
-2.18652e-19
8.88017e-05
-1.60193e-19
8.88017e-05
-5.20939e-20
8.88017e-05
3.75567e-19
8.88017e-05
3.88535e-19
8.88017e-05
-1.73229e-19
8.88017e-05
-3.29323e-19
8.88017e-05
-1.00465e-21
8.88017e-05
3.47487e-19
8.88017e-05
-1.60255e-19
8.88017e-05
-1.63672e-19
8.88017e-05
-7.90156e-20
8.88017e-05
3.40559e-19
8.88017e-05
3.74364e-19
8.88017e-05
-6.40391e-19
8.88017e-05
-5.80894e-20
8.88017e-05
2.83227e-19
8.88017e-05
-4.262e-19
8.88017e-05
2.49067e-19
8.88017e-05
5.026e-19
8.88017e-05
-3.96438e-19
8.88017e-05
4.47387e-19
8.88017e-05
2.52811e-19
8.88017e-05
-5.59492e-19
8.88017e-05
-9.15996e-21
8.88017e-05
-2.37348e-19
8.88017e-05
-1.05424e-19
8.88017e-05
1.83082e-19
8.88017e-05
2.63038e-19
8.88017e-05
1.6497e-19
8.88017e-05
-1.1221e-19
8.88017e-05
-4.8541e-19
8.88017e-05
-5.71178e-20
8.88017e-05
3.39189e-19
8.88017e-05
-3.89709e-19
8.88017e-05
-2.80966e-19
8.88017e-05
2.0377e-19
8.88017e-05
3.8022e-19
8.88017e-05
1.79763e-19
8.88017e-05
-1.61343e-19
8.88017e-05
-5.23161e-19
8.88017e-05
-1.50806e-19
8.88017e-05
1.87925e-19
8.88017e-05
-3.28991e-21
8.88017e-05
5.28255e-19
8.88017e-05
-4.07718e-19
8.88017e-05
1.68166e-20
8.88017e-05
7.60818e-19
8.88017e-05
-4.52601e-19
8.88017e-05
-2.31596e-19
8.88017e-05
2.48588e-20
8.88017e-05
-8.25712e-20
8.88017e-05
-8.17138e-20
8.88017e-05
7.24261e-19
8.88017e-05
1.45728e-19
8.88017e-05
-4.34964e-19
8.88017e-05
-8.73486e-20
8.88017e-05
-7.92033e-20
8.88017e-05
1.85796e-19
8.88017e-05
-1.83523e-19
8.88017e-05
1.03029e-19
8.88017e-05
-1.18484e-19
8.88017e-05
4.54035e-19
8.88017e-05
-5.58151e-23
8.88017e-05
-3.66993e-19
8.88017e-05
-7.68897e-20
8.88017e-05
1.71986e-19
8.88017e-05
8.35764e-20
8.88017e-05
-2.28178e-19
8.88017e-05
8.01952e-19
8.88017e-05
-3.46864e-19
8.88017e-05
-1.01075e-19
8.88017e-05
3.86293e-19
8.88017e-05
-1.453e-19
8.88017e-05
-4.07753e-19
8.88017e-05
1.18909e-19
8.88017e-05
-4.95307e-21
8.88017e-05
-4.69098e-19
8.88017e-05
8.62509e-19
8.88017e-05
3.85224e-19
8.88017e-05
-6.51865e-19
8.88017e-05
-2.68795e-19
8.88017e-05
-1.95382e-19
8.88017e-05
-1.74162e-19
8.88017e-05
2.87184e-19
8.88017e-05
7.3615e-19
8.88017e-05
-5.9073e-19
8.88017e-05
-2.93449e-19
8.88017e-05
-2.97547e-19
8.88017e-05
5.52112e-19
8.88017e-05
7.61012e-19
8.88017e-05
-1.03569e-18
8.88017e-05
-3.76033e-19
8.88017e-05
7.18235e-19
8.88017e-05
9.04903e-19
8.88017e-05
-7.93217e-19
8.88017e-05
4.31996e-20
8.88017e-05
2.77675e-19
8.88017e-05
-1.59641e-19
8.88017e-05
-1.23567e-20
8.88017e-05
-6.14666e-19
8.88017e-05
2.43991e-19
8.88017e-05
5.0943e-19
8.88017e-05
2.8909e-19
8.88017e-05
-7.41616e-19
8.88017e-05
-2.5737e-19
8.88017e-05
9.37921e-19
8.88017e-05
-4.41412e-20
8.88017e-05
-3.85776e-19
8.88017e-05
-1.07905e-19
8.88017e-05
3.6027e-19
8.88017e-05
1.33193e-19
8.88017e-05
1.16467e-19
8.88017e-05
-4.59177e-19
8.88017e-05
-3.49321e-19
8.88017e-05
1.04161e-18
8.88017e-05
1.40167e-19
8.88017e-05
-1.11046e-18
8.88017e-05
-1.88898e-19
8.88017e-05
1.49048e-18
8.88017e-05
-1.29555e-19
8.88017e-05
-2.08611e-19
8.88017e-05
-1.18177e-19
8.88017e-05
-4.95344e-19
8.88017e-05
6.9558e-19
8.88017e-05
-3.71236e-19
8.88017e-05
-2.57988e-19
8.88017e-05
-6.97992e-20
8.88017e-05
4.23985e-19
8.88017e-05
1.40121e-19
8.88017e-05
-2.90756e-19
8.88017e-05
1.05517e-19
8.88017e-05
-2.98417e-19
8.88017e-05
5.16378e-19
8.88017e-05
-1.13863e-19
8.88017e-05
2.51495e-20
8.88017e-05
-4.69156e-20
8.88017e-05
2.80544e-19
8.88017e-05
-1.7265e-19
8.88017e-05
-2.97015e-19
8.88017e-05
3.12058e-19
8.88017e-05
1.69589e-19
8.88017e-05
3.18513e-19
8.88017e-05
-1.07319e-18
8.88017e-05
5.03344e-19
8.88017e-05
7.0869e-19
8.88017e-05
1.01551e-19
8.88017e-05
-1.41388e-19
8.88017e-05
-8.13279e-19
8.88017e-05
3.64389e-19
8.88017e-05
2.01867e-19
8.88017e-05
-7.65958e-20
8.88017e-05
-1.41483e-19
8.88017e-05
1.17253e-19
8.88017e-05
-1.93149e-19
8.88017e-05
6.10456e-20
8.88017e-05
2.47648e-19
8.88017e-05
-2.32924e-19
8.88017e-05
3.88963e-19
8.88017e-05
2.40376e-19
8.88017e-05
3.54718e-20
8.88017e-05
-6.15727e-19
8.88017e-05
3.49121e-19
8.88017e-05
2.38589e-19
8.88017e-05
-7.56382e-20
8.88017e-05
4.80588e-20
8.88017e-05
-2.24719e-19
8.88017e-05
2.54011e-19
8.88017e-05
-6.40408e-19
8.88017e-05
1.29397e-19
8.88017e-05
7.49771e-20
8.88017e-05
3.96199e-20
8.88017e-05
4.53275e-19
8.88017e-05
-6.03863e-19
8.88017e-05
-2.92734e-19
8.88017e-05
5.15578e-19
8.88017e-05
2.19362e-19
8.88017e-05
-5.2471e-19
8.88017e-05
1.02974e-19
8.88017e-05
-2.60344e-20
8.88017e-05
9.16992e-20
8.88017e-05
3.30641e-19
8.88017e-05
-1.12121e-19
3.96682e-19
0.000146403
5.65763e-19
0.000146403
3.08723e-19
0.000146403
1.79274e-19
0.000146403
2.43404e-19
0.000146403
2.59319e-19
0.000146403
1.3988e-19
0.000146403
9.79141e-20
0.000146403
1.53807e-19
0.000146403
3.58887e-20
0.000146403
-7.09669e-20
0.000146403
-1.11367e-19
0.000146403
-1.61279e-19
0.000146403
-1.24873e-19
0.000146403
-6.17764e-20
0.000146403
-3.46613e-20
0.000146403
-7.14114e-20
0.000146403
-8.70803e-20
0.000146403
-9.4133e-20
0.000146403
2.27673e-20
0.000146403
4.48603e-20
0.000146403
4.79421e-21
0.000146403
7.46587e-20
0.000146403
7.20048e-20
0.000146403
-3.281e-21
0.000146403
-4.88764e-20
0.000146403
-1.18124e-19
0.000146403
-4.46689e-20
0.000146403
7.74258e-20
0.000146403
-8.00033e-20
0.000146403
-1.10388e-19
0.000146403
-6.42364e-20
0.000146403
-2.55679e-20
0.000146403
-2.64421e-20
0.000146403
-1.39799e-19
0.000146403
-1.58992e-19
0.000146403
-6.79652e-20
0.000146403
-2.29002e-19
0.000146403
-1.25509e-19
0.000146403
-6.47219e-21
0.000146403
-1.39685e-19
0.000146403
-4.58392e-20
0.000146403
-1.27374e-19
0.000146403
-6.51125e-20
0.000146403
8.62468e-20
0.000146403
1.4086e-19
0.000146403
1.55807e-19
0.000146403
9.35037e-20
0.000146403
-5.73294e-20
0.000146403
-2.69577e-21
0.000146403
1.19643e-19
0.000146403
1.3337e-19
0.000146403
3.82932e-20
0.000146403
-1.35782e-19
0.000146403
-5.03006e-20
0.000146403
7.54604e-20
0.000146403
-6.48066e-20
0.000146403
-1.2809e-20
0.000146403
-1.99943e-19
0.000146403
-1.75528e-19
0.000146403
-4.67248e-20
0.000146403
-7.78035e-20
0.000146403
-1.83642e-20
0.000146403
-5.29683e-20
0.000146403
-2.99964e-20
0.000146403
5.4724e-21
0.000146403
5.27827e-20
0.000146403
-1.84614e-19
0.000146403
-1.70178e-19
0.000146403
1.47653e-19
0.000146403
1.13493e-19
0.000146403
6.87938e-20
0.000146403
2.17179e-20
0.000146403
2.12738e-19
0.000146403
2.83392e-20
0.000146403
-1.68064e-19
0.000146403
3.68979e-19
0.000146403
3.42707e-19
0.000146403
-7.72083e-20
0.000146403
-1.60927e-19
0.000146403
7.42857e-20
0.000146403
4.61737e-20
0.000146403
-1.4863e-19
0.000146403
-1.1236e-19
0.000146403
-6.35693e-20
0.000146403
-1.10029e-19
0.000146403
3.52552e-20
0.000146403
-2.95142e-20
0.000146403
4.50643e-20
0.000146403
1.8978e-20
0.000146403
1.40212e-20
0.000146403
1.75957e-19
0.000146403
8.43256e-20
0.000146403
1.29998e-19
0.000146403
1.26816e-19
0.000146403
-6.22712e-21
0.000146403
-2.59299e-19
0.000146403
-2.01549e-20
0.000146403
2.78604e-19
0.000146403
-1.9585e-19
0.000146403
-1.62489e-19
0.000146403
2.93835e-19
0.000146403
2.30251e-19
0.000146403
-2.00769e-20
0.000146403
-2.01829e-19
0.000146403
3.10391e-20
0.000146403
1.45466e-19
0.000146403
-6.97349e-20
0.000146403
-1.40541e-19
0.000146403
2.49919e-19
0.000146403
1.30386e-19
0.000146403
-2.00782e-19
0.000146403
-2.46408e-19
0.000146403
-9.28769e-20
0.000146403
3.08269e-19
0.000146403
2.06542e-19
0.000146403
-2.10502e-19
0.000146403
-2.14251e-19
0.000146403
1.41979e-19
0.000146403
2.6638e-19
0.000146403
9.14909e-20
0.000146403
-5.48288e-21
0.000146403
8.99042e-20
0.000146403
1.19376e-19
0.000146403
-5.39412e-20
0.000146403
-7.09115e-20
0.000146403
1.60607e-19
0.000146403
9.38526e-20
0.000146403
1.94714e-20
0.000146403
1.45352e-19
0.000146403
1.91874e-19
0.000146403
2.22899e-19
0.000146403
1.41748e-20
0.000146403
1.29006e-19
0.000146403
-1.26692e-19
0.000146403
-2.02695e-19
0.000146403
1.01251e-19
0.000146403
-2.19567e-19
0.000146403
-1.64915e-19
0.000146403
3.02476e-19
0.000146403
1.51454e-19
0.000146403
-4.05657e-19
0.000146403
-3.65175e-19
0.000146403
4.11153e-19
0.000146403
5.24065e-19
0.000146403
-3.65155e-19
0.000146403
-4.36171e-20
0.000146403
6.62746e-19
0.000146403
-6.98975e-20
0.000146403
-3.01373e-19
0.000146403
1.46508e-19
0.000146403
-1.72319e-19
0.000146403
1.14699e-19
0.000146403
1.51305e-19
0.000146403
-5.01688e-19
0.000146403
-6.61648e-20
0.000146403
1.21344e-19
0.000146403
-2.34524e-19
0.000146403
-5.39024e-20
0.000146403
2.10358e-21
0.000146403
5.78641e-19
0.000146403
2.79934e-19
0.000146403
-1.13115e-19
0.000146403
-1.78523e-19
0.000146403
-1.54687e-19
0.000146403
-4.35438e-20
0.000146403
2.25372e-20
0.000146403
1.26723e-19
0.000146403
-1.91301e-19
0.000146403
3.85498e-19
0.000146403
3.97884e-19
0.000146403
-2.08749e-19
0.000146403
3.87604e-20
0.000146403
3.05613e-19
0.000146403
-1.59107e-19
0.000146403
-4.05421e-19
0.000146403
1.5204e-19
0.000146403
4.81116e-19
0.000146403
-1.61721e-19
0.000146403
-2.19721e-19
0.000146403
4.45564e-19
0.000146403
1.86207e-20
0.000146403
-3.27617e-19
0.000146403
-9.41625e-20
0.000146403
-1.1818e-19
0.000146403
6.19475e-20
0.000146403
-1.16524e-19
0.000146403
-4.19156e-19
0.000146403
-3.20396e-19
0.000146403
-7.81898e-21
0.000146403
-1.66945e-19
0.000146403
-3.96031e-19
0.000146403