/*--------------------------------*- C++ -*----------------------------------*\
| =========                 |                                                 |
| \\      /  F ield         | OpenFOAM: The Open Source CFD Toolbox           |
|  \\    /   O peration     | Version:  2112                                  |
|   \\  /    A nd           | Website:  www.openfoam.com                      |
|    \\/     M anipulation  |                                                 |
\*---------------------------------------------------------------------------*/
FoamFile
{
    version     2.0;
    format      ascii;
    arch        "LSB;label=32;scalar=64";
    class       volVectorField;
    location    "12";
    object      U;
}
// * * * * * * * * * * * * * * * * * * * * * * * * * * * * * * * * * * * * * //

dimensions      [0 1 -1 0 0 0 0];

internalField   nonuniform List<vector> 
50000
(
(0.0300006 3.95055e-16 0)
(0.0300006 8.05015e-17 0)
(0.0300006 8.08126e-17 0)
(0.0300006 3.67813e-17 0)
(0.0300006 2.3998e-17 0)
(0.0300006 1.38211e-17 0)
(0.0300006 8.24118e-18 0)
(0.0300006 2.61498e-18 0)
(0.0300006 6.05463e-18 0)
(0.0300006 9.41348e-18 0)
(0.0300006 -1.00302e-18 0)
(0.0300006 -3.19757e-18 0)
(0.0300006 6.01821e-19 0)
(0.0300006 1.44453e-18 0)
(0.0300006 5.60519e-18 0)
(0.0300006 1.71357e-18 0)
(0.0300006 -1.0033e-17 0)
(0.0300006 8.14407e-19 0)
(0.0300006 -1.07042e-18 0)
(0.0300006 -9.62327e-19 0)
(0.0300006 8.06417e-18 0)
(0.0300006 5.65995e-19 0)
(0.0300006 3.3464e-18 0)
(0.0300006 2.36156e-19 0)
(0.0300006 -4.81782e-18 0)
(0.0300006 -3.53113e-18 0)
(0.0300006 4.09505e-19 0)
(0.0300006 1.35074e-17 0)
(0.0300006 -7.72678e-18 0)
(0.0300006 -2.27596e-18 0)
(0.0300006 5.98969e-18 0)
(0.0300006 -1.15834e-17 0)
(0.0300006 -3.08485e-18 0)
(0.0300006 9.25161e-18 0)
(0.0300006 -7.68069e-18 0)
(0.0300006 6.29213e-18 0)
(0.0300006 -2.36696e-18 0)
(0.0300006 -3.21994e-18 0)
(0.0300006 5.2861e-18 0)
(0.0300006 -9.66787e-18 0)
(0.0300006 8.08077e-18 0)
(0.0300006 -6.97474e-18 0)
(0.0300006 1.06715e-17 0)
(0.0300006 8.19994e-18 0)
(0.0300006 -1.40638e-17 0)
(0.0300006 2.28386e-18 0)
(0.0300006 1.42528e-17 0)
(0.0300006 -9.54098e-18 0)
(0.0300006 -7.18713e-18 0)
(0.0300006 1.07978e-17 0)
(0.0300006 4.33326e-18 0)
(0.0300006 1.16877e-17 0)
(0.0300006 -1.23896e-17 0)
(0.0300006 -9.64347e-18 0)
(0.0300006 1.26751e-17 0)
(0.0300006 -4.16276e-18 0)
(0.0300006 1.68384e-17 0)
(0.0300006 -8.33449e-18 0)
(0.0300006 -2.02781e-17 0)
(0.0300006 1.16131e-17 0)
(0.0300006 7.06459e-18 0)
(0.0300006 -9.50558e-18 0)
(0.0300006 -2.85824e-18 0)
(0.0300006 1.17521e-17 0)
(0.0300006 -1.93849e-17 0)
(0.0300006 2.39711e-18 0)
(0.0300006 4.73136e-18 0)
(0.0300006 9.37368e-18 0)
(0.0300006 5.19934e-18 0)
(0.0300006 -1.08289e-17 0)
(0.0300006 -1.16547e-17 0)
(0.0300006 1.31095e-19 0)
(0.0300006 2.50468e-17 0)
(0.0300006 -1.44412e-17 0)
(0.0300006 -1.51556e-17 0)
(0.0300006 3.54884e-17 0)
(0.0300006 4.79397e-18 0)
(0.0300006 -2.8638e-17 0)
(0.0300006 -6.40067e-18 0)
(0.0300006 1.62359e-17 0)
(0.0300006 3.19409e-18 0)
(0.0300006 -1.00229e-17 0)
(0.0300006 8.62927e-19 0)
(0.0300006 1.18207e-17 0)
(0.0300006 -2.55872e-17 0)
(0.0300006 1.41311e-17 0)
(0.0300006 1.72246e-17 0)
(0.0300006 -2.00164e-17 0)
(0.0300006 -1.89697e-18 0)
(0.0300006 -1.21028e-17 0)
(0.0300006 8.61361e-18 0)
(0.0300006 2.08867e-17 0)
(0.0300006 -9.58365e-18 0)
(0.0300006 1.72004e-18 0)
(0.0300006 1.21801e-17 0)
(0.0300006 -4.20375e-17 0)
(0.0300006 8.81483e-18 0)
(0.0300006 3.24575e-17 0)
(0.0300006 -2.16388e-17 0)
(0.0300006 -8.02861e-18 0)
(0.0300006 1.24003e-17 0)
(0.0300006 2.38702e-17 0)
(0.0300006 -2.31059e-17 0)
(0.0300006 -2.52435e-17 0)
(0.0300006 4.22672e-17 0)
(0.0300006 -1.51218e-17 0)
(0.0300006 -2.53517e-17 0)
(0.0300006 1.32542e-17 0)
(0.0300006 6.87716e-18 0)
(0.0300006 2.78548e-17 0)
(0.0300006 -2.44083e-17 0)
(0.0300006 -2.86194e-17 0)
(0.0300006 1.57171e-17 0)
(0.0300006 8.75579e-18 0)
(0.0300006 2.49176e-17 0)
(0.0300006 -5.68445e-18 0)
(0.0300006 -4.56852e-17 0)
(0.0300006 6.47649e-18 0)
(0.0300006 2.66568e-17 0)
(0.0300006 -5.79974e-19 0)
(0.0300006 -5.01742e-18 0)
(0.0300006 -2.34144e-18 0)
(0.0300006 2.86058e-17 0)
(0.0300006 -4.21972e-18 0)
(0.0300006 -4.60176e-17 0)
(0.0300006 2.68729e-17 0)
(0.0300006 2.29754e-17 0)
(0.0300006 -2.48688e-17 0)
(0.0300006 3.30612e-18 0)
(0.0300006 1.35344e-18 0)
(0.0300006 -1.45142e-17 0)
(0.0300006 -2.27494e-18 0)
(0.0300006 2.86104e-17 0)
(0.0300006 -5.7364e-18 0)
(0.0300006 -1.11242e-17 0)
(0.0300006 7.5161e-18 0)
(0.0300006 1.50238e-17 0)
(0.0300006 -3.02643e-17 0)
(0.0300006 1.02276e-17 0)
(0.0300006 2.65982e-17 0)
(0.0300006 -3.33094e-17 0)
(0.0300006 -3.34584e-17 0)
(0.0300006 1.35796e-17 0)
(0.0300006 3.50901e-17 0)
(0.0300006 -1.9273e-17 0)
(0.0300006 -2.715e-18 0)
(0.0300006 4.83158e-17 0)
(0.0300006 -2.9405e-17 0)
(0.0300006 -3.71444e-17 0)
(0.0300006 3.59873e-17 0)
(0.0300006 -9.79568e-18 0)
(0.0300006 1.28388e-18 0)
(0.0300006 3.40268e-17 0)
(0.0300006 -4.20991e-17 0)
(0.0300006 -1.29423e-18 0)
(0.0300006 3.04743e-17 0)
(0.0300006 -5.51236e-17 0)
(0.0300006 -1.77434e-17 0)
(0.0300006 3.60516e-17 0)
(0.0300006 5.94918e-17 0)
(0.0300006 -3.38844e-17 0)
(0.0300006 -6.70698e-18 0)
(0.0300006 -4.21255e-18 0)
(0.0300006 -9.51204e-19 0)
(0.0300006 -5.00253e-18 0)
(0.0300006 -6.26117e-18 0)
(0.0300006 1.10799e-17 0)
(0.0300006 -5.76971e-17 0)
(0.0300006 7.57397e-17 0)
(0.0300006 1.81631e-17 0)
(0.0300006 -7.77411e-17 0)
(0.0300006 6.43443e-17 0)
(0.0300006 2.92059e-17 0)
(0.0300006 -7.06045e-17 0)
(0.0300006 8.8333e-18 0)
(0.0300006 3.03361e-18 0)
(0.0300006 1.18418e-17 0)
(0.0300006 -9.42519e-18 0)
(0.0300006 -1.05581e-17 0)
(0.0300006 4.35061e-17 0)
(0.0300006 -4.05394e-17 0)
(0.0300006 -8.928e-18 0)
(0.0300006 3.22293e-17 0)
(0.0300006 -2.90516e-17 0)
(0.0300006 4.55166e-17 0)
(0.0300006 -3.21408e-18 0)
(0.0300006 -5.29561e-17 0)
(0.0300006 3.85543e-17 0)
(0.0300006 4.76013e-18 0)
(0.0300006 -2.18464e-17 0)
(0.0300006 -9.53548e-18 0)
(0.0300006 6.24599e-19 0)
(0.0300006 -4.07334e-17 0)
(0.0300006 4.0102e-17 0)
(0.0300006 4.06308e-17 0)
(0.0300006 -2.8455e-17 0)
(0.0300006 1.31587e-17 0)
(0.0300006 3.88987e-17 0)
(0.0300006 -5.7575e-17 0)
(0.0300006 -3.91932e-17 0)
(0.0300006 4.96779e-17 0)
(0.0300006 -2.42712e-17 0)
(0.0300006 1.4422e-17 0)
(0.0300006 -9.0068e-19 0)
(0.0300006 4.68043e-17 0)
(0.0300006 -2.2231e-17 0)
(0.0300006 -6.6453e-17 0)
(0.0300006 2.38533e-17 0)
(0.0300006 8.47989e-18 0)
(0.0300006 4.91473e-18 0)
(0.0300006 4.45571e-17 0)
(0.0300006 -3.45029e-17 0)
(0.0300006 -5.21834e-17 0)
(0.0300006 9.46268e-17 0)
(0.0300006 -5.59212e-17 0)
(0.0300006 -3.44567e-17 0)
(0.0300006 3.13705e-17 0)
(0.0300006 -7.05224e-18 0)
(0.0300006 1.57618e-17 0)
(0.0300006 4.71641e-17 0)
(0.0300006 -5.48732e-18 0)
(0.0300006 -4.46308e-17 0)
(0.0300006 -2.92805e-17 0)
(0.0300006 -4.0336e-18 0)
(0.0300006 4.52985e-17 0)
(0.0300006 -4.60857e-17 0)
(0.0300006 3.99842e-17 0)
(0.0300006 4.37863e-17 0)
(0.0300006 -3.15389e-17 0)
(0.0300006 4.01233e-17 0)
(0.0300006 7.07935e-18 0)
(0.0300006 -9.07067e-17 0)
(0.0300006 3.60893e-17 0)
(0.0300006 7.17858e-18 0)
(0.0300006 -5.88017e-17 0)
(0.0300006 5.05962e-17 0)
(0.0300006 4.90505e-18 0)
(0.0300006 4.28406e-17 0)
(0.0300006 -4.15784e-17 0)
(0.0300006 -4.31227e-18 0)
(0.0300006 4.81949e-18 0)
(0.0300006 -4.83753e-17 0)
(0.0300006 3.43e-17 0)
(0.0300006 6.42451e-17 0)
(0.0300006 -4.86148e-17 0)
(0.0300006 -4.53688e-18 0)
(0.0300006 4.95772e-17 0)
(0.0300006 -5.65919e-17 0)
(0.0300006 4.30643e-18 0)
(0.0300006 -3.1709e-17 0)
(0.0300006 -1.06566e-17 0)
(0.0300006 -6.22624e-18 0)
(0.0300006 9.79708e-17 0)
(0.0300006 -1.56456e-18 0)
(0.0300006 -4.87786e-17 0)
(0.0300006 4.95718e-17 0)
(0.0300006 -4.14021e-17 0)
(0.0300006 -4.5751e-17 0)
(0.0300006 5.02497e-17 0)
(0.0300006 -2.51851e-17 0)
(0.0300006 3.14265e-18 0)
(0.0300006 7.26028e-17 0)
(0.0300006 -1.02759e-16 0)
(0.0300006 5.32223e-17 0)
(0.0300006 -2.14898e-17 0)
(0.0300006 -2.69008e-17 0)
(0.0300006 4.68808e-17 0)
(0.0300006 -5.92461e-17 0)
(0.0300006 1.99693e-17 0)
(0.0300006 1.38686e-16 0)
(0.0300006 -1.06396e-16 0)
(0.0300006 -5.64939e-17 0)
(0.0300006 6.4432e-17 0)
(0.0300006 -6.25214e-17 0)
(0.0300006 8.62234e-17 0)
(0.0300006 -7.97438e-17 0)
(0.0300006 -7.62022e-18 0)
(0.0300006 8.51126e-17 0)
(0.0300006 1.08226e-17 0)
(0.0300006 -4.22584e-17 0)
(0.0300006 -4.56005e-18 0)
(0.0300006 -1.52036e-17 0)
(0.0300006 9.63999e-18 0)
(0.0300006 3.17e-17 0)
(0.0300006 -8.21948e-17 0)
(0.0300006 1.09026e-16 0)
(0.0300006 -2.50853e-17 0)
(0.0300006 -8.20097e-17 0)
(0.0300006 6.89911e-17 0)
(0.0300006 5.02597e-17 0)
(0.0300006 -8.2122e-17 0)
(0.0300006 -2.59402e-17 0)
(0.0300006 5.84821e-17 0)
(0.0300006 -2.91071e-17 0)
(0.0300006 7.97292e-17 0)
(0.0300006 4.70891e-17 0)
(0.0300006 -1.61603e-16 0)
(0.0300006 2.06868e-17 0)
(0.0300006 3.86272e-17 0)
(0.0300006 -7.26365e-17 0)
(0.0300006 7.26998e-17 0)
(0.0300006 -4.51934e-17 0)
(0.0300006 1.97148e-17 0)
(0.0300006 1.28152e-16 0)
(0.0300006 -1.00032e-16 0)
(0.0300006 -7.867e-17 0)
(0.0300006 1.13232e-16 0)
(0.0300006 -4.98534e-17 0)
(0.0300006 -6.25899e-17 0)
(0.0300006 7.18595e-17 0)
(0.0300006 5.85765e-17 0)
(0.0300006 -6.6664e-17 0)
(0.0300006 1.36257e-17 0)
(0.0300006 8.91875e-18 0)
(0.0300006 -5.85276e-17 0)
(0.0300006 8.42055e-17 0)
(0.0300006 -9.38334e-17 0)
(0.0300006 -2.09084e-18 0)
(0.0300006 7.84993e-17 0)
(0.0300006 1.31796e-17 0)
(0.0300006 1.79234e-17 0)
(0.0300006 -7.48246e-18 0)
(0.0300006 -9.09696e-17 0)
(0.0300006 -3.93378e-17 0)
(0.0300006 1.40754e-16 0)
(0.0300006 -1.00174e-16 0)
(0.0300006 -6.31352e-18 0)
(0.0300006 3.86681e-17 0)
(0.0300006 5.25355e-17 0)
(0.0300006 6.31275e-17 0)
(0.0300006 -1.64135e-16 0)
(0.0300006 1.94564e-18 0)
(0.0300006 1.08878e-16 0)
(0.0300006 -1.14009e-16 0)
(0.0300006 5.57081e-18 0)
(0.0300006 1.57965e-16 0)
(0.0300006 -1.57504e-16 0)
(0.0300006 6.45541e-17 0)
(0.0300006 9.85377e-17 0)
(0.0300006 -1.54963e-16 0)
(0.0300006 1.05549e-17 0)
(0.0300006 6.90116e-17 0)
(0.0300006 -8.5295e-17 0)
(0.0300006 1.05867e-17 0)
(0.0300006 1.30249e-16 0)
(0.0300006 -4.06879e-17 0)
(0.0300006 -4.02464e-17 0)
(0.0300006 -1.61626e-17 0)
(0.0300006 -4.24961e-17 0)
(0.0300006 2.23418e-17 0)
(0.0300006 6.07281e-17 0)
(0.0300006 -9.52955e-17 0)
(0.0300006 1.01183e-17 0)
(0.0300006 1.33923e-16 0)
(0.0300006 -3.94005e-17 0)
(0.0300006 -4.11243e-17 0)
(0.0300006 -5.79368e-17 0)
(0.0300006 -8.3684e-19 0)
(0.0300006 8.63735e-17 0)
(0.0300006 -9.2758e-17 0)
(0.0300006 8.34125e-17 0)
(0.0300006 1.48167e-17 0)
(0.0300006 -8.97726e-17 0)
(0.0300006 1.26571e-16 0)
(0.0300006 -7.2124e-17 0)
(0.0300006 -4.52579e-17 0)
(0.0300006 4.99595e-17 0)
(0.0300006 3.61556e-17 0)
(0.0300006 -1.00526e-16 0)
(0.0300006 7.3662e-17 0)
(0.0300006 8.52588e-17 0)
(0.0300006 -1.01368e-16 0)
(0.0300006 -3.31598e-17 0)
(0.0300006 -3.48842e-18 0)
(0.0300006 5.58785e-17 0)
(0.0300006 -1.6846e-17 0)
(0.0300006 5.34489e-17 0)
(0.0300006 -9.15908e-17 0)
(0.0300006 6.27098e-17 0)
(0.0300006 7.49061e-17 0)
(0.0300006 -1.00144e-16 0)
(0.0300006 -3.90926e-17 0)
(0.0300006 5.46674e-17 0)
(0.0300006 6.49461e-18 0)
(0.0300006 -2.79523e-17 0)
(0.0300006 5.0948e-17 0)
(0.0300006 -1.09856e-16 0)
(0.0300006 1.14712e-16 0)
(0.0300006 2.36402e-17 0)
(0.0300006 -8.84829e-17 0)
(0.0300006 1.7298e-17 0)
(0.0300006 5.43677e-18 0)
(0.0300006 4.78903e-18 0)
(0.0300006 -3.12219e-17 0)
(0.0300006 4.55757e-17 0)
(0.0300006 9.57099e-17 0)
(0.0300006 -3.17781e-17 0)
(0.0300006 -1.66037e-16 0)
(0.0300006 4.44862e-18 0)
(0.0300006 7.44502e-17 0)
(0.0300006 1.4598e-18 0)
(0.0300006 1.2207e-16 0)
(0.0300006 -1.15226e-16 0)
(0.0300006 -7.86634e-17 0)
(0.0300006 6.27768e-17 0)
(0.0300006 9.83239e-17 0)
(0.0300006 -3.89461e-17 0)
(0.0300006 -1.43082e-16 0)
(0.0300006 7.12183e-17 0)
(0.0300006 2.76476e-17 0)
(0.0300006 1.39831e-16 0)
(0.0300006 -1.30749e-16 0)
(0.0300006 -8.07357e-17 0)
(0.0300006 9.27794e-17 0)
(0.0300006 -1.4761e-17 0)
(0.0300006 1.06458e-17 0)
(0.0300006 -2.98636e-17 0)
(0.0300006 1.2954e-17 0)
(0.0300006 1.91574e-17 0)
(0.0300006 1.02509e-16 0)
(0.0300006 -1.17696e-16 0)
(0.0300006 -9.90039e-17 0)
(0.0300006 2.2209e-16 0)
(0.0300006 -9.19537e-17 0)
(0.0300006 -1.08789e-16 0)
(0.0300006 7.88103e-17 0)
(0.0300006 2.33458e-17 0)
(0.0300006 -1.95823e-18 0)
(0.0300006 9.02545e-17 0)
(0.0300006 -1.00609e-16 0)
(0.0300006 -1.15208e-16 0)
(0.0300006 2.23024e-16 0)
(0.0300006 -7.22796e-17 0)
(0.0300006 -1.39321e-16 0)
(0.0300006 6.34619e-17 0)
(0.0300006 1.63778e-16 0)
(0.0300006 -1.04843e-16 0)
(0.0300006 -8.18167e-18 0)
(0.0300006 7.54575e-18 0)
(0.0300006 -1.18267e-16 0)
(0.0300006 2.10394e-16 0)
(0.0300006 -1.10871e-16 0)
(0.0300006 -9.82368e-18 0)
(0.0300006 -8.61775e-17 0)
(0.0300006 1.07119e-16 0)
(0.0300006 8.30803e-17 0)
(0.0300006 -1.80675e-16 0)
(0.0300006 1.0144e-16 0)
(0.0300006 -1.85288e-17 0)
(0.0300006 2.54821e-17 0)
(0.0300006 -2.15497e-17 0)
(0.0300006 9.20022e-17 0)
(0.0300006 -1.68092e-16 0)
(0.0300006 1.01195e-16 0)
(0.0300006 7.26993e-17 0)
(0.0300006 -1.87381e-16 0)
(0.0300006 9.99634e-17 0)
(0.0300006 8.67039e-17 0)
(0.0300006 -5.23173e-17 0)
(0.0300006 -1.50775e-16 0)
(0.0300006 1.98722e-16 0)
(0.0300006 -1.37355e-16 0)
(0.0300006 7.56997e-17 0)
(0.0300006 1.7028e-16 0)
(0.0300006 -2.86703e-16 0)
(0.0300006 2.62916e-17 0)
(0.0300006 1.70058e-16 0)
(0.0300006 -1.32233e-17 0)
(0.0300006 -1.74194e-16 0)
(0.0300006 9.9059e-17 0)
(0.0300006 -1.07228e-17 0)
(0.0300006 -2.37498e-19 0)
(0.0300006 1.7135e-17 0)
(0.0300006 -1.00421e-16 0)
(0.0300006 1.03007e-16 0)
(0.0300006 5.40324e-18 0)
(0.0300006 8.65395e-17 0)
(0.0300006 -1.19875e-16 0)
(0.0300006 -5.69406e-17 0)
(0.0300006 9.05742e-17 0)
(0.0300006 6.58702e-17 0)
(0.0300006 -7.10392e-17 0)
(0.0300006 -8.85317e-17 0)
(0.0300006 1.86661e-16 0)
(0.0300006 -1.27321e-16 0)
(0.0300006 2.11068e-17 0)
(0.0300006 9.94852e-18 0)
(0.0300006 -8.89022e-17 0)
(0.0300006 1.9116e-16 0)
(0.0300006 -3.5557e-17 0)
(0.0300006 -1.73217e-16 0)
(0.0300006 4.14876e-17 0)
(0.0300006 1.82015e-16 0)
(0.0300006 -1.18963e-16 0)
(0.0300006 1.8526e-17 0)
(0.0300006 6.62918e-18 0)
(0.0300006 9.04355e-18 0)
(0.0300006 1.27588e-16 0)
(0.0300006 -1.89811e-17 0)
(0.0300006 8.87881e-17 0)
(0.0888017 6.51157e-16 0)
(0.0888017 1.65584e-16 0)
(0.0888017 5.72704e-17 0)
(0.0888017 6.14105e-17 0)
(0.0888017 6.02058e-17 0)
(0.0888017 3.05285e-17 0)
(0.0888017 2.23821e-17 0)
(0.0888017 1.88182e-17 0)
(0.0888017 1.30696e-17 0)
(0.0888017 4.71015e-18 0)
(0.0888017 -1.83514e-17 0)
(0.0888017 -2.21316e-17 0)
(0.0888017 -3.35034e-18 0)
(0.0888017 -8.54029e-18 0)
(0.0888017 3.00444e-18 0)
(0.0888017 -8.4771e-18 0)
(0.0888017 -3.64244e-17 0)
(0.0888017 -1.54452e-17 0)
(0.0888017 -6.24966e-18 0)
(0.0888017 6.44193e-18 0)
(0.0888017 5.49956e-18 0)
(0.0888017 7.92845e-18 0)
(0.0888017 2.3855e-17 0)
(0.0888017 6.15747e-20 0)
(0.0888017 -1.68506e-17 0)
(0.0888017 -2.11547e-17 0)
(0.0888017 5.72835e-18 0)
(0.0888017 1.92522e-17 0)
(0.0888017 -2.67709e-17 0)
(0.0888017 -1.15643e-17 0)
(0.0888017 3.23569e-18 0)
(0.0888017 -1.18332e-17 0)
(0.0888017 -1.20528e-17 0)
(0.0888017 -4.49576e-18 0)
(0.0888017 -3.3082e-17 0)
(0.0888017 -8.17387e-19 0)
(0.0888017 -2.17319e-17 0)
(0.0888017 -2.16011e-17 0)
(0.0888017 2.16058e-18 0)
(0.0888017 -3.09019e-17 0)
(0.0888017 1.70781e-17 0)
(0.0888017 -2.37024e-17 0)
(0.0888017 -7.63436e-18 0)
(0.0888017 2.89013e-17 0)
(0.0888017 1.66805e-18 0)
(0.0888017 2.95682e-17 0)
(0.0888017 2.69265e-17 0)
(0.0888017 -2.78408e-17 0)
(0.0888017 -1.09913e-17 0)
(0.0888017 2.45515e-17 0)
(0.0888017 2.59873e-17 0)
(0.0888017 1.6867e-17 0)
(0.0888017 -2.81538e-17 0)
(0.0888017 -9.79738e-18 0)
(0.0888017 3.36573e-17 0)
(0.0888017 -2.04197e-17 0)
(0.0888017 1.28124e-17 0)
(0.0888017 -1.32574e-17 0)
(0.0888017 -5.12383e-17 0)
(0.0888017 -2.53165e-18 0)
(0.0888017 -8.76513e-19 0)
(0.0888017 -1.21122e-17 0)
(0.0888017 -4.98846e-18 0)
(0.0888017 1.4877e-17 0)
(0.0888017 -1.72444e-17 0)
(0.0888017 2.36106e-17 0)
(0.0888017 -4.02549e-17 0)
(0.0888017 -3.13381e-17 0)
(0.0888017 6.02435e-17 0)
(0.0888017 -1.26418e-17 0)
(0.0888017 -3.00292e-17 0)
(0.0888017 1.38099e-17 0)
(0.0888017 5.41439e-17 0)
(0.0888017 -1.63351e-17 0)
(0.0888017 -3.10573e-17 0)
(0.0888017 9.92775e-17 0)
(0.0888017 3.52508e-17 0)
(0.0888017 -5.58965e-17 0)
(0.0888017 -1.9771e-17 0)
(0.0888017 3.90064e-17 0)
(0.0888017 -3.23577e-19 0)
(0.0888017 -4.55867e-17 0)
(0.0888017 1.52134e-17 0)
(0.0888017 -2.07903e-17 0)
(0.0888017 -6.39716e-17 0)
(0.0888017 6.08813e-17 0)
(0.0888017 7.78472e-18 0)
(0.0888017 -3.0527e-17 0)
(0.0888017 7.66228e-18 0)
(0.0888017 6.22185e-19 0)
(0.0888017 2.77622e-17 0)
(0.0888017 2.12058e-17 0)
(0.0888017 2.29721e-17 0)
(0.0888017 4.80631e-18 0)
(0.0888017 1.57891e-18 0)
(0.0888017 -7.0456e-17 0)
(0.0888017 4.83995e-18 0)
(0.0888017 7.41441e-17 0)
(0.0888017 -5.02185e-17 0)
(0.0888017 -3.08547e-17 0)
(0.0888017 5.30429e-17 0)
(0.0888017 4.04813e-17 0)
(0.0888017 -6.99785e-18 0)
(0.0888017 -1.18536e-17 0)
(0.0888017 9.47232e-18 0)
(0.0888017 -1.81076e-17 0)
(0.0888017 -1.73856e-17 0)
(0.0888017 -7.03375e-18 0)
(0.0888017 4.31377e-17 0)
(0.0888017 6.10646e-17 0)
(0.0888017 -3.32667e-17 0)
(0.0888017 -9.71465e-17 0)
(0.0888017 -2.35336e-17 0)
(0.0888017 9.7334e-17 0)
(0.0888017 3.26861e-17 0)
(0.0888017 -6.14625e-17 0)
(0.0888017 -5.12685e-17 0)
(0.0888017 3.26286e-17 0)
(0.0888017 6.77709e-17 0)
(0.0888017 7.16445e-18 0)
(0.0888017 -1.36636e-17 0)
(0.0888017 5.95985e-18 0)
(0.0888017 4.64711e-17 0)
(0.0888017 -1.58936e-17 0)
(0.0888017 -6.67494e-17 0)
(0.0888017 5.54373e-17 0)
(0.0888017 4.18735e-17 0)
(0.0888017 -3.60073e-17 0)
(0.0888017 2.02473e-17 0)
(0.0888017 2.46962e-17 0)
(0.0888017 1.17934e-17 0)
(0.0888017 9.47192e-18 0)
(0.0888017 1.023e-16 0)
(0.0888017 -7.78679e-17 0)
(0.0888017 -9.97426e-17 0)
(0.0888017 6.21092e-17 0)
(0.0888017 -8.16175e-18 0)
(0.0888017 -4.93146e-17 0)
(0.0888017 8.06538e-17 0)
(0.0888017 3.06326e-17 0)
(0.0888017 -1.27571e-16 0)
(0.0888017 -6.19194e-17 0)
(0.0888017 6.87127e-17 0)
(0.0888017 1.02383e-16 0)
(0.0888017 -7.19206e-17 0)
(0.0888017 -7.68698e-18 0)
(0.0888017 1.45277e-16 0)
(0.0888017 -3.90756e-17 0)
(0.0888017 -7.89744e-17 0)
(0.0888017 1.0742e-16 0)
(0.0888017 -7.854e-17 0)
(0.0888017 -3.16303e-17 0)
(0.0888017 1.24824e-16 0)
(0.0888017 -1.41322e-16 0)
(0.0888017 -4.28652e-17 0)
(0.0888017 7.45088e-17 0)
(0.0888017 -8.85153e-17 0)
(0.0888017 1.84836e-17 0)
(0.0888017 -1.38705e-18 0)
(0.0888017 9.97102e-17 0)
(0.0888017 7.18165e-17 0)
(0.0888017 -4.39172e-17 0)
(0.0888017 -5.29725e-17 0)
(0.0888017 -1.8208e-18 0)
(0.0888017 -2.70848e-17 0)
(0.0888017 -4.79414e-18 0)
(0.0888017 7.62188e-17 0)
(0.0888017 -1.40823e-16 0)
(0.0888017 9.33569e-17 0)
(0.0888017 1.54358e-16 0)
(0.0888017 -1.36855e-16 0)
(0.0888017 5.61061e-17 0)
(0.0888017 1.22698e-16 0)
(0.0888017 -1.24115e-16 0)
(0.0888017 -7.17006e-17 0)
(0.0888017 4.31366e-17 0)
(0.0888017 7.68044e-17 0)
(0.0888017 -9.91215e-18 0)
(0.0888017 -6.11798e-17 0)
(0.0888017 9.21101e-17 0)
(0.0888017 9.81553e-18 0)
(0.0888017 -7.48334e-17 0)
(0.0888017 2.8344e-18 0)
(0.0888017 -1.9121e-17 0)
(0.0888017 6.52619e-17 0)
(0.0888017 -1.88204e-17 0)
(0.0888017 -9.47073e-17 0)
(0.0888017 -2.5074e-17 0)
(0.0888017 -1.8287e-17 0)
(0.0888017 1.16031e-18 0)
(0.0888017 -7.72749e-17 0)
(0.0888017 -4.29665e-17 0)
(0.0888017 2.14678e-18 0)
(0.0888017 1.22832e-16 0)
(0.0888017 6.43783e-17 0)
(0.0888017 -3.38732e-17 0)
(0.0888017 6.11641e-17 0)
(0.0888017 1.24188e-17 0)
(0.0888017 -1.5649e-16 0)
(0.0888017 -7.0931e-17 0)
(0.0888017 4.66658e-17 0)
(0.0888017 -1.25087e-16 0)
(0.0888017 1.17191e-16 0)
(0.0888017 6.70473e-17 0)
(0.0888017 2.10843e-18 0)
(0.0888017 7.69407e-17 0)
(0.0888017 -1.20851e-16 0)
(0.0888017 -1.08419e-16 0)
(0.0888017 5.02073e-17 0)
(0.0888017 -1.81961e-17 0)
(0.0888017 1.32543e-17 0)
(0.0888017 2.70411e-17 0)
(0.0888017 -7.85919e-17 0)
(0.0888017 6.28767e-17 0)
(0.0888017 -6.12443e-17 0)
(0.0888017 2.01937e-17 0)
(0.0888017 -5.30793e-17 0)
(0.0888017 -4.01775e-17 0)
(0.0888017 1.02451e-16 0)
(0.0888017 1.0192e-16 0)
(0.0888017 -2.55743e-17 0)
(0.0888017 -6.61347e-17 0)
(0.0888017 3.10802e-17 0)
(0.0888017 -6.66188e-17 0)
(0.0888017 1.2291e-17 0)
(0.0888017 4.0845e-17 0)
(0.0888017 -4.66423e-18 0)
(0.0888017 3.24552e-17 0)
(0.0888017 1.14477e-16 0)
(0.0888017 1.5833e-18 0)
(0.0888017 -4.7205e-17 0)
(0.0888017 -1.02248e-16 0)
(0.0888017 4.56387e-18 0)
(0.0888017 2.46933e-17 0)
(0.0888017 -9.28645e-17 0)
(0.0888017 8.00617e-17 0)
(0.0888017 2.48211e-17 0)
(0.0888017 4.385e-17 0)
(0.0888017 -4.72988e-17 0)
(0.0888017 -1.8032e-17 0)
(0.0888017 1.38055e-18 0)
(0.0888017 -8.92913e-17 0)
(0.0888017 3.15005e-17 0)
(0.0888017 1.54361e-16 0)
(0.0888017 -4.76553e-17 0)
(0.0888017 -2.10698e-17 0)
(0.0888017 6.58941e-17 0)
(0.0888017 -1.08086e-16 0)
(0.0888017 4.83128e-18 0)
(0.0888017 -1.87294e-17 0)
(0.0888017 -3.94439e-17 0)
(0.0888017 2.72988e-17 0)
(0.0888017 1.10306e-16 0)
(0.0888017 -3.87428e-17 0)
(0.0888017 -2.51999e-17 0)
(0.0888017 7.18488e-17 0)
(0.0888017 -4.83093e-17 0)
(0.0888017 -7.94962e-17 0)
(0.0888017 3.76671e-17 0)
(0.0888017 -9.31652e-17 0)
(0.0888017 4.04766e-17 0)
(0.0888017 1.84269e-16 0)
(0.0888017 -1.33617e-16 0)
(0.0888017 5.13362e-17 0)
(0.0888017 -1.26116e-16 0)
(0.0888017 -1.06681e-16 0)
(0.0888017 2.73845e-16 0)
(0.0888017 -1.9932e-16 0)
(0.0888017 -1.18963e-16 0)
(0.0888017 4.08865e-16 0)
(0.0888017 -1.58153e-16 0)
(0.0888017 -1.32401e-16 0)
(0.0888017 1.0391e-16 0)
(0.0888017 -1.33038e-16 0)
(0.0888017 8.3051e-17 0)
(0.0888017 -7.90072e-17 0)
(0.0888017 -2.67329e-17 0)
(0.0888017 1.29718e-16 0)
(0.0888017 1.16731e-16 0)
(0.0888017 -1.08202e-16 0)
(0.0888017 -1.15678e-16 0)
(0.0888017 -5.41291e-17 0)
(0.0888017 5.40456e-17 0)
(0.0888017 1.44826e-16 0)
(0.0888017 -1.66469e-16 0)
(0.0888017 2.02843e-16 0)
(0.0888017 1.75511e-17 0)
(0.0888017 -2.073e-16 0)
(0.0888017 1.58846e-16 0)
(0.0888017 7.94608e-17 0)
(0.0888017 -2.16643e-16 0)
(0.0888017 8.65881e-17 0)
(0.0888017 2.01779e-17 0)
(0.0888017 -1.80719e-16 0)
(0.0888017 3.14076e-16 0)
(0.0888017 8.71087e-17 0)
(0.0888017 -3.00475e-16 0)
(0.0888017 6.72182e-17 0)
(0.0888017 -3.38109e-17 0)
(0.0888017 -1.96964e-16 0)
(0.0888017 2.82381e-16 0)
(0.0888017 -1.36705e-16 0)
(0.0888017 -1.12201e-16 0)
(0.0888017 3.68203e-16 0)
(0.0888017 -1.43805e-16 0)
(0.0888017 -2.25778e-16 0)
(0.0888017 2.01758e-16 0)
(0.0888017 -1.28763e-16 0)
(0.0888017 -1.63716e-16 0)
(0.0888017 3.23204e-16 0)
(0.0888017 5.55114e-17 0)
(0.0888017 -2.39637e-16 0)
(0.0888017 1.18379e-16 0)
(0.0888017 5.51744e-17 0)
(0.0888017 -1.12627e-16 0)
(0.0888017 7.58931e-17 0)
(0.0888017 -6.40912e-17 0)
(0.0888017 -1.33678e-16 0)
(0.0888017 -2.30449e-17 0)
(0.0888017 1.82955e-16 0)
(0.0888017 1.18465e-16 0)
(0.0888017 -3.81586e-17 0)
(0.0888017 -1.13671e-16 0)
(0.0888017 -8.55298e-17 0)
(0.0888017 1.71373e-16 0)
(0.0888017 -7.8859e-18 0)
(0.0888017 -1.34276e-16 0)
(0.0888017 -6.74718e-17 0)
(0.0888017 2.07247e-16 0)
(0.0888017 1.48458e-16 0)
(0.0888017 -2.93655e-16 0)
(0.0888017 2.41812e-17 0)
(0.0888017 1.18074e-16 0)
(0.0888017 -2.39044e-16 0)
(0.0888017 1.86602e-16 0)
(0.0888017 1.94816e-16 0)
(0.0888017 -3.1712e-16 0)
(0.0888017 2.7586e-16 0)
(0.0888017 1.21021e-16 0)
(0.0888017 -3.21339e-16 0)
(0.0888017 8.21264e-17 0)
(0.0888017 -2.05406e-17 0)
(0.0888017 -1.58128e-16 0)
(0.0888017 9.82484e-17 0)
(0.0888017 1.94535e-16 0)
(0.0888017 -9.86161e-18 0)
(0.0888017 -1.71909e-17 0)
(0.0888017 -1.64646e-16 0)
(0.0888017 -1.08946e-16 0)
(0.0888017 1.81544e-16 0)
(0.0888017 -6.70048e-17 0)
(0.0888017 -2.16299e-16 0)
(0.0888017 9.90876e-17 0)
(0.0888017 2.28483e-16 0)
(0.0888017 5.9829e-18 0)
(0.0888017 -2.7423e-17 0)
(0.0888017 -1.7538e-16 0)
(0.0888017 -1.33007e-16 0)
(0.0888017 1.12127e-16 0)
(0.0888017 4.84565e-17 0)
(0.0888017 1.17238e-16 0)
(0.0888017 -1.97402e-16 0)
(0.0888017 8.35932e-17 0)
(0.0888017 2.94137e-16 0)
(0.0888017 -2.46164e-16 0)
(0.0888017 -1.70795e-17 0)
(0.0888017 1.40531e-17 0)
(0.0888017 -1.27293e-16 0)
(0.0888017 2.08624e-17 0)
(0.0888017 3.20974e-16 0)
(0.0888017 3.48635e-17 0)
(0.0888017 -1.45924e-16 0)
(0.0888017 -1.03492e-16 0)
(0.0888017 -6.50352e-17 0)
(0.0888017 1.84267e-16 0)
(0.0888017 -9.47802e-17 0)
(0.0888017 1.61066e-17 0)
(0.0888017 -5.41935e-17 0)
(0.0888017 1.5124e-16 0)
(0.0888017 2.70079e-17 0)
(0.0888017 -8.2753e-17 0)
(0.0888017 -5.11756e-17 0)
(0.0888017 -3.81483e-18 0)
(0.0888017 6.02704e-17 0)
(0.0888017 -5.30284e-17 0)
(0.0888017 2.21551e-16 0)
(0.0888017 -1.68532e-16 0)
(0.0888017 8.50914e-17 0)
(0.0888017 9.90697e-17 0)
(0.0888017 -1.19214e-16 0)
(0.0888017 -6.58115e-17 0)
(0.0888017 9.96421e-17 0)
(0.0888017 -1.00685e-16 0)
(0.0888017 -2.01746e-16 0)
(0.0888017 3.11693e-16 0)
(0.0888017 1.91477e-16 0)
(0.0888017 -1.56522e-16 0)
(0.0888017 -1.4982e-16 0)
(0.0888017 -1.32742e-16 0)
(0.0888017 -5.16552e-17 0)
(0.0888017 1.43997e-16 0)
(0.0888017 2.73408e-16 0)
(0.0888017 -2.19646e-16 0)
(0.0888017 -1.59373e-16 0)
(0.0888017 -8.19024e-17 0)
(0.0888017 3.10387e-16 0)
(0.0888017 2.05982e-16 0)
(0.0888017 -4.37377e-16 0)
(0.0888017 -2.56821e-17 0)
(0.0888017 2.63352e-16 0)
(0.0888017 1.74238e-16 0)
(0.0888017 -2.69738e-16 0)
(0.0888017 7.57098e-17 0)
(0.0888017 6.99709e-17 0)
(0.0888017 -4.02009e-17 0)
(0.0888017 7.32265e-17 0)
(0.0888017 -2.48654e-16 0)
(0.0888017 -1.88645e-17 0)
(0.0888017 3.00717e-16 0)
(0.0888017 7.4718e-17 0)
(0.0888017 -3.55536e-16 0)
(0.0888017 -6.32395e-17 0)
(0.0888017 4.18161e-16 0)
(0.0888017 -8.4622e-17 0)
(0.0888017 -2.0368e-16 0)
(0.0888017 4.45569e-17 0)
(0.0888017 1.24317e-16 0)
(0.0888017 2.3524e-17 0)
(0.0888017 1.35619e-17 0)
(0.0888017 -1.04095e-16 0)
(0.0888017 -1.02787e-16 0)
(0.0888017 3.56242e-16 0)
(0.0888017 -2.76395e-17 0)
(0.0888017 -3.78996e-16 0)
(0.0888017 1.64055e-17 0)
(0.0888017 4.76833e-16 0)
(0.0888017 -1.11977e-16 0)
(0.0888017 -5.87865e-17 0)
(0.0888017 -1.46378e-17 0)
(0.0888017 -2.16447e-16 0)
(0.0888017 3.28863e-16 0)
(0.0888017 -1.68953e-16 0)
(0.0888017 -6.09608e-17 0)
(0.0888017 -1.5549e-17 0)
(0.0888017 1.03419e-16 0)
(0.0888017 2.53985e-17 0)
(0.0888017 -5.95689e-17 0)
(0.0888017 3.03945e-17 0)
(0.0888017 -1.64887e-16 0)
(0.0888017 2.03058e-16 0)
(0.0888017 -3.14276e-17 0)
(0.0888017 1.14174e-16 0)
(0.0888017 -7.85941e-17 0)
(0.0888017 5.97656e-17 0)
(0.0888017 -5.61826e-17 0)
(0.0888017 -8.10787e-17 0)
(0.0888017 6.94359e-17 0)
(0.0888017 5.4745e-17 0)
(0.0888017 1.73358e-16 0)
(0.0888017 -4.45782e-16 0)
(0.0888017 2.15661e-16 0)
(0.0888017 1.99883e-16 0)
(0.0888017 9.58237e-18 0)
(0.0888017 3.44975e-17 0)
(0.0888017 -3.54098e-16 0)
(0.0888017 9.20225e-17 0)
(0.0888017 2.12857e-16 0)
(0.0888017 -3.15019e-17 0)
(0.0888017 -1.99567e-16 0)
(0.0888017 1.19375e-16 0)
(0.0888017 -4.51235e-17 0)
(0.0888017 4.05632e-18 0)
(0.0888017 6.53616e-17 0)
(0.0888017 -1.3444e-16 0)
(0.0888017 1.8e-16 0)
(0.0888017 7.57916e-17 0)
(0.0888017 9.05831e-17 0)
(0.0888017 -2.47182e-16 0)
(0.0888017 1.08143e-17 0)
(0.0888017 1.41349e-16 0)
(0.0888017 3.44109e-17 0)
(0.0888017 -5.38077e-17 0)
(0.0888017 -1.08144e-16 0)
(0.0888017 2.07849e-16 0)
(0.0888017 -2.61545e-16 0)
(0.0888017 4.92129e-17 0)
(0.0888017 3.64442e-17 0)
(0.0888017 -7.9988e-17 0)
(0.0888017 2.63056e-16 0)
(0.0888017 -1.67091e-16 0)
(0.0888017 -2.2563e-16 0)
(0.0888017 1.60246e-16 0)
(0.0888017 2.24793e-16 0)
(0.0888017 -2.41313e-16 0)
(0.0888017 2.0676e-17 0)
(0.0888017 1.52587e-17 0)
(0.0888017 1.11001e-17 0)
(0.0888017 1.60546e-16 0)
(0.0888017 -7.96892e-17 0)
(0.0888017 1.88383e-16 0)
(0.146403 3.16334e-16 0)
(0.146403 1.61144e-16 0)
(0.146403 7.83705e-17 0)
(0.146403 1.06141e-16 0)
(0.146403 1.11608e-16 0)
(0.146403 5.72089e-17 0)
(0.146403 3.91823e-17 0)
(0.146403 5.69034e-17 0)
(0.146403 2.36192e-17 0)
(0.146403 -2.32658e-17 0)
(0.146403 -4.23872e-17 0)
(0.146403 -5.13483e-17 0)
(0.146403 -3.51022e-17 0)
(0.146403 -2.01521e-17 0)
(0.146403 -7.12754e-18 0)
(0.146403 -1.61558e-17 0)
(0.146403 -5.35704e-17 0)
(0.146403 -4.42718e-17 0)
(0.146403 7.75815e-18 0)
(0.146403 7.65009e-18 0)
(0.146403 9.28641e-19 0)
(0.146403 3.79014e-17 0)
(0.146403 3.4538e-17 0)
(0.146403 -1.85284e-18 0)
(0.146403 -2.08612e-17 0)
(0.146403 -4.99303e-17 0)
(0.146403 -1.36663e-17 0)
(0.146403 3.78214e-17 0)
(0.146403 -3.41761e-17 0)
(0.146403 -4.13033e-17 0)
(0.146403 -1.79098e-17 0)
(0.146403 5.07855e-18 0)
(0.146403 -9.1442e-18 0)
(0.146403 -6.87515e-17 0)
(0.146403 -5.62229e-17 0)
(0.146403 -5.86552e-18 0)
(0.146403 -8.3693e-17 0)
(0.146403 -5.13481e-17 0)
(0.146403 8.48156e-18 0)
(0.146403 -5.48481e-17 0)
(0.146403 -1.66656e-17 0)
(0.146403 -2.94833e-17 0)
(0.146403 -3.19218e-17 0)
(0.146403 3.44795e-17 0)
(0.146403 5.57084e-17 0)
(0.146403 4.51714e-17 0)
(0.146403 5.0592e-17 0)
(0.146403 -3.43082e-17 0)
(0.146403 -8.61997e-18 0)
(0.146403 6.42949e-17 0)
(0.146403 4.18862e-17 0)
(0.146403 -4.09361e-18 0)
(0.146403 -4.13336e-17 0)
(0.146403 -2.43684e-18 0)
(0.146403 2.35395e-17 0)
(0.146403 -2.40705e-17 0)
(0.146403 2.59063e-17 0)
(0.146403 -7.20339e-17 0)
(0.146403 -8.41753e-17 0)
(0.146403 -1.64554e-17 0)
(0.146403 -2.57002e-17 0)
(0.146403 3.69614e-18 0)
(0.146403 -3.3314e-17 0)
(0.146403 2.00499e-18 0)
(0.146403 2.39085e-17 0)
(0.146403 -2.70145e-20 0)
(0.146403 -7.37284e-17 0)
(0.146403 -5.23319e-17 0)
(0.146403 3.85554e-17 0)
(0.146403 3.35128e-17 0)
(0.146403 2.55846e-17 0)
(0.146403 9.87485e-18 0)
(0.146403 7.82707e-17 0)
(0.146403 -2.67819e-18 0)
(0.146403 -6.66997e-17 0)
(0.146403 1.44459e-16 0)
(0.146403 1.30339e-16 0)
(0.146403 -3.27362e-17 0)
(0.146403 -6.32848e-17 0)
(0.146403 1.22098e-17 0)
(0.146403 2.90779e-17 0)
(0.146403 -4.49321e-17 0)
(0.146403 -5.53859e-17 0)
(0.146403 -2.84078e-17 0)
(0.146403 -2.95863e-17 0)
(0.146403 5.70197e-18 0)
(0.146403 -2.48021e-17 0)
(0.146403 4.84103e-17 0)
(0.146403 4.63673e-18 0)
(0.146403 -2.1774e-17 0)
(0.146403 6.63843e-17 0)
(0.146403 4.41284e-17 0)
(0.146403 4.2219e-17 0)
(0.146403 4.94205e-17 0)
(0.146403 1.22036e-17 0)
(0.146403 -1.28988e-16 0)
(0.146403 -2.72984e-17 0)
(0.146403 1.54965e-16 0)
(0.146403 -7.61295e-17 0)
(0.146403 -9.23109e-17 0)
(0.146403 1.44171e-16 0)
(0.146403 8.36963e-17 0)
(0.146403 -3.5131e-17 0)
(0.146403 -9.01667e-17 0)
(0.146403 1.57246e-17 0)
(0.146403 8.31265e-17 0)
(0.146403 -1.81814e-17 0)