/*--------------------------------*- C++ -*----------------------------------*\
| =========                 |                                                 |
| \\      /  F ield         | OpenFOAM: The Open Source CFD Toolbox           |
|  \\    /   O peration     | Version:  2112                                  |
|   \\  /    A nd           | Website:  www.openfoam.com                      |
|    \\/     M anipulation  |                                                 |
\*---------------------------------------------------------------------------*/
FoamFile
{
    version     2.0;
    format      ascii;
    arch        "LSB;label=32;scalar=64";
    class       volScalarField;
    location    "9";
    object      p;
}
// * * * * * * * * * * * * * * * * * * * * * * * * * * * * * * * * * * * * * //

dimensions      [0 2 -2 0 0 0 0];

internalField   nonuniform List<scalar> 
16641
(
4.07519e-09
-9.6545e-07
-5.7468e-06
-1.35419e-05
-2.32852e-05
-3.4165e-05
-4.55157e-05
-5.68271e-05
-6.77333e-05
-7.79797e-05
-8.74014e-05
-9.59028e-05
-0.000103439
-0.000110002
-0.000115608
-0.000120288
-0.000124082
-0.000127033
-0.000129179
-0.000130557
-0.000131194
-0.00013111
-0.000130318
-0.000128818
-0.000126606
-0.000123665
-0.000119972
-0.000115498
-0.000110206
-0.000104055
-9.69978e-05
-8.89849e-05
-7.99634e-05
-6.98787e-05
-5.8675e-05
-4.62963e-05
-3.26869e-05
-1.77919e-05
-1.55847e-06
1.60635e-05
3.51208e-05
5.56558e-05
7.77066e-05
0.000101305
0.000126479
0.000153246
0.000181619
0.000211603
0.00024319
0.000276366
0.000311103
0.000347366
0.000385104
0.000424256
0.000464746
0.000506487
0.000549374
0.00059329
0.000638102
0.000683665
0.000729814
0.000776376
0.000823159
0.000869961
0.000916567
0.00096275
0.00100827
0.00105289
0.00109636
0.00113842
0.00117881
0.00121729
0.0012536
0.00128749
0.00131872
0.00134708
0.00137236
0.00139435
0.00141289
0.00142784
0.00143906
0.00144647
0.00145
0.0014496
0.00144528
0.00143706
0.001425
0.00140919
0.00138974
0.00136682
0.00134059
0.00131126
0.00127905
0.00124421
0.00120701
0.00116771
0.0011266
0.00108398
0.00104016
0.000995419
0.000950068
0.000904398
0.000858696
0.000813241
0.000768299
0.000724129
0.000680973
0.000639061
0.000598608
0.000559818
0.000522876
0.000487959
0.000455228
0.000424831
0.000396908
0.000371586
0.00034898
0.000329198
0.000312333
0.000298464
0.000287647
0.000279907
0.000275218
0.000273473
0.000274444
0.000277691
0.000282449
0.000287631
0.000291356
6.42127e-07
-3.25435e-07
-4.37595e-06
-1.07759e-05
-1.87857e-05
-2.77957e-05
-3.73124e-05
-4.6921e-05
-5.63014e-05
-6.52187e-05
-7.35096e-05
-8.10674e-05
-8.78299e-05
-9.37681e-05
-9.88763e-05
-0.000103165
-0.000106656
-0.000109372
-0.000111339
-0.000112578
-0.000113108
-0.00011294
-0.000112079
-0.000110524
-0.000108265
-0.000105285
-0.000101561
-9.70628e-05
-9.17571e-05
-8.56037e-05
-7.85589e-05
-7.05756e-05
-6.16045e-05
-5.15943e-05
-4.04929e-05
-2.8248e-05
-1.48076e-05
-1.20232e-07
1.58636e-05
3.31907e-05
5.19048e-05
7.2045e-05
9.36462e-05
0.000116738
0.000141346
0.000167487
0.000195172
0.000224401
0.000255169
0.00028746
0.000321245
0.000356489
0.000393142
0.000431144
0.00047042
0.000510884
0.000552435
0.000594957
0.000638323
0.000682389
0.000726999
0.000771982
0.000817154
0.00086232
0.000907271
0.00095179
0.000995649
0.00103861
0.00108044
0.00112089
0.00115972
0.00119668
0.00123153
0.00126403
0.00129397
0.00132112
0.00134529
0.0013663
0.00138398
0.0013982
0.00140884
0.0014158
0.00141903
0.00141849
0.00141418
0.00140613
0.0013944
0.00137907
0.00136025
0.0013381
0.00131279
0.0012845
0.00125346
0.00121989
0.00118406
0.00114623
0.00110667
0.00106566
0.0010235
0.000980464
0.000936847
0.000892928
0.000848985
0.000805282
0.000762078
0.000719619
0.000678139
0.000637859
0.000598986
0.000561714
0.000526221
0.000492674
0.000461225
0.000432013
0.000405165
0.000380795
0.000359003
0.000339876
0.000323484
0.000309879
0.000299085
0.000291089
0.000285828
0.000283167
0.000282868
0.000284543
0.000287599
0.000291354
0.000295081
5.02064e-06
3.35611e-06
-6.91936e-07
-6.58358e-06
-1.3769e-05
-2.17868e-05
-3.02389e-05
-3.87878e-05
-4.71638e-05
-5.51623e-05
-6.26347e-05
-6.94795e-05
-7.56322e-05
-8.10572e-05
-8.57405e-05
-8.96826e-05
-9.28931e-05
-9.53861e-05
-9.71773e-05
-9.82809e-05
-9.87078e-05
-9.84637e-05
-9.75488e-05
-9.59574e-05
-9.36777e-05
-9.06912e-05
-8.69738e-05
-8.24962e-05
-7.72242e-05
-7.11192e-05
-6.41387e-05
-5.62374e-05
-4.73678e-05
-3.74809e-05
-2.6527e-05
-1.44557e-05
-1.21693e-06
1.32382e-05
2.8957e-05
4.59843e-05
6.43619e-05
8.41275e-05
0.000105314
0.00012795
0.00015206
0.00017766
0.000204759
0.000233359
0.000263453
0.000295025
0.000328049
0.000362488
0.000398293
0.000435406
0.000473755
0.000513253
0.000553803
0.000595293
0.000637595
0.000680576
0.000724077
0.000767932
0.000811964
0.00085598
0.000899779
0.000943147
0.000985862
0.0010277
0.00106842
0.00110778
0.00114556
0.0011815
0.00121538
0.00124697
0.00127605
0.00130241
0.00132586
0.00134622
0.00136333
0.00137706
0.0013873
0.00139396
0.00139698
0.00139633
0.00139201
0.00138405
0.00137249
0.00135744
0.00133901
0.00131733
0.00129257
0.00126492
0.00123461
0.00120185
0.00116689
0.00112999
0.00109142
0.00105146
0.00101038
0.000968467
0.000925999
0.00088325
0.000840489
0.000797976
0.00075596
0.000714681
0.000674365
0.000635227
0.000597467
0.000561271
0.00052681
0.000494244
0.000463716
0.000435357
0.000409284
0.000385601
0.000364395
0.00034574
0.000329693
0.000316288
0.000305536
0.000297411
0.000291845
0.000288711
0.00028781
0.000288828
0.000291328
0.000295103
0.000300273
1.25926e-05
9.46806e-06
4.84358e-06
-1.10238e-06
-8.03368e-06
-1.55785e-05
-2.34162e-05
-3.12797e-05
-3.8952e-05
-4.62645e-05
-5.30926e-05
-5.93492e-05
-6.4977e-05
-6.99432e-05
-7.42327e-05
-7.78427e-05
-8.07781e-05
-8.30473e-05
-8.46602e-05
-8.56259e-05
-8.59504e-05
-8.56349e-05
-8.46759e-05
-8.30643e-05
-8.07857e-05
-7.78201e-05
-7.41426e-05
-6.9723e-05
-6.45267e-05
-5.85155e-05
-5.16473e-05
-4.38777e-05
-3.51603e-05
-2.54478e-05
-1.46915e-05
-2.84209e-06
1.01491e-05
2.43297e-05
3.97453e-05
5.64396e-05
7.44533e-05
9.38232e-05
0.000114582
0.000136758
0.000160375
0.000185448
0.000211988
0.000239996
0.000269465
0.000300382
0.000332719
0.000366443
0.000401507
0.000437852
0.000475408
0.000514094
0.000553813
0.000594453
0.000635886
0.000678004
0.000720629
0.000763603
0.000806753
0.000849892
0.00089282
0.000935328
0.0009772
0.00101821
0.00105812
0.00109671
0.00113374
0.00116897
0.00120217
0.00123312
0.00126161
0.00128742
0.00131037
0.00133028
0.001347
0.0013604
0.00137036
0.0013768
0.00137967
0.00137892
0.00137457
0.00136664
0.00135518
0.00134029
0.00132207
0.00130068
0.00127626
0.00124902
0.00121916
0.00118692
0.00115252
0.00111624
0.00107833
0.00103907
0.000998732
0.000957593
0.000915927
0.000874005
0.000832089
0.000790436
0.00074929
0.000708885
0.000669441
0.000631166
0.000594256
0.000558889
0.000525232
0.000493434
0.000463632
0.000435947
0.00041049
0.000387354
0.000366618
0.000348346
0.000332584
0.000319361
0.000308681
0.00030052
0.000294821
0.000291484
0.000290365
0.000291232
0.000293774
0.000298165
0.000305081
2.24053e-05
1.73334e-05
1.17172e-05
5.36577e-06
-1.6437e-06
-9.01505e-06
-1.64979e-05
-2.38928e-05
-3.10359e-05
-3.77978e-05
-4.40827e-05
-4.98231e-05
-5.4975e-05
-5.95131e-05
-6.34259e-05
-6.67114e-05
-6.93733e-05
-7.14178e-05
-7.28516e-05
-7.36801e-05
-7.39053e-05
-7.35254e-05
-7.25338e-05
-7.09183e-05
-6.86622e-05
-6.57439e-05
-6.21371e-05
-5.78106e-05
-5.27292e-05
-4.68543e-05
-4.01439e-05
-3.25541e-05
-2.40392e-05
-1.45522e-05
-4.04522e-06
7.53029e-06
2.02223e-05
3.40775e-05
4.9141e-05
6.54556e-05
8.30613e-05
0.000101995
0.00012229
0.000143975
0.000167071
0.000191597
0.000217563
0.000244972
0.000273819
0.000304089
0.000335759
0.000368796
0.000403154
0.00043878
0.000475604
0.000513547
0.000552516
0.000592405
0.000633103
0.000674445
0.000716315
0.000758545
0.000800962
0.000843381
0.000885605
0.000927428
0.000968635
0.001009
0.0010483
0.00108631
0.00112277
0.00115748
0.00119019
0.00122068
0.00124874
0.00127417
0.00129677
0.00131637
0.00133282
0.00134598
0.00135575
0.00136203
0.00136478
0.00136396
0.00135957
0.00135164
0.00134022
0.00132541
0.00130732
0.00128609
0.00126189
0.0012349
0.00120533
0.00117341
0.00113939
0.00110352
0.00106606
0.00102729
0.000987467
0.000946881
0.000905799
0.000864487
0.000823207
0.000782209
0.000741736
0.000702017
0.000663268
0.00062569
0.000589473
0.000554791
0.000521801
0.00049065
0.000461462
0.000434354
0.000409425
0.000386762
0.000366437
0.000348504
0.000333006
0.000319966
0.000309389
0.000301257
0.000295529
0.000292138
0.000290991
0.000291928
0.000294737
0.00029988
0.000308451
3.36464e-05
2.63268e-05
1.94579e-05
1.24377e-05
5.08967e-06
-2.35286e-06
-9.70107e-06
-1.68185e-05
-2.35928e-05
-2.99348e-05
-3.57794e-05
-4.10823e-05
-4.58168e-05
-4.99691e-05
-5.35349e-05
-5.65163e-05
-5.89187e-05
-6.07489e-05
-6.20128e-05
-6.27135e-05
-6.28508e-05
-6.24202e-05
-6.14127e-05
-5.98141e-05
-5.76055e-05
-5.47638e-05
-5.12608e-05
-4.70641e-05
-4.21378e-05
-3.64423e-05
-2.99356e-05
-2.25738e-05
-1.4311e-05
-5.10023e-06
5.10657e-06
1.63574e-05
2.86998e-05
4.21804e-05
5.68443e-05
7.27343e-05
8.98906e-05
0.000108351
0.000128148
0.000149311
0.000171865
0.000195827
0.000221209
0.000248016
0.000276244
0.000305881
0.000336905
0.000369286
0.000402982
0.000437939
0.000474094
0.000511368
0.000549672
0.000588902
0.000628942
0.000669657
0.000710907
0.000752534
0.000794368
0.000836227
0.000877915
0.000919229
0.000959953
0.000999867
0.00103874
0.00107635
0.00111246
0.00114683
0.00117923
0.00120945
0.00123726
0.00126247
0.00128487
0.0013043
0.0013206
0.00133363
0.00134329
0.00134949
0.00135216
0.00135129
0.00134687
0.00133892
0.00132751
0.00131272
0.00129467
0.0012735
0.00124938
0.0012225
0.00119307
0.00116131
0.00112747
0.00109182
0.0010546
0.0010161
0.000976591
0.000936341
0.000895626
0.000854712
0.000813856
0.00077331
0.000733311
0.000694087
0.00065585
0.000618798
0.000583113
0.000548963
0.000516502
0.000485865
0.000457175
0.000430538
0.000406046
0.000383779
0.000363801
0.000346164
0.000330904
0.000318045
0.000307593
0.00029954
0.000293862
0.00029052
0.000289469
0.000290604
0.000293781
0.000299665
0.000309648
4.56003e-05
3.58968e-05
2.76068e-05
1.97296e-05
1.18466e-05
4.14085e-06
-3.2517e-06
-1.02527e-05
-1.67983e-05
-2.28387e-05
-2.83406e-05
-3.3285e-05
-3.76643e-05
-4.14791e-05
-4.47354e-05
-4.74418e-05
-4.96081e-05
-5.12437e-05
-5.2355e-05
-5.2945e-05
-5.30123e-05
-5.25509e-05
-5.15497e-05
-4.99931e-05
-4.78607e-05
-4.51273e-05
-4.17633e-05
-3.77349e-05
-3.30048e-05
-2.75326e-05
-2.1276e-05
-1.41902e-05
-6.22898e-06
2.65545e-06
1.25114e-05
2.33871e-05
3.53303e-05
4.8388e-05
6.26058e-05
7.80272e-05
9.46933e-05
0.000112642
0.000131909
0.000152524
0.000174512
0.000197893
0.000222682
0.000248884
0.000276497
0.000305514
0.000335914
0.000367671
0.000400744
0.000435085
0.000470631
0.000507309
0.00054503
0.000583695
0.000623189
0.000663385
0.000704141
0.000745302
0.000786699
0.000828152
0.000869468
0.000910442
0.000950861
0.000990504
0.00102914
0.00106654
0.00110247
0.0011367
0.00116899
0.00119911
0.00122685
0.00125199
0.00127436
0.00129375
0.00131003
0.00132305
0.0013327
0.00133888
0.00134154
0.00134066
0.00133621
0.00132824
0.00131681
0.00130199
0.00128391
0.00126272
0.00123857
0.00121167
0.00118222
0.00115047
0.00111665
0.00108103
0.00104387
0.00100545
0.000966037
0.00092592
0.000885365
0.000844642
0.000804009
0.000763716
0.000723999
0.000685084
0.000647181
0.000610484
0.00057517
0.000541402
0.000509327
0.000479075
0.000450763
0.000424489
0.000400341
0.000378391
0.000358698
0.00034131
0.00032626
0.000313571
0.000303255
0.000295312
0.000289733
0.000286507
0.000285624
0.000287018
0.00029059
0.000297139
0.000308258
5.76567e-05
4.55239e-05
3.572e-05
2.68635e-05
1.83092e-05
1.02012e-05
2.62921e-06
-4.38131e-06
-1.08116e-05
-1.66499e-05
-2.18949e-05
-2.65533e-05
-3.06378e-05
-3.41649e-05
-3.71524e-05
-3.96182e-05
-4.15782e-05
-4.30453e-05
-4.40281e-05
-4.45307e-05
-4.45517e-05
-4.40842e-05
-4.31162e-05
-4.16308e-05
-3.96061e-05
-3.70155e-05
-3.38275e-05
-3.0007e-05
-2.55152e-05
-2.03112e-05
-1.43512e-05
-7.58956e-06
2.11412e-08
8.52934e-06
1.7984e-05
2.84343e-05
3.99291e-05
5.25159e-05
6.62413e-05
8.11501e-05
9.72849e-05
0.000114685
0.000133388
0.000153425
0.000174824
0.000197606
0.000221788
0.000247379
0.00027438
0.000302785
0.000332579
0.000363736
0.000396223
0.000429991
0.000464982
0.000501126
0.000538339
0.000576523
0.000615567
0.000655347
0.000695722
0.00073654
0.000777635
0.000818825
0.000859918
0.000900712
0.000940991
0.000980532
0.00101911
0.00105648
0.00109241
0.00112667
0.00115902
0.00118922
0.00121705
0.0012423
0.00126477
0.00128428
0.00130067
0.00131379
0.00132352
0.00132977
0.00133249
0.00133163
0.0013272
0.00131921
0.00130774
0.00129286
0.0012747
0.00125341
0.00122914
0.00120212
0.00117254
0.00114065
0.0011067
0.00107095
0.00103367
0.000995151
0.000955665
0.000915492
0.000874911
0.000834192
0.000793595
0.000753371
0.000713757
0.000674977
0.00063724
0.000600737
0.000565641
0.000532111
0.000500289
0.000470298
0.00044225
0.000416239
0.000392345
0.000370636
0.000351165
0.000333977
0.000319104
0.000306568
0.000296385
0.000288564
0.000283109
0.00028003
0.000279342
0.000281008
0.000284953
0.000292064
0.000304063
6.92918e-05
5.47362e-05
4.33764e-05
3.34678e-05
2.41532e-05
1.55459e-05
7.69553e-06
5.79569e-07
-5.82562e-06
-1.15445e-05
-1.66065e-05
-2.10441e-05
-2.48909e-05
-2.81799e-05
-3.0942e-05
-3.32054e-05
-3.49932e-05
-3.6323e-05
-3.7207e-05
-3.76509e-05
-3.76541e-05
-3.72099e-05
-3.63061e-05
-3.49246e-05
-3.30423e-05
-3.06311e-05
-2.76579e-05
-2.40861e-05
-1.98759e-05
-1.49851e-05
-9.36847e-06
-2.97883e-06
4.23247e-06
1.23149e-05
2.13185e-05
3.12939e-05
4.22913e-05
5.43598e-05
6.75471e-05
8.18998e-05
9.74623e-05
0.000114277
0.000132381
0.00015181
0.000172594
0.000194757
0.000218318
0.000243289
0.000269676
0.000297475
0.000326674
0.000357253
0.000389181
0.000422413
0.000456896
0.000492562
0.000529331
0.000567109
0.000605787
0.000645244
0.000685343
0.000725931
0.000766844
0.000807902
0.000848912
0.000889671
0.000929963
0.000969564
0.00100824
0.00104575
0.00108186
0.00111632
0.00114889
0.00117934
0.00120743
0.00123295
0.00125568
0.00127545
0.00129207
0.00130541
0.00131533
0.00132175
0.00132459
0.00132382
0.00131943
0.00131145
0.00129994
0.00128499
0.00126671
0.00124526
0.00122082
0.00119358
0.00116376
0.00113162
0.0010974
0.00106139
0.00102385
0.000985068
0.000945339
0.000904943
0.000864164
0.000823275
0.000782542
0.000742217
0.000702539
0.000663732
0.000626002
0.00058954
0.000554519
0.00052109
0.000489393
0.000459546
0.000431654
0.000405808
0.000382081
0.000360537
0.000341226
0.000324188
0.000309453
0.000297044
0.00028698
0.000279278
0.000273951
0.000271025
0.000270532
0.000272454
0.000276729
0.000284297
0.000296962
8.00436e-05
6.31028e-05
5.01787e-05
3.91807e-05
2.9052e-05
1.98807e-05
1.16823e-05
4.38927e-06
-2.06154e-06
-7.72864e-06
-1.26709e-05
-1.69459e-05
-2.06082e-05
-2.37075e-05
-2.62887e-05
-2.83901e-05
-3.00429e-05
-3.12709e-05
-3.20899e-05
-3.25081e-05
-3.25264e-05
-3.21391e-05
-3.13338e-05
-3.00919e-05
-2.8389e-05
-2.61957e-05
-2.34776e-05
-2.01968e-05
-1.63122e-05
-1.17799e-05
-6.55325e-06
-5.83246e-07
6.18011e-06
1.37878e-05
2.22915e-05
3.17435e-05
4.21957e-05
5.36991e-05
6.63033e-05
8.0057e-05
9.5007e-05
0.000111198
0.00012867
0.000147461
0.000167604
0.000189126
0.000212049
0.00023639
0.000262156
0.00028935
0.000317963
0.000347979
0.00037937
0.000412098
0.00044611
0.000481345
0.000517726
0.000555162
0.000593549
0.000632766
0.00067268
0.00071314
0.000753982
0.000795028
0.000836084
0.000876944
0.000917393
0.000957202
0.000996134
0.00103395
0.00107039
0.00110522
0.00113819
0.00116905
0.00119756
0.00122349
0.00124664
0.00126681
0.0012838
0.00129748
0.00130771
0.00131439
0.00131745
0.00131684
0.00131255
0.00130461
0.00129308
0.00127805
0.00125964
0.00123801
0.00121332
0.0011858
0.00115567
0.00112317
0.00108858
0.00105217
0.00101423
0.000975054
0.000934932
0.000894161
0.000853026
0.000811809
0.00077078
0.000730196
0.000690297
0.000651309
0.000613439
0.000576876
0.00054179
0.000508333
0.000476639
0.000446822
0.000418984
0.000393207
0.000369564
0.00034811
0.000328894
0.000311951
0.00029731
0.000284996
0.000275028
0.000267428
0.000262219
0.000259433
0.00025912
0.000261267
0.00026582
0.000273751
0.000286918
8.94978e-05
7.02261e-05
5.57512e-05
4.36515e-05
3.26807e-05
2.29064e-05
1.43127e-05
6.79092e-06
2.40474e-07
-5.42931e-06
-1.03052e-05
-1.4469e-05
-1.79955e-05
-2.09517e-05
-2.3396e-05
-2.5377e-05
-2.69346e-05
-2.80987e-05
-2.88895e-05
-2.93184e-05
-2.93883e-05
-2.90946e-05
-2.84251e-05
-2.73607e-05
-2.58764e-05
-2.39412e-05
-2.15199e-05
-1.85732e-05
-1.50585e-05
-1.09301e-05
-6.13952e-06
-6.36309e-07
5.63126e-06
1.27162e-05
2.06723e-05
2.95536e-05
3.9414e-05
5.03067e-05
6.2284e-05
7.53968e-05
8.96946e-05
0.000105225
0.00012203
0.000140153
0.000159627
0.000180485
0.000202752
0.000226447
0.000251585
0.000278171
0.000306201
0.000335663
0.000366533
0.000398778
0.00043235
0.000467191
0.00050323
0.000540378
0.000578535
0.000617585
0.000657394
0.000697816
0.000738687
0.000779827
0.000821045
0.000862133
0.000902871
0.000943028
0.000982363
0.00102063
0.00105757
0.00109293
0.00112645
0.00115788
0.00118697
0.00121349
0.0012372
0.00125792
0.00127543
0.00128959
0.00130025
0.0013073
0.00131067
0.0013103
0.00130618
0.00129834
0.00128683
0.00127174
0.00125319
0.00123135
0.0012064
0.00117854
0.00114802
0.00111509
0.00108003
0.00104313
0.00100467
0.000964966
0.000924319
0.000883032
0.000841398
0.000799707
0.000758235
0.000717244
0.000676979
0.000637666
0.000599516
0.000562717
0.000527439
0.000493829
0.000462022
0.000432127
0.00040424
0.000378442
0.000354798
0.000333361
0.000314174
0.000297269
0.000282675
0.000270416
0.000260512
0.000252989
0.000247874
0.000245208
0.000245046
0.000247383
0.000252164
0.000260381
0.000273925
9.72736e-05
7.57344e-05
5.9736e-05
4.65397e-05
3.47185e-05
2.43209e-05
1.53023e-05
7.51574e-06
8.25426e-07
-4.88999e-06
-9.74396e-06
-1.38414e-05
-1.72769e-05
-2.01338e-05
-2.24838e-05
-2.43865e-05
-2.58897e-05
-2.70296e-05
-2.78313e-05
-2.83098e-05
-2.84702e-05
-2.83091e-05
-2.78148e-05
-2.69679e-05
-2.57425e-05
-2.4107e-05
-2.2025e-05
-1.9456e-05
-1.63555e-05
-1.26761e-05
-8.36743e-06
-3.3774e-06
2.34781e-06
8.86341e-06
1.62254e-05
2.44901e-05
3.37135e-05
4.39516e-05
5.52591e-05
6.769e-05
8.12966e-05
9.6129e-05
0.000112234
0.000129655
0.000148433
0.000168601
0.00019019
0.000213224
0.00023772
0.000263689
0.000291132
0.000320041
0.000350398
0.000382173
0.000415325
0.0004498
0.000485529
0.000522431
0.000560409
0.000599349
0.000639121
0.000679581
0.000720565
0.000761896
0.000803379
0.000844806
0.000885954
0.000926588
0.000966462
0.00100532
0.0010429
0.00107894
0.00111318
0.00114534
0.00117518
0.00120244
0.00122689
0.0012483
0.00126649
0.00128127
0.0012925
0.00130005
0.00130384
0.00130381
0.00129995
0.00129227
0.00128083
0.00126572
0.00124706
0.00122502
0.00119977
0.00117156
0.0011406
0.00110718
0.00107157
0.00103408
0.000995004
0.000954664
0.000913374
0.000871445
0.000829182
0.000786884
0.000744833
0.000703298
0.00066253
0.00062276
0.000584199
0.000547038
0.000511443
0.000477565
0.000445532
0.000415454
0.000387422
0.000361512
0.000337785
0.000316289
0.000297064
0.00028014
0.000265541
0.000253292
0.000243414
0.000235936
0.000230886
0.000228309
0.000228267
0.000230755
0.000235718
0.00024416
0.000257996
0.000103015
7.92762e-05
6.1791e-05
4.75151e-05
3.48481e-05
2.38209e-05
1.43616e-05
6.28658e-06
-5.72815e-07
-6.36718e-06
-1.12359e-05
-1.53062e-05
-1.86911e-05
-2.14898e-05
-2.37869e-05
-2.56524e-05
-2.71421e-05
-2.82986e-05
-2.91519e-05
-2.97204e-05
-3.00119e-05
-3.00242e-05
-2.97458e-05
-2.91574e-05
-2.82325e-05
-2.69389e-05
-2.52392e-05
-2.30912e-05
-2.0449e-05
-1.72631e-05
-1.34816e-05
-9.05e-06
-3.91236e-06
1.9888e-06
8.71177e-06
1.63153e-05
2.48581e-05
3.43987e-05
4.49952e-05
5.67041e-05
6.95808e-05
8.36785e-05
9.90476e-05
0.000115735
0.000133785
0.000153235
0.000174121
0.000196471
0.000220307
0.000245644
0.000272489
0.000300838
0.000330678
0.000361986
0.000394725
0.000428846
0.000464286
0.000500968
0.0005388
0.000577673
0.00061746
0.000658018
0.000699185
0.000740784
0.00078262
0.000824484
0.000866149
0.000907376
0.000947914
0.000987501
0.00102587
0.00106274
0.00109784
0.0011309
0.00116165
0.00118981
0.00121516
0.00123744
0.00125646
0.00127202
0.00128397
0.00129216
0.0012965
0.00129694
0.00129344
0.00128602
0.00127473
0.00125966
0.00124093
0.00121871
0.00119319
0.00116459
0.00113318
0.00109922
0.00106301
0.00102485
0.000985081
0.000944011
0.000901973
0.000859291
0.000816282
0.000773255
0.0007305
0.000688296
0.000646899
0.000606545
0.000567449
0.000529804
0.000493778
0.00045952
0.000427156
0.000396793
0.000368522
0.000342411
0.000318519
0.00029689
0.000277559
0.000260553
0.000245896
0.000233609
0.000223715
0.000216242
0.000211222
0.000208701
0.000208744
0.000211347
0.000216453
0.000225074
0.000239145
0.000106386
8.05163e-05
6.15865e-05
4.6256e-05
3.27569e-05
2.11036e-05
1.1198e-05
2.82089e-06
-4.22805e-06
-1.01274e-05
-1.50413e-05
-1.91181e-05
-2.24889e-05
-2.52677e-05
-2.75513e-05
-2.94198e-05
-3.09366e-05
-3.21508e-05
-3.3097e-05
-3.37972e-05
-3.42612e-05
-3.44882e-05
-3.44673e-05
-3.4179e-05
-3.35968e-05
-3.26877e-05
-3.14131e-05
-2.97293e-05
-2.75887e-05
-2.49403e-05
-2.17298e-05
-1.79005e-05
-1.33941e-05
-8.151e-06
-2.11046e-06
4.78892e-06
1.26088e-05
2.14107e-05
3.12554e-05
4.22025e-05
5.43104e-05
6.76357e-05
8.22323e-05
9.81511e-05
0.000115439
0.00013414
0.000154292
0.000175929
0.000199078
0.000223758
0.000249982
0.000277753
0.000307061
0.00033789
0.000370208
0.000403971
0.000439124
0.000475594
0.000513295
0.000552124
0.000591958
0.000632653
0.000674052
0.000715977
0.000758235
0.000800614
0.000842885
0.000884806
0.000926119
0.000966556
0.00100584
0.00104369
0.00107981
0.00111392
0.00114574
0.00117498
0.0012014
0.00122473
0.00124476
0.00126127
0.0012741
0.0012831
0.00128816
0.0012892
0.0012862
0.00127916
0.00126812
0.00125317
0.00123445
0.0012121
0.00118634
0.00115739
0.00112551
0.001091
0.00105415
0.00101529
0.000974751
0.000932874
0.000890001
0.00084647
0.000802611
0.000758744
0.000715172
0.00067218
0.000630035
0.000588979
0.000549231
0.000510988
0.000474419
0.000439672
0.000406875
0.000376131
0.000347527
0.000321129
0.000296992
0.000275154
0.000255648
0.000238499
0.000223726
0.00021135
0.000201393
0.000193882
0.000188852
0.00018635
0.000186442
0.000189125
0.00019434
0.000203106
0.000217377
0.000107064
7.91321e-05
5.88028e-05
4.24479e-05
2.81369e-05
1.58683e-05
5.51813e-06
-3.16733e-06
-1.04196e-05
-1.6444e-05
-2.14283e-05
-2.5541e-05
-2.89306e-05
-3.17251e-05
-3.40327e-05
-3.59429e-05
-3.75269e-05
-3.88395e-05
-3.992e-05
-4.07934e-05
-4.14717e-05
-4.19551e-05
-4.22333e-05
-4.22871e-05
-4.20898e-05
-4.16076e-05
-4.08006e-05
-3.96235e-05
-3.80273e-05
-3.59589e-05
-3.33619e-05
-3.01774e-05
-2.63446e-05
-2.18018e-05
-1.64856e-05
-1.03319e-05
-3.27602e-06
4.74632e-06
1.37988e-05
2.39439e-05
3.52432e-05
4.77565e-05
6.15416e-05
7.66525e-05
9.31406e-05
0.000111053
0.000130434
0.00015132
0.000173744
0.000197732
0.0002233
0.000250456
0.0002792
0.000309518
0.000341387
0.000374769
0.000409614
0.000445855
0.000483414
0.000522199
0.000562085
0.000602932
0.000644584
0.000686869
0.000729591
0.00077254
0.000815485
0.000858179
0.000900361
0.000941755
0.000982076
0.00102103
0.00105832
0.00109364
0.00112669
0.0011572
0.00118486
0.00120943
0.00123066
0.00124832
0.00126223
0.00127223
0.00127818
0.00128002
0.00127768
0.00127117
0.00126053
0.00124584
0.00122723
0.00120485
0.00117892
0.00114966
0.00111736
0.0010823
0.0010448
0.00100521
0.000963864
0.000921125
0.000877348
0.000832887
0.000788087
0.000743282
0.000698788
0.000654903
0.000611899
0.000570029
0.000529517
0.000490564
0.000453344
0.000418005
0.000384674
0.000353453
0.000324425
0.000297655
0.000273191
0.00025107
0.000231319
0.000213961
0.000199013
0.000186493
0.000176423
0.000168829
0.000163746
0.000161224
0.000161328
0.000164058
0.000169351
0.000178238
0.00019269
0.000104736
7.48111e-05
5.31291e-05
3.57834e-05
2.06853e-05
7.81699e-06
-2.97089e-06
-1.1966e-05
-1.94304e-05
-2.55953e-05
-3.0671e-05
-3.48455e-05
-3.82835e-05
-4.11264e-05
-4.34935e-05
-4.5483e-05
-4.71732e-05
-4.86244e-05
-4.988e-05
-5.09678e-05
-5.19016e-05
-5.26828e-05
-5.33019e-05
-5.37399e-05
-5.39694e-05
-5.39557e-05
-5.36579e-05
-5.30294e-05
-5.20192e-05
-5.05723e-05
-4.86301e-05
-4.61314e-05
-4.30134e-05
-3.92119e-05
-3.46609e-05
-2.92935e-05
-2.30422e-05
-1.58403e-05
-7.62132e-06
1.68027e-06
1.2129e-05
2.37878e-05
3.67173e-05
5.09758e-05
6.6618e-05
8.36955e-05
0.000102256
0.000122341
0.00014399
0.000167231
0.000192089
0.000218577
0.000246701
0.000276454
0.00030782
0.000340769
0.000375257
0.00041122
0.000448579
0.000487299
0.000527212
0.00056819
0.000610084
0.000652725
0.000695923
0.000739464
0.00078312
0.000826641
0.00086976
0.000912197
0.000953657
0.000993837
0.00103242
0.00106911
0.00110357
0.00113551
0.00116462
0.00119064
0.00121328
0.00123231
0.00124753
0.00125875
0.00126584
0.00126868
0.00126723
0.00126146
0.00125141
0.00123715
0.0012188
0.00119653
0.00117054
0.00114108
0.00110841
0.00107286
0.00103475
0.00099443
0.000952268
0.000908635
0.000863907
0.000818455
0.00077264
0.000726814
0.000681305
0.000636426
0.000592461
0.00054967
0.000508288
0.00046852
0.000430543
0.000394509
0.000360545
0.000328751
0.000299209
0.00027198
0.000247108
0.000224626
0.000204559
0.000186924
0.000171738
0.000159016
0.000148779
0.000141051
0.00013587
0.000133285
0.000133364
0.000136107
0.000141452
0.00015044
0.000165065
9.91002e-05
6.72498e-05
4.42624e-05
2.59615e-05
1.0104e-05
-3.34517e-06
-1.45607e-05
-2.38633e-05
-3.15448e-05
-3.78619e-05
-4.30468e-05
-4.7306e-05
-5.08195e-05
-5.37415e-05
-5.62017e-05
-5.83064e-05
-6.01407e-05
-6.17697e-05
-6.32403e-05
-6.4583e-05
-6.5813e-05
-6.69331e-05
-6.79344e-05
-6.87978e-05
-6.94953e-05
-6.99913e-05
-7.02437e-05
-7.02046e-05
-6.98211e-05
-6.90359e-05
-6.77885e-05
-6.60159e-05
-6.3653e-05
-6.06329e-05
-5.68874e-05
-5.23469e-05
-4.69415e-05
-4.06021e-05
-3.32597e-05
-2.48461e-05
-1.52941e-05
-4.53808e-06
7.48555e-06
2.08381e-05
3.55783e-05
5.17611e-05
6.94378e-05
8.86557e-05
0.000109457
0.000131878
0.000155948
0.000181686
0.000209105
0.000238208
0.000268984
0.000301414
0.000335458
0.000371053
0.000408069
0.000446706
0.000486576
0.000527615
0.000569692
0.000612642
0.00065628
0.000700396
0.00074476
0.000789123
0.000833214
0.000876749
0.000919424
0.000960928
0.00100094
0.00103912
0.00107516
0.00110872
0.0011395
0.00116718
0.00119148
0.00121214
0.00122894
0.00124166
0.00125015
0.00125428
0.00125399
0.00124923
0.00124002
0.00122643
0.00120858
0.00118662
0.00116075
0.00113123
0.00109834
0.0010624
0.00102374
0.000982748
0.000939793
0.00089527
0.000849573
0.000803093
0.000756211
0.000709294
0.000662691
0.000616729
0.000571707
0.000527896
0.000485541
0.000444853
0.000406017
0.000369186
0.000334489
0.000302027
0.000271877
0.000244099
0.000218735
0.000195813
0.000175354
0.000157373
0.000141883
0.000128896
0.000118433
0.000110518
0.000105188
0.000102495
0.000102509
0.000105232
0.000110601
0.000119673
0.000134468
8.98616e-05
5.61527e-05
3.19072e-05
1.26874e-05
-3.90046e-06
-1.79097e-05
-2.95405e-05
-3.91462e-05
-4.70474e-05
-5.35259e-05
-5.88352e-05
-6.31995e-05
-6.68134e-05
-6.98433e-05
-7.24285e-05
-7.46831e-05
-7.66979e-05
-7.85426e-05
-8.02671e-05
-8.1904e-05
-8.34704e-05
-8.497e-05
-8.63943e-05
-8.77237e-05
-8.89297e-05
-8.99758e-05
-9.08187e-05
-9.14089e-05
-9.16915e-05
-9.16076e-05
-9.10947e-05
-9.00878e-05
-8.85197e-05
-8.63214e-05
-8.34221e-05
-7.97503e-05
-7.5234e-05
-6.98017e-05
-6.33827e-05
-5.59066e-05
-4.73042e-05
-3.75074e-05
-2.64503e-05
-1.4069e-05
-3.01856e-07
1.49095e-05
3.16198e-05
4.98807e-05
6.97393e-05
9.12368e-05
0.000114408
0.00013928
0.000165873
0.000194198
0.000224254
0.00025603
0.000289503
0.000324647
0.000361467
0.000399599
0.000439235
0.000480198
0.000522336
0.000565489
0.000609473
0.000654086
0.0006991
0.000744267
0.000789317
0.00083396
0.00087789
0.000920785
0.000962314
0.00100214
0.00103991
0.00107529
0.00110794
0.00113754
0.00116378
0.00118637
0.00120506
0.00121962
0.00122986
0.00123564
0.00123685
0.00123345
0.00122543
0.00121284
0.00119579
0.00117442
0.00114894
0.0011196
0.00108669
0.00105053
0.00101147
0.000969914
0.000926245
0.00088088
0.000834235
0.000786722
0.000738746
0.000690693
0.000642934
0.000595813
0.000549646
0.000504721
0.000461293
0.000419584
0.000379785
0.000342054
0.000306523
0.000273292
0.000242439
0.00021402
0.000188074
0.000164628
0.000143697
0.000125293
0.000109426
9.61075e-05
8.53545e-05
7.7193e-05
7.16596e-05
6.88095e-05
6.87153e-05
7.13809e-05
7.67473e-05
8.58871e-05
0.00010085
7.6732e-05
4.12308e-05
1.57746e-05
-4.32775e-06
-2.16168e-05
-3.61644e-05
-4.81966e-05
-5.80992e-05
-6.62212e-05
-7.28687e-05
-7.83156e-05
-8.28035e-05
-8.65411e-05
-8.97062e-05
-9.24469e-05
-9.48846e-05
-9.71153e-05
-9.92123e-05
-0.000101228
-0.000103198
-0.000105141
-0.00010706
-0.000108947
-0.000110782
-0.000112537
-0.000114173
-0.000115646
-0.000116904
-0.000117892
-0.000118549
-0.00011881
-0.000118609
-0.000117876
-0.000116541
-0.00011453
-0.000111772
-0.000108191
-0.000103715
-9.82727e-05
-9.17915e-05
-8.42012e-05
-7.54322e-05
-6.54165e-05
-5.40886e-05
-4.13851e-05
-2.72449e-05
-1.161e-05
5.57498e-06
2.43611e-05
4.47947e-05
6.69167e-05
9.07615e-05
0.000116357
0.000143722
0.000172866
0.000203789
0.000236476
0.000270903
0.000307027
0.000344725
0.000383975
0.000424665
0.000466669
0.000509836
0.000553994
0.000598947
0.000644476
0.000690337
0.000736263
0.000781965
0.000827135
0.000871446
0.000914558
0.000956121
0.000995778
0.00103317
0.00106794
0.00109973
0.00112823
0.0011531
0.00117407
0.00119087
0.0012033
0.00121116
0.00121434
0.00121275
0.00120637
0.00119523
0.0011794
0.00115903
0.00113432
0.0011055
0.00107287
0.00103676
0.000997536
0.0009556
0.000911369
0.000865275
0.000817758
0.000769254
0.000720195
0.000670992
0.000622037
0.000573699
0.000526314
0.000480188
0.000435591
0.000392759
0.000351892
0.000313155
0.000276683
0.000242578
0.000210919
0.000181759
0.000155137
0.000131075
0.000109585
9.06749e-05
7.43525e-05
6.06268e-05
4.95138e-05