/*--------------------------------*- C++ -*----------------------------------*\
| =========                 |                                                 |
| \\      /  F ield         | OpenFOAM: The Open Source CFD Toolbox           |
|  \\    /   O peration     | Version:  2112                                  |
|   \\  /    A nd           | Website:  www.openfoam.com                      |
|    \\/     M anipulation  |                                                 |
\*---------------------------------------------------------------------------*/
FoamFile
{
    version     2.0;
    format      ascii;
    arch        "LSB;label=32;scalar=64";
    class       surfaceScalarField;
    location    "9";
    object      phi;
}
// * * * * * * * * * * * * * * * * * * * * * * * * * * * * * * * * * * * * * //

dimensions      [0 3 -1 0 0 0 0];

oriented        oriented;

internalField   nonuniform List<scalar> 
33024
(
5.31986e-09
-5.3241e-09
1.2764e-08
-7.44391e-09
1.68597e-08
-4.09542e-09
1.52344e-08
1.62507e-09
7.16608e-09
8.06833e-09
-7.23734e-09
1.44033e-08
-2.74587e-08
2.02215e-08
-5.28055e-08
2.53468e-08
-8.25336e-08
2.97284e-08
-1.15921e-07
3.33872e-08
-1.52303e-07
3.63816e-08
-1.9109e-07
3.87865e-08
-2.31773e-07
4.06839e-08
-2.73928e-07
4.21552e-08
-3.17205e-07
4.32768e-08
-3.61324e-07
4.41191e-08
-4.06068e-07
4.4744e-08
-4.51274e-07
4.5205e-08
-4.96821e-07
4.55471e-08
-5.42627e-07
4.58065e-08
-5.88638e-07
4.60114e-08
-6.34823e-07
4.61842e-08
-6.81164e-07
4.63408e-08
-7.27655e-07
4.64915e-08
-7.74297e-07
4.6642e-08
-8.21091e-07
4.67941e-08
-8.68037e-07
4.69463e-08
-9.15132e-07
4.70948e-08
-9.62367e-07
4.72341e-08
-1.00972e-06
4.73565e-08
-1.05718e-06
4.74532e-08
-1.10469e-06
4.75143e-08
-1.15222e-06
4.75296e-08
-1.19971e-06
4.74885e-08
-1.24709e-06
4.73804e-08
-1.29428e-06
4.71947e-08
-1.3412e-06
4.69205e-08
-1.38775e-06
4.6547e-08
-1.43381e-06
4.6064e-08
-1.47928e-06
4.54617e-08
-1.52401e-06
4.47307e-08
-1.56787e-06
4.38619e-08
-1.61072e-06
4.28468e-08
-1.65239e-06
4.16774e-08
-1.69274e-06
4.03462e-08
-1.73158e-06
3.88462e-08
-1.76876e-06
3.71715e-08
-1.80407e-06
3.5317e-08
-1.83735e-06
3.32778e-08
-1.8684e-06
3.10501e-08
-1.89703e-06
2.86312e-08
-1.92305e-06
2.60195e-08
-1.94627e-06
2.32143e-08
-1.96648e-06
2.02162e-08
-1.98351e-06
1.7027e-08
-1.99716e-06
1.36502e-08
-2.00725e-06
1.00909e-08
-2.01361e-06
6.35607e-09
-2.01606e-06
2.45421e-09
-2.01445e-06
-1.60581e-09
-2.00864e-06
-5.80962e-09
-1.9985e-06
-1.01428e-08
-1.98391e-06
-1.45886e-08
-1.96479e-06
-1.9128e-08
-1.94105e-06
-2.37393e-08
-1.91265e-06
-2.83991e-08
-1.87957e-06
-3.30817e-08
-1.84181e-06
-3.77592e-08
-1.7994e-06
-4.24021e-08
-1.75242e-06
-4.69792e-08
-1.70097e-06
-5.14577e-08
-1.64516e-06
-5.5804e-08
-1.58518e-06
-5.9984e-08
-1.52122e-06
-6.39632e-08
-1.45351e-06
-6.77071e-08
-1.38233e-06
-7.1182e-08
-1.30797e-06
-7.43557e-08
-1.23077e-06
-7.71973e-08
-1.15109e-06
-7.96783e-08
-1.06932e-06
-8.1773e-08
-9.85864e-07
-8.34584e-08
-9.01149e-07
-8.47154e-08
-8.1562e-07
-8.55289e-08
-7.29732e-07
-8.58879e-08
-6.43946e-07
-8.57861e-08
-5.58724e-07
-8.52218e-08
-4.74526e-07
-8.4198e-08
-3.91804e-07
-8.27227e-08
-3.10996e-07
-8.08083e-08
-2.32524e-07
-7.84717e-08
-1.5679e-07
-7.57343e-08
-8.41688e-08
-7.26208e-08
-1.50089e-08
-6.916e-08
5.03747e-08
-6.53835e-08
1.11699e-07
-6.13246e-08
1.68718e-07
-5.70191e-08
2.21222e-07
-5.25038e-08
2.69038e-07
-4.78167e-08
3.12034e-07
-4.29954e-08
3.50111e-07
-3.80771e-08
3.83209e-07
-3.30982e-08
4.11303e-07
-2.80937e-08
4.344e-07
-2.30971e-08
4.5254e-07
-1.81398e-08
4.65791e-07
-1.32508e-08
4.74248e-07
-8.45688e-09
4.78031e-07
-3.7833e-09
4.77284e-07
7.48056e-10
4.7217e-07
5.11351e-09
4.62874e-07
9.29585e-09
4.49599e-07
1.32749e-08
4.32568e-07
1.70315e-08
4.12023e-07
2.05446e-08
3.88231e-07
2.37918e-08
3.61484e-07
2.67467e-08
3.32108e-07
2.93771e-08
3.00464e-07
3.16425e-08
2.66972e-07
3.34928e-08
2.32109e-07
3.48629e-08
1.96439e-07
3.56694e-08
1.60633e-07
3.58064e-08
1.25495e-07
3.51384e-08
9.20003e-08
3.34948e-08
6.13344e-08
3.0666e-08
3.49218e-08
2.64128e-08
1.44045e-08
2.05174e-08
1.46994e-09
1.29346e-08
-2.83461e-09
4.30467e-09
-2.83463e-09
7.43685e-09
-1.27608e-08
1.40007e-08
-1.40073e-08
1.13923e-08
-1.48678e-09
-4.62274e-09
1.76402e-08
-3.58636e-08
3.93091e-08
-8.24885e-08
6.10283e-08
-1.43658e-07
8.13905e-08
-2.18002e-07
9.96903e-08
-3.03916e-07
1.15643e-07
-3.99746e-07
1.29217e-07
-5.03897e-07
1.40534e-07
-6.14907e-07
1.49796e-07
-7.31473e-07
1.5725e-07
-8.52473e-07
1.63154e-07
-9.76958e-07
1.67762e-07
-1.10415e-06
1.7131e-07
-1.23342e-06
1.74013e-07
-1.36427e-06
1.76059e-07
-1.49633e-06
1.77608e-07
-1.62932e-06
1.78794e-07
-1.76303e-06
1.79722e-07
-1.89732e-06
1.80476e-07
-2.0321e-06
1.81116e-07
-2.16729e-06
1.81684e-07
-2.30285e-06
1.82204e-07
-2.43875e-06
1.82687e-07
-2.57493e-06
1.83132e-07
-2.71136e-06
1.83527e-07
-2.84798e-06
1.83853e-07
-2.98471e-06
1.84084e-07
-3.12145e-06
1.84192e-07
-3.25807e-06
1.84141e-07
-3.39444e-06
1.83895e-07
-3.53037e-06
1.83417e-07
-3.66566e-06
1.82669e-07
-3.80007e-06
1.81611e-07
-3.93336e-06
1.80205e-07
-4.06522e-06
1.78413e-07
-4.19536e-06
1.76198e-07
-4.32342e-06
1.73525e-07
-4.44905e-06
1.7036e-07
-4.57186e-06
1.66671e-07
-4.69144e-06
1.62427e-07
-4.80736e-06
1.57603e-07
-4.91919e-06
1.5217e-07
-5.02645e-06
1.46108e-07
-5.12867e-06
1.39395e-07
-5.22537e-06
1.32014e-07
-5.31604e-06
1.23952e-07
-5.40019e-06
1.15197e-07
-5.4773e-06
1.05742e-07
-5.54686e-06
9.55838e-08
-5.60837e-06
8.47238e-08
-5.66132e-06
7.31672e-08
-5.70522e-06
6.09246e-08
-5.73958e-06
4.8012e-08
-5.76394e-06
3.44511e-08
-5.77786e-06
2.02702e-08
-5.78091e-06
5.50325e-09
-5.7727e-06
-9.81156e-09
-5.75289e-06
-2.56231e-08
-5.72116e-06
-4.18745e-08
-5.67724e-06
-5.85031e-08
-5.62093e-06
-7.54379e-08
-5.55207e-06
-9.25999e-08
-5.47057e-06
-1.09902e-07
-5.3764e-06
-1.27252e-07
-5.26961e-06
-1.44548e-07
-5.15033e-06
-1.61684e-07
-5.01876e-06
-1.78547e-07
-4.87519e-06
-1.95022e-07
-4.72001e-06
-2.10988e-07
-4.55367e-06
-2.26324e-07
-4.37673e-06
-2.40908e-07
-4.18982e-06
-2.54619e-07
-3.99366e-06
-2.67337e-07
-3.78907e-06
-2.7895e-07
-3.57691e-06
-2.89348e-07
-3.35816e-06
-2.98433e-07
-3.13382e-06
-3.06112e-07
-2.90497e-06
-3.12306e-07
-2.67274e-06
-3.16948e-07
-2.43829e-06
-3.19985e-07
-2.2028e-06
-3.21377e-07
-1.96748e-06
-3.21103e-07
-1.73355e-06
-3.19155e-07
-1.5022e-06
-3.15543e-07
-1.27463e-06
-3.10294e-07
-1.05199e-06
-3.03451e-07
-8.35386e-07
-2.95073e-07
-6.25888e-07
-2.85232e-07
-4.24494e-07
-2.74016e-07
-2.32131e-07
-2.61523e-07
-4.96524e-08
-2.47862e-07
1.22177e-07
-2.33154e-07
2.82678e-07
-2.17521e-07
4.31268e-07
-2.01094e-07
5.67459e-07
-1.84007e-07
6.90857e-07
-1.66394e-07
8.01168e-07
-1.48387e-07
8.98188e-07
-1.30119e-07
9.81809e-07
-1.11714e-07
1.05201e-06
-9.32961e-08
1.10885e-06
-7.49797e-08
1.15247e-06
-5.68741e-08
1.1831e-06
-3.90809e-08
1.20101e-06
-2.16955e-08
1.20656e-06
-4.80625e-09
1.20017e-06
1.15017e-08
1.18232e-06
2.71496e-08
1.15354e-06
4.20577e-08
1.11442e-06
5.61459e-08
1.06564e-06
6.93298e-08
1.00791e-06
8.15149e-08
9.42067e-07
9.25934e-08
8.69006e-07
1.02438e-07
7.89755e-07
1.10894e-07
7.05477e-07
1.17771e-07
6.17505e-07
1.22835e-07
5.27379e-07
1.25795e-07
4.36888e-07
1.26298e-07
3.48111e-07
1.23915e-07
2.63464e-07
1.18142e-07
1.85711e-07
1.0842e-07
1.17924e-07
9.42e-08
6.33068e-08
7.51346e-08
2.47825e-08
5.14589e-08
4.27546e-09
2.48118e-08
1.44082e-09
4.23826e-09
-1.69988e-08
1.49583e-09
-1.12654e-08
-1.65916e-08
1.66009e-08
-5.47473e-08
5.57958e-08
-1.15008e-07
9.95701e-08
-1.97568e-07
1.43588e-07
-3.01403e-07
1.85226e-07
-4.24758e-07
2.23045e-07
-5.65495e-07
2.56379e-07
-7.21344e-07
2.85066e-07
-8.90066e-07
3.09256e-07
-1.06956e-06
3.29292e-07
-1.25793e-06
3.45617e-07
-1.45349e-06
3.58716e-07
-1.65481e-06
3.69082e-07
-1.86068e-06
3.77182e-07
-2.07012e-06
3.83445e-07
-2.28231e-06
3.88254e-07
-2.49664e-06
3.91936e-07
-2.71261e-06
3.94769e-07
-2.92987e-06
3.96975e-07
-3.14812e-06
3.9873e-07
-3.36717e-06
4.00164e-07
-3.58685e-06
4.01369e-07
-3.80705e-06
4.024e-07
-4.02764e-06
4.03285e-07
-4.24854e-06
4.04024e-07
-4.46961e-06
4.04597e-07
-4.69072e-06
4.04969e-07
-4.91173e-06
4.05088e-07
-5.13243e-06
4.04894e-07
-5.3526e-06
4.04317e-07
-5.57199e-06
4.03284e-07
-5.79029e-06
4.01717e-07
-6.00716e-06
3.99537e-07
-6.22221e-06
3.96664e-07
-6.43502e-06
3.93016e-07
-6.64513e-06
3.88518e-07
-6.85202e-06
3.83092e-07
-7.05516e-06
3.76666e-07
-7.25397e-06
3.69171e-07
-7.44785e-06
3.60542e-07
-7.63614e-06
3.50719e-07
-7.81818e-06
3.39645e-07
-7.99328e-06
3.27271e-07
-8.16072e-06
3.13553e-07
-8.31978e-06
2.98451e-07
-8.4697e-06
2.81934e-07
-8.60972e-06
2.63976e-07
-8.73909e-06
2.44559e-07
-8.85702e-06
2.23675e-07
-8.96275e-06
2.0132e-07
-9.05553e-06
1.77503e-07
-9.13461e-06
1.5224e-07
-9.19924e-06
1.25559e-07
-9.24873e-06
9.74986e-08
-9.28238e-06
6.81094e-08
-9.29957e-06
3.74557e-08
-9.29969e-06
5.62171e-09
-9.28217e-06
-2.73296e-08
-9.24653e-06
-6.12659e-08
-9.19233e-06
-9.60735e-08
-9.11921e-06
-1.31618e-07
-9.0269e-06
-1.67749e-07
-8.9152e-06
-2.04299e-07
-8.78402e-06
-2.41086e-07
-8.63336e-06
-2.77915e-07
-8.46333e-06
-3.14577e-07
-8.27416e-06
-3.5085e-07
-8.06621e-06
-3.86502e-07
-7.83993e-06
-4.21293e-07
-7.59595e-06
-4.54977e-07
-7.33497e-06
-4.87305e-07
-7.05785e-06
-5.18025e-07
-6.76558e-06
-5.46889e-07
-6.45926e-06
-5.73656e-07
-6.14012e-06
-5.98093e-07
-5.80949e-06
-6.19979e-07
-5.46881e-06
-6.39108e-07
-5.11962e-06
-6.55297e-07
-4.76355e-06
-6.68382e-07
-4.40227e-06
-6.78225e-07
-4.03754e-06
-6.84718e-07
-3.67114e-06
-6.87781e-07
-3.30487e-06
-6.87366e-07
-2.94057e-06
-6.83459e-07
-2.58003e-06
-6.76078e-07
-2.22505e-06
-6.65276e-07
-1.87737e-06
-6.51138e-07
-1.53866e-06
-6.33782e-07
-1.21054e-06
-6.13355e-07
-8.9452e-07
-5.90032e-07
-5.92029e-07
-5.64013e-07
-3.0437e-07
-5.35522e-07
-3.27259e-08
-5.04798e-07
2.2185e-07
-4.72097e-07
4.58438e-07
-4.37682e-07
6.76262e-07
-4.01831e-07
8.74687e-07
-3.64819e-07
1.05322e-06
-3.2692e-07
1.21151e-06
-2.88406e-07
1.34934e-06
-2.49543e-07
1.46663e-06
-2.10586e-07
1.56343e-06
-1.71779e-07
1.63991e-06
-1.33355e-07
1.69636e-06
-9.55323e-08
1.73318e-06
-5.85171e-08
1.75088e-06
-2.25044e-08
1.75006e-06
1.2319e-08
1.73144e-06
4.57742e-08
1.69581e-06
7.76831e-08
1.64409e-06
1.07864e-07
1.5773e-06
1.36124e-07
1.49656e-06
1.62253e-07
1.40315e-06
1.8601e-07
1.29847e-06
2.07117e-07
1.18412e-06
2.25244e-07
1.0619e-06
2.39991e-07
9.33852e-07
2.5088e-07
8.02314e-07
2.57334e-07
6.69941e-07
2.5867e-07
5.39763e-07
2.54093e-07
4.15192e-07
2.42713e-07
3.00013e-07
2.23599e-07
1.98288e-07
1.95925e-07
1.14141e-07
1.59281e-07
5.1377e-08
1.14223e-07
1.28645e-08
6.33245e-08
1.43051e-08
-1.63107e-09
-1.53674e-08
-1.84473e-08
5.55059e-09
-5.76775e-08
5.58309e-08
-1.23318e-07
1.21436e-07
-2.17036e-07
1.93288e-07
-3.38757e-07
2.65309e-07
-4.87176e-07
3.33645e-07
-6.60202e-07
3.96072e-07
-8.55309e-07
4.51486e-07
-1.06979e-06
4.99546e-07
-1.30094e-06
5.40412e-07
-1.54621e-06
5.74556e-07
-1.80322e-06
6.02633e-07
-2.06989e-06
6.25385e-07
-2.34439e-06
6.43574e-07
-2.62514e-06
6.5794e-07
-2.91087e-06
6.69169e-07
-3.20049e-06
6.77875e-07
-3.49315e-06
6.84594e-07
-3.78816e-06
6.89779e-07
-4.08498e-06
6.938e-07
-4.3832e-06
6.96949e-07
-4.68249e-06
6.99447e-07
-4.98257e-06
7.01449e-07
-5.28322e-06
7.03054e-07
-5.58425e-06
7.04311e-07
-5.88545e-06
7.05226e-07
-6.18662e-06
7.05771e-07
-6.48754e-06
7.05888e-07
-6.78795e-06
7.05497e-07
-7.08756e-06
7.045e-07
-7.38602e-06
7.02785e-07
-7.68297e-06
7.00231e-07
-7.97796e-06
6.96711e-07
-8.27052e-06
6.92095e-07
-8.56011e-06
6.8625e-07
-8.84614e-06
6.79046e-07
-9.12798e-06
6.70355e-07
-9.40494e-06
6.60054e-07
-9.6763e-06
6.48025e-07
-9.94128e-06
6.34155e-07
-1.01991e-05
6.18341e-07
-1.04488e-05
6.00485e-07
-1.06897e-05
5.80501e-07
-1.09207e-05
5.5831e-07
-1.1141e-05
5.33843e-07
-1.13496e-05
5.07044e-07
-1.15456e-05
4.77865e-07
-1.17279e-05
4.46271e-07
-1.18955e-05
4.12242e-07
-1.20476e-05
3.75767e-07
-1.21832e-05
3.36852e-07
-1.23012e-05
2.95517e-07
-1.24007e-05
2.518e-07
-1.24809e-05
2.05753e-07
-1.25409e-05
1.57449e-07
-1.25797e-05
1.06978e-07
-1.25967e-05
5.44487e-08
-1.25912e-05
4.94485e-11
-1.25623e-05
-5.61982e-08
-1.25096e-05
-1.13979e-07
-1.24325e-05
-1.73143e-07
-1.23307e-05
-2.33456e-07
-1.22038e-05
-2.94664e-07
-1.20516e-05
-3.56487e-07
-1.1874e-05
-4.18624e-07
-1.16712e-05
-4.80749e-07
-1.14433e-05
-5.42516e-07
-1.11906e-05
-6.03559e-07
-1.09136e-05
-6.63497e-07
-1.06129e-05
-7.21936e-07
-1.02894e-05
-7.7847e-07
-9.94403e-06
-8.32692e-07
-9.57787e-06
-8.84191e-07
-9.19219e-06
-9.32562e-07
-8.78844e-06
-9.7741e-07
-8.36818e-06
-1.01835e-06
-7.93312e-06
-1.05503e-06
-7.48512e-06
-1.08712e-06
-7.02612e-06
-1.1143e-06
-6.55818e-06
-1.13631e-06
-6.08347e-06
-1.15294e-06
-5.60419e-06
-1.16399e-06
-5.12263e-06
-1.16935e-06
-4.64108e-06
-1.16892e-06
-4.16186e-06
-1.16268e-06
-3.68728e-06
-1.15066e-06
-3.21961e-06
-1.13294e-06
-2.76109e-06
-1.10966e-06
-2.31386e-06
-1.08101e-06
-1.87999e-06
-1.04722e-06
-1.46145e-06
-1.00858e-06
-1.06005e-06
-9.65404e-07
-6.77516e-07
-9.18061e-07
-3.15376e-07
-8.66938e-07
2.49803e-08
-8.12453e-07
3.42344e-07
-7.55045e-07
6.35666e-07
-6.95154e-07
9.04087e-07
-6.33239e-07
1.14692e-06
-5.69755e-07
1.36367e-06
-5.05152e-07
1.554e-06
-4.39871e-07
1.71775e-06
-3.7434e-07
1.85494e-06
-3.08969e-07
1.96574e-06
-2.44151e-07
2.05046e-06
-1.80259e-07
2.10959e-06
-1.17648e-07
2.14374e-06
-5.66543e-08
2.15367e-06
2.39714e-09
2.14025e-06
5.91909e-08
2.10452e-06
1.13413e-07
2.04764e-06
1.64742e-07
1.97093e-06
2.12839e-07
1.87584e-06
2.57334e-07
1.76404e-06
2.97814e-07
1.63736e-06
3.33803e-07
1.49786e-06
3.64743e-07
1.34787e-06
3.89982e-07
1.19e-06
4.08744e-07
1.02721e-06
4.20123e-07
8.62818e-07
4.23064e-07
7.00532e-07
4.1638e-07
5.44466e-07
3.98778e-07
3.99102e-07
3.68963e-07
2.69198e-07
3.25829e-07
1.59636e-07
2.68843e-07
7.52099e-08
1.98649e-07
2.04506e-08
1.18084e-07
3.47554e-08
-8.59721e-09
-6.77001e-09
-4.22984e-08
3.92515e-08
-1.06158e-07
1.19691e-07
-2.02864e-07
2.18142e-07
-3.3324e-07
3.23664e-07
-4.96629e-07
4.28697e-07
-6.91288e-07
5.28304e-07
-9.14753e-07
6.19537e-07
-1.16414e-06
7.00875e-07
-1.43639e-06
7.71799e-07
-1.72846e-06
8.32475e-07
-2.03741e-06
8.8351e-07
-2.36056e-06
9.2578e-07
-2.69547e-06
9.60295e-07
-3.04001e-06
9.88112e-07
-3.39233e-06
1.01026e-06
-3.75088e-06
1.02772e-06
-4.11436e-06
1.04135e-06
-4.4817e-06
1.05193e-06
-4.85203e-06
1.06011e-06
-5.22466e-06
1.06643e-06
-5.59903e-06
1.07131e-06
-5.97466e-06
1.07508e-06
-6.35118e-06
1.07797e-06
-6.72826e-06
1.08013e-06
-7.10559e-06
1.08163e-06
-7.48286e-06
1.0825e-06
-7.85977e-06
1.08268e-06
-8.23599e-06
1.08211e-06
-8.61115e-06
1.08066e-06
-8.98485e-06
1.0782e-06
-9.35664e-06
1.07457e-06
-9.72599e-06
1.06959e-06
-1.00924e-05
1.06308e-06
-1.04551e-05
1.05484e-06
-1.08136e-05
1.0447e-06
-1.1167e-05
1.03246e-06
-1.15146e-05
1.01793e-06
-1.18554e-05
1.00095e-06
-1.21888e-05
9.81338e-07
-1.25135e-05
9.58939e-07
-1.28288e-05
9.33607e-07
-1.31335e-05
9.05207e-07
-1.34266e-05
8.73618e-07
-1.37071e-05
8.38734e-07
-1.39737e-05
8.00463e-07
-1.42254e-05
7.58731e-07
-1.4461e-05
7.1348e-07
-1.46794e-05
6.64668e-07
-1.48794e-05
6.12275e-07
-1.506e-05
5.56298e-07
-1.52199e-05
4.96757e-07
-1.5358e-05
4.33691e-07
-1.54734e-05
3.67166e-07
-1.55649e-05
2.97271e-07
-1.56316e-05
2.24121e-07
-1.56725e-05
1.4786e-07
-1.56867e-05
6.86624e-08
-1.56734e-05
-1.32592e-08
-1.56319e-05
-9.76978e-08
-1.55615e-05
-1.84354e-07
-1.54617e-05
-2.7293e-07
-1.53321e-05
-3.63088e-07
-1.51723e-05
-4.54453e-07
-1.49822e-05
-5.46614e-07
-1.47617e-05
-6.3913e-07
-1.45109e-05
-7.31524e-07
-1.42301e-05
-8.23291e-07
-1.39198e-05
-9.13899e-07
-1.35805e-05
-1.00279e-06
-1.3213e-05
-1.0894e-06
-1.28183e-05
-1.17314e-06
-1.23976e-05
-1.25342e-06
-1.19522e-05
-1.32964e-06
-1.14835e-05
-1.40122e-06
-1.09933e-05
-1.46758e-06
-1.04835e-05
-1.52818e-06
-9.95606e-06
-1.58249e-06
-9.41314e-06
-1.63004e-06
-8.85706e-06
-1.67038e-06
-8.29025e-06
-1.70312e-06
-7.71524e-06
-1.72795e-06
-7.13463e-06
-1.7446e-06
-6.5511e-06
-1.75288e-06
-5.96736e-06
-1.75266e-06
-5.38613e-06
-1.7439e-06
-4.81014e-06
-1.72665e-06
-4.24207e-06
-1.70101e-06
-3.68457e-06
-1.66717e-06
-3.14017e-06
-1.6254e-06
-2.61135e-06
-1.57604e-06
-2.10043e-06
-1.5195e-06
-1.60961e-06
-1.45623e-06
-1.14092e-06
-1.38675e-06
-6.96234e-07
-1.31163e-06
-2.77222e-07
-1.23147e-06
1.14625e-07
-1.14689e-06
4.7803e-07
-1.05856e-06
8.11916e-07
-9.67125e-07
1.11542e-06
-8.73257e-07
1.38788e-06
-7.77615e-07
1.62886e-06
-6.80848e-07
1.8381e-06
-5.83587e-07
2.01558e-06
-4.86443e-07
2.16143e-06
-3.90002e-07
2.276e-06
-2.94824e-07
2.35979e-06
-2.01443e-07
2.41351e-06
-1.10372e-07
2.43801e-06
-2.21069e-08
2.43433e-06
6.28689e-08
2.40368e-06
1.44071e-07
2.34741e-06
2.21006e-07
2.2671e-06
2.93153e-07
2.16448e-06
3.59949e-07
2.04153e-06
4.2077e-07
1.90042e-06
4.74906e-07
1.74362e-06
5.21542e-07
1.57388e-06
5.59731e-07
1.39425e-06
5.88375e-07
1.20816e-06
6.06206e-07
1.01944e-06
6.11786e-07
8.32303e-07
6.03517e-07
6.5138e-07
5.79702e-07
4.81685e-07
5.38658e-07
3.2857e-07
4.78945e-07
1.97664e-07
3.99749e-07
9.48575e-08
3.01456e-07
2.64574e-08
1.86484e-07
6.12131e-08
-1.59664e-08
9.19624e-09
-6.79237e-08
9.12089e-08
-1.584e-07
2.10167e-07
-2.88392e-07
3.48134e-07
-4.57539e-07
4.92811e-07
-6.6435e-07
6.35509e-07
-9.06483e-07
7.70437e-07
-1.18101e-06
8.94066e-07
-1.48468e-06
1.00454e-06
-1.81409e-06
1.10121e-06
-2.16589e-06
1.18427e-06
-2.53687e-06
1.25449e-06
-2.92406e-06
1.31297e-06
-3.32479e-06
1.36102e-06
-3.73665e-06
1.39998e-06
-4.1576e-06
1.43121e-06
-4.58585e-06
1.45597e-06
-5.01992e-06
1.47542e-06
-5.45856e-06
1.49057e-06
-5.90074e-06
1.5023e-06
-6.34562e-06
1.51131e-06
-6.79249e-06
1.51818e-06
-7.24077e-06
1.52336e-06
-7.68994e-06
1.52715e-06
-8.13956e-06
1.52975e-06
-8.58922e-06
1.53129e-06
-9.03848e-06
1.53177e-06
-9.48695e-06
1.53115e-06
-9.93417e-06
1.52933e-06
-1.03797e-05
1.52615e-06
-1.08229e-05
1.52144e-06
-1.12633e-05
1.51497e-06
-1.17002e-05
1.50652e-06
-1.2133e-05
1.49583e-06
-1.25608e-05
1.48266e-06
-1.29829e-05
1.46676e-06
-1.33983e-05
1.44787e-06
-1.38061e-05
1.42575e-06
-1.42053e-05
1.40017e-06
-1.45949e-05
1.37091e-06
-1.49737e-05
1.33775e-06
-1.53406e-05
1.30053e-06
-1.56944e-05
1.25905e-06
-1.6034e-05
1.21317e-06
-1.6358e-05
1.16275e-06
-1.66652e-05
1.1077e-06
-1.69544e-05
1.04791e-06
-1.72243e-05
9.83318e-07
-1.74735e-05
9.13893e-07
-1.77008e-05
8.39615e-07
-1.7905e-05
7.60495e-07
-1.80848e-05
6.76573e-07
-1.82391e-05
5.87919e-07
-1.83665e-05
4.94632e-07
-1.84661e-05
3.96846e-07
-1.85367e-05
2.94728e-07
-1.85773e-05
1.88484e-07
-1.8587e-05
7.83587e-08
-1.85649e-05
-3.53634e-08
-1.85103e-05
-1.5236e-07
-1.84224e-05
-2.72255e-07
-1.83007e-05
-3.9463e-07
-1.81447e-05
-5.19024e-07
-1.79542e-05
-6.44928e-07
-1.77291e-05
-7.71787e-07
-1.74692e-05
-8.99002e-07
-1.71748e-05
-1.02593e-06
-1.68462e-05
-1.1519e-06
-1.64839e-05
-1.27619e-06
-1.60886e-05
-1.39805e-06
-1.56613e-05
-1.51672e-06
-1.52031e-05
-1.63141e-06
-1.47152e-05
-1.74133e-06
-1.41991e-05
-1.84568e-06
-1.36566e-05
-1.94368e-06
-1.30897e-05
-2.03457e-06
-1.25002e-05
-2.11759e-06
-1.18907e-05
-2.19205e-06
-1.12634e-05
-2.25732e-06
-1.0621e-05
-2.31278e-06
-9.96619e-06
-2.35793e-06
-9.30182e-06
-2.39232e-06
-8.63084e-06
-2.41559e-06
-7.95623e-06
-2.42748e-06
-7.28106e-06
-2.42783e-06
-6.60841e-06
-2.41656e-06
-5.94134e-06
-2.39372e-06
-5.2829e-06
-2.35945e-06
-4.63608e-06
-2.314e-06
-4.00377e-06
-2.25771e-06
-3.38878e-06
-2.19104e-06
-2.79376e-06
-2.11451e-06
-2.22124e-06
-2.02875e-06
-1.67355e-06
-1.93444e-06
-1.15284e-06
-1.83233e-06
-6.61073e-07
-1.72324e-06
-1.99965e-07
-1.608e-06
2.28971e-07
-1.4875e-06
6.24463e-07
-1.36262e-06
9.8547e-07
-1.23426e-06
1.31119e-06
-1.10334e-06
1.60106e-06
-9.70716e-07
1.85474e-06
-8.37269e-07
2.07213e-06
-7.03833e-07
2.25335e-06
-5.71217e-07
2.39872e-06
-4.40196e-07
2.50879e-06
-3.11515e-07
2.58431e-06
-1.85891e-07
2.62622e-06
-6.40203e-08
2.63567e-06
5.34155e-08
2.61401e-06
1.65734e-07
2.56278e-06
2.72237e-07
2.48374e-06
3.72194e-07
2.37887e-06
4.64821e-07
2.25039e-06
5.49252e-07
2.10078e-06
6.24517e-07
1.9328e-06
6.89516e-07
1.74955e-06
7.42987e-07
1.55443e-06
7.83487e-07
1.35127e-06
8.09374e-07
1.14424e-06
8.18808e-07
9.37988e-07
8.09773e-07
7.37546e-07
7.80144e-07
5.48395e-07
7.27808e-07
3.76445e-07
6.50894e-07
2.28079e-07
5.48115e-07
1.10283e-07
4.19252e-07
3.09863e-08
2.65779e-07
9.21994e-08
-2.33805e-08
3.25769e-08
-9.41149e-08
1.61943e-07
-2.12164e-07
3.28216e-07
-3.76638e-07
5.12607e-07
-5.85778e-07
7.01952e-07
-8.37078e-07
8.86808e-07
-1.12744e-06
1.0608e-06
-1.4534e-06
1.22002e-06
-1.81125e-06
1.36239e-06
-2.19726e-06
1.48722e-06
-2.60778e-06
1.5948e-06
-3.03936e-06
1.68607e-06
-3.4888e-06
1.76241e-06
-3.9532e-06
1.82542e-06
-4.42999e-06
1.87677e-06
-4.91691e-06
1.91813e-06
-5.41203e-06
1.95109e-06
-5.91369e-06
1.97708e-06
-6.42049e-06
1.99738e-06
-6.93126e-06
2.01307e-06
-7.44503e-06
2.02508e-06
-7.96096e-06
2.03411e-06
-8.47834e-06
2.04074e-06
-8.99655e-06
2.04535e-06
-9.51501e-06
2.04822e-06
-1.00332e-05
2.04947e-06
-1.05506e-05
2.04914e-06
-1.10666e-05
2.04718e-06
-1.15807e-05
2.04345e-06
-1.20923e-05
2.03777e-06
-1.26008e-05
2.0299e-06
-1.31054e-05
2.01956e-06
-1.36054e-05
2.00648e-06
-1.40999e-05
1.99032e-06
-1.4588e-05
1.97079e-06
-1.50688e-05
1.94756e-06
-1.55412e-05
1.92032e-06
-1.60043e-05
1.88876e-06
-1.64567e-05
1.85261e-06
-1.68974e-05
1.81158e-06
-1.7325e-05
1.76542e-06
-1.77384e-05
1.71391e-06
-1.81362e-05
1.65685e-06
-1.85171e-05
1.59404e-06
-1.88797e-05
1.52534e-06
-1.92226e-05
1.45062e-06
-1.95445e-05
1.3698e-06
-1.9844e-05
1.28279e-06
-2.01197e-05
1.18958e-06
-2.03702e-05
1.09015e-06
-2.05942e-05
9.84546e-07
-2.07905e-05
8.72827e-07
-2.09577e-05
7.55098e-07
-2.10945e-05
6.31504e-07
-2.11999e-05
5.02226e-07
-2.12727e-05
3.67493e-07
-2.13118e-05
2.27578e-07
-2.13162e-05
8.2802e-08
-2.12851e-05
-6.64634e-08
-2.12177e-05
-2.19795e-07
-2.11132e-05
-3.76711e-07
-2.09712e-05
-5.36674e-07
-2.07911e-05
-6.99092e-07
-2.05727e-05
-8.63312e-07
-2.03159e-05
-1.02863e-06
-2.00206e-05
-1.19427e-06
-1.96871e-05
-1.35943e-06
-1.93158e-05
-1.52323e-06
-1.89072e-05
-1.68477e-06
-1.84622e-05
-1.8431e-06
-1.79817e-05
-1.99724e-06
-1.74669e-05
-2.14619e-06
-1.69193e-05
-2.28894e-06
-1.63405e-05
-2.42448e-06
-1.57323e-05
-2.55181e-06
-1.5097e-05
-2.66994e-06
-1.44366e-05
-2.77793e-06
-1.37538e-05
-2.8749e-06
-1.30511e-05
-2.96e-06
-1.23314e-05
-3.03248e-06
-1.15976e-05
-3.09168e-06
-1.08529e-05
-3.13701e-06
-1.01005e-05
-3.16801e-06
-9.34368e-06
-3.18433e-06
-8.58574e-06
-3.18576e-06
-7.83011e-06
-3.17219e-06
-7.08016e-06
-3.14367e-06
-6.33925e-06
-3.10035e-06
-5.61069e-06
-3.04256e-06
-4.89769e-06
-2.97071e-06
-4.20336e-06
-2.88537e-06
-3.53068e-06
-2.7872e-06
-2.88244e-06
-2.67699e-06
-2.26127e-06
-2.5556e-06
-1.6696e-06
-2.424e-06
-1.10963e-06
-2.28321e-06
-5.83316e-07
-2.13431e-06
-9.23867e-08
-1.97843e-06
3.61695e-07
-1.8167e-06
7.77719e-07
-1.65029e-06
1.15474e-06
-1.48036e-06
1.49208e-06
-1.30805e-06
1.78929e-06
-1.13449e-06
2.04623e-06
-9.60767e-07
2.26295e-06
-7.87941e-07
2.43979e-06
-6.17031e-07
2.57729e-06
-4.49018e-07
2.67625e-06
-2.84849e-07
2.73768e-06
-1.25448e-07
2.76281e-06
2.82791e-08
2.75312e-06
1.75425e-07
2.71029e-06
3.15064e-07
2.63626e-06
4.46231e-07
2.53318e-06
5.67894e-07
2.40351e-06
6.78926e-07
2.24995e-06
7.78075e-07
2.07553e-06
8.63936e-07
1.8836e-06
9.34914e-07
1.67788e-06
9.89208e-07
1.46247e-06
1.02479e-06
1.24188e-06
1.0394e-06
1.02107e-06
1.03059e-06
8.05446e-07
9.95765e-07
6.00924e-07
9.3233e-07
4.13956e-07
8.37862e-07
2.51653e-07
7.10419e-07
1.22006e-07
5.48898e-07
3.43031e-08
3.53483e-07
1.26503e-07
-3.06732e-08
6.32498e-08
-1.20215e-07
2.51486e-07
-2.66115e-07
4.74115e-07
-4.65529e-07
7.12022e-07
-7.15193e-07
9.51616e-07
-1.01145e-06
1.18307e-06
-1.35036e-06
1.39971e-06
-1.72778e-06
1.59744e-06
-2.13953e-06
1.77415e-06
-2.58152e-06
1.92921e-06
-3.0498e-06
2.06307e-06
-3.54066e-06
2.17694e-06
-4.0507e-06
2.27246e-06
-4.57685e-06
2.35156e-06
-5.11636e-06
2.41628e-06
-5.66684e-06
2.46861e-06
-6.2262e-06
2.51045e-06
-6.79266e-06
2.54354e-06
-7.3647e-06
2.56941e-06
-7.94101e-06
2.58939e-06
-8.52051e-06
2.60457e-06
-9.10224e-06
2.61584e-06
-9.68537e-06
2.62387e-06
-1.02692e-05
2.62914e-06
-1.08529e-05
2.63199e-06
-1.1436e-05
2.63257e-06
-1.20178e-05
2.63093e-06
-1.25976e-05
2.627e-06
-1.31748e-05
2.62062e-06
-1.37486e-05
2.61155e-06
-1.43182e-05
2.59953e-06
-1.48829e-05
2.58421e-06
-1.54416e-05
2.56524e-06
-1.59935e-05
2.54224e-06
-1.65376e-05
2.51484e-06
-1.70727e-05
2.48265e-06
-1.75976e-05
2.4453e-06
-1.81113e-05
2.40242e-06
-1.86124e-05
2.35368e-06
-1.90996e-05
2.29876e-06
-1.95715e-05
2.23736e-06
-2.00268e-05
2.16923e-06
-2.04641e-05
2.09412e-06
-2.08819e-05
2.01184e-06
-2.12788e-05
1.92222e-06
-2.16533e-05
1.82513e-06
-2.2004e-05
1.72048e-06
-2.23294e-05
1.60821e-06
-2.26281e-05
1.48829e-06
-2.28987e-05
1.36075e-06
-2.31398e-05
1.22564e-06
-2.335e-05
1.08307e-06
-2.35281e-05
9.3318e-07
-2.36728e-05
7.76156e-07
-2.37828e-05
6.1224e-07
-2.3857e-05
4.41721e-07
-2.38944e-05
2.64944e-07
-2.38939e-05
8.23094e-08
-2.38546e-05
-1.05721e-07
-2.37758e-05
-2.98623e-07
-2.36567e-05
-4.95804e-07
-2.34968e-05
-6.96607e-07
-2.32956e-05
-9.00303e-07
-2.30528e-05
-1.10609e-06
-2.27683e-05
-1.31311e-06
-2.24421e-05
-1.52043e-06
-2.20745e-05
-1.72704e-06
-2.16659e-05
-1.93188e-06
-2.12168e-05
-2.13385e-06
-2.07281e-05
-2.33178e-06
-2.02009e-05
-2.52447e-06
-1.96364e-05
-2.71069e-06
-1.90361e-05
-2.88921e-06
-1.84018e-05
-3.05879e-06
-1.77354e-05
-3.21817e-06
-1.70392e-05
-3.36617e-06
-1.63155e-05
-3.50162e-06
-1.5567e-05
-3.6234e-06
-1.47965e-05
-3.73049e-06
-1.40071e-05
-3.82195e-06
-1.32018e-05
-3.89693e-06
-1.23841e-05
-3.95471e-06
-1.15574e-05
-3.99472e-06
-1.07252e-05
-4.01649e-06
-9.89125e-06
-4.01975e-06
-9.0591e-06
-4.00434e-06
-8.23246e-06
-3.97031e-06
-7.41498e-06
-3.91784e-06
-6.61026e-06
-3.84728e-06
-5.82182e-06
-3.75915e-06
-5.05308e-06
-3.65411e-06
-4.30729e-06
-3.53299e-06
-3.58754e-06
-3.39673e-06
-2.89676e-06
-3.24639e-06
-2.23761e-06
-3.08315e-06
-1.61254e-06
-2.90827e-06
-1.02377e-06
-2.72309e-06
-4.73211e-07
-2.52898e-06
3.74679e-08
-2.32738e-06
5.06897e-07
-2.11972e-06
9.33982e-07
-1.90744e-06
1.31792e-06
-1.69199e-06
1.65819e-06
-1.47476e-06
1.95455e-06
-1.25713e-06
2.20704e-06
-1.04043e-06
2.41595e-06
-8.25947e-07
2.58186e-06
-6.14927e-07
2.70559e-06
-4.08574e-07
2.7882e-06
-2.08059e-07
2.83101e-06
-1.4538e-08
2.8356e-06
1.70835e-07
2.80378e-06
3.46884e-07
2.73763e-06
5.12389e-07
2.63947e-06
6.6605e-07
2.51193e-06
8.06462e-07
2.35793e-06
9.32074e-07
2.18071e-06
1.04116e-06
1.98384e-06
1.13178e-06
1.77128e-06
1.20177e-06
1.54739e-06
1.24868e-06
1.31695e-06
1.26984e-06
1.08522e-06
1.26232e-06
8.57946e-07
1.22304e-06
6.41453e-07
1.14882e-06
4.42715e-07
1.0366e-06
2.69518e-07
8.83616e-07
1.30724e-07
6.87692e-07
3.6687e-08
4.4752e-07
1.6319e-07
-3.77697e-08
1.01019e-07
-1.45876e-07
3.59592e-07
-3.19468e-07
6.47708e-07
-5.53772e-07
9.46325e-07
-8.43966e-07
1.24181e-06
-1.18518e-06
1.52428e-06
-1.57251e-06
1.78704e-06
-2.00113e-06
2.02606e-06
-2.46631e-06
2.23933e-06
-2.96353e-06
2.42643e-06
-3.48854e-06
2.58808e-06
-4.03739e-06
2.72578e-06
-4.60647e-06
2.84154e-06
-5.19254e-06
2.93764e-06
-5.79274e-06
3.01647e-06
-6.40452e-06
3.08039e-06
-7.02568e-06
3.13162e-06
-7.65435e-06
3.1722e-06
-8.28887e-06
3.20394e-06
-8.92786e-06
3.22838e-06
-9.5701e-06
3.24681e-06
-1.02145e-05
3.26028e-06
-1.08602e-05
3.26957e-06
-1.15064e-05
3.27527e-06
-1.21521e-05
3.27774e-06
-1.27967e-05
3.27718e-06
-1.34394e-05
3.27363e-06
-1.40795e-05
3.26703e-06
-1.4716e-05
3.25717e-06
-1.53482e-05
3.24379e-06
-1.59752e-05
3.22654e-06
-1.65961e-05
3.20504e-06
-1.72097e-05
3.17888e-06
-1.78151e-05
3.14761e-06
-1.8411e-05
3.11079e-06
-1.89964e-05
3.06797e-06
-1.95698e-05
3.01872e-06
-2.013e-05
2.96263e-06
-2.06756e-05
2.89932e-06
-2.12053e-05
2.82841e-06
-2.17175e-05
2.74959e-06
-2.22109e-05
2.66256e-06
-2.26838e-05
2.56708e-06
-2.31349e-05
2.46292e-06
-2.35626e-05
2.34993e-06
-2.39654e-05
2.22796e-06
-2.43419e-05
2.09693e-06
-2.46905e-05
1.95681e-06
-2.50098e-05
1.80758e-06
-2.52983e-05
1.64929e-06
-2.55547e-05
1.48204e-06
-2.57776e-05
1.30596e-06
-2.59657e-05
1.12124e-06
-2.61176e-05
9.28113e-07
-2.62323e-05
7.26879e-07
-2.63084e-05
5.1789e-07
-2.6345e-05
3.01557e-07
-2.63411e-05
7.8363e-08
-2.62957e-05
-1.51146e-07
-2.6208e-05
-3.86346e-07
-2.60772e-05
-6.26537e-07
-2.59029e-05
-8.70942e-07
-2.56845e-05
-1.1187e-06
-2.54217e-05
-1.36887e-06
-2.51144e-05
-1.62042e-06
-2.47626e-05
-1.87226e-06
-2.43664e-05
-2.12319e-06
-2.39263e-05
-2.37196e-06
-2.34429e-05
-2.61725e-06
-2.2917e-05
-2.85767e-06
-2.23497e-05
-3.0918e-06
-2.17422e-05
-3.31818e-06
-2.10961e-05
-3.53532e-06
-2.04132e-05
-3.74172e-06
-1.96954e-05
-3.93591e-06
-1.89452e-05
-4.11644e-06
-1.81649e-05
-4.2819e-06
-1.73574e-05
-4.43095e-06
-1.65255e-05
-4.56233e-06
-1.56726e-05
-4.67491e-06
-1.48018e-05
-4.76764e-06
-1.39169e-05
-4.83965e-06
-1.30214e-05
-4.8902e-06
-1.21192e-05
-4.91874e-06
-1.1214e-05
-4.92488e-06
-1.031e-05
-4.90842e-06
-9.4109e-06
-4.86938e-06
-8.52079e-06
-4.80795e-06
-7.64354e-06
-4.72453e-06
-6.78297e-06
-4.61972e-06
-5.94279e-06
-4.49429e-06
-5.12657e-06
-4.34921e-06
-4.33771e-06
-4.1856e-06
-3.57938e-06
-4.00472e-06
-2.85455e-06
-3.80798e-06
-2.16593e-06
-3.59689e-06
-1.51596e-06
-3.37306e-06
-9.06796e-07
-3.13815e-06
-3.40284e-07
-2.89389e-06
1.82019e-07
-2.64202e-06
6.58876e-07
-2.3843e-06
1.08936e-06
-2.12247e-06
1.47285e-06
-1.85825e-06
1.80903e-06
-1.59331e-06
2.0979e-06
-1.3293e-06
2.33975e-06
-1.06779e-06
2.53513e-06
-8.10313e-07
2.68491e-06
-5.58353e-07
2.79021e-06
-3.13357e-07
2.85242e-06
-7.67508e-08
2.87321e-06
1.50045e-07
2.85451e-06
3.65585e-07
2.79853e-06
5.68374e-07
2.70774e-06
7.56834e-07
2.58495e-06
9.29261e-07
2.43322e-06
1.0838e-06
2.25601e-06
1.21838e-06
2.05708e-06
1.33071e-06
1.8406e-06
1.41824e-06
1.61116e-06
1.47812e-06
1.37379e-06
1.50721e-06
1.13402e-06
1.50209e-06
8.97943e-07
1.45912e-06
6.72259e-07
1.37451e-06
4.64434e-07
1.24443e-06
2.82857e-07
1.06519e-06
1.37118e-07
8.33432e-07
3.83817e-08
5.46256e-07
2.01571e-07
-4.46444e-08
1.45663e-07
-1.70919e-07
4.85866e-07
-3.71778e-07
8.48567e-07
-6.4057e-07
1.21512e-06
-9.70918e-07
1.57216e-06
-1.35669e-06
1.91005e-06
-1.79202e-06
2.22237e-06
-2.27128e-06
2.50532e-06
-2.78917e-06