/*--------------------------------*- C++ -*----------------------------------*\
| =========                 |                                                 |
| \\      /  F ield         | OpenFOAM: The Open Source CFD Toolbox           |
|  \\    /   O peration     | Version:  2112                                  |
|   \\  /    A nd           | Website:  www.openfoam.com                      |
|    \\/     M anipulation  |                                                 |
\*---------------------------------------------------------------------------*/
FoamFile
{
    version     2.0;
    format      ascii;
    arch        "LSB;label=32;scalar=64";
    class       volVectorField;
    location    "9";
    object      U;
}
// * * * * * * * * * * * * * * * * * * * * * * * * * * * * * * * * * * * * * //

dimensions      [0 1 -1 0 0 0 0];

internalField   nonuniform List<vector> 
16641
(
(3.34222e-06 -3.45729e-06 0)
(1.20451e-05 -5.28149e-06 0)
(2.02915e-05 -3.94907e-06 0)
(2.2415e-05 -1.41617e-06 0)
(1.62829e-05 1.41997e-06 0)
(1.7203e-06 4.11796e-06 0)
(-2.07695e-05 6.51256e-06 0)
(-5.03548e-05 8.55256e-06 0)
(-8.60798e-05 1.02396e-05 0)
(-0.000126985 1.16022e-05 0)
(-0.000172166 1.26801e-05 0)
(-0.00022081 1.35147e-05 0)
(-0.000272207 1.41471e-05 0)
(-0.000325755 1.46156e-05 0)
(-0.000380955 1.4954e-05 0)
(-0.000437403 1.51926e-05 0)
(-0.00049478 1.53574e-05 0)
(-0.000552844 1.54698e-05 0)
(-0.000611414 1.55477e-05 0)
(-0.000670361 1.5605e-05 0)
(-0.0007296 1.56519e-05 0)
(-0.000789078 1.56964e-05 0)
(-0.000848763 1.57442e-05 0)
(-0.000908644 1.57986e-05 0)
(-0.000968718 1.58612e-05 0)
(-0.00102899 1.59318e-05 0)
(-0.00108945 1.60092e-05 0)
(-0.00115011 1.60913e-05 0)
(-0.00121096 1.61758e-05 0)
(-0.00127198 1.62594e-05 0)
(-0.00133314 1.63383e-05 0)
(-0.00139441 1.64084e-05 0)
(-0.00145573 1.64655e-05 0)
(-0.00151704 1.65054e-05 0)
(-0.00157825 1.6524e-05 0)
(-0.00163928 1.65172e-05 0)
(-0.00170001 1.64806e-05 0)
(-0.00176033 1.64099e-05 0)
(-0.0018201 1.63012e-05 0)
(-0.00187917 1.61506e-05 0)
(-0.00193739 1.59544e-05 0)
(-0.00199458 1.57089e-05 0)
(-0.00205055 1.54107e-05 0)
(-0.00210512 1.50565e-05 0)
(-0.00215807 1.4643e-05 0)
(-0.0022092 1.41674e-05 0)
(-0.00225829 1.36271e-05 0)
(-0.0023051 1.30196e-05 0)
(-0.0023494 1.23428e-05 0)
(-0.00239095 1.15945e-05 0)
(-0.0024295 1.07733e-05 0)
(-0.00246481 9.87806e-06 0)
(-0.00249662 8.90797e-06 0)
(-0.00252469 7.86265e-06 0)
(-0.00254877 6.74218e-06 0)
(-0.00256861 5.54729e-06 0)
(-0.00258397 4.27936e-06 0)
(-0.00259463 2.94048e-06 0)
(-0.00260036 1.53347e-06 0)
(-0.00260095 6.11927e-08 0)
(-0.00259621 -1.47152e-06 0)
(-0.00258595 -3.05936e-06 0)
(-0.00257003 -4.69628e-06 0)
(-0.0025483 -6.37515e-06 0)
(-0.00252067 -8.08784e-06 0)
(-0.00248705 -9.82541e-06 0)
(-0.00244739 -1.1578e-05 0)
(-0.00240169 -1.33348e-05 0)
(-0.00234997 -1.50843e-05 0)
(-0.00229229 -1.68141e-05 0)
(-0.00222876 -1.8511e-05 0)
(-0.00215953 -2.01618e-05 0)
(-0.00208479 -2.17528e-05 0)
(-0.00200478 -2.32701e-05 0)
(-0.00191978 -2.46998e-05 0)
(-0.00183011 -2.6028e-05 0)
(-0.00173614 -2.72416e-05 0)
(-0.00163829 -2.83281e-05 0)
(-0.00153699 -2.9276e-05 0)
(-0.00143274 -3.00746e-05 0)
(-0.00132604 -3.07145e-05 0)
(-0.00121744 -3.11879e-05 0)
(-0.0011075 -3.14887e-05 0)
(-0.000996798 -3.16125e-05 0)
(-0.000885931 -3.15567e-05 0)
(-0.000775495 -3.13207e-05 0)
(-0.000666084 -3.09059e-05 0)
(-0.000558287 -3.03158e-05 0)
(-0.000452682 -2.95555e-05 0)
(-0.000349823 -2.86322e-05 0)
(-0.000250244 -2.75547e-05 0)
(-0.000154446 -2.63335e-05 0)
(-6.28975e-05 -2.49802e-05 0)
(2.39737e-05 -2.35083e-05 0)
(0.000105781 -2.1931e-05 0)
(0.000182182 -2.02631e-05 0)
(0.000252883 -1.85196e-05 0)
(0.000317638 -1.67159e-05 0)
(0.000376249 -1.48669e-05 0)
(0.000428568 -1.29875e-05 0)
(0.000474492 -1.1092e-05 0)
(0.000513966 -9.19407e-06 0)
(0.000546981 -7.30668e-06 0)
(0.000573566 -5.44161e-06 0)
(0.000593791 -3.60953e-06 0)
(0.000607762 -1.82018e-06 0)
(0.00061562 -8.25368e-08 0)
(0.000617534 1.5953e-06 0)
(0.000613702 3.20728e-06 0)
(0.000604351 4.74671e-06 0)
(0.000589729 6.20769e-06 0)
(0.000570111 7.58461e-06 0)
(0.000545798 8.87102e-06 0)
(0.000517115 1.00602e-05 0)
(0.000484423 1.11443e-05 0)
(0.000448116 1.21129e-05 0)
(0.000408638 1.29519e-05 0)
(0.000366487 1.36435e-05 0)
(0.000322238 1.41624e-05 0)
(0.000276558 1.44743e-05 0)
(0.000230236 1.45331e-05 0)
(0.000184217 1.42753e-05 0)
(0.00013964 1.36136e-05 0)
(9.78971e-05 1.243e-05 0)
(6.06829e-05 1.05717e-05 0)
(2.99968e-05 7.87265e-06 0)
(7.96629e-06 4.24415e-06 0)
(-3.25113e-06 1.6112e-08 0)
(-2.9411e-06 -2.93662e-06 0)
(5.16862e-06 -1.20545e-05 0)
(1.55987e-05 -1.56674e-05 0)
(1.98495e-05 -7.37529e-06 0)
(8.87218e-06 6.33171e-06 0)
(-2.13232e-05 2.19056e-05 0)
(-7.16768e-05 3.73644e-05 0)
(-0.000141544 5.16842e-05 0)
(-0.000229403 6.43948e-05 0)
(-0.000333269 7.53382e-05 0)
(-0.000450993 8.45367e-05 0)
(-0.000580453 9.21114e-05 0)
(-0.000719662 9.82332e-05 0)
(-0.000866826 0.000103095 0)
(-0.00102038 0.00010689 0)
(-0.00117899 0.000109807 0)
(-0.00134154 0.000112015 0)
(-0.00150714 0.000113668 0)
(-0.00167505 0.000114898 0)
(-0.00184474 0.000115818 0)
(-0.00201578 0.000116517 0)
(-0.00218785 0.000117068 0)
(-0.00236076 0.000117527 0)
(-0.00253433 0.000117934 0)
(-0.00270848 0.000118316 0)
(-0.00288314 0.000118689 0)
(-0.00305824 0.000119057 0)
(-0.00323375 0.000119418 0)
(-0.00340961 0.000119763 0)
(-0.00358575 0.000120079 0)
(-0.00376209 0.000120347 0)
(-0.00393851 0.000120544 0)
(-0.00411487 0.000120649 0)
(-0.00429101 0.000120633 0)
(-0.0044667 0.000120473 0)
(-0.0046417 0.000120141 0)
(-0.00481574 0.00011961 0)
(-0.0049885 0.000118854 0)
(-0.00515961 0.000117846 0)
(-0.00532871 0.00011656 0)
(-0.00549536 0.000114972 0)
(-0.00565911 0.000113059 0)
(-0.00581948 0.000110798 0)
(-0.00597595 0.000108167 0)
(-0.00612799 0.000105148 0)
(-0.00627503 0.000101721 0)
(-0.00641649 9.78704e-05 0)
(-0.00655175 9.35809e-05 0)
(-0.00668021 8.88396e-05 0)
(-0.00680122 8.36354e-05 0)
(-0.00691414 7.79593e-05 0)
(-0.00701831 7.18052e-05 0)
(-0.00711308 6.51692e-05 0)
(-0.00719778 5.80504e-05 0)
(-0.00727176 5.04509e-05 0)
(-0.00733438 4.23761e-05 0)
(-0.007385 3.38352e-05 0)
(-0.00742302 2.48417e-05 0)
(-0.00744784 1.54134e-05 0)
(-0.0074589 5.57277e-06 0)
(-0.00745569 -4.65928e-06 0)
(-0.00743772 -1.52448e-05 0)
(-0.00740456 -2.61472e-05 0)
(-0.00735584 -3.73246e-05 0)
(-0.00729125 -4.87289e-05 0)
(-0.00721055 -6.03064e-05 0)
(-0.00711358 -7.19981e-05 0)
(-0.00700026 -8.37399e-05 0)
(-0.00687061 -9.54623e-05 0)
(-0.00672474 -0.000107092 0)
(-0.00656286 -0.000118551 0)
(-0.0063853 -0.000129758 0)
(-0.00619247 -0.00014063 0)
(-0.00598493 -0.000151083 0)
(-0.00576332 -0.00016103 0)
(-0.00552842 -0.000170387 0)
(-0.00528111 -0.000179071 0)
(-0.00502236 -0.000187001 0)
(-0.00475327 -0.000194102 0)
(-0.00447503 -0.000200302 0)
(-0.00418891 -0.000205539 0)
(-0.00389626 -0.000209756 0)
(-0.00359851 -0.000212906 0)
(-0.00329713 -0.00021495 0)
(-0.00299364 -0.000215863 0)
(-0.0026896 -0.000215629 0)
(-0.00238656 -0.000214242 0)
(-0.00208608 -0.000211711 0)
(-0.00178971 -0.000208055 0)
(-0.00149897 -0.000203304 0)
(-0.00121532 -0.000197501 0)
(-0.000940164 -0.000190696 0)
(-0.000674836 -0.000182953 0)
(-0.000420584 -0.00017434 0)
(-0.000178557 -0.000164936 0)
(5.01992e-05 -0.000154823 0)
(0.000264752 -0.00014409 0)
(0.000464286 -0.000132827 0)
(0.00064811 -0.000121129 0)
(0.000815656 -0.000109089 0)
(0.00096648 -9.67981e-05 0)
(0.00110026 -8.43478e-05 0)
(0.0012168 -7.18252e-05 0)
(0.00131601 -5.93138e-05 0)
(0.00139792 -4.6892e-05 0)
(0.00146267 -3.46332e-05 0)
(0.00151048 -2.26053e-05 0)
(0.00154169 -1.08716e-05 0)
(0.00155671 5.09523e-07 0)
(0.00155603 1.14845e-05 0)
(0.00154024 2.2002e-05 0)
(0.00150998 3.20116e-05 0)
(0.00146599 4.14633e-05 0)
(0.00140908 5.03035e-05 0)
(0.00134014 5.84727e-05 0)
(0.00126017 6.59025e-05 0)
(0.00117027 7.25098e-05 0)
(0.00107168 7.81917e-05 0)
(0.000965815 8.28197e-05 0)
(0.000854265 8.62308e-05 0)
(0.000738874 8.82188e-05 0)
(0.000621776 8.85237e-05 0)
(0.000505455 8.68203e-05 0)
(0.000392802 8.27092e-05 0)
(0.000287163 7.5718e-05 0)
(0.000192346 6.53411e-05 0)
(0.000112467 5.11817e-05 0)
(5.15123e-05 3.33013e-05 0)
(1.31065e-05 1.31566e-05 0)
(-1.17487e-08 -3.26034e-06 0)
(4.04841e-06 -2.04557e-05 0)
(7.51128e-06 -1.99042e-05 0)
(-4.04713e-06 3.88646e-06 0)
(-3.9273e-05 3.93117e-05 0)
(-0.000102418 7.93162e-05 0)
(-0.000194688 0.000119549 0)
(-0.000315362 0.00015746 0)
(-0.000462519 0.000191706 0)
(-0.000633555 0.000221709 0)
(-0.000825565 0.000247364 0)
(-0.0010356 0.000268853 0)
(-0.00126083 0.000286528 0)
(-0.00149867 0.000300822 0)
(-0.0017468 0.000312204 0)
(-0.00200321 0.000321135 0)
(-0.0022662 0.000328053 0)
(-0.00253435 0.000333355 0)
(-0.00280653 0.000337392 0)
(-0.00308182 0.000340463 0)
(-0.0033595 0.000342819 0)
(-0.00363904 0.00034466 0)
(-0.00392002 0.000346143 0)
(-0.00420214 0.000347384 0)
(-0.00448517 0.000348463 0)
(-0.00476893 0.000349429 0)
(-0.00505328 0.000350302 0)
(-0.00533808 0.000351083 0)
(-0.00562318 0.00035175 0)
(-0.00590844 0.00035227 0)
(-0.00619367 0.000352596 0)
(-0.00647863 0.000352671 0)
(-0.00676308 0.000352433 0)
(-0.00704669 0.000351815 0)
(-0.0073291 0.000350744 0)
(-0.0076099 0.000349151 0)
(-0.00788862 0.000346961 0)
(-0.00816474 0.000344102 0)
(-0.00843767 0.000340504 0)
(-0.0087068 0.000336097 0)
(-0.00897145 0.000330815 0)
(-0.0092309 0.000324595 0)
(-0.00948438 0.000317377 0)
(-0.00973109 0.000309106 0)
(-0.00997017 0.00029973 0)
(-0.0102007 0.000289201 0)
(-0.0104219 0.000277478 0)
(-0.0106327 0.000264523 0)
(-0.0108323 0.000250306 0)
(-0.0110195 0.0002348 0)
(-0.0111935 0.000217988 0)
(-0.0113533 0.000199857 0)
(-0.0114978 0.000180403 0)
(-0.0116261 0.000159629 0)
(-0.0117371 0.000137547 0)
(-0.0118301 0.000114179 0)
(-0.0119039 8.95576e-05 0)
(-0.0119577 6.37242e-05 0)
(-0.0119907 3.67345e-05 0)
(-0.0120021 8.65642e-06 0)
(-0.011991 -2.04459e-05 0)
(-0.0119568 -5.04643e-05 0)
(-0.011899 -8.12948e-05 0)
(-0.011817 -0.000112818 0)
(-0.0117104 -0.000144901 0)
(-0.0115788 -0.000177392 0)
(-0.0114222 -0.00021013 0)
(-0.0112404 -0.000242938 0)
(-0.0110335 -0.000275627 0)
(-0.0108017 -0.000307997 0)
(-0.0105454 -0.000339838 0)
(-0.0102652 -0.000370932 0)
(-0.00996164 -0.000401056 0)
(-0.00963568 -0.000429981 0)
(-0.00928832 -0.000457481 0)
(-0.00892073 -0.000483328 0)
(-0.00853427 -0.000507302 0)
(-0.00813044 -0.00052919 0)
(-0.0077109 -0.000548791 0)
(-0.00727744 -0.000565918 0)
(-0.00683198 -0.000580401 0)
(-0.00637657 -0.000592092 0)
(-0.00591333 -0.000600866 0)
(-0.0054445 -0.000606623 0)
(-0.00497235 -0.00060929 0)
(-0.00449921 -0.000608826 0)
(-0.00402742 -0.000605217 0)
(-0.00355933 -0.000598482 0)
(-0.00309727 -0.000588669 0)
(-0.00264351 -0.000575859 0)
(-0.00220026 -0.000560158 0)
(-0.00176966 -0.000541703 0)
(-0.00135373 -0.000520655 0)
(-0.000954357 -0.000497198 0)
(-0.000573315 -0.000471535 0)
(-0.000212208 -0.000443888 0)
(0.000127518 -0.000414489 0)
(0.000444589 -0.000383577 0)
(0.000737912 -0.000351407 0)
(0.00100657 -0.000318226 0)
(0.00124985 -0.000284285 0)
(0.00146719 -0.000249828 0)
(0.00165824 -0.000215094 0)
(0.0018228 -0.000180313 0)
(0.00196086 -0.000145702 0)
(0.00207255 -0.000111468 0)
(0.00215819 -7.78045e-05 0)
(0.00221821 -4.48929e-05 0)
(0.0022532 -1.29032e-05 0)
(0.00226389 1.80026e-05 0)
(0.00225111 4.76698e-05 0)
(0.00221585 7.59455e-05 0)
(0.00215921 0.000102674 0)
(0.00208243 0.00012769 0)
(0.00198689 0.000150811 0)
(0.00187414 0.000171829 0)
(0.00174589 0.0001905 0)
(0.00160408 0.000206528 0)
(0.00145089 0.000219554 0)
(0.00128877 0.000229139 0)
(0.00112056 0.000234747 0)
(0.000949437 0.000235728 0)
(0.000779078 0.000231314 0)
(0.000613631 0.00022062 0)
(0.000457755 0.000202693 0)
(0.000316579 0.00017665 0)
(0.000195426 0.00014201 0)
(9.92568e-05 9.93318e-05 0)
(3.31772e-05 5.15229e-05 0)
(4.18021e-06 7.88417e-06 0)
(1.56812e-06 -2.26892e-05 0)
(-6.61794e-06 -8.54422e-06 0)
(-4.11467e-05 3.94249e-05 0)
(-0.000107984 0.000104932 0)
(-0.000210535 0.000177635 0)
(-0.000349728 0.000250756 0)
(-0.000524523 0.000320089 0)
(-0.0007326 0.000383261 0)
(-0.000970885 0.000439139 0)
(-0.00123593 0.000487402 0)
(-0.00152421 0.000528254 0)
(-0.00183228 0.000562222 0)
(-0.00215697 0.000590009 0)
(-0.00249537 0.000612402 0)
(-0.00284496 0.0006302 0)
(-0.00320355 0.000644172 0)
(-0.00356931 0.000655026 0)
(-0.00394072 0.000663396 0)
(-0.00431654 0.000669828 0)
(-0.00469578 0.000674783 0)
(-0.00507767 0.000678637 0)
(-0.00546159 0.000681683 0)
(-0.00584708 0.000684143 0)
(-0.00623375 0.000686172 0)
(-0.00662129 0.000687868 0)
(-0.00700944 0.000689275 0)
(-0.00739795 0.0006904 0)
(-0.00778655 0.00069121 0)
(-0.00817498 0.000691646 0)
(-0.00856292 0.000691625 0)
(-0.00895003 0.000691045 0)
(-0.00933591 0.000689794 0)
(-0.00972008 0.000687747 0)
(-0.010102 0.000684776 0)
(-0.0104812 0.000680747 0)
(-0.0108568 0.000675526 0)
(-0.0112283 0.00066898 0)
(-0.0115948 0.00066098 0)
(-0.0119554 0.000651398 0)
(-0.0123093 0.000640114 0)
(-0.0126555 0.000627013 0)
(-0.012993 0.000611988 0)
(-0.0133207 0.000594938 0)
(-0.0136374 0.000575771 0)
(-0.0139421 0.000554405 0)
(-0.0142335 0.000530769 0)
(-0.0145104 0.000504799 0)
(-0.0147716 0.000476444 0)
(-0.0150159 0.000445664 0)
(-0.0152419 0.000412434 0)
(-0.0154485 0.000376738 0)
(-0.0156343 0.000338578 0)
(-0.0157982 0.000297969 0)
(-0.0159388 0.000254942 0)
(-0.016055 0.000209548 0)
(-0.0161457 0.000161853 0)
(-0.0162097 0.000111946 0)
(-0.0162459 5.99334e-05 0)
(-0.0162535 5.94412e-06 0)
(-0.0162315 -4.98441e-05 0)
(-0.0161791 -0.000107275 0)
(-0.0160955 -0.000166144 0)
(-0.0159802 -0.000226218 0)
(-0.0158327 -0.000287243 0)
(-0.0156528 -0.000348939 0)
(-0.0154401 -0.000410999 0)
(-0.0151947 -0.000473097 0)
(-0.0149168 -0.000534881 0)
(-0.0146066 -0.000595982 0)
(-0.0142648 -0.000656012 0)
(-0.013892 -0.00071457 0)
(-0.0134891 -0.000771246 0)
(-0.0130574 -0.000825624 0)
(-0.012598 -0.000877286 0)
(-0.0121127 -0.00092582 0)
(-0.011603 -0.000970823 0)
(-0.011071 -0.00101191 0)
(-0.0105188 -0.0010487 0)
(-0.00994858 -0.00108087 0)
(-0.00936292 -0.00110811 0)
(-0.00876438 -0.00113014 0)
(-0.00815568 -0.00114674 0)
(-0.00753964 -0.00115772 0)
(-0.00691918 -0.00116296 0)
(-0.00629724 -0.00116236 0)
(-0.00567681 -0.00115591 0)
(-0.00506088 -0.00114364 0)
(-0.00445242 -0.00112563 0)
(-0.00385433 -0.00110202 0)
(-0.00326944 -0.00107301 0)
(-0.0027005 -0.00103884 0)
(-0.00215009 -0.000999799 0)
(-0.00162066 -0.000956223 0)
(-0.00111451 -0.000908478 0)
(-0.000633726 -0.000856964 0)
(-0.000180195 -0.000802107 0)
(0.000244396 -0.000744348 0)
(0.00063859 -0.000684143 0)
(0.00100116 -0.000621952 0)
(0.00133112 -0.000558238 0)
(0.00162768 -0.000493454 0)
(0.00189033 -0.000428044 0)
(0.00211874 -0.000362439 0)
(0.00231282 -0.000297048 0)
(0.0024727 -0.000232265 0)
(0.00259869 -0.00016846 0)
(0.00269131 -0.000105983 0)
(0.00275126 -4.51669e-05 0)
(0.00277943 1.36703e-05 0)
(0.00277687 7.02204e-05 0)
(0.00274483 0.000124177 0)
(0.0026847 0.000175228 0)
(0.00259809 0.000223042 0)
(0.00248679 0.000267256 0)
(0.0023528 0.000307461 0)
(0.00219835 0.000343185 0)
(0.00202596 0.000373867 0)
(0.00183846 0.000398842 0)
(0.00163901 0.000417315 0)
(0.00143119 0.00042834 0)
(0.00121904 0.000430805 0)
(0.00100709 0.000423438 0)
(0.00080038 0.000404835 0)
(0.000604483 0.000373565 0)
(0.000425424 0.000328396 0)
(0.000269405 0.000268764 0)
(0.000142289 0.000195553 0)
(5.11058e-05 0.000112485 0)
(7.78077e-06 2.97992e-05 0)
(-1.40905e-06 -1.63514e-05 0)
(-2.35887e-05 2.34107e-05 0)
(-8.53548e-05 0.000105072 0)
(-0.000188607 0.000208743 0)
(-0.000335068 0.00032135 0)
(-0.000524933 0.000433988 0)
(-0.000756562 0.000540926 0)
(-0.00102712 0.000638789 0)
(-0.00133307 0.000725866 0)
(-0.00167051 0.000801594 0)
(-0.00203545 0.000866176 0)
(-0.00242401 0.000920307 0)
(-0.00283254 0.000964969 0)
(-0.00325772 0.00100129 0)
(-0.0036966 0.00103043 0)
(-0.00414662 0.00105353 0)
(-0.00460559 0.00107166 0)
(-0.00507167 0.00108576 0)
(-0.00554336 0.00109668 0)
(-0.00601941 0.00110511 0)
(-0.00649883 0.00111164 0)
(-0.00698081 0.00111672 0)
(-0.00746469 0.00112071 0)
(-0.00794995 0.00112385 0)
(-0.00843613 0.0011263 0)
(-0.00892281 0.00112814 0)
(-0.00940963 0.00112938 0)
(-0.00989618 0.00112997 0)
(-0.0103821 0.00112984 0)
(-0.0108668 0.00112885 0)
(-0.01135 0.00112686 0)
(-0.011831 0.00112369 0)
(-0.0123092 0.00111915 0)
(-0.0127839 0.00111304 0)
(-0.0132544 0.00110515 0)
(-0.0137198 0.00109529 0)
(-0.0141792 0.00108325 0)
(-0.0146316 0.00106883 0)
(-0.015076 0.00105183 0)
(-0.0155111 0.00103208 0)
(-0.0159359 0.00100939 0)
(-0.0163491 0.000983614 0)
(-0.0167493 0.000954595 0)
(-0.0171352 0.0009222 0)
(-0.0175055 0.000886309 0)
(-0.0178587 0.000846819 0)
(-0.0181934 0.000803643 0)
(-0.0185081 0.000756713 0)
(-0.0188013 0.000705977 0)
(-0.0190715 0.000651407 0)
(-0.0193174 0.000592994 0)
(-0.0195373 0.00053075 0)
(-0.0197299 0.000464712 0)
(-0.0198938 0.000394944 0)
(-0.0200275 0.000321533 0)
(-0.0201299 0.000244599 0)
(-0.0201995 0.000164289 0)
(-0.0202353 8.07808e-05 0)
(-0.0202362 -5.71202e-06 0)
(-0.020201 -9.49169e-05 0)
(-0.0201291 -0.000186571 0)
(-0.0200195 -0.000280348 0)
(-0.0198716 -0.000375884 0)
(-0.019685 -0.000472776 0)
(-0.0194593 -0.000570588 0)
(-0.0191945 -0.000668842 0)
(-0.0188904 -0.000767029 0)
(-0.0185475 -0.000864605 0)
(-0.018166 -0.000960997 0)
(-0.0177468 -0.00105561 0)
(-0.0172906 -0.00114782 0)
(-0.0167987 -0.00123701 0)
(-0.0162724 -0.00132253 0)
(-0.0157132 -0.00140373 0)
(-0.0151231 -0.00148 0)
(-0.0145041 -0.00155071 0)
(-0.0138585 -0.00161527 0)
(-0.0131888 -0.00167311 0)
(-0.0124977 -0.00172371 0)
(-0.0117881 -0.00176661 0)
(-0.011063 -0.00180139 0)
(-0.0103258 -0.00182769 0)
(-0.00957954 -0.00184524 0)
(-0.00882781 -0.00185382 0)
(-0.00807405 -0.00185332 0)
(-0.00732178 -0.00184369 0)
(-0.00657452 -0.00182496 0)
(-0.00583575 -0.00179727 0)
(-0.00510893 -0.00176084 0)
(-0.00439741 -0.00171593 0)
(-0.00370442 -0.00166294 0)
(-0.00303307 -0.00160229 0)
(-0.00238627 -0.00153448 0)
(-0.00176676 -0.00146009 0)
(-0.00117707 -0.00137972 0)
(-0.000619472 -0.00129402 0)
(-9.60224e-05 -0.00120366 0)
(0.000391495 -0.00110936 0)
(0.00084156 -0.00101181 0)
(0.00125292 -0.000911742 0)
(0.0016246 -0.000809853 0)
(0.00195588 -0.000706839 0)
(0.00224633 -0.000603373 0)
(0.00249575 -0.000500105 0)
(0.00270422 -0.000397655 0)
(0.00287206 -0.000296616 0)
(0.00299981 -0.000197552 0)
(0.00308826 -0.000101 0)
(0.00313842 -7.47903e-06 0)
(0.0031515 8.25046e-05 0)
(0.00312894 0.000168446 0)
(0.00307241 0.000249831 0)
(0.0029838 0.000326113 0)
(0.00286522 0.000396703 0)
(0.00271906 0.00046094 0)
(0.002548 0.00051807 0)
(0.00235503 0.000567218 0)
(0.00214348 0.00060736 0)
(0.00191709 0.000637298 0)
(0.00168005 0.000655634 0)
(0.00143702 0.000660766 0)
(0.00119318 0.000650902 0)
(0.00095423 0.000624119 0)
(0.000726418 0.000578507 0)
(0.000516485 0.000512454 0)
(0.00033143 0.000425152 0)
(0.0001781 0.000317382 0)
(6.55881e-05 0.000192727 0)
(1.04878e-05 6.04282e-05 0)
(-4.47099e-06 -5.97779e-07 0)
(-4.1673e-05 7.83854e-05 0)
(-0.000132991 0.000204173 0)
(-0.000275509 0.000354436 0)
(-0.000468768 0.000514014 0)
(-0.000711864 0.000672308 0)
(-0.00100229 0.000822317 0)
(-0.00133654 0.000959805 0)
(-0.00171055 0.00108256 0)
(-0.00211998 0.00118981 0)
(-0.00256041 0.00128176 0)
(-0.0030276 0.0013593 0)
(-0.00351754 0.0014237 0)
(-0.00402656 0.00147644 0)
(-0.00455139 0.00151907 0)
(-0.00508917 0.00155312 0)
(-0.00563743 0.00158004 0)
(-0.00619406 0.00160112 0)
(-0.00675733 0.00161752 0)
(-0.00732576 0.0016302 0)
(-0.00789816 0.00163997 0)
(-0.00847355 0.00164749 0)
(-0.0090511 0.00165323 0)
(-0.0096301 0.00165755 0)
(-0.01021 0.00166067 0)
(-0.0107901 0.00166272 0)
(-0.0113701 0.00166371 0)
(-0.0119493 0.00166359 0)
(-0.0125271 0.00166224 0)
(-0.0131031 0.0016595 0)
(-0.0136765 0.00165514 0)
(-0.0142466 0.00164895 0)
(-0.0148127 0.00164064 0)
(-0.0153739 0.00162995 0)
(-0.0159292 0.00161659 0)
(-0.0164777 0.00160028 0)
(-0.0170181 0.00158074 0)
(-0.0175494 0.00155768 0)
(-0.0180703 0.00153086 0)
(-0.0185794 0.00150001 0)
(-0.0190754 0.00146491 0)
(-0.0195567 0.00142533 0)
(-0.020022 0.00138108 0)
(-0.0204696 0.00133197 0)
(-0.0208981 0.00127786 0)
(-0.0213056 0.00121861 0)
(-0.0216907 0.00115412 0)
(-0.0220517 0.0010843 0)
(-0.0223869 0.0010091 0)
(-0.0226947 0.000928497 0)
(-0.0229734 0.00084249 0)
(-0.0232215 0.000751118 0)
(-0.0234373 0.000654447 0)
(-0.0236194 0.000552582 0)
(-0.0237662 0.000445664 0)
(-0.0238763 0.000333872 0)
(-0.0239483 0.000217431 0)
(-0.0239811 9.66071e-05 0)
(-0.0239733 -2.82848e-05 0)
(-0.023924 -0.000156898 0)
(-0.0238323 -0.000288807 0)
(-0.0236972 -0.000423552 0)
(-0.0235183 -0.000560619 0)
(-0.0232949 -0.000699443 0)
(-0.0230268 -0.000839404 0)
(-0.022714 -0.000979835 0)
(-0.0223564 -0.00112002 0)
(-0.0219544 -0.0012592 0)
(-0.0215086 -0.00139657 0)
(-0.0210197 -0.00153131 0)
(-0.0204888 -0.00166254 0)
(-0.0199172 -0.0017894 0)
(-0.0193065 -0.00191099 0)
(-0.0186584 -0.00202643 0)
(-0.0179751 -0.00213483 0)
(-0.0172589 -0.00223534 0)
(-0.0165123 -0.00232712 0)
(-0.0157382 -0.00240941 0)
(-0.0149396 -0.00248148 0)
(-0.0141198 -0.00254266 0)
(-0.0132822 -0.00259238 0)
(-0.0124305 -0.00263015 0)
(-0.0115682 -0.00265556 0)
(-0.0106993 -0.00266834 0)
(-0.00982776 -0.00266829 0)
(-0.00895744 -0.00265535 0)
(-0.00809234 -0.00262957 0)
(-0.00723643 -0.00259111 0)
(-0.0063936 -0.00254026 0)
(-0.00556765 -0.00247742 0)
(-0.00476227 -0.00240309 0)
(-0.00398098 -0.00231786 0)
(-0.00322715 -0.00222244 0)
(-0.00250389 -0.00211759 0)
(-0.00181412 -0.00200417 0)
(-0.00116048 -0.00188307 0)
(-0.00054535 -0.00175524 0)
(2.91759e-05 -0.00162165 0)
(0.000561306 -0.00148331 0)
(0.00104955 -0.00134121 0)
(0.00149271 -0.00119635 0)
(0.00188991 -0.00104971 0)
(0.00224058 -0.000902255 0)
(0.00254442 -0.000754899 0)
(0.00280146 -0.000608535 0)
(0.00301197 -0.000464018 0)
(0.00317653 -0.000322163 0)
(0.00329597 -0.000183754 0)
(0.00337138 -4.95516e-05 0)
(0.00340412 7.9702e-05 0)
(0.00339579 0.000203263 0)
(0.00334825 0.000320371 0)
(0.00326363 0.000430229 0)
(0.00314433 0.000531974 0)
(0.00299307 0.000624655 0)
(0.00281287 0.000707197 0)
(0.00260709 0.000778371 0)
(0.00237951 0.000836759 0)
(0.0021343 0.000880726 0)
(0.00187613 0.000908403 0)
(0.00161014 0.000917678 0)
(0.00134203 0.000906227 0)
(0.00107801 0.000871592 0)
(0.000824897 0.000811348 0)
(0.000590063 0.000723392 0)
(0.000381303 0.000606434 0)
(0.000206502 0.000460678 0)
(7.67012e-05 0.000288768 0)
(1.24133e-05 9.782e-05 0)
(-7.47098e-06 2.47763e-05 0)
(-5.9988e-05 0.000157433 0)
(-0.000181868 0.000338486 0)
(-0.00036511 0.000544117 0)
(-0.000606792 0.000757746 0)
(-0.000904647 0.000967561 0)
(-0.00125509 0.00116562 0)
(-0.00165378 0.00134706 0)
(-0.00209603 0.00150931 0)
(-0.00257701 0.00165145 0)
(-0.00309193 0.00177379 0)
(-0.00363616 0.00187741 0)
(-0.0042054 0.00196389 0)
(-0.00479571 0.0020351 0)
(-0.00540355 0.002093 0)
(-0.00602582 0.00213952 0)
(-0.00665981 0.0021765 0)
(-0.00730322 0.00220561 0)
(-0.00795409 0.00222831 0)
(-0.00861077 0.00224588 0)
(-0.0092719 0.00225936 0)
(-0.0099363 0.00226959 0)
(-0.010603 0.0022772 0)
(-0.0112711 0.00228266 0)
(-0.01194 0.00228626 0)
(-0.0126088 0.00228817 0)
(-0.0132769 0.00228843 0)
(-0.0139436 0.00228695 0)
(-0.0146083 0.0022836 0)
(-0.0152701 0.00227816 0)
(-0.0159282 0.00227035 0)
(-0.0165819 0.00225986 0)
(-0.0172301 0.00224635 0)
(-0.0178718 0.00222948 0)
(-0.0185059 0.00220886 0)
(-0.0191312 0.00218413 0)
(-0.0197463 0.00215494 0)
(-0.0203501 0.00212092 0)
(-0.0209409 0.00208175 0)
(-0.0215174 0.0020371 0)
(-0.0220779 0.00198667 0)
(-0.0226208 0.0019302 0)
(-0.0231444 0.00186745 0)
(-0.0236471 0.00179818 0)
(-0.024127 0.00172223 0)
(-0.0245825 0.00163943 0)
(-0.0250118 0.00154966 0)
(-0.025413 0.00145285 0)
(-0.0257844 0.00134894 0)
(-0.0261243 0.00123791 0)
(-0.0264308 0.00111979 0)
(-0.0267023 0.000994648 0)
(-0.0269371 0.000862597 0)
(-0.0271336 0.000723788 0)
(-0.0272902 0.000578425 0)
(-0.0274055 0.00042676 0)
(-0.027478 0.000269101 0)
(-0.0275063 0.00010581 0)
(-0.0274894 -6.26886e-05 0)
(-0.0274261 -0.000235919 0)
(-0.0273154 -0.000413326 0)
(-0.0271566 -0.000594298 0)
(-0.0269489 -0.000778156 0)
(-0.026692 -0.000964152 0)
(-0.0263855 -0.00115147 0)
(-0.0260293 -0.00133925 0)
(-0.0256237 -0.00152653 0)
(-0.0251689 -0.00171233 0)
(-0.0246656 -0.00189561 0)
(-0.0241148 -0.00207527 0)
(-0.0235174 -0.00225019 0)
(-0.022875 -0.00241923 0)
(-0.0221893 -0.00258123 0)
(-0.0214622 -0.00273501 0)
(-0.020696 -0.00287945 0)
(-0.0198932 -0.00301341 0)
(-0.0190568 -0.00313582 0)
(-0.0181896 -0.00324565 0)
(-0.017295 -0.00334196 0)
(-0.0163767 -0.00342388 0)
(-0.0154382 -0.00349064 0)
(-0.0144836 -0.00354161 0)
(-0.013517 -0.00357624 0)
(-0.0125424 -0.00359416 0)
(-0.0115643 -0.00359511 0)
(-0.010587 -0.00357899 0)
(-0.00961479 -0.00354586 0)
(-0.00865213 -0.00349591 0)
(-0.00770328 -0.00342951 0)
(-0.00677246 -0.00334716 0)
(-0.00586377 -0.0032495 0)
(-0.00498112 -0.00313731 0)
(-0.00412825 -0.00301148 0)
(-0.00330868 -0.00287302 0)
(-0.00252566 -0.00272304 0)
(-0.00178218 -0.00256269 0)
(-0.00108093 -0.00239323 0)
(-0.000424294 -0.00221593 0)
(0.00018567 -0.00203211 0)
(0.000747238 -0.00184307 0)
(0.00125902 -0.00165015 0)
(0.00171996 -0.00145465 0)
(0.00212935 -0.00125783 0)
(0.0024868 -0.00106094 0)
(0.00279225 -0.000865161 0)
(0.00304596 -0.000671656 0)
(0.0032485 -0.000481525 0)
(0.00340074 -0.000295834 0)
(0.00350383 -0.000115618 0)
(0.00355924 5.81048e-05 0)
(0.0035687 0.000224318 0)
(0.00353425 0.000381981 0)
(0.00345822 0.000530009 0)
(0.00334324 0.000667235 0)
(0.0031923 0.000792381 0)
(0.0030087 0.000904023 0)
(0.00279613 0.00100055 0)
(0.00255871 0.00108011 0)
(0.00230097 0.00114064 0)
(0.00202796 0.00117976 0)
(0.00174522 0.00119484 0)
(0.00145884 0.001183 0)
(0.00117552 0.00114121 0)
(0.00090254 0.00106646 0)
(0.000647907 0.000956022 0)
(0.000420195 0.000807858 0)
(0.000228301 0.000621193 0)
(8.49609e-05 0.00039717 0)
(1.37421e-05 0.00014022 0)
(-1.03575e-05 5.96733e-05 0)
(-7.80924e-05 0.000260837 0)
(-0.00023074 0.000508717 0)
(-0.000455211 0.000778769 0)
(-0.000745993 0.0010536 0)
(-0.00109929 0.00132068 0)
(-0.00151028 0.00157149 0)
(-0.00197366 0.00180079 0)
(-0.00248402 0.00200584 0)
(-0.00303598 0.00218575 0)
(-0.00362434 0.00234095 0)
(-0.00424413 0.00247282 0)
(-0.00489076 0.00258329 0)
(-0.00556004 0.00267462 0)
(-0.00624822 0.00274921 0)
(-0.00695198 0.00280941 0)
(-0.00766845 0.00285747 0)
(-0.00839514 0.00289542 0)
(-0.00912992 0.00292509 0)
(-0.009871 0.00294803 0)
(-0.0106168 0.00296552 0)
(-0.0113661 0.00297861 0)
(-0.0121177 0.00298809 0)
(-0.0128706 0.00299454 0)
(-0.0136239 0.00299833 0)
(-0.0143767 0.00299965 0)
(-0.0151283 0.00299856 0)
(-0.0158777 0.00299497 0)
(-0.0166242 0.00298871 0)
(-0.0173668 0.00297949 0)
(-0.0181046 0.00296699 0)
(-0.0188365 0.00295082 0)
(-0.0195614 0.00293055 0)
(-0.0202781 0.00290576 0)
(-0.0209853 0.00287598 0)
(-0.0216817 0.00284077 0)
(-0.0223658 0.00279968 0)
(-0.0230361 0.00275229 0)
(-0.0236911 0.00269818 0)
(-0.0243289 0.00263697 0)
(-0.024948 0.00256832 0)
(-0.0255465 0.00249189 0)
(-0.0261227 0.00240741 0)
(-0.0266747 0.00231463 0)
(-0.0272006 0.00221334 0)
(-0.0276986 0.00210338 0)
(-0.0281668 0.00198461 0)
(-0.0286034 0.00185696 0)
(-0.0290064 0.00172039 0)
(-0.0293741 0.0015749 0)
(-0.0297045 0.00142056 0)
(-0.0299961 0.00125747 0)
(-0.030247 0.00108578 0)
(-0.0304555 0.000905725 0)
(-0.0306202 0.000717559 0)
(-0.0307393 0.000521621 0)
(-0.0308116 0.000318308 0)
(-0.0308357 0.000108085 0)
(-0.0308104 -0.000108511 0)
(-0.0307344 -0.000330866 0)
(-0.030607 -0.000558291 0)
(-0.0304272 -0.000790014 0)
(-0.0301943 -0.00102518 0)
(-0.029908 -0.00126286 0)
(-0.0295679 -0.00150204 0)
(-0.029174 -0.00174162 0)
(-0.0287265 -0.00198043 0)
(-0.0282256 -0.00221723 0)
(-0.0276721 -0.00245072 0)
(-0.027067 -0.00267954 0)
(-0.0264113 -0.00290229 0)
(-0.0257067 -0.00311754 0)
(-0.0249549 -0.00332383 0)
(-0.024158 -0.00351973 0)
(-0.0233184 -0.00370379 0)
(-0.0224388 -0.0038746 0)
(-0.0215222 -0.00403082 0)
(-0.0205717 -0.00417116 0)
(-0.019591 -0.00429442 0)
(-0.0185839 -0.00439951 0)
(-0.0175543 -0.00448547 0)
(-0.0165064 -0.00455147 0)
(-0.0154446 -0.00459682 0)
(-0.0143735 -0.00462104 0)
(-0.0132977 -0.00462378 0)
(-0.0122218 -0.0046049 0)
(-0.0111507 -0.00456446 0)
(-0.0100891 -0.00450267 0)
(-0.00904166 -0.00441997 0)
(-0.00801297 -0.00431698 0)
(-0.00700752 -0.00419447 0)
(-0.00602963 -0.00405341 0)
(-0.0050834 -0.00389491 0)
(-0.00417271 -0.00372021 0)
(-0.00330117 -0.00353069 0)
(-0.00247211 -0.00332781 0)
(-0.00168852 -0.00311313 0)
(-0.000953071 -0.00288826 0)
(-0.000268082 -0.00265484 0)
(0.000364488 -0.00241456 0)
(0.000943047 -0.00216907 0)
(0.00146637 -0.00192004 0)
(0.00193362 -0.00166908 0)
(0.00234428 -0.00141779 0)
(0.00269824 -0.00116768 0)
(0.00299571 -0.00092025 0)
(0.00323726 -0.000676916 0)
(0.00342378 -0.000439062 0)
(0.00355648 -0.00020803 0)
(0.00363693 1.48553e-05 0)
(0.00366697 0.000228272 0)
(0.00364878 0.000430873 0)
(0.00358489 0.000621252 0)
(0.00347811 0.000797912 0)
(0.00333166 0.000959224 0)
(0.00314908 0.00110339 0)
(0.00293435 0.00122838 0)
(0.00269185 0.00133194 0)
(0.00242644 0.0014115 0)
(0.00214346 0.00146418 0)
(0.0018488 0.00148681 0)
(0.00154893 0.00147594 0)
(0.00125093 0.0014279 0)
(0.00096256 0.00133901 0)
(0.000692427 0.00120575 0)
(0.000449849 0.00102514 0)
(0.000244656 0.000795103 0)
(9.09742e-05 0.000514954 0)
(1.46426e-05 0.000186235 0)
(-1.31178e-05 0.000103868 0)
(-9.57752e-05 0.000388413 0)
(-0.000278915 0.000714883 0)
(-0.000544484 0.0010586 0)
(-0.000884357 0.00140188 0)
(-0.00129312 0.00173192 0)
(-0.00176461 0.00204001 0)
(-0.00229245 0.00232083 0)
(-0.00287044 0.00257167 0)
(-0.00349261 0.00279181 0)
(-0.00415327 0.00298197 0)
(-0.00484713 0.00314386 0)
(-0.0055693 0.00327983 0)
(-0.00631536 0.00339259 0)
(-0.00708138 0.00348497 0)
(-0.00786386 0.00355978 0)
(-0.00865977 0.00361968 0)
(-0.00946648 0.0036671 0)
(-0.0102817 0.00370419 0)
(-0.0111036 0.0037328 0)
(-0.0119303 0.00375448 0)
(-0.0127605 0.00377046 0)
(-0.013593 0.00378169 0)
(-0.0144265 0.00378886 0)
(-0.01526 0.00379242 0)
(-0.0160925 0.0037926 0)
(-0.0169231 0.00378946 0)
(-0.0177507 0.0037829 0)