/*--------------------------------*- C++ -*----------------------------------*\
| =========                 |                                                 |
| \\      /  F ield         | OpenFOAM: The Open Source CFD Toolbox           |
|  \\    /   O peration     | Version:  2112                                  |
|   \\  /    A nd           | Website:  www.openfoam.com                      |
|    \\/     M anipulation  |                                                 |
\*---------------------------------------------------------------------------*/
FoamFile
{
    version     2.0;
    format      ascii;
    arch        "LSB;label=32;scalar=64";
    class       volScalarField;
    location    "5";
    object      p;
}
// * * * * * * * * * * * * * * * * * * * * * * * * * * * * * * * * * * * * * //

dimensions      [0 2 -2 0 0 0 0];

internalField   nonuniform List<scalar> 
16641
(
-2.8013e-09
-1.82923e-06
-6.32951e-06
-1.2463e-05
-1.92338e-05
-2.59152e-05
-3.20016e-05
-3.71309e-05
-4.10614e-05
-4.36373e-05
-4.47634e-05
-4.43882e-05
-4.24922e-05
-3.9078e-05
-3.41626e-05
-2.77711e-05
-1.99331e-05
-1.06806e-05
-4.63707e-08
1.19377e-05
2.52416e-05
3.98384e-05
5.5704e-05
7.28171e-05
9.1159e-05
0.000110713
0.000131467
0.000153408
0.000176527
0.000200817
0.000226271
0.000252882
0.000280648
0.000309562
0.000339621
0.00037082
0.000403154
0.000436618
0.000471205
0.000506908
0.00054372
0.000581629
0.000620626
0.000660695
0.000701821
0.000743988
0.000787174
0.000831357
0.000876513
0.000922611
0.000969622
0.00101751
0.00106624
0.00111576
0.00116603
0.00121701
0.00126864
0.00132086
0.00137361
0.00142682
0.00148043
0.00153437
0.00158856
0.00164291
0.00169734
0.00175178
0.00180612
0.00186027
0.00191414
0.00196763
0.00202064
0.00207307
0.00212482
0.00217578
0.00222586
0.00227494
0.00232294
0.00236976
0.00241529
0.00245945
0.00250214
0.00254329
0.0025828
0.00262061
0.00265665
0.00269085
0.00272316
0.00275353
0.00278191
0.00280828
0.00283261
0.00285488
0.00287508
0.00289321
0.00290929
0.00292332
0.00293532
0.00294534
0.00295341
0.00295957
0.00296389
0.00296642
0.00296723
0.00296639
0.00296399
0.00296011
0.00295485
0.00294829
0.00294055
0.00293173
0.00292195
0.00291132
0.00289997
0.00288804
0.00287566
0.00286297
0.00285014
0.00283733
0.00282464
0.0028124
0.00280074
0.00278988
0.00278008
0.00277157
0.00276465
0.00275959
0.00275659
0.00275576
0.00275688
1.74127e-06
-9.03916e-08
-3.70349e-06
-8.42357e-06
-1.36166e-05
-1.87442e-05
-2.33901e-05
-2.72402e-05
-3.00666e-05
-3.17104e-05
-3.20652e-05
-3.10633e-05
-2.8667e-05
-2.48605e-05
-1.9644e-05
-1.30286e-05
-5.03122e-06
4.32707e-06
1.50235e-05
2.70344e-05
4.03366e-05
5.49084e-05
7.07296e-05
8.77823e-05
0.000106051
0.000125521
0.00014618
0.000168018
0.000191026
0.000215196
0.000240522
0.000266997
0.000294617
0.000323376
0.00035327
0.000384292
0.000416438
0.000449701
0.000484073
0.000519548
0.000556116
0.000593766
0.000632485
0.000672259
0.000713073
0.000754907
0.000797741
0.000841552
0.000886313
0.000931996
0.000978569
0.001026
0.00107424
0.00112326
0.001173
0.00122343
0.00127448
0.0013261
0.00137823
0.0014308
0.00148375
0.001537
0.00159048
0.00164412
0.00169781
0.0017515
0.00180507
0.00185845
0.00191153
0.00196423
0.00201644
0.00206806
0.00211901
0.00216917
0.00221846
0.00226676
0.00231398
0.00236004
0.00240482
0.00244826
0.00249024
0.00253071
0.00256957
0.00260676
0.00264221
0.00267585
0.00270764
0.00273753
0.00276547
0.00279145
0.00281542
0.00283739
0.00285733
0.00287525
0.00289115
0.00290507
0.00291701
0.00292701
0.00293512
0.00294137
0.00294582
0.00294855
0.0029496
0.00294907
0.00294702
0.00294355
0.00293875
0.00293272
0.00292556
0.00291738
0.00290829
0.00289842
0.0028879
0.00287684
0.0028654
0.00285371
0.00284193
0.00283021
0.0028187
0.00280762
0.00279713
0.00278743
0.00277871
0.00277121
0.00276511
0.00276059
0.00275779
0.00275687
0.00275799
6.14856e-06
3.4088e-06
-2.09784e-07
-4.43449e-06
-8.89841e-06
-1.3197e-05
-1.69994e-05
-2.00462e-05
-2.21389e-05
-2.31314e-05
-2.29213e-05
-2.14399e-05
-1.86444e-05
-1.45116e-05
-9.03326e-06
-2.21181e-06
5.94287e-06
1.54164e-05
2.6192e-05
3.82516e-05
5.15771e-05
6.61508e-05
8.19559e-05
9.89768e-05
0.0001172
0.000136613
0.000157205
0.000178967
0.000201891
0.000225968
0.000251192
0.000277558
0.000305061
0.000333695
0.000363455
0.000394335
0.000426328
0.000459429
0.00049363
0.000528922
0.000565296
0.000602741
0.000641243
0.000680787
0.000721357
0.000762935
0.000805499
0.000849025
0.000893488
0.000938857
0.0009851
0.00103218
0.00108007
0.00112871
0.00117806
0.00122808
0.00127871
0.00132989
0.00138157
0.00143368
0.00148615
0.00153891
0.00159189
0.00164501
0.00169818
0.00175133
0.00180436
0.00185718
0.00190971
0.00196184
0.00201349
0.00206456
0.00211494
0.00216454
0.00221326
0.00226101
0.00230769
0.0023532
0.00239746
0.00244038
0.00248186
0.00252184
0.00256023
0.00259697
0.00263199
0.00266523
0.00269664
0.00272616
0.00275378
0.00277944
0.00280314
0.00282486
0.00284458
0.00286231
0.00287806
0.00289185
0.00290371
0.00291365
0.00292174
0.002928
0.00293251
0.00293532
0.0029365
0.00293612
0.00293428
0.00293105
0.00292653
0.00292082
0.00291403
0.00290626
0.00289763
0.00288827
0.00287829
0.00286783
0.00285702
0.002846
0.00283493
0.00282395
0.00281322
0.00280291
0.00279319
0.00278423
0.00277621
0.0027693
0.00276368
0.00275949
0.00275683
0.00275594
0.00275716
1.22455e-05
8.044e-06
3.88898e-06
-3.57116e-07
-4.58274e-06
-8.47841e-06
-1.17873e-05
-1.43091e-05
-1.58833e-05
-1.63868e-05
-1.573e-05
-1.38508e-05
-1.0709e-05
-6.28123e-06
-5.56272e-07
6.46734e-06
1.47842e-05
2.43841e-05
3.52542e-05
4.73801e-05
6.07473e-05
7.53415e-05
9.11486e-05
0.000108155
0.00012635
0.000145722
0.000166262
0.000187962
0.000210813
0.00023481
0.000259946
0.000286215
0.000313613
0.000342134
0.000371773
0.000402524
0.000434381
0.000467337
0.000501384
0.000536514
0.000572718
0.000609982
0.000648294
0.000687639
0.000728
0.000769359
0.000811693
0.000854979
0.000899191
0.000944298
0.000990269
0.00103707
0.00108466
0.00113299
0.00118203
0.00123172
0.00128201
0.00133285
0.00138417
0.00143591
0.001488
0.00154038
0.00159296
0.00164568
0.00169845
0.00175118
0.00180379
0.00185619
0.00190829
0.00196
0.00201122
0.00206185
0.0021118
0.00216097
0.00220927
0.00225659
0.00230285
0.00234795
0.00239181
0.00243432
0.00247542
0.00251502
0.00255304
0.00258943
0.0026241
0.00265701
0.0026881
0.00271733
0.00274466
0.00277007
0.00279352
0.00281501
0.00283452
0.00285207
0.00286766
0.00288131
0.00289304
0.0029029
0.00291091
0.00291713
0.00292162
0.00292444
0.00292566
0.00292535
0.00292361
0.00292051
0.00291616
0.00291065
0.00290409
0.0028966
0.00288828
0.00287926
0.00286966
0.00285962
0.00284926
0.00283873
0.00282817
0.00281773
0.00280755
0.00279779
0.0027886
0.00278015
0.00277259
0.00276606
0.00276073
0.0027567
0.00275409
0.00275313
0.00275422
1.90588e-05
1.31701e-05
8.21877e-06
3.68739e-06
-5.57638e-07
-4.28314e-06
-7.2963e-06
-9.4535e-06
-1.06352e-05
-1.07456e-05
-9.71266e-06
-7.48521e-06
-4.02942e-06
6.75238e-07
6.63903e-06
1.38644e-05
2.2348e-05
3.20824e-05
4.30575e-05
5.52619e-05
6.86834e-05
8.33103e-05
9.9131e-05
0.000116135
0.000134311
0.000153652
0.000174147
0.000195792
0.000218578
0.000242499
0.000267551
0.000293728
0.000321025
0.000349438
0.000378961
0.000409589
0.000441315
0.000474133
0.000508034
0.000543011
0.000579053
0.000616148
0.000654284
0.000693444
0.000733613
0.00077477
0.000816896
0.000859965
0.000903951
0.000948824
0.000994553
0.0010411
0.00108843
0.0011365
0.00118526
0.00123467
0.00128467
0.00133521
0.00138623
0.00143766
0.00148944
0.00154149
0.00159375
0.00164613
0.00169856
0.00175096
0.00180323
0.00185528
0.00190704
0.00195839
0.00200926
0.00205954
0.00210915
0.00215797
0.00220592
0.0022529
0.00229882
0.00234358
0.0023871
0.00242929
0.00247006
0.00250934
0.00254706
0.00258313
0.00261751
0.00265013
0.00268095
0.00270991
0.00273699
0.00276214
0.00278536
0.00280663
0.00282593
0.00284329
0.0028587
0.00287218
0.00288377
0.00289349
0.00290139
0.00290752
0.00291194
0.00291471
0.0029159
0.0029156
0.00291388
0.00291084
0.00290657
0.00290117
0.00289476
0.00288744
0.00287933
0.00287056
0.00286124
0.00285151
0.00284149
0.00283133
0.00282117
0.00281113
0.00280137
0.00279203
0.00278324
0.00277516
0.00276792
0.00276165
0.00275648
0.00275252
0.00274984
0.00274867
0.00274933
2.58377e-05
1.82211e-05
1.23444e-05
7.35701e-06
2.90996e-06
-8.23089e-07
-3.70231e-06
-5.63449e-06
-6.53891e-06
-6.34821e-06
-5.0107e-06
-2.48905e-06
1.24186e-06
6.19705e-06
1.23836e-05
1.98027e-05
2.84508e-05
3.83216e-05
4.94067e-05
6.16965e-05
7.51809e-05
8.98499e-05
0.000105694
0.000122703
0.00014087
0.000160187
0.000180647
0.000202244
0.000224971
0.000248825
0.000273799
0.00029989
0.000327094
0.000355405
0.00038482
0.000415332
0.000446935
0.000479624
0.00051339
0.000548224
0.000584118
0.000621059
0.000659034
0.000698027
0.000738023
0.000779002
0.000820943
0.000863821
0.000907611
0.000952282
0.000997804
0.00104414
0.00109125
0.0011391
0.00118763
0.00123681
0.00128658
0.00133687
0.00138765
0.00143883
0.00149036
0.00154216
0.00159416
0.00164628
0.00169846
0.00175059
0.00180259
0.00185439
0.00190588
0.00195697
0.00200757
0.00205759
0.00210693
0.00215549
0.00220318
0.00224989
0.00229555
0.00234005
0.00238332
0.00242525
0.00246577
0.00250479
0.00254226
0.00257809
0.00261222
0.0026446
0.00267517
0.0027039
0.00273074
0.00275567
0.00277867
0.00279972
0.00281881
0.00283596
0.00285118
0.00286448
0.00287589
0.00288545
0.0028932
0.00289919
0.00290348
0.00290615
0.00290725
0.00290688
0.00290511
0.00290204
0.00289777
0.00289241
0.00288605
0.00287881
0.00287082
0.00286219
0.00285305
0.00284352
0.00283374
0.00282383
0.00281394
0.00280419
0.00279473
0.00278567
0.00277717
0.00276933
0.00276229
0.00275616
0.00275104
0.00274703
0.0027442
0.00274269
0.00274272
3.20309e-05
2.27356e-05
1.5885e-05
1.03396e-05
5.56765e-06
1.69842e-06
-1.17151e-06
-2.99259e-06
-3.71886e-06
-3.31002e-06
-1.73517e-06
1.02779e-06
4.99331e-06
1.01692e-05
1.65577e-05
2.4157e-05
3.29624e-05
4.29669e-05
5.41626e-05
6.6541e-05
8.00931e-05
9.48104e-05
0.000110684
0.000127707
0.000145873
0.000165174
0.000185605
0.000207161
0.000229838
0.00025363
0.000278535
0.000304548
0.000331665
0.000359883
0.000389198
0.000419603
0.000451095
0.000483665
0.000517308
0.000552015
0.000587775
0.000624578
0.000662411
0.000701258
0.000741104
0.000781928
0.000823711
0.000866428
0.000910053
0.000954557
0.000999909
0.00104607
0.00109301
0.00114068
0.00118904
0.00123803
0.00128762
0.00133773
0.00138832
0.00143932
0.00149067
0.00154228
0.0015941
0.00164605
0.00169804
0.00174999
0.00180181
0.00185343
0.00190474
0.00195565
0.00200608
0.00205592
0.00210508
0.00215346
0.00220097
0.00224751
0.00229299
0.00233731
0.00238039
0.00242214
0.00246247
0.00250131
0.00253858
0.00257422
0.00260815
0.00264033
0.0026707
0.00269923
0.00272586
0.00275058
0.00277337
0.00279421
0.00281309
0.00283003
0.00284504
0.00285813
0.00286934
0.0028787
0.00288625
0.00289206
0.00289618
0.00289868
0.00289963
0.00289912
0.00289724
0.00289407
0.00288973
0.00288431
0.00287792
0.00287068
0.00286271
0.00285413
0.00284507
0.00283564
0.00282598
0.00281622
0.00280649
0.00279692
0.00278763
0.00277875
0.0027704
0.0027627
0.00275575
0.00274966
0.0027445
0.00274036
0.0027373
0.00273538
0.00273469
3.7203e-05
2.63311e-05
1.85142e-05
1.23633e-05
7.19414e-06
3.10462e-06
1.5642e-07
-1.63829e-06
-2.26436e-06
-1.70599e-06
4.81071e-08
3.00474e-06
7.16681e-06
1.25337e-05
1.91019e-05
2.68655e-05
3.58174e-05
4.59495e-05
5.72533e-05
6.97202e-05
8.3342e-05
9.8111e-05
0.00011402
0.000131062
0.000149231
0.000168523
0.000188932
0.000210455
0.000233088
0.000256827
0.000281669
0.000307612
0.000334652
0.000362785
0.000392009
0.000422319
0.000453709
0.000486175
0.000519708
0.000554301
0.000589945
0.000626628
0.000664338
0.00070306
0.000742778
0.000783474
0.000825126
0.000867712
0.000911206
0.000955577
0.0010008
0.00104683
0.00109363
0.00114117
0.0011894
0.00123827
0.00128773
0.00133772
0.00138819
0.00143907
0.0014903
0.0015418
0.00159351
0.00164535
0.00169723
0.00174908
0.00180081
0.00185232
0.00190354
0.00195436
0.00200469
0.00205444
0.0021035
0.00215179
0.0021992
0.00224565
0.00229102
0.00233524
0.00237821
0.00241984
0.00246005
0.00249876
0.0025359
0.00257139
0.00260518
0.0026372
0.00266741
0.00269575
0.0027222
0.00274673
0.00276932
0.00278995
0.00280862
0.00282534
0.00284012
0.00285298
0.00286396
0.00287309
0.00288041
0.00288599
0.00288988
0.00289217
0.00289291
0.0028922
0.00289014
0.0028868
0.0028823
0.00287675
0.00287026
0.00286293
0.0028549
0.00284628
0.00283719
0.00282777
0.00281814
0.00280843
0.00279876
0.00278926
0.00278005
0.00277125
0.00276296
0.0027553
0.00274836
0.00274222
0.00273696
0.00273263
0.00272928
0.00272692
0.00272547
4.10156e-05
2.8691e-05
1.9948e-05
1.31817e-05
7.57976e-06
3.21869e-06
1.33226e-07
-1.69616e-06
-2.28128e-06
-1.62822e-06
2.56423e-07
3.3649e-06
7.68863e-06
1.32182e-05
1.99436e-05
2.78544e-05
3.69403e-05
4.71914e-05
5.85979e-05
7.11509e-05
8.48421e-05
9.96641e-05
0.00011561
0.000132675
0.000150854
0.000170141
0.000190535
0.00021203
0.000234626
0.000258319
0.000283107
0.000308988
0.000335959
0.000364019
0.000393163
0.000423388
0.00045469
0.000487063
0.000520502
0.000554998
0.000590542
0.000627124
0.000664732
0.000703352
0.000742968
0.000783562
0.000825113
0.000867599
0.000910994
0.000955269
0.00100039
0.00104633
0.00109305
0.00114051
0.00118866
0.00123745
0.00128684
0.00133677
0.00138717
0.001438
0.00148918
0.00154064
0.00159231
0.00164411
0.00169597
0.00174779
0.0017995
0.001851
0.0019022
0.00195301
0.00200333
0.00205307
0.00210212
0.00215039
0.00219779
0.00224421
0.00228956
0.00233375
0.00237667
0.00241826
0.00245841
0.00249705
0.00253411
0.00256951
0.00260319
0.00263509
0.00266516
0.00269335
0.00271964
0.00274399
0.00276638
0.00278681
0.00280526
0.00282175
0.00283629
0.0028489
0.00285961
0.00286848
0.00287553
0.00288084
0.00288446
0.00288647
0.00288695
0.00288598
0.00288367
0.0028801
0.00287538
0.00286963
0.00286294
0.00285545
0.00284728
0.00283854
0.00282935
0.00281985
0.00281017
0.00280041
0.00279072
0.0027812
0.00277198
0.00276317
0.00275486
0.00274717
0.00274016
0.00273392
0.00272849
0.00272393
0.00272028
0.00271746
0.0027153
4.32035e-05
2.95531e-05
1.99407e-05
1.2573e-05
6.52821e-06
1.8685e-06
-1.3919e-06
-3.29871e-06
-3.88685e-06
-3.18181e-06
-1.20646e-06
2.01807e-06
6.47228e-06
1.21381e-05
1.8999e-05
2.70396e-05
3.62461e-05
4.66061e-05
5.81083e-05
7.0743e-05
8.45014e-05
9.93762e-05
0.000115361
0.000132451
0.000150642
0.00016993
0.000190313
0.000211788
0.000234353
0.000258008
0.00028275
0.000308579
0.000335491
0.000363487
0.000392563
0.000422717
0.000453944
0.00048624
0.0005196
0.000554016
0.00058948
0.000625982
0.00066351
0.000702052
0.000741592
0.000782111
0.000823592
0.00086601
0.000909342
0.000953558
0.00099863
0.00104452
0.0010912
0.00113862
0.00118674
0.00123551
0.00128488
0.00133481
0.00138522
0.00143605
0.00148725
0.00153874
0.00159044
0.00164228
0.00169419
0.00174606
0.00179783
0.00184939
0.00190066
0.00195153
0.00200193
0.00205173
0.00210085
0.00214919
0.00219665
0.00224313
0.00228852
0.00233274
0.0023757
0.0024173
0.00245745
0.00249608
0.00253311
0.00256846
0.00260207
0.00263389
0.00266385
0.00269192
0.00271807
0.00274225
0.00276446
0.00278467
0.0028029
0.00281915
0.00283342
0.00284576
0.00285618
0.00286474
0.00287149
0.00287648
0.00287978
0.00288147
0.00288163
0.00288035
0.00287772
0.00287385
0.00286885
0.00286282
0.00285588
0.00284816
0.00283976
0.00283082
0.00282146
0.00281181
0.00280198
0.0027921
0.0027823
0.0027727
0.00276339
0.00275449
0.0027461
0.00273831
0.00273118
0.00272478
0.00271916
0.00271436
0.00271039
0.00270714
0.00270433
4.35532e-05
2.86999e-05
1.82814e-05
1.03399e-05
3.85907e-06
-1.10882e-06
-4.56549e-06
-6.57798e-06
-7.20074e-06
-6.47625e-06
-4.44194e-06
-1.13118e-06
3.42643e-06
9.20474e-06
1.61808e-05
2.43344e-05
3.36479e-05
4.41062e-05
5.56961e-05
6.84068e-05
8.22289e-05
9.7155e-05
0.000113179
0.000130296
0.000148502
0.000167795
0.000188172
0.000209632
0.000232174
0.000255798
0.000280503
0.000306289
0.000333154
0.000361097
0.000390118
0.000420214
0.000451381
0.000483617
0.000516915
0.00055127
0.000586674
0.000623118
0.000660591
0.00069908
0.000738571
0.000779046
0.000820488
0.000862873
0.000906177
0.000950374
0.000995432
0.00104132
0.001088
0.00113543
0.00118358
0.00123238
0.0012818
0.00133178
0.00138225
0.00143317
0.00148445
0.00153603
0.00158784
0.0016398
0.00169182
0.00174383
0.00179573
0.00184744
0.00189885
0.00194988
0.00200042
0.00205037
0.00209964
0.00214813
0.00219572
0.00224232
0.00228784
0.00233217
0.00237522
0.00241689
0.0024571
0.00249577
0.00253282
0.00256817
0.00260175
0.00263351
0.0026634
0.00269137
0.00271738
0.00274141
0.00276343
0.00278344
0.00280143
0.00281741
0.00283141
0.00284344
0.00285355
0.00286177
0.00286817
0.0028728
0.00287573
0.00287705
0.00287683
0.00287518
0.00287218
0.00286796
0.0028626
0.00285623
0.00284897
0.00284094
0.00283226
0.00282305
0.00281344
0.00280355
0.00279352
0.00278345
0.00277347
0.0027637
0.00275425
0.00274521
0.00273667
0.00272873
0.00272144
0.00271486
0.00270902
0.00270396
0.0026997
0.00269607
0.0026927
4.18888e-05
2.59479e-05
1.47883e-05
6.30762e-06
-5.92058e-07
-5.86568e-06
-9.52764e-06
-1.16627e-05
-1.23417e-05
-1.16219e-05
-9.55348e-06
-6.18082e-06
-1.54267e-06
4.32738e-06
1.14003e-05
1.9651e-05
2.90583e-05
3.96041e-05
5.12734e-05
6.40538e-05
7.79355e-05
9.29106e-05
0.000108973
0.000126117
0.000144341
0.000163642
0.000184018
0.00020547
0.000227996
0.000251598
0.000276274
0.000302027
0.000328855
0.000356759
0.000385739
0.000415791
0.000446915
0.000479107
0.000512363
0.000546677
0.000582043
0.000618453
0.000655895
0.000694359
0.00073383
0.000774293
0.000815728
0.000858115
0.00090143
0.000945647
0.000990737
0.00103667
0.0010834
0.0011309
0.00117912
0.00122802
0.00127754
0.00132763
0.00137823
0.00142929
0.00148072
0.00153247
0.00158446
0.00163661
0.00168883
0.00174105
0.00179316
0.00184509
0.00189673
0.00194798
0.00199876
0.00204894
0.00209843
0.00214714
0.00219494
0.00224175
0.00228745
0.00233196
0.00237516
0.00241697
0.0024573
0.00249606
0.00253317
0.00256856
0.00260215
0.00263389
0.00266372
0.00269161
0.0027175
0.00274137
0.00276321
0.00278301
0.00280075
0.00281646
0.00283016
0.00284186
0.00285161
0.00285946
0.00286547
0.00286969
0.00287221
0.0028731
0.00287246
0.00287037
0.00286695
0.0028623
0.00285654
0.00284977
0.00284212
0.00283371
0.00282467
0.00281513
0.0028052
0.00279502
0.00278471
0.00277439
0.00276417
0.00275418
0.00274452
0.00273529
0.00272656
0.00271843
0.00271095
0.00270416
0.00269811
0.0026928
0.00268826
0.00268429
0.00268046
3.80623e-05
2.11398e-05
9.30309e-06
3.21538e-07
-6.97403e-06
-1.25432e-05
-1.64109e-05
-1.86769e-05
-1.9426e-05
-1.8728e-05
-1.66444e-05
-1.32293e-05
-8.52944e-06
-2.58537e-06
4.56819e-06
1.29017e-05
2.23903e-05
3.30132e-05
4.47534e-05
5.75973e-05
7.15341e-05
8.65553e-05
0.000102655
0.000119828
0.000138071
0.000157383
0.000177763
0.000199212
0.00022173
0.000245317
0.000269976
0.000295706
0.00032251
0.000350388
0.00037934
0.000409366
0.000440463
0.00047263
0.000505863
0.000540159
0.00057551
0.00061191
0.000649349
0.000687816
0.000727298
0.00076778
0.000809244
0.00085167
0.000895036
0.000939316
0.00098448
0.0010305
0.00107733
0.00112495
0.0011733
0.00122235
0.00127203
0.0013223
0.0013731
0.00142436
0.00147602
0.00152801
0.00158025
0.00163266
0.00168516
0.00173766
0.00179007
0.0018423
0.00189425
0.00194581
0.00199689
0.00204738
0.00209718
0.00214618
0.00219427
0.00224135
0.00228731
0.00233205
0.00237548
0.00241749
0.00245798
0.00249688
0.0025341
0.00256957
0.0026032
0.00263495
0.00266475
0.00269256
0.00271835
0.00274208
0.00276373
0.0027833
0.00280079
0.0028162
0.00282957
0.00284091
0.00285028
0.00285772
0.00286329
0.00286706
0.00286911
0.00286953
0.0028684
0.00286583
0.00286193
0.0028568
0.00285055
0.00284332
0.00283522
0.00282638
0.00281692
0.00280698
0.00279667
0.00278613
0.00277549
0.00276485
0.00275435
0.00274409
0.00273417
0.0027247
0.00271575
0.0027074
0.00269971
0.00269271
0.00268643
0.00268089
0.00267611
0.00267187
0.00266769
3.19473e-05
1.41393e-05
1.68675e-06
-7.75618e-06
-1.54213e-05
-2.12713e-05
-2.53394e-05
-2.77385e-05
-2.85655e-05
-2.7901e-05
-2.58162e-05
-2.23736e-05
-1.76274e-05
-1.16242e-05
-4.40406e-06
3.99937e-06
1.35578e-05
2.42481e-05
3.60513e-05
4.89524e-05
6.29398e-05
7.80044e-05
9.41396e-05
0.000111341
0.000129606
0.000148933
0.000169322
0.000190774
0.00021329
0.000236873
0.000261523
0.000287243
0.000314035
0.000341901
0.000370841
0.000400856
0.000431945
0.000464106
0.000497339
0.000531638
0.000566999
0.000603415
0.000640879
0.000679379
0.000718904
0.000759439
0.000800969
0.000843473
0.000886931
0.000931316
0.000976602
0.00102276
0.00106975
0.00111753
0.00116608
0.00121533
0.00126523
0.00131575
0.0013668
0.00141834
0.0014703
0.0015226
0.00157516
0.00162791
0.00168077
0.00173363
0.00178642
0.00183903
0.00189136
0.00194331
0.00199478
0.00204566
0.00209583
0.0021452
0.00219366
0.00224108
0.00228737
0.00233242
0.00237612
0.00241838
0.00245911
0.00249819
0.00253557
0.00257115
0.00260486
0.00263664
0.00266643
0.00269418
0.00271987
0.00274345
0.00276491
0.00278425
0.00280146
0.00281656
0.00282957
0.00284052
0.00284946
0.00285645
0.00286154
0.00286482
0.00286635
0.00286624
0.00286457
0.00286146
0.00285701
0.00285134
0.00284456
0.00283681
0.00282819
0.00281885
0.00280892
0.00279851
0.00278777
0.00277682
0.00276578
0.00275479
0.00274394
0.00273337
0.00272316
0.00271342
0.00270421
0.00269562
0.0026877
0.00268048
0.00267399
0.00266824
0.00266326
0.00265881
0.00265438
2.3435e-05
4.82788e-06
-8.18366e-06
-1.80488e-05
-2.60557e-05
-3.21689e-05
-3.64285e-05
-3.89587e-05
-3.98671e-05
-3.92433e-05
-3.7167e-05
-3.37083e-05
-2.8928e-05
-2.28782e-05
-1.56035e-05
-7.14136e-06
2.47685e-06
1.32257e-05
2.50845e-05
3.80371e-05
5.20707e-05
6.7176e-05
8.3346e-05
0.000100576
0.000118865
0.00013821
0.000158613
0.000180074
0.000202597
0.000226183
0.000250836
0.000276557
0.000303351
0.000331219
0.000360163
0.000390185
0.000421284
0.000453461
0.000486714
0.000521041
0.000556437
0.000592897
0.000630414
0.000668979
0.00070858
0.000749205
0.000790838
0.00083346
0.000877052
0.000921589
0.000967044
0.00101339
0.00106058
0.0011086
0.00115738
0.0012069
0.00125709
0.00130791
0.0013593
0.00141119
0.00146351
0.00151619
0.00156916
0.00162233
0.00167561
0.00172892
0.00178216
0.00183523
0.00188803
0.00194045
0.00199238
0.00204373
0.00209436
0.00214418
0.00219307
0.00224091
0.00228759
0.00233301
0.00237706
0.00241963
0.00246063
0.00249995
0.00253752
0.00257325
0.00260706
0.0026389
0.0026687
0.00269641
0.002722
0.00274544
0.0027667
0.00278579
0.0028027
0.00281746
0.00283008
0.00284061
0.00284909
0.00285558
0.00286015
0.00286288
0.00286384
0.00286315
0.00286089
0.00285717
0.00285212
0.00284584
0.00283847
0.00283013
0.00282094
0.00281105
0.00280057
0.00278965
0.00277842
0.002767
0.00275553
0.00274412
0.0027329
0.00272197
0.00271144
0.00270139
0.00269191
0.00268307
0.00267491
0.00266747
0.00266078
0.00265486
0.00264972
0.00264511
0.00264054
1.243e-05
-6.89849e-06
-2.04169e-05
-3.06669e-05
-3.89876e-05
-4.53451e-05
-4.97851e-05
-5.24417e-05
-5.34314e-05
-5.28522e-05
-5.07912e-05
-4.73249e-05
-4.25201e-05
-3.64338e-05
-2.91147e-05
-2.06036e-05
-1.09345e-05
-1.34869e-07
1.17731e-05
2.47718e-05
3.88479e-05
5.39914e-05
7.01953e-05
8.74552e-05
0.000105769
0.000125136
0.000145558
0.000167036
0.000189573
0.000213173
0.000237838
0.000263573
0.000290381
0.000318267
0.000347231
0.000377278
0.000408407
0.00044062
0.000473917
0.000508296
0.000543754
0.000580286
0.000617887
0.000656548
0.00069626
0.000737011
0.000778786
0.000821569
0.000865339
0.000910074
0.000955746
0.00100233
0.00104979
0.00109808
0.00114717
0.00119702
0.00124756
0.00129876
0.00135054
0.00140284
0.0014556
0.00150874
0.00156219
0.00161585
0.00166965
0.00172348
0.00177725
0.00183086
0.00188421
0.00193718
0.00198967
0.00204156
0.00209273
0.00214308
0.00219247
0.0022408
0.00228795
0.0023338
0.00237825
0.00242119
0.00246251
0.00250212
0.00253992
0.00257584
0.00260979
0.0026417
0.00267152
0.0026992
0.0027247
0.00274798
0.00276904
0.00278786
0.00280446
0.00281885
0.00283105
0.00284112
0.00284909
0.00285504
0.00285904
0.00286116
0.00286151
0.00286017
0.00285725
0.00285288
0.00284716
0.00284022
0.00283219
0.0028232
0.00281339
0.00280288
0.00279181
0.00278032
0.00276854
0.00275661
0.00274466
0.0027328
0.00272116
0.00270984
0.00269895
0.00268858
0.00267881
0.0026697
0.0026613
0.00265366
0.00264679
0.00264071
0.00263545
0.00263076
0.00262613
-1.15207e-06
-2.11318e-05
-3.51096e-05
-4.57098e-05
-5.43174e-05
-6.08999e-05
-6.55081e-05
-6.82844e-05
-6.93533e-05
-6.88202e-05
-6.67785e-05
-6.3311e-05
-5.84892e-05
-5.23746e-05
-4.50195e-05
-3.64677e-05
-2.67551e-05
-1.59114e-05
-3.96006e-06
9.08029e-06
2.31955e-05
3.83752e-05
5.46123e-05
7.19026e-05
9.02442e-05
0.000109637
0.000130083
0.000151584
0.000174144
0.000197766
0.000222455
0.000248216
0.000275053
0.000302971
0.000331973
0.000362062
0.000393241
0.000425512
0.000458876
0.000493332
0.000528879
0.000565512
0.000603228
0.00064202
0.000681878
0.000722793
0.000764751
0.000807736
0.000851729
0.000896709
0.000942649
0.000989522
0.00103729
0.00108593
0.00113539
0.00118562
0.00123658
0.00128822
0.00134046
0.00139326
0.00144653
0.00150021
0.00155421
0.00160845
0.00166283
0.00171727
0.00177166
0.0018259
0.00187987
0.00193348
0.0019866
0.00203911
0.0020909
0.00214185
0.00219182
0.00224071
0.0022884
0.00233475
0.00237966
0.00242302
0.00246472
0.00250466
0.00254274
0.00257887
0.00261298
0.002645
0.00267486
0.00270251
0.00272791
0.00275104
0.00277188
0.00279042
0.00280668
0.00282067
0.00283242
0.00284198
0.00284941
0.00285477
0.00285814
0.0028596
0.00285927
0.00285723
0.0028536
0.0028485
0.00284206
0.00283439
0.00282564
0.00281595
0.00280544
0.00279425
0.00278254
0.00277043
0.00275806
0.00274557
0.00273309
0.00272074
0.00270865
0.00269692
0.00268565
0.00267493
0.00266485
0.00265547
0.00264684
0.002639
0.00263197
0.00262578
0.00262044
0.00261572
0.00261112
-1.73866e-05
-3.79547e-05
-5.23484e-05
-6.32671e-05
-7.21361e-05
-7.89248e-05
-8.36885e-05
-8.65767e-05
-8.77213e-05
-8.7234e-05
-8.52144e-05
-8.175e-05
-7.6917e-05
-7.07808e-05
-6.33966e-05
-5.48106e-05
-4.5061e-05
-3.41788e-05
-2.21889e-05
-9.11086e-06
5.04063e-06
2.0255e-05
3.65251e-05
5.38469e-05
7.2219e-05
9.16416e-05
0.000112117
0.000133647
0.000156237
0.000179892
0.000204616
0.000230415
0.000257294
0.00028526
0.000314316
0.000344467
0.000375716
0.000408067
0.000441521
0.00047608
0.000511743
0.000548507
0.00058637
0.000625326
0.000665367
0.000706484
0.000748666
0.000791896
0.000836158
0.00088143
0.000927689
0.000974906
0.00102305
0.00107208
0.00112197
0.00117266
0.0012241
0.00127624
0.00132903
0.00138238
0.00143624
0.00149053
0.00154517
0.00160006
0.00165512
0.00171024
0.00176533
0.00182028
0.00187497
0.00192929
0.00198313
0.00203635
0.00208884
0.00214046
0.0021911
0.00224062
0.00228891
0.00233583
0.00238127
0.0024251
0.00246723
0.00250754
0.00254594
0.00258232
0.00261662
0.00264876
0.00267867
0.0027063
0.00273161
0.00275457
0.00277518
0.00279342
0.00280931
0.00282286
0.00283412
0.00284314
0.00284997
0.00285469
0.00285738
0.00285813
0.00285705
0.00285425
0.00284985
0.00284396
0.00283672
0.00282827
0.00281874
0.00280827
0.00279701
0.0027851
0.00277268
0.0027599
0.0027469
0.00273381
0.00272076
0.00270789
0.00269531
0.00268314
0.00267147
0.00266039
0.00264999
0.00264034
0.00263148
0.00262346
0.00261629
0.00261002
0.00260465
0.00259995
0.00259546
-3.63408e-05
-5.74413e-05
-7.22118e-05
-8.34196e-05
-9.25267e-05
-9.95036e-05
-0.00010441
-0.000107402
-0.000108618
-0.000108176
-0.000106179
-0.000102721
-9.78813e-05
-9.17285e-05
-8.43206e-05
-7.5706e-05
-6.59246e-05
-5.50087e-05
-4.29845e-05
-2.98721e-05
-1.56865e-05
-4.38678e-07
1.58645e-05
3.32193e-05
5.16243e-05
7.10804e-05
9.15898e-05
0.000113156
0.000135785
0.000159481
0.00018425
0.000210099
0.000237035
0.000265064
0.000294191
0.000324422
0.000355761
0.000388214
0.000421783
0.00045647
0.000492276
0.000529202
0.000567243
0.000606397
0.000646657
0.000688015
0.000730461
0.000773981
0.000818557
0.000864171
0.0009108
0.000958415
0.00100699
0.00105648
0.00110685
0.00115805
0.00121005
0.00126277
0.00131616
0.00137015
0.00142468
0.00147966
0.001535
0.00159063
0.00164644
0.00170234
0.00175822
0.00181396
0.00186945
0.00192458
0.00197921
0.00203322
0.00208649
0.00213887
0.00219025
0.00224048
0.00228944
0.00233699
0.00238302
0.00242739
0.00247
0.00251073
0.00254948
0.00258615
0.00262067
0.00265294
0.00268291
0.00271052
0.00273574
0.00275854
0.00277889
0.0027968
0.00281229
0.00282538
0.00283611
0.00284454
0.00285072
0.00285475
0.0028567
0.00285668
0.0028548
0.00285117
0.00284592
0.00283918
0.00283109
0.00282178
0.0028114
0.00280011
0.00278803
0.00277534
0.00276217
0.00274866
0.00273498
0.00272124
0.0027076
0.00269417
0.00268108
0.00266843
0.00265634
0.00264489
0.00263417
0.00262424
0.00261516
0.00260698
0.0025997
0.00259337
0.002588
0.00258338
0.00257907
-5.80753e-05
-7.96586e-05
-9.47706e-05
-0.000106241
-0.000115564
-0.000122713
-0.00012775
-0.000130838
-0.000132121
-0.000131721
-0.000129748
-0.000126298
-0.000121455
-0.00011529
-0.000107863
-9.9224e-05
-8.94152e-05
-7.84699e-05
-6.64148e-05
-5.32708e-05
-3.90531e-05
-2.37725e-05
-7.43593e-06
9.95307e-06
2.83936e-05
4.78867e-05
6.84354e-05
9.00441e-05
0.000112718
0.000136465
0.00016129
0.000187202
0.000214207
0.000242314
0.000271528
0.000301857
0.000333306
0.000365882
0.000399589
0.00043443
0.000470408
0.000507523
0.000545775
0.00058516
0.000625676
0.000667314
0.000710065
0.000753917
0.000798855
0.000844859
0.000891908
0.000939975
0.000989029
0.00103904
0.00108996
0.00114175
0.00119435
0.00124772
0.0013018
0.0013565
0.00141177
0.00146751
0.00152365
0.0015801
0.00163675
0.00169351
0.00175025
0.00180688
0.00186326
0.00191928
0.00197479
0.00202969
0.00208381
0.00213704
0.00218923
0.00224025
0.00228995
0.0023382
0.00238488
0.00242985
0.00247299
0.00251419
0.00255333
0.00259033
0.00262508
0.00265751
0.00268755
0.00271516
0.00274027
0.00276288
0.00278297
0.00280054
0.0028156
0.00282818
0.00283834
0.00284612
0.00285161
0.00285488
0.00285603
0.00285518
0.00285243
0.0028479
0.00284174
0.00283408
0.00282506
0.00281483
0.00280355