/*--------------------------------*- C++ -*----------------------------------*\
| =========                 |                                                 |
| \\      /  F ield         | OpenFOAM: The Open Source CFD Toolbox           |
|  \\    /   O peration     | Version:  2112                                  |
|   \\  /    A nd           | Website:  www.openfoam.com                      |
|    \\/     M anipulation  |                                                 |
\*---------------------------------------------------------------------------*/
FoamFile
{
    version     2.0;
    format      ascii;
    arch        "LSB;label=32;scalar=64";
    class       surfaceScalarField;
    location    "5";
    object      phi;
}
// * * * * * * * * * * * * * * * * * * * * * * * * * * * * * * * * * * * * * //

dimensions      [0 3 -1 0 0 0 0];

oriented        oriented;

internalField   nonuniform List<scalar> 
33024
(
4.03568e-09
-4.0339e-09
6.82604e-09
-2.79e-09
4.59297e-09
2.233e-09
-3.52352e-09
8.11656e-09
-1.73983e-08
1.38747e-08
-3.64641e-08
1.90659e-08
-6.00014e-08
2.35374e-08
-8.72901e-08
2.72887e-08
-1.17668e-07
3.03776e-08
-1.50548e-07
3.28806e-08
-1.85426e-07
3.48775e-08
-2.2187e-07
3.64444e-08
-2.59521e-07
3.76505e-08
-2.98078e-07
3.85571e-08
-3.37295e-07
3.92176e-08
-3.76973e-07
3.9678e-08
-4.1695e-07
3.99768e-08
-4.57097e-07
4.01463e-08
-4.9731e-07
4.02132e-08
-5.37509e-07
4.01991e-08
-5.77631e-07
4.01217e-08
-6.17626e-07
3.99948e-08
-6.57455e-07
3.98293e-08
-6.97088e-07
3.96331e-08
-7.365e-07
3.94122e-08
-7.75671e-07
3.91707e-08
-8.14582e-07
3.89114e-08
-8.53217e-07
3.86355e-08
-8.91561e-07
3.83436e-08
-9.29596e-07
3.80352e-08
-9.67305e-07
3.77093e-08
-1.00467e-06
3.73645e-08
-1.04167e-06
3.69989e-08
-1.07828e-06
3.66103e-08
-1.11448e-06
3.61964e-08
-1.15023e-06
3.57549e-08
-1.18551e-06
3.52831e-08
-1.22029e-06
3.47783e-08
-1.25453e-06
3.42379e-08
-1.28819e-06
3.36593e-08
-1.32123e-06
3.30397e-08
-1.35361e-06
3.23766e-08
-1.38527e-06
3.16675e-08
-1.41618e-06
3.091e-08
-1.44628e-06
3.01016e-08
-1.47552e-06
2.924e-08
-1.50385e-06
2.8323e-08
-1.5312e-06
2.73486e-08
-1.55751e-06
2.63149e-08
-1.58273e-06
2.52203e-08
-1.60679e-06
2.40632e-08
-1.62964e-06
2.28423e-08
-1.65119e-06
2.15566e-08
-1.6714e-06
2.02054e-08
-1.69019e-06
1.87882e-08
-1.70749e-06
1.73048e-08
-1.72325e-06
1.57556e-08
-1.73739e-06
1.41411e-08
-1.74985e-06
1.24623e-08
-1.76057e-06
1.07206e-08
-1.76949e-06
8.91802e-09
-1.77655e-06
7.05676e-09
-1.78168e-06
5.13966e-09
-1.78485e-06
3.17003e-09
-1.78601e-06
1.15174e-09
-1.7851e-06
-9.11303e-10
-1.78208e-06
-3.01369e-09
-1.77693e-06
-5.15058e-09
-1.76962e-06
-7.31609e-09
-1.76011e-06
-9.50404e-09
-1.7484e-06
-1.17078e-08
-1.73448e-06
-1.39204e-08
-1.71835e-06
-1.61345e-08
-1.70001e-06
-1.83423e-08
-1.67947e-06
-2.0536e-08
-1.65676e-06
-2.27073e-08
-1.63191e-06
-2.4848e-08
-1.60496e-06
-2.69497e-08
-1.57596e-06
-2.90039e-08
-1.54496e-06
-3.10024e-08
-1.51202e-06
-3.29367e-08
-1.47722e-06
-3.47989e-08
-1.44064e-06
-3.6581e-08
-1.40237e-06
-3.82757e-08
-1.36249e-06
-3.98757e-08
-1.32112e-06
-4.13742e-08
-1.27835e-06
-4.27649e-08
-1.23431e-06
-4.40419e-08
-1.18911e-06
-4.52001e-08
-1.14287e-06
-4.62348e-08
-1.09573e-06
-4.71418e-08
-1.04782e-06
-4.79173e-08
-9.99257e-07
-4.85581e-08
-9.50196e-07
-4.90616e-08
-9.00769e-07
-4.94259e-08
-8.51119e-07
-4.96496e-08
-8.01388e-07
-4.97312e-08
-7.51719e-07
-4.96695e-08
-7.02256e-07
-4.94635e-08
-6.53143e-07
-4.91127e-08
-6.04526e-07
-4.8617e-08
-5.5655e-07
-4.79757e-08
-5.09361e-07
-4.71882e-08
-4.63108e-07
-4.62539e-08
-4.17936e-07
-4.51714e-08
-3.73997e-07
-4.39397e-08
-3.31439e-07
-4.25575e-08
-2.90416e-07
-4.10229e-08
-2.51083e-07
-3.93337e-08
-2.13595e-07
-3.74877e-08
-1.78112e-07
-3.54824e-08
-1.44797e-07
-3.33154e-08
-1.13812e-07
-3.09846e-08
-8.53241e-08
-2.84884e-08
-5.9497e-08
-2.58268e-08
-3.64956e-08
-2.30012e-08
-1.6481e-08
-2.00147e-08
3.92877e-10
-1.68739e-08
1.40171e-08
-1.36243e-08
2.42556e-08
-1.02384e-08
3.10398e-08
-6.78405e-09
3.43582e-08
-3.31859e-09
3.43104e-08
4.78444e-11
3.10938e-08
3.21653e-09
2.51805e-08
5.91322e-09
1.73747e-08
7.80564e-09
9.03332e-09
8.34111e-09
2.34196e-09
6.69147e-09
2.34197e-09
2.80068e-09
-6.83424e-09
-8.34499e-10
8.45207e-10
-1.58754e-08
1.72746e-08
-4.43399e-08
3.65812e-08
-8.62839e-08
5.5819e-08
-1.4081e-07
7.35921e-08
-2.06575e-07
8.93019e-08
-2.8208e-07
1.02793e-07
-3.65838e-07
1.14136e-07
-4.56463e-07
1.23506e-07
-5.52705e-07
1.3112e-07
-6.53467e-07
1.37207e-07
-7.57803e-07
1.41986e-07
-8.64906e-07
1.45661e-07
-9.741e-07
1.48411e-07
-1.08482e-06
1.50398e-07
-1.1966e-06
1.51757e-07
-1.30906e-06
1.52606e-07
-1.42189e-06
1.53043e-07
-1.53484e-06
1.53149e-07
-1.64771e-06
1.52989e-07
-1.76033e-06
1.52618e-07
-1.87258e-06
1.52076e-07
-1.98434e-06
1.51398e-07
-2.09554e-06
1.50606e-07
-2.20608e-06
1.49719e-07
-2.31592e-06
1.48748e-07
-2.42499e-06
1.47701e-07
-2.53322e-06
1.4658e-07
-2.64057e-06
1.45386e-07
-2.74698e-06
1.44116e-07
-2.85238e-06
1.42767e-07
-2.95671e-06
1.41332e-07
-3.05991e-06
1.39804e-07
-3.16189e-06
1.38176e-07
-3.26257e-06
1.36438e-07
-3.36187e-06
1.34582e-07
-3.45969e-06
1.326e-07
-3.55593e-06
1.3048e-07
-3.65049e-06
1.28214e-07
-3.74324e-06
1.25793e-07
-3.83407e-06
1.23207e-07
-3.92285e-06
1.20447e-07
-4.00944e-06
1.17504e-07
-4.09371e-06
1.1437e-07
-4.17551e-06
1.11037e-07
-4.25468e-06
1.07496e-07
-4.33108e-06
1.03742e-07
-4.40453e-06
9.97665e-08
-4.47487e-06
9.55644e-08
-4.54194e-06
9.11305e-08
-4.60556e-06
8.64605e-08
-4.66555e-06
8.1551e-08
-4.72175e-06
7.63997e-08
-4.77396e-06
7.10052e-08
-4.82202e-06
6.53677e-08
-4.86576e-06
5.94883e-08
-4.90499e-06
5.33696e-08
-4.93954e-06
4.7016e-08
-4.96925e-06
4.04328e-08
-4.99396e-06
3.36275e-08
-5.01351e-06
2.6609e-08
-5.02776e-06
1.93879e-08
-5.03657e-06
1.19765e-08
-5.03981e-06
4.38914e-09
-5.03736e-06
-3.35792e-09
-5.02913e-06
-1.12477e-08
-5.01502e-06
-1.92602e-08
-4.99496e-06
-2.73745e-08
-4.96889e-06
-3.55678e-08
-4.93679e-06
-4.3816e-08
-4.89861e-06
-5.20935e-08
-4.85437e-06
-6.03735e-08
-4.80409e-06
-6.8628e-08
-4.74779e-06
-7.68282e-08
-4.68556e-06
-8.49447e-08
-4.61746e-06
-9.29473e-08
-4.5436e-06
-1.00806e-07
-4.46412e-06
-1.0849e-07
-4.37915e-06
-1.15969e-07
-4.28887e-06
-1.23213e-07
-4.19348e-06
-1.30193e-07
-4.09318e-06
-1.36882e-07
-3.9882e-06
-1.43251e-07
-3.8788e-06
-1.49275e-07
-3.76525e-06
-1.54928e-07
-3.64783e-06
-1.60189e-07
-3.52683e-06
-1.65036e-07
-3.40258e-06
-1.69449e-07
-3.27541e-06
-1.73411e-07
-3.14564e-06
-1.76906e-07
-3.01364e-06
-1.79921e-07
-2.87975e-06
-1.82444e-07
-2.74435e-06
-1.84464e-07
-2.6078e-06
-1.85973e-07
-2.47049e-06
-1.86964e-07
-2.33279e-06
-1.8743e-07
-2.19509e-06
-1.87368e-07
-2.05778e-06
-1.86773e-07
-1.92125e-06
-1.85641e-07
-1.7859e-06
-1.83968e-07
-1.65212e-06
-1.81753e-07
-1.52032e-06
-1.7899e-07
-1.3909e-06
-1.75676e-07
-1.26426e-06
-1.71806e-07
-1.14083e-06
-1.67373e-07
-1.02102e-06
-1.62373e-07
-9.05244e-07
-1.56795e-07
-7.93944e-07
-1.50634e-07
-6.87552e-07
-1.43879e-07
-5.86511e-07
-1.36523e-07
-4.91269e-07
-1.28558e-07
-4.02276e-07
-1.19977e-07
-3.19984e-07
-1.10781e-07
-2.44839e-07
-1.00972e-07
-1.77277e-07
-9.0563e-08
-1.1771e-07
-7.95807e-08
-6.65133e-08
-6.80707e-08
-2.40281e-08
-5.61095e-08
9.52882e-09
-4.37953e-08
3.4043e-08
-3.1298e-08
4.95796e-08
-1.88554e-08
5.64493e-08
-6.82203e-09
5.53657e-08
4.29999e-09
4.75048e-08
1.37739e-08
3.47523e-08
2.05582e-08
1.98744e-08
2.32187e-08
6.65049e-09
1.99153e-08
8.99247e-09
-2.22162e-09
-4.61269e-09
-1.73847e-08
1.60084e-08
-4.99856e-08
4.98756e-08
-1.01654e-07
8.82499e-08
-1.72401e-07
1.26566e-07
-2.61151e-07
1.62342e-07
-3.66227e-07
1.94379e-07
-4.85692e-07
2.22258e-07
-6.17554e-07
2.45998e-07
-7.59898e-07
2.6585e-07
-9.10956e-07
2.82178e-07
-1.06914e-06
2.95391e-07
-1.23305e-06
3.05898e-07
-1.40148e-06
3.1409e-07
-1.57339e-06
3.20324e-07
-1.74792e-06
3.24919e-07
-1.92431e-06
3.28153e-07
-2.10197e-06
3.30266e-07
-2.28039e-06
3.31463e-07
-2.45916e-06
3.31915e-07
-2.63793e-06
3.31762e-07
-2.81643e-06
3.31119e-07
-2.99443e-06
3.30078e-07
-3.17174e-06
3.28709e-07
-3.3482e-06
3.27068e-07
-3.52368e-06
3.25195e-07
-3.69805e-06
3.23117e-07
-3.8712e-06
3.20853e-07
-4.04303e-06
3.1841e-07
-4.21344e-06
3.15793e-07
-4.38232e-06
3.12998e-07
-4.54957e-06
3.10017e-07
-4.71508e-06
3.0684e-07
-4.87873e-06
3.03454e-07
-5.0404e-06
2.99842e-07
-5.19995e-06
2.95988e-07
-5.35724e-06
2.91873e-07
-5.51212e-06
2.87479e-07
-5.66442e-06
2.82786e-07
-5.81398e-06
2.77776e-07
-5.96062e-06
2.72428e-07
-6.10414e-06
2.66724e-07
-6.24434e-06
2.60646e-07
-6.38101e-06
2.54174e-07
-6.51393e-06
2.47291e-07
-6.64287e-06
2.39981e-07
-6.76761e-06
2.32229e-07
-6.88788e-06
2.24018e-07
-7.00345e-06
2.15337e-07
-7.11406e-06
2.06172e-07
-7.21944e-06
1.96515e-07
-7.31934e-06
1.86356e-07
-7.41348e-06
1.7569e-07
-7.50159e-06
1.64511e-07
-7.5834e-06
1.52819e-07
-7.65865e-06
1.40613e-07
-7.72706e-06
1.27897e-07
-7.78837e-06
1.14678e-07
-7.84231e-06
1.00964e-07
-7.88865e-06
8.67693e-08
-7.92713e-06
7.21088e-08
-7.95752e-06
5.70021e-08
-7.97961e-06
4.14725e-08
-7.99318e-06
2.55467e-08
-7.99805e-06
9.25498e-09
-7.99404e-06
-7.36818e-09
-7.981e-06
-2.42859e-08
-7.9588e-06
-4.14563e-08
-7.92734e-06
-5.8835e-08
-7.88653e-06
-7.63739e-08
-7.83633e-06
-9.40223e-08
-7.7767e-06
-1.11726e-07
-7.70764e-06
-1.29429e-07
-7.62919e-06
-1.47073e-07
-7.54142e-06
-1.64598e-07
-7.44443e-06
-1.81941e-07
-7.33833e-06
-1.9904e-07
-7.22331e-06
-2.15833e-07
-7.09954e-06
-2.32254e-07
-6.96727e-06
-2.48242e-07
-6.82675e-06
-2.63734e-07
-6.67827e-06
-2.7867e-07
-6.52216e-06
-2.92991e-07
-6.35878e-06
-3.06639e-07
-6.18849e-06
-3.19561e-07
-6.01171e-06
-3.31705e-07
-5.82888e-06
-3.43023e-07
-5.64044e-06
-3.53472e-07
-5.44688e-06
-3.6301e-07
-5.24869e-06
-3.716e-07
-5.04639e-06
-3.79208e-07
-4.84051e-06
-3.85807e-07
-4.63158e-06
-3.91369e-07
-4.42017e-06
-3.95873e-07
-4.20685e-06
-3.99299e-07
-3.99218e-06
-4.01631e-07
-3.77675e-06
-4.02856e-07
-3.56116e-06
-4.02961e-07
-3.346e-06
-4.01937e-07
-3.13186e-06
-3.99773e-07
-2.91937e-06
-3.96461e-07
-2.70913e-06
-3.91992e-07
-2.50177e-06
-3.86355e-07
-2.2979e-06
-3.7954e-07
-2.09817e-06
-3.71536e-07
-1.90322e-06
-3.62327e-07
-1.71369e-06
-3.51898e-07
-1.53026e-06
-3.40233e-07
-1.35358e-06
-3.27314e-07
-1.18433e-06
-3.13122e-07
-1.02321e-06
-2.97641e-07
-8.70916e-07
-2.80856e-07
-7.28133e-07
-2.62761e-07
-5.95557e-07
-2.43356e-07
-4.7387e-07
-2.22658e-07
-3.63728e-07
-2.00705e-07
-2.65744e-07
-1.77565e-07
-1.80467e-07
-1.53348e-07
-1.08352e-07
-1.28225e-07
-4.97051e-08
-1.02442e-07
-4.63958e-09
-7.63633e-08
2.70072e-08
-5.05022e-08
4.57638e-08
-2.55787e-08
5.266e-08
-2.59643e-09
4.93627e-08
1.7071e-08
3.83565e-08
3.15645e-08
2.31129e-08
3.84624e-08
8.2432e-09
3.47849e-08
1.72356e-08
-8.24661e-09
3.63431e-09
-3.72723e-08
4.50341e-08
-8.95547e-08
1.02158e-07
-1.65889e-07
1.64585e-07
-2.65794e-07
2.26471e-07
-3.87876e-07
2.84423e-07
-5.30177e-07
3.3668e-07
-6.90457e-07
3.82538e-07
-8.66395e-07
4.21936e-07
-1.05573e-06
4.5518e-07
-1.25632e-06
4.82776e-07
-1.46625e-06
5.05317e-07
-1.68377e-06
5.23422e-07
-1.90737e-06
5.37689e-07
-2.13573e-06
5.4868e-07
-2.36771e-06
5.569e-07
-2.60236e-06
5.62801e-07
-2.83886e-06
5.66772e-07
-3.07655e-06
5.6915e-07
-3.31485e-06
5.70218e-07
-3.5533e-06
5.70213e-07
-3.79151e-06
5.69328e-07
-4.02915e-06
5.67719e-07
-4.26595e-06
5.65509e-07
-4.50168e-06
5.62794e-07
-4.73613e-06
5.59645e-07
-4.96912e-06
5.56112e-07
-5.2005e-06
5.52227e-07
-5.4301e-06
5.48012e-07
-5.65778e-06
5.43471e-07
-5.88338e-06
5.38604e-07
-6.10677e-06
5.33399e-07
-6.32777e-06
5.27842e-07
-6.54622e-06
5.21911e-07
-6.76196e-06
5.15581e-07
-6.9748e-06
5.08825e-07
-7.18454e-06
5.01615e-07
-7.39098e-06
4.93919e-07
-7.5939e-06
4.85707e-07
-7.79307e-06
4.76946e-07
-7.98825e-06
4.67605e-07
-8.17918e-06
4.57654e-07
-8.36559e-06
4.4706e-07
-8.54721e-06
4.35795e-07
-8.72375e-06
4.23829e-07
-8.89491e-06
4.11135e-07
-9.06037e-06
3.97689e-07
-9.21981e-06
3.83465e-07
-9.37292e-06
3.68444e-07
-9.51935e-06
3.52605e-07
-9.65877e-06
3.35933e-07
-9.79083e-06
3.18414e-07
-9.91518e-06
3.00039e-07
-1.00315e-05
2.80802e-07
-1.01393e-05
2.607e-07
-1.02385e-05
2.39737e-07
-1.03285e-05
2.17918e-07
-1.04091e-05
1.95256e-07
-1.04799e-05
1.71768e-07
-1.05406e-05
1.47476e-07
-1.05909e-05
1.22407e-07
-1.06305e-05
9.65965e-08
-1.06591e-05
7.00832e-08
-1.06765e-05
4.2913e-08
-1.06823e-05
1.51379e-08
-1.06765e-05
-1.31843e-08
-1.06588e-05
-4.19901e-08
-1.06291e-05
-7.12095e-08
-1.05871e-05
-1.00767e-07
-1.05329e-05
-1.30583e-07
-1.04664e-05
-1.60571e-07
-1.03875e-05
-1.90642e-07
-1.02962e-05
-2.20701e-07
-1.01926e-05
-2.5065e-07
-1.00768e-05
-2.80389e-07
-9.94894e-06
-3.09815e-07
-9.80916e-06
-3.38824e-07
-9.65768e-06
-3.67311e-07
-9.49476e-06
-3.9517e-07
-9.32071e-06
-4.22296e-07
-9.13586e-06
-4.48587e-07
-8.94058e-06
-4.73943e-07
-8.73531e-06
-4.98264e-07
-8.52049e-06
-5.21457e-07
-8.29662e-06
-5.43432e-07
-8.06422e-06
-5.64103e-07
-7.82385e-06
-5.83392e-07
-7.5761e-06
-6.01224e-07
-7.32158e-06
-6.17531e-07
-7.06093e-06
-6.32252e-07
-6.79481e-06
-6.45329e-07
-6.5239e-06
-6.56715e-07
-6.2489e-06
-6.66364e-07
-5.97054e-06
-6.74239e-07
-5.68953e-06
-6.80307e-07
-5.40662e-06
-6.84539e-07
-5.12257e-06
-6.8691e-07
-4.83813e-06
-6.87398e-07
-4.55408e-06
-6.85985e-07
-4.2712e-06
-6.82651e-07
-3.99029e-06
-6.7738e-07
-3.71212e-06
-6.70153e-07
-3.43753e-06
-6.60953e-07
-3.16731e-06
-6.49757e-07
-2.9023e-06
-6.36545e-07
-2.64334e-06
-6.2129e-07
-2.39127e-06
-6.03964e-07
-2.14697e-06
-5.8454e-07
-1.91129e-06
-5.62986e-07
-1.68514e-06
-5.39274e-07
-1.46941e-06
-5.13376e-07
-1.26499e-06
-4.85275e-07
-1.07279e-06
-4.54961e-07
-8.93695e-07
-4.22447e-07
-7.28582e-07
-3.87771e-07
-5.78279e-07
-3.51008e-07
-4.43555e-07
-3.12289e-07
-3.25086e-07
-2.71817e-07
-2.23413e-07
-2.29897e-07
-1.38893e-07
-1.86963e-07
-7.1626e-08
-1.4363e-07
-2.13796e-08
-1.00749e-07
1.25197e-08
-5.94778e-08
3.13034e-08
-2.13802e-08
3.69031e-08
1.14713e-08
3.21016e-08
3.63658e-08
2.07015e-08
4.98627e-08
7.72579e-09
4.77605e-08
2.49611e-08
-1.43358e-08
1.79703e-08
-5.77215e-08
8.84199e-08
-1.30341e-07
1.74778e-07
-2.3169e-07
2.65934e-07
-3.60508e-07
3.55288e-07
-5.14918e-07
4.38834e-07
-6.92631e-07
5.14393e-07
-8.91137e-07
5.81043e-07
-1.10786e-06
6.38661e-07
-1.34029e-06
6.8761e-07
-1.58605e-06
7.28533e-07
-1.84294e-06
7.62212e-07
-2.109e-06
7.89479e-07
-2.38247e-06
8.11155e-07
-2.6618e-06
8.28015e-07
-2.94567e-06
8.40773e-07
-3.23294e-06
8.50066e-07
-3.52262e-06
8.56455e-07
-3.8139e-06
8.60424e-07
-4.10606e-06
8.62387e-07
-4.39854e-06
8.62691e-07
-4.69083e-06
8.61621e-07
-4.98253e-06
8.5941e-07
-5.27326e-06
8.56245e-07
-5.56274e-06
8.52269e-07
-5.85068e-06
8.47592e-07
-6.13687e-06
8.42293e-07
-6.42106e-06
8.36424e-07
-6.70307e-06
8.30017e-07
-6.98269e-06
8.23088e-07
-7.25972e-06
8.15636e-07
-7.53397e-06
8.07649e-07
-7.80523e-06
7.99107e-07
-8.0733e-06
7.89979e-07
-8.33795e-06
7.80233e-07
-8.59896e-06
7.6983e-07
-8.85607e-06
7.58729e-07
-9.10904e-06
7.46885e-07
-9.35759e-06
7.34253e-07
-9.60143e-06
7.20789e-07
-9.84027e-06
7.06446e-07
-1.00738e-05
6.91179e-07
-1.03017e-05
6.74943e-07
-1.05236e-05
6.57696e-07
-1.07391e-05
6.39397e-07
-1.0948e-05
6.20005e-07
-1.11498e-05
5.99484e-07
-1.13441e-05
5.77801e-07
-1.15306e-05
5.54924e-07
-1.17089e-05
5.30828e-07
-1.18784e-05
5.05489e-07
-1.20389e-05
4.7889e-07
-1.21899e-05
4.51017e-07
-1.23309e-05
4.21864e-07
-1.24617e-05
3.91429e-07
-1.25816e-05
3.59717e-07
-1.26905e-05
3.26739e-07
-1.27877e-05
2.92516e-07
-1.2873e-05
2.57073e-07
-1.2946e-05
2.20446e-07
-1.30063e-05
1.82677e-07
-1.30535e-05
1.43819e-07
-1.30873e-05
1.0393e-07
-1.31075e-05
6.30817e-08
-1.31137e-05
2.13505e-08
-1.31057e-05
-2.11765e-08
-1.30833e-05
-6.44041e-08
-1.30463e-05
-1.08228e-07
-1.29945e-05
-1.52537e-07
-1.29279e-05
-1.9721e-07
-1.28463e-05
-2.42122e-07
-1.27498e-05
-2.87139e-07
-1.26384e-05
-3.32121e-07
-1.25121e-05
-3.76925e-07
-1.23711e-05
-4.21402e-07
-1.22155e-05
-4.65401e-07
-1.20456e-05
-5.08769e-07
-1.18616e-05
-5.51351e-07
-1.16637e-05
-5.92992e-07
-1.14525e-05
-6.33539e-07
-1.12282e-05
-6.72842e-07
-1.09914e-05
-7.10751e-07
-1.07426e-05
-7.47125e-07
-1.04822e-05
-7.81825e-07
-1.02109e-05
-8.1472e-07
-9.92933e-06
-8.45684e-07
-9.63812e-06
-8.74601e-07
-9.33798e-06
-9.01362e-07
-9.02965e-06
-9.25868e-07
-8.71387e-06
-9.48027e-07
-8.39144e-06
-9.67757e-07
-8.06317e-06
-9.84984e-07
-7.72989e-06
-9.99644e-07
-7.39246e-06
-1.01168e-06
-7.05173e-06
-1.02104e-06
-6.70859e-06
-1.02768e-06
-6.36394e-06
-1.03156e-06
-6.0187e-06
-1.03265e-06
-5.67376e-06
-1.03091e-06
-5.33008e-06
-1.02633e-06
-4.9886e-06
-1.01887e-06
-4.65026e-06
-1.00849e-06
-4.31602e-06
-9.95183e-07
-3.98688e-06
-9.789e-07
-3.66382e-06
-9.59609e-07
-3.34784e-06
-9.37271e-07
-3.03996e-06
-9.11845e-07
-2.74121e-06
-8.83287e-07
-2.45264e-06
-8.51554e-07
-2.17531e-06
-8.16603e-07
-1.91029e-06
-7.784e-07
-1.65864e-06
-7.36922e-07
-1.42144e-06
-6.92166e-07
-1.19973e-06
-6.44158e-07
-9.94528e-07
-5.92968e-07
-8.0681e-07
-5.38726e-07
-6.37458e-07
-4.81641e-07
-4.87242e-07
-4.22034e-07
-3.56768e-07
-3.60371e-07
-2.46424e-07
-2.97307e-07
-1.56307e-07
-2.33747e-07
-8.61408e-08
-1.70915e-07
-3.5176e-08
-1.10442e-07
-2.08155e-09
-5.4475e-08
1.51848e-08
-5.79511e-09
1.95048e-08
3.20456e-08
1.47557e-08
5.46117e-08
6.01302e-09
5.65032e-08
3.0974e-08
-2.00717e-08
3.80421e-08
-7.74204e-08
1.45769e-07
-1.7002e-07
2.67377e-07
-2.95894e-07
3.91809e-07
-4.52826e-07
5.1222e-07
-6.38323e-07
6.24331e-07
-8.49686e-07
7.25756e-07
-1.08411e-06
8.15467e-07
-1.33879e-06
8.93341e-07
-1.61101e-06
9.59828e-07
-1.8982e-06
1.01572e-06
-2.19798e-06
1.062e-06
-2.5082e-06
1.0997e-06
-2.82694e-06
1.12989e-06
-3.15248e-06
1.15356e-06
-3.48334e-06
1.17163e-06
-3.81823e-06
1.18495e-06
-4.15603e-06
1.19426e-06
-4.4958e-06
1.20019e-06
-4.83672e-06
1.20331e-06
-5.17811e-06
1.20408e-06
-5.51938e-06
1.20289e-06
-5.86003e-06
1.20006e-06
-6.19963e-06
1.19585e-06
-6.53781e-06
1.19045e-06
-6.87424e-06
1.18402e-06
-7.20862e-06
1.17667e-06
-7.54068e-06
1.16849e-06
-7.87017e-06
1.1595e-06
-8.19684e-06
1.14975e-06
-8.52044e-06
1.13924e-06
-8.84073e-06
1.12794e-06
-9.15746e-06
1.11584e-06
-9.47039e-06
1.1029e-06
-9.77923e-06
1.08908e-06
-1.00837e-05
1.07432e-06
-1.03836e-05
1.05858e-06
-1.06785e-05
1.04178e-06
-1.09681e-05
1.02388e-06
-1.12521e-05
1.00481e-06
-1.15302e-05
9.84515e-07
-1.18019e-05
9.62927e-07
-1.2067e-05
9.39991e-07
-1.23249e-05
9.15649e-07
-1.25754e-05
8.89844e-07
-1.28179e-05
8.62526e-07
-1.30521e-05
8.33645e-07
-1.32774e-05
8.03157e-07
-1.34935e-05
7.71021e-07
-1.36999e-05
7.37203e-07
-1.38961e-05
7.01674e-07
-1.40816e-05
6.64411e-07
-1.4256e-05
6.25398e-07
-1.44187e-05
5.84627e-07
-1.45694e-05
5.42099e-07
-1.47075e-05
4.97822e-07
-1.48326e-05
4.51816e-07
-1.49442e-05
4.04108e-07
-1.50419e-05
3.54738e-07
-1.51252e-05
3.03755e-07
-1.51937e-05
2.5122e-07
-1.52471e-05
1.97206e-07
-1.5285e-05
1.41797e-07
-1.5307e-05
8.50907e-08
-1.53128e-05
2.71944e-08
-1.53022e-05
-3.17715e-08
-1.52749e-05
-9.16749e-08
-1.52308e-05
-1.52373e-07
-1.51696e-05
-2.1371e-07
-1.50913e-05
-2.75524e-07
-1.49958e-05
-3.37639e-07
-1.48831e-05
-3.99874e-07
-1.47531e-05
-4.62037e-07
-1.46061e-05
-5.23933e-07
-1.44422e-05
-5.85359e-07
-1.42615e-05
-6.46108e-07
-1.40643e-05
-7.05973e-07
-1.38509e-05
-7.64742e-07
-1.36217e-05
-8.22206e-07
-1.3377e-05
-8.78157e-07
-1.31175e-05
-9.3239e-07
-1.28435e-05
-9.84704e-07
-1.25558e-05
-1.03491e-06
-1.22548e-05
-1.08281e-06
-1.19413e-05
-1.12823e-06
-1.16159e-05
-1.17101e-06
-1.12796e-05
-1.21098e-06
-1.09329e-05
-1.248e-06
-1.05768e-05
-1.28194e-06
-1.02122e-05
-1.31266e-06
-9.83992e-06
-1.34006e-06
-9.46087e-06
-1.36403e-06
-9.07603e-06
-1.38449e-06
-8.68635e-06
-1.40136e-06
-8.29282e-06
-1.41456e-06
-7.89645e-06
-1.42405e-06
-7.49825e-06
-1.42975e-06
-7.09926e-06
-1.43164e-06
-6.70053e-06
-1.42965e-06
-6.3031e-06
-1.42376e-06
-5.90806e-06
-1.41391e-06
-5.51649e-06
-1.40007e-06
-5.12949e-06
-1.38219e-06
-4.74816e-06
-1.36023e-06
-4.37364e-06
-1.33413e-06
-4.00706e-06
-1.30385e-06
-3.64959e-06
-1.26932e-06
-3.30239e-06
-1.23048e-06
-2.96666e-06
-1.18729e-06
-2.64358e-06
-1.13968e-06
-2.33438e-06
-1.08761e-06
-2.04025e-06
-1.03105e-06
-1.76239e-06
-9.70025e-07
-1.50197e-06
-9.04571e-07
-1.26014e-06
-8.34799e-07
-1.03796e-06
-7.60906e-07
-8.36407e-07
-6.83196e-07
-6.56317e-07
-6.02124e-07
-4.98347e-07
-5.18341e-07
-3.62912e-07
-4.32742e-07
-2.50115e-07
-3.46544e-07
-1.59668e-07
-2.61362e-07
-9.07998e-08
-1.79311e-07
-4.21589e-08
-1.03116e-07
-1.17069e-08
-3.62472e-08
3.39673e-09
1.69417e-08
6.92349e-09
5.10848e-08
3.72212e-09
5.97045e-08
3.46958e-08
-2.53023e-08
6.33445e-08
-9.57788e-08
2.16245e-07
-2.07411e-07
3.79009e-07
-3.56762e-07
5.4116e-07
-5.40587e-07
6.96045e-07
-7.55689e-07
8.39432e-07
-9.9889e-07
9.68957e-07
-1.26705e-06
1.08363e-06
-1.55713e-06
1.18342e-06
-1.86622e-06
1.26891e-06
-2.19158e-06
1.34108e-06
-2.5307e-06
1.40111e-06
-2.88128e-06
1.45028e-06
-3.24126e-06
1.48987e-06
-3.60882e-06
1.52111e-06
-3.98234e-06
1.54515e-06
-4.36041e-06
1.56303e-06
-4.74182e-06
1.57567e-06
-5.12551e-06
1.58388e-06
-5.51059e-06
1.58838e-06
-5.89627e-06
1.58976e-06
-6.28189e-06
1.58851e-06
-6.66688e-06
1.58505e-06
-7.05073e-06
1.5797e-06
-7.43302e-06
1.57274e-06
-7.81336e-06
1.56436e-06
-8.19139e-06
1.5547e-06
-8.56679e-06
1.54389e-06
-8.93925e-06
1.53197e-06
-9.30849e-06
1.51899e-06
-9.67422e-06
1.50496e-06
-1.00361e-05
1.48987e-06
-1.0394e-05
1.47367e-06
-1.07474e-05
1.45634e-06
-1.10962e-05
1.43782e-06
-1.14399e-05
1.41804e-06
-1.17782e-05
1.39694e-06
-1.21109e-05
1.37444e-06
-1.24375e-05
1.35047e-06
-1.27576e-05
1.32495e-06
-1.30709e-05
1.2978e-06
-1.33769e-05
1.26895e-06
-1.36753e-05
1.23832e-06
-1.39655e-05
1.20584e-06
-1.4247e-05
1.17144e-06
-1.45196e-05
1.13505e-06
-1.47825e-05
1.09661e-06
-1.50355e-05
1.05607e-06
-1.52778e-05
1.01337e-06
-1.55091e-05
9.6848e-07
-1.57288e-05
9.21354e-07
-1.59363e-05
8.71968e-07
-1.61312e-05
8.20304e-07
-1.6313e-05
7.66355e-07
-1.6481e-05
7.10124e-07
-1.66348e-05
6.51625e-07
-1.67739e-05
5.90884e-07
-1.68977e-05
5.27942e-07
-1.70058e-05
4.62852e-07
-1.70977e-05
3.95681e-07
-1.7173e-05
3.26511e-07
-1.72313e-05
2.55439e-07
-1.7272e-05
1.82577e-07
-1.7295e-05
1.08052e-07
-1.72998e-05
3.20082e-08
-1.72862e-05
-4.53977e-08
-1.72539e-05
-1.23992e-07
-1.72026e-05
-2.03588e-07
-1.71324e-05
-2.83985e-07
-1.70429e-05
-3.64967e-07
-1.69343e-05
-4.46309e-07
-1.68064e-05
-5.27773e-07
-1.66593e-05
-6.09114e-07
-1.64931e-05
-6.90075e-07
-1.63081e-05
-7.70396e-07
-1.61044e-05
-8.49809e-07
-1.58823e-05
-9.28045e-07
-1.56422e-05
-1.00483e-06
-1.53845e-05
-1.0799e-06
-1.51097e-05
-1.15298e-06
-1.48183e-05
-1.22382e-06
-1.45109e-05
-1.29214e-06
-1.41881e-05
-1.35771e-06
-1.38506e-05
-1.42027e-06
-1.34992e-05
-1.47962e-06
-1.31347e-05
-1.53551e-06
-1.27579e-05
-1.58777e-06
-1.23697e-05
-1.63618e-06
-1.19711e-05
-1.68059e-06
-1.15629e-05
-1.72082e-06
-1.11462e-05
-1.75674e-06
-1.07221e-05
-1.78822e-06
-1.02914e-05
-1.81514e-06
-9.85536e-06
-1.8374e-06
-9.415e-06
-1.85491e-06
-8.97146e-06
-1.86759e-06
-8.52584e-06
-1.87538e-06
-8.07928e-06
-1.87819e-06
-7.63295e-06
-1.87599e-06
-7.188e-06
-1.8687e-06
-6.74561e-06
-1.85629e-06
-6.30699e-06
-1.83869e-06
-5.87334e-06
-1.81584e-06
-5.44589e-06
-1.78768e-06
-5.02586e-06
-1.75415e-06
-4.61453e-06
-1.71518e-06
-4.21315e-06
-1.6707e-06
-3.82301e-06
-1.62062e-06
-3.44542e-06
-1.56488e-06
-3.08169e-06
-1.50341e-06
-2.73312e-06
-1.43617e-06
-2.40103e-06
-1.36314e-06
-2.08672e-06
-1.28433e-06
-1.79146e-06
-1.19983e-06
-1.51647e-06
-1.10979e-06
-1.26289e-06
-1.01448e-06
-1.03177e-06
-9.14318e-07
-8.23991e-07
-8.09901e-07
-6.40255e-07
-7.02077e-07
-4.81e-07
-5.91997e-07
-3.46348e-07
-4.81196e-07
-2.36025e-07
-3.71685e-07
-1.49282e-07
-2.66054e-07
-8.48085e-08
-1.67589e-07
-4.06438e-08
-8.04117e-08
-1.40887e-08
-9.61391e-09
-1.61283e-09
3.86088e-08
1.24822e-09
5.68436e-08
3.5944e-08
-3.00103e-08
9.33548e-08
-1.12596e-07
2.98831e-07
-2.42013e-07
5.08426e-07
-4.13462e-07
7.12608e-07
-6.22672e-07
9.05255e-07
-8.65708e-07
1.08247e-06
-1.13887e-06
1.24212e-06
-1.43865e-06
1.38342e-06
-1.76175e-06
1.50651e-06
-2.10504e-06
1.61221e-06
-2.46566e-06
1.7017e-06
-2.84096e-06
1.77641e-06
-3.22852e-06
1.83785e-06
-3.62619e-06
1.88755e-06
-4.03204e-06
1.92697e-06
-4.44437e-06
1.95748e-06
-4.86168e-06
1.98033e-06
-5.28267e-06
1.99665e-06
-5.7062e-06
2.00742e-06
-6.13129e-06
2.01348e-06
-6.5571e-06
2.01557e-06
-6.9829e-06
2.01431e-06
-7.40804e-06
2.01019e-06
-7.83196e-06
2.00363e-06
-8.25419e-06
1.99496e-06
-8.67427e-06
1.98443e-06
-9.0918e-06
1.97224e-06
-9.50642e-06
1.9585e-06
-9.91777e-06
1.94332e-06
-1.03255e-05
1.92674e-06
-1.07293e-05
1.90878e-06
-1.11289e-05
1.88942e-06
-1.15238e-05
1.86863e-06
-1.19139e-05
1.84637e-06
-1.22986e-05
1.82256e-06
-1.26777e-05
1.79713e-06
-1.30508e-05
1.77001e-06
-1.34174e-05
1.74109e-06
-1.37773e-05
1.7103e-06
-1.41298e-05
1.67753e-06
-1.44747e-05
1.6427e-06
-1.48115e-05
1.6057e-06
-1.51396e-05
1.56646e-06
-1.54587e-05
1.52487e-06
-1.57681e-05
1.48085e-06
-1.60673e-05
1.43432e-06
-1.63559e-05
1.38522e-06
-1.66333e-05
1.33347e-06
-1.6899e-05
1.279e-06
-1.71523e-05
1.22178e-06
-1.73927e-05
1.16176e-06
-1.76196e-05
1.09891e-06
-1.78325e-05
1.03321e-06
-1.80308e-05
9.64647e-07
-1.82139e-05
8.93236e-07
-1.83813e-05
8.18995e-07
-1.85324e-05
7.41962e-07
-1.86666e-05
6.6219e-07
-1.87835e-05
5.79747e-07
-1.88826e-05
4.94722e-07
-1.89633e-05
4.0722e-07
-1.90252e-05
3.17364e-07
-1.90679e-05
2.25299e-07
-1.90911e-05
1.31185e-07
-1.90942e-05
3.52037e-08
-1.90772e-05
-6.24453e-08
-1.90396e-05
-1.61544e-07
-1.89814e-05
-2.61857e-07
-1.89022e-05
-3.63131e-07
-1.88021e-05
-4.65097e-07
-1.86809e-05
-5.67474e-07
-1.85387e-05
-6.69962e-07
-1.83756e-05
-7.72256e-07
-1.81916e-05
-8.74036e-07
-1.79871e-05
-9.74977e-07
-1.77621e-05
-1.07475e-06
-1.75172e-05
-1.17301e-06
-1.72526e-05
-1.26943e-06
-1.69688e-05
-1.36367e-06
-1.66664e-05
-1.4554e-06
-1.63459e-05
-1.54428e-06
-1.6008e-05
-1.63002e-06
-1.56535e-05
-1.71228e-06
-1.5283e-05
-1.79078e-06
-1.48973e-05
-1.86523e-06
-1.44975e-05
-1.93537e-06
-1.40843e-05
-2.00095e-06
-1.36588e-05
-2.06172e-06
-1.32219e-05
-2.11748e-06
-1.27747e-05
-2.16802e-06
-1.23182e-05
-2.21318e-06
-1.18537e-05
-2.25279e-06
-1.13821e-05
-2.2867e-06
-1.09047e-05
-2.3148e-06
-1.04227e-05
-2.33697e-06
-9.93714e-06
-2.35311e-06
-9.44938e-06
-2.36313e-06
-8.96061e-06
-2.36696e-06
-8.47207e-06
-2.36453e-06
-7.98503e-06
-2.35575e-06
-7.50075e-06
-2.34057e-06
-7.02052e-06
-2.31891e-06
-6.54566e-06
-2.29071e-06
-6.07746e-06
-2.25588e-06
-5.61726e-06
-2.21435e-06
-5.16641e-06
-2.16603e-06
-4.72628e-06
-2.11083e-06
-4.29823e-06
-2.04867e-06
-3.88365e-06
-1.97946e-06
-3.48394e-06
-1.90312e-06
-3.10049e-06
-1.81962e-06
-2.73471e-06
-1.72893e-06
-2.38796e-06
-1.63109e-06
-2.06158e-06
-1.52621e-06
-1.75685e-06
-1.41452e-06
-1.47498e-06
-1.29635e-06
-1.21704e-06
-1.17225e-06
-9.83984e-07
-1.04296e-06
-7.76521e-07
-9.0954e-07
-5.95127e-07
-7.73392e-07
-4.39949e-07
-6.36374e-07
-3.10751e-07
-5.00883e-07
-2.06838e-07
-3.69968e-07
-1.2698e-07
-2.47447e-07
-6.93493e-08
-1.38042e-07
-3.14486e-08
-4.75149e-08
-1.00526e-08
1.72128e-08
-1.16133e-09
4.79521e-08
3.47827e-08
-3.42271e-08
1.27582e-07
-1.27863e-07
3.92467e-07
-2.73695e-07
6.54258e-07
-4.65696e-07
9.04609e-07
-6.98623e-07
1.13818e-06
-9.67806e-07
1.35165e-06
-1.269e-06
1.54331e-06
-1.59831e-06
1.71272e-06
-1.95214e-06
1.86034e-06
-2.32718e-06
1.98725e-06
-2.7204e-06
2.09492e-06
-3.12902e-06
2.18503e-06
-3.55055e-06
2.25938e-06
-3.98273e-06
2.31973e-06
-4.42356e-06
2.3678e-06
-4.87127e-06
2.40518e-06
-5.32428e-06
2.43335e-06
-5.78124e-06
2.45361e-06
-6.24094e-06
2.46711e-06
-6.70233e-06
2.47488e-06
-7.16453e-06
2.47777e-06
-7.62673e-06
2.47651e-06
-8.08824e-06
2.4717e-06
-8.54846e-06
2.46385e-06
-9.00684e-06
2.45334e-06
-9.4629e-06
2.44049e-06
-9.91618e-06
2.42552e-06
-1.03663e-05
2.40861e-06
-1.08128e-05
2.38985e-06
-1.12554e-05
2.36931e-06
-1.16936e-05
2.34703e-06
-1.21272e-05
2.32298e-06
-1.25557e-05
2.29712e-06
-1.29787e-05
2.26942e-06
-1.3396e-05
2.23978e-06
-1.38069e-05
2.20812e-06
-1.42113e-05
2.17435e-06
-1.46086e-05
2.13837e-06
-1.49983e-05
2.10005e-06
-1.53801e-05
2.0593e-06
-1.57534e-05
2.016e-06
-1.61177e-05
1.97004e-06
-1.64725e-05
1.92131e-06
-1.68174e-05
1.8697e-06
-1.71517e-05
1.81513e-06
-1.74748e-05
1.75748e-06
-1.77863e-05
1.69668e-06
-1.80855e-05
1.63264e-06
-1.83718e-05
1.5653e-06
-1.86446e-05
1.4946e-06
-1.89033e-05
1.42049e-06
-1.91473e-05
1.34293e-06
-1.9376e-05
1.26191e-06
-1.95888e-05
1.17742e-06
-1.97851e-05
1.08948e-06
-1.99642e-05
9.98105e-07
-2.01256e-05
9.03353e-07
-2.02687e-05
8.05289e-07
-2.03929e-05
7.04002e-07
-2.04978e-05
5.99602e-07
-2.05828e-05
4.92219e-07
-2.06474e-05
3.82009e-07
-2.06913e-05
2.69148e-07
-2.07139e-05
1.53834e-07
-2.0715e-05
3.62915e-08
-2.06942e-05
-8.32357e-08
-2.06513e-05
-2.04481e-07
-2.0586e-05
-3.27155e-07
-2.04982e-05
-4.5095e-07
-2.03877e-05
-5.7554e-07
-2.02546e-05
-7.00579e-07
-2.00989e-05
-8.25706e-07
-1.99206e-05
-9.50548e-07
-1.97199e-05
-1.07472e-06
-1.94971e-05
-1.19782e-06
-1.92523e-05
-1.31946e-06
-1.89861e-05
-1.43923e-06
-1.86988e-05
-1.55671e-06
-1.8391e-05
-1.67151e-06
-1.80632e-05
-1.78322e-06
-1.7716e-05
-1.89145e-06
-1.73502e-05
-1.99581e-06
-1.69666e-05
-2.09594e-06
-1.65659e-05
-2.19147e-06
-1.6149e-05
-2.28207e-06
-1.5717e-05
-2.36741e-06
-1.52707e-05
-2.4472e-06
-1.48113e-05
-2.52114e-06
-1.43398e-05
-2.58899e-06
-1.38573e-05
-2.65051e-06
-1.3365e-05
-2.70548e-06
-1.28641e-05
-2.75371e-06
-1.23558e-05
-2.79504e-06
-1.18412e-05
-2.82931e-06
-1.13218e-05
-2.85639e-06
-1.07988e-05
-2.87616e-06
-1.02734e-05
-2.88851e-06
-9.747e-06
-2.89336e-06
-9.22091e-06
-2.89062e-06
-8.69646e-06
-2.88019e-06
-8.17502e-06
-2.86201e-06
-7.65795e-06
-2.83599e-06
-7.14662e-06
-2.80204e-06
-6.64242e-06
-2.76007e-06
-6.14678e-06
-2.71e-06
-5.66109e-06
-2.65172e-06
-5.1868e-06
-2.58512e-06
-4.72535e-06
-2.51012e-06
-4.2782e-06
-2.42661e-06
-3.84681e-06
-2.33452e-06
-3.43263e-06
-2.2338e-06
-3.03711e-06
-2.12444e-06
-2.66169e-06
-2.00651e-06
-2.30774e-06
-1.88016e-06
-1.9766e-06
-1.74566e-06
-1.66951e-06
-1.60345e-06
-1.38757e-06
-1.45418e-06
-1.13176e-06
-1.29878e-06
-9.02821e-07
-1.13848e-06
-7.01259e-07
-9.74954e-07
-5.27259e-07
-8.10374e-07
-3.80633e-07
-6.47509e-07
-2.60759e-07
-4.89842e-07
-1.66518e-07
-3.41688e-07
-9.62398e-08