/*--------------------------------*- C++ -*----------------------------------*\
| =========                 |                                                 |
| \\      /  F ield         | OpenFOAM: The Open Source CFD Toolbox           |
|  \\    /   O peration     | Version:  2112                                  |
|   \\  /    A nd           | Website:  www.openfoam.com                      |
|    \\/     M anipulation  |                                                 |
\*---------------------------------------------------------------------------*/
FoamFile
{
    version     2.0;
    format      ascii;
    arch        "LSB;label=32;scalar=64";
    class       volVectorField;
    location    "5";
    object      U;
}
// * * * * * * * * * * * * * * * * * * * * * * * * * * * * * * * * * * * * * //

dimensions      [0 1 -1 0 0 0 0];

internalField   nonuniform List<vector> 
16641
(
(2.97478e-06 -3.00381e-06 0)
(8.0437e-06 -2.99899e-06 0)
(8.83396e-06 -7.6423e-07 0)
(2.33834e-06 1.92088e-06 0)
(-1.19257e-05 4.46372e-06 0)
(-3.33449e-05 6.66904e-06 0)
(-6.10113e-05 8.49278e-06 0)
(-9.398e-05 9.96479e-06 0)
(-0.000131349 1.11342e-05 0)
(-0.000172306 1.20501e-05 0)
(-0.000216147 1.2756e-05 0)
(-0.000262267 1.32897e-05 0)
(-0.000310157 1.36839e-05 0)
(-0.000359394 1.39657e-05 0)
(-0.000409627 1.41582e-05 0)
(-0.000460571 1.42803e-05 0)
(-0.000511995 1.43472e-05 0)
(-0.000563712 1.43714e-05 0)
(-0.000615573 1.43629e-05 0)
(-0.000667463 1.43297e-05 0)
(-0.000719289 1.42784e-05 0)
(-0.000770979 1.42136e-05 0)
(-0.000822478 1.4139e-05 0)
(-0.000873741 1.4057e-05 0)
(-0.000924733 1.39696e-05 0)
(-0.000975426 1.38778e-05 0)
(-0.0010258 1.37824e-05 0)
(-0.00107582 1.36836e-05 0)
(-0.00112548 1.3581e-05 0)
(-0.00117475 1.34744e-05 0)
(-0.00122361 1.3363e-05 0)
(-0.00127204 1.32462e-05 0)
(-0.00132001 1.31232e-05 0)
(-0.00136749 1.29928e-05 0)
(-0.00141446 1.28541e-05 0)
(-0.00146088 1.27061e-05 0)
(-0.00150671 1.25478e-05 0)
(-0.00155191 1.2378e-05 0)
(-0.00159644 1.21957e-05 0)
(-0.00164024 1.19998e-05 0)
(-0.00168328 1.17893e-05 0)
(-0.00172548 1.1563e-05 0)
(-0.00176681 1.132e-05 0)
(-0.00180718 1.10595e-05 0)
(-0.00184655 1.07803e-05 0)
(-0.00188485 1.04817e-05 0)
(-0.00192199 1.01625e-05 0)
(-0.00195792 9.82216e-06 0)
(-0.00199255 9.45977e-06 0)
(-0.00202581 9.07466e-06 0)
(-0.00205761 8.6662e-06 0)
(-0.00208789 8.23384e-06 0)
(-0.00211654 7.77711e-06 0)
(-0.0021435 7.29567e-06 0)
(-0.00216867 6.78925e-06 0)
(-0.00219197 6.25773e-06 0)
(-0.00221331 5.70113e-06 0)
(-0.00223262 5.11963e-06 0)
(-0.00224979 4.51352e-06 0)
(-0.00226477 3.88328e-06 0)
(-0.00227745 3.22957e-06 0)
(-0.00228777 2.5532e-06 0)
(-0.00229565 1.8552e-06 0)
(-0.00230103 1.13677e-06 0)
(-0.00230383 3.99361e-07 0)
(-0.002304 -3.55325e-07 0)
(-0.00230148 -1.12583e-06 0)
(-0.00229622 -1.90997e-06 0)
(-0.00228819 -2.7055e-06 0)
(-0.00227734 -3.51007e-06 0)
(-0.00226367 -4.32114e-06 0)
(-0.00224714 -5.13605e-06 0)
(-0.00222775 -5.95194e-06 0)
(-0.00220551 -6.76583e-06 0)
(-0.00218043 -7.5746e-06 0)
(-0.00215253 -8.37511e-06 0)
(-0.00212184 -9.16413e-06 0)
(-0.00208842 -9.93839e-06 0)
(-0.00205232 -1.06946e-05 0)
(-0.00201359 -1.14294e-05 0)
(-0.00197233 -1.21397e-05 0)
(-0.00192862 -1.28222e-05 0)
(-0.00188256 -1.3474e-05 0)
(-0.00183425 -1.4092e-05 0)
(-0.00178381 -1.46736e-05 0)
(-0.00173137 -1.5216e-05 0)
(-0.00167707 -1.57168e-05 0)
(-0.00162104 -1.61737e-05 0)
(-0.00156345 -1.6585e-05 0)
(-0.00150443 -1.69487e-05 0)
(-0.00144417 -1.72634e-05 0)
(-0.00138281 -1.75277e-05 0)
(-0.00132055 -1.77403e-05 0)
(-0.00125754 -1.79005e-05 0)
(-0.00119397 -1.80077e-05 0)
(-0.00113003 -1.80617e-05 0)
(-0.00106588 -1.8062e-05 0)
(-0.00100173 -1.80083e-05 0)
(-0.000937744 -1.79004e-05 0)
(-0.000874118 -1.77386e-05 0)
(-0.000811038 -1.75229e-05 0)
(-0.000748691 -1.72535e-05 0)
(-0.000687265 -1.69305e-05 0)
(-0.000626949 -1.65537e-05 0)
(-0.000567935 -1.6123e-05 0)
(-0.000510412 -1.56382e-05 0)
(-0.000454574 -1.50991e-05 0)
(-0.000400618 -1.45051e-05 0)
(-0.00034874 -1.38556e-05 0)
(-0.000299141 -1.31497e-05 0)
(-0.000252026 -1.23865e-05 0)
(-0.000207601 -1.15646e-05 0)
(-0.000166077 -1.06832e-05 0)
(-0.000127666 -9.74093e-06 0)
(-9.25825e-05 -8.73702e-06 0)
(-6.10397e-05 -7.67062e-06 0)
(-3.32474e-05 -6.54057e-06 0)
(-9.38547e-06 -5.34732e-06 0)
(1.03207e-05 -4.11289e-06 0)
(2.57096e-05 -2.80952e-06 0)
(3.66961e-05 -1.46605e-06 0)
(4.31968e-05 -9.98894e-08 0)
(4.52539e-05 1.25843e-06 0)
(4.30429e-05 2.535e-06 0)
(3.69742e-05 3.64302e-06 0)
(2.78297e-05 4.4e-06 0)
(1.69135e-05 4.48962e-06 0)
(6.54631e-06 3.41433e-06 0)
(9.38392e-07 9.45429e-07 0)
(2.97834e-06 -8.05325e-06 0)
(4.2932e-06 -4.30105e-06 0)
(-6.86355e-06 7.50781e-06 0)
(-3.46856e-05 2.15985e-05 0)
(-8.02244e-05 3.55236e-05 0)
(-0.000142787 4.82101e-05 0)
(-0.000220806 5.92513e-05 0)
(-0.000312378 6.85947e-05 0)
(-0.000415542 7.63439e-05 0)
(-0.000528424 8.26635e-05 0)
(-0.000649315 8.77354e-05 0)
(-0.000776699 9.17387e-05 0)
(-0.00090926 9.48396e-05 0)
(-0.00104587 9.71873e-05 0)
(-0.00118558 9.89133e-05 0)
(-0.00132758 0.00010013 0)
(-0.00147123 0.000100935 0)
(-0.00161598 0.000101408 0)
(-0.00176138 0.000101615 0)
(-0.00190708 0.000101613 0)
(-0.00205279 0.000101446 0)
(-0.00219828 0.000101148 0)
(-0.00234336 0.000100747 0)
(-0.00248788 0.000100265 0)
(-0.00263171 9.97167e-05 0)
(-0.00277476 9.91129e-05 0)
(-0.00291693 9.84608e-05 0)
(-0.00305814 9.77643e-05 0)
(-0.00319832 9.70248e-05 0)
(-0.00333739 9.62417e-05 0)
(-0.00347528 9.54127e-05 0)
(-0.00361192 9.45345e-05 0)
(-0.00374722 9.36026e-05 0)
(-0.0038811 9.26117e-05 0)
(-0.00401346 9.15562e-05 0)
(-0.0041442 9.043e-05 0)
(-0.00427322 8.92268e-05 0)
(-0.00440039 8.79401e-05 0)
(-0.0045256 8.65632e-05 0)
(-0.0046487 8.50896e-05 0)
(-0.00476955 8.35126e-05 0)
(-0.004888 8.1826e-05 0)
(-0.00500389 8.00233e-05 0)
(-0.00511705 7.80986e-05 0)
(-0.0052273 7.60458e-05 0)
(-0.00533446 7.38591e-05 0)
(-0.00543833 7.15333e-05 0)
(-0.00553872 6.90632e-05 0)
(-0.00563542 6.64443e-05 0)
(-0.00572823 6.36723e-05 0)
(-0.00581691 6.07436e-05 0)
(-0.00590126 5.7655e-05 0)
(-0.00598104 5.44041e-05 0)
(-0.00605604 5.09891e-05 0)
(-0.00612602 4.74088e-05 0)
(-0.00619075 4.36631e-05 0)
(-0.00625002 3.97525e-05 0)
(-0.00630358 3.56788e-05 0)
(-0.00635122 3.14444e-05 0)
(-0.00639272 2.7053e-05 0)
(-0.00642788 2.25095e-05 0)
(-0.00645647 1.78196e-05 0)
(-0.00647832 1.29904e-05 0)
(-0.00649323 8.03034e-06 0)
(-0.00650103 2.94889e-06 0)
(-0.00650158 -2.24313e-06 0)
(-0.00649472 -7.53388e-06 0)
(-0.00648033 -1.291e-05 0)
(-0.00645831 -1.83573e-05 0)
(-0.00642858 -2.38601e-05 0)
(-0.00639107 -2.94019e-05 0)
(-0.00634574 -3.49654e-05 0)
(-0.00629258 -4.0532e-05 0)
(-0.0062316 -4.60826e-05 0)
(-0.00616285 -5.15975e-05 0)
(-0.00608637 -5.70563e-05 0)
(-0.00600227 -6.24383e-05 0)
(-0.00591068 -6.77227e-05 0)
(-0.00581173 -7.28885e-05 0)
(-0.00570561 -7.79148e-05 0)
(-0.00559252 -8.27811e-05 0)
(-0.0054727 -8.74672e-05 0)
(-0.00534641 -9.19537e-05 0)
(-0.00521393 -9.62217e-05 0)
(-0.00507558 -0.000100253 0)
(-0.00493169 -0.000104032 0)
(-0.00478261 -0.000107542 0)
(-0.00462874 -0.000110768 0)
(-0.00447046 -0.000113697 0)
(-0.00430818 -0.000116317 0)
(-0.00414235 -0.000118619 0)
(-0.0039734 -0.000120593 0)
(-0.00380179 -0.00012223 0)
(-0.00362798 -0.000123524 0)
(-0.00345246 -0.000124469 0)
(-0.0032757 -0.000125062 0)
(-0.00309819 -0.000125299 0)
(-0.00292044 -0.000125177 0)
(-0.00274294 -0.000124694 0)
(-0.00256619 -0.000123847 0)
(-0.0023907 -0.000122636 0)
(-0.00221699 -0.000121058 0)
(-0.00204556 -0.000119113 0)
(-0.00187694 -0.000116797 0)
(-0.00171166 -0.000114109 0)
(-0.00155023 -0.000111044 0)
(-0.00139321 -0.0001076 0)
(-0.00124112 -0.00010377 0)
(-0.00109452 -9.95505e-05 0)
(-0.000953968 -9.49348e-05 0)
(-0.000820033 -8.99171e-05 0)
(-0.000693288 -8.44915e-05 0)
(-0.000574313 -7.86533e-05 0)
(-0.000463692 -7.23995e-05 0)
(-0.000362005 -6.57304e-05 0)
(-0.000269825 -5.86517e-05 0)
(-0.000187702 -5.11754e-05 0)
(-0.000116148 -4.33264e-05 0)
(-5.56349e-05 -3.51697e-05 0)
(-6.53132e-06 -2.67299e-05 0)
(3.09329e-05 -1.81329e-05 0)
(5.67036e-05 -9.53373e-06 0)
(7.10004e-05 -1.16978e-06 0)
(7.44464e-05 6.58548e-06 0)
(6.82194e-05 1.31949e-05 0)
(5.42179e-05 1.78354e-05 0)
(3.52681e-05 1.92948e-05 0)
(1.58625e-05 1.59298e-05 0)
(3.37534e-06 6.53128e-06 0)
(7.94387e-07 -8.88969e-06 0)
(-7.55114e-06 6.8772e-06 0)
(-3.75592e-05 3.73113e-05 0)
(-9.17577e-05 7.26484e-05 0)
(-0.0001709 0.000108013 0)
(-0.000274213 0.000140895 0)
(-0.000399805 0.00017015 0)
(-0.000545254 0.000195427 0)
(-0.000707974 0.000216795 0)
(-0.000885416 0.000234537 0)
(-0.00107519 0.000249025 0)
(-0.00127512 0.000260662 0)
(-0.00148328 0.000269846 0)
(-0.001698 0.000276945 0)
(-0.00191782 0.000282295 0)
(-0.00214153 0.000286189 0)
(-0.00236808 0.000288885 0)
(-0.00259662 0.000290601 0)
(-0.00282644 0.000291521 0)
(-0.00305695 0.0002918 0)
(-0.00328766 0.000291562 0)
(-0.00351818 0.00029091 0)
(-0.00374819 0.000289923 0)
(-0.00397743 0.000288664 0)
(-0.00420566 0.000287181 0)
(-0.0044327 0.000285507 0)
(-0.00465839 0.000283667 0)
(-0.00488257 0.000281673 0)
(-0.00510512 0.000279534 0)
(-0.0053259 0.00027725 0)
(-0.00554477 0.000274817 0)
(-0.00576161 0.000272229 0)
(-0.00597628 0.000269474 0)
(-0.00618862 0.000266539 0)
(-0.00639849 0.000263411 0)
(-0.00660572 0.000260073 0)
(-0.00681013 0.000256509 0)
(-0.00701153 0.000252701 0)
(-0.00720972 0.000248632 0)
(-0.00740448 0.000244285 0)
(-0.00759559 0.000239641 0)
(-0.0077828 0.000234684 0)
(-0.00796586 0.000229396 0)
(-0.00814451 0.000223761 0)
(-0.00831847 0.000217763 0)
(-0.00848745 0.000211387 0)
(-0.00865114 0.000204618 0)
(-0.00880925 0.000197443 0)
(-0.00896145 0.00018985 0)
(-0.00910742 0.000181828 0)
(-0.00924682 0.000173367 0)
(-0.00937931 0.00016446 0)
(-0.00950455 0.0001551 0)
(-0.00962218 0.000145283 0)
(-0.00973187 0.000135007 0)
(-0.00983326 0.000124272 0)
(-0.009926 0.000113081 0)
(-0.0100098 0.00010144 0)
(-0.0100842 8.93545e-05 0)
(-0.0101489 7.68374e-05 0)
(-0.0102037 6.3902e-05 0)
(-0.0102482 5.05655e-05 0)
(-0.0102821 3.6848e-05 0)
(-0.0103052 2.27732e-05 0)
(-0.0103171 8.36785e-06 0)
(-0.0103177 -6.33779e-06 0)
(-0.0103068 -2.13099e-05 0)
(-0.0102841 -3.6512e-05 0)
(-0.0102495 -5.19042e-05 0)
(-0.0102029 -6.74438e-05 0)
(-0.0101442 -8.3085e-05 0)
(-0.0100734 -9.87798e-05 0)
(-0.00999039 -0.000114478 0)
(-0.00989523 -0.000130126 0)
(-0.009788 -0.00014567 0)
(-0.00966879 -0.000161056 0)
(-0.00953775 -0.000176225 0)
(-0.00939507 -0.000191122 0)
(-0.00924098 -0.000205689 0)
(-0.00907576 -0.00021987 0)
(-0.00889972 -0.000233607 0)
(-0.00871322 -0.000246848 0)
(-0.00851665 -0.000259538 0)
(-0.00831046 -0.000271626 0)
(-0.00809512 -0.000283064 0)
(-0.00787113 -0.000293804 0)
(-0.00763904 -0.000303805 0)
(-0.00739943 -0.000313026 0)
(-0.00715288 -0.00032143 0)
(-0.00690005 -0.000328985 0)
(-0.00664157 -0.00033566 0)
(-0.00637812 -0.00034143 0)
(-0.00611039 -0.000346273 0)
(-0.0058391 -0.000350167 0)
(-0.00556496 -0.000353098 0)
(-0.00528873 -0.00035505 0)
(-0.00501113 -0.000356012 0)
(-0.00473293 -0.000355976 0)
(-0.00445491 -0.000354931 0)
(-0.00417782 -0.000352872 0)
(-0.00390245 -0.00034979 0)
(-0.00362959 -0.000345678 0)
(-0.00336004 -0.00034053 0)
(-0.0030946 -0.000334336 0)
(-0.00283408 -0.000327087 0)
(-0.0025793 -0.000318771 0)
(-0.0023311 -0.000309374 0)
(-0.00209033 -0.000298883 0)
(-0.00185784 -0.000287281 0)
(-0.0016345 -0.000274552 0)
(-0.0014212 -0.00026068 0)
(-0.00121882 -0.000245652 0)
(-0.00102827 -0.000229458 0)
(-0.000850444 -0.000212097 0)
(-0.000686231 -0.000193579 0)
(-0.000536497 -0.000173932 0)
(-0.000402069 -0.000153211 0)
(-0.000283704 -0.000131506 0)
(-0.000182062 -0.000108964 0)
(-9.76498e-05 -8.57912e-05 0)
(-3.07573e-05 -6.23086e-05 0)
(1.86186e-05 -3.89755e-05 0)
(5.08884e-05 -1.64526e-05 0)
(6.70182e-05 4.3258e-06 0)
(6.87064e-05 2.20272e-05 0)
(5.85467e-05 3.48218e-05 0)
(4.0175e-05 4.02583e-05 0)
(1.91296e-05 3.52794e-05 0)
(4.39895e-06 1.67913e-05 0)
(-1.92336e-06 -2.34744e-06 0)
(-2.20205e-05 3.50216e-05 0)
(-7.4007e-05 9.1726e-05 0)
(-0.000157152 0.000155154 0)
(-0.000271143 0.000218421 0)
(-0.000414855 0.000277652 0)
(-0.000586058 0.000330905 0)
(-0.000781953 0.000377442 0)
(-0.000999544 0.000417237 0)
(-0.00123584 0.00045065 0)
(-0.00148799 0.000478244 0)
(-0.00175336 0.000500664 0)
(-0.00202958 0.000518569 0)
(-0.00231456 0.000532593 0)
(-0.00260646 0.00054332 0)
(-0.00290371 0.000551276 0)
(-0.00320497 0.000556924 0)
(-0.0035091 0.000560663 0)
(-0.00381515 0.000562835 0)
(-0.00412233 0.000563727 0)
(-0.00442998 0.000563576 0)
(-0.00473754 0.000562576 0)
(-0.00504456 0.000560883 0)
(-0.00535065 0.000558617 0)
(-0.0056555 0.000555874 0)
(-0.00595883 0.000552721 0)
(-0.00626038 0.000549207 0)
(-0.00655995 0.000545365 0)
(-0.00685733 0.000541209 0)
(-0.00715232 0.000536748 0)
(-0.00744474 0.000531975 0)
(-0.00773439 0.000526881 0)
(-0.00802107 0.000521447 0)
(-0.00830457 0.000515651 0)
(-0.00858468 0.000509469 0)
(-0.00886118 0.000502872 0)
(-0.0091338 0.000495829 0)
(-0.00940231 0.00048831 0)
(-0.00966642 0.000480283 0)
(-0.00992584 0.000471715 0)
(-0.0101803 0.000462574 0)
(-0.0104294 0.000452829 0)
(-0.0106729 0.000442448 0)
(-0.0109103 0.000431401 0)
(-0.0111415 0.000419659 0)
(-0.0113658 0.000407194 0)
(-0.011583 0.00039398 0)
(-0.0117927 0.000379992 0)
(-0.0119944 0.000365208 0)
(-0.0121877 0.00034961 0)
(-0.0123722 0.00033318 0)
(-0.0125474 0.000315904 0)
(-0.0127129 0.000297772 0)
(-0.0128682 0.000278778 0)
(-0.0130129 0.000258917 0)
(-0.0131465 0.000238193 0)
(-0.0132687 0.000216611 0)
(-0.0133788 0.000194183 0)
(-0.0134765 0.000170924 0)
(-0.0135615 0.000146856 0)
(-0.0136332 0.000122007 0)
(-0.0136912 9.64101e-05 0)
(-0.0137353 7.01039e-05 0)
(-0.013765 4.3134e-05 0)
(-0.0137801 1.55519e-05 0)
(-0.0137802 -1.25849e-05 0)
(-0.0137651 -4.12126e-05 0)
(-0.0137345 -7.02619e-05 0)
(-0.0136883 -9.96575e-05 0)
(-0.0136264 -0.000129319 0)
(-0.0135485 -0.00015916 0)
(-0.0134547 -0.000189091 0)
(-0.0133449 -0.000219017 0)
(-0.0132192 -0.000248839 0)
(-0.0130777 -0.000278458 0)
(-0.0129204 -0.000307768 0)
(-0.0127477 -0.000336665 0)
(-0.0125598 -0.000365044 0)
(-0.0123569 -0.000392797 0)
(-0.0121395 -0.000419819 0)
(-0.0119079 -0.000446006 0)
(-0.0116626 -0.000471256 0)
(-0.0114041 -0.000495472 0)
(-0.011133 -0.000518557 0)
(-0.0108498 -0.00054042 0)
(-0.0105554 -0.000560976 0)
(-0.0102503 -0.000580145 0)
(-0.00993524 -0.000597852 0)
(-0.00961107 -0.000614028 0)
(-0.00927858 -0.000628611 0)
(-0.0089386 -0.000641545 0)
(-0.008592 -0.000652781 0)
(-0.00823966 -0.000662275 0)
(-0.00788252 -0.000669989 0)
(-0.00752149 -0.00067589 0)
(-0.00715752 -0.00067995 0)
(-0.00679159 -0.000682146 0)
(-0.00642467 -0.000682457 0)
(-0.00605775 -0.000680863 0)
(-0.00569184 -0.00067735 0)
(-0.00532793 -0.000671899 0)
(-0.00496707 -0.000664496 0)
(-0.00461028 -0.000655121 0)
(-0.00425862 -0.000643756 0)
(-0.00391313 -0.00063038 0)
(-0.0035749 -0.000614968 0)
(-0.00324501 -0.000597493 0)
(-0.00292457 -0.000577926 0)
(-0.0026147 -0.000556237 0)
(-0.00231654 -0.000532395 0)
(-0.00203124 -0.000506374 0)
(-0.00175995 -0.000478151 0)
(-0.00150384 -0.000447716 0)
(-0.00126408 -0.000415074 0)
(-0.00104179 -0.000380258 0)
(-0.000838089 -0.000343336 0)
(-0.000654013 -0.00030443 0)
(-0.000490505 -0.000263735 0)
(-0.000348366 -0.000221545 0)
(-0.000228192 -0.00017829 0)
(-0.000130303 -0.000134584 0)
(-5.46435e-05 -9.12918e-05 0)
(-6.63517e-07 -4.96101e-05 0)
(3.28239e-05 -1.11776e-05 0)
(4.78214e-05 2.17868e-05 0)
(4.72928e-05 4.63433e-05 0)
(3.52804e-05 5.87128e-05 0)
(1.77703e-05 5.42613e-05 0)
(4.27974e-06 2.75554e-05 0)
(-4.58679e-06 1.22388e-05 0)
(-3.67797e-05 8.17055e-05 0)
(-0.000111644 0.000172259 0)
(-0.000224506 0.000269803 0)
(-0.000373481 0.000366133 0)
(-0.000556816 0.000456366 0)
(-0.000771812 0.0005379 0)
(-0.00101529 0.000609655 0)
(-0.00128393 0.000671496 0)
(-0.00157442 0.00072385 0)
(-0.00188358 0.000767454 0)
(-0.00220846 0.000803196 0)
(-0.00254636 0.000832006 0)
(-0.00289487 0.0008548 0)
(-0.00325189 0.000872437 0)
(-0.00361555 0.000885697 0)
(-0.00398428 0.000895279 0)
(-0.0043567 0.000901792 0)
(-0.00473166 0.000905761 0)
(-0.00510818 0.00090763 0)
(-0.00548545 0.000907771 0)
(-0.00586277 0.00090649 0)
(-0.00623957 0.000904034 0)
(-0.00661534 0.0009006 0)
(-0.00698967 0.000896341 0)
(-0.00736219 0.000891369 0)
(-0.00773257 0.000885766 0)
(-0.00810053 0.000879588 0)
(-0.0084658 0.000872865 0)
(-0.00882811 0.000865611 0)
(-0.00918721 0.000857825 0)
(-0.00954285 0.00084949 0)
(-0.00989478 0.000840584 0)
(-0.0102427 0.000831075 0)
(-0.0105864 0.000820924 0)
(-0.0109255 0.00081009 0)
(-0.0112598 0.000798527 0)
(-0.0115889 0.000786189 0)
(-0.0119124 0.000773025 0)
(-0.0122301 0.000758987 0)
(-0.0125416 0.000744026 0)
(-0.0128463 0.000728092 0)
(-0.013144 0.000711138 0)
(-0.0134343 0.000693117 0)
(-0.0137165 0.000673984 0)
(-0.0139904 0.000653697 0)
(-0.0142554 0.000632216 0)
(-0.0145111 0.000609503 0)
(-0.0147568 0.000585527 0)
(-0.0149922 0.000560257 0)
(-0.0152166 0.000533669 0)
(-0.0154296 0.000505743 0)
(-0.0156306 0.000476463 0)
(-0.0158191 0.000445822 0)
(-0.0159946 0.000413816 0)
(-0.0161564 0.00038045 0)
(-0.0163041 0.000345735 0)
(-0.0164372 0.000309691 0)
(-0.0165551 0.000272345 0)
(-0.0166573 0.000233734 0)
(-0.0167433 0.000193902 0)
(-0.0168128 0.000152903 0)
(-0.0168651 0.0001108 0)
(-0.0169001 6.76656e-05 0)
(-0.0169172 2.3583e-05 0)
(-0.0169161 -2.13565e-05 0)
(-0.0168966 -6.70519e-05 0)
(-0.0168583 -0.000113393 0)
(-0.016801 -0.000160261 0)
(-0.0167247 -0.000207529 0)
(-0.0166291 -0.000255062 0)
(-0.0165143 -0.000302717 0)
(-0.0163802 -0.000350347 0)
(-0.0162268 -0.000397797 0)
(-0.0160544 -0.000444909 0)
(-0.015863 -0.000491522 0)
(-0.015653 -0.000537472 0)
(-0.0154246 -0.000582592 0)
(-0.0151782 -0.000626718 0)
(-0.0149142 -0.000669686 0)
(-0.0146332 -0.000711332 0)
(-0.0143356 -0.000751501 0)
(-0.0140222 -0.000790036 0)
(-0.0136936 -0.000826792 0)
(-0.0133505 -0.000861626 0)
(-0.0129936 -0.000894404 0)
(-0.012624 -0.000925003 0)
(-0.0122423 -0.000953305 0)
(-0.0118496 -0.000979203 0)
(-0.0114468 -0.0010026 0)
(-0.0110349 -0.00102341 0)
(-0.010615 -0.00104155 0)
(-0.010188 -0.00105695 0)
(-0.00975513 -0.00106956 0)
(-0.00931743 -0.00107931 0)
(-0.00887605 -0.00108617 0)
(-0.00843215 -0.00109009 0)
(-0.00798687 -0.00109104 0)
(-0.00754141 -0.00108899 0)
(-0.00709696 -0.0010839 0)
(-0.00665472 -0.00107575 0)
(-0.00621593 -0.00106452 0)
(-0.00578181 -0.00105015 0)
(-0.00535362 -0.00103263 0)
(-0.00493263 -0.00101192 0)
(-0.00452012 -0.000987978 0)
(-0.0041174 -0.000960755 0)
(-0.00372579 -0.000930208 0)
(-0.00334664 -0.000896289 0)
(-0.00298129 -0.000858952 0)
(-0.00263113 -0.000818158 0)
(-0.00229753 -0.000773879 0)
(-0.00198188 -0.000726107 0)
(-0.00168555 -0.000674863 0)
(-0.00140987 -0.000620215 0)
(-0.00115614 -0.000562289 0)
(-0.000925564 -0.000501302 0)
(-0.000719217 -0.000437584 0)
(-0.000538006 -0.000371624 0)
(-0.000382594 -0.000304116 0)
(-0.000253317 -0.000236032 0)
(-0.000150089 -0.0001687 0)
(-7.22829e-05 -0.000103915 0)
(-1.85927e-05 -4.40651e-05 0)
(1.31221e-05 7.71464e-06 0)
(2.59704e-05 4.7375e-05 0)
(2.4141e-05 6.98193e-05 0)
(1.3632e-05 6.88185e-05 0)
(3.55598e-06 3.66551e-05 0)
(-7.0094e-06 3.45436e-05 0)
(-5.08168e-05 0.000146863 0)
(-0.000148115 0.000279035 0)
(-0.000290198 0.000416607 0)
(-0.000473377 0.000550754 0)
(-0.00069505 0.000676021 0)
(-0.000951914 0.000789395 0)
(-0.00124035 0.000889573 0)
(-0.00155671 0.000976369 0)
(-0.00189741 0.00105029 0)
(-0.00225902 0.00111227 0)
(-0.00263835 0.00116342 0)
(-0.00303245 0.00120496 0)
(-0.00343872 0.00123809 0)
(-0.00385479 0.00126396 0)
(-0.00427861 0.00128362 0)
(-0.00470841 0.00129802 0)
(-0.00514262 0.00130799 0)
(-0.00557993 0.00131427 0)
(-0.00601922 0.00131747 0)
(-0.00645951 0.00131811 0)
(-0.0069 0.00131664 0)
(-0.00733999 0.00131339 0)
(-0.00777888 0.00130866 0)
(-0.00821616 0.00130266 0)
(-0.00865139 0.00129557 0)
(-0.00908415 0.0012875 0)
(-0.00951409 0.00127854 0)
(-0.00994087 0.00126873 0)
(-0.0103642 0.00125811 0)
(-0.0107837 0.00124667 0)
(-0.0111991 0.00123439 0)
(-0.01161 0.00122126 0)
(-0.0120162 0.00120722 0)
(-0.0124174 0.00119222 0)
(-0.0128131 0.00117622 0)
(-0.0132029 0.00115913 0)
(-0.0135867 0.00114091 0)
(-0.0139638 0.00112149 0)
(-0.0143339 0.00110078 0)
(-0.0146966 0.00107874 0)
(-0.0150513 0.00105528 0)
(-0.0153977 0.00103034 0)
(-0.0157351 0.00100387 0)
(-0.0160632 0.000975783 0)
(-0.0163813 0.000946037 0)
(-0.0166889 0.000914572 0)
(-0.0169854 0.000881339 0)
(-0.0172703 0.000846292 0)
(-0.0175429 0.00080939 0)
(-0.0178027 0.000770602 0)
(-0.0180491 0.0007299 0)
(-0.0182814 0.000687266 0)
(-0.018499 0.00064269 0)
(-0.0187013 0.000596171 0)
(-0.0188877 0.000547717 0)
(-0.0190576 0.000497348 0)
(-0.0192104 0.000445093 0)
(-0.0193455 0.000390994 0)
(-0.0194624 0.000335105 0)
(-0.0195605 0.000277492 0)
(-0.0196392 0.000218234 0)
(-0.0196982 0.000157423 0)
(-0.0197369 9.51651e-05 0)
(-0.019755 3.15792e-05 0)
(-0.019752 -3.32029e-05 0)
(-0.0197276 -9.9036e-05 0)
(-0.0196816 -0.000165762 0)
(-0.0196137 -0.000233212 0)
(-0.0195238 -0.000301203 0)
(-0.0194117 -0.000369544 0)
(-0.0192774 -0.000438032 0)
(-0.0191208 -0.000506458 0)
(-0.0189422 -0.000574602 0)
(-0.0187416 -0.000642242 0)
(-0.0185192 -0.000709147 0)
(-0.0182753 -0.000775087 0)
(-0.0180104 -0.000839828 0)
(-0.0177248 -0.000903136 0)
(-0.017419 -0.000964781 0)
(-0.0170937 -0.00102453 0)
(-0.0167494 -0.00108217 0)
(-0.0163869 -0.00113748 0)
(-0.0160069 -0.00119025 0)
(-0.0156104 -0.00124029 0)
(-0.0151981 -0.00128739 0)
(-0.014771 -0.0013314 0)
(-0.0143302 -0.00137214 0)
(-0.0138767 -0.00140947 0)
(-0.0134116 -0.00144324 0)
(-0.012936 -0.00147334 0)
(-0.012451 -0.00149965 0)
(-0.011958 -0.00152206 0)
(-0.0114581 -0.0015405 0)
(-0.0109527 -0.00155489 0)
(-0.0104429 -0.00156517 0)
(-0.00993003 -0.00157126 0)
(-0.00941551 -0.00157312 0)
(-0.00890064 -0.00157071 0)
(-0.00838678 -0.00156397 0)
(-0.00787529 -0.00155286 0)
(-0.00736758 -0.00153734 0)
(-0.00686505 -0.00151736 0)
(-0.00636911 -0.00149287 0)
(-0.00588123 -0.00146381 0)
(-0.00540285 -0.00143013 0)
(-0.00493547 -0.00139176 0)
(-0.00448057 -0.00134863 0)
(-0.0040397 -0.00130068 0)
(-0.00361438 -0.00124784 0)
(-0.00320618 -0.00119008 0)
(-0.00281664 -0.00112735 0)
(-0.00244732 -0.00105965 0)
(-0.00209976 -0.00098704 0)
(-0.00177546 -0.000909624 0)
(-0.00147584 -0.000827609 0)
(-0.00120223 -0.000741324 0)
(-0.000955827 -0.000651264 0)
(-0.0007376 -0.000558142 0)
(-0.000548263 -0.000462956 0)
(-0.000388174 -0.000367068 0)
(-0.000257242 -0.000272307 0)
(-0.000154813 -0.000181087 0)
(-7.95529e-05 -9.65571e-05 0)
(-2.93042e-05 -2.27575e-05 0)
(-9.69564e-07 3.51937e-05 0)
(9.59513e-06 7.09459e-05 0)
(8.08403e-06 7.67852e-05 0)
(2.57319e-06 4.30422e-05 0)
(-9.14474e-06 6.39394e-05 0)
(-6.37289e-05 0.00022959 0)
(-0.000182292 0.000411114 0)
(-0.000352314 0.000594523 0)
(-0.000568257 0.000770988 0)
(-0.00082655 0.000934922 0)
(-0.00112317 0.00108319 0)
(-0.00145401 0.00121444 0)
(-0.00181503 0.00132854 0)
(-0.0022024 0.00142613 0)
(-0.00261247 0.00150835 0)
(-0.00304183 0.00157659 0)
(-0.00348738 0.00163233 0)
(-0.00394632 0.00167708 0)
(-0.00441613 0.00171228 0)
(-0.00489461 0.00173926 0)
(-0.00537981 0.00175922 0)
(-0.00587004 0.00177326 0)
(-0.00636384 0.00178229 0)
(-0.00685997 0.00178714 0)
(-0.00735734 0.00178849 0)
(-0.00785503 0.0017869 0)
(-0.00835224 0.00178285 0)
(-0.0088483 0.00177671 0)
(-0.00934259 0.00176878 0)
(-0.0098346 0.00175929 0)
(-0.0103239 0.00174841 0)
(-0.0108099 0.00173624 0)
(-0.0112924 0.00172288 0)
(-0.0117709 0.00170834 0)
(-0.012245 0.00169265 0)
(-0.0127145 0.00167578 0)
(-0.0131788 0.0016577 0)
(-0.0136377 0.00163836 0)
(-0.0140907 0.00161769 0)
(-0.0145374 0.00159562 0)
(-0.0149775 0.00157207 0)
(-0.0154104 0.00154696 0)
(-0.0158357 0.00152021 0)
(-0.016253 0.00149171 0)
(-0.0166617 0.00146139 0)
(-0.0170613 0.00142915 0)
(-0.0174512 0.00139491 0)
(-0.017831 0.00135858 0)
(-0.0181999 0.00132009 0)
(-0.0185575 0.00127935 0)
(-0.018903 0.0012363 0)
(-0.0192359 0.00119088 0)
(-0.0195555 0.00114301 0)
(-0.0198612 0.00109266 0)
(-0.0201522 0.00103978 0)
(-0.020428 0.000984347 0)
(-0.0206877 0.000926327 0)
(-0.0209308 0.000865714 0)
(-0.0211566 0.000802511 0)
(-0.0213643 0.000736732 0)
(-0.0215534 0.000668405 0)
(-0.0217231 0.000597574 0)
(-0.0218729 0.000524298 0)
(-0.022002 0.000448651 0)
(-0.02211 0.000370724 0)
(-0.0221963 0.000290627 0)
(-0.0222603 0.000208485 0)
(-0.0223015 0.00012444 0)
(-0.0223195 3.86551e-05 0)
(-0.0223139 -4.86931e-05 0)
(-0.0222843 -0.000137409 0)
(-0.0222305 -0.000227281 0)
(-0.0221522 -0.000318081 0)
(-0.0220492 -0.000409566 0)
(-0.0219214 -0.00050148 0)
(-0.0217688 -0.000593554 0)
(-0.0215915 -0.000685508 0)
(-0.0213894 -0.000777052 0)
(-0.0211628 -0.000867888 0)
(-0.020912 -0.000957714 0)
(-0.0206373 -0.00104622 0)
(-0.0203391 -0.0011331 0)
(-0.0200178 -0.00121805 0)
(-0.0196742 -0.00130075 0)
(-0.0193088 -0.00138092 0)
(-0.0189223 -0.00145825 0)
(-0.0185156 -0.00153245 0)
(-0.0180895 -0.00160327 0)
(-0.017645 -0.00167043 0)
(-0.0171829 -0.00173368 0)
(-0.0167045 -0.0017928 0)
(-0.0162109 -0.00184757 0)
(-0.0157031 -0.00189779 0)
(-0.0151824 -0.00194327 0)
(-0.01465 -0.00198386 0)
(-0.0141073 -0.00201941 0)
(-0.0135556 -0.00204977 0)
(-0.0129962 -0.00207485 0)
(-0.0124306 -0.00209453 0)
(-0.0118601 -0.00210873 0)
(-0.0112863 -0.00211736 0)
(-0.0107104 -0.00212035 0)
(-0.0101342 -0.00211765 0)
(-0.0095589 -0.00210917 0)
(-0.00898619 -0.00209488 0)
(-0.00841756 -0.00207469 0)
(-0.00785456 -0.00204855 0)
(-0.00729875 -0.00201638 0)
(-0.00675173 -0.00197811 0)
(-0.00621509 -0.00193367 0)
(-0.00569048 -0.00188296 0)
(-0.00517954 -0.0018259 0)
(-0.00468394 -0.00176241 0)
(-0.00420536 -0.00169241 0)
(-0.0037455 -0.00161584 0)
(-0.00330606 -0.00153268 0)
(-0.00288872 -0.00144293 0)
(-0.00249514 -0.00134668 0)
(-0.00212695 -0.00124409 0)
(-0.00178566 -0.00113547 0)
(-0.00147272 -0.00102128 0)
(-0.00118937 -0.000902184 0)
(-0.000936652 -0.000779157 0)
(-0.000715324 -0.000653514 0)
(-0.000525769 -0.000527029 0)
(-0.000367914 -0.000402039 0)
(-0.000241126 -0.000281585 0)
(-0.000144106 -0.000169553 0)
(-7.47712e-05 -7.08518e-05 0)
(-3.01488e-05 8.40147e-06 0)
(-6.27146e-06 6.07154e-05 0)
(2.05149e-06 7.70747e-05 0)
(1.53048e-06 4.62723e-05 0)
(-1.1012e-05 9.97492e-05 0)
(-7.54259e-05 0.000328629 0)
(-0.000213746 0.000567003 0)
(-0.000409988 0.000801909 0)
(-0.000656838 0.00102501 0)
(-0.000949715 0.00123098 0)
(-0.00128382 0.00141686 0)
(-0.00165448 0.00158145 0)
(-0.00205726 0.00172479 0)
(-0.00248805 0.00184775 0)
(-0.00294297 0.00195172 0)
(-0.00341844 0.00203836 0)
(-0.00391122 0.00210947 0)
(-0.00441836 0.00216686 0)
(-0.00493721 0.00221226 0)
(-0.00546545 0.0022473 0)
(-0.00600102 0.00227345 0)
(-0.00654211 0.00229204 0)
(-0.00708716 0.00230421 0)
(-0.00763482 0.00231097 0)
(-0.00818391 0.00231318 0)
(-0.00873341 0.00231155 0)
(-0.00928246 0.00230667 0)
(-0.00983027 0.00229902 0)
(-0.0103762 0.00228898 0)
(-0.0109196 0.00227684 0)
(-0.01146 0.00226282 0)
(-0.0119968 0.00224707 0)
(-0.0125297 0.0022297 0)
(-0.0130581 0.00221075 0)
(-0.0135817 0.00219025 0)
(-0.0141 0.00216817 0)
(-0.0146125 0.00214447 0)
(-0.015119 0.0021191 0)
(-0.0156188 0.00209198 0)
(-0.0161116 0.00206302 0)
(-0.0165969 0.00203212 0)
(-0.0170741 0.00199918 0)
(-0.0175428 0.00196409 0)
(-0.0180025 0.00192674 0)
(-0.0184525 0.00188702 0)
(-0.0188923 0.00184482 0)
(-0.0193213 0.00180004 0)
(-0.0197389 0.00175256 0)
(-0.0201444 0.0017023 0)
(-0.0205372 0.00164915 0)
(-0.0209165 0.00159303 0)
(-0.0212818 0.00153386 0)
(-0.0216322 0.00147156 0)
(-0.0219671 0.00140609 0)
(-0.0222857 0.00133738 0)
(-0.0225874 0.0012654 0)
(-0.0228712 0.00119013 0)
(-0.0231366 0.00111155 0)
(-0.0233828 0.00102968 0)
(-0.0236091 0.000944527 0)
(-0.0238146 0.000856143 0)
(-0.0239988 0.000764583 0)
(-0.024161 0.000669927 0)
(-0.0243004 0.000572272 0)
(-0.0244165 0.00047174 0)
(-0.0245087 0.000368472 0)
(-0.0245763 0.00026263 0)
(-0.0246189 0.000154402 0)
(-0.024636 4.39939e-05 0)
(-0.0246271 -6.83642e-05 0)
(-0.024592 -0.000182421 0)
(-0.0245302 -0.000297906 0)
(-0.0244416 -0.000414527 0)
(-0.024326 -0.000531974 0)
(-0.0241833 -0.000649921 0)
(-0.0240134 -0.000768023 0)
(-0.0238165 -0.000885926 0)
(-0.0235925 -0.00100326 0)
(-0.0233418 -0.00111965 0)
(-0.0230647 -0.00123471 0)
(-0.0227615 -0.00134805 0)
(-0.0224327 -0.00145927 0)
(-0.0220788 -0.001568 0)
(-0.0217006 -0.00167385 0)
(-0.0212986 -0.00177643 0)
(-0.0208738 -0.00187537 0)
(-0.0204269 -0.00197032 0)
(-0.019959 -0.00206093 0)
(-0.019471 -0.00214687 0)
(-0.0189641 -0.00222783 0)
(-0.0184394 -0.00230351 0)
(-0.0178981 -0.00237365 0)
(-0.0173415 -0.002438 0)
(-0.0167709 -0.00249632 0)
(-0.0161877 -0.00254841 0)
(-0.0155933 -0.00259408 0)
(-0.0149892 -0.00263316 0)
(-0.0143767 -0.00266552 0)
(-0.0137575 -0.00269101 0)
(-0.013133 -0.00270953 0)
(-0.0125049 -0.00272097 0)
(-0.0118746 -0.00272525 0)
(-0.0112438 -0.00272227 0)
(-0.0106142 -0.00271195 0)
(-0.00998726 -0.00269422 0)
(-0.00936474 -0.00266899 0)
(-0.00874829 -0.00263619 0)
(-0.00813959 -0.00259572 0)
(-0.00754035 -0.00254748 0)
(-0.00695229 -0.00249138 0)
(-0.00637716 -0.00242732 0)
(-0.00581674 -0.00235518 0)
(-0.00527279 -0.00227487 0)
(-0.00474713 -0.00218629 0)
(-0.00424155 -0.00208939 0)
(-0.00375785 -0.00198414 0)
(-0.00329782 -0.00187057 0)
(-0.00286323 -0.00174882 0)
(-0.00245576 -0.0016191 0)
(-0.00207703 -0.00148184 0)
(-0.00172853 -0.00133762 0)
(-0.00141157 -0.00118733 0)
(-0.00112723 -0.00103218 0)
(-0.000876306 -0.00087383 0)
(-0.000659222 -0.000714465 0)
(-0.00047594 -0.000556932 0)
(-0.000325881 -0.000404875 0)
(-0.000207829 -0.000262887 0)
(-0.000119838 -0.000136689 0)
(-5.91306e-05 -3.33036e-05 0)
(-2.20036e-05 3.87721e-05 0)
(-3.86599e-06 6.94252e-05 0)
(5.39563e-07 4.62965e-05 0)
(-1.26471e-05 0.00014131 0)
(-8.59499e-05 0.000442608 0)
(-0.000242404 0.000744972 0)
(-0.000462946 0.00103683 0)
(-0.000738623 0.00131074 0)
(-0.00106386 0.00156195 0)
(-0.00143306 0.00178795 0)
(-0.00184095 0.00198789 0)
(-0.00228269 0.00216213 0)
(-0.00275383 0.00231185 0)
(-0.00325029 0.00243877 0)
(-0.00376833 0.00254486 0)
(-0.00430454 0.00263226 0)
(-0.00485587 0.00270309 0)
(-0.00541957 0.00275939 0)