/*--------------------------------*- C++ -*----------------------------------*\
| =========                 |                                                 |
| \\      /  F ield         | OpenFOAM: The Open Source CFD Toolbox           |
|  \\    /   O peration     | Version:  2112                                  |
|   \\  /    A nd           | Website:  www.openfoam.com                      |
|    \\/     M anipulation  |                                                 |
\*---------------------------------------------------------------------------*/
FoamFile
{
    version     2.0;
    format      ascii;
    arch        "LSB;label=32;scalar=64";
    class       volScalarField;
    location    "2";
    object      p;
}
// * * * * * * * * * * * * * * * * * * * * * * * * * * * * * * * * * * * * * //

dimensions      [0 2 -2 0 0 0 0];

internalField   nonuniform List<scalar> 
25600
(
2.93948e-14
4.64804e-14
5.6421e-14
6.29767e-14
6.75716e-14
7.0991e-14
7.36936e-14
7.58801e-14
7.76276e-14
7.90925e-14
8.0328e-14
8.14132e-14
8.22058e-14
8.28395e-14
8.34173e-14
8.3928e-14
8.44063e-14
8.48262e-14
8.5223e-14
8.55172e-14
8.57214e-14
8.59953e-14
8.62121e-14
8.63852e-14
8.64259e-14
8.63567e-14
8.62339e-14
8.62999e-14
8.63635e-14
8.62766e-14
8.60699e-14
8.5855e-14
8.57668e-14
8.56546e-14
8.54957e-14
8.53741e-14
8.51859e-14
8.50912e-14
8.49612e-14
8.46487e-14
8.44372e-14
8.42259e-14
8.40611e-14
8.39378e-14
8.36955e-14
8.35542e-14
8.34344e-14
8.32845e-14
8.31341e-14
8.30216e-14
8.28215e-14
8.23968e-14
8.2074e-14
8.16598e-14
8.13029e-14
8.11214e-14
8.08054e-14
8.05021e-14
8.01813e-14
7.98634e-14
7.97167e-14
7.93328e-14
7.90263e-14
7.87548e-14
7.84638e-14
7.82538e-14
7.79689e-14
7.76907e-14
7.7324e-14
7.70373e-14
7.69441e-14
7.67548e-14
7.65359e-14
7.62573e-14
7.59346e-14
7.59644e-14
7.58551e-14
7.56203e-14
7.55324e-14
7.54032e-14
7.54015e-14
7.53009e-14
7.48878e-14
7.45567e-14
7.4353e-14
7.44191e-14
7.44548e-14
7.41367e-14
7.37198e-14
7.35491e-14
7.36661e-14
7.3713e-14
7.33191e-14
7.29065e-14
7.29371e-14
7.29951e-14
7.2721e-14
7.24782e-14
7.232e-14
7.24623e-14
7.27519e-14
7.24847e-14
7.23167e-14
7.21611e-14
7.22388e-14
7.24056e-14
7.24855e-14
7.23284e-14
7.223e-14
7.2326e-14
7.24492e-14
7.27666e-14
7.24351e-14
7.22017e-14
7.24653e-14
7.27511e-14
7.27858e-14
7.24323e-14
7.21736e-14
7.232e-14
7.25138e-14
7.26323e-14
7.22455e-14
7.18507e-14
7.19404e-14
7.22581e-14
7.24153e-14
7.21768e-14
7.19826e-14
7.22707e-14
7.25977e-14
7.27316e-14
7.25489e-14
7.2579e-14
7.29223e-14
7.31433e-14
7.33404e-14
7.33185e-14
7.3318e-14
7.35363e-14
7.36898e-14
7.38322e-14
7.38418e-14
7.39886e-14
7.42981e-14
7.45655e-14
7.49658e-14
7.51632e-14
7.53137e-14
7.54641e-14
7.57205e-14
7.6411e-14
7.67678e-14
7.6724e-14
7.67782e-14
7.70306e-14
7.75634e-14
7.7807e-14
7.7764e-14
7.78752e-14
7.81368e-14
7.87968e-14
7.90066e-14
7.90846e-14
7.96126e-14
7.97891e-14
8.01999e-14
8.04894e-14
8.04048e-14
8.06784e-14
8.0978e-14
8.16193e-14
8.19301e-14
8.22878e-14
8.2755e-14
8.30498e-14
8.34545e-14
8.36262e-14
8.42894e-14
8.47604e-14
8.48739e-14
8.56144e-14
8.58734e-14
8.61367e-14
8.65004e-14
8.65231e-14
8.71901e-14
8.74518e-14
8.76372e-14
8.8252e-14
8.82309e-14
8.85852e-14
8.89903e-14
8.89925e-14
8.96365e-14
9.00848e-14
9.05175e-14
9.05426e-14
9.05462e-14
9.15483e-14
9.19207e-14
9.21829e-14
9.21664e-14
9.21832e-14
9.30935e-14
9.35733e-14
9.34313e-14
9.30712e-14
9.32214e-14
9.40693e-14
9.4627e-14
9.44387e-14
9.38943e-14
9.4565e-14
9.5261e-14
9.47291e-14
9.52947e-14
9.62139e-14
9.66151e-14
9.66452e-14
9.61273e-14
9.68022e-14
9.79097e-14
9.83783e-14
9.84298e-14
9.7979e-14
9.86922e-14
9.9597e-14
9.99748e-14
1.00473e-13
1.00405e-13
1.01014e-13
1.01501e-13
1.0185e-13
1.02459e-13
1.02388e-13
1.02737e-13
1.03194e-13
1.03632e-13
1.04194e-13
1.04043e-13
1.04461e-13
1.04768e-13
1.04937e-13
1.05592e-13
1.05363e-13
1.05058e-13
1.05245e-13
1.05848e-13
1.06371e-13
1.06e-13
1.06224e-13
1.06593e-13
1.06826e-13
1.07197e-13
1.0674e-13
1.06959e-13
1.0722e-13
1.07377e-13
1.0784e-13
1.07437e-13
1.07425e-13
1.07675e-13
1.0771e-13
1.07835e-13
1.07326e-13
1.0738e-13
1.0775e-13
1.07934e-13
1.07955e-13
1.07481e-13
1.07374e-13
1.07424e-13
1.07418e-13
1.07411e-13
1.06988e-13
1.06875e-13
1.06905e-13
1.06579e-13
1.06557e-13
1.06282e-13
1.06036e-13
1.061e-13
1.0595e-13
1.05865e-13
1.05383e-13
1.04795e-13
1.04831e-13
1.05053e-13
1.04782e-13
1.03941e-13
1.03577e-13
1.03657e-13
1.0352e-13
1.02687e-13
1.01841e-13
1.01674e-13
1.01345e-13
1.01081e-13
1.00148e-13
9.89796e-14
9.84468e-14
9.78474e-14
9.75097e-14
9.66094e-14
9.51944e-14
9.38173e-14
9.23672e-14
9.12914e-14
8.96641e-14
8.79198e-14
8.60337e-14
8.34799e-14
8.14142e-14
7.86732e-14
7.5022e-14
7.1025e-14
6.5633e-14
5.85167e-14
4.78136e-14
4.98211e-14
5.43939e-14
5.99637e-14
6.48024e-14
6.85945e-14
7.16017e-14
7.41247e-14
7.62451e-14
7.78187e-14
7.93086e-14
8.05973e-14
8.15715e-14
8.23306e-14
8.29031e-14
8.34341e-14
8.40501e-14
8.44445e-14
8.48191e-14
8.52098e-14
8.55233e-14
8.57936e-14
8.60813e-14
8.62493e-14
8.6386e-14
8.63644e-14
8.63927e-14
8.63432e-14
8.63239e-14
8.63054e-14
8.62949e-14
8.60909e-14
8.5944e-14
8.57576e-14
8.56426e-14
8.54825e-14
8.54448e-14
8.52073e-14
8.50381e-14
8.49725e-14
8.47698e-14
8.44349e-14
8.42162e-14
8.40334e-14
8.39314e-14
8.38042e-14
8.35179e-14
8.34058e-14
8.33221e-14
8.31851e-14
8.30618e-14
8.27792e-14
8.24294e-14
8.21515e-14
8.17351e-14
8.13744e-14
8.1052e-14
8.07387e-14
8.04999e-14
8.02038e-14
7.99457e-14
7.96421e-14
7.9337e-14
7.90177e-14
7.87798e-14
7.84776e-14
7.81971e-14
7.79648e-14
7.77222e-14
7.73258e-14
7.70995e-14
7.69025e-14
7.6749e-14
7.65496e-14
7.62516e-14
7.59304e-14
7.59401e-14
7.57337e-14
7.56643e-14
7.55769e-14
7.54623e-14
7.53289e-14
7.51748e-14
7.48562e-14
7.46072e-14
7.44665e-14
7.43859e-14
7.424e-14
7.40211e-14
7.38804e-14
7.37016e-14
7.36571e-14
7.35241e-14
7.32955e-14
7.30939e-14
7.29e-14
7.27488e-14
7.26516e-14
7.25334e-14
7.25705e-14
7.25142e-14
7.25721e-14
7.24079e-14
7.23403e-14
7.23444e-14
7.22954e-14
7.22601e-14
7.24321e-14
7.24455e-14
7.23069e-14
7.22555e-14
7.24286e-14
7.26258e-14
7.25481e-14
7.24617e-14
7.24468e-14
7.25973e-14
7.27259e-14
7.26259e-14
7.22117e-14
7.22698e-14
7.24554e-14
7.25959e-14
7.22928e-14
7.19711e-14
7.19676e-14
7.21294e-14
7.23527e-14
7.21718e-14
7.2103e-14
7.23028e-14
7.24735e-14
7.26683e-14
7.26031e-14
7.26445e-14
7.27844e-14
7.30731e-14
7.33751e-14
7.33854e-14
7.33489e-14
7.34904e-14
7.37014e-14
7.38186e-14
7.37971e-14
7.39497e-14
7.42678e-14
7.4633e-14
7.48393e-14
7.49773e-14
7.52591e-14
7.56826e-14
7.58452e-14
7.61834e-14
7.65416e-14
7.68e-14
7.69485e-14
7.71414e-14
7.75541e-14
7.77787e-14
7.78317e-14
7.79453e-14
7.82966e-14
7.86343e-14
7.88762e-14
7.91251e-14
7.95573e-14
7.99109e-14
8.009e-14
8.03349e-14
8.05502e-14
8.07749e-14
8.10481e-14
8.14838e-14
8.18446e-14
8.21464e-14
8.25477e-14
8.32204e-14
8.35734e-14
8.38878e-14
8.42101e-14
8.44934e-14
8.51117e-14
8.5576e-14
8.58131e-14
8.60163e-14
8.64062e-14
8.6799e-14
8.71259e-14
8.74698e-14
8.76758e-14
8.79361e-14
8.81971e-14
8.85502e-14
8.89506e-14
8.92635e-14
8.95377e-14
8.99509e-14
9.03912e-14
9.06977e-14
9.10219e-14
9.12996e-14
9.16854e-14
9.20132e-14
9.23663e-14
9.27132e-14
9.28932e-14
9.31992e-14
9.3321e-14
9.34668e-14
9.36541e-14
9.38429e-14
9.4071e-14
9.42411e-14
9.43453e-14
9.45974e-14
9.49277e-14
9.52182e-14
9.55598e-14
9.57847e-14
9.61828e-14
9.65893e-14
9.66802e-14
9.70346e-14
9.75089e-14
9.80293e-14
9.83452e-14
9.84642e-14
9.8837e-14
9.9532e-14
9.99006e-14
1.00237e-13
1.00545e-13
1.01017e-13
1.01444e-13
1.01928e-13
1.02361e-13
1.0263e-13
1.02879e-13
1.02924e-13
1.034e-13
1.04116e-13
1.04302e-13
1.04587e-13
1.04746e-13
1.04896e-13
1.05288e-13
1.05267e-13
1.05335e-13
1.05519e-13
1.05823e-13
1.06113e-13
1.05998e-13
1.06259e-13
1.0673e-13
1.0693e-13
1.06908e-13
1.06718e-13
1.07069e-13
1.07322e-13
1.07472e-13
1.07661e-13
1.07461e-13
1.07507e-13
1.07671e-13
1.07691e-13
1.07706e-13
1.07454e-13
1.07702e-13
1.07715e-13
1.07756e-13
1.07831e-13
1.07695e-13
1.07545e-13
1.07322e-13
1.07384e-13
1.07473e-13
1.07025e-13
1.06902e-13
1.06636e-13
1.06658e-13
1.06698e-13
1.06357e-13
1.06234e-13
1.05962e-13
1.05806e-13
1.05772e-13
1.05301e-13
1.05111e-13
1.04987e-13
1.04889e-13
1.04648e-13
1.04121e-13
1.03819e-13
1.03645e-13
1.0315e-13
1.02701e-13
1.02169e-13
1.01667e-13
1.01463e-13
1.00779e-13
1.00185e-13
9.93576e-14
9.84755e-14
9.79282e-14
9.74226e-14
9.64668e-14
9.51708e-14
9.39997e-14
9.28713e-14
9.13796e-14
8.97235e-14
8.80486e-14
8.61868e-14
8.39693e-14
8.16509e-14
7.89994e-14
7.5909e-14
7.20995e-14
6.73897e-14
6.19185e-14
5.54845e-14
5.98667e-14
6.11882e-14
6.41805e-14
6.7309e-14
7.02468e-14
7.2667e-14
7.49307e-14
7.68762e-14
7.83395e-14
7.96798e-14
8.08878e-14
8.18969e-14
8.25005e-14
8.31257e-14
8.35505e-14
8.40705e-14
8.46023e-14
8.48818e-14
8.52469e-14
8.57005e-14
8.58854e-14
8.6153e-14
8.62015e-14
8.63817e-14
8.6503e-14
8.65705e-14
8.63648e-14
8.62374e-14
8.61995e-14
8.63132e-14
8.61811e-14
8.61459e-14
8.58189e-14
8.56441e-14
8.54347e-14
8.5329e-14
8.51635e-14
8.50691e-14
8.50484e-14
8.47748e-14
8.44844e-14
8.42094e-14
8.40977e-14
8.39366e-14
8.37222e-14
8.3467e-14
8.33727e-14
8.33398e-14
8.32256e-14
8.30706e-14
8.2843e-14
8.25467e-14
8.22832e-14
8.18464e-14
8.13899e-14
8.10451e-14
8.06914e-14
8.04206e-14
8.01816e-14
8.00034e-14
7.96199e-14
7.9265e-14
7.90969e-14
7.87991e-14
7.84348e-14
7.81922e-14
7.79149e-14
7.78782e-14
7.73198e-14
7.70072e-14
7.68594e-14
7.67626e-14
7.65116e-14
7.62027e-14
7.59273e-14
7.58633e-14
7.57271e-14
7.57146e-14
7.56574e-14
7.54448e-14
7.52815e-14
7.5101e-14
7.48882e-14
7.45687e-14
7.44376e-14
7.43385e-14
7.41776e-14
7.39862e-14
7.39382e-14
7.3806e-14
7.36245e-14
7.34706e-14
7.33895e-14
7.31739e-14
7.28866e-14
7.26049e-14
7.25382e-14
7.25093e-14
7.26832e-14
7.26337e-14
7.24856e-14
7.24583e-14
7.2285e-14
7.23246e-14
7.22909e-14
7.21941e-14
7.24316e-14
7.23975e-14
7.22752e-14
7.22677e-14
7.23787e-14
7.26845e-14
7.24939e-14
7.25593e-14
7.25008e-14
7.2592e-14
7.27201e-14
7.27066e-14
7.23098e-14
7.21435e-14
7.23354e-14
7.25934e-14
7.23464e-14
7.20402e-14
7.20111e-14
7.20372e-14
7.21484e-14
7.2146e-14
7.22223e-14
7.24022e-14
7.24829e-14
7.25399e-14
7.2717e-14
7.26493e-14
7.27332e-14
7.30798e-14
7.3398e-14
7.32952e-14
7.32341e-14
7.35464e-14
7.37526e-14
7.37964e-14
7.37021e-14
7.39229e-14
7.42382e-14
7.46156e-14
7.49236e-14
7.49512e-14
7.51983e-14
7.56701e-14
7.5927e-14
7.6118e-14
7.62576e-14
7.67803e-14
7.69528e-14
7.72513e-14
7.76654e-14
7.78226e-14
7.79168e-14
7.7975e-14
7.82761e-14
7.85701e-14
7.87308e-14
7.90843e-14
7.95274e-14
7.98823e-14
8.00522e-14
8.02732e-14
8.08322e-14
8.08998e-14
8.09236e-14
8.12917e-14
8.182e-14
8.21264e-14
8.25296e-14
8.30625e-14
8.36343e-14
8.41647e-14
8.43124e-14
8.43724e-14
8.5044e-14
8.558e-14
8.57024e-14
8.60243e-14
8.64779e-14
8.69582e-14
8.71073e-14
8.72895e-14
8.75936e-14
8.78343e-14
8.82472e-14
8.8502e-14
8.89876e-14
8.93103e-14
8.95108e-14
8.98846e-14
9.02611e-14
9.07277e-14
9.12374e-14
9.13755e-14
9.16253e-14
9.19538e-14
9.24336e-14
9.29205e-14
9.29881e-14
9.2999e-14
9.32134e-14
9.36541e-14
9.37624e-14
9.37892e-14
9.38286e-14
9.40849e-14
9.44142e-14
9.46087e-14
9.5037e-14
9.53407e-14
9.54929e-14
9.54626e-14
9.59682e-14
9.65376e-14
9.69903e-14
9.71835e-14
9.72746e-14
9.77993e-14
9.83339e-14
9.86602e-14
9.89958e-14
9.95633e-14
9.97833e-14
1.00033e-13
1.00642e-13
1.01113e-13
1.01599e-13
1.01912e-13
1.02302e-13
1.02707e-13
1.02865e-13
1.02884e-13
1.03356e-13
1.03979e-13
1.04245e-13
1.04645e-13
1.04917e-13
1.04868e-13
1.05006e-13
1.05139e-13
1.05463e-13
1.05621e-13
1.05842e-13
1.06062e-13
1.0625e-13
1.06367e-13
1.06531e-13
1.06846e-13
1.06872e-13
1.06857e-13
1.07205e-13
1.07263e-13
1.07469e-13
1.07637e-13
1.07722e-13
1.07673e-13
1.07487e-13
1.07396e-13
1.0754e-13
1.07669e-13
1.07916e-13
1.07781e-13
1.07793e-13
1.07858e-13
1.07775e-13
1.07556e-13
1.07266e-13
1.07356e-13
1.07488e-13
1.07071e-13
1.06877e-13
1.06745e-13
1.06688e-13
1.06754e-13
1.06382e-13
1.06339e-13
1.06046e-13
1.05691e-13
1.05713e-13
1.05334e-13
1.05199e-13
1.0519e-13
1.04841e-13
1.0456e-13
1.04153e-13
1.03878e-13
1.03649e-13
1.0321e-13
1.02794e-13
1.02158e-13
1.01607e-13
1.01431e-13
1.00883e-13
1.00334e-13
9.96038e-14
9.88108e-14
9.79969e-14
9.72044e-14
9.63395e-14
9.52911e-14
9.44482e-14
9.32855e-14
9.16196e-14
9.00773e-14
8.82013e-14
8.65057e-14
8.47504e-14
8.22225e-14
7.98936e-14
7.71439e-14
7.36234e-14
6.99062e-14
6.58578e-14
6.22834e-14
6.64211e-14
6.66584e-14
6.81611e-14
7.00551e-14
7.23039e-14
7.42816e-14
7.60092e-14
7.76005e-14
7.9014e-14
8.01917e-14
8.1235e-14
8.234e-14
8.27801e-14
8.34232e-14
8.39055e-14
8.44045e-14
8.47976e-14
8.49616e-14
8.53552e-14
8.57667e-14
8.61021e-14
8.63127e-14
8.63806e-14
8.62832e-14
8.64864e-14
8.67854e-14
8.66698e-14
8.62513e-14
8.60461e-14
8.62458e-14
8.63087e-14
8.61414e-14
8.59385e-14
8.57426e-14
8.55174e-14
8.53485e-14
8.51586e-14
8.50149e-14
8.49095e-14
8.48126e-14
8.43684e-14
8.42827e-14
8.42351e-14
8.39651e-14
8.36959e-14
8.3502e-14
8.33633e-14
8.32984e-14
8.31459e-14
8.30821e-14
8.29056e-14
8.27858e-14
8.25416e-14
8.18121e-14
8.14257e-14
8.1075e-14
8.06486e-14
8.03974e-14
8.01913e-14
7.98555e-14
7.9573e-14
7.90571e-14
7.9116e-14
7.89219e-14
7.84426e-14
7.82245e-14
7.79574e-14
7.77826e-14
7.73254e-14
7.69898e-14
7.68082e-14
7.64724e-14
7.63916e-14
7.61636e-14
7.61196e-14
7.58997e-14
7.562e-14
7.57798e-14
7.57121e-14
7.55474e-14
7.51169e-14
7.4913e-14
7.47536e-14
7.45123e-14
7.4315e-14
7.44547e-14
7.43596e-14
7.39111e-14
7.39524e-14
7.39302e-14
7.3724e-14
7.34299e-14
7.33581e-14
7.30855e-14
7.28632e-14
7.25966e-14
7.24379e-14
7.25171e-14
7.26119e-14
7.25973e-14
7.24814e-14
7.23813e-14
7.22475e-14
7.23378e-14
7.22699e-14
7.22412e-14
7.24113e-14
7.2213e-14
7.22242e-14
7.22988e-14
7.24809e-14
7.26244e-14
7.25494e-14
7.25295e-14
7.26067e-14
7.27082e-14
7.25559e-14
7.24893e-14
7.25662e-14
7.22222e-14
7.2341e-14
7.24716e-14
7.24261e-14
7.2179e-14
7.20044e-14
7.20052e-14
7.1919e-14
7.20536e-14
7.23859e-14
7.24782e-14
7.24491e-14
7.24694e-14
7.27611e-14
7.25956e-14
7.286e-14
7.3041e-14
7.31926e-14
7.31341e-14
7.33938e-14
7.36625e-14
7.35987e-14
7.36836e-14
7.37786e-14
7.39765e-14
7.42042e-14
7.45746e-14
7.47477e-14
7.50268e-14
7.54e-14
7.56678e-14
7.59694e-14
7.58999e-14
7.63891e-14
7.67144e-14
7.68166e-14
7.72812e-14
7.77579e-14
7.78653e-14
7.7956e-14
7.80373e-14
7.82427e-14
7.84548e-14
7.87156e-14
7.92357e-14
7.96053e-14
7.99425e-14
8.00673e-14
8.02124e-14
8.08205e-14
8.08884e-14
8.08917e-14
8.12707e-14
8.1751e-14
8.20651e-14
8.26905e-14
8.32414e-14
8.35984e-14
8.41266e-14
8.43794e-14
8.42532e-14
8.49532e-14
8.5593e-14
8.57233e-14
8.60079e-14
8.64918e-14
8.6992e-14
8.70933e-14
8.70374e-14
8.75217e-14
8.79815e-14
8.82654e-14
8.86088e-14
8.8952e-14
8.94347e-14
8.95602e-14
8.97752e-14
9.02157e-14
9.07474e-14
9.10918e-14
9.13467e-14
9.15436e-14
9.20195e-14
9.26327e-14
9.29376e-14
9.28879e-14
9.31286e-14
9.33136e-14
9.36484e-14
9.38546e-14
9.39071e-14
9.39141e-14
9.39446e-14
9.42459e-14
9.46315e-14
9.49045e-14
9.52699e-14
9.54428e-14
9.55217e-14
9.59232e-14
9.64639e-14
9.69719e-14
9.70857e-14
9.72424e-14
9.77773e-14
9.84164e-14
9.87657e-14
9.90156e-14
9.93243e-14
9.97753e-14
1.00383e-13
1.00854e-13
1.01099e-13
1.01411e-13
1.0182e-13
1.02065e-13
1.0262e-13
1.02822e-13
1.03182e-13
1.03234e-13
1.03861e-13
1.04482e-13
1.04627e-13
1.04673e-13
1.04776e-13
1.05012e-13
1.05297e-13
1.05695e-13
1.05549e-13
1.05814e-13
1.06266e-13
1.06256e-13
1.06329e-13
1.06454e-13
1.06676e-13
1.06721e-13
1.07112e-13
1.07238e-13
1.07347e-13
1.07311e-13
1.07726e-13
1.0804e-13
1.07765e-13
1.07465e-13
1.07454e-13
1.07726e-13
1.07719e-13
1.07775e-13
1.0793e-13
1.07906e-13
1.07878e-13
1.07638e-13
1.07428e-13
1.07345e-13
1.07356e-13
1.07456e-13
1.07184e-13
1.07026e-13
1.06867e-13
1.06603e-13
1.06431e-13
1.06642e-13
1.063e-13
1.0615e-13
1.05821e-13
1.05497e-13
1.05627e-13
1.05365e-13
1.05092e-13
1.04744e-13
1.04517e-13
1.04464e-13
1.04113e-13
1.03577e-13
1.03231e-13
1.02859e-13
1.0228e-13
1.01765e-13
1.01425e-13
1.01039e-13
1.00434e-13
9.9848e-14
9.89017e-14
9.80396e-14
9.73953e-14
9.64381e-14
9.56876e-14
9.47891e-14
9.34917e-14
9.18768e-14
9.04179e-14
8.87362e-14
8.7208e-14
8.54581e-14
8.3105e-14
8.09015e-14
7.82028e-14
7.57056e-14
7.28537e-14
6.97874e-14
6.74305e-14
7.09871e-14
7.08134e-14
7.15361e-14
7.29241e-14
7.43093e-14
7.58243e-14
7.72494e-14
7.86306e-14
8.00921e-14
8.09742e-14
8.18364e-14
8.27672e-14
8.33552e-14
8.38289e-14
8.42074e-14
8.47498e-14
8.49827e-14
8.5162e-14
8.56092e-14
8.59097e-14
8.62608e-14
8.65598e-14
8.6522e-14
8.6543e-14
8.65865e-14
8.69116e-14
8.69297e-14
8.64387e-14
8.61087e-14
8.6184e-14
8.6257e-14
8.5981e-14
8.59141e-14
8.57335e-14
8.56919e-14
8.55298e-14
8.52037e-14
8.50563e-14
8.48442e-14
8.47458e-14
8.44567e-14
8.43688e-14
8.43306e-14
8.3944e-14
8.38916e-14
8.36293e-14
8.33552e-14
8.32277e-14
8.3209e-14
8.31463e-14
8.29735e-14
8.29218e-14
8.25697e-14
8.19975e-14
8.14785e-14
8.08963e-14
8.06356e-14
8.03622e-14
8.03261e-14
7.99129e-14
7.94859e-14
7.90246e-14
7.89788e-14
7.89627e-14
7.85438e-14
7.82102e-14
7.79322e-14
7.77218e-14
7.73566e-14
7.69214e-14
7.66623e-14
7.65615e-14
7.63329e-14
7.60144e-14
7.61101e-14
7.58553e-14
7.5749e-14
7.57789e-14
7.5784e-14
7.55905e-14
7.51371e-14
7.4758e-14
7.45399e-14
7.44547e-14
7.43677e-14
7.42918e-14
7.4315e-14
7.41904e-14
7.40162e-14
7.40361e-14
7.3635e-14
7.33312e-14
7.34847e-14
7.32115e-14
7.28272e-14
7.25266e-14
7.24265e-14
7.267e-14
7.25831e-14
7.2442e-14
7.25422e-14
7.22711e-14
7.20828e-14
7.2353e-14
7.23282e-14
7.22552e-14
7.22056e-14
7.21603e-14
7.22212e-14
7.22961e-14
7.25081e-14
7.25367e-14
7.25292e-14
7.25248e-14
7.26911e-14
7.27654e-14
7.24356e-14
7.23808e-14
7.26424e-14
7.25884e-14
7.23493e-14
7.2526e-14
7.25608e-14
7.23432e-14
7.2003e-14
7.1864e-14
7.19966e-14
7.20779e-14
7.214e-14
7.22911e-14
7.23284e-14
7.24858e-14
7.25871e-14
7.26522e-14
7.29041e-14
7.29665e-14
7.30392e-14
7.30901e-14
7.34678e-14
7.3706e-14
7.37561e-14
7.35741e-14
7.37632e-14
7.38539e-14
7.42552e-14
7.44501e-14
7.46694e-14
7.51976e-14
7.54172e-14
7.55667e-14
7.59084e-14
7.59401e-14
7.64557e-14
7.67721e-14
7.66773e-14
7.71021e-14
7.76598e-14
7.79497e-14
7.80811e-14
7.81325e-14
7.82325e-14
7.84894e-14
7.89006e-14
7.93198e-14
7.95866e-14
7.99483e-14
8.00211e-14
8.0237e-14
8.06921e-14
8.07072e-14
8.09845e-14
8.12086e-14
8.1378e-14
8.23154e-14
8.28866e-14
8.32287e-14
8.3748e-14
8.39726e-14
8.43629e-14
8.44733e-14
8.50842e-14
8.56696e-14
8.59849e-14
8.61597e-14
8.63577e-14
8.68589e-14
8.70401e-14
8.71696e-14
8.75554e-14
8.78453e-14
8.83701e-14
8.85207e-14
8.88415e-14
8.92945e-14
8.95444e-14
8.96684e-14
9.02538e-14
9.07997e-14
9.09749e-14
9.14137e-14
9.17501e-14
9.20214e-14
9.24914e-14
9.28722e-14
9.28241e-14
9.33142e-14
9.3439e-14
9.35719e-14
9.39536e-14
9.39202e-14
9.3891e-14
9.39555e-14
9.41766e-14
9.44249e-14
9.484e-14
9.51372e-14
9.52457e-14
9.56553e-14
9.60157e-14
9.64336e-14
9.67498e-14
9.68191e-14
9.7265e-14
9.77325e-14
9.82505e-14
9.86025e-14
9.88554e-14
9.91736e-14
9.98891e-14
1.0061e-13
1.00799e-13
1.01021e-13
1.01504e-13
1.01855e-13
1.0191e-13
1.02341e-13
1.02969e-13
1.0345e-13
1.03417e-13
1.0375e-13
1.04567e-13
1.04733e-13
1.04592e-13
1.04831e-13
1.05075e-13
1.05665e-13
1.05703e-13
1.05667e-13
1.05926e-13
1.06234e-13
1.06136e-13
1.06343e-13
1.06381e-13
1.06635e-13
1.06803e-13
1.07309e-13
1.07296e-13
1.07297e-13
1.0734e-13
1.07622e-13
1.07881e-13
1.07776e-13
1.07783e-13
1.07688e-13
1.07834e-13
1.07799e-13
1.07713e-13
1.08174e-13
1.07908e-13
1.07666e-13
1.07697e-13
1.07576e-13
1.07596e-13
1.07418e-13
1.0713e-13
1.07233e-13
1.07155e-13
1.07067e-13
1.06694e-13
1.06247e-13
1.06725e-13
1.06286e-13
1.06133e-13
1.05946e-13
1.05471e-13
1.05798e-13
1.05378e-13
1.04997e-13
1.04481e-13
1.04467e-13
1.04762e-13
1.04407e-13
1.03602e-13
1.03244e-13
1.02827e-13
1.0268e-13
1.0202e-13
1.01292e-13
1.01072e-13
1.00588e-13
1.00145e-13
9.89262e-14
9.83175e-14
9.78542e-14
9.67751e-14
9.60575e-14
9.51618e-14
9.37438e-14
9.22374e-14
9.0755e-14
8.95093e-14
8.77733e-14
8.60943e-14
8.43465e-14
8.20696e-14
7.9882e-14
7.78915e-14
7.56443e-14
7.32814e-14
7.14775e-14
7.42475e-14
7.44058e-14
7.45551e-14
7.52098e-14
7.61282e-14
7.74448e-14
7.8634e-14
7.97194e-14
8.09006e-14
8.19695e-14
8.26838e-14
8.34179e-14
8.39486e-14
8.41355e-14
8.4529e-14
8.49468e-14
8.53791e-14
8.56391e-14
8.57847e-14
8.61494e-14
8.65561e-14
8.66166e-14
8.66993e-14
8.6847e-14
8.68141e-14
8.68865e-14
8.69241e-14
8.64598e-14
8.61367e-14
8.62675e-14
8.62216e-14
8.62552e-14
8.60726e-14
8.57723e-14
8.56513e-14
8.56001e-14
8.53236e-14
8.50297e-14
8.49573e-14
8.46442e-14
8.444e-14
8.43601e-14
8.45302e-14
8.42071e-14
8.39258e-14
8.3857e-14
8.35232e-14
8.31932e-14
8.31938e-14
8.32128e-14
8.30562e-14
8.28529e-14
8.2464e-14
8.22603e-14
8.15442e-14
8.09372e-14
8.07463e-14
8.04086e-14
8.01999e-14
7.9928e-14
7.9427e-14
7.91869e-14
7.89685e-14
7.89825e-14
7.8475e-14
7.80681e-14
7.77652e-14
7.76959e-14
7.73103e-14
7.66759e-14
7.66873e-14
7.65814e-14
7.63192e-14
7.61814e-14
7.6144e-14
7.5873e-14
7.58788e-14
7.58163e-14
7.56509e-14
7.55684e-14
7.50394e-14
7.44763e-14
7.4442e-14
7.45675e-14
7.469e-14
7.42897e-14
7.43088e-14
7.42728e-14
7.41238e-14
7.40001e-14
7.35914e-14
7.31617e-14
7.35536e-14
7.31284e-14
7.28012e-14
7.27272e-14
7.24867e-14
7.24336e-14
7.24978e-14
7.24093e-14
7.24553e-14
7.21356e-14
7.21442e-14
7.24229e-14
7.24129e-14
7.21665e-14
7.19271e-14
7.19789e-14
7.2326e-14
7.23068e-14
7.23688e-14
7.2494e-14
7.24687e-14
7.27323e-14
7.27681e-14
7.27771e-14
7.24378e-14
7.26461e-14
7.28638e-14
7.25523e-14
7.25172e-14
7.26263e-14
7.27334e-14
7.23633e-14
7.20257e-14
7.19538e-14
7.19579e-14
7.21831e-14
7.20586e-14
7.22745e-14
7.22258e-14
7.2295e-14
7.241e-14
7.28742e-14
7.26822e-14
7.2926e-14
7.31075e-14
7.32835e-14
7.35927e-14
7.34845e-14
7.36561e-14
7.35218e-14
7.37218e-14
7.41066e-14
7.43687e-14
7.43945e-14
7.47916e-14
7.52719e-14
7.52311e-14
7.54831e-14
7.586e-14
7.5922e-14
7.62225e-14
7.68385e-14
7.67555e-14
7.71441e-14
7.77397e-14
7.79571e-14
7.81373e-14
7.814e-14
7.80381e-14
7.8523e-14
7.92629e-14
7.94748e-14
7.96193e-14
7.9816e-14
8.00147e-14
8.01834e-14
8.06225e-14
8.07178e-14
8.0882e-14
8.11219e-14
8.1366e-14
8.2261e-14
8.30346e-14
8.3126e-14
8.37424e-14
8.41532e-14
8.46898e-14
8.4751e-14
8.54293e-14
8.55706e-14
8.58977e-14
8.6216e-14
8.64183e-14
8.686e-14
8.7145e-14
8.72452e-14
8.74506e-14
8.78362e-14
8.82165e-14
8.84799e-14
8.89099e-14
8.91696e-14
8.94725e-14
8.9882e-14
9.03253e-14
9.06356e-14
9.09389e-14
9.16974e-14
9.18174e-14
9.21076e-14
9.23842e-14
9.27161e-14
9.30666e-14
9.33945e-14
9.35961e-14
9.37311e-14
9.40357e-14
9.40845e-14
9.39216e-14
9.40252e-14
9.40408e-14
9.42957e-14
9.47215e-14
9.49166e-14
9.5088e-14
9.53439e-14
9.5731e-14
9.62782e-14
9.66661e-14
9.697e-14
9.75343e-14
9.75043e-14
9.79385e-14
9.84519e-14
9.87837e-14
9.91706e-14
9.98455e-14
1.00528e-13
1.00696e-13
1.00864e-13
1.01503e-13
1.01795e-13
1.0188e-13
1.02216e-13
1.02893e-13
1.03613e-13
1.03636e-13
1.03873e-13
1.04642e-13
1.04708e-13
1.04781e-13
1.04976e-13
1.0499e-13
1.05655e-13
1.05829e-13
1.05848e-13
1.0608e-13
1.06304e-13
1.06405e-13
1.0634e-13
1.06453e-13
1.06596e-13
1.06871e-13
1.07209e-13
1.07295e-13
1.07519e-13
1.07359e-13
1.07649e-13
1.07597e-13
1.07946e-13
1.07984e-13
1.07484e-13
1.07722e-13
1.07955e-13
1.07775e-13
1.0818e-13
1.08005e-13
1.0776e-13
1.07649e-13
1.07639e-13
1.07462e-13
1.0739e-13
1.07241e-13
1.07266e-13
1.0727e-13
1.07128e-13
1.07027e-13
1.06468e-13
1.0663e-13
1.0639e-13
1.06037e-13
1.05853e-13
1.05782e-13
1.05823e-13
1.05342e-13
1.04871e-13
1.04397e-13
1.04548e-13
1.04579e-13
1.04415e-13
1.04e-13
1.03596e-13
1.03093e-13
1.02793e-13
1.01835e-13
1.01335e-13
1.01422e-13
1.00739e-13
1.00295e-13
9.95463e-14
9.87188e-14
9.81117e-14
9.71552e-14
9.63412e-14
9.56289e-14
9.41549e-14
9.27939e-14
9.13233e-14
9.01348e-14
8.84424e-14
8.70363e-14
8.53802e-14
8.31506e-14
8.14666e-14
7.99367e-14
7.81883e-14
7.6273e-14
7.49524e-14
7.71392e-14
7.72988e-14
7.72343e-14
7.74564e-14
7.82691e-14
7.91391e-14
8.00995e-14
8.09773e-14
8.18526e-14
8.27832e-14
8.35017e-14
8.4084e-14
8.47173e-14
8.46927e-14
8.50563e-14
8.5549e-14
8.57038e-14
8.60317e-14
8.59479e-14
8.64484e-14
8.6582e-14
8.68241e-14
8.69304e-14
8.67085e-14
8.69408e-14
8.72241e-14
8.69029e-14
8.65661e-14
8.64064e-14
8.6233e-14
8.64227e-14
8.63616e-14
8.61738e-14
8.58308e-14
8.57949e-14
8.56568e-14
8.52603e-14
8.52589e-14
8.52434e-14
8.4872e-14
8.43652e-14
8.43848e-14
8.43409e-14
8.42967e-14
8.39937e-14
8.37397e-14
8.35494e-14
8.34217e-14
8.35096e-14
8.34667e-14
8.30153e-14
8.29037e-14
8.24394e-14
8.23545e-14
8.17042e-14
8.10791e-14
8.07209e-14
8.03228e-14
8.02647e-14
8.00348e-14
7.96191e-14
7.94113e-14
7.90116e-14
7.87842e-14
7.85794e-14
7.79801e-14
7.75705e-14
7.73547e-14
7.72972e-14
7.68357e-14
7.67899e-14
7.66066e-14
7.64678e-14
7.63999e-14
7.60873e-14
7.59265e-14
7.58832e-14
7.5809e-14
7.57536e-14
7.54061e-14
7.46766e-14
7.44437e-14
7.40726e-14
7.44075e-14
7.49257e-14
7.46299e-14
7.42189e-14
7.4017e-14
7.43425e-14
7.38072e-14
7.36331e-14
7.33029e-14
7.31585e-14
7.29057e-14
7.28005e-14
7.2785e-14
7.26695e-14
7.2249e-14
7.22942e-14
7.24945e-14
7.25083e-14
7.21051e-14
7.21585e-14
7.21832e-14
7.25241e-14
7.20493e-14
7.19444e-14
7.17732e-14
7.24096e-14
7.24393e-14
7.2229e-14
7.24581e-14
7.24711e-14
7.24723e-14
7.25202e-14
7.2646e-14
7.27542e-14
7.29726e-14
7.29825e-14
7.25853e-14
7.2426e-14
7.26311e-14
7.26904e-14
7.25967e-14
7.22348e-14
7.18995e-14
7.15675e-14
7.22424e-14
7.20671e-14
7.2341e-14
7.21398e-14
7.21809e-14
7.25691e-14
7.2717e-14
7.26186e-14
7.2848e-14
7.29259e-14
7.36932e-14
7.34977e-14
7.33865e-14
7.34311e-14
7.35309e-14
7.35854e-14
7.41903e-14
7.40922e-14
7.4595e-14
7.45593e-14
7.51914e-14
7.55907e-14
7.58896e-14
7.584e-14
7.56793e-14
7.61104e-14
7.68835e-14
7.67441e-14
7.70268e-14
7.77984e-14
7.81132e-14
7.81758e-14
7.81929e-14
7.79262e-14
7.84105e-14
7.92251e-14
7.94577e-14
7.96563e-14
8.00131e-14
8.02963e-14
7.99202e-14
8.05481e-14
8.06146e-14
8.10012e-14
8.11558e-14
8.17683e-14
8.2314e-14
8.27366e-14
8.31206e-14
8.36059e-14
8.44609e-14
8.47998e-14
8.51837e-14
8.53646e-14
8.55805e-14
8.5674e-14
8.61594e-14
8.65961e-14
8.66089e-14
8.7117e-14
8.74689e-14
8.76119e-14
8.78374e-14
8.80966e-14
8.87354e-14
8.89141e-14
8.87023e-14
8.93886e-14
8.97422e-14
8.99167e-14
9.05041e-14
9.11625e-14
9.19498e-14
9.16771e-14
9.22229e-14
9.26012e-14
9.27331e-14
9.2995e-14
9.34377e-14
9.36749e-14
9.4106e-14
9.39837e-14
9.43806e-14
9.40134e-14
9.42168e-14
9.4501e-14
9.42349e-14
9.43523e-14
9.4691e-14
9.48441e-14
9.51412e-14
9.55223e-14
9.59114e-14
9.67179e-14
9.7011e-14
9.74737e-14
9.76528e-14
9.75572e-14
9.84554e-14
9.88539e-14
9.90385e-14
9.95438e-14
1.00212e-13
1.0085e-13
1.0108e-13
1.01091e-13
1.01571e-13
1.01849e-13
1.02235e-13
1.03207e-13
1.03896e-13
1.03979e-13
1.04215e-13
1.04702e-13
1.04696e-13
1.04716e-13
1.05039e-13
1.04837e-13
1.05745e-13
1.05995e-13
1.06052e-13
1.06175e-13
1.06269e-13
1.0654e-13
1.06578e-13
1.06247e-13
1.0674e-13
1.06988e-13
1.07239e-13
1.07233e-13
1.07556e-13
1.07576e-13
1.07438e-13
1.07691e-13
1.08089e-13
1.07922e-13
1.07499e-13
1.07492e-13
1.08008e-13
1.07637e-13
1.07763e-13
1.08073e-13
1.07923e-13
1.07904e-13
1.07536e-13
1.07233e-13
1.07588e-13
1.07299e-13
1.07585e-13
1.07286e-13
1.07205e-13
1.07142e-13
1.06657e-13
1.06492e-13
1.06334e-13
1.06307e-13
1.0593e-13
1.05898e-13
1.0569e-13
1.05605e-13
1.05054e-13
1.04302e-13
1.04347e-13
1.04299e-13
1.04367e-13
1.04187e-13
1.03856e-13
1.03424e-13
1.02973e-13
1.02109e-13
1.01662e-13
1.0156e-13
1.01039e-13
1.00401e-13
9.97717e-14
9.90081e-14
9.83156e-14
9.7408e-14
9.67706e-14
9.5979e-14
9.46826e-14
9.34883e-14
9.19267e-14
9.07547e-14
8.9673e-14
8.80321e-14
8.62392e-14
8.44326e-14
8.30162e-14
8.14297e-14
8.05987e-14
7.8913e-14
7.78116e-14
7.96933e-14
7.94885e-14
7.9676e-14
7.99436e-14
8.03795e-14
8.07961e-14
8.157e-14
8.22331e-14
8.29723e-14
8.3481e-14
8.39272e-14
8.4511e-14
8.52361e-14
8.56595e-14
8.59358e-14
8.58918e-14
8.59356e-14
8.64049e-14
8.64525e-14
8.6869e-14
8.69211e-14
8.68618e-14
8.69449e-14
8.68216e-14
8.70023e-14
8.73563e-14
8.69705e-14
8.68289e-14
8.67022e-14
8.64743e-14
8.65629e-14
8.66049e-14
8.62707e-14
8.55043e-14
8.58765e-14
8.59092e-14
8.55206e-14
8.5205e-14
8.5159e-14
8.49416e-14
8.48221e-14
8.43347e-14
8.42103e-14
8.40737e-14
8.38831e-14
8.36519e-14
8.3609e-14
8.36569e-14
8.37651e-14
8.3604e-14
8.33846e-14
8.31348e-14
8.28438e-14
8.20593e-14
8.13619e-14
8.10701e-14
8.10565e-14
8.04932e-14
8.04488e-14
8.02248e-14
7.9937e-14
7.96044e-14
7.90504e-14
7.85887e-14
7.84776e-14
7.80215e-14
7.7559e-14
7.69641e-14
7.68245e-14
7.66689e-14
7.69436e-14
7.68899e-14
7.67288e-14
7.60765e-14
7.59987e-14
7.57954e-14
7.59038e-14
7.54684e-14
7.5956e-14
7.55047e-14
7.45528e-14
7.41418e-14
7.42425e-14
7.41283e-14
7.47774e-14
7.48766e-14
7.43159e-14
7.42247e-14
7.43424e-14
7.37705e-14
7.34241e-14
7.33134e-14
7.30408e-14
7.25997e-14
7.26903e-14
7.29733e-14
7.23045e-14
7.23227e-14
7.23884e-14
7.26165e-14
7.25581e-14
7.19129e-14
7.21741e-14
7.19659e-14
7.16506e-14
7.19932e-14
7.21237e-14
7.18548e-14
7.2215e-14
7.23595e-14
7.2217e-14
7.2542e-14
7.2497e-14
7.25737e-14
7.24109e-14
7.26369e-14
7.2673e-14
7.28385e-14
7.28718e-14
7.25918e-14
7.27788e-14
7.25069e-14
7.25295e-14
7.24073e-14
7.23558e-14
7.18949e-14
7.16393e-14
7.21677e-14
7.20291e-14
7.19786e-14
7.22202e-14
7.25903e-14
7.25317e-14
7.25632e-14
7.27269e-14
7.29288e-14
7.28972e-14
7.37234e-14
7.35472e-14
7.35243e-14
7.35175e-14
7.35598e-14
7.36842e-14
7.41223e-14
7.42409e-14
7.4604e-14
7.46934e-14
7.5234e-14
7.5932e-14
7.56912e-14
7.58809e-14
7.58577e-14
7.6088e-14
7.65178e-14
7.65429e-14
7.70905e-14
7.77606e-14
7.84657e-14
7.81668e-14
7.83876e-14
7.82188e-14
7.83061e-14
7.86721e-14
7.91036e-14
7.99986e-14
8.01733e-14
8.0245e-14
8.0125e-14
8.02911e-14
8.04304e-14
8.09943e-14
8.10875e-14
8.16895e-14
8.24634e-14
8.2698e-14
8.32436e-14
8.35786e-14
8.42114e-14
8.47167e-14
8.52428e-14
8.53734e-14
8.53726e-14
8.58172e-14
8.6183e-14
8.65158e-14
8.65488e-14
8.68767e-14
8.71956e-14
8.77387e-14
8.81462e-14
8.82723e-14
8.84213e-14
8.84765e-14
8.88621e-14
8.91644e-14
8.96888e-14
8.99369e-14
9.06496e-14
9.12225e-14
9.17012e-14
9.19289e-14
9.23044e-14
9.26938e-14
9.29058e-14
9.31135e-14
9.34442e-14
9.36686e-14
9.40354e-14
9.40567e-14
9.42223e-14
9.42645e-14