/*--------------------------------*- C++ -*----------------------------------*\
| =========                 |                                                 |
| \\      /  F ield         | OpenFOAM: The Open Source CFD Toolbox           |
|  \\    /   O peration     | Version:  2112                                  |
|   \\  /    A nd           | Website:  www.openfoam.com                      |
|    \\/     M anipulation  |                                                 |
\*---------------------------------------------------------------------------*/
FoamFile
{
    version     2.0;
    format      ascii;
    arch        "LSB;label=32;scalar=64";
    class       surfaceScalarField;
    location    "2";
    object      phi;
}
// * * * * * * * * * * * * * * * * * * * * * * * * * * * * * * * * * * * * * //

dimensions      [0 3 -1 0 0 0 0];

oriented        oriented;

internalField   nonuniform List<scalar> 
50800
(
5.5794e-05
-4.3095e-18
5.5794e-05
-1.57733e-18
5.5794e-05
-7.18711e-19
5.5794e-05
-3.8385e-19
5.5794e-05
-2.05744e-19
5.5794e-05
-1.17511e-19
5.5794e-05
-9.92751e-20
5.5794e-05
-8.44137e-20
5.5794e-05
-4.75778e-20
5.5794e-05
-4.41218e-20
5.5794e-05
-5.60028e-20
5.5794e-05
-6.30369e-20
5.5794e-05
-2.37863e-20
5.5794e-05
-3.99528e-21
5.5794e-05
-1.28848e-20
5.5794e-05
-6.24234e-21
5.5794e-05
2.3389e-21
5.5794e-05
-4.45177e-21
5.5794e-05
-4.00646e-20
5.5794e-05
-3.76281e-20
5.5794e-05
-1.371e-20
5.5794e-05
-1.09794e-20
5.5794e-05
-2.19594e-20
5.5794e-05
-3.90097e-20
5.5794e-05
-4.14723e-20
5.5794e-05
-2.38409e-20
5.5794e-05
4.3077e-20
5.5794e-05
-4.68079e-22
5.5794e-05
-4.92722e-20
5.5794e-05
-3.65889e-20
5.5794e-05
-1.57981e-21
5.5794e-05
3.11381e-20
5.5794e-05
2.25028e-20
5.5794e-05
-8.98493e-21
5.5794e-05
7.16817e-21
5.5794e-05
-6.03111e-21
5.5794e-05
3.83135e-20
5.5794e-05
-6.78065e-21
5.5794e-05
-1.47779e-20
5.5794e-05
4.65219e-20
5.5794e-05
2.03887e-20
5.5794e-05
3.6028e-20
5.5794e-05
7.98828e-21
5.5794e-05
-2.96669e-20
5.5794e-05
4.65322e-20
5.5794e-05
1.09063e-20
5.5794e-05
2.81083e-20
5.5794e-05
6.66735e-21
5.5794e-05
-1.30307e-20
5.5794e-05
-2.36461e-20
5.5794e-05
-7.02789e-20
5.5794e-05
3.99361e-20
5.5794e-05
-1.76064e-20
5.5794e-05
-2.51424e-21
5.5794e-05
6.7624e-20
5.5794e-05
-3.94505e-20
5.5794e-05
9.23619e-21
5.5794e-05
-1.01397e-20
5.5794e-05
5.57283e-22
5.5794e-05
3.29239e-20
5.5794e-05
-7.27113e-20
5.5794e-05
2.84121e-20
5.5794e-05
6.75919e-21
5.5794e-05
-3.76742e-21
5.5794e-05
5.62381e-20
5.5794e-05
-1.43967e-20
5.5794e-05
8.04803e-21
5.5794e-05
-3.46131e-21
5.5794e-05
3.57228e-20
5.5794e-05
5.07536e-20
5.5794e-05
8.63788e-21
5.5794e-05
-5.70026e-21
5.5794e-05
-1.14891e-20
5.5794e-05
-8.4592e-21
5.5794e-05
9.48685e-20
5.5794e-05
-4.70619e-20
5.5794e-05
-8.51196e-20
5.5794e-05
3.50171e-20
5.5794e-05
-2.14905e-20
5.5794e-05
3.12974e-20
5.5794e-05
-6.64642e-20
5.5794e-05
-1.41394e-19
5.5794e-05
8.99087e-21
5.5794e-05
4.48248e-20
5.5794e-05
5.865e-20
5.5794e-05
-1.26043e-20
5.5794e-05
-1.15483e-19
5.5794e-05
-5.28891e-20
5.5794e-05
6.09086e-20
5.5794e-05
1.02774e-19
5.5794e-05
-5.41631e-20
5.5794e-05
-1.2541e-19
5.5794e-05
9.95969e-21
5.5794e-05
1.1909e-19
5.5794e-05
3.23897e-20
5.5794e-05
-8.41857e-20
5.5794e-05
-7.54501e-21
5.5794e-05
9.50595e-21
5.5794e-05
9.16475e-20
5.5794e-05
5.54541e-20
5.5794e-05
-1.54526e-19
5.5794e-05
3.94231e-20
5.5794e-05
-1.11784e-20
5.5794e-05
6.51793e-20
5.5794e-05
4.42633e-20
5.5794e-05
-2.34971e-20
5.5794e-05
-7.94513e-20
5.5794e-05
2.48237e-20
5.5794e-05
9.16164e-20
5.5794e-05
1.87676e-20
5.5794e-05
5.09151e-20
5.5794e-05
-1.9934e-19
5.5794e-05
5.95139e-20
5.5794e-05
1.97245e-19
5.5794e-05
3.81355e-20
5.5794e-05
-4.82843e-20
5.5794e-05
-1.49194e-19
5.5794e-05
1.82254e-20
5.5794e-05
1.25357e-19
5.5794e-05
3.62045e-20
5.5794e-05
-4.83567e-20
5.5794e-05
-1.6493e-19
5.5794e-05
-8.32496e-21
5.5794e-05
2.08365e-19
5.5794e-05
9.12964e-20
5.5794e-05
-5.79821e-20
5.5794e-05
-1.50631e-19
5.5794e-05
8.51684e-21
5.5794e-05
1.87631e-19
5.5794e-05
3.45743e-20
5.5794e-05
-7.77913e-20
5.5794e-05
-1.15108e-19
5.5794e-05
4.77231e-20
5.5794e-05
9.40988e-20
5.5794e-05
-2.35155e-20
5.5794e-05
-3.16972e-20
5.5794e-05
-1.03103e-19
5.5794e-05
-2.66633e-21
5.5794e-05
9.62919e-20
5.5794e-05
2.82018e-20
5.5794e-05
-2.24657e-20
5.5794e-05
-7.29919e-20
5.5794e-05
2.64171e-20
5.5794e-05
7.19301e-20
5.5794e-05
-8.10914e-21
5.5794e-05
-8.2967e-21
5.5794e-05
-1.068e-19
5.5794e-05
-4.29049e-20
5.5794e-05
8.02859e-26
5.5794e-05
2.71518e-20
5.5794e-05
1.10586e-19
5.5794e-05
-1.31942e-19
5.5794e-05
-1.44796e-19
5.5794e-05
5.27277e-20
5.5794e-05
8.55515e-20
5.5794e-05
8.10287e-20
5.5794e-05
-8.94978e-20
5.5794e-05
-1.02556e-19
5.5794e-05
6.35469e-20
5.5794e-05
6.95635e-20
5.5794e-05
1.24076e-19
5.5794e-05
-1.27261e-19
5.5794e-05
-6.59899e-20
5.5794e-05
1.27201e-19
5.5794e-05
-1.15042e-19
5.5794e-05
7.21798e-20
5.5794e-05
-4.36819e-20
5.5794e-05
-1.19357e-19
5.5794e-05
1.02772e-19
5.5794e-05
2.53204e-20
5.5794e-05
7.92594e-20
5.5794e-05
-1.17758e-19
5.5794e-05
-1.1317e-20
5.5794e-05
3.46226e-20
5.5794e-05
-6.02854e-20
5.5794e-05
1.43862e-20
5.5794e-05
-9.9028e-20
5.5794e-05
1.6905e-19
5.5794e-05
-3.01653e-20
5.5794e-05
-1.02648e-19
5.5794e-05
1.61244e-19
5.5794e-05
-1.80686e-19
5.5794e-05
-3.98368e-20
5.5794e-05
3.28575e-20
5.5794e-05
-7.91356e-20
5.5794e-05
1.91678e-19
5.5794e-05
-1.25371e-19
5.5794e-05
-4.85661e-20
5.5794e-05
1.02924e-19
5.5794e-05
-1.83288e-19
5.5794e-05
9.25127e-20
5.5794e-05
-1.05556e-20
5.5794e-05
-1.11344e-19
5.5794e-05
1.97948e-19
5.5794e-05
-5.11906e-20
5.5794e-05
-2.99276e-21
5.5794e-05
-1.1904e-19
5.5794e-05
-4.14098e-21
5.5794e-05
2.80113e-19
5.5794e-05
-1.61763e-19
5.5794e-05
-8.57216e-22
5.5794e-05
-1.01019e-19
5.5794e-05
-3.85703e-22
5.5794e-05
3.00576e-19
5.5794e-05
-1.30216e-19
5.5794e-05
-2.0088e-19
5.5794e-05
-8.93904e-20
5.5794e-05
1.59126e-19
5.5794e-05
2.08692e-19
5.5794e-05
-8.28907e-20
5.5794e-05
-2.18003e-19
5.5794e-05
-1.1592e-19
5.5794e-05
3.75988e-19
5.5794e-05
3.19491e-20
5.5794e-05
-3.30989e-19
5.5794e-05
3.05923e-19
5.5794e-05
1.15441e-19
5.5794e-05
-1.67374e-19
5.5794e-05
-1.25602e-19
5.5794e-05
-1.52786e-19
5.5794e-05
3.78447e-19
5.5794e-05
1.78047e-19
5.5794e-05
-1.90609e-19
5.5794e-05
-1.54761e-19
5.5794e-05
-1.57574e-19
5.5794e-05
3.79706e-19
5.5794e-05
5.03806e-20
5.5794e-05
-1.48767e-19
5.5794e-05
3.67181e-20
5.5794e-05
-1.35935e-19
5.5794e-05
1.97798e-19
5.5794e-05
-2.34457e-20
5.5794e-05
-4.00083e-20
5.5794e-05
7.04306e-20
5.5794e-05
-2.52827e-19
5.5794e-05
8.74941e-20
5.5794e-05
6.81184e-20
5.5794e-05
1.68876e-20
5.5794e-05
7.10754e-20
5.5794e-05
-2.38612e-19
5.5794e-05
1.36501e-19
5.5794e-05
-4.85449e-20
5.5794e-05
-3.98962e-20
5.5794e-05
1.13607e-19
5.5794e-05
-3.25874e-19
5.5794e-05
-3.47033e-20
5.5794e-05
1.21542e-19
5.5794e-05
1.47684e-19
5.5794e-05
-1.70885e-21
5.5794e-05
-2.66803e-19
5.5794e-05
1.95714e-19
5.5794e-05
5.51052e-20
5.5794e-05
-7.38501e-20
5.5794e-05
-3.30988e-22
5.5794e-05
-2.27157e-19
5.5794e-05
2.45367e-19
5.5794e-05
4.19087e-20
5.5794e-05
-2.68252e-20
5.5794e-05
9.27962e-20
5.5794e-05
-2.75028e-19
5.5794e-05
1.29306e-19
5.5794e-05
7.08084e-20
5.5794e-05
-8.19764e-20
5.5794e-05
1.74432e-20
5.5794e-05
-1.62808e-19
5.5794e-05
2.09966e-19
5.5794e-05
1.35385e-19
5.5794e-05
-2.23363e-20
5.5794e-05
-5.14795e-20
5.5794e-05
-1.63226e-19
5.5794e-05
1.18174e-19
5.5794e-05
9.12483e-20
5.5794e-05
4.33066e-20
5.5794e-05
-7.3194e-23
5.5794e-05
-1.68159e-19
5.5794e-05
7.30769e-20
5.5794e-05
4.11491e-20
5.5794e-05
-1.22619e-19
5.5794e-05
9.22996e-20
5.5794e-05
-8.93356e-20
5.5794e-05
5.5768e-21
5.5794e-05
1.00275e-19
5.5794e-05
-6.1498e-20
5.5794e-05
5.67246e-21
5.5794e-05
-1.30456e-19
5.5794e-05
6.65314e-21
5.5794e-05
2.0815e-19
5.5794e-05
5.60325e-20
5.5794e-05
-1.76e-19
5.5794e-05
-1.63972e-19
5.5794e-05
1.52826e-19
5.5794e-05
9.88506e-20
5.5794e-05
-7.5616e-20
5.5794e-05
-1.87851e-19
5.5794e-05
-9.4499e-21
5.5794e-05
2.45745e-19
5.5794e-05
-3.78527e-20
5.5794e-05
-1.13985e-21
5.5794e-05
-2.30215e-19
5.5794e-05
-4.53274e-20
5.5794e-05
2.4424e-19
5.5794e-05
7.50205e-21
5.5794e-05
1.04546e-19
5.5794e-05
-1.89493e-19
5.5794e-05
-2.27744e-19
5.5794e-05
4.95759e-22
5.5794e-05
2.66415e-20
5.5794e-05
1.66844e-19
5.5794e-05
-1.53502e-19
5.5794e-05
-1.57251e-20
5.5794e-05
-1.48174e-22
5.5794e-05
-1.14864e-19
5.5794e-05
2.09054e-19
5.5794e-05
-1.23076e-19
5.5794e-05
-1.95381e-19
5.5794e-05
-1.23007e-20
5.5794e-05
-3.0215e-19
5.5794e-05
-2.97729e-19
5.5794e-05
-7.91428e-19
-1.76555e-18
0.000164456
-2.046e-18
0.000164456
-1.38291e-18
0.000164456
-9.16549e-19
0.000164456
-5.78122e-19
0.000164456
-3.5558e-19
0.000164456
-2.31877e-19
0.000164456
-2.04096e-19
0.000164456
-1.40812e-19
0.000164456
-1.1191e-19
0.000164456
-8.86104e-20
0.000164456
-7.01919e-20
0.000164456
-1.06856e-19
0.000164456
-3.94665e-20
0.000164456
-4.93318e-20
0.000164456
-6.61042e-20
0.000164456
7.56027e-21
0.000164456
-1.21912e-20
0.000164456
-4.91968e-20
0.000164456
-9.555e-20
0.000164456
-1.19156e-19
0.000164456
-3.81042e-20
0.000164456
-4.39629e-20
0.000164456
-4.16255e-20
0.000164456
-6.19838e-20
0.000164456
-1.11913e-19
0.000164456
-7.86896e-20
0.000164456
3.83465e-20
0.000164456
2.23792e-20
0.000164456
-4.05323e-20
0.000164456
-7.32876e-20
0.000164456
-1.88894e-20
0.000164456
5.43159e-20
0.000164456
4.46427e-20
0.000164456
-7.43019e-21
0.000164456
2.95602e-20
0.000164456
5.0022e-20
0.000164456
9.18881e-20
0.000164456
6.56334e-21
0.000164456
-3.24059e-20
0.000164456
1.08703e-19
0.000164456
5.30473e-20
0.000164456
6.41117e-20
0.000164456
2.33915e-20
0.000164456
-3.12957e-20
0.000164456
7.82832e-20
0.000164456
7.27576e-20
0.000164456
6.63122e-20
0.000164456
3.47878e-20
0.000164456
1.96291e-20
0.000164456
-1.60951e-20
0.000164456
-8.73613e-20
0.000164456
-1.80617e-20
0.000164456
-4.63197e-20
0.000164456
-3.276e-21
0.000164456
1.02065e-19
0.000164456
-3.78779e-20
0.000164456
2.92549e-21
0.000164456
1.49766e-20
0.000164456
3.7003e-21
0.000164456
1.86503e-22
0.000164456
-1.2051e-19
0.000164456
1.04466e-19
0.000164456
-7.52134e-21
0.000164456
-1.92315e-20
0.000164456
1.37455e-19
0.000164456
-4.85577e-21
0.000164456
5.28244e-20
0.000164456
1.40014e-20
0.000164456
9.11176e-20
0.000164456
1.56243e-19
0.000164456
1.81118e-20
0.000164456
-8.90097e-21
0.000164456
-2.44053e-20
0.000164456
2.31368e-20
0.000164456
1.54795e-19
0.000164456
-9.6639e-20
0.000164456
-1.88942e-19
0.000164456
-1.29604e-20
0.000164456
-6.93702e-20
0.000164456
1.08293e-20
0.000164456
-1.52248e-19
0.000164456
-2.54082e-19
0.000164456
-3.24572e-20
0.000164456
6.75626e-20
0.000164456
7.11256e-20
0.000164456
-3.45901e-20
0.000164456
-1.3441e-19
0.000164456
-1.48786e-19
0.000164456
1.27901e-20
0.000164456
1.6067e-19
0.000164456
-7.17538e-20
0.000164456
-1.71805e-19
0.000164456
1.07435e-20
0.000164456
1.2577e-19
0.000164456
4.41109e-20
0.000164456
-7.30344e-20
0.000164456
9.70007e-21
0.000164456
2.26871e-20
0.000164456
9.05952e-20
0.000164456
4.14615e-20
0.000164456
-9.30198e-20
0.000164456
3.69916e-20
0.000164456
1.08799e-20
0.000164456
8.61564e-20
0.000164456
9.97556e-20
0.000164456
2.11895e-20
0.000164456
-1.32218e-19
0.000164456
-3.23541e-21
0.000164456
1.9305e-19
0.000164456
1.45072e-19
0.000164456
6.37265e-20
0.000164456
-3.02338e-19
0.000164456
1.37455e-19
0.000164456
3.68735e-19
0.000164456
1.21428e-19
0.000164456
-5.44956e-20
0.000164456
-2.81751e-19
0.000164456
-8.16147e-20
0.000164456
2.58321e-19
0.000164456
1.46735e-19
0.000164456
-1.33373e-19
0.000164456
-2.79541e-19
0.000164456
1.33109e-20
0.000164456
4.2447e-19
0.000164456
2.47503e-19
0.000164456
-9.55319e-20
0.000164456
-3.19732e-19
0.000164456
2.56364e-20
0.000164456
3.32305e-19
0.000164456
6.82995e-20
0.000164456
-1.31751e-19
0.000164456
-2.3374e-19
0.000164456
1.2234e-20
0.000164456
2.24937e-19
0.000164456
-2.02732e-20
0.000164456
-1.18202e-19
0.000164456
-2.33708e-19
0.000164456
-2.40709e-20
0.000164456
3.03758e-19
0.000164456
1.05996e-19
0.000164456
-7.71664e-20
0.000164456
-1.90245e-19
0.000164456
2.02495e-20
0.000164456
1.25634e-19
0.000164456
-1.05343e-20
0.000164456
-1.3007e-19
0.000164456
-2.87114e-19
0.000164456
-3.85931e-20
0.000164456
1.52284e-20
0.000164456
6.21706e-21
0.000164456
9.41644e-20
0.000164456
-2.4689e-19
0.000164456
-1.92183e-19
0.000164456
9.5804e-20
0.000164456
1.64413e-19
0.000164456
1.60935e-19
0.000164456
-1.20646e-19
0.000164456
-1.9446e-19
0.000164456
8.07076e-20
0.000164456
1.73224e-19
0.000164456
2.35198e-19
0.000164456
-2.04403e-19
0.000164456
-1.07148e-19
0.000164456
1.94481e-19
0.000164456
-1.41351e-19
0.000164456
4.50566e-20
0.000164456
-4.424e-20
0.000164456
-1.64413e-19
0.000164456
8.05166e-20
0.000164456
7.20987e-20
0.000164456
2.12464e-20
0.000164456
-1.24084e-19
0.000164456
-4.95637e-20
0.000164456
5.09269e-20
0.000164456
-6.24359e-21
0.000164456
-1.32335e-19
0.000164456
-1.68465e-19
0.000164456
2.18982e-19
0.000164456
-4.64919e-20
0.000164456
-7.09069e-21
0.000164456
1.34129e-19
0.000164456
-3.94273e-19
0.000164456
-1.03448e-19
0.000164456
6.57407e-20
0.000164456
-6.12937e-20
0.000164456
1.72686e-19
0.000164456
-2.26998e-19
0.000164456
-1.15284e-19
0.000164456
1.39484e-19
0.000164456
-1.78747e-19
0.000164456
2.63948e-23
0.000164456
-3.66293e-20
0.000164456
-1.19426e-19
0.000164456
2.06767e-19
0.000164456
-3.38168e-21
0.000164456
-2.07064e-20
0.000164456
-8.46634e-20
0.000164456
2.61775e-20
0.000164456
2.44283e-19
0.000164456
-1.69027e-19
0.000164456
-4.56158e-20
0.000164456
-9.50682e-20
0.000164456
6.59153e-20
0.000164456
3.15146e-19
0.000164456
-1.20937e-19
0.000164456
-2.34429e-19
0.000164456
-1.34641e-19
0.000164456
1.71626e-19
0.000164456
2.09432e-19
0.000164456
-1.074e-19
0.000164456
-2.50667e-19
0.000164456
-1.63522e-19
0.000164456
5.63027e-19
0.000164456
1.1894e-19
0.000164456
-4.55167e-19
0.000164456
4.25532e-19
0.000164456
1.36676e-19
0.000164456
-9.0524e-20
0.000164456
-1.80197e-19
0.000164456
-2.74596e-19
0.000164456
5.94535e-19
0.000164456
2.49537e-19
0.000164456
-2.05556e-19
0.000164456
-2.16975e-19
0.000164456
-2.96799e-19
0.000164456
6.06286e-19
0.000164456
1.22194e-19
0.000164456
-2.47906e-19
0.000164456
8.28517e-21
0.000164456
-1.47591e-19
0.000164456
3.59475e-19
0.000164456
1.69797e-20
0.000164456
-5.75352e-20
0.000164456
5.41885e-20
0.000164456
-4.76658e-19
0.000164456
2.75412e-20
0.000164456
8.86283e-20
0.000164456
1.76853e-19
0.000164456
1.82028e-19
0.000164456
-4.25373e-19
0.000164456
7.66112e-20
0.000164456
-1.62019e-19
0.000164456
-5.16268e-20
0.000164456
1.43183e-19
0.000164456
-6.24519e-19
0.000164456
-4.20293e-20
0.000164456
2.12314e-19
0.000164456
2.68031e-19
0.000164456
1.97064e-21
0.000164456
-4.42304e-19
0.000164456
4.08268e-19
0.000164456
1.19746e-19
0.000164456
-1.68487e-19
0.000164456
-1.78548e-19
0.000164456
-3.8396e-19
0.000164456
5.84006e-19
0.000164456
9.16619e-20
0.000164456
-7.09618e-20
0.000164456
9.75281e-20
0.000164456
-4.27669e-19
0.000164456
1.84478e-19
0.000164456
3.59272e-20
0.000164456
-1.11888e-19
0.000164456
2.891e-21
0.000164456
-1.67627e-19
0.000164456
4.35761e-19
0.000164456
2.34697e-19
0.000164456
1.34902e-20
0.000164456
-3.71783e-20
0.000164456
-3.45752e-19
0.000164456
2.23591e-19
0.000164456
1.92724e-19
0.000164456
2.19186e-19
0.000164456
1.28765e-20
0.000164456
-3.74617e-19
0.000164456
1.44977e-19
0.000164456
1.76492e-20
0.000164456
-1.52896e-19
0.000164456
9.6383e-20
0.000164456
-3.02222e-19
0.000164456
8.69553e-20
0.000164456
1.16105e-19
0.000164456
-4.87303e-22
0.000164456
2.3425e-21
0.000164456
-3.47714e-19
0.000164456
1.32987e-19
0.000164456
3.28492e-19
0.000164456
9.99418e-22
0.000164456
-2.96026e-19
0.000164456
-2.52054e-19
0.000164456
3.37504e-19
0.000164456
8.65308e-20
0.000164456
-2.57252e-19
0.000164456
-1.5821e-19
0.000164456
-4.79416e-20
0.000164456
3.45441e-19
0.000164456
1.2132e-19
0.000164456
-1.83675e-19
0.000164456
-3.2492e-19
0.000164456
-1.67203e-19
0.000164456
3.7101e-19
0.000164456
2.03053e-19
0.000164456
1.00946e-19
0.000164456
-3.24777e-19
0.000164456
-4.24694e-19
0.000164456
5.93399e-20
0.000164456
5.31224e-20
0.000164456
1.41831e-19
0.000164456
-2.71021e-19
0.000164456
-4.34404e-20
0.000164456
9.51104e-20
0.000164456
-1.09516e-19
0.000164456
2.56608e-19
0.000164456
-1.21764e-19
0.000164456
-3.25994e-19
0.000164456
-1.77667e-19
0.000164456
-4.99889e-19
0.000164456
-4.20096e-19
0.000164456
-9.92599e-19
-1.74091e-18
0.00026995
-1.29908e-18
0.00026995
-1.17779e-18
0.00026995
-8.94857e-19
0.00026995
-6.45735e-19
0.00026995
-4.7586e-19
0.00026995
-3.76352e-19
0.00026995
-2.46526e-19
0.00026995
-1.35759e-19
0.00026995
-1.41213e-19
0.00026995
-1.10383e-19
0.00026995
-5.31163e-20
0.00026995
-1.06048e-19
0.00026995
-3.25628e-20
0.00026995
-9.27557e-20
0.00026995
-1.67292e-19
0.00026995
-1.10326e-19
0.00026995
-8.99185e-20
0.00026995
-1.03434e-19
0.00026995
-1.51319e-19
0.00026995
-1.52018e-19
0.00026995
-1.10424e-19
0.00026995
-1.18013e-19
0.00026995
-1.23225e-19
0.00026995
-6.62229e-20
0.00026995
-9.63856e-20
0.00026995
-9.89102e-20
0.00026995
-4.17776e-20
0.00026995
-1.56332e-20
0.00026995
-5.19419e-20
0.00026995
-5.79472e-20
0.00026995
1.4809e-21
0.00026995
1.62792e-19
0.00026995
7.41489e-20
0.00026995
-7.89774e-21
0.00026995
-2.10068e-20
0.00026995
1.22965e-20
0.00026995
1.33587e-19
0.00026995
1.17797e-19
0.00026995
3.62946e-20
0.00026995
1.0364e-19
0.00026995
1.55186e-19
0.00026995
9.15056e-20
0.00026995
2.92798e-20
0.00026995
-1.28615e-20
0.00026995
6.3268e-20
0.00026995
1.00651e-19
0.00026995
7.49186e-20
0.00026995
8.67112e-20
0.00026995
9.0565e-20
0.00026995
3.63819e-20
0.00026995
-2.90489e-20
0.00026995
-7.27461e-20
0.00026995
-6.68713e-20
0.00026995
2.54893e-20
0.00026995
7.53188e-20
0.00026995
-5.46623e-20
0.00026995
-2.5646e-20
0.00026995
-2.98275e-20
0.00026995
-3.603e-20
0.00026995
5.07528e-20
0.00026995
-9.72626e-20
0.00026995
1.65178e-19
0.00026995
6.26295e-20
0.00026995
-1.88379e-20
0.00026995
1.44471e-19
0.00026995
-6.54358e-21
0.00026995
1.7212e-19
0.00026995
1.76631e-19
0.00026995
1.63669e-19
0.00026995
2.18998e-19
0.00026995
2.06452e-20
0.00026995
7.16396e-20
0.00026995
-5.85936e-20
0.00026995
1.80545e-20
0.00026995
1.0127e-19
0.00026995
-1.61618e-19
0.00026995
-1.88249e-19
0.00026995
-1.29236e-19
0.00026995
-1.60171e-19
0.00026995
-9.37547e-20
0.00026995
-2.1019e-19
0.00026995
-2.61972e-19
0.00026995
2.38498e-20
0.00026995
4.97271e-20
0.00026995
1.34032e-20
0.00026995
-1.6582e-19
0.00026995
-1.55646e-19
0.00026995
-1.23498e-19
0.00026995
-1.39573e-19
0.00026995
7.474e-20
0.00026995
-4.09928e-20
0.00026995
-8.07379e-20
0.00026995
5.83395e-20
0.00026995
1.29346e-19
0.00026995
5.8396e-20
0.00026995
-8.39116e-20
0.00026995
3.31224e-20
0.00026995
4.97736e-20
0.00026995
3.47303e-20
0.00026995
6.05632e-20
0.00026995
-8.73959e-21
0.00026995
6.5365e-20
0.00026995
4.61212e-21
0.00026995
4.24752e-20
0.00026995
1.49764e-19
0.00026995
8.7805e-20
0.00026995
-1.67846e-19
0.00026995
-6.30048e-20
0.00026995
3.03164e-19
0.00026995
3.4857e-19
0.00026995
5.36565e-20
0.00026995
-2.84366e-19
0.00026995
1.2224e-19
0.00026995
4.39292e-19
0.00026995
2.37857e-19
0.00026995
9.24838e-21
0.00026995
-3.55038e-19
0.00026995
-1.55958e-19
0.00026995
3.00096e-19
0.00026995
2.68856e-19
0.00026995
-2.30265e-19
0.00026995
-3.81242e-19
0.00026995
8.37029e-20
0.00026995
5.33481e-19
0.00026995
3.82036e-19
0.00026995
-6.95446e-20
0.00026995
-4.1375e-19
0.00026995
2.28637e-20
0.00026995
4.30266e-19
0.00026995
1.19045e-19
0.00026995
-1.69857e-19
0.00026995
-2.70789e-19
0.00026995
-2.44709e-20
0.00026995
3.03248e-19
0.00026995
1.45959e-20
0.00026995
-1.70279e-19
0.00026995
-2.59988e-19
0.00026995
-2.53165e-20
0.00026995
3.78142e-19
0.00026995
1.81287e-19
0.00026995
-1.01038e-19
0.00026995
-2.96468e-19
0.00026995
3.57107e-20
0.00026995
1.35041e-19
0.00026995
-8.83437e-20
0.00026995
-2.28202e-19
0.00026995
-4.05261e-19
0.00026995
-5.45416e-20
0.00026995
-4.58283e-20
0.00026995
-9.86022e-20
0.00026995
2.18507e-20
0.00026995
-2.68013e-19
0.00026995
-2.33179e-19
0.00026995
9.0179e-20
0.00026995
1.89302e-19
0.00026995
1.63897e-19
0.00026995
-1.34961e-19
0.00026995
-1.86055e-19
0.00026995
1.3608e-19
0.00026995
2.63607e-19
0.00026995
2.73976e-19
0.00026995
-2.32012e-19
0.00026995
-1.427e-19
0.00026995
1.91262e-19
0.00026995
-1.21255e-19
0.00026995
-3.42592e-20
0.00026995
-3.47586e-20
0.00026995
-2.0744e-20
0.00026995
4.72293e-20
0.00026995
1.72045e-20
0.00026995
-5.98517e-20
0.00026995
-1.93798e-19
0.00026995
-9.74588e-20
0.00026995
1.88253e-19
0.00026995
3.24493e-20
0.00026995
-3.36331e-19
0.00026995
-2.39302e-19
0.00026995
7.2229e-20
0.00026995
1.2523e-20
0.00026995
1.60636e-19
0.00026995
-1.48654e-20
0.00026995
-5.25257e-19
0.00026995
-1.48815e-19
0.00026995
1.35559e-19
0.00026995
-6.40675e-20
0.00026995
8.78292e-22
0.00026995
-2.59721e-19
0.00026995
-1.50555e-19
0.00026995
5.83262e-20
0.00026995
-1.56746e-19
0.00026995
-9.98534e-20
0.00026995
-1.01447e-19
0.00026995
-9.80402e-20
0.00026995
1.25598e-19
0.00026995
9.8098e-20
0.00026995
-3.90844e-20
0.00026995
-6.0119e-20
0.00026995
2.85708e-21
0.00026995
1.42275e-19
0.00026995
7.87997e-21
0.00026995
-2.37942e-20
0.00026995
-1.16437e-19
0.00026995
9.52432e-20
0.00026995
2.42036e-19
0.00026995
-3.32316e-20
0.00026995
-1.82523e-19
0.00026995
-1.97849e-19
0.00026995
1.02894e-19
0.00026995
6.67934e-20
0.00026995
-9.39015e-20
0.00026995
-1.70329e-19
0.00026995
-2.20801e-19
0.00026995
6.05835e-19
0.00026995
2.11418e-19
0.00026995
-2.68133e-19
0.00026995
3.73614e-19
0.00026995
2.88632e-20
0.00026995
7.97589e-20
0.00026995
-1.01628e-19
0.00026995
-3.39472e-19
0.00026995
6.34012e-19
0.00026995
2.7021e-19
0.00026995
-7.03963e-20
0.00026995
-1.64207e-19
0.00026995
-4.22685e-19
0.00026995
6.09624e-19
0.00026995
1.7862e-19
0.00026995
-2.99904e-19
0.00026995
-2.20319e-20
0.00026995
-1.47374e-19
0.00026995
5.44969e-19
0.00026995
1.44824e-19
0.00026995
-1.73634e-20
0.00026995
-3.41668e-20
0.00026995
-5.79873e-19
0.00026995
-7.14745e-20
0.00026995
8.11781e-20
0.00026995
3.79398e-19
0.00026995
2.05129e-19
0.00026995
-6.44368e-19
0.00026995
-1.20357e-20
0.00026995
-3.11911e-19
0.00026995
-1.08019e-19
0.00026995
1.01172e-19
0.00026995
-8.06551e-19
0.00026995
-3.86441e-20
0.00026995
9.86741e-20
0.00026995
2.0805e-19
0.00026995
1.04076e-19
0.00026995
-4.83761e-19
0.00026995
5.79568e-19
0.00026995
2.03417e-19
0.00026995
-2.48278e-19
0.00026995
-3.16354e-19
0.00026995
-3.80442e-19
0.00026995
8.08189e-19
0.00026995
1.22893e-19
0.00026995
-1.16895e-19
0.00026995
1.54796e-19
0.00026995
-5.55038e-19
0.00026995
1.30142e-19
0.00026995
-6.6506e-20
0.00026995
-1.01639e-19
0.00026995
-4.62818e-20
0.00026995
-1.83698e-19
0.00026995
6.29249e-19
0.00026995
1.94313e-19
0.00026995
1.80273e-19
0.00026995
1.12106e-19
0.00026995
-4.72376e-19
0.00026995
3.86114e-19
0.00026995
2.53441e-19
0.00026995
3.12268e-19
0.00026995
1.23897e-19
0.00026995
-6.11795e-19
0.00026995
2.55742e-19
0.00026995
-8.92441e-20
0.00026995
-1.15836e-19
0.00026995
1.28599e-19
0.00026995
-5.4205e-19
0.00026995
1.74653e-19
0.00026995
3.09331e-20
0.00026995
2.23758e-20
0.00026995
1.08131e-19
0.00026995
-5.63329e-19
0.00026995
3.17395e-19
0.00026995
3.33358e-19
0.00026995
-1.73009e-19
0.00026995
-2.99808e-19
0.00026995
-3.33533e-19
0.00026995
4.55362e-19
0.00026995
1.05818e-19
0.00026995
-3.17892e-19
0.00026995
-1.16633e-19
0.00026995
-1.76809e-19
0.00026995
4.00264e-19
0.00026995
2.03758e-19
0.00026995
-3.99803e-19
0.00026995
-3.48123e-19
0.00026995
-2.89401e-19
0.00026995
4.20196e-19
0.00026995
4.09784e-19
0.00026995
4.38169e-20
0.00026995
-4.01718e-19
0.00026995
-5.00196e-19
0.00026995
2.35528e-19
0.00026995
-5.86876e-21
0.00026995
-3.85614e-20
0.00026995
-2.42373e-19
0.00026995
-9.65652e-20
0.00026995
2.77108e-19
0.00026995
-8.3006e-20
0.00026995
2.01367e-19
0.00026995
8.08992e-20
0.00026995
-3.96844e-19
0.00026995
-2.77189e-19
0.00026995
-6.48392e-19
0.00026995
-4.61908e-19
0.00026995
-9.22531e-19
-1.4697e-18
0.000372041
-9.88465e-19
0.000372041
-9.22116e-19
0.000372041
-7.8714e-19
0.000372041
-6.87078e-19
0.000372041
-5.10545e-19
0.000372041
-3.54733e-19
0.000372041
-2.66411e-19
0.000372041
-1.97814e-19
0.000372041
-1.99612e-19
0.000372041
-1.41759e-19
0.000372041
-6.25952e-20
0.000372041
-8.03723e-20
0.000372041
-1.25242e-19
0.000372041
-1.54684e-19
0.000372041
-2.36835e-19
0.000372041
-2.04854e-19
0.000372041
-1.47294e-19
0.000372041
-1.83971e-19
0.000372041
-2.36662e-19
0.000372041
-1.9384e-19
0.000372041
-1.29085e-19
0.000372041
-1.74756e-19
0.000372041
-1.83921e-19
0.000372041
-1.83532e-19
0.000372041
-1.37971e-19
0.000372041
-8.38212e-20
0.000372041
-2.48919e-20
0.000372041
-6.46891e-20
0.000372041
-9.44121e-20
0.000372041
-6.94319e-20
0.000372041
8.41535e-20
0.000372041
2.64248e-19
0.000372041
1.37961e-19
0.000372041
2.61504e-20
0.000372041
-6.00045e-20
0.000372041
-8.85043e-21
0.000372041
1.73823e-19
0.000372041
1.28708e-19
0.000372041
3.23343e-20
0.000372041
1.32366e-19
0.000372041
1.04076e-19
0.000372041
1.00711e-19
0.000372041
8.37211e-20
0.000372041
4.81393e-20
0.000372041
7.64801e-20
0.000372041
1.12873e-19
0.000372041
1.80875e-19
0.000372041
2.06706e-19
0.000372041
9.11473e-20
0.000372041
2.69934e-20
0.000372041
-5.55253e-20
0.000372041
-2.55335e-20
0.000372041
-4.19115e-22
0.000372041
-7.99055e-20
0.000372041
5.41775e-20
0.000372041
-2.31379e-20
0.000372041
-6.06132e-20
0.000372041
-3.92399e-20
0.000372041
-8.47879e-20
0.000372041
-1.00791e-20
0.000372041
-9.51163e-20
0.000372041
1.7162e-19
0.000372041
1.57146e-19
0.000372041
7.3164e-20
0.000372041
1.64021e-19
0.000372041
3.63729e-20
0.000372041
2.81999e-19
0.000372041
2.84282e-19
0.000372041
2.96507e-19
0.000372041
3.08634e-19
0.000372041
8.58317e-20
0.000372041
-4.30699e-20
0.000372041
-1.14359e-19
0.000372041
-5.26924e-21
0.000372041
8.18582e-20
0.000372041
-1.83706e-19
0.000372041
-2.59601e-19
0.000372041
-2.26845e-19
0.000372041
-3.04293e-19
0.000372041
-1.34981e-19
0.000372041
-2.39516e-19
0.000372041
-2.74242e-19
0.000372041
-4.26443e-20
0.000372041
2.19884e-20
0.000372041
-6.18308e-20
0.000372041
-1.85382e-19
0.000372041
-1.71608e-19
0.000372041
-2.0139e-19
0.000372041
-1.79682e-19
0.000372041
9.50559e-20
0.000372041
6.7313e-20
0.000372041
-5.07383e-20
0.000372041
1.70399e-20
0.000372041
8.46243e-20
0.000372041
1.03829e-19
0.000372041
-8.29106e-20
0.000372041
-3.4284e-20
0.000372041
-5.24846e-20
0.000372041
-8.33154e-21
0.000372041
9.41876e-20
0.000372041
5.85817e-20
0.000372041
6.37354e-20
0.000372041
3.14209e-21
0.000372041
1.6609e-20
0.000372041
1.75832e-19
0.000372041
1.95889e-19
0.000372041
-7.63573e-20
0.000372041
-7.62035e-20
0.000372041
3.5031e-19
0.000372041
4.5044e-19
0.000372041
1.85974e-19
0.000372041
-1.97378e-19
0.000372041
1.08363e-19
0.000372041
4.61505e-19
0.000372041
3.61586e-19
0.000372041
-2.69227e-20
0.000372041
-4.33109e-19
0.000372041
-1.91957e-19
0.000372041
3.936e-19
0.000372041
1.92639e-19
0.000372041
-2.69648e-19
0.000372041
-3.91401e-19
0.000372041
4.67247e-20
0.000372041
6.35984e-19
0.000372041
5.82062e-19
0.000372041
-1.21076e-20
0.000372041
-4.43332e-19
0.000372041
6.35961e-20
0.000372041
5.61991e-19
0.000372041
1.19339e-19
0.000372041
-1.98565e-19
0.000372041
-2.50305e-19
0.000372041
-1.50589e-21
0.000372041
2.68718e-19
0.000372041
1.16504e-19
0.000372041
-1.06337e-19
0.000372041
-3.26292e-19
0.000372041
-1.11722e-19
0.000372041
4.00629e-19
0.000372041
2.26865e-19
0.000372041
-1.50507e-19
0.000372041
-2.98283e-19
0.000372041
6.00073e-20
0.000372041
1.57435e-19
0.000372041
-1.78103e-19
0.000372041
-3.05329e-19
0.000372041
-4.80259e-19
0.000372041
-1.58561e-19
0.000372041
-6.73516e-20
0.000372041
-1.54704e-19
0.000372041
-3.64781e-20
0.000372041
-3.17533e-19
0.000372041
-2.27424e-19
0.000372041
1.97464e-20
0.000372041
2.17757e-19
0.000372041
1.58741e-19
0.000372041
-1.55491e-19
0.000372041
-1.75679e-19
0.000372041
9.77639e-20
0.000372041
2.84577e-19
0.000372041
2.79858e-19
0.000372041
-2.35106e-19
0.000372041
-1.0239e-19
0.000372041
1.50639e-19
0.000372041
-1.86825e-19
0.000372041
-5.59906e-21
0.000372041
1.16383e-21
0.000372041
6.45072e-21
0.000372041
1.00921e-19
0.000372041
4.25738e-20
0.000372041
-1.27455e-19
0.000372041
-4.06848e-19
0.000372041
3.28562e-20
0.000372041
2.44378e-19
0.000372041
-1.60084e-19
0.000372041
-3.52794e-19
0.000372041
-3.34059e-19
0.000372041
-5.20638e-20
0.000372041
-4.35568e-20
0.000372041
1.53093e-19
0.000372041
-4.74825e-20
0.000372041
-6.56679e-19
0.000372041
-2.96039e-19
0.000372041
4.73255e-20
0.000372041
-5.37024e-20
0.000372041
-9.49122e-20
0.000372041
-3.56639e-19
0.000372041
-2.05748e-19
0.000372041
1.04286e-20
0.000372041
-1.79276e-19
0.000372041
-2.07815e-19
0.000372041
-7.76804e-20
0.000372041
-7.00007e-20
0.000372041
1.65406e-19
0.000372041
1.71444e-19
0.000372041
1.92305e-20
0.000372041
-7.84748e-20
0.000372041
-4.54135e-20
0.000372041
1.20754e-19
0.000372041
-6.41704e-21
0.000372041
-8.35348e-20
0.000372041
-9.27186e-20
0.000372041
1.59778e-19
0.000372041
2.43773e-19
0.000372041
3.14326e-20
0.000372041
-1.49027e-19
0.000372041
-2.05973e-19
0.000372041
8.14635e-20
0.000372041
2.56787e-22
0.000372041
-9.00212e-20
0.000372041
-6.77767e-20
0.000372041
-2.35142e-19
0.000372041
5.9752e-19
0.000372041
3.49789e-19
0.000372041
-1.67541e-19
0.000372041
4.61226e-19
0.000372041
9.87566e-20
0.000372041
1.66211e-19
0.000372041
-6.80043e-20
0.000372041
-3.16309e-19
0.000372041
7.30758e-19
0.000372041
3.56132e-19
0.000372041
8.99819e-20
0.000372041
-8.07285e-20
0.000372041
-4.61116e-19
0.000372041
5.51356e-19
0.000372041
2.25386e-19
0.000372041
-2.41625e-19
0.000372041
-1.81236e-20
0.000372041
-1.06735e-19
0.000372041
6.08743e-19
0.000372041
2.34447e-19
0.000372041
-1.54342e-19
0.000372041
-6.9723e-20
0.000372041
-5.30631e-19
0.000372041
-5.8363e-20
0.000372041
-1.01929e-20
0.000372041
4.09191e-19
0.000372041
2.07207e-19
0.000372041
-7.34593e-19
0.000372041
-2.64898e-19
0.000372041
-5.05607e-19
0.000372041
-1.5102e-19
0.000372041
4.98159e-20
0.000372041
-9.12506e-19
0.000372041
-1.72456e-19
0.000372041
-7.56622e-21
0.000372041
1.60341e-19
0.000372041
1.55711e-19
0.000372041
-3.62996e-19
0.000372041
7.21802e-19
0.000372041
2.36734e-19
0.000372041
-4.4995e-19
0.000372041
-3.80731e-19
0.000372041
-2.70672e-19
0.000372041
8.07336e-19
0.000372041