/*--------------------------------*- C++ -*----------------------------------*\
| =========                 |                                                 |
| \\      /  F ield         | OpenFOAM: The Open Source CFD Toolbox           |
|  \\    /   O peration     | Version:  2112                                  |
|   \\  /    A nd           | Website:  www.openfoam.com                      |
|    \\/     M anipulation  |                                                 |
\*---------------------------------------------------------------------------*/
FoamFile
{
    version     2.0;
    format      ascii;
    arch        "LSB;label=32;scalar=64";
    class       volVectorField;
    location    "2";
    object      U;
}
// * * * * * * * * * * * * * * * * * * * * * * * * * * * * * * * * * * * * * //

dimensions      [0 1 -1 0 0 0 0];

internalField   nonuniform List<vector> 
25600
(
(0.0446349 -1.53509e-15 0)
(0.0446349 -5.57574e-16 0)
(0.0446349 -2.504e-16 0)
(0.0446349 -1.2785e-16 0)
(0.0446349 -6.52976e-17 0)
(0.0446349 -3.67908e-17 0)
(0.0446349 -3.71141e-17 0)
(0.0446349 -2.91051e-17 0)
(0.0446349 -1.65613e-17 0)
(0.0446349 -1.67356e-17 0)
(0.0446349 -1.37122e-17 0)
(0.0446349 -3.0165e-17 0)
(0.0446349 -6.53667e-18 0)
(0.0446349 1.07057e-18 0)
(0.0446349 -6.88415e-18 0)
(0.0446349 8.48915e-18 0)
(0.0446349 -1.52102e-18 0)
(0.0446349 -4.96342e-18 0)
(0.0446349 -9.39167e-18 0)
(0.0446349 -9.83497e-18 0)
(0.0446349 1.36183e-18 0)
(0.0446349 7.81487e-18 0)
(0.0446349 -5.54712e-18 0)
(0.0446349 -1.9167e-17 0)
(0.0446349 -2.53848e-17 0)
(0.0446349 -3.59337e-18 0)
(0.0446349 4.31029e-17 0)
(0.0446349 1.18675e-18 0)
(0.0446349 -3.69689e-17 0)
(0.0446349 -1.25047e-17 0)
(0.0446349 8.61517e-18 0)
(0.0446349 1.24317e-17 0)
(0.0446349 4.57747e-18 0)
(0.0446349 -1.29289e-17 0)
(0.0446349 -2.13749e-18 0)
(0.0446349 -2.93706e-18 0)
(0.0446349 1.06171e-17 0)
(0.0446349 -6.01095e-18 0)
(0.0446349 -3.9132e-18 0)
(0.0446349 1.11849e-17 0)
(0.0446349 6.44443e-18 0)
(0.0446349 2.88724e-17 0)
(0.0446349 -1.48431e-17 0)
(0.0446349 -2.43428e-17 0)
(0.0446349 4.0065e-17 0)
(0.0446349 -9.76597e-18 0)
(0.0446349 1.05115e-17 0)
(0.0446349 -2.17294e-18 0)
(0.0446349 -6.72088e-18 0)
(0.0446349 -1.01966e-17 0)
(0.0446349 -5.08396e-17 0)
(0.0446349 3.83839e-17 0)
(0.0446349 -3.06968e-18 0)
(0.0446349 2.05431e-18 0)
(0.0446349 4.31158e-17 0)
(0.0446349 -4.17228e-17 0)
(0.0446349 1.53047e-18 0)
(0.0446349 -1.76661e-17 0)
(0.0446349 5.78474e-18 0)
(0.0446349 5.8105e-17 0)
(0.0446349 -4.85506e-17 0)
(0.0446349 7.54826e-19 0)
(0.0446349 1.73336e-18 0)
(0.0446349 3.79574e-19 0)
(0.0446349 2.85377e-17 0)
(0.0446349 -2.02794e-17 0)
(0.0446349 -5.63575e-18 0)
(0.0446349 -2.43908e-17 0)
(0.0446349 2.41414e-17 0)
(0.0446349 1.7326e-17 0)
(0.0446349 2.02754e-18 0)
(0.0446349 -3.54067e-18 0)
(0.0446349 -1.43815e-18 0)
(0.0446349 -1.19011e-18 0)
(0.0446349 1.97276e-17 0)
(0.0446349 -2.58694e-18 0)
(0.0446349 -2.48216e-17 0)
(0.0446349 2.10889e-17 0)
(0.0446349 -3.81518e-18 0)
(0.0446349 3.71057e-17 0)
(0.0446349 -5.24531e-17 0)
(0.0446349 -6.17923e-17 0)
(0.0446349 3.76812e-17 0)
(0.0446349 1.47111e-17 0)
(0.0446349 5.03392e-17 0)
(0.0446349 -5.29323e-18 0)
(0.0446349 -9.05491e-17 0)
(0.0446349 -9.01088e-18 0)
(0.0446349 4.68482e-17 0)
(0.0446349 5.76513e-17 0)
(0.0446349 -1.64907e-17 0)
(0.0446349 -9.70556e-17 0)
(0.0446349 -9.17844e-19 0)
(0.0446349 9.61325e-17 0)
(0.0446349 9.28825e-18 0)
(0.0446349 -8.65017e-17 0)
(0.0446349 -4.41941e-18 0)
(0.0446349 9.88749e-18 0)
(0.0446349 8.52631e-17 0)
(0.0446349 4.23432e-17 0)
(0.0446349 -1.35647e-16 0)
(0.0446349 -1.27334e-18 0)
(0.0446349 7.06343e-18 0)
(0.0446349 8.38288e-17 0)
(0.0446349 1.14263e-17 0)
(0.0446349 -3.88408e-17 0)
(0.0446349 -5.05954e-17 0)
(0.0446349 3.4464e-17 0)
(0.0446349 5.32918e-17 0)
(0.0446349 -1.83991e-17 0)
(0.0446349 2.82296e-17 0)
(0.0446349 -1.40579e-16 0)
(0.0446349 4.26965e-17 0)
(0.0446349 1.04138e-16 0)
(0.0446349 1.1781e-17 0)
(0.0446349 -5.02767e-17 0)
(0.0446349 -9.89547e-17 0)
(0.0446349 6.75723e-17 0)
(0.0446349 6.89102e-17 0)
(0.0446349 1.88842e-17 0)
(0.0446349 -1.87881e-17 0)
(0.0446349 -1.06751e-16 0)
(0.0446349 -9.10073e-18 0)
(0.0446349 1.09961e-16 0)
(0.0446349 2.37913e-17 0)
(0.0446349 -5.13316e-17 0)
(0.0446349 -6.69777e-17 0)
(0.0446349 7.31228e-18 0)
(0.0446349 1.08348e-16 0)
(0.0446349 6.83682e-18 0)
(0.0446349 -5.27813e-17 0)
(0.0446349 -5.2228e-17 0)
(0.0446349 4.46817e-17 0)
(0.0446349 4.87834e-17 0)
(0.0446349 -3.95408e-17 0)
(0.0446349 -4.82144e-17 0)
(0.0446349 -1.77194e-17 0)
(0.0446349 7.26845e-17 0)
(0.0446349 2.57504e-17 0)
(0.0446349 -3.50051e-17 0)
(0.0446349 -5.09602e-17 0)
(0.0446349 -8.71946e-18 0)
(0.0446349 8.74973e-17 0)
(0.0446349 1.89573e-17 0)
(0.0446349 -6.84816e-17 0)
(0.0446349 6.48652e-17 0)
(0.0446349 -1.70543e-17 0)
(0.0446349 -7.76792e-17 0)
(0.0446349 -8.91776e-18 0)
(0.0446349 4.45674e-18 0)
(0.0446349 9.84658e-17 0)
(0.0446349 -1.00037e-17 0)
(0.0446349 -9.17653e-17 0)
(0.0446349 -7.55714e-19 0)
(0.0446349 4.90318e-17 0)
(0.0446349 5.041e-17 0)
(0.0446349 -5.60645e-17 0)
(0.0446349 -6.01792e-17 0)
(0.0446349 4.59433e-17 0)
(0.0446349 2.44201e-17 0)
(0.0446349 8.76918e-17 0)
(0.0446349 -9.96442e-17 0)
(0.0446349 -8.75212e-17 0)
(0.0446349 9.2225e-17 0)
(0.0446349 -7.41046e-19 0)
(0.0446349 8.41567e-17 0)
(0.0446349 -6.80176e-17 0)
(0.0446349 -2.97116e-17 0)
(0.0446349 -6.40993e-20 0)
(0.0446349 -6.80307e-17 0)
(0.0446349 1.5546e-16 0)
(0.0446349 -7.5044e-17 0)
(0.0446349 -8.5907e-18 0)
(0.0446349 8.11223e-18 0)
(0.0446349 -5.98435e-17 0)
(0.0446349 1.38934e-16 0)
(0.0446349 -8.63487e-17 0)
(0.0446349 4.03937e-18 0)
(0.0446349 -1.7216e-17 0)
(0.0446349 -6.64294e-17 0)
(0.0446349 1.66264e-16 0)
(0.0446349 -9.23519e-17 0)
(0.0446349 -1.40141e-17 0)
(0.0446349 3.7435e-18 0)
(0.0446349 -7.54162e-17 0)
(0.0446349 1.65598e-16 0)
(0.0446349 -7.84699e-17 0)
(0.0446349 -1.20139e-17 0)
(0.0446349 7.87567e-17 0)
(0.0446349 -1.61698e-16 0)
(0.0446349 8.11125e-17 0)
(0.0446349 -2.25538e-18 0)
(0.0446349 -8.37294e-17 0)
(0.0446349 1.66715e-16 0)
(0.0446349 -6.30016e-17 0)
(0.0446349 -9.55097e-18 0)
(0.0446349 -9.249e-17 0)
(0.0446349 8.81928e-18 0)
(0.0446349 2.48502e-16 0)
(0.0446349 -1.5211e-16 0)
(0.0446349 -1.5821e-17 0)
(0.0446349 -8.58939e-17 0)
(0.0446349 8.98478e-18 0)
(0.0446349 2.50833e-16 0)
(0.0446349 -1.56375e-16 0)
(0.0446349 -1.19043e-16 0)
(0.0446349 -1.20408e-17 0)
(0.0446349 1.12061e-16 0)
(0.0446349 1.76066e-16 0)
(0.0446349 -8.5776e-17 0)
(0.0446349 -1.90252e-16 0)
(0.0446349 -8.78348e-17 0)
(0.0446349 2.7682e-16 0)
(0.0446349 6.40948e-18 0)
(0.0446349 -2.6154e-16 0)
(0.0446349 2.54115e-16 0)
(0.0446349 9.91991e-17 0)
(0.0446349 -1.68167e-16 0)
(0.0446349 -1.08934e-16 0)
(0.0446349 -9.38449e-17 0)
(0.0446349 2.79966e-16 0)
(0.0446349 1.13974e-16 0)
(0.0446349 -1.70778e-16 0)
(0.0446349 -1.16369e-16 0)
(0.0446349 -9.74261e-17 0)
(0.0446349 2.82458e-16 0)
(0.0446349 2.27422e-17 0)
(0.0446349 -1.10151e-16 0)
(0.0446349 -1.58205e-17 0)
(0.0446349 -1.472e-16 0)
(0.0446349 2.53668e-16 0)
(0.0446349 5.4128e-18 0)
(0.0446349 -1.5647e-16 0)
(0.0446349 5.82148e-17 0)
(0.0446349 -9.64289e-17 0)
(0.0446349 1.54357e-16 0)
(0.0446349 1.57125e-17 0)
(0.0446349 -6.27014e-17 0)
(0.0446349 3.96798e-19 0)
(0.0446349 -1.75317e-16 0)
(0.0446349 2.37597e-16 0)
(0.0446349 3.65453e-18 0)
(0.0446349 -7.75313e-17 0)
(0.0446349 7.3722e-17 0)
(0.0446349 -2.00215e-16 0)
(0.0446349 -1.12089e-17 0)
(0.0446349 9.78679e-17 0)
(0.0446349 1.03735e-16 0)
(0.0446349 -3.45496e-18 0)
(0.0446349 -1.94742e-16 0)
(0.0446349 1.00102e-16 0)
(0.0446349 1.79225e-17 0)
(0.0446349 -9.7038e-18 0)
(0.0446349 5.77897e-17 0)
(0.0446349 -1.77661e-16 0)
(0.0446349 1.11234e-16 0)
(0.0446349 1.13224e-17 0)
(0.0446349 3.00691e-19 0)
(0.0446349 8.13047e-17 0)
(0.0446349 -1.90121e-16 0)
(0.0446349 8.0901e-17 0)
(0.0446349 1.96069e-17 0)
(0.0446349 -5.46452e-18 0)
(0.0446349 6.95008e-17 0)
(0.0446349 -1.64829e-16 0)
(0.0446349 1.04407e-16 0)
(0.0446349 8.83211e-17 0)
(0.0446349 -7.32273e-17 0)
(0.0446349 -1.87914e-17 0)
(0.0446349 -9.86242e-17 0)
(0.0446349 9.34564e-17 0)
(0.0446349 8.19006e-17 0)
(0.0446349 -1.25069e-16 0)
(0.0446349 6.70435e-17 0)
(0.0446349 -2.73117e-17 0)
(0.0446349 2.29169e-17 0)
(0.0446349 6.74857e-17 0)
(0.0446349 -1.52492e-16 0)
(0.0446349 7.48709e-17 0)
(0.0446349 -2.01298e-17 0)
(0.0446349 7.86777e-18 0)
(0.0446349 6.99706e-17 0)
(0.0446349 -1.44853e-16 0)
(0.0446349 7.58666e-17 0)
(0.0446349 -2.25764e-17 0)
(0.0446349 -5.77455e-17 0)
(0.0446349 1.6794e-16 0)
(0.0446349 -5.59815e-17 0)
(0.0446349 -4.69849e-17 0)
(0.0446349 -1.01975e-16 0)
(0.0446349 4.491e-17 0)
(0.0446349 2.46858e-16 0)
(0.0446349 -1.05526e-17 0)
(0.0446349 -2.54373e-16 0)
(0.0446349 -3.29362e-17 0)
(0.0446349 1.11567e-16 0)
(0.0446349 2.58068e-17 0)
(0.0446349 1.2804e-16 0)
(0.0446349 -2.45826e-16 0)
(0.0446349 -3.4738e-17 0)
(0.0446349 1.03243e-16 0)
(0.0446349 2.14369e-17 0)
(0.0446349 8.20501e-17 0)
(0.0446349 -1.64051e-16 0)
(0.0446349 2.54554e-17 0)
(0.0446349 7.69786e-18 0)
(0.0446349 -6.66587e-17 0)
(0.0446349 1.41779e-16 0)
(0.0446349 -9.27177e-17 0)
(0.0446349 -1.57758e-17 0)
(0.0446349 -5.00537e-18 0)
(0.0446349 -9.00999e-17 0)
(0.0446349 1.60813e-16 0)
(0.0446349 -9.22863e-17 0)
(0.0446349 -1.27879e-16 0)
(0.0446349 4.16754e-17 0)
(0.0446349 -7.04924e-17 0)
(0.0446349 -3.57647e-17 0)
(0.0446349 -3.37016e-16 0)
(0.0446349 -6.84073e-16 0)
(0.131564 -2.6098e-15 0)
(0.131564 -1.16195e-15 0)
(0.131564 -6.53252e-16 0)
(0.131564 -3.91643e-16 0)
(0.131564 -2.28213e-16 0)
(0.131564 -1.43531e-16 0)
(0.131564 -1.25246e-16 0)
(0.131564 -9.69671e-17 0)
(0.131564 -7.02996e-17 0)
(0.131564 -5.28717e-17 0)
(0.131564 -5.45591e-17 0)
(0.131564 -7.67167e-17 0)
(0.131564 -2.70157e-17 0)
(0.131564 -1.59268e-17 0)
(0.131564 -2.84979e-17 0)
(0.131564 2.52618e-18 0)
(0.131564 3.93799e-18 0)
(0.131564 -9.82101e-18 0)
(0.131564 -6.01845e-17 0)
(0.131564 -6.86404e-17 0)
(0.131564 -1.60795e-17 0)
(0.131564 -1.1263e-17 0)
(0.131564 -2.03952e-17 0)
(0.131564 -4.88063e-17 0)
(0.131564 -7.23493e-17 0)
(0.131564 -4.55307e-17 0)
(0.131564 4.82518e-17 0)
(0.131564 1.45416e-17 0)
(0.131564 -4.25582e-17 0)
(0.131564 -4.56476e-17 0)
(0.131564 -1.43298e-17 0)
(0.131564 2.96375e-17 0)
(0.131564 2.64397e-17 0)
(0.131564 -8.28285e-18 0)
(0.131564 1.63638e-17 0)
(0.131564 2.30315e-17 0)
(0.131564 5.75803e-17 0)
(0.131564 -2.18705e-17 0)
(0.131564 -2.84707e-17 0)
(0.131564 8.76096e-17 0)
(0.131564 2.02263e-17 0)
(0.131564 2.93415e-17 0)
(0.131564 1.04765e-17 0)
(0.131564 -2.72109e-17 0)
(0.131564 6.99837e-17 0)
(0.131564 2.53093e-17 0)
(0.131564 3.38682e-17 0)
(0.131564 1.45777e-17 0)
(0.131564 -5.25463e-18 0)
(0.131564 -2.61834e-17 0)
(0.131564 -8.43058e-17 0)
(0.131564 2.25107e-17 0)
(0.131564 -2.35751e-17 0)
(0.131564 8.6323e-19 0)
(0.131564 8.5276e-17 0)
(0.131564 -3.58141e-17 0)
(0.131564 5.66474e-18 0)
(0.131564 7.40852e-18 0)
(0.131564 4.03174e-18 0)
(0.131564 6.69321e-18 0)
(0.131564 -8.12544e-17 0)
(0.131564 4.87455e-17 0)
(0.131564 -1.49947e-18 0)
(0.131564 -3.71556e-18 0)
(0.131564 6.96789e-17 0)
(0.131564 -9.45591e-18 0)
(0.131564 1.49302e-17 0)
(0.131564 3.13055e-18 0)
(0.131564 4.03865e-17 0)
(0.131564 8.57755e-17 0)
(0.131564 6.66939e-18 0)
(0.131564 -8.24028e-18 0)
(0.131564 -9.83601e-18 0)
(0.131564 -1.27472e-17 0)
(0.131564 1.3632e-16 0)
(0.131564 -7.05684e-17 0)
(0.131564 -1.31911e-16 0)
(0.131564 3.65381e-17 0)
(0.131564 -2.61005e-17 0)
(0.131564 3.38688e-17 0)
(0.131564 -7.52671e-17 0)
(0.131564 -1.92086e-16 0)
(0.131564 -3.04855e-17 0)
(0.131564 7.28272e-17 0)
(0.131564 7.73179e-17 0)
(0.131564 -1.85504e-17 0)
(0.131564 -1.50373e-16 0)
(0.131564 -9.80753e-17 0)
(0.131564 9.33535e-17 0)
(0.131564 1.37965e-16 0)
(0.131564 -6.80824e-17 0)
(0.131564 -1.50713e-16 0)
(0.131564 -3.91466e-18 0)
(0.131564 1.35686e-16 0)
(0.131564 3.41255e-17 0)
(0.131564 -9.81123e-17 0)
(0.131564 -7.04912e-18 0)
(0.131564 1.64884e-17 0)
(0.131564 1.15787e-16 0)
(0.131564 5.08035e-17 0)
(0.131564 -1.51006e-16 0)
(0.131564 4.53178e-17 0)
(0.131564 -1.54869e-17 0)
(0.131564 6.77901e-17 0)
(0.131564 7.45123e-17 0)
(0.131564 -2.92713e-17 0)
(0.131564 -9.05105e-17 0)
(0.131564 4.0783e-17 0)
(0.131564 1.15461e-16 0)
(0.131564 3.048e-17 0)
(0.131564 5.31886e-17 0)
(0.131564 -2.19875e-16 0)
(0.131564 8.59362e-17 0)
(0.131564 2.68458e-16 0)
(0.131564 3.75747e-17 0)
(0.131564 -6.81325e-17 0)
(0.131564 -1.59322e-16 0)
(0.131564 -2.1738e-18 0)
(0.131564 1.36479e-16 0)
(0.131564 3.4482e-17 0)
(0.131564 -5.42493e-17 0)
(0.131564 -1.64928e-16 0)
(0.131564 2.26516e-18 0)
(0.131564 2.50714e-16 0)
(0.131564 1.13874e-16 0)
(0.131564 -7.12034e-17 0)
(0.131564 -1.57738e-16 0)
(0.131564 1.14739e-17 0)
(0.131564 2.07709e-16 0)
(0.131564 4.22469e-17 0)
(0.131564 -9.91203e-17 0)
(0.131564 -1.31464e-16 0)
(0.131564 3.31096e-17 0)
(0.131564 1.11748e-16 0)
(0.131564 -2.62331e-17 0)
(0.131564 -2.09801e-17 0)
(0.131564 -1.47347e-16 0)
(0.131564 -5.03824e-17 0)
(0.131564 1.5229e-16 0)
(0.131564 6.36743e-17 0)
(0.131564 8.39127e-18 0)
(0.131564 -1.11857e-16 0)
(0.131564 -3.81086e-17 0)
(0.131564 9.28981e-17 0)
(0.131564 5.31214e-17 0)
(0.131564 -5.48897e-17 0)
(0.131564 -1.98366e-16 0)
(0.131564 -4.56555e-17 0)
(0.131564 1.28594e-17 0)
(0.131564 9.30241e-17 0)
(0.131564 9.99164e-17 0)
(0.131564 -2.48448e-16 0)
(0.131564 -1.65132e-16 0)
(0.131564 1.08798e-16 0)
(0.131564 1.31892e-16 0)
(0.131564 9.63497e-17 0)
(0.131564 -1.04241e-16 0)
(0.131564 -1.18203e-16 0)
(0.131564 6.89043e-17 0)
(0.131564 9.31772e-17 0)
(0.131564 1.51923e-16 0)
(0.131564 -1.34666e-16 0)
(0.131564 -3.17482e-17 0)
(0.131564 1.30056e-16 0)
(0.131564 -1.9766e-16 0)
(0.131564 6.4825e-17 0)
(0.131564 -3.11438e-17 0)
(0.131564 -2.00446e-16 0)
(0.131564 1.69803e-16 0)
(0.131564 1.22914e-16 0)
(0.131564 1.57949e-17 0)
(0.131564 -1.30784e-16 0)
(0.131564 -2.80178e-17 0)
(0.131564 1.64752e-17 0)
(0.131564 -8.58066e-17 0)
(0.131564 -5.64719e-17 0)
(0.131564 -4.74497e-17 0)
(0.131564 2.98324e-16 0)
(0.131564 -6.85328e-17 0)
(0.131564 -1.52946e-16 0)
(0.131564 1.68704e-16 0)
(0.131564 -2.05663e-16 0)
(0.131564 -5.71927e-17 0)
(0.131564 1.41064e-17 0)
(0.131564 -8.07745e-17 0)
(0.131564 1.94313e-16 0)
(0.131564 -1.37165e-16 0)
(0.131564 -4.09505e-17 0)
(0.131564 1.05046e-16 0)
(0.131564 -2.05292e-16 0)
(0.131564 5.99361e-17 0)
(0.131564 -1.7597e-17 0)
(0.131564 -1.12336e-16 0)
(0.131564 2.20335e-16 0)
(0.131564 -4.60323e-17 0)
(0.131564 -2.28435e-17 0)
(0.131564 -1.17789e-16 0)
(0.131564 2.21456e-17 0)
(0.131564 3.07106e-16 0)
(0.131564 -1.84998e-16 0)
(0.131564 -3.91699e-17 0)
(0.131564 -1.13702e-16 0)
(0.131564 3.44612e-17 0)
(0.131564 3.48063e-16 0)
(0.131564 -1.13839e-16 0)
(0.131564 -2.81468e-16 0)
(0.131564 -1.4639e-16 0)
(0.131564 2.25982e-16 0)
(0.131564 2.55276e-16 0)
(0.131564 -1.05698e-16 0)
(0.131564 -2.76582e-16 0)
(0.131564 -1.26652e-16 0)
(0.131564 4.35677e-16 0)
(0.131564 5.58411e-17 0)
(0.131564 -3.71011e-16 0)
(0.131564 3.51968e-16 0)
(0.131564 1.6362e-16 0)
(0.131564 -1.77275e-16 0)
(0.131564 -1.79362e-16 0)
(0.131564 -1.6451e-16 0)
(0.131564 4.41781e-16 0)
(0.131564 2.1762e-16 0)
(0.131564 -2.13656e-16 0)
(0.131564 -2.05811e-16 0)
(0.131564 -1.71502e-16 0)
(0.131564 4.33409e-16 0)
(0.131564 8.26665e-17 0)
(0.131564 -1.56393e-16 0)
(0.131564 6.56345e-17 0)
(0.131564 -1.06753e-16 0)
(0.131564 9.48682e-17 0)
(0.131564 -5.70971e-17 0)
(0.131564 5.73228e-17 0)
(0.131564 7.51906e-17 0)
(0.131564 -3.25035e-16 0)
(0.131564 4.66722e-17 0)
(0.131564 1.28284e-16 0)
(0.131564 2.32058e-17 0)
(0.131564 5.87975e-17 0)
(0.131564 -2.21317e-16 0)
(0.131564 6.64361e-17 0)
(0.131564 -5.2746e-17 0)
(0.131564 -2.01859e-17 0)
(0.131564 9.8033e-17 0)
(0.131564 -3.67381e-16 0)
(0.131564 -5.59789e-17 0)
(0.131564 1.54364e-16 0)
(0.131564 1.93132e-16 0)
(0.131564 -5.88197e-18 0)
(0.131564 -2.97578e-16 0)
(0.131564 1.86716e-16 0)
(0.131564 7.15877e-17 0)
(0.131564 -5.17475e-17 0)
(0.131564 -1.51331e-17 0)
(0.131564 -2.6225e-16 0)
(0.131564 2.53609e-16 0)
(0.131564 7.01313e-17 0)
(0.131564 3.9041e-18 0)
(0.131564 8.8655e-17 0)
(0.131564 -3.02098e-16 0)
(0.131564 9.85649e-17 0)
(0.131564 9.68499e-17 0)
(0.131564 -1.00488e-16 0)
(0.131564 -1.70752e-17 0)
(0.131564 -1.17526e-16 0)
(0.131564 2.35344e-16 0)
(0.131564 1.9071e-16 0)
(0.131564 1.97823e-17 0)
(0.131564 -1.14292e-16 0)
(0.131564 -2.02637e-16 0)
(0.131564 1.42876e-16 0)
(0.131564 1.11912e-16 0)
(0.131564 1.70217e-16 0)
(0.131564 -7.52305e-17 0)
(0.131564 -2.26665e-16 0)
(0.131564 1.00956e-16 0)
(0.131564 1.31345e-17 0)
(0.131564 -1.22443e-16 0)
(0.131564 8.57792e-17 0)
(0.131564 -9.6417e-17 0)
(0.131564 1.96781e-17 0)
(0.131564 1.2771e-16 0)
(0.131564 3.16724e-18 0)
(0.131564 -9.35236e-17 0)
(0.131564 -2.02722e-16 0)
(0.131564 4.38547e-17 0)
(0.131564 2.30996e-16 0)
(0.131564 1.61078e-16 0)
(0.131564 -2.69319e-16 0)
(0.131564 -1.86879e-16 0)
(0.131564 2.42193e-16 0)
(0.131564 -3.1347e-17 0)
(0.131564 -1.09719e-16 0)
(0.131564 -1.51687e-16 0)
(0.131564 3.04225e-18 0)
(0.131564 3.66751e-16 0)
(0.131564 -8.43586e-17 0)
(0.131564 -1.00168e-16 0)
(0.131564 -2.21114e-16 0)
(0.131564 -4.41693e-17 0)
(0.131564 3.61477e-16 0)
(0.131564 -4.49228e-17 0)
(0.131564 9.87055e-17 0)
(0.131564 -1.42355e-16 0)
(0.131564 -4.20179e-16 0)
(0.131564 -3.17694e-17 0)
(0.131564 1.09062e-16 0)
(0.131564 1.96772e-16 0)
(0.131564 -1.57436e-16 0)
(0.131564 -3.95478e-17 0)
(0.131564 1.43046e-17 0)
(0.131564 -1.0656e-16 0)
(0.131564 2.06393e-16 0)
(0.131564 -1.25511e-16 0)
(0.131564 -2.29777e-16 0)
(0.131564 -7.13184e-19 0)
(0.131564 -3.5148e-16 0)
(0.131564 -3.57742e-16 0)
(0.131564 -6.96727e-16 0)
(0.131564 -1.39545e-15 0)
(0.215959 -1.29676e-15 0)
(0.215959 -1.01938e-15 0)
(0.215959 -7.15957e-16 0)
(0.215959 -4.8475e-16 0)
(0.215959 -3.27555e-16 0)
(0.215959 -2.41218e-16 0)
(0.215959 -1.82828e-16 0)
(0.215959 -1.12424e-16 0)
(0.215959 -1.03581e-16 0)
(0.215959 -8.72782e-17 0)
(0.215959 -5.80154e-17 0)
(0.215959 -8.45913e-17 0)
(0.215959 -3.08949e-17 0)
(0.215959 -5.27805e-17 0)
(0.215959 -8.54536e-17 0)
(0.215959 -3.64174e-17 0)
(0.215959 -2.56294e-17 0)
(0.215959 -6.17588e-17 0)
(0.215959 -9.9941e-17 0)
(0.215959 -1.03091e-16 0)
(0.215959 -5.53143e-17 0)
(0.215959 -7.48918e-17 0)
(0.215959 -6.8815e-17 0)
(0.215959 -4.02645e-17 0)
(0.215959 -6.92469e-17 0)
(0.215959 -7.30895e-17 0)
(0.215959 -1.83118e-17 0)
(0.215959 6.97089e-19 0)
(0.215959 -3.06052e-17 0)
(0.215959 -6.42602e-17 0)
(0.215959 -1.39259e-17 0)
(0.215959 1.01528e-16 0)
(0.215959 4.56806e-17 0)
(0.215959 -1.18272e-17 0)
(0.215959 9.62793e-18 0)
(0.215959 2.36133e-17 0)
(0.215959 8.67539e-17 0)
(0.215959 5.0055e-17 0)
(0.215959 6.38435e-18 0)
(0.215959 8.0389e-17 0)
(0.215959 8.72094e-17 0)
(0.215959 6.37086e-17 0)
(0.215959 3.14111e-17 0)
(0.215959 -2.54161e-17 0)
(0.215959 2.97633e-17 0)
(0.215959 8.1613e-17 0)
(0.215959 5.5482e-17 0)
(0.215959 4.34324e-17 0)
(0.215959 4.60944e-17 0)
(0.215959 8.96792e-18 0)
(0.215959 -3.17231e-17 0)
(0.215959 -5.68578e-17 0)
(0.215959 -5.5042e-17 0)
(0.215959 1.67444e-17 0)
(0.215959 6.5027e-17 0)
(0.215959 -2.93493e-17 0)
(0.215959 -5.16239e-18 0)
(0.215959 3.54847e-18 0)
(0.215959 -8.16517e-18 0)
(0.215959 1.09312e-17 0)
(0.215959 -1.00111e-16 0)
(0.215959 1.29927e-16 0)
(0.215959 8.10226e-18 0)
(0.215959 -3.94073e-17 0)
(0.215959 1.41662e-16 0)
(0.215959 -6.90094e-18 0)
(0.215959 6.79621e-17 0)
(0.215959 6.9293e-17 0)
(0.215959 9.58017e-17 0)
(0.215959 1.36226e-16 0)
(0.215959 2.64353e-17 0)
(0.215959 3.15154e-17 0)
(0.215959 -2.8422e-17 0)
(0.215959 3.99059e-17 0)
(0.215959 9.49028e-17 0)
(0.215959 -1.04872e-16 0)
(0.215959 -1.59951e-16 0)
(0.215959 -5.07356e-17 0)
(0.215959 -7.64461e-17 0)
(0.215959 -4.97995e-17 0)
(0.215959 -1.48272e-16 0)
(0.215959 -2.01701e-16 0)
(0.215959 9.27877e-18 0)
(0.215959 3.87701e-17 0)
(0.215959 2.50101e-17 0)
(0.215959 -5.98546e-17 0)
(0.215959 -7.4175e-17 0)
(0.215959 -1.33963e-16 0)
(0.215959 -9.31758e-17 0)
(0.215959 1.09252e-16 0)
(0.215959 -5.69947e-17 0)
(0.215959 -1.02102e-16 0)
(0.215959 5.10849e-17 0)
(0.215959 7.13318e-17 0)
(0.215959 4.05606e-17 0)
(0.215959 -1.88275e-17 0)
(0.215959 1.3035e-17 0)
(0.215959 2.22018e-17 0)
(0.215959 3.39297e-17 0)
(0.215959 3.75693e-17 0)
(0.215959 -1.05435e-17 0)
(0.215959 3.55237e-17 0)
(0.215959 2.67877e-17 0)
(0.215959 4.29512e-17 0)
(0.215959 7.1201e-17 0)
(0.215959 5.88054e-17 0)
(0.215959 -1.15651e-16 0)
(0.215959 -4.65909e-17 0)
(0.215959 1.89032e-16 0)
(0.215959 2.10046e-16 0)
(0.215959 3.96893e-17 0)
(0.215959 -2.42212e-16 0)
(0.215959 1.05065e-16 0)
(0.215959 3.21805e-16 0)
(0.215959 1.4801e-16 0)
(0.215959 -1.94465e-17 0)
(0.215959 -2.53357e-16 0)
(0.215959 -1.0727e-16 0)
(0.215959 2.54173e-16 0)
(0.215959 1.74245e-16 0)
(0.215959 -1.72408e-16 0)
(0.215959 -2.68447e-16 0)
(0.215959 2.21783e-17 0)
(0.215959 4.06131e-16 0)
(0.215959 3.04491e-16 0)
(0.215959 -8.2474e-17 0)
(0.215959 -3.85946e-16 0)
(0.215959 3.73677e-17 0)
(0.215959 3.30721e-16 0)
(0.215959 8.67544e-17 0)
(0.215959 -9.5705e-17 0)
(0.215959 -2.63788e-16 0)
(0.215959 -1.69505e-18 0)
(0.215959 2.47525e-16 0)
(0.215959 -2.10111e-17 0)
(0.215959 -1.47984e-16 0)
(0.215959 -1.81364e-16 0)
(0.215959 3.69661e-18 0)
(0.215959 2.70012e-16 0)
(0.215959 1.05122e-16 0)
(0.215959 -8.89782e-17 0)
(0.215959 -1.73591e-16 0)
(0.215959 3.75311e-17 0)
(0.215959 9.4157e-17 0)
(0.215959 -7.50729e-17 0)
(0.215959 -1.73955e-16 0)
(0.215959 -1.99987e-16 0)
(0.215959 7.3319e-18 0)
(0.215959 -3.68139e-17 0)
(0.215959 -1.03689e-16 0)
(0.215959 6.82157e-17 0)
(0.215959 -1.26757e-16 0)
(0.215959 -2.03475e-16 0)
(0.215959 3.14465e-17 0)
(0.215959 1.28149e-16 0)
(0.215959 1.70036e-16 0)
(0.215959 -6.42399e-17 0)
(0.215959 -1.78145e-16 0)
(0.215959 5.70365e-17 0)
(0.215959 1.88876e-16 0)
(0.215959 2.15436e-16 0)
(0.215959 -1.66509e-16 0)
(0.215959 -1.48718e-16 0)
(0.215959 1.46312e-16 0)
(0.215959 -3.71066e-17 0)
(0.215959 -1.89522e-17 0)
(0.215959 -3.16656e-17 0)
(0.215959 -3.9512e-17 0)
(0.215959 7.82513e-18 0)
(0.215959 1.22307e-17 0)
(0.215959 -2.25732e-17 0)
(0.215959 -9.08412e-17 0)
(0.215959 -3.71304e-17 0)
(0.215959 8.25613e-17 0)
(0.215959 6.65586e-17 0)
(0.215959 -2.24172e-16 0)
(0.215959 -2.14802e-16 0)
(0.215959 1.03975e-16 0)
(0.215959 3.14812e-17 0)
(0.215959 1.55456e-16 0)
(0.215959 -1.39484e-18 0)
(0.215959 -4.25779e-16 0)
(0.215959 -1.27982e-16 0)
(0.215959 1.1097e-16 0)
(0.215959 6.3774e-18 0)
(0.215959 7.87408e-17 0)
(0.215959 -2.18817e-16 0)
(0.215959 -1.59335e-16 0)
(0.215959 1.04713e-16 0)
(0.215959 -7.65617e-17 0)
(0.215959 -5.41759e-17 0)
(0.215959 -5.38713e-17 0)
(0.215959 -5.1324e-17 0)
(0.215959 6.8782e-17 0)
(0.215959 3.42004e-17 0)
(0.215959 -5.1119e-18 0)
(0.215959 -3.12572e-17 0)
(0.215959 6.9957e-18 0)
(0.215959 9.03085e-17 0)
(0.215959 -2.35073e-17 0)
(0.215959 -1.78837e-17 0)
(0.215959 -4.07376e-17 0)
(0.215959 4.44791e-17 0)
(0.215959 1.31534e-16 0)
(0.215959 -2.56547e-17 0)
(0.215959 -1.1379e-16 0)
(0.215959 -9.42075e-17 0)
(0.215959 4.31756e-17 0)
(0.215959 5.86316e-17 0)
(0.215959 -5.98854e-17 0)
(0.215959 -1.39426e-16 0)
(0.215959 -1.35552e-16 0)
(0.215959 4.49823e-16 0)
(0.215959 1.30826e-16 0)
(0.215959 -2.70421e-16 0)
(0.215959 3.02642e-16 0)
(0.215959 1.16526e-17 0)
(0.215959 -1.03766e-17 0)
(0.215959 -1.0003e-16 0)
(0.215959 -2.62399e-16 0)
(0.215959 5.07677e-16 0)
(0.215959 2.04883e-16 0)
(0.215959 -1.17234e-16 0)
(0.215959 -1.40202e-16 0)
(0.215959 -3.05497e-16 0)
(0.215959 5.03268e-16 0)
(0.215959 1.27562e-16 0)
(0.215959 -1.9168e-16 0)
(0.215959 -5.87061e-17 0)
(0.215959 -1.9135e-16 0)
(0.215959 4.45492e-16 0)
(0.215959 1.13698e-16 0)
(0.215959 -7.75804e-17 0)
(0.215959 1.64117e-17 0)
(0.215959 -4.10003e-16 0)
(0.215959 -1.26235e-17 0)
(0.215959 -9.55792e-18 0)
(0.215959 2.37911e-16 0)
(0.215959 2.58937e-16 0)
(0.215959 -4.57854e-16 0)
(0.215959 -3.63836e-17 0)
(0.215959 -2.09042e-16 0)
(0.215959 2.159e-17 0)
(0.215959 1.47953e-16 0)
(0.215959 -6.6011e-16 0)
(0.215959 -5.70201e-17 0)
(0.215959 1.60077e-16 0)
(0.215959 2.38506e-16 0)
(0.215959 2.17313e-17 0)
(0.215959 -4.05122e-16 0)
(0.215959 5.21498e-16 0)
(0.215959 1.3576e-16 0)
(0.215959 -2.80865e-16 0)
(0.215959 -2.94597e-16 0)
(0.215959 -2.91346e-16 0)
(0.215959 7.06617e-16 0)
(0.215959 8.24805e-17 0)
(0.215959 -1.71714e-16 0)
(0.215959 7.45631e-17 0)
(0.215959 -3.63719e-16 0)
(0.215959 2.27789e-16 0)
(0.215959 -9.52082e-19 0)
(0.215959 -1.34554e-16 0)
(0.215959 -6.24005e-17 0)
(0.215959 -1.93966e-16 0)
(0.215959 4.97541e-16 0)
(0.215959 2.10076e-16 0)
(0.215959 4.68645e-18 0)
(0.215959 6.10333e-17 0)
(0.215959 -3.11427e-16 0)
(0.215959 2.19628e-16 0)
(0.215959 1.87133e-16 0)
(0.215959 1.73999e-16 0)
(0.215959 9.26915e-17 0)
(0.215959 -3.68442e-16 0)
(0.215959 1.12944e-16 0)
(0.215959 -1.55318e-17 0)
(0.215959 -8.47621e-17 0)
(0.215959 7.57839e-17 0)
(0.215959 -3.33878e-16 0)
(0.215959 7.43194e-17 0)
(0.215959 5.35685e-17 0)
(0.215959 1.58155e-17 0)
(0.215959 7.19962e-17 0)
(0.215959 -3.32915e-16 0)
(0.215959 1.56717e-16 0)
(0.215959 2.56867e-16 0)
(0.215959 -1.08423e-16 0)
(0.215959 -1.87574e-16 0)
(0.215959 -2.19942e-16 0)
(0.215959 2.29099e-16 0)
(0.215959 1.15424e-16 0)
(0.215959 -2.81352e-16 0)
(0.215959 -2.88897e-17 0)
(0.215959 -4.42594e-17 0)
(0.215959 1.26864e-16 0)
(0.215959 2.36836e-16 0)
(0.215959 -2.08814e-16 0)
(0.215959 -2.40133e-16 0)
(0.215959 -2.1211e-16 0)
(0.215959 2.02342e-16 0)
(0.215959 4.43055e-16 0)
(0.215959 6.57678e-17 0)
(0.215959 -4.5319e-16 0)
(0.215959 -2.92193e-16 0)
(0.215959 9.84295e-17 0)
(0.215959 1.53589e-17 0)
(0.215959 7.02753e-17 0)
(0.215959 -2.73469e-16 0)
(0.215959 8.39941e-18 0)
(0.215959 8.85712e-17 0)
(0.215959 -8.98673e-17 0)
(0.215959 2.44525e-16 0)
(0.215959 -6.92632e-17 0)
(0.215959 -2.23374e-16 0)
(0.215959 -2.20712e-16 0)
(0.215959 -4.77116e-16 0)
(0.215959 -2.90562e-16 0)
(0.215959 -8.21251e-16 0)
(0.215959 -1.29283e-15 0)
(0.297632 -9.31717e-16 0)
(0.297632 -8.44664e-16 0)
(0.297632 -6.73215e-16 0)
(0.297632 -5.37046e-16 0)
(0.297632 -3.93698e-16 0)
(0.297632 -2.88198e-16 0)
(0.297632 -2.04705e-16 0)
(0.297632 -1.36249e-16 0)
(0.297632 -1.37625e-16 0)
(0.297632 -1.03114e-16 0)
(0.297632 -4.68091e-17 0)
(0.297632 -7.31421e-17 0)
(0.297632 -5.27264e-17 0)
(0.297632 -9.91129e-17 0)
(0.297632 -1.56616e-16 0)
(0.297632 -1.148e-16 0)
(0.297632 -1.06084e-16 0)
(0.297632 -1.14456e-16 0)
(0.297632 -1.44629e-16 0)
(0.297632 -1.3678e-16 0)
(0.297632 -9.94305e-17 0)
(0.297632 -1.087e-16 0)
(0.297632 -1.27997e-16 0)
(0.297632 -1.09888e-16 0)
(0.297632 -1.06513e-16 0)
(0.297632 -6.88611e-17 0)
(0.297632 -2.31272e-17 0)
(0.297632 -4.08351e-17 0)
(0.297632 -6.39832e-17 0)
(0.297632 -3.56223e-17 0)
(0.297632 4.06231e-17 0)
(0.297632 1.49366e-16 0)
(0.297632 9.30812e-17 0)
(0.297632 2.05726e-17 0)
(0.297632 -4.28504e-17 0)
(0.297632 -7.43547e-18 0)
(0.297632 1.29635e-16 0)
(0.297632 1.20184e-16 0)
(0.297632 2.57597e-17 0)
(0.297632 8.85763e-17 0)
(0.297632 1.16878e-16 0)
(0.297632 8.18629e-17 0)
(0.297632 3.61866e-17 0)
(0.297632 2.48657e-17 0)
(0.297632 4.76812e-17 0)
(0.297632 7.39602e-17 0)
(0.297632 9.62789e-17 0)
(0.297632 1.10651e-16 0)
(0.297632 7.46788e-17 0)
(0.297632 3.08803e-17 0)
(0.297632 -3.71385e-17 0)
(0.297632 -2.84902e-17 0)
(0.297632 -1.72765e-17 0)
(0.297632 -3.47524e-17 0)
(0.297632 5.2691e-17 0)
(0.297632 -2.30324e-17 0)
(0.297632 -3.61265e-17 0)
(0.297632 -3.95849e-17 0)
(0.297632 -6.29549e-17 0)
(0.297632 2.87485e-17 0)
(0.297632 -5.17925e-17 0)
(0.297632 1.02738e-16 0)
(0.297632 9.68268e-17 0)
(0.297632 3.14481e-17 0)
(0.297632 8.81941e-17 0)
(0.297632 9.19265e-18 0)
(0.297632 2.07861e-16 0)
(0.297632 1.7619e-16 0)
(0.297632 1.80462e-16 0)
(0.297632 2.30039e-16 0)
(0.297632 1.5828e-17 0)
(0.297632 3.79026e-18 0)
(0.297632 -8.49599e-17 0)
(0.297632 -1.46786e-18 0)
(0.297632 9.92047e-17 0)
(0.297632 -1.31345e-16 0)
(0.297632 -1.62635e-16 0)
(0.297632 -1.53725e-16 0)
(0.297632 -1.95453e-16 0)
(0.297632 -7.98645e-17 0)
(0.297632 -2.06263e-16 0)
(0.297632 -2.07046e-16 0)
(0.297632 7.18683e-18 0)
(0.297632 2.07481e-17 0)
(0.297632 -3.33677e-17 0)
(0.297632 -1.53177e-16 0)
(0.297632 -1.03934e-16 0)
(0.297632 -9.88021e-17 0)
(0.297632 -1.37129e-16 0)
(0.297632 1.54881e-17 0)
(0.297632 1.54483e-17 0)
(0.297632 -1.97366e-17 0)
(0.297632 2.39409e-17 0)
(0.297632 7.30404e-17 0)
(0.297632 5.1044e-17 0)
(0.297632 -7.99063e-17 0)
(0.297632 2.42548e-17 0)
(0.297632 2.46703e-17 0)
(0.297632 -5.97466e-18 0)
(0.297632 6.04145e-17 0)
(0.297632 3.32742e-17 0)
(0.297632 4.75785e-17 0)
(0.297632 -1.54308e-17 0)
(0.297632 3.23574e-17 0)
(0.297632 1.7847e-16 0)
(0.297632 1.20405e-16 0)
(0.297632 -1.33028e-16 0)
(0.297632 -9.00703e-17 0)
(0.297632 2.86114e-16 0)
(0.297632 3.56044e-16 0)
(0.297632 5.8455e-17 0)
(0.297632 -2.07395e-16 0)
(0.297632 1.10602e-16 0)
(0.297632 3.41668e-16 0)
(0.297632 2.66036e-16 0)
(0.297632 5.94197e-17 0)
(0.297632 -3.60433e-16 0)
(0.297632 -1.8831e-16 0)
(0.297632 2.77334e-16 0)
(0.297632 2.511e-16 0)
(0.297632 -1.95493e-16 0)
(0.297632 -3.7083e-16 0)
(0.297632 9.91821e-17 0)
(0.297632 4.68645e-16 0)
(0.297632 3.081e-16 0)
(0.297632 1.82729e-18 0)
(0.297632 -3.05634e-16 0)
(0.297632 -2.68105e-17 0)
(0.297632 3.9289e-16 0)
(0.297632 1.24547e-16 0)
(0.297632 -1.68949e-16 0)
(0.297632 -1.75531e-16 0)
(0.297632 -1.8708e-17 0)
(0.297632 2.25609e-16 0)
(0.297632 8.3951e-17 0)
(0.297632 -1.32225e-16 0)
(0.297632 -2.80553e-16 0)
(0.297632 -7.24861e-17 0)
(0.297632 3.92167e-16 0)
(0.297632 2.0236e-16 0)
(0.297632 -1.37855e-16 0)
(0.297632 -3.21108e-16 0)
(0.297632 5.86345e-17 0)
(0.297632 1.5701e-16 0)
(0.297632 -7.54442e-17 0)
(0.297632 -1.84354e-16 0)
(0.297632 -4.75428e-16 0)
(0.297632 -9.09255e-17 0)
(0.297632 1.81646e-17 0)
(0.297632 -5.88874e-17 0)
(0.297632 -6.34025e-17 0)
(0.297632 -3.2987e-16 0)
(0.297632 -1.03972e-16 0)
(0.297632 1.05741e-16 0)
(0.297632 1.56361e-16 0)
(0.297632 1.04209e-16 0)
(0.297632 -1.46087e-16 0)
(0.297632 -1.35274e-16 0)
(0.297632 1.45895e-16 0)
(0.297632 2.2879e-16 0)
(0.297632 2.00468e-16 0)
(0.297632 -2.3653e-16 0)
(0.297632 -9.19577e-17 0)
(0.297632 1.90454e-16 0)
(0.297632 -1.30197e-16 0)
(0.297632 -2.31251e-17 0)
(0.297632 -1.9247e-17 0)
(0.297632 -6.41712e-18 0)
(0.297632 4.87878e-17 0)
(0.297632 1.25503e-17 0)
(0.297632 -8.1196e-17 0)
(0.297632 -1.8449e-16 0)