/*--------------------------------*- C++ -*----------------------------------*\
| =========                 |                                                 |
| \\      /  F ield         | OpenFOAM: The Open Source CFD Toolbox           |
|  \\    /   O peration     | Version:  2112                                  |
|   \\  /    A nd           | Website:  www.openfoam.com                      |
|    \\/     M anipulation  |                                                 |
\*---------------------------------------------------------------------------*/
FoamFile
{
    version     2.0;
    format      ascii;
    arch        "LSB;label=32;scalar=64";
    class       volScalarField;
    location    "0.002";
    object      p;
}
// * * * * * * * * * * * * * * * * * * * * * * * * * * * * * * * * * * * * * //

dimensions      [0 2 -2 0 0 0 0];

internalField   nonuniform List<scalar> 
171426
(
0.00110804650514
0.00114125085187
0.00116398428917
0.00119004333246
0.00122385818426
0.00126328201683
0.00130628028244
0.00135117496575
0.00139630087463
0.00144001762762
0.00148075411171
0.00151703166724
0.00154747887796
0.00157103407217
0.00158747571804
0.00159619114084
0.0015944080854
0.00158336661651
0.001563203315
0.00153417797734
0.00149674355032
0.00145148564785
0.00139908908911
0.001340303932
0.00127591184556
0.00120669605909
0.00113341597453
0.00105678685084
0.000977464588216
0.000896035340697
0.000813009495254
0.000728819458302
0.000643820686096
0.000558295306831
0.000472457412422
0.000386462178762
0.000300425670514
0.000214393738301
0.000128137157336
4.18250466037e-05
0.00122053418448
0.00126433355313
0.00129176091064
0.0013182617375
0.00134899265323
0.00138236563026
0.00141704052289
0.00145185773499
0.00148557011656
0.00151692769319
0.0015447349466
0.00156788133814
0.00158535633224
0.00159638868405
0.00160087598097
0.00159703602645
0.00158517038499
0.00156525935647
0.00153741452372
0.0015019514345
0.00145932002292
0.00141007065753
0.00135482791522
0.00129426196552
0.00122906115718
0.00115990770454
0.00108745721647
0.00101232241633
0.000935061072379
0.000856167907714
0.00077607009765
0.000695125880363
0.000613625807024
0.000531796084779
0.000449802842193
0.00036775876423
0.000285744043925
0.000203781624022
0.000121562022361
3.92280516618e-05
0.00132439603678
0.00137046895026
0.00139860814383
0.00142405838833
0.00145185781576
0.00148048553477
0.00150883854415
0.00153601837648
0.00156104292521
0.00158293049857
0.00160075034585
0.00161364843929
0.00162085617686
0.00162181001749
0.00161665492709
0.00160356551206
0.00158328395267
0.00155581771452
0.00152133911723
0.00148019654977
0.00143284910792
0.00137983605731
0.00132175114848
0.00125921692939
0.00119286120454
0.00112329666394
0.00105110412514
0.000976819549806
0.00090092474458
0.000823841468675
0.000745928557357
0.000667481616196
0.000588734864873
0.000509864661573
0.000430993566633
0.000352196316489
0.000273521051624
0.000194966580735
0.000116193826876
3.73455707227e-05
0.00142708327705
0.00147379709894
0.00150114920985
0.00152477261408
0.00154955772114
0.0015738407218
0.0015965788082
0.00161702425258
0.00163438340635
0.00164788195937
0.00165680125932
0.00166049148455
0.00165837213127
0.0016500304841
0.00163581475985
0.00161434049912
0.00158615028426
0.00155143927642
0.00151048299706
0.00146368451714
0.00141153316675
0.00135457685957
0.0012933978722
0.00122858981987
0.00116073730863
0.00109039895561
0.00101809400074
0.000944292473269
0.000869408676732
0.000793797627928
0.000717754019922
0.000641513265476
0.000565254231844
0.000489103262499
0.000413138426615
0.000337395439578
0.000261889053516
0.000186591650059
0.000111143604698
3.5662567317e-05
0.00152892975546
0.00157639222095
0.00160247696232
0.00162387896721
0.00164554800947
0.00166564561496
0.0016831281261
0.00169734198281
0.00170763163506
0.00171338648419
0.00171406058253
0.00170916989923
0.00169832576599
0.00168133585251
0.00165842968599
0.00162877615592
0.00159286825746
0.00155100116201
0.00150355643922
0.00145100717235
0.0013938877386
0.0013327698404
0.00126823923155
0.0012008746054
0.00113122991804
0.00105982047577
0.000987112766749
0.00091351776936
0.000839387320128
0.000765013054075
0.000690627419764
0.00061640630383
0.000542472892302
0.000468902413785
0.000395726785051
0.000322940640619
0.000250522567535
0.000178414699293
0.000106235800712
3.4059527666e-05
0.00162795914557
0.00167616802685
0.00170063021633
0.0017195785339
0.0017381493481
0.00175431024325
0.00176697928855
0.00177555483504
0.00177947564756
0.00177825271607
0.00177147635898
0.00175880270159
0.001740066087
0.0017156423134
0.00168410981427
0.00164660066428
0.00160327703143
0.0015544616474
0.00150063373867
0.00144234399108
0.00138018500397
0.00131476697127
0.00124669391884
0.00117654366132
0.00110485222426
0.00103210268052
0.000958718052629
0.000885057744809
0.000811416879175
0.000738027885631
0.000665063752267
0.000592642428792
0.000520832010324
0.000449656383217
0.000379100425645
0.000309116234712
0.000239644011951
0.000170592910377
0.000101559328339
3.25573432192e-05
0.00172329142596
0.00177225898633
0.00179487065762
0.00181124785446
0.00182680724328
0.0018393123316
0.00184762052112
0.00185115209757
0.00184940432187
0.00184197075215
0.00182853903745
0.00180886647243
0.00178287806936
0.00175108566687
0.00171217151293
0.00166738126918
0.00161701194831
0.0015615064686
0.00150144589347
0.00143746999739
0.0013702439622
0.00130043096588
0.00122866742481
0.0011555434566
0.00108158897193
0.0010072650146
0.000932959658431
0.000858987610973
0.000785592625223
0.000712951890271
0.000641181687982
0.000570343748107
0.000500451916942
0.000431478848436
0.00036336187807
0.000296009507839
0.000229321826766
0.000163172875771
9.7135889993e-05
3.11552056859e-05
0.00181434600533
0.0018640647012
0.00188464973729
0.0018983953249
0.00191106688322
0.001920214049
0.00192461734605
0.00192369585691
0.00191697501029
0.00190409555518
0.00188480404682
0.00185891602493
0.00182638999371
0.00178785079375
0.00174226666295
0.00169071787439
0.0016337000827
0.00157178778196
0.00150567273422
0.00143609636465
0.00136381005467
0.00128954373
0.00121397941815
0.00113773165964
0.00106133493869
0.00098523739112
0.000909799703265
0.000835297969022
0.00076192931958
0.000689819277718
0.000619029983779
0.000549568654649
0.000481395871402
0.000414433427844
0.000348570967814
0.000283672777902
0.000219597684368
0.000156183164361
9.29788244671e-05
2.98526565514e-05
0.00190057073354
0.00195097311119
0.0019693590872
0.00198043642845
0.00199036444818
0.00199646575588
0.00199742943394
0.00199265341997
0.00198166390414
0.00196411478137
0.00193977204881
0.00190845979945
0.00187012854619
0.001825665702
0.0017739995009
0.00171621694537
0.00165296953593
0.0015849585563
0.00151299636003
0.00143793786962
0.0013606335136
0.00128189294572
0.00120245606553
0.00112297287549
0.00104399201044
0.000965956765155
0.000889207061854
0.000813985709192
0.00074044741442
0.00066866926762
0.000598661688964
0.000530379122333
0.000463730049743
0.000398586083046
0.00033478943278
0.000272160051425
0.000210514981442
0.000149654419387
8.91044721659e-05
2.86524860488e-05
0.0019814491459
0.00203240992301
0.00204842033522
0.00205680425448
0.00206414270086
0.00206751675286
0.00206551073212
0.00205748391446
0.00204293850219
0.00202150776395
0.00199293030397
0.00195698941014
0.00191362293746
0.00186401861911
0.0018069203591
0.00174345344197
0.00167441150338
0.00160063171238
0.00152305741022
0.00144266772544
0.00136042393415
0.00127722727344
0.0011938865451
0.00111109696711
0.00102942964265
0.000949329938123
0.000871122658181
0.00079502188288
0.000721143550668
0.000649519232729
0.000580109935794
0.000512819135217
0.000447504595181
0.000383988762197
0.000322067111218
0.000261515670764
0.0002021098096
0.000143612418574
8.55267858078e-05
2.75572194035e-05
0.00205649766074
0.00210784306
0.00212130323404
0.00212697815983
0.00213188467762
0.0021328490693
0.00212833956912
0.00211766210421
0.00210027430019
0.00207575775287
0.00204377654093
0.00200410463194
0.00195675528329
0.00190251284605
0.00184055478024
0.00177195218618
0.00169755846827
0.00161835880845
0.00153543599826
0.00144990123117
0.00136283661703
0.00127524524832
0.00118801428618
0.00110189237371
0.00101747996191
0.000935230145904
0.000855457239225
0.000778350392125
0.000703989928193
0.000632364554239
0.000563388122654
0.000496915075214
0.000432754114527
0.000370679927909
0.000310442431802
0.000251774694839
0.000194411154487
0.000138078024703
8.22569057706e-05
2.65684391077e-05
0.00212526497606
0.00217678588513
0.00218753768895
0.00219050352259
0.00219313789081
0.00219200254283
0.00218544096843
0.00217269323645
0.00215315406546
0.00212633370079
0.00209181123702
0.00204942075872
0.00199979655041
0.00194073730224
0.0018743720998
0.0018011426106
0.00172185128756
0.00163760914217
0.00154963683594
0.00145918475607
0.00136746465976
0.00127559004814
0.0011845340356
0.0010951050863
0.00100793825741
0.000923498689877
0.000842093810261
0.000763890937543
0.000688937526436
0.000617181924113
0.000548493151286
0.000482678784264
0.000419500483794
0.000358687044837
0.000299944533636
0.000242964607343
0.000187442154413
0.000133067971288
7.93034565173e-05
2.56866985465e-05
0.00218733900591
0.00223880954182
0.00224673332513
0.00224701722952
0.00224754351667
0.00224460538342
0.00223641653001
0.00222214104082
0.00220109289539
0.00217268757505
0.00213639574144
0.00209197111351
0.00204016293005
0.00197767252069
0.00190762907015
0.00183033136834
0.00174663232887
0.00165776105041
0.00156508049641
0.00146998839229
0.00137383343562
0.00127784582424
0.00118308984025
0.0010904379829
0.00100056334952
0.000913946040781
0.000830889218973
0.000751540872947
0.00067591807088
0.000603931305861
0.000535407298923
0.00047010929174
0.000407754394122
0.00034802791979
0.000290594383115
0.000235106196699
0.000181220734023
0.000128595249355
7.66726999028e-05
2.49115110329e-05
0.00224235548172
0.00229355631206
0.00229859755308
0.00229626971203
0.00229486137232
0.00229040083809
0.0022809717721
0.00226565597838
0.00224367264909
0.00221431884369
0.00217692194762
0.00213104099633
0.00207716232144
0.00201250000409
0.00193952384478
0.00185874806721
0.00177115586217
0.00167810335404
0.00158110325458
0.00148170620034
0.00138140180973
0.00128153988279
0.00118327797562
0.00108755423351
0.000995081218157
0.000906355482962
0.000821677660893
0.000741178472239
0.00066484699884
0.000592558571546
0.000524100521609
0.000459194793716
0.000397517024413
0.000338712087919
0.00028240589352
0.000228214427259
0.000175760244552
0.000124669537724
7.43687917463e-05
2.42414669964e-05
0.00229000504489
0.00234074963639
0.00234294713003
0.00233813822276
0.00233498512899
0.00232926403809
0.00231893398181
0.00230299330709
0.0022805593119
0.00225079616553
0.00221286449778
0.00216611279821
0.00211083157369
0.00204456197104
0.00196924865292
0.00188555987801
0.00179459714047
0.00169784496782
0.00159696709087
0.00149366650766
0.0013895724945
0.00128615278232
0.00118465650185
0.00108608610232
0.000991192918473
0.000900490086328
0.000814276710916
0.000732668067099
0.000655627778268
0.000582999091058
0.000514533407068
0.000449915059219
0.000388781982746
0.000330742360762
0.000275387140047
0.000222299371669
0.000171070155549
0.000121297692375
7.23941211223e-05
2.36744388084e-05
0.00233003700574
0.00238019765132
0.00237970909015
0.00237262664166
0.00236794275023
0.00236120406734
0.00235025618838
0.00233401825628
0.00231150621056
0.00228174797954
0.00224372974081
0.00219659275186
0.00214049925804
0.00207308070683
0.00199594020812
0.0019098728596
0.00181606949805
0.00171613735082
0.00161188321563
0.00150515476436
0.00139771336218
0.0012911376287
0.00118676231208
0.00108564969612
0.000988587104619
0.000896103167814
0.000808495936424
0.000725867048208
0.000648157537102
0.000575182214025
0.000506660712625
0.000442244201349
0.000381537460678
0.000324116487508
0.000269541628518
0.000217367167611
0.000167156763314
0.000118484259136
7.07496915879e-05
2.32078371972e-05
0.00236225877506
0.00241178797899
0.00240890788971
0.00239984808921
0.00239387809427
0.00238634724091
0.00237500414599
0.00235869809039
0.00233635193495
0.00230686544402
0.00226905818317
0.00222187679496
0.00216538854813
0.00209718666742
0.00201869976917
0.00193076753181
0.00183466691883
0.00173211658022
0.00162505201762
0.00151545030951
0.0014051903319
0.00129594877023
0.00118913562971
0.00108586547885
0.000986956918053
0.00089295198466
0.000804147850794
0.000720634522136
0.000642333831662
0.000569036511209
0.000500435389634
0.000436153743771
0.000375768553577
0.000318828899271
0.000264869598178
0.000213420984486
0.000164023902378
0.000116231993498
6.94355219993e-05
2.28388961121e-05
0.002386531109
0.00243547334438
0.00243063819468
0.00241998962017
0.00241301269412
0.00240490035187
0.00239332496509
0.00237707958136
0.00235500951249
0.00232590557576
0.00228844405982
0.00224140516702
0.00218478860158
0.00211610468904
0.00203667412471
0.00194736661
0.00184952573549
0.00174496216737
0.0016357176155
0.00152387533937
0.00141141012347
0.00130007824592
0.00119135044159
0.00108638322145
0.000986020112779
0.000890813734392
0.000801060469337
0.000716841049651
0.000638062119347
0.000564495454435
0.000495812863145
0.000431615820095
0.000371459635738
0.000314872461664
0.000261369308644
0.000210461965577
0.000161673633906
0.000114542364661
6.84510426021e-05
2.25649631004e-05
0.00240276046296
0.00245125004925
0.00244502649073
0.00243326286297
0.00242559170979
0.00241709754948
0.00240540033617
0.00238925379982
0.0023674475206
0.0023386927634
0.00230156057334
0.00225470953247
0.00219809533292
0.00212914782181
0.00204912291233
0.00195891023374
0.00185989958572
0.00175396754508
0.00164323178591
0.00152985118139
0.00141586851301
0.00130309623099
0.00119304772792
0.0010869088287
0.000985540378576
0.00088950226948
0.000799090248147
0.000714378548221
0.000635263258843
0.000561503042874
0.000492755215463
0.00042860625979
0.00036859662053
0.000312240120392
0.000259038233234
0.000208490092426
0.000160106872842
0.000113416014363
6.77954590543e-05
2.23837711553e-05
0.00241089052282
0.0024591337343
0.00245218865061
0.00243984951301
0.00243182374361
0.00242314038102
0.00241139272279
0.002395314304
0.00237366558929
0.00234511591002
0.00230818070537
0.00226145430998
0.00220486871528
0.00213580780571
0.00205549671352
0.00196483499916
0.00186523622512
0.00175861139303
0.00164711782819
0.00153295376557
0.00141819728131
0.00130468989547
0.00119396700863
0.00108722951898
0.000985347139973
0.000888883458221
0.000798133858222
0.000713169217577
0.000633880207585
0.000560018781131
0.000491234853863
0.000427107268633
0.000367168905224
0.000310926304096
0.000257874067085
0.000207504909292
0.000159323910613
0.000112853138426
6.74680566218e-05
2.22936684143e-05
0.00241089511394
0.00245913832694
0.00245219325666
0.00243985415123
0.00243182842911
0.0024231451261
0.00241139753674
0.00239531919325
0.00237367055624
0.00234512095194
0.00230818581151
0.00226145946217
0.00220487391761
0.00213581301662
0.00205550189986
0.00196484013757
0.00186524128879
0.00175861635588
0.0016471226667
0.0015329584593
0.00141820181293
0.00130469425057
0.00119397117524
0.00108723348714
0.000985350901209
0.000888887005214
0.000798137184502
0.000713172317325
0.000633883075536
0.000560021412508
0.000491237244367
0.000427109414426
0.000367170802931
0.000310927950812
0.000257875460404
0.000207506047248
0.00015932479161
0.000112853761064
6.74684193623e-05
2.22937847091e-05
0.00240277420858
0.00245126380052
0.00244504028226
0.00243327675071
0.00242560573989
0.0024171117576
0.0024054147498
0.00238926843742
0.00236746238904
0.00233870785469
0.00230157585595
0.00225472495194
0.00219811089877
0.00212916340141
0.00204913842363
0.00195892560076
0.0018599147282
0.00175398238605
0.00164324625558
0.00152986521892
0.00141588206685
0.00130310925808
0.00119306019246
0.00108692070073
0.00098555163262
0.000889512883434
0.000799100202441
0.000714387825269
0.000635271842707
0.000561510919107
0.000492762371046
0.000428612683112
0.000368602301392
0.000312245050024
0.000259042404358
0.000208493499091
0.000160109510252
0.000113417878286
6.77965448186e-05
2.23841190826e-05
0.00238655392809
0.00243549617809
0.00243066109954
0.00242001268661
0.00241303599685
0.00240492394812
0.0023933488985
0.00237710388037
0.00235503418678
0.00232593061108
0.00228846940303
0.00224143072741
0.00218481439392
0.00211613049266
0.00203669981418
0.00194739205951
0.00184955081228
0.00174498674559
0.00163574158091
0.00152389859216
0.00141143257876
0.00130009983258
0.00119137110015
0.00108640290185
0.000986038772238
0.000890831335636
0.000801076979281
0.000716856438504
0.000638076360105
0.000564508522612
0.000495824736681
0.000431626479353
0.00037146906347
0.000314880643031
0.000261376231359
0.000210467619608
0.000161678011161
0.000114545458022
6.84528441441e-05
2.25655398393e-05
0.00236229053248
0.00241181976656
0.00240893978448
0.00239988021216
0.00239391054526
0.00238638009571
0.00237503746113
0.00235873190123
0.00233638625103
0.00230690024186
0.00226909338799
0.00222191228497
0.00216542432977
0.00209722243368
0.00201873538386
0.00193080282132
0.00183470169471
0.00173215066721
0.00162508525911
0.00151548256893
0.00140522149259
0.00129597873375
0.00118916431316
0.00108589281191
0.000986982840205
0.000892976442877
0.000804170797819
0.00072065591532
0.000642353632318
0.000569054684257
0.000500451903499
0.000436168570359
0.000375781668244
0.000318840280847
0.00026487922914
0.000213428850559
0.000164029992063
0.0001162362967
6.94380273492e-05
2.28396970346e-05
0.00233007751213
0.00238023821079
0.00237974979827
0.00237266764491
0.00236798416925
0.00236124599244
0.00235029868504
0.00233406136318
0.00231154993443
0.00228179228729
0.00224377454114
0.00219663790028
0.00214054473833
0.00207312607814
0.00199598542455
0.00190991767116
0.00181611365859
0.00171618063891
0.00161192543683
0.00150519574874
0.00139775296329
0.00129117572175
0.00118679879103
0.00108568447017
0.000988620094966
0.000896134304961
0.000808525158137
0.000725894298192
0.000648182764229
0.000575205371942
0.000506681759626
0.000442263100376
0.000381554179272
0.000324130997839
0.00026955390758
0.00021737719668
0.000167164527339
0.000118489744971
7.07528841749e-05
2.32088559665e-05
0.00229005405687
0.0023407987316
0.0023429964201
0.00233818787392
0.00233503527755
0.00232931478428
0.0023189853955
0.00230304542614
0.00228061213767
0.00225084965711
0.00221291855595
0.00216616727534
0.00211088647789
0.00204461669453
0.00196930315856
0.00188561383684
0.0017946502995
0.00169789707785
0.00159701792743
0.00149371587099
0.00138962021019
0.00128619870014
0.0011847004928
0.00108612805488
0.000991232735009
0.000900527680113
0.000814312003918
0.000732700988538
0.000655658263758
0.000583027082249
0.000514558851495
0.000449937910308
0.000388802199785
0.000330759908915
0.00027540199056
0.000222311501184
0.000171079545352
0.000121304326187
7.23979799488e-05
2.36756675186e-05
0.002242412702
0.002293613652
0.00229865513772
0.00229632772144
0.00229491995317
0.00229046009564
0.00228103177575
0.0022657167602
0.00224373420053
0.00221438111162
0.00217698482405
0.00213110435718
0.0020772262126
0.00201256391949
0.0019395871956
0.00185881071897
0.00177121755766
0.00167816384249
0.00158116228466
0.00148176354261
0.00138145726255
0.00128159327108
0.00118332914764
0.00108760305684
0.000995127575862
0.00090639927046
0.000821718783634
0.000741216844186
0.000664882541638
0.000592591214153
0.000524130200202
0.000459221451717
0.00039754061245
0.000338732563845
0.000282423222624
0.000228228581395
0.000175771201266
0.000124677277563
7.43732915376e-05
2.42428963206e-05
0.00218740408337
0.00223887478031
0.0022467988606
0.00224708325053
0.00224761017537
0.00224467278566
0.00223648474035
0.00222221008132
0.00220116274361
0.00217275816214
0.00213646694034
0.00209204278104
0.00204023516213
0.00197774453631
0.00190770059798
0.0018304021416
0.00174670205962
0.00165782943769
0.00156514725776
0.00147005327179
0.00137389620628
0.00127790628722
0.0011831478216
0.00109049332941
0.00100061592481
0.000913995722015
0.000830935894565
0.000751584441067
0.000675958438632
0.000603968388998
0.000535441021802
0.00047013958739
0.000407781204233
0.000348051194695
0.000290614081996
0.000235122286544
0.000181233188628
0.000128604046109
7.6677811292e-05
2.49131304204e-05
0.00212533750557
0.00217685862062
0.00218761077532
0.00219057715259
0.00219321221823
0.00219207767064
0.00218551695311
0.00217277008684
0.00215323174234
0.00212641211674
0.00209189024622
0.00204950024947
0.00199987684111
0.0019408170073
0.0018744512518
0.00180122097482
0.00172192852246
0.00163768491344
0.00154971083367
0.00145925669836
0.0013675342955
0.00127565715587
0.00118459841999
0.00109516657384
0.00100799669243
0.000923553931295
0.0008421457293
0.000763939416311
0.000688982457236
0.000617223209213
0.000548530702985
0.000482712525001
0.000419530346185
0.000358712971624
0.000299966477863
0.000242982531157
0.000187456027947
0.000133077768904
7.93091462532e-05
2.56884963939e-05
0.00205657718266
0.00210792283543
0.00212138341562
0.00212705894172
0.00213196621273
0.00213293145562
0.00212842285313
0.00211774627961
0.00210035930787
0.00207584348101
0.00204386282067
0.00200419139983
0.00195684332734
0.0019025997488
0.00184064103124
0.00177203759616
0.00169764266732
0.00161844143549
0.00153551671841
0.00144997973912
0.00136291263984
0.00127531854374
0.00118808463883
0.00110195959071
0.00101754386898
0.000935290584116
0.000855514062877
0.000778403467433
0.000704039132724
0.000632409776826
0.000563429263565
0.000496952046358
0.000432786839496
0.00037070834194
0.000310466481922
0.000251794338524
0.000194426358432
0.000138088760433
8.22631369659e-05
2.65704029807e-05
0.00198153514522
0.00203249622535
0.00204850710089
0.00205689167791
0.00206423093301
0.00206760588587
0.00206560080199
0.00205757489937
0.00204303032048
0.00202160027327
0.00199302329748
0.00195708255413
0.00191371618545
0.0018641118086
0.00180701313635
0.00174354534457
0.00167450212508
0.00160072066116
0.00152314432751
0.00144275228654
0.00136050584758
0.00127730627861
0.00119396240843
0.00111116947779
0.00102949860887
0.000949395184012
0.000871184021832
0.000795079215195
0.000721196714966
0.000649568104829
0.000580154404274
0.000512859101754
0.000447539974628
0.000384019482549
0.000322093113763
0.000261536908637
0.000202126246439
0.000143624023439
8.55335182954e-05
2.75593362672e-05
0.00190066263915
0.00195106537112
0.00196945187084
0.00198052993115
0.0019904588191
0.00199656108148
0.00199752574066
0.00199275067348
0.0019817620083
0.00196421357935
0.00193987132521
0.00190855924758
0.0018702278653
0.00182576520442
0.00177409842119
0.00171631485704
0.00165306605631
0.00158505329274
0.00151308894301
0.0014380279615
0.00136072080853
0.00128197716764
0.00120253696484
0.00112305022525
0.0010440656028
0.00096602640862
0.000889272579455
0.000814046937541
0.000740504203497
0.000668721480989
0.000598709204207
0.000530421831473
0.00046376785937
0.000398618914361
0.000334817221783
0.000272182747409
0.000210532545596
0.000149666818848
8.911166293e-05
2.86547424536e-05
0.00181444319018
0.00186416229352
0.00188474791909
0.00189849429478
0.00191116678947
0.00192031497277
0.0019247193049
0.00192379880589
0.00191707884314
0.00190420010846
0.00188490910541
0.00185902131055
0.00182649521969
0.00178795607906
0.00174237120027
0.00169082127259
0.00163380197054
0.00157188776896
0.00150577044777
0.00143619145964
0.00136390221459
0.00128963266619
0.00121406486735
0.00113781338074
0.00106141270962
0.000985311006412
0.0009098689724
0.000835362715733
0.000761989381791
0.000689874507897
0.000619080249505
0.000549613839112
0.000481435873619
0.000414468162831
0.000348600366899
0.000283696787248
0.000219616263493
0.000156196279237
9.29864281951e-05
2.98550388158e-05
0.00172339320995
0.00177236123289
0.00179497356781
0.00181135163394
0.00182691204051
0.00183941822225
0.0018477275133
0.00185126013515
0.00184951328801
0.00184208047531
0.00182864929684
0.00180897698745
0.0017829885495
0.00175119616012
0.0017122811146
0.00166748960942
0.00161711865997
0.0015616111641
0.0015015482004
0.00143756956608
0.00137034046803
0.00130052410992
0.00122875693223
0.00115562907417
0.00108167046531
0.00100734216616
0.000933032265944
0.000859055487028
0.000785655597305
0.00071300980124
0.0006412343967
0.000570391130019
0.000500493864374
0.000431515270963
0.000363392703129
0.000296034679355
0.000229341303565
0.000163186623543
9.71438598196e-05
3.1157700035e-05
0.00162806480401
0.00167627420506
0.00170073714409
0.00171968642881
0.00173825835935
0.00175442043982
0.00176709066751
0.00177566732743
0.00177958912392
0.0017783669949
0.00177159121403
0.00175891785476
0.00174018128663
0.00171575768706
0.00168422399151
0.00164671341007
0.00160338802373
0.00155457051074
0.00150074010438
0.00144244750711
0.00138028533937
0.00131486381851
0.00124678699338
0.00117663269962
0.00110493698158
0.0010321829291
0.000958793580517
0.000885128355422
0.000811482391486
0.000738088134695
0.00066511858983
0.000592691723891
0.000520875649675
0.000449694271896
0.000379132488095
0.000309142413625
0.000239664266531
0.000170607206969
0.000101567616879
3.25599359914e-05
0.00152903853729
0.00157650158261
0.00160258717364
0.00162399026266
0.00164566053837
0.00166575943754
0.00168324322635
0.00169745827697
0.00170774897848
0.00171350468163
0.00171417939951
0.00170928906794
0.00169844514329
0.00168145605236
0.00165854796656
0.00162889275605
0.00159298297974
0.00155111365364
0.00150366633471
0.00145111411675
0.00139399139494
0.00133286989351
0.00126833538842
0.00120096659377
0.00113131748458
0.0010599033845
0.000987190798032
0.0009135907196
0.00083945500195
0.000765075296814
0.000690684070007
0.000616457225892
0.000542517968688
0.000468941546225
0.000395759896016
0.000322967672528
0.000250543480841
0.000178429461704
0.000106244361663
3.40622059453e-05
0.00142719444029
0.00147390890807
0.00150126198187
0.00152488660265
0.00154967307403
0.00157395748825
0.00159669695792
0.00161714368613
0.00163450396167
0.00164800342082
0.00165692337151
0.00166061396048
0.00165849462691
0.00165015263508
0.00163593613442
0.00161446032758
0.00158626816789
0.00155155485687
0.00151059590071
0.0014637943807
0.00141163964597
0.0013546796318
0.00129349663676
0.00122868429698
0.00116082723788
0.00109048409455
0.00101817412408
0.000944367372566
0.000869478160605
0.000793861522422
0.000717812168852
0.000641565530625
0.000565300493407
0.000489143420355
0.000413172402316
0.000337423175868
0.000261910512271
0.000186606800322
0.000111152395722
3.56653207453e-05
0.00132450890196
0.00137058253243
0.0013987228043
0.00142417439861
0.00145197532051
0.00148060457202
0.00150895907071
0.00153614027954
0.00156116602752
0.00158305456649
0.00160087510288
0.00161377357445
0.00162098130721
0.0016219346834
0.00161677904714
0.00160368803128
0.00158340446263
0.00155593585656
0.00152145451066
0.00148030882476
0.00143295791365
0.00137994106419
0.00132185204884
0.00125931343689
0.00119295305287
0.00112338360576
0.00105118593127
0.000976896009122
0.000900995664062
0.000823906673691
0.000745987891646
0.000667534941738
0.000588782062
0.000509905630265
0.000431028228631
0.000352224614863
0.000273542948792
0.00019498204644
0.000116202810784
3.73483929807e-05
0.0012206482133
0.00126444834195
0.00129187685645
0.00131837913224
0.00134911164503
0.00138248625305
0.00141716272727
0.00145198140098
0.00148569505756
0.00151705366331
0.00154486165371
0.00156800845197
0.00158548346199
0.0015965154354
0.00160100241608
0.00159716071757
0.00158529298341
0.00156537952475
0.00153753188094
0.00150206560717
0.00145943065477
0.00141017741254
0.00135493047925
0.00129436004633
0.00122915448357
0.00115999602544
0.00108754030041
0.00101240005123
0.000935133065726
0.000856234086567
0.000776130308443
0.000695179988243
0.000613673695469
0.000531837656336
0.000449838019944
0.000367787490791
0.000285766280272
0.000203797338996
0.000121571166559
3.923093884e-05
0.00110816165263
0.00114136675553
0.00116410133487
0.00119016181869
0.0012239782816
0.00126340377782
0.00130640367233
0.00135129987258
0.00139642711628
0.0014401449612
0.0014808822477
0.00151716027974
0.00154760760891
0.00157116267737
0.00158760441949
0.00159631756144
0.00159453234047
0.00158348842081
0.00156332227821
0.00153429371472
0.00149685569321
0.00145159384766
0.00139919301996
0.00134040329158
0.0012760063548
0.00120678546171
0.00113350003685
0.0010568653621
0.000977537360991
0.00089610221135
0.0008130703233
0.000728874124693
0.000643869090046
0.000558337362573
0.000472493045902
0.000386491324809
0.000300448274804
0.000214409746849
0.000128146507185
4.1828031037e-05
0.00122053158792
0.00126433107903
0.00129175858643
0.00131825953696
0.00134899056815
0.00138236366405
0.00141703867803
0.00145185601085
0.00148556851162
0.00151692620822
0.00154473358606
0.00156788010773
0.00158535522282
0.00159638774817
0.00160087579798
0.00159703561362
0.00158516995896
0.00156525900527
0.0015374142616
0.00150195126007
0.00145931992889
0.00141007063386
0.00135482795086
0.00129426204976
0.00122906127994
0.00115990785685
0.00108745739023
0.00101232260441
0.000935061268208
0.000856168105284
0.00077607029137
0.000695126065336
0.000613625979068
0.000531796240693
0.000449802979653
0.000367758881664
0.000285744140306
0.00020378169885
0.000121562074521
3.92280749683e-05
0.00135672320944
0.00141451434503
0.00144821239266
0.00147519340246
0.00150171707828
0.00152704900761
0.00155074276388
0.00157231026044
0.0015910707187
0.00160630965184
0.00161734457783
0.00162355410297
0.00162439474025
0.00161940548036
0.00160810468189
0.00159071874587
0.00156673576647
0.00153627585695
0.00149955405636
0.00145688766202
0.00140867602117
0.00135538239803
0.00129751605802
0.00123561291555
0.00117021687499
0.00110186293865
0.00103106268694
0.000958292498112
0.000883984633435
0.000808521118947
0.000732230217918
0.000655385196135
0.000578205064459
0.000500856917941
0.000423458554044
0.000346081742531
0.000268772807467
0.00019153776211
0.00011399068616
3.62132360155e-05
0.00148323660332
0.00154500619998
0.00158022474419
0.00160593438937
0.00162842169349
0.001647168982
0.00166210901233