/*--------------------------------*- C++ -*----------------------------------*\
| =========                 |                                                 |
| \\      /  F ield         | OpenFOAM: The Open Source CFD Toolbox           |
|  \\    /   O peration     | Version:  2112                                  |
|   \\  /    A nd           | Website:  www.openfoam.com                      |
|    \\/     M anipulation  |                                                 |
\*---------------------------------------------------------------------------*/
FoamFile
{
    version     2.0;
    format      ascii;
    arch        "LSB;label=32;scalar=64";
    class       volScalarField;
    location    "29";
    object      p;
}
// * * * * * * * * * * * * * * * * * * * * * * * * * * * * * * * * * * * * * //

dimensions      [0 2 -2 0 0 0 0];

internalField   nonuniform List<scalar> 
16641
(
-5.31461e-07
1.2613e-05
2.54473e-05
3.31359e-05
3.22528e-05
2.10583e-05
-9.64247e-07
-3.36477e-05
-7.64534e-05
-0.000128638
-0.000189372
-0.000257826
-0.000333227
-0.000414892
-0.000502246
-0.000594845
-0.000692374
-0.000794641
-0.000901575
-0.0010132
-0.00112964
-0.00125105
-0.00137767
-0.00150972
-0.00164745
-0.00179109
-0.00194082
-0.00209678
-0.00225905
-0.00242763
-0.00260245
-0.00278333
-0.00297
-0.0031621
-0.00335914
-0.00356052
-0.0037655
-0.00397326
-0.00418279
-0.00439299
-0.00460262
-0.00481028
-0.00501448
-0.00521357
-0.00540582
-0.00558937
-0.0057623
-0.00592259
-0.00606819
-0.00619704
-0.00630708
-0.00639629
-0.00646272
-0.00650455
-0.00652009
-0.00650786
-0.0064666
-0.00639533
-0.00629336
-0.00616038
-0.00599643
-0.00580198
-0.00557791
-0.00532559
-0.00504683
-0.00474392
-0.00441958
-0.00407693
-0.00371977
-0.00335204
-0.0029781
-0.00260261
-0.00223045
-0.00186668
-0.0015164
-0.00118472
-0.000876599
-0.000596829
-0.000349874
-0.000139793
2.98439e-05
0.000156049
0.00023648
0.00026951
0.000254263
0.000190644
7.93409e-05
-7.81823e-05
-0.000279722
-0.000522384
-0.00080276
-0.00111668
-0.00145978
-0.00182729
-0.00221422
-0.00261552
-0.00302615
-0.00344123
-0.00385608
-0.00426636
-0.00466811
-0.00505782
-0.00543243
-0.00578944
-0.0061268
-0.00644298
-0.00673693
-0.00700804
-0.00725609
-0.00748122
-0.00768385
-0.00786465
-0.00802447
-0.00816429
-0.00828514
-0.00838808
-0.00847411
-0.00854418
-0.00859915
-0.00863974
-0.00866658
-0.00868027
-0.00868146
-0.00867103
-0.00865038
-0.00862194
-0.00858974
-0.00855981
-0.00854141
-1.46167e-05
-1.13958e-06
7.85999e-06
1.10427e-05
6.82205e-06
-6.15715e-06
-2.8468e-05
-6.01436e-05
-0.000100882
-0.000150175
-0.000207412
-0.000271949
-0.000343161
-0.00042048
-0.000503421
-0.000591599
-0.000684736
-0.000782659
-0.000885292
-0.000992646
-0.00110481
-0.00122191
-0.00134415
-0.00147171
-0.00160481
-0.00174364
-0.00188835
-0.00203908
-0.0021959
-0.00235879
-0.0025277
-0.00270247
-0.00288285
-0.0030685
-0.00325898
-0.00345374
-0.0036521
-0.00385328
-0.00405635
-0.00426027
-0.00446388
-0.00466587
-0.00486481
-0.00505915
-0.00524724
-0.00542732
-0.00559753
-0.00575595
-0.00590061
-0.00602952
-0.0061407
-0.00623217
-0.00630205
-0.00634855
-0.00637003
-0.00636502
-0.00633226
-0.00627077
-0.00617985
-0.00605914
-0.00590864
-0.00572874
-0.00552027
-0.00528448
-0.00502308
-0.00473827
-0.00443266
-0.00410918
-0.00377138
-0.00342312
-0.00306859
-0.00271227
-0.00235886
-0.00201321
-0.00168024
-0.00136487
-0.00107189
-0.000805914
-0.000571235
-0.000371769
-0.000210952
-9.16605e-05
-1.61418e-05
1.40428e-05
-1.93996e-06
-6.41746e-05
-0.000171988
-0.000323965
-0.00051798
-0.000751253
-0.00102043
-0.00132166
-0.00165064
-0.00200282
-0.00237347
-0.00275775
-0.00315088
-0.00354819
-0.00394526
-0.00433797
-0.00472259
-0.00509578
-0.0054547
-0.00579695
-0.00612062
-0.00642429
-0.00670696
-0.00696805
-0.00720735
-0.00742498
-0.00762134
-0.00779702
-0.00795283
-0.00808965
-0.00820846
-0.00831024
-0.00839596
-0.00846656
-0.00852289
-0.00856574
-0.00859585
-0.00861395
-0.00862083
-0.00861751
-0.00860539
-0.00858653
-0.008564
-0.00854153
-0.00852304
-2.79807e-05
-1.04186e-05
-1.34051e-06
4.23419e-07
-5.11361e-06
-1.88784e-05
-4.13084e-05
-7.24054e-05
-0.000111914
-0.000159415
-0.000214395
-0.000276304
-0.0003446
-0.000418785
-0.00049843
-0.000583193
-0.00067283
-0.000767187
-0.000866197
-0.000969872
-0.00107829
-0.00119159
-0.00130994
-0.00143353
-0.00156256
-0.0016972
-0.00183761
-0.00198393
-0.00213622
-0.00229449
-0.00245869
-0.0026287
-0.00280429
-0.00298517
-0.00317092
-0.00336105
-0.00355493
-0.00375182
-0.00395087
-0.0041511
-0.00435138
-0.0045505
-0.00474707
-0.00493961
-0.00512652
-0.0053061
-0.00547652
-0.00563593
-0.00578239
-0.00591392
-0.00602856
-0.00612437
-0.00619944
-0.006252
-0.00628036
-0.00628304
-0.00625875
-0.00620645
-0.0061254
-0.00601518
-0.0058757
-0.0057073
-0.00551072
-0.0052871
-0.00503811
-0.0047659
-0.0044726
-0.00416165
-0.0038362
-0.00350002
-0.00315723
-0.00281221
-0.00246959
-0.00213413
-0.00181069
-0.00150411
-0.00121912
-0.000960274
-0.000731825
-0.000537641
-0.000381123
-0.000265118
-0.000191853
-0.000162873
-0.000179007
-0.000240337
-0.000346196
-0.000495184
-0.000685198
-0.000913494
-0.00117675
-0.00147115
-0.00179249
-0.00213627
-0.00249782
-0.00287242
-0.00325537
-0.00364212
-0.00402835
-0.00441008
-0.00478367
-0.00514593
-0.00549412
-0.00582596
-0.00613965
-0.00643385
-0.00670765
-0.00696052
-0.00719233
-0.00740321
-0.00759359
-0.00776409
-0.00791549
-0.00804869
-0.00816463
-0.0082643
-0.00834867
-0.00841867
-0.00847516
-0.00851896
-0.00855083
-0.0085715
-0.00858177
-0.00858254
-0.00857493
-0.00856055
-0.00854156
-0.00851914
-0.00849293
-3.61544e-05
-1.38925e-05
-3.36784e-06
-1.66994e-06
-7.60612e-06
-2.17194e-05
-4.42339e-05
-7.50226e-05
-0.000113787
-0.000160117
-0.000213528
-0.000273507
-0.000339555
-0.000411216
-0.000488102
-0.000569909
-0.000656417
-0.000747497
-0.000843103
-0.000943263
-0.00104807
-0.00115766
-0.00127222
-0.00139195
-0.00151703
-0.00164768
-0.00178406
-0.0019263
-0.0020745
-0.00222869
-0.00238886
-0.0025549
-0.00272664
-0.00290382
-0.00308608
-0.00327297
-0.00346391
-0.00365825
-0.00385516
-0.00405373
-0.00425289
-0.00445147
-0.00464815
-0.00484147
-0.00502988
-0.00521168
-0.00538511
-0.00554828
-0.00569927
-0.00583609
-0.00595676
-0.0060593
-0.00614177
-0.00620234
-0.00623927
-0.00625101
-0.0062362
-0.00619373
-0.00612277
-0.0060228
-0.00589368
-0.00573565
-0.00554936
-0.0053359
-0.00509692
-0.00483477
-0.00455025
-0.00424797
-0.00393081
-0.00360241
-0.00326682
-0.0029284
-0.00259175
-0.00226163
-0.00194288
-0.00164035
-0.00135878
-0.00110273
-0.000876486
-0.000683935
-0.000528505
-0.000413072
-0.000339888
-0.000310522
-0.000325824
-0.000385889
-0.000490064
-0.000636953
-0.000824452
-0.00104981
-0.00130969
-0.00160027
-0.00191732
-0.0022564
-0.00261272
-0.00298163
-0.00335842
-0.00373857
-0.0041178
-0.00449215
-0.00485806
-0.0052124
-0.00555249
-0.00587617
-0.0061817
-0.00646785
-0.00673378
-0.00697908
-0.00720368
-0.00740779
-0.0075919
-0.00775669
-0.00790298
-0.00803172
-0.00814387
-0.00824046
-0.00832247
-0.00839083
-0.00844645
-0.00849012
-0.00852258
-0.00854453
-0.00855663
-0.00855959
-0.00855414
-0.00854138
-0.00852269
-0.00849705
-0.00846095
-3.57695e-05
-1.00047e-05
1.77179e-06
3.57027e-06
-2.63855e-06
-1.70921e-05
-3.98049e-05
-7.05131e-05
-0.000108849
-0.000154374
-0.000206597
-0.000265018
-0.000329159
-0.000398592
-0.000472962
-0.000551993
-0.000635497
-0.000723373
-0.000815601
-0.000912237
-0.0010134
-0.00111925
-0.00122999
-0.00134584
-0.00146702
-0.00159375
-0.00172623
-0.00186463
-0.00200907
-0.00215963
-0.00231632
-0.00247909
-0.00264782
-0.0028223
-0.00300224
-0.00318723
-0.00337677
-0.00357025
-0.00376693
-0.00396592
-0.00416622
-0.00436669
-0.00456604
-0.00476286
-0.00495558
-0.00514253
-0.00532192
-0.00549185
-0.00565036
-0.00579542
-0.00592497
-0.00603698
-0.00612943
-0.0062004
-0.00624806
-0.00627077
-0.00626707
-0.00623574
-0.00617585
-0.00608681
-0.00596837
-0.00582067
-0.00564429
-0.00544027
-0.00520996
-0.00495482
-0.004679
-0.00438377
-0.00407274
-0.00374968
-0.00341865
-0.00308401
-0.00275038
-0.00242254
-0.00210535
-0.00180371
-0.00152242
-0.00126609
-0.00103906
-0.000845293
-0.000688275
-0.000570951
-0.000495635
-0.000463958
-0.000476813
-0.000534338
-0.000635903
-0.000780126
-0.000964907
-0.00118748
-0.00144448
-0.00173205
-0.00204592
-0.00238156
-0.00273421
-0.0030991
-0.00347152
-0.00384688
-0.0042209
-0.00458961
-0.00494946
-0.00529733
-0.00563061
-0.00594716
-0.00624536
-0.00652402
-0.00678242
-0.00702023
-0.00723748
-0.00743448
-0.00761181
-0.00777024
-0.00791066
-0.00803408
-0.00814154
-0.0082341
-0.00831279
-0.00837857
-0.00843236
-0.00847494
-0.00850703
-0.00852924
-0.00854209
-0.00854605
-0.00854148
-0.008529
-0.00850934
-0.00847969
-0.00843394
-2.49773e-05
2.72077e-06
1.51011e-05
1.675e-05
1.00959e-05
-4.87761e-06
-2.80156e-05
-5.89281e-05
-9.71663e-05
-0.000142243
-0.000193644
-0.000250864
-0.000313433
-0.000380942
-0.000453059
-0.000529536
-0.000610217
-0.000695035
-0.000784006
-0.000877222
-0.000974836
-0.00107705
-0.00118411
-0.00129626
-0.00141377
-0.0015369
-0.00166588
-0.00180094
-0.00194225
-0.00208993
-0.00224406
-0.00240464
-0.00257162
-0.00274486
-0.00292412
-0.00310908
-0.00329929
-0.0034942
-0.00369311
-0.00389521
-0.00409951
-0.00430491
-0.00451013
-0.00471375
-0.00491419
-0.00510975
-0.00529858
-0.00547874
-0.00564818
-0.00580479
-0.00594642
-0.00607092
-0.00617617
-0.00626011
-0.00632083
-0.00635654
-0.00636568
-0.0063469
-0.00629919
-0.00622183
-0.00611448
-0.00597721
-0.00581053
-0.00561539
-0.00539319
-0.00514559
-0.00487544
-0.00458527
-0.0042784
-0.00395852
-0.00362969
-0.0032963
-0.00296298
-0.00263456
-0.00231599
-0.0020122
-0.00172807
-0.00146831
-0.00123736
-0.00103926
-0.000877612
-0.000755467
-0.000675233
-0.000638631
-0.000646639
-0.000699465
-0.000796532
-0.000936495
-0.00111727
-0.00133609
-0.00158956
-0.0018738
-0.00218447
-0.00251695
-0.00286644
-0.00322807
-0.00359703
-0.00396868
-0.00433865
-0.00470292
-0.00505789
-0.00540045
-0.00572796
-0.00603834
-0.00632997
-0.00660176
-0.00685304
-0.0070836
-0.00729354
-0.00748329
-0.00765353
-0.00780512
-0.00793908
-0.00805649
-0.00815849
-0.00824619
-0.00832068
-0.00838298
-0.00843401
-0.00847457
-0.00850533
-0.00852682
-0.00853943
-0.00854338
-0.00853875
-0.00852571
-0.00850451
-0.00847095
-0.00841694
-2.95958e-06
2.50988e-05
3.72491e-05
3.82766e-05
3.08193e-05
1.50115e-05
-8.86162e-06
-4.03025e-05
-7.87819e-05
-0.000123758
-0.000174686
-0.000231047
-0.000292371
-0.000358261
-0.000428405
-0.000502586
-0.000580681
-0.000662663
-0.000748594
-0.000838611
-0.000932919
-0.00103177
-0.00113546
-0.00124429
-0.00135859
-0.00147868
-0.00160485
-0.00173738
-0.00187652
-0.00202246
-0.00217534
-0.00233526
-0.00250223
-0.00267618
-0.00285696
-0.00304431
-0.00323784
-0.00343706
-0.00364132
-0.00384984
-0.00406164
-0.00427562
-0.00449049
-0.0047048
-0.0049169
-0.00512503
-0.00532726
-0.00552153
-0.00570568
-0.00587748
-0.00603465
-0.00617489
-0.00629595
-0.00639564
-0.00647187
-0.00652276
-0.00654659
-0.00654192
-0.00650761
-0.00644285
-0.00634721
-0.00622068
-0.00606368
-0.00587712
-0.0056624
-0.00542116
-0.00515597
-0.00486959
-0.00456529
-0.00424676
-0.00391807
-0.00358364
-0.00324815
-0.00291648
-0.00259364
-0.00228467
-0.00199453
-0.00172804
-0.00148975
-0.00128386
-0.00111409
-0.000983616
-0.000894997
-0.000850084
-0.000849978
-0.000894996
-0.000984653
-0.00111768
-0.00129203
-0.00150497
-0.0017531
-0.0020325
-0.0023388
-0.0026673
-0.00301309
-0.00337121
-0.00373674
-0.00410494
-0.0044713
-0.00483172
-0.00518253
-0.00552054
-0.00584308
-0.00614802
-0.00643379
-0.00669931
-0.00694397
-0.00716761
-0.00737045
-0.007553
-0.00771605
-0.00786059
-0.00798772
-0.00809864
-0.00819459
-0.00827677
-0.00834635
-0.00840439
-0.00845186
-0.00848955
-0.00851812
-0.00853804
-0.00854956
-0.00855274
-0.00854736
-0.00853331
-0.00851045
-0.0084736
-0.0084133
3.05415e-05
5.74879e-05
6.85134e-05
6.83267e-05
5.95915e-05
4.25472e-05
1.75793e-05
-1.47293e-05
-5.37807e-05
-9.89827e-05
-0.000149759
-0.000205576
-0.000265963
-0.000330534
-0.000398999
-0.000471171
-0.000546969
-0.000626414
-0.000709621
-0.000796786
-0.000888175
-0.000984108
-0.00108495
-0.00119107
-0.00130288
-0.00142077
-0.00154512
-0.00167628
-0.00181459
-0.00196034
-0.00211375
-0.002275
-0.0024442
-0.00262137
-0.00280642
-0.00299916
-0.00319928
-0.00340632
-0.00361966
-0.00383851
-0.0040619
-0.0042887
-0.00451755
-0.00474693
-0.00497511
-0.0052002
-0.00542014
-0.00563273
-0.00583566
-0.00602654
-0.00620293
-0.00636235
-0.0065024
-0.00662073
-0.00671512
-0.00678351
-0.00682409
-0.00683528
-0.00681584
-0.00676486
-0.00668182
-0.00656665
-0.00641971
-0.00624182
-0.00603429
-0.00579895
-0.00553815
-0.00525466
-0.00495174
-0.0046331
-0.00430283
-0.00396537
-0.00362544
-0.00328799
-0.00295811
-0.0026409
-0.00234147
-0.00206475
-0.00181543
-0.00159785
-0.00141593
-0.001273
-0.0011718
-0.00111436
-0.00110195
-0.00113505
-0.00121331
-0.00133558
-0.00149991
-0.00170364
-0.00194339
-0.00221525
-0.0025148
-0.00283729
-0.00317774
-0.00353105
-0.0038922
-0.00425628
-0.00461869
-0.00497518
-0.00532193
-0.00565567
-0.00597364
-0.00627365
-0.00655409
-0.00681386
-0.00705239
-0.00726955
-0.00746562
-0.0076412
-0.00779719
-0.00793466
-0.00805484
-0.00815905
-0.00824862
-0.00832485
-0.008389
-0.00844221
-0.00848549
-0.00851966
-0.00854537
-0.00856304
-0.00857286
-0.00857472
-0.00856823
-0.00855303
-0.00852871
-0.00848949
-0.00842501
7.54891e-05
9.99909e-05
0.000109014
0.000106978
9.64408e-05
7.77214e-05
5.12827e-05
1.77688e-05
-2.21706e-05
-6.79037e-05
-0.000118829
-0.000174402
-0.000234155
-0.000297716
-0.000364823
-0.000435324
-0.000509188
-0.000586491
-0.000667414
-0.000752223
-0.00084126
-0.000934928
-0.00103367
-0.00113797
-0.00124831
-0.00136518
-0.00148906
-0.00162042
-0.00175969
-0.00190726
-0.00206347
-0.0022286
-0.00240285
-0.00258632
-0.00277901
-0.0029808
-0.0031914
-0.00341038
-0.00363712
-0.00387082
-0.00411047
-0.00435484
-0.00460249
-0.00485178
-0.00510083
-0.00534761
-0.00558987
-0.00582526
-0.00605126
-0.00626529
-0.00646473
-0.00664694
-0.00680931
-0.00694935
-0.00706468
-0.00715311
-0.00721269
-0.00724174
-0.0072389
-0.00720319
-0.007134
-0.00703119
-0.00689505
-0.00672634
-0.00652628
-0.00629682
-0.00604012
-0.00575896
-0.0054566
-0.00513671
-0.00480341
-0.00446115
-0.00411469
-0.00376902
-0.00342931
-0.00310076
-0.00278858
-0.00249785
-0.00223342
-0.00199982
-0.00180114
-0.00164095
-0.00152221
-0.00144716
-0.00141731
-0.00143335
-0.00149514
-0.0016017
-0.00175125
-0.00194121
-0.00216833
-0.00242871
-0.00271795
-0.00303125
-0.00336357
-0.00370973
-0.00406454
-0.00442297
-0.00478026
-0.00513198
-0.00547419
-0.00580343
-0.00611684
-0.00641211
-0.00668754
-0.00694198
-0.00717485
-0.007386
-0.00757576
-0.00774479
-0.00789404
-0.00802469
-0.00813808
-0.00823561
-0.00831873
-0.00838886
-0.00844734
-0.00849539
-0.00853409
-0.0085643
-0.00858669
-0.00860167
-0.00860938
-0.00860961
-0.00860186
-0.00858559
-0.00856023
-0.00851965
-0.00845308
0.000131691
0.000152541
0.000158726
0.000154211
0.000141347
0.000120518
9.22417e-05
5.72011e-05
1.60779e-05
-3.04712e-05
-8.18306e-05
-0.000137454
-0.000196883
-0.000259769
-0.000325882
-0.000395121
-0.000467507
-0.000543187
-0.000622416
-0.000705545
-0.00079301
-0.00088531
-0.000982997
-0.00108666
-0.00119689
-0.00131431
-0.00143951
-0.00157309
-0.00171559
-0.00186754
-0.00202939
-0.00220152
-0.00238424
-0.00257773
-0.00278207
-0.00299716
-0.00322275
-0.00345841
-0.00370347
-0.00395709
-0.00421814
-0.00448529
-0.00475697
-0.00503135
-0.00530639
-0.00557984
-0.00584928
-0.00611211
-0.00636563
-0.00660704
-0.00683352
-0.00704224
-0.00723042
-0.00739541
-0.00753468
-0.0076459
-0.007727
-0.00777619
-0.00779203
-0.00777342
-0.0077197
-0.00763064
-0.00750645
-0.00734786
-0.00715604
-0.00693279
-0.00668031
-0.0064013
-0.00609899
-0.00577704
-0.00543952
-0.00509089
-0.00473594
-0.0043797
-0.00402737
-0.00368428
-0.00335573
-0.00304695
-0.00276297
-0.00250852
-0.00228792
-0.00210501
-0.00196299
-0.00186442
-0.00181106
-0.0018039
-0.00184307
-0.00192783
-0.00205664
-0.00222709
-0.00243609
-0.00267983
-0.00295398
-0.00325374
-0.00357403
-0.00390957
-0.00425509
-0.00460539
-0.00495553
-0.00530092
-0.00563742
-0.00596138
-0.00626977
-0.00656012
-0.00683061
-0.00707999
-0.00730758
-0.00751322
-0.00769719
-0.0078602
-0.00800324
-0.00812754
-0.00823452
-0.00832569
-0.00840259
-0.00846674
-0.00851959
-0.00856243
-0.00859643
-0.00862252
-0.00864138
-0.00865346
-0.00865886
-0.00865737
-0.00864838
-0.00863128
-0.00860538
-0.00856447
-0.00849775
0.000198845
0.000214931
0.000217493
0.0002099
0.000194216
0.000170871
0.000140418
0.000103556
6.09782e-05
1.33469e-05
-3.87212e-05
-9.46914e-05
-0.000154127
-0.00021671
-0.00028226
-0.000350729
-0.000422211
-0.00049693
-0.000575232
-0.000657568
-0.000744481
-0.00083659
-0.000934569
-0.00103913
-0.00115102
-0.00127097
-0.00139975
-0.00153806
-0.00168662
-0.00184606
-0.00201696
-0.00219984
-0.00239507
-0.00260293
-0.00282353
-0.0030568
-0.00330248
-0.00356009
-0.00382891
-0.00410795
-0.00439599
-0.00469151
-0.00499275
-0.00529767
-0.00560403
-0.00590934
-0.00621094
-0.00650601
-0.00679162
-0.00706476
-0.0073224
-0.00756152
-0.00777919
-0.00797256
-0.00813899
-0.00827602
-0.00838145
-0.00845341
-0.00849033
-0.00849104
-0.0084548
-0.00838128
-0.00827064
-0.0081235
-0.007941
-0.0077248
-0.00747705
-0.00720041
-0.00689801
-0.00657347
-0.00623082
-0.00587449
-0.00550926
-0.00514017
-0.0047725
-0.00441161
-0.00406295
-0.00373188
-0.00342362
-0.00314313
-0.00289498
-0.00268329
-0.0025116
-0.00238279
-0.00229899
-0.00226153
-0.00227089
-0.00232667
-0.00242762
-0.00257163
-0.0027558
-0.00297651
-0.00322956
-0.00351021
-0.00381337
-0.00413374
-0.00446593
-0.00480461
-0.00514467
-0.00548133
-0.0058102
-0.00612746
-0.00642984
-0.00671467
-0.00697995
-0.00722427
-0.00744682
-0.00764735
-0.00782609
-0.00798369
-0.00812116
-0.00823976
-0.00834095
-0.00842632
-0.0084975
-0.00855608
-0.00860361
-0.00864149
-0.00867095
-0.008693
-0.00870838
-0.00871757
-0.00872071
-0.00871757
-0.00870753
-0.00868994
-0.00866406
-0.00862379
-0.00855862
0.000276546
0.000286823
0.000285034
0.000273815
0.000254861
0.000228635
0.000195706
0.000156761
0.000112483
6.35213e-05
1.04726e-05
-4.6154e-05
-0.000105957
-0.000168668
-0.000234163
-0.000302465
-0.000373751
-0.000448339
-0.000526681
-0.000609345
-0.000697001
-0.000790404
-0.000890373
-0.000997772
-0.00111349
-0.00123845
-0.00137354
-0.00151965
-0.00167762
-0.00184825
-0.00203224
-0.0022302
-0.00244261
-0.00266977
-0.00291183
-0.00316871
-0.00344009
-0.00372541
-0.00402383
-0.0043342
-0.00465511
-0.00498484
-0.0053214
-0.00566251
-0.00600567
-0.00634814
-0.006687
-0.00701921
-0.00734159
-0.00765092
-0.00794396
-0.00821754
-0.00846852
-0.00869393
-0.00889099
-0.00905711
-0.00918999
-0.00928763
-0.0093484
-0.00937102
-0.00935465
-0.00929887
-0.00920374
-0.0090698
-0.00889809
-0.00869015
-0.00844805
-0.00817434
-0.00787206
-0.00754474
-0.00719634
-0.00683124
-0.00645417
-0.00607018
-0.00568454
-0.0053027
-0.00493019
-0.00457253
-0.00423511
-0.00392313
-0.00364145
-0.00339451
-0.00318621
-0.00301982
-0.00289789
-0.00282218
-0.00279361
-0.0028122
-0.00287709
-0.00298654
-0.00313797
-0.00332804
-0.00355273
-0.00380745
-0.00408718
-0.00438662
-0.00470032
-0.00502283
-0.00534889
-0.00567348
-0.00599203
-0.00630043
-0.00659517
-0.00687334
-0.0071327
-0.00737163
-0.00758913
-0.0077848
-0.00795876
-0.00811156
-0.00824417
-0.00835784
-0.00845404
-0.00853438
-0.00860055
-0.00865423
-0.00869704
-0.00873046
-0.00875581
-0.00877417
-0.00878637
-0.00879292
-0.00879403
-0.0087895
-0.00877872
-0.00876105
-0.00873576
-0.00869701
-0.00863482
0.000364276
0.000367756
0.000360937
0.000345599
0.000322978
0.000293557
0.000257897
0.000216644
0.000170444
0.000119914
6.56074e-05
7.98978e-06
-5.25911e-05
-0.00011593
-0.000181977
-0.000250842
-0.000322798
-0.000398276
-0.000477851
-0.000562228
-0.000652222
-0.000748745
-0.000852779
-0.000965359
-0.00108755
-0.00122045
-0.00136513
-0.00152263
-0.00169397
-0.00188008
-0.00208177
-0.00229974
-0.00253454
-0.0027865
-0.00305574
-0.00334212
-0.00364525
-0.00396441
-0.00429859
-0.00464646
-0.00500636
-0.00537632
-0.00575409
-0.00613712
-0.00652263
-0.00690762
-0.00728892
-0.00766321
-0.00802711
-0.00837719
-0.00871001
-0.00902221
-0.00931052
-0.00957181
-0.00980317
-0.0100019
-0.0101656
-0.0102921
-0.0103798
-0.0104272
-0.0104334
-0.0103979
-0.0103206
-0.0102019
-0.0100428
-0.00984468
-0.00960947
-0.00933961
-0.00903801
-0.00870808
-0.00835366
-0.00797905
-0.0075889
-0.00718822
-0.00678228
-0.00637655
-0.00597665
-0.0055882
-0.0052168
-0.00486786
-0.00454656
-0.00425767
-0.00400549
-0.00379373
-0.00362544
-0.00350288
-0.00342747
-0.00339976
-0.0034194
-0.00348512
-0.00359477
-0.00374537
-0.00393321
-0.00415394
-0.00440269
-0.00467421
-0.00496306
-0.00526372
-0.00557076
-0.00587898
-0.00618356
-0.00648013
-0.00676488
-0.00703462
-0.00728682
-0.00751959
-0.00773169
-0.0079225
-0.00809196
-0.00824049
-0.00836893
-0.00847847
-0.00857054
-0.00864677
-0.00870885
-0.0087585
-0.0087974
-0.00882711
-0.00884902
-0.00886429
-0.00887383
-0.00887822
-0.00887772
-0.00887219
-0.0088611
-0.00884383
-0.00881967
-0.0087832
-0.00872516
0.000461391
0.000457126
0.000444643
0.000424752
0.000398125
0.000365248
0.000326645
0.000282893
0.000234571
0.000182235
0.000126377
6.73953e-05
5.56405e-06
-5.8992e-05
-0.000126315
-0.000196619
-0.000270292
-0.000347896
-0.000430148
-0.000517908
-0.000612159
-0.000713989
-0.000824564
-0.00094511
-0.00107689
-0.00122118
-0.00137923
-0.00155229
-0.0017415
-0.00194791
-0.00217247
-0.00241593
-0.00267886
-0.00296157
-0.00326413
-0.00358631
-0.00392754
-0.00428695
-0.00466328
-0.00505497
-0.00546008
-0.00587637
-0.00630129
-0.006732
-0.00716544
-0.00759832
-0.00802722
-0.00844858
-0.00885879
-0.00925421
-0.00963124
-0.00998632
-0.0103161
-0.0106172
-0.0108866
-0.0111216
-0.0113196
-0.0114785
-0.0115962
-0.0116715
-0.0117031
-0.0116906
-0.0116336
-0.0115326
-0.0113882
-0.0112017
-0.010975
-0.0107102
-0.0104102
-0.0100782
-0.00971787
-0.00933343
-0.00892939
-0.00851068
-0.00808253
-0.00765039
-0.00721992
-0.00679686
-0.00638695
-0.00599584
-0.00562897
-0.0052915
-0.00498814
-0.00472309
-0.00449992
-0.00432146
-0.00418976
-0.00410598
-0.00407037
-0.00408226
-0.00414004
-0.00424124
-0.00438256
-0.00456
-0.00476895
-0.00500431
-0.00526072
-0.00553262
-0.00581448
-0.00610093
-0.00638689
-0.00666773
-0.00693932
-0.00719813
-0.00744129
-0.0076666
-0.0078725
-0.0080581
-0.00822308
-0.00836766
-0.00849252
-0.0085987
-0.00868755
-0.00876064
-0.00881965
-0.0088663
-0.00890229
-0.00892924
-0.00894859
-0.00896158
-0.00896918
-0.00897206
-0.00897054
-0.00896456
-0.00895366
-0.00893728
-0.00891478
-0.00888122
-0.00882819
0.000567088
0.000554138
0.000535445
0.000510609
0.000479692
0.000443148
0.000401434
0.000355019
0.000304387
0.000250002
0.000192269
0.000131495
6.78613e-05
1.39148e-06
-6.80678e-05
-0.000140853
-0.000217489
-0.000298686
-0.000385328
-0.000478449
-0.00057922
-0.000688924
-0.000808933
-0.000940679
-0.00108563
-0.00124526
-0.00142101
-0.00161429
-0.00182639
-0.00205848
-0.00231157
-0.00258645
-0.00288366
-0.00320347
-0.00354583
-0.00391035
-0.00429627
-0.00470247
-0.00512745
-0.00556935
-0.00602593
-0.00649463
-0.0069726
-0.00745671
-0.00794357
-0.00842966
-0.00891127
-0.00938461
-0.00984587
-0.0102912
-0.0107168
-0.011119
-0.0114942
-0.0118391
-0.0121505
-0.0124254
-0.0126612
-0.0128557
-0.0130068
-0.013113
-0.0131731
-0.0131863
-0.0131523
-0.0130713
-0.0129439
-0.0127711
-0.0125546
-0.0122965
-0.0119993
-0.0116662
-0.0113005
-0.0109064
-0.0104882
-0.0100507
-0.009599
-0.00913856
-0.008675
-0.00821411
-0.00776176
-0.00732379
-0.00690592
-0.00651364
-0.0061521
-0.00582601
-0.0055395
-0.00529606
-0.00509838
-0.00494836
-0.00484695
-0.0047942
-0.00478918
-0.00483007
-0.00491413
-0.00503782
-0.00519692
-0.00538662
-0.00560171
-0.00583669
-0.00608599
-0.0063441
-0.00660571
-0.0068659
-0.00712022
-0.00736476
-0.00759628
-0.00781218
-0.00801055
-0.00819014
-0.00835031
-0.008491
-0.00861266
-0.00871613
-0.00880261
-0.00887355
-0.00893055
-0.00897531
-0.00900952
-0.0090348
-0.00905264
-0.00906432
-0.00907087
-0.00907304
-0.00907122
-0.00906543
-0.0090553
-0.00904034
-0.00901998
-0.00898983
-0.00894241
0.000680371
0.000657859
0.00063241
0.000602305
0.000566874
0.000526503
0.000481546
0.000432326
0.000379195
0.000322495
0.000262518
0.000199455
0.000133372
6.41687e-05
-8.43932e-06
-8.49328e-05
-0.000165995
-0.000252508
-0.000345539
-0.00044632
-0.000556229
-0.000676766
-0.000809521
-0.000956146
-0.00111832
-0.00129772
-0.00149598
-0.00171465
-0.00195514
-0.00221872
-0.00250642
-0.00281902
-0.003157
-0.00352052
-0.00390937
-0.00432293
-0.00476022
-0.00521982
-0.00569993
-0.00619838
-0.00671259
-0.00723968
-0.00777648
-0.00831954
-0.00886519
-0.00940962
-0.00994889
-0.010479
-0.0109958
-0.0114954
-0.0119739
-0.0124272
-0.0128519
-0.0132442
-0.0136011
-0.0139194
-0.0141964
-0.0144297
-0.0146172
-0.0147573
-0.0148486
-0.0148903
-0.0148819
-0.0148233
-0.0147151
-0.0145581
-0.0143539
-0.0141042
-0.0138114
-0.0134784
-0.0131085
-0.0127054
-0.0122734
-0.011817
-0.0113412
-0.0108514
-0.0103531
-0.00985201
-0.00935419
-0.00886557
-0.0083921
-0.00793959
-0.00751359
-0.00711932
-0.0067615
-0.00644428
-0.00617111
-0.00594465
-0.0057667
-0.00563812
-0.00555882
-0.00552775
-0.00554289
-0.00560135
-0.00569943
-0.00583275
-0.00599638
-0.00618501
-0.00639309
-0.00661504
-0.00684537
-0.00707889
-0.0073108
-0.0075368
-0.00775324
-0.00795706
-0.00814593
-0.00831816
-0.00847274
-0.00860925
-0.00872781
-0.00882901
-0.00891383
-0.00898352
-0.00903957
-0.00908358
-0.00911719
-0.00914198
-0.00915946
-0.00917093
-0.00917746
-0.00917985
-0.00917855
-0.00917368
-0.00916493
-0.00915192
-0.00913414
-0.00910775
-0.00906627
0.000800027
0.000767102
0.000734412
0.000698767
0.000658648
0.000614333
0.000566029
0.000513871
0.00045804
0.000398727
0.000336076
0.000270142
0.00020085
0.000127954
5.10152e-05
-3.0615e-05
-0.000117799
-0.000211613
-0.00031333
-0.000424399
-0.000546427
-0.000681143
-0.00083037
-0.000995987
-0.00117989
-0.00138394
-0.00160995
-0.00185959
-0.00213438
-0.00243562
-0.00276433
-0.00312123
-0.00350669
-0.00392069
-0.00436279
-0.00483214
-0.00532744
-0.00584698
-0.00638859
-0.00694976
-0.00752759
-0.00811884
-0.00872
-0.00932732
-0.00993684
-0.0105445
-0.011146
-0.0117373
-0.012314
-0.0128719
-0.013407
-0.0139152
-0.0143927
-0.0148359
-0.0152415
-0.0156062
-0.0159273
-0.0162022
-0.0164288
-0.0166054
-0.0167304
-0.016803
-0.0168225
-0.0167887
-0.0167019
-0.0165629
-0.0163729
-0.0161335
-0.015847
-0.0155159
-0.0151432
-0.0147324
-0.0142876
-0.013813
-0.0133135
-0.0127942
-0.0122604
-0.011718
-0.0111729
-0.010631
-0.0100986
-0.00958157
-0.00908597
-0.00861744
-0.00818128
-0.0077823
-0.00742475
-0.00711211
-0.0068471
-0.00663153
-0.00646626
-0.00635116
-0.00628512
-0.00626604
-0.00629096
-0.00635608
-0.00645693
-0.0065885
-0.00674542
-0.0069221
-0.00711297
-0.00731259
-0.00751582
-0.00771799
-0.00791495
-0.00810319
-0.00827984
-0.00844276
-0.00859044
-0.00872202
-0.00883724
-0.00893634
-0.00901999
-0.0090892
-0.00914527
-0.00918963
-0.00922381
-0.00924934
-0.00926767
-0.00928009
-0.0092877
-0.00929131
-0.00929145
-0.00928826
-0.00928156
-0.00927101
-0.00925619
-0.00923382
-0.00919837
0.000924596
0.000880451
0.000840089
0.000798684
0.000753751
0.000705412
0.000653674
0.000598441
0.000539684
0.000477406
0.00041158
0.000342093
0.000268706
0.000191004
0.000108368
1.99601e-05
-7.52839e-05
-0.000178656
-0.000291658
-0.000415976
-0.000553457
-0.000706077
-0.000875896
-0.00106502
-0.00127555
-0.00150953
-0.00176891
-0.00205547
-0.00237078
-0.00271611
-0.00309245
-0.00350038
-0.00394011
-0.00441137
-0.00491348
-0.00544527
-0.0060051
-0.00659089
-0.00720014
-0.00782995
-0.00847705
-0.00913788
-0.00980857
-0.0104851
-0.0111631
-0.0118384
-0.0125064
-0.0131628
-0.013803
-0.0144227
-0.0150177
-0.0155838
-0.0161171
-0.0166139
-0.0170707
-0.0174842
-0.0178517
-0.0181704
-0.0184383
-0.0186534
-0.0188142
-0.0189196
-0.018969
-0.018962
-0.0188983
-0.0187793
-0.0186056
-0.0183787
-0.0181005
-0.0177732
-0.0173996
-0.0169831
-0.0165271
-0.016036
-0.015514
-0.0149661
-0.0143976
-0.013814
-0.013221
-0.0126248
-0.0120315
-0.0114474
-0.0108786
-0.0103312
-0.00981108
-0.00932369
-0.00887402
-0.00846644
-0.00810463
-0.00779143
-0.00752877
-0.00731759
-0.00715786
-0.00704847
-0.00698738
-0.00697157
-0.00699724
-0.00705987
-0.00715441
-0.00727543
-0.00741734
-0.00757456
-0.00774165
-0.00791354
-0.0080856
-0.0082538
-0.00841471
-0.00856562
-0.00870446
-0.00882986
-0.00894106
-0.00903787
-0.00912058
-0.00918987
-0.00924676
-0.00929247
-0.00932835
-0.00935581
-0.00937621
-0.00939079
-0.00940061
-0.00940651
-0.00940901
-0.00940832
-0.00940431
-0.00939673
-0.0093852
-0.00936698
-0.00933746
0.00105235
0.000996235
0.000947825
0.000900491
0.000850661
0.000798239
0.000742987
0.000684526
0.000622576
0.000556921
0.000487328
0.000413493
0.000334985
0.000251196
0.000161303
6.42577e-05
-4.12321e-05
-0.000156695
-0.00028388
-0.000424727
-0.000581339
-0.00075594
-0.000950831
-0.00116833
-0.00141074
-0.00168026
-0.00197894
-0.00230861
-0.00267085
-0.00306688
-0.00349755
-0.00396328
-0.00446403
-0.00499926
-0.00556796
-0.00616861
-0.0067992
-0.00745727
-0.00813992
-0.00884387
-0.00956548
-0.0103008
-0.0110457
-0.0117957
-0.0125464
-0.0132931
-0.0140311
-0.0147558
-0.0154625
-0.0161468
-0.0168041
-0.0174304
-0.0180215
-0.0185737
-0.0190834
-0.0195474
-0.0199628
-0.0203268
-0.0206372
-0.0208922
-0.0210901
-0.0212298
-0.0213104
-0.0213315
-0.0212922
-0.0211956
-0.0210403
-0.0208277
-0.0205598
-0.0202386
-0.0198665
-0.0194464
-0.0189818
-0.0184764
-0.0179342
-0.01736
-0.0167585
-0.0161352
-0.0154956
-0.0148456
-0.0141914
-0.0135393
-0.0128956
-0.0122667
-0.0116589
-0.0110783
-0.0105304
-0.0100207
-0.00955367
-0.00913329
-0.00876265
-0.00844391
-0.00817822
-0.0079657
-0.0078054
-0.00769536
-0.00763263
-0.00761342
-0.0076332
-0.0076869
-0.00776906
-0.00787404
-0.00799623
-0.00813016
-0.00827077
-0.00841343
-0.00855414
-0.00868951
-0.00881687
-0.00893422
-0.00904022
-0.00913414
-0.00921579
-0.00928545
-0.00934377