/*--------------------------------*- C++ -*----------------------------------*\
| =========                 |                                                 |
| \\      /  F ield         | OpenFOAM: The Open Source CFD Toolbox           |
|  \\    /   O peration     | Version:  2112                                  |
|   \\  /    A nd           | Website:  www.openfoam.com                      |
|    \\/     M anipulation  |                                                 |
\*---------------------------------------------------------------------------*/
FoamFile
{
    version     2.0;
    format      ascii;
    arch        "LSB;label=32;scalar=64";
    class       surfaceScalarField;
    location    "29";
    object      phi;
}
// * * * * * * * * * * * * * * * * * * * * * * * * * * * * * * * * * * * * * //

dimensions      [0 3 -1 0 0 0 0];

oriented        oriented;

internalField   nonuniform List<scalar> 
33024
(
-2.85386e-09
3.22043e-09
2.28655e-08
-2.57183e-08
7.78191e-08
-5.49535e-08
1.53704e-07
-7.58857e-08
2.4226e-07
-8.85543e-08
3.3654e-07
-9.42813e-08
4.3104e-07
-9.45013e-08
5.21564e-07
-9.05229e-08
6.05014e-07
-8.34486e-08
6.79192e-07
-7.41797e-08
7.42637e-07
-6.34456e-08
7.9447e-07
-5.18319e-08
8.34268e-07
-3.97982e-08
8.61958e-07
-2.76901e-08
8.77709e-07
-1.57515e-08
8.81848e-07
-4.13885e-09
8.74774e-07
7.07436e-09
8.569e-07
1.78744e-08
8.28593e-07
2.83075e-08
7.90132e-07
3.84604e-08
7.41681e-07
4.8451e-08
6.83264e-07
5.84166e-08
6.14762e-07
6.85027e-08
5.35909e-07
7.88536e-08
4.46305e-07
8.9604e-08
3.45432e-07
1.00873e-07
2.32672e-07
1.1276e-07
1.07331e-07
1.25341e-07
-3.13356e-08
1.38666e-07
-1.84097e-07
1.52762e-07
-3.51727e-07
1.6763e-07
-5.34975e-07
1.83248e-07
-7.34548e-07
1.99573e-07
-9.51088e-07
2.16541e-07
-1.18516e-06
2.34069e-07
-1.43721e-06
2.52056e-07
-1.7076e-06
2.70384e-07
-1.99651e-06
2.88915e-07
-2.30401e-06
3.07497e-07
-2.62997e-06
3.25961e-07
-2.97409e-06
3.4412e-07
-3.33586e-06
3.61772e-07
-3.71457e-06
3.78703e-07
-4.10925e-06
3.94684e-07
-4.51872e-06
4.09474e-07
-4.94155e-06
4.22827e-07
-5.37604e-06
4.34486e-07
-5.82023e-06
4.44193e-07
-6.27192e-06
4.51692e-07
-6.72865e-06
4.56727e-07
-7.1877e-06
4.59051e-07
-7.64613e-06
4.58429e-07
-8.10077e-06
4.54641e-07
-8.54826e-06
4.47484e-07
-8.98504e-06
4.36783e-07
-9.40742e-06
4.22386e-07
-9.8116e-06
4.04176e-07
-1.01937e-05
3.82068e-07
-1.05497e-05
3.5602e-07
-1.08757e-05
3.26028e-07
-1.11679e-05
2.92136e-07
-1.14223e-05
2.54436e-07
-1.16354e-05
2.13069e-07
-1.18036e-05
1.68235e-07
-1.19238e-05
1.20208e-07
-1.19931e-05
6.93001e-08
-1.2009e-05
1.58953e-08
-1.1969e-05
-4.00065e-08
-1.18717e-05
-9.72641e-08
-1.1716e-05
-1.55743e-07
-1.15012e-05
-2.14819e-07
-1.12273e-05
-2.73885e-07
-1.0895e-05
-3.323e-07
-1.05056e-05
-3.89399e-07
-1.00611e-05
-4.44497e-07
-9.56418e-06
-4.96902e-07
-9.01826e-06
-5.45926e-07
-8.42736e-06
-5.90898e-07
-7.79618e-06
-6.31179e-07
-7.13e-06
-6.66173e-07
-6.43466e-06
-6.95342e-07
-5.71644e-06
-7.18226e-07
-4.98199e-06
-7.34448e-07
-4.23826e-06
-7.43728e-07
-3.49236e-06
-7.45901e-07
-2.75145e-06
-7.40913e-07
-2.02261e-06
-7.28835e-07
-1.31275e-06
-7.09862e-07
-6.28441e-07
-6.84308e-07
2.41741e-08
-6.52615e-07
6.39585e-07
-6.1541e-07
1.21275e-06
-5.73163e-07
1.73947e-06
-5.26719e-07
2.21631e-06
-4.76846e-07
2.6407e-06
-4.24383e-07
3.01088e-06
-3.70184e-07
3.32599e-06
-3.15107e-07
3.58598e-06
-2.59993e-07
3.79162e-06
-2.05641e-07
3.94441e-06
-1.5279e-07
4.04652e-06
-1.02106e-07
4.10068e-06
-5.4167e-08
4.11014e-06
-9.4553e-09
4.07849e-06
3.16531e-08
4.0096e-06
6.8882e-08
3.90754e-06
1.02063e-07
3.77641e-06
1.31128e-07
3.62032e-06
1.56097e-07
3.44324e-06
1.7708e-07
3.24898e-06
1.94254e-07
3.04112e-06
2.07859e-07
2.82295e-06
2.18176e-07
2.59743e-06
2.25517e-07
2.36723e-06
2.30201e-07
2.13469e-06
2.32537e-07
1.9019e-06
2.32797e-07
1.6707e-06
2.31191e-07
1.44287e-06
2.27839e-07
1.22014e-06
2.22729e-07
1.00445e-06
2.15688e-07
7.98112e-07
2.06337e-07
6.04052e-07
1.9406e-07
4.26078e-07
1.77973e-07
2.69137e-07
1.56942e-07
1.39439e-07
1.29698e-07
4.41773e-08
9.52617e-08
-9.8119e-09
5.39894e-08
-2.03201e-08
1.05087e-08
-2.03197e-08
2.57883e-08
-2.25667e-08
1.13698e-07
-1.1363e-07
2.57062e-07
-1.98319e-07
4.42159e-07
-2.60979e-07
6.53813e-07
-3.00209e-07
8.77809e-07
-3.18279e-07
1.10189e-06
-3.18583e-07
1.31604e-06
-3.04676e-07
1.51242e-06
-2.79829e-07
1.68514e-06
-2.46891e-07
1.82997e-06
-2.08275e-07
1.9441e-06
-1.65969e-07
2.02587e-06
-1.21568e-07
2.07448e-06
-7.62959e-08
2.08977e-06
-3.1042e-08
2.07203e-06
1.36014e-08
2.02178e-06
5.73249e-08
1.93962e-06
1.00038e-07
1.82608e-06
1.41844e-07
1.68154e-06
1.82999e-07
1.50612e-06
2.23867e-07
1.29966e-06
2.64883e-07
1.06165e-06
3.06512e-07
7.91285e-07
3.49219e-07
4.8745e-07
3.93438e-07
1.48774e-07
4.3955e-07
-2.26329e-07
4.87863e-07
-6.39593e-07
5.38605e-07
-1.09284e-06
5.91912e-07
-1.5879e-06
6.47829e-07
-2.12659e-06
7.06311e-07
-2.71056e-06
7.67226e-07
-3.34135e-06
8.30358e-07
-4.02022e-06
8.95413e-07
-4.74818e-06
9.62025e-07
-5.52588e-06
1.02975e-06
-6.35359e-06
1.0981e-06
-7.23117e-06
1.16649e-06
-8.15797e-06
1.2343e-06
-9.13286e-06
1.30085e-06
-1.01541e-05
1.36539e-06
-1.12195e-05
1.42715e-06
-1.23261e-05
1.48528e-06
-1.34703e-05
1.53894e-06
-1.46481e-05
1.58723e-06
-1.58545e-05
1.62925e-06
-1.70841e-05
1.6641e-06
-1.83308e-05
1.69086e-06
-1.95878e-05
1.70866e-06
-2.08477e-05
1.71666e-06
-2.21027e-05
1.71406e-06
-2.33444e-05
1.70012e-06
-2.4564e-05
1.67418e-06
-2.57521e-05
1.63566e-06
-2.68994e-05
1.58409e-06
-2.79962e-05
1.51911e-06
-2.90325e-05
1.44048e-06
-2.99985e-05
1.34809e-06
-3.08845e-05
1.242e-06
-3.16808e-05
1.12238e-06
-3.23782e-05
9.89576e-07
-3.29679e-05
8.44111e-07
-3.34415e-05
6.86653e-07
-3.37913e-05
5.18061e-07
-3.40105e-05
3.39412e-07
-3.40931e-05
1.51897e-07
-3.40342e-05
-4.30793e-08
-3.38293e-05
-2.44812e-07
-3.34761e-05
-4.50511e-07
-3.2973e-05
-6.58829e-07
-3.232e-05
-8.67844e-07
-3.15184e-05
-1.07552e-06
-3.05709e-05
-1.27974e-06
-2.9482e-05
-1.47832e-06
-2.82575e-05
-1.66904e-06
-2.69047e-05
-1.84968e-06
-2.54325e-05
-2.01806e-06
-2.38514e-05
-2.17205e-06
-2.21729e-05
-2.30965e-06
-2.04101e-05
-2.42899e-06
-1.8577e-05
-2.52841e-06
-1.66888e-05
-2.60646e-06
-1.47613e-05
-2.66198e-06
-1.28109e-05
-2.69409e-06
-1.08545e-05
-2.70227e-06
-8.90912e-06
-2.68633e-06
-6.99147e-06
-2.64649e-06
-5.11801e-06
-2.58332e-06
-3.30453e-06
-2.49779e-06
-1.56588e-06
-2.39126e-06
8.41293e-08
-2.26542e-06
1.63325e-06
-2.12229e-06
3.07059e-06
-1.96405e-06
4.38704e-06
-1.7933e-06
5.57536e-06
-1.61271e-06
6.63022e-06
-1.42504e-06
7.54823e-06
-1.23312e-06
8.32798e-06
-1.03974e-06
8.96995e-06
-8.47608e-07
9.47643e-06
-6.59267e-07
9.85138e-06
-4.77064e-07
1.01003e-05
-3.03087e-07
1.023e-05
-1.39133e-07
1.02483e-05
1.33188e-08
1.01641e-05
1.53125e-07
9.98665e-06
2.79484e-07
9.72585e-06
3.91927e-07
9.39164e-06
4.90306e-07
8.99396e-06
5.74767e-07
8.5425e-06
6.45717e-07
8.04657e-06
7.03784e-07
7.51498e-06
7.49767e-07
6.95592e-06
7.84579e-07
6.37693e-06
8.09184e-07
5.78495e-06
8.24521e-07
5.18632e-06
8.31427e-07
4.58697e-06
8.30541e-07
3.9926e-06
8.22206e-07
3.40897e-06
8.06365e-07
2.8422e-06
7.82457e-07
2.29921e-06
7.49325e-07
1.78811e-06
7.0516e-07
1.31856e-06
6.47524e-07
9.01964e-07
5.73536e-07
5.51225e-07
4.80437e-07
2.79583e-07
3.66903e-07
9.80549e-08
2.35517e-07
1.08922e-08
9.76705e-08
-9.42724e-09
5.49895e-08
-7.7556e-08
1.98616e-07
-2.57258e-07
4.12818e-07
-4.12519e-07
6.78492e-07
-5.26653e-07
9.76096e-07
-5.97814e-07
1.28723e-06
-6.2941e-07
1.5956e-06
-6.26951e-07
1.88746e-06
-5.96538e-07
2.15168e-06
-5.44051e-07
2.37959e-06
-4.74806e-07
2.56474e-06
-3.93422e-07
2.70256e-06
-3.03787e-07
2.79006e-06
-2.09065e-07
2.82548e-06
-1.11725e-07
2.80803e-06
-1.35851e-08
2.73752e-06
8.41146e-08
2.61415e-06
1.80692e-07
2.43828e-06
2.75903e-07
2.21023e-06
3.69896e-07
1.93011e-06
4.63121e-07
1.59773e-06
5.56251e-07
1.21251e-06
6.50097e-07
7.73484e-07
7.4554e-07
2.79248e-07
8.43455e-07
-2.71968e-07
9.44654e-07
-8.82258e-07
1.04984e-06
-1.55396e-06
1.15957e-06
-2.28957e-06
1.27421e-06
-3.09162e-06
1.39397e-06
-3.96263e-06
1.51883e-06
-4.90492e-06
1.64861e-06
-5.92061e-06
1.78291e-06
-7.01143e-06
1.92118e-06
-8.17869e-06
2.06267e-06
-9.42316e-06
2.2065e-06
-1.0745e-05
2.35162e-06
-1.21438e-05
2.49685e-06
-1.36182e-05
2.64088e-06
-1.51661e-05
2.78227e-06
-1.67848e-05
2.91948e-06
-1.84702e-05
3.05085e-06
-2.02178e-05
3.17468e-06
-2.20216e-05
3.28916e-06
-2.38752e-05
3.39246e-06
-2.57706e-05
3.48271e-06
-2.76994e-05
3.55806e-06
-2.9652e-05
3.61666e-06
-3.16179e-05
3.65673e-06
-3.35858e-05
3.67657e-06
-3.55437e-05
3.67458e-06
-3.74789e-05
3.6493e-06
-3.93782e-05
3.59942e-06
-4.12279e-05
3.52384e-06
-4.30139e-05
3.42164e-06
-4.4722e-05
3.29217e-06
-4.63378e-05
3.13498e-06
-4.78473e-05
2.94993e-06
-4.92363e-05
2.73713e-06
-5.04913e-05
2.49701e-06
-5.15992e-05
2.23026e-06
-5.25476e-05
1.93792e-06
-5.33248e-05
1.62132e-06
-5.39202e-05
1.2821e-06
-5.43244e-05
9.22196e-07
-5.45289e-05
5.4399e-07
-5.45277e-05
1.50631e-07
-5.43136e-05
-2.57126e-07
-5.3884e-05
-6.74456e-07
-5.32363e-05
-1.09814e-06
-5.23704e-05
-1.52481e-06
-5.12875e-05
-1.95072e-06
-4.99911e-05
-2.37194e-06
-4.84864e-05
-2.7844e-06
-4.67808e-05
-3.18395e-06
-4.48834e-05
-3.56643e-06
-4.28054e-05
-3.92767e-06
-4.05599e-05
-4.2636e-06
-3.81616e-05
-4.57029e-06
-3.56272e-05
-4.84403e-06
-3.29749e-05
-5.08139e-06
-3.0224e-05
-5.27928e-06
-2.73954e-05
-5.43505e-06
-2.45109e-05
-5.54652e-06
-2.15929e-05
-5.61207e-06
-1.86645e-05
-5.63068e-06
-1.57488e-05
-5.60199e-06
-1.2869e-05
-5.5263e-06
-1.00477e-05
-5.40463e-06
-7.3068e-06
-5.23869e-06
-4.66718e-06
-5.03088e-06
-2.14833e-06
-4.78427e-06
2.31909e-07
-4.50252e-06
2.4577e-06
-4.18984e-06
4.5152e-06
-3.8508e-06
6.39306e-06
-3.49056e-06
8.08234e-06
-3.11432e-06
9.57671e-06
-2.72749e-06
1.08724e-05
-2.33548e-06
1.19684e-05
-1.9436e-06
1.28661e-05
-1.55694e-06
1.35693e-05
-1.18025e-06
1.40841e-05
-8.17854e-07
1.44185e-05
-4.73557e-07
1.45824e-05
-1.50596e-07
1.45871e-05
1.48413e-07
1.44451e-05
4.21511e-07
1.41696e-05
6.67373e-07
1.37746e-05
8.85315e-07
1.32741e-05
1.07524e-06
1.26823e-05
1.23761e-06
1.20127e-05
1.37333e-06
1.12788e-05
1.48369e-06
1.04931e-05
1.57024e-06
9.66764e-06
1.63467e-06
8.8135e-06
1.67866e-06
7.9412e-06
1.70373e-06
7.06071e-06
1.71103e-06
6.18172e-06
1.7012e-06
5.31394e-06
1.67414e-06
4.46755e-06
1.62885e-06
3.65359e-06
1.56329e-06
2.88437e-06
1.47438e-06
2.17385e-06
1.35804e-06
1.53764e-06
1.20975e-06
9.92547e-07
1.02553e-06
5.55346e-07
8.04105e-07
2.40421e-07
5.50442e-07
5.6058e-08
2.82033e-07
4.66308e-08
7.62751e-08
-1.53832e-07
2.62493e-07
-4.43473e-07
5.29185e-07
-6.79212e-07
8.51069e-07
-8.4854e-07
1.20473e-06
-9.51471e-07
1.5688e-06
-9.93483e-07
1.92443e-06
-9.82582e-07
2.25551e-06
-9.2762e-07
2.54874e-06
-8.37283e-07
2.79352e-06
-7.19579e-07
2.98168e-06
-5.81583e-07
3.10723e-06
-4.29333e-07
3.16596e-06
-2.67798e-07
3.15514e-06
-1.00905e-07
3.07313e-06
6.84216e-08
2.91907e-06
2.38173e-07
2.69258e-06
4.07182e-07
2.39348e-06
5.75002e-07
2.02158e-06
7.41797e-07
1.57649e-06
9.08211e-07
1.0575e-06
1.07524e-06
4.63498e-07
1.2441e-06
-2.07087e-07
1.41612e-06
-9.5624e-07
1.59261e-06
-1.78634e-06
1.77475e-06
-2.70007e-06
1.96357e-06
-3.70033e-06
2.15983e-06
-4.7901e-06
2.36398e-06
-5.97231e-06
2.57617e-06
-7.24971e-06
2.79623e-06
-8.62474e-06
3.02364e-06
-1.00994e-05
3.25757e-06
-1.16751e-05
3.49687e-06
-1.33525e-05
3.74012e-06
-1.51317e-05
3.98562e-06
-1.70115e-05
4.23143e-06
-1.899e-05
4.47536e-06
-2.10641e-05
4.71503e-06
-2.32297e-05
4.94787e-06
-2.54814e-05
5.17114e-06
-2.78125e-05
5.38198e-06
-3.02152e-05
5.57741e-06
-3.26805e-05
5.75439e-06
-3.51979e-05
5.90987e-06
-3.7756e-05
6.04078e-06
-4.0342e-05
6.14413e-06
-4.29424e-05
6.21702e-06
-4.55424e-05
6.2567e-06
-4.81264e-05
6.26061e-06
-5.06783e-05
6.22644e-06
-5.31811e-05
6.15214e-06
-5.56177e-05
6.03598e-06
-5.79704e-05
5.87657e-06
-6.02217e-05
5.67291e-06
-6.23539e-05
5.4244e-06
-6.43498e-05
5.13085e-06
-6.61924e-05
4.79253e-06
-6.78654e-05
4.41015e-06
-6.93533e-05
3.98487e-06
-7.06413e-05
3.51832e-06
-7.1716e-05
3.01258e-06
-7.25648e-05
2.47018e-06
-7.31768e-05
1.89412e-06
-7.35424e-05
1.28779e-06
-7.36531e-05
6.54707e-07
-7.35056e-05
3.06437e-09
-7.30903e-05
-6.72409e-07
-7.24078e-05
-1.35692e-06
-7.1457e-05
-2.049e-06
-7.0239e-05
-2.74282e-06
-6.87572e-05
-3.43252e-06
-6.7017e-05
-4.11206e-06
-6.50261e-05
-4.77528e-06
-6.27942e-05
-5.41593e-06
-6.03329e-05
-6.02773e-06
-5.76561e-05
-6.60447e-06
-5.47796e-05
-7.1401e-06
-5.17211e-05
-7.62876e-06
-4.85002e-05
-8.06495e-06
-4.5138e-05
-8.44355e-06
-4.16573e-05
-8.75998e-06
-3.80821e-05
-9.01026e-06
-3.44375e-05
-9.1911e-06
-3.07495e-05
-9.30004e-06
-2.70447e-05
-9.33546e-06
-2.335e-05
-9.2967e-06
-1.96923e-05
-9.18407e-06
-1.6098e-05
-8.99893e-06
-1.2593e-05
-8.74366e-06
-9.2022e-06
-8.42168e-06
-5.94906e-06
-8.03741e-06
-2.85542e-06
-7.59616e-06
5.88611e-08
-7.10413e-06
2.77635e-06
-6.56829e-06
5.28184e-06
-5.99605e-06
7.56297e-06
-5.39545e-06
9.61025e-06
-4.77477e-06
1.14171e-05
-4.14235e-06
1.298e-05
-3.50651e-06
1.42984e-05
-2.87532e-06
1.53746e-05
-2.25642e-06
1.62136e-05
-1.65689e-06
1.68232e-05
-1.08311e-06
1.72132e-05
-5.4062e-07
1.73957e-05
-3.40681e-08
1.73843e-05
4.32886e-07
1.71941e-05
8.57555e-07
1.68412e-05
1.23825e-06
1.63422e-05
1.57424e-06
1.57141e-05
1.86566e-06
1.49741e-05
2.11342e-06
1.41387e-05
2.31907e-06
1.32243e-05
2.48466e-06
1.22464e-05
2.61248e-06
1.12202e-05
2.70491e-06
1.01598e-05
2.76411e-06
9.07906e-06
2.79178e-06
7.99141e-06
2.78886e-06
6.91029e-06
2.75525e-06
5.84956e-06
2.68958e-06
4.82381e-06
2.58904e-06
3.84884e-06
2.44934e-06
2.94187e-06
2.26502e-06
2.12155e-06
2.03007e-06
1.40769e-06
1.73939e-06
8.20391e-07
1.3914e-06
3.78848e-07
9.91985e-07
1.00097e-07
5.60784e-07
1.46728e-07
8.97318e-08
-2.43562e-07
3.03996e-07
-6.57737e-07
6.04229e-07
-9.79446e-07
9.59384e-07
-1.20369e-06
1.34246e-06
-1.33455e-06
1.72973e-06
-1.38075e-06
2.10053e-06
-1.35338e-06
2.43722e-06
-1.2643e-06
2.72509e-06
-1.12515e-06
2.95222e-06
-9.46715e-07
3.10926e-06
-7.38619e-07
3.18906e-06
-5.0914e-07
3.18642e-06
-2.6515e-07
3.09763e-06
-1.21173e-08
2.9202e-06
2.45847e-07
2.65248e-06
5.05896e-07
2.29333e-06
7.66335e-07
1.84186e-06
1.02647e-06
1.29718e-06
1.28647e-06
6.58252e-07
1.54714e-06
-7.63135e-08
1.80981e-06
-9.08274e-07
2.07607e-06
-1.83981e-06
2.34766e-06
-2.87349e-06
2.62629e-06
-4.01222e-06
2.91349e-06
-5.25913e-06
3.21048e-06
-6.61745e-06
3.51814e-06
-8.09035e-06
3.83688e-06
-9.68081e-06
4.16663e-06
-1.13914e-05
4.50684e-06
-1.32242e-05
4.85644e-06
-1.51806e-05
5.21392e-06
-1.7261e-05
5.57727e-06
-1.94649e-05
5.94409e-06
-2.17909e-05
6.31156e-06
-2.42359e-05
6.67651e-06
-2.6796e-05
7.03545e-06
-2.94656e-05
7.38461e-06
-3.22377e-05
7.71996e-06
-3.51039e-05
8.03731e-06
-3.80542e-05
8.3323e-06
-4.10773e-05
8.60049e-06
-4.41603e-05
8.83742e-06
-4.72891e-05
9.03866e-06
-5.04482e-05
9.19988e-06
-5.3621e-05
9.31692e-06
-5.67898e-05
9.38588e-06
-5.99363e-05
9.40312e-06
-6.3041e-05
9.3654e-06
-6.60845e-05
9.26987e-06
-6.90465e-05
9.11416e-06
-7.19069e-05
8.89641e-06
-7.46457e-05
8.6153e-06
-7.72428e-05
8.2701e-06
-7.96791e-05
7.86063e-06
-8.19356e-05
7.38738e-06
-8.39945e-05
6.85139e-06
-8.58387e-05
6.25436e-06
-8.74524e-05
5.59858e-06
-8.8821e-05
4.88692e-06
-8.99313e-05
4.12287e-06
-9.07716e-05
3.31045e-06
-9.13317e-05
2.45427e-06
-9.16034e-05
1.55943e-06
-9.15803e-05
6.31697e-07
-9.12548e-05
-3.22439e-07
-9.06287e-05
-1.29855e-06
-8.9698e-05
-2.28757e-06
-8.84643e-05
-3.28273e-06
-8.69306e-05
-4.27655e-06
-8.51019e-05
-5.26118e-06
-8.29855e-05
-6.22852e-06
-8.05904e-05
-7.17035e-06
-7.7928e-05
-8.07835e-06
-7.50115e-05
-8.94421e-06
-7.18563e-05
-9.75972e-06
-6.84795e-05
-1.05169e-05
-6.49004e-05
-1.12079e-05
-6.11398e-05
-1.18255e-05
-5.72205e-05
-1.23629e-05
-5.31665e-05
-1.28139e-05
-4.90035e-05
-1.31733e-05
-4.47581e-05
-1.34365e-05
-4.0458e-05
-1.36001e-05
-3.61317e-05
-1.36618e-05
-3.1808e-05
-1.36204e-05
-2.7516e-05
-1.34761e-05
-2.32844e-05
-1.32305e-05
-1.91417e-05
-1.28864e-05
-1.51153e-05
-1.24481e-05
-1.12316e-05
-1.19211e-05
-7.51542e-06
-1.13124e-05
-3.98965e-06
-1.06299e-05
-6.75156e-07
-9.88279e-06
2.40981e-06
-9.08101e-06
5.24958e-06
-8.23523e-06
7.83144e-06
-7.35663e-06
1.01457e-05
-6.45665e-06
1.2186e-05
-5.54678e-06
1.3949e-05
-4.63829e-06
1.54346e-05
-3.74202e-06
1.66459e-05
-2.86818e-06
1.75889e-05
-2.02609e-06
1.82723e-05
-1.22407e-06
1.87075e-05
-4.6928e-07
1.8908e-05
2.32419e-07
1.88891e-05
8.76486e-07
1.86676e-05
1.45972e-06
1.82616e-05
1.98026e-06
1.76897e-05
2.43749e-06
1.69712e-05
2.83191e-06
1.61253e-05
3.16499e-06
1.5171e-05
3.43894e-06
1.41271e-05
3.65645e-06
1.30116e-05
3.82039e-06
1.18422e-05
3.93345e-06
1.06362e-05
3.99779e-06
9.41044e-06
4.01465e-06
8.18171e-06
3.98398e-06
6.96716e-06
3.90413e-06
5.78456e-06
3.77164e-06
4.65264e-06
3.58127e-06
3.59135e-06
3.3263e-06
2.62205e-06
2.99937e-06
1.7674e-06
2.59404e-06
1.0513e-06
2.1075e-06
4.98885e-07
1.5444e-06
1.37341e-07
9.22327e-07
2.8407e-07
9.66023e-08
-3.40166e-07
3.25054e-07
-8.8619e-07
6.40482e-07
-1.29487e-06
1.0072e-06
-1.57041e-06
1.3952e-06
-1.72254e-06
1.77878e-06
-1.76434e-06
2.13597e-06
-1.71057e-06
2.44809e-06
-1.57643e-06
2.69957e-06
-1.37663e-06
2.87764e-06
-1.12479e-06
2.9721e-06
-8.33081e-07
2.97498e-06
-5.12021e-07
2.88021e-06
-1.70377e-07
2.68325e-06
1.84844e-07
2.38076e-06
5.4834e-07
1.97023e-06
9.16418e-07
1.44972e-06
1.28685e-06
8.17505e-07
1.65869e-06
7.19124e-08
2.03206e-06
-7.8889e-07
2.40795e-06
-1.76701e-06
2.78793e-06
-2.86489e-06
3.17395e-06
-4.08533e-06
3.56809e-06
-5.43141e-06
3.97237e-06
-6.90643e-06
4.38851e-06
-8.51378e-06
4.81783e-06
-1.02568e-05
5.26112e-06
-1.21384e-05
5.71854e-06
-1.41614e-05
6.18959e-06
-1.63276e-05
6.67306e-06
-1.86383e-05
7.16709e-06
-2.10935e-05
7.66915e-06
-2.36923e-05
8.17609e-06
-2.64324e-05
8.68418e-06
-2.931e-05
9.18918e-06
-3.23199e-05
9.68638e-06
-3.54551e-05
1.01707e-05
-3.87071e-05
1.06366e-05
-4.20657e-05
1.10785e-05
-4.55188e-05
1.14904e-05
-4.90529e-05
1.18664e-05
-5.26529e-05
1.22005e-05
-5.63021e-05
1.24866e-05
-5.99826e-05
1.27191e-05
-6.36751e-05
1.28924e-05
-6.73596e-05
1.30014e-05
-7.10149e-05
1.30413e-05
-7.46197e-05
1.30078e-05
-7.81517e-05
1.28975e-05
-8.1589e-05
1.27072e-05
-8.49095e-05
1.24346e-05
-8.80913e-05
1.20782e-05
-9.11132e-05
1.16372e-05
-9.39544e-05
1.11114e-05
-9.65954e-05
1.05016e-05
-9.90172e-05
9.80924e-06
-0.000101202
9.03661e-06
-0.000103135
8.18666e-06
-0.000104799
7.26308e-06
-0.000106183
6.27026e-06
-0.000107273
5.21325e-06
-0.00010806
4.09772e-06
-0.000108536
2.92995e-06
-0.000108693
1.7168e-06
-0.000108528
4.65887e-07
-0.000108034
-8.15484e-07
-0.000107214
-2.11888e-06
-0.000106066
-3.43524e-06
-0.000104594
-4.75546e-06
-0.0001028
-6.0701e-06
-0.000100692
-7.36942e-06
-9.8277e-05
-8.64341e-06
-9.55654e-05
-9.88195e-06
-9.2569e-05
-1.10748e-05
-8.93015e-05
-1.22117e-05
-8.57786e-05
-1.32826e-05
-8.20179e-05
-1.42775e-05
-7.80388e-05
-1.5187e-05
-7.38624e-05
-1.60019e-05
-6.95115e-05
-1.67138e-05
-6.50107e-05
-1.73148e-05
-6.03857e-05
-1.77983e-05
-5.56637e-05
-1.81585e-05
-5.08731e-05
-1.83907e-05
-4.6043e-05
-1.84919e-05
-4.12033e-05
-1.84601e-05
-3.6384e-05
-1.82953e-05
-3.16156e-05
-1.79989e-05
-2.69279e-05
-1.7574e-05
-2.23505e-05
-1.70255e-05
-1.79117e-05
-1.63599e-05
-1.36388e-05
-1.55852e-05
-9.55738e-06
-1.47113e-05
-5.69096e-06
-1.37492e-05
-2.06083e-06
-1.27111e-05
1.31429e-06
-1.16104e-05
4.41854e-06
-1.04609e-05
7.23909e-06
-9.2772e-06
9.76633e-06
-8.07402e-06
1.19939e-05
-6.8659e-06
1.3919e-05
-5.66707e-06
1.55418e-05
-4.49103e-06
1.68661e-05
-3.35039e-06
1.78986e-05
-2.25656e-06
1.86489e-05
-1.21959e-06
1.91293e-05
-2.47988e-07
1.93544e-05
6.51375e-07
1.93408e-05
1.47332e-06
1.91068e-05
2.21436e-06
1.86716e-05
2.87263e-06
1.80557e-05
3.44778e-06
1.728e-05
3.94074e-06
1.63654e-05
4.35352e-06
1.5333e-05
4.68886e-06
1.42036e-05
4.94982e-06
1.29976e-05
5.13944e-06
1.17352e-05
5.26018e-06
1.04363e-05
5.31352e-06
9.12084e-06
5.29946e-06
7.80883e-06
5.21614e-06
6.52086e-06
5.05961e-06
5.27833e-06
4.8238e-06
4.10376e-06
4.50088e-06
3.0211e-06
4.08203e-06
2.05608e-06
3.55906e-06
1.23674e-06
2.92684e-06
5.94495e-07
2.18665e-06
1.66266e-07
1.35056e-06
4.50336e-07
9.81149e-08
-4.38282e-07
3.28311e-07
-1.11639e-06
6.41854e-07
-1.60842e-06
9.99808e-07
-1.92837e-06
1.36989e-06
-2.09262e-06
1.72495e-06
-2.11941e-06
2.0421e-06
-2.02772e-06
2.30204e-06
-1.83637e-06
2.48867e-06
-1.56325e-06
2.58872e-06
-1.22484e-06
2.59146e-06
-8.35818e-07
2.4883e-06
-4.0886e-07
2.27249e-06
4.54362e-08
1.93875e-06
5.18586e-07
1.48293e-06
1.00415e-06
9.01718e-07
1.49763e-06
1.92279e-07
1.99629e-06
-6.47949e-07
2.49892e-06
-1.62149e-06
3.0056e-06
-2.73099e-06
3.51745e-06
-3.9793e-06
4.03623e-06
-5.36952e-06
4.56417e-06
-6.90499e-06
5.10356e-06
-8.58919e-06
5.65657e-06
-1.04256e-05
6.22496e-06
-1.24177e-05
6.80993e-06
-1.45686e-05
7.41193e-06
-1.68806e-05
8.03062e-06
-1.93558e-05
8.66474e-06
-2.19949e-05
9.31217e-06
-2.47977e-05
9.9699e-06
-2.77626e-05
1.0634e-05
-3.08865e-05
1.13e-05
-3.41646e-05
1.19623e-05
-3.75906e-05
1.26151e-05
-4.11561e-05
1.32519e-05
-4.48509e-05
1.38655e-05
-4.86631e-05
1.44488e-05
-5.25786e-05
1.49941e-05
-5.6582e-05
1.54938e-05
-6.06558e-05
1.59403e-05
-6.47812e-05
1.63259e-05
-6.8938e-05
1.66434e-05
-7.31048e-05
1.68859e-05
-7.72592e-05
1.70469e-05
-8.13783e-05
1.71205e-05
-8.54386e-05
1.71015e-05
-8.94163e-05
1.69856e-05
-9.3288e-05
1.67691e-05
-9.70302e-05
1.64494e-05
-0.00010062
1.60246e-05
-0.000104036
1.54939e-05
-0.000107256
1.48573e-05
-0.000110261
1.4116e-05
-0.000113031
1.32718e-05
-0.000115549
1.23275e-05
-0.000117799
1.12868e-05
-0.000119767
1.01542e-05
-0.000121439
8.93487e-06
-0.000122803
7.63481e-06
-0.000123851
6.26066e-06
-0.000124572
4.8197e-06
-0.000124962
3.31983e-06
-0.000125015
1.76949e-06
-0.000124727
1.7816e-07
-0.000124097
-1.44601e-06
-0.000123124
-3.09194e-06
-0.00012181
-4.74948e-06
-0.000120157
-6.40788e-06
-0.000118171
-8.05601e-06
-0.000115858
-9.68242e-06
-0.000113226
-1.12754e-05
-0.000110285
-1.28232e-05
-0.000107046
-1.43136e-05
-0.000103523
-1.57349e-05
-9.97306e-05
-1.70749e-05
-9.56861e-05
-1.83221e-05
-9.1408e-05
-1.9465e-05
-8.6917e-05
-2.04929e-05
-8.22353e-05
-2.13955e-05
-7.73867e-05
-2.21634e-05
-7.23968e-05
-2.27882e-05
-6.72925e-05
-2.32628e-05
-6.21019e-05
-2.35812e-05
-5.68546e-05
-2.37392e-05
-5.15806e-05
-2.37341e-05
-4.63109e-05
-2.35651e-05
-4.10766e-05
-2.32332e-05
-3.59089e-05
-2.27417e-05
-3.08389e-05
-2.20955e-05
-2.58968e-05
-2.1302e-05
-2.11119e-05
-2.03702e-05
-1.65121e-05
-1.93112e-05
-1.21234e-05
-1.81378e-05
-7.9701e-06
-1.68645e-05
-4.07368e-06
-1.55068e-05
-4.53144e-07
-1.40814e-05
2.87554e-06
-1.26059e-05
5.89955e-06
-1.1098e-05
8.60938e-06
-9.57574e-06
1.0999e-05
-8.05667e-06
1.30658e-05
-6.5578e-06
1.48105e-05
-5.09517e-06
1.62375e-05
-3.68355e-06
1.73541e-05
-2.33618e-06
1.81707e-05
-1.06458e-06
1.87004e-05
1.2164e-07
1.89588e-05
1.21493e-06
1.89635e-05
2.20966e-06
1.87339e-05
3.10227e-06
1.82906e-05
3.89107e-06
1.76553e-05
4.57601e-06
1.68504e-05
5.15845e-06
1.58985e-05
5.64076e-06
1.48224e-05
6.0259e-06
1.36449e-05
6.31694e-06
1.23886e-05
6.51647e-06
1.10761e-05
6.62605e-06
9.72987e-06
6.64569e-06
8.37265e-06
6.57336e-06
7.0276e-06
6.40466e-06
5.71862e-06
6.13279e-06
4.47074e-06
5.74876e-06
3.31058e-06
5.24218e-06
2.26705e-06
4.60259e-06
1.3724e-06
3.8215e-06
6.63919e-07
2.89513e-06
1.86814e-07
1.82766e-06
6.37149e-07
9.52573e-08
-5.33538e-07
3.16231e-07
-1.33736e-06
6.12262e-07
-1.90445e-06
9.42518e-07
-2.25863e-06
1.27333e-06
-2.42343e-06
1.57669e-06
-2.42277e-06
1.8292e-06
-2.28023e-06
2.01128e-06
-2.01845e-06
2.10664e-06
-1.65861e-06
2.10179e-06
-1.21999e-06
1.98566e-06
-7.19688e-07
1.74925e-06
-1.72453e-07
1.38527e-06
4.09413e-07
8.87805e-07
1.01605e-06
2.51967e-07
1.63999e-06
-5.26377e-07
2.27598e-06
-1.45089e-06
2.9208e-06
-2.525e-06
3.57303e-06
-3.75207e-06
4.23267e-06
-5.13553e-06
4.9009e-06
-6.67892e-06
5.57963e-06
-8.38594e-06
6.27119e-06
-1.02603e-05
6.97795e-06
-1.23058e-05
7.70202e-06
-1.45258e-05
8.44496e-06
-1.69234e-05
9.20757e-06
-1.95012e-05
9.98969e-06
-2.22607e-05
1.07901e-05
-2.52025e-05
1.16065e-05
-2.83258e-05
1.24355e-05
-3.16285e-05
1.32726e-05
-3.51067e-05
1.41122e-05
-3.87545e-05
1.49478e-05
-4.25643e-05
1.57722e-05
-4.65265e-05
1.65773e-05
-5.06293e-05
1.73547e-05
-5.4859e-05
1.80952e-05
-5.91998e-05
1.87896e-05
-6.36342e-05
1.94285e-05
-6.81429e-05
2.00024e-05
-7.27048e-05
2.05022e-05
-7.7298e-05
2.0919e-05
-8.1899e-05
2.12444e-05
-8.64838e-05
2.14707e-05
-9.10277e-05
2.15908e-05
-9.55058e-05
2.15986e-05
-9.98933e-05
2.1489e-05
-0.000104166
2.12579e-05
-0.000108299
2.09022e-05
-0.000112269
2.042e-05
-0.000116055
1.98104e-05
-0.000119635
1.90738e-05
-0.000122989
1.82114e-05
-0.000126099
1.72258e-05
-0.000128947
1.61203e-05
-0.000131519
1.48991e-05
-0.0001338
1.35676e-05
-0.000135777
1.21316e-05
-0.00013744
1.0598e-05
-0.00013878
8.97422e-06
-0.000139787
7.26834e-06
-0.000140457
5.4891e-06
-0.000140783
3.64581e-06
-0.000140762
1.74829e-06
-0.000140391
-1.92669e-07
-0.000139669
-2.16753e-06
-0.000138597
-4.16376e-06
-0.000137177
-6.17e-06
-0.000135411
-8.17409e-06
-0.000133303
-1.01635e-05
-0.00013086
-1.21253e-05
-0.000128089
-1.40464e-05
-0.000124999
-1.59132e-05
-0.000121601
-1.77123e-05
-0.000117906
-1.943e-05
-0.000113928
-2.10526e-05
-0.000109683
-2.25667e-05
-0.000105189
-2.39591e-05
-0.000100465
-2.52172e-05
-9.55315e-05
-2.63288e-05
-9.0412e-05
-2.72829e-05
-8.51309e-05
-2.80693e-05
-7.97145e-05
-2.86792e-05
-7.41906e-05
-2.91051e-05
-6.85885e-05
-2.93414e-05
-6.29384e-05
-2.93842e-05
-5.72717e-05
-2.92318e-05
-5.16204e-05
-2.88846e-05
-4.60166e-05
-2.83454e-05
-4.04929e-05
-2.76193e-05
-3.5081e-05
-2.67138e-05
-2.98124e-05
-2.56388e-05
-2.4717e-05
-2.44065e-05
-1.98237e-05
-2.30312e-05
-1.51591e-05
-2.15291e-05
-1.07478e-05
-1.99181e-05
-6.61175e-06
-1.82174e-05
-2.77015e-06
-1.64475e-05
7.61019e-07
-1.46292e-05
3.96905e-06
-1.27838e-05
6.84467e-06
-1.09323e-05
9.38219e-06
-9.09532e-06
1.15795e-05
-7.29245e-06
1.34379e-05
-5.54199e-06
1.49624e-05
-3.86064e-06
1.6161e-05
-2.26318e-06
1.70449e-05
-7.62282e-07
1.76282e-05
6.31654e-07
1.79273e-05
1.91057e-06
1.79608e-05
3.06871e-06
1.77493e-05
4.10259e-06
1.73146e-05
5.01072e-06
1.66797e-05
5.79337e-06
1.58683e-05
6.45215e-06
1.49046e-05
6.98953e-06
1.38133e-05
7.40828e-06
1.26189e-05
7.71084e-06
1.13463e-05
7.89872e-06
1.00202e-05
7.97179e-06
8.66573e-06
7.92779e-06
7.30851e-06
7.76188e-06
5.97479e-06
7.4665e-06
4.69209e-06
7.03146e-06
3.48972e-06
6.44455e-06
2.39972e-06
5.69259e-06
1.45826e-06
4.76296e-06
7.07665e-07
3.64572e-06
1.9949e-07
2.33584e-06
8.36639e-07
8.87252e-08
-6.22263e-07
2.9076e-07
-1.5394e-06
5.55005e-07
-2.16869e-06
8.39966e-07
-2.54359e-06
1.11149e-06
-2.69496e-06
1.34136e-06
-2.65264e-06
1.50615e-06
-2.44501e-06
1.58637e-06
-2.09867e-06
1.5658e-06
-1.63804e-06
1.43095e-06
-1.08514e-06
1.17064e-06
-4.59378e-07
7.75595e-07
2.22589e-07
2.3811e-07
9.46898e-07
-4.48299e-07
1.70246e-06
-1.28918e-06
2.48087e-06
-2.28942e-06
3.27622e-06
-3.4535e-06
4.08488e-06
-4.78566e-06
4.90518e-06
-6.29004e-06
5.73706e-06
-7.97079e-06
6.58165e-06
-9.83205e-06
7.4409e-06
-1.18779e-05
8.31707e-06
-1.41124e-05
9.2124e-06
-1.65391e-05
1.01287e-05
-1.91611e-05
1.1067e-05
-2.1981e-05
1.20274e-05
-2.50001e-05
1.30088e-05
-2.82188e-05
1.40088e-05
-3.16358e-05
1.50235e-05
-3.52482e-05
1.6048e-05
-3.90514e-05
1.70758e-05
-4.30386e-05
1.80994e-05
-4.7201e-05
1.91102e-05
-5.15276e-05
2.00988e-05
-5.60051e-05
2.10549e-05
-6.06182e-05
2.19678e-05
-6.53494e-05
2.28264e-05
-7.01793e-05
2.36195e-05
-7.50868e-05
2.4336e-05
-8.00492e-05
2.49648e-05
-8.50425e-05
2.54956e-05
-9.0042e-05
2.59185e-05
-9.50221e-05
2.62245e-05
-9.99568e-05
2.64054e-05
-0.00010482
2.64542e-05
-0.000109587
2.63652e-05
-0.000114231
2.61336e-05
-0.00011873
2.57562e-05
-0.000123059
2.5231e-05
-0.000127196
2.45572e-05
-0.000131121
2.37353e-05
-0.000134814
2.27671e-05
-0.000138258
2.16554e-05
-0.000141437
2.04042e-05
-0.000144335
1.90184e-05
-0.000146939
1.75038e-05
-0.000149239
1.5867e-05
-0.000151223
1.41156e-05
-0.000152882
1.22576e-05
-0.00015421
1.03018e-05
-0.000155199
8.25753e-06
-0.000155845
6.13465e-06
-0.000156143
3.9436e-06
-0.00015609
1.69534e-06
-0.000155684
-5.98625e-07
-0.000154924
-2.92694e-06
-0.000153811
-5.27672e-06
-0.000152346
-7.63528e-06
-0.000150531
-9.98935e-06
-0.000148369
-1.23252e-05
-0.000145865
-1.46288e-05
-0.000143026
-1.68856e-05
-0.000139859
-1.90808e-05
-0.000136372
-2.11994e-05
-0.000132576
-2.32259e-05
-0.000128483
-2.51453e-05
-0.000124107
-2.69423e-05
-0.000119465
-2.86018e-05
-0.000114572
-3.01094e-05
-0.00010945
-3.14509e-05
-0.00010412
-3.26134e-05
-9.86045e-05
-3.35847e-05
-9.29296e-05
-3.43541e-05
-8.71224e-05
-3.49123e-05
-8.12116e-05
-3.52521e-05
-7.52276e-05
-3.53681e-05
-6.92021e-05
-3.52573e-05
-6.31676e-05
-3.49191e-05
-5.71575e-05
-3.43555e-05
-5.12054e-05
-3.35714e-05
-4.53451e-05
-3.25741e-05
-3.96097e-05
-3.13742e-05
-3.40319e-05
-2.99844e-05
-2.86426e-05
-2.84205e-05
-2.34715e-05
-2.67002e-05
-1.85461e-05
-2.48435e-05
-1.38914e-05
-2.28721e-05
-9.52974e-06
-2.08092e-05
-5.48036e-06
-1.86786e-05
-1.75921e-06
-1.65049e-05
1.62124e-06
-1.43127e-05
4.65213e-06
-1.21262e-05
7.3283e-06
-9.96862e-06
9.64828e-06
-7.86196e-06
1.16142e-05
-5.82657e-06
1.32318e-05
-3.88074e-06
1.451e-05
-2.04051e-06
1.54611e-05
-3.19399e-07
1.60999e-05
1.27169e-06
1.64442e-05
2.72447e-06
1.65135e-05
4.03321e-06
1.63297e-05
5.19458e-06
1.59157e-05
6.20734e-06
1.5296e-05
7.07189e-06
1.44957e-05
7.78984e-06
1.35406e-05
8.36332e-06
1.24571e-05
8.79436e-06
1.12717e-05
9.08413e-06
1.00113e-05
9.23222e-06
8.70306e-06
9.23601e-06
7.3748e-06
9.09014e-06
6.0551e-06
8.7862e-06
4.77386e-06
8.3127e-06
3.563e-06
7.65541e-06
2.45749e-06
6.79809e-06
1.49689e-06
5.72357e-06
7.2744e-07
4.41517e-06
2.05023e-07
2.85825e-06
1.04166e-06
7.89702e-08
-7.01234e-07
2.53296e-07
-1.71372e-06
4.72613e-07
-2.38801e-06
6.95866e-07
-2.76684e-06
8.89313e-07
-2.88841e-06
1.02519e-06
-2.78851e-06
1.08055e-06
-2.50038e-06
1.03638e-06
-2.0545e-06
8.76801e-07
-1.47846e-06
5.88556e-07
-7.96895e-07
1.60504e-07
-3.13249e-08
-4.1677e-07
7.99863e-07
-1.1513e-06
1.68143e-06
-2.05004e-06
2.6012e-06
-3.11915e-06
3.54998e-06
-4.36421e-06
4.52128e-06
-5.79044e-06
5.51111e-06
-7.40281e-06