/*--------------------------------*- C++ -*----------------------------------*\
| =========                 |                                                 |
| \\      /  F ield         | OpenFOAM: The Open Source CFD Toolbox           |
|  \\    /   O peration     | Version:  2112                                  |
|   \\  /    A nd           | Website:  www.openfoam.com                      |
|    \\/     M anipulation  |                                                 |
\*---------------------------------------------------------------------------*/
FoamFile
{
    version     2.0;
    format      ascii;
    arch        "LSB;label=32;scalar=64";
    class       volVectorField;
    location    "29";
    object      U;
}
// * * * * * * * * * * * * * * * * * * * * * * * * * * * * * * * * * * * * * //

dimensions      [0 1 -1 0 0 0 0];

internalField   nonuniform List<vector> 
16641
(
(-7.00144e-06 7.21486e-06 0)
(3.85475e-06 -6.46357e-06 0)
(5.83685e-05 -2.15319e-05 0)
(0.000144962 -3.19919e-05 0)
(0.00025292 -3.80531e-05 0)
(0.000372509 -4.06873e-05 0)
(0.000495633 -4.07919e-05 0)
(0.000616029 -3.90957e-05 0)
(0.00072903 -3.61574e-05 0)
(0.000831265 -3.24005e-05 0)
(0.00092041 -2.81482e-05 0)
(0.000994993 -2.36494e-05 0)
(0.00105421 -1.90926e-05 0)
(0.00109776 -1.46153e-05 0)
(0.00112575 -1.031e-05 0)
(0.0011385 -6.2324e-06 0)
(0.00113652 -2.40414e-06 0)
(0.00112034 1.18114e-06 0)
(0.00109048 4.55066e-06 0)
(0.00104737 7.74917e-06 0)
(0.000991304 1.08337e-05 0)
(0.000922402 1.38686e-05 0)
(0.000840606 1.69213e-05 0)
(0.000745666 2.00577e-05 0)
(0.000637151 2.33395e-05 0)
(0.000514462 2.68217e-05 0)
(0.00037686 3.0551e-05 0)
(0.000223492 3.45647e-05 0)
(5.34237e-05 3.88903e-05 0)
(-0.000134331 4.35458e-05 0)
(-0.000340772 4.85398e-05 0)
(-0.000566891 5.38726e-05 0)
(-0.000813633 5.95369e-05 0)
(-0.00108188 6.55183e-05 0)
(-0.0013724 7.17955e-05 0)
(-0.00168587 7.83409e-05 0)
(-0.0020228 8.51207e-05 0)
(-0.00238356 9.20943e-05 0)
(-0.00276831 9.92145e-05 0)
(-0.00317701 0.000106427 0)
(-0.00360939 0.000113672 0)
(-0.00406493 0.000120879 0)
(-0.00454286 0.000127974 0)
(-0.00504208 0.000134874 0)
(-0.00556122 0.00014149 0)
(-0.00609859 0.000147726 0)
(-0.00665217 0.000153483 0)
(-0.0072196 0.000158654 0)
(-0.0077982 0.000163132 0)
(-0.00838496 0.000166806 0)
(-0.00897652 0.000169565 0)
(-0.00956925 0.000171298 0)
(-0.0101592 0.000171899 0)
(-0.0107421 0.000171264 0)
(-0.0113135 0.000169297 0)
(-0.0118688 0.000165909 0)
(-0.0124031 0.000161022 0)
(-0.0129114 0.000154572 0)
(-0.0133886 0.000146506 0)
(-0.0138296 0.000136791 0)
(-0.0142294 0.000125411 0)
(-0.014583 0.000112369 0)
(-0.0148855 9.76906e-05 0)
(-0.0151323 8.14281e-05 0)
(-0.0153192 6.3673e-05 0)
(-0.0154421 4.45408e-05 0)
(-0.0154977 2.41191e-05 0)
(-0.0154826 2.6408e-06 0)
(-0.0153944 -1.9841e-05 0)
(-0.0152313 -4.30566e-05 0)
(-0.0149923 -6.67523e-05 0)
(-0.0146769 -9.06703e-05 0)
(-0.0142856 -0.000114533 0)
(-0.0138195 -0.000138045 0)
(-0.0132809 -0.000160896 0)
(-0.0126728 -0.000182772 0)
(-0.0119991 -0.000203353 0)
(-0.0112646 -0.000222326 0)
(-0.0104749 -0.00023939 0)
(-0.0096365 -0.000254263 0)
(-0.0087566 -0.000266688 0)
(-0.00784302 -0.000276444 0)
(-0.00690413 -0.000283351 0)
(-0.00594873 -0.000287276 0)
(-0.00498591 -0.000288138 0)
(-0.00402491 -0.000285914 0)
(-0.00307495 -0.000280638 0)
(-0.00214509 -0.000272406 0)
(-0.00124404 -0.000261368 0)
(-0.000379969 -0.000247742 0)
(0.000439433 -0.000231845 0)
(0.00120732 -0.000213851 0)
(0.00191788 -0.000194192 0)
(0.0025661 -0.000173223 0)
(0.00314808 -0.000151324 0)
(0.00366103 -0.000128884 0)
(0.00410325 -0.000106285 0)
(0.00447418 -8.38946e-05 0)
(0.00477428 -6.20554e-05 0)
(0.00500503 -4.10765e-05 0)
(0.00516882 -2.1227e-05 0)
(0.00526884 -2.73162e-06 0)
(0.00530896 1.42327e-05 0)
(0.00529363 2.9537e-05 0)
(0.00522768 4.31025e-05 0)
(0.00511628 5.4896e-05 0)
(0.0049647 6.49268e-05 0)
(0.00477828 7.32436e-05 0)
(0.00456224 7.99287e-05 0)
(0.00432164 8.50925e-05 0)
(0.00406125 8.88673e-05 0)
(0.00378551 9.14013e-05 0)
(0.00349845 9.28507e-05 0)
(0.00320372 9.33731e-05 0)
(0.00290454 9.31182e-05 0)
(0.00260375 9.22186e-05 0)
(0.00230387 9.07779e-05 0)
(0.0020072 8.88569e-05 0)
(0.00171596 8.64569e-05 0)
(0.00143248 8.34992e-05 0)
(0.00115945 7.98012e-05 0)
(0.000900179 7.5047e-05 0)
(0.000658958 6.87568e-05 0)
(0.000441416 6.02608e-05 0)
(0.000254821 4.87251e-05 0)
(0.000107994 3.33538e-05 0)
(1.0265e-05 1.40314e-05 0)
(-3.0672e-05 -6.81841e-06 0)
(-1.80824e-05 -1.81295e-05 0)
(6.47492e-06 -3.43493e-06 0)
(7.0764e-05 -7.06672e-05 0)
(0.000223862 -0.000137077 0)
(0.000440867 -0.00018586 0)
(0.000701214 -0.000216041 0)
(0.000986181 -0.00022998 0)
(0.00127859 -0.000230701 0)
(0.00156399 -0.00022115 0)
(0.00183091 -0.000203902 0)
(0.00207055 -0.000181117 0)
(0.00227647 -0.000154574 0)
(0.00244423 -0.000125711 0)
(0.00257101 -9.56653e-05 0)
(0.00265528 -6.52977e-05 0)
(0.0026965 -3.5222e-05 0)
(0.00269483 -5.83371e-06 0)
(0.00265083 2.26645e-05 0)
(0.00256528 5.02355e-05 0)
(0.00243894 7.69764e-05 0)
(0.00227243 0.000103091 0)
(0.00206608 0.000128859 0)
(0.00181989 0.00015461 0)
(0.00153342 0.000180693 0)
(0.00120583 0.000207458 0)
(0.000835868 0.000235228 0)
(0.000421913 0.000264294 0)
(-3.79585e-05 0.000294894 0)
(-0.000545905 0.000327209 0)
(-0.00110424 0.000361359 0)
(-0.00171535 0.000397402 0)
(-0.00238159 0.000435334 0)
(-0.00310523 0.000475094 0)
(-0.00388835 0.000516565 0)
(-0.00473276 0.000559579 0)
(-0.00563995 0.000603919 0)
(-0.006611 0.000649321 0)
(-0.00764653 0.000695477 0)
(-0.00874662 0.000742036 0)
(-0.00991079 0.000788603 0)
(-0.0111379 0.000834743 0)
(-0.0124261 0.00087998 0)
(-0.0137729 0.000923801 0)
(-0.0151749 0.00096566 0)
(-0.016628 0.00100498 0)
(-0.0181272 0.00104115 0)
(-0.0196667 0.00107356 0)
(-0.0212398 0.00110157 0)
(-0.0228391 0.00112453 0)
(-0.0244563 0.00114181 0)
(-0.0260821 0.00115279 0)
(-0.0277069 0.00115685 0)
(-0.02932 0.00115344 0)
(-0.0309103 0.00114203 0)
(-0.0324663 0.00112212 0)
(-0.0339757 0.00109332 0)
(-0.0354261 0.00105527 0)
(-0.0368049 0.00100772 0)
(-0.0380995 0.000950482 0)
(-0.039297 0.000883493 0)
(-0.0403849 0.000806782 0)
(-0.0413512 0.000720495 0)
(-0.0421839 0.000624894 0)
(-0.0428721 0.000520368 0)
(-0.0434053 0.000407441 0)
(-0.0437742 0.000286815 0)
(-0.0439705 0.000159248 0)
(-0.043987 2.52614e-05 0)
(-0.0438177 -0.00011341 0)
(-0.0434583 -0.000255974 0)
(-0.042906 -0.000401152 0)
(-0.04216 -0.000547532 0)
(-0.041221 -0.00069363 0)
(-0.0400916 -0.000837888 0)
(-0.0387765 -0.000978688 0)
(-0.0372823 -0.00111437 0)
(-0.0356173 -0.00124327 0)
(-0.0337923 -0.00136374 0)
(-0.0318195 -0.00147415 0)
(-0.0297133 -0.00157299 0)
(-0.0274895 -0.00165882 0)
(-0.0251657 -0.00173037 0)
(-0.0227608 -0.00178653 0)
(-0.0202948 -0.0018264 0)
(-0.0177885 -0.00184932 0)
(-0.0152636 -0.00185489 0)
(-0.0127418 -0.00184299 0)
(-0.0102451 -0.00181377 0)
(-0.00779495 -0.00176769 0)
(-0.00541221 -0.00170551 0)
(-0.00311671 -0.00162828 0)
(-0.000926968 -0.00153737 0)
(0.00114005 -0.00143417 0)
(0.00306937 -0.00132048 0)
(0.00484814 -0.00119821 0)
(0.00646575 -0.00106938 0)
(0.00791405 -0.000936061 0)
(0.00918741 -0.000800327 0)
(0.0102827 -0.000664227 0)
(0.0111995 -0.000529717 0)
(0.0119394 -0.000398621 0)
(0.0125066 -0.000272587 0)
(0.0129072 -0.000153059 0)
(0.0131493 -4.12504e-05 0)
(0.0132423 6.18697e-05 0)
(0.013197 0.000155588 0)
(0.0130253 0.000239444 0)
(0.0127397 0.00031322 0)
(0.0123528 0.000376929 0)
(0.0118777 0.000430789 0)
(0.0113271 0.000475202 0)
(0.0107132 0.000510717 0)
(0.0100477 0.000537996 0)
(0.00934178 0.000557773 0)
(0.00860543 0.000570806 0)
(0.00784802 0.000577828 0)
(0.00707809 0.000579486 0)
(0.00630351 0.000576276 0)
(0.0055317 0.000568468 0)
(0.00476997 0.000556025 0)
(0.00402587 0.00053852 0)
(0.0033077 0.000515045 0)
(0.00262504 0.000484146 0)
(0.00198926 0.000443797 0)
(0.00141397 0.000391481 0)
(0.000915102 0.000324567 0)
(0.000510009 0.000241364 0)
(0.000214867 0.000143423 0)
(4.17656e-05 4.0852e-05 0)
(-6.54537e-06 -3.07366e-05 0)
(2.14935e-05 -5.79329e-05 0)
(0.000137279 -0.000223765 0)
(0.000374025 -0.000373415 0)
(0.000691038 -0.000484632 0)
(0.00106037 -0.000554621 0)
(0.00145838 -0.000586784 0)
(0.00186267 -0.00058672 0)
(0.00225373 -0.000560539 0)
(0.00261551 -0.000514016 0)
(0.00293532 -0.000452278 0)
(0.00320349 -0.00037972 0)
(0.00341301 -0.0003 0)
(0.00355911 -0.000216068 0)
(0.00363882 -0.000130208 0)
(0.0036506 -4.40859e-05 0)
(0.00359388 4.11898e-05 0)
(0.00346876 0.000125002 0)
(0.00327568 0.000207163 0)
(0.00301511 0.000287844 0)
(0.00268737 0.000367494 0)
(0.00229244 0.000446768 0)
(0.00182985 0.000526449 0)
(0.00129861 0.000607384 0)
(0.000697167 0.000690415 0)
(2.34707e-05 0.000776331 0)
(-0.000724994 0.000865819 0)
(-0.00155111 0.000959436 0)
(-0.00245803 0.00105758 0)
(-0.00344903 0.00116049 0)
(-0.0045274 0.00126821 0)
(-0.0056963 0.00138065 0)
(-0.00695861 0.00149751 0)
(-0.00831686 0.00161837 0)
(-0.00977302 0.00174264 0)
(-0.0113285 0.00186958 0)
(-0.0129839 0.00199836 0)
(-0.014739 0.00212796 0)
(-0.0165928 0.0022573 0)
(-0.0185431 0.00238515 0)
(-0.0205867 0.00251019 0)
(-0.0227193 0.00263099 0)
(-0.0249353 0.00274605 0)
(-0.027228 0.00285379 0)
(-0.0295894 0.00295255 0)
(-0.0320102 0.00304068 0)
(-0.0344798 0.00311645 0)
(-0.0369866 0.00317818 0)
(-0.0395175 0.00322419 0)
(-0.0420585 0.00325286 0)
(-0.0445947 0.00326263 0)
(-0.0471099 0.00325205 0)
(-0.0495875 0.00321981 0)
(-0.05201 0.00316474 0)
(-0.0543595 0.00308583 0)
(-0.0566177 0.00298228 0)
(-0.0587662 0.00285353 0)
(-0.0607864 0.00269922 0)
(-0.0626603 0.00251927 0)
(-0.0643698 0.00231386 0)
(-0.0658978 0.00208346 0)
(-0.0672278 0.00182881 0)
(-0.0683442 0.00155097 0)
(-0.0692326 0.00125131 0)
(-0.06988 0.000931514 0)
(-0.0702748 0.000593628 0)
(-0.0704078 0.000239952 0)
(-0.0702703 -0.000127862 0)
(-0.0698558 -0.000505732 0)
(-0.0691612 -0.000890907 0)
(-0.0681846 -0.00128019 0)
(-0.0669267 -0.00167003 0)
(-0.0653906 -0.0020567 0)
(-0.0635818 -0.00243632 0)
(-0.0615085 -0.00280492 0)
(-0.0591813 -0.00315848 0)
(-0.0566133 -0.00349297 0)
(-0.0538203 -0.00380446 0)
(-0.0508201 -0.00408913 0)
(-0.0476332 -0.00434337 0)
(-0.0442818 -0.00456384 0)
(-0.0407905 -0.00474754 0)
(-0.0371852 -0.00489188 0)
(-0.0334934 -0.00499477 0)
(-0.0297438 -0.00505463 0)
(-0.0259658 -0.00507052 0)
(-0.0221892 -0.0050421 0)
(-0.0184441 -0.00496971 0)
(-0.01476 -0.00485439 0)
(-0.0111657 -0.00469784 0)
(-0.00768903 -0.00450247 0)
(-0.00435598 -0.00427129 0)
(-0.00119076 -0.00400789 0)
(0.00178482 -0.00371634 0)
(0.00455153 -0.00340112 0)
(0.00709311 -0.00306717 0)
(0.00939643 -0.00271949 0)
(0.0114516 -0.00236322 0)
(0.0132521 -0.00200348 0)
(0.0147949 -0.00164525 0)
(0.0160801 -0.00129325 0)
(0.0171113 -0.000951849 0)
(0.0178948 -0.000624964 0)
(0.0184399 -0.000316006 0)
(0.0187581 -2.78099e-05 0)
(0.0188632 0.000237391 0)
(0.0187707 0.000477986 0)
(0.0184972 0.00069298 0)
(0.0180603 0.000881966 0)
(0.0174783 0.00104509 0)
(0.0167694 0.00118299 0)
(0.0159515 0.00129671 0)
(0.0150421 0.00138764 0)
(0.014058 0.00145737 0)
(0.0130152 0.00150763 0)
(0.0119283 0.00154008 0)
(0.0108115 0.00155621 0)
(0.00967774 0.00155717 0)
(0.00853974 0.00154357 0)
(0.00740987 0.0015153 0)
(0.00630084 0.00147135 0)
(0.00522617 0.00140968 0)
(0.00420084 0.00132713 0)
(0.00324171 0.0012195 0)
(0.00236792 0.00108201 0)
(0.00160073 0.00091029 0)
(0.000962142 0.00070272 0)
(0.000471779 0.000464463 0)
(0.00014817 0.000215209 0)
(1.52507e-05 1.14982e-05 0)
(3.21169e-05 -0.000144715 0)
(0.000186992 -0.000441477 0)
(0.000487466 -0.000690871 0)
(0.000876688 -0.00087297 0)
(0.0013196 -0.000985822 0)
(0.00178881 -0.00103477 0)
(0.00225857 -0.00102834 0)
(0.00270617 -0.000976099 0)
(0.00311265 -0.000887373 0)
(0.00346264 -0.000770706 0)
(0.00374414 -0.000633586 0)
(0.00394811 -0.000482361 0)
(0.00406809 -0.000322226 0)
(0.00409971 -0.000157256 0)
(0.00404025 9.52414e-06 0)
(0.00388821 0.000176065 0)
(0.00364287 0.000341184 0)
(0.00330395 0.000504456 0)
(0.00287127 0.00066609 0)
(0.00234451 0.000826796 0)
(0.00172299 0.000987649 0)
(0.00100555 0.00114996 0)
(0.000190467 0.00131515 0)
(-0.000724555 0.00148462 0)
(-0.00174236 0.00165969 0)
(-0.00286624 0.00184147 0)
(-0.00409982 0.00203084 0)
(-0.00544695 0.00222838 0)
(-0.00691147 0.00243434 0)
(-0.0084971 0.00264866 0)
(-0.0102072 0.00287095 0)
(-0.0120448 0.00310049 0)
(-0.0140119 0.00333627 0)
(-0.0161101 0.00357698 0)
(-0.0183399 0.00382105 0)
(-0.0207004 0.00406664 0)
(-0.0231899 0.0043117 0)
(-0.025805 0.00455395 0)
(-0.0285413 0.0047909 0)
(-0.0313924 0.00501988 0)
(-0.0343507 0.00523809 0)
(-0.0374068 0.00544258 0)
(-0.0405499 0.00563031 0)
(-0.0437673 0.00579817 0)
(-0.0470449 0.00594305 0)
(-0.0503672 0.00606183 0)
(-0.0537171 0.00615148 0)
(-0.0570762 0.00620907 0)
(-0.060425 0.00623183 0)
(-0.063743 0.00621719 0)
(-0.0670088 0.00616282 0)
(-0.0702003 0.00606671 0)
(-0.0732951 0.00592715 0)
(-0.0762702 0.00574281 0)
(-0.0791032 0.00551276 0)
(-0.0817712 0.00523649 0)
(-0.0842523 0.00491396 0)
(-0.0865248 0.00454556 0)
(-0.0885683 0.0041322 0)
(-0.0903632 0.00367525 0)
(-0.0918911 0.00317662 0)
(-0.0931354 0.00263866 0)
(-0.0940808 0.00206427 0)
(-0.0947139 0.00145676 0)
(-0.0950233 0.000819794 0)
(-0.095001 0.000157675 0)
(-0.0946389 -0.000523244 0)
(-0.0939313 -0.00121959 0)
(-0.0928774 -0.00192561 0)
(-0.0914776 -0.00263528 0)
(-0.0897347 -0.00334245 0)
(-0.0876543 -0.00404069 0)
(-0.085245 -0.00472341 0)
(-0.0825178 -0.00538392 0)
(-0.0794865 -0.0060155 0)
(-0.0761677 -0.00661147 0)
(-0.0725805 -0.0071653 0)
(-0.0687466 -0.00767069 0)
(-0.06469 -0.00812171 0)
(-0.0604371 -0.00851285 0)
(-0.0560162 -0.00883919 0)
(-0.0514575 -0.00909647 0)
(-0.0467928 -0.0092812 0)
(-0.0420552 -0.00939077 0)
(-0.0372785 -0.0094235 0)
(-0.0324975 -0.00937878 0)
(-0.0277469 -0.00925704 0)
(-0.0230612 -0.00905985 0)
(-0.0184743 -0.00878989 0)
(-0.0140189 -0.00845094 0)
(-0.00972646 -0.00804785 0)
(-0.00562621 -0.00758645 0)
(-0.00174507 -0.00707344 0)
(0.00189265 -0.00651627 0)
(0.00526582 -0.00592302 0)
(0.00835677 -0.00530222 0)
(0.0111513 -0.00466262 0)
(0.013639 -0.00401304 0)
(0.0158133 -0.00336218 0)
(0.0176717 -0.00271841 0)
(0.0192152 -0.00208962 0)
(0.0204487 -0.00148301 0)
(0.0213804 -0.000905004 0)
(0.0220218 -0.000361107 0)
(0.0223871 0.000144167 0)
(0.022493 0.000607342 0)
(0.0223581 0.00102601 0)
(0.0220027 0.00139878 0)
(0.0214478 0.00172527 0)
(0.0207155 0.00200598 0)
(0.0198277 0.00224221 0)
(0.0188062 0.00243587 0)
(0.0176725 0.00258936 0)
(0.0164471 0.00270532 0)
(0.0151497 0.00278638 0)
(0.0137993 0.00283495 0)
(0.0124139 0.00285289 0)
(0.0110109 0.00284119 0)
(0.00960768 0.00279973 0)
(0.0082216 0.00272694 0)
(0.00687093 0.00261967 0)
(0.00557516 0.0024731 0)
(0.00435552 0.00228103 0)
(0.00323523 0.00203662 0)
(0.00223941 0.0017341 0)
(0.00139377 0.00137186 0)
(0.000721854 0.000957584 0)
(0.000252206 0.000516668 0)
(3.61838e-05 0.000113649 0)
(3.85988e-05 -0.000253605 0)
(0.000219045 -0.000704105 0)
(0.000561445 -0.00106248 0)
(0.000995564 -0.00131685 0)
(0.00147988 -0.00146927 0)
(0.0019837 -0.00152853 0)
(0.00247876 -0.00150672 0)
(0.00294026 -0.00141711 0)
(0.00334734 -0.00127275 0)
(0.00368291 -0.00108575 0)
(0.00393334 -0.000866858 0)
(0.00408808 -0.00062529 0)
(0.00413929 -0.000368673 0)
(0.00408132 -0.00010305 0)
(0.0039103 0.00016705 0)
(0.00362365 0.000438508 0)
(0.00321966 0.000709488 0)
(0.00269711 0.000979265 0)
(0.00205493 0.00124805 0)
(0.00129192 0.0015168 0)
(0.000406532 0.00178701 0)
(-0.000603228 0.00206051 0)
(-0.00173991 0.0023393 0)
(-0.00300658 0.00262533 0)
(-0.00440681 0.0029204 0)
(-0.00594453 0.00322599 0)
(-0.00762387 0.00354319 0)
(-0.00944902 0.00387263 0)
(-0.011424 0.00421442 0)
(-0.0135525 0.00456817 0)
(-0.0158374 0.00493294 0)
(-0.0182812 0.0053073 0)
(-0.0208849 0.00568933 0)
(-0.0236487 0.00607664 0)
(-0.0265712 0.00646643 0)
(-0.0296497 0.00685551 0)
(-0.0328796 0.00724032 0)
(-0.0362548 0.00761697 0)
(-0.0397673 0.00798132 0)
(-0.043407 0.00832896 0)
(-0.0471621 0.0086553 0)
(-0.0510189 0.00895561 0)
(-0.0549618 0.0092251 0)
(-0.0589733 0.00945894 0)
(-0.0630342 0.00965237 0)
(-0.0671239 0.00980075 0)
(-0.0712201 0.00989965 0)
(-0.0752996 0.00994489 0)
(-0.0793379 0.00993265 0)
(-0.08331 0.0098595 0)
(-0.08719 0.00972248 0)
(-0.0909519 0.00951916 0)
(-0.0945698 0.00924768 0)
(-0.0980178 0.00890676 0)
(-0.10127 0.0084958 0)
(-0.104303 0.00801484 0)
(-0.107092 0.00746462 0)
(-0.109615 0.00684656 0)
(-0.11185 0.00616279 0)
(-0.113778 0.00541611 0)
(-0.11538 0.00461003 0)
(-0.116642 0.0037487 0)
(-0.117548 0.00283697 0)
(-0.118087 0.00188024 0)
(-0.118249 0.000884398 0)
(-0.118025 -0.000143902 0)
(-0.117412 -0.00119591 0)
(-0.116407 -0.00226576 0)
(-0.11501 -0.00334506 0)
(-0.113224 -0.00442513 0)
(-0.111053 -0.00549709 0)
(-0.108506 -0.0065518 0)
(-0.105592 -0.00757994 0)
(-0.102326 -0.00857207 0)
(-0.0987232 -0.00951877 0)
(-0.0948018 -0.0104107 0)
(-0.0905829 -0.0112388 0)
(-0.08609 -0.0119942 0)
(-0.0813491 -0.0126687 0)
(-0.0763883 -0.0132546 0)
(-0.0712378 -0.0137449 0)
(-0.0659297 -0.0141338 0)
(-0.0604978 -0.0144162 0)
(-0.0549772 -0.0145884 0)
(-0.0494043 -0.0146478 0)
(-0.0438161 -0.0145934 0)
(-0.03825 -0.0144255 0)
(-0.0327433 -0.014146 0)
(-0.0273332 -0.0137584 0)
(-0.0220556 -0.0132677 0)
(-0.0169456 -0.0126805 0)
(-0.0120361 -0.0120046 0)
(-0.00735807 -0.0112492 0)
(-0.00293982 -0.0104249 0)
(0.00119332 -0.00954276 0)
(0.00501941 -0.00861494 0)
(0.00852009 -0.00765399 0)
(0.0116809 -0.00667265 0)
(0.0144913 -0.00568368 0)
(0.0169451 -0.00469948 0)
(0.0190402 -0.00373192 0)
(0.0207785 -0.00279205 0)
(0.0221658 -0.0018899 0)
(0.0232118 -0.00103429 0)
(0.0239296 -0.000232682 0)
(0.0243351 0.00050891 0)
(0.0244472 0.00118598 0)
(0.0242866 0.00179555 0)
(0.0238761 0.00233608 0)
(0.0232393 0.0028074 0)
(0.0224009 0.00321058 0)
(0.0213858 0.0035477 0)
(0.0202186 0.00382159 0)
(0.0189237 0.00403558 0)
(0.0175251 0.00419312 0)
(0.0160458 0.00429739 0)
(0.0145082 0.00435092 0)
(0.0129342 0.00435513 0)
(0.0113455 0.0043099 0)
(0.00976397 0.00421328 0)
(0.00821191 0.00406116 0)
(0.00671278 0.00384736 0)
(0.00529146 0.00356397 0)
(0.00397461 0.00320237 0)
(0.00279086 0.00275526 0)
(0.00176976 0.00222017 0)
(0.00093988 0.00160461 0)
(0.000341402 0.000933878 0)
(5.33015e-05 0.000268729 0)
(4.18942e-05 -0.000375417 0)
(0.0002356 -0.000993642 0)
(0.000598665 -0.0014651 0)
(0.00105144 -0.00178907 0)
(0.00154717 -0.00197408 0)
(0.00205229 -0.0020339 0)
(0.00253658 -0.00198501 0)
(0.00297377 -0.00184476 0)
(0.00334183 -0.00163009 0)
(0.00362256 -0.00135674 0)
(0.00380126 -0.00103876 0)
(0.00386631 -0.000688289 0)
(0.00380875 -0.000315423 0)
(0.00362187 7.17827e-05 0)
(0.00330068 0.000467248 0)
(0.00284152 0.00086675 0)
(0.00224162 0.00126776 0)
(0.00149867 0.00166921 0)
(0.000610577 0.00207131 0)
(-0.000424894 0.00247521 0)
(-0.00161025 0.00288281 0)
(-0.00294841 0.00329641 0)
(-0.00444276 0.00371851 0)
(-0.00609713 0.00415154 0)
(-0.00791565 0.00459766 0)
(-0.0099027 0.00505858 0)
(-0.0120626 0.00553541 0)
(-0.0143996 0.00602861 0)
(-0.0169174 0.0065379 0)
(-0.0196189 0.00706224 0)
(-0.0225063 0.00759984 0)
(-0.0255805 0.00814819 0)
(-0.0288409 0.00870408 0)
(-0.0322855 0.00926364 0)
(-0.0359104 0.00982244 0)
(-0.0397099 0.0103755 0)
(-0.043676 0.0109173 0)
(-0.0477989 0.0114421 0)
(-0.0520663 0.0119436 0)
(-0.0564641 0.0124153 0)
(-0.0609756 0.0128506 0)
(-0.0655823 0.0132428 0)
(-0.0702637 0.0135852 0)
(-0.0749974 0.0138711 0)
(-0.0797594 0.0140941 0)
(-0.0845242 0.0142482 0)
(-0.0892654 0.0143277 0)
(-0.0939552 0.0143273 0)
(-0.0985656 0.0142426 0)
(-0.103068 0.0140696 0)
(-0.107434 0.0138052 0)
(-0.111635 0.0134469 0)
(-0.115643 0.0129933 0)
(-0.119431 0.0124438 0)
(-0.122973 0.0117985 0)
(-0.126244 0.0110585 0)
(-0.129221 0.010226 0)
(-0.131882 0.00930389 0)
(-0.134206 0.00829587 0)
(-0.136176 0.00720663 0)
(-0.137775 0.00604162 0)
(-0.138989 0.00480709 0)
(-0.139806 0.00351007 0)
(-0.140216 0.00215829 0)
(-0.140211 0.000760278 0)
(-0.139787 -0.000674976 0)
(-0.13894 -0.00213869 0)
(-0.13767 -0.00361971 0)
(-0.135978 -0.00510753 0)
(-0.13387 -0.00659119 0)
(-0.131351 -0.00805926 0)
(-0.12843 -0.00950004 0)
(-0.12512 -0.0109016 0)
(-0.121434 -0.0122519 0)
(-0.117389 -0.0135391 0)
(-0.113004 -0.0147511 0)
(-0.1083 -0.0158765 0)
(-0.103302 -0.0169041 0)
(-0.0980345 -0.0178233 0)
(-0.092527 -0.0186243 0)
(-0.0868098 -0.019298 0)
(-0.0809154 -0.0198369 0)
(-0.074878 -0.0202342 0)
(-0.0687335 -0.0204848 0)
(-0.0625189 -0.0205853 0)
(-0.0562726 -0.0205339 0)
(-0.0500331 -0.0203306 0)
(-0.0438397 -0.0199775 0)
(-0.0377312 -0.0194783 0)
(-0.0317461 -0.0188393 0)
(-0.0259219 -0.0180681 0)
(-0.0202945 -0.0171746 0)
(-0.0148981 -0.0161702 0)
(-0.00976456 -0.0150682 0)
(-0.00492281 -0.0138827 0)
(-0.000398776 -0.0126293 0)
(0.00378517 -0.0113244 0)
(0.00761044 -0.00998456 0)
(0.0110625 -0.00862676 0)
(0.0141311 -0.00726763 0)
(0.0168102 -0.0059233 0)
(0.0190982 -0.00460902 0)
(0.0209977 -0.00333885 0)
(0.0225154 -0.00212543 0)
(0.023662 -0.000979744 0)
(0.0244516 8.90496e-05 0)
(0.0249018 0.00107372 0)
(0.0250328 0.00196902 0)
(0.024867 0.00277165 0)
(0.024429 0.00348016 0)
(0.0237446 0.00409479 0)
(0.0228402 0.00461724 0)
(0.0217432 0.00505036 0)
(0.0204806 0.00539775 0)
(0.0190796 0.00566337 0)
(0.0175667 0.00585096 0)
(0.0159681 0.00596358 0)
(0.0143096 0.006003 0)
(0.0126169 0.00596919 0)
(0.0109156 0.00585989 0)
(0.00923176 0.00567028 0)
(0.00759245 0.00539305 0)
(0.00602586 0.00501878 0)
(0.00456189 0.0045371 0)
(0.00323272 0.00393875 0)
(0.00207218 0.00321895 0)
(0.00111456 0.00238215 0)
(0.000411512 0.00144842 0)
(6.61254e-05 0.000466734 0)
(4.28199e-05 -0.000502411 0)
(0.000239173 -0.00129308 0)
(0.000603308 -0.00187596 0)
(0.00105014 -0.00226276 0)
(0.00152924 -0.00247014 0)
(0.00200479 -0.00251807 0)
(0.00244511 -0.00242818 0)
(0.00282301 -0.00222234 0)
(0.00311574 -0.00192153 0)
(0.0033045 -0.00154515 0)
(0.00337391 -0.00111055 0)
(0.00331161 -0.000632715 0)
(0.00310782 -0.000124157 0)
(0.0027549 0.000405101 0)
(0.00224686 0.000947467 0)
(0.00157899 0.00149764 0)
(0.000747414 0.0020524 0)
(-0.000251275 0.00261036 0)
(-0.0014203 0.00317166 0)
(-0.00276295 0.00373766 0)
(-0.00428275 0.00431056 0)
(-0.00598355 0.00489306 0)
(-0.00786951 0.00548805 0)
(-0.00994505 0.00609826 0)
(-0.0122148 0.00672603 0)
(-0.0146831 0.00737305 0)
(-0.0173544 0.00804021 0)
(-0.0202322 0.00872749 0)
(-0.0233196 0.00943385 0)
(-0.0266182 0.0101573 0)
(-0.0301286 0.0108947 0)
(-0.0338495 0.0116421 0)
(-0.0377781 0.0123947 0)
(-0.0419092 0.0131465 0)
(-0.0462358 0.0138911 0)
(-0.0507483 0.0146214 0)
(-0.0554349 0.0153297 0)
(-0.0602811 0.0160076 0)
(-0.0652703 0.0166468 0)
(-0.0703835 0.0172385 0)
(-0.0755992 0.0177738 0)
(-0.0808941 0.0182439 0)
(-0.0862429 0.0186404 0)
(-0.0916187 0.0189548 0)
(-0.0969933 0.0191793 0)
(-0.102337 0.0193067 0)
(-0.107621 0.0193305 0)
(-0.112813 0.019245 0)
(-0.117883 0.0190453 0)
(-0.122802 0.0187275 0)
(-0.127538 0.018289 0)
(-0.132064 0.0177279 0)
(-0.136351 0.0170437 0)
(-0.140372 0.0162369 0)
(-0.144102 0.0153091 0)
(-0.147519 0.0142629 0)
(-0.150599 0.0131022 0)
(-0.153324 0.0118317 0)
(-0.155675 0.0104571 0)
(-0.157637 0.00898512 0)
(-0.159195 0.00742331 0)
(-0.160339 0.00578006 0)
(-0.161057 0.00406456 0)
(-0.161344 0.00228674 0)
(-0.161193 0.000457288 0)
(-0.160601 -0.00141246 0)
(-0.159566 -0.00331117 0)
(-0.15809 -0.00522594 0)
(-0.156175 -0.00714386 0)
(-0.153826 -0.00905161 0)
(-0.151051 -0.0109354 0)
(-0.147859 -0.0127813 0)
(-0.14426 -0.0145749 0)
(-0.14027 -0.0163019 0)
(-0.135904 -0.017948 0)
(-0.13118 -0.0194988 0)
(-0.12612 -0.0209405 0)
(-0.120746 -0.0222595 0)
(-0.115083 -0.0234431 0)
(-0.109159 -0.0244791 0)
(-0.103005 -0.0253566 0)
(-0.0966506 -0.0260657 0)
(-0.0901313 -0.0265983 0)
(-0.0834822 -0.0269477 0)
(-0.0767405 -0.027109 0)
(-0.0699448 -0.0270795 0)
(-0.0631344 -0.0268587 0)
(-0.0563496 -0.0264483 0)
(-0.0496306 -0.0258523 0)
(-0.0430177 -0.0250773 0)
(-0.0365505 -0.0241323 0)
(-0.0302675 -0.0230285 0)
(-0.0242058 -0.0217793 0)
(-0.0184001 -0.0204003 0)
(-0.0128832 -0.0189086 0)
(-0.00768445 -0.0173229 0)
(-0.00283024 -0.0156632 0)
(0.00165682 -0.01395 0)
(0.00575811 -0.0122044 0)
(0.00945917 -0.0104472 0)
(0.01275 -0.00869914 0)
(0.0156248 -0.00697972 0)
(0.0180827 -0.00530739 0)
(0.0201269 -0.00369898 0)
(0.0217649 -0.00216943 0)
(0.0230082 -0.000731555 0)
(0.0238721 0.000604134 0)
(0.0243752 0.00182951 0)
(0.0245391 0.00293888 0)
(0.0243876 0.00392889 0)
(0.0239468 0.00479834 0)
(0.023244 0.00554797 0)
(0.0223079 0.00618007 0)
(0.0211674 0.00669807 0)
(0.0198519 0.00710599 0)
(0.018391 0.00740782 0)
(0.0168139 0.00760693 0)
(0.0151497 0.00770532 0)
(0.0134274 0.00770302 0)
(0.0116763 0.00759753 0)
(0.00992564 0.00738347 0)
(0.00820584 0.00705251 0)
(0.00654825 0.00659383 0)
(0.00498606 0.00599512 0)
(0.00355512 0.00524449 0)
(0.00229375 0.00433348 0)
(0.00124206 0.00326089 0)
(0.000461809 0.00203779 0)
(7.49277e-05 0.000696682 0)
(4.19655e-05 -0.000628333 0)
(0.000231923 -0.0015873 0)
(0.00057947 -0.00227387 0)
(0.0009976 -0.0027125 0)
(0.00143386 -0.00292886 0)
(0.00185095 -0.00295 0)
(0.00221634 -0.00280331 0)
(0.00250241 -0.00251547 0)
(0.00268613 -0.00211166 0)
(0.00274845 -0.00161496 0)
(0.00267364 -0.00104589 0)
(0.00244889 -0.000422193 0)
(0.0020638 0.000241329 0)
(0.00150993 0.000932806 0)
(0.000780428 0.00164323 0)
(-0.000130431 0.00236629 0)
(-0.0012276 0.00309813 0)
(-0.00251559 0.00383704 0)
(-0.00399872 0.00458312 0)
(-0.00568136 0.00533781 0)
(-0.00756799 0.00610356 0)
(-0.00966329 0.00688334 0)
(-0.0119721 0.00768022 0)
(-0.0144992 0.00849703 0)
(-0.0172493 0.009336 0)
(-0.0202268 0.0101985 0)
(-0.0234353 0.0110849 0)
(-0.0268774 0.0119942 0)
(-0.0305548 0.0129243 0)
(-0.0344673 0.0138717 0)
(-0.0386132 0.0148317 0)
(-0.0429884 0.0157983 0)
(-0.0475868 0.0167645 0)
(-0.0523998 0.0177221 0)
(-0.0574163 0.0186623 0)
(-0.0626224 0.0195753 0)
(-0.0680017 0.0204509 0)
(-0.0735351 0.0212783 0)
(-0.0792012 0.0220467 0)
(-0.084976 0.0227448 0)
(-0.0908336 0.0233619 0)
(-0.0967461 0.0238872 0)
(-0.102684 0.0243105 0)
(-0.108617 0.0246221 0)
(-0.114513 0.0248132 0)
(-0.12034 0.024876 0)
(-0.126067 0.0248036 0)
(-0.13166 0.0245903 0)
(-0.137089 0.0242318 0)
(-0.142324 0.0237248 0)
(-0.147333 0.0230675 0)
(-0.152091 0.0222595 0)
(-0.156569 0.0213016 0)
(-0.160744 0.0201959 0)
(-0.164593 0.0189458 0)
(-0.168093 0.0175559 0)
(-0.171227 0.0160318 0)
(-0.173977 0.0143804 0)
(-0.176329 0.0126094 0)
(-0.178268 0.0107275 0)
(-0.179784 0.00874435 0)
(-0.180867 0.00667027 0)
(-0.181511 0.00451643 0)
(-0.181708 0.00229471 0)
(-0.181455 1.76932e-05 0)
(-0.180751 -0.0023012 0)
(-0.179593 -0.00464856 0)
(-0.177985 -0.00700989 0)
(-0.175928 -0.00937027 0)
(-0.173428 -0.0117144 0)
(-0.17049 -0.0140264 0)
(-0.167125 -0.0162903 0)
(-0.163341 -0.0184897 0)
(-0.159152 -0.020608 0)
(-0.154573 -0.0226287 0)
(-0.149619 -0.0245352 0)
(-0.14431 -0.0263114 0)
(-0.138668 -0.0279415 0)
(-0.132716 -0.0294102 0)
(-0.12648 -0.0307033 0)
(-0.119988 -0.0318076 0)
(-0.113272 -0.0327111 0)
(-0.106364 -0.0334036 0)
(-0.0992984 -0.0338767 0)
(-0.0921129 -0.0341239 0)
(-0.0848457 -0.0341412 0)
(-0.0775366 -0.033927 0)
(-0.0702264 -0.0334823 0)
(-0.0629568 -0.0328112 0)
(-0.0557694 -0.0319202 0)
(-0.048706 -0.0308191 0)
(-0.0418073 -0.02952 0)
(-0.0351132 -0.0280382 0)
(-0.0286616 -0.0263912 0)
(-0.0224884 -0.0245987 0)
(-0.0166269 -0.0226825 0)
(-0.0111071 -0.0206658 0)
(-0.00595569 -0.0185729 0)
(-0.0011954 -0.0164291 0)
(0.00315516 -0.0142594 0)
(0.00708179 -0.0120889 0)
(0.0105748 -0.00994174 0)
(0.0136291 -0.00784087 0)
(0.0162443 -0.00580758 0)
(0.0184244 -0.00386112 0)
(0.0201779 -0.00201836 0)
(0.0215173 -0.000293569 0)
(0.0224588 0.00130172 0)
(0.0230224 0.00275886 0)
(0.0232308 0.00407197 0)
(0.0231092 0.00523782 0)
(0.0226852 0.00625557 0)
(0.0219877 0.00712641 0)
(0.0210471 0.00785303 0)
(0.0198943 0.00843906 0)
(0.0185609 0.00888836 0)
(0.0170786 0.00920428 0)
(0.0154793 0.00938886 0)
(0.0137949 0.00944206 0)
(0.0120577 0.00936115 0)
(0.0103003 0.00914019 0)
(0.00855586 0.00876993 0)
(0.00685902 0.00823803 0)
(0.0052462 0.00753 0)
(0.00375694 0.00663069 0)
(0.00243396 0.00552671 0)
(0.00132276 0.00420944 0)
(0.00049315 0.00267859 0)
(8.01591e-05 0.000947944 0)
(3.97067e-05 -0.000748046 0)
(0.00021545 -0.00186302 0)
(0.000530503 -0.00263958 0)
(0.000898944 -0.00311474 0)
(0.00126786 -0.00332358 0)
(0.00159935 -0.00330072 0)
(0.00186075 -0.00307967 0)
(0.0020245 -0.00269215 0)
(0.00206773 -0.00216759 0)
(0.00197145 -0.00153266 0)
(0.00171987 -0.000810967 0)
(0.00129992 -2.28043e-05 0)
(0.000700754 0.000814895 0)
(-8.66862e-05 0.00168858 0)
(-0.00107007 0.00258795 0)
(-0.00225605 0.00350581 0)
(-0.00365059 0.00443771 0)
(-0.00525927 0.00538164 0)
(-0.00708747 0.00633761 0)
(-0.00914051 0.00730712 0)
(-0.0114237 0.0082927 0)
(-0.0139425 0.00929738 0)
(-0.0167021 0.0103242 0)
(-0.0197074 0.0113758 0)
(-0.0229629 0.012454 0)
(-0.0264723 0.0135593 0)
(-0.0302382 0.0146912 0)
(-0.0342617 0.0158475 0)
(-0.0385423 0.0170242 0)
(-0.0430776 0.0182161 0)
(-0.0478625 0.0194163 0)
(-0.0528899 0.0206164 0)
(-0.0581497 0.0218067 0)
(-0.063629 0.0229766 0)
(-0.0693123 0.0241143 0)
(-0.0751812 0.0252075 0)
(-0.0812142 0.026243 0)
(-0.0873878 0.0272077 0)
(-0.0936756 0.0280883 0)
(-0.100049 0.0288714 0)
(-0.106479 0.0295443 0)
(-0.112932 0.0300948 0)
(-0.119378 0.0305114 0)
(-0.125781 0.0307839 0)
(-0.132109 0.0309029 0)
(-0.138329 0.0308605 0)
(-0.144407 0.0306504 0)
(-0.150312 0.0302676 0)
(-0.156013 0.0297086 0)
(-0.161481 0.0289716 0)
(-0.166687 0.0280563 0)
(-0.171607 0.026964 0)
(-0.176216 0.0256972 0)
(-0.180492 0.0242602 0)
(-0.184416 0.0226582 0)
(-0.187969 0.0208978 0)
(-0.191136 0.0189867 0)
(-0.193902 0.0169336 0)
(-0.196254 0.0147482 0)
(-0.198183 0.012441 0)
(-0.199679 0.0100234 0)
(-0.200735 0.0075074 0)
(-0.201344 0.0049059 0)
(-0.201502 0.00223234 0)
(-0.201207 -0.000499128 0)
(-0.200455 -0.00327371 0)
(-0.199247 -0.00607618 0)
(-0.197583 -0.00889056 0)
(-0.195466 -0.0117004 0)
(-0.192899 -0.0144886 0)
(-0.189888 -0.0172378 0)
(-0.18644 -0.0199301 0)
(-0.182563 -0.0225471 0)
(-0.178267 -0.0250704 0)
(-0.173566 -0.0274813 0)
(-0.168474 -0.0297612 0)
(-0.163007 -0.0318915 0)