# Probe 0 (3.5 0.5 0.05)
#       Probe             0
#        Time
        0.005             (1.00912 -3.85547e-17 0)
         0.01             (1.01625 4.75157e-16 0)
        0.015             (1.02181 3.09445e-16 0)
         0.02             (1.02641 2.73869e-16 0)
        0.025             (1.03038 1.45523e-16 0)
         0.03             (1.03392 2.168e-16 0)
        0.035             (1.03714 1.07672e-16 0)
         0.04             (1.04011 1.06866e-16 0)
        0.045             (1.0429 6.38217e-17 0)
         0.05             (1.04552 1.13869e-16 0)
        0.055             (1.04802 9.78922e-17 0)
         0.06             (1.0504 1.09965e-16 0)
        0.065             (1.05269 7.51402e-17 0)
         0.07             (1.05489 1.14751e-16 0)
        0.075             (1.05702 7.67374e-17 0)
         0.08             (1.05908 1.13309e-16 0)
        0.085             (1.06108 7.67763e-18 0)
         0.09             (1.06302 6.98882e-17 0)
        0.095             (1.06492 3.8157e-17 0)
          0.1             (1.06677 1.29017e-16 0)
        0.105             (1.06857 3.36219e-17 0)
         0.11             (1.07034 1.15074e-16 0)
        0.115             (1.07206 1.28779e-16 0)
         0.12             (1.07376 5.15011e-17 0)
        0.125             (1.07542 2.15866e-18 0)
         0.13             (1.07705 8.82459e-17 0)
        0.135             (1.07866 -2.78186e-17 0)
         0.14             (1.08023 5.18002e-17 0)
        0.145             (1.08179 1.83548e-17 0)
         0.15             (1.08331 6.55191e-17 0)
        0.155             (1.08482 6.36948e-18 0)
         0.16             (1.0863 -4.95775e-17 0)
        0.165             (1.08777 -1.60238e-16 0)
         0.17             (1.08921 -3.09891e-17 0)
        0.175             (1.09064 2.541e-17 0)
         0.18             (1.09204 -3.62978e-17 0)
        0.185             (1.09343 -1.42459e-16 0)
         0.19             (1.09481 -3.39219e-17 0)
        0.195             (1.09616 -1.51394e-16 0)
          0.2             (1.09751 -1.38891e-16 0)
        0.205             (1.09884 -1.21831e-16 0)
         0.21             (1.10015 -1.18749e-16 0)
        0.215             (1.10145 -1.80278e-16 0)
         0.22             (1.10274 -1.3314e-16 0)
        0.225             (1.10402 -2.1274e-16 0)
         0.23             (1.10528 -2.41054e-16 0)
        0.235             (1.10653 -2.77989e-16 0)
         0.24             (1.10777 -2.54357e-16 0)
        0.245             (1.109 -3.21682e-16 0)
         0.25             (1.11022 -2.30408e-16 0)
        0.255             (1.11143 -2.64028e-16 0)
         0.26             (1.11263 -9.04096e-17 0)
        0.265             (1.11382 -2.76208e-16 0)
         0.27             (1.115 -1.71212e-16 0)
        0.275             (1.11617 -2.94132e-16 0)
         0.28             (1.11733 -3.67286e-16 0)
        0.285             (1.11848 -3.67782e-16 0)
         0.29             (1.11963 -2.7987e-16 0)
        0.295             (1.12077 -3.11217e-16 0)
          0.3             (1.1219 -1.69496e-16 0)
        0.305             (1.12302 -2.45012e-16 0)
         0.31             (1.12413 -4.1722e-16 0)
        0.315             (1.12524 -3.26447e-16 0)
         0.32             (1.12633 -3.91318e-16 0)
        0.325             (1.12743 -2.68996e-16 0)
         0.33             (1.12851 -1.78561e-16 0)
        0.335             (1.12959 -8.6187e-17 0)
         0.34             (1.13066 -6.20072e-17 0)
        0.345             (1.13173 -1.20734e-17 0)
         0.35             (1.13279 -1.119e-16 0)
        0.355             (1.13384 -1.23433e-16 0)
         0.36             (1.13489 3.56112e-17 0)
        0.365             (1.13593 9.23974e-17 0)
         0.37             (1.13696 2.7284e-17 0)
        0.375             (1.13799 9.07898e-17 0)
         0.38             (1.13902 9.04127e-17 0)
        0.385             (1.14004 1.89392e-16 0)
         0.39             (1.14105 2.04571e-16 0)
        0.395             (1.14206 1.23907e-16 0)
          0.4             (1.14306 1.72201e-16 0)
        0.405             (1.14406 8.69535e-17 0)
         0.41             (1.14506 4.88465e-17 0)
        0.415             (1.14604 1.1402e-16 0)
         0.42             (1.14703 2.30135e-17 0)
        0.425             (1.14801 7.94655e-17 0)
         0.43             (1.14898 -2.45949e-17 0)
        0.435             (1.14995 9.24984e-17 0)
         0.44             (1.15092 5.94957e-17 0)
        0.445             (1.15188 1.56824e-17 0)
         0.45             (1.15284 -6.73884e-17 0)
        0.455             (1.15379 -4.74737e-18 0)
         0.46             (1.15474 -1.5622e-16 0)
        0.465             (1.15569 -5.43196e-17 0)
         0.47             (1.15663 -9.27309e-17 0)
        0.475             (1.15757 1.29853e-16 0)
         0.48             (1.1585 1.72025e-17 0)
        0.485             (1.15943 -4.32147e-17 0)
         0.49             (1.16036 -3.21221e-16 0)
        0.495             (1.16128 -8.68144e-17 0)
          0.5             (1.1622 -6.00677e-17 0)
        0.505             (1.16312 -8.34486e-17 0)
         0.51             (1.16403 2.74677e-17 0)
        0.515             (1.16494 4.82343e-17 0)
         0.52             (1.16585 1.46809e-16 0)
        0.525             (1.16675 -4.12796e-17 0)
         0.53             (1.16765 -4.88438e-17 0)
        0.535             (1.16854 -1.41845e-17 0)
         0.54             (1.16944 6.61166e-17 0)
        0.545             (1.17033 -3.05526e-17 0)
         0.55             (1.17121 3.00714e-17 0)
        0.555             (1.1721 -6.18136e-18 0)
         0.56             (1.17298 5.88757e-17 0)
        0.565             (1.17385 2.38107e-17 0)
         0.57             (1.17473 -3.14329e-18 0)
        0.575             (1.1756 -1.09613e-17 0)
         0.58             (1.17647 -5.37722e-17 0)
        0.585             (1.17734 -3.907e-17 0)
         0.59             (1.1782 -8.87152e-17 0)
        0.595             (1.17906 -7.91003e-18 0)
          0.6             (1.17992 -9.85482e-18 0)
        0.605             (1.18077 -2.24658e-17 0)
         0.61             (1.18163 3.46011e-17 0)
        0.615             (1.18248 4.58692e-17 0)
         0.62             (1.18333 1.15097e-16 0)
        0.625             (1.18417 5.5418e-17 0)
         0.63             (1.18501 3.14781e-17 0)
        0.635             (1.18585 -2.8944e-17 0)
         0.64             (1.18669 -2.89813e-17 0)
        0.645             (1.18753 -1.103e-16 0)
         0.65             (1.18836 -6.9171e-17 0)
        0.655             (1.18919 -2.4297e-16 0)
         0.66             (1.19002 -1.27182e-16 0)
        0.665             (1.19084 -2.13411e-16 0)
         0.67             (1.19167 -1.03852e-16 0)
        0.675             (1.19249 -3.01696e-16 0)
         0.68             (1.19331 -2.60052e-16 0)
        0.685             (1.19413 -2.44828e-16 0)
         0.69             (1.19494 -1.52613e-16 0)
        0.695             (1.19575 -2.52955e-16 0)
          0.7             (1.19656 -4.51113e-16 0)
        0.705             (1.19737 -3.55264e-16 0)
         0.71             (1.19818 -4.27604e-16 0)
        0.715             (1.19898 -3.32159e-16 0)
         0.72             (1.19979 -3.45833e-16 0)
        0.725             (1.20059 -3.89538e-16 0)
         0.73             (1.20138 -3.7484e-16 0)
        0.735             (1.20218 -3.53745e-16 0)
         0.74             (1.20298 -1.63912e-16 0)
        0.745             (1.20377 -1.8431e-16 0)
         0.75             (1.20456 -1.85802e-16 0)
        0.755             (1.20535 -3.50765e-16 0)
         0.76             (1.20613 -2.50947e-16 0)
        0.765             (1.20692 -3.50654e-16 0)
         0.77             (1.2077 -2.18229e-16 0)
        0.775             (1.20848 -2.12282e-16 0)
         0.78             (1.20926 -2.24113e-16 0)
        0.785             (1.21004 -2.11863e-16 0)
         0.79             (1.21081 -2.91533e-16 0)
        0.795             (1.21159 -2.83912e-16 0)
          0.8             (1.21236 -2.97296e-16 0)
        0.805             (1.21313 -2.51725e-16 0)
         0.81             (1.2139 -3.28388e-16 0)
        0.815             (1.21466 -2.38114e-16 0)
         0.82             (1.21543 -1.86276e-16 0)
        0.825             (1.21619 -2.19855e-16 0)
         0.83             (1.21695 -2.47784e-16 0)
        0.835             (1.21771 -1.58833e-16 0)
         0.84             (1.21847 -2.3262e-16 0)
        0.845             (1.21923 -6.55595e-17 0)
         0.85             (1.21998 -2.03357e-16 0)
        0.855             (1.22074 -1.36188e-16 0)
         0.86             (1.22149 -2.53834e-16 0)
        0.865             (1.22224 -1.35742e-16 0)
         0.87             (1.22299 -1.03864e-16 0)
        0.875             (1.22373 -1.91409e-16 0)
         0.88             (1.22448 -1.66957e-16 0)
        0.885             (1.22522 -2.14648e-16 0)
         0.89             (1.22596 -1.99545e-16 0)
        0.895             (1.2267 -1.51461e-16 0)
          0.9             (1.22744 -1.74877e-16 0)
        0.905             (1.22818 -1.48465e-16 0)
         0.91             (1.22892 -2.42596e-16 0)
        0.915             (1.22965 -2.03276e-16 0)
         0.92             (1.23038 -2.39566e-16 0)
        0.925             (1.23111 -8.4187e-17 0)
         0.93             (1.23184 -1.48751e-16 0)
        0.935             (1.23257 -1.17643e-16 0)
         0.94             (1.2333 -1.58998e-17 0)
        0.945             (1.23402 3.89467e-17 0)
         0.95             (1.23475 -5.2331e-17 0)
        0.955             (1.23547 2.67929e-17 0)
         0.96             (1.23619 2.77325e-17 0)
        0.965             (1.23691 1.38121e-17 0)
         0.97             (1.23763 -2.8338e-18 0)
        0.975             (1.23834 4.03613e-17 0)
         0.98             (1.23906 -4.13968e-18 0)
        0.985             (1.23977 1.16403e-17 0)
         0.99             (1.24048 -3.07647e-17 0)
        0.995             (1.24119 -8.66063e-17 0)
            1             (1.2419 -1.56152e-16 0)
        1.005             (1.24261 -1.03388e-16 0)
         1.01             (1.24332 -6.5931e-17 0)
        1.015             (1.24402 -1.02533e-16 0)
         1.02             (1.24472 -2.11066e-16 0)
        1.025             (1.24542 -1.50172e-16 0)
         1.03             (1.24613 -2.31024e-16 0)
        1.035             (1.24682 -2.54741e-16 0)
         1.04             (1.24752 -2.91266e-16 0)
        1.045             (1.24822 -3.37963e-16 0)
         1.05             (1.24891 -5.21602e-16 0)
        1.055             (1.24961 -5.28501e-16 0)
         1.06             (1.2503 -4.77705e-16 0)
        1.065             (1.25099 -4.94617e-16 0)
         1.07             (1.25168 -5.49503e-16 0)
        1.075             (1.25237 -6.24065e-16 0)
         1.08             (1.25305 -7.51712e-16 0)
        1.085             (1.25374 -6.90174e-16 0)
         1.09             (1.25442 -6.66412e-16 0)
        1.095             (1.2551 -5.23119e-16 0)
          1.1             (1.25578 -5.44804e-16 0)
        1.105             (1.25646 -6.33381e-16 0)
         1.11             (1.25714 -4.98353e-16 0)
        1.115             (1.25782 -5.99199e-16 0)
         1.12             (1.25849 -5.28604e-16 0)
        1.125             (1.25917 -4.99302e-16 0)
         1.13             (1.25984 -3.9573e-16 0)
        1.135             (1.26051 -4.28509e-16 0)
         1.14             (1.26118 -4.10045e-16 0)
        1.145             (1.26185 -4.1221e-16 0)
         1.15             (1.26252 -5.52319e-16 0)
        1.155             (1.26319 -5.41847e-16 0)
         1.16             (1.26385 -3.5362e-16 0)
        1.165             (1.26451 -3.05995e-16 0)
         1.17             (1.26518 -3.486e-16 0)
        1.175             (1.26584 -4.50391e-16 0)
         1.18             (1.2665 -3.8992e-16 0)
        1.185             (1.26715 -4.16243e-16 0)
         1.19             (1.26781 -4.66478e-16 0)
        1.195             (1.26847 -4.60953e-16 0)
          1.2             (1.26912 -4.4225e-16 0)
        1.205             (1.26977 -4.561e-16 0)
         1.21             (1.27042 -3.91786e-16 0)
        1.215             (1.27107 -3.22604e-16 0)
         1.22             (1.27172 -4.42946e-16 0)
        1.225             (1.27237 -5.44757e-16 0)
         1.23             (1.27301 -6.6581e-16 0)
        1.235             (1.27366 -5.74499e-16 0)
         1.24             (1.2743 -6.19525e-16 0)
        1.245             (1.27494 -4.90097e-16 0)
         1.25             (1.27559 -4.81975e-16 0)
        1.255             (1.27622 -4.59421e-16 0)
         1.26             (1.27686 -5.34556e-16 0)
        1.265             (1.2775 -6.09733e-16 0)
         1.27             (1.27813 -6.02806e-16 0)
        1.275             (1.27877 -5.58129e-16 0)
         1.28             (1.2794 -4.95308e-16 0)
        1.285             (1.28003 -4.1641e-16 0)
         1.29             (1.28066 -6.3388e-16 0)
        1.295             (1.28129 -5.76446e-16 0)
          1.3             (1.28192 -6.02105e-16 0)
        1.305             (1.28254 -5.77199e-16 0)
         1.31             (1.28317 -5.42991e-16 0)
        1.315             (1.28379 -4.55897e-16 0)
         1.32             (1.28441 -4.23677e-16 0)
        1.325             (1.28503 -3.01539e-16 0)
         1.33             (1.28565 -3.63365e-16 0)
        1.335             (1.28627 -2.93142e-16 0)
         1.34             (1.28689 -3.64289e-16 0)
        1.345             (1.2875 -3.86621e-16 0)
         1.35             (1.28812 -3.01232e-16 0)
        1.355             (1.28873 -4.14269e-16 0)
         1.36             (1.28934 -3.88861e-16 0)
        1.365             (1.28995 -5.60712e-16 0)
         1.37             (1.29056 -5.4054e-16 0)
        1.375             (1.29117 -4.40752e-16 0)
         1.38             (1.29177 -4.98249e-16 0)
        1.385             (1.29238 -3.2099e-16 0)
         1.39             (1.29298 -2.72033e-16 0)
        1.395             (1.29359 -2.37908e-16 0)
          1.4             (1.29419 -2.40337e-16 0)
        1.405             (1.29479 -1.64254e-16 0)
         1.41             (1.29538 -1.83865e-16 0)
        1.415             (1.29598 -1.30221e-16 0)
         1.42             (1.29658 -5.97533e-17 0)
        1.425             (1.29717 -1.78659e-16 0)
         1.43             (1.29776 -4.15621e-17 0)
        1.435             (1.29835 3.46162e-17 0)
         1.44             (1.29894 3.38674e-17 0)
        1.445             (1.29953 -2.58978e-17 0)
         1.45             (1.30012 6.27715e-17 0)
        1.455             (1.30071 1.23653e-16 0)
         1.46             (1.30129 -2.6702e-17 0)
        1.465             (1.30188 1.24943e-18 0)
         1.47             (1.30246 3.3871e-17 0)
        1.475             (1.30304 1.41408e-16 0)
         1.48             (1.30362 1.76134e-16 0)
        1.485             (1.3042 2.28774e-16 0)
         1.49             (1.30477 2.6395e-16 0)
        1.495             (1.30535 1.78201e-16 0)
          1.5             (1.30592 1.12972e-16 0)
        1.505             (1.3065 1.88592e-16 0)
         1.51             (1.30707 1.05673e-16 0)
        1.515             (1.30764 1.17846e-16 0)
         1.52             (1.30821 6.91642e-17 0)
        1.525             (1.30878 7.8921e-17 0)
         1.53             (1.30934 1.045e-16 0)
        1.535             (1.30991 1.52554e-16 0)
         1.54             (1.31047 2.33454e-16 0)
        1.545             (1.31104 2.1863e-16 0)
         1.55             (1.3116 1.81829e-16 0)
        1.555             (1.31216 8.45504e-17 0)
         1.56             (1.31271 3.82988e-17 0)
        1.565             (1.31327 9.81048e-17 0)
         1.57             (1.31383 7.58103e-17 0)
        1.575             (1.31438 -1.06036e-16 0)
         1.58             (1.31494 -1.05994e-16 0)
        1.585             (1.31549 3.66673e-18 0)
         1.59             (1.31604 -9.80785e-17 0)
        1.595             (1.31659 3.57214e-17 0)
          1.6             (1.31714 -1.16562e-16 0)
        1.605             (1.31768 -4.81071e-17 0)
         1.61             (1.31823 -8.32864e-17 0)
        1.615             (1.31877 -1.70999e-16 0)
         1.62             (1.31932 -1.26296e-16 0)
        1.625             (1.31986 -1.00615e-16 0)
         1.63             (1.3204 -1.66796e-16 0)
        1.635             (1.32094 -2.60911e-16 0)
         1.64             (1.32147 -2.22038e-16 0)
        1.645             (1.32201 -2.76252e-16 0)
         1.65             (1.32255 -2.16946e-16 0)
        1.655             (1.32308 -2.12559e-16 0)
         1.66             (1.32361 -2.59038e-16 0)
        1.665             (1.32414 -2.11099e-16 0)
         1.67             (1.32467 -3.5364e-16 0)
        1.675             (1.3252 -3.62336e-16 0)
         1.68             (1.32573 -4.16697e-16 0)
        1.685             (1.32625 -5.12249e-16 0)
         1.69             (1.32678 -4.89328e-16 0)
        1.695             (1.3273 -5.2821e-16 0)
          1.7             (1.32782 -5.96431e-16 0)
        1.705             (1.32834 -6.09606e-16 0)
         1.71             (1.32886 -4.74393e-16 0)
        1.715             (1.32938 -5.26699e-16 0)
         1.72             (1.3299 -3.40616e-16 0)
        1.725             (1.33041 -3.71596e-16 0)
         1.73             (1.33093 -2.67251e-16 0)
        1.735             (1.33144 -3.71704e-16 0)
         1.74             (1.33195 -3.08835e-16 0)
        1.745             (1.33246 -2.10411e-16 0)
         1.75             (1.33297 -2.35655e-16 0)
        1.755             (1.33348 -1.79658e-16 0)
         1.76             (1.33399 -9.36911e-17 0)
        1.765             (1.33449 -2.3072e-16 0)
         1.77             (1.335 -2.57674e-17 0)
        1.775             (1.3355 -2.51745e-17 0)
         1.78             (1.336 -8.24194e-18 0)
        1.785             (1.3365 1.35625e-17 0)
         1.79             (1.337 -1.01311e-17 0)
        1.795             (1.3375 3.51642e-17 0)
          1.8             (1.33799 4.30191e-17 0)
        1.805             (1.33849 2.34438e-17 0)
         1.81             (1.33898 -7.36375e-17 0)
        1.815             (1.33947 2.24631e-17 0)
         1.82             (1.33996 2.53136e-17 0)
        1.825             (1.34045 1.84686e-16 0)
         1.83             (1.34094 9.45796e-17 0)
        1.835             (1.34143 8.93497e-17 0)
         1.84             (1.34192 9.94743e-17 0)
        1.845             (1.3424 1.25147e-16 0)
         1.85             (1.34289 1.25472e-17 0)
        1.855             (1.34337 -5.98454e-17 0)
         1.86             (1.34385 -1.07613e-16 0)
        1.865             (1.34433 -5.65246e-17 0)
         1.87             (1.34481 -2.63966e-16 0)
        1.875             (1.34528 -2.03339e-16 0)
         1.88             (1.34576 -1.8435e-16 0)
        1.885             (1.34623 -2.15421e-16 0)
         1.89             (1.34671 -1.6415e-16 0)
        1.895             (1.34718 -3.19587e-16 0)
          1.9             (1.34765 -2.68202e-16 0)
        1.905             (1.34812 -2.26921e-16 0)
         1.91             (1.34859 -1.53064e-16 0)
        1.915             (1.34906 -1.45119e-16 0)
         1.92             (1.34952 -1.82646e-16 0)
        1.925             (1.34999 -1.39088e-16 0)
         1.93             (1.35045 -2.3103e-16 0)
        1.935             (1.35091 -2.53058e-16 0)
         1.94             (1.35137 -2.55563e-16 0)
        1.945             (1.35183 -2.97098e-16 0)
         1.95             (1.35229 -2.68997e-16 0)
        1.955             (1.35275 -8.65906e-17 0)
         1.96             (1.35321 -2.63074e-16 0)
        1.965             (1.35366 -1.23423e-16 0)
         1.97             (1.35411 -1.4871e-16 0)
        1.975             (1.35457 -2.52336e-16 0)
         1.98             (1.35502 -1.7331e-16 0)
        1.985             (1.35547 -2.90801e-16 0)
         1.99             (1.35592 -2.15201e-16 0)
        1.995             (1.35636 -3.06789e-16 0)
            2             (1.35681 -3.16881e-16 0)
        2.005             (1.35725 -3.22478e-16 0)
         2.01             (1.3577 -2.65944e-16 0)
        2.015             (1.35814 -1.76961e-16 0)
         2.02             (1.35858 -2.72416e-16 0)
        2.025             (1.35902 -2.41063e-16 0)
         2.03             (1.35946 -3.94216e-16 0)
        2.035             (1.3599 -2.52044e-16 0)
         2.04             (1.36034 -1.28156e-16 0)
        2.045             (1.36077 -6.15653e-17 0)
         2.05             (1.3612 -1.93411e-16 0)
        2.055             (1.36164 -9.53506e-17 0)
         2.06             (1.36207 -2.41008e-16 0)
        2.065             (1.3625 -1.032e-16 0)
         2.07             (1.36293 -2.00072e-16 0)
        2.075             (1.36336 -1.52377e-16 0)
         2.08             (1.36378 -2.43234e-16 0)
        2.085             (1.36421 -1.89997e-16 0)
         2.09             (1.36463 -3.33339e-16 0)
        2.095             (1.36506 -1.94967e-16 0)
          2.1             (1.36548 -2.77336e-16 0)
        2.105             (1.3659 -3.37051e-16 0)
         2.11             (1.36632 -3.6119e-16 0)
        2.115             (1.36674 -3.06094e-16 0)
         2.12             (1.36716 -2.52618e-16 0)
        2.125             (1.36757 -2.11979e-16 0)
         2.13             (1.36799 -2.09627e-16 0)
        2.135             (1.3684 -3.00641e-16 0)
         2.14             (1.36882 -2.59086e-16 0)
        2.145             (1.36923 -2.20828e-16 0)
         2.15             (1.36964 -2.05611e-16 0)
        2.155             (1.37005 -3.07893e-16 0)
         2.16             (1.37046 -1.52014e-16 0)
        2.165             (1.37086 -3.05028e-16 0)
         2.17             (1.37127 -1.95005e-16 0)
        2.175             (1.37167 -2.85881e-16 0)
         2.18             (1.37208 -3.72545e-16 0)
        2.185             (1.37248 -3.08138e-16 0)
         2.19             (1.37288 -2.1957e-16 0)
        2.195             (1.37328 -3.03128e-16 0)
          2.2             (1.37368 -3.73219e-16 0)
        2.205             (1.37408 -1.96311e-16 0)
         2.21             (1.37447 -3.99578e-16 0)
        2.215             (1.37487 -2.42916e-16 0)
         2.22             (1.37526 -3.68572e-16 0)
        2.225             (1.37566 -3.61811e-16 0)
         2.23             (1.37605 -4.36386e-16 0)
        2.235             (1.37644 -4.04307e-16 0)
         2.24             (1.37683 -4.42971e-16 0)
        2.245             (1.37722 -5.50721e-16 0)
         2.25             (1.37761 -6.10179e-16 0)
        2.255             (1.37799 -4.74554e-16 0)
         2.26             (1.37838 -4.87106e-16 0)
        2.265             (1.37876 -5.04879e-16 0)
         2.27             (1.37915 -5.07008e-16 0)
        2.275             (1.37953 -3.48144e-16 0)
         2.28             (1.37991 -3.65038e-16 0)
        2.285             (1.38029 -4.73164e-16 0)
         2.29             (1.38067 -4.7491e-16 0)
        2.295             (1.38105 -4.36355e-16 0)
          2.3             (1.38142 -3.46318e-16 0)
        2.305             (1.3818 -3.80818e-16 0)
         2.31             (1.38217 -4.77468e-16 0)
        2.315             (1.38255 -4.31869e-16 0)
         2.32             (1.38292 -4.61171e-16 0)
        2.325             (1.38329 -4.07279e-16 0)
         2.33             (1.38366 -4.87404e-16 0)
        2.335             (1.38403 -4.17657e-16 0)
         2.34             (1.3844 -4.7194e-16 0)
        2.345             (1.38476 -4.57286e-16 0)
         2.35             (1.38513 -4.94796e-16 0)
        2.355             (1.38549 -5.5742e-16 0)
         2.36             (1.38586 -5.89334e-16 0)
        2.365             (1.38622 -5.71923e-16 0)
         2.37             (1.38658 -7.64249e-16 0)
        2.375             (1.38694 -6.33246e-16 0)
         2.38             (1.3873 -6.18543e-16 0)
        2.385             (1.38766 -8.14143e-16 0)
         2.39             (1.38802 -5.51542e-16 0)
        2.395             (1.38837 -6.3851e-16 0)
          2.4             (1.38873 -5.59312e-16 0)
        2.405             (1.38908 -6.14921e-16 0)
         2.41             (1.38943 -4.99267e-16 0)
        2.415             (1.38979 -6.59477e-16 0)
         2.42             (1.39014 -5.30033e-16 0)
        2.425             (1.39049 -6.01781e-16 0)
         2.43             (1.39084 -5.54537e-16 0)
        2.435             (1.39118 -4.66082e-16 0)
         2.44             (1.39153 -4.07256e-16 0)
        2.445             (1.39188 -4.34604e-16 0)
         2.45             (1.39222 -5.10236e-16 0)
        2.455             (1.39256 -4.82052e-16 0)
         2.46             (1.39291 -4.56358e-16 0)
        2.465             (1.39325 -4.33054e-16 0)
         2.47             (1.39359 -4.89493e-16 0)
        2.475             (1.39393 -4.68073e-16 0)
         2.48             (1.39427 -5.27445e-16 0)
        2.485             (1.3946 -5.82001e-16 0)
         2.49             (1.39494 -6.32394e-16 0)
        2.495             (1.39528 -5.41222e-16 0)
          2.5             (1.39561 -5.05597e-16 0)
        2.505             (1.39594 -6.68288e-16 0)
         2.51             (1.39628 -5.98828e-16 0)
        2.515             (1.39661 -5.22972e-16 0)
         2.52             (1.39694 -3.52763e-16 0)
        2.525             (1.39727 -5.04005e-16 0)
         2.53             (1.3976 -5.57545e-16 0)
        2.535             (1.39792 -5.00439e-16 0)
         2.54             (1.39825 -3.71803e-16 0)
        2.545             (1.39858 -5.30941e-16 0)
         2.55             (1.3989 -5.46739e-16 0)
        2.555             (1.39922 -4.93686e-16 0)
         2.56             (1.39955 -4.69602e-16 0)
        2.565             (1.39987 -4.52042e-16 0)
         2.57             (1.40019 -4.80009e-16 0)
        2.575             (1.40051 -4.40571e-16 0)
         2.58             (1.40083 -3.37087e-16 0)
        2.585             (1.40115 -4.64508e-16 0)
         2.59             (1.40146 -4.55276e-16 0)
        2.595             (1.40178 -5.41334e-16 0)
          2.6             (1.40209 -4.67764e-16 0)
        2.605             (1.40241 -5.39423e-16 0)
         2.61             (1.40272 -3.66592e-16 0)
        2.615             (1.40303 -4.83474e-16 0)
         2.62             (1.40334 -4.78095e-16 0)
        2.625             (1.40365 -4.85854e-16 0)
         2.63             (1.40396 -3.81151e-16 0)
        2.635             (1.40427 -4.83299e-16 0)
         2.64             (1.40458 -4.04621e-16 0)
        2.645             (1.40488 -4.36155e-16 0)
         2.65             (1.40519 -3.76275e-16 0)
        2.655             (1.40549 -3.98194e-16 0)
         2.66             (1.4058 -4.49509e-16 0)
        2.665             (1.4061 -4.33168e-16 0)
         2.67             (1.4064 -3.65245e-16 0)
        2.675             (1.4067 -4.04215e-16 0)
         2.68             (1.407 -3.07214e-16 0)
        2.685             (1.4073 -3.58172e-16 0)
         2.69             (1.4076 -3.39457e-16 0)
        2.695             (1.4079 -3.67506e-16 0)
          2.7             (1.40819 -3.58027e-16 0)
        2.705             (1.40849 -3.74653e-16 0)
         2.71             (1.40878 -3.1304e-16 0)
        2.715             (1.40908 -3.28407e-16 0)
         2.72             (1.40937 -2.50859e-16 0)
        2.725             (1.40966 -2.68704e-16 0)
         2.73             (1.40995 -5.25053e-17 0)
        2.735             (1.41024 -1.33028e-16 0)
         2.74             (1.41053 -8.03232e-17 0)
        2.745             (1.41082 1.87602e-17 0)
         2.75             (1.4111 6.64856e-17 0)
        2.755             (1.41139 9.93455e-17 0)
         2.76             (1.41168 1.5224e-16 0)
        2.765             (1.41196 1.01428e-16 0)
         2.77             (1.41224 7.33104e-17 0)
        2.775             (1.41253 1.64886e-16 0)
         2.78             (1.41281 5.16829e-17 0)
        2.785             (1.41309 2.70344e-17 0)
         2.79             (1.41337 -6.67995e-17 0)
        2.795             (1.41365 -1.09493e-16 0)
          2.8             (1.41393 -4.80932e-17 0)
        2.805             (1.41421 3.63338e-17 0)
         2.81             (1.41448 4.89616e-17 0)
        2.815             (1.41476 -9.539e-17 0)
         2.82             (1.41503 -8.429e-17 0)
        2.825             (1.41531 -1.82921e-16 0)
         2.83             (1.41558 -1.22091e-16 0)
        2.835             (1.41585 1.39155e-17 0)
         2.84             (1.41612 -9.56137e-17 0)
        2.845             (1.4164 -7.23141e-17 0)
         2.85             (1.41667 -2.91986e-16 0)
        2.855             (1.41693 -1.32525e-16 0)
         2.86             (1.4172 -1.7255e-16 0)
        2.865             (1.41747 -2.42111e-16 0)
         2.87             (1.41774 -2.98322e-16 0)
        2.875             (1.418 -2.33155e-16 0)
         2.88             (1.41827 -2.14622e-16 0)
        2.885             (1.41853 -2.2794e-16 0)
         2.89             (1.41879 -1.4044e-16 0)
        2.895             (1.41906 -1.35466e-16 0)
          2.9             (1.41932 1.74765e-17 0)
        2.905             (1.41958 -9.70914e-17 0)
         2.91             (1.41984 -1.00028e-16 0)
        2.915             (1.4201 -2.83832e-16 0)
         2.92             (1.42036 -2.57999e-16 0)
        2.925             (1.42061 -1.58048e-16 0)
         2.93             (1.42087 -1.98755e-16 0)
        2.935             (1.42113 -9.74186e-17 0)
         2.94             (1.42138 -2.15545e-16 0)
        2.945             (1.42164 -3.80157e-17 0)
         2.95             (1.42189 -7.07926e-17 0)
        2.955             (1.42214 9.7861e-18 0)
         2.96             (1.42239 -1.35335e-16 0)