/*--------------------------------*- C++ -*----------------------------------*\
| =========                 |                                                 |
| \\      /  F ield         | OpenFOAM: The Open Source CFD Toolbox           |
|  \\    /   O peration     | Version:  2112                                  |
|   \\  /    A nd           | Website:  www.openfoam.com                      |
|    \\/     M anipulation  |                                                 |
\*---------------------------------------------------------------------------*/
FoamFile
{
    version     2.0;
    format      ascii;
    arch        "LSB;label=32;scalar=64";
    class       volScalarField;
    location    "14";
    object      p;
}
// * * * * * * * * * * * * * * * * * * * * * * * * * * * * * * * * * * * * * //

dimensions      [0 2 -2 0 0 0 0];

internalField   nonuniform List<scalar> 
16641
(
1.92289e-09
1.56486e-06
-3.01856e-07
-5.74013e-06
-1.43876e-05
-2.57821e-05
-3.9413e-05
-5.48089e-05
-7.15771e-05
-8.94122e-05
-0.00010809
-0.000127458
-0.000147422
-0.000167933
-0.000188977
-0.000210566
-0.000232724
-0.000255483
-0.000278875
-0.000302929
-0.000327663
-0.000353082
-0.000379179
-0.00040593
-0.000433295
-0.000461216
-0.000489618
-0.000518411
-0.000547488
-0.000576727
-0.000605988
-0.00063512
-0.000663955
-0.000692314
-0.000720001
-0.000746808
-0.000772513
-0.000796881
-0.000819664
-0.000840602
-0.000859421
-0.000875839
-0.000889563
-0.000900291
-0.000907718
-0.000911535
-0.000911435
-0.000907113
-0.000898278
-0.000884651
-0.000865974
-0.00084202
-0.000812592
-0.000777535
-0.000736746
-0.000690174
-0.000637837
-0.000579822
-0.000516293
-0.000447499
-0.00037378
-0.000295567
-0.000213391
-0.000127876
-3.9742e-05
5.01898e-05
0.000141014
0.000231743
0.000321317
0.000408614
0.000492467
0.000571678
0.000645037
0.000711343
0.000769421
0.000818146
0.000856464
0.000883414
0.000898148
0.000899948
0.000888247
0.00086264
0.000822896
0.000768965
0.000700986
0.000619279
0.000524348
0.00041687
0.000297683
0.000167768
2.82347e-05
-0.000119705
-0.000274756
-0.000435567
-0.000600753
-0.000768924
-0.000938703
-0.00110876
-0.0012778
-0.00144464
-0.00160817
-0.00176737
-0.00192136
-0.00206936
-0.00221071
-0.00234487
-0.00247142
-0.00259003
-0.00270049
-0.00280266
-0.0028965
-0.00298202
-0.00305926
-0.00312834
-0.00318937
-0.00324249
-0.00328782
-0.0033255
-0.00335565
-0.0033784
-0.00339388
-0.00340227
-0.00340387
-0.00339915
-0.00338892
-0.00337453
-0.00335815
-0.00334299
-0.00333375
-1.78467e-06
-2.12891e-07
-2.14319e-06
-7.1991e-06
-1.49555e-05
-2.51102e-05
-3.73136e-05
-5.12178e-05
-6.65147e-05
-8.29529e-05
-0.000100336
-0.000118521
-0.000137411
-0.000156946
-0.000177096
-0.000197851
-0.000219216
-0.000241202
-0.000263822
-0.000287086
-0.000310999
-0.000335553
-0.000360732
-0.000386504
-0.000412824
-0.000439634
-0.000466858
-0.000494408
-0.000522182
-0.000550062
-0.000577918
-0.000605606
-0.000632969
-0.000659838
-0.000686031
-0.000711351
-0.000735592
-0.000758535
-0.000779949
-0.000799591
-0.000817207
-0.000832534
-0.000845299
-0.000855225
-0.000862026
-0.000865418
-0.000865115
-0.000860839
-0.000852317
-0.000839295
-0.000821537
-0.000798832
-0.000771002
-0.000737908
-0.000699458
-0.00065561
-0.000606386
-0.000551873
-0.000492233
-0.000427705
-0.000358613
-0.000285369
-0.000208479
-0.000128544
-4.62257e-05
3.76801e-05
0.000122317
0.000206752
0.000289978
0.000370935
0.000448517
0.000521592
0.000589014
0.000649649
0.000702385
0.000746162
0.000779986
0.00080295
0.000814259
0.00081324
0.000799363
0.000772252
0.0007317
0.00067767
0.000610301
0.00052991
0.000436983
0.000332171
0.000216277
9.02415e-05
-4.48797e-05
-0.000187931
-0.000337682
-0.000492848
-0.000652116
-0.000814168
-0.000977701
-0.00114145
-0.00130421
-0.00146484
-0.0016223
-0.00177564
-0.001924
-0.00206667
-0.002203
-0.0023325
-0.00245475
-0.00256944
-0.00267638
-0.00277542
-0.00286651
-0.00294967
-0.00302493
-0.0030924
-0.0031522
-0.00320446
-0.00324932
-0.00328696
-0.00331751
-0.00334117
-0.00335812
-0.00336864
-0.00337309
-0.00337199
-0.00336612
-0.00335663
-0.00334519
-0.0033338
-0.00332452
-1.72288e-07
1.47758e-06
-4.76259e-07
-5.37194e-06
-1.26944e-05
-2.21861e-05
-3.35713e-05
-4.65632e-05
-6.09091e-05
-7.6397e-05
-9.28581e-05
-0.000110165
-0.000128225
-0.00014698
-0.000166392
-0.000186445
-0.000207132
-0.000228455
-0.000250415
-0.000273013
-0.000296243
-0.000320091
-0.000344532
-0.000369532
-0.000395043
-0.000421002
-0.000447338
-0.000473962
-0.000500776
-0.000527667
-0.000554509
-0.000581168
-0.000607494
-0.000633326
-0.000658493
-0.000682811
-0.000706084
-0.000728107
-0.000748661
-0.000767519
-0.000784442
-0.00079918
-0.000811479
-0.000821074
-0.000827698
-0.000831079
-0.00083095
-0.000827043
-0.000819103
-0.000806885
-0.000790165
-0.00076874
-0.000742441
-0.000711133
-0.000674724
-0.000633174
-0.000586501
-0.000534784
-0.000478177
-0.000416905
-0.000351277
-0.000281686
-0.000208619
-0.00013266
-5.43944e-05
2.5357e-05
0.000105785
0.000185991
0.000265005
0.000341801
0.00041531
0.000484436
0.000548069
0.000605107
0.000654476
0.000695144
0.000726147
0.000746608
0.000755753
0.000752932
0.000737633
0.000709497
0.000668323
0.000614084
0.000546921
0.000467148
0.000375247
0.00027186
0.000157773
3.39087e-05
-9.86989e-05
-0.000238921
-0.000385556
-0.000537352
-0.000693033
-0.000851317
-0.00101094
-0.00117068
-0.00132937
-0.00148591
-0.00163929
-0.00178861
-0.00193305
-0.00207191
-0.00220459
-0.00233061
-0.00244958
-0.00256123
-0.00266534
-0.00276182
-0.0028506
-0.00293171
-0.0030052
-0.00307118
-0.00312978
-0.00318115
-0.00322544
-0.00326283
-0.00329351
-0.00331765
-0.0033355
-0.00334732
-0.00335348
-0.00335443
-0.00335082
-0.00334356
-0.00333385
-0.00332245
-0.0033093
5.18769e-06
6.37991e-06
4.12403e-06
-8.75587e-07
-8.09749e-06
-1.72897e-05
-2.82154e-05
-4.0629e-05
-5.43178e-05
-6.91038e-05
-8.48443e-05
-0.00010143
-0.000118782
-0.000136846
-0.000155588
-0.000174991
-0.000195044
-0.000215743
-0.000237085
-0.000259064
-0.000281669
-0.00030488
-0.00032867
-0.000353
-0.000377819
-0.000403067
-0.000428669
-0.000454541
-0.000480587
-0.000506698
-0.000532755
-0.000558629
-0.000584178
-0.000609251
-0.000633686
-0.000657308
-0.000679936
-0.000701373
-0.000721415
-0.000739846
-0.00075644
-0.000770961
-0.000783167
-0.000792805
-0.00079962
-0.000803352
-0.000803741
-0.000800532
-0.000793473
-0.000782328
-0.000766874
-0.000746912
-0.000722271
-0.000692812
-0.00065844
-0.000619107
-0.00057482
-0.000525646
-0.000471724
-0.000413263
-0.000350554
-0.000283969
-0.000213965
-0.000141075
-6.59953e-05
1.06093e-05
8.79227e-05
0.000165062
0.000241078
0.000314966
0.000385677
0.000452132
0.000513239
0.000567911
0.000615087
0.000653748
0.00068294
0.000701794
0.000709544
0.000705546
0.000689294
0.000660432
0.000618764
0.000564263
0.000497073
0.000417511
0.000326057
0.000223352
0.000110183
-1.25337e-05
-0.000143767
-0.000282394
-0.000427222
-0.00057701
-0.000730493
-0.000886406
-0.0010435
-0.00120057
-0.00135648
-0.00151015
-0.00166059
-0.00180693
-0.00194838
-0.00208426
-0.002214
-0.00233715
-0.00245335
-0.00256234
-0.00266393
-0.00275804
-0.00284464
-0.00292377
-0.00299549
-0.00305994
-0.00311725
-0.0031676
-0.00321115
-0.00324809
-0.00327862
-0.00330294
-0.00332126
-0.00333384
-0.00334098
-0.00334303
-0.00334047
-0.00333393
-0.00332425
-0.00331111
-0.00329288
1.41023e-05
1.41691e-05
1.12288e-05
5.85037e-06
-1.52086e-06
-1.06623e-05
-2.13504e-05
-3.3382e-05
-4.65818e-05
-6.08041e-05
-7.59332e-05
-9.18812e-05
-0.000108584
-0.000126
-0.000144101
-0.000162872
-0.000182304
-0.000202393
-0.000223131
-0.00024451
-0.000266516
-0.000289127
-0.000312311
-0.000336028
-0.000360226
-0.000384845
-0.000409811
-0.000435043
-0.000460446
-0.000485918
-0.000511346
-0.000536606
-0.000561566
-0.000586083
-0.000610004
-0.000633168
-0.000655402
-0.000676522
-0.000696337
-0.000714641
-0.000731221
-0.000745853
-0.000758305
-0.000768336
-0.000775698
-0.000780139
-0.000781407
-0.00077925
-0.000773419
-0.000763678
-0.000749803
-0.000731591
-0.000708863
-0.000681472
-0.000649312
-0.000612321
-0.00057049
-0.000523871
-0.000472581
-0.000416812
-0.000356831
-0.000292991
-0.00022573
-0.00015557
-8.31447e-05
-9.14087e-06
6.56524e-05
0.00014037
0.000214078
0.000285784
0.000354446
0.000418995
0.000478343
0.000531407
0.000577124
0.000614477
0.000642508
0.000660346
0.000667221
0.000662485
0.000645627
0.000616288
0.000574271
0.000519546
0.000452259
0.000372727
0.000281433
0.000179023
6.62883e-05
-5.58488e-05
-0.000186352
-0.000324092
-0.00046787
-0.000616443
-0.000768542
-0.000922903
-0.00107828
-0.00123348
-0.00138737
-0.00153887
-0.00168704
-0.00183099
-0.00196997
-0.00210333
-0.00223052
-0.0023511
-0.00246476
-0.00257124
-0.00267041
-0.0027622
-0.00284661
-0.0029237
-0.00299356
-0.00305635
-0.00311223
-0.00316138
-0.00320399
-0.00324027
-0.00327041
-0.00329462
-0.00331309
-0.00332605
-0.0033337
-0.00333632
-0.00333416
-0.00332765
-0.00331731
-0.00330194
-0.00327863
2.61976e-05
2.45989e-05
2.06232e-05
1.46011e-05
6.8295e-06
-2.47753e-06
-1.31291e-05
-2.49584e-05
-3.78253e-05
-5.1616e-05
-6.62428e-05
-8.16409e-05
-9.77652e-05
-0.000114587
-0.00013209
-0.000150265
-0.000169109
-0.000188618
-0.000208786
-0.000229604
-0.000251058
-0.000273123
-0.000295768
-0.000318951
-0.00034262
-0.000366716
-0.000391168
-0.000415896
-0.00044081
-0.000465814
-0.000490799
-0.000515651
-0.000540245
-0.000564447
-0.000588117
-0.000611101
-0.00063324
-0.000654362
-0.000674285
-0.000692816
-0.000709753
-0.000724881
-0.000737978
-0.00074881
-0.000757135
-0.000762706
-0.000765273
-0.000764583
-0.000760387
-0.000752442
-0.000740516
-0.000724397
-0.000703895
-0.000678846
-0.000649127
-0.000614657
-0.000575406
-0.000531406
-0.000482749
-0.000429604
-0.000372217
-0.000310917
-0.000246121
-0.000178336
-0.000108162
-3.6284e-05
3.6524e-05
0.000109409
0.000181443
0.000251639
0.000318956
0.000382322
0.000440643
0.000492829
0.000537808
0.000574549
0.000602082
0.000619522
0.000626083
0.000621105
0.000604065
0.000574591
0.000532477
0.00047769
0.000410369
0.000330833
0.000239569
0.000137227
2.46089e-05
-9.73514e-05
-0.000227603
-0.000365002
-0.000508339
-0.000656345
-0.000807745
-0.000961259
-0.00111563
-0.00126967
-0.00142221
-0.00157222
-0.00171872
-0.00186087
-0.0019979
-0.00212919
-0.00225421
-0.00237256
-0.00248393
-0.00258812
-0.00268501
-0.00277456
-0.0028568
-0.00293183
-0.00299977
-0.0030608
-0.00311511
-0.0031629
-0.0032044
-0.0032398
-0.00326931
-0.00329314
-0.00331145
-0.00332441
-0.0033322
-0.00333493
-0.00333272
-0.00332581
-0.00331448
-0.00329684
-0.00326899
4.10159e-05
3.73281e-05
3.20317e-05
2.51269e-05
1.67381e-05
7.06513e-06
-3.72961e-06
-1.55169e-05
-2.81916e-05
-4.16724e-05
-5.59002e-05
-7.08351e-05
-8.64534e-05
-0.000102743
-0.000119701
-0.000137329
-0.000155629
-0.000174604
-0.000194252
-0.000214566
-0.000235531
-0.000257124
-0.000279315
-0.000302061
-0.000325315
-0.000349016
-0.000373097
-0.000397483
-0.000422088
-0.000446821
-0.000471582
-0.000496265
-0.000520752
-0.000544922
-0.000568643
-0.000591775
-0.000614168
-0.000635661
-0.000656085
-0.000675257
-0.000692983
-0.000709059
-0.000723267
-0.00073538
-0.000745158
-0.000752355
-0.000756718
-0.00075799
-0.000755915
-0.000750238
-0.000740716
-0.000727119
-0.000709238
-0.000686891
-0.000659929
-0.000628247
-0.000591791
-0.000550563
-0.000504633
-0.000454139
-0.000399304
-0.000340433
-0.000277921
-0.000212258
-0.00014402
-7.38864e-05
-2.61833e-06
6.89365e-05
0.000139853
0.00020914
0.000275753
0.000338607
0.000396596
0.000448613
0.000493567
0.000530403
0.00055813
0.000575837
0.000582716
0.000578082
0.00056139
0.000532249
0.000490438
0.000435909
0.000368795
0.000289409
0.00019824
9.5944e-05
-1.66678e-05
-0.000138646
-0.000268921
-0.000406328
-0.00054963
-0.000697541
-0.000848757
-0.00100197
-0.00115592
-0.00130937
-0.00146117
-0.00161025
-0.00175564
-0.00189649
-0.00203206
-0.00216172
-0.00228497
-0.00240141
-0.00251078
-0.00261289
-0.00270766
-0.00279508
-0.00287522
-0.00294821
-0.0030142
-0.0030734
-0.00312604
-0.00317235
-0.00321255
-0.00324688
-0.00327554
-0.00329873
-0.0033166
-0.00332929
-0.00333687
-0.0033394
-0.00333685
-0.0033293
-0.00331688
-0.00329718
-0.00326558
5.80669e-05
5.19771e-05
4.51173e-05
3.71253e-05
2.7935e-05
1.77279e-05
6.63921e-06
-5.24053e-06
-1.78426e-05
-3.11184e-05
-4.50389e-05
-5.9591e-05
-7.47735e-05
-9.05938e-05
-0.000107065
-0.0001242
-0.000142012
-0.000160512
-0.000179702
-0.00019958
-0.000220135
-0.000241345
-0.000263182
-0.000285607
-0.000308574
-0.000332027
-0.000355903
-0.00038013
-0.00040463
-0.000429318
-0.000454104
-0.000478889
-0.000503567
-0.000528026
-0.000552147
-0.0005758
-0.000598847
-0.00062114
-0.000642519
-0.00066281
-0.00068183
-0.000699378
-0.000715244
-0.000729201
-0.000741009
-0.000750419
-0.000757171
-0.000761
-0.000761635
-0.000758807
-0.000752253
-0.000741721
-0.000726976
-0.00070781
-0.000684047
-0.00065555
-0.000622233
-0.000584069
-0.000541094
-0.00049342
-0.000441237
-0.000384826
-0.000324559
-0.000260912
-0.000194429
-0.000125788
-5.57409e-05
1.48694e-05
8.51163e-05
0.000154002
0.00022047
0.000283421
0.00034173
0.000394262
0.000439901
0.000477562
0.000506221
0.000524932
0.000532855
0.00052927
0.000513601
0.000485429
0.000444505
0.000390762
0.000324317
0.000245471
0.000154709
5.26896e-05
-5.97676e-05
-0.000181699
-0.000312015
-0.000449526
-0.000592967
-0.000741022
-0.000892351
-0.00104562
-0.00119953
-0.00135282
-0.00150431
-0.00165291
-0.00179765
-0.00193765
-0.00207218
-0.0022006
-0.00232243
-0.00243728
-0.00254493
-0.00264519
-0.00273802
-0.00282345
-0.00290158
-0.00297257
-0.00303661
-0.00309396
-0.00314486
-0.00318957
-0.00322835
-0.00326145
-0.00328908
-0.00331143
-0.00332864
-0.0033408
-0.00334797
-0.00335008
-0.00334703
-0.00333877
-0.00332532
-0.00330392
-0.00326944
7.68758e-05
6.81339e-05
5.951e-05
5.02667e-05
4.01222e-05
2.92424e-05
1.77354e-05
5.6514e-06
-6.97824e-06
-2.01392e-05
-3.38337e-05
-4.80767e-05
-6.28915e-05
-7.83068e-05
-9.43529e-05
-0.000111058
-0.000128448
-0.000146541
-0.000165349
-0.000184875
-0.000205112
-0.000226044
-0.000247646
-0.000269885
-0.000292716
-0.000316091
-0.00033995
-0.000364229
-0.000388858
-0.000413762
-0.000438857
-0.000464056
-0.000489266
-0.000514386
-0.000539308
-0.000563916
-0.000588084
-0.000611674
-0.000634536
-0.000656508
-0.000677411
-0.000697051
-0.000715218
-0.000731685
-0.000746209
-0.000758534
-0.000768388
-0.000775492
-0.000779558
-0.000780294
-0.000777411
-0.00077063
-0.000759687
-0.000744337
-0.000724371
-0.000699616
-0.000669949
-0.000635306
-0.000595686
-0.000551168
-0.000501909
-0.000448158
-0.000390265
-0.000328693
-0.000263928
-0.000196672
-0.000127659
-5.77275e-05
1.2194e-05
8.10994e-05
0.000147918
0.000211532
0.00027079
0.000324529
0.000371596
0.000410871
0.000441286
0.000461854
0.000471689
0.000470028
0.000456251
0.000429899
0.000390686
0.000338512
0.000273466
0.000195832
0.00010608
4.86375e-06
-0.000106995
-0.00022852
-0.000358607
-0.000496041
-0.000639526
-0.00078771
-0.000939218
-0.00109268
-0.00124674
-0.00140011
-0.00155159
-0.00170004
-0.00184446
-0.00198397
-0.0021178
-0.00224533
-0.00236606
-0.00247965
-0.00258583
-0.00268448
-0.00277558
-0.00285919
-0.00293543
-0.0030045
-0.00306665
-0.00312214
-0.00317127
-0.00321434
-0.00325161
-0.00328336
-0.00330983
-0.00333118
-0.00334757
-0.00335906
-0.00336565
-0.00336724
-0.00336363
-0.0033547
-0.00334039
-0.00331771
-0.00328118
9.69731e-05
8.53749e-05
7.48298e-05
6.41982e-05
5.29747e-05
4.13097e-05
2.92832e-05
1.69036e-05
4.16298e-06
-8.96032e-06
-2.2501e-05
-3.65032e-05
-5.10168e-05
-6.60932e-05
-8.17814e-05
-9.81267e-05
-0.000115168
-0.000132935
-0.00015145
-0.000170722
-0.000190752
-0.00021153
-0.000233037
-0.000255244
-0.000278116
-0.000301607
-0.000325669
-0.000350245
-0.000375274
-0.000400691
-0.000426425
-0.0004524
-0.000478537
-0.000504749
-0.00053094
-0.000557009
-0.00058284
-0.00060831
-0.000633278
-0.000657589
-0.00068107
-0.000703532
-0.000724764
-0.000744535
-0.000762596
-0.000778678
-0.000792495
-0.000803749
-0.000812126
-0.000817308
-0.000818976
-0.000816815
-0.000810522
-0.000799816
-0.000784442
-0.000764187
-0.000738884
-0.000708424
-0.000672766
-0.000631946
-0.000586085
-0.000535396
-0.000480197
-0.000420918
-0.00035803
-0.000292214
-0.000224193
-0.0001548
-8.49638e-05
-1.56987e-05
5.19108e-05
0.000116724
0.000177563
0.000233231
0.000282534
0.000324306
0.00035743
0.000380866
0.000393672
0.000395027
0.000384257
0.000360845
0.000324457
0.000274944
0.000212355
0.000136939
4.91416e-05
-5.04002e-05
-0.000160872
-0.000281295
-0.000410552
-0.000547407
-0.000690536
-0.000838551
-0.000990036
-0.00114357
-0.00129777
-0.00145128
-0.00160286
-0.00175133
-0.00189566
-0.00203492
-0.00216834
-0.00229527
-0.00241521
-0.0025278
-0.0026328
-0.0027301
-0.00281969
-0.00290166
-0.00297618
-0.00304347
-0.00310381
-0.00315752
-0.00320491
-0.00324632
-0.00328206
-0.00331241
-0.00333762
-0.0033579
-0.00337337
-0.00338408
-0.00339002
-0.00339105
-0.00338691
-0.00337742
-0.00336247
-0.00333894
-0.00330115
0.000117898
0.000103271
9.06726e-05
7.85419e-05
6.61396e-05
5.35999e-05
4.09735e-05
2.82248e-05
1.53042e-05
2.15316e-06
-1.12974e-05
-2.5123e-05
-3.94007e-05
-5.42054e-05
-6.96077e-05
-8.56704e-05
-0.000102448
-0.000119982
-0.000138306
-0.000157438
-0.00017739
-0.000198158
-0.000219731
-0.000242089
-0.000265203
-0.000289039
-0.000313556
-0.00033871
-0.000364452
-0.000390728
-0.000417483
-0.000444655
-0.000472179
-0.000499984
-0.00052799
-0.00055611
-0.000584243
-0.000612276
-0.000640079
-0.000667506
-0.00069439
-0.00072054
-0.000745745
-0.000769768
-0.000792348
-0.000813202
-0.000832025
-0.000848491
-0.00086226
-0.000872979
-0.000880291
-0.000883839
-0.000883278
-0.000878277
-0.000868533
-0.000853782
-0.000833805
-0.000808443
-0.000777604
-0.000741274
-0.00069953
-0.000652541
-0.000600575
-0.000543987
-0.000483374
-0.000419243
-0.000352336
-0.000283481
-0.000213604
-0.000143724
-7.49381e-05
-8.40805e-06
5.46585e-05
0.000113027
0.00016546
0.000210738
0.000247685
0.000275196
0.000292262
0.000297992
0.000291637
0.000272611
0.000240508
0.000195116
0.000136424
6.46284e-05
-1.9867e-05
-0.000116458
-0.000224351
-0.000342578
-0.000470019
-0.000605424
-0.000747444
-0.000894661
-0.00104561
-0.00119884
-0.00135288
-0.00150636
-0.00165796
-0.00180646
-0.00195078
-0.00208994
-0.00222313
-0.00234968
-0.00246907
-0.00258092
-0.00268501
-0.00278121
-0.00286955
-0.00295012
-0.00302311
-0.0030888
-0.00314749
-0.00319952
-0.00324526
-0.00328508
-0.0033193
-0.00334826
-0.00337222
-0.00339139
-0.00340591
-0.00341582
-0.00342111
-0.00342159
-0.00341699
-0.0034071
-0.00339176
-0.00336779
-0.00332946
0.000139175
0.000121375
0.000106615
9.28958e-05
7.92356e-05
6.57518e-05
5.24631e-05
3.92869e-05
2.61307e-05
1.28963e-05
-5.21558e-07
-1.42306e-05
-2.83366e-05
-4.29399e-05
-5.81332e-05
-7.39986e-05
-9.0606e-05
-0.000108013
-0.000126263
-0.000145389
-0.00016541
-0.000186334
-0.00020816
-0.000230877
-0.000254469
-0.000278911
-0.000304177
-0.000330235
-0.000357051
-0.000384588
-0.000412807
-0.000441664
-0.000471111
-0.000501095
-0.000531555
-0.000562418
-0.000593599
-0.000624999
-0.0006565
-0.000687961
-0.00071922
-0.000750088
-0.000780348
-0.000809754
-0.000838034
-0.000864882
-0.00088997
-0.000912943
-0.000933424
-0.00095102
-0.000965331
-0.00097595
-0.000982479
-0.000984533
-0.000981749
-0.000973803
-0.000960416
-0.000941366
-0.000916502
-0.000885751
-0.00084913
-0.000806758
-0.000758851
-0.000705736
-0.000647908
-0.000585899
-0.000520412
-0.000452253
-0.000382337
-0.000311681
-0.000241392
-0.000172649
-0.000106689
-4.4786e-05
1.17732e-05
6.17098e-05
0.000103781
0.000136806
0.000159692
0.000171461
0.000171273
0.000158451
0.000132498
9.31136e-05
4.0204e-05
-2.61083e-05
-0.000105485
-0.000197376
-0.000301028
-0.000415501
-0.000539686
-0.000672334
-0.00081208
-0.000957475
-0.00110702
-0.00125921
-0.00141252
-0.00156552
-0.00171683
-0.00186516
-0.00200936
-0.00214841
-0.00228145
-0.00240776
-0.00252679
-0.00263814
-0.00274155
-0.00283692
-0.00292426
-0.00300368
-0.0030754
-0.00313971
-0.00319694
-0.00324748
-0.00329173
-0.00333007
-0.00336288
-0.00339052
-0.00341328
-0.00343138
-0.00344498
-0.00345414
-0.00345881
-0.00345883
-0.00345389
-0.00344377
-0.0034283
-0.00340429
-0.00336604
0.000160332
0.000139227
0.000122212
0.000106833
9.18534e-05
7.73724e-05
6.33737e-05
4.97252e-05
3.62883e-05
2.29229e-05
9.48595e-06
-4.16402e-06
-1.8163e-05
-3.26383e-05
-4.77055e-05
-6.34668e-05
-8.00099e-05
-9.7408e-05
-0.00011572
-0.00013499
-0.000155251
-0.000176522
-0.000198815
-0.000222133
-0.000246471
-0.000271823
-0.000298175
-0.000325515
-0.000353825
-0.000383089
-0.000413287
-0.000444397
-0.000476393
-0.00050924
-0.000542899
-0.000577316
-0.000612423
-0.000648136
-0.000684348
-0.000720928
-0.000757716
-0.000794523
-0.000831126
-0.000867269
-0.00090266
-0.000936972
-0.000969846
-0.00100089
-0.00102969
-0.00105581
-0.00107878
-0.00109816
-0.00111347
-0.00112426
-0.00113012
-0.00113063
-0.00112545
-0.00111428
-0.0010969
-0.00107316
-0.001043
-0.00100649
-0.000963762
-0.000915104
-0.000860937
-0.000801742
-0.000738199
-0.000671079
-0.000601275
-0.000529795
-0.000457747
-0.000386323
-0.000316789
-0.000250455
-0.000188664
-0.000132757
-8.40552e-05
-4.38275e-05
-1.32644e-05
6.55035e-06
1.46657e-05
1.02882e-05
-7.19606e-06
-3.82027e-05
-8.29351e-05
-0.000141375
-0.000213277
-0.000298173
-0.000395375
-0.000503994
-0.000622956
-0.000751027
-0.000886841
-0.00102893
-0.00117577
-0.00132579
-0.00147743
-0.00162918
-0.00177958
-0.00192729
-0.00207107
-0.00220983
-0.00234265
-0.00246874
-0.00258751
-0.00269851
-0.00280147
-0.00289625
-0.00298285
-0.00306141
-0.00313213
-0.00319533
-0.00325137
-0.00330065
-0.00334361
-0.00338067
-0.00341224
-0.00343871
-0.00346038
-0.00347753
-0.00349031
-0.0034988
-0.00350297
-0.00350265
-0.00349753
-0.00348738
-0.00347202
-0.00344834
-0.00341072
0.000180879
0.000156348
0.000136997
0.0001199
0.000103554
8.80359e-05
7.32925e-05
5.91378e-05
4.53834e-05
3.18457e-05
1.83418e-05
4.6945e-06
-9.26409e-06
-2.36888e-05
-3.87194e-05
-5.44795e-05
-7.10761e-05
-8.85997e-05
-0.000107125
-0.000126711
-0.000147405
-0.000169243
-0.00019225
-0.000216445
-0.000241842
-0.000268452
-0.000296282
-0.000325339
-0.00035563
-0.000387161
-0.000419938
-0.000453963
-0.000489234
-0.000525744
-0.000563474
-0.000602395
-0.000642458
-0.000683596
-0.000725715
-0.000768693
-0.000812374
-0.000856568
-0.000901044
-0.000945533
-0.000989722
-0.00103326
-0.00107575
-0.00111675
-0.00115582
-0.00119245
-0.00122612
-0.0012563
-0.00128247
-0.00130409
-0.00132066
-0.00133169
-0.00133673
-0.00133542
-0.00132743
-0.00131253
-0.00129057
-0.00126153
-0.00122546
-0.00118258
-0.00113325
-0.00107783
-0.001017
-0.00095148
-0.000882116
-0.000809899
-0.000735927
-0.000661402
-0.000587609
-0.000515898
-0.000447663
-0.00038432
-0.000327272
-0.00027789
-0.000237479
-0.000207247
-0.000188282
-0.000181518
-0.000187717
-0.00020744
-0.000241035
-0.000288621
-0.000350083
-0.000425066
-0.000512983
-0.000613026
-0.000724183
-0.00084526
-0.000974909
-0.00111166
-0.00125397
-0.00140022
-0.0015488
-0.00169813
-0.00184667
-0.00199299
-0.00213577
-0.00227384
-0.00240617
-0.00253192
-0.00265041
-0.00276115
-0.00286381
-0.00295821
-0.00304435
-0.00312232
-0.00319235
-0.00325475
-0.00330989
-0.00335821
-0.00340016
-0.0034362
-0.00346676
-0.00349227
-0.00351306
-0.00352942
-0.00354155
-0.00354953
-0.00355335
-0.00355285
-0.00354773
-0.00353776
-0.00352277
-0.00349972
-0.00346321
0.000200302
0.000172233
0.000150478
0.000131615
0.000113867
9.72843e-05
8.17712e-05
6.70843e-05
5.29826e-05
3.92358e-05
2.5619e-05
1.19172e-05
-2.07044e-06
-1.65274e-05
-3.1619e-05
-4.74918e-05
-6.42734e-05
-8.20732e-05
-0.000100983
-0.000121081
-0.00014243
-0.000165084
-0.000189087
-0.000214477
-0.000241291
-0.000269561
-0.000299319
-0.000330599
-0.000363434
-0.00039786
-0.00043391
-0.000471619
-0.000511014
-0.000552118
-0.00059494
-0.000639476
-0.000685701
-0.000733568
-0.000782999
-0.00083388
-0.000886062
-0.000939352
-0.000993513
-0.00104826
-0.00110325
-0.0011581
-0.00121239
-0.00126562
-0.00131728
-0.00136681
-0.00141362
-0.00145711
-0.00149665
-0.00153163
-0.00156144
-0.00158549
-0.00160325
-0.00161422
-0.00161798
-0.00161418
-0.00160257
-0.00158302
-0.00155548
-0.00152007
-0.00147701
-0.00142671
-0.00136966
-0.00130654
-0.00123815
-0.00116545
-0.00108951
-0.00101153
-0.000932818
-0.000854752
-0.000778781
-0.000706394
-0.000639089
-0.000578347
-0.000525604
-0.000482217
-0.00044943
-0.000428352
-0.000419922
-0.000424884
-0.00044377
-0.000476878
-0.00052426
-0.00058572
-0.000660813
-0.000748849
-0.000848915
-0.000959888
-0.00108047
-0.00120921
-0.00134455
-0.00148486
-0.00162847
-0.00177372
-0.00191901
-0.0020628
-0.00220367
-0.00234034
-0.00247169
-0.00259677
-0.00271482
-0.00282525
-0.00292768
-0.00302187
-0.00310777
-0.00318544
-0.00325508
-0.00331702
-0.00337161
-0.00341931
-0.00346059
-0.00349593
-0.00352579
-0.00355062
-0.00357079
-0.00358661
-0.00359831
-0.00360599
-0.00360967
-0.00360919
-0.00360427
-0.0035947
-0.00358031
-0.00355819
-0.00352318
0.000218068
0.000186356
0.000162134
0.000141469
0.000122293
0.000104626
8.83254e-05
7.30867e-05
5.86124e-05
4.46221e-05
3.08463e-05
1.70307e-05
2.94044e-06
-1.16386e-05
-2.68988e-05
-4.30108e-05
-6.01244e-05
-7.83697e-05
-9.7859e-05
-0.000118689
-0.000140945
-0.000164699
-0.000190021
-0.000216973
-0.000245614
-0.000276007
-0.000308213
-0.000342298
-0.000378328
-0.000416374
-0.000456505
-0.000498792
-0.000543297
-0.000590079
-0.00063918
-0.000690628
-0.000744425
-0.000800546
-0.000858932
-0.000919482
-0.000982053
-0.00104645
-0.00111243
-0.00117968
-0.00124784
-0.00131649
-0.00138515
-0.00145328
-0.0015203
-0.00158558
-0.00164845
-0.0017082
-0.00176411
-0.00181547
-0.00186155
-0.00190164
-0.00193508
-0.00196125
-0.00197959
-0.00198963
-0.00199099
-0.00198339
-0.00196668
-0.00194082
-0.00190593
-0.00186236
-0.00181044
-0.00175079
-0.00168415
-0.00161141
-0.00153361
-0.00145194
-0.00136771
-0.00128231
-0.00119727
-0.00111413
-0.00103449
-0.000959956
-0.000892113
-0.00083248
-0.000782491
-0.000743452
-0.000716518
-0.000702657
-0.000702624
-0.000716943
-0.000745886
-0.000789462
-0.000847415
-0.000919226
-0.00100412
-0.0011011
-0.00120894
-0.00132624
-0.00145148
-0.00158299
-0.00171909
-0.00185804
-0.00199816
-0.00213779
-0.00227542
-0.00240964
-0.0025392
-0.00266304
-0.00278026
-0.0028902
-0.00299234
-0.00308639
-0.00317221
-0.00324983
-0.00331941
-0.00338122
-0.00343565
-0.00348312
-0.00352411
-0.00355913
-0.00358865
-0.00361315
-0.00363303
-0.00364862
-0.00366017
-0.00366782
-0.00367159
-0.00367136
-0.00366688
-0.00365794
-0.00364437
-0.00362343
-0.00359023
0.000233612
0.000198161
0.000171417
0.00014892
0.000128297
0.000109533
9.24347e-05
7.66291e-05
6.17591e-05
4.74909e-05
3.35083e-05
1.95162e-05
5.24317e-06
-9.55678e-06
-2.51046e-05
-4.15968e-05
-5.9207e-05
-7.80885e-05
-9.8376e-05
-0.000120189
-0.000143637
-0.000168818
-0.000195827
-0.000224756
-0.000255697
-0.000288745
-0.000323998
-0.000361559
-0.000401536
-0.00044404
-0.000489186
-0.000537085
-0.000587844
-0.000641563
-0.000698323
-0.00075819
-0.000821197
-0.000887349
-0.000956607
-0.00102889
-0.00110405
-0.0011819
-0.00126219
-0.00134457
-0.00142867
-0.00151402
-0.00160008
-0.00168626
-0.00177189
-0.00185625
-0.00193858
-0.00201807
-0.00209388
-0.00216516
-0.00223106
-0.00229072
-0.00234333
-0.00238813
-0.0024244
-0.0024515
-0.0024689
-0.00247617
-0.002473
-0.0024592
-0.00243478
-0.0023999
-0.0023548
-0.00229999
-0.00223613
-0.00216402
-0.00208467
-0.00199922
-0.00190896
-0.00181533
-0.00171987
-0.00162422
-0.00153006
-0.00143915
-0.0013532
-0.00127394
-0.00120299
-0.00114191
-0.0010921
-0.00105478
-0.00103098
-0.00102151
-0.00102691
-0.00104745
-0.00108312
-0.00113363
-0.00119842
-0.00127663
-0.00136718
-0.00146878
-0.00157994
-0.00169903
-0.00182433
-0.00195406
-0.00208645
-0.00221975
-0.0023523
-0.00248257
-0.00260915
-0.00273083
-0.00284659
-0.0029556
-0.00305724
-0.00315109
-0.00323692
-0.00331468
-0.00338447
-0.00344651
-0.00350115
-0.0035488
-0.00358994
-0.00362506
-0.00365468
-0.00367926
-0.00369923
-0.00371495
-0.00372669
-0.00373462
-0.00373878
-0.00373908
-0.00373528
-0.00372719
-0.00371466
-0.00369512
-0.00366397
0.000246344
0.000207062
0.000177749
0.000153397
0.000131315
0.000111447
9.35426e-05
7.71571e-05
6.18682e-05
4.72865e-05
3.30462e-05
1.88086e-05
4.26442e-06
-1.08663e-05
-2.68345e-05
-4.38644e-05
-6.21562e-05
-8.18883e-05
-0.000103221
-0.000126302
-0.000151266
-0.000178243
-0.00020736
-0.000238744
-0.000272524
-0.000308836
-0.000347822
-0.000389632
-0.000434421
-0.000482352
-0.000533589
-0.000588295
-0.000646629
-0.000708739
-0.000774755
-0.000844785
-0.000918902
-0.000997142
-0.00107949
-0.00116589
-0.0012562
-0.00135023
-0.00144771
-0.00154828
-0.00165153
-0.00175693
-0.0018639
-0.00197175
-0.00207974
-0.00218704
-0.00229278
-0.00239602
-0.00249579
-0.00259107
-0.00268087
-0.00276416
-0.00283996
-0.00290732
-0.00296534
-0.00301321
-0.0030502
-0.00307569
-0.0030892
-0.00309038
-0.00307906
-0.00305525
-0.00301896
-0.00297069
-0.00291093
-0.0028404
-0.00276003
-0.0026709
-0.00257429
-0.00247163
-0.0023645
-0.0022546
-0.00214372
-0.00203373
-0.00192654
-0.00182404
-0.00172811
-0.00164054
-0.00156303
-0.0014971
-0.00144411
-0.00140518
-0.0013812
-0.00137276
-0.00138016
-0.00140341
-0.00144221
-0.00149594
-0.00156372
-0.00164439
-0.00173657
-0.0018387
-0.00194906
-0.00206585
-0.00218721
-0.0023113
-0.00243632
-0.00256058
-0.00268251
-0.00280073
-0.00291402
-0.00302141
-0.00312209
-0.00321551
-0.00330131
-0.00337931
-0.00344953
-0.00351211
-0.00356735
-0.00361561
-0.00365735
-0.00369306
-0.00372323
-0.00374835
-0.00376886
-0.00378514
-0.00379746
-0.00380603
-0.00381091
-0.00381203
-0.00380918
-0.00380217
-0.00379089
-0.00377293
-0.00374402
0.000255639
0.000212442
0.00018052
0.000154294
0.000130747
0.000109772
9.10562e-05
7.40779e-05
5.83461e-05
4.34118e-05
2.8857e-05
1.42972e-05
-6.17236e-07
-1.62015e-05
-3.27389e-05
-5.04836e-05
-6.96647e-05
-9.04891e-05
-0.000113147
-0.000137815
-0.000164664
-0.000193857
-0.00022556
-0.000259942
-0.000297179
-0.000337453
-0.00038096
-0.000427904
-0.000478499
-0.000532966
-0.000591531
-0.000654418