/*--------------------------------*- C++ -*----------------------------------*\
| =========                 |                                                 |
| \\      /  F ield         | OpenFOAM: The Open Source CFD Toolbox           |
|  \\    /   O peration     | Version:  2112                                  |
|   \\  /    A nd           | Website:  www.openfoam.com                      |
|    \\/     M anipulation  |                                                 |
\*---------------------------------------------------------------------------*/
FoamFile
{
    version     2.0;
    format      ascii;
    arch        "LSB;label=32;scalar=64";
    class       surfaceScalarField;
    location    "14";
    object      phi;
}
// * * * * * * * * * * * * * * * * * * * * * * * * * * * * * * * * * * * * * //

dimensions      [0 3 -1 0 0 0 0];

oriented        oriented;

internalField   nonuniform List<scalar> 
33024
(
4.1528e-09
-4.15456e-09
1.52905e-08
-1.11382e-08
2.85763e-08
-1.32852e-08
4.04458e-08
-1.18705e-08
4.88886e-08
-8.44249e-09
5.29216e-08
-4.03373e-09
5.22126e-08
7.0956e-10
4.68216e-08
5.39082e-09
3.7037e-08
9.78488e-09
2.32585e-08
1.37786e-08
5.9256e-09
1.73324e-08
-1.45318e-08
2.04574e-08
-3.7726e-08
2.31941e-08
-6.33273e-08
2.56015e-08
-9.10759e-08
2.77489e-08
-1.20785e-07
2.97088e-08
-1.52338e-07
3.15532e-08
-1.85687e-07
3.33493e-08
-2.20844e-07
3.51572e-08
-2.57875e-07
3.70306e-08
-2.96888e-07
3.90136e-08
-3.3803e-07
4.11414e-08
-3.81472e-07
4.34417e-08
-4.27405e-07
4.59337e-08
-4.76033e-07
4.86283e-08
-5.27563e-07
5.15302e-08
-5.82202e-07
5.46386e-08
-6.40148e-07
5.79464e-08
-7.0159e-07
6.14418e-08
-7.667e-07
6.51097e-08
-8.35631e-07
6.8931e-08
-9.08514e-07
7.28833e-08
-9.85455e-07
7.69409e-08
-1.06653e-06
8.10763e-08
-1.15179e-06
8.52592e-08
-1.24125e-06
8.94556e-08
-1.33488e-06
9.36295e-08
-1.43262e-06
9.77418e-08
-1.53437e-06
1.01751e-07
-1.63998e-06
1.0561e-07
-1.74925e-06
1.09272e-07
-1.86193e-06
1.12683e-07
-1.97772e-06
1.15789e-07
-2.09625e-06
1.18531e-07
-2.2171e-06
1.20845e-07
-2.33977e-06
1.22669e-07
-2.4637e-06
1.23934e-07
-2.58827e-06
1.24573e-07
-2.71279e-06
1.24516e-07
-2.83649e-06
1.23695e-07
-2.95853e-06
1.22042e-07
-3.07802e-06
1.19493e-07
-3.19401e-06
1.15987e-07
-3.30548e-06
1.11467e-07
-3.41136e-06
1.05887e-07
-3.51057e-06
9.92048e-08
-3.60196e-06
9.13912e-08
-3.68438e-06
8.24276e-08
-3.75669e-06
7.23087e-08
-3.81774e-06
6.10435e-08
-3.86639e-06
4.86567e-08
-3.90158e-06
3.51899e-08
-3.92229e-06
2.07048e-08
-3.92757e-06
5.284e-09
-3.91657e-06
-1.10005e-08
-3.88856e-06
-2.80099e-08
-3.84294e-06
-4.56165e-08
-3.77927e-06
-6.36714e-08
-3.69726e-06
-8.20086e-08
-3.59682e-06
-1.00447e-07
-3.47802e-06
-1.18794e-07
-3.34118e-06
-1.36847e-07
-3.18678e-06
-1.54396e-07
-3.01555e-06
-1.71228e-07
-2.82842e-06
-1.8713e-07
-2.62653e-06
-2.01894e-07
-2.41121e-06
-2.15319e-07
-2.18399e-06
-2.27216e-07
-1.94658e-06
-2.37412e-07
-1.70083e-06
-2.45754e-07
-1.44871e-06
-2.52113e-07
-1.19233e-06
-2.56388e-07
-9.33821e-07
-2.58504e-07
-6.75399e-07
-2.58422e-07
-4.19266e-07
-2.56133e-07
-1.676e-07
-2.51665e-07
7.74766e-08
-2.45077e-07
3.1394e-07
-2.36463e-07
5.39886e-07
-2.25947e-07
7.53568e-07
-2.13681e-07
9.53414e-07
-1.99846e-07
1.13805e-06
-1.8464e-07
1.30633e-06
-1.68281e-07
1.45733e-06
-1.50997e-07
1.59036e-06
-1.33026e-07
1.70496e-06
-1.14606e-07
1.80094e-06
-9.59712e-08
1.87828e-06
-7.73496e-08
1.93724e-06
-5.89564e-08
1.97823e-06
-4.09903e-08
2.00186e-06
-2.36303e-08
2.0089e-06
-7.03399e-09
2.00023e-06
8.66446e-09
1.97687e-06
2.33632e-08
1.93989e-06
3.69748e-08
1.89045e-06
4.94441e-08
1.82971e-06
6.07393e-08
1.75886e-06
7.08503e-08
1.67907e-06
7.97867e-08
1.5915e-06
8.75747e-08
1.49724e-06
9.42529e-08
1.39738e-06
9.98679e-08
1.29291e-06
1.04468e-07
1.18481e-06
1.08099e-07
1.07402e-06
1.10794e-07
9.6145e-07
1.12566e-07
8.48048e-07
1.13401e-07
7.34803e-07
1.13246e-07
6.22808e-07
1.11994e-07
5.13329e-07
1.09478e-07
4.07876e-07
1.05453e-07
3.08291e-07
9.95849e-08
2.16846e-07
9.1445e-08
1.36327e-07
8.05195e-08
7.00548e-08
6.62718e-08
2.17059e-08
4.83488e-08
-5.39088e-09
2.70972e-08
-1.03875e-08
4.99799e-09
-1.03864e-08
1.11848e-08
-1.53398e-08
3.25489e-08
-3.25013e-08
5.55542e-08
-3.62907e-08
7.40909e-08
-3.04065e-08
8.41347e-08
-1.84869e-08
8.33917e-08
-3.28986e-09
7.08633e-08
1.32371e-08
4.64293e-08
2.98246e-08
1.05452e-08
4.56691e-08
-3.60044e-08
6.03278e-08
-9.2284e-08
7.36126e-08
-1.57332e-07
8.55055e-08
-2.30246e-07
9.61079e-08
-3.10242e-07
1.05597e-07
-3.96684e-07
1.14191e-07
-4.89107e-07
1.22132e-07
-5.87214e-07
1.2966e-07
-6.90873e-07
1.37008e-07
-8.00104e-07
1.44388e-07
-9.15059e-07
1.51987e-07
-1.03601e-06
1.59964e-07
-1.16332e-06
1.68449e-07
-1.29742e-06
1.7754e-07
-1.43879e-06
1.87309e-07
-1.58796e-06
1.97798e-07
-1.74546e-06
2.09026e-07
-1.91181e-06
2.20986e-07
-2.08751e-06
2.33655e-07
-2.27306e-06
2.46987e-07
-2.46887e-06
2.60924e-07
-2.67533e-06
2.75391e-07
-2.89275e-06
2.903e-07
-3.12136e-06
3.05552e-07
-3.36132e-06
3.21036e-07
-3.61269e-06
3.3663e-07
-3.87544e-06
3.52203e-07
-4.14942e-06
3.67609e-07
-4.43437e-06
3.82695e-07
-4.72992e-06
3.97294e-07
-5.03553e-06
4.11228e-07
-5.35057e-06
4.24309e-07
-5.67422e-06
4.36333e-07
-6.00552e-06
4.4709e-07
-6.34335e-06
4.56356e-07
-6.6864e-06
4.639e-07
-7.03321e-06
4.69481e-07
-7.38213e-06
4.72855e-07
-7.73134e-06
4.73775e-07
-8.07881e-06
4.71994e-07
-8.42239e-06
4.67271e-07
-8.75972e-06
4.59373e-07
-9.08831e-06
4.48077e-07
-9.4055e-06
4.33183e-07
-9.70855e-06
4.14511e-07
-9.99457e-06
3.91909e-07
-1.02606e-05
3.6526e-07
-1.05037e-05
3.34484e-07
-1.07208e-05
2.99546e-07
-1.0909e-05
2.60461e-07
-1.10652e-05
2.17293e-07
-1.11867e-05
1.70164e-07
-1.12708e-05
1.19257e-07
-1.13149e-05
6.48166e-08
-1.13168e-05
7.19923e-09
-1.12745e-05
-5.3369e-08
-1.11862e-05
-1.16325e-07
-1.10506e-05
-1.81213e-07
-1.08667e-05
-2.4749e-07
-1.06342e-05
-3.14558e-07
-1.03529e-05
-3.81775e-07
-1.00232e-05
-4.48458e-07
-9.64614e-06
-5.139e-07
-9.22316e-06
-5.77373e-07
-8.75625e-06
-6.38142e-07
-8.2479e-06
-6.95476e-07
-7.70113e-06
-7.48661e-07
-7.11944e-06
-7.97015e-07
-6.50676e-06
-8.39896e-07
-5.86745e-06
-8.76719e-07
-5.20624e-06
-9.06967e-07
-4.52815e-06
-9.30204e-07
-3.83845e-06
-9.46081e-07
-3.14261e-06
-9.54351e-07
-2.44616e-06
-9.54869e-07
-1.75469e-06
-9.47604e-07
-1.07372e-06
-9.32637e-07
-4.08633e-07
-9.10159e-07
2.35381e-07
-8.80477e-07
8.53431e-07
-8.43997e-07
1.44098e-06
-8.01226e-07
1.99389e-06
-7.5276e-07
2.50852e-06
-6.99266e-07
2.98171e-06
-6.41476e-07
3.41088e-06
-5.80166e-07
3.794e-06
-5.16143e-07
4.12962e-06
-4.50227e-07
4.41688e-06
-3.83232e-07
4.65549e-06
-3.15957e-07
4.84569e-06
-2.49161e-07
4.98826e-06
-1.83556e-07
5.08442e-06
-1.19794e-07
5.13584e-06
-5.84525e-08
5.14456e-06
-5.78591e-11
5.1129e-06
5.50266e-08
5.04346e-06
1.06412e-07
4.93903e-06
1.53874e-07
4.80252e-06
1.97245e-07
4.63694e-06
2.36436e-07
4.44529e-06
2.71428e-07
4.23061e-06
3.0226e-07
3.99585e-06
3.29015e-07
3.74391e-06
3.51803e-07
3.47763e-06
3.70748e-07
3.19977e-06
3.85958e-07
2.91306e-06
3.97506e-07
2.62023e-06
4.05401e-07
2.32407e-06
4.09557e-07
2.02755e-06
4.09764e-07
1.73389e-06
4.05652e-07
1.44671e-06
3.96663e-07
1.17014e-06
3.82024e-07
9.08985e-07
3.60738e-07
6.68814e-07
3.31616e-07
4.55957e-07
2.93377e-07
2.773e-07
2.44929e-07
1.39635e-07
1.86013e-07
4.83286e-08
1.18401e-07
5.03816e-09
4.82854e-08
-5.34775e-09
1.35688e-08
-2.8908e-08
3.66544e-08
-5.55877e-08
5.85888e-08
-5.82245e-08
7.2083e-08
-4.39016e-08
7.2248e-08
-1.86513e-08
5.6184e-08
1.2774e-08
2.25238e-08
4.68976e-08
-2.89645e-08
8.13132e-08
-9.77572e-08
1.14461e-07
-1.8286e-07
1.45431e-07
-2.83043e-07
1.73795e-07
-3.9701e-07
1.99472e-07
-5.23527e-07
2.22626e-07
-6.6151e-07
2.43579e-07
-8.10073e-07
2.62754e-07
-9.68559e-07
2.80618e-07
-1.13655e-06
2.97655e-07
-1.31388e-06
3.1433e-07
-1.50056e-06
3.31074e-07
-1.69685e-06
3.48271e-07
-1.90313e-06
3.66249e-07
-2.11996e-06
3.85275e-07
-2.34797e-06
4.05557e-07
-2.5879e-06
4.27239e-07
-2.84052e-06
4.50413e-07
-3.10661e-06
4.75116e-07
-3.38695e-06
5.01333e-07
-3.68231e-06
5.29009e-07
-3.99337e-06
5.58046e-07
-4.32076e-06
5.88312e-07
-4.665e-06
6.1964e-07
-5.02654e-06
6.51836e-07
-5.40567e-06
6.84677e-07
-5.80254e-06
7.17915e-07
-6.21719e-06
7.51278e-07
-6.64946e-06
7.84467e-07
-7.09901e-06
8.17163e-07
-7.56533e-06
8.49018e-07
-8.0477e-06
8.79665e-07
-8.54518e-06
9.08708e-07
-9.05661e-06
9.35731e-07
-9.58057e-06
9.60293e-07
-1.01154e-05
9.81933e-07
-1.06592e-05
1.00017e-06
-1.12098e-05
1.01451e-06
-1.17648e-05
1.02444e-06
-1.23214e-05
1.02945e-06
-1.28766e-05
1.02902e-06
-1.34273e-05
1.02266e-06
-1.39699e-05
1.00986e-06
-1.45007e-05
9.90155e-07
-1.50157e-05
9.63117e-07
-1.55109e-05
9.28352e-07
-1.59819e-05
8.85522e-07
-1.64243e-05
8.34354e-07
-1.68337e-05
7.7465e-07
-1.72055e-05
7.06295e-07
-1.75353e-05
6.29269e-07
-1.78184e-05
5.43654e-07
-1.80508e-05
4.49642e-07
-1.82282e-05
3.4754e-07
-1.83467e-05
2.37777e-07
-1.84028e-05
1.20898e-07
-1.83933e-05
-2.26321e-09
-1.83154e-05
-1.31312e-07
-1.81668e-05
-2.64927e-07
-1.79458e-05
-4.02221e-07
-1.76512e-05
-5.42044e-07
-1.72826e-05
-6.83159e-07
-1.68401e-05
-8.24246e-07
-1.63247e-05
-9.63917e-07
-1.57378e-05
-1.10074e-06
-1.5082e-05
-1.23324e-06
-1.43601e-05
-1.35996e-06
-1.35762e-05
-1.47942e-06
-1.27346e-05
-1.59022e-06
-1.18407e-05
-1.691e-06
-1.09001e-05
-1.78047e-06
-9.9193e-06
-1.85749e-06
-8.90523e-06
-1.92104e-06
-7.8652e-06
-1.97023e-06
-6.80689e-06
-2.00439e-06
-5.73824e-06
-2.02301e-06
-4.66731e-06
-2.0258e-06
-3.60225e-06
-2.01267e-06
-2.55112e-06
-1.98376e-06
-1.52184e-06
-1.93944e-06
-5.22043e-07
-1.88028e-06
4.41022e-07
-1.80706e-06
1.36056e-06
-1.72077e-06
2.23034e-06
-1.62254e-06
3.04478e-06
-1.5137e-06
3.79897e-06
-1.39567e-06
4.4888e-06
-1.27e-06
5.11093e-06
-1.13827e-06
5.66284e-06
-1.00214e-06
6.14285e-06
-8.63241e-07
6.55009e-06
-7.23197e-07
6.88449e-06
-5.83564e-07
7.14676e-06
-4.45817e-07
7.33828e-06
-3.11318e-07
7.46113e-06
-1.81299e-07
7.51791e-06
-5.68475e-08
7.51182e-06
6.11234e-08
7.44638e-06
1.71846e-07
7.32552e-06
2.74736e-07
7.1534e-06
3.69367e-07
6.93437e-06
4.55471e-07
6.67288e-06
5.32919e-07
6.37344e-06
6.01698e-07
6.04056e-06
6.61893e-07
5.67872e-06
7.13647e-07
5.29234e-06
7.57129e-07
4.8858e-06
7.92489e-07
4.4635e-06
8.19812e-07
4.02984e-06
8.39062e-07
3.58936e-06
8.50032e-07
3.14685e-06
8.52279e-07
2.70742e-06
8.45077e-07
2.27672e-06
8.27367e-07
1.86101e-06
7.9773e-07
1.46734e-06
7.54411e-07
1.10355e-06
6.95406e-07
7.78214e-07
6.18713e-07
5.00296e-07
5.22848e-07
2.78421e-07
4.07889e-07
1.1964e-07
2.77183e-07
2.75419e-08
1.40382e-07
2.21943e-08
1.22106e-08
-4.11192e-08
3.04381e-08
-7.38148e-08
4.31417e-08
-7.09291e-08
4.26109e-08
-4.337e-08
2.37351e-08
2.24041e-10
-1.64946e-08
5.30037e-08
-7.94891e-08
1.09893e-07
-1.6545e-07
1.67273e-07
-2.73742e-07
2.22754e-07
-4.0321e-07
2.74898e-07
-5.52418e-07
3.23003e-07
-7.19854e-07
3.66909e-07
-9.04073e-07
4.06845e-07
-1.1038e-06
4.43305e-07
-1.31799e-06
4.76948e-07
-1.54589e-06
5.08518e-07
-1.78703e-06
5.38787e-07
-2.0412e-06
5.68506e-07
-2.3085e-06
5.98376e-07
-2.58925e-06
6.29022e-07
-2.88398e-06
6.6098e-07
-3.1934e-06
6.94691e-07
-3.51834e-06
7.30493e-07
-3.85973e-06
7.68628e-07
-4.21855e-06
8.0924e-07
-4.59582e-06
8.52384e-07
-4.99252e-06
8.98033e-07
-5.4096e-06
9.46083e-07
-5.84791e-06
9.96362e-07
-6.30823e-06
1.04863e-06
-6.79119e-06
1.1026e-06
-7.29727e-06
1.15792e-06
-7.82679e-06
1.21419e-06
-8.37986e-06
1.27099e-06
-8.95639e-06
1.32781e-06
-9.55607e-06
1.38414e-06
-1.01783e-05
1.43941e-06
-1.08223e-05
1.49301e-06
-1.14869e-05
1.54428e-06
-1.21708e-05
1.59255e-06
-1.28721e-05
1.63707e-06
-1.35889e-05
1.6771e-06
-1.43188e-05
1.71182e-06
-1.50591e-05
1.74043e-06
-1.58066e-05
1.76208e-06
-1.65581e-05
1.77592e-06
-1.73098e-05
1.78109e-06
-1.80575e-05
1.77673e-06
-1.87968e-05
1.76203e-06
-1.95232e-05
1.73618e-06
-2.02315e-05
1.69845e-06
-2.09165e-05
1.64816e-06
-2.15728e-05
1.58469e-06
-2.21949e-05
1.50756e-06
-2.27769e-05
1.41638e-06
-2.33131e-05
1.31089e-06
-2.37978e-05
1.19097e-06
-2.42252e-05
1.05668e-06
-2.45898e-05
9.08239e-07
-2.48862e-05
7.46038e-07
-2.51094e-05
5.7067e-07
-2.52545e-05
3.82919e-07
-2.53174e-05
1.83771e-07
-2.52941e-05
-2.55401e-08
-2.51816e-05
-2.4384e-07
-2.49771e-05
-4.69376e-07
-2.46789e-05
-7.00476e-07
-2.42856e-05
-9.35255e-07
-2.37971e-05
-1.17168e-06
-2.32138e-05
-1.4076e-06
-2.25369e-05
-1.64076e-06
-2.17688e-05
-1.86885e-06
-2.09125e-05
-2.08952e-06
-1.99721e-05
-2.30041e-06
-1.89523e-05
-2.49918e-06
-1.7859e-05
-2.68359e-06
-1.66985e-05
-2.85147e-06
-1.54782e-05
-3.0008e-06
-1.42059e-05
-3.12974e-06
-1.28903e-05
-3.23668e-06
-1.15403e-05
-3.32021e-06
-1.01654e-05
-3.37923e-06
-8.77552e-06
-3.41293e-06
-7.3805e-06
-3.42081e-06
-5.99045e-06
-3.40271e-06
-4.6154e-06
-3.35881e-06
-3.2652e-06
-3.28964e-06
-1.94942e-06
-3.19606e-06
-6.77217e-07
-3.07927e-06
5.42782e-07
-2.94076e-06
1.70258e-06
-2.78234e-06
2.7949e-06
-2.60602e-06
3.81329e-06
-2.41407e-06
4.7522e-06
-2.2089e-06
5.60698e-06
-1.99306e-06
6.374e-06
-1.76916e-06
7.05062e-06
-1.53985e-06
7.63518e-06
-1.30776e-06
8.12704e-06
-1.07542e-06
8.5265e-06
-8.45279e-07
8.83478e-06
-6.19593e-07
9.05392e-06
-4.00446e-07
9.18677e-06
-1.89691e-07
9.23683e-06
1.10621e-08
9.20821e-06
2.00462e-07
9.10553e-06
3.77421e-07
8.93378e-06
5.41114e-07
8.69829e-06
6.90962e-07
8.4046e-06
8.26614e-07
8.05838e-06
9.47915e-07
7.66541e-06
1.05487e-06
7.23148e-06
1.14757e-06
6.76241e-06
1.2262e-06
6.26401e-06
1.29088e-06
5.74215e-06
1.34167e-06
5.20277e-06
1.37844e-06
4.65198e-06
1.40082e-06
4.09616e-06
1.4081e-06
3.54209e-06
1.39914e-06
2.99709e-06
1.37237e-06
2.46913e-06
1.32569e-06
1.96693e-06
1.25662e-06
1.49996e-06
1.16237e-06
1.07839e-06
1.04028e-06
7.1272e-07
8.88519e-07
4.13305e-07
7.07304e-07
1.89632e-07
5.00857e-07
4.96172e-08
2.80396e-07
7.18115e-08
8.46278e-09
-4.95815e-08
1.67809e-08
-8.21336e-08
1.37469e-08
-6.78945e-08
-8.10535e-09
-2.15177e-08
-5.3606e-08
4.57249e-08
-1.25545e-07
1.24943e-07
-2.25097e-07
2.09444e-07
-3.52263e-07
2.9444e-07
-5.06223e-07
3.76715e-07
-6.8564e-07
4.54315e-07
-8.88907e-07
5.2627e-07
-1.11435e-06
5.92354e-07
-1.36039e-06
6.52886e-07
-1.62564e-06
7.08555e-07
-1.90899e-06
7.60292e-07
-2.20962e-06
8.09154e-07
-2.52708e-06
8.56241e-07
-2.8612e-06
9.0263e-07
-3.21215e-06
9.49328e-07
-3.58037e-06
9.97236e-07
-3.96652e-06
1.04713e-06
-4.37147e-06
1.09964e-06
-4.79623e-06
1.15526e-06
-5.24194e-06
1.21433e-06
-5.70976e-06
1.27706e-06
-6.20089e-06
1.34351e-06
-6.71649e-06
1.41363e-06
-7.25766e-06
1.48725e-06
-7.82539e-06
1.5641e-06
-8.42056e-06
1.64379e-06
-9.04384e-06
1.72588e-06
-9.69574e-06
1.80982e-06
-1.03765e-05
1.89499e-06
-1.10863e-05
1.9807e-06
-1.18246e-05
2.0662e-06
-1.25912e-05
2.15067e-06
-1.3385e-05
2.23322e-06
-1.42049e-05
2.31291e-06
-1.50493e-05
2.38873e-06
-1.59164e-05
2.45962e-06
-1.68038e-05
2.52447e-06
-1.77088e-05
2.58212e-06
-1.86283e-05
2.63135e-06
-1.95589e-05
2.67095e-06
-2.04964e-05
2.69965e-06
-2.14367e-05
2.71618e-06
-2.23749e-05
2.71929e-06
-2.33059e-05
2.70775e-06
-2.42243e-05
2.68036e-06
-2.51241e-05
2.636e-06
-2.59992e-05
2.57363e-06
-2.68434e-05
2.4923e-06
-2.76499e-05
2.39123e-06
-2.84121e-05
2.26975e-06
-2.91231e-05
2.12741e-06
-2.97762e-05
1.96392e-06
-3.03644e-05
1.77923e-06
-3.08813e-05
1.57352e-06
-3.13202e-05
1.34722e-06
-3.16752e-05
1.10102e-06
-3.19404e-05
8.35893e-07
-3.21106e-05
5.53066e-07
-3.21809e-05
2.54065e-07
-3.21471e-05
-5.92979e-08
-3.20059e-05
-3.85097e-07
-3.17544e-05
-7.20897e-07
-3.13906e-05
-1.0642e-06
-3.09136e-05
-1.41224e-06
-3.03232e-05
-1.7621e-06
-2.96201e-05
-2.11068e-06
-2.88061e-05
-2.45476e-06
-2.78839e-05
-2.79105e-06
-2.68573e-05
-3.11619e-06
-2.57308e-05
-3.42686e-06
-2.45102e-05
-3.71977e-06
-2.32021e-05
-3.99172e-06
-2.18139e-05
-4.23968e-06
-2.03539e-05
-4.4608e-06
-1.88311e-05
-4.65248e-06
-1.72554e-05
-4.81242e-06
-1.5637e-05
-4.93864e-06
-1.39867e-05
-5.02955e-06
-1.23156e-05
-5.08396e-06
-1.06353e-05
-5.10113e-06
-8.95726e-06
-5.08077e-06
-7.293e-06
-5.02307e-06
-5.65396e-06
-4.92869e-06
-4.05125e-06
-4.79877e-06
-2.49561e-06
-4.6349e-06
-9.97235e-07
-4.43914e-06
4.34347e-07
-4.21392e-06
1.79037e-06
-3.96204e-06
3.06292e-06
-3.68662e-06
4.24507e-06
-3.39105e-06
5.3309e-06
-3.07888e-06
6.31557e-06
-2.75384e-06
7.19539e-06
-2.41967e-06
7.96776e-06
-2.08013e-06
8.63125e-06
-1.73891e-06
9.18551e-06
-1.39955e-06
9.6313e-06
-1.06538e-06
9.97036e-06
-7.39502e-07
1.02054e-05
-4.24706e-07
1.03399e-05
-1.23459e-07
1.03782e-05
1.62128e-07
1.03253e-05
4.3031e-07
1.01867e-05
6.79706e-07
9.96842e-06
9.09287e-07
9.67668e-06
1.11835e-06
9.31812e-06
1.30647e-06
8.89951e-06
1.47348e-06
8.42775e-06
1.61934e-06
7.90983e-06
1.74412e-06
7.35281e-06
1.8479e-06
6.76387e-06
1.93061e-06
6.1503e-06
1.99202e-06
5.51959e-06
2.03153e-06
4.87953e-06
2.04815e-06
4.23833e-06
2.04035e-06
3.60469e-06
2.006e-06
2.98797e-06
1.94241e-06
2.39822e-06
1.84637e-06
1.84622e-06
1.71437e-06
1.34343e-06
1.54308e-06
9.01823e-07
1.33012e-06
5.33721e-07
1.07541e-06
2.51649e-07
7.82929e-07
6.86245e-08
4.63421e-07
1.40436e-07
3.16298e-09
-5.2745e-08
-2.19877e-09
-7.67713e-08
-2.61035e-08
-4.39903e-08
-7.52199e-08
2.75989e-08
-1.53716e-07
1.24222e-07
-2.6382e-07
2.35047e-07
-4.06266e-07
3.51889e-07
-5.80696e-07
4.6887e-07
-7.86004e-07
5.82023e-07
-1.02062e-06
6.88934e-07
-1.28277e-06
7.88416e-07
-1.57064e-06
8.80221e-07
-1.88255e-06
9.64794e-07
-2.21705e-06
1.04306e-06
-2.57303e-06
1.11626e-06
-2.94968e-06
1.18581e-06
-3.34659e-06
1.25315e-06
-3.76369e-06
1.31973e-06
-4.20127e-06
1.3869e-06
-4.65988e-06
1.45585e-06
-5.14037e-06
1.52762e-06
-5.64377e-06
1.60304e-06
-6.17129e-06
1.68278e-06
-6.72423e-06
1.76727e-06
-7.30394e-06
1.85678e-06
-7.9118e-06
1.95137e-06
-8.54912e-06
2.05095e-06
-9.21713e-06
2.15526e-06
-9.91693e-06
2.26389e-06
-1.06494e-05
2.3763e-06
-1.14154e-05
2.49182e-06
-1.22152e-05
2.60966e-06
-1.30492e-05
2.72894e-06
-1.39171e-05
2.84865e-06
-1.48186e-05
2.96771e-06
-1.57529e-05
3.08494e-06
-1.67188e-05
3.19908e-06
-1.77146e-05
3.30876e-06
-1.87384e-05
3.41257e-06
-1.97878e-05
3.509e-06
-2.08598e-05
3.59646e-06
-2.1951e-05
3.67334e-06
-2.30576e-05
3.73796e-06
-2.41753e-05
3.78861e-06
-2.52992e-05
3.82355e-06
-2.64241e-05
3.84106e-06
-2.75442e-05
3.83945e-06
-2.86535e-05
3.81705e-06
-2.97455e-05
3.7723e-06
-3.08132e-05
3.70372e-06
-3.18495e-05
3.60996e-06
-3.28471e-05
3.48986e-06
-3.37983e-05
3.34242e-06
-3.46954e-05
3.16688e-06
-3.55307e-05
2.96273e-06
-3.62966e-05
2.72973e-06
-3.69853e-05
2.46794e-06
-3.75895e-05
2.17775e-06
-3.81021e-05
1.85986e-06
-3.85165e-05
1.51534e-06
-3.88262e-05
1.14562e-06
-3.90256e-05
7.52477e-07
-3.91096e-05
3.38044e-07
-3.90737e-05
-9.51728e-08
-3.89143e-05
-5.44473e-07
-3.86286e-05
-1.0066e-06
-3.82147e-05
-1.47815e-06
-3.76715e-05
-1.95545e-06
-3.6999e-05
-2.43457e-06
-3.61983e-05
-2.91142e-06
-3.52713e-05
-3.38173e-06
-3.42212e-05
-3.84116e-06
-3.30521e-05
-4.28532e-06
-3.17691e-05
-4.70983e-06
-3.03785e-05
-5.11038e-06
-2.88874e-05
-5.48278e-06
-2.7304e-05
-5.82306e-06
-2.56374e-05
-6.12747e-06
-2.38972e-05
-6.3926e-06
-2.20943e-05
-6.6154e-06
-2.02396e-05
-6.79325e-06
-1.83452e-05
-6.92399e-06
-1.64231e-05
-7.00602e-06
-1.4486e-05
-7.03826e-06
-1.25466e-05
-7.02024e-06
-1.06175e-05
-6.9521e-06
-8.7116e-06
-6.8346e-06
-6.84128e-06
-6.66909e-06
-5.01863e-06
-6.45755e-06
-3.25525e-06
-6.20253e-06
-1.56206e-06
-5.9071e-06
5.0749e-08
-5.57485e-06
1.57391e-06
-5.20979e-06
2.99912e-06
-4.81625e-06
4.31915e-06
-4.39891e-06
5.52792e-06
-3.96261e-06
6.62056e-06
-3.51231e-06
7.59343e-06
-3.053e-06
8.44413e-06
-2.58961e-06
9.17148e-06
-2.1269e-06
9.77554e-06
-1.66944e-06
1.02575e-05
-1.22147e-06
1.06197e-05
-7.86879e-07
1.08654e-05
-3.6915e-07
1.09988e-05
2.86833e-08
1.10251e-05
4.04061e-07
1.09499e-05
7.54888e-07
1.07796e-05
1.07954e-06
1.05212e-05
1.37681e-06
1.01818e-05
1.64588e-06
9.76897e-06
1.88627e-06
9.29059e-06
2.09772e-06
8.7546e-06
2.28011e-06
8.16916e-06
2.43334e-06
7.54256e-06
2.55721e-06
6.88329e-06
2.65129e-06
6.20006e-06
2.71477e-06
5.50189e-06
2.74633e-06
4.79819e-06
2.74404e-06
4.0989e-06
2.7053e-06
3.41452e-06
2.62679e-06
2.75625e-06
2.50463e-06
2.13604e-06
2.33458e-06
1.5666e-06
2.11252e-06
1.06145e-06
1.83527e-06
6.35068e-07
1.50179e-06
3.03244e-07
1.11475e-06
8.39856e-08
6.82679e-07
2.24421e-07
-3.20057e-09
-4.95439e-08
-2.50411e-08
-5.49311e-08
-7.38863e-08
4.85488e-09
-1.55134e-07
1.08847e-07
-2.71958e-07
2.41046e-07
-4.25773e-07
3.88862e-07
-6.16668e-07
5.42784e-07
-8.43777e-07
6.95979e-07
-1.1056e-06
8.4385e-07
-1.40029e-06
9.83624e-07
-1.72586e-06
1.11398e-06
-2.08035e-06
1.23472e-06
-2.46203e-06
1.34647e-06
-2.86943e-06
1.45046e-06
-3.30143e-06
1.54827e-06
-3.75732e-06
1.6417e-06
-4.23678e-06
1.73261e-06
-4.73987e-06
1.82282e-06
-5.26701e-06
1.91405e-06
-5.81896e-06
2.0078e-06
-6.39674e-06
2.10539e-06
-7.00156e-06
2.20787e-06
-7.63484e-06
2.31606e-06
-8.29807e-06
2.4305e-06
-8.99278e-06
2.55149e-06
-9.72051e-06
2.6791e-06
-1.04827e-05
2.81316e-06
-1.12807e-05
2.95329e-06
-1.21158e-05
3.09892e-06
-1.29887e-05
3.24929e-06
-1.39004e-05
3.40348e-06
-1.48512e-05
3.56042e-06
-1.58411e-05
3.71889e-06
-1.687e-05
3.87752e-06
-1.79371e-05
4.03484e-06
-1.90414e-05
4.18924e-06
-2.01814e-05
4.33901e-06
-2.13549e-05
4.48233e-06
-2.25596e-05
4.61726e-06
-2.37924e-05
4.74179e-06
-2.50498e-05
4.85382e-06
-2.63276e-05
4.95121e-06
-2.76214e-05
5.03173e-06
-2.89259e-05
5.09315e-06
-3.02356e-05
5.13323e-06
-3.15443e-05
5.14973e-06
-3.28453e-05
5.1405e-06
-3.41317e-05
5.10344e-06
-3.5396e-05
5.03657e-06
-3.66304e-05
4.93809e-06
-3.78267e-05
4.80635e-06
-3.89769e-05
4.63997e-06
-4.00722e-05
4.43781e-06
-4.11044e-05
4.19902e-06
-4.20648e-05
3.92311e-06
-4.2945e-05
3.60992e-06
-4.37367e-05
3.2597e-06
-4.44321e-05
2.87309e-06
-4.50234e-05
2.45116e-06
-4.55034e-05
1.99542e-06
-4.58656e-05
1.50782e-06
-4.61039e-05
9.90726e-07
-4.62128e-05
4.46982e-07
-4.61878e-05
-1.20154e-07
-4.60251e-05
-7.07187e-07
-4.57218e-05
-1.30994e-06
-4.52758e-05
-1.9241e-06
-4.46863e-05
-2.54498e-06
-4.39532e-05
-3.16765e-06
-4.30777e-05
-3.78695e-06
-4.20619e-05
-4.39754e-06
-4.09091e-05
-4.994e-06
-3.96235e-05
-5.57083e-06
-3.82108e-05
-6.12258e-06
-3.66773e-05
-6.64386e-06
-3.50306e-05
-7.12946e-06
-3.32793e-05
-7.57438e-06
-3.14328e-05
-7.97395e-06
-2.95016e-05
-8.32386e-06
-2.74967e-05
-8.62024e-06
-2.54302e-05
-8.85976e-06
-2.33146e-05
-9.03965e-06
-2.11628e-05
-9.15776e-06
-1.89884e-05
-9.21264e-06
-1.68051e-05
-9.20356e-06
-1.46267e-05
-9.13051e-06
-1.2467e-05
-8.99427e-06
-1.03398e-05
-8.79636e-06
-8.25825e-06
-8.53907e-06
-6.23538e-06
-8.2254e-06
-4.28345e-06
-7.85904e-06
-2.41399e-06
-7.44431e-06
-6.37691e-07
-6.98609e-06
1.03578e-06
-6.48973e-06
2.59785e-06
-5.96098e-06
4.04111e-06
-5.40587e-06
5.35943e-06
-4.83063e-06
6.54799e-06
-4.24156e-06
7.60328e-06
-3.6449e-06
8.52316e-06
-3.04678e-06
9.3068e-06
-2.45308e-06
9.95468e-06
-1.86935e-06
1.04685e-05
-1.3007e-06
1.08511e-05
-7.51783e-07
1.11065e-05
-2.26714e-07
1.12396e-05
2.70967e-07
1.12562e-05
7.3831e-07
1.11628e-05
1.17291e-06
1.09667e-05
1.57294e-06
1.06755e-05
1.93705e-06
1.02975e-05
2.26429e-06
9.84118e-06
2.55406e-06
9.31534e-06
2.80594e-06
8.72908e-06
3.01961e-06
8.09166e-06
3.19462e-06
7.41263e-06
3.33032e-06
6.70177e-06
3.42563e-06
5.96919e-06
3.47891e-06
5.22539e-06
3.48784e-06
4.48136e-06
3.44933e-06
3.74867e-06
3.35948e-06
3.03959e-06
3.21372e-06
2.36717e-06
3.007e-06
1.7454e-06
2.73429e-06
1.18943e-06
2.39124e-06
7.15974e-07
1.97525e-06
3.43963e-07
1.48676e-06
9.58131e-08
9.30828e-07
3.20234e-07
-1.03094e-08
-3.92348e-08
-5.08042e-08
-1.44359e-08
-1.27823e-07
8.18737e-08
-2.45214e-07
2.26238e-07
-4.04868e-07
4.007e-07
-6.07166e-07
5.91161e-07
-8.51371e-07
7.8699e-07
-1.13597e-06
9.80583e-07
-1.45899e-06
1.16687e-06
-1.81821e-06
1.34284e-06
-2.2114e-06
1.50717e-06
-2.63648e-06
1.6598e-06
-3.09164e-06
1.80163e-06
-3.57542e-06
1.93423e-06
-4.08675e-06
2.05961e-06
-4.62504e-06
2.17998e-06
-5.1901e-06
2.29766e-06
-5.78216e-06
2.41489e-06
-6.40185e-06
2.53374e-06
-7.05011e-06
2.65607e-06
-7.72819e-06
2.78346e-06
-8.43753e-06
2.91721e-06
-9.17974e-06
3.05827e-06
-9.95651e-06
3.20727e-06
-1.07696e-05
3.36456e-06
-1.16207e-05
3.53016e-06
-1.25113e-05
3.70381e-06
-1.3443e-05
3.88498e-06
-1.4417e-05
4.07288e-06
-1.54342e-05
4.26653e-06
-1.64954e-05
4.46468e-06
-1.76009e-05
4.66592e-06
-1.87507e-05
4.86865e-06
-1.99442e-05
5.07109e-06
-2.11807e-05
5.2713e-06
-2.24586e-05
5.46719e-06
-2.37762e-05
5.65653e-06
-2.51308e-05
5.83696e-06
-2.65195e-05
6.00599e-06
-2.79388e-05
6.16104e-06
-2.93844e-05
6.29944e-06
-3.08516e-05
6.41843e-06
-3.23351e-05
6.51522e-06
-3.3829e-05
6.58702e-06
-3.53268e-05
6.63102e-06
-3.68215e-05
6.64448e-06
-3.83058e-05
6.62474e-06
-3.97716e-05
6.56927e-06
-4.12107e-05
6.4757e-06
-4.26145e-05
6.34188e-06
-4.39741e-05
6.16592e-06
-4.52804e-05
5.94624e-06
-4.65241e-05
5.68157e-06
-4.76962e-05
5.37106e-06
-4.87873e-05
5.01426e-06
-4.97885e-05
4.61115e-06
-5.06911e-05
4.16222e-06
-5.14864e-05
3.66842e-06
-5.21665e-05
3.13125e-06
-5.27237e-05
2.55268e-06
-5.31512e-05
1.93525e-06
-5.34424e-05
1.28199e-06
-5.35919e-05
5.96442e-07
-5.35948e-05
-1.17294e-07
-5.3447e-05
-8.54973e-07
-5.31455e-05
-1.61141e-06
-5.26882e-05
-2.38136e-06
-5.20741e-05
-3.15913e-06
-5.1303e-05
-3.93874e-06
-5.0376e-05
-4.71396e-06
-4.92952e-05
-5.47836e-06
-4.80638e-05
-6.22539e-06
-4.66862e-05
-6.94843e-06
-4.51678e-05
-7.64091e-06
-4.35154e-05
-8.29634e-06
-4.17364e-05
-8.9084e-06
-3.98398e-05
-9.47105e-06
-3.78351e-05
-9.9786e-06
-3.57332e-05
-1.04258e-05
-3.35456e-05
-1.08078e-05
-3.12847e-05
-1.11206e-05
-2.89637e-05
-1.13607e-05
-2.65962e-05
-1.15252e-05
-2.41966e-05
-1.16123e-05
-2.17794e-05
-1.16208e-05
-1.93594e-05
-1.15505e-05
-1.69515e-05
-1.14022e-05
-1.45705e-05
-1.11773e-05
-1.22311e-05
-1.08785e-05
-9.94741e-06
-1.05091e-05
-7.7331e-06
-1.00733e-05
-5.60113e-06
-9.57628e-06
-3.5636e-06
-9.02361e-06
-1.63164e-06
-8.42169e-06
1.84747e-07
-7.77736e-06
1.87675e-06
-7.09787e-06
3.43687e-06
-6.39075e-06
4.85897e-06
-5.66366e-06
6.13834e-06
-4.92427e-06
7.27171e-06
-4.18015e-06
8.25723e-06
-3.43861e-06
9.0945e-06
-2.70662e-06
9.78448e-06
-1.99067e-06
1.03294e-05
-1.29674e-06
1.07329e-05
-6.30147e-07
1.09994e-05
4.40013e-09
1.11348e-05
6.02969e-07
1.11455e-05
1.1622e-06
1.10389e-05
1.67948e-06
1.08232e-05
2.15277e-06
1.05069e-05
2.58056e-06
1.00992e-05
2.96176e-06
9.60962e-06
3.29556e-06
9.04795e-06
3.58127e-06
8.42439e-06
3.81818e-06
7.7494e-06
4.00531e-06
7.03373e-06
4.1413e-06
6.28847e-06
4.22417e-06
5.52511e-06
4.25119e-06
4.75565e-06
4.21879e-06
3.99265e-06
4.12248e-06
3.24939e-06
3.95697e-06
2.54008e-06
3.71632e-06
1.88e-06
3.39436e-06
1.28596e-06
2.98528e-06
7.76797e-07
2.48441e-06
3.74277e-07
1.88928e-06
1.04436e-07
1.20067e-06
4.2467e-07
-1.79986e-08
-2.12364e-08
-7.88453e-08
4.64113e-08
-1.86692e-07
1.8972e-07
-3.43568e-07
3.83115e-07
-5.49876e-07
6.07008e-07
-8.04775e-07
8.4606e-07
-1.10655e-06
1.08876e-06
-1.45291e-06
1.32695e-06
-1.84131e-06
1.55526e-06
-2.26911e-06
1.77064e-06
-2.73381e-06
1.97187e-06
-3.23317e-06
2.15916e-06
-3.7653e-06
2.33377e-06
-4.32878e-06
2.49771e-06
-4.92265e-06
2.65347e-06
-5.54641e-06
2.80375e-06
-6.20009e-06
2.95134e-06
-6.88412e-06
3.09892e-06
-7.59936e-06
3.24897e-06
-8.34699e-06
3.4037e-06
-9.12851e-06
3.56498e-06
-9.9456e-06
3.7343e-06
-1.08001e-05
3.91278e-06
-1.1694e-05
4.10113e-06
-1.26291e-05
4.29968e-06
-1.36073e-05
4.50841e-06
-1.46304e-05
4.72691e-06
-1.56999e-05
4.95449e-06
-1.68172e-05
5.19011e-06
-1.79831e-05
5.43246e-06
-1.91984e-05
5.67997e-06
-2.04633e-05
5.93083e-06
-2.17776e-05
6.18298e-06
-2.31407e-05
6.43418e-06
-2.45514e-05
6.68195e-06
-2.60078e-05
6.92367e-06
-2.75078e-05
7.15652e-06
-2.90484e-05
7.37755e-06
-3.06261e-05
7.58366e-06
-3.22367e-05
7.77163e-06
-3.38754e-05
7.93815e-06
-3.55368e-05
8.07984e-06
-3.72149e-05
8.19331e-06
-3.8903e-05
8.27513e-06
-4.05939e-05
8.32194e-06
-4.22799e-05
8.33046e-06
-4.39527e-05
8.29753e-06
-4.56036e-05
8.22018e-06
-4.72236e-05
8.09567e-06
-4.88032e-05
7.92154e-06
-5.0333e-05
7.69565e-06
-5.1803e-05
7.41627e-06
-5.32035e-05
7.08206e-06
-5.45246e-05
6.69217e-06
-5.57566e-05
6.24626e-06
-5.68899e-05
5.7445e-06
-5.79154e-05
5.18764e-06
-5.88239e-05
4.57701e-06
-5.96072e-05
3.91452e-06
-6.02572e-05
3.20271e-06
-6.07667e-05
2.44468e-06
-6.11288e-05
1.64415e-06
-6.13378e-05
8.05391e-07
-6.13885e-05
-6.65768e-08
-6.12765e-05
-9.66935e-07
-6.09986e-05
-1.88931e-06
-6.05524e-05
-2.82757e-06
-5.99365e-05
-3.77503e-06
-5.91506e-05
-4.72466e-06
-5.81954e-05
-5.66913e-06
-5.70729e-05
-6.6009e-06
-5.5786e-05
-7.51229e-06
-5.43389e-05
-8.39554e-06
-5.27369e-05
-9.24291e-06
-5.09865e-05
-1.00467e-05
-4.90953e-05
-1.07996e-05
-4.7072e-05
-1.14943e-05
-4.49265e-05
-1.21241e-05
-4.26696e-05
-1.26827e-05
-4.03132e-05
-1.31642e-05
-3.787e-05
-1.35638e-05
-3.53538e-05
-1.38769e-05
-3.27787e-05
-1.41003e-05
-3.01597e-05
-1.42312e-05
-2.75123e-05
-1.42682e-05
-2.48523e-05
-1.42106e-05
-2.21955e-05
-1.40589e-05
-1.9558e-05
-1.38148e-05
-1.69557e-05
-1.34808e-05
-1.4404e-05
-1.30607e-05
-1.19182e-05
-1.25592e-05
-9.51263e-06
-1.19819e-05
-7.20093e-06
-1.13353e-05
-4.99576e-06
-1.06269e-05
-2.90871e-06
-9.86441e-06
-9.50097e-07
-9.05649e-06
8.71089e-07
-8.21194e-06
2.54729e-06
-7.33986e-06
4.07243e-06
-6.44941e-06
5.44199e-06
-5.54971e-06
6.65299e-06
-4.64961e-06
7.70399e-06
-3.75762e-06
8.59509e-06
-2.88177e-06
9.32781e-06
-2.02946e-06
9.90509e-06
-1.20743e-06
1.03311e-05
-4.21642e-07
1.06114e-05
3.22725e-07
1.07523e-05
1.02129e-06
1.07613e-05
1.67045e-06
1.06467e-05
2.26736e-06
1.04175e-05
2.80976e-06
1.00833e-05
3.29598e-06
9.6542e-06
3.72467e-06
9.14075e-06
4.09472e-06
8.5539e-06
4.40503e-06
7.90495e-06
4.65427e-06
7.20553e-06
4.84072e-06
6.46767e-06
4.96204e-06
5.70378e-06
5.01508e-06
4.92682e-06
4.99575e-06
4.15033e-06
4.89898e-06
3.38863e-06
4.71866e-06
2.65706e-06
4.44789e-06
1.97223e-06
4.07919e-06
1.35252e-06
3.60499e-06
8.18728e-07
3.0182e-06
3.95016e-07
2.313e-06
1.10219e-07
1.48546e-06
5.3489e-07
-2.61595e-08
4.92315e-09
-1.0877e-07
1.29021e-07
-2.49649e-07
3.30599e-07
-4.48843e-07
5.8231e-07
-7.05085e-07
8.63249e-07
-1.01616e-06
1.15713e-06
-1.37922e-06
1.45183e-06
-1.79114e-06
1.73886e-06
-2.24867e-06
2.01279e-06
-2.74872e-06
2.27069e-06
-3.28846e-06
2.51162e-06
-3.8655e-06
2.73619e-06
-4.47789e-06
2.94616e-06
-5.12424e-06
3.14406e-06
-5.8037e-06
3.33292e-06