/*--------------------------------*- C++ -*----------------------------------*\
| =========                 |                                                 |
| \\      /  F ield         | OpenFOAM: The Open Source CFD Toolbox           |
|  \\    /   O peration     | Version:  2112                                  |
|   \\  /    A nd           | Website:  www.openfoam.com                      |
|    \\/     M anipulation  |                                                 |
\*---------------------------------------------------------------------------*/
FoamFile
{
    version     2.0;
    format      ascii;
    arch        "LSB;label=32;scalar=64";
    class       volVectorField;
    location    "14";
    object      U;
}
// * * * * * * * * * * * * * * * * * * * * * * * * * * * * * * * * * * * * * //

dimensions      [0 1 -1 0 0 0 0];

internalField   nonuniform List<vector> 
16641
(
(1.75499e-06 -1.81417e-06 0)
(1.13527e-05 -5.82306e-06 0)
(2.82036e-05 -7.26635e-06 0)
(4.5243e-05 -6.81109e-06 0)
(5.87509e-05 -5.35992e-06 0)
(6.69879e-05 -3.48548e-06 0)
(6.91867e-05 -1.51161e-06 0)
(6.52188e-05 3.83569e-07 0)
(5.53456e-05 2.10991e-06 0)
(4.0037e-05 3.63067e-06 0)
(1.98522e-05 4.94039e-06 0)
(-4.63626e-06 6.05425e-06 0)
(-3.2893e-05 6.99674e-06 0)
(-6.44505e-05 7.79763e-06 0)
(-9.8926e-05 8.48947e-06 0)
(-0.00013603 9.10477e-06 0)
(-0.000175569 9.67481e-06 0)
(-0.000217438 1.02277e-05 0)
(-0.000261614 1.0788e-05 0)
(-0.00030815 1.13775e-05 0)
(-0.000357162 1.20134e-05 0)
(-0.000408816 1.27096e-05 0)
(-0.000463319 1.34763e-05 0)
(-0.000520908 1.43207e-05 0)
(-0.00058184 1.52471e-05 0)
(-0.000646382 1.62566e-05 0)
(-0.000714802 1.73489e-05 0)
(-0.000787362 1.85215e-05 0)
(-0.000864315 1.97701e-05 0)
(-0.000945894 2.10893e-05 0)
(-0.00103231 2.24725e-05 0)
(-0.00112375 2.39121e-05 0)
(-0.00122036 2.53994e-05 0)
(-0.00132227 2.69254e-05 0)
(-0.00142955 2.84801e-05 0)
(-0.00154224 3.00522e-05 0)
(-0.00166035 3.16298e-05 0)
(-0.00178382 3.32001e-05 0)
(-0.00191254 3.47489e-05 0)
(-0.00204634 3.62608e-05 0)
(-0.00218502 3.7719e-05 0)
(-0.00232827 3.91053e-05 0)
(-0.00247575 4.04001e-05 0)
(-0.00262701 4.1582e-05 0)
(-0.00278156 4.26279e-05 0)
(-0.00293879 4.35138e-05 0)
(-0.00309804 4.42142e-05 0)
(-0.00325854 4.47026e-05 0)
(-0.00341943 4.49514e-05 0)
(-0.00357977 4.49325e-05 0)
(-0.00373854 4.46181e-05 0)
(-0.00389461 4.39807e-05 0)
(-0.0040468 4.29936e-05 0)
(-0.00419382 4.16318e-05 0)
(-0.00433434 3.98721e-05 0)
(-0.00446696 3.76942e-05 0)
(-0.00459023 3.50813e-05 0)
(-0.00470269 3.2021e-05 0)
(-0.00480283 2.85057e-05 0)
(-0.00488918 2.45332e-05 0)
(-0.00496025 2.01074e-05 0)
(-0.00501463 1.52395e-05 0)
(-0.00505097 9.94966e-06 0)
(-0.00506798 4.26632e-06 0)
(-0.00506452 -1.79311e-06 0)
(-0.00503954 -8.17307e-06 0)
(-0.00499219 -1.48238e-05 0)
(-0.00492179 -2.16892e-05 0)
(-0.00482787 -2.87041e-05 0)
(-0.00471017 -3.57967e-05 0)
(-0.00456869 -4.28887e-05 0)
(-0.00440367 -4.98974e-05 0)
(-0.00421563 -5.67361e-05 0)
(-0.00400535 -6.33159e-05 0)
(-0.0037739 -6.95473e-05 0)
(-0.00352261 -7.53416e-05 0)
(-0.00325309 -8.06134e-05 0)
(-0.00296718 -8.52819e-05 0)
(-0.00266697 -8.92729e-05 0)
(-0.00235477 -9.25205e-05 0)
(-0.00203305 -9.49693e-05 0)
(-0.00170445 -9.65754e-05 0)
(-0.00137171 -9.7308e-05 0)
(-0.00103765 -9.71501e-05 0)
(-0.000705126 -9.60992e-05 0)
(-0.000376968 -9.41681e-05 0)
(-5.59621e-05 -9.13845e-05 0)
(0.000255208 -8.77906e-05 0)
(0.000554 -8.34405e-05 0)
(0.000838052 -7.84028e-05 0)
(0.00110522 -7.27558e-05 0)
(0.00135359 -6.65863e-05 0)
(0.00158154 -5.99881e-05 0)
(0.00178773 -5.30594e-05 0)
(0.00197111 -4.59004e-05 0)
(0.00213095 -3.86114e-05 0)
(0.00226682 -3.12897e-05 0)
(0.0023786 -2.40286e-05 0)
(0.00246645 -1.69147e-05 0)
(0.00253078 -1.00267e-05 0)
(0.00257228 -3.43403e-06 0)
(0.00259183 2.80397e-06 0)
(0.00259052 8.63874e-06 0)
(0.00256957 1.40379e-05 0)
(0.00253033 1.89717e-05 0)
(0.00247426 2.34259e-05 0)
(0.00240285 2.73966e-05 0)
(0.00231763 3.08887e-05 0)
(0.00222013 3.39155e-05 0)
(0.00211184 3.64965e-05 0)
(0.00199423 3.86567e-05 0)
(0.00186871 4.04239e-05 0)
(0.0017366 4.18267e-05 0)
(0.0015992 4.28918e-05 0)
(0.00145771 4.36409e-05 0)
(0.00131335 4.4087e-05 0)
(0.00116729 4.42305e-05 0)
(0.00102077 4.40535e-05 0)
(0.000875116 4.35139e-05 0)
(0.000731836 4.25379e-05 0)
(0.000592698 4.10106e-05 0)
(0.000459845 3.87646e-05 0)
(0.000335915 3.55673e-05 0)
(0.00022417 3.11107e-05 0)
(0.000128594 2.50263e-05 0)
(5.37966e-05 1.69857e-05 0)
(4.45834e-06 7.01827e-06 0)
(-1.58313e-05 -3.58341e-06 0)
(-9.19001e-06 -9.19358e-06 0)
(5.79962e-06 -1.13641e-05 0)
(2.64306e-05 -2.63708e-05 0)
(5.71837e-05 -3.06374e-05 0)
(8.57364e-05 -2.70393e-05 0)
(0.000105125 -1.87388e-05 0)
(0.000111604 -8.02836e-06 0)
(0.000103211 3.57848e-06 0)
(7.93192e-05 1.51196e-05 0)
(4.02265e-05 2.6028e-05 0)
(-1.32059e-05 3.6007e-05 0)
(-7.98223e-05 4.49441e-05 0)
(-0.000158365 5.28496e-05 0)
(-0.00024761 5.98126e-05 0)
(-0.000346455 6.59714e-05 0)
(-0.000453977 7.14907e-05 0)
(-0.000569464 7.65462e-05 0)
(-0.000692421 8.13129e-05 0)
(-0.000822578 8.59553e-05 0)
(-0.000959865 9.06231e-05 0)
(-0.0011044 9.54482e-05 0)
(-0.00125646 0.00010054 0)
(-0.00141646 0.000105988 0)
(-0.00158493 0.00011186 0)
(-0.00176245 0.000118205 0)
(-0.00194969 0.000125052 0)
(-0.00214732 0.000132412 0)
(-0.00235604 0.000140283 0)
(-0.00257652 0.000148647 0)
(-0.00280938 0.000157477 0)
(-0.00305524 0.000166732 0)
(-0.0033146 0.000176366 0)
(-0.00358792 0.00018632 0)
(-0.00387555 0.000196531 0)
(-0.00417774 0.000206928 0)
(-0.00449465 0.000217432 0)
(-0.00482629 0.000227958 0)
(-0.00517255 0.000238414 0)
(-0.00553317 0.0002487 0)
(-0.00590774 0.000258708 0)
(-0.00629569 0.000268323 0)
(-0.00669625 0.000277421 0)
(-0.00710849 0.000285869 0)
(-0.00753127 0.000293528 0)
(-0.00796325 0.000300247 0)
(-0.00840286 0.000305872 0)
(-0.00884833 0.00031024 0)
(-0.00929763 0.000313185 0)
(-0.00974853 0.000314535 0)
(-0.0101986 0.00031412 0)
(-0.010645 0.000311768 0)
(-0.011085 0.000307315 0)
(-0.0115153 0.0003006 0)
(-0.0119327 0.000291476 0)
(-0.0123336 0.000279808 0)
(-0.0127145 0.000265479 0)
(-0.0130715 0.000248395 0)
(-0.0134008 0.000228486 0)
(-0.0136986 0.000205711 0)
(-0.0139609 0.000180064 0)
(-0.0141839 0.000151572 0)
(-0.014364 0.000120305 0)
(-0.0144973 8.63713e-05 0)
(-0.0145808 4.99284e-05 0)
(-0.0146111 1.11788e-05 0)
(-0.0145856 -2.96652e-05 0)
(-0.0145017 -7.22799e-05 0)
(-0.0143576 -0.000116339 0)
(-0.0141518 -0.00016147 0)
(-0.0138833 -0.00020726 0)
(-0.0135518 -0.00025326 0)
(-0.0131575 -0.000298994 0)
(-0.0127013 -0.000343959 0)
(-0.0121847 -0.000387641 0)
(-0.01161 -0.000429515 0)
(-0.0109801 -0.000469059 0)
(-0.0102985 -0.000505762 0)
(-0.00956952 -0.000539131 0)
(-0.00879786 -0.000568704 0)
(-0.00798893 -0.00059406 0)
(-0.00714859 -0.000614825 0)
(-0.00628315 -0.000630683 0)
(-0.00539927 -0.000641385 0)
(-0.0045039 -0.000646752 0)
(-0.00360416 -0.000646684 0)
(-0.00270724 -0.000641162 0)
(-0.00182033 -0.000630247 0)
(-0.000950487 -0.000614087 0)
(-0.000104559 -0.000592906 0)
(0.000710938 -0.000567006 0)
(0.0014899 -0.000536759 0)
(0.00222671 -0.0005026 0)
(0.00291634 -0.000465017 0)
(0.00355439 -0.000424539 0)
(0.00413716 -0.000381726 0)
(0.00466164 -0.000337159 0)
(0.00512561 -0.000291422 0)
(0.00552758 -0.000245095 0)
(0.0058668 -0.000198738 0)
(0.00614326 -0.000152884 0)
(0.00635761 -0.000108028 0)
(0.00651117 -6.46149e-05 0)
(0.00660581 -2.30382e-05 0)
(0.00664395 1.63677e-05 0)
(0.0066284 5.33199e-05 0)
(0.00656237 8.76167e-05 0)
(0.00644936 0.000119109 0)
(0.00629304 0.000147705 0)
(0.00609726 0.000173371 0)
(0.00586591 0.000196119 0)
(0.0056029 0.000216004 0)
(0.00531208 0.000233112 0)
(0.00499726 0.000247546 0)
(0.00466212 0.000259416 0)
(0.00431028 0.000268824 0)
(0.00394526 0.000275841 0)
(0.00357057 0.000280492 0)
(0.00318976 0.000282732 0)
(0.0028065 0.00028242 0)
(0.00242475 0.000279294 0)
(0.00204889 0.000272939 0)
(0.00168387 0.000262767 0)
(0.00133544 0.00024799 0)
(0.00101025 0.000227623 0)
(0.000716034 0.000200538 0)
(0.000461449 0.000165644 0)
(0.000255589 0.000122417 0)
(0.000106575 7.20144e-05 0)
(2.00162e-05 1.98699e-05 0)
(-3.57234e-06 -1.58676e-05 0)
(7.47581e-06 -2.84765e-05 0)
(3.11248e-05 -5.72349e-05 0)
(6.28151e-05 -6.24456e-05 0)
(8.78492e-05 -5.08268e-05 0)
(9.78762e-05 -2.84963e-05 0)
(8.82563e-05 -2.14983e-07 0)
(5.64221e-05 3.05975e-05 0)
(1.44768e-06 6.16158e-05 0)
(-7.63797e-05 9.13698e-05 0)
(-0.000175997 0.000119022 0)
(-0.000295906 0.000144194 0)
(-0.000434432 0.000166833 0)
(-0.000589911 0.000187107 0)
(-0.000760825 0.00020533 0)
(-0.000945889 0.000221899 0)
(-0.0011441 0.000237254 0)
(-0.00135478 0.00025184 0)
(-0.00157753 0.000266087 0)
(-0.00181227 0.000280391 0)
(-0.00205918 0.0002951 0)
(-0.00231869 0.000310513 0)
(-0.00259141 0.000326872 0)
(-0.00287811 0.000344365 0)
(-0.0031797 0.000363123 0)
(-0.00349715 0.000383229 0)
(-0.00383146 0.000404717 0)
(-0.00418367 0.000427578 0)
(-0.00455477 0.000451762 0)
(-0.0049457 0.000477186 0)
(-0.00535731 0.000503737 0)
(-0.00579037 0.00053127 0)
(-0.00624549 0.00055962 0)
(-0.00672314 0.000588593 0)
(-0.00722364 0.000617978 0)
(-0.0077471 0.000647539 0)
(-0.00829344 0.000677021 0)
(-0.00886236 0.000706148 0)
(-0.0094533 0.000734622 0)
(-0.0100655 0.000762124 0)
(-0.0106978 0.000788312 0)
(-0.011349 0.000812824 0)
(-0.0120173 0.000835273 0)
(-0.0127008 0.000855256 0)
(-0.0133972 0.000872349 0)
(-0.0141039 0.000886111 0)
(-0.0148178 0.000896089 0)
(-0.0155356 0.000901823 0)
(-0.0162538 0.000902847 0)
(-0.0169682 0.000898702 0)
(-0.0176745 0.000888934 0)
(-0.018368 0.000873112 0)
(-0.0190439 0.000850828 0)
(-0.0196968 0.000821712 0)
(-0.0203213 0.000785436 0)
(-0.0209119 0.00074173 0)
(-0.0214628 0.000690388 0)
(-0.0219681 0.000631275 0)
(-0.022422 0.000564343 0)
(-0.0228187 0.000489634 0)
(-0.0231526 0.000407289 0)
(-0.0234181 0.000317555 0)
(-0.0236101 0.000220789 0)
(-0.0237238 0.000117457 0)
(-0.0237548 8.14304e-06 0)
(-0.0236992 -0.000106388 0)
(-0.0235537 -0.000225373 0)
(-0.0233157 -0.000347883 0)
(-0.0229834 -0.000472884 0)
(-0.0225557 -0.000599253 0)
(-0.0220324 -0.000725788 0)
(-0.0214141 -0.000851221 0)
(-0.0207025 -0.000974231 0)
(-0.0199001 -0.00109347 0)
(-0.0190104 -0.00120757 0)
(-0.0180378 -0.00131519 0)
(-0.0169878 -0.00141501 0)
(-0.0158667 -0.00150576 0)
(-0.0146815 -0.00158626 0)
(-0.0134401 -0.00165544 0)
(-0.0121512 -0.00171234 0)
(-0.010824 -0.00175616 0)
(-0.00946808 -0.00178626 0)
(-0.00809368 -0.00180217 0)
(-0.00671111 -0.00180363 0)
(-0.00533086 -0.00179057 0)
(-0.00396341 -0.00176314 0)
(-0.00261911 -0.00172168 0)
(-0.00130801 -0.00166676 0)
(-3.97472e-05 -0.00159911 0)
(0.00117659 -0.00151966 0)
(0.00233257 -0.00142949 0)
(0.00342056 -0.00132984 0)
(0.00443376 -0.00122206 0)
(0.00536636 -0.00110756 0)
(0.00621352 -0.000987841 0)
(0.00697147 -0.000864421 0)
(0.00763749 -0.000738813 0)
(0.00820994 -0.000612498 0)
(0.00868824 -0.000486897 0)
(0.00907279 -0.000363345 0)
(0.00936496 -0.000243067 0)
(0.00956702 -0.000127159 0)
(0.009682 -1.65766e-05 0)
(0.00971366 8.78659e-05 0)
(0.00966636 0.000185532 0)
(0.00954494 0.000275933 0)
(0.00935463 0.000358731 0)
(0.00910095 0.000433733 0)
(0.0087896 0.000500873 0)
(0.00842638 0.000560194 0)
(0.00801711 0.000611823 0)
(0.0075676 0.000655941 0)
(0.00708359 0.000692746 0)
(0.00657076 0.000722419 0)
(0.00603476 0.00074507 0)
(0.00548123 0.000760698 0)
(0.00491592 0.000769127 0)
(0.00434481 0.000769958 0)
(0.00377425 0.000762506 0)
(0.00321112 0.000745754 0)
(0.00266308 0.000718315 0)
(0.00213868 0.000678434 0)
(0.00164752 0.000624063 0)
(0.00120026 0.000553079 0)
(0.000808412 0.000463812 0)
(0.000483529 0.00035616 0)
(0.000235507 0.00023355 0)
(7.31239e-05 0.000106698 0)
(7.23287e-06 4.63406e-06 0)
(7.16801e-06 -4.59553e-05 0)
(2.75252e-05 -8.58667e-05 0)
(5.03411e-05 -8.7361e-05 0)
(6.04661e-05 -6.20179e-05 0)
(4.92302e-05 -1.92831e-05 0)
(1.17759e-05 3.34002e-05 0)
(-5.45657e-05 9.04975e-05 0)
(-0.000150722 0.000148138 0)
(-0.00027631 0.000203783 0)
(-0.000430084 0.000255928 0)
(-0.000610303 0.000303846 0)
(-0.000815012 0.000347382 0)
(-0.00104226 0.000386786 0)
(-0.00129028 0.000422577 0)
(-0.00155754 0.000455439 0)
(-0.00184289 0.000486144 0)
(-0.00214552 0.000515485 0)
(-0.00246501 0.000544232 0)
(-0.0028013 0.000573103 0)
(-0.00315465 0.000602735 0)
(-0.00352564 0.000633675 0)
(-0.00391507 0.000666369 0)
(-0.00432394 0.000701164 0)
(-0.00475342 0.000738304 0)
(-0.00520474 0.000777941 0)
(-0.0056792 0.000820133 0)
(-0.0061781 0.000864857 0)
(-0.0067027 0.000912016 0)
(-0.00725416 0.000961444 0)
(-0.00783356 0.00101291 0)
(-0.0084418 0.00106614 0)
(-0.0090796 0.00112078 0)
(-0.0097475 0.00117647 0)
(-0.0104458 0.00123277 0)
(-0.0111744 0.00128921 0)
(-0.0119332 0.00134529 0)
(-0.0127216 0.00140045 0)
(-0.0135387 0.0014541 0)
(-0.0143831 0.0015056 0)
(-0.0152534 0.00155429 0)
(-0.0161474 0.00159945 0)
(-0.0170629 0.00164033 0)
(-0.0179968 0.00167615 0)
(-0.018946 0.00170608 0)
(-0.0199067 0.0017293 0)
(-0.0208747 0.00174494 0)
(-0.0218455 0.00175215 0)
(-0.0228139 0.00175005 0)
(-0.0237746 0.00173782 0)
(-0.0247215 0.00171462 0)
(-0.0256485 0.00167969 0)
(-0.0265489 0.00163232 0)
(-0.0274158 0.00157187 0)
(-0.0282422 0.00149779 0)
(-0.0290207 0.00140965 0)
(-0.0297438 0.00130716 0)
(-0.0304041 0.00119014 0)
(-0.0309942 0.0010586 0)
(-0.0315067 0.000912709 0)
(-0.0319347 0.000752815 0)
(-0.0322714 0.000579469 0)
(-0.0325103 0.000393418 0)
(-0.0326458 0.000195609 0)
(-0.0326724 -1.28024e-05 0)
(-0.0325857 -0.000230396 0)
(-0.0323819 -0.000455677 0)
(-0.0320582 -0.0006869 0)
(-0.0316124 -0.000922146 0)
(-0.0310436 -0.00115935 0)
(-0.0303519 -0.00139631 0)
(-0.0295385 -0.00163073 0)
(-0.0286057 -0.00186022 0)
(-0.0275568 -0.00208236 0)
(-0.0263965 -0.00229473 0)
(-0.0251305 -0.00249491 0)
(-0.0237656 -0.00268057 0)
(-0.0223097 -0.00284946 0)
(-0.0207717 -0.00299951 0)
(-0.0191614 -0.00312881 0)
(-0.0174894 -0.00323567 0)
(-0.0157671 -0.00331866 0)
(-0.0140066 -0.00337665 0)
(-0.0122202 -0.00340879 0)
(-0.0104208 -0.00341461 0)
(-0.00862123 -0.00339394 0)
(-0.00683461 -0.00334702 0)
(-0.00507375 -0.0032744 0)
(-0.00335123 -0.00317703 0)
(-0.00167916 -0.00305617 0)
(-6.905e-05 -0.00291342 0)
(0.00146835 -0.00275064 0)
(0.00292315 -0.00256998 0)
(0.00428649 -0.00237379 0)
(0.00555059 -0.00216459 0)
(0.00670886 -0.00194501 0)
(0.00775595 -0.00171776 0)
(0.00868781 -0.00148556 0)
(0.00950167 -0.00125109 0)
(0.0101961 -0.00101695 0)
(0.0107708 -0.000785601 0)
(0.0112268 -0.000559331 0)
(0.0115662 -0.000340217 0)
(0.0117923 -0.000130098 0)
(0.0119091 6.94537e-05 0)
(0.0119215 0.000257126 0)
(0.0118353 0.00043189 0)
(0.0116567 0.000592987 0)
(0.0113923 0.000739913 0)
(0.0110492 0.000872396 0)
(0.0106346 0.000990365 0)
(0.010156 0.0010939 0)
(0.00962081 0.0011832 0)
(0.00903651 0.00125848 0)
(0.00841063 0.00131997 0)
(0.00775068 0.00136775 0)
(0.00706425 0.00140175 0)
(0.00635908 0.00142159 0)
(0.00564321 0.00142655 0)
(0.00492508 0.00141544 0)
(0.00421374 0.00138654 0)
(0.00351901 0.00133761 0)
(0.00285164 0.00126589 0)
(0.00222338 0.00116828 0)
(0.00164696 0.00104178 0)
(0.00113592 0.000884278 0)
(0.000703713 0.000696108 0)
(0.000362284 0.000482479 0)
(0.000125428 0.000257553 0)
(1.76246e-05 5.50037e-05 0)
(5.7109e-06 -5.98427e-05 0)
(1.82722e-05 -0.000104336 0)
(2.44939e-05 -9.54279e-05 0)
(1.05588e-05 -4.96804e-05 0)
(-3.16837e-05 2.00188e-05 0)
(-0.000106832 0.000103516 0)
(-0.000217272 0.000193174 0)
(-0.000363648 0.000283559 0)
(-0.000545331 0.000371042 0)
(-0.000760838 0.000453424 0)
(-0.0010082 0.000529617 0)
(-0.00128524 0.000599361 0)
(-0.00158983 0.000663001 0)
(-0.00192001 0.00072129 0)
(-0.00227416 0.00077524 0)
(-0.00265103 0.000826003 0)
(-0.0030498 0.000874773 0)
(-0.00347006 0.000922719 0)
(-0.00391184 0.000970931 0)
(-0.00437553 0.00102038 0)
(-0.00486184 0.00107192 0)
(-0.0053718 0.00112622 0)
(-0.00590662 0.00118381 0)
(-0.00646771 0.00124508 0)
(-0.00705655 0.00131024 0)
(-0.0076747 0.00137939 0)
(-0.00832367 0.00145246 0)
(-0.00900495 0.00152929 0)
(-0.0097199 0.00160961 0)
(-0.0104697 0.00169303 0)
(-0.0112554 0.00177907 0)
(-0.0120778 0.00186718 0)
(-0.0129373 0.00195672 0)
(-0.0138343 0.00204698 0)
(-0.0147684 0.00213719 0)
(-0.0157393 0.00222649 0)
(-0.0167461 0.00231397 0)
(-0.0177874 0.00239865 0)
(-0.0188614 0.00247948 0)
(-0.019966 0.00255536 0)
(-0.0210985 0.00262513 0)
(-0.0222555 0.00268756 0)
(-0.0234334 0.0027414 0)
(-0.0246279 0.00278533 0)
(-0.0258342 0.00281803 0)
(-0.0270468 0.00283815 0)
(-0.0282601 0.00284433 0)
(-0.0294674 0.00283525 0)
(-0.0306621 0.00280961 0)
(-0.0318367 0.00276618 0)
(-0.0329836 0.00270382 0)
(-0.0340946 0.00262148 0)
(-0.0351615 0.00251825 0)
(-0.0361755 0.00239339 0)
(-0.0371279 0.00224632 0)
(-0.0380098 0.0020767 0)
(-0.0388126 0.00188439 0)
(-0.0395275 0.00166951 0)
(-0.040146 0.00143247 0)
(-0.04066 0.00117394 0)
(-0.0410618 0.000894883 0)
(-0.0413442 0.000596583 0)
(-0.0415007 0.00028062 0)
(-0.0415254 -5.11222e-05 0)
(-0.0414135 -0.000396499 0)
(-0.0411609 -0.000753023 0)
(-0.0407645 -0.00111798 0)
(-0.0402224 -0.0014884 0)
(-0.0395338 -0.00186112 0)
(-0.0386991 -0.00223278 0)
(-0.0377198 -0.00259988 0)
(-0.0365989 -0.00295883 0)
(-0.0353406 -0.00330597 0)
(-0.0339501 -0.00363766 0)
(-0.0324344 -0.00395031 0)
(-0.0308011 -0.00424042 0)
(-0.0290595 -0.00450465 0)
(-0.0272196 -0.00473991 0)
(-0.0252928 -0.00494333 0)
(-0.0232911 -0.00511242 0)
(-0.0212275 -0.00524501 0)
(-0.0191157 -0.0053394 0)
(-0.0169699 -0.0053943 0)
(-0.0148046 -0.00540893 0)
(-0.0126348 -0.00538302 0)
(-0.0104754 -0.00531683 0)
(-0.00834118 -0.00521113 0)
(-0.00624679 -0.00506722 0)
(-0.00420633 -0.00488691 0)
(-0.00223335 -0.00467249 0)
(-0.000340604 -0.00442668 0)
(0.00146007 -0.0041526 0)
(0.00315788 -0.0038537 0)
(0.00474323 -0.0035337 0)
(0.00620782 -0.00319653 0)
(0.00754469 -0.00284624 0)
(0.00874833 -0.00248693 0)
(0.00981467 -0.00212268 0)
(0.0107411 -0.00175746 0)
(0.0115266 -0.00139509 0)
(0.0121712 -0.00103912 0)
(0.0126768 -0.00069286 0)
(0.0130461 -0.000359242 0)
(0.0132832 -4.08444e-05 0)
(0.0133933 0.000260149 0)
(0.0133822 0.000541962 0)
(0.0132569 0.000803222 0)
(0.0130247 0.00104294 0)
(0.0126937 0.00126047 0)
(0.0122721 0.0014555 0)
(0.0117687 0.00162793 0)
(0.0111922 0.00177786 0)
(0.0105516 0.00190546 0)
(0.00985595 0.00201088 0)
(0.00911449 0.00209415 0)
(0.00833649 0.00215504 0)
(0.00753147 0.00219294 0)
(0.00670926 0.00220675 0)
(0.00588013 0.00219476 0)
(0.00505496 0.00215458 0)
(0.00424536 0.0020831 0)
(0.00346383 0.00197664 0)
(0.00272381 0.00183114 0)
(0.0020397 0.00164278 0)
(0.00142675 0.0014089 0)
(0.000900465 0.00112979 0)
(0.000475355 0.000811121 0)
(0.00017114 0.000467678 0)
(2.62302e-05 0.000132108 0)
(3.5964e-06 -6.77244e-05 0)
(5.19079e-06 -0.000107239 0)
(-1.11437e-05 -7.94729e-05 0)
(-5.64864e-05 -5.59514e-06 0)
(-0.000137788 9.81642e-05 0)
(-0.000258984 0.00021903 0)
(-0.000421834 0.000347365 0)
(-0.000626467 0.000476249 0)
(-0.000871838 0.000601021 0)
(-0.00115614 0.000718837 0)
(-0.00147713 0.000828283 0)
(-0.00183246 0.000929035 0)
(-0.00221982 0.00102157 0)
(-0.00263717 0.00110691 0)
(-0.00308284 0.00118645 0)
(-0.00355557 0.00126177 0)
(-0.0040546 0.00133449 0)
(-0.0045796 0.00140625 0)
(-0.00513073 0.00147853 0)
(-0.00570855 0.0015527 0)
(-0.00631397 0.0016299 0)
(-0.00694822 0.0017111 0)
(-0.00761276 0.00179703 0)
(-0.00830922 0.00188818 0)
(-0.00903934 0.00198487 0)
(-0.0098049 0.0020872 0)
(-0.0106076 0.00219506 0)
(-0.0114492 0.00230819 0)
(-0.0123311 0.00242616 0)
(-0.0132547 0.00254838 0)
(-0.014221 0.00267416 0)
(-0.0152308 0.00280264 0)
(-0.0162846 0.00293287 0)
(-0.0173824 0.00306378 0)
(-0.0185239 0.00319421 0)
(-0.0197083 0.00332288 0)
(-0.0209343 0.00344843 0)
(-0.0222002 0.0035694 0)
(-0.0235037 0.00368424 0)
(-0.0248417 0.00379132 0)
(-0.026211 0.00388892 0)
(-0.0276075 0.00397527 0)
(-0.0290264 0.00404853 0)
(-0.0304625 0.00410682 0)
(-0.03191 0.00414824 0)
(-0.0333622 0.00417085 0)
(-0.0348122 0.00417278 0)
(-0.0362522 0.00415216 0)
(-0.0376742 0.00410721 0)
(-0.0390694 0.00403626 0)
(-0.0404288 0.00393777 0)
(-0.0417431 0.00381038 0)
(-0.0430025 0.00365291 0)
(-0.0441972 0.00346445 0)
(-0.0453171 0.00324435 0)
(-0.0463523 0.00299226 0)
(-0.0472928 0.00270816 0)
(-0.0481291 0.00239239 0)
(-0.0488517 0.00204567 0)
(-0.0494516 0.0016691 0)
(-0.0499205 0.00126421 0)
(-0.0502506 0.000832902 0)
(-0.0504349 0.000377516 0)
(-0.0504672 -9.92186e-05 0)
(-0.0503423 -0.000594211 0)
(-0.0500559 -0.00110395 0)
(-0.0496051 -0.00162462 0)
(-0.0489878 -0.00215207 0)
(-0.0482036 -0.00268192 0)
(-0.0472528 -0.00320952 0)
(-0.0461376 -0.00373009 0)
(-0.0448612 -0.00423871 0)
(-0.0434283 -0.0047304 0)
(-0.0418449 -0.00520021 0)
(-0.0401183 -0.00564326 0)
(-0.0382572 -0.0060548 0)
(-0.0362715 -0.00643032 0)
(-0.0341722 -0.0067656 0)
(-0.0319716 -0.00705678 0)
(-0.0296828 -0.00730041 0)
(-0.02732 -0.00749357 0)
(-0.0248981 -0.00763386 0)
(-0.0224325 -0.00771948 0)
(-0.0199393 -0.0077493 0)
(-0.0174349 -0.00772285 0)
(-0.0149357 -0.00764035 0)
(-0.0124581 -0.00750274 0)
(-0.0100186 -0.00731165 0)
(-0.00763284 -0.0070694 0)
(-0.00531625 -0.00677895 0)
(-0.00308339 -0.00644388 0)
(-0.000947899 -0.00606831 0)
(0.00107763 -0.00565682 0)
(0.00298183 -0.00521441 0)
(0.00475466 -0.00474636 0)
(0.00638753 -0.00425817 0)
(0.00787335 -0.00375546 0)
(0.00920661 -0.00324383 0)
(0.0103834 -0.0027288 0)
(0.0114015 -0.00221569 0)
(0.0122601 -0.00170957 0)
(0.0129601 -0.00121511 0)
(0.0135037 -0.000736592 0)
(0.0138946 -0.000277788 0)
(0.0141377 0.000158029 0)
(0.014239 0.000568129 0)
(0.0142055 0.000950326 0)
(0.0140451 0.00130295 0)
(0.0137663 0.00162482 0)
(0.0133783 0.00191519 0)
(0.0128907 0.00217366 0)
(0.0123134 0.00240009 0)
(0.0116565 0.00259447 0)
(0.0109306 0.0027568 0)
(0.0101461 0.00288697 0)
(0.00931393 0.00298453 0)
(0.00844516 0.00304859 0)
(0.00755119 0.00307768 0)
(0.00664387 0.00306955 0)
(0.00573564 0.00302115 0)
(0.00483967 0.00292861 0)
(0.00396994 0.00278732 0)
(0.00314133 0.00259233 0)
(0.00236977 0.00233888 0)
(0.00167228 0.00202349 0)
(0.00106655 0.00164562 0)
(0.000570089 0.00120992 0)
(0.00020857 0.000729275 0)
(3.29011e-05 0.000231463 0)
(1.09151e-06 -6.79799e-05 0)
(-1.05564e-05 -9.04637e-05 0)
(-5.40446e-05 -3.36973e-05 0)
(-0.000136701 7.70906e-05 0)
(-0.000263739 0.000222589 0)
(-0.000438071 0.00038762 0)
(-0.00066055 0.000560712 0)
(-0.000930555 0.000733613 0)
(-0.00124647 0.000900756 0)
(-0.00160605 0.00105875 0)
(-0.00200675 0.00120596 0)
(-0.00244598 0.00134206 0)
(-0.00292134 0.00146772 0)
(-0.0034307 0.00158431 0)
(-0.00397241 0.00169363 0)
(-0.00454527 0.00179774 0)
(-0.00514861 0.00189878 0)
(-0.00578227 0.00199882 0)
(-0.00644659 0.00209984 0)
(-0.00714232 0.00220358 0)
(-0.00787063 0.00231154 0)
(-0.00863298 0.00242496 0)
(-0.00943109 0.00254477 0)
(-0.0102668 0.00267161 0)
(-0.0111422 0.00280586 0)
(-0.0120592 0.00294761 0)
(-0.0130198 0.00309669 0)
(-0.0140257 0.00325271 0)
(-0.0150787 0.00341503 0)
(-0.0161801 0.00358285 0)
(-0.017331 0.00375513 0)
(-0.0185322 0.00393072 0)
(-0.019784 0.00410825 0)
(-0.0210862 0.00428623 0)
(-0.0224385 0.00446302 0)
(-0.0238395 0.00463686 0)
(-0.0252876 0.00480583 0)
(-0.0267805 0.00496791 0)
(-0.0283154 0.00512095 0)
(-0.0298886 0.00526271 0)
(-0.031496 0.00539084 0)
(-0.0331326 0.00550291 0)
(-0.0347929 0.00559644 0)
(-0.0364705 0.00566889 0)
(-0.0381586 0.00571771 0)
(-0.0398495 0.00574037 0)
(-0.041535 0.00573437 0)
(-0.0432062 0.00569731 0)
(-0.0448539 0.0056269 0)
(-0.046468 0.00552101 0)
(-0.0480385 0.00537771 0)
(-0.0495547 0.00519535 0)
(-0.0510058 0.00497253 0)
(-0.0523808 0.00470822 0)
(-0.0536687 0.00440173 0)
(-0.0548585 0.00405281 0)
(-0.0559395 0.00366162 0)
(-0.0569012 0.00322881 0)
(-0.0577334 0.00275552 0)
(-0.0584267 0.00224337 0)
(-0.0589719 0.00169452 0)
(-0.059361 0.00111164 0)
(-0.0595865 0.000497903 0)
(-0.059642 -0.000143011 0)
(-0.059522 -0.000806984 0)
(-0.0592221 -0.00148939 0)
(-0.0587393 -0.00218521 0)
(-0.0580715 -0.00288906 0)
(-0.0572182 -0.00359525 0)
(-0.0561801 -0.00429781 0)
(-0.0549593 -0.00499057 0)
(-0.0535593 -0.00566722 0)
(-0.051985 -0.00632142 0)
(-0.0502427 -0.00694681 0)
(-0.0483401 -0.00753718 0)
(-0.0462864 -0.00808647 0)
(-0.0440918 -0.0085889 0)
(-0.041768 -0.00903908 0)
(-0.039328 -0.00943203 0)
(-0.0367855 -0.00976333 0)
(-0.0341556 -0.0100292 0)
(-0.0314541 -0.0102263 0)
(-0.0286974 -0.0103525 0)
(-0.0259028 -0.0104061 0)
(-0.0230877 -0.0103863 0)
(-0.02027 -0.0102932 0)
(-0.0174676 -0.0101279 0)
(-0.0146982 -0.0098922 0)
(-0.0119793 -0.00958894 0)
(-0.00932798 -0.00922167 0)
(-0.00676042 -0.0087948 0)
(-0.00429206 -0.00831341 0)
(-0.00193728 -0.00778324 0)
(0.000290776 -0.00721057 0)
(0.00238029 -0.00660209 0)
(0.00432093 -0.00596481 0)
(0.00610395 -0.00530592 0)
(0.00772227 -0.00463269 0)
(0.00917051 -0.0039523 0)
(0.010445 -0.00327175 0)
(0.0115439 -0.00259772 0)
(0.0124669 -0.00193649 0)
(0.0132155 -0.00129383 0)
(0.0137927 -0.000674936 0)
(0.0142028 -8.43679e-05 0)
(0.0144517 0.000473986 0)
(0.0145463 0.000996924 0)
(0.0144946 0.0014819 0)
(0.0143055 0.001927 0)
(0.0139886 0.00233087 0)
(0.0135543 0.00269264 0)
(0.0130134 0.00301178 0)
(0.012377 0.00328799 0)
(0.0116568 0.00352101 0)
(0.0108645 0.00371047 0)
(0.0100122 0.00385567 0)
(0.00911256 0.0039554 0)
(0.00817821 0.00400777 0)
(0.00722248 0.00401005 0)
(0.00625918 0.00395853 0)
(0.00530285 0.00384859 0)
(0.00436882 0.00367476 0)
(0.00347336 0.0034311 0)
(0.00263391 0.00311176 0)
(0.0018693 0.00271199 0)
(0.00119957 0.00222962 0)
(0.000645328 0.00166693 0)
(0.000237687 0.00103296 0)
(3.78439e-05 0.000348343 0)
(-1.67591e-06 -5.94776e-05 0)
(-2.82483e-05 -5.08629e-05 0)
(-0.000102474 4.65599e-05 0)
(-0.000227241 0.000204053 0)
(-0.000405588 0.000399599 0)
(-0.000639102 0.000615904 0)
(-0.000927474 0.000839905 0)
(-0.00126913 0.00106223 0)
(-0.00166173 0.00127657 0)
(-0.00210249 0.00147917 0)
(-0.0025885 0.00166827 0)
(-0.00311692 0.00184368 0)
(-0.0036852 0.00200634 0)
(-0.00429122 0.00215803 0)
(-0.00493334 0.00230106 0)
(-0.00561047 0.00243801 0)
(-0.00632212 0.00257153 0)
(-0.00706833 0.00270426 0)
(-0.00784965 0.00283861 0)
(-0.00866713 0.00297677 0)
(-0.00952218 0.0031206 0)
(-0.0104166 0.0032716 0)
(-0.0113523 0.00343093 0)
(-0.0123315 0.00359935 0)
(-0.0133564 0.00377728 0)
(-0.0144292 0.00396479 0)
(-0.0155521 0.0041616 0)
(-0.0167271 0.00436715 0)
(-0.0179559 0.00458058 0)
(-0.01924 0.00480076 0)
(-0.0205804 0.00502632 0)
(-0.0219779 0.00525568 0)
(-0.0234326 0.00548704 0)
(-0.0249443 0.00571838 0)
(-0.026512 0.00594752 0)
(-0.0281343 0.00617211 0)
(-0.0298091 0.0063896 0)
(-0.0315335 0.00659734 0)
(-0.0333041 0.00679248 0)
(-0.0351165 0.00697209 0)
(-0.0369658 0.00713311 0)
(-0.0388462 0.00727237 0)
(-0.0407512 0.00738669 0)
(-0.0426736 0.0074728 0)
(-0.0446054 0.00752748 0)
(-0.0465379 0.00754752 0)
(-0.0484619 0.00752981 0)
(-0.0503673 0.00747136 0)
(-0.0522437 0.00736939 0)
(-0.0540802 0.00722132 0)
(-0.0558655 0.00702487 0)
(-0.0575879 0.00677811 0)
(-0.0592356 0.00647949 0)
(-0.0607968 0.00612788 0)
(-0.0622595 0.00572267 0)
(-0.0636119 0.00526372 0)
(-0.0648426 0.0047515 0)
(-0.0659403 0.00418702 0)
(-0.0668945 0.0035719 0)
(-0.0676949 0.0029084 0)
(-0.0683321 0.00219938 0)
(-0.0687976 0.00144833 0)
(-0.0690835 0.000659342 0)
(-0.0691831 -0.000162903 0)
(-0.0690907 -0.00101321 0)
(-0.0688017 -0.00188577 0)
(-0.0683128 -0.00277433 0)
(-0.0676219 -0.00367224 0)
(-0.0667283 -0.00457243 0)
(-0.0656324 -0.00546758 0)
(-0.0643365 -0.00635009 0)
(-0.0628439 -0.00721225 0)
(-0.0611595 -0.00804628 0)
(-0.0592897 -0.00884439 0)
(-0.0572423 -0.00959896 0)
(-0.0550264 -0.0103026 0)
(-0.0526527 -0.0109481 0)
(-0.0501331 -0.0115289 0)
(-0.0474808 -0.0120389 0)
(-0.0447103 -0.0124724 0)
(-0.0418369 -0.0128248 0)
(-0.0388774 -0.0130919 0)
(-0.0358489 -0.0132706 0)
(-0.0327695 -0.0133589 0)
(-0.029658 -0.0133556 0)
(-0.0265333 -0.0132604 0)
(-0.0234145 -0.0130745 0)
(-0.0203211 -0.0127999 0)
(-0.0172718 -0.0124396 0)
(-0.0142855 -0.0119979 0)
(-0.01138 -0.0114799 0)
(-0.00857262 -0.0108915 0)
(-0.00587956 -0.0102397 0)
(-0.00331582 -0.00953203 0)
(-0.000895085 -0.00877657 0)
(0.00137048 -0.00798189 0)
(0.00347033 -0.00715685 0)
(0.00539565 -0.00631043 0)
(0.00713944 -0.00545159 0)
(0.00869653 -0.00458913 0)
(0.0100636 -0.00373152 0)
(0.0112393 -0.00288679 0)
(0.0122239 -0.0020624 0)
(0.0130196 -0.00126514 0)
(0.01363 -0.000501056 0)
(0.0140605 0.000224604 0)
(0.0143178 0.000907396 0)
(0.0144098 0.00154371 0)
(0.0143456 0.00213071 0)
(0.014135 0.00266624 0)
(0.013789 0.00314879 0)
(0.0133191 0.00357729 0)
(0.0127372 0.00395099 0)
(0.0120559 0.00426926 0)
(0.0112881 0.00453138 0)
(0.0104471 0.00473633 0)
(0.00954659 0.00488253 0)
(0.00860064 0.00496767 0)
(0.00762379 0.0049885 0)
(0.00663115 0.0049407 0)
(0.00563852 0.00481889 0)
(0.00466254 0.00461672 0)
(0.00372085 0.00432713 0)
(0.00283242 0.00394297 0)
(0.00201796 0.00345777 0)
(0.00129984 0.00286698 0)
(0.000701641 0.00216949 0)
(0.000259094 0.00136919 0)
(4.13236e-05 0.000478347 0)
(-4.63066e-06 -4.13874e-05 0)
(-4.74323e-05 1.40149e-05 0)
(-0.000155277 0.000165041 0)
(-0.000326111 0.000379983 0)
(-0.000560456 0.000634521 0)
(-0.000858329 0.00090958 0)
(-0.00121804 0.0011908 0)
(-0.00163688 0.00146793 0)
(-0.00211165 0.00173417 0)
(-0.00263893 0.00198558 0)
(-0.00321537 0.00222044 0)
(-0.00383785 0.00243881 0)
(-0.0045037 0.00264207 0)
(-0.00521076 0.00283248 0)
(-0.00595748 0.00301293 0)
(-0.00674293 0.00318657 0)
(-0.00756681 0.00335667 0)
(-0.00842942 0.00352639 0)
(-0.00933161 0.00369868 0)
(-0.0102747 0.00387615 0)
(-0.0112605 0.00406102 0)
(-0.012291 0.0042551 0)
(-0.0133686 0.00445971 0)
(-0.0144957 0.00467575 0)
(-0.0156748 0.00490365 0)
(-0.0169083 0.00514342 0)
(-0.0181986 0.00539464 0)
(-0.0195479 0.00565653 0)
(-0.020958 0.00592795 0)
(-0.0224304 0.0062074 0)
(-0.0239661 0.00649311 0)
(-0.0255658 0.006783 0)
(-0.0272296 0.00707475 0)
(-0.0289568 0.00736576 0)
(-0.0307464 0.00765322 0)
(-0.0325963 0.0079341 0)
(-0.0345041 0.00820518 0)
(-0.0364663 0.00846303 0)
(-0.0384788 0.00870407 0)
(-0.0405367 0.00892459 0)
(-0.0426341 0.00912073 0)
(-0.0447646 0.00928857 0)
(-0.0469206 0.00942411 0)
(-0.0490941 0.00952335 0)
(-0.051276 0.00958233 0)
(-0.0534566 0.00959715 0)