/*--------------------------------*- C++ -*----------------------------------*\
| =========                 |                                                 |
| \\      /  F ield         | OpenFOAM: The Open Source CFD Toolbox           |
|  \\    /   O peration     | Version:  2112                                  |
|   \\  /    A nd           | Website:  www.openfoam.com                      |
|    \\/     M anipulation  |                                                 |
\*---------------------------------------------------------------------------*/
FoamFile
{
    version     2.0;
    format      ascii;
    arch        "LSB;label=32;scalar=64";
    class       volScalarField;
    location    "27";
    object      p;
}
// * * * * * * * * * * * * * * * * * * * * * * * * * * * * * * * * * * * * * //

dimensions      [0 2 -2 0 0 0 0];

internalField   nonuniform List<scalar> 
16641
(
6.43224e-07
1.42499e-05
2.68429e-05
3.41924e-05
3.31059e-05
2.19863e-05
3.75612e-07
-3.15387e-05
-7.3218e-05
-0.000123943
-0.000182924
-0.000249376
-0.000322565
-0.000401842
-0.000486669
-0.000576627
-0.000671416
-0.000770853
-0.000874862
-0.000983463
-0.00109676
-0.00121489
-0.00133807
-0.00146651
-0.00160042
-0.00174001
-0.00188544
-0.00203684
-0.00219428
-0.00235775
-0.00252717
-0.00270236
-0.00288307
-0.00306893
-0.00325946
-0.00345408
-0.0036521
-0.00385268
-0.00405487
-0.0042576
-0.00445966
-0.00465972
-0.00485631
-0.00504785
-0.00523267
-0.00540897
-0.00557487
-0.00572846
-0.00586774
-0.00599072
-0.00609542
-0.00617987
-0.00624221
-0.00628067
-0.00629364
-0.00627967
-0.00623756
-0.00616637
-0.00606545
-0.00593449
-0.00577356
-0.00558311
-0.00536403
-0.00511764
-0.00484571
-0.00455049
-0.00423461
-0.00390112
-0.00355372
-0.00319624
-0.00283292
-0.0024683
-0.00210713
-0.00175429
-0.00141477
-0.00109351
-0.000795341
-0.000524894
-0.000286502
-8.41006e-05
7.88562e-05
0.000199476
0.000275499
0.000305356
0.000288209
0.000223977
0.000113338
-4.22769e-05
-0.00024072
-0.000479178
-0.000754306
-0.0010621
-0.00139828
-0.00175822
-0.00213707
-0.00252993
-0.00293191
-0.00333823
-0.00374438
-0.00414611
-0.00453958
-0.00492135
-0.00528846
-0.00563845
-0.00596932
-0.00627957
-0.00656816
-0.00683448
-0.00707829
-0.00729972
-0.00749917
-0.00767726
-0.00783482
-0.00797277
-0.0080921
-0.00819384
-0.00827895
-0.00834835
-0.00840285
-0.00844316
-0.0084699
-0.00848363
-0.00848501
-0.00847488
-0.00845465
-0.0084267
-0.00839502
-0.00836553
-0.0083474
-1.20194e-05
1.29139e-06
1.0068e-05
1.30579e-05
8.79679e-06
-3.9897e-06
-2.58339e-05
-5.67394e-05
-9.64003e-05
-0.00014433
-0.000199944
-0.000262627
-0.000331785
-0.000406882
-0.00048746
-0.000573155
-0.000663701
-0.000758929
-0.000858762
-0.000963204
-0.00107233
-0.00118626
-0.00130515
-0.0014292
-0.00155858
-0.00169346
-0.001834
-0.0019803
-0.00213242
-0.00229034
-0.002454
-0.00262324
-0.00279782
-0.00297741
-0.00316156
-0.00334975
-0.00354132
-0.0037355
-0.00393141
-0.00412803
-0.00432423
-0.00451876
-0.00471023
-0.00489715
-0.00507791
-0.00525082
-0.00541407
-0.00556583
-0.00570419
-0.00582723
-0.00593301
-0.00601967
-0.00608537
-0.00612838
-0.00614713
-0.0061402
-0.00610639
-0.00604475
-0.00595461
-0.00583565
-0.00568785
-0.00551164
-0.0053078
-0.00507757
-0.00482262
-0.0045451
-0.00424754
-0.00393281
-0.00360435
-0.00326593
-0.00292162
-0.00257576
-0.00223293
-0.00189783
-0.00157525
-0.00126995
-0.000986598
-0.000729642
-0.000503258
-0.000311236
-0.000156902
-4.30367e-05
2.81903e-05
5.52744e-05
3.74175e-05
-2.54501e-05
-0.000132664
-0.000282843
-0.000473915
-0.000703175
-0.000967356
-0.00126272
-0.00158509
-0.00193004
-0.00229297
-0.00266919
-0.00305404
-0.00344299
-0.00383175
-0.0042163
-0.00459301
-0.00495862
-0.00531037
-0.00564591
-0.00596338
-0.00626137
-0.00653889
-0.00679537
-0.00703059
-0.00724465
-0.00743791
-0.00761096
-0.00776453
-0.0078995
-0.00801679
-0.00811735
-0.00820212
-0.008272
-0.00832782
-0.00837033
-0.00840025
-0.00841831
-0.00842527
-0.00842215
-0.00841031
-0.00839179
-0.00836964
-0.00834751
-0.00832928
-2.42143e-05
-7.19747e-06
1.53172e-06
3.11288e-06
-2.42633e-06
-1.5967e-05
-3.79079e-05
-6.82322e-05
-0.000106691
-0.000152883
-0.000206316
-0.000266462
-0.000332807
-0.000404881
-0.000482283
-0.000564682
-0.000651845
-0.000743621
-0.000839943
-0.000940817
-0.00104631
-0.00115654
-0.00127166
-0.00139183
-0.00151724
-0.00164805
-0.0017844
-0.0019264
-0.00207411
-0.00222753
-0.00238661
-0.00255122
-0.00272114
-0.00289608
-0.00307563
-0.00325931
-0.00344651
-0.00363651
-0.0038285
-0.00402151
-0.00421447
-0.00440618
-0.00459532
-0.00478046
-0.00496005
-0.00513243
-0.00529588
-0.00544856
-0.00558863
-0.00571419
-0.00582333
-0.00591417
-0.0059849
-0.00603378
-0.00605922
-0.00605977
-0.0060342
-0.00598152
-0.00590101
-0.00579226
-0.00565524
-0.00549025
-0.00529803
-0.0050797
-0.0048369
-0.00457172
-0.00428622
-0.00398376
-0.00366741
-0.00334083
-0.00300802
-0.00267326
-0.00234102
-0.00201593
-0.00170271
-0.00140605
-0.00113055
-0.000880606
-0.000660351
-0.000473529
-0.000323429
-0.000212804
-0.000143803
-0.000117915
-0.000135931
-0.00019792
-0.000303224
-0.000450476
-0.000637628
-0.000862008
-0.00112039
-0.00140905
-0.00172393
-0.00206065
-0.00241467
-0.0027814
-0.00315628
-0.00353489
-0.00391303
-0.00428683
-0.00465274
-0.00500766
-0.00534891
-0.00567426
-0.00598195
-0.00627067
-0.00653951
-0.00678795
-0.00701582
-0.00722327
-0.00741067
-0.00757862
-0.00772786
-0.00785926
-0.00797373
-0.00807221
-0.00815564
-0.00822492
-0.00828088
-0.00832431
-0.00835596
-0.00837654
-0.00838683
-0.00838772
-0.00838033
-0.00836622
-0.00834755
-0.00832546
-0.00829963
-3.14284e-05
-1.00193e-05
1.89468e-08
1.48443e-06
-4.47384e-06
-1.83637e-05
-4.03799e-05
-7.03959e-05
-0.000108127
-0.000153177
-0.000205083
-0.000263356
-0.000327526
-0.000397162
-0.000471897
-0.000551443
-0.000635585
-0.000724196
-0.000817228
-0.000914701
-0.0010167
-0.00112333
-0.00123478
-0.0013512
-0.00147279
-0.00159972
-0.00173214
-0.00187018
-0.00201391
-0.00216337
-0.00231852
-0.00247927
-0.00264544
-0.00281677
-0.00299291
-0.00317342
-0.00335775
-0.00354524
-0.00373512
-0.00392648
-0.00411831
-0.00430947
-0.00449866
-0.00468451
-0.0048655
-0.00504
-0.0052063
-0.00536259
-0.00550701
-0.00563766
-0.0057526
-0.00584995
-0.00592783
-0.00598448
-0.00601822
-0.00602757
-0.00601121
-0.00596808
-0.00589739
-0.00579865
-0.00567172
-0.00551686
-0.00533469
-0.0051263
-0.0048933
-0.00463803
-0.00436108
-0.00406712
-0.00375892
-0.00343999
-0.00311428
-0.00278602
-0.00245968
-0.00213987
-0.0018313
-0.00153866
-0.00126657
-0.00101943
-0.000801398
-0.000616235
-0.000467259
-0.000357248
-0.000288375
-0.000262155
-0.000279396
-0.000340182
-0.000443867
-0.000589086
-0.000773791
-0.000995304
-0.00125039
-0.00153531
-0.00184599
-0.00217807
-0.00252697
-0.00288812
-0.00325696
-0.0036291
-0.00400038
-0.00436695
-0.00472534
-0.0050725
-0.00540583
-0.00572319
-0.00602291
-0.00630376
-0.00656491
-0.00680595
-0.00702678
-0.0072276
-0.00740887
-0.00757124
-0.0077155
-0.00784253
-0.00795329
-0.00804876
-0.00812987
-0.00819755
-0.00825265
-0.00829596
-0.0083282
-0.00835003
-0.00836213
-0.00836516
-0.00835989
-0.00834737
-0.00832898
-0.00830373
-0.00826815
-3.03475e-05
-5.67442e-06
5.48796e-06
6.98939e-06
7.33661e-07
-1.34943e-05
-3.57022e-05
-6.56357e-05
-0.000102942
-0.000147198
-0.00019794
-0.000254696
-0.000317015
-0.000384497
-0.000456801
-0.000533665
-0.000614908
-0.000700428
-0.000790202
-0.000884275
-0.000982749
-0.00108577
-0.00119352
-0.00130619
-0.001424
-0.00154713
-0.00167578
-0.00181008
-0.00195016
-0.00209608
-0.00224784
-0.0024054
-0.00256862
-0.0027373
-0.00291116
-0.00308979
-0.00327272
-0.00345934
-0.00364893
-0.00384064
-0.00403351
-0.00422642
-0.00441814
-0.0046073
-0.0047924
-0.00497182
-0.00514383
-0.00530661
-0.00545825
-0.00559682
-0.00572034
-0.00582683
-0.00591435
-0.00598107
-0.00602521
-0.0060452
-0.00603962
-0.00600732
-0.00594741
-0.00585931
-0.00574279
-0.00559801
-0.00542553
-0.00522638
-0.00500184
-0.00475332
-0.00448502
-0.00419802
-0.00389585
-0.0035822
-0.003261
-0.0029365
-0.00261318
-0.00229567
-0.00198871
-0.00169703
-0.00142529
-0.00117796
-0.000959243
-0.000772974
-0.000622532
-0.000510758
-0.000439887
-0.000411485
-0.00042641
-0.000484781
-0.000585976
-0.000728645
-0.000910738
-0.00112956
-0.00138186
-0.00166387
-0.00197145
-0.00230019
-0.0026455
-0.00300272
-0.00336728
-0.00373474
-0.00410092
-0.00446197
-0.00481443
-0.00515527
-0.00548194
-0.00579235
-0.0060849
-0.00635844
-0.00661225
-0.00684598
-0.00705964
-0.00725353
-0.00742819
-0.00758435
-0.00772288
-0.00784473
-0.00795091
-0.00804244
-0.00812032
-0.00818549
-0.00823881
-0.00828106
-0.00831294
-0.00833504
-0.00834787
-0.00835189
-0.00834748
-0.00833523
-0.00831589
-0.00828667
-0.00824158
-1.91719e-05
7.24582e-06
1.89026e-05
2.02025e-05
1.34849e-05
-1.25888e-06
-2.38797e-05
-5.40027e-05
-9.11978e-05
-0.000135001
-0.000184929
-0.000240509
-0.0003013
-0.000366915
-0.00043704
-0.000511439
-0.000589961
-0.000672535
-0.000759174
-0.000849955
-0.000945013
-0.00104453
-0.00114872
-0.00125782
-0.00137208
-0.00149172
-0.00161698
-0.00174804
-0.00188506
-0.00202817
-0.00217743
-0.00233283
-0.00249432
-0.00266175
-0.0028349
-0.00301344
-0.00319694
-0.00338487
-0.00357654
-0.00377118
-0.00396783
-0.00416542
-0.00436273
-0.00455838
-0.00475086
-0.00493852
-0.0051196
-0.0052922
-0.00545437
-0.00560407
-0.00573923
-0.00585778
-0.00595768
-0.00603696
-0.00609376
-0.00612636
-0.00613326
-0.00611317
-0.0060651
-0.00598838
-0.00588268
-0.00574809
-0.00558508
-0.00539462
-0.00517804
-0.00493697
-0.00467419
-0.00439217
-0.00409411
-0.00378362
-0.00346463
-0.00314141
-0.00281847
-0.00250048
-0.00219223
-0.00189854
-0.00162412
-0.00137355
-0.0011511
-0.00096071
-0.000805861
-0.000689492
-0.000613931
-0.000580835
-0.000591138
-0.000645029
-0.000741936
-0.000880541
-0.00105881
-0.00127406
-0.00152298
-0.0018018
-0.0021063
-0.00243202
-0.00277427
-0.00312833
-0.00348954
-0.00385339
-0.00421562
-0.00457235
-0.00492006
-0.00525572
-0.00557677
-0.00588115
-0.00616731
-0.00643415
-0.00668103
-0.00690768
-0.00711423
-0.00730106
-0.00746881
-0.00761832
-0.00775056
-0.00786656
-0.00796741
-0.00805422
-0.00812801
-0.00818979
-0.00824043
-0.00828072
-0.00831131
-0.00833271
-0.00834531
-0.00834934
-0.00834485
-0.00833205
-0.00831118
-0.00827811
-0.00822488
2.86581e-06
2.95034e-05
4.08564e-05
4.15061e-05
3.3981e-05
1.84142e-05
-4.91756e-06
-3.55373e-05
-7.29437e-05
-0.000116626
-0.000166075
-0.000220805
-0.000280378
-0.000344421
-0.000412637
-0.00048482
-0.000560851
-0.0006407
-0.000724418
-0.000812125
-0.000904003
-0.00100028
-0.00110123
-0.00120713
-0.00131828
-0.00143498
-0.0015575
-0.0016861
-0.001821
-0.00196239
-0.0021104
-0.00226511
-0.00242652
-0.00259458
-0.00276911
-0.00294988
-0.0031365
-0.0033285
-0.00352524
-0.00372597
-0.00392976
-0.00413554
-0.00434207
-0.00454795
-0.0047516
-0.00495133
-0.00514527
-0.00533145
-0.0055078
-0.00567215
-0.00582232
-0.0059561
-0.00607131
-0.00616584
-0.0062377
-0.00628504
-0.00630623
-0.00629987
-0.00626486
-0.00620043
-0.00610616
-0.00598205
-0.00582852
-0.00564645
-0.0054372
-0.00520239
-0.00494449
-0.00466621
-0.00437071
-0.00406159
-0.0037428
-0.00341863
-0.00309363
-0.00277254
-0.00246021
-0.00216155
-0.00188136
-0.00162432
-0.00139484
-0.00119696
-0.00103431
-0.000909955
-0.000826355
-0.000785295
-0.000787829
-0.00083425
-0.000924074
-0.00105605
-0.0012282
-0.00143783
-0.00168167
-0.00195589
-0.00225623
-0.00257814
-0.00291687
-0.00326758
-0.0036255
-0.00398602
-0.00434478
-0.00469778
-0.00504146
-0.0053727
-0.00568891
-0.00598802
-0.00626848
-0.00652922
-0.00676964
-0.00698958
-0.00718921
-0.00736903
-0.0075298
-0.00767244
-0.00779803
-0.00790772
-0.00800269
-0.00808413
-0.00815315
-0.00821078
-0.00825796
-0.00829547
-0.00832393
-0.00834381
-0.00835536
-0.00835863
-0.00835342
-0.00833961
-0.00831709
-0.00828078
-0.00822133
3.59902e-05
6.143e-05
7.16222e-05
7.10507e-05
6.22591e-05
4.54843e-05
2.11001e-05
-1.03391e-05
-4.82724e-05
-9.21455e-05
-0.000141422
-0.000195604
-0.000254255
-0.000317012
-0.000383601
-0.000453848
-0.000527671
-0.000605084
-0.000686187
-0.000771155
-0.00086023
-0.000953703
-0.00105191
-0.0011552
-0.00126394
-0.0013785
-0.00149923
-0.00162648
-0.00176054
-0.0019017
-0.00205015
-0.00220608
-0.00236957
-0.00254064
-0.0027192
-0.00290507
-0.00309793
-0.00329735
-0.00350273
-0.00371332
-0.00392818
-0.00414622
-0.00436613
-0.00458646
-0.00480556
-0.00502159
-0.00523258
-0.00543642
-0.0056309
-0.00581369
-0.00598245
-0.00613481
-0.00626844
-0.00638107
-0.00647057
-0.00653495
-0.00657245
-0.00658155
-0.00656105
-0.00651008
-0.00642814
-0.00631514
-0.00617146
-0.00599789
-0.00579573
-0.00556669
-0.00531312
-0.00503769
-0.00474359
-0.0044344
-0.00411412
-0.00378704
-0.00345777
-0.00313111
-0.00281198
-0.00250538
-0.00221622
-0.0019493
-0.00170917
-0.00150003
-0.00132567
-0.00118932
-0.00109361
-0.00104051
-0.00103122
-0.00106621
-0.0011451
-0.00126679
-0.00142935
-0.00163018
-0.00186602
-0.00213304
-0.00242696
-0.00274316
-0.0030768
-0.00342293
-0.00377668
-0.00413328
-0.00448825
-0.00483748
-0.00517725
-0.00550438
-0.00581617
-0.0061105
-0.00638578
-0.00664094
-0.00687541
-0.00708904
-0.00728209
-0.00745514
-0.00760903
-0.0077448
-0.00786364
-0.00796679
-0.00805556
-0.00813122
-0.00819496
-0.0082479
-0.008291
-0.00832509
-0.00835077
-0.00836847
-0.00837836
-0.00838035
-0.00837404
-0.00835911
-0.00833515
-0.00829647
-0.00823289
8.01523e-05
0.00010311
0.000111292
0.000108886
9.83267e-05
7.99287e-05
5.41351e-05
2.15538e-05
-1.7209e-05
-6.15645e-05
-0.000110955
-0.000164876
-0.000222892
-0.000284661
-0.000349933
-0.00041857
-0.000490535
-0.000565894
-0.000644806
-0.000727515
-0.000814333
-0.000905629
-0.00100182
-0.00110334
-0.00121064
-0.0013242
-0.00144445
-0.00157184
-0.00170678
-0.00184962
-0.0020007
-0.00216027
-0.00232853
-0.00250556
-0.00269137
-0.00288583
-0.00308867
-0.00329947
-0.00351765
-0.00374243
-0.00397284
-0.00420772
-0.00444568
-0.00468514
-0.00492431
-0.00516123
-0.00539377
-0.00561963
-0.00583641
-0.00604162
-0.00623274
-0.00640721
-0.00656254
-0.0066963
-0.0068062
-0.00689012
-0.00694616
-0.00697271
-0.00696845
-0.00693241
-0.00686403
-0.00676314
-0.00663005
-0.00646549
-0.00627063
-0.0060474
-0.00579788
-0.00552477
-0.00523124
-0.00492088
-0.00459768
-0.00426596
-0.00393036
-0.00359574
-0.00326709
-0.00294949
-0.00264798
-0.0023675
-0.00211275
-0.00188811
-0.00169756
-0.00154454
-0.00143191
-0.00136183
-0.00133575
-0.00135432
-0.00141739
-0.00152399
-0.00167236
-0.00186001
-0.00208375
-0.0023398
-0.00262387
-0.0029313
-0.0032572
-0.00359651
-0.00394422
-0.00429544
-0.00464554
-0.00499022
-0.00532564
-0.00564845
-0.00595584
-0.0062456
-0.00651603
-0.00676603
-0.006995
-0.0072028
-0.00738972
-0.00755639
-0.00770373
-0.00783287
-0.00794509
-0.00804175
-0.00812425
-0.00819397
-0.00825219
-0.00830011
-0.00833877
-0.00836901
-0.00839147
-0.00840655
-0.00841439
-0.00841479
-0.00840725
-0.00839126
-0.00836626
-0.00832623
-0.00826057
0.000135143
0.000154451
0.000159816
0.000154971
0.000142146
0.000121711
9.41587e-05
6.01281e-05
2.02535e-05
-2.48557e-05
-7.46281e-05
-0.000128578
-0.000186254
-0.000247355
-0.000311663
-0.000379081
-0.000449627
-0.000523428
-0.000600716
-0.000681814
-0.000767122
-0.0008571
-0.000952261
-0.00105315
-0.00116033
-0.00127438
-0.00139585
-0.00152532
-0.00166329
-0.00181027
-0.00196667
-0.00213288
-0.00230918
-0.00249574
-0.00269263
-0.00289976
-0.00311691
-0.00334364
-0.00357934
-0.0038232
-0.00407414
-0.0043309
-0.00459196
-0.00485558
-0.00511981
-0.0053825
-0.0056413
-0.00589373
-0.00613718
-0.00636897
-0.00658637
-0.00678665
-0.00696713
-0.00712522
-0.00725849
-0.00736468
-0.00744178
-0.00748805
-0.00750208
-0.00748282
-0.0074296
-0.00734221
-0.00722086
-0.00706624
-0.00687949
-0.00666236
-0.00641699
-0.00614603
-0.00585259
-0.00554023
-0.00521294
-0.00487504
-0.00453118
-0.00418627
-0.00384536
-0.00351362
-0.00319621
-0.00289821
-0.00262449
-0.00237965
-0.00216787
-0.00199286
-0.00185772
-0.00176491
-0.00171613
-0.00171232
-0.00175358
-0.00183919
-0.00196761
-0.00213651
-0.00234286
-0.00258295
-0.00285256
-0.00314704
-0.00346142
-0.00379061
-0.00412945
-0.00447291
-0.00481619
-0.00515483
-0.00548479
-0.00580255
-0.00610513
-0.00639016
-0.00665583
-0.00690093
-0.00712479
-0.00732723
-0.00750854
-0.00766936
-0.00781065
-0.00793361
-0.00803959
-0.00813006
-0.00820651
-0.0082704
-0.00832314
-0.008366
-0.00840009
-0.00842631
-0.00844534
-0.0084576
-0.0084632
-0.00846192
-0.00845317
-0.00843636
-0.00841082
-0.00837044
-0.00830458
0.000200637
0.000215222
0.000217018
0.000209166
0.000193602
0.000170742
0.000141106
0.000105346
6.41009e-05
1.79833e-05
-3.24416e-05
-8.66849e-05
-0.000144346
-0.000205139
-0.000268893
-0.000335566
-0.00040524
-0.000478117
-0.000554513
-0.000634847
-0.000719619
-0.000809402
-0.000904824
-0.00100655
-0.00111528
-0.00123172
-0.00135657
-0.00149051
-0.00163421
-0.00178829
-0.0019533
-0.00212972
-0.00231793
-0.00251817
-0.00273057
-0.00295507
-0.00319142
-0.00343917
-0.00369765
-0.00396591
-0.00424278
-0.00452684
-0.00481639
-0.0051095
-0.005404
-0.00569752
-0.0059875
-0.00627122
-0.00654586
-0.00680853
-0.0070563
-0.00728624
-0.00749551
-0.00768136
-0.00784121
-0.00797268
-0.00807364
-0.00814224
-0.00817697
-0.00817669
-0.00814065
-0.00806854
-0.00796051
-0.00781715
-0.00763957
-0.00742939
-0.00718869
-0.00692007
-0.00662656
-0.0063117
-0.0059794
-0.00563399
-0.00528011
-0.00492267
-0.0045668
-0.00421772
-0.00388073
-0.00356105
-0.00326372
-0.00299357
-0.00275504
-0.00255212
-0.00238821
-0.00226612
-0.00218788
-0.00215477
-0.00216723
-0.00222486
-0.00232642
-0.00246983
-0.00265228
-0.00287022
-0.00311956
-0.00339568
-0.00369365
-0.00400829
-0.00433438
-0.00466673
-0.00500038
-0.00533067
-0.00565335
-0.0059647
-0.00626153
-0.00654126
-0.00680192
-0.00704214
-0.00726113
-0.00745862
-0.00763484
-0.0077904
-0.00792627
-0.00804368
-0.00814403
-0.00822885
-0.00829972
-0.00835819
-0.00840575
-0.00844377
-0.00847343
-0.00849572
-0.00851137
-0.00852082
-0.00852421
-0.00852133
-0.00851155
-0.00849425
-0.00846873
-0.00842896
-0.00836457
0.000276215
0.000285074
0.000282605
0.00027122
0.000252486
0.00022685
0.000194845
0.000157105
0.000114258
6.68959e-05
1.55623e-05
-3.92796e-05
-9.72692e-05
-0.000158165
-0.000221852
-0.000288354
-0.000357832
-0.000430576
-0.000507003
-0.000587642
-0.000673112
-0.000764115
-0.000861415
-0.000965825
-0.00107819
-0.00119936
-0.00133019
-0.00147153
-0.00162419
-0.00178891
-0.00196637
-0.00215716
-0.00236174
-0.00258041
-0.00281332
-0.00306041
-0.00332138
-0.00359572
-0.00388262
-0.00418102
-0.00448956
-0.00480663
-0.0051303
-0.00545842
-0.00578857
-0.00611815
-0.00644434
-0.0067642
-0.00707468
-0.00737266
-0.00765502
-0.00791866
-0.00816055
-0.00837782
-0.00856772
-0.00872776
-0.00885569
-0.00894955
-0.00900774
-0.00902902
-0.00901254
-0.0089579
-0.00886515
-0.0087348
-0.00856784
-0.00836581
-0.00813068
-0.00786495
-0.00757158
-0.007254
-0.00691608
-0.00656208
-0.00619662
-0.0058246
-0.00545117
-0.00508164
-0.00472137
-0.00437574
-0.00405
-0.00374919
-0.00347803
-0.00324083
-0.00304135
-0.00288278
-0.00276755
-0.00269738
-0.00267311
-0.00269475
-0.00276144
-0.00287148
-0.00302232
-0.00321072
-0.00343273
-0.0036839
-0.00395933
-0.00425386
-0.0045622
-0.00487905
-0.00519927
-0.00551801
-0.00583081
-0.00613368
-0.00642319
-0.00669654
-0.00695152
-0.00718655
-0.00740067
-0.00759347
-0.00776505
-0.00791595
-0.00804709
-0.00815969
-0.00825516
-0.00833508
-0.00840106
-0.00845475
-0.00849771
-0.00853137
-0.00855703
-0.00857572
-0.00858826
-0.00859515
-0.00859657
-0.00859232
-0.00858183
-0.00856446
-0.00853949
-0.00850119
-0.00843969
0.000361349
0.000363533
0.00035615
0.000340759
0.000318471
0.000289761
0.000255143
0.00021521
0.000170548
0.000121715
6.92081e-05
1.34455e-05
-4.52649e-05
-0.000106741
-0.00017094
-0.000237965
-0.000308071
-0.000381655
-0.000459249
-0.000541509
-0.000629194
-0.000723153
-0.000824307
-0.000933633
-0.00105214
-0.00118085
-0.0013208
-0.00147297
-0.00163835
-0.00181781
-0.00201214
-0.00222203
-0.002448
-0.00269039
-0.00294932
-0.0032247
-0.00351615
-0.00382302
-0.00414436
-0.0044789
-0.00482509
-0.00518106
-0.00554465
-0.00591343
-0.00628474
-0.00665568
-0.00702322
-0.00738415
-0.00773521
-0.00807306
-0.00839438
-0.0086959
-0.00897445
-0.00922697
-0.00945061
-0.00964275
-0.00980103
-0.00992338
-0.0100081
-0.0100538
-0.0100596
-0.0100249
-0.00994977
-0.00983448
-0.00967997
-0.00948762
-0.0092593
-0.00899736
-0.00870467
-0.00838452
-0.00804069
-0.00767735
-0.00729905
-0.00691067
-0.00651735
-0.00612442
-0.00573734
-0.00536161
-0.00500267
-0.00466578
-0.00435597
-0.00407788
-0.00383568
-0.00363297
-0.00347267
-0.00335698
-0.00328725
-0.00326399
-0.00328684
-0.00335452
-0.00346494
-0.00361518
-0.00380161
-0.00401997
-0.00426552
-0.00453317
-0.00481758
-0.00511341
-0.00541536
-0.00571838
-0.00601777
-0.0063093
-0.00658924
-0.00685451
-0.00710262
-0.00733174
-0.00754066
-0.00772877
-0.00789599
-0.00804274
-0.00816983
-0.00827841
-0.00836986
-0.00844575
-0.00850774
-0.00855748
-0.00859662
-0.00862666
-0.00864895
-0.00866463
-0.00867457
-0.00867934
-0.00867919
-0.00867398
-0.00866318
-0.00864619
-0.00862233
-0.00858625
-0.00852878
0.000455387
0.00044998
0.000437082
0.000417262
0.000391104
0.000359067
0.000321634
0.000279324
0.000232657
0.000182125
0.000128164
7.11233e-05
1.12416e-05
-5.13768e-05
-0.000116775
-0.000185157
-0.000256887
-0.000332484
-0.000412617
-0.000498086
-0.00058981
-0.000688806
-0.000796171
-0.000913064
-0.00104068
-0.00118022
-0.0013329
-0.00149989
-0.00168229
-0.00188112
-0.0020973
-0.00233155
-0.00258443
-0.00285629
-0.00314719
-0.00345695
-0.00378507
-0.00413071
-0.00449273
-0.00486963
-0.00525959
-0.00566047
-0.00606985
-0.00648501
-0.006903
-0.00732067
-0.00773472
-0.00814171
-0.00853814
-0.00892048
-0.00928522
-0.00962892
-0.00994824
-0.01024
-0.0105012
-0.0107292
-0.0109213
-0.0110756
-0.01119
-0.0112633
-0.0112942
-0.0112823
-0.0112272
-0.0111294
-0.0109894
-0.0108085
-0.0105886
-0.0103316
-0.0100405
-0.0097183
-0.00936865
-0.00899562
-0.00860364
-0.00819752
-0.00778236
-0.00736349
-0.00694643
-0.00653676
-0.0061401
-0.00576194
-0.00540758
-0.00508202
-0.00478986
-0.00453517
-0.00432139
-0.00415128
-0.00402679
-0.00394902
-0.00391821
-0.00393365
-0.00399377
-0.00409614
-0.00423753
-0.00441402
-0.0046211
-0.00485382
-0.00510692
-0.00537502
-0.00565271
-0.00593478
-0.00621627
-0.00649268
-0.00675998
-0.00701475
-0.00725419
-0.00747615
-0.00767911
-0.0078622
-0.00802511
-0.00816805
-0.00829166
-0.00839696
-0.00848527
-0.00855809
-0.00861707
-0.00866387
-0.00870015
-0.00872749
-0.00874727
-0.00876071
-0.00876875
-0.00877204
-0.00877089
-0.00876524
-0.00875463
-0.00873852
-0.00871628
-0.00868303
-0.00863045
0.000557523
0.000543637
0.000524673
0.000500058
0.000469757
0.000434194
0.000393787
0.000348946
0.000300091
0.000247626
0.000191898
0.000133172
7.15946e-05
7.17263e-06
-6.02424e-05
-0.000130972
-0.00020551
-0.000284516
-0.000368813
-0.00045937
-0.000557284
-0.000663759
-0.000780089
-0.000907629
-0.00104777
-0.00120192
-0.00137146
-0.00155773
-0.00176198
-0.00198534
-0.0022288
-0.00249313
-0.00277888
-0.00308635
-0.00341552
-0.00376605
-0.00413725
-0.00452809
-0.00493717
-0.00536272
-0.00580263
-0.00625447
-0.00671551
-0.00718274
-0.00765293
-0.00812265
-0.00858835
-0.00904635
-0.00949293
-0.00992437
-0.010337
-0.0107271
-0.0110914
-0.0114264
-0.011729
-0.0119965
-0.0122261
-0.0124156
-0.0125631
-0.012667
-0.0127262
-0.0127397
-0.0127075
-0.0126294
-0.0125062
-0.0123389
-0.012129
-0.0118787
-0.0115903
-0.011267
-0.010912
-0.0105294
-0.0101234
-0.00969872
-0.00926035
-0.00881359
-0.00836395
-0.0079171
-0.00747875
-0.00705461
-0.00665024
-0.00627101
-0.00592192
-0.00560755
-0.0053319
-0.00509836
-0.00490953
-0.00476723
-0.00467236
-0.00462493
-0.00462403
-0.00466782
-0.00475364
-0.00487802
-0.00503681
-0.00522532
-0.00543846
-0.00567088
-0.00591713
-0.00617184
-0.00642986
-0.00668638
-0.00693706
-0.00717811
-0.00740636
-0.00761928
-0.00781501
-0.00799232
-0.00815061
-0.00828979
-0.0084103
-0.00851298
-0.00859897
-0.00866968
-0.00872669
-0.00877163
-0.00880616
-0.00883184
-0.00885013
-0.00886228
-0.00886929
-0.00887188
-0.00887044
-0.00886497
-0.00885511
-0.00884038
-0.00882023
-0.00879031
-0.00874321
0.000666761
0.000643549
0.00061801
0.000588288
0.000553626
0.000514385
0.000470875
0.000423363
0.000372139
0.000317488
0.000259643
0.000198759
0.00013487
6.78659e-05
-2.52842e-06
-7.67719e-05
-0.000155506
-0.000239554
-0.000329914
-0.000427743
-0.000534337
-0.000651106
-0.000779555
-0.000921251
-0.00107779
-0.00125078
-0.00144179
-0.00165229
-0.00188367
-0.00213716
-0.00241377
-0.00271428
-0.0030392
-0.00338872
-0.00376267
-0.00416053
-0.00458138
-0.00502392
-0.00548647
-0.00596695
-0.00646295
-0.00697172
-0.0074902
-0.00801509
-0.00854287
-0.00906984
-0.0095922
-0.010106
-0.0106074
-0.0110924
-0.0115572
-0.0119979
-0.0124111
-0.0127931
-0.0131409
-0.0134513
-0.0137218
-0.0139499
-0.0141336
-0.0142712
-0.0143613
-0.0144032
-0.0143962
-0.0143405
-0.0142364
-0.0140847
-0.013887
-0.0136449
-0.0133609
-0.0130376
-0.0126784
-0.0122868
-0.0118671
-0.0114237
-0.0109615
-0.0104857
-0.0100017
-0.00951521
-0.00903206
-0.00855806
-0.00809903
-0.00766064
-0.00724831
-0.00686711
-0.00652163
-0.00621591
-0.00595329
-0.00573634
-0.00556678
-0.00544543
-0.00537217
-0.00534593
-0.00536473
-0.00542571
-0.00552526
-0.00565907
-0.00582234
-0.00600985
-0.00621621
-0.00643596
-0.00666375
-0.00689452
-0.00712358
-0.00734677
-0.00756049
-0.00776179
-0.00794839
-0.00811864
-0.00827155
-0.00840671
-0.00852425
-0.00862473
-0.0087091
-0.0087786
-0.00883467
-0.00887886
-0.00891277
-0.00893797
-0.00895589
-0.00896781
-0.00897478
-0.00897757
-0.00897663
-0.00897205
-0.00896355
-0.00895073
-0.00893311
-0.00890688
-0.00886558
0.000781902
0.000748551
0.000715975
0.000680885
0.000641696
0.000598662
0.000551947
0.000501636
0.000447851
0.000390726
0.000330357
0.000266763
0.000199841
0.000129343
5.48467e-05
-2.42651e-05
-0.000108805
-0.000199779
-0.000298383
-0.000405983
-0.000524092
-0.000654342
-0.000798462
-0.000958242
-0.00113549
-0.00133199
-0.00154949
-0.00178961
-0.00205381
-0.00234339
-0.00265935
-0.00300244
-0.00337305
-0.00377123
-0.00419661
-0.00464843
-0.0051255
-0.00562621
-0.00614856
-0.00669015
-0.00724823
-0.0078197
-0.00840121
-0.00898913
-0.00957967
-0.0101688
-0.0107526
-0.0113268
-0.0118873
-0.01243
-0.0129509
-0.013446
-0.0139117
-0.0143443
-0.0147404
-0.0150971
-0.0154115
-0.015681
-0.0159037
-0.0160776
-0.0162013
-0.0162739
-0.0162947
-0.0162636
-0.0161808
-0.016047
-0.0158633
-0.0156315
-0.0153536
-0.0150321
-0.0146699
-0.0142707
-0.0138381
-0.0133766
-0.0128908
-0.0123857
-0.0118666
-0.0113392
-0.0108093
-0.0102827
-0.00976553
-0.00926363
-0.00878281
-0.00832861
-0.00790621
-0.00752031
-0.00717499
-0.00687368
-0.00661898
-0.00641262
-0.00625543
-0.00614723
-0.0060869
-0.00607239
-0.00610075
-0.00616826
-0.00627053
-0.00640266
-0.00655939
-0.00673527
-0.00692485
-0.00712282
-0.00732417
-0.00752433
-0.00771927
-0.00790554
-0.00808038
-0.00824167
-0.00838795
-0.00851839
-0.00863272
-0.00873119
-0.00881444
-0.00888348
-0.00893956
-0.00898408
-0.00901854
-0.00904443
-0.00906316
-0.00907599
-0.009084
-0.00908798
-0.00908842
-0.00908549
-0.00907898
-0.00906858
-0.00905385
-0.00903156
-0.00899618
0.000901516
0.000857252
0.000817227
0.000776557
0.000732718
0.00068581
0.000635807
0.000582563
0.000526001
0.00046607
0.0004027
0.000335746
0.000264951
0.000189901
0.000110007
2.44707e-05
-6.77133e-05
-0.000167758
-0.000277077
-0.000397262
-0.000530062
-0.000677344
-0.00084107
-0.00102325
-0.0012259
-0.00145099
-0.00170039
-0.00197584
-0.00227888
-0.00261079
-0.00297254
-0.00336477
-0.00378772
-0.00424123
-0.00472469
-0.00523705
-0.0057768
-0.00634201
-0.0069303
-0.00753894
-0.00816481
-0.00880449
-0.00945428
-0.0101103
-0.0107683
-0.0114242
-0.0120737
-0.0127123
-0.0133358
-0.0139399
-0.0145203
-0.0150731
-0.0155943
-0.0160802
-0.0165275
-0.0169329
-0.0172936
-0.0176069
-0.0178708
-0.0180832
-0.0182426
-0.018348
-0.0183986
-0.0183941
-0.0183346
-0.0182206
-0.0180532
-0.0178336
-0.0175637
-0.0172459
-0.0168828
-0.0164776
-0.0160339
-0.0155557
-0.0150474
-0.0145139
-0.0139602
-0.0133918
-0.0128145
-0.0122341
-0.0116567
-0.0110884
-0.0105353
-0.0100034
-0.00949835
-0.00902549
-0.00858967
-0.00819518
-0.00784557
-0.00754359
-0.00729108
-0.00708896
-0.00693712
-0.00683447
-0.00677896
-0.00676763
-0.00679672
-0.00686179
-0.0069579
-0.00707973
-0.0072218
-0.00737866
-0.007545
-0.00771586
-0.00788672
-0.00805365
-0.0082133
-0.00836301
-0.00850079
-0.0086253
-0.00873579
-0.00883207
-0.00891445
-0.00898358
-0.00904047
-0.0090863
-0.00912241
-0.00915017
-0.0091709
-0.00918583
-0.00919598
-0.00920217
-0.00920492
-0.00920442
-0.00920056
-0.00919305
-0.00918156
-0.00916335
-0.00913379
0.00102391
0.000968018
0.000920182
0.000873769
0.000825196
0.000774356
0.000720987
0.000664666
0.000605072
0.000541943
0.000475008
0.00040394
0.000328296
0.000247481
0.00016071
6.69833e-05
-3.49207e-05
-0.000146442
-0.000269232
-0.000405128
-0.000556123
-0.000724332
-0.000911948
-0.0011212
-0.00135429
-0.00161335
-0.00190038
-0.00221717
-0.00256527
-0.00294593
-0.00336002
-0.00380802
-0.00428997
-0.00480543
-0.0053535
-0.0059328
-0.00654147
-0.00717721
-0.00783727
-0.00851853
-0.00921752
-0.00993046
-0.0106533
-0.0113819
-0.0121117
-0.0128383
-0.0135572
-0.0142637
-0.0149533
-0.0156216
-0.0162642
-0.0168771
-0.017456
-0.0179974
-0.0184977
-0.0189536
-0.0193622
-0.019721
-0.0200275
-0.0202798
-0.0204764
-0.0206161
-0.0206981
-0.0207218
-0.0206873
-0.0205949
-0.0204455
-0.0202401
-0.0199805
-0.0196685
-0.0193066
-0.0188978
-0.0184452
-0.0179525
-0.017424
-0.0168639
-0.0162773
-0.0156693
-0.0150454
-0.0144116
-0.0137737
-0.013138
-0.0125108
-0.0118983
-0.0113066
-0.0107418
-0.0102093
-0.00971425
-0.00926122
-0.008854
-0.00849558
-0.00818805
-0.00793248
-0.00772896
-0.00757652
-0.00747318
-0.00741604
-0.00740135
-0.00742466
-0.00748098
-0.00756497
-0.00767109
-0.00779384
-0.0079279
-0.00806828
-0.0082105
-0.00835061
-0.00848534
-0.00861206
-0.00872882
-0.00883433
-0.00892787
-0.00900926
-0.00907879