/*--------------------------------*- C++ -*----------------------------------*\
| =========                 |                                                 |
| \\      /  F ield         | OpenFOAM: The Open Source CFD Toolbox           |
|  \\    /   O peration     | Version:  2112                                  |
|   \\  /    A nd           | Website:  www.openfoam.com                      |
|    \\/     M anipulation  |                                                 |
\*---------------------------------------------------------------------------*/
FoamFile
{
    version     2.0;
    format      ascii;
    arch        "LSB;label=32;scalar=64";
    class       surfaceScalarField;
    location    "27";
    object      phi;
}
// * * * * * * * * * * * * * * * * * * * * * * * * * * * * * * * * * * * * * //

dimensions      [0 3 -1 0 0 0 0];

oriented        oriented;

internalField   nonuniform List<scalar> 
33024
(
-2.82706e-09
2.3858e-09
2.2473e-08
-2.5298e-08
7.57622e-08
-5.32898e-08
1.48959e-07
-7.31943e-08
2.34081e-07
-8.51216e-08
3.24471e-07
-9.03918e-08
4.14881e-07
-9.04109e-08
5.01331e-07
-8.64503e-08
5.80901e-07
-7.95693e-08
6.51527e-07
-7.06257e-08
7.11837e-07
-6.03095e-08
7.61007e-07
-4.91698e-08
7.9864e-07
-3.76326e-08
8.24655e-07
-2.60156e-08
8.39198e-07
-1.45428e-08
8.42555e-07
-3.35686e-09
8.35077e-07
7.47703e-09
8.17129e-07
1.79478e-08
7.89031e-07
2.80989e-08
7.5102e-07
3.80106e-08
7.03229e-07
4.77917e-08
6.45661e-07
5.75681e-08
5.78187e-07
6.74739e-08
5.00545e-07
7.76422e-08
4.12346e-07
8.81981e-08
3.13094e-07
9.92526e-08
2.02195e-07
1.10898e-07
7.89879e-08
1.23207e-07
-5.72382e-08
1.36227e-07
-2.0722e-07
1.49982e-07
-3.71698e-07
1.64477e-07
-5.51389e-07
1.79691e-07
-7.46973e-07
1.95584e-07
-9.59069e-07
2.12096e-07
-1.18822e-06
2.29147e-07
-1.43486e-06
2.46641e-07
-1.69932e-06
2.64464e-07
-1.9818e-06
2.82483e-07
-2.28235e-06
3.0055e-07
-2.60085e-06
3.18501e-07
-2.93701e-06
3.36156e-07
-3.29033e-06
3.5332e-07
-3.66011e-06
3.69781e-07
-4.04543e-06
3.85319e-07
-4.44513e-06
3.99698e-07
-4.85781e-06
4.12678e-07
-5.28182e-06
4.2401e-07
-5.71526e-06
4.33442e-07
-6.15598e-06
4.40721e-07
-6.60158e-06
4.456e-07
-7.04942e-06
4.47835e-07
-7.49661e-06
4.47197e-07
-7.94008e-06
4.43469e-07
-8.37654e-06
4.36454e-07
-8.80251e-06
4.25978e-07
-9.21441e-06
4.11892e-07
-9.60849e-06
3.9408e-07
-9.98095e-06
3.7246e-07
-1.03279e-05
3.46987e-07
-1.06456e-05
3.17658e-07
-1.09301e-05
2.84517e-07
-1.11778e-05
2.47651e-07
-1.1385e-05
2.07199e-07
-1.15483e-05
1.63357e-07
-1.16647e-05
1.16395e-07
-1.17313e-05
6.66186e-08
-1.17457e-05
1.43937e-08
-1.17055e-05
-4.02609e-08
-1.16092e-05
-9.62436e-08
-1.14558e-05
-1.53411e-07
-1.12447e-05
-2.11157e-07
-1.09758e-05
-2.68885e-07
-1.06498e-05
-3.2597e-07
-1.0268e-05
-3.81758e-07
-9.83246e-06
-4.35581e-07
-9.3457e-06
-4.86761e-07
-8.81107e-06
-5.34628e-07
-8.23254e-06
-5.78527e-07
-7.61471e-06
-6.17833e-07
-6.96274e-06
-6.51966e-07
-6.28234e-06
-6.80404e-07
-5.57964e-06
-7.02697e-07
-4.86116e-06
-7.1848e-07
-4.13368e-06
-7.27485e-07
-3.40413e-06
-7.29548e-07
-2.67951e-06
-7.24622e-07
-1.96673e-06
-7.12778e-07
-1.27252e-06
-6.94208e-07
-6.03298e-07
-6.69221e-07
3.49508e-08
-6.38249e-07
6.36829e-07
-6.01878e-07
1.19745e-06
-5.60618e-07
1.71271e-06
-5.15259e-07
2.17926e-06
-4.66556e-07
2.59459e-06
-4.15323e-07
2.95698e-06
-3.62392e-07
3.26558e-06
-3.08601e-07
3.52035e-06
-2.54766e-07
3.72201e-06
-2.01664e-07
3.87202e-06
-1.50015e-07
3.97249e-06
-1.00468e-07
4.02608e-06
-5.35855e-08
4.03591e-06
-9.83706e-09
4.0055e-06
3.041e-08
3.93862e-06
6.68857e-08
3.83919e-06
9.9425e-08
3.71124e-06
1.27958e-07
3.55873e-06
1.52505e-07
3.38556e-06
1.73168e-07
3.19544e-06
1.9012e-07
2.99185e-06
2.03589e-07
2.778e-06
2.13849e-07
2.55681e-06
2.21199e-07
2.33086e-06
2.25948e-07
2.10247e-06
2.28392e-07
1.87367e-06
2.28795e-07
1.64632e-06
2.27356e-07
1.42213e-06
2.24186e-07
1.20286e-06
2.19271e-07
9.90424e-07
2.12435e-07
7.87121e-07
2.03303e-07
5.95855e-07
1.91266e-07
4.204e-07
1.75455e-07
2.65647e-07
1.54753e-07
1.3773e-07
1.27917e-07
4.37478e-08
9.39824e-08
-9.55415e-09
5.3302e-08
-1.99893e-08
1.04352e-08
-1.99893e-08
2.50499e-08
-2.26622e-08
1.10269e-07
-1.10521e-07
2.48571e-07
-1.91592e-07
4.26526e-07
-2.5115e-07
6.29463e-07
-2.88058e-07
8.43731e-07
-3.04658e-07
1.05763e-06
-3.04304e-07
1.26163e-06
-2.90456e-07
1.44832e-06
-2.66262e-07
1.61214e-06
-2.34442e-07
1.74911e-06
-1.97278e-07
1.85657e-06
-1.56638e-07
1.93295e-06
-1.14007e-07
1.97745e-06
-7.05161e-08
1.98989e-06
-2.69822e-08
1.97048e-06
1.60494e-08
1.91966e-06
5.83042e-08
1.8379e-06
9.9701e-08
1.72566e-06
1.4034e-07
1.58322e-06
1.80456e-07
1.41062e-06
2.20386e-07
1.20766e-06
2.60527e-07
9.73826e-07
3.0131e-07
7.08306e-07
3.43163e-07
4.10018e-07
3.86486e-07
7.76385e-08
4.31633e-07
-2.90355e-07
4.78892e-07
-6.95624e-07
5.28475e-07
-1.13991e-06
5.80513e-07
-1.62498e-06
6.35049e-07
-2.15254e-06
6.92043e-07
-2.72422e-06
7.51369e-07
-3.34146e-06
8.12826e-07
-4.0055e-06
8.76133e-07
-4.71729e-06
9.4094e-07
-5.47747e-06
1.00683e-06
-6.28632e-06
1.07331e-06
-7.14367e-06
1.13983e-06
-8.04892e-06
1.2058e-06
-9.00096e-06
1.27054e-06
-9.99815e-06
1.33334e-06
-1.10383e-05
1.39344e-06
-1.21185e-05
1.45003e-06
-1.32355e-05
1.50227e-06
-1.43851e-05
1.54929e-06
-1.55626e-05
1.59022e-06
-1.67627e-05
1.62416e-06
-1.79795e-05
1.65024e-06
-1.92064e-05
1.6676e-06
-2.04362e-05
1.6754e-06
-2.16613e-05
1.67286e-06
-2.28733e-05
1.65926e-06
-2.40638e-05
1.63395e-06
-2.52237e-05
1.59635e-06
-2.63437e-05
1.54601e-06
-2.74144e-05
1.48255e-06
-2.84261e-05
1.40575e-06
-2.93691e-05
1.31549e-06
-3.02339e-05
1.21182e-06
-3.10112e-05
1.0949e-06
-3.16917e-05
9.65073e-07
-3.22669e-05
8.22842e-07
-3.27286e-05
6.68863e-07
-3.30692e-05
5.03975e-07
-3.3282e-05
3.2924e-07
-3.33612e-05
1.45825e-07
-3.33019e-05
-4.49567e-08
-3.30999e-05
-2.42291e-07
-3.27526e-05
-4.43535e-07
-3.22587e-05
-6.47336e-07
-3.1618e-05
-8.51812e-07
-3.08319e-05
-1.05497e-06
-2.99032e-05
-1.25472e-06
-2.8836e-05
-1.44894e-06
-2.76361e-05
-1.63545e-06
-2.63108e-05
-1.81207e-06
-2.48688e-05
-1.97667e-06
-2.33201e-05
-2.12718e-06
-2.16763e-05
-2.26162e-06
-1.99501e-05
-2.37819e-06
-1.81552e-05
-2.47526e-06
-1.63065e-05
-2.55142e-06
-1.44195e-05
-2.60553e-06
-1.25102e-05
-2.63675e-06
-1.05952e-05
-2.64458e-06
-8.69097e-06
-2.62884e-06
-6.81401e-06
-2.58974e-06
-4.98036e-06
-2.52786e-06
-3.20543e-06
-2.44415e-06
-1.50376e-06
-2.33992e-06
1.11207e-07
-2.21684e-06
1.62747e-06
-2.07688e-06
3.03441e-06
-1.9222e-06
4.32315e-06
-1.7553e-06
5.48661e-06
-1.57878e-06
6.51957e-06
-1.39535e-06
7.41874e-06
-1.20777e-06
8.18271e-06
-1.01874e-06
8.81195e-06
-8.30904e-07
9.30869e-06
-6.46746e-07
9.67676e-06
-4.68546e-07
9.92152e-06
-2.9834e-07
1.00496e-05
-1.37879e-07
1.00686e-05
1.13962e-08
9.98709e-06
1.48368e-07
9.81426e-06
2.72253e-07
9.55963e-06
3.82589e-07
9.23291e-06
4.79228e-07
8.84377e-06
5.62304e-07
8.40168e-06
6.32209e-07
7.91573e-06
6.89545e-07
7.39449e-06
7.35083e-07
6.84599e-06
7.69702e-07
6.27761e-06
7.9433e-07
5.69613e-06
8.09872e-07
5.10779e-06
8.17128e-07
4.51844e-06
8.16705e-07
3.93371e-06
8.08923e-07
3.35927e-06
7.93707e-07
2.80121e-06
7.70491e-07
2.26639e-06
7.38125e-07
1.76284e-06
6.94822e-07
1.30011e-06
6.38182e-07
8.8949e-07
5.65373e-07
5.4372e-07
4.73686e-07
2.75876e-07
3.61827e-07
9.68326e-08
2.32345e-07
1.08068e-08
9.6461e-08
-9.18247e-09
5.32152e-08
-7.58781e-08
1.9174e-07
-2.49043e-07
3.97688e-07
-3.97541e-07
6.52427e-07
-5.05891e-07
9.3708e-07
-5.72711e-07
1.23398e-06
-6.01556e-07
1.52757e-06
-5.97894e-07
1.80478e-06
-5.67669e-07
2.05507e-06
-5.16548e-07
2.27023e-06
-4.49607e-07
2.44418e-06
-3.71219e-07
2.57257e-06
-2.85035e-07
2.65257e-06
-1.94005e-07
2.68247e-06
-1.00419e-07
2.66143e-06
-5.94189e-09
2.58921e-06
8.8274e-08
2.46589e-06
1.81626e-07
2.2917e-06
2.73891e-07
2.06683e-06
3.6521e-07
1.79128e-06
4.56e-07
1.46479e-06
5.4688e-07
1.08672e-06
6.38597e-07
6.56073e-07
7.31958e-07
1.71466e-07
8.27769e-07
-3.68829e-07
9.26781e-07
-9.66837e-07
1.02964e-06
-1.62481e-06
1.13687e-06
-2.34514e-06
1.24881e-06
-3.13027e-06
1.36564e-06
-3.9826e-06
1.48738e-06
-4.90437e-06
1.61382e-06
-5.89761e-06
1.74461e-06
-6.96399e-06
1.8792e-06
-8.10477e-06
2.01691e-06
-9.3207e-06
2.15687e-06
-1.0612e-05
2.29809e-06
-1.19781e-05
2.43942e-06
-1.34178e-05
2.57959e-06
-1.49293e-05
2.71722e-06
-1.65095e-05
2.85081e-06
-1.81549e-05
2.97876e-06
-1.98609e-05
3.0994e-06
-2.16219e-05
3.21098e-06
-2.34313e-05
3.31171e-06
-2.52818e-05
3.39977e-06
-2.71649e-05
3.47334e-06
-2.90714e-05
3.53063e-06
-3.0991e-05
3.56989e-06
-3.29129e-05
3.58944e-06
-3.48252e-05
3.58772e-06
-3.67156e-05
3.56327e-06
-3.85712e-05
3.51483e-06
-4.03785e-05
3.44128e-06
-4.21239e-05
3.34173e-06
-4.37933e-05
3.21549e-06
-4.53729e-05
3.06214e-06
-4.68487e-05
2.88152e-06
-4.82069e-05
2.67371e-06
-4.94342e-05
2.43912e-06
-5.05178e-05
2.17844e-06
-5.14453e-05
1.89265e-06
-5.22055e-05
1.58305e-06
-5.27879e-05
1.25124e-06
-5.31831e-05
8.99125e-07
-5.33829e-05
5.29043e-07
-5.33812e-05
1.44125e-07
-5.31711e-05
-2.55073e-07
-5.27497e-05
-6.6361e-07
-5.21149e-05
-1.0784e-06
-5.12661e-05
-1.49613e-06
-5.02048e-05
-1.91313e-06
-4.89342e-05
-2.32553e-06
-4.74596e-05
-2.72934e-06
-4.5788e-05
-3.12049e-06
-4.39286e-05
-3.49489e-06
-4.18922e-05
-3.84846e-06
-3.96917e-05
-4.17722e-06
-3.73415e-05
-4.4773e-06
-3.48581e-05
-4.74508e-06
-3.22591e-05
-4.9772e-06
-2.95637e-05
-5.17065e-06
-2.67923e-05
-5.32284e-06
-2.39661e-05
-5.43165e-06
-2.11074e-05
-5.4955e-06
-1.82385e-05
-5.51342e-06
-1.53823e-05
-5.48506e-06
-1.25613e-05
-5.41073e-06
-9.79775e-06
-5.29144e-06
-7.11303e-06
-5.12887e-06
-4.52757e-06
-4.92538e-06
-2.06044e-06
-4.68398e-06
2.70917e-07
-4.40824e-06
2.45101e-06
-4.10229e-06
4.46635e-06
-3.77063e-06
6.3058e-06
-3.41824e-06
7.96066e-06
-3.05021e-06
9.42473e-06
-2.67184e-06
1.06944e-05
-2.28839e-06
1.17685e-05
-1.90505e-06
1.26485e-05
-1.52677e-06
1.33382e-05
-1.15819e-06
1.38434e-05
-8.03506e-07
1.41719e-05
-4.66444e-07
1.43335e-05
-1.50151e-07
1.4339e-05
1.42818e-07
1.42007e-05
4.10551e-07
1.39316e-05
6.51751e-07
1.3545e-05
8.65743e-07
1.30549e-05
1.05243e-06
1.24749e-05
1.21223e-06
1.18184e-05
1.34604e-06
1.10984e-05
1.45507e-06
1.03273e-05
1.54084e-06
9.51664e-06
1.60496e-06
8.67747e-06
1.64905e-06
7.82005e-06
1.67455e-06
6.95419e-06
1.68257e-06
6.08943e-06
1.67368e-06
5.23539e-06
1.64775e-06
4.4021e-06
1.60378e-06
3.60048e-06
1.53974e-06
2.84275e-06
1.45255e-06
2.1427e-06
1.33824e-06
1.51575e-06
1.19232e-06
9.7852e-07
1.01092e-06
5.47569e-07
7.92778e-07
2.37101e-07
5.42814e-07
5.53061e-08
2.78256e-07
4.61237e-08
7.3543e-08
-1.49421e-07
2.52529e-07
-4.28027e-07
5.08174e-07
-6.53187e-07
8.15943e-07
-8.1366e-07
1.15325e-06
-9.10022e-07
1.49963e-06
-9.47936e-07
1.83708e-06
-9.35345e-07
2.15029e-06
-8.80878e-07
2.42666e-06
-7.92909e-07
2.65613e-06
-6.79079e-07
2.83099e-06
-5.46084e-07
2.94555e-06
-3.99595e-07
2.9958e-06
-2.44249e-07
2.97906e-06
-8.36838e-08
2.89371e-06
7.94048e-08
2.73881e-06
2.43175e-07
2.51387e-06
4.06568e-07
2.21858e-06
5.69181e-07
1.85262e-06
7.31171e-07
1.41549e-06
8.93135e-07
9.06379e-07
1.05599e-06
3.2413e-07
1.22085e-06
-3.32836e-07
1.38892e-06
-1.06649e-06
1.56142e-06
-1.87915e-06
1.73944e-06
-2.77342e-06
1.92392e-06
-3.7521e-06
2.11555e-06
-4.81806e-06
2.31476e-06
-5.97411e-06
2.5217e-06
-7.22292e-06
2.73618e-06
-8.56682e-06
2.95772e-06
-1.00077e-05
3.18552e-06
-1.1547e-05
3.41851e-06
-1.31854e-05
3.65531e-06
-1.49228e-05
3.89429e-06
-1.67583e-05
4.13359e-06
-1.869e-05
4.3711e-06
-2.0715e-05
4.60453e-06
-2.28291e-05
4.83137e-06
-2.50273e-05
5.04898e-06
-2.73031e-05
5.25457e-06
-2.96489e-05
5.44526e-06
-3.2056e-05
5.61807e-06
-3.45144e-05
5.77003e-06
-3.70127e-05
5.89813e-06
-3.95388e-05
5.99946e-06
-4.20794e-05
6.07116e-06
-4.462e-05
6.11053e-06
-4.71456e-05
6.11507e-06
-4.96404e-05
6.08246e-06
-5.20878e-05
6.01069e-06
-5.4471e-05
5.89804e-06
-5.67728e-05
5.74311e-06
-5.8976e-05
5.5449e-06
-6.10633e-05
5.30278e-06
-6.30177e-05
5.01654e-06
-6.48226e-05
4.6864e-06
-6.64619e-05
4.31304e-06
-6.79203e-05
3.89756e-06
-6.91835e-05
3.44155e-06
-7.02378e-05
2.94701e-06
-7.10712e-05
2.41643e-06
-7.16727e-05
1.85272e-06
-7.20328e-05
1.25922e-06
-7.21431e-05
6.39322e-07
-7.20004e-05
1.47512e-09
-7.1595e-05
-6.60474e-07
-7.09276e-05
-1.33101e-06
-6.99969e-05
-2.00909e-06
-6.88041e-05
-2.68893e-06
-6.73525e-05
-3.36478e-06
-6.56473e-05
-4.03071e-06
-6.3696e-05
-4.68064e-06
-6.15081e-05
-5.30842e-06
-5.90951e-05
-5.9079e-06
-5.64705e-05
-6.47298e-06
-5.365e-05
-6.99771e-06
-5.0651e-05
-7.47635e-06
-4.74926e-05
-7.90351e-06
-4.41956e-05
-8.27417e-06
-4.07824e-05
-8.58386e-06
-3.72765e-05
-8.82867e-06
-3.37028e-05
-9.00544e-06
-3.00865e-05
-9.11172e-06
-2.6454e-05
-9.14599e-06
-2.28314e-05
-9.10759e-06
-1.92453e-05
-8.99687e-06
-1.57216e-05
-8.81518e-06
-1.22856e-05
-8.56486e-06
-8.96166e-06
-8.24928e-06
-5.77286e-06
-7.87278e-06
-2.74051e-06
-7.44058e-06
1.15936e-07
-6.95874e-06
2.77937e-06
-6.43407e-06
5.23498e-06
-5.87385e-06
7.4707e-06
-5.28593e-06
9.47723e-06
-4.67837e-06
1.12482e-05
-4.05934e-06
1.27801e-05
-3.43697e-06
1.40724e-05
-2.8191e-06
1.51274e-05
-2.21321e-06
1.59501e-05
-1.62619e-06
1.65479e-05
-1.06426e-06
1.69306e-05
-5.32828e-07
1.71099e-05
-3.64247e-08
1.7099e-05
4.21377e-07
1.69128e-05
8.37956e-07
1.65669e-05
1.21166e-06
1.60776e-05
1.54175e-06
1.54615e-05
1.82836e-06
1.47351e-05
2.07235e-06
1.3915e-05
2.27522e-06
1.30169e-05
2.43892e-06
1.20562e-05
2.56566e-06
1.10476e-05
2.65772e-06
1.00049e-05
2.71717e-06
8.9419e-06
2.7456e-06
7.8717e-06
2.74388e-06
6.8076e-06
2.71186e-06
5.76324e-06
2.64813e-06
4.75308e-06
2.5499e-06
3.79272e-06
2.41292e-06
2.89916e-06
2.23179e-06
2.09087e-06
2.00061e-06
1.3874e-06
1.71439e-06
8.08608e-07
1.37157e-06
3.73426e-07
9.77996e-07
9.8673e-08
5.53009e-07
1.44797e-07
8.62318e-08
-2.35654e-07
2.91516e-07
-6.33312e-07
5.78409e-07
-9.40078e-07
9.16894e-07
-1.15214e-06
1.28101e-06
-1.27414e-06
1.64803e-06
-1.31496e-06
1.99828e-06
-1.28559e-06
2.31497e-06
-1.19757e-06
2.58418e-06
-1.06212e-06
2.79463e-06
-8.89525e-07
2.93743e-06
-6.88885e-07
3.00581e-06
-4.67974e-07
2.99476e-06
-2.332e-07
2.9007e-06
1.037e-08
2.72116e-06
2.58947e-07
2.45442e-06
5.09922e-07
2.09923e-06
7.6175e-07
1.65461e-06
1.01381e-06
1.11953e-06
1.26625e-06
4.92831e-07
1.51983e-06
-2.26932e-07
1.77575e-06
-1.04157e-06
2.03548e-06
-1.95326e-06
2.30062e-06
-2.96455e-06
2.57271e-06
-4.07828e-06
2.85317e-06
-5.29749e-06
3.14312e-06
-6.6253e-06
3.44336e-06
-8.06479e-06
3.75425e-06
-9.61882e-06
4.07573e-06
-1.12899e-05
4.40727e-06
-1.308e-05
4.74785e-06
-1.49905e-05
5.09601e-06
-1.70219e-05
5.44987e-06
-1.91737e-05
5.80709e-06
-2.14444e-05
6.16499e-06
-2.38313e-05
6.52052e-06
-2.63305e-05
6.8703e-06
-2.89367e-05
7.21068e-06
-3.16431e-05
7.53778e-06
-3.44416e-05
7.84751e-06
-3.73227e-05
8.13564e-06
-4.02752e-05
8.39785e-06
-4.32869e-05
8.62977e-06
-4.6344e-05
8.82709e-06
-4.94314e-05
8.98555e-06
-5.25331e-05
9.10109e-06
-5.56317e-05
9.16983e-06
-5.87094e-05
9.18822e-06
-6.17474e-05
9.15302e-06
-6.47263e-05
9.06141e-06
-6.76266e-05
8.91102e-06
-7.04286e-05
8.69997e-06
-7.31124e-05
8.42691e-06
-7.56585e-05
8.09107e-06
-7.8048e-05
7.69223e-06
-8.02622e-05
7.23079e-06
-8.22836e-05
6.70774e-06
-8.40952e-05
6.1247e-06
-8.56815e-05
5.48386e-06
-8.7028e-05
4.78802e-06
-8.81216e-05
4.04057e-06
-8.89506e-05
3.24545e-06
-8.9505e-05
2.40714e-06
-8.97765e-05
1.53067e-06
-8.97588e-05
6.21702e-07
-8.9444e-05
-3.13331e-07
-8.88342e-05
-1.27025e-06
-8.79253e-05
-2.23996e-06
-8.67185e-05
-3.21583e-06
-8.5217e-05
-4.19051e-06
-8.34255e-05
-5.15626e-06
-8.13511e-05
-6.1051e-06
-7.90028e-05
-7.02893e-06
-7.63917e-05
-7.91957e-06
-7.35307e-05
-8.76883e-06
-7.04351e-05
-9.56864e-06
-6.71216e-05
-1.03111e-05
-6.36093e-05
-1.09887e-05
-5.99188e-05
-1.15941e-05
-5.60722e-05
-1.21208e-05
-5.20933e-05
-1.25627e-05
-4.80074e-05
-1.29146e-05
-4.38408e-05
-1.31721e-05
-3.96206e-05
-1.33319e-05
-3.53747e-05
-1.33918e-05
-3.11317e-05
-1.33506e-05
-2.692e-05
-1.32086e-05
-2.27678e-05
-1.29673e-05
-1.87032e-05
-1.26295e-05
-1.47529e-05
-1.21995e-05
-1.0943e-05
-1.16827e-05
-7.29766e-06
-1.10859e-05
-3.8394e-06
-1.0417e-05
-5.88604e-07
-9.68486e-06
2.43683e-06
-8.89928e-06
5.2216e-06
-8.07069e-06
7.75327e-06
-7.21004e-06
1.00224e-05
-6.3285e-06
1.20228e-05
-5.43731e-06
1.37511e-05
-4.54746e-06
1.52075e-05
-3.66954e-06
1.63948e-05
-2.81351e-06
1.7319e-05
-1.98848e-06
1.79887e-05
-1.20255e-06
1.8415e-05
-4.62696e-07
1.8611e-05
2.25351e-07
1.85918e-05
8.57162e-07
1.83739e-05
1.42961e-06
1.79747e-05
1.94088e-06
1.74128e-05
2.39033e-06
1.67067e-05
2.77844e-06
1.58753e-05
3.10663e-06
1.49372e-05
3.377e-06
1.39107e-05
3.59213e-06
1.28137e-05
3.75477e-06
1.16634e-05
3.86748e-06
1.04767e-05
3.9323e-06
9.27018e-06
3.95037e-06
8.06049e-06
3.92154e-06
6.8645e-06
3.84413e-06
5.69972e-06
3.71468e-06
4.58466e-06
3.52798e-06
3.53903e-06
3.27741e-06
2.58393e-06
2.95571e-06
1.74173e-06
2.55658e-06
1.03604e-06
2.07727e-06
4.91634e-07
1.5224e-06
1.3534e-07
9.09302e-07
2.80137e-07
9.253e-08
-3.28185e-07
3.1066e-07
-8.51442e-07
6.10984e-07
-1.2404e-06
9.59122e-07
-1.50028e-06
1.32627e-06
-1.64129e-06
1.6879e-06
-1.67659e-06
2.02308e-06
-1.62076e-06
2.31409e-06
-1.48858e-06
2.54616e-06
-1.2942e-06
2.70722e-06
-1.05059e-06
2.78759e-06
-7.69247e-07
2.77966e-06
-4.60046e-07
2.67761e-06
-1.31154e-07
2.47704e-06
2.10941e-07
2.17463e-06
5.61355e-07
1.76785e-06
9.16703e-07
1.25465e-06
1.27495e-06
6.33219e-07
1.63524e-06
-9.82314e-08
1.9977e-06
-9.41623e-07
2.36322e-06
-1.89913e-06
2.73325e-06
-2.97321e-06
3.10957e-06
-4.16667e-06
3.49407e-06
-5.48255e-06
3.88859e-06
-6.92408e-06
4.2947e-06
-8.49457e-06
4.71361e-06
-1.01972e-05
5.14602e-06
-1.2035e-05
5.59205e-06
-1.40105e-05
6.05121e-06
-1.61256e-05
6.52235e-06
-1.83814e-05
7.0037e-06
-2.07782e-05
7.49283e-06
-2.33151e-05
7.98672e-06
-2.59898e-05
8.48181e-06
-2.87988e-05
8.97401e-06
-3.17371e-05
9.45879e-06
-3.4798e-05
9.93122e-06
-3.79734e-05
1.0386e-05
-4.12533e-05
1.08177e-05
-4.46263e-05
1.12205e-05
-4.80791e-05
1.15885e-05
-5.15973e-05
1.1916e-05
-5.51646e-05
1.21971e-05
-5.87637e-05
1.24261e-05
-6.23758e-05
1.25977e-05
-6.59814e-05
1.27067e-05
-6.95599e-05
1.27484e-05
-7.30904e-05
1.27187e-05
-7.65513e-05
1.26139e-05
-7.99208e-05
1.2431e-05
-8.31775e-05
1.21677e-05
-8.62997e-05
1.18222e-05
-8.92666e-05
1.13938e-05
-9.20578e-05
1.08823e-05
-9.46538e-05
1.02882e-05
-9.70361e-05
9.61302e-06
-9.91871e-05
8.8588e-06
-0.000101091
8.02842e-06
-0.000102732
7.12545e-06
-0.000104099
6.15416e-06
-0.000105177
5.11947e-06
-0.000105959
4.02694e-06
-0.000106435
2.88273e-06
-0.000106597
1.69358e-06
-0.000106443
4.66972e-07
-0.000105966
-7.89864e-07
-0.000105168
-2.06867e-06
-0.000104047
-3.36047e-06
-0.000102607
-4.65627e-06
-0.000100851
-5.94678e-06
-9.87845e-05
-7.22236e-06
-9.64164e-05
-8.47316e-06
-9.37562e-05
-9.68917e-06
-9.08154e-05
-1.08603e-05
-8.76078e-05
-1.19765e-05
-8.41487e-05
-1.30278e-05
-8.04554e-05
-1.40044e-05
-7.65472e-05
-1.48969e-05
-7.24448e-05
-1.56965e-05
-6.81708e-05
-1.63948e-05
-6.37493e-05
-1.69842e-05
-5.92058e-05
-1.74581e-05
-5.45671e-05
-1.78108e-05
-4.98611e-05
-1.80379e-05
-4.51165e-05
-1.81364e-05
-4.03628e-05
-1.81044e-05
-3.56295e-05
-1.79419e-05
-3.09464e-05
-1.76503e-05
-2.63431e-05
-1.72328e-05
-2.18485e-05
-1.66941e-05
-1.74905e-05
-1.60407e-05
-1.32958e-05
-1.52806e-05
-9.28955e-06
-1.44233e-05
-5.49477e-06
-1.34796e-05
-1.93234e-06
-1.24617e-05
1.37942e-06
-1.13825e-05
4.425e-06
-1.02556e-05
7.19186e-06
-9.09537e-06
9.67064e-06
-7.91609e-06
1.18552e-05
-6.73202e-06
1.37427e-05
-5.55705e-06
1.53336e-05
-4.40439e-06
1.66314e-05
-3.28633e-06
1.76429e-05
-2.21402e-06
1.83775e-05
-1.19725e-06
1.88471e-05
-2.44334e-07
1.90663e-05
6.38027e-07
1.90511e-05
1.44478e-06
1.88195e-05
2.1725e-06
1.83904e-05
2.81938e-06
1.77839e-05
3.38502e-06
1.70202e-05
3.87034e-06
1.61199e-05
4.27722e-06
1.51038e-05
4.60829e-06
1.3992e-05
4.8665e-06
1.28048e-05
5.05469e-06
1.15619e-05
5.17522e-06
1.02829e-05
5.2294e-06
8.98729e-06
5.21714e-06
7.6949e-06
5.13652e-06
6.42601e-06
4.98357e-06
5.20173e-06
4.75227e-06
4.04428e-06
4.43485e-06
2.97733e-06
4.02266e-06
2.02627e-06
3.50764e-06
1.21878e-06
2.88477e-06
5.85831e-07
2.15534e-06
1.63827e-07
1.33131e-06
4.43964e-07
9.36399e-08
-4.21824e-07
3.12557e-07
-1.07036e-06
6.09763e-07
-1.53761e-06
9.47852e-07
-1.83837e-06
1.29593e-06
-1.98936e-06
1.62813e-06
-2.00879e-06
1.92269e-06
-1.91532e-06
2.16131e-06
-1.72721e-06
2.32876e-06
-1.46165e-06
2.41248e-06
-1.1343e-06
2.40225e-06
-7.59025e-07
2.28991e-06
-3.47698e-07
2.06894e-06
8.98149e-08
1.73421e-06
5.45666e-07
1.28163e-06
1.01393e-06
7.07846e-07
1.49049e-06
9.96515e-09
1.97283e-06
-8.14664e-07
2.45987e-06
-1.76865e-06
2.95169e-06
-2.85471e-06
3.44928e-06
-4.07575e-06
3.95429e-06
-5.43487e-06
4.46869e-06
-6.93541e-06
4.99461e-06
-8.5808e-06
5.53398e-06
-1.03745e-05
6.08841e-06
-1.23198e-05
6.65895e-06
-1.44198e-05
7.24601e-06
-1.6677e-05
7.8492e-06
-1.90931e-05
8.46733e-06
-2.16691e-05
9.09834e-06
-2.44048e-05
9.73936e-06
-2.72986e-05
1.03867e-05
-3.03478e-05
1.10359e-05
-3.35478e-05
1.16818e-05
-3.68925e-05
1.23187e-05
-4.03739e-05
1.29402e-05
-4.39823e-05
1.35396e-05
-4.77061e-05
1.41099e-05
-5.1532e-05
1.46436e-05
-5.54449e-05
1.51334e-05
-5.94281e-05
1.55717e-05
-6.34632e-05
1.59511e-05
-6.75306e-05
1.62645e-05
-7.16096e-05
1.65051e-05
-7.56784e-05
1.66665e-05
-7.97146e-05
1.67428e-05
-8.36952e-05
1.6729e-05
-8.7597e-05
1.66205e-05
-9.13969e-05
1.64138e-05
-9.50719e-05
1.6106e-05
-9.85995e-05
1.56953e-05
-0.000101958
1.51807e-05
-0.000105127
1.45623e-05
-0.000108085
1.38408e-05
-0.000110815
1.3018e-05
-0.000113298
1.20966e-05
-0.00011552
1.10802e-05
-0.000117464
9.97295e-06
-0.000119119
8.78005e-06
-0.000120472
7.50727e-06
-0.000121514
6.16112e-06
-0.000122235
4.74875e-06
-0.000122631
3.27791e-06
-0.000122694
1.75694e-06
-0.000122422
1.95158e-07
-0.000121813
-1.39934e-06
-0.000120866
-3.01566e-06
-0.000119582
-4.64376e-06
-0.000117966
-6.27298e-06
-0.00011602
-7.89233e-06
-0.000113752
-9.49051e-06
-0.000111169
-1.10559e-05
-0.000108281
-1.25769e-05
-0.0001051
-1.40416e-05
-0.000101639
-1.54381e-05
-9.79115e-05
-1.67548e-05
-9.39359e-05
-1.798e-05
-8.97301e-05
-1.91027e-05
-8.53145e-05
-2.01121e-05
-8.07112e-05
-2.09982e-05
-7.59436e-05
-2.17518e-05
-7.1037e-05
-2.23647e-05
-6.6018e-05
-2.28298e-05
-6.09144e-05
-2.31415e-05
-5.57553e-05
-2.32955e-05
-5.05703e-05
-2.32894e-05
-4.53899e-05
-2.31223e-05
-4.02449e-05
-2.27954e-05
-3.5166e-05
-2.23118e-05
-3.01836e-05
-2.16765e-05
-2.53275e-05
-2.08968e-05
-2.06265e-05
-1.99816e-05
-1.61079e-05
-1.89418e-05
-1.17975e-05
-1.77901e-05
-7.71878e-06
-1.65404e-05
-3.89301e-06
-1.52082e-05
-3.38717e-07
-1.38099e-05
2.92848e-06
-1.23626e-05
5.89604e-06
-1.08836e-05
8.55473e-06
-9.39071e-06
1.08987e-05
-7.901e-06
1.29254e-05
-6.43111e-06
1.46358e-05
-4.99671e-06
1.6034e-05
-3.61224e-06
1.71274e-05
-2.29063e-06
1.79261e-05
-1.0431e-06
1.84432e-05
1.20934e-07
1.86939e-05
1.19413e-06
1.86954e-05
2.17097e-06
1.84668e-05
3.04799e-06
1.80283e-05
3.8235e-06
1.74012e-05
4.49743e-06
1.66074e-05
5.07105e-06
1.56691e-05
5.54662e-06
1.46086e-05
5.92698e-06
1.34483e-05
6.215e-06
1.22104e-05
6.41312e-06
1.0917e-05
6.52275e-06
9.59039e-06
6.54378e-06
8.25283e-06
6.47408e-06
6.92716e-06
6.30924e-06
5.63694e-06
6.04248e-06
4.40688e-06
5.66491e-06
3.26326e-06
5.16629e-06
2.23458e-06
4.53632e-06
1.35267e-06
3.76668e-06
6.54327e-07
2.85369e-06
1.8409e-07
1.80154e-06
6.28054e-07
9.05206e-08
-5.12344e-07
2.99614e-07
-1.27945e-06
5.7858e-07
-1.81658e-06
8.88305e-07
-2.1481e-06
1.19666e-06
-2.29772e-06
1.47701e-06
-2.28914e-06
1.70717e-06
-2.14548e-06
1.86862e-06
-1.88866e-06
1.94594e-06
-1.53896e-06
1.92635e-06
-1.11471e-06
1.79934e-06
-6.32021e-07
1.55631e-06
-1.04669e-07
1.19024e-06
4.55893e-07
6.95332e-07
1.04057e-06
6.67782e-08
1.64249e-06
-6.9957e-07
2.25684e-06
-1.60743e-06
2.88069e-06
-2.66029e-06
3.51273e-06
-3.86159e-06
4.15299e-06
-5.2148e-06
4.8025e-06
-6.72351e-06
5.463e-06
-8.3914e-06
6.13659e-06
-1.02222e-05
6.8254e-06
-1.22196e-05
7.53135e-06
-1.43869e-05
8.25579e-06
-1.67274e-05
8.99942e-06
-1.92434e-05
9.76203e-06
-2.19367e-05
1.05424e-05
-2.48077e-05
1.13384e-05
-2.7856e-05
1.21466e-05
-3.10794e-05
1.29628e-05
-3.44743e-05
1.37816e-05
-3.80354e-05
1.45969e-05
-4.17552e-05
1.54017e-05
-4.56247e-05
1.61881e-05
-4.96325e-05
1.6948e-05
-5.37655e-05
1.76726e-05
-5.80085e-05
1.83529e-05
-6.23447e-05
1.89798e-05
-6.67553e-05
1.9544e-05
-7.12201e-05
2.00365e-05
-7.57176e-05
2.04486e-05
-8.02252e-05
2.07721e-05
-8.47193e-05
2.09993e-05
-8.9176e-05
2.11231e-05
-9.35707e-05
2.11376e-05
-9.78793e-05
2.10375e-05
-0.000102077
2.08186e-05
-0.000106141
2.04778e-05
-0.000110048
2.0013e-05
-0.000113776
1.94232e-05
-0.000117304
1.87085e-05
-0.000120612
1.78701e-05
-0.000123682
1.69103e-05
-0.000126496
1.58322e-05
-0.000129039
1.46399e-05
-0.000131297
1.33384e-05
-0.000133258
1.19335e-05
-0.00013491
1.0432e-05
-0.000136243
8.8409e-06
-0.000137251
7.16834e-06
-0.000137925
5.42287e-06
-0.00013826
3.61364e-06
-0.000138254
1.75037e-06
-0.000137902
-1.56208e-07
-0.000137205
-2.09685e-06
-0.000136162
-4.05896e-06
-0.000134774
-6.03135e-06
-0.000133045
-8.00196e-06
-0.000130979
-9.95838e-06
-0.000128582
-1.18879e-05
-0.00012586
-1.37773e-05
-0.000122824
-1.56135e-05
-0.000119482
-1.73829e-05
-0.000115848
-1.90722e-05
-0.000111935
-2.06677e-05
-0.000107759
-2.21564e-05
-0.000103337
-2.35251e-05
-9.86872e-05
-2.47614e-05
-9.38318e-05
-2.58536e-05
-8.87929e-05
-2.67906e-05
-8.35951e-05
-2.75625e-05
-7.82643e-05
-2.81606e-05
-7.2828e-05
-2.85778e-05
-6.7315e-05
-2.88085e-05
-6.17553e-05
-2.8849e-05
-5.61799e-05
-2.86977e-05
-5.06201e-05
-2.83551e-05
-4.51079e-05
-2.78239e-05
-3.96751e-05
-2.71093e-05
-3.43532e-05
-2.62188e-05
-2.91728e-05
-2.5162e-05
-2.41637e-05
-2.3951e-05
-1.9354e-05
-2.25998e-05
-1.47699e-05
-2.11245e-05
-1.04356e-05
-1.95426e-05
-6.3725e-06
-1.7873e-05
-2.59945e-06
-1.61356e-05
8.6792e-07
-1.4351e-05
4.01722e-06
-1.254e-05
6.83943e-06
-1.07232e-05
9.32905e-06
-8.92072e-06
1.14841e-05
-7.15173e-06
1.33059e-05
-5.43411e-06
1.47995e-05
-3.78419e-06
1.59728e-05
-2.21642e-06
1.68369e-05
-7.43159e-07
1.74056e-05
6.25432e-07
1.76951e-05
1.88148e-06
1.77237e-05
3.01936e-06
1.75116e-05
4.03564e-06
1.70801e-05
4.92886e-06
1.6452e-05
5.69922e-06
1.56504e-05
6.34824e-06
1.46991e-05
6.87824e-06
1.36223e-05
7.29183e-06
1.24441e-05
7.59131e-06
1.11889e-05
7.77797e-06
9.88105e-06
7.85159e-06
8.54535e-06
7.80978e-06
7.20692e-06
7.64768e-06
5.89167e-06
7.35773e-06
4.62672e-06
6.92986e-06
3.441e-06
6.35202e-06
2.36611e-06
5.6112e-06
1.43774e-06
4.69505e-06
6.97646e-07
3.59379e-06
1.96635e-07
2.30255e-06
8.24689e-07
8.3848e-08
-5.96193e-07
2.73726e-07
-1.46933e-06
5.20656e-07
-2.0635e-06
7.85015e-07
-2.41246e-06
1.03431e-06
-2.54701e-06
1.24178e-06
-2.49661e-06
1.38526e-06
-2.28897e-06
1.44636e-06
-1.94976e-06
1.40975e-06
-1.50235e-06
1.26265e-06
-9.67618e-07
9.94451e-07
-3.6382e-07
5.96232e-07
2.93549e-07
6.05754e-08
9.9155e-07
-6.1886e-07
1.72001e-06
-1.44757e-06
2.47119e-06
-2.43044e-06
3.23971e-06
-3.57198e-06
4.02223e-06
-4.87648e-06
4.81723e-06
-6.34814e-06
5.62465e-06
-7.99115e-06
6.4455e-06
-9.80965e-06
7.2815e-06
-1.18078e-05
8.1347e-06
-1.39894e-05
9.00707e-06
-1.63583e-05
9.9002e-06
-1.89175e-05
1.0815e-05
-2.16695e-05
1.17514e-05
-2.46159e-05
1.27084e-05
-2.77569e-05
1.36835e-05
-3.10916e-05
1.46731e-05
-3.46174e-05
1.56724e-05
-3.83299e-05
1.66753e-05
-4.22227e-05
1.76744e-05
-4.62874e-05
1.86617e-05
-5.05137e-05
1.96279e-05
-5.48887e-05
2.05632e-05
-5.93979e-05
2.14572e-05
-6.40245e-05
2.22992e-05
-6.87497e-05
2.30782e-05
-7.35532e-05
2.37833e-05
-7.84131e-05
2.44038e-05
-8.3306e-05
2.49294e-05
-8.82079e-05
2.53505e-05
-9.30938e-05
2.5658e-05
-9.79384e-05
2.58439e-05
-0.000102716
2.59011e-05
-0.000107402
2.58237e-05
-0.000111972
2.5607e-05
-0.000116401
2.52475e-05
-0.000120666
2.4743e-05
-0.000124745
2.40926e-05
-0.000128619
2.32966e-05
-0.000132267
2.23565e-05
-0.000135672
2.12748e-05
-0.000138817
2.00554e-05
-0.000141687
1.87028e-05
-0.00014427
1.72227e-05
-0.000146553
1.56216e-05
-0.000148526
1.39066e-05
-0.00015018
1.20858e-05
-0.000151507
1.01677e-05
-0.0001525
8.16151e-06
-0.000153154
6.07699e-06
-0.000153465
3.92445e-06
-0.000153429
1.71473e-06
-0.000153045
-5.40726e-07
-0.000152311
-2.83074e-06
-0.000151228
-5.14246e-06
-0.000149796
-7.46329e-06
-0.000148017
-9.78009e-06
-0.000145897
-1.20793e-05
-0.000143438
-1.43468e-05
-0.000140647
-1.65683e-05
-0.000137531
-1.87292e-05
-0.000134099
-2.08144e-05
-0.000130363
-2.2809e-05
-0.000126332
-2.46978e-05
-0.000122023
-2.64659e-05
-0.00011745
-2.80983e-05
-0.00011263
-2.95809e-05
-0.000107584
-3.08997e-05
-0.000102333
-3.20421e-05
-9.68991e-05
-3.2996e-05
-9.13087e-05
-3.37511e-05
-8.55882e-05
-3.42983e-05
-7.97662e-05
-3.46305e-05
-7.38727e-05
-3.47425e-05
-6.7939e-05
-3.46314e-05
-6.19972e-05
-3.42969e-05
-5.60803e-05
-3.37409e-05
-5.02214e-05
-3.29682e-05
-4.44538e-05
-3.19864e-05
-3.88101e-05
-3.08056e-05
-3.33224e-05
-2.94387e-05
-2.80212e-05
-2.7901e-05
-2.29356e-05
-2.62101e-05
-1.80925e-05
-2.43856e-05
-1.35167e-05
-2.24488e-05
-9.22987e-06
-2.04224e-05
-5.25093e-06
-1.833e-05
-1.59548e-06
-1.61955e-05
1.72435e-06
-1.4043e-05
4.69993e-06
-1.18963e-05
7.3263e-06
-9.77809e-06
9.60211e-06
-7.70992e-06
1.15296e-05
-5.71165e-06
1.31144e-05
-3.8012e-06
1.43654e-05
-1.99422e-06
1.52948e-05
-3.03939e-07
1.59173e-05
1.25901e-06
1.62501e-05
2.6865e-06
1.63128e-05
3.97294e-06
1.61266e-05
5.11504e-06
1.57143e-05
6.11154e-06
1.50998e-05
6.96279e-06
1.43078e-05
7.67026e-06
1.33636e-05
8.23595e-06
1.22932e-05
8.66171e-06
1.11227e-05
8.94853e-06
9.87839e-06
9.09588e-06
8.58715e-06
9.10101e-06
7.2763e-06
8.95853e-06
5.974e-06
8.66003e-06
4.70974e-06
8.19413e-06
3.51498e-06
7.54677e-06
2.42424e-06
6.70194e-06
1.47653e-06
5.64276e-06
7.17477e-07
4.35284e-06
2.02184e-07
2.81785e-06
1.02687e-06
7.40622e-08
-6.70256e-07
2.36255e-07
-1.63152e-06
4.38463e-07
-2.26571e-06
6.41615e-07
-2.61561e-06
8.13716e-07
-2.71911e-06
9.28523e-07
-2.61142e-06
9.64407e-07
-2.32485e-06
9.03431e-07
-1.88878e-06
7.30633e-07
-1.32955e-06
4.33455e-07
-6.70438e-07
1.27555e-09
6.83606e-08
-5.74857e-07
8.6968e-07
-1.30281e-06
1.7195e-06
-2.18938e-06
2.60658e-06
-3.24066e-06
3.52248e-06
-4.46223e-06
4.46128e-06
-5.85934e-06
5.41933e-06