/*--------------------------------*- C++ -*----------------------------------*\
| =========                 |                                                 |
| \\      /  F ield         | OpenFOAM: The Open Source CFD Toolbox           |
|  \\    /   O peration     | Version:  2112                                  |
|   \\  /    A nd           | Website:  www.openfoam.com                      |
|    \\/     M anipulation  |                                                 |
\*---------------------------------------------------------------------------*/
FoamFile
{
    version     2.0;
    format      ascii;
    arch        "LSB;label=32;scalar=64";
    class       volVectorField;
    location    "27";
    object      U;
}
// * * * * * * * * * * * * * * * * * * * * * * * * * * * * * * * * * * * * * //

dimensions      [0 1 -1 0 0 0 0];

internalField   nonuniform List<vector> 
16641
(
(-6.87885e-06 6.56955e-06 0)
(3.87998e-06 -6.55465e-06 0)
(5.70788e-05 -2.09965e-05 0)
(0.000140807 -3.09533e-05 0)
(0.000244745 -3.66644e-05 0)
(0.00035954 -3.90908e-05 0)
(0.000477451 -3.91081e-05 0)
(0.000592526 -3.74225e-05 0)
(0.000700353 -3.457e-05 0)
(0.00079776 -3.09525e-05 0)
(0.000882571 -2.6875e-05 0)
(0.000953402 -2.25702e-05 0)
(0.0010095 -1.82121e-05 0)
(0.00105058 -1.3926e-05 0)
(0.00107671 -9.7962e-06 0)
(0.00108819 -5.87346e-06 0)
(0.00108546 -2.17619e-06 0)
(0.00106898 1.30235e-06 0)
(0.00103922 4.58755e-06 0)
(0.000996549 7.72089e-06 0)
(0.000941204 1.0755e-05 0)
(0.000873279 1.37491e-05 0)
(0.000792695 1.67649e-05 0)
(0.000699197 1.98635e-05 0)
(0.000592364 2.31024e-05 0)
(0.00047162 2.6533e-05 0)
(0.000336256 3.01992e-05 0)
(0.000185457 3.41365e-05 0)
(1.8329e-05 3.83708e-05 0)
(-0.000166068 4.29195e-05 0)
(-0.000368693 4.77919e-05 0)
(-0.000590492 5.29893e-05 0)
(-0.000832374 5.8505e-05 0)
(-0.00109518 6.43255e-05 0)
(-0.00137967 7.04309e-05 0)
(-0.00168647 7.6795e-05 0)
(-0.0020161 8.33851e-05 0)
(-0.00236889 9.01619e-05 0)
(-0.002745 9.70798e-05 0)
(-0.0031444 0.000104086 0)
(-0.00356683 0.000111122 0)
(-0.00401178 0.000118121 0)
(-0.00447849 0.00012501 0)
(-0.00496591 0.000131708 0)
(-0.00547269 0.000138128 0)
(-0.00599719 0.000144178 0)
(-0.00653745 0.000149761 0)
(-0.00709117 0.000154772 0)
(-0.00765574 0.000159108 0)
(-0.00822823 0.000162659 0)
(-0.00880536 0.000165318 0)
(-0.00938358 0.000166978 0)
(-0.00995904 0.000167533 0)
(-0.0105276 0.000166882 0)
(-0.011085 0.000164931 0)
(-0.0116265 0.000161594 0)
(-0.0121474 0.000156795 0)
(-0.012643 0.000150469 0)
(-0.0131081 0.000142568 0)
(-0.0135379 0.000133056 0)
(-0.0139274 0.000121918 0)
(-0.0142716 0.000109159 0)
(-0.014566 9.48034e-05 0)
(-0.0148059 7.89014e-05 0)
(-0.0149871 6.15443e-05 0)
(-0.0151058 4.28441e-05 0)
(-0.0151587 2.28795e-05 0)
(-0.0151424 1.89582e-06 0)
(-0.0150547 -2.00611e-05 0)
(-0.0148938 -4.2732e-05 0)
(-0.0146587 -6.58679e-05 0)
(-0.0143489 -8.9216e-05 0)
(-0.0139648 -0.000112505 0)
(-0.0135078 -0.000135445 0)
(-0.0129799 -0.000157735 0)
(-0.0123841 -0.000179067 0)
(-0.0117242 -0.00019913 0)
(-0.011005 -0.000217618 0)
(-0.0102319 -0.000234239 0)
(-0.00941135 -0.000248718 0)
(-0.00855029 -0.000260807 0)
(-0.00765639 -0.00027029 0)
(-0.00673786 -0.000276994 0)
(-0.00580328 -0.000280789 0)
(-0.00486154 -0.000281599 0)
(-0.00392164 -0.0002794 0)
(-0.00299259 -0.00027423 0)
(-0.00208323 -0.00026618 0)
(-0.00120205 -0.000255399 0)
(-0.000357041 -0.000242099 0)
(0.000444329 -0.00022657 0)
(0.00119539 -0.000209022 0)
(0.00189044 -0.000189846 0)
(0.00252461 -0.000169393 0)
(0.00309409 -0.000148033 0)
(0.00359616 -0.000126142 0)
(0.00402916 -0.000104093 0)
(0.00439252 -8.2243e-05 0)
(0.00468669 -6.09248e-05 0)
(0.0049131 -4.04388e-05 0)
(0.00507406 -2.10468e-05 0)
(0.00517267 -2.96748e-06 0)
(0.00521269 1.36264e-05 0)
(0.00519843 2.8609e-05 0)
(0.00513461 4.19029e-05 0)
(0.00502622 5.34746e-05 0)
(0.00487842 6.33324e-05 0)
(0.00469639 7.15224e-05 0)
(0.00448522 7.81237e-05 0)
(0.00424984 8.32425e-05 0)
(0.00399489 8.70066e-05 0)
(0.00372472 8.9559e-05 0)
(0.00344326 9.10508e-05 0)
(0.00315407 9.16343e-05 0)
(0.00286032 9.1454e-05 0)
(0.0025648 9.06379e-05 0)
(0.00226998 8.92852e-05 0)
(0.00197814 8.74535e-05 0)
(0.0016915 8.5142e-05 0)
(0.00141235 8.22717e-05 0)
(0.00114338 7.86617e-05 0)
(0.000887879 7.40008e-05 0)
(0.000650099 6.78166e-05 0)
(0.000435611 5.9451e-05 0)
(0.000251598 4.80839e-05 0)
(0.000106768 3.29328e-05 0)
(1.032e-05 1.38842e-05 0)
(-3.01409e-05 -6.6725e-06 0)
(-1.78013e-05 -1.7847e-05 0)
(6.35884e-06 -4.30508e-06 0)
(6.88144e-05 -6.91331e-05 0)
(0.000216868 -0.000132747 0)
(0.000425858 -0.000179148 0)
(0.000675813 -0.000207571 0)
(0.000948715 -0.000220407 0)
(0.00122812 -0.000220637 0)
(0.00150026 -0.000211121 0)
(0.00175427 -0.000194337 0)
(0.00198183 -0.000172343 0)
(0.00217689 -0.000146821 0)
(0.00233523 -0.000119122 0)
(0.00245421 -9.03014e-05 0)
(0.00253235 -6.11535e-05 0)
(0.00256911 -3.22413e-05 0)
(0.00256455 -3.92656e-06 0)
(0.00251914 2.36095e-05 0)
(0.0024335 5.03366e-05 0)
(0.00230829 7.63472e-05 0)
(0.00214399 0.000101829 0)
(0.00194083 0.000127041 0)
(0.00169873 0.000152284 0)
(0.00141722 0.000177881 0)
(0.00109544 0.000204153 0)
(0.000732161 0.000231404 0)
(0.000325828 0.000259899 0)
(-0.000125417 0.000289864 0)
(-0.000623645 0.000321468 0)
(-0.00117107 0.000354825 0)
(-0.00176997 0.000389992 0)
(-0.00242262 0.000426968 0)
(-0.00313117 0.000465697 0)
(-0.00389764 0.000506068 0)
(-0.00472375 0.000547924 0)
(-0.00561095 0.000591056 0)
(-0.00656028 0.000635212 0)
(-0.00757234 0.000680097 0)
(-0.00864722 0.000725369 0)
(-0.00978443 0.000770648 0)
(-0.0109829 0.000815511 0)
(-0.0122408 0.000859496 0)
(-0.0135557 0.000902107 0)
(-0.0149244 0.000942811 0)
(-0.0163429 0.000981045 0)
(-0.0178063 0.00101622 0)
(-0.0193089 0.00104773 0)
(-0.0208444 0.00107496 0)
(-0.0224054 0.00109728 0)
(-0.0239837 0.00111406 0)
(-0.0255707 0.0011247 0)
(-0.0271566 0.00112861 0)
(-0.0287312 0.00112522 0)
(-0.0302836 0.00111402 0)
(-0.0318025 0.00109453 0)
(-0.033276 0.00106636 0)
(-0.034692 0.00102915 0)
(-0.0360381 0.000982658 0)
(-0.0373018 0.000926702 0)
(-0.0384708 0.000861208 0)
(-0.0395327 0.000786207 0)
(-0.0404757 0.000701839 0)
(-0.0412882 0.000608361 0)
(-0.0419593 0.000506151 0)
(-0.0424788 0.000395725 0)
(-0.0428376 0.000277775 0)
(-0.0430276 0.000153046 0)
(-0.0430417 2.20089e-05 0)
(-0.0428739 -0.000113607 0)
(-0.0425201 -0.00025301 0)
(-0.0419776 -0.000394958 0)
(-0.0412455 -0.000538069 0)
(-0.0403245 -0.000680889 0)
(-0.0392173 -0.000821893 0)
(-0.0379283 -0.000959495 0)
(-0.036464 -0.00109207 0)
(-0.0348327 -0.001218 0)
(-0.0330449 -0.00133566 0)
(-0.0311125 -0.00144347 0)
(-0.0290497 -0.00153995 0)
(-0.026872 -0.0016237 0)
(-0.0245966 -0.00169348 0)
(-0.0222419 -0.00174821 0)
(-0.0198275 -0.00178702 0)
(-0.017374 -0.00180927 0)
(-0.0149023 -0.00181457 0)
(-0.0124339 -0.00180281 0)
(-0.00999013 -0.00177414 0)
(-0.00759201 -0.00172903 0)
(-0.00525993 -0.00166821 0)
(-0.00301325 -0.00159271 0)
(-0.000870062 -0.00150383 0)
(0.00115308 -0.001403 0)
(0.00304154 -0.00129193 0)
(0.00478278 -0.0011725 0)
(0.00636642 -0.00104666 0)
(0.00778453 -0.000916425 0)
(0.00903159 -0.000783829 0)
(0.0101046 -0.00065086 0)
(0.0110029 -0.000519423 0)
(0.0117284 -0.000391291 0)
(0.0122849 -0.000268069 0)
(0.0126785 -0.000151164 0)
(0.0129168 -4.17586e-05 0)
(0.0130092 5.92028e-05 0)
(0.0129663 0.000151022 0)
(0.0127994 0.000233249 0)
(0.0125208 0.000305666 0)
(0.0121428 0.000368281 0)
(0.0116782 0.000421304 0)
(0.0111391 0.000465117 0)
(0.0105378 0.000500251 0)
(0.00988552 0.000527344 0)
(0.0091931 0.000547102 0)
(0.00847045 0.000560259 0)
(0.0077267 0.000567519 0)
(0.00697022 0.000569504 0)
(0.00620875 0.000566686 0)
(0.00544963 0.000559318 0)
(0.00470007 0.000547351 0)
(0.00396754 0.000530352 0)
(0.00326028 0.000507423 0)
(0.00258778 0.000477128 0)
(0.0019613 0.000437474 0)
(0.00139431 0.000385984 0)
(0.000902552 0.000320076 0)
(0.000503159 0.000238091 0)
(0.000212103 0.000141562 0)
(4.13277e-05 4.04431e-05 0)
(-6.40844e-06 -3.02047e-05 0)
(2.08925e-05 -5.72105e-05 0)
(0.000132786 -0.000217164 0)
(0.000360799 -0.000360399 0)
(0.000665205 -0.000466074 0)
(0.00101891 -0.000531893 0)
(0.00139915 -0.000561399 0)
(0.0017845 -0.000560146 0)
(0.00215638 -0.000534083 0)
(0.00249957 -0.000488773 0)
(0.00280204 -0.000429111 0)
(0.00305466 -0.000359258 0)
(0.00325081 -0.00028265 0)
(0.00338597 -0.000202034 0)
(0.00345728 -0.000119525 0)
(0.00346319 -3.66575e-05 0)
(0.00340308 4.55587e-05 0)
(0.00327693 0.000126561 0)
(0.00308499 0.000206187 0)
(0.00282759 0.000284597 0)
(0.00250489 0.00036221 0)
(0.00211674 0.000439625 0)
(0.00166257 0.000517566 0)
(0.00114134 0.000596808 0)
(0.0005515 0.000678131 0)
(-0.000108959 0.000762262 0)
(-0.000842482 0.000849838 0)
(-0.00165185 0.000941377 0)
(-0.0025401 0.00103725 0)
(-0.00351036 0.00113768 0)
(-0.0045658 0.00124273 0)
(-0.00570943 0.00135229 0)
(-0.00694406 0.0014661 0)
(-0.00827207 0.00158375 0)
(-0.0096954 0.00170467 0)
(-0.0112154 0.00182818 0)
(-0.0128326 0.00195345 0)
(-0.0145469 0.00207954 0)
(-0.0163573 0.00220536 0)
(-0.0182616 0.00232975 0)
(-0.0202569 0.00245142 0)
(-0.0223389 0.00256898 0)
(-0.0245022 0.00268098 0)
(-0.0267403 0.00278588 0)
(-0.0290455 0.00288207 0)
(-0.0314088 0.00296792 0)
(-0.0338199 0.00304177 0)
(-0.0362673 0.00310196 0)
(-0.0387386 0.00314685 0)
(-0.04122 0.00317484 0)
(-0.043697 0.00318443 0)
(-0.0461538 0.00317418 0)
(-0.0485742 0.00314279 0)
(-0.0509411 0.00308911 0)
(-0.053237 0.00301215 0)
(-0.055444 0.00291113 0)
(-0.057544 0.00278545 0)
(-0.0595191 0.00263477 0)
(-0.0613512 0.00245901 0)
(-0.063023 0.00225831 0)
(-0.0645174 0.00203313 0)
(-0.0658182 0.00178421 0)
(-0.0669101 0.00151255 0)
(-0.0677791 0.00121951 0)
(-0.0684122 0.000906715 0)
(-0.0687981 0.000576205 0)
(-0.0689277 0.000230235 0)
(-0.0687925 -0.000129679 0)
(-0.0683859 -0.000499443 0)
(-0.0677049 -0.000876354 0)
(-0.0667476 -0.00125728 0)
(-0.0655147 -0.00163876 0)
(-0.0640092 -0.00201712 0)
(-0.0622365 -0.00238855 0)
(-0.0602046 -0.00274917 0)
(-0.0579239 -0.00309503 0)
(-0.0554074 -0.0034222 0)
(-0.0526702 -0.00372682 0)
(-0.0497302 -0.00400515 0)
(-0.0466073 -0.00425367 0)
(-0.0433234 -0.0044691 0)
(-0.0399024 -0.00464853 0)
(-0.0363698 -0.00478943 0)
(-0.0327527 -0.00488977 0)
(-0.0290791 -0.00494802 0)
(-0.0253779 -0.00496326 0)
(-0.0216782 -0.00493517 0)
(-0.0180095 -0.00486411 0)
(-0.0144007 -0.0047511 0)
(-0.0108801 -0.00459782 0)
(-0.00747467 -0.00440661 0)
(-0.00421005 -0.00418044 0)
(-0.00110983 -0.0039228 0)
(0.00180464 -0.00363768 0)
(0.00451459 -0.00332948 0)
(0.00700413 -0.00300297 0)
(0.00926042 -0.00266306 0)
(0.0112738 -0.00231474 0)
(0.0130379 -0.00196302 0)
(0.0145498 -0.00161273 0)
(0.0158096 -0.00126848 0)
(0.0168207 -0.00093453 0)
(0.0175893 -0.000614691 0)
(0.0181244 -0.000312287 0)
(0.0184374 -3.0084e-05 0)
(0.0185416 0.000229741 0)
(0.0184521 0.000465613 0)
(0.0181852 0.000676555 0)
(0.017758 0.000862164 0)
(0.0171883 0.00102257 0)
(0.0164938 0.00115838 0)
(0.015692 0.0012706 0)
(0.0148002 0.00136057 0)
(0.0138346 0.00142982 0)
(0.0128107 0.00148001 0)
(0.0117432 0.00151274 0)
(0.0106456 0.00152945 0)
(0.00953097 0.00153121 0)
(0.00841164 0.00151859 0)
(0.00729985 0.00149144 0)
(0.00620816 0.00144877 0)
(0.00514995 0.00138852 0)
(0.00414004 0.00130758 0)
(0.00319513 0.00120182 0)
(0.00233412 0.00106652 0)
(0.00157804 0.00089742 0)
(0.000948617 0.000692922 0)
(0.000465227 0.000458129 0)
(0.000146162 0.000212436 0)
(1.50642e-05 1.15119e-05 0)
(3.10692e-05 -0.00014103 0)
(0.00018019 -0.000426806 0)
(0.000468651 -0.000665222 0)
(0.00084132 -0.000837991 0)
(0.0012643 -0.000943854 0)
(0.00171129 -0.000988385 0)
(0.00215764 -0.000980057 0)
(0.00258176 -0.000928185 0)
(0.00296562 -0.000841768 0)
(0.0032947 -0.000728961 0)
(0.00355764 -0.000596853 0)
(0.00374587 -0.000451407 0)
(0.00385324 -0.000297467 0)
(0.00387556 -0.000138814 0)
(0.00381014 2.1769e-05 0)
(0.00365543 0.000182406 0)
(0.00341058 0.000342021 0)
(0.00307516 0.000500233 0)
(0.0026488 0.000657243 0)
(0.00213103 0.000813708 0)
(0.00152104 0.000970617 0)
(0.00081757 0.00112917 0)
(1.88562e-05 0.00129068 0)
(-0.000877396 0.00145644 0)
(-0.00187397 0.00162764 0)
(-0.00297408 0.00180534 0)
(-0.00418123 0.00199033 0)
(-0.00549912 0.00218315 0)
(-0.00693145 0.00238405 0)
(-0.00848179 0.00259297 0)
(-0.0101534 0.00280953 0)
(-0.0119491 0.00303305 0)
(-0.0138711 0.00326258 0)
(-0.0159206 0.00349686 0)
(-0.0180982 0.00373438 0)
(-0.0204033 0.00397339 0)
(-0.0228339 0.00421191 0)
(-0.0253871 0.00444771 0)
(-0.0280584 0.00467841 0)
(-0.0308417 0.00490143 0)
(-0.0337298 0.00511402 0)
(-0.0367134 0.00531333 0)
(-0.0397822 0.0054964 0)
(-0.0429239 0.0056602 0)
(-0.0461248 0.00580168 0)
(-0.0493697 0.00591781 0)
(-0.0526422 0.00600561 0)
(-0.0559244 0.00606221 0)
(-0.0591971 0.00608488 0)
(-0.0624405 0.0060711 0)
(-0.0656336 0.00601857 0)
(-0.0687548 0.00592529 0)
(-0.0717822 0.00578957 0)
(-0.0746934 0.00561008 0)
(-0.0774662 0.00538587 0)
(-0.0800784 0.00511643 0)
(-0.0825083 0.00480166 0)
(-0.0847347 0.00444196 0)
(-0.0867375 0.00403816 0)
(-0.0884972 0.0035916 0)
(-0.0899959 0.00310412 0)
(-0.091217 0.00257802 0)
(-0.0921456 0.00201612 0)
(-0.0927683 0.00142167 0)
(-0.093074 0.00079823 0)
(-0.0930545 0.00015002 0)
(-0.092702 -0.00051657 0)
(-0.0920105 -0.00119839 0)
(-0.0909794 -0.00188976 0)
(-0.0896089 -0.00258478 0)
(-0.0879017 -0.00327736 0)
(-0.0858634 -0.00396122 0)
(-0.0835022 -0.00462986 0)
(-0.0808289 -0.00527673 0)
(-0.0778573 -0.00589521 0)
(-0.0746035 -0.00647876 0)
(-0.0710862 -0.00702098 0)
(-0.0673269 -0.00751569 0)
(-0.063349 -0.00795707 0)
(-0.0591786 -0.00833975 0)
(-0.0548434 -0.00865892 0)
(-0.0503731 -0.00891041 0)
(-0.0457989 -0.00909083 0)
(-0.0411534 -0.00919763 0)
(-0.0364698 -0.00922921 0)
(-0.0317821 -0.00918497 0)
(-0.0271244 -0.00906537 0)
(-0.0225305 -0.00887195 0)
(-0.0180337 -0.00860737 0)
(-0.0136662 -0.00827535 0)
(-0.00945851 -0.00788062 0)
(-0.00543943 -0.00742892 0)
(-0.0016353 -0.00692678 0)
(0.00193014 -0.00638152 0)
(0.00523622 -0.00580102 0)
(0.00826563 -0.00519359 0)
(0.0110045 -0.0045678 0)
(0.0134427 -0.00393224 0)
(0.0155739 -0.00329541 0)
(0.0173954 -0.00266547 0)
(0.0189085 -0.00205008 0)
(0.0201178 -0.0014563 0)
(0.0210315 -0.000890369 0)
(0.0216606 -0.000357659 0)
(0.0220192 0.000137428 0)
(0.0221235 0.0005915 0)
(0.0219916 0.0010022 0)
(0.0216434 0.00136817 0)
(0.0210995 0.00168901 0)
(0.0203812 0.0019652 0)
(0.01951 0.00219798 0)
(0.0185074 0.0023892 0)
(0.0173942 0.00254114 0)
(0.0161904 0.00265636 0)
(0.0149156 0.00273738 0)
(0.013588 0.0027865 0)
(0.0122256 0.00280547 0)
(0.0108454 0.00279522 0)
(0.00946439 0.00275556 0)
(0.00809991 0.00268491 0)
(0.00676991 0.0025801 0)
(0.00549368 0.00243638 0)
(0.00429219 0.00224764 0)
(0.00318838 0.00200717 0)
(0.0022071 0.00170928 0)
(0.00137373 0.00135243 0)
(0.000711513 0.0009442 0)
(0.000248612 0.000509625 0)
(3.56748e-05 0.000112246 0)
(3.72049e-05 -0.000245849 0)
(0.00021038 -0.000678858 0)
(0.000538054 -0.00102093 0)
(0.000952399 -0.00126181 0)
(0.00141339 -0.00140428 0)
(0.00189161 -0.00145739 0)
(0.00236007 -0.00143313 0)
(0.00279514 -0.00134443 0)
(0.00317707 -0.00120388 0)
(0.00348967 -0.00102301 0)
(0.00372001 -0.000812004 0)
(0.00385811 -0.000579521 0)
(0.00389648 -0.000332673 0)
(0.00382967 -7.7061e-05 0)
(0.00365389 0.000183141 0)
(0.00336653 0.000445074 0)
(0.00296577 0.000707066 0)
(0.00245023 0.000968466 0)
(0.00181869 0.00122948 0)
(0.00106979 0.00149098 0)
(0.00020186 0.00175435 0)
(-0.000787172 0.00202127 0)
(-0.00189988 0.00229356 0)
(-0.00313933 0.00257302 0)
(-0.00450902 0.00286129 0)
(-0.00601277 0.00315975 0)
(-0.0076546 0.00346939 0)
(-0.00943856 0.0037908 0)
(-0.0113685 0.00412407 0)
(-0.013448 0.00446881 0)
(-0.01568 0.00482415 0)
(-0.0180666 0.00518872 0)
(-0.0206091 0.00556068 0)
(-0.0233076 0.00593776 0)
(-0.0261608 0.00631726 0)
(-0.0291661 0.00669611 0)
(-0.0323192 0.00707089 0)
(-0.0356142 0.00743784 0)
(-0.0390432 0.00779294 0)
(-0.0425968 0.00813192 0)
(-0.0462635 0.00845032 0)
(-0.0500301 0.00874354 0)
(-0.0538814 0.0090069 0)
(-0.0578004 0.00923569 0)
(-0.0617687 0.00942526 0)
(-0.0657661 0.00957106 0)
(-0.069771 0.00966873 0)
(-0.0737607 0.00971416 0)
(-0.0777115 0.00970359 0)
(-0.0815987 0.00963361 0)
(-0.0853971 0.00950129 0)
(-0.0890815 0.00930419 0)
(-0.0926261 0.00904043 0)
(-0.0960056 0.00870872 0)
(-0.099195 0.00830841 0)
(-0.10217 0.00783948 0)
(-0.104908 0.0073026 0)
(-0.107385 0.00669913 0)
(-0.109581 0.00603109 0)
(-0.111477 0.00530121 0)
(-0.113055 0.0045129 0)
(-0.114298 0.00367021 0)
(-0.115193 0.00277786 0)
(-0.115728 0.00184115 0)
(-0.115894 0.00086585 0)
(-0.11568 -0.00014152 0)
(-0.115084 -0.0011722 0)
(-0.114105 -0.00222059 0)
(-0.112739 -0.00327841 0)
(-0.110991 -0.00433711 0)
(-0.108865 -0.00538794 0)
(-0.106369 -0.0064219 0)
(-0.103513 -0.00742983 0)
(-0.10031 -0.00840244 0)
(-0.0967759 -0.00933046 0)
(-0.0929288 -0.0102047 0)
(-0.0887893 -0.0110163 0)
(-0.0843805 -0.0117565 0)
(-0.0797279 -0.0124173 0)
(-0.0748592 -0.0129912 0)
(-0.0698042 -0.0134714 0)
(-0.0645945 -0.013852 0)
(-0.0592632 -0.0141281 0)
(-0.0538451 -0.0142962 0)
(-0.0483758 -0.0143537 0)
(-0.0428917 -0.0142997 0)
(-0.0374295 -0.0141346 0)
(-0.032026 -0.0138602 0)
(-0.0267176 -0.01348 0)
(-0.0215397 -0.0129988 0)
(-0.0165265 -0.0124232 0)
(-0.0117104 -0.0117609 0)
(-0.0071218 -0.011021 0)
(-0.0027883 -0.0102135 0)
(0.00126524 -0.00934962 0)
(0.00501735 -0.00844108 0)
(0.00845008 -0.00750016 0)
(0.0115493 -0.00653934 0)
(0.0143048 -0.00557103 0)
(0.0167106 -0.00460738 0)
(0.0187644 -0.00365995 0)
(0.0204684 -0.00273952 0)
(0.0218282 -0.00185586 0)
(0.0228533 -0.00101759 0)
(0.0235565 -0.000231984 0)
(0.0239535 0.000495099 0)
(0.0240626 0.00115926 0)
(0.0239043 0.00175758 0)
(0.0235006 0.00228854 0)
(0.0228748 0.00275197 0)
(0.0220509 0.00314887 0)
(0.0210532 0.00348124 0)
(0.019906 0.0037518 0)
(0.018633 0.00396374 0)
(0.0172577 0.00412036 0)
(0.0158026 0.0042247 0)
(0.0142898 0.00427916 0)
(0.0127408 0.00428502 0)
(0.011177 0.00424209 0)
(0.00961975 0.00414836 0)
(0.00809123 0.00399973 0)
(0.00661455 0.00379007 0)
(0.00521429 0.00351159 0)
(0.00391679 0.0031558 0)
(0.00275032 0.00271554 0)
(0.00174407 0.00218841 0)
(0.000926231 0.00158185 0)
(0.000336436 0.0009208 0)
(5.25225e-05 0.000265085 0)
(4.02512e-05 -0.000362728 0)
(0.000225531 -0.000955824 0)
(0.00057177 -0.00140504 0)
(0.00100231 -0.00171109 0)
(0.00147223 -0.00188319 0)
(0.0019494 -0.00193528 0)
(0.00240501 -0.00188368 0)
(0.00281411 -0.00174526 0)
(0.00315579 -0.00153635 0)
(0.00341285 -0.00127193 0)
(0.00357133 -0.000965297 0)
(0.00362021 -0.000627845 0)
(0.00355093 -0.000268985 0)
(0.003357 0.000103818 0)
(0.00303354 0.000484963 0)
(0.00257687 0.000870578 0)
(0.00198412 0.00125835 0)
(0.00125289 0.00164734 0)
(0.000380895 0.00203771 0)
(-0.0006342 0.00243055 0)
(-0.00179501 0.00282758 0)
(-0.00310453 0.00323092 0)
(-0.00456614 0.00364285 0)
(-0.00618364 0.00406558 0)
(-0.00796111 0.0045011 0)
(-0.00990281 0.00495096 0)
(-0.012013 0.00541618 0)
(-0.0142957 0.00589717 0)
(-0.0167545 0.00639363 0)
(-0.0193925 0.00690458 0)
(-0.0222115 0.00742831 0)
(-0.0252126 0.00796242 0)
(-0.0283954 0.00850384 0)
(-0.0317578 0.00904887 0)
(-0.0352962 0.00959324 0)
(-0.0390052 0.0101322 0)
(-0.0428771 0.0106604 0)
(-0.0469025 0.0111722 0)
(-0.0510696 0.0116616 0)
(-0.0553648 0.0121223 0)
(-0.059772 0.0125478 0)
(-0.0642734 0.0129317 0)
(-0.068849 0.0132672 0)
(-0.0734772 0.0135481 0)
(-0.0781346 0.0137678 0)
(-0.0827966 0.0139206 0)
(-0.0874371 0.0140007 0)
(-0.0920294 0.0140031 0)
(-0.0965458 0.0139232 0)
(-0.100958 0.0137572 0)
(-0.105239 0.0135018 0)
(-0.109361 0.0131546 0)
(-0.113295 0.0127141 0)
(-0.117015 0.0121794 0)
(-0.120496 0.0115509 0)
(-0.123713 0.0108295 0)
(-0.126642 0.010017 0)
(-0.129262 0.00911636 0)
(-0.131553 0.00813118 0)
(-0.133497 0.00706595 0)
(-0.135077 0.00592601 0)
(-0.13628 0.00471746 0)
(-0.137093 0.00344717 0)
(-0.137507 0.00212276 0)
(-0.137513 0.000752596 0)
(-0.137106 -0.000654459 0)
(-0.136284 -0.00208985 0)
(-0.135046 -0.0035425 0)
(-0.133393 -0.00500205 0)
(-0.131329 -0.0064577 0)
(-0.128861 -0.0078982 0)
(-0.125998 -0.00931199 0)
(-0.122752 -0.0106873 0)
(-0.119135 -0.0120124 0)
(-0.115164 -0.0132754 0)
(-0.110859 -0.0144646 0)
(-0.10624 -0.0155687 0)
(-0.101331 -0.0165767 0)
(-0.0961571 -0.0174781 0)
(-0.090747 -0.0182634 0)
(-0.0851307 -0.0189238 0)
(-0.0793401 -0.0194517 0)
(-0.0734092 -0.0198406 0)
(-0.0673731 -0.0200856 0)
(-0.0612684 -0.0201833 0)
(-0.0551328 -0.020132 0)
(-0.0490044 -0.0199317 0)
(-0.0429216 -0.0195845 0)
(-0.0369228 -0.0190944 0)
(-0.0310457 -0.0184671 0)
(-0.0253271 -0.0177105 0)
(-0.0198025 -0.0168342 0)
(-0.0145052 -0.0158494 0)
(-0.00946641 -0.014769 0)
(-0.00471467 -0.013607 0)
(-0.000275289 -0.0123788 0)
(0.00382984 -0.0111 0)
(0.00758255 -0.00978726 0)
(0.0109687 -0.00845694 0)
(0.0139782 -0.00712534 0)
(0.0166053 -0.00580822 0)
(0.0188484 -0.00452046 0)
(0.0207102 -0.00327578 0)
(0.0221974 -0.00208651 0)
(0.0233203 -0.000963373 0)
(0.0240929 8.47046e-05 0)
(0.0245325 0.00105066 0)
(0.0246587 0.00192939 0)
(0.0244936 0.00271763 0)
(0.0240613 0.00341397 0)
(0.0233869 0.00401861 0)
(0.0224964 0.00453317 0)
(0.0214166 0.00496037 0)
(0.0201739 0.00530367 0)
(0.0187949 0.00556684 0)
(0.0173056 0.00575345 0)
(0.0157318 0.00586638 0)
(0.0140988 0.00590725 0)
(0.0124318 0.0058759 0)
(0.010756 0.00577001 0)
(0.00909731 0.00558474 0)
(0.00748217 0.00531284 0)
(0.0059385 0.00494501 0)
(0.00449582 0.00447103 0)
(0.00318589 0.0038818 0)
(0.00204213 0.00317269 0)
(0.00109835 0.0023481 0)
(0.000405493 0.00142784 0)
(6.51459e-05 0.000460187 0)
(4.10045e-05 -0.000484163 0)
(0.000228108 -0.00124121 0)
(0.000573925 -0.00179546 0)
(0.000996825 -0.00215978 0)
(0.0014485 -0.00235137 0)
(0.00189473 -0.00239028 0)
(0.00230539 -0.00229781 0)
(0.00265466 -0.00209518 0)
(0.00292103 -0.00180259 0)
(0.00308668 -0.00143851 0)
(0.00313704 -0.00101932 0)
(0.00306035 -0.000559054 0)
(0.00284725 -6.93878e-05 0)
(0.00249033 0.000440408 0)
(0.00198374 0.000963343 0)
(0.00132276 0.00149455 0)
(0.000503452 0.00203111 0)
(-0.000477694 0.00257174 0)
(-0.00162402 0.0031166 0)
(-0.00293893 0.00366692 0)
(-0.00442601 0.0042247 0)
(-0.00608916 0.00479242 0)
(-0.00793254 0.0053727 0)
(-0.00996053 0.00596802 0)
(-0.0121776 0.00658051 0)
(-0.0145883 0.00721169 0)
(-0.0171966 0.00786237 0)
(-0.0200063 0.00853246 0)
(-0.0230201 0.00922098 0)
(-0.0262399 0.00992597 0)
(-0.0296662 0.0106445 0)
(-0.033298 0.0113728 0)
(-0.0371325 0.0121061 0)
(-0.041165 0.0128389 0)
(-0.0453886 0.0135649 0)
(-0.0497943 0.0142773 0)
(-0.0543707 0.0149685 0)
(-0.0591041 0.0156307 0)
(-0.0639784 0.0162556 0)
(-0.0689752 0.0168346 0)
(-0.0740738 0.0173592 0)
(-0.0792518 0.0178208 0)
(-0.0844845 0.0182109 0)
(-0.0897459 0.0185215 0)
(-0.0950085 0.0187447 0)
(-0.100244 0.0188736 0)
(-0.105422 0.0189015 0)
(-0.110514 0.0188227 0)
(-0.115489 0.0186325 0)
(-0.120317 0.018327 0)
(-0.12497 0.0179032 0)
(-0.129419 0.0173594 0)
(-0.133635 0.0166948 0)
(-0.137593 0.0159098 0)
(-0.141268 0.0150058 0)
(-0.144636 0.0139854 0)
(-0.147675 0.0128521 0)
(-0.150367 0.0116106 0)
(-0.152692 0.0102664 0)
(-0.154635 0.00882591 0)
(-0.156183 0.00729663 0)
(-0.157322 0.00568675 0)
(-0.158044 0.00400529 0)
(-0.158341 0.00226202 0)
(-0.158208 0.000467483 0)
(-0.157639 -0.0013672 0)
(-0.156635 -0.00323082 0)
(-0.155195 -0.00511061 0)
(-0.153324 -0.00699384 0)
(-0.151024 -0.00886733 0)
(-0.148304 -0.0107175 0)
(-0.145172 -0.0125305 0)
(-0.14164 -0.0142923 0)
(-0.137721 -0.0159886 0)
(-0.133432 -0.0176052 0)
(-0.12879 -0.0191283 0)
(-0.123817 -0.020544 0)
(-0.118534 -0.021839 0)
(-0.112966 -0.0230007 0)
(-0.107142 -0.0240174 0)
(-0.10109 -0.0248782 0)
(-0.0948421 -0.0255735 0)
(-0.0884316 -0.0260953 0)
(-0.0818938 -0.0264371 0)
(-0.0752652 -0.0265942 0)
(-0.0685839 -0.0265641 0)
(-0.0618887 -0.0263461 0)
(-0.0552193 -0.0259421 0)
(-0.0486152 -0.0253562 0)
(-0.0421162 -0.0245948 0)
(-0.0357612 -0.0236667 0)
(-0.0295879 -0.0225831 0)
(-0.0236328 -0.0213571 0)
(-0.0179302 -0.0200041 0)
(-0.012512 -0.0185408 0)
(-0.0074071 -0.0169856 0)
(-0.00264131 -0.015358 0)
(0.00176325 -0.0136782 0)
(0.00578836 -0.0119667 0)
(0.00941996 -0.010244 0)
(0.0126482 -0.00853031 0)
(0.0154678 -0.00684466 0)
(0.0178777 -0.00520509 0)
(0.0198811 -0.00362803 0)
(0.0214856 -0.00212805 0)
(0.0227025 -0.000717668 0)
(0.0235468 0.000592863 0)
(0.0240369 0.00179561 0)
(0.0241938 0.00288501 0)
(0.0240411 0.00385777 0)
(0.0236042 0.0047127 0)
(0.02291 0.00545047 0)
(0.0219864 0.00607327 0)
(0.0208619 0.00658436 0)
(0.0195655 0.00698758 0)
(0.0181258 0.00728673 0)
(0.0165718 0.00748494 0)
(0.0149319 0.00758406 0)
(0.0132348 0.00758394 0)
(0.011509 0.007482 0)
(0.00978371 0.00727283 0)
(0.00808861 0.00694816 0)
(0.00645474 0.00649726 0)
(0.00491483 0.00590803 0)
(0.00350426 0.00516876 0)
(0.00226084 0.00427117 0)
(0.00122416 0.00321416 0)
(0.000455103 0.00200867 0)
(7.38205e-05 0.000686763 0)
(4.00356e-05 -0.000604103 0)
(0.000220212 -0.00152039 0)
(0.000548519 -0.00217166 0)
(0.000941763 -0.00258327 0)
(0.00134983 -0.00278119 0)
(0.00173718 -0.00279238 0)
(0.00207296 -0.00264368 0)
(0.00233099 -0.00236097 0)
(0.00248951 -0.00196843 0)
(0.00253048 -0.00148798 0)
(0.00243901 -0.000938985 0)
(0.00220287 -0.000338035 0)
(0.00181207 0.000301076 0)
(0.00125847 0.000967385 0)
(0.000535313 0.0016526 0)
(-0.000363103 0.00235095 0)
(-0.00144177 0.00305891 0)
(-0.00270529 0.00377493 0)
(-0.00415808 0.00449907 0)
(-0.00580458 0.00523268 0)
(-0.00764932 0.00597797 0)
(-0.00969701 0.00673762 0)
(-0.0119525 0.00751442 0)
(-0.0144205 0.00831092 0)
(-0.0171057 0.00912913 0)
(-0.0200123 0.00997026 0)
(-0.0231441 0.0108345 0)
(-0.0265037 0.011721 0)
(-0.0300926 0.0126277 0)
(-0.033911 0.0135512 0)
(-0.0379572 0.0144869 0)
(-0.0422276 0.0154293 0)
(-0.0467162 0.0163714 0)
(-0.0514151 0.0173056 0)
(-0.0563135 0.0182233 0)
(-0.0613984 0.019115 0)
(-0.0666538 0.0199709 0)
(-0.0720616 0.0207806 0)
(-0.0776011 0.0215333 0)
(-0.0832491 0.0222184 0)
(-0.0889806 0.0228252 0)
(-0.0947685 0.023343 0)
(-0.100584 0.023762 0)
(-0.106398 0.0240726 0)
(-0.112179 0.024266 0)
(-0.117897 0.0243345 0)
(-0.123518 0.0242712 0)
(-0.129013 0.0240703 0)
(-0.134349 0.0237273 0)
(-0.139498 0.023239 0)
(-0.144429 0.0226034 0)
(-0.149116 0.0218198 0)
(-0.153531 0.0208889 0)
(-0.15765 0.0198126 0)
(-0.16145 0.018594 0)
(-0.16491 0.0172374 0)
(-0.168012 0.0157485 0)
(-0.170736 0.0141336 0)
(-0.17307 0.0124004 0)
(-0.174998 0.0105574 0)
(-0.17651 0.00861395 0)
(-0.177596 0.00658025 0)
(-0.178249 0.00446729 0)
(-0.178462 0.00228677 0)
(-0.178231 5.11443e-05 0)
(-0.177555 -0.00222633 0)
(-0.176431 -0.00453243 0)
(-0.174863 -0.00685275 0)
(-0.172851 -0.00917258 0)
(-0.170401 -0.0114767 0)
(-0.16752 -0.0137495 0)
(-0.164216 -0.0159752 0)
(-0.160499 -0.0181374 0)
(-0.156382 -0.0202198 0)
(-0.151878 -0.0222062 0)
(-0.147006 -0.0240802 0)
(-0.141783 -0.0258258 0)
(-0.136231 -0.0274275 0)
(-0.130373 -0.0288703 0)
(-0.124236 -0.0301402 0)
(-0.117847 -0.0312243 0)
(-0.111236 -0.0321109 0)
(-0.104437 -0.0327899 0)
(-0.0974836 -0.0332531 0)
(-0.0904122 -0.0334942 0)
(-0.0832609 -0.0335095 0)
(-0.076069 -0.0332974 0)
(-0.0688769 -0.0328591 0)
(-0.0617256 -0.0321984 0)
(-0.0546561 -0.0313221 0)
(-0.0477095 -0.0302396 0)
(-0.0409259 -0.0289632 0)
(-0.0343445 -0.0275076 0)
(-0.0280026 -0.0258903 0)
(-0.0219355 -0.0241305 0)
(-0.0161756 -0.0222496 0)
(-0.0107527 -0.0202705 0)
(-0.00569269 -0.018217 0)
(-0.00101789 -0.0161136 0)
(0.00325355 -0.0139852 0)
(0.00710777 -0.011856 0)
(0.0105354 -0.00974984 0)
(0.0135315 -0.00768905 0)
(0.0160958 -0.00569445 0)
(0.0182324 -0.00378485 0)
(0.0199497 -0.00197672 0)
(0.02126 -0.000283993 0)
(0.0221795 0.00128208 0)
(0.0227275 0.00271305 0)
(0.0229266 0.00400316 0)
(0.0228016 0.00514923 0)
(0.0223794 0.00615042 0)
(0.0216886 0.00700781 0)
(0.0207588 0.00772396 0)
(0.0196204 0.00830231 0)
(0.0183044 0.00874651 0)
(0.0168421 0.00905968 0)
(0.0152646 0.00924366 0)
(0.0136034 0.00929825 0)
(0.0118903 0.00922057 0)
(0.0101571 0.00900467 0)
(0.00843688 0.0086413 0)
(0.00676353 0.00811828 0)
(0.00517303 0.00742129 0)
(0.00370441 0.00653543 0)
(0.00239979 0.00544756 0)
(0.00130409 0.00414926 0)
(0.000486126 0.00264031 0)
(7.89943e-05 0.000934385 0)
(3.7708e-05 -0.000717581 0)
(0.0002034 -0.00178051 0)
(0.000498823 -0.00251505 0)
(0.000842124 -0.00295878 0)
(0.00118291 -0.00314688 0)
(0.00148518 -0.00311357 0)
(0.00171802 -0.00289163 0)
(0.00185538 -0.00251175 0)
(0.00187567 -0.0020021 0)
(0.00176094 -0.00138801 0)
(0.00149622 -0.000691674 0)
(0.00106903 6.79499e-05 0)
(0.000468922 0.000875093 0)
(-0.000312876 0.00171727 0)
(-0.00128392 0.00258504 0)
(-0.00245084 0.00347178 0)
(-0.00381963 0.00437345 0)
(-0.00539592 0.00528821 0)
(-0.00718516 0.00621606 0)
(-0.00919275 0.00715834 0)
(-0.0114241 0.00811734 0)
(-0.0138844 0.00909578 0)
(-0.0165792 0.0100964 0)
(-0.0195131 0.0111215 0)
(-0.0226908 0.0121727 0)
(-0.0261159 0.0132505 0)
(-0.029791 0.0143541 0)
(-0.0337175 0.0154814 0)
(-0.037895 0.0166288 0)
(-0.0423211 0.017791 0)
(-0.0469916 0.0189616 0)
(-0.0518993 0.0201324 0)
(-0.057035 0.0212943 0)
(-0.0623865 0.0224368 0)
(-0.0679388 0.0235488 0)
(-0.0736744 0.0246182 0)
(-0.0795727 0.0256324 0)
(-0.085611 0.0265785 0)
(-0.091764 0.0274436 0)
(-0.0980043 0.0282146 0)
(-0.104303 0.028879 0)
(-0.110628 0.0294249 0)
(-0.11695 0.0298409 0)
(-0.123234 0.0301168 0)
(-0.129449 0.0302432 0)
(-0.135561 0.0302124 0)
(-0.141539 0.0300177 0)
(-0.14735 0.0296541 0)
(-0.152965 0.0291179 0)
(-0.158355 0.0284071 0)
(-0.163491 0.0275212 0)
(-0.168348 0.0264611 0)
(-0.172903 0.0252292 0)
(-0.177132 0.0238293 0)
(-0.181017 0.0222665 0)
(-0.184538 0.0205471 0)
(-0.18768 0.0186785 0)
(-0.190428 0.0166691 0)
(-0.19277 0.0145285 0)
(-0.194695 0.012267 0)
(-0.196193 0.00989561 0)
(-0.197257 0.00742636 0)
(-0.19788 0.00487187 0)
(-0.198058 0.00224546 0)
(-0.197788 -0.000438869 0)
(-0.197066 -0.00316642 0)
(-0.195894 -0.00592214 0)
(-0.19427 -0.00869019 0)
(-0.192199 -0.0114542 0)
(-0.189682 -0.0141974 0)
(-0.186727 -0.0169023 0)
(-0.183338 -0.0195513 0)
(-0.179525 -0.0221263 0)
(-0.175299 -0.0246089 0)
(-0.170672 -0.0269808 0)
(-0.165658 -0.0292235 0)
(-0.160275 -0.0313187 0)