/*--------------------------------*- C++ -*----------------------------------*\
| =========                 |                                                 |
| \\      /  F ield         | OpenFOAM: The Open Source CFD Toolbox           |
|  \\    /   O peration     | Version:  2112                                  |
|   \\  /    A nd           | Website:  www.openfoam.com                      |
|    \\/     M anipulation  |                                                 |
\*---------------------------------------------------------------------------*/
FoamFile
{
    version     2.0;
    format      ascii;
    arch        "LSB;label=32;scalar=64";
    class       volScalarField;
    location    "1";
    object      p;
}
// * * * * * * * * * * * * * * * * * * * * * * * * * * * * * * * * * * * * * //

dimensions      [0 2 -2 0 0 0 0];

internalField   nonuniform List<scalar> 
25600
(
-1.49421e-15
1.88194e-15
5.80947e-15
8.47586e-15
1.00415e-14
1.13336e-14
1.25892e-14
1.36814e-14
1.45739e-14
1.54273e-14
1.63494e-14
1.71206e-14
1.76791e-14
1.83665e-14
1.91648e-14
1.97198e-14
2.04455e-14
2.13901e-14
2.21849e-14
2.26855e-14
2.33041e-14
2.40807e-14
2.49121e-14
2.5635e-14
2.62818e-14
2.68865e-14
2.74585e-14
2.82802e-14
2.9188e-14
2.98611e-14
3.04833e-14
3.11892e-14
3.20478e-14
3.27276e-14
3.32643e-14
3.38671e-14
3.44502e-14
3.5593e-14
3.66077e-14
3.68937e-14
3.77489e-14
3.84266e-14
3.90914e-14
3.99876e-14
4.03858e-14
4.11501e-14
4.1722e-14
4.23583e-14
4.30716e-14
4.38375e-14
4.46474e-14
4.48939e-14
4.55486e-14
4.60907e-14
4.65895e-14
4.75399e-14
4.8089e-14
4.87389e-14
4.93751e-14
4.98981e-14
5.10477e-14
5.13499e-14
5.21581e-14
5.25981e-14
5.26603e-14
5.3566e-14
5.3855e-14
5.42556e-14
5.45769e-14
5.50244e-14
5.59262e-14
5.64775e-14
5.71156e-14
5.74678e-14
5.76281e-14
5.85485e-14
5.90465e-14
5.89819e-14
5.95701e-14
5.98891e-14
6.10622e-14
6.19742e-14
6.20637e-14
6.25875e-14
6.32689e-14
6.42793e-14
6.53117e-14
6.58512e-14
6.61046e-14
6.64059e-14
6.75815e-14
6.85066e-14
6.83341e-14
6.82564e-14
6.90912e-14
7.00053e-14
6.98122e-14
6.99613e-14
6.99004e-14
7.04275e-14
7.14735e-14
7.13137e-14
7.18731e-14
7.17347e-14
7.19592e-14
7.25329e-14
7.31672e-14
7.30227e-14
7.25735e-14
7.2882e-14
7.32245e-14
7.428e-14
7.32496e-14
7.26483e-14
7.35059e-14
7.40094e-14
7.44187e-14
7.37216e-14
7.29763e-14
7.34564e-14
7.41954e-14
7.45775e-14
7.36599e-14
7.25178e-14
7.3059e-14
7.41644e-14
7.4821e-14
7.39366e-14
7.30666e-14
7.37351e-14
7.41233e-14
7.43066e-14
7.35292e-14
7.30331e-14
7.36962e-14
7.3816e-14
7.40617e-14
7.35771e-14
7.25399e-14
7.26297e-14
7.2641e-14
7.25131e-14
7.17475e-14
7.13005e-14
7.15577e-14
7.1377e-14
7.15098e-14
7.09215e-14
7.05585e-14
7.03766e-14
6.99322e-14
7.07808e-14
7.04717e-14
6.91836e-14
6.83852e-14
6.79895e-14
6.83075e-14
6.78707e-14
6.63649e-14
6.55677e-14
6.47257e-14
6.54012e-14
6.45746e-14
6.32474e-14
6.38912e-14
6.2878e-14
6.27933e-14
6.26547e-14
6.15292e-14
6.15189e-14
6.14662e-14
6.1995e-14
6.11818e-14
6.03887e-14
6.04138e-14
6.01049e-14
5.9814e-14
5.85981e-14
5.92414e-14
5.91924e-14
5.82287e-14
5.9397e-14
5.82666e-14
5.7359e-14
5.74427e-14
5.6412e-14
5.74126e-14
5.6633e-14
5.55966e-14
5.63916e-14
5.55559e-14
5.56448e-14
5.57625e-14
5.44681e-14
5.49192e-14
5.46399e-14
5.47906e-14
5.42989e-14
5.329e-14
5.44747e-14
5.40319e-14
5.40697e-14
5.31722e-14
5.21926e-14
5.36363e-14
5.3936e-14
5.35592e-14
5.23885e-14
5.21347e-14
5.33107e-14
5.36578e-14
5.31122e-14
5.07367e-14
5.20648e-14
5.35185e-14
5.0785e-14
5.17969e-14
5.28254e-14
5.28893e-14
5.28875e-14
5.03097e-14
5.16906e-14
5.33061e-14
5.33912e-14
5.36626e-14
5.11616e-14
5.22584e-14
5.30664e-14
5.23172e-14
5.27443e-14
5.0994e-14
5.18946e-14
5.20006e-14
5.16064e-14
5.28481e-14
5.11778e-14
5.11231e-14
5.07942e-14
5.04559e-14
5.16726e-14
4.96529e-14
5.0219e-14
5.00407e-14
4.94168e-14
5.13668e-14
4.94453e-14
4.84084e-14
4.81252e-14
4.86835e-14
4.99172e-14
4.75263e-14
4.82374e-14
4.89734e-14
4.86535e-14
4.90632e-14
4.63205e-14
4.73595e-14
4.74977e-14
4.65821e-14
4.77474e-14
4.5508e-14
4.52475e-14
4.51351e-14
4.43646e-14
4.47122e-14
4.25289e-14
4.28975e-14
4.33352e-14
4.33663e-14
4.40163e-14
4.21501e-14
4.22375e-14
4.22341e-14
4.2432e-14
4.32909e-14
4.15985e-14
4.17378e-14
4.20774e-14
4.11986e-14
4.19875e-14
4.07038e-14
4.03395e-14
4.05088e-14
4.00501e-14
4.06225e-14
3.89615e-14
3.80219e-14
3.84108e-14
3.86457e-14
3.80167e-14
3.58404e-14
3.55924e-14
3.58935e-14
3.5347e-14
3.41915e-14
3.22423e-14
3.23747e-14
3.20833e-14
3.19296e-14
3.057e-14
2.84928e-14
2.86818e-14
2.85669e-14
2.91961e-14
2.84091e-14
2.60199e-14
2.50678e-14
2.33764e-14
2.32632e-14
2.15968e-14
2.0149e-14
1.97019e-14
1.71276e-14
1.67944e-14
1.58147e-14
1.33197e-14
1.21252e-14
8.96432e-15
6.60972e-15
3.1181e-15
1.02855e-15
3.09403e-15
6.24806e-15
8.69346e-15
1.01803e-14
1.14309e-14
1.26486e-14
1.37366e-14
1.46045e-14
1.54336e-14
1.639e-14
1.70845e-14
1.76985e-14
1.84026e-14
1.91429e-14
1.97858e-14
2.04442e-14
2.1376e-14
2.21774e-14
2.26849e-14
2.33455e-14
2.41489e-14
2.49444e-14
2.55742e-14
2.62187e-14
2.69359e-14
2.76131e-14
2.82764e-14
2.91364e-14
2.98256e-14
3.05108e-14
3.12861e-14
3.20788e-14
3.26906e-14
3.32126e-14
3.38622e-14
3.44322e-14
3.55141e-14
3.65756e-14
3.69836e-14
3.77076e-14
3.84308e-14
3.9085e-14
3.99524e-14
4.0514e-14
4.11e-14
4.16976e-14
4.23835e-14
4.30325e-14
4.38174e-14
4.44902e-14
4.50369e-14
4.562e-14
4.61021e-14
4.67088e-14
4.74047e-14
4.80649e-14
4.87237e-14
4.94133e-14
5.00074e-14
5.08915e-14
5.13619e-14
5.21957e-14
5.26134e-14
5.27003e-14
5.34833e-14
5.38055e-14
5.42297e-14
5.45907e-14
5.51422e-14
5.58901e-14
5.63933e-14
5.71053e-14
5.74175e-14
5.77695e-14
5.84535e-14
5.88836e-14
5.90779e-14
5.95849e-14
6.00047e-14
6.1009e-14
6.16913e-14
6.20958e-14
6.26867e-14
6.3468e-14
6.42324e-14
6.49879e-14
6.57321e-14
6.63653e-14
6.66854e-14
6.74922e-14
6.81655e-14
6.82826e-14
6.85449e-14
6.9097e-14
6.97303e-14
6.97792e-14
6.99665e-14
7.02253e-14
7.05717e-14
7.10728e-14
7.1294e-14
7.18473e-14
7.19751e-14
7.2094e-14
7.23942e-14
7.30308e-14
7.31963e-14
7.27585e-14
7.27901e-14
7.33024e-14
7.38665e-14
7.34167e-14
7.30826e-14
7.3508e-14
7.38227e-14
7.42089e-14
7.39451e-14
7.31944e-14
7.34315e-14
7.41423e-14
7.43641e-14
7.36419e-14
7.28402e-14
7.31395e-14
7.39833e-14
7.46046e-14
7.39682e-14
7.33942e-14
7.3803e-14
7.3938e-14
7.41632e-14
7.37061e-14
7.31516e-14
7.35808e-14
7.3809e-14
7.40072e-14
7.35829e-14
7.25885e-14
7.25794e-14
7.26747e-14
7.24364e-14
7.17538e-14
7.13339e-14
7.1498e-14
7.1457e-14
7.13466e-14
7.0769e-14
7.059e-14
7.06304e-14
7.02271e-14
7.0483e-14
7.01217e-14
6.93442e-14
6.85971e-14
6.81267e-14
6.81688e-14
6.76698e-14
6.6464e-14
6.56526e-14
6.5013e-14
6.5106e-14
6.44146e-14
6.34751e-14
6.36024e-14
6.30807e-14
6.26135e-14
6.23141e-14
6.18512e-14
6.16294e-14
6.16682e-14
6.17032e-14
6.11407e-14
6.03194e-14
6.01418e-14
6.03408e-14
5.97963e-14
5.90629e-14
5.91378e-14
5.88086e-14
5.87239e-14
5.91656e-14
5.8196e-14
5.7298e-14
5.72229e-14
5.70144e-14
5.72283e-14
5.66198e-14
5.58347e-14
5.58629e-14
5.57745e-14
5.56347e-14
5.56146e-14
5.5035e-14
5.46963e-14
5.45375e-14
5.45291e-14
5.44021e-14
5.41367e-14
5.39807e-14
5.38852e-14
5.37963e-14
5.32614e-14
5.29989e-14
5.3271e-14
5.33652e-14
5.33675e-14
5.28635e-14
5.27482e-14
5.29959e-14
5.29397e-14
5.2849e-14
5.15876e-14
5.20796e-14
5.27017e-14
5.15573e-14
5.20927e-14
5.21756e-14
5.23973e-14
5.26679e-14
5.12457e-14
5.21354e-14
5.26942e-14
5.28931e-14
5.34132e-14
5.20728e-14
5.23741e-14
5.28281e-14
5.23711e-14
5.23221e-14
5.1345e-14
5.18111e-14
5.18662e-14
5.18211e-14
5.24802e-14
5.15251e-14
5.12671e-14
5.04536e-14
5.03716e-14
5.13263e-14
5.00975e-14
5.0267e-14
4.99557e-14
4.95697e-14
5.07271e-14
4.93767e-14
4.87987e-14
4.84764e-14
4.86416e-14
4.93512e-14
4.77786e-14
4.82908e-14
4.89405e-14
4.8818e-14
4.8508e-14
4.65834e-14
4.74473e-14
4.75483e-14
4.67913e-14
4.72313e-14
4.57405e-14
4.54982e-14
4.50288e-14
4.43744e-14
4.42979e-14
4.281e-14
4.33483e-14
4.31753e-14
4.31001e-14
4.37441e-14
4.24189e-14
4.24108e-14
4.21485e-14
4.23515e-14
4.32003e-14
4.17389e-14
4.18703e-14
4.17547e-14
4.14001e-14
4.20602e-14
4.07328e-14
4.06522e-14
4.02642e-14
3.99675e-14
4.04467e-14
3.88444e-14
3.85213e-14
3.86667e-14
3.82956e-14
3.76695e-14
3.61529e-14
3.59303e-14
3.58733e-14
3.47804e-14
3.42235e-14
3.28127e-14
3.22104e-14
3.22602e-14
3.13673e-14
3.05617e-14
2.90961e-14
2.85971e-14
2.88286e-14
2.88154e-14
2.79863e-14
2.59269e-14
2.52233e-14
2.40207e-14
2.30528e-14
2.15461e-14
2.01372e-14
1.95366e-14
1.76624e-14
1.65952e-14
1.5593e-14
1.38024e-14
1.21967e-14
9.26219e-15
6.88376e-15
4.02173e-15
3.47192e-15
4.58098e-15
7.04464e-15
9.04849e-15
1.04101e-14
1.15611e-14
1.27472e-14
1.37959e-14
1.46651e-14
1.55345e-14
1.64096e-14
1.70609e-14
1.77261e-14
1.84214e-14
1.92092e-14
1.9695e-14
2.05284e-14
2.14552e-14
2.21758e-14
2.26543e-14
2.34315e-14
2.42206e-14
2.49515e-14
2.56163e-14
2.61544e-14
2.69555e-14
2.77501e-14
2.8268e-14
2.90757e-14
2.98227e-14
3.05019e-14
3.13683e-14
3.21497e-14
3.26676e-14
3.31273e-14
3.37657e-14
3.43949e-14
3.54494e-14
3.66129e-14
3.7029e-14
3.76782e-14
3.84583e-14
3.91043e-14
3.99416e-14
4.05626e-14
4.11052e-14
4.16613e-14
4.23452e-14
4.30425e-14
4.383e-14
4.44332e-14
4.50931e-14
4.56888e-14
4.6058e-14
4.67878e-14
4.72721e-14
4.80649e-14
4.8782e-14
4.94487e-14
4.99787e-14
5.08036e-14
5.14377e-14
5.22278e-14
5.26557e-14
5.27159e-14
5.33965e-14
5.37681e-14
5.42385e-14
5.45411e-14
5.51472e-14
5.58526e-14
5.63694e-14
5.70972e-14
5.73537e-14
5.78594e-14
5.83245e-14
5.87911e-14
5.91843e-14
5.95845e-14
6.00076e-14
6.10289e-14
6.15575e-14
6.21039e-14
6.27607e-14
6.34952e-14
6.42762e-14
6.48827e-14
6.55803e-14
6.64333e-14
6.6844e-14
6.74233e-14
6.80737e-14
6.82868e-14
6.86397e-14
6.90503e-14
6.96197e-14
6.98073e-14
6.99873e-14
7.03614e-14
7.0614e-14
7.09206e-14
7.13259e-14
7.18343e-14
7.20158e-14
7.22224e-14
7.23361e-14
7.29513e-14
7.3264e-14
7.28253e-14
7.2861e-14
7.33702e-14
7.35991e-14
7.34999e-14
7.34303e-14
7.35585e-14
7.37699e-14
7.40623e-14
7.39991e-14
7.34448e-14
7.33845e-14
7.3973e-14
7.4223e-14
7.36437e-14
7.31442e-14
7.32612e-14
7.38783e-14
7.42351e-14
7.40545e-14
7.37399e-14
7.39566e-14
7.37567e-14
7.38178e-14
7.39452e-14
7.34057e-14
7.35372e-14
7.36865e-14
7.39281e-14
7.35666e-14
7.27166e-14
7.25362e-14
7.26763e-14
7.23774e-14
7.17115e-14
7.13911e-14
7.15294e-14
7.13788e-14
7.11571e-14
7.08315e-14
7.05915e-14
7.07663e-14
7.04827e-14
7.02105e-14
6.99255e-14
6.946e-14
6.86702e-14
6.8338e-14
6.80762e-14
6.74948e-14
6.6574e-14
6.57274e-14
6.51268e-14
6.49101e-14
6.41911e-14
6.36236e-14
6.34237e-14
6.3112e-14
6.25237e-14
6.20917e-14
6.20364e-14
6.18335e-14
6.16167e-14
6.15939e-14
6.11444e-14
6.02705e-14
6.01449e-14
6.02503e-14
5.96862e-14
5.95497e-14
5.91379e-14
5.87196e-14
5.88143e-14
5.89347e-14
5.81224e-14
5.73375e-14
5.71732e-14
5.7395e-14
5.71062e-14
5.6484e-14
5.59402e-14
5.57357e-14
5.5865e-14
5.55601e-14
5.5624e-14
5.53726e-14
5.45779e-14
5.44557e-14
5.44283e-14
5.44798e-14
5.44879e-14
5.37879e-14
5.37952e-14
5.36888e-14
5.3258e-14
5.33068e-14
5.31661e-14
5.30038e-14
5.32915e-14
5.30782e-14
5.29858e-14
5.28917e-14
5.26093e-14
5.26658e-14
5.20786e-14
5.21153e-14
5.22043e-14
5.19013e-14
5.21966e-14
5.17693e-14
5.20817e-14
5.25323e-14
5.18261e-14
5.23918e-14
5.23428e-14
5.25765e-14
5.32376e-14
5.274e-14
5.24714e-14
5.26127e-14
5.23742e-14
5.21006e-14
5.16161e-14
5.18067e-14
5.18988e-14
5.18921e-14
5.21602e-14
5.15648e-14
5.13124e-14
5.04341e-14
5.04736e-14
5.10172e-14
5.01575e-14
5.02531e-14
5.00206e-14
4.97095e-14
5.01781e-14
4.92846e-14
4.90376e-14
4.87745e-14
4.85605e-14
4.89318e-14
4.81559e-14
4.84202e-14
4.87637e-14
4.86639e-14
4.81444e-14
4.71011e-14
4.74795e-14
4.74274e-14
4.6814e-14
4.69308e-14
4.61472e-14
4.5645e-14
4.48692e-14
4.41801e-14
4.40556e-14
4.315e-14
4.37037e-14
4.30209e-14
4.288e-14
4.35408e-14
4.25934e-14
4.24459e-14
4.22391e-14
4.22998e-14
4.30083e-14
4.18854e-14
4.19577e-14
4.17037e-14
4.15154e-14
4.20666e-14
4.07967e-14
4.0847e-14
4.03323e-14
3.98014e-14
4.02468e-14
3.89547e-14
3.87965e-14
3.8814e-14
3.80839e-14
3.74837e-14
3.64618e-14
3.60304e-14
3.56877e-14
3.47179e-14
3.43297e-14
3.29948e-14
3.22541e-14
3.21881e-14
3.11571e-14
3.0493e-14
2.94788e-14
2.87497e-14
2.8963e-14
2.85525e-14
2.76141e-14
2.5933e-14
2.54856e-14
2.44025e-14
2.28573e-14
2.164e-14
2.01043e-14
1.95209e-14
1.80977e-14
1.64678e-14
1.56331e-14
1.41661e-14
1.2394e-14
9.76729e-15
7.33998e-15
5.13713e-15
5.79097e-15
6.09141e-15
7.92882e-15
9.63902e-15
1.07031e-14
1.18053e-14
1.28486e-14
1.40232e-14
1.47169e-14
1.55688e-14
1.6438e-14
1.72286e-14
1.76808e-14
1.83871e-14
1.9206e-14
1.96002e-14
2.06073e-14
2.1542e-14
2.22269e-14
2.25676e-14
2.34411e-14
2.42376e-14
2.50793e-14
2.57597e-14
2.61981e-14
2.70551e-14
2.77841e-14
2.82292e-14
2.906e-14
2.9789e-14
3.05951e-14
3.14439e-14
3.22483e-14
3.26305e-14
3.30258e-14
3.35884e-14
3.44691e-14
3.55004e-14
3.6627e-14
3.69481e-14
3.7659e-14
3.84735e-14
3.90832e-14
3.99339e-14
4.06604e-14
4.12536e-14
4.15508e-14
4.22331e-14
4.30185e-14
4.37146e-14
4.43769e-14
4.51685e-14
4.57226e-14
4.60148e-14
4.66885e-14
4.72355e-14
4.8038e-14
4.87486e-14
4.94529e-14
4.9992e-14
5.07728e-14
5.14076e-14
5.22062e-14
5.27111e-14
5.28389e-14
5.32608e-14
5.38771e-14
5.41656e-14
5.45322e-14
5.5191e-14
5.57462e-14
5.63331e-14
5.70824e-14
5.73818e-14
5.78868e-14
5.82926e-14
5.88869e-14
5.91761e-14
5.94933e-14
6.00446e-14
6.09353e-14
6.15366e-14
6.22924e-14
6.27426e-14
6.34137e-14
6.42332e-14
6.49802e-14
6.5539e-14
6.64213e-14
6.68463e-14
6.7436e-14
6.80324e-14
6.83169e-14
6.86145e-14
6.89539e-14
6.97003e-14
6.97817e-14
7.0067e-14
7.02564e-14
7.05362e-14
7.10573e-14
7.12662e-14
7.19028e-14
7.20032e-14
7.23445e-14
7.23728e-14
7.27947e-14
7.31482e-14
7.29293e-14
7.31177e-14
7.32822e-14
7.34393e-14
7.36007e-14
7.36216e-14
7.3684e-14
7.38766e-14
7.37077e-14
7.39039e-14
7.37329e-14
7.37103e-14
7.37214e-14
7.40688e-14
7.37673e-14
7.33223e-14
7.32005e-14
7.38762e-14
7.41446e-14
7.41695e-14
7.39011e-14
7.40447e-14
7.35351e-14
7.36078e-14
7.39672e-14
7.37812e-14
7.35804e-14
7.35468e-14
7.38025e-14
7.35713e-14
7.30215e-14
7.26056e-14
7.24597e-14
7.20782e-14
7.17966e-14
7.15672e-14
7.1591e-14
7.12454e-14
7.09454e-14
7.10226e-14
7.07078e-14
7.06943e-14
7.04609e-14
7.00586e-14
7.00836e-14
6.94868e-14
6.854e-14
6.85099e-14
6.79944e-14
6.74436e-14
6.66198e-14
6.59566e-14
6.50689e-14
6.46433e-14
6.39887e-14
6.37089e-14
6.34045e-14
6.30634e-14
6.242e-14
6.19998e-14
6.18822e-14
6.1822e-14
6.17139e-14
6.17759e-14
6.10867e-14
6.04319e-14
6.03503e-14
5.99988e-14
5.95328e-14
5.96444e-14
5.92999e-14
5.87868e-14
5.86925e-14
5.88547e-14
5.80845e-14
5.73786e-14
5.71572e-14
5.75672e-14
5.71904e-14
5.63487e-14
5.58984e-14
5.58055e-14
5.58383e-14
5.55565e-14
5.56662e-14
5.54707e-14
5.47721e-14
5.42866e-14
5.44668e-14
5.46262e-14
5.43186e-14
5.37852e-14
5.37873e-14
5.36103e-14
5.33471e-14
5.32499e-14
5.30088e-14
5.29914e-14
5.3223e-14
5.29532e-14
5.29045e-14
5.29724e-14
5.27631e-14
5.2553e-14
5.21792e-14
5.21075e-14
5.19698e-14
5.1855e-14
5.20804e-14
5.20432e-14
5.20218e-14
5.22276e-14
5.20387e-14
5.23388e-14
5.22217e-14
5.24817e-14
5.31964e-14
5.3141e-14
5.2479e-14
5.22621e-14
5.2387e-14
5.23826e-14
5.19704e-14
5.17741e-14
5.18449e-14
5.17928e-14
5.17319e-14
5.14927e-14
5.15129e-14
5.09422e-14
5.03222e-14
5.05834e-14
5.04453e-14
5.01866e-14
4.98084e-14
4.97522e-14
4.99575e-14
4.94679e-14
4.91083e-14
4.88e-14
4.84548e-14
4.87041e-14
4.84496e-14
4.84294e-14
4.86889e-14
4.85191e-14
4.77923e-14
4.75117e-14
4.75226e-14
4.72921e-14
4.67676e-14
4.67292e-14
4.64837e-14
4.55791e-14
4.4641e-14
4.42047e-14
4.43117e-14
4.33853e-14
4.33457e-14
4.30941e-14
4.29249e-14
4.30905e-14
4.26634e-14
4.24474e-14
4.25045e-14
4.2455e-14
4.25728e-14
4.22663e-14
4.19912e-14
4.16863e-14
4.17547e-14
4.15578e-14
4.12113e-14
4.08348e-14
4.03365e-14
3.9973e-14
3.97862e-14
3.93534e-14
3.89971e-14
3.84479e-14
3.79776e-14
3.74787e-14
3.6983e-14
3.61423e-14
3.52752e-14
3.45416e-14
3.42447e-14
3.34201e-14
3.23527e-14
3.19182e-14
3.10412e-14
3.03877e-14
2.98569e-14
2.88224e-14
2.88109e-14
2.85656e-14
2.75228e-14
2.64001e-14
2.55252e-14
2.41916e-14
2.29097e-14
2.15951e-14
2.03006e-14
1.96839e-14
1.82966e-14
1.67686e-14
1.5627e-14
1.41856e-14
1.27809e-14
1.05149e-14
8.06949e-15
6.23188e-15
7.35551e-15
7.36013e-15
8.8031e-15
1.02617e-14
1.11137e-14
1.217e-14
1.30694e-14
1.4196e-14
1.48179e-14
1.56734e-14
1.67208e-14
1.72717e-14
1.77418e-14
1.83665e-14
1.8938e-14
1.96518e-14
2.05929e-14
2.16747e-14
2.22073e-14
2.25658e-14
2.34052e-14
2.42601e-14
2.51936e-14
2.58576e-14
2.63178e-14
2.71822e-14
2.77917e-14
2.81736e-14
2.90578e-14
2.97627e-14
3.06911e-14
3.15226e-14
3.23312e-14
3.24935e-14
3.30123e-14
3.35507e-14
3.44442e-14
3.55545e-14
3.6591e-14
3.68855e-14
3.76626e-14
3.85241e-14
3.90834e-14
3.99571e-14
4.07215e-14
4.13407e-14
4.14379e-14
4.20421e-14
4.29582e-14
4.37866e-14
4.42919e-14
4.50817e-14
4.58195e-14
4.60231e-14
4.66866e-14
4.71854e-14
4.78398e-14
4.87537e-14
4.93635e-14
5.00034e-14
5.08371e-14
5.16594e-14
5.22068e-14
5.28093e-14
5.27448e-14
5.31779e-14
5.38505e-14
5.42695e-14
5.45148e-14
5.51054e-14
5.55599e-14
5.6481e-14
5.7058e-14
5.74657e-14
5.78642e-14
5.82208e-14
5.90392e-14
5.90458e-14
5.93214e-14
6.01495e-14
6.09083e-14
6.1546e-14
6.23494e-14
6.27959e-14
6.3429e-14
6.41096e-14
6.50245e-14
6.57143e-14
6.63511e-14
6.66944e-14
6.75037e-14
6.81414e-14
6.82512e-14
6.85664e-14
6.88975e-14
6.95235e-14
6.98775e-14
7.01184e-14
7.01264e-14
7.04374e-14
7.10988e-14
7.12891e-14
7.18453e-14
7.21467e-14
7.22691e-14
7.2526e-14
7.26881e-14
7.29648e-14
7.30614e-14
7.33181e-14
7.33217e-14
7.33822e-14
7.36181e-14
7.36299e-14
7.38676e-14
7.385e-14
7.33806e-14
7.38733e-14
7.40513e-14
7.385e-14
7.36641e-14
7.39267e-14
7.38857e-14
7.34951e-14
7.32057e-14
7.37915e-14
7.41806e-14
7.42944e-14
7.41191e-14
7.38422e-14
7.33336e-14
7.35667e-14
7.40267e-14
7.38724e-14
7.36278e-14
7.35614e-14
7.37267e-14
7.35686e-14
7.33284e-14
7.26405e-14
7.22703e-14
7.17684e-14
7.18649e-14
7.17265e-14
7.17004e-14
7.10366e-14
7.07539e-14
7.10934e-14
7.09454e-14
7.07706e-14
7.04154e-14
6.99496e-14
7.00529e-14
6.94446e-14
6.87381e-14
6.83691e-14
6.7969e-14
6.74884e-14
6.67817e-14
6.60418e-14
6.51001e-14
6.44485e-14
6.39582e-14
6.36049e-14
6.32838e-14
6.29837e-14
6.23018e-14
6.18675e-14
6.16512e-14
6.18642e-14
6.18524e-14
6.17528e-14
6.11066e-14
6.07292e-14
6.03638e-14
5.991e-14
5.9515e-14
5.94661e-14
5.94345e-14
5.90947e-14
5.86101e-14
5.86821e-14
5.82207e-14
5.74246e-14
5.70963e-14
5.74956e-14
5.73733e-14
5.64517e-14
5.58498e-14
5.58105e-14
5.59192e-14
5.55732e-14
5.56738e-14
5.55733e-14
5.49373e-14
5.41167e-14
5.46076e-14
5.46815e-14
5.41227e-14
5.37056e-14
5.39264e-14
5.36334e-14
5.3455e-14
5.31149e-14
5.28782e-14
5.29927e-14
5.32119e-14
5.30637e-14
5.28629e-14
5.30308e-14
5.28317e-14
5.2368e-14
5.22519e-14
5.20763e-14
5.18631e-14
5.17123e-14
5.20812e-14
5.21654e-14
5.19052e-14
5.19323e-14
5.21324e-14
5.24137e-14
5.2152e-14
5.2386e-14
5.31042e-14
5.34188e-14
5.24787e-14
5.18834e-14
5.26566e-14
5.264e-14
5.20621e-14
5.1778e-14
5.17601e-14
5.16494e-14
5.15773e-14
5.148e-14
5.16504e-14
5.12377e-14
5.02764e-14
5.02237e-14
5.05032e-14
5.00718e-14
4.96844e-14
4.97357e-14
4.98552e-14
4.95848e-14
4.91009e-14
4.88246e-14
4.85259e-14
4.83878e-14
4.85792e-14
4.84628e-14
4.86419e-14
4.84729e-14
4.78447e-14
4.76345e-14
4.74133e-14
4.72245e-14
4.68091e-14
4.65852e-14
4.62889e-14
4.53415e-14
4.48052e-14
4.45364e-14
4.41813e-14
4.35007e-14
4.29677e-14
4.32976e-14
4.29076e-14
4.27134e-14
4.2856e-14
4.25112e-14
4.27014e-14
4.24828e-14
4.22599e-14
4.26058e-14
4.19365e-14
4.1772e-14
4.19173e-14
4.1286e-14
4.14245e-14
4.08772e-14
4.04704e-14
4.00597e-14
3.93795e-14
3.97202e-14
3.91287e-14
3.83284e-14
3.7901e-14
3.73365e-14
3.72803e-14
3.61054e-14
3.53102e-14
3.47003e-14
3.40608e-14
3.3738e-14
3.24425e-14
3.15936e-14
3.09078e-14
3.0382e-14
3.0038e-14
2.87855e-14
2.88722e-14
2.87923e-14
2.74447e-14
2.67034e-14
2.56411e-14
2.3963e-14
2.29782e-14
2.16761e-14
2.06761e-14
1.96814e-14
1.83546e-14
1.73231e-14
1.56689e-14
1.42298e-14
1.3198e-14
1.1151e-14
8.92711e-15
7.43276e-15
8.67195e-15
8.42502e-15
9.71721e-15
1.10683e-14
1.16045e-14
1.2383e-14
1.33293e-14
1.45548e-14
1.48165e-14
1.58505e-14
1.69564e-14
1.72951e-14
1.77308e-14
1.83848e-14
1.88034e-14
1.96246e-14
2.06738e-14
2.17812e-14
2.19715e-14
2.27105e-14
2.3442e-14
2.40926e-14
2.51701e-14
2.60596e-14
2.64237e-14
2.74038e-14
2.77206e-14
2.82042e-14
2.90927e-14
2.9879e-14
3.0699e-14
3.16123e-14
3.22691e-14
3.24433e-14
3.29615e-14
3.35369e-14
3.43447e-14
3.55473e-14
3.65863e-14
3.69721e-14
3.76759e-14
3.85376e-14
3.90696e-14
4.00254e-14
4.07239e-14
4.14165e-14
4.1391e-14
4.20584e-14
4.29703e-14
4.37121e-14
4.41173e-14
4.49718e-14
4.5834e-14
4.60933e-14
4.66131e-14
4.70459e-14
4.78579e-14
4.87754e-14
4.91993e-14
5.01116e-14
5.09504e-14
5.17576e-14
5.22714e-14
5.27293e-14
5.27698e-14
5.30339e-14
5.36121e-14
5.41698e-14
5.47155e-14
5.52134e-14
5.55618e-14
5.65299e-14
5.68234e-14
5.74818e-14
5.79479e-14
5.83575e-14
5.88758e-14
5.90189e-14
5.93048e-14
5.99018e-14
6.10748e-14
6.172e-14
6.20921e-14
6.2952e-14
6.35351e-14
6.42669e-14
6.49843e-14
6.56381e-14
6.63177e-14
6.67829e-14
6.74536e-14
6.81618e-14
6.82231e-14
6.84713e-14
6.8916e-14
6.93834e-14
6.98501e-14
7.0033e-14
7.02184e-14
7.04896e-14
7.11187e-14
7.13314e-14
7.18461e-14
7.20256e-14
7.21718e-14
7.26234e-14
7.26812e-14
7.3017e-14
7.30944e-14
7.34768e-14
7.35815e-14
7.33991e-14
7.35391e-14
7.37102e-14
7.38002e-14
7.37273e-14
7.33393e-14
7.40738e-14
7.42646e-14
7.37659e-14
7.35366e-14
7.38492e-14
7.39242e-14
7.35594e-14
7.35284e-14
7.37821e-14
7.39477e-14
7.43955e-14
7.42848e-14
7.37797e-14
7.34151e-14
7.34615e-14
7.41106e-14
7.40024e-14
7.36858e-14
7.367e-14
7.38169e-14
7.3598e-14
7.33581e-14
7.2801e-14
7.21643e-14
7.1623e-14
7.1743e-14
7.18922e-14
7.16226e-14
7.09371e-14
7.08041e-14
7.10038e-14
7.09969e-14
7.07431e-14
7.05435e-14
7.00842e-14
6.98435e-14
6.93294e-14
6.88219e-14
6.84408e-14
6.80056e-14
6.76714e-14
6.67969e-14
6.61806e-14
6.49275e-14
6.43259e-14
6.41996e-14
6.36774e-14
6.29543e-14
6.26088e-14
6.23071e-14
6.18854e-14
6.17152e-14
6.18214e-14
6.17321e-14
6.17726e-14
6.13915e-14
6.07545e-14
6.01547e-14
5.99425e-14
5.94849e-14
5.94779e-14
5.95719e-14
5.92532e-14
5.85802e-14
5.84702e-14
5.82727e-14
5.74591e-14
5.73638e-14
5.74403e-14
5.71031e-14
5.66339e-14
5.60126e-14
5.5763e-14
5.59037e-14
5.57593e-14
5.57517e-14
5.55493e-14
5.51672e-14
5.42538e-14
5.44207e-14
5.44476e-14
5.42234e-14
5.37845e-14
5.38995e-14
5.36872e-14
5.33736e-14
5.30786e-14
5.30168e-14
5.28142e-14
5.31917e-14
5.31708e-14
5.27941e-14
5.30331e-14
5.27551e-14
5.24227e-14
5.24107e-14
5.20283e-14
5.16254e-14
5.19327e-14
5.19076e-14
5.19224e-14
5.18616e-14
5.18115e-14
5.23358e-14
5.22596e-14
5.1949e-14
5.24438e-14
5.31548e-14
5.34343e-14
5.26357e-14
5.17897e-14
5.27318e-14
5.25131e-14
5.22748e-14
5.19943e-14
5.16824e-14
5.15846e-14
5.15059e-14
5.16342e-14
5.15781e-14
5.11336e-14
5.04429e-14
5.00047e-14
5.00388e-14
5.00707e-14
4.99483e-14
4.98221e-14
4.94936e-14
4.9555e-14
4.91702e-14
4.89386e-14
4.84452e-14
4.83506e-14
4.87659e-14
4.84036e-14
4.81452e-14
4.84693e-14
4.8112e-14
4.77158e-14
4.72373e-14
4.72301e-14
4.69249e-14
4.63339e-14
4.6019e-14
4.53815e-14
4.49968e-14
4.45562e-14
4.40846e-14
4.36253e-14
4.29992e-14
4.2999e-14
4.28537e-14
4.27322e-14
4.29859e-14
4.27317e-14
4.2569e-14
4.24826e-14
4.22491e-14
4.25411e-14
4.19664e-14
4.18473e-14
4.20338e-14
4.14068e-14
4.14172e-14
4.10192e-14
4.0582e-14
4.02014e-14
3.92559e-14
3.96245e-14
3.93448e-14
3.84072e-14
3.78765e-14
3.72711e-14
3.71738e-14
3.61601e-14
3.56072e-14
3.48766e-14
3.38842e-14
3.36811e-14
3.24822e-14
3.16479e-14
3.08346e-14
3.04767e-14
2.98398e-14
2.92426e-14
2.90605e-14
2.8454e-14
2.76348e-14
2.68166e-14
2.5795e-14
2.39592e-14
2.30043e-14
2.1858e-14
2.09717e-14
1.98383e-14
1.85046e-14
1.7613e-14
1.61516e-14
1.4448e-14
1.35337e-14
1.17957e-14
9.67573e-15
8.62084e-15
9.60756e-15
9.44656e-15
1.06635e-14
1.16329e-14
1.21722e-14
1.29772e-14
1.36941e-14
1.46392e-14
1.49028e-14
1.59875e-14
1.69863e-14
1.75864e-14
1.77652e-14
1.81708e-14
1.87483e-14
1.98122e-14
2.07321e-14
2.18667e-14
2.19339e-14
2.24906e-14
2.33087e-14
2.40777e-14
2.50546e-14
2.62154e-14
2.66493e-14
2.73737e-14
2.78965e-14
2.83606e-14
2.91707e-14
2.99638e-14
3.05512e-14
3.14786e-14
3.21669e-14
3.24016e-14
3.29468e-14
3.36931e-14
3.43471e-14
3.53115e-14
3.65616e-14
3.71817e-14
3.76959e-14
3.84077e-14
3.91792e-14
4.00689e-14
4.06658e-14
4.14309e-14
4.16293e-14
4.21616e-14
4.29271e-14
4.37422e-14
4.39196e-14
4.50401e-14
4.57733e-14
4.60893e-14
4.65169e-14
4.69613e-14
4.78285e-14
4.8691e-14
4.91491e-14
5.00482e-14
5.11932e-14
5.18967e-14
5.2167e-14
5.28053e-14
5.29363e-14
5.2894e-14
5.34516e-14
5.42794e-14
5.47945e-14
5.53573e-14
5.56381e-14
5.65249e-14
5.67453e-14
5.74011e-14
5.80084e-14
5.84957e-14
5.8845e-14
5.88216e-14
5.93681e-14
5.98406e-14
6.09237e-14
6.1708e-14
6.20868e-14
6.30546e-14
6.36328e-14
6.441e-14
6.49903e-14
6.57603e-14
6.63954e-14
6.67586e-14
6.7556e-14
6.80587e-14
6.81067e-14
6.84482e-14
6.88008e-14
6.9268e-14
6.98326e-14
7.01441e-14
7.03052e-14
7.03248e-14
7.12147e-14
7.15313e-14
7.18796e-14
7.17132e-14
7.21923e-14
7.25592e-14
7.2777e-14
7.31927e-14
7.29812e-14
7.35251e-14
7.36027e-14
7.33849e-14
7.35775e-14
7.38265e-14
7.35288e-14
7.36458e-14
7.32645e-14
7.40921e-14
7.43312e-14
7.37791e-14
7.35161e-14
7.39675e-14
7.39521e-14
7.38091e-14
7.37289e-14
7.37474e-14
7.37186e-14
7.44263e-14
7.45099e-14
7.36585e-14
7.33332e-14
7.35169e-14
7.42982e-14
7.42124e-14
7.37904e-14
7.36222e-14
7.37041e-14
7.36322e-14
7.34114e-14
7.2808e-14
7.21225e-14
7.17055e-14
7.17159e-14
7.17029e-14
7.16598e-14
7.09216e-14
7.09761e-14
7.09901e-14
7.11315e-14
7.05548e-14
7.05662e-14
7.00539e-14
6.94786e-14
6.94204e-14
6.8925e-14
6.847e-14
6.80939e-14
6.7907e-14
6.67197e-14
6.62388e-14
6.49044e-14
6.41924e-14
6.43393e-14
6.37809e-14
6.27778e-14
6.23724e-14
6.22142e-14
6.19172e-14
6.19253e-14
6.19943e-14
6.14818e-14
6.17062e-14
6.16042e-14
6.07271e-14
6.01815e-14
5.99116e-14
5.96395e-14
5.95122e-14
5.94609e-14
5.95574e-14
5.84587e-14
5.83947e-14
5.83988e-14
5.76969e-14
5.75533e-14
5.71868e-14
5.70577e-14
5.70353e-14
5.61549e-14
5.55752e-14
5.58942e-14
5.60335e-14
5.57577e-14
5.54806e-14
5.52749e-14
5.44084e-14
5.43386e-14
5.42097e-14
5.43354e-14
5.39001e-14
5.38239e-14
5.37608e-14
5.32274e-14
5.31007e-14
5.30691e-14
5.26979e-14
5.33914e-14
5.33172e-14
5.27666e-14
5.31248e-14
5.27696e-14
5.24298e-14
5.24537e-14
5.18457e-14
5.16596e-14
5.20835e-14
5.18247e-14
5.14802e-14
5.18191e-14
5.18308e-14
5.23743e-14
5.20292e-14
5.19747e-14
5.26086e-14
5.30332e-14
5.32902e-14
5.29825e-14
5.181e-14
5.27203e-14
5.26573e-14
5.23302e-14
5.21388e-14
5.17318e-14
5.1749e-14
5.15603e-14
5.15114e-14
5.17523e-14
5.10175e-14
5.04299e-14
4.98224e-14
4.98081e-14
4.99572e-14
4.99971e-14
4.98026e-14
4.90802e-14
4.95563e-14
4.91854e-14
4.91552e-14
4.84125e-14
4.82452e-14
4.88352e-14
4.83867e-14
4.8008e-14
4.8352e-14
4.83206e-14
4.78413e-14
4.7218e-14
4.69458e-14
4.69723e-14
4.62462e-14
4.57247e-14
4.53333e-14
4.51591e-14
4.46877e-14
4.40901e-14
4.36057e-14
4.32059e-14
4.26077e-14
4.28607e-14
4.29152e-14
4.3027e-14
4.2912e-14
4.24977e-14
4.25005e-14
4.21699e-14
4.24058e-14
4.20719e-14
4.18505e-14
4.21558e-14
4.13444e-14
4.15019e-14
4.08141e-14
4.07107e-14
4.04161e-14
3.94419e-14
3.9622e-14
3.94613e-14
3.85835e-14
3.79042e-14
3.74644e-14
3.70966e-14
3.60962e-14
3.57706e-14
3.48526e-14
3.37888e-14
3.35758e-14
3.27269e-14
3.18371e-14
3.06864e-14
3.03892e-14
2.98125e-14
2.96169e-14
2.92643e-14
2.81489e-14
2.77786e-14
2.70137e-14
2.60678e-14
2.40168e-14
2.29688e-14
2.20541e-14
2.09762e-14
2.00422e-14
1.8985e-14
1.79516e-14
1.65452e-14
1.46805e-14
1.37326e-14
1.24484e-14
1.04856e-14
9.53239e-15
1.06023e-14
1.06027e-14
1.14978e-14
1.223e-14
1.2681e-14
1.34519e-14
1.38555e-14
1.46656e-14
1.51063e-14
1.61854e-14
1.71925e-14
1.77818e-14
1.79094e-14
1.81476e-14
1.88559e-14
1.98856e-14
2.07428e-14
2.17748e-14
2.19654e-14
2.24394e-14
2.3245e-14
2.43731e-14
2.4977e-14
2.63425e-14
2.69306e-14
2.75403e-14
2.78822e-14
2.85744e-14
2.91809e-14
3.00491e-14
3.04981e-14
3.15575e-14
3.2149e-14
3.24524e-14
3.30678e-14
3.36744e-14
3.42526e-14
3.50288e-14
3.64024e-14
3.73435e-14
3.78615e-14
3.85233e-14
3.93117e-14
4.00022e-14
4.05312e-14
4.15323e-14
4.16126e-14
4.22592e-14
4.26691e-14
4.37968e-14
4.41862e-14
4.50004e-14
4.57194e-14
4.58847e-14
4.64942e-14
4.69232e-14
4.76752e-14
4.85934e-14
4.91274e-14
5.01196e-14
5.15129e-14
5.17057e-14
5.21059e-14
5.2975e-14
5.2977e-14
5.28912e-14
5.34037e-14
5.43499e-14
5.48275e-14
5.54939e-14
5.60052e-14
5.64082e-14
5.6608e-14
5.73544e-14
5.793e-14
5.88054e-14
5.8727e-14
5.85557e-14
5.94269e-14
6.00303e-14
6.09095e-14
6.16875e-14
6.21702e-14
6.28426e-14
6.37979e-14
6.4603e-14
6.47715e-14
6.59491e-14
6.66529e-14
6.69237e-14
6.72979e-14
6.79302e-14
6.80615e-14
6.84991e-14
6.86611e-14
6.91639e-14
6.98238e-14
7.00624e-14
7.02733e-14
7.04786e-14
7.12869e-14
7.16167e-14
7.18139e-14
7.17135e-14
7.2281e-14
7.24504e-14
7.26178e-14
7.33619e-14
7.29167e-14
7.33934e-14
7.34537e-14
7.35792e-14
7.37214e-14
7.38662e-14
7.34472e-14
7.33222e-14
7.32189e-14
7.38996e-14
7.43217e-14
7.36451e-14
7.35387e-14
7.42657e-14
7.42047e-14
7.39771e-14
7.3661e-14
7.3476e-14
7.39546e-14
7.43976e-14
7.43538e-14
7.3501e-14
7.32257e-14
7.37917e-14
7.44745e-14
7.42324e-14
7.39085e-14
7.37117e-14
7.36351e-14
7.35398e-14
7.34714e-14
7.30259e-14
7.21142e-14
7.17362e-14
7.16759e-14
7.1405e-14
7.16212e-14
7.10038e-14
7.11088e-14
7.10799e-14
7.11413e-14
7.08026e-14
7.03435e-14
6.98758e-14
6.94276e-14
6.95152e-14
6.90057e-14
6.85634e-14
6.82436e-14
6.79092e-14
6.64791e-14
6.62566e-14
6.5193e-14
6.43146e-14
6.43081e-14
6.36312e-14
6.2798e-14
6.22616e-14
6.18919e-14
6.21545e-14
6.19881e-14
6.19349e-14
6.15873e-14
6.15297e-14
6.18118e-14
6.09189e-14
6.0222e-14
5.99429e-14
5.9758e-14
5.96091e-14
5.95776e-14
5.9685e-14
5.84759e-14
5.82862e-14
5.83981e-14
5.77414e-14
5.73816e-14
5.71267e-14
5.7201e-14
5.71104e-14
5.6449e-14
5.55069e-14
5.60493e-14
5.58361e-14
5.581e-14
5.56227e-14
5.54079e-14
5.42178e-14
5.42739e-14
5.41378e-14
5.44803e-14
5.40053e-14
5.39386e-14
5.36935e-14
5.2972e-14
5.32017e-14
5.31827e-14
5.29169e-14
5.31698e-14