/*--------------------------------*- C++ -*----------------------------------*\
| =========                 |                                                 |
| \\      /  F ield         | OpenFOAM: The Open Source CFD Toolbox           |
|  \\    /   O peration     | Version:  2112                                  |
|   \\  /    A nd           | Website:  www.openfoam.com                      |
|    \\/     M anipulation  |                                                 |
\*---------------------------------------------------------------------------*/
FoamFile
{
    version     2.0;
    format      ascii;
    arch        "LSB;label=32;scalar=64";
    class       volScalarField;
    location    "1";
    object      p;
}
// * * * * * * * * * * * * * * * * * * * * * * * * * * * * * * * * * * * * * //

dimensions      [0 2 -2 0 0 0 0];

internalField   nonuniform List<scalar> 
25600
(
-9.85378e-14
-1.89692e-13
-2.21815e-13
-2.42883e-13
-2.57556e-13
-2.6739e-13
-2.74258e-13
-2.79799e-13
-2.83717e-13
-2.86589e-13
-2.88852e-13
-2.9071e-13
-2.92665e-13
-2.9254e-13
-2.9122e-13
-2.91628e-13
-2.907e-13
-2.88624e-13
-2.86737e-13
-2.84889e-13
-2.83208e-13
-2.80593e-13
-2.76929e-13
-2.73504e-13
-2.70591e-13
-2.69342e-13
-2.67836e-13
-2.64157e-13
-2.60891e-13
-2.58496e-13
-2.57394e-13
-2.55179e-13
-2.50484e-13
-2.46628e-13
-2.43268e-13
-2.39731e-13
-2.37517e-13
-2.33861e-13
-2.30831e-13
-2.29628e-13
-2.27506e-13
-2.26252e-13
-2.24252e-13
-2.21814e-13
-2.21294e-13
-2.1841e-13
-2.15758e-13
-2.13632e-13
-2.11816e-13
-2.10238e-13
-2.0844e-13
-2.08782e-13
-2.0661e-13
-2.05053e-13
-2.04308e-13
-2.01544e-13
-2.02272e-13
-2.02286e-13
-2.02584e-13
-2.03244e-13
-2.01278e-13
-2.04206e-13
-2.03786e-13
-2.03514e-13
-2.04753e-13
-2.01961e-13
-2.03224e-13
-2.02554e-13
-2.01665e-13
-2.01553e-13
-1.98664e-13
-1.97141e-13
-1.95529e-13
-1.95236e-13
-1.96666e-13
-1.92563e-13
-1.90923e-13
-1.92735e-13
-1.91391e-13
-1.93118e-13
-1.91933e-13
-1.91241e-13
-1.95328e-13
-1.97265e-13
-1.98817e-13
-1.98601e-13
-1.98925e-13
-2.00966e-13
-2.03641e-13
-2.04945e-13
-2.0131e-13
-2.00378e-13
-2.04547e-13
-2.06982e-13
-2.05445e-13
-2.03519e-13
-2.05653e-13
-2.05347e-13
-2.05112e-13
-2.03213e-13
-1.9979e-13
-2.0196e-13
-2.01888e-13
-2.04214e-13
-2.05936e-13
-2.05175e-13
-2.04192e-13
-2.0691e-13
-2.09806e-13
-2.08747e-13
-2.07442e-13
-2.02593e-13
-2.08279e-13
-2.11736e-13
-2.08907e-13
-2.06402e-13
-2.04645e-13
-2.09775e-13
-2.15041e-13
-2.14066e-13
-2.1235e-13
-2.12815e-13
-2.19139e-13
-2.26289e-13
-2.25766e-13
-2.2327e-13
-2.23697e-13
-2.31333e-13
-2.37526e-13
-2.34822e-13
-2.32824e-13
-2.33115e-13
-2.37573e-13
-2.40389e-13
-2.38368e-13
-2.38327e-13
-2.38218e-13
-2.42201e-13
-2.46609e-13
-2.44936e-13
-2.44225e-13
-2.45009e-13
-2.4988e-13
-2.51608e-13
-2.50011e-13
-2.50627e-13
-2.49585e-13
-2.52228e-13
-2.53282e-13
-2.53971e-13
-2.56366e-13
-2.52244e-13
-2.54267e-13
-2.60208e-13
-2.6271e-13
-2.63735e-13
-2.61689e-13
-2.62487e-13
-2.6787e-13
-2.70329e-13
-2.72493e-13
-2.68814e-13
-2.72928e-13
-2.78251e-13
-2.75324e-13
-2.80416e-13
-2.8105e-13
-2.82227e-13
-2.88189e-13
-2.88469e-13
-2.89231e-13
-2.86883e-13
-2.90325e-13
-2.92045e-13
-2.89549e-13
-2.89618e-13
-2.90062e-13
-2.9548e-13
-2.92106e-13
-2.91756e-13
-2.94396e-13
-2.87859e-13
-2.92332e-13
-2.95226e-13
-2.93627e-13
-2.97578e-13
-2.92342e-13
-2.95119e-13
-2.98419e-13
-2.93639e-13
-2.97586e-13
-2.96943e-13
-2.97157e-13
-3.04085e-13
-3.01823e-13
-3.02877e-13
-3.03181e-13
-3.07881e-13
-3.1469e-13
-3.10082e-13
-3.14254e-13
-3.15842e-13
-3.2117e-13
-3.26493e-13
-3.20327e-13
-3.19808e-13
-3.22869e-13
-3.29731e-13
-3.3188e-13
-3.27998e-13
-3.27166e-13
-3.30894e-13
-3.42822e-13
-3.36636e-13
-3.29958e-13
-3.43165e-13
-3.39586e-13
-3.36034e-13
-3.37136e-13
-3.38473e-13
-3.5129e-13
-3.45306e-13
-3.38682e-13
-3.38929e-13
-3.38562e-13
-3.5043e-13
-3.42853e-13
-3.37403e-13
-3.40585e-13
-3.38926e-13
-3.46902e-13
-3.41521e-13
-3.39808e-13
-3.40741e-13
-3.33306e-13
-3.39905e-13
-3.39268e-13
-3.38923e-13
-3.37111e-13
-3.28254e-13
-3.35902e-13
-3.332e-13
-3.35068e-13
-3.37066e-13
-3.27406e-13
-3.37411e-13
-3.42127e-13
-3.43947e-13
-3.40371e-13
-3.34537e-13
-3.46381e-13
-3.42499e-13
-3.3923e-13
-3.41556e-13
-3.40798e-13
-3.53091e-13
-3.46362e-13
-3.44251e-13
-3.4668e-13
-3.39417e-13
-3.47641e-13
-3.46394e-13
-3.44529e-13
-3.45216e-13
-3.42305e-13
-3.50531e-13
-3.45588e-13
-3.41067e-13
-3.39726e-13
-3.36394e-13
-3.45048e-13
-3.43565e-13
-3.42704e-13
-3.41707e-13
-3.38558e-13
-3.4714e-13
-3.46341e-13
-3.4582e-13
-3.49906e-13
-3.4606e-13
-3.52613e-13
-3.53803e-13
-3.52326e-13
-3.53769e-13
-3.50795e-13
-3.58054e-13
-3.60637e-13
-3.56732e-13
-3.5409e-13
-3.5597e-13
-3.65055e-13
-3.62419e-13
-3.59216e-13
-3.59546e-13
-3.62428e-13
-3.68618e-13
-3.64438e-13
-3.61265e-13
-3.58166e-13
-3.60155e-13
-3.66583e-13
-3.63378e-13
-3.5964e-13
-3.51941e-13
-3.50568e-13
-3.55018e-13
-3.52191e-13
-3.51071e-13
-3.41307e-13
-3.39219e-13
-3.36109e-13
-3.27183e-13
-3.27116e-13
-3.15652e-13
-3.04932e-13
-2.98696e-13
-2.81339e-13
-2.65705e-13
-2.35781e-13
-1.93744e-13
-1.62518e-13
-1.99738e-13
-2.25875e-13
-2.44885e-13
-2.58468e-13
-2.67943e-13
-2.74535e-13
-2.79836e-13
-2.83667e-13
-2.86457e-13
-2.88927e-13
-2.90906e-13
-2.92483e-13
-2.92434e-13
-2.91542e-13
-2.91393e-13
-2.9058e-13
-2.88434e-13
-2.86909e-13
-2.84833e-13
-2.82968e-13
-2.80458e-13
-2.76994e-13
-2.73819e-13
-2.71122e-13
-2.69401e-13
-2.67139e-13
-2.64319e-13
-2.61574e-13
-2.58855e-13
-2.575e-13
-2.54873e-13
-2.503e-13
-2.46849e-13
-2.43251e-13
-2.39566e-13
-2.37405e-13
-2.34135e-13
-2.30832e-13
-2.29014e-13
-2.27635e-13
-2.26073e-13
-2.24349e-13
-2.22121e-13
-2.20715e-13
-2.18606e-13
-2.15844e-13
-2.13707e-13
-2.11913e-13
-2.10357e-13
-2.09303e-13
-2.08311e-13
-2.06526e-13
-2.04969e-13
-2.03626e-13
-2.02063e-13
-2.02587e-13
-2.02436e-13
-2.0247e-13
-2.0275e-13
-2.01892e-13
-2.04172e-13
-2.03825e-13
-2.03522e-13
-2.04484e-13
-2.02031e-13
-2.03196e-13
-2.02733e-13
-2.01284e-13
-2.01103e-13
-1.98701e-13
-1.97155e-13
-1.95472e-13
-1.95486e-13
-1.96108e-13
-1.92957e-13
-1.91649e-13
-1.92193e-13
-1.91281e-13
-1.92478e-13
-1.92432e-13
-1.92452e-13
-1.95165e-13
-1.96439e-13
-1.97851e-13
-1.98592e-13
-2.00569e-13
-2.01553e-13
-2.02236e-13
-2.03496e-13
-2.01536e-13
-2.01747e-13
-2.04709e-13
-2.05574e-13
-2.05362e-13
-2.0493e-13
-2.05909e-13
-2.05021e-13
-2.0344e-13
-2.0274e-13
-2.01962e-13
-2.01912e-13
-2.02068e-13
-2.03082e-13
-2.05427e-13
-2.05924e-13
-2.04894e-13
-2.06211e-13
-2.08938e-13
-2.091e-13
-2.07169e-13
-2.04748e-13
-2.07606e-13
-2.0969e-13
-2.09161e-13
-2.07487e-13
-2.05525e-13
-2.08781e-13
-2.14192e-13
-2.14311e-13
-2.12722e-13
-2.14113e-13
-2.1914e-13
-2.24862e-13
-2.25444e-13
-2.24162e-13
-2.24709e-13
-2.31152e-13
-2.3609e-13
-2.34604e-13
-2.33624e-13
-2.33879e-13
-2.36701e-13
-2.39788e-13
-2.39243e-13
-2.38583e-13
-2.38662e-13
-2.42262e-13
-2.4656e-13
-2.45202e-13
-2.44297e-13
-2.45324e-13
-2.49891e-13
-2.5124e-13
-2.50039e-13
-2.50302e-13
-2.50352e-13
-2.53128e-13
-2.53272e-13
-2.53005e-13
-2.55022e-13
-2.53695e-13
-2.56117e-13
-2.59628e-13
-2.61747e-13
-2.62822e-13
-2.62121e-13
-2.63046e-13
-2.67187e-13
-2.69767e-13
-2.71094e-13
-2.69963e-13
-2.73574e-13
-2.77165e-13
-2.76326e-13
-2.7928e-13
-2.81877e-13
-2.8333e-13
-2.86547e-13
-2.87786e-13
-2.88087e-13
-2.8805e-13
-2.90481e-13
-2.92432e-13
-2.9092e-13
-2.88537e-13
-2.90373e-13
-2.93445e-13
-2.92803e-13
-2.93846e-13
-2.92169e-13
-2.88962e-13
-2.92656e-13
-2.95532e-13
-2.94592e-13
-2.94998e-13
-2.93397e-13
-2.95167e-13
-2.97419e-13
-2.96223e-13
-2.96527e-13
-2.96909e-13
-2.97945e-13
-3.01613e-13
-3.02879e-13
-3.03174e-13
-3.04576e-13
-3.07457e-13
-3.10847e-13
-3.12573e-13
-3.15012e-13
-3.1716e-13
-3.20802e-13
-3.22585e-13
-3.2225e-13
-3.22414e-13
-3.23809e-13
-3.27154e-13
-3.28776e-13
-3.29385e-13
-3.30213e-13
-3.32043e-13
-3.38674e-13
-3.36645e-13
-3.33642e-13
-3.393e-13
-3.37892e-13
-3.39101e-13
-3.39392e-13
-3.39634e-13
-3.47051e-13
-3.43404e-13
-3.41594e-13
-3.41258e-13
-3.39728e-13
-3.46304e-13
-3.42229e-13
-3.38521e-13
-3.40425e-13
-3.40813e-13
-3.45243e-13
-3.41725e-13
-3.40306e-13
-3.39836e-13
-3.35034e-13
-3.37721e-13
-3.38161e-13
-3.40067e-13
-3.37373e-13
-3.29881e-13
-3.33672e-13
-3.32821e-13
-3.35358e-13
-3.36355e-13
-3.30198e-13
-3.37774e-13
-3.40348e-13
-3.42222e-13
-3.40573e-13
-3.37289e-13
-3.45609e-13
-3.42336e-13
-3.39427e-13
-3.40982e-13
-3.43323e-13
-3.52041e-13
-3.45749e-13
-3.43959e-13
-3.45654e-13
-3.42068e-13
-3.46413e-13
-3.452e-13
-3.45051e-13
-3.44948e-13
-3.44157e-13
-3.49263e-13
-3.43577e-13
-3.41811e-13
-3.41043e-13
-3.37563e-13
-3.4383e-13
-3.42433e-13
-3.43223e-13
-3.42248e-13
-3.39243e-13
-3.46491e-13
-3.45692e-13
-3.47649e-13
-3.49002e-13
-3.45631e-13
-3.52577e-13
-3.52393e-13
-3.53437e-13
-3.54397e-13
-3.51718e-13
-3.58611e-13
-3.58391e-13
-3.55625e-13
-3.55786e-13
-3.57448e-13
-3.6383e-13
-3.60874e-13
-3.59428e-13
-3.62384e-13
-3.62422e-13
-3.65894e-13
-3.65411e-13
-3.60309e-13
-3.60895e-13
-3.6022e-13
-3.63512e-13
-3.63861e-13
-3.58539e-13
-3.53664e-13
-3.52566e-13
-3.55301e-13
-3.51428e-13
-3.48502e-13
-3.42503e-13
-3.39316e-13
-3.36605e-13
-3.28218e-13
-3.24673e-13
-3.17358e-13
-3.06488e-13
-2.97445e-13
-2.8286e-13
-2.67045e-13
-2.40567e-13
-2.05198e-13
-1.96391e-13
-2.12215e-13
-2.30855e-13
-2.47486e-13
-2.59564e-13
-2.68517e-13
-2.74972e-13
-2.7978e-13
-2.83623e-13
-2.8623e-13
-2.88833e-13
-2.90939e-13
-2.92717e-13
-2.92445e-13
-2.91428e-13
-2.91459e-13
-2.90312e-13
-2.88205e-13
-2.86957e-13
-2.84602e-13
-2.82634e-13
-2.80612e-13
-2.77028e-13
-2.74131e-13
-2.71382e-13
-2.69494e-13
-2.67007e-13
-2.6453e-13
-2.62035e-13
-2.59086e-13
-2.57581e-13
-2.54579e-13
-2.502e-13
-2.47115e-13
-2.43063e-13
-2.39293e-13
-2.3735e-13
-2.34368e-13
-2.30924e-13
-2.28281e-13
-2.27443e-13
-2.26096e-13
-2.24164e-13
-2.2228e-13
-2.20769e-13
-2.18651e-13
-2.15753e-13
-2.13543e-13
-2.12049e-13
-2.1063e-13
-2.09525e-13
-2.08228e-13
-2.06729e-13
-2.04718e-13
-2.03254e-13
-2.02259e-13
-2.02885e-13
-2.02542e-13
-2.02579e-13
-2.02557e-13
-2.02125e-13
-2.03861e-13
-2.04022e-13
-2.0386e-13
-2.04055e-13
-2.01993e-13
-2.03482e-13
-2.0284e-13
-2.01179e-13
-2.00724e-13
-1.98576e-13
-1.97031e-13
-1.95201e-13
-1.95697e-13
-1.95467e-13
-1.93478e-13
-1.92533e-13
-1.91686e-13
-1.90903e-13
-1.92048e-13
-1.92747e-13
-1.93079e-13
-1.95053e-13
-1.96059e-13
-1.97292e-13
-1.9867e-13
-2.009e-13
-2.02253e-13
-2.01906e-13
-2.02298e-13
-2.01619e-13
-2.02446e-13
-2.04775e-13
-2.05055e-13
-2.05299e-13
-2.05297e-13
-2.06079e-13
-2.04991e-13
-2.02798e-13
-2.02362e-13
-2.02825e-13
-2.01998e-13
-2.01852e-13
-2.02458e-13
-2.04969e-13
-2.0643e-13
-2.05267e-13
-2.05879e-13
-2.08677e-13
-2.09352e-13
-2.07083e-13
-2.06155e-13
-2.06963e-13
-2.08088e-13
-2.0939e-13
-2.08056e-13
-2.06201e-13
-2.08575e-13
-2.12922e-13
-2.14443e-13
-2.13576e-13
-2.15336e-13
-2.18839e-13
-2.23223e-13
-2.24839e-13
-2.2465e-13
-2.26385e-13
-2.31359e-13
-2.35064e-13
-2.34363e-13
-2.34065e-13
-2.34822e-13
-2.36251e-13
-2.38836e-13
-2.39714e-13
-2.39183e-13
-2.39228e-13
-2.42786e-13
-2.46037e-13
-2.45015e-13
-2.4459e-13
-2.45816e-13
-2.50198e-13
-2.50695e-13
-2.5012e-13
-2.50729e-13
-2.50648e-13
-2.53153e-13
-2.53298e-13
-2.52439e-13
-2.54236e-13
-2.54791e-13
-2.57615e-13
-2.59346e-13
-2.613e-13
-2.61733e-13
-2.62179e-13
-2.63922e-13
-2.66817e-13
-2.69154e-13
-2.69991e-13
-2.70879e-13
-2.74134e-13
-2.76268e-13
-2.76833e-13
-2.78734e-13
-2.81914e-13
-2.84017e-13
-2.85438e-13
-2.87073e-13
-2.88094e-13
-2.88315e-13
-2.90609e-13
-2.92583e-13
-2.91326e-13
-2.8915e-13
-2.90832e-13
-2.91411e-13
-2.9316e-13
-2.94738e-13
-2.91594e-13
-2.90235e-13
-2.92698e-13
-2.95063e-13
-2.95057e-13
-2.93715e-13
-2.937e-13
-2.95622e-13
-2.97015e-13
-2.97307e-13
-2.96237e-13
-2.96699e-13
-2.97648e-13
-3.00598e-13
-3.03261e-13
-3.03437e-13
-3.05081e-13
-3.07078e-13
-3.09311e-13
-3.13541e-13
-3.15538e-13
-3.17739e-13
-3.20709e-13
-3.20949e-13
-3.22938e-13
-3.23774e-13
-3.24194e-13
-3.25818e-13
-3.27308e-13
-3.29821e-13
-3.316e-13
-3.32669e-13
-3.36456e-13
-3.36633e-13
-3.35256e-13
-3.37353e-13
-3.37522e-13
-3.40995e-13
-3.40486e-13
-3.40518e-13
-3.4468e-13
-3.42264e-13
-3.43443e-13
-3.42603e-13
-3.40618e-13
-3.43857e-13
-3.41513e-13
-3.39219e-13
-3.40678e-13
-3.41552e-13
-3.44177e-13
-3.41982e-13
-3.40284e-13
-3.39376e-13
-3.36173e-13
-3.36699e-13
-3.37672e-13
-3.40066e-13
-3.37026e-13
-3.30839e-13
-3.33045e-13
-3.32929e-13
-3.35001e-13
-3.35556e-13
-3.324e-13
-3.3797e-13
-3.39107e-13
-3.41162e-13
-3.41106e-13
-3.38948e-13
-3.44032e-13
-3.42385e-13
-3.40652e-13
-3.41656e-13
-3.45005e-13
-3.49965e-13
-3.45429e-13
-3.44546e-13
-3.4564e-13
-3.43498e-13
-3.44499e-13
-3.44099e-13
-3.46142e-13
-3.45711e-13
-3.44779e-13
-3.47779e-13
-3.42282e-13
-3.42235e-13
-3.41607e-13
-3.38579e-13
-3.43495e-13
-3.41924e-13
-3.42713e-13
-3.42635e-13
-3.40152e-13
-3.46098e-13
-3.45389e-13
-3.48102e-13
-3.4849e-13
-3.45586e-13
-3.52694e-13
-3.515e-13
-3.53457e-13
-3.55131e-13
-3.52783e-13
-3.58583e-13
-3.57084e-13
-3.54601e-13
-3.57308e-13
-3.58415e-13
-3.62827e-13
-3.602e-13
-3.60398e-13
-3.63082e-13
-3.6179e-13
-3.65023e-13
-3.65964e-13
-3.60773e-13
-3.61723e-13
-3.60054e-13
-3.61564e-13
-3.62962e-13
-3.58365e-13
-3.55311e-13
-3.5445e-13
-3.55157e-13
-3.5031e-13
-3.46905e-13
-3.4389e-13
-3.38784e-13
-3.36953e-13
-3.28601e-13
-3.23144e-13
-3.18816e-13
-3.07277e-13
-2.97005e-13
-2.84543e-13
-2.68592e-13
-2.45964e-13
-2.18757e-13
-2.1726e-13
-2.24082e-13
-2.36641e-13
-2.50475e-13
-2.61368e-13
-2.69223e-13
-2.75408e-13
-2.7961e-13
-2.83786e-13
-2.86534e-13
-2.88443e-13
-2.90758e-13
-2.92928e-13
-2.9249e-13
-2.91443e-13
-2.91659e-13
-2.90087e-13
-2.88158e-13
-2.86692e-13
-2.84643e-13
-2.82571e-13
-2.80817e-13
-2.76813e-13
-2.74121e-13
-2.71613e-13
-2.69469e-13
-2.67229e-13
-2.64721e-13
-2.62295e-13
-2.59734e-13
-2.57373e-13
-2.54596e-13
-2.50163e-13
-2.47118e-13
-2.43081e-13
-2.39414e-13
-2.37151e-13
-2.3402e-13
-2.30618e-13
-2.28199e-13
-2.2721e-13
-2.25994e-13
-2.24283e-13
-2.22451e-13
-2.20721e-13
-2.18265e-13
-2.15563e-13
-2.13554e-13
-2.12401e-13
-2.10978e-13
-2.0923e-13
-2.08217e-13
-2.06884e-13
-2.04637e-13
-2.03212e-13
-2.01988e-13
-2.03121e-13
-2.02816e-13
-2.03087e-13
-2.02311e-13
-2.01815e-13
-2.04146e-13
-2.04189e-13
-2.04129e-13
-2.04273e-13
-2.01621e-13
-2.03062e-13
-2.03219e-13
-2.01278e-13
-2.00782e-13
-1.98792e-13
-1.96724e-13
-1.95199e-13
-1.95469e-13
-1.94827e-13
-1.9345e-13
-1.92457e-13
-1.91741e-13
-1.90993e-13
-1.91803e-13
-1.93156e-13
-1.93254e-13
-1.94281e-13
-1.96244e-13
-1.97197e-13
-1.9885e-13
-2.00325e-13
-2.02179e-13
-2.02438e-13
-2.02209e-13
-2.01727e-13
-2.02834e-13
-2.04608e-13
-2.05294e-13
-2.05075e-13
-2.0518e-13
-2.06332e-13
-2.04833e-13
-2.02882e-13
-2.02375e-13
-2.02529e-13
-2.01991e-13
-2.01683e-13
-2.01751e-13
-2.04351e-13
-2.06243e-13
-2.06175e-13
-2.06447e-13
-2.08488e-13
-2.0884e-13
-2.06958e-13
-2.06782e-13
-2.0644e-13
-2.07855e-13
-2.09114e-13
-2.08068e-13
-2.07205e-13
-2.09126e-13
-2.11547e-13
-2.13364e-13
-2.14783e-13
-2.16788e-13
-2.17938e-13
-2.2204e-13
-2.244e-13
-2.24677e-13
-2.277e-13
-2.32073e-13
-2.34296e-13
-2.34505e-13
-2.34543e-13
-2.35262e-13
-2.3618e-13
-2.37964e-13
-2.39456e-13
-2.4012e-13
-2.40426e-13
-2.43208e-13
-2.44429e-13
-2.44576e-13
-2.45307e-13
-2.46933e-13
-2.49786e-13
-2.49932e-13
-2.50448e-13
-2.50815e-13
-2.52002e-13
-2.53082e-13
-2.52728e-13
-2.52011e-13
-2.54341e-13
-2.55725e-13
-2.57354e-13
-2.58859e-13
-2.6143e-13
-2.6163e-13
-2.62466e-13
-2.64262e-13
-2.66383e-13
-2.68555e-13
-2.69678e-13
-2.72226e-13
-2.74569e-13
-2.75289e-13
-2.76578e-13
-2.7887e-13
-2.81235e-13
-2.84012e-13
-2.85853e-13
-2.86958e-13
-2.8837e-13
-2.8798e-13
-2.91407e-13
-2.92557e-13
-2.90128e-13
-2.9017e-13
-2.91207e-13
-2.91665e-13
-2.93147e-13
-2.94407e-13
-2.92446e-13
-2.90722e-13
-2.92292e-13
-2.94302e-13
-2.94838e-13
-2.93726e-13
-2.93455e-13
-2.96425e-13
-2.97443e-13
-2.96801e-13
-2.96533e-13
-2.96355e-13
-2.9722e-13
-3.00258e-13
-3.02675e-13
-3.03605e-13
-3.0476e-13
-3.06728e-13
-3.09816e-13
-3.13316e-13
-3.15991e-13
-3.17858e-13
-3.20631e-13
-3.21336e-13
-3.23251e-13
-3.23446e-13
-3.24672e-13
-3.25637e-13
-3.27465e-13
-3.28958e-13
-3.30697e-13
-3.32876e-13
-3.36096e-13
-3.36928e-13
-3.3615e-13
-3.3726e-13
-3.38222e-13
-3.40058e-13
-3.40245e-13
-3.41685e-13
-3.44055e-13
-3.42617e-13
-3.43655e-13
-3.4297e-13
-3.41211e-13
-3.42827e-13
-3.41522e-13
-3.40201e-13
-3.40993e-13
-3.40065e-13
-3.4275e-13
-3.42091e-13
-3.40484e-13
-3.39734e-13
-3.375e-13
-3.37078e-13
-3.36718e-13
-3.38011e-13
-3.37416e-13
-3.32097e-13
-3.31472e-13
-3.33036e-13
-3.36032e-13
-3.35406e-13
-3.32943e-13
-3.36707e-13
-3.38804e-13
-3.41586e-13
-3.41248e-13
-3.40173e-13
-3.43354e-13
-3.42181e-13
-3.40853e-13
-3.42649e-13
-3.46323e-13
-3.47602e-13
-3.46016e-13
-3.45341e-13
-3.46252e-13
-3.44667e-13
-3.4266e-13
-3.44397e-13
-3.46383e-13
-3.45356e-13
-3.44126e-13
-3.46894e-13
-3.43297e-13
-3.41187e-13
-3.40802e-13
-3.40332e-13
-3.43644e-13
-3.42201e-13
-3.41307e-13
-3.41774e-13
-3.42537e-13
-3.4475e-13
-3.45519e-13
-3.47966e-13
-3.47748e-13
-3.47861e-13
-3.50764e-13
-3.51526e-13
-3.53215e-13
-3.54432e-13
-3.55002e-13
-3.569e-13
-3.56449e-13
-3.55995e-13
-3.58335e-13
-3.5924e-13
-3.60085e-13
-3.59038e-13
-3.62176e-13
-3.63829e-13
-3.61881e-13
-3.63542e-13
-3.65795e-13
-3.62854e-13
-3.6153e-13
-3.59894e-13
-3.5973e-13
-3.62842e-13
-3.5921e-13
-3.55013e-13
-3.55092e-13
-3.53208e-13
-3.50771e-13
-3.48005e-13
-3.44153e-13
-3.3883e-13
-3.35965e-13
-3.28024e-13
-3.23305e-13
-3.18465e-13
-3.08827e-13
-2.98563e-13
-2.85671e-13
-2.70366e-13
-2.5125e-13
-2.31797e-13
-2.30947e-13
-2.34344e-13
-2.42883e-13
-2.54104e-13
-2.63238e-13
-2.70433e-13
-2.75759e-13
-2.79558e-13
-2.83997e-13
-2.85884e-13
-2.88046e-13
-2.9154e-13
-2.9325e-13
-2.92521e-13
-2.91156e-13
-2.91426e-13
-2.90557e-13
-2.8867e-13
-2.8721e-13
-2.84794e-13
-2.82323e-13
-2.80995e-13
-2.76353e-13
-2.73399e-13
-2.72207e-13
-2.6965e-13
-2.67676e-13
-2.65155e-13
-2.62666e-13
-2.59922e-13
-2.57411e-13
-2.54134e-13
-2.50077e-13
-2.47264e-13
-2.43266e-13
-2.39293e-13
-2.3707e-13
-2.33383e-13
-2.30526e-13
-2.27802e-13
-2.26827e-13
-2.26308e-13
-2.24824e-13
-2.22477e-13
-2.2041e-13
-2.18191e-13
-2.14941e-13
-2.13745e-13
-2.13085e-13
-2.11233e-13
-2.09299e-13
-2.07676e-13
-2.06738e-13
-2.04473e-13
-2.03334e-13
-2.01934e-13
-2.03168e-13
-2.02901e-13
-2.03467e-13
-2.02215e-13
-2.02035e-13
-2.04343e-13
-2.04415e-13
-2.04215e-13
-2.04277e-13
-2.0195e-13
-2.02204e-13
-2.02809e-13
-2.01839e-13
-2.00795e-13
-1.99017e-13
-1.96346e-13
-1.95407e-13
-1.95403e-13
-1.94199e-13
-1.92836e-13
-1.92144e-13
-1.91881e-13
-1.91089e-13
-1.9136e-13
-1.93415e-13
-1.93456e-13
-1.93884e-13
-1.96699e-13
-1.97226e-13
-1.98882e-13
-2.00101e-13
-2.01536e-13
-2.02647e-13
-2.02645e-13
-2.0164e-13
-2.03242e-13
-2.0492e-13
-2.04518e-13
-2.04724e-13
-2.05536e-13
-2.06267e-13
-2.0513e-13
-2.03578e-13
-2.02282e-13
-2.02024e-13
-2.01341e-13
-2.01157e-13
-2.01718e-13
-2.03786e-13
-2.06061e-13
-2.06886e-13
-2.06548e-13
-2.07798e-13
-2.08817e-13
-2.07556e-13
-2.0679e-13
-2.06013e-13
-2.07463e-13
-2.08693e-13
-2.08871e-13
-2.08115e-13
-2.08803e-13
-2.10197e-13
-2.13039e-13
-2.1582e-13
-2.16762e-13
-2.17325e-13
-2.20875e-13
-2.24245e-13
-2.25298e-13
-2.281e-13
-2.31683e-13
-2.33974e-13
-2.35876e-13
-2.34942e-13
-2.34469e-13
-2.36665e-13
-2.38004e-13
-2.3938e-13
-2.40335e-13
-2.4153e-13
-2.43506e-13
-2.43499e-13
-2.44083e-13
-2.45791e-13
-2.47969e-13
-2.49222e-13
-2.49505e-13
-2.50163e-13
-2.51134e-13
-2.53345e-13
-2.52685e-13
-2.52107e-13
-2.52062e-13
-2.54644e-13
-2.5613e-13
-2.56746e-13
-2.58451e-13
-2.60848e-13
-2.62581e-13
-2.63506e-13
-2.64723e-13
-2.65477e-13
-2.68222e-13
-2.69465e-13
-2.7298e-13
-2.74019e-13
-2.751e-13
-2.77417e-13
-2.78533e-13
-2.80508e-13
-2.84045e-13
-2.86404e-13
-2.86975e-13
-2.87853e-13
-2.88978e-13
-2.92166e-13
-2.91336e-13
-2.9042e-13
-2.90797e-13
-2.9091e-13
-2.91901e-13
-2.93513e-13
-2.94047e-13
-2.92844e-13
-2.91305e-13
-2.91952e-13
-2.93971e-13
-2.94759e-13
-2.93996e-13
-2.93315e-13
-2.96438e-13
-2.97523e-13
-2.96506e-13
-2.96363e-13
-2.96208e-13
-2.97601e-13
-2.99991e-13
-3.02188e-13
-3.04033e-13
-3.03573e-13
-3.06934e-13
-3.10284e-13
-3.12587e-13
-3.1578e-13
-3.18695e-13
-3.20815e-13
-3.21804e-13
-3.23463e-13
-3.22819e-13
-3.2482e-13
-3.25529e-13
-3.27351e-13
-3.2865e-13
-3.30041e-13
-3.32866e-13
-3.35536e-13
-3.36881e-13
-3.36855e-13
-3.37777e-13
-3.38482e-13
-3.39138e-13
-3.40329e-13
-3.42893e-13
-3.44326e-13
-3.4216e-13
-3.43227e-13
-3.43495e-13
-3.41982e-13
-3.42802e-13
-3.41319e-13
-3.41002e-13
-3.39682e-13
-3.39238e-13
-3.4248e-13
-3.42268e-13
-3.40365e-13
-3.40446e-13
-3.38645e-13
-3.37138e-13
-3.35866e-13
-3.3596e-13
-3.37489e-13
-3.33156e-13
-3.30788e-13
-3.33232e-13
-3.36153e-13
-3.35249e-13
-3.3306e-13
-3.35464e-13
-3.38805e-13
-3.42115e-13
-3.40775e-13
-3.41725e-13
-3.43531e-13
-3.4179e-13
-3.41419e-13
-3.43224e-13
-3.46536e-13
-3.4625e-13
-3.46728e-13
-3.46232e-13
-3.45453e-13
-3.45678e-13
-3.43795e-13
-3.44512e-13
-3.44461e-13
-3.4493e-13
-3.44546e-13
-3.45907e-13
-3.44365e-13
-3.39744e-13
-3.40776e-13
-3.42116e-13
-3.42665e-13
-3.42235e-13
-3.40215e-13
-3.41388e-13
-3.4426e-13
-3.43636e-13
-3.46049e-13
-3.47951e-13
-3.47101e-13
-3.49361e-13
-3.49739e-13
-3.51795e-13
-3.5235e-13
-3.53937e-13
-3.57041e-13
-3.55547e-13
-3.5597e-13
-3.57217e-13
-3.59043e-13
-3.59268e-13
-3.57833e-13
-3.59168e-13
-3.62755e-13
-3.63415e-13
-3.63179e-13
-3.62115e-13
-3.65317e-13
-3.64634e-13
-3.6216e-13
-3.60036e-13
-3.58181e-13
-3.62947e-13
-3.59352e-13
-3.54508e-13
-3.55471e-13
-3.51713e-13
-3.50948e-13
-3.4888e-13
-3.43792e-13
-3.39204e-13
-3.3412e-13
-3.28571e-13
-3.23814e-13
-3.1706e-13
-3.1062e-13
-2.99634e-13
-2.87364e-13
-2.73282e-13
-2.56271e-13
-2.41766e-13
-2.41539e-13
-2.42566e-13
-2.48656e-13
-2.58422e-13
-2.65071e-13
-2.7177e-13
-2.76493e-13
-2.80299e-13
-2.84099e-13
-2.85541e-13
-2.87619e-13
-2.92332e-13
-2.93838e-13
-2.92813e-13
-2.91374e-13
-2.91618e-13
-2.90384e-13
-2.88844e-13
-2.88002e-13
-2.8464e-13
-2.82167e-13
-2.81089e-13
-2.76119e-13
-2.72872e-13
-2.72076e-13
-2.69615e-13
-2.68554e-13
-2.65511e-13
-2.62093e-13
-2.60632e-13
-2.58305e-13
-2.53302e-13
-2.49671e-13
-2.47476e-13
-2.43326e-13
-2.38989e-13
-2.36614e-13
-2.32982e-13
-2.30367e-13
-2.26991e-13
-2.26625e-13
-2.2674e-13
-2.24908e-13
-2.22551e-13
-2.19959e-13
-2.17973e-13
-2.15746e-13
-2.13595e-13
-2.12767e-13
-2.11425e-13
-2.08888e-13
-2.07281e-13
-2.07151e-13
-2.04116e-13
-2.03284e-13
-2.0186e-13
-2.0275e-13
-2.02854e-13
-2.03908e-13
-2.02119e-13
-2.02584e-13
-2.0359e-13
-2.04848e-13
-2.04588e-13
-2.03929e-13
-2.02492e-13
-2.02055e-13
-2.02415e-13
-2.01913e-13
-2.00683e-13
-1.98289e-13
-1.96625e-13
-1.961e-13
-1.95042e-13
-1.93603e-13
-1.92397e-13
-1.91652e-13
-1.91351e-13
-1.90806e-13
-1.91828e-13
-1.93605e-13
-1.93017e-13
-1.93307e-13
-1.96304e-13
-1.97145e-13
-1.99076e-13
-2.00475e-13
-2.018e-13
-2.03094e-13
-2.02667e-13
-2.01742e-13
-2.03811e-13
-2.05042e-13
-2.04451e-13
-2.04854e-13
-2.05451e-13
-2.05302e-13
-2.05823e-13
-2.03686e-13
-2.02718e-13
-2.01299e-13
-2.00542e-13
-2.01219e-13
-2.01385e-13
-2.03527e-13
-2.05932e-13
-2.07301e-13
-2.06128e-13
-2.08008e-13
-2.08764e-13
-2.07756e-13
-2.06565e-13
-2.059e-13
-2.06747e-13
-2.08461e-13
-2.0956e-13
-2.08493e-13
-2.07967e-13
-2.09719e-13
-2.13388e-13
-2.16411e-13
-2.16263e-13
-2.16708e-13
-2.20571e-13
-2.23077e-13
-2.25466e-13
-2.29474e-13
-2.30982e-13
-2.33534e-13
-2.36498e-13
-2.35146e-13
-2.34823e-13
-2.3756e-13
-2.38141e-13
-2.39355e-13
-2.40294e-13
-2.42006e-13
-2.43609e-13
-2.43209e-13
-2.44251e-13
-2.45713e-13
-2.48036e-13
-2.4945e-13
-2.49633e-13
-2.50138e-13
-2.51438e-13
-2.52911e-13
-2.52378e-13
-2.52244e-13
-2.52528e-13
-2.53875e-13
-2.55338e-13
-2.57621e-13
-2.59063e-13
-2.59847e-13
-2.62693e-13
-2.64044e-13
-2.64781e-13
-2.6535e-13
-2.68007e-13
-2.69662e-13
-2.73121e-13
-2.73295e-13
-2.74896e-13
-2.78021e-13
-2.79073e-13
-2.80135e-13
-2.84274e-13
-2.85901e-13
-2.86691e-13
-2.8894e-13
-2.90143e-13
-2.90905e-13
-2.91188e-13
-2.9078e-13
-2.91554e-13
-2.90973e-13
-2.91694e-13
-2.93415e-13
-2.93581e-13
-2.93514e-13
-2.92384e-13
-2.91755e-13
-2.93712e-13
-2.94674e-13
-2.94665e-13
-2.93231e-13
-2.95517e-13
-2.97009e-13
-2.96664e-13
-2.96346e-13
-2.95717e-13
-2.97542e-13
-3.00123e-13
-3.02345e-13
-3.02748e-13
-3.03975e-13
-3.0799e-13
-3.09618e-13
-3.12023e-13
-3.15701e-13
-3.19407e-13
-3.21358e-13
-3.22313e-13
-3.23188e-13
-3.22902e-13
-3.24518e-13
-3.2459e-13
-3.28377e-13
-3.292e-13
-3.29681e-13
-3.31512e-13
-3.35017e-13
-3.37592e-13
-3.3752e-13
-3.37533e-13
-3.38811e-13
-3.39868e-13
-3.41153e-13
-3.42872e-13
-3.43241e-13
-3.41844e-13
-3.42496e-13
-3.43813e-13
-3.43628e-13
-3.42103e-13
-3.40746e-13
-3.40867e-13
-3.39637e-13
-3.39737e-13
-3.41113e-13
-3.41897e-13
-3.41029e-13
-3.39862e-13
-3.38141e-13
-3.36966e-13
-3.36564e-13
-3.35984e-13
-3.36315e-13
-3.34514e-13
-3.3199e-13
-3.3225e-13
-3.34155e-13
-3.34843e-13
-3.34734e-13
-3.35417e-13
-3.38414e-13
-3.42472e-13
-3.40781e-13
-3.41567e-13
-3.42594e-13
-3.41977e-13
-3.44388e-13
-3.44574e-13
-3.45777e-13
-3.44977e-13
-3.46445e-13
-3.45746e-13
-3.45439e-13
-3.46709e-13
-3.44408e-13
-3.44076e-13
-3.4366e-13
-3.45241e-13
-3.45595e-13
-3.45199e-13
-3.43565e-13
-3.40538e-13
-3.40657e-13
-3.4193e-13
-3.4214e-13
-3.4159e-13
-3.40668e-13
-3.41606e-13
-3.44003e-13
-3.43332e-13
-3.46141e-13
-3.4837e-13
-3.46826e-13
-3.49446e-13
-3.49864e-13
-3.50703e-13
-3.5236e-13
-3.54258e-13
-3.57667e-13
-3.55684e-13
-3.5562e-13
-3.57532e-13
-3.58312e-13
-3.59081e-13
-3.58286e-13
-3.58632e-13
-3.61616e-13
-3.63154e-13
-3.64521e-13
-3.6384e-13
-3.63842e-13
-3.64217e-13
-3.62129e-13
-3.6056e-13
-3.58696e-13
-3.61404e-13
-3.59537e-13
-3.55803e-13
-3.55038e-13
-3.51875e-13
-3.50286e-13
-3.4865e-13
-3.43582e-13
-3.38912e-13
-3.33611e-13
-3.29847e-13
-3.22872e-13
-3.16034e-13
-3.1111e-13
-3.00787e-13
-2.89781e-13
-2.75416e-13
-2.61567e-13
-2.50352e-13
-2.49673e-13
-2.48998e-13
-2.53837e-13
-2.62208e-13
-2.67118e-13
-2.73297e-13
-2.77878e-13
-2.80636e-13
-2.84127e-13
-2.85687e-13
-2.88291e-13
-2.92276e-13
-2.94263e-13
-2.93736e-13
-2.91398e-13
-2.90862e-13
-2.90202e-13
-2.89647e-13
-2.87997e-13
-2.84389e-13
-2.82747e-13
-2.81138e-13
-2.76306e-13
-2.72923e-13
-2.71578e-13
-2.6991e-13
-2.68611e-13
-2.65386e-13
-2.62522e-13
-2.60769e-13
-2.58095e-13
-2.53774e-13
-2.49512e-13
-2.4704e-13
-2.43751e-13
-2.39273e-13
-2.35923e-13
-2.3299e-13
-2.29981e-13
-2.26177e-13
-2.25647e-13
-2.27308e-13
-2.25689e-13
-2.22393e-13
-2.19851e-13
-2.17901e-13
-2.16077e-13
-2.12963e-13
-2.12035e-13
-2.11926e-13
-2.09039e-13
-2.07494e-13
-2.07978e-13
-2.03658e-13
-2.02906e-13
-2.01604e-13
-2.01893e-13
-2.0298e-13
-2.03879e-13
-2.025e-13
-2.03037e-13
-2.03095e-13
-2.0448e-13
-2.04443e-13
-2.03991e-13
-2.03749e-13
-2.02623e-13
-2.02771e-13
-2.02026e-13
-1.99855e-13
-1.97133e-13
-1.96809e-13
-1.96693e-13
-1.94686e-13
-1.93179e-13
-1.9217e-13
-1.92128e-13
-1.91049e-13
-1.9118e-13
-1.91903e-13
-1.92615e-13
-1.93161e-13
-1.92777e-13
-1.96185e-13
-1.96907e-13
-1.99253e-13
-2.01005e-13
-2.02524e-13
-2.0345e-13
-2.02054e-13
-2.02243e-13
-2.04258e-13
-2.05437e-13
-2.04942e-13
-2.05428e-13
-2.05941e-13
-2.04702e-13
-2.05404e-13
-2.04471e-13
-2.02888e-13
-2.00172e-13
-2.00057e-13
-2.01825e-13
-2.02288e-13
-2.03375e-13
-2.04563e-13
-2.07241e-13
-2.06219e-13
-2.09026e-13
-2.08835e-13
-2.07427e-13
-2.06478e-13
-2.05617e-13
-2.06082e-13
-2.08288e-13
-2.10337e-13
-2.09288e-13
-2.07671e-13
-2.08497e-13
-2.13436e-13
-2.16027e-13
-2.15574e-13
-2.172e-13
-2.19642e-13
-2.21818e-13
-2.26118e-13
-2.30563e-13
-2.31178e-13
-2.3381e-13
-2.36213e-13
-2.35579e-13
-2.3583e-13
-2.37672e-13
-2.38669e-13
-2.39768e-13
-2.40917e-13
-2.42106e-13
-2.43457e-13
-2.42245e-13
-2.44855e-13
-2.45677e-13
-2.47493e-13
-2.4922e-13
-2.50192e-13
-2.50696e-13
-2.51452e-13
-2.52734e-13
-2.52126e-13
-2.51677e-13
-2.53372e-13
-2.53822e-13
-2.54606e-13
-2.58149e-13
-2.59834e-13
-2.60125e-13
-2.62415e-13
-2.64073e-13
-2.65052e-13
-2.65582e-13
-2.68303e-13
-2.70125e-13
-2.72676e-13
-2.72612e-13
-2.75449e-13
-2.77687e-13
-2.79741e-13
-2.80363e-13
-2.84156e-13
-2.86156e-13
-2.86819e-13
-2.90656e-13
-2.90755e-13
-2.90447e-13
-2.90786e-13
-2.91292e-13
-2.92142e-13
-2.91264e-13
-2.91073e-13
-2.93319e-13
-2.93932e-13
-2.93257e-13
-2.92857e-13
-2.918e-13
-2.93603e-13
-2.95022e-13
-2.94999e-13
-2.93259e-13
-2.94771e-13
-2.96178e-13
-2.96758e-13
-2.96358e-13
-2.94907e-13
-2.97174e-13
-2.99924e-13
-3.018e-13
-3.02241e-13
-3.04531e-13
-3.0866e-13
-3.09238e-13
-3.11868e-13
-3.16179e-13
-3.19632e-13
-3.21647e-13
-3.22321e-13
-3.23388e-13
-3.23815e-13
-3.24025e-13
-3.24354e-13
-3.28819e-13
-3.29392e-13
-3.30314e-13
-3.31248e-13
-3.34626e-13
-3.38002e-13
-3.37147e-13
-3.38095e-13
-3.39214e-13
-3.39873e-13
-3.41733e-13
-3.42177e-13
-3.42551e-13
-3.41593e-13
-3.41757e-13
-3.43685e-13
-3.45015e-13
-3.4208e-13
-3.40091e-13
-3.40444e-13
-3.39541e-13
-3.40275e-13
-3.40056e-13
-3.41307e-13
-3.41805e-13
-3.39375e-13
-3.37425e-13
-3.37334e-13
-3.36885e-13
-3.3649e-13
-3.35271e-13
-3.34457e-13
-3.33479e-13
-3.30949e-13
-3.32549e-13
-3.34571e-13
-3.3557e-13
-3.35348e-13
-3.37468e-13
-3.41989e-13
-3.40427e-13
-3.41884e-13
-3.42257e-13
-3.42964e-13
-3.46337e-13
-3.45587e-13
-3.45365e-13
-3.44114e-13
-3.46357e-13
-3.45886e-13
-3.45711e-13
-3.47216e-13
-3.45489e-13
-3.42557e-13
-3.43133e-13
-3.45309e-13
-3.46619e-13
-3.44604e-13
-3.42869e-13
-3.41541e-13
-3.40955e-13
-3.40755e-13
-3.41468e-13
-3.41056e-13
-3.4163e-13
-3.4187e-13
-3.43777e-13
-3.43782e-13
-3.4603e-13
-3.48414e-13
-3.46886e-13
-3.48606e-13
-3.49799e-13
-3.50933e-13
-3.52421e-13
-3.53673e-13
-3.57152e-13
-3.55931e-13
-3.55639e-13
-3.58016e-13
-3.56615e-13
-3.58898e-13
-3.58908e-13
-3.58939e-13
-3.60889e-13
-3.63269e-13
-3.64424e-13
-3.65654e-13
-3.63216e-13
-3.6329e-13
-3.62684e-13
-3.60723e-13
-3.6003e-13
-3.59863e-13
-3.59137e-13
-3.57124e-13
-3.54974e-13
-3.52115e-13
-3.49279e-13
-3.47953e-13
-3.44073e-13
-3.38514e-13
-3.34313e-13
-3.29344e-13
-3.22132e-13
-3.15965e-13
-3.11331e-13
-3.02399e-13
-2.91955e-13
-2.78152e-13
-2.66368e-13
-2.58337e-13
-2.55809e-13
-2.54497e-13
-2.58897e-13
-2.65487e-13
-2.69756e-13
-2.7545e-13
-2.78622e-13
-2.81112e-13
-2.84956e-13
-2.86442e-13
-2.88377e-13
-2.9266e-13
-2.94032e-13
-2.93748e-13
-2.91381e-13
-2.90458e-13
-2.89753e-13
-2.89962e-13