/*--------------------------------*- C++ -*----------------------------------*\
| =========                 |                                                 |
| \\      /  F ield         | OpenFOAM: The Open Source CFD Toolbox           |
|  \\    /   O peration     | Version:  2112                                  |
|   \\  /    A nd           | Website:  www.openfoam.com                      |
|    \\/     M anipulation  |                                                 |
\*---------------------------------------------------------------------------*/
FoamFile
{
    version     2.0;
    format      ascii;
    arch        "LSB;label=32;scalar=64";
    class       volScalarField;
    location    "1";
    object      p;
}
// * * * * * * * * * * * * * * * * * * * * * * * * * * * * * * * * * * * * * //

dimensions      [0 2 -2 0 0 0 0];

internalField   nonuniform List<scalar> 
50000
(
-2.84547e-14
-5.98661e-14
-7.3077e-14
-8.08428e-14
-8.65229e-14
-9.0915e-14
-9.44938e-14
-9.76075e-14
-1.00517e-13
-1.03078e-13
-1.05378e-13
-1.07584e-13
-1.09645e-13
-1.11597e-13
-1.13524e-13
-1.15375e-13
-1.1704e-13
-1.18839e-13
-1.20684e-13
-1.22423e-13
-1.2404e-13
-1.25409e-13
-1.26805e-13
-1.28057e-13
-1.29053e-13
-1.30106e-13
-1.31313e-13
-1.32479e-13
-1.33533e-13
-1.34704e-13
-1.35813e-13
-1.36816e-13
-1.37923e-13
-1.39061e-13
-1.39982e-13
-1.40973e-13
-1.41811e-13
-1.42624e-13
-1.43669e-13
-1.44413e-13
-1.45148e-13
-1.45704e-13
-1.46448e-13
-1.47297e-13
-1.48027e-13
-1.48736e-13
-1.49273e-13
-1.49733e-13
-1.50483e-13
-1.51189e-13
-1.51646e-13
-1.51815e-13
-1.52157e-13
-1.52992e-13
-1.53543e-13
-1.53749e-13
-1.54328e-13
-1.54519e-13
-1.54715e-13
-1.55049e-13
-1.55305e-13
-1.55654e-13
-1.561e-13
-1.56467e-13
-1.56581e-13
-1.56677e-13
-1.56547e-13
-1.56527e-13
-1.56687e-13
-1.56724e-13
-1.56895e-13
-1.57474e-13
-1.58067e-13
-1.58181e-13
-1.58548e-13
-1.59348e-13
-1.59461e-13
-1.59271e-13
-1.59609e-13
-1.60077e-13
-1.60267e-13
-1.60578e-13
-1.61168e-13
-1.6153e-13
-1.61754e-13
-1.62482e-13
-1.62835e-13
-1.63188e-13
-1.63699e-13
-1.64009e-13
-1.64381e-13
-1.64773e-13
-1.64924e-13
-1.651e-13
-1.65403e-13
-1.65402e-13
-1.65952e-13
-1.66599e-13
-1.66313e-13
-1.66409e-13
-1.66959e-13
-1.67133e-13
-1.67199e-13
-1.67389e-13
-1.67696e-13
-1.67887e-13
-1.68111e-13
-1.68692e-13
-1.69235e-13
-1.69304e-13
-1.68886e-13
-1.68763e-13
-1.69131e-13
-1.69715e-13
-1.69815e-13
-1.69529e-13
-1.69886e-13
-1.70721e-13
-1.71143e-13
-1.71226e-13
-1.71446e-13
-1.71733e-13
-1.72033e-13
-1.71757e-13
-1.71566e-13
-1.72042e-13
-1.7207e-13
-1.71929e-13
-1.72111e-13
-1.72197e-13
-1.72337e-13
-1.72377e-13
-1.72694e-13
-1.71974e-13
-1.7171e-13
-1.72069e-13
-1.7176e-13
-1.71435e-13
-1.71797e-13
-1.71662e-13
-1.70969e-13
-1.709e-13
-1.71374e-13
-1.71674e-13
-1.71126e-13
-1.71293e-13
-1.7182e-13
-1.71124e-13
-1.71064e-13
-1.71774e-13
-1.71297e-13
-1.71477e-13
-1.71924e-13
-1.70998e-13
-1.71158e-13
-1.71582e-13
-1.71171e-13
-1.71542e-13
-1.71889e-13
-1.72501e-13
-1.72556e-13
-1.72494e-13
-1.72628e-13
-1.72892e-13
-1.72946e-13
-1.73094e-13
-1.73181e-13
-1.72687e-13
-1.7359e-13
-1.73911e-13
-1.73247e-13
-1.74049e-13
-1.74337e-13
-1.73442e-13
-1.73385e-13
-1.73677e-13
-1.74099e-13
-1.73714e-13
-1.73354e-13
-1.73837e-13
-1.73591e-13
-1.73619e-13
-1.7408e-13
-1.74442e-13
-1.75248e-13
-1.74879e-13
-1.74479e-13
-1.74918e-13
-1.74985e-13
-1.74917e-13
-1.74957e-13
-1.75122e-13
-1.75322e-13
-1.75977e-13
-1.75694e-13
-1.75401e-13
-1.75602e-13
-1.74989e-13
-1.74177e-13
-1.74506e-13
-1.7501e-13
-1.74707e-13
-1.75667e-13
-1.75594e-13
-1.75596e-13
-1.75567e-13
-1.74697e-13
-1.74833e-13
-1.75357e-13
-1.7545e-13
-1.7545e-13
-1.751e-13
-1.74738e-13
-1.7519e-13
-1.74466e-13
-1.74607e-13
-1.74476e-13
-1.74632e-13
-1.75298e-13
-1.75202e-13
-1.74501e-13
-1.74062e-13
-1.74367e-13
-1.74216e-13
-1.74672e-13
-1.74944e-13
-1.75299e-13
-1.75807e-13
-1.76082e-13
-1.7579e-13
-1.75523e-13
-1.75208e-13
-1.75877e-13
-1.76157e-13
-1.7589e-13
-1.76531e-13
-1.76467e-13
-1.76274e-13
-1.75645e-13
-1.75767e-13
-1.7578e-13
-1.756e-13
-1.76329e-13
-1.76876e-13
-1.7608e-13
-1.75867e-13
-1.7628e-13
-1.75548e-13
-1.7555e-13
-1.75556e-13
-1.75781e-13
-1.76233e-13
-1.76824e-13
-1.76174e-13
-1.75861e-13
-1.76428e-13
-1.75783e-13
-1.75404e-13
-1.75952e-13
-1.75391e-13
-1.75464e-13
-1.75521e-13
-1.73848e-13
-1.7383e-13
-1.72733e-13
-1.7245e-13
-1.7317e-13
-1.71173e-13
-1.71194e-13
-1.7232e-13
-1.69686e-13
-1.69124e-13
-1.69594e-13
-1.68545e-13
-1.68704e-13
-1.67555e-13
-1.67536e-13
-1.6809e-13
-1.67545e-13
-1.66512e-13
-1.66391e-13
-1.6667e-13
-1.67215e-13
-1.67402e-13
-1.66174e-13
-1.67366e-13
-1.66448e-13
-1.65387e-13
-1.6685e-13
-1.66654e-13
-1.65438e-13
-1.66072e-13
-1.66059e-13
-1.65742e-13
-1.67481e-13
-1.6657e-13
-1.65016e-13
-1.6623e-13
-1.66154e-13
-1.65904e-13
-1.67608e-13
-1.66788e-13
-1.67319e-13
-1.69152e-13
-1.67683e-13
-1.67506e-13
-1.69092e-13
-1.68306e-13
-1.68675e-13
-1.70469e-13
-1.6987e-13
-1.69133e-13
-1.70685e-13
-1.70886e-13
-1.70461e-13
-1.71369e-13
-1.71071e-13
-1.71165e-13
-1.7163e-13
-1.72191e-13
-1.72241e-13
-1.71653e-13
-1.71156e-13
-1.71855e-13
-1.73167e-13
-1.72575e-13
-1.72428e-13
-1.73086e-13
-1.74225e-13
-1.73871e-13
-1.72057e-13
-1.72967e-13
-1.73651e-13
-1.72658e-13
-1.73844e-13
-1.74019e-13
-1.72271e-13
-1.73989e-13
-1.73768e-13
-1.72158e-13
-1.7322e-13
-1.73399e-13
-1.73346e-13
-1.74384e-13
-1.75148e-13
-1.74723e-13
-1.74132e-13
-1.737e-13
-1.74241e-13
-1.75068e-13
-1.74629e-13
-1.74478e-13
-1.75668e-13
-1.76555e-13
-1.75876e-13
-1.75391e-13
-1.75068e-13
-1.75774e-13
-1.77137e-13
-1.76889e-13
-1.77517e-13
-1.76895e-13
-1.77856e-13
-1.79225e-13
-1.77822e-13
-1.78191e-13
-1.78599e-13
-1.78613e-13
-1.7896e-13
-1.80336e-13
-1.79542e-13
-1.7841e-13
-1.78897e-13
-1.79617e-13
-1.80416e-13
-1.80094e-13
-1.8074e-13
-1.80536e-13
-1.82027e-13
-1.81904e-13
-1.80912e-13
-1.81286e-13
-1.82092e-13
-1.82312e-13
-1.82015e-13
-1.83025e-13
-1.81857e-13
-1.82974e-13
-1.83628e-13
-1.83038e-13
-1.83233e-13
-1.8415e-13
-1.83973e-13
-1.83689e-13
-1.85704e-13
-1.85497e-13
-1.83937e-13
-1.83893e-13
-1.84685e-13
-1.85671e-13
-1.86935e-13
-1.87618e-13
-1.85323e-13
-1.85614e-13
-1.86763e-13
-1.88658e-13
-1.88597e-13
-1.86462e-13
-1.88273e-13
-1.90155e-13
-1.90399e-13
-1.88312e-13
-1.89708e-13
-1.90361e-13
-1.89869e-13
-1.90155e-13
-1.89222e-13
-1.90036e-13
-1.90964e-13
-1.89985e-13
-1.87719e-13
-1.88348e-13
-1.90457e-13
-1.8836e-13
-1.87561e-13
-1.88231e-13
-1.88273e-13
-1.87856e-13
-1.87582e-13
-1.86365e-13
-1.86491e-13
-1.88134e-13
-1.8611e-13
-1.84423e-13
-1.8598e-13
-1.87684e-13
-1.84997e-13
-1.8424e-13
-1.83638e-13
-1.82759e-13
-1.84242e-13
-1.81495e-13
-1.80706e-13
-1.8046e-13
-1.80824e-13
-1.79633e-13
-1.7778e-13
-1.77643e-13
-1.76332e-13
-1.76433e-13
-1.74719e-13
-1.73801e-13
-1.72175e-13
-1.72016e-13
-1.70445e-13
-1.68661e-13
-1.68385e-13
-1.66854e-13
-1.65303e-13
-1.62098e-13
-1.63406e-13
-1.62405e-13
-1.60788e-13
-1.58787e-13
-1.55175e-13
-1.55835e-13
-1.55313e-13
-1.52952e-13
-1.50768e-13
-1.50462e-13
-1.48726e-13
-1.4742e-13
-1.45936e-13
-1.43631e-13
-1.4318e-13
-1.41177e-13
-1.3917e-13
-1.35722e-13
-1.34811e-13
-1.33715e-13
-1.31269e-13
-1.28296e-13
-1.25729e-13
-1.24795e-13
-1.2075e-13
-1.19035e-13
-1.16531e-13
-1.14083e-13
-1.12756e-13
-1.08103e-13
-1.04559e-13
-1.03223e-13
-1.00703e-13
-9.57163e-14
-9.26935e-14
-8.86568e-14
-8.46211e-14
-7.96991e-14
-7.1316e-14
-5.95322e-14
-4.91679e-14
-6.35965e-14
-7.40993e-14
-8.12975e-14
-8.68024e-14
-9.10866e-14
-9.46127e-14
-9.76818e-14
-1.00604e-13
-1.03121e-13
-1.05407e-13
-1.0765e-13
-1.09688e-13
-1.11613e-13
-1.13544e-13
-1.15427e-13
-1.17083e-13
-1.18844e-13
-1.20704e-13
-1.22402e-13
-1.24068e-13
-1.2544e-13
-1.26817e-13
-1.28083e-13
-1.29041e-13
-1.30076e-13
-1.31333e-13
-1.32469e-13
-1.33608e-13
-1.34691e-13
-1.35771e-13
-1.36876e-13
-1.37953e-13
-1.38991e-13
-1.40034e-13
-1.4104e-13
-1.418e-13
-1.42626e-13
-1.43726e-13
-1.44457e-13
-1.45081e-13
-1.45756e-13
-1.46382e-13
-1.47228e-13
-1.48122e-13
-1.48731e-13
-1.49252e-13
-1.49782e-13
-1.50521e-13
-1.51149e-13
-1.51659e-13
-1.51742e-13
-1.52189e-13
-1.53087e-13
-1.5348e-13
-1.53738e-13
-1.5432e-13
-1.54576e-13
-1.54807e-13
-1.54991e-13
-1.55231e-13
-1.55681e-13
-1.56102e-13
-1.56401e-13
-1.56703e-13
-1.56649e-13
-1.56534e-13
-1.56511e-13
-1.56582e-13
-1.56806e-13
-1.56965e-13
-1.57425e-13
-1.57955e-13
-1.58223e-13
-1.58603e-13
-1.59207e-13
-1.59479e-13
-1.59442e-13
-1.59593e-13
-1.59991e-13
-1.60253e-13
-1.60563e-13
-1.61075e-13
-1.61568e-13
-1.61938e-13
-1.62333e-13
-1.62705e-13
-1.63332e-13
-1.63692e-13
-1.64024e-13
-1.6443e-13
-1.6471e-13
-1.64926e-13
-1.65121e-13
-1.65383e-13
-1.65574e-13
-1.65867e-13
-1.665e-13
-1.66393e-13
-1.66432e-13
-1.66942e-13
-1.67062e-13
-1.6722e-13
-1.67399e-13
-1.67583e-13
-1.68051e-13
-1.68164e-13
-1.68566e-13
-1.69236e-13
-1.69161e-13
-1.68956e-13
-1.68991e-13
-1.69077e-13
-1.69567e-13
-1.69741e-13
-1.69572e-13
-1.70067e-13
-1.70745e-13
-1.70994e-13
-1.71222e-13
-1.71437e-13
-1.7172e-13
-1.71916e-13
-1.7179e-13
-1.71817e-13
-1.71923e-13
-1.71947e-13
-1.72041e-13
-1.72093e-13
-1.72187e-13
-1.72473e-13
-1.72375e-13
-1.72475e-13
-1.72082e-13
-1.71848e-13
-1.71996e-13
-1.71654e-13
-1.71519e-13
-1.71734e-13
-1.71643e-13
-1.71183e-13
-1.70985e-13
-1.71371e-13
-1.71531e-13
-1.71087e-13
-1.71265e-13
-1.71727e-13
-1.712e-13
-1.71162e-13
-1.71543e-13
-1.71424e-13
-1.71604e-13
-1.71667e-13
-1.71147e-13
-1.71204e-13
-1.71485e-13
-1.71384e-13
-1.71574e-13
-1.71722e-13
-1.72353e-13
-1.72573e-13
-1.72593e-13
-1.72697e-13
-1.7286e-13
-1.7294e-13
-1.73115e-13
-1.73138e-13
-1.72985e-13
-1.73361e-13
-1.73755e-13
-1.73641e-13
-1.73771e-13
-1.74102e-13
-1.73845e-13
-1.73361e-13
-1.73561e-13
-1.74085e-13
-1.73636e-13
-1.73416e-13
-1.73822e-13
-1.73688e-13
-1.73661e-13
-1.74041e-13
-1.7444e-13
-1.74988e-13
-1.74855e-13
-1.74675e-13
-1.74796e-13
-1.75025e-13
-1.74931e-13
-1.75033e-13
-1.75263e-13
-1.75489e-13
-1.75877e-13
-1.75428e-13
-1.75491e-13
-1.75585e-13
-1.74767e-13
-1.74431e-13
-1.74783e-13
-1.7485e-13
-1.74763e-13
-1.75493e-13
-1.75426e-13
-1.75585e-13
-1.75728e-13
-1.74771e-13
-1.74719e-13
-1.75251e-13
-1.75557e-13
-1.75354e-13
-1.75221e-13
-1.74949e-13
-1.74896e-13
-1.74541e-13
-1.74768e-13
-1.74355e-13
-1.7458e-13
-1.75299e-13
-1.7495e-13
-1.74481e-13
-1.74307e-13
-1.74556e-13
-1.74341e-13
-1.7458e-13
-1.74876e-13
-1.75159e-13
-1.75629e-13
-1.76038e-13
-1.75712e-13
-1.75735e-13
-1.75578e-13
-1.75748e-13
-1.7616e-13
-1.76072e-13
-1.76303e-13
-1.76401e-13
-1.76034e-13
-1.7585e-13
-1.75801e-13
-1.75848e-13
-1.75795e-13
-1.76089e-13
-1.76632e-13
-1.76278e-13
-1.75858e-13
-1.76059e-13
-1.75758e-13
-1.75631e-13
-1.75842e-13
-1.75789e-13
-1.76058e-13
-1.76465e-13
-1.76278e-13
-1.75993e-13
-1.76229e-13
-1.75985e-13
-1.75656e-13
-1.75771e-13
-1.75343e-13
-1.75403e-13
-1.75336e-13
-1.74227e-13
-1.73687e-13
-1.72708e-13
-1.72415e-13
-1.73009e-13
-1.71658e-13
-1.71159e-13
-1.71652e-13
-1.70102e-13
-1.69415e-13
-1.69493e-13
-1.68698e-13
-1.68283e-13
-1.67999e-13
-1.67504e-13
-1.67531e-13
-1.67363e-13
-1.66876e-13
-1.66559e-13
-1.66558e-13
-1.67217e-13
-1.67405e-13
-1.66263e-13
-1.66939e-13
-1.66681e-13
-1.65589e-13
-1.66636e-13
-1.6643e-13
-1.65612e-13
-1.66112e-13
-1.66135e-13
-1.65867e-13
-1.6694e-13
-1.6633e-13
-1.65691e-13
-1.66236e-13
-1.66077e-13
-1.66131e-13
-1.67069e-13
-1.67202e-13
-1.67257e-13
-1.68465e-13
-1.68095e-13
-1.67725e-13
-1.68639e-13
-1.68655e-13
-1.68995e-13
-1.69902e-13
-1.69871e-13
-1.69587e-13
-1.70497e-13
-1.70916e-13
-1.70663e-13
-1.70981e-13
-1.7129e-13
-1.7144e-13
-1.71389e-13
-1.71873e-13
-1.72162e-13
-1.71713e-13
-1.7159e-13
-1.72197e-13
-1.72621e-13
-1.72617e-13
-1.72709e-13
-1.73082e-13
-1.73643e-13
-1.73624e-13
-1.72704e-13
-1.72932e-13
-1.73384e-13
-1.73202e-13
-1.73449e-13
-1.73619e-13
-1.73109e-13
-1.73393e-13
-1.73464e-13
-1.72934e-13
-1.73038e-13
-1.73049e-13
-1.7388e-13
-1.7418e-13
-1.74398e-13
-1.74843e-13
-1.74306e-13
-1.73949e-13
-1.7465e-13
-1.74847e-13
-1.7431e-13
-1.7504e-13
-1.75527e-13
-1.75786e-13
-1.75965e-13
-1.75617e-13
-1.75413e-13
-1.7605e-13
-1.76693e-13
-1.76908e-13
-1.77624e-13
-1.77008e-13
-1.77751e-13
-1.78827e-13
-1.7827e-13
-1.78264e-13
-1.78544e-13
-1.7872e-13
-1.78959e-13
-1.79778e-13
-1.79221e-13
-1.78775e-13
-1.79371e-13
-1.79768e-13
-1.79959e-13
-1.8009e-13
-1.80727e-13
-1.80835e-13
-1.81791e-13
-1.81495e-13
-1.81091e-13
-1.81652e-13
-1.8214e-13
-1.82193e-13
-1.81987e-13
-1.83115e-13
-1.82248e-13
-1.82279e-13
-1.83621e-13
-1.83585e-13
-1.82973e-13
-1.83864e-13
-1.84305e-13
-1.83979e-13
-1.854e-13
-1.84915e-13
-1.83938e-13
-1.84674e-13
-1.8506e-13
-1.85471e-13
-1.86501e-13
-1.87125e-13
-1.85791e-13
-1.8616e-13
-1.86444e-13
-1.87873e-13
-1.88843e-13
-1.87133e-13
-1.87889e-13
-1.89816e-13
-1.9052e-13
-1.88741e-13
-1.89688e-13
-1.90129e-13
-1.898e-13
-1.89947e-13
-1.89525e-13
-1.9028e-13
-1.90468e-13
-1.89775e-13
-1.88488e-13
-1.88556e-13
-1.89613e-13
-1.88754e-13
-1.88028e-13
-1.87852e-13
-1.88255e-13
-1.87809e-13
-1.87375e-13
-1.86675e-13
-1.86624e-13
-1.87531e-13
-1.86582e-13
-1.84901e-13
-1.85506e-13
-1.87209e-13
-1.85387e-13
-1.84298e-13
-1.83739e-13
-1.8317e-13
-1.83417e-13
-1.81826e-13
-1.80798e-13
-1.80688e-13
-1.80649e-13
-1.79411e-13
-1.78167e-13
-1.7756e-13
-1.76569e-13
-1.76196e-13
-1.74559e-13
-1.73443e-13
-1.72837e-13
-1.71876e-13
-1.70238e-13
-1.69025e-13
-1.68194e-13
-1.66611e-13
-1.65366e-13
-1.62702e-13
-1.6287e-13
-1.62761e-13
-1.6053e-13
-1.58147e-13
-1.56347e-13
-1.55926e-13
-1.54307e-13
-1.52877e-13
-1.51705e-13
-1.5016e-13
-1.48703e-13
-1.47411e-13
-1.45979e-13
-1.44056e-13
-1.42736e-13
-1.41081e-13
-1.38712e-13
-1.36243e-13
-1.35388e-13
-1.33219e-13
-1.3071e-13
-1.28843e-13
-1.26188e-13
-1.23944e-13
-1.21106e-13
-1.19121e-13
-1.16591e-13
-1.14486e-13
-1.11887e-13
-1.08099e-13
-1.05628e-13
-1.03336e-13
-9.98357e-14
-9.61133e-14
-9.29024e-14
-8.88255e-14
-8.47701e-14
-7.9694e-14
-7.27729e-14
-6.3454e-14
-6.03314e-14
-6.78468e-14
-7.58094e-14
-8.22002e-14
-8.73472e-14
-9.14552e-14
-9.49049e-14
-9.78873e-14
-1.00756e-13
-1.03262e-13
-1.05544e-13
-1.07708e-13
-1.09792e-13
-1.11732e-13
-1.13574e-13
-1.15418e-13
-1.1711e-13
-1.18948e-13
-1.20755e-13
-1.22427e-13
-1.24136e-13
-1.25493e-13
-1.26789e-13
-1.28109e-13
-1.29073e-13
-1.30076e-13
-1.31361e-13
-1.32442e-13
-1.33638e-13
-1.34728e-13
-1.35825e-13
-1.36866e-13
-1.37903e-13
-1.39022e-13
-1.40125e-13
-1.41079e-13
-1.41807e-13
-1.4265e-13
-1.43751e-13
-1.44505e-13
-1.4506e-13
-1.45779e-13
-1.46348e-13
-1.47259e-13
-1.4815e-13
-1.4875e-13
-1.49247e-13
-1.49783e-13
-1.50581e-13
-1.51032e-13
-1.51722e-13
-1.51756e-13
-1.52205e-13
-1.53119e-13
-1.53463e-13
-1.53798e-13
-1.54294e-13
-1.54652e-13
-1.54879e-13
-1.54977e-13
-1.55174e-13
-1.55705e-13
-1.5611e-13
-1.56357e-13
-1.56674e-13
-1.56678e-13
-1.56603e-13
-1.56472e-13
-1.56528e-13
-1.56776e-13
-1.56978e-13
-1.57371e-13
-1.57924e-13
-1.58279e-13
-1.5863e-13
-1.59153e-13
-1.59441e-13
-1.59584e-13
-1.59536e-13
-1.59931e-13
-1.60236e-13
-1.60502e-13
-1.61062e-13
-1.61595e-13
-1.61969e-13
-1.62304e-13
-1.62726e-13
-1.63303e-13
-1.6364e-13
-1.64094e-13
-1.64547e-13
-1.64663e-13
-1.64909e-13
-1.65067e-13
-1.65353e-13
-1.65669e-13
-1.65861e-13
-1.66425e-13
-1.6641e-13
-1.66507e-13
-1.66915e-13
-1.67058e-13
-1.67272e-13
-1.67361e-13
-1.67569e-13
-1.68062e-13
-1.68142e-13
-1.68576e-13
-1.69218e-13
-1.69087e-13
-1.69031e-13
-1.69093e-13
-1.69123e-13
-1.69326e-13
-1.69704e-13
-1.69756e-13
-1.70087e-13
-1.70669e-13
-1.70959e-13
-1.71206e-13
-1.71481e-13
-1.71731e-13
-1.71828e-13
-1.71851e-13
-1.7191e-13
-1.71833e-13
-1.7193e-13
-1.72111e-13
-1.7203e-13
-1.72179e-13
-1.72486e-13
-1.7246e-13
-1.72392e-13
-1.72222e-13
-1.71912e-13
-1.71936e-13
-1.71604e-13
-1.71603e-13
-1.71729e-13
-1.71485e-13
-1.714e-13
-1.7109e-13
-1.713e-13
-1.71381e-13
-1.71014e-13
-1.71368e-13
-1.71637e-13
-1.71216e-13
-1.71221e-13
-1.71392e-13
-1.71472e-13
-1.71662e-13
-1.71508e-13
-1.71244e-13
-1.71286e-13
-1.71412e-13
-1.71402e-13
-1.71562e-13
-1.71656e-13
-1.72286e-13
-1.72641e-13
-1.7266e-13
-1.7261e-13
-1.72806e-13
-1.7301e-13
-1.73127e-13
-1.73127e-13
-1.73151e-13
-1.73299e-13
-1.73657e-13
-1.73776e-13
-1.73823e-13
-1.73942e-13
-1.73861e-13
-1.73483e-13
-1.73543e-13
-1.73892e-13
-1.7364e-13
-1.73463e-13
-1.73735e-13
-1.73765e-13
-1.73706e-13
-1.7414e-13
-1.74446e-13
-1.74716e-13
-1.74765e-13
-1.74899e-13
-1.74756e-13
-1.74961e-13
-1.75025e-13
-1.751e-13
-1.75427e-13
-1.75624e-13
-1.75695e-13
-1.7536e-13
-1.75427e-13
-1.75396e-13
-1.74886e-13
-1.74615e-13
-1.74885e-13
-1.74818e-13
-1.74801e-13
-1.75298e-13
-1.75353e-13
-1.7564e-13
-1.75658e-13
-1.7496e-13
-1.74784e-13
-1.75132e-13
-1.75541e-13
-1.7539e-13
-1.75137e-13
-1.75051e-13
-1.74873e-13
-1.74564e-13
-1.7477e-13
-1.74407e-13
-1.74562e-13
-1.75127e-13
-1.74772e-13
-1.74585e-13
-1.74547e-13
-1.74493e-13
-1.74488e-13
-1.74514e-13
-1.74707e-13
-1.7518e-13
-1.75349e-13
-1.75908e-13
-1.75869e-13
-1.75909e-13
-1.75765e-13
-1.75867e-13
-1.76016e-13
-1.76166e-13
-1.76226e-13
-1.76278e-13
-1.75998e-13
-1.75872e-13
-1.75696e-13
-1.76012e-13
-1.76033e-13
-1.75949e-13
-1.7652e-13
-1.76198e-13
-1.76022e-13
-1.75928e-13
-1.7569e-13
-1.75816e-13
-1.76003e-13
-1.75742e-13
-1.76e-13
-1.76209e-13
-1.76389e-13
-1.76332e-13
-1.75992e-13
-1.7595e-13
-1.75842e-13
-1.75733e-13
-1.75255e-13
-1.75436e-13
-1.75272e-13
-1.74311e-13
-1.73623e-13
-1.72873e-13
-1.72473e-13
-1.72745e-13
-1.72075e-13
-1.71152e-13
-1.71057e-13
-1.70256e-13
-1.69724e-13
-1.69666e-13
-1.6872e-13
-1.67901e-13
-1.68416e-13
-1.67587e-13
-1.66856e-13
-1.67229e-13
-1.67039e-13
-1.66729e-13
-1.66616e-13
-1.67262e-13
-1.6731e-13
-1.66321e-13
-1.66744e-13
-1.66722e-13
-1.65671e-13
-1.66438e-13
-1.66398e-13
-1.65693e-13
-1.66006e-13
-1.66418e-13
-1.65953e-13
-1.66426e-13
-1.66244e-13
-1.66016e-13
-1.66281e-13
-1.66184e-13
-1.66086e-13
-1.66785e-13
-1.67606e-13
-1.6715e-13
-1.67895e-13
-1.68262e-13
-1.67898e-13
-1.68542e-13
-1.68939e-13
-1.69065e-13
-1.69521e-13
-1.69929e-13
-1.6989e-13
-1.70282e-13
-1.70875e-13
-1.70913e-13
-1.70923e-13
-1.71208e-13
-1.71523e-13
-1.71512e-13
-1.71601e-13
-1.72044e-13
-1.71803e-13
-1.71931e-13
-1.7225e-13
-1.72458e-13
-1.72452e-13
-1.72853e-13
-1.73252e-13
-1.73343e-13
-1.73534e-13
-1.7294e-13
-1.72921e-13
-1.73339e-13
-1.73373e-13
-1.73185e-13
-1.73679e-13
-1.7334e-13
-1.72971e-13
-1.73403e-13
-1.73117e-13
-1.73018e-13
-1.73129e-13
-1.73849e-13
-1.74213e-13
-1.74169e-13
-1.74513e-13
-1.74441e-13
-1.74305e-13
-1.74641e-13
-1.74719e-13
-1.7441e-13
-1.75054e-13
-1.75533e-13
-1.75566e-13
-1.75771e-13
-1.75803e-13
-1.75787e-13
-1.76213e-13
-1.76242e-13
-1.76836e-13
-1.77782e-13
-1.77226e-13
-1.77621e-13
-1.78466e-13
-1.78431e-13
-1.78488e-13
-1.78704e-13
-1.78629e-13
-1.78958e-13
-1.79294e-13
-1.78926e-13
-1.79141e-13
-1.79577e-13
-1.79818e-13
-1.79932e-13
-1.80022e-13
-1.80529e-13
-1.81239e-13
-1.81434e-13
-1.81155e-13
-1.8141e-13
-1.81931e-13
-1.82003e-13
-1.82091e-13
-1.82165e-13
-1.829e-13
-1.82532e-13
-1.8216e-13
-1.834e-13
-1.83794e-13
-1.83025e-13
-1.83507e-13
-1.84447e-13
-1.84485e-13
-1.84896e-13
-1.8465e-13
-1.8418e-13
-1.8486e-13
-1.8538e-13
-1.85619e-13
-1.85912e-13
-1.86583e-13
-1.86264e-13
-1.86459e-13
-1.86505e-13
-1.87411e-13
-1.88408e-13
-1.87818e-13
-1.88119e-13
-1.8923e-13
-1.90447e-13
-1.89373e-13
-1.89368e-13
-1.89911e-13
-1.89959e-13
-1.89895e-13
-1.8984e-13
-1.90361e-13
-1.90026e-13
-1.89638e-13
-1.89073e-13
-1.88831e-13
-1.89178e-13
-1.88879e-13
-1.88005e-13
-1.87876e-13
-1.88564e-13
-1.87516e-13
-1.87257e-13
-1.87017e-13
-1.86538e-13
-1.87117e-13
-1.86864e-13
-1.85407e-13
-1.85402e-13
-1.86643e-13
-1.85409e-13
-1.84306e-13
-1.83999e-13
-1.83551e-13
-1.82827e-13
-1.82065e-13
-1.81034e-13
-1.80737e-13
-1.80508e-13
-1.79184e-13
-1.78294e-13
-1.77705e-13
-1.76959e-13
-1.75695e-13
-1.74411e-13
-1.73616e-13
-1.73144e-13
-1.71758e-13
-1.70158e-13
-1.68965e-13
-1.68045e-13
-1.66764e-13
-1.65177e-13
-1.63312e-13
-1.62839e-13
-1.62646e-13
-1.60138e-13
-1.57937e-13
-1.57115e-13
-1.55988e-13
-1.53909e-13
-1.52601e-13
-1.51964e-13
-1.50244e-13
-1.48925e-13
-1.47201e-13
-1.45917e-13
-1.44421e-13
-1.42606e-13
-1.41056e-13
-1.38581e-13
-1.3655e-13
-1.35546e-13
-1.32947e-13
-1.30172e-13
-1.29269e-13
-1.26811e-13
-1.23466e-13
-1.21144e-13
-1.19309e-13
-1.16891e-13
-1.14543e-13
-1.11334e-13
-1.08179e-13
-1.06275e-13
-1.03617e-13
-9.97112e-14
-9.61357e-14
-9.30195e-14
-8.95753e-14
-8.50752e-14
-8.02435e-14
-7.49224e-14
-6.77732e-14
-6.76947e-14
-7.20285e-14
-7.79337e-14
-8.34533e-14
-8.81225e-14
-9.20218e-14
-9.53607e-14
-9.82614e-14
-1.00978e-13
-1.03428e-13
-1.05656e-13
-1.07769e-13
-1.0995e-13
-1.11918e-13
-1.13587e-13
-1.15384e-13
-1.17166e-13
-1.191e-13
-1.20842e-13
-1.2257e-13
-1.24166e-13
-1.25488e-13
-1.26773e-13
-1.28149e-13
-1.2916e-13
-1.30119e-13
-1.3139e-13
-1.32401e-13
-1.33533e-13
-1.34749e-13
-1.35865e-13
-1.36877e-13
-1.37887e-13
-1.39219e-13
-1.4006e-13
-1.40983e-13
-1.41918e-13
-1.42742e-13
-1.43872e-13
-1.44529e-13
-1.45007e-13
-1.45767e-13
-1.46281e-13
-1.47355e-13
-1.48248e-13
-1.48692e-13
-1.49164e-13
-1.49789e-13
-1.5075e-13
-1.50955e-13
-1.51725e-13
-1.51744e-13
-1.52255e-13
-1.53132e-13
-1.53516e-13
-1.53885e-13
-1.54243e-13
-1.5476e-13
-1.54945e-13
-1.55017e-13
-1.55114e-13
-1.55624e-13
-1.56111e-13
-1.56419e-13
-1.56615e-13
-1.56737e-13
-1.56602e-13
-1.56486e-13
-1.56471e-13
-1.56687e-13
-1.56968e-13
-1.57314e-13
-1.57874e-13
-1.58368e-13
-1.58658e-13
-1.5912e-13
-1.59469e-13
-1.5967e-13
-1.59472e-13
-1.5983e-13
-1.60147e-13
-1.60533e-13
-1.61108e-13
-1.61557e-13
-1.61905e-13
-1.62423e-13
-1.62709e-13
-1.63182e-13
-1.63699e-13
-1.64232e-13
-1.64653e-13
-1.64586e-13
-1.64934e-13
-1.64939e-13
-1.6536e-13
-1.65772e-13
-1.65817e-13
-1.66306e-13
-1.66455e-13
-1.66641e-13
-1.66758e-13
-1.67054e-13
-1.67358e-13
-1.67433e-13
-1.67631e-13
-1.68008e-13
-1.68166e-13
-1.68612e-13
-1.69172e-13
-1.69066e-13
-1.69049e-13
-1.69089e-13
-1.69165e-13
-1.69209e-13
-1.69645e-13
-1.69927e-13
-1.70109e-13
-1.70456e-13
-1.70866e-13
-1.71416e-13
-1.71644e-13
-1.71751e-13
-1.71798e-13
-1.71876e-13
-1.71908e-13
-1.71881e-13
-1.71933e-13
-1.72073e-13
-1.71921e-13
-1.72232e-13
-1.72466e-13
-1.72563e-13
-1.72436e-13
-1.72318e-13
-1.71952e-13
-1.71901e-13
-1.71657e-13
-1.71623e-13
-1.71616e-13
-1.71366e-13
-1.71405e-13
-1.71274e-13
-1.71124e-13
-1.71225e-13
-1.7115e-13
-1.71489e-13
-1.71479e-13
-1.71271e-13
-1.713e-13
-1.71323e-13
-1.71451e-13
-1.71566e-13
-1.71439e-13
-1.713e-13
-1.71307e-13
-1.71345e-13
-1.71378e-13
-1.71586e-13
-1.71637e-13
-1.722e-13
-1.72775e-13
-1.72755e-13
-1.7252e-13
-1.72883e-13
-1.72917e-13
-1.73176e-13
-1.7324e-13
-1.732e-13
-1.73239e-13
-1.73625e-13
-1.73733e-13
-1.74082e-13
-1.73994e-13
-1.73648e-13
-1.73646e-13
-1.73545e-13
-1.73689e-13
-1.73749e-13
-1.73483e-13
-1.73522e-13
-1.73819e-13
-1.73646e-13
-1.7424e-13
-1.74586e-13
-1.74577e-13
-1.74637e-13
-1.74901e-13
-1.74759e-13
-1.74989e-13
-1.75127e-13
-1.75251e-13
-1.75561e-13
-1.75677e-13
-1.75552e-13
-1.7538e-13
-1.75341e-13
-1.75211e-13
-1.7516e-13
-1.74722e-13
-1.74678e-13
-1.74929e-13
-1.74969e-13
-1.752e-13
-1.75304e-13
-1.75547e-13
-1.75451e-13
-1.75251e-13
-1.75048e-13
-1.74998e-13
-1.75446e-13
-1.75459e-13
-1.74969e-13
-1.75015e-13
-1.74873e-13
-1.74722e-13
-1.74827e-13
-1.74567e-13
-1.74416e-13
-1.74779e-13
-1.74675e-13
-1.74809e-13
-1.74716e-13
-1.74415e-13
-1.74492e-13
-1.74378e-13
-1.74807e-13
-1.75106e-13
-1.75045e-13
-1.75743e-13
-1.76194e-13
-1.75906e-13
-1.757e-13
-1.76088e-13
-1.76009e-13
-1.76247e-13
-1.7612e-13
-1.76158e-13
-1.76106e-13
-1.75821e-13
-1.75548e-13
-1.76246e-13
-1.7614e-13
-1.75986e-13
-1.76423e-13
-1.76187e-13
-1.76157e-13
-1.7588e-13
-1.75667e-13
-1.75829e-13
-1.75881e-13
-1.75732e-13
-1.76086e-13
-1.76143e-13
-1.76488e-13
-1.76574e-13
-1.75972e-13
-1.75761e-13
-1.75947e-13
-1.75855e-13
-1.75361e-13
-1.75292e-13
-1.75074e-13
-1.74352e-13
-1.7364e-13
-1.73153e-13
-1.72708e-13
-1.72414e-13
-1.72024e-13
-1.71324e-13
-1.70804e-13
-1.70313e-13
-1.70041e-13
-1.69542e-13
-1.68697e-13
-1.67947e-13
-1.68347e-13
-1.67547e-13
-1.66755e-13
-1.67153e-13
-1.66818e-13
-1.66826e-13
-1.66962e-13
-1.67159e-13
-1.67176e-13
-1.66609e-13
-1.66644e-13
-1.66462e-13
-1.65833e-13
-1.66115e-13
-1.66399e-13
-1.66043e-13
-1.65887e-13
-1.66394e-13
-1.65974e-13
-1.66079e-13
-1.6647e-13
-1.66083e-13
-1.66076e-13
-1.66416e-13
-1.6605e-13
-1.66568e-13
-1.6756e-13
-1.67173e-13
-1.67514e-13
-1.68338e-13
-1.68162e-13
-1.68428e-13
-1.69126e-13
-1.69079e-13
-1.694e-13
-1.7001e-13
-1.70003e-13
-1.70133e-13
-1.70928e-13
-1.70987e-13
-1.71052e-13
-1.71293e-13
-1.71449e-13
-1.71562e-13
-1.71484e-13
-1.71909e-13
-1.72009e-13
-1.71976e-13
-1.72134e-13
-1.72536e-13
-1.72534e-13
-1.72791e-13
-1.73307e-13
-1.73243e-13
-1.73537e-13
-1.73082e-13
-1.72845e-13
-1.73238e-13
-1.73405e-13
-1.73242e-13
-1.73752e-13
-1.73207e-13
-1.72848e-13
-1.7341e-13
-1.72756e-13
-1.73096e-13
-1.73513e-13
-1.7354e-13
-1.74362e-13
-1.74251e-13
-1.7425e-13
-1.74519e-13
-1.7442e-13
-1.74431e-13
-1.74759e-13
-1.74733e-13
-1.74641e-13
-1.75509e-13
-1.75827e-13
-1.75686e-13
-1.75934e-13
-1.75908e-13
-1.76062e-13
-1.76204e-13
-1.76881e-13
-1.77602e-13
-1.77403e-13
-1.77719e-13
-1.78127e-13
-1.78395e-13
-1.78672e-13
-1.78959e-13
-1.78499e-13
-1.78935e-13
-1.7919e-13
-1.78808e-13
-1.79343e-13
-1.79469e-13
-1.79678e-13
-1.80094e-13
-1.80133e-13
-1.80326e-13
-1.81193e-13
-1.81085e-13
-1.81179e-13
-1.81837e-13
-1.8195e-13
-1.81686e-13
-1.82116e-13
-1.82552e-13
-1.82439e-13
-1.82543e-13
-1.82638e-13
-1.83107e-13
-1.83452e-13
-1.83416e-13
-1.83686e-13
-1.84118e-13
-1.84565e-13
-1.84632e-13
-1.84715e-13
-1.84837e-13
-1.84699e-13
-1.85158e-13
-1.85759e-13
-1.85693e-13
-1.86101e-13
-1.86524e-13
-1.86612e-13
-1.86841e-13
-1.87252e-13
-1.8783e-13
-1.88349e-13
-1.8858e-13
-1.88717e-13
-1.8984e-13
-1.90012e-13
-1.89244e-13
-1.89883e-13
-1.90122e-13
-1.90084e-13
-1.90042e-13
-1.90112e-13
-1.89871e-13
-1.89549e-13
-1.89513e-13
-1.89025e-13
-1.88915e-13
-1.88769e-13
-1.88067e-13
-1.88088e-13
-1.88602e-13
-1.87366e-13
-1.87194e-13
-1.87333e-13
-1.86658e-13
-1.86618e-13
-1.86864e-13
-1.86199e-13
-1.85445e-13
-1.85702e-13
-1.85201e-13
-1.84483e-13
-1.8433e-13
-1.83676e-13
-1.82661e-13
-1.8244e-13
-1.81499e-13
-1.80666e-13
-1.80078e-13
-1.7915e-13
-1.78578e-13
-1.77565e-13
-1.76851e-13
-1.75569e-13
-1.74896e-13
-1.74067e-13
-1.72943e-13
-1.71419e-13
-1.70209e-13
-1.69125e-13
-1.67701e-13
-1.6667e-13
-1.65196e-13
-1.64088e-13
-1.62915e-13
-1.61934e-13
-1.59938e-13
-1.58366e-13
-1.57383e-13
-1.55541e-13
-1.54018e-13
-1.52826e-13
-1.51793e-13
-1.50305e-13
-1.49114e-13
-1.47075e-13
-1.45842e-13
-1.44504e-13
-1.42514e-13
-1.41149e-13
-1.39276e-13
-1.3672e-13
-1.34798e-13
-1.32873e-13
-1.30358e-13
-1.29239e-13
-1.27001e-13
-1.23509e-13
-1.2147e-13
-1.1961e-13
-1.16815e-13
-1.14127e-13
-1.11367e-13
-1.08658e-13
-1.06464e-13
-1.03522e-13
-1.00158e-13
-9.64675e-14
-9.33723e-14
-9.03675e-14
-8.5545e-14
-8.13089e-14
-7.72127e-14
-7.20435e-14
-7.32533e-14
-7.57959e-14
-8.02783e-14
-8.49787e-14
-8.9128e-14
-9.27659e-14
-9.57839e-14
-9.86534e-14
-1.01349e-13
-1.03664e-13
-1.0588e-13
-1.07786e-13
-1.10082e-13
-1.12059e-13
-1.13732e-13
-1.15415e-13
-1.17283e-13
-1.19292e-13
-1.20955e-13
-1.22548e-13
-1.24263e-13
-1.25576e-13
-1.2683e-13
-1.28242e-13
-1.29275e-13
-1.3012e-13
-1.3135e-13
-1.32363e-13
-1.33447e-13
-1.34739e-13
-1.35866e-13
-1.36961e-13
-1.38023e-13
-1.39302e-13
-1.40059e-13
-1.40998e-13
-1.41988e-13
-1.4288e-13
-1.43854e-13
-1.44529e-13
-1.45057e-13
-1.45788e-13
-1.46233e-13
-1.47458e-13
-1.4828e-13
-1.4866e-13
-1.49098e-13
-1.49837e-13
-1.50858e-13
-1.50968e-13
-1.51654e-13
-1.51801e-13
-1.52167e-13
-1.53083e-13
-1.53645e-13
-1.54014e-13
-1.54236e-13
-1.54715e-13
-1.54935e-13
-1.55193e-13
-1.5513e-13
-1.55469e-13
-1.56087e-13
-1.56504e-13
-1.56559e-13
-1.56603e-13
-1.56725e-13
-1.56492e-13
-1.56371e-13
-1.56582e-13
-1.56852e-13
-1.57418e-13
-1.57749e-13
-1.58368e-13
-1.58861e-13
-1.59062e-13
-1.59505e-13
-1.59636e-13
-1.59435e-13
-1.59706e-13
-1.60133e-13
-1.6068e-13
-1.61053e-13
-1.61546e-13
-1.61812e-13
-1.62386e-13
-1.62637e-13
-1.63244e-13
-1.63826e-13
-1.64324e-13
-1.64613e-13
-1.64587e-13
-1.64783e-13
-1.64816e-13
-1.65515e-13
-1.65924e-13
-1.65866e-13
-1.66222e-13
-1.66553e-13
-1.66676e-13
-1.66728e-13
-1.67023e-13
-1.67419e-13
-1.67444e-13
-1.67569e-13
-1.68084e-13
-1.68227e-13
-1.6853e-13
-1.69105e-13
-1.69091e-13
-1.69061e-13
-1.68973e-13
-1.69204e-13
-1.69112e-13
-1.69638e-13
-1.70044e-13
-1.70024e-13
-1.70336e-13
-1.70799e-13
-1.71754e-13
-1.71858e-13
-1.71669e-13
-1.71752e-13
-1.71975e-13
-1.72001e-13
-1.71923e-13
-1.72026e-13
-1.72007e-13
-1.71965e-13
-1.72264e-13
-1.72464e-13
-1.72653e-13
-1.72436e-13
-1.72294e-13
-1.72069e-13
-1.71942e-13
-1.71765e-13
-1.71562e-13
-1.71454e-13
-1.71445e-13
-1.71303e-13
-1.71427e-13
-1.71e-13
-1.70946e-13
-1.7141e-13
-1.71523e-13
-1.71277e-13
-1.71515e-13
-1.71463e-13
-1.71204e-13
-1.71483e-13
-1.7146e-13
-1.71247e-13
-1.71309e-13
-1.71393e-13
-1.71258e-13
-1.71403e-13
-1.7169e-13
-1.71778e-13
-1.7206e-13
-1.72801e-13
-1.7275e-13
-1.72802e-13
-1.72989e-13
-1.72822e-13
-1.73182e-13
-1.73188e-13
-1.73293e-13
-1.73282e-13
-1.7349e-13
-1.73734e-13
-1.7412e-13
-1.74072e-13
-1.73733e-13
-1.73584e-13
-1.73503e-13
-1.73741e-13
-1.73833e-13
-1.7335e-13
-1.73295e-13
-1.73777e-13
-1.73782e-13
-1.74252e-13
-1.74644e-13
-1.74551e-13
-1.74646e-13
-1.74716e-13
-1.74772e-13
-1.74938e-13
-1.75174e-13
-1.75499e-13
-1.75725e-13
-1.75586e-13
-1.75433e-13
-1.75473e-13
-1.7532e-13
-1.75094e-13
-1.75307e-13
-1.74759e-13
-1.74616e-13
-1.75014e-13
-1.75084e-13
-1.7515e-13
-1.75306e-13
-1.75395e-13
-1.75383e-13
-1.7547e-13
-1.75132e-13
-1.74968e-13
-1.75548e-13
-1.75363e-13
-1.75034e-13
-1.74971e-13
-1.74652e-13
-1.75002e-13
-1.74731e-13
-1.74636e-13
-1.74407e-13
-1.74483e-13
-1.74654e-13
-1.74943e-13
-1.74819e-13
-1.74457e-13
-1.74283e-13
-1.7431e-13
-1.74918e-13
-1.74919e-13
-1.7504e-13
-1.75693e-13
-1.76304e-13
-1.75831e-13
-1.7556e-13
-1.76079e-13
-1.76192e-13
-1.76459e-13
-1.76081e-13
-1.76006e-13
-1.76238e-13
-1.75814e-13
-1.75561e-13
-1.76247e-13
-1.76138e-13
-1.76204e-13
-1.76351e-13
-1.76345e-13
-1.76188e-13
-1.75996e-13
-1.75829e-13
-1.75537e-13
-1.75644e-13
-1.75722e-13
-1.76038e-13
-1.76218e-13
-1.76531e-13
-1.76712e-13
-1.76155e-13
-1.7558e-13
-1.75932e-13