/*--------------------------------*- C++ -*----------------------------------*\
| =========                 |                                                 |
| \\      /  F ield         | OpenFOAM: The Open Source CFD Toolbox           |
|  \\    /   O peration     | Version:  2112                                  |
|   \\  /    A nd           | Website:  www.openfoam.com                      |
|    \\/     M anipulation  |                                                 |
\*---------------------------------------------------------------------------*/
FoamFile
{
    version     2.0;
    format      ascii;
    arch        "LSB;label=32;scalar=64";
    class       surfaceScalarField;
    location    "1";
    object      phi;
}
// * * * * * * * * * * * * * * * * * * * * * * * * * * * * * * * * * * * * * //

dimensions      [0 3 -1 0 0 0 0];

oriented        oriented;

internalField   nonuniform List<scalar> 
99400
(
4.34797e-05
8.23211e-18
4.34797e-05
1.49873e-18
4.34797e-05
4.61123e-19
4.34797e-05
2.43829e-19
4.34797e-05
1.71298e-19
4.34797e-05
1.01036e-19
4.34797e-05
8.29406e-20
4.34797e-05
5.92248e-20
4.34797e-05
5.20121e-20
4.34797e-05
4.40401e-20
4.34797e-05
1.81296e-21
4.34797e-05
-7.21316e-21
4.34797e-05
-1.03603e-20
4.34797e-05
-1.81113e-20
4.34797e-05
-6.59315e-21
4.34797e-05
-1.69608e-20
4.34797e-05
-3.25749e-20
4.34797e-05
-1.08733e-20
4.34797e-05
2.78851e-21
4.34797e-05
3.14054e-20
4.34797e-05
2.93878e-20
4.34797e-05
1.10268e-20
4.34797e-05
6.06131e-20
4.34797e-05
5.70781e-20
4.34797e-05
-1.18727e-20
4.34797e-05
-3.4411e-20
4.34797e-05
3.72703e-21
4.34797e-05
2.37352e-20
4.34797e-05
-1.73811e-20
4.34797e-05
-7.86925e-21
4.34797e-05
-4.01309e-21
4.34797e-05
-2.29851e-20
4.34797e-05
1.75612e-20
4.34797e-05
3.32565e-20
4.34797e-05
-1.31419e-20
4.34797e-05
1.39217e-20
4.34797e-05
-5.87474e-20
4.34797e-05
-4.81728e-20
4.34797e-05
3.41012e-20
4.34797e-05
-1.2628e-20
4.34797e-05
2.97505e-20
4.34797e-05
-1.71195e-20
4.34797e-05
-9.50803e-21
4.34797e-05
1.7611e-20
4.34797e-05
-1.16785e-20
4.34797e-05
2.23682e-20
4.34797e-05
2.06298e-20
4.34797e-05
-6.02154e-20
4.34797e-05
3.95889e-21
4.34797e-05
4.28969e-20
4.34797e-05
3.29967e-20
4.34797e-05
-1.56198e-20
4.34797e-05
-6.52847e-20
4.34797e-05
5.519e-21
4.34797e-05
5.8541e-20
4.34797e-05
-4.0736e-20
4.34797e-05
4.20188e-20
4.34797e-05
-2.07743e-20
4.34797e-05
-3.96191e-20
4.34797e-05
2.06773e-20
4.34797e-05
-1.78419e-21
4.34797e-05
-1.55152e-20
4.34797e-05
7.20511e-21
4.34797e-05
7.039e-20
4.34797e-05
8.38675e-21
4.34797e-05
7.47416e-20
4.34797e-05
-1.66708e-20
4.34797e-05
-3.67722e-20
4.34797e-05
3.14997e-20
4.34797e-05
-4.6038e-20
4.34797e-05
-5.7406e-20
4.34797e-05
5.46282e-21
4.34797e-05
9.77997e-20
4.34797e-05
-3.6538e-20
4.34797e-05
-8.68039e-20
4.34797e-05
1.64053e-19
4.34797e-05
8.17399e-20
4.34797e-05
-8.18654e-20
4.34797e-05
-5.92243e-20
4.34797e-05
1.85198e-20
4.34797e-05
9.34363e-21
4.34797e-05
-3.21981e-20
4.34797e-05
4.10345e-20
4.34797e-05
2.6183e-20
4.34797e-05
-6.62552e-20
4.34797e-05
8.16289e-20
4.34797e-05
-6.89397e-23
4.34797e-05
-2.10928e-20
4.34797e-05
3.17399e-20
4.34797e-05
-1.91385e-20
4.34797e-05
1.85644e-20
4.34797e-05
2.86129e-20
4.34797e-05
-9.01349e-21
4.34797e-05
-1.15722e-20
4.34797e-05
2.77218e-20
4.34797e-05
-1.11188e-19
4.34797e-05
-1.55005e-20
4.34797e-05
1.45739e-19
4.34797e-05
-7.53803e-20
4.34797e-05
-9.54984e-20
4.34797e-05
5.45575e-20
4.34797e-05
4.37177e-20
4.34797e-05
-2.49025e-20
4.34797e-05
-1.73517e-20
4.34797e-05
4.43717e-20
4.34797e-05
-2.939e-21
4.34797e-05
-3.92579e-20
4.34797e-05
-1.01001e-20
4.34797e-05
8.37313e-20
4.34797e-05
1.12052e-19
4.34797e-05
-6.07279e-20
4.34797e-05
-1.25914e-19
4.34797e-05
-5.35103e-20
4.34797e-05
1.11786e-19
4.34797e-05
7.57382e-20
4.34797e-05
-1.19517e-19
4.34797e-05
-9.07925e-20
4.34797e-05
9.16607e-20
4.34797e-05
7.14906e-20
4.34797e-05
1.17614e-21
4.34797e-05
-1.97273e-20
4.34797e-05
1.24539e-20
4.34797e-05
7.26568e-20
4.34797e-05
-2.13473e-20
4.34797e-05
-8.76645e-20
4.34797e-05
9.49445e-20
4.34797e-05
2.8911e-20
4.34797e-05
-6.33064e-20
4.34797e-05
1.56007e-20
4.34797e-05
-1.17749e-20
4.34797e-05
9.07819e-21
4.34797e-05
-4.79058e-21
4.34797e-05
1.55214e-19
4.34797e-05
-7.52666e-20
4.34797e-05
-1.17671e-19
4.34797e-05
8.78738e-20
4.34797e-05
-1.89164e-20
4.34797e-05
-1.0986e-19
4.34797e-05
8.57383e-20
4.34797e-05
8.47105e-20
4.34797e-05
-1.65131e-19
4.34797e-05
-1.51047e-19
4.34797e-05
8.35423e-20
4.34797e-05
1.85553e-19
4.34797e-05
-9.88772e-20
4.34797e-05
-3.95577e-20
4.34797e-05
2.60309e-19
4.34797e-05
-5.09772e-20
4.34797e-05
-1.65008e-19
4.34797e-05
1.48639e-19
4.34797e-05
-7.31948e-20
4.34797e-05
-1.76525e-20
4.34797e-05
1.92702e-19
4.34797e-05
-1.86883e-19
4.34797e-05
-6.46936e-20
4.34797e-05
1.09844e-19
4.34797e-05
-1.52421e-19
4.34797e-05
-1.81235e-20
4.34797e-05
-3.76619e-20
4.34797e-05
1.38755e-19
4.34797e-05
6.48504e-20
4.34797e-05
-1.78549e-20
4.34797e-05
-5.04771e-21
4.34797e-05
1.91312e-20
4.34797e-05
-4.24495e-20
4.34797e-05
-4.19278e-20
4.34797e-05
4.60593e-20
4.34797e-05
-2.48916e-19
4.34797e-05
1.20587e-19
4.34797e-05
1.70907e-19
4.34797e-05
-2.0103e-19
4.34797e-05
8.74509e-20
4.34797e-05
1.88729e-19
4.34797e-05
-1.23501e-19
4.34797e-05
-9.95858e-20
4.34797e-05
8.58099e-21
4.34797e-05
1.68184e-19
4.34797e-05
-2.26008e-20
4.34797e-05
-1.30856e-19
4.34797e-05
1.40913e-19
4.34797e-05
-2.50496e-20
4.34797e-05
-1.00248e-19
4.34797e-05
2.92834e-20
4.34797e-05
-3.36161e-20
4.34797e-05
2.08498e-19
4.34797e-05
1.64165e-20
4.34797e-05
-1.64465e-19
4.34797e-05
4.06719e-20
4.34797e-05
1.22425e-20
4.34797e-05
-9.74564e-21
4.34797e-05
-6.57042e-20
4.34797e-05
-3.69746e-20
4.34797e-05
-4.13932e-20
4.34797e-05
1.7339e-19
4.34797e-05
1.44091e-20
4.34797e-05
-4.48237e-20
4.34797e-05
1.55286e-19
4.34797e-05
-2.32508e-21
4.34797e-05
-2.45981e-19
4.34797e-05
-5.65076e-20
4.34797e-05
1.13944e-19
4.34797e-05
-1.96028e-19
4.34797e-05
1.88669e-19
4.34797e-05
4.0694e-20
4.34797e-05
3.66175e-20
4.34797e-05
1.7818e-19
4.34797e-05
-1.93141e-19
4.34797e-05
-1.09851e-19
4.34797e-05
7.30938e-20
4.34797e-05
2.20599e-20
4.34797e-05
7.24546e-20
4.34797e-05
4.16987e-20
4.34797e-05
-1.28217e-19
4.34797e-05
1.6117e-19
4.34797e-05
-1.26061e-19
4.34797e-05
1.79077e-20
4.34797e-05
-5.98883e-20
4.34797e-05
-8.713e-20
4.34797e-05
1.70949e-19
4.34797e-05
1.43087e-19
4.34797e-05
-7.79628e-20
4.34797e-05
-1.4899e-19
4.34797e-05
4.82423e-20
4.34797e-05
-1.23011e-19
4.34797e-05
3.71239e-20
4.34797e-05
-1.43195e-20
4.34797e-05
-2.07145e-20
4.34797e-05
8.21459e-20
4.34797e-05
1.32918e-19
4.34797e-05
-2.26923e-20
4.34797e-05
-4.97221e-20
4.34797e-05
-1.8437e-19
4.34797e-05
-2.56684e-20
4.34797e-05
7.01229e-20
4.34797e-05
-1.16522e-19
4.34797e-05
1.52251e-19
4.34797e-05
6.59652e-20
4.34797e-05
6.66546e-20
4.34797e-05
-1.08862e-19
4.34797e-05
9.93924e-21
4.34797e-05
3.88345e-21
4.34797e-05
-1.70616e-19
4.34797e-05
3.6818e-20
4.34797e-05
2.44058e-19
4.34797e-05
-8.00752e-20
4.34797e-05
-8.40434e-20
4.34797e-05
1.44776e-19
4.34797e-05
-1.27717e-19
4.34797e-05
-1.39643e-20
4.34797e-05
-3.34244e-20
4.34797e-05
-9.52267e-20
4.34797e-05
-5.32331e-20
4.34797e-05
2.21257e-19
4.34797e-05
-3.06932e-20
4.34797e-05
-1.27357e-19
4.34797e-05
1.8468e-19
4.34797e-05
-2.42475e-20
4.34797e-05
-1.24821e-19
4.34797e-05
1.21095e-19
4.34797e-05
-9.83062e-20
4.34797e-05
7.6005e-20
4.34797e-05
3.40219e-19
4.34797e-05
-2.31771e-19
4.34797e-05
1.25228e-19
4.34797e-05
-1.82414e-19
4.34797e-05
-1.79326e-19
4.34797e-05
4.16393e-19
4.34797e-05
-3.25704e-19
4.34797e-05
-1.8855e-19
4.34797e-05
6.19633e-19
4.34797e-05
-2.83197e-19
4.34797e-05
-2.15801e-19
4.34797e-05
1.78665e-19
4.34797e-05
-2.04591e-19
4.34797e-05
1.93404e-19
4.34797e-05
-1.83983e-19
4.34797e-05
-1.06326e-19
4.34797e-05
2.01453e-19
4.34797e-05
1.3254e-19
4.34797e-05
-1.09948e-19
4.34797e-05
-1.11037e-19
4.34797e-05
-1.18954e-19
4.34797e-05
1.20625e-19
4.34797e-05
2.91249e-19
4.34797e-05
-3.35276e-19
4.34797e-05
3.34232e-19
4.34797e-05
4.0048e-20
4.34797e-05
-4.05634e-19
4.34797e-05
2.45733e-19
4.34797e-05
1.53738e-19
4.34797e-05
-3.44413e-19
4.34797e-05
7.90795e-20
4.34797e-05
6.15743e-20
4.34797e-05
-2.47819e-19
4.34797e-05
4.84732e-19
4.34797e-05
1.3979e-19
4.34797e-05
-4.61608e-19
4.34797e-05
1.57877e-19
4.34797e-05
8.98611e-21
4.34797e-05
-2.99549e-19
4.34797e-05
3.92074e-19
4.34797e-05
-1.70234e-19
4.34797e-05
-1.59037e-19
4.34797e-05
5.64395e-19
4.34797e-05
-2.05449e-19
4.34797e-05
-3.50074e-19
4.34797e-05
3.30906e-19
4.34797e-05
-1.99914e-19
4.34797e-05
-2.31244e-19
4.34797e-05
3.80238e-19
4.34797e-05
5.99551e-20
4.34797e-05
-3.70699e-19
4.34797e-05
1.77059e-19
4.34797e-05
1.11096e-19
4.34797e-05
-1.95792e-19
4.34797e-05
1.36794e-19
4.34797e-05
-1.03406e-19
4.34797e-05
-1.0825e-19
4.34797e-05
-8.66314e-21
4.34797e-05
1.751e-19
4.34797e-05
1.59715e-19
4.34797e-05
-6.25973e-20
4.34797e-05
-2.30626e-19
4.34797e-05
-7.60197e-20
4.34797e-05
3.15336e-19
4.34797e-05
-9.46665e-20
4.34797e-05
-1.67943e-19
4.34797e-05
-5.73904e-20
4.34797e-05
3.25436e-19
4.34797e-05
2.95412e-19
4.34797e-05
-4.78e-19
4.34797e-05
-6.55782e-21
4.34797e-05
2.54078e-19
4.34797e-05
-3.40404e-19
4.34797e-05
1.59668e-19
4.34797e-05
2.968e-19
4.34797e-05
-4.91352e-19
4.34797e-05
3.32198e-19
4.34797e-05
2.27996e-19
4.34797e-05
-4.19218e-19
4.34797e-05
1.14207e-19
4.34797e-05
-6.04031e-21
4.34797e-05
-1.26275e-19
4.34797e-05
1.06275e-19
4.34797e-05
2.70709e-19
4.34797e-05
6.2497e-20
4.34797e-05
-2.12607e-20
4.34797e-05
-2.17159e-19
4.34797e-05
-9.38413e-20
4.34797e-05
1.7617e-19
4.34797e-05
-1.27811e-19
4.34797e-05
-2.30443e-19
4.34797e-05
1.02192e-19
4.34797e-05
3.11768e-19
4.34797e-05
2.29161e-20
4.34797e-05
-6.885e-20
4.34797e-05
-2.62956e-19
4.34797e-05
-1.41062e-19
4.34797e-05
2.00695e-19
4.34797e-05
-9.3243e-20
4.34797e-05
2.08542e-19
4.34797e-05
-2.86244e-19
4.34797e-05
-3.70539e-20
4.34797e-05
4.95924e-19
4.34797e-05
-2.76271e-19
4.34797e-05
-4.42553e-20
4.34797e-05
3.59238e-20
4.34797e-05
-6.41978e-20
4.34797e-05
-1.0041e-19
4.34797e-05
4.27734e-19
4.34797e-05
7.14502e-20
4.34797e-05
-2.96364e-19
4.34797e-05
-4.82265e-20
4.34797e-05
-2.7531e-20
4.34797e-05
1.76413e-19
4.34797e-05
-1.62491e-19
4.34797e-05
1.044e-19
4.34797e-05
-2.21942e-19
4.34797e-05
3.16244e-19
4.34797e-05
1.0602e-19
4.34797e-05
-2.39328e-19
4.34797e-05
-7.99609e-20
4.34797e-05
7.35805e-20
4.34797e-05
4.0237e-20
4.34797e-05
-1.93317e-19
4.34797e-05
3.74206e-19
4.34797e-05
-3.63691e-19
4.34797e-05
2.86513e-20
4.34797e-05
1.94295e-19
4.34797e-05
-9.83405e-20
4.34797e-05
-1.53789e-19
4.34797e-05
1.19741e-19
4.34797e-05
-3.09189e-20
4.34797e-05
-3.3765e-19
4.34797e-05
4.45798e-19
4.34797e-05
2.78963e-19
4.34797e-05
-2.93704e-19
4.34797e-05
-1.84446e-19
4.34797e-05
-7.18384e-20
4.34797e-05
-4.55449e-20
4.34797e-05
1.81493e-19
4.34797e-05
5.6219e-19
4.34797e-05
-3.70701e-19
4.34797e-05
-2.20295e-19
4.34797e-05
-1.62655e-19
4.34797e-05
3.87897e-19
4.34797e-05
4.12166e-19
4.34797e-05
-6.90814e-19
4.34797e-05
-1.14852e-19
4.34797e-05
3.3188e-19
4.34797e-05
4.49079e-19
4.34797e-05
-5.40288e-19
4.34797e-05
6.08135e-20
4.34797e-05
2.12484e-19
4.34797e-05
-9.10436e-20
4.34797e-05
1.24404e-19
4.34797e-05
-3.28245e-19
4.34797e-05
3.70341e-20
4.34797e-05
3.76636e-19
4.34797e-05
1.84808e-19
4.34797e-05
-5.20643e-19
4.34797e-05
-2.22747e-19
4.34797e-05
6.87394e-19
4.34797e-05
-1.72273e-19
4.34797e-05
-2.96096e-19
4.34797e-05
2.98937e-20
4.34797e-05
7.56682e-20
4.34797e-05
2.76076e-20
4.34797e-05
9.93503e-20
4.34797e-05
-2.7119e-19
4.34797e-05
-2.46401e-19
4.34797e-05
6.45149e-19
4.34797e-05
-4.41829e-20
4.34797e-05
-6.47305e-19
4.34797e-05
-6.75601e-20
4.34797e-05
8.26015e-19
4.34797e-05
-1.82116e-19
4.34797e-05
-8.19295e-20
4.34797e-05
-2.90059e-20
4.34797e-05
-3.57023e-19
4.34797e-05
6.48831e-19
4.34797e-05
-3.27166e-19
4.34797e-05
-1.50888e-19
4.34797e-05
-1.097e-19
4.34797e-05
2.63273e-19
4.34797e-05
1.28055e-19
4.34797e-05
-2.64526e-19
4.34797e-05
1.33895e-19
4.34797e-05
-2.16455e-19
4.34797e-05
3.07231e-19
4.34797e-05
-1.46817e-19
4.34797e-05
7.78461e-20
4.34797e-05
-1.80755e-19
4.34797e-05
2.30014e-19
4.34797e-05
-7.6851e-21
4.34797e-05
-2.11697e-19
4.34797e-05
2.15714e-19
4.34797e-05
3.57189e-20
4.34797e-05
1.84278e-19
4.34797e-05
-7.89832e-19
4.34797e-05
3.59029e-19
4.34797e-05
2.32248e-19
4.34797e-05
1.16191e-19
4.34797e-05
1.12514e-19
4.34797e-05
-6.7966e-19
4.34797e-05
2.02244e-19
4.34797e-05
2.68836e-19
4.34797e-05
-3.63176e-20
4.34797e-05
-2.79288e-19
4.34797e-05
2.11439e-19
4.34797e-05
-1.00123e-19
4.34797e-05
5.00426e-20
4.34797e-05
1.49202e-19
4.34797e-05
-2.36344e-19
4.34797e-05
2.56305e-19
4.34797e-05
5.45381e-20
4.34797e-05
1.3784e-19
4.34797e-05
-4.20398e-19
4.34797e-05
5.06598e-20
4.34797e-05
2.04144e-19
4.34797e-05
7.4931e-20
4.34797e-05
-3.00943e-20
4.34797e-05
-2.02719e-19
4.34797e-05
4.31969e-19
4.34797e-05
-4.01585e-19
4.34797e-05
1.12378e-19
4.34797e-05
3.55183e-20
4.34797e-05
-8.82425e-20
4.34797e-05
4.85271e-19
4.34797e-05
-2.83782e-19
4.34797e-05
-3.49866e-19
4.34797e-05
2.29707e-19
4.34797e-05
3.2583e-19
4.34797e-05
-3.61475e-19
4.34797e-05
1.19275e-19
4.34797e-05
6.68275e-21
4.34797e-05
1.34779e-19
4.34797e-05
4.70502e-19
4.34797e-05
2.07504e-19
1.67069e-18
0.000128515
4.60348e-18
0.000128515
1.7537e-18
0.000128515
7.53134e-19
0.000128515
5.07376e-19
0.000128515
3.84098e-19
0.000128515
2.62024e-19
0.000128515
2.07214e-19
0.000128515
1.81853e-19
0.000128515
1.07207e-19
0.000128515
7.04446e-20
0.000128515
4.33102e-20
0.000128515
-5.86317e-20
0.000128515
-5.13395e-20
0.000128515
-2.12679e-20
0.000128515
-4.10949e-20
0.000128515
-8.91359e-20
0.000128515
-1.02766e-19
0.000128515
-3.63505e-20
0.000128515
2.60472e-20
0.000128515
1.03687e-19
0.000128515
7.12055e-20
0.000128515
6.60585e-20
0.000128515
1.25289e-19
0.000128515
1.26224e-19
0.000128515
4.07576e-20
0.000128515
-6.3465e-20
0.000128515
-3.28156e-20
0.000128515
4.95418e-20
0.000128515
-4.47227e-20
0.000128515
-3.19069e-20
0.000128515
7.53242e-21
0.000128515
-2.69667e-20
0.000128515
-1.0749e-20
0.000128515
5.23807e-20
0.000128515
-2.05657e-21
0.000128515
4.83415e-23
0.000128515
-1.7449e-19
0.000128515
-1.1081e-19
0.000128515
3.68272e-20
0.000128515
-2.44526e-20
0.000128515
7.58431e-20
0.000128515
-5.99178e-22
0.000128515
-2.37782e-20
0.000128515
4.831e-20
0.000128515
1.62007e-20
0.000128515
3.46817e-20
0.000128515
1.73873e-20
0.000128515
-1.39361e-19
0.000128515
1.00039e-21
0.000128515
7.81806e-20
0.000128515
7.96502e-20
0.000128515
-4.33327e-20
0.000128515
-1.18024e-19
0.000128515
1.30061e-20
0.000128515
9.79798e-20
0.000128515
-1.30753e-20
0.000128515
6.01121e-20
0.000128515
-8.24219e-20
0.000128515
-1.20105e-19
0.000128515
2.43621e-20
0.000128515
1.05758e-21
0.000128515
4.09763e-20
0.000128515
4.14894e-20
0.000128515
1.63022e-19
0.000128515
6.17267e-20
0.000128515
1.57964e-19
0.000128515
-1.53065e-20
0.000128515
-9.84607e-20
0.000128515
4.92984e-20
0.000128515
-9.55258e-20
0.000128515
-8.63798e-20
0.000128515
2.67236e-20
0.000128515
2.54793e-19
0.000128515
-4.96222e-20
0.000128515
-2.19613e-19
0.000128515
3.8693e-19
0.000128515
2.31249e-19
0.000128515
-1.41802e-19
0.000128515
-2.23903e-19
0.000128515
-1.97519e-20
0.000128515
9.76015e-20
0.000128515
-2.81748e-20
0.000128515
7.27576e-20
0.000128515
2.89339e-20
0.000128515
-9.11383e-20
0.000128515
1.59204e-19
0.000128515
8.28997e-22
0.000128515
-2.07163e-20
0.000128515
5.44842e-20
0.000128515
-2.24083e-21
0.000128515
8.77458e-20
0.000128515
8.79033e-21
0.000128515
-2.4262e-20
0.000128515
-2.60175e-20
0.000128515
-1.45647e-22
0.000128515
-2.66919e-19
0.000128515
-4.49815e-20
0.000128515
3.40297e-19
0.000128515
-2.00302e-19
0.000128515
-2.87283e-19
0.000128515
1.72004e-19
0.000128515
1.29977e-19
0.000128515
6.3123e-21
0.000128515
-1.04882e-19
0.000128515
5.83431e-20
0.000128515
7.87723e-20
0.000128515
-6.50814e-20
0.000128515
-8.05528e-20
0.000128515
2.18508e-19
0.000128515
2.54686e-19
0.000128515
-1.34099e-19
0.000128515
-2.93265e-19
0.000128515
-1.48453e-19
0.000128515
2.1938e-19
0.000128515
1.97829e-19
0.000128515
-2.7277e-19
0.000128515
-1.90879e-19
0.000128515
2.19917e-19
0.000128515
1.86072e-19
0.000128515
-3.97551e-22
0.000128515
-3.8231e-20
0.000128515
8.56455e-20
0.000128515
1.5151e-19
0.000128515
-8.51534e-20
0.000128515
-1.24422e-19
0.000128515
1.77673e-19
0.000128515
-3.35068e-21
0.000128515
-8.53346e-20
0.000128515
6.93752e-20
0.000128515
-2.52747e-20
0.000128515
7.04962e-20
0.000128515
3.1269e-20
0.000128515
2.64125e-19
0.000128515
-8.25556e-20
0.000128515
-2.57544e-19
0.000128515
1.33218e-19
0.000128515
-1.19775e-19
0.000128515
-1.94869e-19
0.000128515
1.98561e-19
0.000128515
1.14595e-19
0.000128515
-3.76258e-19
0.000128515
-3.82994e-19
0.000128515
2.40661e-19
0.000128515
4.70211e-19
0.000128515
-2.7487e-19
0.000128515
-1.55048e-20
0.000128515
6.41131e-19
0.000128515
-2.37702e-20
0.000128515
-3.86515e-19
0.000128515
2.05881e-19
0.000128515
-1.44537e-19
0.000128515
3.75155e-20
0.000128515
3.12915e-19
0.000128515
-4.102e-19
0.000128515
-1.14568e-19
0.000128515
1.11701e-19
0.000128515
-2.98838e-19
0.000128515
-9.10354e-20
0.000128515
-9.41272e-20
0.000128515
3.65046e-19
0.000128515
2.19059e-19
0.000128515
-7.76805e-20
0.000128515
-5.94535e-21
0.000128515
-3.10669e-20
0.000128515
-9.38534e-20
0.000128515
-1.10296e-19
0.000128515
-2.49744e-20
0.000128515
-3.99286e-19
0.000128515
2.30843e-19
0.000128515
3.18683e-19
0.000128515
-3.01494e-19
0.000128515
1.36247e-19
0.000128515
3.49826e-19
0.000128515
-1.37182e-19
0.000128515
-3.02203e-19
0.000128515
7.99161e-20
0.000128515
4.2781e-19
0.000128515
-1.11373e-19
0.000128515
-3.15271e-19
0.000128515
3.24686e-19
0.000128515
-2.6964e-20
0.000128515
-2.18209e-19
0.000128515
6.33371e-20
0.000128515
-1.74189e-20
0.000128515
4.31441e-19
0.000128515
4.96086e-20
0.000128515
-3.33528e-19
0.000128515
-3.45323e-20
0.000128515
7.91734e-20
0.000128515
-1.62745e-20
0.000128515
-1.73404e-19
0.000128515
-1.32248e-19
0.000128515
-4.81563e-21
0.000128515
3.77893e-19
0.000128515
-2.89749e-20
0.000128515
-4.84583e-20
0.000128515
3.92556e-19
0.000128515
-1.42832e-19
0.000128515
-5.70073e-19
0.000128515
-4.66706e-20
0.000128515
1.42257e-19
0.000128515
-3.93292e-19
0.000128515
5.06033e-19
0.000128515
9.64152e-20
0.000128515
1.87557e-19
0.000128515
4.85098e-19
0.000128515
-4.2305e-19
0.000128515
-3.54933e-19
0.000128515
1.17926e-19
0.000128515
1.26434e-19
0.000128515
1.70508e-19
0.000128515
1.45541e-19
0.000128515
-2.10375e-19
0.000128515
2.40223e-19
0.000128515
-2.78629e-19
0.000128515
2.75944e-20
0.000128515
-2.00983e-19
0.000128515
-1.57135e-19
0.000128515
4.71365e-19
0.000128515
2.36895e-19
0.000128515
-1.76552e-19
0.000128515
-2.46125e-19
0.000128515
4.65253e-20
0.000128515
-2.7051e-19
0.000128515
3.75988e-20
0.000128515
-5.28877e-20
0.000128515
-5.0262e-20
0.000128515
2.06184e-19
0.000128515
4.16174e-19
0.000128515
-1.51252e-19
0.000128515
-1.65767e-19
0.000128515
-3.47392e-19
0.000128515
-2.95629e-19
0.000128515
1.64908e-19
0.000128515
-1.24106e-19
0.000128515
3.02246e-19
0.000128515
2.68682e-19
0.000128515
4.5543e-20
0.000128515
-1.49196e-19
0.000128515
-2.37527e-20
0.000128515
-4.27875e-20
0.000128515
-2.58102e-19
0.000128515
-1.57983e-20
0.000128515
5.4311e-19
0.000128515
-1.0255e-19
0.000128515
-1.80683e-19
0.000128515
2.37323e-19
0.000128515
-2.32545e-19
0.000128515
-8.56547e-20
0.000128515
-1.80592e-20
0.000128515
-2.76478e-19
0.000128515
-1.67521e-19
0.000128515
4.08814e-19
0.000128515
-1.59738e-21
0.000128515
-2.21326e-19
0.000128515
2.98547e-19
0.000128515
6.39073e-20
0.000128515
-1.91442e-19
0.000128515
1.49971e-19
0.000128515
-2.36462e-19
0.000128515
3.42143e-19
0.000128515
7.72734e-19
0.000128515
-3.16557e-19
0.000128515
1.26396e-19
0.000128515
-4.6544e-19
0.000128515
-4.6509e-19
0.000128515
9.09799e-19
0.000128515
-5.76428e-19
0.000128515
-4.49771e-19
0.000128515
1.17669e-18
0.000128515
-4.97279e-19
0.000128515
-4.82361e-19
0.000128515
2.72815e-19
0.000128515
-3.86928e-19
0.000128515
1.67937e-19
0.000128515
-1.49818e-19
0.000128515
-2.06561e-19
0.000128515
2.56596e-19
0.000128515
3.41236e-19
0.000128515
-1.16177e-19
0.000128515
-2.65025e-19
0.000128515
-4.16719e-19
0.000128515
3.51131e-19
0.000128515
7.72354e-19
0.000128515
-6.809e-19
0.000128515
6.35864e-19
0.000128515
2.40973e-19
0.000128515
-9.69279e-19
0.000128515
5.67376e-19
0.000128515
2.48473e-19
0.000128515
-8.07922e-19
0.000128515
1.23799e-19
0.000128515
1.71055e-19
0.000128515
-3.42492e-19
0.000128515
1.10679e-18
0.000128515
2.04143e-19
0.000128515
-8.61663e-19
0.000128515
2.70416e-19
0.000128515
-8.16284e-20
0.000128515
-5.21646e-19
0.000128515
6.57436e-19
0.000128515
-9.50609e-20
0.000128515
-3.42829e-19
0.000128515
1.11746e-18
0.000128515
-3.21798e-19
0.000128515
-8.13242e-19
0.000128515
4.85978e-19
0.000128515
-3.5591e-19
0.000128515
-3.67053e-19
0.000128515
6.33846e-19
0.000128515
1.63827e-19
0.000128515
-7.08235e-19
0.000128515
2.76347e-19
0.000128515
2.49554e-19
0.000128515
-3.0706e-19
0.000128515
6.09419e-20
0.000128515
-2.18939e-19
0.000128515
-1.92249e-19
0.000128515
-4.87056e-20
0.000128515
4.08545e-19
0.000128515
4.83527e-19
0.000128515
-2.55852e-19
0.000128515
-5.02435e-19
0.000128515
-4.08069e-21
0.000128515
5.31954e-19
0.000128515
-2.10606e-19
0.000128515
-3.24688e-19
0.000128515
-4.92633e-20
0.000128515
7.23725e-19
0.000128515
7.04738e-19
0.000128515
-8.96355e-19
0.000128515
-1.74279e-19
0.000128515
4.50436e-19
0.000128515
-5.86687e-19
0.000128515
2.55619e-19
0.000128515
5.37212e-19
0.000128515
-7.25209e-19
0.000128515
5.68952e-19
0.000128515
3.5034e-19
0.000128515
-6.78317e-19
0.000128515
1.26811e-19
0.000128515
-1.78582e-19
0.000128515
3.55624e-21
0.000128515
3.87108e-19
0.000128515
4.30664e-19
0.000128515
3.20631e-19
0.000128515
-5.8219e-20
0.000128515
-6.40537e-19
0.000128515
-1.30757e-19
0.000128515
3.17343e-19
0.000128515
-5.40686e-19
0.000128515
-3.15052e-19
0.000128515
2.93677e-19
0.000128515
5.65409e-19
0.000128515
2.57308e-19
0.000128515
-2.76951e-19
0.000128515
-6.58894e-19
0.000128515
-2.41296e-19
0.000128515
1.93564e-19
0.000128515
-1.56062e-19
0.000128515
5.16446e-19
0.000128515
-6.47108e-19
0.000128515
-5.22989e-20
0.000128515
9.9655e-19
0.000128515
-4.76533e-19
0.000128515
-1.91685e-19
0.000128515
1.61001e-20
0.000128515
-4.50355e-20
0.000128515
-9.15142e-20
0.000128515
9.57065e-19
0.000128515
1.55958e-19
0.000128515
-6.1884e-19
0.000128515
-8.45467e-20
0.000128515
-2.43414e-20
0.000128515
2.28744e-19
0.000128515
-3.01536e-19
0.000128515
5.31883e-20
0.000128515
-2.44045e-19
0.000128515
6.94019e-19
0.000128515
6.36863e-20
0.000128515
-4.41445e-19
0.000128515
-1.69172e-19
0.000128515
1.49357e-19
0.000128515
7.77656e-21
0.000128515
-4.57648e-19
0.000128515
9.08273e-19
0.000128515
-6.19109e-19
0.000128515
-2.90804e-19
0.000128515
5.02528e-19
0.000128515
-6.7543e-20
0.000128515
-5.42801e-19
0.000128515
1.5149e-19
0.000128515
2.56574e-21
0.000128515
-7.27811e-19
0.000128515
1.09204e-18
0.000128515
6.05138e-19
0.000128515
-8.13433e-19
0.000128515
-2.69131e-19
0.000128515
-1.49655e-19
0.000128515
-1.76872e-19
0.000128515
4.93136e-19
0.000128515
1.23766e-18
0.000128515
-7.31663e-19
0.000128515
-4.2051e-19
0.000128515
-4.45908e-19
0.000128515
7.36476e-19
0.000128515
1.15604e-18
0.000128515
-1.38546e-18
0.000128515
-5.83736e-19
0.000128515
8.11841e-19
0.000128515
1.13814e-18
0.000128515
-1.13261e-18
0.000128515
1.0218e-19
0.000128515
4.52271e-19
0.000128515
-1.07775e-19
0.000128515
1.41563e-19
0.000128515
-7.94559e-19
0.000128515
2.70217e-19
0.000128515
7.38051e-19
0.000128515
3.60245e-19
0.000128515
-1.08678e-18
0.000128515
-4.05432e-19
0.000128515
1.28149e-18
0.000128515
-1.26932e-19
0.000128515
-6.31638e-19
0.000128515
-2.17587e-19
0.000128515
3.03842e-19
0.000128515
6.10943e-20
0.000128515
1.35205e-19
0.000128515
-7.05853e-19
0.000128515
-5.1344e-19
0.000128515
1.31796e-18
0.000128515
1.63157e-19
0.000128515
-1.52409e-18
0.000128515
-4.22232e-19
0.000128515
2.0161e-18
0.000128515
-1.68139e-19
0.000128515
-3.06443e-19
0.000128515
-1.75042e-19
0.000128515
-5.74993e-19
0.000128515
1.11796e-18
0.000128515
-5.5197e-19
0.000128515
-4.71489e-19
0.000128515
-1.87016e-19
0.000128515
6.04881e-19
0.000128515
2.08729e-19
0.000128515
-4.83495e-19
0.000128515
1.44541e-19
0.000128515
-3.25037e-19
0.000128515
6.40803e-19
0.000128515
-3.12564e-19
0.000128515
-1.19963e-19
0.000128515
-4.5797e-20
0.000128515
4.52091e-19
0.000128515
-1.85438e-19
0.000128515
-3.28671e-19
0.000128515
4.66996e-19
0.000128515
8.14002e-20
0.000128515
3.18776e-19
0.000128515
-1.64248e-18
0.000128515
5.46083e-19
0.000128515
9.75481e-19
0.000128515
1.56723e-19
0.000128515
-1.87848e-19
0.000128515
-1.17046e-18
0.000128515
5.49426e-19
0.000128515
2.50237e-19
0.000128515
-1.13615e-19
0.000128515
-2.30446e-19
0.000128515
1.93075e-19
0.000128515
-2.17227e-19
0.000128515
1.20313e-19
0.000128515
3.97456e-19
0.000128515
-2.74476e-19
0.000128515
4.8107e-19
0.000128515
2.03611e-19
0.000128515
6.95614e-20
0.000128515
-9.17444e-19
0.000128515
3.79194e-19
0.000128515
2.97727e-19
0.000128515
-5.32867e-20
0.000128515
1.72926e-19
0.000128515
-1.85462e-19
0.000128515
5.62449e-19
0.000128515
-7.91301e-19
0.000128515
2.57901e-19
0.000128515
1.39834e-19
0.000128515
1.36281e-19
0.000128515
7.02531e-19
0.000128515
-8.25529e-19
0.000128515
-4.82468e-19
0.000128515
6.40529e-19
0.000128515
3.51956e-19
0.000128515
-7.09614e-19
0.000128515
1.53502e-19
0.000128515
6.57694e-20
0.000128515
3.90454e-19
0.000128515
8.53424e-19
0.000128515
4.48509e-19
1.93881e-18
0.000211307
2.7398e-18
0.000211307
1.54116e-18
0.000211307
8.53344e-19
0.000211307
6.74934e-19
0.000211307
6.01519e-19
0.000211307
3.72502e-19
0.000211307
2.90222e-19
0.000211307
3.479e-19
0.000211307
1.34922e-19
0.000211307
3.35453e-20
0.000211307
-3.46774e-20
0.000211307
-1.27812e-19
0.000211307
-1.27792e-19
0.000211307
-7.14577e-20
0.000211307
-1.22215e-19
0.000211307
-1.76811e-19
0.000211307
-8.52496e-20
0.000211307
-5.87318e-20
0.000211307
3.78195e-20
0.000211307
2.23802e-19
0.000211307
9.63735e-20
0.000211307
8.45929e-20
0.000211307
2.2887e-19
0.000211307
1.86682e-19
0.000211307
1.18495e-19
0.000211307
-5.83708e-20
0.000211307
-1.00456e-19
0.000211307
1.11263e-19
0.000211307
-5.66674e-20
0.000211307
-1.19809e-19
0.000211307
-7.86936e-20
0.000211307
-3.07627e-20
0.000211307
2.28887e-20
0.000211307
1.24214e-19
0.000211307
-7.87666e-20
0.000211307
-9.28771e-20
0.000211307
-2.80671e-19
0.000211307
-1.5359e-19
0.000211307
7.67334e-20
0.000211307
-3.82596e-20
0.000211307
8.05082e-20
0.000211307
-3.739e-23
0.000211307
-2.61341e-20
0.000211307
4.27583e-20
0.000211307
9.86594e-20
0.000211307
-6.6596e-21
0.000211307
-8.81426e-20
0.000211307
-1.3656e-19
0.000211307
6.47467e-20
0.000211307
8.46469e-20
0.000211307
1.00621e-19
0.000211307
-6.64113e-20
0.000211307
-1.80348e-19
0.000211307
-3.50368e-21
0.000211307
1.82761e-19
0.000211307
3.57588e-20
0.000211307
3.70052e-21
0.000211307
-1.95905e-19
0.000211307
-1.43473e-19
0.000211307
3.73028e-20
0.000211307
-3.49792e-20
0.000211307
7.86936e-20
0.000211307
1.29644e-19
0.000211307
2.70961e-19
0.000211307
1.57459e-19
0.000211307
2.65801e-19
0.000211307
-4.46458e-20
0.000211307
-1.46148e-19
0.000211307
8.98811e-20
0.000211307
-3.53965e-20
0.000211307
-9.6895e-20
0.000211307
-1.46754e-20
0.000211307
3.8738e-19
0.000211307
2.54654e-20
0.000211307
-3.32515e-19
0.000211307
5.43758e-19
0.000211307
4.60265e-19
0.000211307
-1.86908e-19
0.000211307
-4.2662e-19
0.000211307
-7.10548e-20
0.000211307
1.86072e-19
0.000211307
2.17266e-20
0.000211307
7.87473e-20
0.000211307
2.97464e-20
0.000211307
-3.58455e-20
0.000211307
1.94286e-19
0.000211307
-8.90559e-20
0.000211307
1.3803e-20
0.000211307
1.26544e-19
0.000211307
8.53709e-20
0.000211307
1.70792e-19
0.000211307
-1.16491e-19
0.000211307
-2.44841e-20
0.000211307
-1.10724e-20
0.000211307
-7.12577e-20
0.000211307
-3.50462e-19
0.000211307
-9.80026e-20
0.000211307
3.56134e-19
0.000211307
-3.02935e-19
0.000211307
-4.0753e-19
0.000211307
1.79835e-19
0.000211307
2.61417e-19
0.000211307
9.14073e-20
0.000211307
-1.65452e-19
0.000211307
9.73689e-20
0.000211307
2.40319e-19
0.000211307
-1.03451e-19
0.000211307
-2.35307e-19
0.000211307
3.48894e-19
0.000211307
3.38529e-19
0.000211307
-2.5047e-19
0.000211307
-3.57869e-19
0.000211307
-2.15542e-19
0.000211307
2.79718e-19
0.000211307
2.64087e-19
0.000211307
-3.28716e-19
0.000211307
-2.63511e-19
0.000211307
2.43109e-19
0.000211307
2.60202e-19
0.000211307
1.52669e-19
0.000211307
2.24683e-20
0.000211307
1.03078e-19
0.000211307
1.85582e-19
0.000211307
-1.12295e-19
0.000211307
-7.8805e-20
0.000211307
2.11673e-19
0.000211307
-1.70141e-20
0.000211307
-7.51733e-20
0.000211307
5.50935e-20
0.000211307
3.30054e-20
0.000211307
1.7819e-19
0.000211307
4.22375e-20
0.000211307
2.72855e-19
0.000211307
-8.52828e-20
0.000211307
-2.79537e-19
0.000211307
1.48228e-19
0.000211307
-3.0301e-19
0.000211307
-2.75012e-19
0.000211307
2.28505e-19
0.000211307
4.74258e-20
0.000211307
-5.83052e-19
0.000211307
-5.53306e-19
0.000211307
3.89228e-19
0.000211307
7.69269e-19
0.000211307
-3.29123e-19
0.000211307
5.53963e-20
0.000211307
9.58225e-19
0.000211307
-4.03384e-20
0.000211307
-4.79874e-19
0.000211307
2.14025e-19
0.000211307
-1.80948e-19
0.000211307
1.4525e-19
0.000211307
2.94059e-19
0.000211307
-6.14097e-19
0.000211307
-1.90117e-19
0.000211307
6.39755e-20
0.000211307
-3.6295e-19
0.000211307
-2.41921e-19
0.000211307
-1.97052e-19
0.000211307
6.51606e-19
0.000211307
4.47047e-19
0.000211307
-4.38125e-20
0.000211307
-9.30919e-20
0.000211307
-7.87213e-20
0.000211307
-1.76342e-19
0.000211307
-1.70861e-19
0.000211307
-1.43346e-19
0.000211307
-4.82144e-19
0.000211307
3.5586e-19
0.000211307
4.16513e-19
0.000211307
-3.66087e-19
0.000211307
1.7791e-19
0.000211307
5.20547e-19
0.000211307
-1.22728e-19
0.000211307
-4.01134e-19
0.000211307
2.04017e-19
0.000211307
6.5831e-19
0.000211307
-2.50312e-19
0.000211307
-4.63047e-19
0.000211307
4.76497e-19
0.000211307
1.69407e-20
0.000211307
-4.14276e-19
0.000211307
1.39903e-19
0.000211307
1.42059e-19
0.000211307
4.72573e-19
0.000211307
3.18185e-20
0.000211307
-4.66117e-19
0.000211307
-2.46337e-19
0.000211307
2.31109e-19
0.000211307
1.34363e-20
0.000211307
-2.69163e-19
0.000211307
-2.1115e-19
0.000211307