/*--------------------------------*- C++ -*----------------------------------*\
| =========                 |                                                 |
| \\      /  F ield         | OpenFOAM: The Open Source CFD Toolbox           |
|  \\    /   O peration     | Version:  2112                                  |
|   \\  /    A nd           | Website:  www.openfoam.com                      |
|    \\/     M anipulation  |                                                 |
\*---------------------------------------------------------------------------*/
FoamFile
{
    version     2.0;
    format      ascii;
    arch        "LSB;label=32;scalar=64";
    class       surfaceScalarField;
    location    "1";
    object      phi;
}
// * * * * * * * * * * * * * * * * * * * * * * * * * * * * * * * * * * * * * //

dimensions      [0 3 -1 0 0 0 0];

oriented        oriented;

internalField   nonuniform List<scalar> 
50800
(
2.45056e-05
3.91204e-18
2.45056e-05
6.95046e-19
2.45056e-05
1.41823e-19
2.45056e-05
5.4777e-20
2.45056e-05
4.15464e-20
2.45056e-05
3.16708e-20
2.45056e-05
1.41961e-20
2.45056e-05
1.73245e-20
2.45056e-05
1.45717e-20
2.45056e-05
6.50823e-21
2.45056e-05
1.44873e-20
2.45056e-05
5.74801e-21
2.45056e-05
3.23813e-20
2.45056e-05
1.61474e-20
2.45056e-05
-1.16754e-20
2.45056e-05
1.76608e-20
2.45056e-05
2.58179e-20
2.45056e-05
4.75441e-21
2.45056e-05
9.74267e-21
2.45056e-05
4.99732e-21
2.45056e-05
2.01471e-20
2.45056e-05
1.12055e-20
2.45056e-05
-1.27225e-20
2.45056e-05
-1.56371e-20
2.45056e-05
-2.79346e-20
2.45056e-05
-1.08018e-20
2.45056e-05
2.65916e-20
2.45056e-05
-1.45658e-20
2.45056e-05
-3.98091e-20
2.45056e-05
-2.73678e-20
2.45056e-05
1.19053e-20
2.45056e-05
4.00395e-20
2.45056e-05
-2.19147e-21
2.45056e-05
-1.20763e-20
2.45056e-05
-4.87294e-21
2.45056e-05
-1.75312e-20
2.45056e-05
2.89614e-20
2.45056e-05
-1.00826e-20
2.45056e-05
-3.30647e-20
2.45056e-05
9.8164e-21
2.45056e-05
-2.49733e-21
2.45056e-05
2.15178e-20
2.45056e-05
1.48484e-20
2.45056e-05
-2.04877e-20
2.45056e-05
2.52442e-20
2.45056e-05
-2.47295e-21
2.45056e-05
1.1591e-21
2.45056e-05
-6.69241e-21
2.45056e-05
-1.61121e-20
2.45056e-05
-1.79704e-20
2.45056e-05
-3.98012e-20
2.45056e-05
1.66966e-20
2.45056e-05
-1.33552e-20
2.45056e-05
-1.88386e-20
2.45056e-05
1.81886e-20
2.45056e-05
-4.74742e-20
2.45056e-05
4.23578e-21
2.45056e-05
-6.41783e-21
2.45056e-05
-1.06472e-20
2.45056e-05
2.4669e-20
2.45056e-05
-6.58405e-20
2.45056e-05
3.91593e-20
2.45056e-05
5.19827e-21
2.45056e-05
-2.59362e-21
2.45056e-05
5.66093e-20
2.45056e-05
-3.65326e-20
2.45056e-05
2.40303e-20
2.45056e-05
1.92879e-20
2.45056e-05
1.54119e-20
2.45056e-05
3.64377e-20
2.45056e-05
-7.80932e-21
2.45056e-05
9.45756e-22
2.45056e-05
-1.40862e-20
2.45056e-05
-1.46328e-21
2.45056e-05
6.92699e-20
2.45056e-05
-5.00359e-20
2.45056e-05
-6.3976e-20
2.45056e-05
3.03228e-20
2.45056e-05
-3.61983e-20
2.45056e-05
2.0958e-20
2.45056e-05
-2.22211e-20
2.45056e-05
-6.79937e-20
2.45056e-05
2.6359e-20
2.45056e-05
3.46034e-20
2.45056e-05
3.24456e-20
2.45056e-05
-9.15699e-21
2.45056e-05
-1.49567e-20
2.45056e-05
6.77394e-21
2.45056e-05
3.49799e-20
2.45056e-05
7.98766e-20
2.45056e-05
-3.22731e-20
2.45056e-05
-6.46664e-20
2.45056e-05
2.87023e-20
2.45056e-05
4.92049e-20
2.45056e-05
7.54539e-21
2.45056e-05
-3.66016e-20
2.45056e-05
2.94554e-20
2.45056e-05
-7.55185e-22
2.45056e-05
2.1161e-20
2.45056e-05
1.96773e-20
2.45056e-05
-6.99318e-20
2.45056e-05
1.38027e-20
2.45056e-05
-3.91735e-20
2.45056e-05
1.32197e-20
2.45056e-05
3.66983e-20
2.45056e-05
1.25395e-20
2.45056e-05
-5.31046e-20
2.45056e-05
-8.67101e-21
2.45056e-05
7.61427e-20
2.45056e-05
3.98898e-20
2.45056e-05
2.43112e-20
2.45056e-05
-1.59991e-19
2.45056e-05
2.04263e-20
2.45056e-05
1.11206e-19
2.45056e-05
2.36486e-20
2.45056e-05
-2.15477e-20
2.45056e-05
-1.21011e-19
2.45056e-05
-8.23187e-21
2.45056e-05
1.10718e-19
2.45056e-05
2.14748e-20
2.45056e-05
-7.07369e-20
2.45056e-05
-1.20189e-19
2.45056e-05
-1.22149e-20
2.45056e-05
1.4295e-19
2.45056e-05
5.15834e-20
2.45056e-05
-6.51072e-20
2.45056e-05
-1.24462e-19
2.45056e-05
2.55926e-20
2.45056e-05
1.52636e-19
2.45056e-05
1.61882e-20
2.45056e-05
-4.81764e-20
2.45056e-05
-7.84055e-20
2.45056e-05
2.09295e-20
2.45056e-05
8.55638e-20
2.45056e-05
-2.1154e-20
2.45056e-05
-3.99265e-20
2.45056e-05
-9.11587e-20
2.45056e-05
-1.47089e-20
2.45056e-05
8.53021e-20
2.45056e-05
-1.02759e-20
2.45056e-05
-3.96919e-20
2.45056e-05
-7.41575e-20
2.45056e-05
3.6974e-20
2.45056e-05
6.26211e-20
2.45056e-05
-1.68731e-20
2.45056e-05
7.87041e-22
2.45056e-05
-5.97116e-20
2.45056e-05
2.37582e-20
2.45056e-05
3.90546e-21
2.45056e-05
-1.14552e-20
2.45056e-05
7.30134e-20
2.45056e-05
-9.27576e-20
2.45056e-05
-7.23501e-20
2.45056e-05
4.68991e-20
2.45056e-05
4.62759e-20
2.45056e-05
5.65345e-20
2.45056e-05
-5.07182e-20
2.45056e-05
-5.91511e-20
2.45056e-05
5.15711e-20
2.45056e-05
3.70333e-20
2.45056e-05
8.95258e-20
2.45056e-05
-9.00382e-20
2.45056e-05
-1.62995e-20
2.45056e-05
1.11866e-19
2.45056e-05
-8.90683e-20
2.45056e-05
4.76279e-20
2.45056e-05
7.74554e-21
2.45056e-05
-3.75661e-20
2.45056e-05
9.45873e-20
2.45056e-05
1.85691e-20
2.45056e-05
2.98412e-20
2.45056e-05
-7.2025e-20
2.45056e-05
3.19468e-20
2.45056e-05
7.89261e-20
2.45056e-05
-3.07996e-20
2.45056e-05
-3.44824e-20
2.45056e-05
-8.02656e-20
2.45056e-05
9.395e-20
2.45056e-05
-2.89364e-20
2.45056e-05
-1.49939e-20
2.45056e-05
9.46564e-20
2.45056e-05
-1.68455e-19
2.45056e-05
-7.08371e-23
2.45056e-05
7.17305e-20
2.45056e-05
-3.55927e-20
2.45056e-05
1.04936e-19
2.45056e-05
-1.02555e-19
2.45056e-05
-1.23599e-20
2.45056e-05
9.64927e-20
2.45056e-05
-9.32468e-20
2.45056e-05
3.88818e-20
2.45056e-05
-1.59321e-20
2.45056e-05
-7.85155e-20
2.45056e-05
1.18523e-19
2.45056e-05
-2.18798e-20
2.45056e-05
1.13992e-20
2.45056e-05
-6.72946e-20
2.45056e-05
-3.26899e-20
2.45056e-05
1.42301e-19
2.45056e-05
-8.70238e-20
2.45056e-05
1.06623e-20
2.45056e-05
-6.70625e-20
2.45056e-05
1.02185e-20
2.45056e-05
1.56632e-19
2.45056e-05
-6.37313e-20
2.45056e-05
-7.88993e-20
2.45056e-05
-5.41577e-20
2.45056e-05
6.72886e-20
2.45056e-05
9.15504e-20
2.45056e-05
-2.2434e-20
2.45056e-05
-6.22666e-20
2.45056e-05
-8.76034e-20
2.45056e-05
2.4095e-19
2.45056e-05
1.20417e-20
2.45056e-05
-2.32781e-19
2.45056e-05
1.92891e-19
2.45056e-05
-2.79319e-22
2.45056e-05
-5.31278e-20
2.45056e-05
-3.97663e-20
2.45056e-05
-1.46365e-19
2.45056e-05
2.55068e-19
2.45056e-05
3.39428e-20
2.45056e-05
-1.03905e-19
2.45056e-05
-3.40904e-20
2.45056e-05
-1.57819e-19
2.45056e-05
2.4501e-19
2.45056e-05
-1.25538e-20
2.45056e-05
-1.15953e-19
2.45056e-05
4.8348e-20
2.45056e-05
-9.27837e-20
2.45056e-05
1.93526e-19
2.45056e-05
-2.22365e-20
2.45056e-05
-2.82861e-20
2.45056e-05
7.92535e-20
2.45056e-05
-1.7705e-19
2.45056e-05
7.05315e-20
2.45056e-05
2.06066e-20
2.45056e-05
6.98665e-20
2.45056e-05
1.09168e-19
2.45056e-05
-2.06842e-19
2.45056e-05
8.68677e-20
2.45056e-05
-6.23866e-20
2.45056e-05
1.5558e-20
2.45056e-05
1.31333e-19
2.45056e-05
-2.71097e-19
2.45056e-05
3.61877e-20
2.45056e-05
6.82148e-20
2.45056e-05
7.79722e-20
2.45056e-05
1.73485e-20
2.45056e-05
-2.12584e-19
2.45056e-05
2.01895e-19
2.45056e-05
-2.34966e-20
2.45056e-05
-1.24139e-19
2.45056e-05
-1.44953e-20
2.45056e-05
-1.42816e-19
2.45056e-05
2.70989e-19
2.45056e-05
-2.22336e-20
2.45056e-05
-5.18909e-20
2.45056e-05
9.67723e-20
2.45056e-05
-1.89188e-19
2.45056e-05
1.0798e-19
2.45056e-05
2.0145e-20
2.45056e-05
-1.71006e-20
2.45056e-05
2.8278e-20
2.45056e-05
-1.18986e-19
2.45056e-05
1.949e-19
2.45056e-05
5.66705e-21
2.45056e-05
-4.07596e-20
2.45056e-05
-2.44364e-21
2.45056e-05
-1.61935e-19
2.45056e-05
1.25244e-19
2.45056e-05
6.90841e-21
2.45056e-05
4.83891e-21
2.45056e-05
2.65524e-21
2.45056e-05
-1.55813e-19
2.45056e-05
1.10378e-19
2.45056e-05
1.39765e-20
2.45056e-05
-4.92198e-20
2.45056e-05
9.15215e-20
2.45056e-05
-1.38211e-19
2.45056e-05
6.40782e-20
2.45056e-05
3.86572e-20
2.45056e-05
-3.45844e-20
2.45056e-05
3.70318e-20
2.45056e-05
-1.36444e-19
2.45056e-05
6.35133e-20
2.45056e-05
1.0998e-19
2.45056e-05
-2.36674e-20
2.45056e-05
-9.9124e-20
2.45056e-05
-1.00698e-19
2.45056e-05
1.52328e-19
2.45056e-05
1.28384e-20
2.45056e-05
-5.80758e-20
2.45056e-05
-2.7264e-20
2.45056e-05
-3.19567e-20
2.45056e-05
1.41282e-19
2.45056e-05
6.18728e-21
2.45056e-05
-2.78947e-20
2.45056e-05
-8.82481e-20
2.45056e-05
-4.40272e-20
2.45056e-05
1.50344e-19
2.45056e-05
4.29652e-20
2.45056e-05
4.90974e-20
2.45056e-05
-1.18405e-19
2.45056e-05
-9.60976e-20
2.45056e-05
1.01457e-19
2.45056e-05
8.87541e-21
2.45056e-05
9.2354e-20
2.45056e-05
-1.12513e-19
2.45056e-05
1.09275e-20
2.45056e-05
7.90757e-20
2.45056e-05
-1.01426e-19
2.45056e-05
1.28545e-19
2.45056e-05
-1.13365e-20
2.45056e-05
-7.16264e-20
2.45056e-05
9.17028e-20
2.45056e-05
-2.85633e-20
2.45056e-05
1.66231e-19
2.45056e-05
1.49737e-19
6.08154e-19
7.22731e-05
2.63778e-18
7.22731e-05
8.8999e-19
7.22731e-05
2.70359e-19
7.22731e-05
1.27222e-19
7.22731e-05
7.95654e-20
7.22731e-05
7.0507e-20
7.22731e-05
4.65611e-20
7.22731e-05
3.7032e-20
7.22731e-05
5.34459e-20
7.22731e-05
2.50458e-20
7.22731e-05
1.10582e-20
7.22731e-05
2.94342e-20
7.22731e-05
1.09541e-19
7.22731e-05
4.77166e-20
7.22731e-05
-3.52713e-20
7.22731e-05
6.56352e-20
7.22731e-05
6.7713e-20
7.22731e-05
3.54219e-20
7.22731e-05
3.04435e-20
7.22731e-05
2.11083e-20
7.22731e-05
5.14796e-20
7.22731e-05
2.07498e-20
7.22731e-05
-4.16227e-20
7.22731e-05
-3.16618e-20
7.22731e-05
-6.87682e-20
7.22731e-05
-2.97203e-20
7.22731e-05
4.056e-20
7.22731e-05
-4.70811e-20
7.22731e-05
-1.14792e-19
7.22731e-05
-9.66705e-20
7.22731e-05
1.04796e-20
7.22731e-05
9.4387e-20
7.22731e-05
1.4863e-20
7.22731e-05
-1.37004e-20
7.22731e-05
-2.67167e-20
7.22731e-05
-4.43447e-20
7.22731e-05
6.4813e-20
7.22731e-05
-1.26589e-20
7.22731e-05
-6.24376e-20
7.22731e-05
3.00963e-21
7.22731e-05
-4.25317e-21
7.22731e-05
4.74755e-20
7.22731e-05
3.94769e-20
7.22731e-05
-3.71711e-20
7.22731e-05
3.51619e-20
7.22731e-05
1.95572e-20
7.22731e-05
-4.86947e-21
7.22731e-05
-4.19185e-20
7.22731e-05
-5.27584e-20
7.22731e-05
-5.55699e-20
7.22731e-05
-1.06173e-19
7.22731e-05
-1.22598e-20
7.22731e-05
-2.11511e-20
7.22731e-05
-4.80485e-20
7.22731e-05
2.27568e-20
7.22731e-05
-9.91958e-20
7.22731e-05
-1.47103e-20
7.22731e-05
-8.66116e-21
7.22731e-05
-9.39149e-21
7.22731e-05
1.87157e-20
7.22731e-05
-1.50519e-19
7.22731e-05
7.75651e-20
7.22731e-05
1.48677e-20
7.22731e-05
8.92281e-21
7.22731e-05
1.31414e-19
7.22731e-05
-4.96508e-20
7.22731e-05
9.03041e-20
7.22731e-05
6.42755e-20
7.22731e-05
7.04168e-20
7.22731e-05
1.04704e-19
7.22731e-05
-2.42435e-20
7.22731e-05
2.68865e-21
7.22731e-05
-4.13915e-20
7.22731e-05
3.08323e-20
7.22731e-05
1.2205e-19
7.22731e-05
-1.15533e-19
7.22731e-05
-1.25888e-19
7.22731e-05
2.09771e-20
7.22731e-05
-9.07945e-20
7.22731e-05
1.28604e-20
7.22731e-05
-7.04926e-20
7.22731e-05
-1.67827e-19
7.22731e-05
5.35633e-20
7.22731e-05
1.18607e-19
7.22731e-05
8.27664e-20
7.22731e-05
-5.11219e-21
7.22731e-05
-1.02905e-20
7.22731e-05
2.06521e-20
7.22731e-05
9.632e-20
7.22731e-05
1.90633e-19
7.22731e-05
-6.11267e-20
7.22731e-05
-1.20012e-19
7.22731e-05
6.61276e-20
7.22731e-05
9.34603e-20
7.22731e-05
2.61133e-20
7.22731e-05
-5.74836e-20
7.22731e-05
5.39983e-20
7.22731e-05
3.43202e-20
7.22731e-05
3.76526e-20
7.22731e-05
4.2436e-21
7.22731e-05
-1.17215e-19
7.22731e-05
-5.50758e-21
7.22731e-05
-9.8369e-20
7.22731e-05
1.7869e-20
7.22731e-05
9.615e-20
7.22731e-05
7.40888e-20
7.22731e-05
-1.34412e-19
7.22731e-05
-6.97675e-20
7.22731e-05
2.24056e-19
7.22731e-05
1.84214e-19
7.22731e-05
6.92246e-21
7.22731e-05
-3.47643e-19
7.22731e-05
1.78969e-20
7.22731e-05
2.46207e-19
7.22731e-05
9.74425e-20
7.22731e-05
-4.90524e-20
7.22731e-05
-2.89535e-19
7.22731e-05
-6.85867e-20
7.22731e-05
2.65103e-19
7.22731e-05
9.17267e-20
7.22731e-05
-2.14645e-19
7.22731e-05
-3.12867e-19
7.22731e-05
-5.08292e-20
7.22731e-05
3.14836e-19
7.22731e-05
1.7368e-19
7.22731e-05
-1.71333e-19
7.22731e-05
-3.19903e-19
7.22731e-05
1.07808e-19
7.22731e-05
3.73942e-19
7.22731e-05
6.27655e-20
7.22731e-05
-1.13046e-19
7.22731e-05
-2.02269e-19
7.22731e-05
4.66913e-20
7.22731e-05
1.99046e-19
7.22731e-05
-4.87307e-20
7.22731e-05
-1.1987e-19
7.22731e-05
-2.46054e-19
7.22731e-05
-7.49428e-20
7.22731e-05
1.8912e-19
7.22731e-05
-6.73458e-21
7.22731e-05
-1.19599e-19
7.22731e-05
-1.85134e-19
7.22731e-05
7.49893e-20
7.22731e-05
1.40768e-19
7.22731e-05
-6.51985e-21
7.22731e-05
-4.05116e-20
7.22731e-05
-1.63776e-19
7.22731e-05
7.08333e-20
7.22731e-05
3.26061e-20
7.22731e-05
-5.55296e-20
7.22731e-05
1.30057e-19
7.22731e-05
-1.84713e-19
7.22731e-05
-1.52478e-19
7.22731e-05
8.59264e-20
7.22731e-05
1.15551e-19
7.22731e-05
1.28841e-19
7.22731e-05
-8.33018e-20
7.22731e-05
-1.00223e-19
7.22731e-05
1.10258e-19
7.22731e-05
1.52525e-19
7.22731e-05
1.95505e-19
7.22731e-05
-1.60458e-19
7.22731e-05
-2.11047e-20
7.22731e-05
2.26824e-19
7.22731e-05
-1.4043e-19
7.22731e-05
5.60458e-20
7.22731e-05
3.17059e-20
7.22731e-05
-1.06271e-20
7.22731e-05
2.03234e-19
7.22731e-05
1.0106e-19
7.22731e-05
4.17641e-20
7.22731e-05
-1.26117e-19
7.22731e-05
6.92255e-20
7.22731e-05
1.79034e-19
7.22731e-05
-1.24687e-20
7.22731e-05
-1.44085e-19
7.22731e-05
-1.64957e-19
7.22731e-05
1.274e-19
7.22731e-05
-4.35303e-20
7.22731e-05
5.12004e-20
7.22731e-05
1.12743e-19
7.22731e-05
-3.70719e-19
7.22731e-05
-3.93039e-20
7.22731e-05
1.52972e-19
7.22731e-05
2.15871e-21
7.22731e-05
1.69537e-19
7.22731e-05
-2.26409e-19
7.22731e-05
-4.52843e-20
7.22731e-05
1.89607e-19
7.22731e-05
-1.21188e-19
7.22731e-05
2.63961e-20
7.22731e-05
-5.20054e-20
7.22731e-05
-1.34199e-19
7.22731e-05
1.94419e-19
7.22731e-05
2.72824e-20
7.22731e-05
1.23279e-20
7.22731e-05
-1.27126e-19
7.22731e-05
-5.61189e-20
7.22731e-05
1.95245e-19
7.22731e-05
-1.14361e-19
7.22731e-05
-2.5024e-20
7.22731e-05
-1.1762e-19
7.22731e-05
6.28351e-20
7.22731e-05
2.3927e-19
7.22731e-05
-8.58656e-20
7.22731e-05
-1.56833e-19
7.22731e-05
-1.43607e-19
7.22731e-05
1.24835e-19
7.22731e-05
1.55394e-19
7.22731e-05
-1.40821e-20
7.22731e-05
-7.68637e-20
7.22731e-05
-1.61366e-19
7.22731e-05
4.85979e-19
7.22731e-05
4.18804e-20
7.22731e-05
-4.41736e-19
7.22731e-05
3.54877e-19
7.22731e-05
-2.96165e-20
7.22731e-05
-3.4011e-20
7.22731e-05
-1.28715e-19
7.22731e-05
-3.31129e-19
7.22731e-05
5.43788e-19
7.22731e-05
6.61545e-20
7.22731e-05
-1.71955e-19
7.22731e-05
-1.21659e-19
7.22731e-05
-3.58208e-19
7.22731e-05
5.16342e-19
7.22731e-05
3.55695e-21
7.22731e-05
-2.42555e-19
7.22731e-05
6.83749e-20
7.22731e-05
-1.66933e-19
7.22731e-05
4.39215e-19
7.22731e-05
2.01524e-20
7.22731e-05
-5.63875e-20
7.22731e-05
1.1263e-19
7.22731e-05
-3.88318e-19
7.22731e-05
1.25448e-19
7.22731e-05
7.12631e-20
7.22731e-05
2.61314e-19
7.22731e-05
2.59986e-19
7.22731e-05
-4.6277e-19
7.22731e-05
1.31203e-19
7.22731e-05
-1.36772e-19
7.22731e-05
7.80052e-20
7.22731e-05
2.18192e-19
7.22731e-05
-6.29392e-19
7.22731e-05
9.19714e-20
7.22731e-05
1.6386e-19
7.22731e-05
1.8107e-19
7.22731e-05
3.4355e-20
7.22731e-05
-4.64624e-19
7.22731e-05
4.29482e-19
7.22731e-05
-4.07103e-20
7.22731e-05
-3.26674e-19
7.22731e-05
-1.62661e-19
7.22731e-05
-2.63763e-19
7.22731e-05
6.55331e-19
7.22731e-05
-1.59981e-20
7.22731e-05
-1.06728e-19
7.22731e-05
1.88207e-19
7.22731e-05
-4.02081e-19
7.22731e-05
2.22615e-19
7.22731e-05
4.57571e-20
7.22731e-05
1.23189e-20
7.22731e-05
6.42831e-20
7.22731e-05
-2.36616e-19
7.22731e-05
4.4672e-19
7.22731e-05
2.85537e-21
7.22731e-05
-8.52777e-20
7.22731e-05
-4.22873e-20
7.22731e-05
-3.82138e-19
7.22731e-05
2.81226e-19
7.22731e-05
3.23519e-20
7.22731e-05
3.87556e-20
7.22731e-05
-2.39899e-20
7.22731e-05
-4.00591e-19
7.22731e-05
2.75163e-19
7.22731e-05
7.80436e-21
7.22731e-05
-3.38084e-20
7.22731e-05
1.59109e-19
7.22731e-05
-3.76838e-19
7.22731e-05
1.97852e-19
7.22731e-05
4.58638e-20
7.22731e-05
-2.36501e-20
7.22731e-05
7.18075e-20
7.22731e-05
-3.78456e-19
7.22731e-05
2.27784e-19
7.22731e-05
2.35087e-19
7.22731e-05
-1.12819e-19
7.22731e-05
-2.20578e-19
7.22731e-05
-2.38325e-19
7.22731e-05
3.59728e-19
7.22731e-05
2.12935e-20
7.22731e-05
-1.75974e-19
7.22731e-05
-2.73821e-21
7.22731e-05
-1.04982e-19
7.22731e-05
2.99307e-19
7.22731e-05
1.44433e-19
7.22731e-05
-1.4576e-19
7.22731e-05
-1.54617e-19
7.22731e-05
-1.49886e-19
7.22731e-05
3.34557e-19
7.22731e-05
2.29922e-19
7.22731e-05
7.30194e-20
7.22731e-05
-2.93303e-19
7.22731e-05
-2.25908e-19
7.22731e-05
2.60628e-19
7.22731e-05
5.57251e-20
7.22731e-05
1.04506e-19
7.22731e-05
-2.11016e-19
7.22731e-05
1.1449e-20
7.22731e-05
1.76445e-19
7.22731e-05
-1.81289e-19
7.22731e-05
2.15977e-19
7.22731e-05
1.69212e-20
7.22731e-05
-1.51114e-19
7.22731e-05
9.93263e-20
7.22731e-05
-5.37351e-20
7.22731e-05
3.73883e-19
7.22731e-05
2.9248e-19
6.92095e-19
0.000118775
1.89668e-18
0.000118775
8.28063e-19
0.000118775
3.22488e-19
0.000118775
1.65783e-19
0.000118775
1.24024e-19
0.000118775
9.76278e-20
0.000118775
7.70702e-20
0.000118775
6.51212e-20
0.000118775
1.10417e-19
0.000118775
8.16326e-20
0.000118775
1.53151e-20
0.000118775
6.09212e-20
0.000118775
1.65899e-19
0.000118775
7.93193e-20
0.000118775
-8.55975e-21
0.000118775
1.16058e-19
0.000118775
1.20359e-19
0.000118775
9.58845e-20
0.000118775
5.977e-20
0.000118775
7.56266e-20
0.000118775
8.95394e-20
0.000118775
1.8508e-20
0.000118775
-7.58837e-20
0.000118775
-7.87448e-20
0.000118775
-1.05721e-19
0.000118775
-6.70141e-20
0.000118775
1.91856e-20
0.000118775
-1.09301e-19
0.000118775
-2.10155e-19
0.000118775
-1.29648e-19
0.000118775
-3.18574e-22
0.000118775
1.38544e-19
0.000118775
2.92857e-20
0.000118775
-2.43499e-20
0.000118775
-2.87426e-20
0.000118775
-4.29253e-20
0.000118775
6.6285e-20
0.000118775
-2.01422e-20
0.000118775
-1.1479e-19
0.000118775
1.1625e-20
0.000118775
2.33034e-20
0.000118775
6.41606e-20
0.000118775
8.32473e-20
0.000118775
-3.68035e-20
0.000118775
1.21075e-20
0.000118775
1.41312e-20
0.000118775
-1.8947e-21
0.000118775
-6.08088e-20
0.000118775
-1.01537e-19
0.000118775
-1.10531e-19
0.000118775
-1.87395e-19
0.000118775
-8.32095e-20
0.000118775
-4.83273e-20
0.000118775
-7.70266e-20
0.000118775
1.19296e-20
0.000118775
-1.61383e-19
0.000118775
-4.95866e-20
0.000118775
-1.28826e-20
0.000118775
-1.97953e-20
0.000118775
8.20906e-21
0.000118775
-2.2143e-19
0.000118775
1.26848e-19
0.000118775
2.98692e-20
0.000118775
2.82024e-20
0.000118775
2.11234e-19
0.000118775
-5.44775e-20
0.000118775
1.43025e-19
0.000118775
1.43189e-19
0.000118775
1.52257e-19
0.000118775
2.05895e-19
0.000118775
-1.62427e-20
0.000118775
1.04657e-20
0.000118775
-3.66356e-20
0.000118775
6.37579e-20
0.000118775
1.37272e-19
0.000118775
-2.01499e-19
0.000118775
-2.06947e-19
0.000118775
-3.07755e-20
0.000118775
-1.18358e-19
0.000118775
-5.21801e-21
0.000118775
-1.38712e-19
0.000118775
-2.31219e-19
0.000118775
3.46984e-20
0.000118775
2.18289e-19
0.000118775
1.54696e-19
0.000118775
-7.89343e-21
0.000118775
3.23577e-20
0.000118775
5.26358e-20
0.000118775
1.1885e-19
0.000118775
2.97649e-19
0.000118775
-1.72836e-20
0.000118775
-1.02886e-19
0.000118775
6.10938e-20
0.000118775
1.32649e-19
0.000118775
5.41143e-20
0.000118775
-5.7721e-20
0.000118775
1.0528e-19
0.000118775
6.86981e-20
0.000118775
4.1701e-21
0.000118775
-8.39169e-21
0.000118775
-1.33568e-19
0.000118775
-7.26795e-20
0.000118775
-1.18573e-19
0.000118775
2.99733e-21
0.000118775
1.64689e-19
0.000118775
1.22547e-19
0.000118775
-1.80341e-19
0.000118775
-1.33003e-19
0.000118775
3.68249e-19
0.000118775
3.42747e-19
0.000118775
-3.83529e-20
0.000118775
-4.98433e-19
0.000118775
-1.84398e-21
0.000118775
3.7754e-19
0.000118775
2.01335e-19
0.000118775
-4.01792e-20
0.000118775
-4.56098e-19
0.000118775
-1.63119e-19
0.000118775
4.14069e-19
0.000118775
1.51331e-19
0.000118775
-3.9498e-19
0.000118775
-5.36433e-19
0.000118775
-9.84317e-20
0.000118775
4.99981e-19
0.000118775
2.8909e-19
0.000118775
-2.57096e-19
0.000118775
-4.91183e-19
0.000118775
1.79928e-19
0.000118775
5.7367e-19
0.000118775
1.15394e-19
0.000118775
-1.79316e-19
0.000118775
-2.93224e-19
0.000118775
2.43054e-20
0.000118775
2.94352e-19
0.000118775
-4.64689e-20
0.000118775
-2.44215e-19
0.000118775
-4.11362e-19
0.000118775
-1.40835e-19
0.000118775
2.62472e-19
0.000118775
7.33847e-21
0.000118775
-2.50973e-19
0.000118775
-3.15689e-19
0.000118775
1.02293e-19
0.000118775
2.00593e-19
0.000118775
-1.26983e-20
0.000118775
-8.6655e-20
0.000118775
-2.37401e-19
0.000118775
1.17482e-19
0.000118775
5.69842e-20
0.000118775
-1.12979e-19
0.000118775
1.48166e-19
0.000118775
-2.26385e-19
0.000118775
-2.2105e-19
0.000118775
7.49651e-20
0.000118775
1.85811e-19
0.000118775
2.06797e-19
0.000118775
-1.10562e-19
0.000118775
-1.28062e-19
0.000118775
2.03281e-19
0.000118775
2.8418e-19
0.000118775
3.00311e-19
0.000118775
-1.70703e-19
0.000118775
8.72334e-21
0.000118775
3.36197e-19
0.000118775
-1.38869e-19
0.000118775
8.4556e-20
0.000118775
5.87302e-20
0.000118775
1.18204e-19
0.000118775
2.83928e-19
0.000118775
1.56845e-19
0.000118775
7.9899e-20
0.000118775
-1.63992e-19
0.000118775
1.47773e-19
0.000118775
3.40944e-19
0.000118775
-4.3853e-20
0.000118775
-2.64641e-19
0.000118775
-2.68498e-19
0.000118775
7.99969e-20
0.000118775
-3.07475e-20
0.000118775
1.62607e-19
0.000118775
8.89655e-20
0.000118775
-5.77643e-19
0.000118775
-6.38321e-20
0.000118775
2.51172e-19
0.000118775
1.98443e-20
0.000118775
1.35392e-19
0.000118775
-2.95243e-19
0.000118775
-3.31953e-20
0.000118775
2.49932e-19
0.000118775
-1.33085e-19
0.000118775
-2.60418e-20
0.000118775
-8.72356e-20
0.000118775
-1.41818e-19
0.000118775
2.1557e-19
0.000118775
1.26785e-19
0.000118775
7.40684e-21
0.000118775
-1.65163e-19
0.000118775
-9.35539e-20
0.000118775
1.64883e-19
0.000118775
-8.63972e-20
0.000118775
-5.33131e-20
0.000118775
-1.53514e-19
0.000118775
1.29594e-19
0.000118775
2.71053e-19
0.000118775
-9.167e-20
0.000118775
-1.98487e-19
0.000118775
-1.84744e-19
0.000118775
1.40273e-19
0.000118775
1.8319e-19
0.000118775
9.34705e-21
0.000118775
-2.99613e-20
0.000118775
-2.33529e-19
0.000118775
6.40925e-19
0.000118775
1.03436e-19
0.000118775
-4.84724e-19
0.000118775
4.15268e-19
0.000118775
-9.7511e-20
0.000118775
-6.23446e-21
0.000118775
-2.1465e-19
0.000118775
-4.69552e-19
0.000118775
7.02654e-19
0.000118775
8.33346e-20
0.000118775
-1.73264e-19
0.000118775
-1.75139e-19
0.000118775
-5.52961e-19
0.000118775
6.70013e-19
0.000118775
6.55537e-20
0.000118775
-3.39439e-19
0.000118775
7.76696e-20
0.000118775
-1.99128e-19
0.000118775
6.72275e-19
0.000118775
8.90962e-20
0.000118775
-1.21381e-19
0.000118775
1.01526e-19
0.000118775
-5.02855e-19
0.000118775
1.77214e-19
0.000118775
8.59044e-20
0.000118775
4.86423e-19
0.000118775
4.05339e-19
0.000118775
-6.36268e-19
0.000118775
1.3277e-19
0.000118775
-2.42646e-19
0.000118775
1.23283e-19
0.000118775
2.65104e-19
0.000118775
-9.33933e-19
0.000118775
1.30946e-19
0.000118775
1.98091e-19
0.000118775
2.39761e-19
0.000118775
6.22575e-20
0.000118775
-5.91687e-19
0.000118775
6.16103e-19
0.000118775
-1.04337e-19
0.000118775
-5.91593e-19
0.000118775
-3.47221e-19
0.000118775
-3.17717e-19
0.000118775
9.66153e-19
0.000118775
3.58601e-20
0.000118775
-1.02974e-19
0.000118775
2.63582e-19
0.000118775
-5.58401e-19
0.000118775
2.46797e-19
0.000118775
7.54474e-20
0.000118775
1.00543e-19
0.000118775
6.58105e-20
0.000118775
-2.9226e-19
0.000118775
6.88162e-19
0.000118775
-2.08076e-20
0.000118775
-1.29179e-19
0.000118775
-9.41379e-20
0.000118775
-5.99191e-19
0.000118775
4.28104e-19
0.000118775
5.72812e-20
0.000118775
3.69546e-20
0.000118775
-6.38365e-20
0.000118775
-5.99083e-19
0.000118775
4.27134e-19
0.000118775
-3.50323e-22
0.000118775
2.01458e-20
0.000118775
1.945e-19
0.000118775
-5.97103e-19
0.000118775
2.91637e-19
0.000118775
2.30581e-20
0.000118775
-8.24207e-21
0.000118775
1.15867e-19
0.000118775
-6.12834e-19
0.000118775
3.90268e-19
0.000118775
3.306e-19
0.000118775
-2.17875e-19
0.000118775
-3.2059e-19
0.000118775
-3.57613e-19
0.000118775
4.91696e-19
0.000118775
2.72651e-20
0.000118775
-2.50552e-19
0.000118775
5.88953e-20
0.000118775
-1.98616e-19
0.000118775
4.02603e-19
0.000118775
2.98908e-19
0.000118775
-2.52761e-19
0.000118775
-2.10907e-19
0.000118775
-2.32679e-19
0.000118775
4.83341e-19
0.000118775
4.82522e-19
0.000118775
6.1942e-20
0.000118775
-4.50353e-19
0.000118775
-3.45934e-19
0.000118775
4.39137e-19
0.000118775
1.02797e-19
0.000118775
6.29542e-20
0.000118775
-2.53564e-19
0.000118775
-1.16736e-20
0.000118775
3.46737e-19
0.000118775
-2.50415e-19
0.000118775
1.64484e-19
0.000118775
8.34129e-20
0.000118775
-2.2971e-19
0.000118775
1.01177e-19
0.000118775
-5.30373e-20
0.000118775
5.28077e-19
0.000118775
3.71212e-19
5.51882e-19
0.000163986
1.32117e-18
0.000163986
6.94973e-19
0.000163986
3.48695e-19
0.000163986
2.19041e-19
0.000163986
1.23673e-19
0.000163986
1.20286e-19
0.000163986
1.08966e-19
0.000163986
1.25952e-19
0.000163986
1.66167e-19
0.000163986
5.72592e-20
0.000163986
5.24351e-20
0.000163986
1.54108e-19
0.000163986
2.13416e-19
0.000163986
1.20054e-19
0.000163986
9.43709e-21
0.000163986
1.46445e-19
0.000163986
2.35987e-19
0.000163986
2.07245e-19
0.000163986
1.55603e-19
0.000163986
1.11186e-19
0.000163986
1.0003e-19
0.000163986
1.80185e-20
0.000163986
-1.1325e-19
0.000163986
-1.65887e-19
0.000163986
-1.27305e-19
0.000163986
-1.08484e-19
0.000163986
-1.01009e-20
0.000163986
-1.52579e-19
0.000163986
-3.07947e-19
0.000163986
-2.35821e-19
0.000163986
2.10102e-20
0.000163986
1.60811e-19
0.000163986
3.1636e-20
0.000163986
-3.94247e-20
0.000163986
-3.15404e-20
0.000163986
-6.771e-20
0.000163986
5.52749e-20
0.000163986
-4.35937e-20
0.000163986
-1.13772e-19
0.000163986
1.30029e-21
0.000163986
1.66817e-20
0.000163986
1.09712e-19
0.000163986
1.17236e-19
0.000163986
-7.27121e-20
0.000163986
3.4997e-20
0.000163986
3.50922e-20
0.000163986
-2.14129e-20
0.000163986
-6.61689e-20
0.000163986
-1.65047e-19
0.000163986
-1.91589e-19
0.000163986
-2.45075e-19
0.000163986
-1.85644e-19
0.000163986
-1.13e-19
0.000163986
-1.25294e-19
0.000163986
-5.45652e-21
0.000163986
-2.13208e-19
0.000163986
-1.00524e-19
0.000163986
-4.65797e-20
0.000163986
-6.3204e-20
0.000163986
-1.8529e-20
0.000163986
-2.49524e-19
0.000163986
1.58786e-19
0.000163986
6.55907e-20
0.000163986
6.69961e-20
0.000163986
2.43698e-19
0.000163986
-7.25665e-22
0.000163986
2.10978e-19
0.000163986
1.88735e-19
0.000163986
2.82766e-19
0.000163986
2.69292e-19
0.000163986
-1.32673e-20
0.000163986
2.81584e-20
0.000163986
5.96401e-22
0.000163986
1.08445e-19
0.000163986
1.35752e-19
0.000163986
-2.78322e-19
0.000163986
-2.52516e-19
0.000163986
-1.04662e-19
0.000163986
-1.80288e-19
0.000163986
-4.94807e-20
0.000163986
-2.01393e-19
0.000163986
-3.01564e-19
0.000163986
4.92222e-20
0.000163986
3.51042e-19
0.000163986
2.55176e-19
0.000163986
-1.38884e-20
0.000163986
4.18568e-20
0.000163986
1.00461e-19
0.000163986
1.46826e-19
0.000163986
4.05049e-19
0.000163986
3.72104e-20
0.000163986
-9.54321e-20
0.000163986
8.75089e-20
0.000163986
1.35736e-19
0.000163986
1.1761e-19
0.000163986
-4.93661e-20
0.000163986
1.08058e-19
0.000163986
1.05775e-19
0.000163986
3.79351e-20
0.000163986
-3.60391e-20
0.000163986
-1.69857e-19
0.000163986
-1.39347e-19
0.000163986
-1.51045e-19
0.000163986
5.67375e-20
0.000163986
2.17978e-19
0.000163986
1.53322e-19
0.000163986
-2.22633e-19
0.000163986
-1.8235e-19
0.000163986
4.47333e-19
0.000163986
5.17723e-19
0.000163986
2.17836e-20
0.000163986
-6.11208e-19
0.000163986
-5.66301e-20
0.000163986
4.76485e-19
0.000163986
2.88731e-19
0.000163986
-5.61928e-20
0.000163986
-5.51102e-19
0.000163986
-2.46011e-19
0.000163986
4.97209e-19
0.000163986
1.86347e-19
0.000163986
-5.8817e-19
0.000163986
-7.69387e-19
0.000163986
-1.5062e-19
0.000163986
6.06557e-19
0.000163986
4.38478e-19
0.000163986
-3.0986e-19
0.000163986
-5.93011e-19
0.000163986
2.09145e-19
0.000163986
7.43371e-19
0.000163986
1.73501e-19
0.000163986
-2.52947e-19
0.000163986
-3.8364e-19
0.000163986
1.02344e-20
0.000163986
3.596e-19
0.000163986
-3.00802e-20
0.000163986
-3.73333e-19
0.000163986
-5.89382e-19
0.000163986
-2.23242e-19
0.000163986
3.00654e-19
0.000163986
-7.31403e-21
0.000163986
-3.50457e-19
0.000163986
-4.13125e-19
0.000163986
6.97491e-20
0.000163986
2.4786e-19
0.000163986
-5.98124e-20
0.000163986
-1.15437e-19
0.000163986
-2.98276e-19
0.000163986
7.11682e-20
0.000163986
5.31313e-20
0.000163986
-9.71043e-20
0.000163986
1.82706e-19
0.000163986
-2.46833e-19
0.000163986
-2.84581e-19
0.000163986
6.4065e-20
0.000163986
2.32253e-19
0.000163986
2.55597e-19
0.000163986
-1.05641e-19
0.000163986
-6.60966e-20
0.000163986
2.71917e-19
0.000163986
4.40951e-19
0.000163986
3.94288e-19
0.000163986
-1.6168e-19
0.000163986
7.66242e-20
0.000163986
4.21929e-19
0.000163986
-8.39604e-20
0.000163986
1.42471e-19
0.000163986
1.43705e-19
0.000163986
2.30365e-19
0.000163986
3.87597e-19
0.000163986
2.32622e-19
0.000163986
9.69354e-20
0.000163986
-2.38427e-19
0.000163986
2.97199e-19
0.000163986
4.84843e-19
0.000163986
-1.06803e-19
0.000163986
-3.34055e-19
0.000163986
-3.76047e-19
0.000163986
-5.42832e-20
0.000163986
-5.17017e-20
0.000163986
2.98915e-19
0.000163986
7.37781e-20
0.000163986
-7.51655e-19
0.000163986
-1.11657e-19
0.000163986
3.29309e-19
0.000163986
9.27025e-20
0.000163986
6.96447e-20
0.000163986
-3.87371e-19
0.000163986
-5.41037e-21
0.000163986
2.93542e-19
0.000163986
-1.70734e-19
0.000163986
-1.19485e-19
0.000163986
-8.97612e-20
0.000163986
-8.42539e-20
0.000163986
2.33058e-19
0.000163986
2.0422e-19
0.000163986
8.78798e-20
0.000163986
-2.47673e-19
0.000163986
-1.18349e-19
0.000163986
1.59153e-19
0.000163986
-1.0955e-19
0.000163986
-1.24083e-19
0.000163986
-1.14758e-19
0.000163986
1.61348e-19
0.000163986
2.7605e-19
0.000163986
-6.46956e-20
0.000163986
-2.51294e-19
0.000163986
-2.66225e-19
0.000163986
1.39291e-19
0.000163986
2.03927e-19
0.000163986
1.0828e-19
0.000163986
4.88173e-20
0.000163986
-2.47043e-19
0.000163986
6.91532e-19
0.000163986
1.22343e-19
0.000163986
-4.90118e-19
0.000163986
4.84617e-19
0.000163986
-1.61365e-19
0.000163986
-3.77179e-21
0.000163986
-2.49429e-19
0.000163986
-5.68488e-19
0.000163986
8.05329e-19
0.000163986
3.85476e-20
0.000163986
-1.24845e-19
0.000163986
-1.79458e-19
0.000163986
-7.19466e-19
0.000163986
7.14152e-19
0.000163986
8.21245e-20
0.000163986
-2.98508e-19
0.000163986
4.37944e-20
0.000163986
-1.67641e-19
0.000163986
8.5967e-19
0.000163986
1.82999e-19
0.000163986
-2.17668e-19
0.000163986
9.71304e-20
0.000163986