/*--------------------------------*- C++ -*----------------------------------*\
| =========                 |                                                 |
| \\      /  F ield         | OpenFOAM: The Open Source CFD Toolbox           |
|  \\    /   O peration     | Version:  2112                                  |
|   \\  /    A nd           | Website:  www.openfoam.com                      |
|    \\/     M anipulation  |                                                 |
\*---------------------------------------------------------------------------*/
FoamFile
{
    version     2.0;
    format      ascii;
    arch        "LSB;label=32;scalar=64";
    class       surfaceScalarField;
    location    "1";
    object      phi;
}
// * * * * * * * * * * * * * * * * * * * * * * * * * * * * * * * * * * * * * //

dimensions      [0 3 -1 0 0 0 0];

oriented        oriented;

internalField   nonuniform List<scalar> 
50800
(
2.61001e-05
4.51719e-19
2.61001e-05
6.24272e-20
2.61001e-05
-1.68759e-20
2.61001e-05
-1.97194e-20
2.61001e-05
1.46276e-20
2.61001e-05
1.52821e-20
2.61001e-05
-4.06557e-21
2.61001e-05
1.05358e-21
2.61001e-05
4.99488e-21
2.61001e-05
-3.63994e-21
2.61001e-05
-1.02773e-20
2.61001e-05
-1.98616e-20
2.61001e-05
5.87703e-21
2.61001e-05
5.06088e-21
2.61001e-05
-1.11018e-20
2.61001e-05
2.47331e-20
2.61001e-05
2.01457e-20
2.61001e-05
-6.8303e-21
2.61001e-05
-2.02009e-20
2.61001e-05
-1.38928e-21
2.61001e-05
2.07566e-20
2.61001e-05
1.60554e-20
2.61001e-05
-1.56016e-21
2.61001e-05
-6.86182e-21
2.61001e-05
-1.2086e-20
2.61001e-05
-1.4865e-21
2.61001e-05
3.84903e-20
2.61001e-05
2.08713e-20
2.61001e-05
-1.74827e-20
2.61001e-05
-9.10031e-21
2.61001e-05
1.73745e-20
2.61001e-05
2.729e-20
2.61001e-05
-8.15396e-21
2.61001e-05
-2.34659e-20
2.61001e-05
-3.76583e-21
2.61001e-05
-1.10585e-20
2.61001e-05
3.5693e-20
2.61001e-05
-1.26173e-20
2.61001e-05
-4.34067e-20
2.61001e-05
2.25764e-20
2.61001e-05
-4.70824e-21
2.61001e-05
1.29666e-20
2.61001e-05
1.39391e-20
2.61001e-05
-3.62648e-20
2.61001e-05
6.5327e-21
2.61001e-05
-1.21629e-20
2.61001e-05
1.30978e-20
2.61001e-05
6.90483e-21
2.61001e-05
2.40153e-21
2.61001e-05
-1.15521e-20
2.61001e-05
-3.92505e-20
2.61001e-05
1.52349e-20
2.61001e-05
-1.52986e-20
2.61001e-05
8.18157e-21
2.61001e-05
4.43237e-20
2.61001e-05
-2.84704e-20
2.61001e-05
4.59503e-21
2.61001e-05
2.76447e-21
2.61001e-05
8.39066e-21
2.61001e-05
3.87471e-20
2.61001e-05
-5.89876e-20
2.61001e-05
2.64739e-20
2.61001e-05
-1.67979e-20
2.61001e-05
-2.06234e-20
2.61001e-05
4.1869e-20
2.61001e-05
-4.16884e-20
2.61001e-05
-5.0718e-21
2.61001e-05
-1.37811e-20
2.61001e-05
2.60842e-20
2.61001e-05
2.75023e-20
2.61001e-05
-1.5989e-20
2.61001e-05
-6.20545e-21
2.61001e-05
-3.67582e-20
2.61001e-05
-1.89216e-20
2.61001e-05
6.51689e-20
2.61001e-05
-3.28183e-20
2.61001e-05
-5.9552e-20
2.61001e-05
3.65613e-20
2.61001e-05
-2.12033e-21
2.61001e-05
5.59062e-20
2.61001e-05
-1.52979e-20
2.61001e-05
-5.78553e-20
2.61001e-05
2.32045e-20
2.61001e-05
2.07408e-20
2.61001e-05
1.84001e-20
2.61001e-05
-2.38591e-21
2.61001e-05
-3.6041e-20
2.61001e-05
-2.99944e-20
2.61001e-05
-1.20016e-21
2.61001e-05
5.68298e-20
2.61001e-05
-3.17625e-20
2.61001e-05
-7.3786e-20
2.61001e-05
1.44863e-20
2.61001e-05
5.51837e-20
2.61001e-05
1.0393e-20
2.61001e-05
-6.74541e-20
2.61001e-05
-4.71217e-21
2.61001e-05
-6.19579e-21
2.61001e-05
4.37657e-20
2.61001e-05
3.38359e-20
2.61001e-05
-7.87255e-20
2.61001e-05
3.61974e-20
2.61001e-05
-3.86062e-20
2.61001e-05
2.33267e-20
2.61001e-05
3.626e-20
2.61001e-05
1.29336e-20
2.61001e-05
-6.60249e-20
2.61001e-05
-2.74531e-20
2.61001e-05
6.84458e-20
2.61001e-05
3.54341e-20
2.61001e-05
4.26912e-20
2.61001e-05
-1.45984e-19
2.61001e-05
2.97449e-20
2.61001e-05
1.20765e-19
2.61001e-05
2.78859e-20
2.61001e-05
2.48471e-21
2.61001e-05
-9.11322e-20
2.61001e-05
-1.2367e-20
2.61001e-05
1.03337e-19
2.61001e-05
5.58575e-20
2.61001e-05
-3.32221e-20
2.61001e-05
-1.20278e-19
2.61001e-05
-2.0406e-20
2.61001e-05
1.41163e-19
2.61001e-05
7.99514e-20
2.61001e-05
-4.08e-20
2.61001e-05
-1.34679e-19
2.61001e-05
-2.733e-21
2.61001e-05
1.34567e-19
2.61001e-05
7.60692e-22
2.61001e-05
-2.62892e-20
2.61001e-05
-8.44807e-20
2.61001e-05
6.0535e-21
2.61001e-05
1.00316e-19
2.61001e-05
-1.06817e-21
2.61001e-05
-4.41972e-21
2.61001e-05
-8.41373e-20
2.61001e-05
-2.85972e-20
2.61001e-05
8.86776e-20
2.61001e-05
1.33626e-20
2.61001e-05
-3.34514e-20
2.61001e-05
-6.63655e-20
2.61001e-05
2.80836e-20
2.61001e-05
5.24581e-20
2.61001e-05
-2.67505e-20
2.61001e-05
4.13384e-21
2.61001e-05
-6.33892e-20
2.61001e-05
2.04388e-20
2.61001e-05
1.50421e-20
2.61001e-05
-1.81177e-21
2.61001e-05
8.60955e-20
2.61001e-05
-9.00916e-20
2.61001e-05
-7.85359e-20
2.61001e-05
4.94391e-20
2.61001e-05
5.22541e-20
2.61001e-05
4.94994e-20
2.61001e-05
-7.8478e-20
2.61001e-05
-8.94256e-20
2.61001e-05
2.55485e-20
2.61001e-05
2.16739e-20
2.61001e-05
9.972e-20
2.61001e-05
-9.56294e-20
2.61001e-05
-3.97808e-20
2.61001e-05
1.06864e-19
2.61001e-05
-9.59263e-20
2.61001e-05
3.55812e-20
2.61001e-05
-1.93958e-20
2.61001e-05
-5.51888e-20
2.61001e-05
7.12048e-20
2.61001e-05
4.84015e-21
2.61001e-05
1.63662e-20
2.61001e-05
-1.12046e-19
2.61001e-05
-5.86196e-21
2.61001e-05
7.46e-20
2.61001e-05
-5.07288e-21
2.61001e-05
-9.34381e-21
2.61001e-05
-6.25302e-20
2.61001e-05
1.22087e-19
2.61001e-05
-3.15813e-20
2.61001e-05
-3.15639e-20
2.61001e-05
1.24364e-19
2.61001e-05
-1.62464e-19
2.61001e-05
-1.01611e-20
2.61001e-05
7.57134e-20
2.61001e-05
-2.37336e-20
2.61001e-05
1.19771e-19
2.61001e-05
-1.01541e-19
2.61001e-05
-1.1713e-20
2.61001e-05
1.24204e-19
2.61001e-05
-7.7782e-20
2.61001e-05
5.23468e-20
2.61001e-05
-5.46517e-21
2.61001e-05
-9.15208e-20
2.61001e-05
1.13508e-19
2.61001e-05
-1.29929e-20
2.61001e-05
3.31727e-20
2.61001e-05
-5.64148e-20
2.61001e-05
-3.71466e-20
2.61001e-05
1.54284e-19
2.61001e-05
-6.74729e-20
2.61001e-05
2.19244e-20
2.61001e-05
-6.9771e-20
2.61001e-05
3.02948e-21
2.61001e-05
1.6476e-19
2.61001e-05
-6.23518e-20
2.61001e-05
-7.49096e-20
2.61001e-05
-7.34847e-20
2.61001e-05
5.53809e-20
2.61001e-05
7.87777e-20
2.61001e-05
-4.45888e-20
2.61001e-05
-7.79919e-20
2.61001e-05
-1.20754e-19
2.61001e-05
2.36721e-19
2.61001e-05
1.2511e-20
2.61001e-05
-2.554e-19
2.61001e-05
2.01359e-19
2.61001e-05
-9.40733e-21
2.61001e-05
-7.7885e-20
2.61001e-05
-3.01022e-20
2.61001e-05
-1.54788e-19
2.61001e-05
2.55139e-19
2.61001e-05
5.13563e-20
2.61001e-05
-7.65904e-20
2.61001e-05
-2.87695e-20
2.61001e-05
-1.97635e-19
2.61001e-05
2.21737e-19
2.61001e-05
3.76293e-21
2.61001e-05
-9.4756e-20
2.61001e-05
5.7053e-20
2.61001e-05
-1.19666e-19
2.61001e-05
1.71761e-19
2.61001e-05
-3.28645e-20
2.61001e-05
-4.65357e-20
2.61001e-05
6.78541e-20
2.61001e-05
-1.97221e-19
2.61001e-05
6.3539e-20
2.61001e-05
-1.58956e-20
2.61001e-05
3.34504e-20
2.61001e-05
1.11599e-19
2.61001e-05
-2.01858e-19
2.61001e-05
1.14576e-19
2.61001e-05
-5.4286e-20
2.61001e-05
3.38756e-21
2.61001e-05
1.37752e-19
2.61001e-05
-2.68096e-19
2.61001e-05
3.01844e-20
2.61001e-05
6.4882e-20
2.61001e-05
7.56562e-20
2.61001e-05
3.08163e-20
2.61001e-05
-2.09405e-19
2.61001e-05
2.09278e-19
2.61001e-05
1.46917e-20
2.61001e-05
-1.09162e-19
2.61001e-05
-2.09233e-20
2.61001e-05
-1.84472e-19
2.61001e-05
2.60618e-19
2.61001e-05
-1.73844e-20
2.61001e-05
-6.50119e-20
2.61001e-05
1.08487e-19
2.61001e-05
-2.19699e-19
2.61001e-05
1.07217e-19
2.61001e-05
2.36991e-20
2.61001e-05
-1.98636e-20
2.61001e-05
5.10143e-20
2.61001e-05
-1.35792e-19
2.61001e-05
1.80794e-19
2.61001e-05
1.33132e-20
2.61001e-05
-2.19328e-20
2.61001e-05
1.8068e-20
2.61001e-05
-1.75777e-19
2.61001e-05
1.16234e-19
2.61001e-05
2.29565e-20
2.61001e-05
2.61295e-20
2.61001e-05
3.69254e-20
2.61001e-05
-1.63822e-19
2.61001e-05
1.20835e-19
2.61001e-05
3.28504e-20
2.61001e-05
-5.89709e-20
2.61001e-05
9.97964e-20
2.61001e-05
-1.4876e-19
2.61001e-05
4.87218e-20
2.61001e-05
4.80573e-20
2.61001e-05
-2.52619e-20
2.61001e-05
4.36512e-20
2.61001e-05
-1.45934e-19
2.61001e-05
4.98531e-20
2.61001e-05
1.18202e-19
2.61001e-05
-1.0409e-20
2.61001e-05
-9.70152e-20
2.61001e-05
-1.11244e-19
2.61001e-05
1.45569e-19
2.61001e-05
4.53813e-20
2.61001e-05
-5.2225e-20
2.61001e-05
-4.13322e-20
2.61001e-05
-3.95983e-20
2.61001e-05
1.39013e-19
2.61001e-05
-2.39854e-21
2.61001e-05
-7.26849e-21
2.61001e-05
-9.90562e-20
2.61001e-05
-5.30714e-20
2.61001e-05
1.67764e-19
2.61001e-05
3.01751e-20
2.61001e-05
4.4119e-20
2.61001e-05
-1.32378e-19
2.61001e-05
-1.47628e-19
2.61001e-05
7.23368e-20
2.61001e-05
-1.33968e-20
2.61001e-05
9.23258e-20
2.61001e-05
-1.08125e-19
2.61001e-05
2.35216e-20
2.61001e-05
7.61472e-20
2.61001e-05
-1.17367e-19
2.61001e-05
1.36116e-19
2.61001e-05
-2.94909e-20
2.61001e-05
-8.26811e-20
2.61001e-05
7.6274e-20
2.61001e-05
-7.95411e-20
2.61001e-05
1.11329e-19
2.61001e-05
2.34633e-21
-4.19261e-20
7.69528e-05
4.74299e-19
7.69528e-05
8.09682e-20
7.69528e-05
-2.59845e-20
7.69528e-05
5.60883e-21
7.69528e-05
5.16285e-20
7.69528e-05
5.88987e-20
7.69528e-05
6.89383e-21
7.69528e-05
1.59474e-20
7.69528e-05
1.83568e-20
7.69528e-05
-3.43991e-20
7.69528e-05
-3.76621e-20
7.69528e-05
-3.78657e-20
7.69528e-05
1.48535e-20
7.69528e-05
8.10559e-21
7.69528e-05
-2.82913e-20
7.69528e-05
1.09021e-19
7.69528e-05
3.00992e-20
7.69528e-05
-3.18994e-20
7.69528e-05
-2.94627e-20
7.69528e-05
9.24986e-21
7.69528e-05
5.39939e-20
7.69528e-05
3.93975e-20
7.69528e-05
1.04451e-20
7.69528e-05
-2.7015e-20
7.69528e-05
-9.49187e-21
7.69528e-05
1.43284e-20
7.69528e-05
7.50837e-20
7.69528e-05
6.6721e-20
7.69528e-05
6.96923e-22
7.69528e-05
-3.34219e-20
7.69528e-05
4.02288e-20
7.69528e-05
8.90872e-20
7.69528e-05
-1.72938e-20
7.69528e-05
-5.17747e-20
7.69528e-05
-2.21952e-20
7.69528e-05
-1.72731e-20
7.69528e-05
6.13646e-20
7.69528e-05
-2.52884e-20
7.69528e-05
-1.13456e-19
7.69528e-05
2.70185e-20
7.69528e-05
-4.93262e-21
7.69528e-05
8.55132e-21
7.69528e-05
4.11373e-20
7.69528e-05
-6.50195e-20
7.69528e-05
-2.55036e-20
7.69528e-05
-1.58645e-20
7.69528e-05
2.39635e-20
7.69528e-05
3.31422e-20
7.69528e-05
-1.07846e-20
7.69528e-05
-4.31014e-20
7.69528e-05
-6.93306e-20
7.69528e-05
1.27527e-20
7.69528e-05
-2.10259e-20
7.69528e-05
3.21362e-20
7.69528e-05
8.86472e-20
7.69528e-05
-2.79225e-20
7.69528e-05
4.99062e-21
7.69528e-05
5.03615e-21
7.69528e-05
2.69418e-20
7.69528e-05
7.56046e-20
7.69528e-05
-1.54407e-19
7.69528e-05
4.61963e-20
7.69528e-05
-1.91187e-20
7.69528e-05
-6.35782e-20
7.69528e-05
8.72446e-20
7.69528e-05
-9.13354e-20
7.69528e-05
-1.06346e-20
7.69528e-05
-2.54303e-20
7.69528e-05
4.90854e-20
7.69528e-05
1.08885e-19
7.69528e-05
-4.76307e-20
7.69528e-05
-6.47205e-20
7.69528e-05
-1.02935e-19
7.69528e-05
-1.41542e-20
7.69528e-05
1.52674e-19
7.69528e-05
-7.64664e-20
7.69528e-05
-1.42419e-19
7.69528e-05
3.90889e-20
7.69528e-05
5.25739e-21
7.69528e-05
1.18908e-19
7.69528e-05
-3.51041e-20
7.69528e-05
-1.46793e-19
7.69528e-05
4.50002e-20
7.69528e-05
4.46801e-20
7.69528e-05
5.20005e-20
7.69528e-05
-4.48757e-20
7.69528e-05
-5.45611e-20
7.69528e-05
-7.64147e-20
7.69528e-05
-3.2796e-20
7.69528e-05
1.32797e-19
7.69528e-05
-8.40112e-20
7.69528e-05
-1.78235e-19
7.69528e-05
1.94602e-20
7.69528e-05
9.21177e-20
7.69528e-05
4.42695e-20
7.69528e-05
-1.12486e-19
7.69528e-05
-3.90288e-20
7.69528e-05
-1.03979e-20
7.69528e-05
5.888e-20
7.69528e-05
6.0214e-20
7.69528e-05
-1.08583e-19
7.69528e-05
2.39059e-20
7.69528e-05
-6.05562e-20
7.69528e-05
4.37977e-20
7.69528e-05
1.04403e-19
7.69528e-05
7.62961e-20
7.69528e-05
-1.48422e-19
7.69528e-05
-9.9506e-20
7.69528e-05
1.7878e-19
7.69528e-05
1.42808e-19
7.69528e-05
5.44632e-20
7.69528e-05
-2.98653e-19
7.69528e-05
6.66144e-20
7.69528e-05
2.79137e-19
7.69528e-05
1.285e-19
7.69528e-05
2.99501e-20
7.69528e-05
-2.24983e-19
7.69528e-05
-7.5954e-20
7.69528e-05
2.83975e-19
7.69528e-05
2.09613e-19
7.69528e-05
-1.128e-19
7.69528e-05
-2.9593e-19
7.69528e-05
-4.16013e-20
7.69528e-05
3.36555e-19
7.69528e-05
2.4588e-19
7.69528e-05
-9.71251e-20
7.69528e-05
-3.41069e-19
7.69528e-05
-2.91867e-21
7.69528e-05
3.01307e-19
7.69528e-05
2.36401e-20
7.69528e-05
-6.40814e-20
7.69528e-05
-1.59532e-19
7.69528e-05
-1.58984e-20
7.69528e-05
2.0981e-19
7.69528e-05
2.5857e-20
7.69528e-05
-1.38741e-20
7.69528e-05
-2.15334e-19
7.69528e-05
-1.02923e-19
7.69528e-05
2.11079e-19
7.69528e-05
7.10037e-20
7.69528e-05
-8.11761e-20
7.69528e-05
-1.86495e-19
7.69528e-05
4.14102e-20
7.69528e-05
1.09061e-19
7.69528e-05
-5.38766e-20
7.69528e-05
-3.45006e-20
7.69528e-05
-1.42562e-19
7.69528e-05
6.93437e-20
7.69528e-05
7.41809e-20
7.69528e-05
-1.20169e-20
7.69528e-05
1.53392e-19
7.69528e-05
-1.63841e-19
7.69528e-05
-1.68032e-19
7.69528e-05
1.03572e-19
7.69528e-05
1.34547e-19
7.69528e-05
8.29772e-20
7.69528e-05
-1.65673e-19
7.69528e-05
-2.3022e-19
7.69528e-05
2.6501e-21
7.69528e-05
1.00799e-19
7.69528e-05
2.13585e-19
7.69528e-05
-2.15026e-19
7.69528e-05
-7.59805e-20
7.69528e-05
1.91784e-19
7.69528e-05
-1.81199e-19
7.69528e-05
1.48513e-20
7.69528e-05
-3.35442e-20
7.69528e-05
-1.00728e-19
7.69528e-05
1.36384e-19
7.69528e-05
3.29349e-20
7.69528e-05
-2.91408e-20
7.69528e-05
-2.45255e-19
7.69528e-05
-4.74221e-20
7.69528e-05
1.7487e-19
7.69528e-05
5.24927e-20
7.69528e-05
-8.0296e-20
7.69528e-05
-8.88468e-20
7.69528e-05
1.94315e-19
7.69528e-05
-4.29153e-20
7.69528e-05
4.1031e-20
7.69528e-05
1.98264e-19
7.69528e-05
-3.60609e-19
7.69528e-05
-4.86695e-20
7.69528e-05
1.83777e-19
7.69528e-05
2.47516e-20
7.69528e-05
2.1018e-19
7.69528e-05
-1.72834e-19
7.69528e-05
-2.12824e-20
7.69528e-05
2.55844e-19
7.69528e-05
-8.55002e-20
7.69528e-05
5.93947e-20
7.69528e-05
-4.29939e-21
7.69528e-05
-1.3773e-19
7.69528e-05
1.66164e-19
7.69528e-05
5.75826e-20
7.69528e-05
5.7603e-20
7.69528e-05
-8.76015e-20
7.69528e-05
-5.70472e-20
7.69528e-05
2.35025e-19
7.69528e-05
-4.15677e-20
7.69528e-05
1.76848e-20
7.69528e-05
-1.18132e-19
7.69528e-05
5.16682e-20
7.69528e-05
2.55307e-19
7.69528e-05
-6.93135e-20
7.69528e-05
-1.42942e-19
7.69528e-05
-1.93132e-19
7.69528e-05
7.23368e-20
7.69528e-05
1.09424e-19
7.69528e-05
-8.74344e-20
7.69528e-05
-1.4919e-19
7.69528e-05
-2.44721e-19
7.69528e-05
4.53981e-19
7.69528e-05
3.17285e-20
7.69528e-05
-4.75476e-19
7.69528e-05
3.30598e-19
7.69528e-05
-1.02708e-19
7.69528e-05
-8.54791e-20
7.69528e-05
-9.69213e-20
7.69528e-05
-3.52755e-19
7.69528e-05
5.50631e-19
7.69528e-05
1.3071e-19
7.69528e-05
-1.09599e-19
7.69528e-05
-9.29691e-20
7.69528e-05
-4.51312e-19
7.69528e-05
4.34633e-19
7.69528e-05
3.89812e-20
7.69528e-05
-1.80303e-19
7.69528e-05
8.0724e-20
7.69528e-05
-2.23975e-19
7.69528e-05
3.64468e-19
7.69528e-05
-4.7571e-20
7.69528e-05
-1.2676e-19
7.69528e-05
9.16374e-20
7.69528e-05
-4.2529e-19
7.69528e-05
7.68884e-20
7.69528e-05
-6.33344e-20
7.69528e-05
1.42277e-19
7.69528e-05
2.42074e-19
7.69528e-05
-4.23075e-19
7.69528e-05
1.79471e-19
7.69528e-05
-1.47131e-19
7.69528e-05
4.05239e-20
7.69528e-05
2.4943e-19
7.69528e-05
-6.24628e-19
7.69528e-05
1.01056e-19
7.69528e-05
1.63531e-19
7.69528e-05
1.58454e-19
7.69528e-05
6.83173e-20
7.69528e-05
-4.36959e-19
7.69528e-05
4.9115e-19
7.69528e-05
3.76263e-20
7.69528e-05
-2.96532e-19
7.69528e-05
-1.67725e-19
7.69528e-05
-3.72364e-19
7.69528e-05
6.25675e-19
7.69528e-05
-9.65871e-21
7.69528e-05
-1.43041e-19
7.69528e-05
2.03445e-19
7.69528e-05
-4.53624e-19
7.69528e-05
2.01613e-19
7.69528e-05
6.92852e-20
7.69528e-05
-2.20197e-21
7.69528e-05
8.65439e-20
7.69528e-05
-2.54382e-19
7.69528e-05
4.27398e-19
7.69528e-05
1.19403e-20
7.69528e-05
-1.47632e-20
7.69528e-05
4.45625e-20
7.69528e-05
-4.25883e-19
7.69528e-05
2.38693e-19
7.69528e-05
5.68646e-20
7.69528e-05
1.13439e-19
7.69528e-05
6.89373e-20
7.69528e-05
-3.89512e-19
7.69528e-05
2.95665e-19
7.69528e-05
5.23177e-20
7.69528e-05
-4.12416e-20
7.69528e-05
1.80673e-19
7.69528e-05
-4.04642e-19
7.69528e-05
1.62975e-19
7.69528e-05
6.504e-20
7.69528e-05
-2.44336e-20
7.69528e-05
1.17757e-19
7.69528e-05
-3.98623e-19
7.69528e-05
1.82079e-19
7.69528e-05
2.61701e-19
7.69528e-05
-4.38841e-20
7.69528e-05
-2.26156e-19
7.69528e-05
-2.7816e-19
7.69528e-05
3.50119e-19
7.69528e-05
1.01418e-19
7.69528e-05
-1.52268e-19
7.69528e-05
-2.51351e-20
7.69528e-05
-1.11757e-19
7.69528e-05
2.80516e-19
7.69528e-05
1.14036e-19
7.69528e-05
-1.33961e-19
7.69528e-05
-1.4763e-19
7.69528e-05
-1.45933e-19
7.69528e-05
3.37228e-19
7.69528e-05
2.23952e-19
7.69528e-05
3.87974e-20
7.69528e-05
-3.75078e-19
7.69528e-05
-3.77335e-19
7.69528e-05
1.67999e-19
7.69528e-05
5.35113e-21
7.69528e-05
1.35982e-19
7.69528e-05
-2.04669e-19
7.69528e-05
3.0039e-20
7.69528e-05
2.13222e-19
7.69528e-05
-2.03682e-19
7.69528e-05
2.06622e-19
7.69528e-05
5.10413e-21
7.69528e-05
-1.76488e-19
7.69528e-05
9.92281e-20
7.69528e-05
-1.21218e-19
7.69528e-05
2.95733e-19
7.69528e-05
8.97777e-20
-9.79141e-20
0.000126396
4.17874e-19
0.000126396
7.89695e-20
0.000126396
-1.85658e-22
0.000126396
1.27694e-20
0.000126396
9.53823e-20
0.000126396
7.9497e-20
0.000126396
4.96728e-20
0.000126396
2.29265e-21
0.000126396
3.97793e-20
0.000126396
-2.36979e-20
0.000126396
-7.22162e-20
0.000126396
-1.01983e-19
0.000126396
4.94377e-20
0.000126396
2.81294e-20
0.000126396
-6.65266e-21
0.000126396
1.50725e-19
0.000126396
6.68445e-20
0.000126396
-3.11338e-20
0.000126396
-1.40365e-20
0.000126396
5.21608e-20
0.000126396
1.1576e-19
0.000126396
8.78716e-20
0.000126396
-5.60926e-21
0.000126396
-4.46488e-20
0.000126396
-2.32566e-20
0.000126396
2.20567e-20
0.000126396
1.40633e-19
0.000126396
1.27674e-19
0.000126396
1.08389e-20
0.000126396
-3.04462e-20
0.000126396
4.03532e-20
0.000126396
1.38001e-19
0.000126396
-5.45948e-21
0.000126396
-7.93074e-20
0.000126396
-5.03577e-20
0.000126396
-3.17792e-20
0.000126396
3.42027e-20
0.000126396
-3.23083e-20
0.000126396
-1.61809e-19
0.000126396
3.06963e-21
0.000126396
1.48068e-20
0.000126396
1.25995e-20
0.000126396
6.09969e-20
0.000126396
-9.16066e-20
0.000126396
-9.75418e-20
0.000126396
-5.46476e-20
0.000126396
4.33394e-20
0.000126396
6.41388e-20
0.000126396
-2.41361e-20
0.000126396
-4.10785e-20
0.000126396
-6.43721e-20
0.000126396
-1.72045e-20
0.000126396
-2.75707e-21
0.000126396
3.19624e-20
0.000126396
1.56307e-19
0.000126396
-3.13873e-20
0.000126396
2.25878e-20
0.000126396
3.73319e-20
0.000126396
3.76195e-20
0.000126396
7.8607e-20
0.000126396
-2.34387e-19
0.000126396
7.25608e-20
0.000126396
-2.07892e-21
0.000126396
-8.61699e-20
0.000126396
6.03177e-20
0.000126396
-1.33264e-19
0.000126396
-1.23257e-20
0.000126396
-1.20678e-20
0.000126396
2.98748e-20
0.000126396
1.40252e-19
0.000126396
-8.36012e-20
0.000126396
-1.17293e-19
0.000126396
-1.61672e-19
0.000126396
-2.41927e-20
0.000126396
1.93e-19
0.000126396
-1.3182e-19
0.000126396
-1.9919e-19
0.000126396
2.92963e-20
0.000126396
1.4566e-21
0.000126396
1.43329e-19
0.000126396
-6.96411e-21
0.000126396
-1.83908e-19
0.000126396
4.65575e-21
0.000126396
6.8295e-20
0.000126396
7.76104e-20
0.000126396
-7.50096e-20
0.000126396
-7.79577e-20
0.000126396
-1.17247e-19
0.000126396
-1.50931e-19
0.000126396
1.34923e-19
0.000126396
-1.149e-19
0.000126396
-1.93909e-19
0.000126396
7.32526e-21
0.000126396
8.92735e-20
0.000126396
7.47929e-20
0.000126396
-1.59002e-19
0.000126396
-3.42728e-20
0.000126396
-2.04942e-20
0.000126396
4.16599e-20
0.000126396
7.44469e-20
0.000126396
-9.34086e-20
0.000126396
2.56621e-20
0.000126396
-9.7692e-20
0.000126396
4.60053e-20
0.000126396
1.80757e-19
0.000126396
1.52099e-19
0.000126396
-1.8884e-19
0.000126396
-1.6926e-19
0.000126396
2.56291e-19
0.000126396
2.82343e-19
0.000126396
1.02707e-19
0.000126396
-3.89559e-19
0.000126396
6.32772e-20
0.000126396
4.16886e-19
0.000126396
2.91092e-19
0.000126396
9.8711e-20
0.000126396
-3.11513e-19
0.000126396
-1.50508e-19
0.000126396
4.57685e-19
0.000126396
3.20867e-19
0.000126396
-1.96706e-19
0.000126396
-4.76563e-19
0.000126396
-4.98795e-20
0.000126396
5.33515e-19
0.000126396
4.34477e-19
0.000126396
-1.26041e-19
0.000126396
-5.67402e-19
0.000126396
-2.85353e-20
0.000126396
4.91421e-19
0.000126396
7.41399e-20
0.000126396
-1.03917e-19
0.000126396
-2.39086e-19
0.000126396
-1.52887e-20
0.000126396
2.77589e-19
0.000126396
9.27557e-20
0.000126396
-7.37775e-20
0.000126396
-3.42318e-19
0.000126396
-1.60717e-19
0.000126396
3.07507e-19
0.000126396
1.10675e-19
0.000126396
-1.34935e-19
0.000126396
-2.78852e-19
0.000126396
5.77677e-20
0.000126396
1.22084e-19
0.000126396
-1.05995e-19
0.000126396
-3.98225e-20
0.000126396
-2.59214e-19
0.000126396
9.86431e-20
0.000126396
1.32748e-19
0.000126396
-5.45435e-21
0.000126396
2.10899e-19
0.000126396
-2.06945e-19
0.000126396
-2.0796e-19
0.000126396
1.42871e-19
0.000126396
2.26673e-19
0.000126396
8.9387e-20
0.000126396
-2.68046e-19
0.000126396
-3.58006e-19
0.000126396
5.31593e-21
0.000126396
1.32365e-19
0.000126396
2.66803e-19
0.000126396
-3.08493e-19
0.000126396
-1.27495e-19
0.000126396
2.57592e-19
0.000126396
-2.35137e-19
0.000126396
-5.10226e-20
0.000126396
-5.0612e-20
0.000126396
-6.01733e-20
0.000126396
1.63939e-19
0.000126396
5.90145e-20
0.000126396
-1.1174e-19
0.000126396
-4.33032e-19
0.000126396
-8.03585e-20
0.000126396
3.00115e-19
0.000126396
1.21448e-19
0.000126396
-1.26713e-19
0.000126396
-1.10968e-19
0.000126396
1.65876e-19
0.000126396
-2.75343e-20
0.000126396
2.14382e-19
0.000126396
1.96839e-19
0.000126396
-5.4266e-19
0.000126396
-6.21649e-20
0.000126396
3.25706e-19
0.000126396
1.16101e-19
0.000126396
2.04247e-19
0.000126396
-2.07603e-19
0.000126396
9.90602e-21
0.000126396
3.47428e-19
0.000126396
-4.05745e-21
0.000126396
3.39175e-20
0.000126396
-4.16144e-20
0.000126396
-1.5655e-19
0.000126396
2.12559e-19
0.000126396
1.49524e-19
0.000126396
1.06438e-19
0.000126396
-7.97139e-20
0.000126396
-1.0238e-19
0.000126396
2.53704e-19
0.000126396
6.08945e-20
0.000126396
1.46733e-20
0.000126396
-1.29236e-19
0.000126396
8.35534e-20
0.000126396
2.67756e-19
0.000126396
-3.05084e-20
0.000126396
-1.58204e-19
0.000126396
-2.82755e-19
0.000126396
3.73712e-20
0.000126396
5.1764e-20
0.000126396
-1.21903e-19
0.000126396
-1.72236e-19
0.000126396
-3.74165e-19
0.000126396
5.97856e-19
0.000126396
7.59354e-20
0.000126396
-6.09649e-19
0.000126396
3.06074e-19
0.000126396
-2.30355e-19
0.000126396
-1.03187e-19
0.000126396
-1.60579e-19
0.000126396
-4.7024e-19
0.000126396
7.23569e-19
0.000126396
2.00529e-19
0.000126396
-3.50466e-20
0.000126396
-1.16014e-19
0.000126396
-7.04776e-19
0.000126396
5.3241e-19
0.000126396
8.25429e-20
0.000126396
-2.42389e-19
0.000126396
7.84904e-20
0.000126396
-3.12186e-19
0.000126396
5.44823e-19
0.000126396
-4.79611e-21
0.000126396
-2.30501e-19
0.000126396
2.65648e-20
0.000126396
-5.71529e-19
0.000126396
-1.61409e-20
0.000126396
-1.8357e-19
0.000126396
2.76103e-19
0.000126396
4.12297e-19
0.000126396
-5.79132e-19
0.000126396
1.78111e-19
0.000126396
-2.60159e-19
0.000126396
6.11775e-20
0.000126396
3.11289e-19
0.000126396
-9.26154e-19
0.000126396
1.4174e-19
0.000126396
1.86124e-19
0.000126396
2.02974e-19
0.000126396
1.35461e-19
0.000126396
-5.91824e-19
0.000126396
7.03932e-19
0.000126396
1.0942e-19
0.000126396
-4.72194e-19
0.000126396
-3.94858e-19
0.000126396
-4.8671e-19
0.000126396
9.37157e-19
0.000126396
-6.18821e-21
0.000126396
-1.4014e-19
0.000126396
2.81981e-19
0.000126396
-6.32567e-19
0.000126396
2.18089e-19
0.000126396
5.71778e-20
0.000126396
1.51574e-19
0.000126396
7.98862e-20
0.000126396
-3.95399e-19
0.000126396
6.56442e-19
0.000126396
5.86122e-20
0.000126396
1.4792e-20
0.000126396
4.59106e-20
0.000126396
-6.16526e-19
0.000126396
3.85529e-19
0.000126396
6.94286e-20
0.000126396
1.56995e-19
0.000126396
1.05077e-19
0.000126396
-5.78307e-19
0.000126396
4.69948e-19
0.000126396
6.81795e-20
0.000126396
4.31696e-20
0.000126396
2.06299e-19
0.000126396
-6.52036e-19
0.000126396
2.8021e-19
0.000126396
5.55099e-20
0.000126396
9.92883e-21
0.000126396
1.78988e-19
0.000126396
-6.25045e-19
0.000126396
3.66495e-19
0.000126396
3.51521e-19
0.000126396
-1.33808e-19
0.000126396
-2.94239e-19
0.000126396
-4.41631e-19
0.000126396
5.30789e-19
0.000126396
1.71177e-19
0.000126396
-1.8289e-19
0.000126396
7.66124e-20
0.000126396
-2.17174e-19
0.000126396
3.17282e-19
0.000126396
3.00792e-19
0.000126396
-2.57123e-19
0.000126396
-1.44949e-19
0.000126396
-2.48422e-19
0.000126396
4.40864e-19
0.000126396
4.2633e-19
0.000126396
1.21877e-20
0.000126396
-5.65122e-19
0.000126396
-6.06127e-19
0.000126396
2.34611e-19
0.000126396
8.13959e-21
0.000126396
1.25523e-19
0.000126396
-2.3209e-19
0.000126396
1.29174e-20
0.000126396
4.16879e-19
0.000126396
-2.35973e-19
0.000126396
1.55117e-19
0.000126396
1.04764e-19
0.000126396
-2.63992e-19
0.000126396
1.12082e-19
0.000126396
-9.78207e-20
0.000126396
4.60827e-19
0.000126396
2.029e-19
-1.20075e-19
0.000174364
3.63291e-19
0.000174364
1.11336e-19
0.000174364
2.58556e-20
0.000174364
6.48851e-20
0.000174364
1.22251e-19
0.000174364
1.01003e-19
0.000174364
6.49742e-20
0.000174364
5.27946e-20
0.000174364
5.13058e-20
0.000174364
-6.1354e-20
0.000174364
-1.46955e-19
0.000174364
-8.71653e-20
0.000174364
2.59184e-20
0.000174364
4.19748e-20
0.000174364
5.68096e-20
0.000174364
1.40367e-19
0.000174364
1.39519e-19
0.000174364
-8.43579e-21
0.000174364
4.86592e-20
0.000174364
7.94607e-20
0.000174364
1.82876e-19
0.000174364
1.34154e-19
0.000174364
1.41874e-20
0.000174364
-2.14459e-20
0.000174364
-3.97108e-20
0.000174364
4.99805e-20
0.000174364
2.18973e-19
0.000174364
1.94825e-19
0.000174364
2.47594e-20
0.000174364
-4.15859e-20
0.000174364
6.16577e-20
0.000174364
1.96207e-19
0.000174364
5.60069e-21
0.000174364
-7.1707e-20
0.000174364
-1.01395e-19
0.000174364
-1.01458e-19
0.000174364
4.54897e-20
0.000174364
-3.35687e-20
0.000174364
-1.86818e-19
0.000174364
-3.88481e-20
0.000174364
-1.63648e-20
0.000174364
1.12949e-20
0.000174364
4.64815e-20
0.000174364
-1.411e-19
0.000174364
-8.5453e-20
0.000174364
-8.0049e-20
0.000174364
2.21255e-20
0.000174364
8.70538e-20
0.000174364
-5.3821e-20
0.000174364
-1.10046e-19
0.000174364
-6.02198e-20
0.000174364
2.21252e-20
0.000174364
3.45293e-21
0.000174364
3.3e-20
0.000174364
1.78734e-19
0.000174364
-3.02803e-20
0.000174364
8.22553e-20
0.000174364
6.17951e-20
0.000174364
7.04959e-20
0.000174364
6.54298e-20
0.000174364
-3.5371e-19
0.000174364
1.69068e-20
0.000174364
1.47712e-20
0.000174364
-1.16963e-19
0.000174364
9.66305e-20
0.000174364
-2.00047e-19
0.000174364
3.58744e-20
0.000174364
-5.9331e-20
0.000174364
1.95317e-20
0.000174364
1.73146e-19
0.000174364
-1.08303e-19
0.000174364
-2.25639e-19
0.000174364
-1.85872e-19
0.000174364
-4.86679e-20
0.000174364
1.77312e-19
0.000174364
-1.43812e-19
0.000174364
-2.03592e-19
0.000174364
3.07117e-20
0.000174364
-1.8551e-20
0.000174364
1.74026e-19
0.000174364
3.21672e-20
0.000174364
-2.29762e-19
0.000174364
-8.88273e-21
0.000174364
9.87997e-20
0.000174364
8.24379e-20
0.000174364
-1.02498e-19
0.000174364
-1.42816e-19
0.000174364
-2.14849e-19
0.000174364
-2.41216e-19
0.000174364
1.44768e-19
0.000174364
-1.38131e-19
0.000174364
-2.79767e-19
0.000174364
-6.39761e-21
0.000174364
1.16922e-19
0.000174364
1.01376e-19
0.000174364
-1.40118e-19
0.000174364
-9.01581e-20
0.000174364
-2.46983e-20
0.000174364
3.0404e-20
0.000174364
8.70827e-20
0.000174364
-2.40159e-20
0.000174364
1.25388e-20
0.000174364
-7.53141e-20
0.000174364
-9.75144e-21
0.000174364
2.77553e-19
0.000174364
2.04414e-19
0.000174364
-2.10705e-19
0.000174364
-1.96256e-19
0.000174364
2.97633e-19
0.000174364
4.25346e-19
0.000174364
1.83151e-19
0.000174364
-4.22483e-19
0.000174364
4.89289e-20
0.000174364
6.07452e-19
0.000174364
4.38641e-19
0.000174364
1.42807e-19
0.000174364
-3.81729e-19
0.000174364
-1.88944e-19
0.000174364
5.90747e-19
0.000174364
4.66524e-19
0.000174364
-2.72449e-19
0.000174364
-5.43995e-19
0.000174364
-9.21991e-20
0.000174364
6.54451e-19
0.000174364
6.04015e-19
0.000174364
-1.32168e-19
0.000174364
-6.706e-19
0.000174364
9.38434e-21
0.000174364
5.82446e-19
0.000174364
1.29875e-19
0.000174364
-1.56514e-19
0.000174364
-2.85306e-19
0.000174364
-9.19215e-20
0.000174364
3.70523e-19
0.000174364
1.35176e-19
0.000174364
-1.12133e-19
0.000174364
-4.32776e-19
0.000174364
-2.09839e-19
0.000174364
3.14859e-19
0.000174364
1.35065e-19
0.000174364
-1.79271e-19
0.000174364
-3.56498e-19
0.000174364
3.70449e-20
0.000174364
1.35784e-19
0.000174364
-1.45054e-19
0.000174364
-4.68282e-20
0.000174364
-3.06628e-19
0.000174364
1.20889e-19
0.000174364
1.25767e-19
0.000174364
-5.01386e-20
0.000174364
2.39064e-19
0.000174364
-1.82343e-19
0.000174364
-1.83078e-19
0.000174364
1.3541e-19
0.000174364
2.2107e-19
0.000174364
1.4702e-19
0.000174364
-3.62082e-19
0.000174364
-4.37748e-19
0.000174364
-5.55446e-20
0.000174364
2.03105e-19
0.000174364
2.3104e-19
0.000174364
-3.83795e-19
0.000174364
-1.73454e-19
0.000174364
2.49272e-19
0.000174364
-2.95791e-19
0.000174364
-6.06425e-20
0.000174364
-7.04482e-20
0.000174364
-4.14164e-20
0.000174364
1.75663e-19
0.000174364
5.40735e-20
0.000174364
-1.48538e-19
0.000174364
-6.30151e-19
0.000174364
-3.84133e-20
0.000174364
5.10699e-19
0.000174364
9.76671e-20
0.000174364
-1.36689e-19
0.000174364
-1.73029e-19
0.000174364
1.40019e-19
0.000174364
-2.1502e-20
0.000174364
3.34196e-19
0.000174364
2.61111e-19
0.000174364
-6.86952e-19
0.000174364
-1.49787e-19
0.000174364
4.25643e-19
0.000174364
2.3113e-19
0.000174364
2.64522e-19
0.000174364
-2.37458e-19
0.000174364
5.54943e-20
0.000174364
4.3783e-19
0.000174364
1.79796e-20
0.000174364
-1.23863e-20
0.000174364
-5.7128e-20
0.000174364
-1.36617e-19
0.000174364
2.44849e-19
0.000174364
2.64612e-19
0.000174364
2.15385e-19
0.000174364
-1.18824e-19
0.000174364
-1.16884e-19
0.000174364
2.97936e-19
0.000174364
1.40924e-19
0.000174364
-8.78306e-21
0.000174364
-1.49083e-19
0.000174364
9.70834e-20
0.000174364
2.76028e-19
0.000174364
-3.4341e-21
0.000174364
-1.71963e-19
0.000174364
-3.93031e-19
0.000174364
-1.19702e-19
0.000174364
-2.791e-20
0.000174364
-1.44139e-19
0.000174364
-1.7218e-19
0.000174364
-4.16587e-19
0.000174364
6.44575e-19
0.000174364
1.06341e-19
0.000174364
-7.28828e-19
0.000174364
2.48136e-19
0.000174364
-3.67463e-19
0.000174364
-9.13622e-20
0.000174364
-2.16178e-19
0.000174364
-5.74364e-19
0.000174364
8.45836e-19
0.000174364
2.31744e-19
0.000174364
7.8386e-20
0.000174364
-1.13008e-19
0.000174364
-8.76287e-19
0.000174364
5.18921e-19
0.000174364
7.88988e-20
0.000174364
-1.94322e-19
0.000174364
4.3466e-20
0.000174364
-3.62449e-19
0.000174364
6.87445e-19
0.000174364
2.36641e-20
0.000174364
-3.73958e-19
0.000174364
-5.82088e-20
0.000174364