/*--------------------------------*- C++ -*----------------------------------*\
| =========                 |                                                 |
| \\      /  F ield         | OpenFOAM: The Open Source CFD Toolbox           |
|  \\    /   O peration     | Version:  2112                                  |
|   \\  /    A nd           | Website:  www.openfoam.com                      |
|    \\/     M anipulation  |                                                 |
\*---------------------------------------------------------------------------*/
FoamFile
{
    version     2.0;
    format      ascii;
    arch        "LSB;label=32;scalar=64";
    class       volVectorField;
    location    "1";
    object      U;
}
// * * * * * * * * * * * * * * * * * * * * * * * * * * * * * * * * * * * * * //

dimensions      [0 1 -1 0 0 0 0];

internalField   nonuniform List<vector> 
25600
(
(0.0392087 1.52688e-15 0)
(0.0392087 2.82425e-16 0)
(0.0392087 -1.13049e-17 0)
(0.0392087 -1.28093e-17 0)
(0.0392087 -1.10699e-18 0)
(0.0392087 2.19825e-20 0)
(0.0392087 -3.45155e-18 0)
(0.0392087 2.19491e-18 0)
(0.0392087 1.15955e-18 0)
(0.0392087 -1.75307e-18 0)
(0.0392087 2.98151e-18 0)
(0.0392087 -5.69462e-18 0)
(0.0392087 7.74509e-18 0)
(0.0392087 3.13641e-18 0)
(0.0392087 -9.23976e-18 0)
(0.0392087 7.19328e-18 0)
(0.0392087 4.38948e-18 0)
(0.0392087 -4.82057e-18 0)
(0.0392087 1.11712e-18 0)
(0.0392087 6.66552e-19 0)
(0.0392087 5.37233e-18 0)
(0.0392087 6.01508e-18 0)
(0.0392087 -2.22049e-18 0)
(0.0392087 -7.06741e-18 0)
(0.0392087 -1.56818e-17 0)
(0.0392087 -4.56907e-18 0)
(0.0392087 2.70938e-17 0)
(0.0392087 -4.87467e-18 0)
(0.0392087 -2.19653e-17 0)
(0.0392087 -4.28169e-18 0)
(0.0392087 9.02678e-18 0)
(0.0392087 1.20508e-17 0)
(0.0392087 -4.62095e-18 0)
(0.0392087 -7.59485e-18 0)
(0.0392087 -1.05028e-19 0)
(0.0392087 -5.51627e-18 0)
(0.0392087 6.42673e-18 0)
(0.0392087 -2.21353e-18 0)
(0.0392087 -9.77099e-18 0)
(0.0392087 3.66461e-18 0)
(0.0392087 -3.48805e-18 0)
(0.0392087 1.70739e-17 0)
(0.0392087 -5.08792e-18 0)
(0.0392087 -1.475e-17 0)
(0.0392087 2.67843e-17 0)
(0.0392087 -1.11124e-17 0)
(0.0392087 5.48722e-19 0)
(0.0392087 -7.45491e-19 0)
(0.0392087 -1.48104e-18 0)
(0.0392087 -2.46767e-18 0)
(0.0392087 -2.89097e-17 0)
(0.0392087 2.85365e-17 0)
(0.0392087 -4.07539e-18 0)
(0.0392087 -5.04456e-18 0)
(0.0392087 2.36902e-17 0)
(0.0392087 -3.0387e-17 0)
(0.0392087 1.71774e-18 0)
(0.0392087 -1.13017e-17 0)
(0.0392087 -1.96256e-18 0)
(0.0392087 4.10869e-17 0)
(0.0392087 -3.76075e-17 0)
(0.0392087 9.92797e-18 0)
(0.0392087 2.57988e-19 0)
(0.0392087 -7.05017e-19 0)
(0.0392087 2.09005e-17 0)
(0.0392087 -2.22284e-17 0)
(0.0392087 5.01064e-18 0)
(0.0392087 -1.07901e-17 0)
(0.0392087 1.36101e-17 0)
(0.0392087 1.11328e-17 0)
(0.0392087 -3.74869e-18 0)
(0.0392087 -5.21389e-19 0)
(0.0392087 -4.72896e-18 0)
(0.0392087 -9.64911e-20 0)
(0.0392087 1.72365e-17 0)
(0.0392087 -8.38932e-18 0)
(0.0392087 -2.09963e-17 0)
(0.0392087 1.71597e-17 0)
(0.0392087 -1.42092e-17 0)
(0.0392087 2.55487e-17 0)
(0.0392087 -2.20585e-17 0)
(0.0392087 -3.59132e-17 0)
(0.0392087 2.80812e-17 0)
(0.0392087 6.30258e-18 0)
(0.0392087 2.58297e-17 0)
(0.0392087 -4.31041e-18 0)
(0.0392087 -3.9177e-17 0)
(0.0392087 5.77803e-18 0)
(0.0392087 2.06841e-17 0)
(0.0392087 3.75459e-17 0)
(0.0392087 -8.07258e-18 0)
(0.0392087 -5.57468e-17 0)
(0.0392087 5.96482e-18 0)
(0.0392087 4.86417e-17 0)
(0.0392087 1.91579e-18 0)
(0.0392087 -4.7409e-17 0)
(0.0392087 9.83403e-18 0)
(0.0392087 -2.32789e-18 0)
(0.0392087 4.22268e-17 0)
(0.0392087 2.19038e-17 0)
(0.0392087 -7.24503e-17 0)
(0.0392087 3.06861e-18 0)
(0.0392087 -9.41424e-18 0)
(0.0392087 3.99951e-17 0)
(0.0392087 7.18147e-18 0)
(0.0392087 -1.47306e-17 0)
(0.0392087 -3.03967e-17 0)
(0.0392087 1.84388e-17 0)
(0.0392087 3.37243e-17 0)
(0.0392087 -1.0709e-17 0)
(0.0392087 2.71245e-17 0)
(0.0392087 -9.82556e-17 0)
(0.0392087 2.27349e-17 0)
(0.0392087 5.97105e-17 0)
(0.0392087 7.12036e-18 0)
(0.0392087 -2.36244e-17 0)
(0.0392087 -6.46931e-17 0)
(0.0392087 3.45749e-17 0)
(0.0392087 4.30452e-17 0)
(0.0392087 1.00976e-17 0)
(0.0392087 -1.5251e-17 0)
(0.0392087 -6.08527e-17 0)
(0.0392087 -4.37803e-18 0)
(0.0392087 6.93762e-17 0)
(0.0392087 6.67411e-18 0)
(0.0392087 -3.21097e-17 0)
(0.0392087 -4.318e-17 0)
(0.0392087 5.80264e-18 0)
(0.0392087 7.07637e-17 0)
(0.0392087 1.03713e-19 0)
(0.0392087 -2.74172e-17 0)
(0.0392087 -3.23507e-17 0)
(0.0392087 2.47402e-17 0)
(0.0392087 3.58063e-17 0)
(0.0392087 -2.58893e-17 0)
(0.0392087 -2.78745e-17 0)
(0.0392087 -1.75963e-17 0)
(0.0392087 4.28351e-17 0)
(0.0392087 2.00195e-17 0)
(0.0392087 -2.76638e-17 0)
(0.0392087 -3.07164e-17 0)
(0.0392087 -1.43391e-17 0)
(0.0392087 5.40437e-17 0)
(0.0392087 1.06898e-17 0)
(0.0392087 -4.73801e-17 0)
(0.0392087 4.5212e-17 0)
(0.0392087 -1.01825e-17 0)
(0.0392087 -3.47849e-17 0)
(0.0392087 -3.05519e-18 0)
(0.0392087 -8.22202e-18 0)
(0.0392087 5.90726e-17 0)
(0.0392087 -1.19504e-17 0)
(0.0392087 -5.04619e-17 0)
(0.0392087 7.99392e-18 0)
(0.0392087 2.58163e-17 0)
(0.0392087 3.21629e-17 0)
(0.0392087 -3.29686e-17 0)
(0.0392087 -3.34748e-17 0)
(0.0392087 3.2423e-17 0)
(0.0392087 3.83941e-18 0)
(0.0392087 5.55617e-17 0)
(0.0392087 -6.16575e-17 0)
(0.0392087 -4.34889e-17 0)
(0.0392087 6.6178e-17 0)
(0.0392087 -1.79702e-17 0)
(0.0392087 5.31301e-17 0)
(0.0392087 -3.88235e-17 0)
(0.0392087 -5.55911e-18 0)
(0.0392087 1.28787e-17 0)
(0.0392087 -4.77257e-17 0)
(0.0392087 9.03587e-17 0)
(0.0392087 -5.56765e-17 0)
(0.0392087 8.43192e-18 0)
(0.0392087 1.90735e-17 0)
(0.0392087 -4.5841e-17 0)
(0.0392087 7.96447e-17 0)
(0.0392087 -6.24512e-17 0)
(0.0392087 1.12394e-17 0)
(0.0392087 -8.29056e-18 0)
(0.0392087 -3.80178e-17 0)
(0.0392087 1.02525e-16 0)
(0.0392087 -7.68745e-17 0)
(0.0392087 4.98894e-18 0)
(0.0392087 1.69029e-17 0)
(0.0392087 -5.13999e-17 0)
(0.0392087 1.01245e-16 0)
(0.0392087 -5.94475e-17 0)
(0.0392087 -1.70761e-18 0)
(0.0392087 6.16402e-17 0)
(0.0392087 -1.01342e-16 0)
(0.0392087 5.06971e-17 0)
(0.0392087 -2.17596e-18 0)
(0.0392087 -6.25908e-17 0)
(0.0392087 1.04634e-16 0)
(0.0392087 -4.30319e-17 0)
(0.0392087 3.16207e-18 0)
(0.0392087 -5.31127e-17 0)
(0.0392087 -1.18464e-17 0)
(0.0392087 1.47347e-16 0)
(0.0392087 -9.56785e-17 0)
(0.0392087 6.01285e-18 0)
(0.0392087 -5.26288e-17 0)
(0.0392087 -1.08907e-18 0)
(0.0392087 1.49645e-16 0)
(0.0392087 -9.60794e-17 0)
(0.0392087 -4.94887e-17 0)
(0.0392087 -6.07356e-18 0)
(0.0392087 5.05135e-17 0)
(0.0392087 9.27542e-17 0)
(0.0392087 -4.12702e-17 0)
(0.0392087 -8.67255e-17 0)
(0.0392087 -6.5301e-17 0)
(0.0392087 1.7393e-16 0)
(0.0392087 8.71316e-19 0)
(0.0392087 -1.78174e-16 0)
(0.0392087 1.65453e-16 0)
(0.0392087 3.2598e-17 0)
(0.0392087 -8.43237e-17 0)
(0.0392087 -3.96038e-17 0)
(0.0392087 -7.95888e-17 0)
(0.0392087 1.77867e-16 0)
(0.0392087 4.05523e-17 0)
(0.0392087 -9.53532e-17 0)
(0.0392087 -3.62028e-17 0)
(0.0392087 -8.26564e-17 0)
(0.0392087 1.76481e-16 0)
(0.0392087 -8.56644e-18 0)
(0.0392087 -6.71598e-17 0)
(0.0392087 1.22485e-17 0)
(0.0392087 -1.06349e-16 0)
(0.0392087 1.741e-16 0)
(0.0392087 -5.02538e-18 0)
(0.0392087 -9.36777e-17 0)
(0.0392087 5.99168e-17 0)
(0.0392087 -7.82648e-17 0)
(0.0392087 1.02597e-16 0)
(0.0392087 -5.55614e-18 0)
(0.0392087 -2.43944e-17 0)
(0.0392087 2.77966e-17 0)
(0.0392087 -1.35654e-16 0)
(0.0392087 1.50003e-16 0)
(0.0392087 -1.60847e-17 0)
(0.0392087 -4.18436e-17 0)
(0.0392087 7.95653e-17 0)
(0.0392087 -1.44974e-16 0)
(0.0392087 1.60911e-17 0)
(0.0392087 4.82258e-17 0)
(0.0392087 5.23625e-17 0)
(0.0392087 1.33747e-17 0)
(0.0392087 -1.35746e-16 0)
(0.0392087 9.11354e-17 0)
(0.0392087 -1.06852e-17 0)
(0.0392087 -2.74642e-17 0)
(0.0392087 4.79974e-17 0)
(0.0392087 -1.14462e-16 0)
(0.0392087 1.05124e-16 0)
(0.0392087 -1.29426e-17 0)
(0.0392087 -1.40802e-17 0)
(0.0392087 7.08173e-17 0)
(0.0392087 -1.29354e-16 0)
(0.0392087 6.15402e-17 0)
(0.0392087 -2.69148e-18 0)
(0.0392087 4.39378e-18 0)
(0.0392087 5.16412e-17 0)
(0.0392087 -1.15052e-16 0)
(0.0392087 8.80179e-17 0)
(0.0392087 2.9446e-17 0)
(0.0392087 -5.08742e-17 0)
(0.0392087 1.19401e-17 0)
(0.0392087 -8.11976e-17 0)
(0.0392087 7.86938e-17 0)
(0.0392087 3.50177e-17 0)
(0.0392087 -8.68887e-17 0)
(0.0392087 5.0006e-17 0)
(0.0392087 -3.53011e-17 0)
(0.0392087 3.11676e-17 0)
(0.0392087 3.57726e-17 0)
(0.0392087 -9.11569e-17 0)
(0.0392087 6.38578e-17 0)
(0.0392087 -4.1129e-17 0)
(0.0392087 2.47265e-17 0)
(0.0392087 4.10786e-17 0)
(0.0392087 -9.45706e-17 0)
(0.0392087 6.18638e-17 0)
(0.0392087 -2.96346e-17 0)
(0.0392087 -2.31754e-17 0)
(0.0392087 9.81567e-17 0)
(0.0392087 -5.45462e-17 0)
(0.0392087 -9.33514e-18 0)
(0.0392087 -6.1735e-17 0)
(0.0392087 3.47511e-17 0)
(0.0392087 1.24533e-16 0)
(0.0392087 -1.26411e-17 0)
(0.0392087 -1.18957e-16 0)
(0.0392087 -2.10708e-17 0)
(0.0392087 6.62431e-17 0)
(0.0392087 5.80811e-18 0)
(0.0392087 7.67191e-17 0)
(0.0392087 -1.35014e-16 0)
(0.0392087 -1.74222e-17 0)
(0.0392087 6.08774e-17 0)
(0.0392087 1.19167e-17 0)
(0.0392087 4.86166e-17 0)
(0.0392087 -1.00875e-16 0)
(0.0392087 3.0536e-17 0)
(0.0392087 2.99538e-17 0)
(0.0392087 -5.36007e-17 0)
(0.0392087 9.45182e-17 0)
(0.0392087 -6.5168e-17 0)
(0.0392087 -1.76628e-18 0)
(0.0392087 2.63511e-17 0)
(0.0392087 -7.2955e-17 0)
(0.0392087 1.03114e-16 0)
(0.0392087 -4.00196e-17 0)
(0.0392087 -6.364e-17 0)
(0.0392087 5.36178e-17 0)
(0.0392087 -2.15167e-17 0)
(0.0392087 5.92629e-17 0)
(0.0392087 -4.92236e-17 0)
(0.0392087 2.28615e-16 0)
(0.115636 2.78542e-15 0)
(0.115636 6.97255e-16 0)
(0.115636 1.88173e-16 0)
(0.115636 8.03765e-17 0)
(0.115636 5.70584e-17 0)
(0.115636 4.19185e-17 0)
(0.115636 2.49335e-17 0)
(0.115636 2.34444e-17 0)
(0.115636 2.35759e-17 0)
(0.115636 1.24785e-17 0)
(0.115636 1.49827e-17 0)
(0.115636 7.81235e-18 0)
(0.115636 5.67332e-17 0)
(0.115636 2.71764e-17 0)
(0.115636 -2.50254e-17 0)
(0.115636 3.25393e-17 0)
(0.115636 3.56332e-17 0)
(0.115636 1.52002e-17 0)
(0.115636 8.43385e-18 0)
(0.115636 4.07002e-18 0)
(0.115636 2.88549e-17 0)
(0.115636 2.14651e-17 0)
(0.115636 -1.97153e-17 0)
(0.115636 -2.38739e-17 0)
(0.115636 -4.54106e-17 0)
(0.115636 -1.30288e-17 0)
(0.115636 4.21859e-17 0)
(0.115636 -2.03092e-17 0)
(0.115636 -5.97005e-17 0)
(0.115636 -4.85191e-17 0)
(0.115636 7.89943e-18 0)
(0.115636 5.76484e-17 0)
(0.115636 6.42608e-18 0)
(0.115636 -1.49446e-17 0)
(0.115636 -1.1533e-17 0)
(0.115636 -2.18723e-17 0)
(0.115636 4.35647e-17 0)
(0.115636 -1.98334e-17 0)
(0.115636 -4.13098e-17 0)
(0.115636 2.02261e-17 0)
(0.115636 -1.09231e-17 0)
(0.115636 2.57884e-17 0)
(0.115636 1.98599e-17 0)
(0.115636 -2.72002e-17 0)
(0.115636 4.01366e-17 0)
(0.115636 -2.43919e-19 0)
(0.115636 -4.59029e-18 0)
(0.115636 -1.7084e-17 0)
(0.115636 -2.52319e-17 0)
(0.115636 -2.47525e-17 0)
(0.115636 -6.57875e-17 0)
(0.115636 1.64385e-17 0)
(0.115636 -9.35069e-18 0)
(0.115636 -2.73996e-17 0)
(0.115636 2.55633e-17 0)
(0.115636 -6.34774e-17 0)
(0.115636 -9.98053e-19 0)
(0.115636 -2.72657e-18 0)
(0.115636 -7.57568e-18 0)
(0.115636 1.49077e-17 0)
(0.115636 -8.79461e-17 0)
(0.115636 4.65722e-17 0)
(0.115636 1.09273e-17 0)
(0.115636 4.7057e-18 0)
(0.115636 7.08158e-17 0)
(0.115636 -4.02951e-17 0)
(0.115636 4.13985e-17 0)
(0.115636 3.60334e-17 0)
(0.115636 2.47363e-17 0)
(0.115636 5.7482e-17 0)
(0.115636 -1.33621e-17 0)
(0.115636 -1.84257e-18 0)
(0.115636 -2.14822e-17 0)
(0.115636 -7.73172e-18 0)
(0.115636 1.01757e-16 0)
(0.115636 -7.57578e-17 0)
(0.115636 -9.09256e-17 0)
(0.115636 4.21028e-17 0)
(0.115636 -4.83886e-17 0)
(0.115636 2.44623e-17 0)
(0.115636 -2.69752e-17 0)
(0.115636 -1.09115e-16 0)
(0.115636 1.83541e-17 0)
(0.115636 7.47146e-17 0)
(0.115636 5.36196e-17 0)
(0.115636 -8.26572e-18 0)
(0.115636 -4.66056e-17 0)
(0.115636 -2.30629e-18 0)
(0.115636 8.67973e-17 0)
(0.115636 1.23013e-16 0)
(0.115636 -5.12779e-17 0)
(0.115636 -8.95362e-17 0)
(0.115636 3.46153e-17 0)
(0.115636 7.75353e-17 0)
(0.115636 1.2307e-17 0)
(0.115636 -6.23016e-17 0)
(0.115636 3.063e-17 0)
(0.115636 1.38368e-17 0)
(0.115636 4.68017e-17 0)
(0.115636 2.11416e-17 0)
(0.115636 -1.1057e-16 0)
(0.115636 2.26448e-17 0)
(0.115636 -6.60273e-17 0)
(0.115636 1.43768e-17 0)
(0.115636 6.21716e-17 0)
(0.115636 1.47972e-17 0)
(0.115636 -7.5366e-17 0)
(0.115636 -1.03818e-17 0)
(0.115636 1.18733e-16 0)
(0.115636 6.54306e-17 0)
(0.115636 2.11715e-17 0)
(0.115636 -2.15011e-16 0)
(0.115636 2.27727e-17 0)
(0.115636 1.66352e-16 0)
(0.115636 2.56513e-17 0)
(0.115636 -4.32932e-17 0)
(0.115636 -1.50043e-16 0)
(0.115636 -1.03409e-17 0)
(0.115636 1.39433e-16 0)
(0.115636 1.71414e-17 0)
(0.115636 -9.32155e-17 0)
(0.115636 -1.56416e-16 0)
(0.115636 -2.26438e-17 0)
(0.115636 1.80125e-16 0)
(0.115636 7.42812e-17 0)
(0.115636 -9.80435e-17 0)
(0.115636 -1.5765e-16 0)
(0.115636 4.78669e-17 0)
(0.115636 2.09134e-16 0)
(0.115636 2.90819e-17 0)
(0.115636 -7.27444e-17 0)
(0.115636 -1.01896e-16 0)
(0.115636 3.4687e-17 0)
(0.115636 1.02924e-16 0)
(0.115636 -3.32448e-17 0)
(0.115636 -3.2519e-17 0)
(0.115636 -1.33498e-16 0)
(0.115636 -5.60827e-17 0)
(0.115636 1.05848e-16 0)
(0.115636 -4.83659e-18 0)
(0.115636 -2.84904e-17 0)
(0.115636 -1.05565e-16 0)
(0.115636 1.21586e-17 0)
(0.115636 9.19894e-17 0)
(0.115636 2.07152e-17 0)
(0.115636 -1.92894e-17 0)
(0.115636 -1.10637e-16 0)
(0.115636 3.46545e-17 0)
(0.115636 1.04186e-17 0)
(0.115636 1.73141e-17 0)
(0.115636 9.55167e-17 0)
(0.115636 -1.71158e-16 0)
(0.115636 -1.07343e-16 0)
(0.115636 8.49078e-17 0)
(0.115636 7.83832e-17 0)
(0.115636 7.03551e-17 0)
(0.115636 -6.53606e-17 0)
(0.115636 -6.42116e-17 0)
(0.115636 6.98709e-17 0)
(0.115636 6.41266e-17 0)
(0.115636 1.20456e-16 0)
(0.115636 -1.09076e-16 0)
(0.115636 3.81585e-18 0)
(0.115636 1.37239e-16 0)
(0.115636 -1.54845e-16 0)
(0.115636 5.7663e-17 0)
(0.115636 1.73515e-17 0)
(0.115636 -8.4433e-17 0)
(0.115636 1.81003e-16 0)
(0.115636 8.84132e-17 0)
(0.115636 6.63973e-18 0)
(0.115636 -1.02763e-16 0)
(0.115636 3.94887e-17 0)
(0.115636 9.47764e-17 0)
(0.115636 -5.2855e-17 0)
(0.115636 -7.33023e-17 0)
(0.115636 -6.7952e-17 0)
(0.115636 1.75875e-16 0)
(0.115636 -5.89801e-17 0)
(0.115636 -5.33446e-17 0)
(0.115636 1.30035e-16 0)
(0.115636 -2.0845e-16 0)
(0.115636 -1.77693e-17 0)
(0.115636 7.33615e-17 0)
(0.115636 -3.55044e-17 0)
(0.115636 1.45427e-16 0)
(0.115636 -1.41831e-16 0)
(0.115636 -8.90154e-18 0)
(0.115636 1.25302e-16 0)
(0.115636 -1.31988e-16 0)
(0.115636 4.95575e-17 0)
(0.115636 -2.68871e-17 0)
(0.115636 -1.04157e-16 0)
(0.115636 1.65775e-16 0)
(0.115636 -2.75567e-17 0)
(0.115636 8.84659e-18 0)
(0.115636 -1.01684e-16 0)
(0.115636 -3.17044e-17 0)
(0.115636 2.06625e-16 0)
(0.115636 -1.25507e-16 0)
(0.115636 -8.38058e-18 0)
(0.115636 -9.67922e-17 0)
(0.115636 3.09274e-17 0)
(0.115636 2.27961e-16 0)
(0.115636 -7.0953e-17 0)
(0.115636 -1.54222e-16 0)
(0.115636 -1.1118e-16 0)
(0.115636 1.33863e-16 0)
(0.115636 1.50165e-16 0)
(0.115636 -4.30625e-17 0)
(0.115636 -1.09285e-16 0)
(0.115636 -1.08647e-16 0)
(0.115636 3.34046e-16 0)
(0.115636 1.80388e-17 0)
(0.115636 -3.11642e-16 0)
(0.115636 2.6034e-16 0)
(0.115636 3.01169e-17 0)
(0.115636 -8.53471e-17 0)
(0.115636 -9.32945e-17 0)
(0.115636 -1.82557e-16 0)
(0.115636 3.52769e-16 0)
(0.115636 6.72102e-17 0)
(0.115636 -1.49992e-16 0)
(0.115636 -8.45658e-17 0)
(0.115636 -1.9775e-16 0)
(0.115636 3.31102e-16 0)
(0.115636 -2.29072e-18 0)
(0.115636 -1.48857e-16 0)
(0.115636 7.80694e-17 0)
(0.115636 -1.04389e-16 0)
(0.115636 1.80073e-16 0)
(0.115636 -3.31363e-17 0)
(0.115636 2.66656e-17 0)
(0.115636 9.41085e-17 0)
(0.115636 -2.50232e-16 0)
(0.115636 7.85431e-17 0)
(0.115636 7.3516e-17 0)
(0.115636 8.70906e-17 0)
(0.115636 1.27133e-16 0)
(0.115636 -2.40914e-16 0)
(0.115636 6.91409e-17 0)
(0.115636 -6.52584e-17 0)
(0.115636 4.52336e-17 0)
(0.115636 1.41756e-16 0)
(0.115636 -3.53857e-16 0)
(0.115636 3.10047e-17 0)
(0.115636 1.05986e-16 0)
(0.115636 1.19984e-16 0)
(0.115636 1.90305e-17 0)
(0.115636 -2.80764e-16 0)
(0.115636 2.26394e-16 0)
(0.115636 -1.93871e-17 0)
(0.115636 -1.49521e-16 0)
(0.115636 -2.96594e-17 0)
(0.115636 -1.80306e-16 0)
(0.115636 3.2176e-16 0)
(0.115636 -4.71001e-18 0)
(0.115636 -4.15971e-17 0)
(0.115636 1.27479e-16 0)
(0.115636 -2.515e-16 0)
(0.115636 1.16315e-16 0)
(0.115636 5.90371e-17 0)
(0.115636 -2.6947e-17 0)
(0.115636 2.30721e-17 0)
(0.115636 -1.38874e-16 0)
(0.115636 2.41338e-16 0)
(0.115636 3.31581e-17 0)
(0.115636 -3.58219e-17 0)
(0.115636 -5.76876e-17 0)
(0.115636 -2.03235e-16 0)
(0.115636 1.6564e-16 0)
(0.115636 1.19646e-17 0)
(0.115636 5.97219e-17 0)
(0.115636 -5.90756e-17 0)
(0.115636 -2.20497e-16 0)
(0.115636 1.63504e-16 0)
(0.115636 7.00684e-18 0)
(0.115636 -5.4281e-17 0)
(0.115636 1.08634e-16 0)
(0.115636 -1.62982e-16 0)
(0.115636 8.22781e-17 0)
(0.115636 5.91238e-17 0)
(0.115636 -8.12107e-18 0)
(0.115636 -1.09509e-17 0)
(0.115636 -2.01188e-16 0)
(0.115636 9.97496e-17 0)
(0.115636 1.41602e-16 0)
(0.115636 3.87827e-17 0)
(0.115636 -1.83833e-16 0)
(0.115636 -1.38437e-16 0)
(0.115636 2.35914e-16 0)
(0.115636 -5.44106e-17 0)
(0.115636 -6.54589e-17 0)
(0.115636 -2.82246e-17 0)
(0.115636 -4.52074e-17 0)
(0.115636 2.54264e-16 0)
(0.115636 -2.39218e-17 0)
(0.115636 -6.92897e-17 0)
(0.115636 -1.02236e-16 0)
(0.115636 -5.95958e-17 0)
(0.115636 2.6283e-16 0)
(0.115636 1.41184e-17 0)
(0.115636 7.24495e-17 0)
(0.115636 -1.2169e-16 0)
(0.115636 -2.2287e-16 0)
(0.115636 1.1713e-16 0)
(0.115636 7.26618e-17 0)
(0.115636 1.24112e-16 0)
(0.115636 -1.31878e-16 0)
(0.115636 2.17645e-18 0)
(0.115636 8.85442e-17 0)
(0.115636 -1.24049e-16 0)
(0.115636 1.68776e-16 0)
(0.115636 -1.44254e-17 0)
(0.115636 -9.77597e-17 0)
(0.115636 1.3642e-16 0)
(0.115636 -4.66182e-17 0)
(0.115636 1.89361e-16 0)
(0.115636 2.17981e-16 0)
(0.115636 5.78626e-16 0)
(0.19004 1.87311e-15 0)
(0.19004 6.50168e-16 0)
(0.19004 2.39918e-16 0)
(0.19004 1.17279e-16 0)
(0.19004 8.18739e-17 0)
(0.19004 7.38214e-17 0)
(0.19004 4.64113e-17 0)
(0.19004 3.47956e-17 0)
(0.19004 6.65564e-17 0)
(0.19004 4.32332e-17 0)
(0.19004 5.86892e-20 0)
(0.19004 3.75162e-17 0)
(0.19004 1.09007e-16 0)
(0.19004 4.76297e-17 0)
(0.19004 -1.89832e-17 0)
(0.19004 6.84416e-17 0)
(0.19004 7.72818e-17 0)
(0.19004 4.64285e-17 0)
(0.19004 3.57915e-17 0)
(0.19004 4.07808e-17 0)
(0.19004 6.25023e-17 0)
(0.19004 6.42913e-18 0)
(0.19004 -5.23357e-17 0)
(0.19004 -3.43739e-17 0)
(0.19004 -5.84842e-17 0)
(0.19004 -3.82423e-17 0)
(0.19004 1.65247e-17 0)
(0.19004 -5.61521e-17 0)
(0.19004 -1.23029e-16 0)
(0.19004 -9.37223e-17 0)
(0.19004 2.44843e-18 0)
(0.19004 1.00999e-16 0)
(0.19004 1.67027e-17 0)
(0.19004 -1.39231e-17 0)
(0.19004 -2.19651e-17 0)
(0.19004 -3.72596e-17 0)
(0.19004 5.53151e-17 0)
(0.19004 -1.35935e-17 0)
(0.19004 -6.97036e-17 0)
(0.19004 3.00853e-18 0)
(0.19004 1.04199e-17 0)
(0.19004 4.16945e-17 0)
(0.19004 5.84209e-17 0)
(0.19004 -2.85688e-17 0)
(0.19004 -2.49207e-18 0)
(0.19004 2.53683e-17 0)
(0.19004 -1.21021e-18 0)
(0.19004 -4.02998e-17 0)
(0.19004 -5.52182e-17 0)
(0.19004 -6.58758e-17 0)
(0.19004 -1.01737e-16 0)
(0.19004 -4.36519e-17 0)
(0.19004 -3.1742e-17 0)
(0.19004 -4.17193e-17 0)
(0.19004 1.11399e-17 0)
(0.19004 -9.84022e-17 0)
(0.19004 -2.3762e-17 0)
(0.19004 -5.51952e-18 0)
(0.19004 -3.28945e-18 0)
(0.19004 6.35316e-18 0)
(0.19004 -1.56833e-16 0)
(0.19004 9.86828e-17 0)
(0.19004 8.82792e-18 0)
(0.19004 -7.06006e-19 0)
(0.19004 1.59415e-16 0)
(0.19004 -4.47214e-17 0)
(0.19004 7.81203e-17 0)
(0.19004 7.62779e-17 0)
(0.19004 8.58695e-17 0)
(0.19004 1.17354e-16 0)
(0.19004 -1.2298e-17 0)
(0.19004 5.71553e-18 0)
(0.19004 -3.37577e-17 0)
(0.19004 4.77784e-17 0)
(0.19004 9.54859e-17 0)
(0.19004 -1.25801e-16 0)
(0.19004 -1.37432e-16 0)
(0.19004 4.16246e-18 0)
(0.19004 -7.88022e-17 0)
(0.19004 -4.94232e-18 0)
(0.19004 -7.89595e-17 0)
(0.19004 -1.55591e-16 0)
(0.19004 4.96923e-17 0)
(0.19004 1.18049e-16 0)
(0.19004 8.09439e-17 0)
(0.19004 9.75872e-19 0)
(0.19004 3.91104e-17 0)
(0.19004 1.27834e-17 0)
(0.19004 6.28075e-17 0)
(0.19004 2.03202e-16 0)
(0.19004 -4.25088e-17 0)
(0.19004 -9.37807e-17 0)
(0.19004 6.83296e-17 0)
(0.19004 6.88317e-17 0)
(0.19004 2.48551e-17 0)
(0.19004 -1.60047e-17 0)
(0.19004 5.90207e-17 0)
(0.19004 3.12368e-17 0)
(0.19004 6.81712e-18 0)
(0.19004 -7.27645e-18 0)
(0.19004 -7.37296e-17 0)
(0.19004 -3.62749e-17 0)
(0.19004 -8.13861e-17 0)
(0.19004 -8.63612e-19 0)
(0.19004 8.64502e-17 0)
(0.19004 9.33043e-17 0)
(0.19004 -1.18735e-16 0)
(0.19004 -8.86677e-17 0)
(0.19004 2.26576e-16 0)
(0.19004 2.13339e-16 0)
(0.19004 -1.49979e-17 0)
(0.19004 -3.41956e-16 0)
(0.19004 8.0439e-18 0)
(0.19004 2.49762e-16 0)
(0.19004 1.19135e-16 0)
(0.19004 -3.63373e-17 0)
(0.19004 -2.99875e-16 0)
(0.19004 -1.0087e-16 0)
(0.19004 2.92622e-16 0)
(0.19004 1.02223e-16 0)
(0.19004 -2.53101e-16 0)
(0.19004 -3.36702e-16 0)
(0.19004 -6.62694e-17 0)
(0.19004 3.39552e-16 0)
(0.19004 2.16045e-16 0)
(0.19004 -1.77822e-16 0)
(0.19004 -3.8015e-16 0)
(0.19004 1.27915e-16 0)
(0.19004 3.86801e-16 0)
(0.19004 8.11569e-17 0)
(0.19004 -9.89994e-17 0)
(0.19004 -2.39402e-16 0)
(0.19004 3.90218e-17 0)
(0.19004 2.25958e-16 0)
(0.19004 -5.3114e-17 0)
(0.19004 -1.58463e-16 0)
(0.19004 -2.47473e-16 0)
(0.19004 -7.7664e-17 0)
(0.19004 1.81761e-16 0)
(0.19004 -1.48157e-18 0)
(0.19004 -1.57212e-16 0)
(0.19004 -1.79198e-16 0)
(0.19004 8.28718e-17 0)
(0.19004 1.32046e-16 0)
(0.19004 -2.6321e-17 0)
(0.19004 -7.2221e-17 0)
(0.19004 -1.14178e-16 0)
(0.19004 9.7375e-17 0)
(0.19004 2.66079e-17 0)
(0.19004 -1.12743e-16 0)
(0.19004 1.21194e-16 0)
(0.19004 -1.20153e-16 0)
(0.19004 -1.71343e-16 0)
(0.19004 4.01515e-17 0)
(0.19004 1.08198e-16 0)
(0.19004 1.64117e-16 0)
(0.19004 -5.3086e-17 0)
(0.19004 -1.15706e-16 0)
(0.19004 9.72901e-17 0)
(0.19004 1.81612e-16 0)
(0.19004 2.04103e-16 0)
(0.19004 -1.31087e-16 0)
(0.19004 -3.86207e-17 0)
(0.19004 2.18375e-16 0)
(0.19004 -7.62987e-17 0)
(0.19004 3.42547e-17 0)
(0.19004 3.52327e-17 0)
(0.19004 6.05055e-17 0)
(0.19004 1.69311e-16 0)
(0.19004 8.96534e-17 0)
(0.19004 3.73848e-17 0)
(0.19004 -9.1821e-17 0)
(0.19004 8.85247e-17 0)
(0.19004 1.92408e-16 0)
(0.19004 1.82217e-17 0)
(0.19004 -1.89887e-16 0)
(0.19004 -2.01401e-16 0)
(0.19004 8.47979e-17 0)
(0.19004 -1.13091e-17 0)
(0.19004 1.3488e-16 0)
(0.19004 4.4462e-17 0)
(0.19004 -4.08642e-16 0)
(0.19004 -5.00464e-17 0)
(0.19004 1.83231e-16 0)
(0.19004 3.54942e-17 0)
(0.19004 1.26246e-16 0)
(0.19004 -2.1581e-16 0)
(0.19004 -6.56367e-17 0)
(0.19004 1.84051e-16 0)
(0.19004 -6.34558e-17 0)
(0.19004 -1.20521e-17 0)
(0.19004 -5.58881e-17 0)
(0.19004 -8.60667e-17 0)
(0.19004 1.25222e-16 0)
(0.19004 6.37899e-17 0)
(0.19004 1.02829e-17 0)
(0.19004 -1.00721e-16 0)
(0.19004 -5.85564e-17 0)
(0.19004 9.94069e-17 0)
(0.19004 -4.98031e-17 0)
(0.19004 -2.79779e-17 0)
(0.19004 -8.42643e-17 0)
(0.19004 6.38927e-17 0)
(0.19004 1.47933e-16 0)
(0.19004 -4.54098e-17 0)
(0.19004 -1.08238e-16 0)
(0.19004 -1.03117e-16 0)
(0.19004 6.48033e-17 0)
(0.19004 9.82979e-17 0)
(0.19004 1.15578e-17 0)
(0.19004 -2.91078e-17 0)
(0.19004 -1.46097e-16 0)
(0.19004 4.41372e-16 0)
(0.19004 5.64077e-17 0)
(0.19004 -3.61773e-16 0)
(0.19004 3.06146e-16 0)
(0.19004 -8.34677e-17 0)
(0.19004 -1.02796e-17 0)
(0.19004 -1.17381e-16 0)
(0.19004 -3.33504e-16 0)
(0.19004 5.15431e-16 0)
(0.19004 5.64486e-17 0)
(0.19004 -1.3946e-16 0)
(0.19004 -1.10241e-16 0)
(0.19004 -3.75636e-16 0)
(0.19004 4.89013e-16 0)
(0.19004 2.76471e-17 0)
(0.19004 -2.21074e-16 0)
(0.19004 2.2813e-17 0)
(0.19004 -1.89572e-16 0)
(0.19004 4.99173e-16 0)
(0.19004 6.1182e-17 0)
(0.19004 -9.87111e-17 0)
(0.19004 9.60115e-17 0)
(0.19004 -3.52006e-16 0)
(0.19004 1.2715e-16 0)
(0.19004 1.39149e-17 0)
(0.19004 3.08345e-16 0)
(0.19004 3.22513e-16 0)
(0.19004 -4.75735e-16 0)
(0.19004 7.63204e-17 0)
(0.19004 -1.6441e-16 0)
(0.19004 1.30934e-16 0)
(0.19004 2.24689e-16 0)
(0.19004 -6.79656e-16 0)
(0.19004 8.40721e-17 0)
(0.19004 1.66325e-16 0)
(0.19004 1.90223e-16 0)
(0.19004 1.8251e-17 0)
(0.19004 -4.47131e-16 0)
(0.19004 5.0229e-16 0)
(0.19004 -5.62183e-17 0)
(0.19004 -4.24047e-16 0)
(0.19004 -2.54261e-16 0)
(0.19004 -2.29653e-16 0)
(0.19004 7.46172e-16 0)
(0.19004 -5.33106e-18 0)
(0.19004 -1.46137e-16 0)
(0.19004 1.63551e-16 0)
(0.19004 -3.67582e-16 0)
(0.19004 2.59066e-16 0)
(0.19004 4.62319e-17 0)
(0.19004 1.17387e-17 0)
(0.19004 2.71416e-17 0)
(0.19004 -2.41171e-16 0)
(0.19004 4.9364e-16 0)
(0.19004 1.18126e-17 0)
(0.19004 -1.28664e-16 0)
(0.19004 -2.60936e-17 0)
(0.19004 -3.85068e-16 0)
(0.19004 2.73956e-16 0)
(0.19004 4.32389e-17 0)
(0.19004 5.84486e-18 0)
(0.19004 -6.41876e-18 0)
(0.19004 -3.89078e-16 0)
(0.19004 2.46439e-16 0)
(0.19004 7.66098e-18 0)
(0.19004 1.92088e-17 0)
(0.19004 1.30614e-16 0)
(0.19004 -3.91575e-16 0)
(0.19004 1.79774e-16 0)
(0.19004 2.37795e-17 0)
(0.19004 -8.13495e-18 0)
(0.19004 8.73554e-17 0)
(0.19004 -3.79782e-16 0)
(0.19004 2.38317e-16 0)
(0.19004 2.27223e-16 0)
(0.19004 -1.60929e-16 0)
(0.19004 -1.77744e-16 0)
(0.19004 -2.33769e-16 0)
(0.19004 2.92043e-16 0)
(0.19004 5.49509e-17 0)
(0.19004 -2.14544e-16 0)
(0.19004 7.72558e-17 0)
(0.19004 -8.94293e-17 0)
(0.19004 1.63715e-16 0)
(0.19004 2.47682e-16 0)
(0.19004 -1.58607e-16 0)
(0.19004 -1.23216e-16 0)
(0.19004 -1.7432e-16 0)
(0.19004 2.47173e-16 0)
(0.19004 4.07448e-16 0)
(0.19004 4.66645e-17 0)
(0.19004 -3.93983e-16 0)
(0.19004 -1.66429e-16 0)
(0.19004 2.64377e-16 0)
(0.19004 6.4891e-17 0)
(0.19004 8.62736e-17 0)
(0.19004 -2.37715e-16 0)
(0.19004 4.6243e-17 0)
(0.19004 1.6306e-16 0)
(0.19004 -1.73652e-16 0)
(0.19004 1.96826e-16 0)
(0.19004 3.16986e-18 0)
(0.19004 -1.05247e-16 0)
(0.19004 5.15736e-17 0)
(0.19004 -5.77695e-17 0)
(0.19004 4.07249e-16 0)
(0.19004 2.31116e-16 0)
(0.19004 4.62401e-16 0)
(0.262378 1.30399e-15 0)
(0.262378 6.48897e-16 0)
(0.262378 2.65055e-16 0)
(0.262378 1.52502e-16 0)
(0.262378 1.00926e-16 0)
(0.262378 9.02892e-17 0)
(0.262378 7.47338e-17 0)
(0.262378 7.54064e-17 0)
(0.262378 1.0662e-16 0)
(0.262378 5.05662e-17 0)
(0.262378 3.03444e-17 0)
(0.262378 8.91648e-17 0)
(0.262378 1.57941e-16 0)
(0.262378 7.87942e-17 0)
(0.262378 -3.7862e-18 0)
(0.262378 1.03743e-16 0)
(0.262378 1.30992e-16 0)
(0.262378 1.16002e-16 0)
(0.262378 8.55504e-17 0)
(0.262378 7.56011e-17 0)
(0.262378 7.0866e-17 0)
(0.262378 2.09283e-17 0)
(0.262378 -6.94653e-17 0)
(0.262378 -1.00635e-16 0)
(0.262378 -1.00615e-16 0)
(0.262378 -6.10971e-17 0)
(0.262378 1.16557e-17 0)
(0.262378 -1.13104e-16 0)
(0.262378 -2.06446e-16 0)
(0.262378 -1.3402e-16 0)
(0.262378 1.03169e-17 0)
(0.262378 1.01049e-16 0)
(0.262378 2.72023e-17 0)
(0.262378 -1.43142e-17 0)
(0.262378 -2.50982e-17 0)
(0.262378 -4.68647e-17 0)
(0.262378 5.60703e-17 0)
(0.262378 -1.18104e-17 0)
(0.262378 -9.93232e-17 0)
(0.262378 -7.57171e-18 0)
(0.262378 2.60077e-17 0)
(0.262378 7.41097e-17 0)
(0.262378 7.75855e-17 0)
(0.262378 -3.3856e-17 0)
(0.262378 1.72533e-17 0)
(0.262378 1.46111e-17 0)
(0.262378 -1.00611e-17 0)
(0.262378 -5.62908e-17 0)
(0.262378 -1.04115e-16 0)
(0.262378 -1.1565e-16 0)
(0.262378 -1.7613e-16 0)
(0.262378 -1.04815e-16 0)
(0.262378 -5.19581e-17 0)
(0.262378 -8.6349e-17 0)
(0.262378 3.22405e-18 0)
(0.262378 -1.43434e-16 0)
(0.262378 -5.85489e-17 0)
(0.262378 -2.41336e-17 0)
(0.262378 -4.03101e-17 0)
(0.262378 1.16781e-17 0)
(0.262378 -1.71692e-16 0)
(0.262378 8.73626e-17 0)
(0.262378 4.12383e-17 0)
(0.262378 4.3408e-17 0)
(0.262378 1.57517e-16 0)
(0.262378 -1.67023e-17 0)
(0.262378 1.57045e-16 0)
(0.262378 1.26862e-16 0)
(0.262378 1.64786e-16 0)
(0.262378 2.02193e-16 0)
(0.262378 -2.26442e-17 0)
(0.262378 1.33447e-17 0)
(0.262378 -2.64521e-17 0)
(0.262378 6.84214e-17 0)
(0.262378 1.24495e-16 0)
(0.262378 -1.96783e-16 0)
(0.262378 -1.77171e-16 0)
(0.262378 -6.45997e-17 0)
(0.262378 -1.21759e-16 0)
(0.262378 -1.19431e-17 0)
(0.262378 -1.48696e-16 0)
(0.262378 -2.04881e-16 0)
(0.262378 3.25626e-17 0)
(0.262378 2.24114e-16 0)
(0.262378 1.56428e-16 0)
(0.262378 -1.94495e-17 0)
(0.262378 4.61544e-17 0)
(0.262378 7.69361e-17 0)
(0.262378 9.83077e-17 0)
(0.262378 2.57633e-16 0)
(0.262378 9.43885e-18 0)
(0.262378 -6.20663e-17 0)
(0.262378 4.63814e-17 0)
(0.262378 9.93636e-17 0)
(0.262378 6.23899e-17 0)
(0.262378 -5.18217e-17 0)
(0.262378 1.0075e-16 0)
(0.262378 9.18237e-17 0)
(0.262378 -4.29415e-18 0)
(0.262378 -1.91723e-17 0)
(0.262378 -1.15717e-16 0)
(0.262378 -9.35167e-17 0)
(0.262378 -1.17405e-16 0)
(0.262378 2.47109e-17 0)
(0.262378 1.81756e-16 0)
(0.262378 1.19552e-16 0)
(0.262378 -1.87347e-16 0)
(0.262378 -1.57431e-16 0)
(0.262378 3.48411e-16 0)
(0.262378 3.65975e-16 0)
(0.262378 -2.95071e-17 0)
(0.262378 -4.51125e-16 0)
(0.262378 -1.09644e-17 0)
(0.262378 3.17152e-16 0)
(0.262378 2.11197e-16 0)
(0.262378 5.83634e-18 0)
(0.262378 -4.4116e-16 0)
(0.262378 -1.99286e-16 0)
(0.262378 3.72153e-16 0)
(0.262378 1.88628e-16 0)
(0.262378 -3.9095e-16 0)
(0.262378 -5.63807e-16 0)
(0.262378 -6.86166e-17 0)
(0.262378 4.50527e-16 0)
(0.262378 2.48198e-16 0)
(0.262378 -2.06853e-16 0)
(0.262378 -4.19527e-16 0)
(0.262378 1.1979e-16 0)
(0.262378 5.34264e-16 0)
(0.262378 1.25041e-16 0)
(0.262378 -1.90259e-16 0)
(0.262378 -2.49142e-16 0)
(0.262378 4.33768e-18 0)
(0.262378 2.6661e-16 0)
(0.262378 1.11668e-18 0)
(0.262378 -2.5884e-16 0)
(0.262378 -4.28175e-16 0)
(0.262378 -1.48911e-16 0)
(0.262378 2.81285e-16 0)
(0.262378 1.93766e-17 0)
(0.262378 -2.62018e-16 0)
(0.262378 -3.43574e-16 0)
(0.262378 9.46109e-17 0)
(0.262378 2.02212e-16 0)
(0.262378 -1.41336e-17 0)
(0.262378 -5.3213e-17 0)
(0.262378 -2.91433e-16 0)
(0.262378 8.55168e-17 0)
(0.262378 7.78144e-17 0)
(0.262378 -6.0885e-17 0)
(0.262378 9.86044e-17 0)
(0.262378 -2.49781e-16 0)
(0.262378 -1.46971e-16 0)
(0.262378 8.67958e-17 0)
(0.262378 1.56481e-16 0)
(0.262378 1.6835e-16 0)
(0.262378 -1.09762e-16 0)
(0.262378 -7.46134e-17 0)
(0.262378 2.18496e-16 0)
(0.262378 2.78454e-16 0)
(0.262378 2.59306e-16 0)
(0.262378 -1.65919e-16 0)
(0.262378 3.12289e-17 0)
(0.262378 3.41115e-16 0)
(0.262378 -1.00441e-16 0)
(0.262378 7.311e-17 0)
(0.262378 7.56002e-17 0)
(0.262378 1.46252e-16 0)
(0.262378 2.50032e-16 0)
(0.262378 1.4865e-16 0)
(0.262378 6.58914e-17 0)
(0.262378 -1.21668e-16 0)
(0.262378 1.29505e-16 0)
(0.262378 3.28194e-16 0)
(0.262378 -1.19973e-17 0)
(0.262378 -2.53754e-16 0)
(0.262378 -2.43371e-16 0)
(0.262378 -1.25654e-17 0)
(0.262378 -1.89762e-17 0)
(0.262378 1.55159e-16 0)
(0.262378 5.03176e-17 0)
(0.262378 -4.9329e-16 0)
(0.262378 -3.82886e-17 0)
(0.262378 2.35765e-16 0)
(0.262378 1.55681e-17 0)
(0.262378 6.43496e-17 0)