/*--------------------------------*- C++ -*----------------------------------*\
| =========                 |                                                 |
| \\      /  F ield         | OpenFOAM: The Open Source CFD Toolbox           |
|  \\    /   O peration     | Version:  2112                                  |
|   \\  /    A nd           | Website:  www.openfoam.com                      |
|    \\/     M anipulation  |                                                 |
\*---------------------------------------------------------------------------*/
FoamFile
{
    version     2.0;
    format      ascii;
    arch        "LSB;label=32;scalar=64";
    class       volVectorField;
    location    "1";
    object      U;
}
// * * * * * * * * * * * * * * * * * * * * * * * * * * * * * * * * * * * * * //

dimensions      [0 1 -1 0 0 0 0];

internalField   nonuniform List<vector> 
25600
(
(0.0417596 3.25912e-16 0)
(0.0417596 6.0734e-17 0)
(0.0417596 -1.97358e-17 0)
(0.0417596 -1.76809e-17 0)
(0.0417596 2.43673e-18 0)
(0.0417596 1.31309e-18 0)
(0.0417596 -6.19433e-18 0)
(0.0417596 -2.53717e-18 0)
(0.0417596 -4.17322e-19 0)
(0.0417596 -3.18248e-18 0)
(0.0417596 3.77972e-18 0)
(0.0417596 -8.60357e-18 0)
(0.0417596 1.91243e-18 0)
(0.0417596 4.51962e-18 0)
(0.0417596 -1.01149e-17 0)
(0.0417596 1.00836e-17 0)
(0.0417596 5.06768e-18 0)
(0.0417596 -5.83285e-18 0)
(0.0417596 -6.59304e-18 0)
(0.0417596 -6.60819e-19 0)
(0.0417596 4.04714e-18 0)
(0.0417596 8.87318e-18 0)
(0.0417596 1.35443e-18 0)
(0.0417596 -6.89381e-18 0)
(0.0417596 -1.27322e-17 0)
(0.0417596 1.04102e-18 0)
(0.0417596 2.67126e-17 0)
(0.0417596 3.68746e-18 0)
(0.0417596 -2.00855e-17 0)
(0.0417596 -4.0513e-18 0)
(0.0417596 1.08094e-17 0)
(0.0417596 9.20535e-18 0)
(0.0417596 -1.96308e-18 0)
(0.0417596 -1.22765e-17 0)
(0.0417596 9.26095e-19 0)
(0.0417596 -1.67552e-18 0)
(0.0417596 1.17091e-17 0)
(0.0417596 -2.68917e-18 0)
(0.0417596 -1.28364e-17 0)
(0.0417596 5.75016e-18 0)
(0.0417596 -1.28156e-18 0)
(0.0417596 1.63283e-17 0)
(0.0417596 -5.58791e-18 0)
(0.0417596 -2.1692e-17 0)
(0.0417596 2.50072e-17 0)
(0.0417596 -1.38001e-17 0)
(0.0417596 2.44212e-18 0)
(0.0417596 1.83672e-18 0)
(0.0417596 1.03169e-18 0)
(0.0417596 -2.67322e-19 0)
(0.0417596 -3.30471e-17 0)
(0.0417596 2.47081e-17 0)
(0.0417596 -4.05672e-18 0)
(0.0417596 3.16136e-18 0)
(0.0417596 2.69943e-17 0)
(0.0417596 -2.69635e-17 0)
(0.0417596 -1.35936e-19 0)
(0.0417596 -1.31502e-17 0)
(0.0417596 3.58582e-18 0)
(0.0417596 4.53809e-17 0)
(0.0417596 -3.64022e-17 0)
(0.0417596 6.7299e-18 0)
(0.0417596 -6.82469e-18 0)
(0.0417596 -5.28904e-18 0)
(0.0417596 2.2655e-17 0)
(0.0417596 -2.10512e-17 0)
(0.0417596 -1.19937e-18 0)
(0.0417596 -1.62443e-17 0)
(0.0417596 2.07981e-17 0)
(0.0417596 6.78833e-18 0)
(0.0417596 -6.75612e-18 0)
(0.0417596 2.25809e-18 0)
(0.0417596 -6.13056e-18 0)
(0.0417596 -6.26383e-18 0)
(0.0417596 1.23305e-17 0)
(0.0417596 -1.7934e-18 0)
(0.0417596 -2.0046e-17 0)
(0.0417596 1.70783e-17 0)
(0.0417596 -6.89566e-18 0)
(0.0417596 3.81704e-17 0)
(0.0417596 -2.74839e-17 0)
(0.0417596 -3.16975e-17 0)
(0.0417596 2.99899e-17 0)
(0.0417596 1.15383e-18 0)
(0.0417596 2.50806e-17 0)
(0.0417596 -9.49855e-19 0)
(0.0417596 -4.66385e-17 0)
(0.0417596 -4.61071e-18 0)
(0.0417596 1.69793e-17 0)
(0.0417596 3.35904e-17 0)
(0.0417596 -6.70058e-18 0)
(0.0417596 -5.71924e-17 0)
(0.0417596 3.54256e-18 0)
(0.0417596 5.26865e-17 0)
(0.0417596 1.52947e-18 0)
(0.0417596 -5.92527e-17 0)
(0.0417596 4.07985e-18 0)
(0.0417596 -3.24535e-18 0)
(0.0417596 5.05551e-17 0)
(0.0417596 2.731e-17 0)
(0.0417596 -8.01136e-17 0)
(0.0417596 1.22922e-17 0)
(0.0417596 -9.61969e-18 0)
(0.0417596 4.69474e-17 0)
(0.0417596 4.79252e-18 0)
(0.0417596 -1.57804e-17 0)
(0.0417596 -3.45683e-17 0)
(0.0417596 1.10407e-17 0)
(0.0417596 3.55675e-17 0)
(0.0417596 -1.39482e-17 0)
(0.0417596 3.06542e-17 0)
(0.0417596 -9.43136e-17 0)
(0.0417596 2.62565e-17 0)
(0.0417596 6.05906e-17 0)
(0.0417596 4.0708e-18 0)
(0.0417596 -2.03375e-17 0)
(0.0417596 -5.89346e-17 0)
(0.0417596 3.831e-17 0)
(0.0417596 3.96386e-17 0)
(0.0417596 1.60685e-17 0)
(0.0417596 -3.95921e-18 0)
(0.0417596 -6.74716e-17 0)
(0.0417596 -7.16604e-18 0)
(0.0417596 6.66362e-17 0)
(0.0417596 1.51422e-17 0)
(0.0417596 -2.99245e-17 0)
(0.0417596 -4.36763e-17 0)
(0.0417596 6.81161e-19 0)
(0.0417596 6.77798e-17 0)
(0.0417596 -8.04634e-18 0)
(0.0417596 -2.00607e-17 0)
(0.0417596 -3.53959e-17 0)
(0.0417596 1.88011e-17 0)
(0.0417596 3.94565e-17 0)
(0.0417596 -2.35635e-17 0)
(0.0417596 -1.95104e-17 0)
(0.0417596 -1.34499e-17 0)
(0.0417596 3.59255e-17 0)
(0.0417596 2.03755e-17 0)
(0.0417596 -2.40843e-17 0)
(0.0417596 -3.23162e-17 0)
(0.0417596 -9.19806e-18 0)
(0.0417596 5.38596e-17 0)
(0.0417596 1.06728e-17 0)
(0.0417596 -5.6569e-17 0)
(0.0417596 5.11766e-17 0)
(0.0417596 -1.06776e-17 0)
(0.0417596 -3.75747e-17 0)
(0.0417596 2.96156e-19 0)
(0.0417596 -8.74388e-18 0)
(0.0417596 6.15216e-17 0)
(0.0417596 -1.16654e-17 0)
(0.0417596 -5.42572e-17 0)
(0.0417596 6.55294e-18 0)
(0.0417596 3.02167e-17 0)
(0.0417596 3.02413e-17 0)
(0.0417596 -3.71629e-17 0)
(0.0417596 -3.90699e-17 0)
(0.0417596 2.51302e-17 0)
(0.0417596 3.80352e-18 0)
(0.0417596 6.72017e-17 0)
(0.0417596 -6.43333e-17 0)
(0.0417596 -5.29246e-17 0)
(0.0417596 7.36181e-17 0)
(0.0417596 -1.97903e-17 0)
(0.0417596 5.3705e-17 0)
(0.0417596 -4.65982e-17 0)
(0.0417596 -8.06541e-18 0)
(0.0417596 6.84584e-18 0)
(0.0417596 -5.3097e-17 0)
(0.0417596 9.6513e-17 0)
(0.0417596 -6.24386e-17 0)
(0.0417596 -1.40969e-18 0)
(0.0417596 1.98184e-17 0)
(0.0417596 -4.36688e-17 0)
(0.0417596 9.07275e-17 0)
(0.0417596 -5.99945e-17 0)
(0.0417596 1.34617e-17 0)
(0.0417596 -9.90827e-18 0)
(0.0417596 -4.62904e-17 0)
(0.0417596 1.17407e-16 0)
(0.0417596 -7.73105e-17 0)
(0.0417596 -1.26666e-18 0)
(0.0417596 1.74036e-17 0)
(0.0417596 -5.20739e-17 0)
(0.0417596 1.08847e-16 0)
(0.0417596 -6.454e-17 0)
(0.0417596 -3.6484e-18 0)
(0.0417596 7.197e-17 0)
(0.0417596 -1.0393e-16 0)
(0.0417596 5.3817e-17 0)
(0.0417596 1.6567e-18 0)
(0.0417596 -6.5278e-17 0)
(0.0417596 1.06336e-16 0)
(0.0417596 -4.50394e-17 0)
(0.0417596 9.85565e-18 0)
(0.0417596 -5.08321e-17 0)
(0.0417596 -1.08917e-17 0)
(0.0417596 1.53896e-16 0)
(0.0417596 -9.75427e-17 0)
(0.0417596 6.83028e-18 0)
(0.0417596 -5.76404e-17 0)
(0.0417596 3.04775e-18 0)
(0.0417596 1.55473e-16 0)
(0.0417596 -9.9904e-17 0)
(0.0417596 -4.70814e-17 0)
(0.0417596 -1.24397e-17 0)
(0.0417596 4.8098e-17 0)
(0.0417596 9.61024e-17 0)
(0.0417596 -5.00717e-17 0)
(0.0417596 -9.09881e-17 0)
(0.0417596 -7.33082e-17 0)
(0.0417596 1.77085e-16 0)
(0.0417596 1.3125e-18 0)
(0.0417596 -1.86335e-16 0)
(0.0417596 1.79876e-16 0)
(0.0417596 3.44835e-17 0)
(0.0417596 -9.50443e-17 0)
(0.0417596 -4.02909e-17 0)
(0.0417596 -8.16038e-17 0)
(0.0417596 1.81723e-16 0)
(0.0417596 4.43388e-17 0)
(0.0417596 -9.44787e-17 0)
(0.0417596 -3.41308e-17 0)
(0.0417596 -9.63611e-17 0)
(0.0417596 1.73904e-16 0)
(0.0417596 -2.87772e-18 0)
(0.0417596 -6.41258e-17 0)
(0.0417596 1.59693e-17 0)
(0.0417596 -1.17422e-16 0)
(0.0417596 1.74225e-16 0)
(0.0417596 -3.02648e-18 0)
(0.0417596 -1.03556e-16 0)
(0.0417596 5.96035e-17 0)
(0.0417596 -8.34127e-17 0)
(0.0417596 1.04216e-16 0)
(0.0417596 -9.0601e-18 0)
(0.0417596 -3.5734e-17 0)
(0.0417596 3.07836e-17 0)
(0.0417596 -1.39356e-16 0)
(0.0417596 1.6644e-16 0)
(0.0417596 -1.19593e-17 0)
(0.0417596 -4.6289e-17 0)
(0.0417596 8.01613e-17 0)
(0.0417596 -1.47963e-16 0)
(0.0417596 1.48949e-17 0)
(0.0417596 5.0117e-17 0)
(0.0417596 5.3348e-17 0)
(0.0417596 1.56717e-17 0)
(0.0417596 -1.40139e-16 0)
(0.0417596 9.22507e-17 0)
(0.0417596 -5.04967e-19 0)
(0.0417596 -2.46188e-17 0)
(0.0417596 4.88624e-17 0)
(0.0417596 -1.31171e-16 0)
(0.0417596 1.04825e-16 0)
(0.0417596 -1.09728e-17 0)
(0.0417596 -1.76409e-17 0)
(0.0417596 7.7911e-17 0)
(0.0417596 -1.39773e-16 0)
(0.0417596 6.50717e-17 0)
(0.0417596 -2.1368e-18 0)
(0.0417596 -1.31259e-18 0)
(0.0417596 6.5927e-17 0)
(0.0417596 -1.23168e-16 0)
(0.0417596 8.36781e-17 0)
(0.0417596 3.15111e-17 0)
(0.0417596 -4.65342e-17 0)
(0.0417596 1.57161e-17 0)
(0.0417596 -8.62101e-17 0)
(0.0417596 7.6919e-17 0)
(0.0417596 4.12003e-17 0)
(0.0417596 -8.71153e-17 0)
(0.0417596 6.05591e-17 0)
(0.0417596 -4.04505e-17 0)
(0.0417596 3.75228e-17 0)
(0.0417596 4.65723e-17 0)
(0.0417596 -1.0325e-16 0)
(0.0417596 6.81763e-17 0)
(0.0417596 -4.44238e-17 0)
(0.0417596 1.86815e-17 0)
(0.0417596 4.60293e-17 0)
(0.0417596 -9.55865e-17 0)
(0.0417596 6.52435e-17 0)
(0.0417596 -3.43126e-17 0)
(0.0417596 -2.77588e-17 0)
(0.0417596 1.02517e-16 0)
(0.0417596 -5.36511e-17 0)
(0.0417596 -1.22589e-17 0)
(0.0417596 -6.7597e-17 0)
(0.0417596 3.16725e-17 0)
(0.0417596 1.42592e-16 0)
(0.0417596 -9.12334e-18 0)
(0.0417596 -1.34415e-16 0)
(0.0417596 -2.34215e-17 0)
(0.0417596 6.871e-17 0)
(0.0417596 5.12603e-18 0)
(0.0417596 8.92716e-17 0)
(0.0417596 -1.45206e-16 0)
(0.0417596 -2.15809e-17 0)
(0.0417596 7.11945e-17 0)
(0.0417596 7.43101e-18 0)
(0.0417596 5.18815e-17 0)
(0.0417596 -1.07301e-16 0)
(0.0417596 2.15967e-17 0)
(0.0417596 2.89577e-17 0)
(0.0417596 -6.26754e-17 0)
(0.0417596 9.84015e-17 0)
(0.0417596 -6.4591e-17 0)
(0.0417596 3.32435e-18 0)
(0.0417596 2.56083e-17 0)
(0.0417596 -7.9249e-17 0)
(0.0417596 1.12487e-16 0)
(0.0417596 -4.45847e-17 0)
(0.0417596 -6.88828e-17 0)
(0.0417596 5.89663e-17 0)
(0.0417596 -2.83482e-17 0)
(0.0417596 6.02579e-17 0)
(0.0417596 -5.5333e-17 0)
(0.0417596 -5.29245e-18 0)
(0.123124 3.77717e-16 0)
(0.123124 7.31197e-17 0)
(0.123124 -1.28235e-17 0)
(0.123124 -1.02612e-17 0)
(0.123124 2.56225e-17 0)
(0.123124 2.78035e-17 0)
(0.123124 -5.35445e-19 0)
(0.123124 8.81898e-18 0)
(0.123124 7.4817e-18 0)
(0.123124 -1.21157e-17 0)
(0.123124 -1.37387e-17 0)
(0.123124 -2.7371e-17 0)
(0.123124 8.28218e-18 0)
(0.123124 8.00257e-18 0)
(0.123124 -1.83513e-17 0)
(0.123124 5.2528e-17 0)
(0.123124 1.75184e-17 0)
(0.123124 -1.58678e-17 0)
(0.123124 -2.74452e-17 0)
(0.123124 -6.67224e-19 0)
(0.123124 2.80978e-17 0)
(0.123124 2.44529e-17 0)
(0.123124 2.52767e-18 0)
(0.123124 -2.07883e-17 0)
(0.123124 -1.39234e-17 0)
(0.123124 3.55276e-18 0)
(0.123124 5.32865e-17 0)
(0.123124 3.18518e-17 0)
(0.123124 -1.28098e-17 0)
(0.123124 -1.63152e-17 0)
(0.123124 2.23663e-17 0)
(0.123124 4.40596e-17 0)
(0.123124 -1.29878e-17 0)
(0.123124 -2.89549e-17 0)
(0.123124 -7.77449e-18 0)
(0.123124 -6.1563e-18 0)
(0.123124 4.57299e-17 0)
(0.123124 -2.77169e-17 0)
(0.123124 -6.77408e-17 0)
(0.123124 4.3474e-17 0)
(0.123124 -1.21888e-17 0)
(0.123124 3.86016e-18 0)
(0.123124 2.41493e-17 0)
(0.123124 -4.30086e-17 0)
(0.123124 8.79788e-18 0)
(0.123124 -1.84726e-17 0)
(0.123124 1.71192e-17 0)
(0.123124 1.77399e-17 0)
(0.123124 -4.03124e-18 0)
(0.123124 -2.21075e-17 0)
(0.123124 -5.63605e-17 0)
(0.123124 2.16771e-17 0)
(0.123124 -1.4064e-17 0)
(0.123124 1.72536e-17 0)
(0.123124 6.1402e-17 0)
(0.123124 -3.23835e-17 0)
(0.123124 2.70702e-18 0)
(0.123124 7.27823e-18 0)
(0.123124 1.46205e-17 0)
(0.123124 4.17204e-17 0)
(0.123124 -8.13383e-17 0)
(0.123124 2.93871e-17 0)
(0.123124 -1.5173e-17 0)
(0.123124 -2.8471e-17 0)
(0.123124 4.95655e-17 0)
(0.123124 -5.23988e-17 0)
(0.123124 -1.31044e-17 0)
(0.123124 -1.43435e-17 0)
(0.123124 3.17053e-17 0)
(0.123124 5.90331e-17 0)
(0.123124 -2.26751e-17 0)
(0.123124 -2.62539e-17 0)
(0.123124 -5.38323e-17 0)
(0.123124 -3.03145e-17 0)
(0.123124 1.11692e-16 0)
(0.123124 -5.46375e-17 0)
(0.123124 -9.85774e-17 0)
(0.123124 4.94823e-17 0)
(0.123124 6.36409e-18 0)
(0.123124 7.64541e-17 0)
(0.123124 -1.12193e-17 0)
(0.123124 -1.04746e-16 0)
(0.123124 1.55403e-17 0)
(0.123124 4.3302e-17 0)
(0.123124 4.06907e-17 0)
(0.123124 -1.52348e-17 0)
(0.123124 -6.83847e-17 0)
(0.123124 -5.08425e-17 0)
(0.123124 2.88452e-17 0)
(0.123124 9.58136e-17 0)
(0.123124 -5.46666e-17 0)
(0.123124 -1.20467e-16 0)
(0.123124 7.30633e-18 0)
(0.123124 8.5823e-17 0)
(0.123124 2.25803e-17 0)
(0.123124 -9.60889e-17 0)
(0.123124 -2.15187e-17 0)
(0.123124 -7.48895e-18 0)
(0.123124 7.31666e-17 0)
(0.123124 5.2451e-17 0)
(0.123124 -1.15105e-16 0)
(0.123124 3.91858e-17 0)
(0.123124 -5.53399e-17 0)
(0.123124 3.53935e-17 0)
(0.123124 6.60952e-17 0)
(0.123124 1.42172e-17 0)
(0.123124 -9.0273e-17 0)
(0.123124 -2.73904e-17 0)
(0.123124 1.02087e-16 0)
(0.123124 4.51022e-17 0)
(0.123124 4.6925e-17 0)
(0.123124 -1.93365e-16 0)
(0.123124 4.57282e-17 0)
(0.123124 1.81873e-16 0)
(0.123124 3.52705e-17 0)
(0.123124 -8.1323e-18 0)
(0.123124 -1.12789e-16 0)
(0.123124 -1.81504e-17 0)
(0.123124 1.42672e-16 0)
(0.123124 7.37351e-17 0)
(0.123124 -4.18877e-17 0)
(0.123124 -1.52159e-16 0)
(0.123124 -3.01084e-17 0)
(0.123124 1.89693e-16 0)
(0.123124 1.15637e-16 0)
(0.123124 -6.05972e-17 0)
(0.123124 -1.71305e-16 0)
(0.123124 -6.99969e-18 0)
(0.123124 1.74358e-16 0)
(0.123124 8.03251e-18 0)
(0.123124 -4.18795e-17 0)
(0.123124 -9.15456e-17 0)
(0.123124 1.16497e-18 0)
(0.123124 1.16132e-16 0)
(0.123124 3.24628e-18 0)
(0.123124 2.3491e-17 0)
(0.123124 -1.24837e-16 0)
(0.123124 -7.72309e-17 0)
(0.123124 1.16745e-16 0)
(0.123124 3.72286e-17 0)
(0.123124 -1.33833e-17 0)
(0.123124 -1.04575e-16 0)
(0.123124 -4.48381e-18 0)
(0.123124 7.44243e-17 0)
(0.123124 -3.88447e-20 0)
(0.123124 -1.78166e-17 0)
(0.123124 -1.05005e-16 0)
(0.123124 2.80418e-17 0)
(0.123124 3.16411e-17 0)
(0.123124 4.33246e-17 0)
(0.123124 1.10003e-16 0)
(0.123124 -1.65339e-16 0)
(0.123124 -1.20995e-16 0)
(0.123124 9.26726e-17 0)
(0.123124 9.09552e-17 0)
(0.123124 5.38857e-17 0)
(0.123124 -1.08162e-16 0)
(0.123124 -1.25437e-16 0)
(0.123124 2.38559e-17 0)
(0.123124 4.04988e-17 0)
(0.123124 1.38923e-16 0)
(0.123124 -1.28156e-16 0)
(0.123124 -1.85783e-17 0)
(0.123124 1.27638e-16 0)
(0.123124 -1.73521e-16 0)
(0.123124 4.18252e-17 0)
(0.123124 -1.25797e-17 0)
(0.123124 -1.24577e-16 0)
(0.123124 1.50906e-16 0)
(0.123124 6.0648e-17 0)
(0.123124 -2.14739e-17 0)
(0.123124 -1.6554e-16 0)
(0.123124 -1.58087e-17 0)
(0.123124 8.92453e-17 0)
(0.123124 -2.20531e-17 0)
(0.123124 -4.35397e-17 0)
(0.123124 -3.1229e-17 0)
(0.123124 2.22269e-16 0)
(0.123124 -6.36818e-17 0)
(0.123124 -7.58067e-17 0)
(0.123124 1.76373e-16 0)
(0.123124 -2.03944e-16 0)
(0.123124 -2.25486e-17 0)
(0.123124 8.55501e-17 0)
(0.123124 -2.67568e-17 0)
(0.123124 1.65445e-16 0)
(0.123124 -1.22724e-16 0)
(0.123124 -1.88654e-18 0)
(0.123124 1.64187e-16 0)
(0.123124 -1.15768e-16 0)
(0.123124 6.58232e-17 0)
(0.123124 -4.76264e-18 0)
(0.123124 -1.13429e-16 0)
(0.123124 1.57171e-16 0)
(0.123124 -1.03146e-17 0)
(0.123124 3.14754e-17 0)
(0.123124 -8.39553e-17 0)
(0.123124 -3.62013e-17 0)
(0.123124 2.31186e-16 0)
(0.123124 -9.2007e-17 0)
(0.123124 8.62624e-18 0)
(0.123124 -9.98965e-17 0)
(0.123124 2.11618e-17 0)
(0.123124 2.42528e-16 0)
(0.123124 -6.55016e-17 0)
(0.123124 -1.52248e-16 0)
(0.123124 -1.35746e-16 0)
(0.123124 1.1485e-16 0)
(0.123124 1.32751e-16 0)
(0.123124 -7.51275e-17 0)
(0.123124 -1.47265e-16 0)
(0.123124 -1.53174e-16 0)
(0.123124 3.24267e-16 0)
(0.123124 1.70489e-17 0)
(0.123124 -3.36789e-16 0)
(0.123124 2.65892e-16 0)
(0.123124 2.92498e-18 0)
(0.123124 -1.21198e-16 0)
(0.123124 -7.60577e-17 0)
(0.123124 -1.95842e-16 0)
(0.123124 3.57017e-16 0)
(0.123124 1.00513e-16 0)
(0.123124 -1.15777e-16 0)
(0.123124 -8.01465e-17 0)
(0.123124 -2.53126e-16 0)
(0.123124 2.95882e-16 0)
(0.123124 2.11356e-17 0)
(0.123124 -1.1243e-16 0)
(0.123124 8.66454e-17 0)
(0.123124 -1.37118e-16 0)
(0.123124 1.42579e-16 0)
(0.123124 -6.45192e-17 0)
(0.123124 -1.02966e-18 0)
(0.123124 8.42753e-17 0)
(0.123124 -2.71843e-16 0)
(0.123124 6.62289e-17 0)
(0.123124 1.05483e-17 0)
(0.123124 2.13873e-17 0)
(0.123124 1.16513e-16 0)
(0.123124 -2.20105e-16 0)
(0.123124 1.04168e-16 0)
(0.123124 -6.33554e-17 0)
(0.123124 2.56204e-17 0)
(0.123124 1.54431e-16 0)
(0.123124 -3.50047e-16 0)
(0.123124 3.08511e-17 0)
(0.123124 1.05428e-16 0)
(0.123124 1.08376e-16 0)
(0.123124 3.57696e-17 0)
(0.123124 -2.65917e-16 0)
(0.123124 2.50799e-16 0)
(0.123124 2.09026e-17 0)
(0.123124 -1.35929e-16 0)
(0.123124 -3.07128e-17 0)
(0.123124 -2.36043e-16 0)
(0.123124 3.07028e-16 0)
(0.123124 -5.83781e-19 0)
(0.123124 -6.25446e-17 0)
(0.123124 1.3458e-16 0)
(0.123124 -2.8645e-16 0)
(0.123124 1.0777e-16 0)
(0.123124 7.38916e-17 0)
(0.123124 -3.14328e-17 0)
(0.123124 4.0737e-17 0)
(0.123124 -1.52843e-16 0)
(0.123124 2.24769e-16 0)
(0.123124 4.43141e-17 0)
(0.123124 -4.111e-18 0)
(0.123124 -1.97337e-17 0)
(0.123124 -2.28577e-16 0)
(0.123124 1.464e-16 0)
(0.123124 2.78743e-17 0)
(0.123124 9.91304e-17 0)
(0.123124 -1.25325e-17 0)
(0.123124 -2.18606e-16 0)
(0.123124 1.70872e-16 0)
(0.123124 2.47746e-17 0)
(0.123124 -5.64402e-17 0)
(0.123124 1.21198e-16 0)
(0.123124 -1.76353e-16 0)
(0.123124 5.91103e-17 0)
(0.123124 7.30383e-17 0)
(0.123124 -2.53873e-18 0)
(0.123124 5.43202e-18 0)
(0.123124 -2.12944e-16 0)
(0.123124 7.1427e-17 0)
(0.123124 1.58306e-16 0)
(0.123124 7.4395e-17 0)
(0.123124 -1.90218e-16 0)
(0.123124 -1.62985e-16 0)
(0.123124 2.30855e-16 0)
(0.123124 -1.07488e-17 0)
(0.123124 -5.55035e-17 0)
(0.123124 -4.28074e-17 0)
(0.123124 -4.85271e-17 0)
(0.123124 2.52043e-16 0)
(0.123124 -4.73948e-17 0)
(0.123124 -5.5576e-17 0)
(0.123124 -1.07623e-16 0)
(0.123124 -5.85024e-17 0)
(0.123124 2.80468e-16 0)
(0.123124 4.60383e-18 0)
(0.123124 5.78657e-17 0)
(0.123124 -1.51322e-16 0)
(0.123124 -3.02408e-16 0)
(0.123124 6.83188e-17 0)
(0.123124 4.42693e-17 0)
(0.123124 1.38564e-16 0)
(0.123124 -1.2855e-16 0)
(0.123124 1.43108e-17 0)
(0.123124 9.96327e-17 0)
(0.123124 -1.43261e-16 0)
(0.123124 1.66078e-16 0)
(0.123124 -3.15613e-17 0)
(0.123124 -1.14308e-16 0)
(0.123124 1.24532e-16 0)
(0.123124 -1.0546e-16 0)
(0.123124 1.22476e-16 0)
(0.123124 5.56872e-17 0)
(0.123124 -5.26166e-17 0)
(0.202232 4.23619e-16 0)
(0.202232 6.64818e-17 0)
(0.202232 -6.33807e-18 0)
(0.202232 9.23635e-18 0)
(0.202232 5.94885e-17 0)
(0.202232 5.57171e-17 0)
(0.202232 1.54986e-17 0)
(0.202232 1.33095e-18 0)
(0.202232 2.53509e-17 0)
(0.202232 -2.31626e-17 0)
(0.202232 -5.04354e-17 0)
(0.202232 -5.42816e-17 0)
(0.202232 2.52638e-17 0)
(0.202232 1.016e-17 0)
(0.202232 -1.23844e-17 0)
(0.202232 1.05361e-16 0)
(0.202232 4.08315e-17 0)
(0.202232 -2.69162e-17 0)
(0.202232 -2.54459e-17 0)
(0.202232 2.21668e-17 0)
(0.202232 7.14663e-17 0)
(0.202232 4.10287e-17 0)
(0.202232 -4.21047e-18 0)
(0.202232 -2.10713e-17 0)
(0.202232 -6.45113e-18 0)
(0.202232 9.04789e-18 0)
(0.202232 7.27637e-17 0)
(0.202232 7.86843e-17 0)
(0.202232 8.73278e-18 0)
(0.202232 -3.23732e-17 0)
(0.202232 2.92831e-17 0)
(0.202232 9.98135e-17 0)
(0.202232 -1.19108e-17 0)
(0.202232 -5.47704e-17 0)
(0.202232 -2.76515e-17 0)
(0.202232 -2.06105e-17 0)
(0.202232 4.05697e-17 0)
(0.202232 -2.41952e-17 0)
(0.202232 -1.06257e-16 0)
(0.202232 1.128e-17 0)
(0.202232 7.04509e-18 0)
(0.202232 9.11001e-18 0)
(0.202232 4.79564e-17 0)
(0.202232 -6.07609e-17 0)
(0.202232 -6.85413e-17 0)
(0.202232 -1.31444e-17 0)
(0.202232 2.9918e-17 0)
(0.202232 3.77091e-17 0)
(0.202232 -8.86418e-18 0)
(0.202232 -3.36103e-17 0)
(0.202232 -4.27404e-17 0)
(0.202232 -1.16919e-17 0)
(0.202232 -1.77015e-17 0)
(0.202232 2.78007e-17 0)
(0.202232 9.18595e-17 0)
(0.202232 -2.06214e-17 0)
(0.202232 1.00296e-17 0)
(0.202232 1.80546e-17 0)
(0.202232 2.95293e-17 0)
(0.202232 5.8523e-17 0)
(0.202232 -1.63138e-16 0)
(0.202232 6.47791e-17 0)
(0.202232 -1.24546e-17 0)
(0.202232 -7.44962e-17 0)
(0.202232 8.09773e-17 0)
(0.202232 -9.01627e-17 0)
(0.202232 -1.99785e-17 0)
(0.202232 -1.07258e-17 0)
(0.202232 3.28224e-17 0)
(0.202232 9.93476e-17 0)
(0.202232 -4.36512e-17 0)
(0.202232 -7.00305e-17 0)
(0.202232 -1.08147e-16 0)
(0.202232 -7.21774e-19 0)
(0.202232 1.3302e-16 0)
(0.202232 -8.55268e-17 0)
(0.202232 -1.44181e-16 0)
(0.202232 2.90536e-17 0)
(0.202232 1.13116e-17 0)
(0.202232 9.36869e-17 0)
(0.202232 -2.14547e-17 0)
(0.202232 -1.24613e-16 0)
(0.202232 3.19739e-17 0)
(0.202232 3.65493e-17 0)
(0.202232 3.97702e-17 0)
(0.202232 -3.77684e-17 0)
(0.202232 -1.96758e-17 0)
(0.202232 -8.97648e-17 0)
(0.202232 -9.43536e-17 0)
(0.202232 1.23504e-16 0)
(0.202232 -8.91802e-17 0)
(0.202232 -1.45178e-16 0)
(0.202232 3.13776e-17 0)
(0.202232 5.03957e-17 0)
(0.202232 4.55208e-17 0)
(0.202232 -8.23051e-17 0)
(0.202232 -3.16858e-17 0)
(0.202232 -1.52116e-17 0)
(0.202232 2.70452e-17 0)
(0.202232 4.6146e-17 0)
(0.202232 -5.90203e-17 0)
(0.202232 1.56695e-17 0)
(0.202232 -5.05696e-17 0)
(0.202232 1.97995e-17 0)
(0.202232 9.74876e-17 0)
(0.202232 1.0437e-16 0)
(0.202232 -1.31513e-16 0)
(0.202232 -1.19347e-16 0)
(0.202232 1.67116e-16 0)
(0.202232 1.78573e-16 0)
(0.202232 5.51628e-17 0)
(0.202232 -2.84571e-16 0)
(0.202232 5.45028e-17 0)
(0.202232 2.7697e-16 0)
(0.202232 1.65374e-16 0)
(0.202232 5.12207e-17 0)
(0.202232 -2.15389e-16 0)
(0.202232 -1.03604e-16 0)
(0.202232 3.09782e-16 0)
(0.202232 2.16224e-16 0)
(0.202232 -1.43231e-16 0)
(0.202232 -3.11741e-16 0)
(0.202232 -4.62203e-17 0)
(0.202232 3.63588e-16 0)
(0.202232 3.03111e-16 0)
(0.202232 -9.81686e-17 0)
(0.202232 -4.24518e-16 0)
(0.202232 4.50439e-18 0)
(0.202232 3.28737e-16 0)
(0.202232 4.48856e-17 0)
(0.202232 -5.02061e-17 0)
(0.202232 -2.01772e-16 0)
(0.202232 5.98322e-19 0)
(0.202232 2.23108e-16 0)
(0.202232 3.65183e-17 0)
(0.202232 -5.38923e-17 0)
(0.202232 -2.13955e-16 0)
(0.202232 -9.29107e-17 0)
(0.202232 2.05642e-16 0)
(0.202232 6.87947e-17 0)
(0.202232 -9.60458e-17 0)
(0.202232 -1.65009e-16 0)
(0.202232 5.07068e-17 0)
(0.202232 8.64095e-17 0)
(0.202232 -8.15406e-17 0)
(0.202232 -5.10356e-17 0)
(0.202232 -1.18448e-16 0)
(0.202232 9.52414e-17 0)
(0.202232 6.8674e-17 0)
(0.202232 -5.14356e-17 0)
(0.202232 1.62501e-16 0)
(0.202232 -1.06388e-16 0)
(0.202232 -1.73832e-16 0)
(0.202232 7.86321e-17 0)
(0.202232 1.30954e-16 0)
(0.202232 9.48422e-17 0)
(0.202232 -1.51707e-16 0)
(0.202232 -2.54482e-16 0)
(0.202232 -1.4145e-17 0)
(0.202232 1.02373e-16 0)
(0.202232 2.03679e-16 0)
(0.202232 -1.9618e-16 0)
(0.202232 -1.12327e-16 0)
(0.202232 1.73765e-16 0)
(0.202232 -1.21474e-16 0)
(0.202232 -2.97488e-17 0)
(0.202232 -2.85611e-17 0)
(0.202232 -4.28252e-17 0)
(0.202232 9.46645e-17 0)
(0.202232 2.69206e-17 0)
(0.202232 -6.72724e-17 0)
(0.202232 -2.40594e-16 0)
(0.202232 -4.69527e-17 0)
(0.202232 1.70296e-16 0)
(0.202232 1.12191e-16 0)
(0.202232 -1.1075e-16 0)
(0.202232 -1.13799e-16 0)
(0.202232 1.43473e-16 0)
(0.202232 -1.13754e-17 0)
(0.202232 1.55985e-16 0)
(0.202232 1.19108e-16 0)
(0.202232 -3.90866e-16 0)
(0.202232 -5.94358e-17 0)
(0.202232 2.18109e-16 0)
(0.202232 8.68961e-17 0)
(0.202232 1.69021e-16 0)
(0.202232 -1.74174e-16 0)
(0.202232 -4.22708e-17 0)
(0.202232 2.52416e-16 0)
(0.202232 -1.19296e-18 0)
(0.202232 2.6169e-17 0)
(0.202232 -1.61673e-17 0)
(0.202232 -9.38677e-17 0)
(0.202232 1.05915e-16 0)
(0.202232 8.06455e-17 0)
(0.202232 7.45925e-17 0)
(0.202232 -5.18876e-17 0)
(0.202232 -6.44082e-17 0)
(0.202232 1.44834e-16 0)
(0.202232 3.62139e-17 0)
(0.202232 1.70764e-17 0)
(0.202232 -7.24856e-17 0)
(0.202232 4.07515e-17 0)
(0.202232 1.51677e-16 0)
(0.202232 -8.66036e-18 0)
(0.202232 -8.98746e-17 0)
(0.202232 -1.64899e-16 0)
(0.202232 9.78699e-18 0)
(0.202232 3.37736e-17 0)
(0.202232 -6.48949e-17 0)
(0.202232 -1.0482e-16 0)
(0.202232 -2.38231e-16 0)
(0.202232 4.07535e-16 0)
(0.202232 4.2336e-17 0)
(0.202232 -4.15165e-16 0)
(0.202232 2.58426e-16 0)
(0.202232 -1.66266e-16 0)
(0.202232 -6.57241e-17 0)
(0.202232 -8.31813e-17 0)
(0.202232 -3.42537e-16 0)
(0.202232 5.26366e-16 0)
(0.202232 1.26764e-16 0)
(0.202232 -6.15576e-17 0)
(0.202232 -7.05617e-17 0)
(0.202232 -4.75446e-16 0)
(0.202232 3.97685e-16 0)
(0.202232 5.12092e-17 0)
(0.202232 -1.5352e-16 0)
(0.202232 3.33167e-17 0)
(0.202232 -2.5817e-16 0)
(0.202232 4.2084e-16 0)
(0.202232 -1.57484e-19 0)
(0.202232 -1.70152e-16 0)
(0.202232 6.69701e-17 0)
(0.202232 -3.90921e-16 0)
(0.202232 3.3681e-17 0)
(0.202232 -1.45192e-16 0)
(0.202232 1.77266e-16 0)
(0.202232 3.22961e-16 0)
(0.202232 -4.33714e-16 0)
(0.202232 1.06725e-16 0)
(0.202232 -1.74523e-16 0)
(0.202232 9.33615e-17 0)
(0.202232 2.56346e-16 0)
(0.202232 -6.81137e-16 0)
(0.202232 9.14083e-17 0)
(0.202232 1.62201e-16 0)
(0.202232 1.73703e-16 0)
(0.202232 6.47544e-17 0)
(0.202232 -4.37752e-16 0)
(0.202232 5.64675e-16 0)
(0.202232 5.90211e-17 0)
(0.202232 -3.71919e-16 0)
(0.202232 -2.75932e-16 0)
(0.202232 -3.40825e-16 0)
(0.202232 7.34456e-16 0)
(0.202232 -2.08503e-17 0)
(0.202232 -1.82232e-16 0)
(0.202232 1.79342e-16 0)
(0.202232 -4.23935e-16 0)
(0.202232 2.40272e-16 0)
(0.202232 5.57949e-17 0)
(0.202232 2.14515e-17 0)
(0.202232 4.42161e-17 0)
(0.202232 -2.88551e-16 0)
(0.202232 4.82228e-16 0)
(0.202232 4.31669e-17 0)
(0.202232 -4.82369e-17 0)
(0.202232 6.79823e-17 0)
(0.202232 -4.1304e-16 0)
(0.202232 2.29821e-16 0)
(0.202232 5.41501e-17 0)
(0.202232 8.56299e-17 0)
(0.202232 9.91344e-17 0)
(0.202232 -3.83592e-16 0)
(0.202232 2.7012e-16 0)
(0.202232 6.1849e-17 0)
(0.202232 1.90194e-17 0)
(0.202232 1.43479e-16 0)
(0.202232 -4.20512e-16 0)
(0.202232 1.62235e-16 0)
(0.202232 4.33978e-17 0)
(0.202232 4.17327e-18 0)
(0.202232 1.3411e-16 0)
(0.202232 -3.96468e-16 0)
(0.202232 2.07064e-16 0)
(0.202232 2.43098e-16 0)
(0.202232 -9.67988e-17 0)
(0.202232 -1.7201e-16 0)
(0.202232 -2.79185e-16 0)
(0.202232 3.00225e-16 0)
(0.202232 1.42041e-16 0)
(0.202232 -1.80082e-16 0)
(0.202232 7.60335e-17 0)
(0.202232 -9.59451e-17 0)
(0.202232 1.1932e-16 0)
(0.202232 2.42143e-16 0)
(0.202232 -1.57895e-16 0)
(0.202232 -9.80009e-17 0)
(0.202232 -1.77265e-16 0)
(0.202232 2.34031e-16 0)
(0.202232 3.9421e-16 0)
(0.202232 1.97774e-17 0)
(0.202232 -4.76042e-16 0)
(0.202232 -3.27146e-16 0)
(0.202232 1.52529e-16 0)
(0.202232 7.82218e-18 0)
(0.202232 1.21182e-16 0)
(0.202232 -2.29808e-16 0)
(0.202232 6.65299e-17 0)
(0.202232 2.04089e-16 0)
(0.202232 -1.83578e-16 0)
(0.202232 1.87828e-16 0)
(0.202232 -7.74987e-19 0)
(0.202232 -1.26479e-16 0)
(0.202232 5.62253e-17 0)
(0.202232 -1.02945e-16 0)
(0.202232 3.43991e-16 0)
(0.202232 7.09159e-17 0)
(0.202232 -8.53253e-17 0)
(0.278981 3.11132e-16 0)
(0.278981 8.56366e-17 0)
(0.278981 1.11705e-17 0)
(0.278981 2.74788e-17 0)
(0.278981 8.62304e-17 0)
(0.278981 7.57333e-17 0)
(0.278981 4.96253e-17 0)
(0.278981 2.10118e-17 0)
(0.278981 3.52623e-17 0)
(0.278981 -3.51351e-17 0)
(0.278981 -9.09616e-17 0)
(0.278981 -7.56796e-17 0)
(0.278981 3.06601e-17 0)
(0.278981 2.66412e-17 0)
(0.278981 2.3148e-17 0)
(0.278981 1.22089e-16 0)
(0.278981 7.81157e-17 0)
(0.278981 -2.72611e-17 0)
(0.278981 1.50762e-17 0)
(0.278981 4.65025e-17 0)
(0.278981 1.10179e-16 0)
(0.278981 9.65499e-17 0)
(0.278981 9.935e-18 0)
(0.278981 -3.55336e-17 0)
(0.278981 -3.52448e-17 0)
(0.278981 3.29398e-17 0)
(0.278981 1.48241e-16 0)
(0.278981 1.22359e-16 0)
(0.278981 1.21699e-17 0)
(0.278981 -1.8685e-17 0)
(0.278981 4.39145e-17 0)
(0.278981 1.18311e-16 0)
(0.278981 6.53987e-18 0)
(0.278981 -6.05833e-17 0)
(0.278981 -6.4687e-17 0)
(0.278981 -5.72241e-17 0)
(0.278981 3.56343e-17 0)
(0.278981 -1.4883e-17 0)
(0.278981 -1.46685e-16 0)
(0.278981 -2.46537e-17 0)
(0.278981 1.03392e-17 0)
(0.278981 1.13505e-17 0)
(0.278981 4.2892e-17 0)
(0.278981 -8.54136e-17 0)
(0.278981 -7.64037e-17 0)
(0.278981 -5.23434e-17 0)
(0.278981 2.87518e-17 0)
(0.278981 6.00353e-17 0)
(0.278981 -2.60373e-17 0)
(0.278981 -6.06806e-17 0)
(0.278981 -5.56568e-17 0)
(0.278981 1.3155e-18 0)
(0.278981 7.27422e-18 0)
(0.278981 1.98688e-17 0)
(0.278981 1.26786e-16 0)
(0.278981 -1.86682e-17 0)
(0.278981 4.0598e-17 0)
(0.278981 3.18792e-17 0)
(0.278981 3.83681e-17 0)
(0.278981 7.22325e-17 0)
(0.278981 -2.15989e-16 0)
(0.278981 8.26025e-18 0)
(0.278981 2.98428e-18 0)
(0.278981 -6.32571e-17 0)
(0.278981 4.7232e-17 0)
(0.278981 -1.31028e-16 0)
(0.278981 2.9137e-17 0)
(0.278981 -3.55049e-17 0)
(0.278981 2.13408e-17 0)
(0.278981 1.44094e-16 0)
(0.278981 -9.23415e-17 0)
(0.278981 -1.36799e-16 0)
(0.278981 -1.49831e-16 0)
(0.278981 -3.38736e-17 0)
(0.278981 1.72809e-16 0)
(0.278981 -1.09262e-16 0)
(0.278981 -1.57309e-16 0)
(0.278981 1.51831e-17 0)
(0.278981 -1.09704e-17 0)
(0.278981 1.35512e-16 0)
(0.278981 -8.63763e-18 0)
(0.278981 -1.61037e-16 0)
(0.278981 7.89847e-18 0)
(0.278981 5.84548e-17 0)
(0.278981 5.73582e-17 0)
(0.278981 -8.09203e-17 0)
(0.278981 -7.06244e-17 0)
(0.278981 -1.08889e-16 0)
(0.278981 -1.54948e-16 0)
(0.278981 8.40112e-17 0)
(0.278981 -8.94601e-17 0)
(0.278981 -1.68242e-16 0)
(0.278981 -6.60568e-18 0)
(0.278981 7.99441e-17 0)
(0.278981 6.21008e-17 0)
(0.278981 -1.2457e-16 0)
(0.278981 -3.96719e-17 0)
(0.278981 -4.10081e-18 0)
(0.278981 1.1291e-17 0)
(0.278981 5.98452e-17 0)
(0.278981 -4.45496e-17 0)
(0.278981 5.84023e-18 0)
(0.278981 -8.4607e-17 0)
(0.278981 2.15369e-17 0)
(0.278981 2.16752e-16 0)
(0.278981 1.43422e-16 0)
(0.278981 -1.85722e-16 0)
(0.278981 -1.7294e-16 0)
(0.278981 2.45948e-16 0)
(0.278981 3.02978e-16 0)
(0.278981 7.92979e-17 0)
(0.278981 -3.37328e-16 0)
(0.278981 5.77819e-17 0)
(0.278981 3.88843e-16 0)
(0.278981 3.05514e-16 0)
(0.278981 1.44015e-16 0)
(0.278981 -3.15221e-16 0)
(0.278981 -1.6748e-16 0)
(0.278981 4.26401e-16 0)
(0.278981 3.61623e-16 0)
(0.278981 -1.95096e-16 0)
(0.278981 -4.59208e-16 0)
(0.278981 -1.74313e-17 0)
(0.278981 4.76807e-16 0)
(0.278981 3.64002e-16 0)
(0.278981 -8.05425e-17 0)
(0.278981 -4.72149e-16 0)
(0.278981 -4.8322e-17 0)
(0.278981 4.37853e-16 0)
(0.278981 9.79463e-17 0)
(0.278981 -1.24444e-16 0)
(0.278981 -1.91335e-16 0)
(0.278981 -4.84823e-17 0)
(0.278981 2.67347e-16 0)
(0.278981 1.1971e-16 0)
(0.278981 -8.78361e-17 0)
(0.278981 -3.43664e-16 0)
(0.278981 -1.62889e-16 0)
(0.278981 3.09799e-16 0)
(0.278981 1.23598e-16 0)
(0.278981 -1.45232e-16 0)
(0.278981 -3.08013e-16 0)
(0.278981 5.79541e-17 0)
(0.278981 1.25103e-16 0)
(0.278981 -8.86572e-17 0)
(0.278981 -1.10405e-17 0)
(0.278981 -3.041e-16 0)
(0.278981 9.61286e-17 0)
(0.278981 1.45685e-16 0)
(0.278981 1.81821e-18 0)
(0.278981 1.43042e-16 0)
(0.278981 -2.15854e-16 0)
(0.278981 -9.737e-17 0)
(0.278981 1.46052e-16 0)
(0.278981 1.72634e-16 0)
(0.278981 7.27925e-17 0)
(0.278981 -2.76718e-16 0)
(0.278981 -3.16649e-16 0)
(0.278981 9.18264e-18 0)
(0.278981 1.37545e-16 0)
(0.278981 1.90608e-16 0)
(0.278981 -3.10281e-16 0)
(0.278981 -1.09809e-16 0)
(0.278981 2.54764e-16 0)
(0.278981 -2.21141e-16 0)
(0.278981 -5.7698e-17 0)
(0.278981 -5.3381e-17 0)
(0.278981 -3.06609e-17 0)
(0.278981 1.29834e-16 0)
(0.278981 4.08306e-17 0)
(0.278981 -1.07684e-16 0)
(0.278981 -3.89685e-16 0)
(0.278981 -9.99136e-17 0)
(0.278981 3.16906e-16 0)