/*--------------------------------*- C++ -*----------------------------------*\
| =========                 |                                                 |
| \\      /  F ield         | OpenFOAM: The Open Source CFD Toolbox           |
|  \\    /   O peration     | Version:  2112                                  |
|   \\  /    A nd           | Website:  www.openfoam.com                      |
|    \\/     M anipulation  |                                                 |
\*---------------------------------------------------------------------------*/
FoamFile
{
    version     2.0;
    format      ascii;
    arch        "LSB;label=32;scalar=64";
    class       volVectorField;
    location    "1";
    object      U;
}
// * * * * * * * * * * * * * * * * * * * * * * * * * * * * * * * * * * * * * //

dimensions      [0 1 -1 0 0 0 0];

internalField   nonuniform List<vector> 
50000
(
(0.0434789 1.92337e-15 0)
(0.0434789 3.54173e-16 0)
(0.0434789 1.06491e-16 0)
(0.0434789 4.58184e-17 0)
(0.0434789 3.13703e-17 0)
(0.0434789 1.99234e-17 0)
(0.0434789 1.45068e-17 0)
(0.0434789 5.37224e-18 0)
(0.0434789 1.0433e-17 0)
(0.0434789 1.3339e-17 0)
(0.0434789 1.79459e-19 0)
(0.0434789 -1.57249e-18 0)
(0.0434789 -3.1047e-19 0)
(0.0434789 -6.29269e-19 0)
(0.0434789 5.78453e-18 0)
(0.0434789 -3.31162e-18 0)
(0.0434789 -8.54732e-18 0)
(0.0434789 2.56145e-18 0)
(0.0434789 1.28933e-19 0)
(0.0434789 2.24349e-18 0)
(0.0434789 1.05195e-17 0)
(0.0434789 9.00694e-19 0)
(0.0434789 5.89038e-18 0)
(0.0434789 1.06314e-17 0)
(0.0434789 -6.11754e-18 0)
(0.0434789 -8.09642e-18 0)
(0.0434789 3.22165e-18 0)
(0.0434789 1.00746e-17 0)
(0.0434789 -8.6594e-18 0)
(0.0434789 5.3824e-19 0)
(0.0434789 6.29535e-18 0)
(0.0434789 -1.76376e-17 0)
(0.0434789 3.33523e-18 0)
(0.0434789 1.80659e-17 0)
(0.0434789 -7.81613e-18 0)
(0.0434789 5.96192e-18 0)
(0.0434789 -9.57908e-18 0)
(0.0434789 -7.91191e-18 0)
(0.0434789 8.03028e-18 0)
(0.0434789 -9.12175e-18 0)
(0.0434789 8.85027e-18 0)
(0.0434789 -7.37802e-18 0)
(0.0434789 1.56904e-17 0)
(0.0434789 7.04696e-18 0)
(0.0434789 -2.06986e-17 0)
(0.0434789 3.2634e-18 0)
(0.0434789 1.76995e-17 0)
(0.0434789 -1.74008e-17 0)
(0.0434789 -7.22513e-18 0)
(0.0434789 1.13721e-17 0)
(0.0434789 7.50151e-18 0)
(0.0434789 9.95638e-18 0)
(0.0434789 -2.28425e-17 0)
(0.0434789 -9.23476e-18 0)
(0.0434789 1.88013e-17 0)
(0.0434789 -7.92698e-18 0)
(0.0434789 2.45425e-17 0)
(0.0434789 -1.34031e-17 0)
(0.0434789 -1.9196e-17 0)
(0.0434789 1.65546e-17 0)
(0.0434789 8.3855e-18 0)
(0.0434789 -1.49883e-17 0)
(0.0434789 2.03081e-19 0)
(0.0434789 2.27686e-17 0)
(0.0434789 -2.81102e-17 0)
(0.0434789 1.08244e-17 0)
(0.0434789 1.62999e-17 0)
(0.0434789 7.49184e-18 0)
(0.0434789 6.43329e-19 0)
(0.0434789 -1.92299e-17 0)
(0.0434789 -2.23275e-17 0)
(0.0434789 -2.17325e-18 0)
(0.0434789 3.9528e-17 0)
(0.0434789 -1.84609e-17 0)
(0.0434789 -2.84364e-17 0)
(0.0434789 4.97068e-17 0)
(0.0434789 1.39966e-17 0)
(0.0434789 -3.56558e-17 0)
(0.0434789 -1.32213e-17 0)
(0.0434789 1.46789e-17 0)
(0.0434789 1.78344e-18 0)
(0.0434789 -7.55339e-18 0)
(0.0434789 3.7946e-18 0)
(0.0434789 2.16426e-17 0)
(0.0434789 -3.51093e-17 0)
(0.0434789 2.25505e-17 0)
(0.0434789 2.38909e-17 0)
(0.0434789 -2.62856e-17 0)
(0.0434789 2.92658e-18 0)
(0.0434789 -1.86728e-17 0)
(0.0434789 9.00416e-18 0)
(0.0434789 3.1125e-17 0)
(0.0434789 -1.67565e-17 0)
(0.0434789 -4.73836e-18 0)
(0.0434789 2.06466e-17 0)
(0.0434789 -5.10286e-17 0)
(0.0434789 8.1258e-18 0)
(0.0434789 4.83786e-17 0)
(0.0434789 -2.60843e-17 0)
(0.0434789 -1.22778e-17 0)
(0.0434789 9.59577e-18 0)
(0.0434789 3.36372e-17 0)
(0.0434789 -3.19372e-17 0)
(0.0434789 -3.21275e-17 0)
(0.0434789 6.07098e-17 0)
(0.0434789 -2.25661e-17 0)
(0.0434789 -3.54459e-17 0)
(0.0434789 2.48499e-17 0)
(0.0434789 1.46645e-17 0)
(0.0434789 4.09521e-17 0)
(0.0434789 -3.5942e-17 0)
(0.0434789 -3.96081e-17 0)
(0.0434789 1.85009e-17 0)
(0.0434789 7.86839e-18 0)
(0.0434789 3.98497e-17 0)
(0.0434789 -9.44154e-18 0)
(0.0434789 -6.6019e-17 0)
(0.0434789 8.63989e-18 0)
(0.0434789 3.422e-17 0)
(0.0434789 2.65981e-18 0)
(0.0434789 -3.94739e-18 0)
(0.0434789 -9.72701e-19 0)
(0.0434789 3.74865e-17 0)
(0.0434789 -3.38176e-18 0)
(0.0434789 -6.75434e-17 0)
(0.0434789 4.30514e-17 0)
(0.0434789 3.21792e-17 0)
(0.0434789 -3.65803e-17 0)
(0.0434789 -1.16407e-18 0)
(0.0434789 -2.48314e-18 0)
(0.0434789 -2.43859e-17 0)
(0.0434789 -5.57693e-19 0)
(0.0434789 4.65098e-17 0)
(0.0434789 -5.97915e-18 0)
(0.0434789 -1.57144e-17 0)
(0.0434789 1.26416e-17 0)
(0.0434789 2.14289e-17 0)
(0.0434789 -4.16725e-17 0)
(0.0434789 1.21978e-17 0)
(0.0434789 3.86319e-17 0)
(0.0434789 -4.16379e-17 0)
(0.0434789 -4.97057e-17 0)
(0.0434789 8.07198e-18 0)
(0.0434789 5.17397e-17 0)
(0.0434789 -1.74287e-17 0)
(0.0434789 -7.71858e-18 0)
(0.0434789 6.75303e-17 0)
(0.0434789 -4.08106e-17 0)
(0.0434789 -5.36127e-17 0)
(0.0434789 5.18206e-17 0)
(0.0434789 -7.65764e-18 0)
(0.0434789 -6.12378e-19 0)
(0.0434789 5.0887e-17 0)
(0.0434789 -5.28285e-17 0)
(0.0434789 -4.24121e-18 0)
(0.0434789 4.11446e-17 0)
(0.0434789 -7.82378e-17 0)
(0.0434789 -3.05776e-17 0)
(0.0434789 4.87714e-17 0)
(0.0434789 7.79906e-17 0)
(0.0434789 -4.74099e-17 0)
(0.0434789 2.47738e-19 0)
(0.0434789 -1.60519e-18 0)
(0.0434789 1.70633e-19 0)
(0.0434789 -3.33803e-18 0)
(0.0434789 -7.99918e-18 0)
(0.0434789 8.2639e-18 0)
(0.0434789 -8.57438e-17 0)
(0.0434789 9.99042e-17 0)
(0.0434789 1.95318e-17 0)
(0.0434789 -1.10371e-16 0)
(0.0434789 9.52673e-17 0)
(0.0434789 5.20449e-17 0)
(0.0434789 -9.64919e-17 0)
(0.0434789 1.60367e-17 0)
(0.0434789 -3.09569e-18 0)
(0.0434789 2.15871e-17 0)
(0.0434789 -5.9963e-18 0)
(0.0434789 -2.05666e-17 0)
(0.0434789 4.86626e-17 0)
(0.0434789 -5.68436e-17 0)
(0.0434789 -1.41052e-17 0)
(0.0434789 3.86621e-17 0)
(0.0434789 -3.49335e-17 0)
(0.0434789 7.91363e-17 0)
(0.0434789 -2.71729e-19 0)
(0.0434789 -7.67373e-17 0)
(0.0434789 6.28156e-17 0)
(0.0434789 1.91061e-18 0)
(0.0434789 -3.13339e-17 0)
(0.0434789 -5.28458e-18 0)
(0.0434789 3.26514e-18 0)
(0.0434789 -6.18253e-17 0)
(0.0434789 5.21075e-17 0)
(0.0434789 4.9446e-17 0)
(0.0434789 -3.66295e-17 0)
(0.0434789 2.4202e-17 0)
(0.0434789 5.63747e-17 0)
(0.0434789 -8.50429e-17 0)
(0.0434789 -5.75779e-17 0)
(0.0434789 7.22669e-17 0)
(0.0434789 -3.30408e-17 0)
(0.0434789 2.11063e-17 0)
(0.0434789 -2.8295e-18 0)
(0.0434789 6.10465e-17 0)
(0.0434789 -2.89198e-17 0)
(0.0434789 -8.6491e-17 0)
(0.0434789 4.36217e-17 0)
(0.0434789 1.09788e-17 0)
(0.0434789 7.04852e-18 0)
(0.0434789 6.45766e-17 0)
(0.0434789 -5.36297e-17 0)
(0.0434789 -7.143e-17 0)
(0.0434789 1.39577e-16 0)
(0.0434789 -7.97437e-17 0)
(0.0434789 -5.06717e-17 0)
(0.0434789 4.81172e-17 0)
(0.0434789 -1.54514e-17 0)
(0.0434789 2.32699e-17 0)
(0.0434789 7.10601e-17 0)
(0.0434789 -9.26052e-18 0)
(0.0434789 -7.21649e-17 0)
(0.0434789 -4.62098e-17 0)
(0.0434789 -1.2968e-17 0)
(0.0434789 6.21782e-17 0)
(0.0434789 -6.47279e-17 0)
(0.0434789 5.25557e-17 0)
(0.0434789 5.82158e-17 0)
(0.0434789 -4.45278e-17 0)
(0.0434789 5.62309e-17 0)
(0.0434789 8.46175e-18 0)
(0.0434789 -1.29898e-16 0)
(0.0434789 4.97323e-17 0)
(0.0434789 9.48231e-18 0)
(0.0434789 -7.20226e-17 0)
(0.0434789 7.16238e-17 0)
(0.0434789 6.98501e-18 0)
(0.0434789 6.35487e-17 0)
(0.0434789 -6.78726e-17 0)
(0.0434789 -3.10721e-18 0)
(0.0434789 5.84163e-18 0)
(0.0434789 -7.38943e-17 0)
(0.0434789 5.35394e-17 0)
(0.0434789 8.91844e-17 0)
(0.0434789 -6.97986e-17 0)
(0.0434789 -1.10317e-17 0)
(0.0434789 7.45403e-17 0)
(0.0434789 -7.46295e-17 0)
(0.0434789 3.79266e-18 0)
(0.0434789 -4.89949e-17 0)
(0.0434789 -1.73463e-17 0)
(0.0434789 -1.36673e-17 0)
(0.0434789 1.39574e-16 0)
(0.0434789 3.95188e-18 0)
(0.0434789 -6.93951e-17 0)
(0.0434789 7.51964e-17 0)
(0.0434789 -6.02272e-17 0)
(0.0434789 -7.14881e-17 0)
(0.0434789 7.57084e-17 0)
(0.0434789 -2.04584e-17 0)
(0.0434789 7.9208e-18 0)
(0.0434789 1.03258e-16 0)
(0.0434789 -1.48267e-16 0)
(0.0434789 7.71787e-17 0)
(0.0434789 -1.80467e-17 0)
(0.0434789 -3.37919e-17 0)
(0.0434789 6.2509e-17 0)
(0.0434789 -8.85527e-17 0)
(0.0434789 2.53934e-17 0)
(0.0434789 1.90495e-16 0)
(0.0434789 -1.56246e-16 0)
(0.0434789 -8.10513e-17 0)
(0.0434789 9.63702e-17 0)
(0.0434789 -8.87833e-17 0)
(0.0434789 1.30623e-16 0)
(0.0434789 -1.21316e-16 0)
(0.0434789 -1.90475e-17 0)
(0.0434789 1.1782e-16 0)
(0.0434789 1.24198e-17 0)
(0.0434789 -6.32552e-17 0)
(0.0434789 -7.11056e-18 0)
(0.0434789 -1.66166e-17 0)
(0.0434789 1.87244e-17 0)
(0.0434789 4.88523e-17 0)
(0.0434789 -1.17273e-16 0)
(0.0434789 1.56136e-16 0)
(0.0434789 -3.96124e-17 0)
(0.0434789 -1.25114e-16 0)
(0.0434789 9.2901e-17 0)
(0.0434789 8.15917e-17 0)
(0.0434789 -1.13867e-16 0)
(0.0434789 -4.4023e-17 0)
(0.0434789 8.09848e-17 0)
(0.0434789 -4.0158e-17 0)
(0.0434789 1.10418e-16 0)
(0.0434789 6.83148e-17 0)
(0.0434789 -2.28944e-16 0)
(0.0434789 3.00846e-17 0)
(0.0434789 6.62277e-17 0)
(0.0434789 -1.04667e-16 0)
(0.0434789 1.01666e-16 0)
(0.0434789 -6.26191e-17 0)
(0.0434789 2.66312e-17 0)
(0.0434789 1.77738e-16 0)
(0.0434789 -1.36652e-16 0)
(0.0434789 -1.07972e-16 0)
(0.0434789 1.639e-16 0)
(0.0434789 -7.42407e-17 0)
(0.0434789 -9.06643e-17 0)
(0.0434789 9.61397e-17 0)
(0.0434789 7.57972e-17 0)
(0.0434789 -9.78686e-17 0)
(0.0434789 1.68988e-17 0)
(0.0434789 1.27775e-17 0)
(0.0434789 -8.05234e-17 0)
(0.0434789 1.27439e-16 0)
(0.0434789 -1.3038e-16 0)
(0.0434789 -3.51132e-18 0)
(0.0434789 1.16654e-16 0)
(0.0434789 1.11169e-17 0)
(0.0434789 1.92206e-17 0)
(0.0434789 -8.82261e-18 0)
(0.0434789 -1.34071e-16 0)
(0.0434789 -5.91019e-17 0)
(0.0434789 2.06415e-16 0)
(0.0434789 -1.36975e-16 0)
(0.0434789 -1.56126e-17 0)
(0.0434789 5.66243e-17 0)
(0.0434789 8.84909e-17 0)
(0.0434789 9.59677e-17 0)
(0.0434789 -2.36857e-16 0)
(0.0434789 1.17598e-20 0)
(0.0434789 1.54603e-16 0)
(0.0434789 -1.57959e-16 0)
(0.0434789 6.86261e-18 0)
(0.0434789 2.20165e-16 0)
(0.0434789 -2.29563e-16 0)
(0.0434789 8.47871e-17 0)
(0.0434789 1.48328e-16 0)
(0.0434789 -2.23144e-16 0)
(0.0434789 1.8363e-17 0)
(0.0434789 1.08132e-16 0)
(0.0434789 -1.22426e-16 0)
(0.0434789 1.01725e-17 0)
(0.0434789 1.9032e-16 0)
(0.0434789 -5.50981e-17 0)
(0.0434789 -5.54949e-17 0)
(0.0434789 -1.78124e-17 0)
(0.0434789 -6.35587e-17 0)
(0.0434789 2.45309e-17 0)
(0.0434789 8.88557e-17 0)
(0.0434789 -1.35239e-16 0)
(0.0434789 1.21029e-17 0)
(0.0434789 1.96956e-16 0)
(0.0434789 -5.76015e-17 0)
(0.0434789 -5.97955e-17 0)
(0.0434789 -7.94978e-17 0)
(0.0434789 -4.51583e-18 0)
(0.0434789 1.26546e-16 0)
(0.0434789 -1.4031e-16 0)
(0.0434789 1.09315e-16 0)
(0.0434789 1.7575e-17 0)
(0.0434789 -1.33625e-16 0)
(0.0434789 1.77643e-16 0)
(0.0434789 -9.09894e-17 0)
(0.0434789 -5.58932e-17 0)
(0.0434789 7.08395e-17 0)
(0.0434789 4.96848e-17 0)
(0.0434789 -1.40588e-16 0)
(0.0434789 9.76026e-17 0)
(0.0434789 1.12607e-16 0)
(0.0434789 -1.47218e-16 0)
(0.0434789 -4.37077e-17 0)
(0.0434789 -6.15557e-19 0)
(0.0434789 7.49081e-17 0)
(0.0434789 -2.26875e-17 0)
(0.0434789 7.5411e-17 0)
(0.0434789 -1.42663e-16 0)
(0.0434789 9.74706e-17 0)
(0.0434789 1.14509e-16 0)
(0.0434789 -1.47267e-16 0)
(0.0434789 -5.44435e-17 0)
(0.0434789 6.96525e-17 0)
(0.0434789 6.07982e-18 0)
(0.0434789 -3.75869e-17 0)
(0.0434789 6.24502e-17 0)
(0.0434789 -1.60808e-16 0)
(0.0434789 1.58736e-16 0)
(0.0434789 3.05684e-17 0)
(0.0434789 -1.1613e-16 0)
(0.0434789 2.54631e-17 0)
(0.0434789 7.79715e-18 0)
(0.0434789 1.29966e-17 0)
(0.0434789 -4.27495e-17 0)
(0.0434789 5.46292e-17 0)
(0.0434789 1.39924e-16 0)
(0.0434789 -4.71035e-17 0)
(0.0434789 -2.35457e-16 0)
(0.0434789 6.74147e-18 0)
(0.0434789 1.09109e-16 0)
(0.0434789 1.05539e-18 0)
(0.0434789 1.80902e-16 0)
(0.0434789 -1.62521e-16 0)
(0.0434789 -1.17902e-16 0)
(0.0434789 8.89641e-17 0)
(0.0434789 1.38237e-16 0)
(0.0434789 -5.63935e-17 0)
(0.0434789 -2.01619e-16 0)
(0.0434789 1.02376e-16 0)
(0.0434789 2.96051e-17 0)
(0.0434789 1.99372e-16 0)
(0.0434789 -1.89876e-16 0)
(0.0434789 -1.161e-16 0)
(0.0434789 1.37145e-16 0)
(0.0434789 -1.61731e-17 0)
(0.0434789 2.13991e-17 0)
(0.0434789 -3.71078e-17 0)
(0.0434789 1.56427e-17 0)
(0.0434789 2.84799e-17 0)
(0.0434789 1.42316e-16 0)
(0.0434789 -1.62883e-16 0)
(0.0434789 -1.44871e-16 0)
(0.0434789 3.14948e-16 0)
(0.0434789 -1.37247e-16 0)
(0.0434789 -1.55472e-16 0)
(0.0434789 1.13177e-16 0)
(0.0434789 2.53793e-17 0)
(0.0434789 -2.60187e-18 0)
(0.0434789 1.28426e-16 0)
(0.0434789 -1.41933e-16 0)
(0.0434789 -1.63805e-16 0)
(0.0434789 3.09071e-16 0)
(0.0434789 -9.91372e-17 0)
(0.0434789 -1.93893e-16 0)
(0.0434789 8.81062e-17 0)
(0.0434789 2.30452e-16 0)
(0.0434789 -1.48803e-16 0)
(0.0434789 -1.36407e-17 0)
(0.0434789 1.15036e-17 0)
(0.0434789 -1.59573e-16 0)
(0.0434789 3.07695e-16 0)
(0.0434789 -1.54285e-16 0)
(0.0434789 -1.69672e-17 0)
(0.0434789 -1.29186e-16 0)
(0.0434789 1.53999e-16 0)
(0.0434789 1.23345e-16 0)
(0.0434789 -2.66845e-16 0)
(0.0434789 1.46414e-16 0)
(0.0434789 -2.02103e-17 0)
(0.0434789 3.29489e-17 0)
(0.0434789 -3.51791e-17 0)
(0.0434789 1.26622e-16 0)
(0.0434789 -2.42766e-16 0)
(0.0434789 1.51739e-16 0)
(0.0434789 1.07768e-16 0)
(0.0434789 -2.63498e-16 0)
(0.0434789 1.43379e-16 0)
(0.0434789 1.17955e-16 0)
(0.0434789 -7.8494e-17 0)
(0.0434789 -2.18558e-16 0)
(0.0434789 2.78013e-16 0)
(0.0434789 -1.95174e-16 0)
(0.0434789 1.16113e-16 0)
(0.0434789 2.4145e-16 0)
(0.0434789 -4.14959e-16 0)
(0.0434789 3.74093e-17 0)
(0.0434789 2.44084e-16 0)
(0.0434789 -1.77703e-17 0)
(0.0434789 -2.5504e-16 0)
(0.0434789 1.46153e-16 0)
(0.0434789 -7.75059e-18 0)
(0.0434789 -3.69843e-19 0)
(0.0434789 1.90522e-17 0)
(0.0434789 -1.3988e-16 0)
(0.0434789 1.43147e-16 0)
(0.0434789 9.75499e-18 0)
(0.0434789 1.28141e-16 0)
(0.0434789 -1.71606e-16 0)
(0.0434789 -8.8644e-17 0)
(0.0434789 1.26968e-16 0)
(0.0434789 9.9404e-17 0)
(0.0434789 -1.00005e-16 0)
(0.0434789 -1.26442e-16 0)
(0.0434789 2.74449e-16 0)
(0.0434789 -1.73397e-16 0)
(0.0434789 2.80995e-17 0)
(0.0434789 7.76898e-18 0)
(0.0434789 -1.24339e-16 0)
(0.0434789 2.80241e-16 0)
(0.0434789 -4.84874e-17 0)
(0.0434789 -2.5359e-16 0)
(0.0434789 4.66473e-17 0)
(0.0434789 2.59763e-16 0)
(0.0434789 -1.7115e-16 0)
(0.0434789 2.4812e-17 0)
(0.0434789 1.39644e-17 0)
(0.0434789 1.85234e-17 0)
(0.0434789 1.83133e-16 0)
(0.0434789 -3.77516e-17 0)
(0.0434789 3.95552e-16 0)
(0.128514 3.32398e-15 0)
(0.128514 8.48131e-16 0)
(0.128514 3.19856e-16 0)
(0.128514 1.98036e-16 0)
(0.128514 1.42313e-16 0)
(0.128514 9.30366e-17 0)
(0.128514 7.80191e-17 0)
(0.128514 6.08414e-17 0)
(0.128514 3.74835e-17 0)
(0.128514 3.44564e-17 0)
(0.128514 1.3824e-17 0)
(0.128514 -1.63175e-17 0)
(0.128514 -6.03215e-18 0)
(0.128514 -6.80988e-18 0)
(0.128514 -1.07132e-17 0)
(0.128514 -2.84855e-17 0)
(0.128514 -3.75171e-17 0)
(0.128514 -6.53236e-18 0)
(0.128514 6.1512e-18 0)
(0.128514 4.05222e-17 0)
(0.128514 2.147e-17 0)
(0.128514 8.78104e-18 0)
(0.128514 4.58692e-17 0)
(0.128514 4.62457e-17 0)
(0.128514 2.69273e-18 0)
(0.128514 -2.04349e-17 0)
(0.128514 2.16236e-18 0)
(0.128514 1.15029e-17 0)
(0.128514 -2.44785e-17 0)
(0.128514 -1.34557e-18 0)
(0.128514 8.50307e-18 0)
(0.128514 -2.51902e-17 0)
(0.128514 8.29299e-19 0)
(0.128514 4.08237e-17 0)
(0.128514 -1.03589e-17 0)
(0.128514 -4.27685e-18 0)
(0.128514 -4.4811e-17 0)
(0.128514 -3.94164e-17 0)
(0.128514 1.18378e-17 0)
(0.128514 -7.9579e-18 0)
(0.128514 3.92579e-17 0)
(0.128514 -2.07551e-17 0)
(0.128514 -8.02417e-18 0)
(0.128514 3.11226e-17 0)
(0.128514 -1.37631e-17 0)
(0.128514 2.37956e-17 0)
(0.128514 9.59273e-18 0)
(0.128514 -5.47349e-17 0)
(0.128514 3.88283e-18 0)
(0.128514 2.52128e-17 0)
(0.128514 3.34365e-17 0)
(0.128514 -2.74285e-18 0)
(0.128514 -5.18754e-17 0)
(0.128514 -4.65584e-18 0)
(0.128514 5.23143e-17 0)
(0.128514 -2.15769e-17 0)
(0.128514 1.56374e-17 0)
(0.128514 -1.26301e-17 0)
(0.128514 -3.76544e-17 0)
(0.128514 1.37518e-17 0)
(0.128514 4.80945e-18 0)
(0.128514 -8.22848e-18 0)
(0.128514 1.66151e-17 0)
(0.128514 5.93161e-17 0)
(0.128514 -5.81159e-18 0)
(0.128514 7.89663e-17 0)
(0.128514 -1.60959e-17 0)
(0.128514 -4.48823e-17 0)
(0.128514 5.17637e-17 0)
(0.128514 -5.55021e-17 0)
(0.128514 -5.95193e-17 0)
(0.128514 1.85258e-17 0)
(0.128514 9.28587e-17 0)
(0.128514 -2.72717e-17 0)
(0.128514 -6.90049e-17 0)
(0.128514 1.52241e-16 0)
(0.128514 5.67687e-17 0)
(0.128514 -7.78506e-17 0)
(0.128514 -5.13499e-17 0)
(0.128514 2.03909e-17 0)
(0.128514 7.19438e-18 0)
(0.128514 -2.86112e-17 0)
(0.128514 6.32783e-17 0)
(0.128514 -4.56928e-20 0)
(0.128514 -8.21466e-17 0)
(0.128514 1.05356e-16 0)
(0.128514 1.83697e-17 0)
(0.128514 -4.88851e-17 0)
(0.128514 2.92551e-17 0)
(0.128514 4.30909e-18 0)
(0.128514 1.31583e-17 0)
(0.128514 1.21133e-17 0)
(0.128514 1.82659e-18 0)
(0.128514 -2.45648e-17 0)
(0.128514 6.69221e-18 0)
(0.128514 -8.77578e-17 0)
(0.128514 -2.16048e-18 0)
(0.128514 1.13674e-16 0)
(0.128514 -6.98174e-17 0)
(0.128514 -7.77059e-17 0)
(0.128514 4.02922e-17 0)
(0.128514 3.08363e-17 0)
(0.128514 6.59764e-18 0)
(0.128514 8.25756e-18 0)
(0.128514 1.79328e-17 0)
(0.128514 -3.06354e-17 0)
(0.128514 -2.32671e-17 0)
(0.128514 8.13852e-18 0)
(0.128514 6.67931e-17 0)
(0.128514 9.98787e-17 0)
(0.128514 -3.48858e-17 0)
(0.128514 -1.43383e-16 0)
(0.128514 -4.85416e-17 0)
(0.128514 1.10546e-16 0)
(0.128514 5.58673e-17 0)
(0.128514 -8.95524e-17 0)
(0.128514 -7.69153e-17 0)
(0.128514 5.58863e-17 0)
(0.128514 7.38101e-17 0)
(0.128514 6.3987e-18 0)
(0.128514 -5.6086e-18 0)
(0.128514 1.69866e-17 0)
(0.128514 6.0406e-17 0)
(0.128514 -2.01018e-17 0)
(0.128514 -8.58846e-17 0)
(0.128514 7.75803e-17 0)
(0.128514 3.90444e-17 0)
(0.128514 -5.54328e-17 0)
(0.128514 4.91966e-18 0)
(0.128514 -5.09853e-18 0)
(0.128514 -7.65851e-18 0)
(0.128514 1.31341e-17 0)
(0.128514 1.64515e-16 0)
(0.128514 -7.80773e-17 0)
(0.128514 -1.38219e-16 0)
(0.128514 9.1933e-17 0)
(0.128514 -1.18483e-17 0)
(0.128514 -7.87995e-17 0)
(0.128514 9.03779e-17 0)
(0.128514 2.74146e-17 0)
(0.128514 -1.55517e-16 0)
(0.128514 -1.09436e-16 0)
(0.128514 6.07795e-17 0)
(0.128514 1.52542e-16 0)
(0.128514 -7.23317e-17 0)
(0.128514 -4.33042e-18 0)
(0.128514 2.05872e-16 0)
(0.128514 -3.95926e-17 0)
(0.128514 -1.27657e-16 0)
(0.128514 1.48877e-16 0)
(0.128514 -9.60659e-17 0)
(0.128514 -5.16882e-17 0)
(0.128514 1.96476e-16 0)
(0.128514 -1.66004e-16 0)
(0.128514 -6.14858e-17 0)
(0.128514 9.0196e-17 0)
(0.128514 -1.40933e-16 0)
(0.128514 2.57309e-18 0)
(0.128514 -4.18817e-17 0)
(0.128514 9.80385e-17 0)
(0.128514 1.1607e-16 0)
(0.128514 -3.58948e-17 0)
(0.128514 -4.4362e-17 0)
(0.128514 2.12416e-17 0)
(0.128514 -2.91809e-17 0)
(0.128514 -3.38822e-17 0)
(0.128514 4.99392e-17 0)
(0.128514 -2.32921e-16 0)
(0.128514 8.48492e-17 0)
(0.128514 1.84135e-16 0)
(0.128514 -1.96876e-16 0)
(0.128514 9.52419e-17 0)
(0.128514 1.89499e-16 0)
(0.128514 -1.5736e-16 0)
(0.128514 -8.60248e-17 0)
(0.128514 4.54619e-17 0)
(0.128514 1.1683e-16 0)
(0.128514 8.24998e-18 0)
(0.128514 -1.18633e-16 0)
(0.128514 8.02519e-17 0)
(0.128514 1.13031e-17 0)
(0.128514 -9.48755e-17 0)
(0.128514 2.02858e-17 0)
(0.128514 6.7117e-18 0)
(0.128514 1.66187e-16 0)
(0.128514 8.373e-18 0)
(0.128514 -1.15177e-16 0)
(0.128514 1.19977e-17 0)
(0.128514 -1.19234e-17 0)
(0.128514 3.14126e-17 0)
(0.128514 -7.45718e-17 0)
(0.128514 -5.68961e-17 0)
(0.128514 -1.60385e-17 0)
(0.128514 1.26686e-16 0)
(0.128514 4.21336e-17 0)
(0.128514 -4.61361e-17 0)
(0.128514 1.04181e-16 0)
(0.128514 3.42698e-17 0)
(0.128514 -2.11286e-16 0)
(0.128514 -7.78936e-17 0)
(0.128514 9.28484e-17 0)
(0.128514 -1.74408e-16 0)
(0.128514 1.82161e-16 0)
(0.128514 8.55657e-17 0)
(0.128514 -1.12138e-17 0)
(0.128514 1.37749e-16 0)
(0.128514 -1.00008e-16 0)
(0.128514 -1.0042e-16 0)
(0.128514 8.53754e-17 0)
(0.128514 -2.5571e-17 0)
(0.128514 4.23485e-17 0)
(0.128514 3.90118e-17 0)
(0.128514 -1.04611e-16 0)
(0.128514 1.16655e-16 0)
(0.128514 -7.15245e-17 0)
(0.128514 2.43343e-17 0)
(0.128514 -5.63811e-17 0)
(0.128514 -6.34046e-17 0)
(0.128514 1.17178e-16 0)
(0.128514 1.27295e-16 0)
(0.128514 -3.95596e-17 0)
(0.128514 -1.17766e-16 0)
(0.128514 1.98451e-17 0)
(0.128514 -1.24426e-16 0)
(0.128514 -4.90502e-18 0)
(0.128514 4.43202e-17 0)
(0.128514 -1.97532e-17 0)
(0.128514 2.84459e-17 0)
(0.128514 1.66759e-16 0)
(0.128514 -2.01396e-17 0)
(0.128514 -9.66781e-17 0)
(0.128514 -1.49994e-16 0)
(0.128514 -9.64307e-18 0)
(0.128514 3.29134e-17 0)
(0.128514 -9.24038e-17 0)
(0.128514 1.39448e-16 0)
(0.128514 6.48233e-17 0)
(0.128514 7.86568e-17 0)
(0.128514 -1.00504e-16 0)
(0.128514 -1.78521e-17 0)
(0.128514 4.55513e-18 0)
(0.128514 -1.2454e-16 0)
(0.128514 4.49729e-17 0)
(0.128514 2.06622e-16 0)
(0.128514 -9.03425e-17 0)
(0.128514 -3.84672e-17 0)
(0.128514 1.13317e-16 0)
(0.128514 -1.29803e-16 0)
(0.128514 -1.5088e-17 0)
(0.128514 -4.74848e-17 0)
(0.128514 -8.52607e-17 0)
(0.128514 8.20189e-18 0)
(0.128514 1.5478e-16 0)
(0.128514 -5.09872e-17 0)
(0.128514 -3.7003e-17 0)
(0.128514 1.28635e-16 0)
(0.128514 -4.51133e-17 0)
(0.128514 -1.0252e-16 0)
(0.128514 1.02619e-16 0)
(0.128514 -7.33946e-17 0)
(0.128514 8.56088e-17 0)
(0.128514 2.79963e-16 0)
(0.128514 -1.97796e-16 0)
(0.128514 9.0384e-17 0)
(0.128514 -1.18849e-16 0)
(0.128514 -1.22093e-16 0)
(0.128514 3.57177e-16 0)
(0.128514 -3.25933e-16 0)
(0.128514 -2.0261e-16 0)
(0.128514 5.42868e-16 0)
(0.128514 -2.3409e-16 0)
(0.128514 -1.77785e-16 0)
(0.128514 1.508e-16 0)
(0.128514 -1.67622e-16 0)
(0.128514 1.37133e-16 0)
(0.128514 -1.36014e-16 0)
(0.128514 -6.70943e-17 0)
(0.128514 1.52621e-16 0)
(0.128514 1.53234e-16 0)
(0.128514 -1.42501e-16 0)
(0.128514 -1.33295e-16 0)
(0.128514 -4.82212e-17 0)
(0.128514 1.13436e-16 0)
(0.128514 2.2089e-16 0)
(0.128514 -2.42356e-16 0)
(0.128514 2.81807e-16 0)
(0.128514 9.13132e-18 0)
(0.128514 -3.30475e-16 0)
(0.128514 1.92259e-16 0)
(0.128514 1.43744e-16 0)
(0.128514 -2.77661e-16 0)
(0.128514 8.82245e-17 0)
(0.128514 2.78978e-18 0)
(0.128514 -2.32901e-16 0)
(0.128514 4.54478e-16 0)
(0.128514 1.36068e-16 0)
(0.128514 -3.97108e-16 0)
(0.128514 1.36269e-16 0)
(0.128514 -1.08382e-17 0)
(0.128514 -2.7898e-16 0)
(0.128514 4.13512e-16 0)
(0.128514 -1.78303e-16 0)
(0.128514 -1.78809e-16 0)
(0.128514 5.09661e-16 0)
(0.128514 -1.74388e-16 0)
(0.128514 -2.85667e-16 0)
(0.128514 3.06752e-16 0)
(0.128514 -1.95317e-16 0)
(0.128514 -2.35558e-16 0)
(0.128514 4.07599e-16 0)
(0.128514 9.99795e-19 0)
(0.128514 -3.71836e-16 0)
(0.128514 1.82259e-16 0)
(0.128514 8.05352e-17 0)
(0.128514 -1.42833e-16 0)
(0.128514 1.31466e-16 0)
(0.128514 -5.90618e-17 0)
(0.128514 -1.82591e-16 0)
(0.128514 -2.36737e-17 0)
(0.128514 2.19561e-16 0)
(0.128514 1.43993e-16 0)
(0.128514 -5.17185e-17 0)
(0.128514 -1.78678e-16 0)
(0.128514 -1.26694e-16 0)
(0.128514 2.60213e-16 0)
(0.128514 1.84004e-18 0)
(0.128514 -2.21954e-16 0)
(0.128514 -7.88525e-17 0)
(0.128514 3.7415e-16 0)
(0.128514 2.62805e-16 0)
(0.128514 -4.14507e-16 0)
(0.128514 4.19102e-18 0)
(0.128514 1.77211e-16 0)
(0.128514 -3.28162e-16 0)
(0.128514 2.38074e-16 0)
(0.128514 2.19189e-16 0)
(0.128514 -4.98698e-16 0)
(0.128514 3.66355e-16 0)
(0.128514 1.7814e-16 0)
(0.128514 -4.2456e-16 0)
(0.128514 1.56029e-16 0)
(0.128514 1.63873e-17 0)
(0.128514 -1.8796e-16 0)
(0.128514 1.67741e-16 0)
(0.128514 2.96079e-16 0)
(0.128514 1.6016e-17 0)
(0.128514 2.87885e-18 0)
(0.128514 -2.1562e-16 0)
(0.128514 -1.6925e-16 0)
(0.128514 2.06238e-16 0)
(0.128514 -9.07259e-17 0)
(0.128514 -2.86919e-16 0)
(0.128514 1.40567e-16 0)
(0.128514 3.34184e-16 0)
(0.128514 5.76578e-18 0)
(0.128514 -4.81036e-17 0)
(0.128514 -2.26707e-16 0)
(0.128514 -1.9919e-16 0)
(0.128514 1.42262e-16 0)
(0.128514 2.47561e-17 0)
(0.128514 9.28658e-17 0)
(0.128514 -3.03266e-16 0)
(0.128514 1.04453e-16 0)
(0.128514 3.92276e-16 0)
(0.128514 -2.97973e-16 0)
(0.128514 2.45397e-17 0)
(0.128514 1.38796e-17 0)
(0.128514 -1.68434e-16 0)
(0.128514 3.74248e-17 0)
(0.128514 4.30181e-16 0)
(0.128514 2.17753e-17 0)
(0.128514 -2.08382e-16 0)
(0.128514 -1.28894e-16 0)
(0.128514 -6.61383e-17 0)
(0.128514 2.4574e-16 0)
(0.128514 -1.45495e-16 0)
(0.128514 -8.46297e-19 0)
(0.128514 -1.10108e-16 0)
(0.128514 2.3338e-16 0)
(0.128514 6.42985e-17 0)
(0.128514 -9.5288e-17 0)
(0.128514 -8.54991e-17 0)
(0.128514 -3.94847e-17 0)
(0.128514 5.51922e-17 0)
(0.128514 -1.10158e-16 0)
(0.128514 2.45812e-16 0)
(0.128514 -2.81725e-16 0)
(0.128514 7.66346e-17 0)
(0.128514 1.27476e-16 0)
(0.128514 -1.18398e-16 0)
(0.128514 -8.238e-17 0)
(0.128514 1.41072e-16 0)
(0.128514 -1.31312e-16 0)
(0.128514 -3.03542e-16 0)
(0.128514 4.01477e-16 0)
(0.128514 2.87586e-16 0)
(0.128514 -1.97643e-16 0)
(0.128514 -1.81408e-16 0)
(0.128514 -1.51702e-16 0)
(0.128514 -5.43273e-17 0)
(0.128514 2.22846e-16 0)
(0.128514 4.46367e-16 0)
(0.128514 -2.78969e-16 0)
(0.128514 -2.29061e-16 0)
(0.128514 -1.34769e-16 0)
(0.128514 4.28158e-16 0)
(0.128514 3.14241e-16 0)
(0.128514 -5.96491e-16 0)
(0.128514 -4.58668e-17 0)
(0.128514 3.0826e-16 0)
(0.128514 1.97826e-16 0)
(0.128514 -3.86708e-16 0)
(0.128514 1.25381e-16 0)
(0.128514 1.15535e-16 0)
(0.128514 -2.13466e-17 0)
(0.128514 1.59872e-16 0)
(0.128514 -3.28397e-16 0)
(0.128514 -5.01366e-17 0)
(0.128514 4.39059e-16 0)
(0.128514 8.78547e-17 0)
(0.128514 -5.08973e-16 0)
(0.128514 -1.01831e-16 0)
(0.128514 5.79761e-16 0)
(0.128514 -1.49707e-16 0)
(0.128514 -3.10162e-16 0)
(0.128514 5.34016e-17 0)
(0.128514 1.09806e-16 0)
(0.128514 -4.03746e-19 0)
(0.128514 1.31039e-17 0)
(0.128514 -1.59371e-16 0)
(0.128514 -1.44513e-16 0)
(0.128514 4.55445e-16 0)
(0.128514 -4.83494e-17 0)
(0.128514 -5.19003e-16 0)
(0.128514 -1.42761e-17 0)
(0.128514 6.48487e-16 0)
(0.128514 -1.58299e-16 0)
(0.128514 -9.21582e-17 0)
(0.128514 -2.21243e-17 0)
(0.128514 -2.64211e-16 0)
(0.128514 5.07674e-16 0)
(0.128514 -2.38127e-16 0)
(0.128514 -1.18556e-16 0)
(0.128514 -5.11983e-17 0)
(0.128514 1.454e-16 0)
(0.128514 3.8937e-17 0)
(0.128514 -1.02887e-16 0)
(0.128514 4.03257e-17 0)
(0.128514 -2.02261e-16 0)
(0.128514 2.61609e-16 0)
(0.128514 -9.0976e-17 0)
(0.128514 1.15365e-16 0)
(0.128514 -1.05542e-16 0)
(0.128514 1.07164e-16 0)
(0.128514 -6.04843e-17 0)
(0.128514 -8.54891e-17 0)
(0.128514 1.08198e-16 0)
(0.128514 2.4526e-17 0)
(0.128514 2.07953e-16 0)
(0.128514 -6.64842e-16 0)
(0.128514 2.54952e-16 0)
(0.128514 2.82485e-16 0)
(0.128514 2.38248e-17 0)
(0.128514 4.7218e-17 0)
(0.128514 -5.12203e-16 0)
(0.128514 1.42764e-16 0)
(0.128514 2.9378e-16 0)
(0.128514 -4.64955e-17 0)
(0.128514 -2.94831e-16 0)
(0.128514 1.84996e-16 0)
(0.128514 -3.93543e-17 0)
(0.128514 1.49509e-17 0)
(0.128514 9.76412e-17 0)
(0.128514 -1.73069e-16 0)
(0.128514 2.37649e-16 0)
(0.128514 7.27986e-17 0)
(0.128514 1.37717e-16 0)
(0.128514 -3.6271e-16 0)
(0.128514 -2.10609e-17 0)
(0.128514 1.88789e-16 0)
(0.128514 6.64319e-17 0)
(0.128514 -4.47847e-17 0)
(0.128514 -1.17232e-16 0)
(0.128514 3.54259e-16 0)
(0.128514 -3.33066e-16 0)
(0.128514 8.9392e-17 0)
(0.128514 5.56756e-17 0)
(0.128514 -9.1211e-17 0)
(0.128514 3.99212e-16 0)
(0.128514 -2.18154e-16 0)
(0.128514 -3.39363e-16 0)
(0.128514 1.9336e-16 0)
(0.128514 3.33418e-16 0)
(0.128514 -3.27326e-16 0)
(0.128514 4.31768e-17 0)
(0.128514 6.53709e-17 0)
(0.128514 1.14127e-16 0)
(0.128514 3.77425e-16 0)
(0.128514 1.42277e-16 0)
(0.128514 9.38114e-16 0)
(0.211306 1.87714e-15 0)
(0.211306 8.07487e-16 0)
(0.211306 4.075e-16 0)
(0.211306 3.02722e-16 0)
(0.211306 2.46687e-16 0)
(0.211306 1.61161e-16 0)
(0.211306 1.25289e-16 0)
(0.211306 1.35868e-16 0)
(0.211306 6.81925e-17 0)
(0.211306 2.83203e-17 0)
(0.211306 3.12414e-18 0)
(0.211306 -4.10231e-17 0)
(0.211306 -4.34617e-17 0)
(0.211306 -2.02465e-17 0)
(0.211306 -3.81353e-17 0)
(0.211306 -5.77226e-17 0)
(0.211306 -4.8183e-17 0)
(0.211306 -3.30796e-17 0)
(0.211306 1.73665e-17 0)
(0.211306 7.70578e-17 0)
(0.211306 3.72905e-17 0)
(0.211306 3.91166e-17 0)
(0.211306 9.50908e-17 0)
(0.211306 8.21385e-17 0)
(0.211306 3.85461e-17 0)
(0.211306 -3.9765e-17 0)
(0.211306 -4.22571e-17 0)
(0.211306 4.46235e-17 0)
(0.211306 -2.84121e-17 0)
(0.211306 -4.04909e-17 0)
(0.211306 -1.30796e-17 0)
(0.211306 3.64884e-18 0)
(0.211306 7.22989e-18 0)
(0.211306 2.35682e-17 0)
(0.211306 -1.67427e-17 0)
(0.211306 -1.16951e-17 0)
(0.211306 -1.18058e-16 0)
(0.211306 -6.79829e-17 0)
(0.211306 4.19372e-17 0)
(0.211306 -1.48579e-17 0)
(0.211306 2.31966e-17 0)
(0.211306 1.14922e-17 0)
(0.211306 -2.39285e-17 0)
(0.211306 2.16214e-17 0)
(0.211306 4.30772e-17 0)
(0.211306 -6.86491e-18 0)
(0.211306 -3.47532e-18 0)
(0.211306 -7.64434e-17 0)
(0.211306 2.18232e-17 0)
(0.211306 6.65662e-17 0)
(0.211306 3.0972e-17 0)
(0.211306 -5.65302e-17 0)
(0.211306 -6.37787e-17 0)
(0.211306 1.78575e-17 0)
(0.211306 5.59842e-17 0)
(0.211306 1.23247e-18 0)
(0.211306 3.85874e-17 0)
(0.211306 -7.20525e-17 0)
(0.211306 -7.46217e-17 0)
(0.211306 1.92558e-17 0)
(0.211306 -6.1556e-18 0)
(0.211306 3.36619e-17 0)
(0.211306 1.80478e-17 0)
(0.211306 1.16789e-16 0)
(0.211306 8.38573e-17 0)
(0.211306 7.99189e-17 0)
(0.211306 -2.02036e-17 0)
(0.211306 -4.984e-17 0)
(0.211306 -3.38093e-18 0)
(0.211306 -3.30257e-17 0)
(0.211306 -2.31413e-17 0)
(0.211306 5.11004e-18 0)
(0.211306 1.43498e-16 0)
(0.211306 -1.04594e-17 0)
(0.211306 -1.39333e-16 0)
(0.211306 2.18037e-16 0)
(0.211306 1.86276e-16 0)
(0.211306 -6.64536e-17 0)
(0.211306 -1.58147e-16 0)
(0.211306 -5.2642e-17 0)
(0.211306 8.14631e-17 0)
(0.211306 2.07183e-17 0)
(0.211306 1.07605e-17 0)
(0.211306 1.65972e-17 0)
(0.211306 -3.28022e-18 0)
(0.211306 5.50229e-17 0)
(0.211306 -4.2595e-17 0)
(0.211306 4.57722e-17 0)
(0.211306 4.70651e-17 0)
(0.211306 -4.18e-18 0)
(0.211306 5.2955e-17 0)
(0.211306 -1.60652e-17 0)
(0.211306 -1.45263e-17 0)
(0.211306 4.76555e-18 0)
(0.211306 2.69392e-18 0)
(0.211306 -1.73521e-16 0)
(0.211306 -5.67434e-17 0)
(0.211306 2.16911e-16 0)
(0.211306 -1.19421e-16 0)
(0.211306 -2.08258e-16 0)
(0.211306 1.22063e-16 0)
(0.211306 8.0682e-17 0)
(0.211306 1.25606e-19 0)
(0.211306 -8.33515e-17 0)
(0.211306 3.4554e-17 0)
(0.211306 1.22143e-16 0)
(0.211306 -2.47455e-17 0)
(0.211306 -1.03104e-16 0)
(0.211306 1.43493e-16 0)
(0.211306 1.51865e-16 0)
(0.211306 -1.04577e-16 0)
(0.211306 -1.46889e-16 0)
(0.211306 -1.14585e-16 0)
(0.211306 1.45064e-16 0)
(0.211306 1.31157e-16 0)
(0.211306 -2.18531e-16 0)
(0.211306 -8.96973e-17 0)
(0.211306 1.71256e-16 0)
(0.211306 8.93392e-17 0)
(0.211306 1.9595e-17 0)
(0.211306 -1.83748e-17 0)
(0.211306 7.0426e-17 0)
(0.211306 8.5008e-17 0)
(0.211306 -7.27605e-17 0)
(0.211306 -2.81134e-17 0)
(0.211306 1.10826e-16 0)
(0.211306 -6.08756e-17 0)