/*--------------------------------*- C++ -*----------------------------------*\
| =========                 |                                                 |
| \\      /  F ield         | OpenFOAM: The Open Source CFD Toolbox           |
|  \\    /   O peration     | Version:  2112                                  |
|   \\  /    A nd           | Website:  www.openfoam.com                      |
|    \\/     M anipulation  |                                                 |
\*---------------------------------------------------------------------------*/
FoamFile
{
    version     2.0;
    format      ascii;
    arch        "LSB;label=32;scalar=64";
    class       volScalarField;
    location    "36";
    object      p;
}
// * * * * * * * * * * * * * * * * * * * * * * * * * * * * * * * * * * * * * //

dimensions      [0 2 -2 0 0 0 0];

internalField   nonuniform List<scalar> 
16641
(
-1.16406e-07
1.42374e-05
2.84057e-05
3.72599e-05
3.71686e-05
2.62598e-05
3.94058e-06
-2.9642e-05
-7.39247e-05
-0.000128117
-0.000191327
-0.000262661
-0.000341276
-0.000426419
-0.000517466
-0.000613931
-0.000715472
-0.000821886
-0.000933102
-0.00104916
-0.0011702
-0.00129642
-0.00142808
-0.00156545
-0.00170881
-0.00185841
-0.00201449
-0.00217719
-0.00234663
-0.00252281
-0.00270566
-0.00289502
-0.00309062
-0.00329206
-0.00349884
-0.00371034
-0.0039258
-0.00414433
-0.00436491
-0.00458637
-0.00480739
-0.00502654
-0.00524223
-0.00545275
-0.00565625
-0.0058508
-0.00603436
-0.00620482
-0.00636003
-0.00649782
-0.00661602
-0.00671249
-0.00678521
-0.00683223
-0.00685179
-0.00684233
-0.00680251
-0.0067313
-0.00662796
-0.00649216
-0.00632391
-0.00612371
-0.00589246
-0.00563157
-0.00534293
-0.0050289
-0.00469233
-0.00433644
-0.0039652
-0.00358273
-0.00319354
-0.00280251
-0.00241473
-0.00203546
-0.00167004
-0.00132377
-0.00100187
-0.000709316
-0.000450778
-0.000230498
-5.22079e-05
8.09664e-05
0.000166577
0.000202918
0.000189071
0.00012493
1.12128e-05
-0.000150558
-0.000358081
-0.000608337
-0.000897762
-0.00122202
-0.00157653
-0.00195632
-0.0023562
-0.0027709
-0.00319516
-0.00362389
-0.00405223
-0.00447567
-0.0048901
-0.00529186
-0.00567783
-0.00604539
-0.00639245
-0.00671746
-0.00701934
-0.0072975
-0.00755173
-0.00778222
-0.00798945
-0.00817412
-0.00833717
-0.00847962
-0.00860258
-0.00870716
-0.00879443
-0.0088654
-0.00892095
-0.00896186
-0.00898879
-0.00900235
-0.00900322
-0.00899229
-0.00897101
-0.00894183
-0.00890886
-0.00887827
-0.0088595
-1.44761e-05
-8.6578e-08
9.85923e-06
1.38249e-05
1.00929e-05
-2.80854e-06
-2.55267e-05
-5.81139e-05
-0.000100258
-0.000151419
-0.000210943
-0.000278134
-0.000352309
-0.000432851
-0.000519233
-0.000611039
-0.000707965
-0.000809829
-0.000916557
-0.00102817
-0.00114478
-0.00126655
-0.00139368
-0.00152642
-0.00166499
-0.00180963
-0.00196053
-0.00211782
-0.0022816
-0.00245188
-0.00262861
-0.00281162
-0.00300066
-0.0031954
-0.00339536
-0.00359998
-0.00380854
-0.00402023
-0.00423409
-0.00444902
-0.00466379
-0.00487704
-0.00508727
-0.00529286
-0.00549205
-0.005683
-0.00586375
-0.00603229
-0.00618654
-0.00632441
-0.0064438
-0.00654264
-0.00661895
-0.00667083
-0.00669657
-0.00669459
-0.0066636
-0.00660252
-0.00651063
-0.00638753
-0.0062332
-0.00604806
-0.00583293
-0.00558913
-0.00531841
-0.00502308
-0.00470585
-0.00436975
-0.00401849
-0.0036561
-0.00328694
-0.00291568
-0.00254723
-0.00218664
-0.00183907
-0.00150962
-0.00120332
-0.000924984
-0.000679097
-0.000469755
-0.00030055
-0.000174493
-9.39365e-05
-6.05161e-05
-7.51083e-05
-0.000137804
-0.000247903
-0.00040393
-0.000603667
-0.00084421
-0.00112205
-0.00143318
-0.00177309
-0.00213705
-0.0025201
-0.00291721
-0.00332337
-0.00373375
-0.00414373
-0.00454903
-0.00494578
-0.00533052
-0.00570029
-0.00605265
-0.00638564
-0.00669778
-0.00698807
-0.00725596
-0.00750124
-0.00772408
-0.00792491
-0.00810441
-0.0082634
-0.00840285
-0.00852378
-0.00862725
-0.00871428
-0.00878585
-0.00884286
-0.00888614
-0.00891645
-0.00893455
-0.00894127
-0.00893764
-0.00892507
-0.00890568
-0.0088826
-0.00885962
-0.00884075
-2.8692e-05
-9.99663e-06
-2.7811e-08
2.38711e-06
-2.79392e-06
-1.6591e-05
-3.94933e-05
-7.15165e-05
-0.000112398
-0.000161695
-0.000218859
-0.000283288
-0.000354391
-0.000431628
-0.000514538
-0.000602751
-0.000695998
-0.000794121
-0.000897057
-0.00100483
-0.00111754
-0.00123534
-0.00135844
-0.00148705
-0.00162139
-0.00176168
-0.00190811
-0.00206082
-0.0022199
-0.00238538
-0.00255722
-0.00273528
-0.00291935
-0.00310912
-0.00330417
-0.00350397
-0.00370788
-0.00391514
-0.00412483
-0.00433593
-0.00454728
-0.00475757
-0.00496538
-0.00516913
-0.00536714
-0.00555761
-0.00573864
-0.00590826
-0.00606443
-0.00620508
-0.00632812
-0.00643152
-0.00651326
-0.00657148
-0.00660439
-0.00661044
-0.00658825
-0.00653673
-0.00645508
-0.00634285
-0.00619995
-0.0060267
-0.00582386
-0.00559263
-0.00533473
-0.0050524
-0.00474783
-0.00442464
-0.00408609
-0.00373613
-0.00337903
-0.00301938
-0.002662
-0.00231187
-0.00197405
-0.00165361
-0.00135549
-0.00108444
-0.000844922
-0.000640969
-0.000476144
-0.000353428
-0.000275151
-0.000242936
-0.000257651
-0.000319386
-0.000427449
-0.000580378
-0.000775979
-0.00101138
-0.00128312
-0.0015872
-0.00191924
-0.00227454
-0.00264822
-0.00303534
-0.00343102
-0.0038305
-0.00422931
-0.00462328
-0.00500866
-0.00538212
-0.00574084
-0.00608247
-0.00640515
-0.00670754
-0.0069887
-0.00724813
-0.0074857
-0.00770161
-0.00789632
-0.00807049
-0.00822498
-0.00836073
-0.00847875
-0.00858009
-0.00866576
-0.00873674
-0.00879394
-0.00883821
-0.00887034
-0.0088911
-0.0089013
-0.00890185
-0.00889392
-0.00887912
-0.00885966
-0.00883673
-0.00880998
-3.77462e-05
-1.40291e-05
-2.5138e-06
-1.74481e-07
-5.80255e-06
-2.00039e-05
-4.3034e-05
-7.47706e-05
-0.000114906
-0.000163005
-0.000218542
-0.000280956
-0.000349706
-0.000424298
-0.000504311
-0.000589413
-0.00067937
-0.00077405
-0.000873412
-0.000977496
-0.00108642
-0.00120034
-0.00131947
-0.00144404
-0.00157428
-0.00171041
-0.00185262
-0.00200109
-0.00215592
-0.00231715
-0.00248479
-0.00265873
-0.0028388
-0.00302474
-0.00321617
-0.00341263
-0.00361353
-0.00381815
-0.00402566
-0.00423509
-0.00444534
-0.00465515
-0.00486313
-0.00506778
-0.00526743
-0.00546032
-0.00564456
-0.00581819
-0.00597917
-0.00612541
-0.00625481
-0.00636529
-0.00645481
-0.00652142
-0.0065633
-0.00657881
-0.00656651
-0.00652521
-0.00645405
-0.00635247
-0.0062203
-0.00605779
-0.00586559
-0.00564484
-0.00539728
-0.00512539
-0.00482977
-0.00451546
-0.00418542
-0.0038434
-0.00349366
-0.00314074
-0.00278943
-0.00244471
-0.00211164
-0.00179527
-0.00150057
-0.00123231
-0.00099496
-0.000792592
-0.000628794
-0.000506576
-0.000428298
-0.000395608
-0.000409398
-0.000469774
-0.000576055
-0.000726784
-0.000919766
-0.00115212
-0.00142038
-0.00172052
-0.00204814
-0.0023986
-0.00276689
-0.00314815
-0.00353749
-0.00393019
-0.00432178
-0.00470815
-0.0050856
-0.00545088
-0.00580124
-0.00613443
-0.0064487
-0.00674276
-0.0070158
-0.0072674
-0.00749752
-0.00770644
-0.00789467
-0.00806295
-0.00821217
-0.00834333
-0.00845745
-0.00855561
-0.00863885
-0.00870816
-0.00876446
-0.0088086
-0.00884135
-0.00886343
-0.00887551
-0.00887831
-0.00887259
-0.00885946
-0.00884031
-0.0088141
-0.00877724
-3.8022e-05
-1.04796e-05
2.41617e-06
4.87798e-06
-1.03994e-06
-1.56169e-05
-3.88865e-05
-7.0579e-05
-0.000110308
-0.0001576
-0.000211919
-0.000272722
-0.000339488
-0.000411753
-0.000489126
-0.000571309
-0.000658104
-0.00074941
-0.000845214
-0.000945589
-0.00105067
-0.00116066
-0.00127578
-0.00139629
-0.00152244
-0.00165448
-0.00179263
-0.00193709
-0.002088
-0.00224545
-0.00240948
-0.00258003
-0.002757
-0.00294016
-0.00312922
-0.00332376
-0.00352326
-0.00372707
-0.00393442
-0.00414439
-0.00435593
-0.00456782
-0.00477872
-0.00498714
-0.00519142
-0.00538981
-0.00558041
-0.00576121
-0.00593016
-0.0060851
-0.00622387
-0.00634431
-0.00644431
-0.00652183
-0.00657494
-0.00660191
-0.00660119
-0.0065715
-0.00651187
-0.00642163
-0.00630053
-0.00614871
-0.00596676
-0.00575576
-0.0055171
-0.00525223
-0.0049657
-0.00465865
-0.00433486
-0.00399828
-0.00365315
-0.00330403
-0.00295573
-0.00261324
-0.00228166
-0.00196609
-0.00167155
-0.00140286
-0.00116456
-0.000960793
-0.000795218
-0.000670914
-0.000590308
-0.000555108
-0.000566257
-0.000623905
-0.000727397
-0.000875292
-0.0010654
-0.00129482
-0.00156005
-0.00185706
-0.00218137
-0.00252825
-0.00289275
-0.00326987
-0.00365469
-0.00404244
-0.00442865
-0.00480919
-0.00518037
-0.00553897
-0.00588228
-0.0062081
-0.00651476
-0.00680107
-0.0070663
-0.00731014
-0.00753265
-0.00773419
-0.0079154
-0.00807709
-0.00822022
-0.00834587
-0.00845514
-0.00854913
-0.00862893
-0.00869557
-0.00874998
-0.00879299
-0.00882535
-0.00884768
-0.00886053
-0.00886436
-0.00885955
-0.00884671
-0.00882658
-0.00879628
-0.00874955
-2.7501e-05
2.24493e-06
1.58597e-05
1.82023e-05
1.18281e-05
-3.30469e-06
-2.70496e-05
-5.89998e-05
-9.86739e-05
-0.000145539
-0.000199037
-0.000258614
-0.000323757
-0.000394016
-0.000469028
-0.000548526
-0.000632347
-0.000720424
-0.000812789
-0.000909553
-0.0010109
-0.00111705
-0.00122829
-0.00134491
-0.0014672
-0.00159546
-0.00172997
-0.00187094
-0.0020186
-0.00217307
-0.00233446
-0.00250278
-0.00267798
-0.00285992
-0.00304835
-0.00324296
-0.00344326
-0.00364869
-0.00385851
-0.00407187
-0.00428775
-0.00450495
-0.00472215
-0.00493784
-0.00515037
-0.00535791
-0.00555854
-0.00575018
-0.00593069
-0.00609782
-0.00624931
-0.00638288
-0.00649631
-0.00658743
-0.0066542
-0.00669475
-0.00670741
-0.0066908
-0.00664381
-0.0065657
-0.0064561
-0.00631507
-0.00614313
-0.00594129
-0.00571098
-0.00545393
-0.00517313
-0.00487122
-0.00455164
-0.00421826
-0.00387531
-0.00352736
-0.00317926
-0.00283605
-0.00250289
-0.00218495
-0.00188732
-0.00161493
-0.0013724
-0.00116399
-0.000993459
-0.000863993
-0.000778124
-0.000737659
-0.000743627
-0.000796252
-0.000894937
-0.00103828
-0.00122411
-0.00144953
-0.00171101
-0.00200448
-0.0023254
-0.00266896
-0.00303014
-0.00340384
-0.00378505
-0.00416893
-0.00455092
-0.00492685
-0.00529297
-0.00564605
-0.00598338
-0.00630278
-0.00660263
-0.00688179
-0.00713963
-0.00737592
-0.00759084
-0.00778485
-0.00795868
-0.00811328
-0.0082497
-0.00836911
-0.00847269
-0.00856164
-0.00863709
-0.0087001
-0.00875165
-0.00879255
-0.00882352
-0.0088451
-0.00885768
-0.00886151
-0.00885663
-0.00884323
-0.00882153
-0.00878725
-0.00873209
-5.2713e-06
2.50355e-05
3.85103e-05
4.02515e-05
3.30536e-05
1.70354e-05
-7.51409e-06
-4.00647e-05
-8.00425e-05
-0.000126855
-0.000179907
-0.000238626
-0.000302493
-0.000371071
-0.000444019
-0.000521102
-0.000602193
-0.000687272
-0.000776418
-0.000869796
-0.000967638
-0.00107024
-0.00117792
-0.00129105
-0.00140997
-0.00153504
-0.0016666
-0.00180496
-0.00195038
-0.00210308
-0.00226324
-0.00243094
-0.00260622
-0.00278901
-0.00297916
-0.00317641
-0.00338035
-0.00359046
-0.00380607
-0.00402634
-0.00425027
-0.00447667
-0.00470418
-0.00493125
-0.00515618
-0.00537706
-0.00559188
-0.00579844
-0.00599447
-0.0061776
-0.00634543
-0.00649553
-0.00662553
-0.00673311
-0.00681608
-0.00687245
-0.00690042
-0.00689847
-0.00686539
-0.00680034
-0.00670285
-0.00657291
-0.00641097
-0.00621796
-0.00599535
-0.00574481
-0.00546906
-0.00517099
-0.00485399
-0.00452191
-0.004179
-0.00382986
-0.0034794
-0.0031327
-0.00279499
-0.00247153
-0.00216751
-0.00188798
-0.00163768
-0.001421
-0.00124184
-0.00110354
-0.00100877
-0.000959476
-0.000956816
-0.00100113
-0.00109192
-0.00122787
-0.00140684
-0.00162598
-0.00188176
-0.00217005
-0.00248631
-0.00282561
-0.00318284
-0.00355281
-0.00393039
-0.00431062
-0.00468882
-0.00506071
-0.00542247
-0.0057708
-0.00610293
-0.00641668
-0.00671041
-0.00698304
-0.00723398
-0.00746308
-0.0076706
-0.00785711
-0.00802347
-0.00817071
-0.00830003
-0.00841269
-0.00850998
-0.00859318
-0.00866351
-0.0087221
-0.00876993
-0.00880785
-0.00883654
-0.00885647
-0.00886792
-0.00887094
-0.0088653
-0.00885087
-0.00882749
-0.00878986
-0.00872828
2.89849e-05
5.83129e-05
7.07159e-05
7.12391e-05
6.27196e-05
4.53899e-05
1.96552e-05
-1.3855e-05
-5.449e-05
-0.000101601
-0.000154553
-0.00021275
-0.000275669
-0.000342885
-0.000414078
-0.000489048
-0.000567712
-0.000650104
-0.00073636
-0.000826708
-0.000921453
-0.00102096
-0.00112564
-0.00123591
-0.00135221
-0.00147499
-0.00160467
-0.00174163
-0.00188625
-0.00203882
-0.00219962
-0.00236884
-0.0025466
-0.00273292
-0.00292772
-0.00313082
-0.00334187
-0.0035604
-0.00378575
-0.0040171
-0.00425341
-0.00449348
-0.00473588
-0.00497897
-0.00522094
-0.00545978
-0.00569331
-0.00591919
-0.00613499
-0.00633818
-0.00652616
-0.00669635
-0.00684619
-0.00697323
-0.00707511
-0.0071497
-0.00719506
-0.00720955
-0.00719187
-0.00714107
-0.0070566
-0.00693839
-0.0067868
-0.00660269
-0.0063874
-0.00614296
-0.00587169
-0.00557653
-0.00526087
-0.00492859
-0.00458395
-0.00423157
-0.0038764
-0.00352359
-0.00317845
-0.00284632
-0.00253251
-0.00224219
-0.00198026
-0.00175126
-0.00155928
-0.00140782
-0.00129975
-0.0012372
-0.00122151
-0.00125318
-0.00133188
-0.00145639
-0.00162471
-0.00183403
-0.00208086
-0.0023611
-0.00267014
-0.00300302
-0.00335452
-0.00371935
-0.00409224
-0.00446808
-0.00484208
-0.0052098
-0.00556728
-0.00591111
-0.00623845
-0.00654703
-0.00683519
-0.00710183
-0.00734637
-0.00756871
-0.00776917
-0.00794843
-0.00810742
-0.00824731
-0.00836939
-0.00847506
-0.0085657
-0.00864271
-0.00870739
-0.00876094
-0.0088044
-0.00883866
-0.00886436
-0.00888195
-0.00889162
-0.00889328
-0.00888649
-0.00887088
-0.00884602
-0.00880598
-0.00874016
7.52813e-05
0.000102233
0.000112642
0.000111277
0.000100881
8.17779e-05
5.44611e-05
1.96307e-05
-2.20025e-05
-6.97401e-05
-0.000122911
-0.000180905
-0.000243199
-0.000309381
-0.000379159
-0.000452372
-0.000528992
-0.000609112
-0.000692939
-0.000780782
-0.000873031
-0.000970138
-0.0010726
-0.00118095
-0.00129573
-0.00141747
-0.00154671
-0.00168395
-0.00182966
-0.00198427
-0.00214815
-0.00232159
-0.00250483
-0.00269797
-0.00290102
-0.00311384
-0.00333615
-0.00356748
-0.00380717
-0.00405437
-0.004308
-0.00456676
-0.00482911
-0.0050933
-0.00535735
-0.00561908
-0.00587613
-0.00612598
-0.00636599
-0.00659344
-0.00680553
-0.0069995
-0.00717262
-0.00732224
-0.00744588
-0.00754125
-0.00760629
-0.00763926
-0.00763874
-0.00760369
-0.0075335
-0.007428
-0.00728752
-0.00711285
-0.00690526
-0.00666678
-0.00639967
-0.00610685
-0.00579168
-0.00545803
-0.00511017
-0.00475273
-0.0043907
-0.00402927
-0.00367382
-0.00332979
-0.00300261
-0.00269759
-0.0024198
-0.00217396
-0.00196436
-0.00179473
-0.00166818
-0.00158706
-0.00155296
-0.00156661
-0.00162788
-0.00173575
-0.00188838
-0.0020831
-0.00231649
-0.00258451
-0.00288255
-0.00320562
-0.00354845
-0.00390562
-0.00427173
-0.00464153
-0.00501005
-0.0053727
-0.00572535
-0.00606442
-0.00638694
-0.00669053
-0.00697344
-0.0072345
-0.00747312
-0.0076892
-0.00788309
-0.00805551
-0.00820749
-0.00834027
-0.00845527
-0.00855398
-0.00863792
-0.00870857
-0.00876734
-0.00881552
-0.00885421
-0.00888434
-0.00890659
-0.00892138
-0.00892885
-0.00892881
-0.00892071
-0.00890401
-0.0088781
-0.00883669
-0.00876878
0.000133464
0.000156771
0.000164302
0.00016038
0.000147555
0.000126219
9.69302e-05
6.04337e-05
1.74846e-05
-3.11828e-05
-8.48769e-05
-0.000142981
-0.000204981
-0.000270483
-0.000339234
-0.000411122
-0.00048618
-0.000564577
-0.000646603
-0.000732661
-0.000823242
-0.000918904
-0.00102026
-0.00112796
-0.00124266
-0.00136504
-0.00149575
-0.00163542
-0.00178466
-0.00194403
-0.00211401
-0.00229502
-0.00248739
-0.00269132
-0.00290687
-0.00313396
-0.00337231
-0.00362145
-0.00388069
-0.00414908
-0.00442546
-0.00470838
-0.00499615
-0.00528685
-0.0055783
-0.00586811
-0.00615369
-0.00643232
-0.00670112
-0.00695715
-0.00719744
-0.007419
-0.00761893
-0.00779443
-0.00794287
-0.0080618
-0.00814908
-0.00820282
-0.00822154
-0.0082041
-0.00814981
-0.00805844
-0.00793023
-0.00776593
-0.00756678
-0.00733464
-0.00707182
-0.00678115
-0.00646598
-0.00613011
-0.00577781
-0.00541372
-0.00504281
-0.00467033
-0.0043017
-0.00394248
-0.00359819
-0.00327429
-0.00297604
-0.00270836
-0.00247579
-0.00228232
-0.00213132
-0.00202546
-0.00196662
-0.00195583
-0.00199323
-0.0020781
-0.0022088
-0.00238288
-0.00259707
-0.00284744
-0.00312946
-0.00343813
-0.00376814
-0.004114
-0.0044702
-0.00483132
-0.00519222
-0.0055481
-0.00589466
-0.00622813
-0.00654533
-0.00684373
-0.00712144
-0.00737718
-0.00761028
-0.00782059
-0.00800845
-0.0081746
-0.0083201
-0.00844628
-0.00855462
-0.00864671
-0.00872417
-0.0087886
-0.00884151
-0.00888427
-0.00891807
-0.0089439
-0.00896247
-0.00897423
-0.00897932
-0.00897748
-0.0089681
-0.00895055
-0.0089241
-0.00888238
-0.00881436
0.000203263
0.00022175
0.000225575
0.000218466
0.000202688
0.000178686
0.000147061
0.000108583
6.40292e-05
1.41493e-05
-4.03612e-05
-9.88918e-05
-0.000160946
-0.000226167
-0.000294346
-0.000365436
-0.000439542
-0.00051692
-0.000597964
-0.000683184
-0.000773188
-0.000868664
-0.000970357
-0.00107906
-0.00119557
-0.00132071
-0.00145529
-0.0016001
-0.00175588
-0.00192333
-0.00210307
-0.00229564
-0.00250145
-0.00272078
-0.00295374
-0.00320026
-0.00346005
-0.00373258
-0.00401707
-0.00431245
-0.00461741
-0.00493032
-0.00524929
-0.00557217
-0.00589653
-0.00621975
-0.00653901
-0.00685131
-0.00715358
-0.00744263
-0.00771529
-0.00796838
-0.00819883
-0.00840368
-0.00858016
-0.0087257
-0.00883803
-0.00891519
-0.00895557
-0.00895798
-0.00892162
-0.00884619
-0.00873185
-0.00857928
-0.00838965
-0.00816472
-0.00790673
-0.00761843
-0.0073031
-0.0069645
-0.00660684
-0.00623472
-0.00585311
-0.00546727
-0.00508267
-0.00470492
-0.00433968
-0.00399254
-0.00366895
-0.00337407
-0.00311269
-0.00288912
-0.00270704
-0.00256949
-0.0024787
-0.00243608
-0.00244215
-0.00249651
-0.00259786
-0.00274404
-0.00293202
-0.00315805
-0.00341773
-0.00370615
-0.004018
-0.00434775
-0.00468978
-0.00503854
-0.00538871
-0.00573529
-0.00607375
-0.00640008
-0.00671089
-0.00700344
-0.00727565
-0.00752606
-0.00775388
-0.00795885
-0.00814124
-0.00830176
-0.00844147
-0.00856172
-0.00866404
-0.00875011
-0.00882162
-0.00888027
-0.00892766
-0.00896525
-0.00899433
-0.00901596
-0.00903091
-0.00903967
-0.00904239
-0.00903884
-0.00902837
-0.00901031
-0.00898389
-0.00894286
-0.00887648
0.000284303
0.000296867
0.000296218
0.000285341
0.000266131
0.000239071
0.00020479
0.000164052
0.000117633
6.62747e-05
1.06587e-05
-4.8627e-05
-0.000111122
-0.000176518
-0.000244669
-0.000315602
-0.000389513
-0.000466764
-0.000547863
-0.000633446
-0.000724262
-0.000821144
-0.000924995
-0.00103676
-0.00115742
-0.00128796
-0.00142936
-0.00158257
-0.00174849
-0.00192797
-0.00212177
-0.00233052
-0.00255472
-0.00279469
-0.00305057
-0.00332226
-0.0036094
-0.00391136
-0.00422723
-0.00455577
-0.00489545
-0.00524441
-0.00560053
-0.00596138
-0.00632429
-0.00668635
-0.00704448
-0.00739544
-0.00773591
-0.0080625
-0.00837182
-0.00866051
-0.00892535
-0.00916321
-0.0093712
-0.00954664
-0.00968715
-0.00979066
-0.00985549
-0.00988032
-0.00986431
-0.00980703
-0.00970856
-0.00956948
-0.00939087
-0.00917438
-0.00892213
-0.00863679
-0.00832153
-0.00798002
-0.00761638
-0.00723516
-0.00684128
-0.00643998
-0.00603675
-0.00563725
-0.00524724
-0.00487246
-0.00451854
-0.00419087
-0.00389455
-0.00363419
-0.00341389
-0.00323705
-0.00310637
-0.0030237
-0.00298999
-0.00300532
-0.0030688
-0.00317864
-0.00333216
-0.00352591
-0.00375568
-0.00401673
-0.00430382
-0.00461142
-0.00493387
-0.00526549
-0.0056008
-0.00593457
-0.00626205
-0.00657897
-0.00688168
-0.00716717
-0.00743311
-0.00767784
-0.00790035
-0.00810023
-0.00827762
-0.00843314
-0.0085678
-0.00868292
-0.00878006
-0.00886091
-0.00892724
-0.0089808
-0.00902329
-0.00905625
-0.00908107
-0.00909886
-0.0091105
-0.00911652
-0.00911713
-0.00911213
-0.00910089
-0.00908275
-0.00905694
-0.0090175
-0.00895424
0.000376095
0.00038169
0.000375851
0.000360681
0.000337615
0.000307158
0.000269949
0.000226714
0.000178195
0.000125104
6.80886e-05
7.69134e-06
-5.56823e-05
-0.000121788
-0.00019056
-0.000262116
-0.000336764
-0.000414985
-0.00049742
-0.000584854
-0.000678195
-0.000778445
-0.000886681
-0.00100404
-0.00113168
-0.00127077
-0.00142248
-0.00158794
-0.00176822
-0.0019643
-0.00217706
-0.00240723
-0.00265535
-0.00292178
-0.00320661
-0.00350967
-0.00383049
-0.0041683
-0.00452198
-0.00489006
-0.00527078
-0.00566201
-0.00606132
-0.00646602
-0.00687313
-0.00727947
-0.0076817
-0.00807633
-0.00845979
-0.00882848
-0.00917883
-0.00950731
-0.00981053
-0.0100852
-0.0103284
-0.0105373
-0.0107093
-0.0108424
-0.0109347
-0.0109848
-0.0109919
-0.0109552
-0.010875
-0.0107515
-0.0105857
-0.0103792
-0.010134
-0.00985259
-0.00953798
-0.00919375
-0.00882388
-0.00843284
-0.00802545
-0.00760692
-0.0071827
-0.0067585
-0.00634014
-0.00593346
-0.00554429
-0.00517827
-0.00484077
-0.00453679
-0.0042708
-0.00404669
-0.00386764
-0.00373603
-0.00365338
-0.00362027
-0.00363636
-0.00370035
-0.00381002
-0.00396231
-0.00415335
-0.00437862
-0.00463306
-0.00491123
-0.00520745
-0.00551598
-0.00583118
-0.00614763
-0.00646031
-0.00676469
-0.00705681
-0.00733337
-0.00759173
-0.00782995
-0.00804676
-0.00824153
-0.00841421
-0.00856527
-0.00869559
-0.00880643
-0.0088993
-0.00897589
-0.00903798
-0.00908738
-0.00912583
-0.00915495
-0.00917621
-0.0091908
-0.00919967
-0.00920345
-0.00920238
-0.00919635
-0.00918478
-0.00916705
-0.00914241
-0.00910534
-0.00904638
0.00047802
0.000475635
0.00046394
0.000444006
0.000416721
0.000382599
0.000342237
0.000296299
0.000245466
0.000190393
0.000131664
6.97564e-05
4.9992e-06
-6.24473e-05
-0.000132615
-0.000205738
-0.000282248
-0.000362767
-0.000448091
-0.000539176
-0.000637106
-0.000743074
-0.000858357
-0.00098429
-0.00112224
-0.00127358
-0.00143967
-0.00162182
-0.00182125
-0.00203908
-0.00227629
-0.00253366
-0.00281177
-0.00311093
-0.00343115
-0.00377216
-0.00413331
-0.00451361
-0.0049117
-0.00532587
-0.00575402
-0.00619374
-0.0066423
-0.00709669
-0.00755363
-0.00800968
-0.0084612
-0.00890447
-0.00933569
-0.00975108
-0.0101469
-0.0105194
-0.010865
-0.0111805
-0.0114626
-0.0117085
-0.0119156
-0.0120815
-0.0122045
-0.012283
-0.012316
-0.0123028
-0.0122432
-0.0121376
-0.0119868
-0.0117922
-0.0115556
-0.0112794
-0.0109664
-0.01062
-0.010244
-0.00984289
-0.00942122
-0.00898414
-0.00853706
-0.00808565
-0.00763576
-0.00719336
-0.00676439
-0.00635473
-0.00597005
-0.00561569
-0.00529659
-0.00501711
-0.00478098
-0.00459119
-0.00444987
-0.00435826
-0.00431666
-0.00432438
-0.00437979
-0.00448033
-0.00462261
-0.00480246
-0.0050151
-0.00525526
-0.00551734
-0.00579558
-0.00608423
-0.00637771
-0.00667074
-0.00695849
-0.00723669
-0.00750168
-0.00775048
-0.00798081
-0.00819108
-0.00838036
-0.00854834
-0.00869526
-0.00882185
-0.0089292
-0.00901874
-0.0090921
-0.00915102
-0.00919732
-0.00923278
-0.00925906
-0.00927767
-0.00928991
-0.00929678
-0.00929899
-0.00929686
-0.00929035
-0.00927898
-0.00926217
-0.00923924
-0.00920517
-0.00915142
0.00058929
0.000577937
0.000559775
0.000534674
0.000502871
0.000464859
0.000421164
0.000372351
0.000319004
0.00026169
0.000200903
0.000137027
7.02963e-05
7.62572e-07
-7.17271e-05
-0.000147539
-0.000227253
-0.000311652
-0.000401713
-0.000498577
-0.000603532
-0.00071798
-0.000843417
-0.000981396
-0.0011335
-0.00130132
-0.00148639
-0.0016902
-0.00191413
-0.00215941
-0.00242706
-0.0027179
-0.00303247
-0.003371
-0.00373339
-0.00411915
-0.00452744
-0.00495701
-0.00540619
-0.00587296
-0.00635491
-0.00684931
-0.00735308
-0.0078629
-0.0083752
-0.00888624
-0.00939214
-0.00988893
-0.0103726
-0.0108392
-0.0112847
-0.0117054
-0.0120975
-0.0124576
-0.0127824
-0.0130689
-0.0133145
-0.0135167
-0.0136735
-0.0137835
-0.0138452
-0.0138582
-0.0138219
-0.0137367
-0.0136031
-0.0134224
-0.0131962
-0.0129267
-0.0126166
-0.0122691
-0.0118877
-0.0114767
-0.0110405
-0.0105842
-0.010113
-0.00963253
-0.00914865
-0.00866734
-0.00819467
-0.00773672
-0.0072994
-0.00688842
-0.00650913
-0.00616644
-0.00586466
-0.00560741
-0.00539754
-0.00523703
-0.00512692
-0.00506728
-0.00505718
-0.00509475
-0.00517716
-0.00530078
-0.00546123
-0.00565352
-0.00587226
-0.00611173
-0.00636616
-0.00662982
-0.0068972
-0.0071632
-0.00742318
-0.00767311
-0.00790962
-0.00813001
-0.00833232
-0.00851525
-0.00867817
-0.00882101
-0.00894425
-0.00904878
-0.00913586
-0.009207
-0.00926387
-0.00930823
-0.00934186
-0.00936644
-0.00938351
-0.0093944
-0.00940021
-0.00940168
-0.00939925
-0.00939293
-0.00938234
-0.00936699
-0.00934627
-0.00931571
-0.00926775
0.000708902
0.000687643
0.000662447
0.00063183
0.000595271
0.000553195
0.000506032
0.000454194
0.000398135
0.000338296
0.000275056
0.000208682
0.000139283
6.67795e-05
-9.12369e-06
-8.89479e-05
-0.000173443
-0.000263579
-0.00036053
-0.00046565
-0.000580447
-0.000706556
-0.000845703
-0.000999672
-0.00117027
-0.00135929
-0.00156847
-0.00179944
-0.0020537
-0.00233255
-0.00263705
-0.00296799
-0.00332581
-0.00371061
-0.00412209
-0.00455956
-0.00502186
-0.00550744
-0.00601433
-0.00654014
-0.00708213
-0.0076372
-0.00820196
-0.00877276
-0.00934574
-0.00991687
-0.010482
-0.011037
-0.0115776
-0.0120997
-0.0125991
-0.0130719
-0.0135143
-0.0139226
-0.0142936
-0.0146241
-0.0149113
-0.0151528
-0.0153465
-0.0154907
-0.0155841
-0.0156258
-0.0156154
-0.0155529
-0.0154388
-0.0152742
-0.0150604
-0.0147995
-0.0144939
-0.0141465
-0.0137608
-0.0133407
-0.0128905
-0.0124149
-0.0119192
-0.0114087
-0.0108892
-0.0103668
-0.00984752
-0.00933756
-0.00884307
-0.00837008
-0.00792436
-0.00751131
-0.00713585
-0.00680228
-0.00651422
-0.00627447
-0.0060849
-0.00594647
-0.00585911
-0.00582174
-0.00583233
-0.00588789
-0.00598461
-0.00611797
-0.00628288
-0.00647381
-0.00668504
-0.00691076
-0.0071453
-0.00738326
-0.00761967
-0.00785009
-0.00807069
-0.00827835
-0.00847063
-0.0086458
-0.00880282
-0.00894125
-0.00906123
-0.00916339
-0.00924873
-0.00931859
-0.00937449
-0.00941811
-0.00945114
-0.00947524
-0.00949196
-0.00950266
-0.00950845
-0.00951017
-0.00950828
-0.00950291
-0.00949375
-0.0094804
-0.00946233
-0.00943566
-0.00939381
0.000835635
0.000803561
0.000770818
0.000734396
0.000692894
0.000646621
0.000595894
0.000540893
0.000481907
0.000419224
0.000353075
0.000283577
0.000210693
0.000134185
5.35934e-05
-3.17831e-05
-0.000122889
-0.000220904
-0.00032722
-0.000443425
-0.00057127
-0.000712634
-0.000869486
-0.00104385
-0.00123774
-0.00145317
-0.00169203
-0.00195608
-0.00224691
-0.00256584
-0.0029139
-0.0032918
-0.00369984
-0.00413792
-0.0046055
-0.00510157
-0.00562468
-0.00617291
-0.00674394
-0.00733502
-0.00794303
-0.00856451
-0.00919575
-0.00983277
-0.0104714
-0.0111074
-0.0117363
-0.0123538
-0.0129554
-0.0135368
-0.0140938
-0.0146222
-0.0151182
-0.015578
-0.0159981
-0.0163755
-0.0167072
-0.0169907
-0.0172238
-0.0174048
-0.0175321
-0.017605
-0.0176227
-0.0175852
-0.0174927
-0.0173462
-0.0171469
-0.0168965
-0.0165973
-0.0162519
-0.0158634
-0.0154356
-0.0149725
-0.0144786
-0.0139588
-0.0134183
-0.0128629
-0.0122983
-0.0117307
-0.0111663
-0.0106114
-0.0100723
-0.00955511
-0.0090657
-0.00860957
-0.00819173
-0.00781657
-0.00748775
-0.00720811
-0.00697956
-0.00680303
-0.00667843
-0.00660464
-0.00657954
-0.00660008
-0.00666235
-0.00676174
-0.00689308
-0.00705082
-0.00722919
-0.0074224
-0.00762483
-0.00783116
-0.00803653
-0.00823667
-0.00842792
-0.00860734
-0.00877269
-0.00892242
-0.00905565
-0.0091721
-0.00927203
-0.00935615
-0.00942551
-0.00948144
-0.00952543
-0.00955908
-0.00958397
-0.0096016
-0.00961332
-0.00962025
-0.00962325
-0.00962284
-0.00961922
-0.00961216
-0.00960134
-0.00958631
-0.00956377
-0.00952813
0.000968002
0.00092425
0.000883499
0.000841038
0.000794468
0.000743959
0.000689534
0.000631218
0.000569066
0.000503167
0.000433568
0.000360214
0.000282888
0.000201175
0.000114422
2.17222e-05
-7.80863e-05
-0.000186412
-0.000304893
-0.000435368
-0.000579845
-0.000740458
-0.000919423
-0.001119
-0.00134142
-0.00158885
-0.00186335
-0.00216676
-0.00250068
-0.00286644
-0.00326497
-0.00369682
-0.00416211
-0.00466046
-0.00519103
-0.00575247
-0.00634298
-0.00696025
-0.00760156
-0.00826378
-0.00894342
-0.00963666
-0.0103394
-0.0110475
-0.0117563
-0.0124614
-0.0131581
-0.0138418
-0.0145079
-0.015152
-0.0157696
-0.0163565
-0.0169087
-0.0174224
-0.0178941
-0.0183206
-0.0186989
-0.0190264
-0.0193009
-0.0195205
-0.0196837
-0.0197895
-0.0198373
-0.0198266
-0.0197578
-0.0196314
-0.0194485
-0.0192107
-0.0189199
-0.0185785
-0.0181893
-0.0177558
-0.0172816
-0.016771
-0.0162286
-0.0156594
-0.0150687
-0.0144624
-0.0138462
-0.0132265
-0.0126096
-0.0120019
-0.0114099
-0.0108397
-0.0102975
-0.00978885
-0.00931894
-0.00889234
-0.00851287
-0.0081835
-0.00790628
-0.00768224
-0.00751136
-0.00739257
-0.00732377
-0.00730191
-0.00732307
-0.00738261
-0.00747531
-0.00759558
-0.00773766
-0.00789575
-0.00806425
-0.00823791
-0.00841194
-0.00858215
-0.00874503
-0.00889773
-0.00903814
-0.00916484
-0.00927703
-0.00937453
-0.00945763
-0.00952705
-0.00958383
-0.00962923
-0.00966467
-0.00969158
-0.00971137
-0.00972534
-0.00973459
-0.00973996
-0.00974201
-0.00974096
-0.00973669
-0.00972892
-0.00971726
-0.00969897
-0.00966941
0.00110423
0.00104799
0.000998824
0.000950149
0.000898424
0.000843574
0.000785409
0.000723627
0.000658026
0.000588467
0.000514783
0.000436713
0.000353841
0.000265541
0.000170943
6.89121e-05
-4.1955e-05
-0.000163321
-0.000297086
-0.000445357
-0.000610408
-0.000794633
-0.00100049
-0.00123047
-0.00148699
-0.00177237
-0.00208875
-0.00243803
-0.00282178
-0.00324123
-0.00369719
-0.00418998
-0.00471944
-0.00528489
-0.00588514
-0.00651845
-0.0071826
-0.0078749
-0.0085922
-0.00933098
-0.0100873
-0.0108571
-0.0116359
-0.0124191
-0.013202
-0.0139797
-0.0147475
-0.0155004
-0.0162338
-0.0169429
-0.0176234
-0.0182708
-0.018881
-0.0194503
-0.0199751
-0.020452
-0.0208781
-0.0212509
-0.0215679
-0.0218274
-0.0220277
-0.0221678
-0.0222469
-0.0222645
-0.0222207
-0.0221162
-0.0219517
-0.0217285
-0.0214482
-0.021113
-0.0207256
-0.0202888
-0.0198061
-0.0192813
-0.0187188
-0.0181231
-0.0174994
-0.016853
-0.0161897
-0.0155156
-0.0148369
-0.0141602
-0.0134919
-0.0128386
-0.0122068
-0.0116027
-0.0110322
-0.0105008
-0.0100132
-0.00957353
-0.00918504
-0.00884999
-0.00856965
-0.00834418
-0.00817265
-0.00805309
-0.0079825
-0.007957
-0.00797196
-0.00802216
-0.00810197
-0.00820559
-0.00832721
-0.0084612
-0.00860232
-0.00874579
-0.00888747
-0.00902387
-0.0091522
-0.0092704
-0.00937709
-0.0094715
-0.00955344
-0.0096232
-0.00968144
-0.00972911
-0.00976736
-0.00979745