/*--------------------------------*- C++ -*----------------------------------*\
| =========                 |                                                 |
| \\      /  F ield         | OpenFOAM: The Open Source CFD Toolbox           |
|  \\    /   O peration     | Version:  2112                                  |
|   \\  /    A nd           | Website:  www.openfoam.com                      |
|    \\/     M anipulation  |                                                 |
\*---------------------------------------------------------------------------*/
FoamFile
{
    version     2.0;
    format      ascii;
    arch        "LSB;label=32;scalar=64";
    class       surfaceScalarField;
    location    "36";
    object      phi;
}
// * * * * * * * * * * * * * * * * * * * * * * * * * * * * * * * * * * * * * //

dimensions      [0 3 -1 0 0 0 0];

oriented        oriented;

internalField   nonuniform List<scalar> 
33024
(
-3.66685e-09
3.74908e-09
2.29736e-08
-2.66421e-08
8.05942e-08
-5.7623e-08
1.60678e-07
-8.00848e-08
2.54562e-07
-9.38834e-08
3.54877e-07
-1.00315e-07
4.55721e-07
-1.00845e-07
5.52561e-07
-9.684e-08
6.42026e-07
-8.94648e-08
7.21712e-07
-7.96867e-08
7.90012e-07
-6.82999e-08
8.45961e-07
-5.59488e-08
8.89105e-07
-4.31439e-08
9.19378e-07
-3.02734e-08
9.36992e-07
-1.76141e-08
9.42337e-07
-5.34485e-09
9.3589e-07
6.44691e-09
9.18145e-07
1.77443e-08
8.89547e-07
2.85987e-08
8.5044e-07
3.9107e-08
8.01038e-07
4.94018e-08
7.41401e-07
5.96377e-08
6.71422e-07
6.99786e-08
5.90836e-07
8.0586e-08
4.99225e-07
9.1611e-08
3.96039e-07
1.03186e-07
2.80619e-07
1.1542e-07
1.52224e-07
1.28395e-07
1.00574e-08
1.42166e-07
-1.46702e-07
1.56759e-07
-3.18877e-07
1.72175e-07
-5.07265e-07
1.88388e-07
-7.12616e-07
2.05351e-07
-9.35611e-07
2.22995e-07
-1.17684e-06
2.41231e-07
-1.43679e-06
2.5995e-07
-1.71582e-06
2.79028e-07
-2.01414e-06
2.98322e-07
-2.33181e-06
3.1767e-07
-2.66871e-06
3.36895e-07
-3.02451e-06
3.55803e-07
-3.39869e-06
3.74183e-07
-3.7905e-06
3.91812e-07
-4.19896e-06
4.08451e-07
-4.62281e-06
4.2385e-07
-5.06056e-06
4.37752e-07
-5.51045e-06
4.49892e-07
-5.97045e-06
4.60004e-07
-6.43827e-06
4.67819e-07
-6.91135e-06
4.73076e-07
-7.38687e-06
4.75518e-07
-7.86177e-06
4.74904e-07
-8.33278e-06
4.71006e-07
-8.79639e-06
4.63618e-07
-9.24895e-06
4.52558e-07
-9.68662e-06
4.37672e-07
-1.01055e-05
4.1884e-07
-1.05014e-05
3.95978e-07
-1.08705e-05
3.6904e-07
-1.12085e-05
3.38027e-07
-1.15115e-05
3.02985e-07
-1.17755e-05
2.64008e-07
-1.19967e-05
2.21244e-07
-1.21716e-05
1.74901e-07
-1.22969e-05
1.25263e-07
-1.23696e-05
7.26556e-08
-1.2387e-05
1.74601e-08
-1.23467e-05
-4.0327e-08
-1.22472e-05
-9.94966e-08
-1.20873e-05
-1.59935e-07
-1.18663e-05
-2.20993e-07
-1.15842e-05
-2.82044e-07
-1.12418e-05
-3.42427e-07
-1.08403e-05
-4.01454e-07
-1.03819e-05
-4.58417e-07
-9.86933e-06
-5.12601e-07
-9.30604e-06
-5.63295e-07
-8.69623e-06
-6.09802e-07
-8.04477e-06
-6.51462e-07
-7.35712e-06
-6.87654e-07
-6.6393e-06
-7.17823e-07
-5.89781e-06
-7.41488e-07
-5.13955e-06
-7.58257e-07
-4.37171e-06
-7.6784e-07
-3.60165e-06
-7.70061e-07
-2.83678e-06
-7.64866e-07
-2.08446e-06
-7.52326e-07
-1.35181e-06
-7.32642e-07
-6.45675e-07
-7.0614e-07
2.76045e-08
-6.73279e-07
6.6231e-07
-6.34705e-07
1.25323e-06
-5.90917e-07
1.79601e-06
-5.42787e-07
2.28713e-06
-4.91115e-07
2.7239e-06
-4.36774e-07
3.10455e-06
-3.80652e-07
3.4282e-06
-3.23644e-07
3.69482e-06
-2.66622e-07
3.90524e-06
-2.10418e-07
4.06104e-06
-1.558e-07
4.1645e-06
-1.03459e-07
4.21849e-06
-5.39944e-08
4.2264e-06
-7.90514e-09
4.19198e-06
3.44219e-08
4.11927e-06
7.27018e-08
4.01251e-06
1.06765e-07
3.87597e-06
1.36543e-07
3.7139e-06
1.62064e-07
3.53046e-06
1.83444e-07
3.32958e-06
2.00875e-07
3.11498e-06
2.14608e-07
2.89004e-06
2.24942e-07
2.65783e-06
2.32205e-07
2.4211e-06
2.36735e-07
2.18224e-06
2.38855e-07
1.94339e-06
2.38855e-07
1.70643e-06
2.3696e-07
1.47313e-06
2.33298e-07
1.24526e-06
2.27867e-07
1.02476e-06
2.20495e-07
8.13966e-07
2.10798e-07
6.15818e-07
1.98148e-07
4.34178e-07
1.8164e-07
2.74067e-07
1.60111e-07
1.41805e-07
1.32262e-07
4.47186e-08
9.70865e-08
-1.02317e-08
5.49499e-08
-2.08137e-08
1.05813e-08
-2.08145e-08
2.65692e-08
-2.28219e-08
1.18573e-07
-1.18643e-07
2.69741e-07
-2.08789e-07
4.6586e-07
-2.76202e-07
6.90991e-07
-3.19016e-07
9.30048e-07
-3.39373e-07
1.16992e-06
-3.40713e-07
1.39981e-06
-3.26728e-07
1.61121e-06
-3.00875e-07
1.79773e-06
-2.66204e-07
1.95476e-06
-2.2533e-07
2.07925e-06
-1.80438e-07
2.1694e-06
-1.33293e-07
2.22439e-06
-8.52652e-08
2.24414e-06
-3.73585e-08
2.22903e-06
9.75582e-09
2.17977e-06
5.57149e-08
2.0971e-06
1.00416e-07
1.98172e-06
1.4397e-07
1.83417e-06
1.86663e-07
1.65466e-06
2.28906e-07
1.44311e-06
2.71188e-07
1.19906e-06
3.14035e-07
9.21674e-07
3.57968e-07
6.09811e-07
4.03475e-07
2.62019e-07
4.50978e-07
-1.23381e-07
5.0082e-07
-5.48234e-07
5.53249e-07
-1.01448e-06
6.08413e-07
-1.52408e-06
6.66358e-07
-2.07894e-06
7.27033e-07
-2.68084e-06
7.90293e-07
-3.33139e-06
8.55902e-07
-4.03194e-06
9.23547e-07
-4.78355e-06
9.92834e-07
-5.5869e-06
1.0633e-06
-6.44228e-06
1.13441e-06
-7.34953e-06
1.20557e-06
-8.30798e-06
1.27612e-06
-9.31643e-06
1.34535e-06
-1.03731e-05
1.41248e-06
-1.14756e-05
1.47669e-06
-1.26209e-05
1.53712e-06
-1.38054e-05
1.59288e-06
-1.50245e-05
1.64304e-06
-1.62735e-05
1.68666e-06
-1.75464e-05
1.72281e-06
-1.88369e-05
1.75055e-06
-2.01381e-05
1.76899e-06
-2.14422e-05
1.77723e-06
-2.27412e-05
1.77447e-06
-2.40263e-05
1.75995e-06
-2.52882e-05
1.733e-06
-2.65176e-05
1.69302e-06
-2.77046e-05
1.63954e-06
-2.88391e-05
1.57219e-06
-2.9911e-05
1.49074e-06
-3.09101e-05
1.39508e-06
-3.18264e-05
1.28528e-06
-3.26499e-05
1.16152e-06
-3.33711e-05
1.02418e-06
-3.39808e-05
8.73788e-07
-3.44706e-05
7.11045e-07
-3.48326e-05
5.3684e-07
-3.50596e-05
3.52296e-07
-3.51456e-05
1.58634e-07
-3.50854e-05
-4.2695e-08
-3.48747e-05
-2.51028e-07
-3.45108e-05
-4.6339e-07
-3.39923e-05
-6.78438e-07
-3.33191e-05
-8.94193e-07
-3.24926e-05
-1.10856e-06
-3.15157e-05
-1.31935e-06
-3.03928e-05
-1.52432e-06
-2.91301e-05
-1.72118e-06
-2.77351e-05
-1.90764e-06
-2.62169e-05
-2.08144e-06
-2.45863e-05
-2.2404e-06
-2.28553e-05
-2.38243e-06
-2.10374e-05
-2.50562e-06
-1.9147e-05
-2.60823e-06
-1.71997e-05
-2.68877e-06
-1.52119e-05
-2.74603e-06
-1.32007e-05
-2.77909e-06
-1.11833e-05
-2.78741e-06
-9.17738e-06
-2.7708e-06
-7.20023e-06
-2.72947e-06
-5.26886e-06
-2.66402e-06
-3.39956e-06
-2.57544e-06
-1.60771e-06
-2.46513e-06
9.24367e-08
-2.33485e-06
1.68822e-06
-2.1867e-06
3.16837e-06
-2.02294e-06
4.5235e-06
-1.84625e-06
5.74615e-06
-1.65942e-06
6.83082e-06
-1.46532e-06
7.77406e-06
-1.26688e-06
8.57443e-06
-1.067e-06
9.23249e-06
-8.68478e-07
9.75066e-06
-6.73974e-07
1.01331e-05
-4.85916e-07
1.03856e-05
-3.06467e-07
1.05152e-05
-1.3749e-07
1.05301e-05
1.94865e-08
1.04395e-05
1.63284e-07
1.02532e-05
2.93082e-07
9.98135e-06
4.08403e-07
9.63431e-06
5.09109e-07
9.22239e-06
5.95364e-07
8.75566e-06
6.67607e-07
8.24376e-06
7.26506e-07
7.69579e-06
7.72907e-07
7.12022e-06
8.07776e-07
6.52483e-06
8.32131e-07
5.91671e-06
8.46968e-07
5.30239e-06
8.53175e-07
4.68791e-06
8.51439e-07
4.07907e-06
8.42141e-07
3.48169e-06
8.25249e-07
2.90197e-06
8.0021e-07
2.34692e-06
7.65856e-07
1.82472e-06
7.20344e-07
1.34518e-06
6.61179e-07
9.1988e-07
5.85411e-07
5.61934e-07
4.90207e-07
2.84819e-07
3.74202e-07
9.9741e-08
2.40029e-07
1.09853e-08
9.93381e-08
-9.82965e-09
5.75369e-08
-8.03611e-08
2.08923e-07
-2.70027e-07
4.35805e-07
-4.35669e-07
7.18347e-07
-5.58745e-07
1.03598e-06
-6.36653e-07
1.36916e-06
-6.72554e-07
1.70046e-06
-6.72007e-07
2.01507e-06
-6.41338e-07
2.30095e-06
-5.86756e-07
2.54869e-06
-5.1395e-07
2.75129e-06
-4.27928e-07
2.9038e-06
-3.3295e-07
3.00303e-06
-2.32517e-07
3.04715e-06
-1.29386e-07
3.0354e-06
-2.56082e-08
2.96774e-06
7.74175e-08
2.84455e-06
1.78902e-07
2.6664e-06
2.78564e-07
2.43381e-06
3.76562e-07
2.14707e-06
4.73401e-07
1.80614e-06
5.6984e-07
1.41053e-06
6.66796e-07
9.59303e-07
7.65262e-07
4.51049e-07
8.66222e-07
-1.16069e-07
9.70593e-07
-7.44248e-07
1.07916e-06
-1.43596e-06
1.19253e-06
-2.19384e-06
1.31113e-06
-3.0206e-06
1.43517e-06
-3.9189e-06
1.56465e-06
-4.89121e-06
1.69935e-06
-5.93976e-06
1.83884e-06
-7.06639e-06
1.98254e-06
-8.27248e-06
2.12964e-06
-9.55885e-06
2.2792e-06
-1.09257e-05
2.43012e-06
-1.23724e-05
2.58114e-06
-1.38977e-05
2.73089e-06
-1.54995e-05
2.87786e-06
-1.71745e-05
3.02043e-06
-1.89189e-05
3.15688e-06
-2.07277e-05
3.28543e-06
-2.25947e-05
3.40419e-06
-2.45131e-05
3.51127e-06
-2.64748e-05
3.60473e-06
-2.84708e-05
3.68265e-06
-3.04911e-05
3.74312e-06
-3.25249e-05
3.78431e-06
-3.45604e-05
3.80448e-06
-3.65851e-05
3.80197e-06
-3.85859e-05
3.7753e-06
-4.05491e-05
3.72315e-06
-4.24605e-05
3.64438e-06
-4.43056e-05
3.53808e-06
-4.60696e-05
3.40359e-06
-4.77379e-05
3.24049e-06
-4.92958e-05
3.04865e-06
-5.0729e-05
2.82821e-06
-5.20233e-05
2.57962e-06
-5.31654e-05
2.30365e-06
-5.41426e-05
2.00135e-06
-5.49429e-05
1.67413e-06
-5.55556e-05
1.32367e-06
-5.59707e-05
9.51995e-07
-5.618e-05
5.61568e-07
-5.61771e-05
1.55704e-07
-5.59547e-05
-2.65076e-07
-5.55101e-05
-6.95574e-07
-5.4841e-05
-1.13252e-06
-5.3947e-05
-1.57246e-06
-5.28296e-05
-2.01157e-06
-5.14924e-05
-2.44579e-06
-4.99408e-05
-2.87095e-06
-4.81823e-05
-3.28278e-06
-4.62265e-05
-3.67699e-06
-4.40848e-05
-4.0493e-06
-4.17707e-05
-4.39552e-06
-3.92995e-05
-4.7116e-06
-3.66883e-05
-4.9937e-06
-3.39556e-05
-5.23829e-06
-3.11216e-05
-5.44219e-06
-2.82078e-05
-5.60263e-06
-2.52364e-05
-5.71737e-06
-2.22308e-05
-5.78474e-06
-1.92145e-05
-5.80366e-06
-1.62116e-05
-5.77374e-06
-1.32458e-05
-5.6953e-06
-1.03404e-05
-5.56937e-06
-7.51814e-06
-5.39772e-06
-4.80044e-06
-5.18283e-06
-2.20744e-06
-4.92785e-06
2.42443e-07
-4.63658e-06
2.53289e-06
-4.31338e-06
4.6496e-06
-3.96296e-06
6.58088e-06
-3.5907e-06
8.31753e-06
-3.20197e-06
9.85302e-06
-2.80237e-06
1.11836e-05
-2.39753e-06
1.2308e-05
-1.99295e-06
1.3228e-05
-1.59391e-06
1.39474e-05
-1.20533e-06
1.44726e-05
-8.31699e-07
1.48121e-05
-4.76953e-07
1.4976e-05
-1.44443e-07
1.49762e-05
1.63129e-07
1.48255e-05
4.43745e-07
1.45379e-05
6.9605e-07
1.41276e-05
9.19354e-07
1.36094e-05
1.11359e-06
1.29978e-05
1.27924e-06
1.2307e-05
1.4173e-06
1.15507e-05
1.52912e-06
1.07422e-05
1.61636e-06
9.89348e-06
1.68081e-06
9.0162e-06
1.72425e-06
8.12109e-06
1.74829e-06
7.21834e-06
1.75419e-06
6.31784e-06
1.74265e-06
5.42946e-06
1.71363e-06
4.56352e-06
1.66615e-06
3.7312e-06
1.59817e-06
2.94502e-06
1.50653e-06
2.21912e-06
1.38708e-06
1.56934e-06
1.23519e-06
1.01278e-06
1.04676e-06
5.66512e-07
8.20472e-07
2.45156e-07
5.61385e-07
5.71164e-08
2.87378e-07
4.72866e-08
8.03721e-08
-1.60734e-07
2.7765e-07
-4.67303e-07
5.61348e-07
-7.19369e-07
9.05046e-07
-9.02442e-07
1.28402e-06
-1.01563e-06
1.67555e-06
-1.06409e-06
2.05944e-06
-1.05589e-06
2.41834e-06
-1.00024e-06
2.73787e-06
-9.06284e-07
3.00653e-06
-7.82614e-07
3.21549e-06
-6.36895e-07
3.35829e-06
-4.75742e-07
3.43043e-06
-3.04657e-07
3.42906e-06
-1.28019e-07
3.35257e-06
5.08783e-08
3.20023e-06
2.29766e-07
2.97182e-06
4.07308e-07
2.6674e-06
5.82987e-07
2.28698e-06
7.5698e-07
1.83037e-06
9.30011e-07
1.297e-06
1.10321e-06
6.8585e-07
1.27795e-06
-4.61271e-09
1.45572e-06
-7.76411e-07
1.63802e-06
-1.632e-06
1.82618e-06
-2.57419e-06
2.02135e-06
-3.60602e-06
2.22437e-06
-4.73065e-06
2.43576e-06
-5.95118e-06
2.6557e-06
-7.27052e-06
2.88399e-06
-8.69124e-06
3.12007e-06
-1.02155e-05
3.36305e-06
-1.18446e-05
3.61171e-06
-1.35795e-05
3.86453e-06
-1.542e-05
4.1197e-06
-1.73651e-05
4.37515e-06
-1.94125e-05
4.62861e-06
-2.15592e-05
4.87754e-06
-2.38006e-05
5.11927e-06
-2.61311e-05
5.35093e-06
-2.85437e-05
5.56952e-06
-3.10302e-05
5.77195e-06
-3.35811e-05
5.95507e-06
-3.61856e-05
6.1157e-06
-3.88315e-05
6.25068e-06
-4.15058e-05
6.35691e-06
-4.41941e-05
6.43142e-06
-4.68811e-05
6.47138e-06
-4.95508e-05
6.47419e-06
-5.21863e-05
6.43747e-06
-5.47702e-05
6.35917e-06
-5.72846e-05
6.23753e-06
-5.97114e-05
6.07117e-06
-6.20324e-05
5.85912e-06
-6.42296e-05
5.60079e-06
-6.62852e-05
5.29607e-06
-6.81818e-05
4.94525e-06
-6.99027e-05
4.54912e-06
-7.1432e-05
4.10892e-06
-7.27547e-05
3.62637e-06
-7.3857e-05
3.10364e-06
-7.47263e-05
2.54335e-06
-7.53512e-05
1.94862e-06
-7.57222e-05
1.32296e-06
-7.58305e-05
6.69908e-07
-7.56733e-05
-1.51739e-09
-7.52402e-05
-6.98144e-07
-7.45324e-05
-1.40337e-06
-7.35487e-05
-2.11626e-06
-7.22904e-05
-2.83079e-06
-7.0761e-05
-3.54094e-06
-6.89662e-05
-4.24054e-06
-6.69139e-05
-4.92325e-06
-6.46141e-05
-5.58265e-06
-6.20787e-05
-6.21232e-06
-5.93222e-05
-6.80587e-06
-5.63606e-05
-7.35708e-06
-5.32123e-05
-7.85994e-06
-4.98972e-05
-8.30877e-06
-4.64372e-05
-8.69832e-06
-4.28555e-05
-9.02384e-06
-3.91769e-05
-9.28124e-06
-3.54272e-05
-9.46712e-06
-3.1633e-05
-9.57892e-06
-2.78217e-05
-9.61495e-06
-2.40209e-05
-9.57451e-06
-2.02583e-05
-9.45791e-06
-1.65611e-05
-9.26654e-06
-1.2956e-05
-9.00283e-06
-9.46856e-06
-8.6703e-06
-6.12291e-06
-8.2735e-06
-2.94157e-06
-7.81792e-06
5.49829e-08
-7.30994e-06
2.84881e-06
-6.75679e-06
5.4242e-06
-6.16609e-06
7.76843e-06
-5.54621e-06
9.87173e-06
-4.90567e-06
1.17274e-05
-4.25315e-06
1.33316e-05
-3.59724e-06
1.4684e-05
-2.94631e-06
1.5787e-05
-2.30827e-06
1.66458e-05
-1.69047e-06
1.72683e-05
-1.0995e-06
1.7665e-05
-5.41097e-07
1.78482e-05
-2.00759e-08
1.78321e-05
4.59797e-07
1.76324e-05
8.95748e-07
1.72657e-05
1.28606e-06
1.67493e-05
1.63e-06
1.61008e-05
1.92774e-06
1.53378e-05
2.18028e-06
1.44776e-05
2.38929e-06
1.35371e-05
2.55691e-06
1.25323e-05
2.6856e-06
1.14787e-05
2.77789e-06
1.03908e-05
2.8361e-06
9.28297e-06
2.86206e-06
8.16878e-06
2.85683e-06
7.062e-06
2.82041e-06
5.9767e-06
2.75146e-06
4.92771e-06
2.64716e-06
3.93107e-06
2.50317e-06
3.00426e-06
2.31389e-06
2.16625e-06
2.0732e-06
1.43717e-06
1.77585e-06
8.37463e-07
1.42017e-06
3.86674e-07
1.01217e-06
1.02142e-07
5.71909e-07
1.49429e-07
9.5055e-08
-2.55788e-07
3.23121e-07
-6.9537e-07
6.43954e-07
-1.0402e-06
1.02493e-06
-1.28341e-06
1.43745e-06
-1.42815e-06
1.85621e-06
-1.48285e-06
2.25905e-06
-1.45873e-06
2.62695e-06
-1.36813e-06
2.944e-06
-1.22334e-06
3.19732e-06
-1.03593e-06
3.37677e-06
-8.16344e-07
3.47469e-06
-5.73656e-07
3.4855e-06
-3.15474e-07
3.40538e-06
-4.79014e-08
3.23182e-06
2.24438e-07
2.96326e-06
4.98326e-07
2.59874e-06
7.71829e-07
2.13757e-06
1.04416e-06
1.57908e-06
1.31547e-06
9.22387e-07
1.58671e-06
1.66248e-07
1.85934e-06
-6.91019e-07
2.13521e-06
-1.65158e-06
2.41628e-06
-2.71804e-06
2.70449e-06
-3.89341e-06
3.00155e-06
-5.18095e-06
3.30888e-06
-6.58404e-06
3.62745e-06
-8.10601e-06
3.95774e-06
-9.74999e-06
4.29968e-06
-1.15187e-05
4.6527e-06
-1.34143e-05
5.01567e-06
-1.54382e-05
5.38693e-06
-1.75908e-05
5.76437e-06
-1.98717e-05
6.14541e-06
-2.22791e-05
6.52708e-06
-2.481e-05
6.90602e-06
-2.74599e-05
7.27855e-06
-3.02231e-05
7.64071e-06
-3.30921e-05
7.9883e-06
-3.60581e-05
8.31691e-06
-3.91106e-05
8.62202e-06
-4.22376e-05
8.89901e-06
-4.54258e-05
9.14325e-06
-4.86603e-05
9.35017e-06
-5.19249e-05
9.51531e-06
-5.52024e-05
9.6344e-06
-5.84744e-05
9.70343e-06
-6.17217e-05
9.71871e-06
-6.49245e-05
9.67694e-06
-6.80623e-05
9.57526e-06
-7.11144e-05
9.41129e-06
-7.40601e-05
9.18321e-06
-7.68786e-05
8.88973e-06
-7.95497e-05
8.53019e-06
-8.20534e-05
8.1045e-06
-8.43706e-05
7.61324e-06
-8.64829e-05
7.05756e-06
-8.83731e-05
6.43929e-06
-9.0025e-05
5.76084e-06
-9.14239e-05
5.02523e-06
-9.25563e-05
4.23608e-06
-9.34105e-05
3.39757e-06
-9.39763e-05
2.51445e-06
-9.42454e-05
1.59199e-06
-9.42116e-05
6.36124e-07
-9.38667e-05
-3.46435e-07
-9.32134e-05
-1.35139e-06
-9.22476e-05
-2.36921e-06
-9.09708e-05
-3.39302e-06
-8.93864e-05
-4.4152e-06
-8.74997e-05
-5.42769e-06
-8.5318e-05
-6.42224e-06
-8.28508e-05
-7.39043e-06
-8.01097e-05
-8.32373e-06
-7.71084e-05
-9.21364e-06
-7.38625e-05
-1.00518e-05
-7.03897e-05
-1.08298e-05
-6.67097e-05
-1.154e-05
-6.28439e-05
-1.21746e-05
-5.88154e-05
-1.27268e-05
-5.46491e-05
-1.31902e-05
-5.0371e-05
-1.35593e-05
-4.60086e-05
-1.38295e-05
-4.15902e-05
-1.39973e-05
-3.71451e-05
-1.40601e-05
-3.27027e-05
-1.40169e-05
-2.82928e-05
-1.38677e-05
-2.39452e-05
-1.36142e-05
-1.96888e-05
-1.32592e-05
-1.5552e-05
-1.28071e-05
-1.15618e-05
-1.22637e-05
-7.74379e-06
-1.1636e-05
-4.1215e-06
-1.09322e-05
-7.16409e-07
-1.01619e-05
2.45267e-06
-9.33517e-06
5.36961e-06
-8.46314e-06
8.02129e-06
-7.55735e-06
1.03978e-05
-6.62963e-06
1.24924e-05
-5.69184e-06
1.43017e-05
-4.75566e-06
1.58258e-05
-3.83231e-06
1.70676e-05
-2.93235e-06
1.80336e-05
-2.06544e-06
1.87327e-05
-1.24018e-06
1.91765e-05
-4.63971e-07
1.93792e-05
2.57118e-07
1.93566e-05
9.1841e-07
1.9126e-05
1.51662e-06
1.87062e-05
2.04984e-06
1.81164e-05
2.51749e-06
1.73766e-05
2.92014e-06
1.65065e-05
3.25937e-06
1.55258e-05
3.53755e-06
1.44539e-05
3.75755e-06
1.33094e-05
3.92242e-06
1.21104e-05
4.03507e-06
1.08746e-05
4.09785e-06
9.61929e-06
4.11215e-06
8.36165e-06
4.07805e-06
7.11913e-06
3.99398e-06
5.90981e-06
3.85647e-06
4.75274e-06
3.66024e-06
3.66821e-06
3.39842e-06
2.67792e-06
3.06349e-06
1.80494e-06
2.64883e-06
1.07357e-06
2.15154e-06
5.09435e-07
1.57631e-06
1.40243e-07
9.41101e-07
2.89671e-07
1.02843e-07
-3.58632e-07
3.4723e-07
-9.39757e-07
6.86056e-07
-1.37903e-06
1.08165e-06
-1.67901e-06
1.5021e-06
-1.8486e-06
1.91995e-06
-1.9007e-06
2.31156e-06
-1.85034e-06
2.65678e-06
-1.71336e-06
2.93877e-06
-1.50532e-06
3.1437e-06
-1.24087e-06
3.26057e-06
-9.3321e-07
3.28081e-06
-5.93902e-07
3.198e-06
-2.32659e-07
3.00741e-06
1.42691e-07
2.70566e-06
5.26186e-07
2.29033e-06
9.13649e-07
1.75962e-06
1.30254e-06
1.11199e-06
1.69178e-06
3.45949e-07
2.08152e-06
-5.40186e-07
2.47284e-06
-1.54841e-06
2.86757e-06
-2.68111e-06
3.26791e-06
-3.94109e-06
3.67626e-06
-5.33148e-06
4.09488e-06
-6.85569e-06
4.52576e-06
-8.51722e-06
4.97042e-06
-1.03195e-05
5.42975e-06
-1.22658e-05
5.90398e-06
-1.43587e-05
6.39259e-06
-1.66003e-05
6.89432e-06
-1.89918e-05
7.40715e-06
-2.15332e-05
7.9284e-06
-2.42236e-05
8.45469e-06
-2.70602e-05
8.98208e-06
-3.00392e-05
9.50607e-06
-3.31549e-05
1.00217e-05
-3.63999e-05
1.05236e-05
-3.97652e-05
1.1006e-05
-4.324e-05
1.1463e-05
-4.68115e-05
1.18885e-05
-5.04656e-05
1.22761e-05
-5.41864e-05
1.26198e-05
-5.79564e-05
1.29133e-05
-6.17569e-05
1.31507e-05
-6.5568e-05
1.33263e-05
-6.93685e-05
1.3435e-05
-7.31368e-05
1.34717e-05
-7.68506e-05
1.34324e-05
-8.0487e-05
1.33134e-05
-8.40234e-05
1.31117e-05
-8.74371e-05
1.28249e-05
-9.07056e-05
1.24518e-05
-9.38073e-05
1.19914e-05
-9.6721e-05
1.14439e-05
-9.94267e-05
1.08102e-05
-0.000101905
1.00918e-05
-0.000104139
9.29127e-06
-0.000106111
8.41168e-06
-0.000107807
7.45694e-06
-0.000109214
6.4316e-06
-0.000110319
5.34092e-06
-0.000111112
4.19074e-06
-0.000111585
2.98755e-06
-0.000111731
1.73838e-06
-0.000111546
4.51079e-07
-0.000111026
-8.66977e-07
-0.00011017
-2.20711e-06
-0.000108979
-3.56006e-06
-0.000107456
-4.91653e-06
-0.000105604
-6.26692e-06
-0.00010343
-7.60125e-06
-0.000100943
-8.90936e-06
-9.81528e-05
-1.01809e-05
-9.50712e-05
-1.14053e-05
-9.17125e-05
-1.25723e-05
-8.80928e-05
-1.36715e-05
-8.423e-05
-1.46927e-05
-8.01438e-05
-1.56261e-05
-7.5856e-05
-1.64625e-05
-7.13897e-05
-1.7193e-05
-6.677e-05
-1.78099e-05
-6.20233e-05
-1.8306e-05
-5.71774e-05
-1.86755e-05
-5.22612e-05
-1.89135e-05
-4.73045e-05
-1.90168e-05
-4.23378e-05
-1.89835e-05
-3.73921e-05
-1.88134e-05
-3.24984e-05
-1.85079e-05
-2.76874e-05
-1.80702e-05
-2.29894e-05
-1.75052e-05
-1.84334e-05
-1.68196e-05
-1.40475e-05
-1.60219e-05
-9.8579e-06
-1.51218e-05
-5.88887e-06
-1.41309e-05
-2.16231e-06
-1.30617e-05
1.30253e-06
-1.1928e-05
4.4893e-06
-1.07441e-05
7.38477e-06
-9.52509e-06
9.97901e-06
-8.28608e-06
1.22655e-05
-7.04215e-06
1.42412e-05
-5.80798e-06
1.59064e-05
-4.59757e-06
1.72649e-05
-3.42393e-06
1.83236e-05
-2.29889e-06
1.90924e-05
-1.23282e-06
1.95841e-05
-2.34531e-07
1.98136e-05
6.88895e-07
1.97981e-05
1.53212e-06
1.95564e-05
2.29155e-06
1.91085e-05
2.96533e-06
1.84756e-05
3.55313e-06
1.76789e-05
4.05601e-06
1.67403e-05
4.47613e-06
1.56815e-05
4.81641e-06
1.45237e-05
5.08016e-06
1.32882e-05
5.27064e-06
1.19954e-05
5.39056e-06
1.0666e-05
5.4416e-06
9.32013e-06
5.42392e-06
7.97835e-06
5.33576e-06
6.66161e-06
5.17321e-06
5.39172e-06
4.93014e-06
4.19158e-06
4.59856e-06
3.08558e-06
4.16948e-06
2.0999e-06
3.63451e-06
1.2631e-06
2.98834e-06
6.07183e-07
2.23222e-06
1.69829e-07
1.37845e-06
4.595e-07
1.05012e-07
-4.63645e-07
3.52692e-07
-1.18743e-06
6.91641e-07
-1.71798e-06
1.08057e-06
-2.06793e-06
1.48504e-06
-2.25307e-06
1.87594e-06
-2.2916e-06
2.2286e-06
-2.20299e-06
2.52213e-06
-2.00689e-06
2.73912e-06
-1.72231e-06
2.86521e-06
-1.36696e-06
2.88882e-06
-9.5682e-07
2.80077e-06
-5.05849e-07
2.59391e-06
-2.58027e-08
2.26278e-06
4.73828e-07
1.80316e-06
9.85799e-07
1.21179e-06
1.50502e-06
4.85978e-07
2.02836e-06
-3.76703e-07
2.55447e-06
-1.37862e-06
3.08344e-06
-2.5223e-06
3.61652e-06
-3.81051e-06
4.15577e-06
-5.24632e-06
4.70373e-06
-6.83309e-06
5.26302e-06
-8.57436e-06
5.83615e-06
-1.04737e-05
6.42514e-06
-1.25347e-05
7.03139e-06
-1.47604e-05
7.65549e-06
-1.71536e-05
8.29709e-06
-1.97159e-05
8.95492e-06
-2.24483e-05
9.62669e-06
-2.53503e-05
1.03092e-05
-2.84202e-05
1.09983e-05
-3.16546e-05
1.16891e-05
-3.50485e-05
1.23759e-05
-3.85948e-05
1.30524e-05
-4.22847e-05
1.37116e-05
-4.61074e-05
1.43463e-05
-5.00502e-05
1.49488e-05
-5.40985e-05
1.55113e-05
-5.82357e-05
1.60257e-05
-6.24436e-05
1.64841e-05
-6.67025e-05
1.68787e-05
-7.09912e-05
1.7202e-05
-7.52876e-05
1.7447e-05
-7.95683e-05
1.7607e-05
-8.38095e-05
1.76762e-05
-8.7987e-05
1.76493e-05
-9.20764e-05
1.75218e-05
-9.60534e-05
1.72904e-05
-9.98941e-05
1.69523e-05
-0.000103575
1.6506e-05
-0.000107074
1.59507e-05
-0.000110369
1.52868e-05
-0.000113441
1.45154e-05
-0.000116269
1.36386e-05
-0.000118837
1.26597e-05
-0.000121128
1.15823e-05
-0.000123128
1.04113e-05
-0.000124823
9.15216e-06
-0.000126203
7.81098e-06
-0.000127256
6.39466e-06
-0.000127976
4.91071e-06
-0.000128356
3.36721e-06
-0.00012839
1.77281e-06
-0.000128077
1.3731e-07
-0.000127412
-1.5313e-06
-0.000126398
-3.2214e-06
-0.000125035
-4.9228e-06
-0.000123327
-6.62454e-06
-0.000121279
-8.3153e-06
-0.000118897
-9.98342e-06
-0.000116189
-1.1617e-05
-0.000113166
-1.3204e-05
-0.000109839
-1.47321e-05
-0.000106222
-1.61892e-05
-0.000102331
-1.7563e-05
-9.81819e-05
-1.88416e-05
-9.37946e-05
-2.00134e-05
-8.91898e-05
-2.10672e-05
-8.43902e-05
-2.19927e-05
-7.942e-05
-2.278e-05
-7.43053e-05
-2.34207e-05
-6.90735e-05
-2.39072e-05
-6.37534e-05
-2.42336e-05
-5.8375e-05
-2.43952e-05
-5.29691e-05
-2.43894e-05
-4.75673e-05
-2.42153e-05
-4.22014e-05
-2.38738e-05
-3.69035e-05
-2.33681e-05
-3.17052e-05
-2.27035e-05
-2.66375e-05
-2.18873e-05
-2.17306e-05
-2.09288e-05
-1.7013e-05
-1.98394e-05
-1.25116e-05
-1.86323e-05
-8.25103e-06
-1.73223e-05
-4.25367e-06
-1.59253e-05
-5.38993e-07
-1.44588e-05
2.87654e-06
-1.29406e-05
5.97968e-06
-1.13892e-05
8.76063e-06
-9.82309e-06
1.12131e-05
-8.26043e-06
1.33343e-05
-6.7188e-06
1.51251e-05
-5.21477e-06
1.65898e-05
-3.76359e-06
1.7736e-05
-2.37896e-06
1.85742e-05
-1.07278e-06
1.91181e-05
1.45011e-07
1.93836e-05
1.26664e-06
1.93888e-05
2.28632e-06
1.91538e-05
3.2004e-06
1.86997e-05
4.00719e-06
1.8049e-05
4.70673e-06
1.72246e-05
5.30051e-06
1.62499e-05
5.7911e-06
1.51484e-05
6.18172e-06
1.39433e-05
6.47567e-06
1.26581e-05
6.67582e-06
1.13157e-05
6.78398e-06
9.93925e-06
6.80035e-06
8.55198e-06
6.72303e-06
7.17751e-06
6.54768e-06
5.84021e-06
6.26744e-06
4.56557e-06
5.87319e-06
3.38072e-06
5.35434e-06
2.31509e-06
4.70015e-06
1.40152e-06
3.90191e-06
6.78054e-07
2.95569e-06
1.90819e-07
1.86569e-06
6.50319e-07
1.02595e-07
-5.6624e-07
3.42068e-07
-1.42691e-06
6.64755e-07
-2.04067e-06
1.02717e-06
-2.43035e-06
1.39325e-06
-2.61916e-06
1.73286e-06
-2.63121e-06
2.0207e-06
-2.49083e-06
2.23555e-06
-2.22175e-06
2.35974e-06
-1.84651e-06
2.37869e-06
-1.3859e-06
2.28047e-06
-8.586e-07
2.05548e-06
-2.80859e-07
1.69603e-06
3.33639e-07
1.19601e-06
9.73852e-07
5.50463e-07
1.63135e-06
-2.44709e-07
2.30019e-06
-1.19307e-06
2.97672e-06
-2.29793e-06
3.65932e-06
-3.56253e-06
4.34803e-06
-4.99021e-06
5.0442e-06
-6.58446e-06
5.75003e-06
-8.34896e-06
6.46822e-06
-1.02875e-05
7.20154e-06
-1.24037e-05
7.95242e-06
-1.47013e-05
8.72272e-06
-1.71834e-05
9.51342e-06
-1.98523e-05
1.03245e-05
-2.27098e-05
1.11546e-05
-2.57563e-05
1.20014e-05
-2.89908e-05
1.28612e-05
-3.24109e-05
1.37293e-05
-3.60123e-05
1.45997e-05
-3.97887e-05
1.54655e-05
-4.3732e-05
1.63191e-05
-4.78317e-05
1.71521e-05
-5.20753e-05
1.79553e-05
-5.64484e-05
1.87194e-05
-6.09342e-05
1.94346e-05
-6.55142e-05
2.00912e-05
-7.0168e-05
2.06795e-05
-7.48739e-05
2.11899e-05
-7.96086e-05
2.16134e-05
-8.43478e-05
2.19413e-05
-8.90666e-05
2.21658e-05
-9.37394e-05
2.22799e-05
-9.83406e-05
2.22774e-05
-0.000102845
2.21532e-05
-0.000107226
2.19034e-05
-0.000111461
2.1525e-05
-0.000115525
2.10163e-05
-0.000119396
2.03768e-05
-0.000123052
1.96069e-05
-0.000126473
1.87083e-05
-0.000129642
1.76838e-05
-0.00013254
1.65368e-05
-0.000135152
1.52722e-05
-0.000137465
1.38953e-05
-0.000139466
1.24124e-05
-0.000141145
1.08305e-05
-0.000142491
9.15743e-06
-0.000143498
7.40141e-06
-0.000144159
5.57141e-06
-0.000144468
3.67695e-06
-0.000144424
1.72805e-06
-0.000144022
-2.64385e-07
-0.000143263
-2.29047e-06
-0.000142147
-4.33769e-06
-0.000140675
-6.3944e-06
-0.000138851
-8.44828e-06
-0.00013668
-1.04866e-05
-0.000134167
-1.24963e-05
-0.00013132
-1.4464e-05
-0.000128148
-1.63759e-05
-0.000124662
-1.82184e-05
-0.000120873
-1.99775e-05
-0.000116797
-2.16392e-05
-0.000112449
-2.31899e-05
-0.000107846
-2.46161e-05
-0.000103009
-2.59048e-05
-9.79576e-05
-2.70437e-05
-9.27164e-05
-2.80212e-05
-8.73101e-05
-2.88271e-05
-8.17653e-05
-2.9452e-05
-7.61103e-05
-2.98885e-05
-7.0375e-05
-3.01306e-05
-6.45902e-05
-3.01742e-05
-5.87879e-05
-3.00176e-05
-5.30007e-05
-2.9661e-05
-4.72617e-05
-2.91072e-05
-4.16038e-05
-2.83614e-05
-3.60599e-05
-2.74312e-05
-3.06619e-05
-2.63268e-05
-2.54408e-05
-2.50606e-05
-2.04259e-05
-2.36473e-05
-1.56447e-05
-2.21035e-05
-1.11224e-05
-2.04476e-05
-6.8817e-06
-1.86995e-05
-2.94224e-06
-1.68801e-05
6.79465e-07
-1.50109e-05
3.97029e-06
-1.31139e-05
6.92063e-06
-1.12108e-05
9.52457e-06
-9.32274e-06
1.17798e-05
-7.47002e-06
1.36878e-05
-5.67152e-06
1.52533e-05
-3.94449e-06
1.64847e-05
-2.3042e-06
1.73934e-05
-7.63732e-07
1.79939e-05
6.66189e-07
1.8303e-05
1.97725e-06
1.83398e-05
3.16357e-06
1.81254e-05
4.22157e-06
1.76823e-05
5.14981e-06
1.70342e-05
5.94867e-06
1.62054e-05
6.61992e-06
1.52208e-05
7.16628e-06
1.41057e-05
7.59079e-06
1.28853e-05
7.89618e-06
1.15851e-05
8.0842e-06
1.02305e-05
8.15497e-06
8.84711e-06
8.10638e-06
7.46112e-06
7.93367e-06
6.09934e-06
7.62922e-06
4.78981e-06
7.18273e-06
3.56239e-06
6.58175e-06
2.44975e-06
5.81279e-06
1.48874e-06
4.86293e-06
7.22525e-07
3.7219e-06
2.03715e-07
2.3845e-06
8.54033e-07
9.63211e-08
-6.62562e-07
3.17386e-07
-1.64797e-06
6.08823e-07
-2.3321e-06
9.26237e-07
-2.74776e-06
1.2329e-06
-2.92582e-06
1.49829e-06
-2.89661e-06
1.69702e-06
-2.68956e-06
1.80791e-06
-2.33264e-06
1.81333e-06
-1.85193e-06
1.6987e-06
-1.27127e-06
1.45198e-06
-6.11883e-07
1.06331e-06
1.07806e-07
5.24607e-07
8.72345e-07
-1.70825e-07
1.66928e-06
-1.0286e-06
2.48912e-06
-2.05359e-06
3.32518e-06
-3.2502e-06
4.17333e-06
-4.62256e-06
5.03168e-06
-6.17474e-06
5.90022e-06
-7.91081e-06
6.78027e-06
-9.8349e-06
7.67411e-06
-1.19511e-05
8.58441e-06
-1.42634e-05
9.5138e-06
-1.67754e-05
1.04644e-05
-1.94903e-05
1.14376e-05
-2.24105e-05
1.24336e-05
-2.55374e-05
1.34513e-05
-2.88711e-05
1.44882e-05
-3.241e-05
1.55403e-05
-3.6151e-05
1.66022e-05
-4.00888e-05
1.76671e-05
-4.42162e-05
1.87271e-05
-4.85236e-05
1.9773e-05
-5.29992e-05
2.07947e-05
-5.76289e-05
2.17817e-05
-6.23963e-05
2.27226e-05
-6.72828e-05
2.3606e-05
-7.22682e-05
2.442e-05
-7.733e-05
2.51531e-05
-8.24447e-05
2.57941e-05
-8.75871e-05
2.63323e-05
-9.27314e-05
2.67577e-05
-9.7851e-05
2.70609e-05
-0.000102919
2.72341e-05
-0.00010791
2.72701e-05
-0.000112795
2.71633e-05
-0.000117551
2.69091e-05
-0.000122153
2.65046e-05
-0.000126576
2.5948e-05
-0.000130798
2.52387e-05
-0.000134799
2.43778e-05
-0.000138559
2.33673e-05
-0.000142061
2.22103e-05
-0.000145289
2.09112e-05
-0.000148227
1.94753e-05
-0.000150864
1.79087e-05
-0.000153187
1.62183e-05
-0.000155186
1.4412e-05
-0.000156854
1.2498e-05
-0.000158182
1.04855e-05
-0.000159164
8.38383e-06
-0.000159796
6.20324e-06
-0.000160073
3.95431e-06
-0.000159994
1.64817e-06
-0.000159554
-7.03579e-07
-0.000158756
-3.08931e-06
-0.000157597
-5.49607e-06
-0.000156081
-7.911e-06
-0.000154208
-1.03207e-05
-0.000151984
-1.27112e-05
-0.000149412
-1.50683e-05
-0.000146498
-1.73773e-05
-0.000143251
-1.96231e-05
-0.000139679
-2.17904e-05
-0.000135793
-2.38638e-05
-0.000131604
-2.58276e-05
-0.000127128
-2.76663e-05
-0.000122379
-2.93647e-05
-0.000117376
-3.09077e-05
-0.000112139
-3.22811e-05
-0.000106689
-3.34714e-05
-0.00010105
-3.44662e-05
-9.52474e-05
-3.52544e-05
-8.93094e-05
-3.58265e-05
-8.32651e-05
-3.61749e-05
-7.71454e-05
-3.6294e-05
-7.09824e-05
-3.61805e-05
-6.48095e-05
-3.58339e-05
-5.86606e-05
-3.5256e-05
-5.25702e-05
-3.44518e-05
-4.65727e-05
-3.34287e-05
-4.07021e-05
-3.21973e-05
-3.49917e-05
-3.0771e-05
-2.94734e-05
-2.91656e-05
-2.41775e-05
-2.73993e-05
-1.91323e-05
-2.54929e-05
-1.43634e-05
-2.34684e-05
-9.89383e-06
-2.13497e-05
-5.74339e-06
-1.91614e-05
-1.92853e-06
-1.69288e-05
1.53787e-06
-1.46772e-05
4.64662e-06
-1.24315e-05
7.39234e-06
-1.02157e-05
9.77338e-06
-8.05257e-06
1.17919e-05
-5.96299e-06
1.34536e-05
-3.96589e-06
1.47676e-05
-2.07779e-06
1.57465e-05
-3.12656e-07
1.64054e-05
1.31829e-06
1.67625e-05
2.80651e-06
1.68379e-05
4.14616e-06
1.66538e-05
5.33387e-06
1.62341e-05
6.36844e-06
1.56036e-05
7.25044e-06
1.47882e-05
7.98167e-06
1.38144e-05
8.56454e-06
1.27092e-05
9.00135e-06
1.14999e-05
9.29354e-06
1.02139e-05
9.44096e-06
8.87915e-06
9.44116e-06
7.52396e-06
9.28886e-06
6.17755e-06
8.97563e-06
4.87043e-06
8.48984e-06
3.63515e-06
7.81703e-06
2.50735e-06
6.94058e-06
1.52736e-06
5.84292e-06
7.42323e-07
4.50693e-06
2.09257e-07
2.91757e-06
1.06329e-06
8.66633e-08
-7.49226e-07
2.80101e-07
-1.84141e-06
5.26462e-07
-2.57846e-06
7.81597e-07
-3.0029e-06
1.00903e-06
-3.15325e-06
1.17862e-06
-3.06619e-06
1.26537e-06
-2.77631e-06
1.24854e-06
-2.3158e-06
1.11087e-06
-1.71426e-06
8.37988e-07
-9.98387e-07
4.17944e-07
-1.91838e-07
-1.59252e-07
6.85002e-07
-9.01994e-07
1.61509e-06
-1.81743e-06
2.58472e-06
-2.9118e-06
3.58349e-06
-4.19066e-06
4.60404e-06
-5.65916e-06
5.64183e-06