/*--------------------------------*- C++ -*----------------------------------*\
| =========                 |                                                 |
| \\      /  F ield         | OpenFOAM: The Open Source CFD Toolbox           |
|  \\    /   O peration     | Version:  2112                                  |
|   \\  /    A nd           | Website:  www.openfoam.com                      |
|    \\/     M anipulation  |                                                 |
\*---------------------------------------------------------------------------*/
FoamFile
{
    version     2.0;
    format      ascii;
    arch        "LSB;label=32;scalar=64";
    class       volVectorField;
    location    "36";
    object      U;
}
// * * * * * * * * * * * * * * * * * * * * * * * * * * * * * * * * * * * * * //

dimensions      [0 1 -1 0 0 0 0];

internalField   nonuniform List<vector> 
16641
(
(-7.69435e-06 7.72832e-06 0)
(2.98421e-06 -6.5012e-06 0)
(5.97713e-05 -2.24259e-05 0)
(0.000150888 -3.36254e-05 0)
(0.000265101 -4.02157e-05 0)
(0.000392129 -4.31678e-05 0)
(0.000523337 -4.34054e-05 0)
(0.000651986 -4.16913e-05 0)
(0.00077301 -3.86182e-05 0)
(0.000882728 -3.46414e-05 0)
(0.000978593 -3.01142e-05 0)
(0.00105898 -2.5312e-05 0)
(0.00112302 -2.04455e-05 0)
(0.00117039 -1.56698e-05 0)
(0.00120123 -1.10912e-05 0)
(0.00121595 -6.77411e-06 0)
(0.00121513 -2.74562e-06 0)
(0.00119941 1.00086e-06 0)
(0.00116943 4.4956e-06 0)
(0.0011257 7.78862e-06 0)
(0.00106859 1.0944e-05 0)
(0.000998283 1.40344e-05 0)
(0.000914745 1.71353e-05 0)
(0.000817739 2.03205e-05 0)
(0.000706818 2.36591e-05 0)
(0.000581353 2.72119e-05 0)
(0.000440556 3.10299e-05 0)
(0.000283516 3.51531e-05 0)
(0.000109234 3.96106e-05 0)
(-8.33415e-05 4.44208e-05 0)
(-0.00029528 4.95923e-05 0)
(-0.000527634 5.51243e-05 0)
(-0.000781408 6.10082e-05 0)
(-0.00105753 6.72276e-05 0)
(-0.00135683 7.37597e-05 0)
(-0.00168001 8.05748e-05 0)
(-0.00202761 8.76371e-05 0)
(-0.00240001 9.49039e-05 0)
(-0.00279738 0.000102326 0)
(-0.0032197 0.000109846 0)
(-0.00366668 0.000117401 0)
(-0.00413778 0.00012492 0)
(-0.00463218 0.000132323 0)
(-0.00514875 0.000139524 0)
(-0.00568606 0.000146432 0)
(-0.00624235 0.000152945 0)
(-0.00681552 0.000158961 0)
(-0.00740311 0.000164369 0)
(-0.00800234 0.000169057 0)
(-0.00861008 0.00017291 0)
(-0.00922285 0.000175814 0)
(-0.00983685 0.000177653 0)
(-0.010448 0.000178316 0)
(-0.0110519 0.000177698 0)
(-0.011644 0.000175697 0)
(-0.0122193 0.000172223 0)
(-0.012773 0.000167196 0)
(-0.0132997 0.000160547 0)
(-0.0137943 0.000152225 0)
(-0.0142515 0.000142193 0)
(-0.0146661 0.000130435 0)
(-0.0150329 0.000116956 0)
(-0.0153469 0.000101782 0)
(-0.0156033 8.49647e-05 0)
(-0.0157977 6.66029e-05 0)
(-0.0159261 4.68171e-05 0)
(-0.0159849 2.56926e-05 0)
(-0.0159706 3.46875e-06 0)
(-0.0158807 -1.98021e-05 0)
(-0.0157135 -4.38357e-05 0)
(-0.0154678 -6.83694e-05 0)
(-0.0151432 -9.31375e-05 0)
(-0.01474 -0.000117853 0)
(-0.0142597 -0.000142209 0)
(-0.0137043 -0.000165887 0)
(-0.0130771 -0.000188557 0)
(-0.012382 -0.00020989 0)
(-0.011624 -0.000229561 0)
(-0.010809 -0.000247255 0)
(-0.00994363 -0.00026268 0)
(-0.00903532 -0.000275568 0)
(-0.00809217 -0.000285688 0)
(-0.00712285 -0.000292854 0)
(-0.00613648 -0.000296924 0)
(-0.00514245 -0.000297815 0)
(-0.00415035 -0.000295502 0)
(-0.00316973 -0.00029002 0)
(-0.00220995 -0.000281468 0)
(-0.00128007 -0.000270002 0)
(-0.000388528 -0.000255851 0)
(0.000456699 -0.000239338 0)
(0.00124854 -0.000220657 0)
(0.00198094 -0.000200249 0)
(0.00264876 -0.000178487 0)
(0.00324795 -0.000155769 0)
(0.00377566 -0.000132498 0)
(0.00423015 -0.000109073 0)
(0.00461085 -8.58791e-05 0)
(0.00491829 -6.32712e-05 0)
(0.00515404 -4.15712e-05 0)
(0.00532062 -2.10586e-05 0)
(0.00542136 -1.96618e-06 0)
(0.00546033 1.55233e-05 0)
(0.00544216 3.1277e-05 0)
(0.00537193 4.52154e-05 0)
(0.00525498 5.73061e-05 0)
(0.00509683 6.75612e-05 0)
(0.00490302 7.60335e-05 0)
(0.00467899 8.28109e-05 0)
(0.00442997 8.80105e-05 0)
(0.00416092 9.17721e-05 0)
(0.00387643 9.42513e-05 0)
(0.00358067 9.56127e-05 0)
(0.00327739 9.60217e-05 0)
(0.0029699 9.56358e-05 0)
(0.00266111 9.45945e-05 0)
(0.00235359 9.30077e-05 0)
(0.00204967 9.09409e-05 0)
(0.00175159 8.83983e-05 0)
(0.00146169 8.53018e-05 0)
(0.00118267 8.14658e-05 0)
(0.000917875 7.65678e-05 0)
(0.000671634 7.01162e-05 0)
(0.000449658 6.1425e-05 0)
(0.000259334 4.96394e-05 0)
(0.000109645 3.39447e-05 0)
(1.01041e-05 1.42234e-05 0)
(-3.1477e-05 -7.04971e-06 0)
(-1.84972e-05 -1.85474e-05 0)
(6.42626e-06 -2.84074e-06 0)
(7.32737e-05 -7.33536e-05 0)
(0.000234109 -0.000143886 0)
(0.000463472 -0.000196283 0)
(0.000739872 -0.000229165 0)
(0.00104351 -0.000244809 0)
(0.00135606 -0.000246297 0)
(0.00166202 -0.000236698 0)
(0.00194896 -0.000218732 0)
(0.00220734 -0.000194715 0)
(0.00243013 -0.000166578 0)
(0.00261249 -0.000135905 0)
(0.00275137 -0.000103957 0)
(0.00284517 -7.16975e-05 0)
(0.00289336 -3.98233e-05 0)
(0.00289622 -8.78618e-06 0)
(0.00285451 2.11788e-05 0)
(0.00276921 5.00244e-05 0)
(0.00264132 7.78575e-05 0)
(0.00247164 0.000104906 0)
(0.00226068 0.000131484 0)
(0.00200856 0.000157964 0)
(0.0017149 0.000184739 0)
(0.00137889 0.000212199 0)
(0.000999242 0.00024071 0)
(0.000574255 0.000270592 0)
(0.000101895 0.000302107 0)
(-0.000420133 0.000335453 0)
(-0.000994295 0.000370759 0)
(-0.00162313 0.000408084 0)
(-0.00230914 0.000447422 0)
(-0.00305475 0.000488703 0)
(-0.00386216 0.0005318 0)
(-0.00473328 0.000576529 0)
(-0.00566969 0.000622659 0)
(-0.00667254 0.000669911 0)
(-0.00774246 0.000717957 0)
(-0.00887955 0.000766429 0)
(-0.0100833 0.000814912 0)
(-0.0113525 0.00086295 0)
(-0.0126852 0.000910046 0)
(-0.0140788 0.000955667 0)
(-0.0155298 0.000999241 0)
(-0.0170339 0.00104017 0)
(-0.0185858 0.00107782 0)
(-0.0201795 0.00111155 0)
(-0.021808 0.00114069 0)
(-0.0234636 0.00116459 0)
(-0.0251377 0.00118259 0)
(-0.0268206 0.00119404 0)
(-0.0285024 0.00119831 0)
(-0.0301719 0.00119483 0)
(-0.0318177 0.00118304 0)
(-0.0334277 0.00116246 0)
(-0.0349893 0.00113266 0)
(-0.0364899 0.00109329 0)
(-0.0379161 0.00104409 0)
(-0.039255 0.000984876 0)
(-0.0404935 0.000915583 0)
(-0.0416186 0.000836245 0)
(-0.0426177 0.000747017 0)
(-0.0434788 0.000648173 0)
(-0.0441905 0.000540116 0)
(-0.044742 0.000423391 0)
(-0.0451238 0.000298732 0)
(-0.0453274 0.00016692 0)
(-0.0453453 2.84401e-05 0)
(-0.0451715 -0.000114846 0)
(-0.0448014 -0.000262148 0)
(-0.0442324 -0.000412151 0)
(-0.0434634 -0.000563396 0)
(-0.0424953 -0.000714354 0)
(-0.0413308 -0.000863418 0)
(-0.0399747 -0.00100891 0)
(-0.0384338 -0.00114914 0)
(-0.0367169 -0.00128236 0)
(-0.0348349 -0.00140686 0)
(-0.0328004 -0.00152099 0)
(-0.0306283 -0.00162316 0)
(-0.028335 -0.00171189 0)
(-0.0259385 -0.00178585 0)
(-0.0234584 -0.00184389 0)
(-0.0209152 -0.00188509 0)
(-0.0183307 -0.00190875 0)
(-0.015727 -0.00191444 0)
(-0.0131267 -0.00190204 0)
(-0.0105524 -0.00187171 0)
(-0.00802636 -0.00182393 0)
(-0.00557011 -0.00175948 0)
(-0.00320415 -0.00167943 0)
(-0.000947618 -0.00158522 0)
(0.00118195 -0.0014783 0)
(0.00316908 -0.00136053 0)
(0.0050005 -0.0012339 0)
(0.00666526 -0.00110051 0)
(0.00815497 -0.000962504 0)
(0.00946385 -0.00082205 0)
(0.0105888 -0.000681276 0)
(0.0115291 -0.000542214 0)
(0.0122869 -0.00040676 0)
(0.0128665 -0.000276623 0)
(0.0132741 -0.000153301 0)
(0.0135183 -3.80498e-05 0)
(0.013609 6.81296e-05 0)
(0.0135573 0.000164504 0)
(0.0133757 0.000250605 0)
(0.013077 0.000326216 0)
(0.0126747 0.000391361 0)
(0.012182 0.000446278 0)
(0.0116122 0.000491397 0)
(0.010978 0.0005273 0)
(0.0102917 0.000554685 0)
(0.00956441 0.000574328 0)
(0.00880676 0.00058703 0)
(0.00802831 0.000593563 0)
(0.00723781 0.000594614 0)
(0.00644331 0.000590713 0)
(0.00565238 0.000582159 0)
(0.00487242 0.00056893 0)
(0.00411108 0.000550604 0)
(0.00337674 0.000526263 0)
(0.0026791 0.000494424 0)
(0.00202967 0.000453014 0)
(0.00144227 0.000399452 0)
(0.000933067 0.000331041 0)
(0.000519731 0.000246043 0)
(0.000218727 0.000146043 0)
(4.2327e-05 4.13689e-05 0)
(-6.76191e-06 -3.15448e-05 0)
(2.23006e-05 -5.94535e-05 0)
(0.000143892 -0.000234146 0)
(0.000393998 -0.000393578 0)
(0.000730421 -0.000513329 0)
(0.0011239 -0.000589783 0)
(0.00154941 -0.000626088 0)
(0.00198305 -0.000627903 0)
(0.00240388 -0.000601568 0)
(0.00279456 -0.00055318 0)
(0.00314134 -0.000488226 0)
(0.00343371 -0.000411472 0)
(0.00366405 -0.000326927 0)
(0.00382724 -0.000237859 0)
(0.00392013 -0.000146818 0)
(0.00394116 -5.56851e-05 0)
(0.00388991 3.42793e-05 0)
(0.00376669 0.000122369 0)
(0.00357219 0.000208362 0)
(0.00330715 0.000292442 0)
(0.00297217 0.000375114 0)
(0.00256743 0.000457112 0)
(0.0020926 0.000539324 0)
(0.00154678 0.000622702 0)
(0.00092844 0.000708194 0)
(0.000235472 0.000796685 0)
(-0.000534751 0.00088894 0)
(-0.00138527 0.000985576 0)
(-0.00231942 0.00108703 0)
(-0.00334067 0.00119356 0)
(-0.00445253 0.00130522 0)
(-0.00565834 0.0014219 0)
(-0.00696118 0.00154327 0)
(-0.0083637 0.00166888 0)
(-0.00986799 0.00179809 0)
(-0.0114755 0.00193014 0)
(-0.0131869 0.0020641 0)
(-0.015002 0.00219895 0)
(-0.0169196 0.0023335 0)
(-0.0189375 0.0024665 0)
(-0.0210522 0.00259654 0)
(-0.0232593 0.00272214 0)
(-0.0255529 0.00284173 0)
(-0.027926 0.00295367 0)
(-0.0303701 0.00305624 0)
(-0.0328755 0.00314771 0)
(-0.0354313 0.0032263 0)
(-0.0380252 0.00329026 0)
(-0.0406438 0.00333787 0)
(-0.0432724 0.00336744 0)
(-0.0458954 0.00337738 0)
(-0.0484962 0.00336621 0)
(-0.0510574 0.00333257 0)
(-0.0535611 0.00327527 0)
(-0.0559887 0.00319329 0)
(-0.0583212 0.00308584 0)
(-0.0605397 0.00295233 0)
(-0.0626252 0.00279242 0)
(-0.0645588 0.00260605 0)
(-0.0663223 0.00239342 0)
(-0.0678979 0.00215502 0)
(-0.0692686 0.00189166 0)
(-0.0704186 0.00160442 0)
(-0.0713331 0.00129472 0)
(-0.0719986 0.000964321 0)
(-0.0724036 0.000615347 0)
(-0.0725386 0.000250175 0)
(-0.0723947 -0.000129626 0)
(-0.0719652 -0.000519681 0)
(-0.0712471 -0.000917201 0)
(-0.0702385 -0.00131891 0)
(-0.0689402 -0.00172117 0)
(-0.0673555 -0.00212012 0)
(-0.06549 -0.00251178 0)
(-0.0633523 -0.00289206 0)
(-0.0609532 -0.00325681 0)
(-0.0583064 -0.00360189 0)
(-0.0554279 -0.00392325 0)
(-0.0523363 -0.00421693 0)
(-0.0490526 -0.00447922 0)
(-0.0455997 -0.00470665 0)
(-0.0420028 -0.00489613 0)
(-0.0382888 -0.00504498 0)
(-0.0344858 -0.00515102 0)
(-0.0306234 -0.00521262 0)
(-0.026732 -0.00522879 0)
(-0.0228422 -0.00519917 0)
(-0.0189851 -0.00512411 0)
(-0.0151911 -0.00500467 0)
(-0.01149 -0.00484261 0)
(-0.0079102 -0.00464041 0)
(-0.00447879 -0.0044012 0)
(-0.00122065 -0.00412869 0)
(0.0018417 -0.00382709 0)
(0.00468843 -0.00350106 0)
(0.00730277 -0.00315572 0)
(0.00967117 -0.00279625 0)
(0.0117835 -0.002428 0)
(0.013633 -0.00205628 0)
(0.0152166 -0.00168625 0)
(0.0165345 -0.00132281 0)
(0.0175904 -0.000970498 0)
(0.0183911 -0.000633375 0)
(0.018946 -0.000314974 0)
(0.0192674 -1.82265e-05 0)
(0.0193694 0.000254564 0)
(0.0192682 0.000501742 0)
(0.0189811 0.000722295 0)
(0.0185264 0.000915823 0)
(0.017923 0.0010825 0)
(0.0171897 0.00122302 0)
(0.0163452 0.0013385 0)
(0.0154076 0.0014304 0)
(0.0143942 0.00150042 0)
(0.0133215 0.00155037 0)
(0.0122047 0.00158202 0)
(0.0110581 0.00159697 0)
(0.00989525 0.00159644 0)
(0.00872896 0.00158111 0)
(0.00757188 0.00155093 0)
(0.00643689 0.0015049 0)
(0.00533773 0.00144095 0)
(0.00428956 0.00135587 0)
(0.00330949 0.00124538 0)
(0.00241694 0.00110456 0)
(0.00163352 0.00092894 0)
(0.000981601 0.000716832 0)
(0.00048115 0.000473503 0)
(0.000151009 0.000219084 0)
(1.5502e-05 1.13965e-05 0)
(3.36572e-05 -0.000150598 0)
(0.000197265 -0.000464165 0)
(0.000516178 -0.000730461 0)
(0.000930932 -0.000927014 0)
(0.00140467 -0.00105075 0)
(0.00190835 -0.00110662 0)
(0.00241446 -0.00110323 0)
(0.0028986 -0.00105048 0)
(0.00334029 -0.000958217 0)
(0.0037229 -0.000835594 0)
(0.00403341 -0.000690723 0)
(0.00426204 -0.000530559 0)
(0.00440186 -0.000360847 0)
(0.00444824 -0.000186141 0)
(0.00439842 -9.83955e-06 0)
(0.00425099 0.000165731 0)
(0.00400546 0.00033922 0)
(0.0036618 0.000510133 0)
(0.00322013 0.000678694 0)
(0.00268039 0.000845699 0)
(0.00204213 0.00101236 0)
(0.00130434 0.00118017 0)
(0.000465374 0.00135071 0)
(-0.000477058 0.00152559 0)
(-0.00152587 0.00170627 0)
(-0.0026845 0.001894 0)
(-0.00395676 0.00208977 0)
(-0.00534668 0.0022942 0)
(-0.00685835 0.0025076 0)
(-0.0084957 0.00272988 0)
(-0.0102623 0.00296063 0)
(-0.0121613 0.00319906 0)
(-0.0141949 0.0034441 0)
(-0.0163646 0.00369434 0)
(-0.018671 0.00394812 0)
(-0.0211132 0.00420348 0)
(-0.0236893 0.00445826 0)
(-0.0263958 0.00471006 0)
(-0.0292278 0.00495627 0)
(-0.0321788 0.00519411 0)
(-0.0352406 0.00542064 0)
(-0.0384035 0.00563278 0)
(-0.041656 0.00582738 0)
(-0.0449849 0.00600121 0)
(-0.0483755 0.00615104 0)
(-0.0518116 0.00627366 0)
(-0.0552752 0.00636593 0)
(-0.0587474 0.00642483 0)
(-0.0622079 0.00644753 0)
(-0.0656353 0.0064314 0)
(-0.0690075 0.00637407 0)
(-0.0723016 0.00627348 0)
(-0.0754945 0.00612793 0)
(-0.0785627 0.00593608 0)
(-0.0814826 0.00569702 0)
(-0.0842312 0.00541027 0)
(-0.0867858 0.00507583 0)
(-0.0891242 0.00469415 0)
(-0.0912254 0.0042662 0)
(-0.0930694 0.00379346 0)
(-0.0946376 0.00327788 0)
(-0.0959129 0.00272194 0)
(-0.0968798 0.00212864 0)
(-0.0975247 0.00150139 0)
(-0.0978361 0.000843959 0)
(-0.097806 0.000160769 0)
(-0.0974262 -0.000541415 0)
(-0.0966907 -0.00125938 0)
(-0.0955993 -0.00198717 0)
(-0.0941522 -0.00271861 0)
(-0.0923525 -0.00344733 0)
(-0.0902062 -0.00416677 0)
(-0.0877219 -0.00487014 0)
(-0.0849112 -0.00555058 0)
(-0.0817882 -0.00620117 0)
(-0.0783701 -0.00681505 0)
(-0.0746765 -0.0073855 0)
(-0.0707296 -0.00790605 0)
(-0.0665541 -0.00837056 0)
(-0.0621772 -0.00877337 0)
(-0.0576278 -0.0091094 0)
(-0.0529371 -0.00937424 0)
(-0.0481377 -0.00956428 0)
(-0.0432635 -0.00967681 0)
(-0.0383495 -0.00971009 0)
(-0.0334311 -0.00966346 0)
(-0.0285443 -0.00953735 0)
(-0.0237243 -0.00933337 0)
(-0.0190062 -0.00905427 0)
(-0.0144237 -0.00870394 0)
(-0.010009 -0.0082874 0)
(-0.00579235 -0.00781065 0)
(-0.00180138 -0.00728063 0)
(0.0019388 -0.00670504 0)
(0.00540642 -0.00609226 0)
(0.00858327 -0.00545111 0)
(0.0114547 -0.00479066 0)
(0.01401 -0.00412005 0)
(0.0162425 -0.00344831 0)
(0.0181495 -0.00278411 0)
(0.0197322 -0.00213561 0)
(0.0209956 -0.0015103 0)
(0.0219483 -0.000914825 0)
(0.0226022 -0.000354878 0)
(0.0229721 0.000164871 0)
(0.0230753 0.000640839 0)
(0.0229311 0.00107055 0)
(0.0225604 0.00145261 0)
(0.0219853 0.00178664 0)
(0.0212284 0.00207322 0)
(0.0203124 0.00231372 0)
(0.01926 0.00251021 0)
(0.0180933 0.0026652 0)
(0.0168335 0.00278151 0)
(0.0155009 0.00286194 0)
(0.014115 0.00290906 0)
(0.0126943 0.00292487 0)
(0.0112566 0.00291051 0)
(0.00981964 0.00286592 0)
(0.00840108 0.00278958 0)
(0.00701949 0.00267832 0)
(0.00569467 0.00252725 0)
(0.00444817 0.00233003 0)
(0.00330357 0.00207967 0)
(0.00228641 0.00177021 0)
(0.00142284 0.00139999 0)
(0.000736802 0.000976831 0)
(0.000257373 0.000526687 0)
(3.69068e-05 0.000115563 0)
(4.06966e-05 -0.000265645 0)
(0.00023227 -0.00074301 0)
(0.000597359 -0.00112657 0)
(0.00106206 -0.00140193 0)
(0.00158252 -0.00156989 0)
(0.00212613 -0.00163884 0)
(0.00266264 -0.00162098 0)
(0.00316534 -0.00153008 0)
(0.00361173 -0.00137993 0)
(0.00398329 -0.00118349 0)
(0.00426527 -0.000952421 0)
(0.00444629 -0.000696829 0)
(0.00451794 -0.000425149 0)
(0.00447428 -0.000144126 0)
(0.00431133 0.000141149 0)
(0.00402659 0.000427148 0)
(0.00361854 0.000711775 0)
(0.00308621 0.000994193 0)
(0.0024288 0.00127463 0)
(0.00164537 0.00155416 0)
(0.000734578 0.00183447 0)
(-0.000305434 0.00211765 0)
(-0.00147715 0.00240595 0)
(-0.00278367 0.00270158 0)
(-0.00422864 0.00300657 0)
(-0.00581615 0.0033226 0)
(-0.00755052 0.00365088 0)
(-0.00943615 0.00399213 0)
(-0.0114773 0.00434648 0)
(-0.0136777 0.00471352 0)
(-0.0160406 0.00509223 0)
(-0.0185684 0.00548109 0)
(-0.0212623 0.00587803 0)
(-0.0241223 0.00628052 0)
(-0.0271471 0.00668558 0)
(-0.0303335 0.00708982 0)
(-0.0336768 0.00748951 0)
(-0.0371705 0.00788056 0)
(-0.0408059 0.00825861 0)
(-0.0445727 0.00861906 0)
(-0.0484583 0.00895714 0)
(-0.0524483 0.00926791 0)
(-0.0565263 0.00954639 0)
(-0.0606739 0.00978758 0)
(-0.0648713 0.00998658 0)
(-0.0690968 0.0101386 0)
(-0.0733273 0.0102391 0)
(-0.0775387 0.0102838 0)
(-0.0817055 0.0102687 0)
(-0.0858018 0.0101905 0)
(-0.089801 0.0100461 0)
(-0.0936762 0.00983317 0)
(-0.0974008 0.00954975 0)
(-0.100948 0.00919468 0)
(-0.104292 0.00876741 0)
(-0.107407 0.00826807 0)
(-0.11027 0.0076975 0)
(-0.112857 0.00705725 0)
(-0.115146 0.00634956 0)
(-0.117118 0.0055774 0)
(-0.118755 0.00474442 0)
(-0.12004 0.00385493 0)
(-0.120958 0.00291394 0)
(-0.121499 0.00192704 0)
(-0.121652 0.000900245 0)
(-0.121409 -0.000159598 0)
(-0.120766 -0.00124328 0)
(-0.119721 -0.00234505 0)
(-0.118274 -0.00345625 0)
(-0.116427 -0.00456798 0)
(-0.114186 -0.00567115 0)
(-0.111559 -0.00675638 0)
(-0.108557 -0.00781412 0)
(-0.105193 -0.00883471 0)
(-0.101485 -0.00980848 0)
(-0.09745 -0.0107259 0)
(-0.0931106 -0.0115775 0)
(-0.0884906 -0.0123544 0)
(-0.0836165 -0.013048 0)
(-0.0785172 -0.0136505 0)
(-0.0732236 -0.0141547 0)
(-0.0677687 -0.0145544 0)
(-0.0621869 -0.0148445 0)
(-0.0565144 -0.0150211 0)
(-0.0507883 -0.0150816 0)
(-0.0450466 -0.0150248 0)
(-0.0393277 -0.014851 0)
(-0.03367 -0.0145623 0)
(-0.0281114 -0.0141622 0)
(-0.0226891 -0.0136557 0)
(-0.0174389 -0.0130496 0)
(-0.0123949 -0.0123522 0)
(-0.00758869 -0.0115728 0)
(-0.00304956 -0.0107222 0)
(0.00119643 -0.00981206 0)
(0.00512669 -0.00885487 0)
(0.00872229 -0.0078636 0)
(0.0119683 -0.00685145 0)
(0.014854 -0.00583162 0)
(0.0173728 -0.00481696 0)
(0.0195225 -0.00381975 0)
(0.0213053 -0.00285144 0)
(0.0227271 -0.00192242 0)
(0.0237979 -0.00104181 0)
(0.0245312 -0.000217342 0)
(0.0249436 0.000544783 0)
(0.0250545 0.00123992 0)
(0.0248855 0.00186502 0)
(0.02446 0.00241852 0)
(0.0238025 0.00290032 0)
(0.0229386 0.00331158 0)
(0.0218939 0.00365452 0)
(0.0206939 0.00393217 0)
(0.0193639 0.00414806 0)
(0.0179283 0.00430588 0)
(0.0164109 0.00440905 0)
(0.0148349 0.0044603 0)
(0.0132225 0.00446122 0)
(0.0115961 0.00441187 0)
(0.0099777 0.00431033 0)
(0.00839026 0.0041525 0)
(0.00685757 0.00393211 0)
(0.00540493 0.0036411 0)
(0.00405943 0.00327065 0)
(0.00285019 0.00281325 0)
(0.00180727 0.00226633 0)
(0.000959756 0.00163752 0)
(0.000348609 0.000952655 0)
(5.44247e-05 0.000273876 0)
(4.43939e-05 -0.000394991 0)
(0.000251067 -0.00105191 0)
(0.00064015 -0.00155783 0)
(0.00112741 -0.00190972 0)
(0.00166328 -0.00211498 0)
(0.00221199 -0.00218702 0)
(0.00274108 -0.00214257 0)
(0.00322227 -0.00199967 0)
(0.00363172 -0.00177625 0)
(0.00394976 -0.00148919 0)
(0.00416046 -0.00115374 0)
(0.00425131 -0.00078321 0)
(0.00421276 -0.000388792 0)
(0.00403773 2.05238e-05 0)
(0.00372112 0.000437903 0)
(0.00325932 0.000858569 0)
(0.00264969 0.00127964 0)
(0.00189017 0.0016999 0)
(0.000978882 0.00211956 0)
(-8.61586e-05 0.00253994 0)
(-0.00130729 0.00296318 0)
(-0.00268734 0.0033919 0)
(-0.00422964 0.00382896 0)
(-0.00593807 0.0042771 0)
(-0.00781687 0.00473878 0)
(-0.00987055 0.00521594 0)
(-0.0121037 0.00570985 0)
(-0.0145205 0.00622106 0)
(-0.017125 0.00674928 0)
(-0.0199203 0.00729343 0)
(-0.0229085 0.00785157 0)
(-0.0260904 0.00842103 0)
(-0.0294655 0.00899837 0)
(-0.0330315 0.00957949 0)
(-0.0367842 0.0101597 0)
(-0.0407174 0.0107337 0)
(-0.0448228 0.0112958 0)
(-0.0490897 0.0118397 0)
(-0.0535054 0.0123591 0)
(-0.0580547 0.0128471 0)
(-0.0627202 0.0132968 0)
(-0.0674825 0.0137013 0)
(-0.0723199 0.0140536 0)
(-0.0772093 0.0143468 0)
(-0.0821254 0.0145745 0)
(-0.0870418 0.0147302 0)
(-0.0919309 0.0148083 0)
(-0.0967642 0.0148034 0)
(-0.101512 0.014711 0)
(-0.106146 0.0145272 0)
(-0.110636 0.0142488 0)
(-0.114953 0.0138736 0)
(-0.119069 0.0134 0)
(-0.122956 0.0128276 0)
(-0.126586 0.0121567 0)
(-0.129936 0.0113887 0)
(-0.132981 0.0105258 0)
(-0.135699 0.00957098 0)
(-0.138069 0.00852838 0)
(-0.140074 0.00740281 0)
(-0.141697 0.00619995 0)
(-0.142924 0.00492627 0)
(-0.143743 0.003589 0)
(-0.144144 0.00219614 0)
(-0.144121 0.000756417 0)
(-0.143666 -0.00072093 0)
(-0.142778 -0.00222705 0)
(-0.141457 -0.00375037 0)
(-0.139705 -0.00528019 0)
(-0.137526 -0.00680532 0)
(-0.134927 -0.00831408 0)
(-0.131918 -0.00979452 0)
(-0.12851 -0.0112345 0)
(-0.124719 -0.0126216 0)
(-0.12056 -0.0139437 0)
(-0.116053 -0.0151886 0)
(-0.111221 -0.0163445 0)
(-0.106088 -0.0173999 0)
(-0.100679 -0.0183439 0)
(-0.0950254 -0.0191664 0)
(-0.089157 -0.0198583 0)
(-0.0831072 -0.0204115 0)
(-0.0769112 -0.0208192 0)
(-0.0706055 -0.0210762 0)
(-0.0642281 -0.0211787 0)
(-0.057818 -0.021125 0)
(-0.0514149 -0.0209149 0)
(-0.0450589 -0.0205506 0)
(-0.0387898 -0.020036 0)
(-0.0326472 -0.0193773 0)
(-0.0266693 -0.0185824 0)
(-0.0208932 -0.0176616 0)
(-0.015354 -0.0166265 0)
(-0.0100843 -0.0154907 0)
(-0.00511395 -0.014269 0)
(-0.000469669 -0.0129774 0)
(0.00382552 -0.0116326 0)
(0.00775247 -0.0102521 0)
(0.0112962 -0.00885311 0)
(0.014446 -0.00745304 0)
(0.0171958 -0.00606851 0)
(0.0195438 -0.0047153 0)
(0.0214926 -0.00340797 0)
(0.0230492 -0.00215958 0)
(0.0242246 -0.000981516 0)
(0.0250333 0.000116776 0)
(0.0254934 0.00112782 0)
(0.0256258 0.00204623 0)
(0.0254538 0.00286862 0)
(0.0250024 0.00359355 0)
(0.0242985 0.00422135 0)
(0.0233695 0.00475387 0)
(0.0222432 0.00519415 0)
(0.020948 0.00554607 0)
(0.0195114 0.00581382 0)
(0.0179609 0.00600148 0)
(0.0163235 0.00611234 0)
(0.0146256 0.00614844 0)
(0.0128934 0.00610994 0)
(0.0111532 0.00599467 0)
(0.00943149 0.00579785 0)
(0.00775586 0.00551207 0)
(0.00615499 0.00512775 0)
(0.00465934 0.00463428 0)
(0.00330164 0.00402216 0)
(0.00211632 0.00328645 0)
(0.00113832 0.00243162 0)
(0.000420309 0.00147814 0)
(6.75506e-05 0.000476105 0)
(4.56013e-05 -0.000530527 0)
(0.000256255 -0.00137307 0)
(0.000648828 -0.00200041 0)
(0.00113291 -0.00242231 0)
(0.00165484 -0.0026545 0)
(0.00217628 -0.00271678 0)
(0.00266315 -0.00263126 0)
(0.00308607 -0.00242071 0)
(0.00342045 -0.00210741 0)
(0.0036459 -0.0017122 0)
(0.00374579 -0.00125392 0)
(0.00370686 -0.000749063 0)
(0.0035187 -0.000211494 0)
(0.00317327 0.000347586 0)
(0.00266446 0.000919636 0)
(0.00198757 0.00149866 0)
(0.00113884 0.00208099 0)
(0.000115059 0.00266505 0)
(-0.00108679 0.003251 0)
(-0.00246983 0.00384037 0)
(-0.00403743 0.00443569 0)
(-0.00579337 0.00504004 0)
(-0.0077418 0.00565671 0)
(-0.00988722 0.00628885 0)
(-0.0122343 0.00693912 0)
(-0.0147876 0.00760948 0)
(-0.0175516 0.00830097 0)
(-0.0205301 0.00901364 0)
(-0.0237259 0.00974642 0)
(-0.0271409 0.0104972 0)
(-0.0307755 0.0112626 0)
(-0.0346283 0.0120384 0)
(-0.038696 0.0128195 0)
(-0.0429732 0.0135996 0)
(-0.0474521 0.0143719 0)
(-0.0521227 0.0151288 0)
(-0.0569723 0.0158622 0)
(-0.0619855 0.0165635 0)
(-0.0671449 0.0172239 0)
(-0.0724302 0.0178342 0)
(-0.077819 0.0183852 0)
(-0.0832868 0.0188679 0)
(-0.0888071 0.0192734 0)
(-0.0943519 0.0195931 0)
(-0.0998918 0.0198192 0)
(-0.105396 0.0199441 0)
(-0.110834 0.0199613 0)
(-0.116174 0.0198651 0)
(-0.121385 0.0196506 0)
(-0.126435 0.0193141 0)
(-0.131294 0.018853 0)
(-0.135932 0.0182656 0)
(-0.140321 0.0175516 0)
(-0.144434 0.0167116 0)
(-0.148245 0.0157475 0)
(-0.151731 0.0146624 0)
(-0.15487 0.0134601 0)
(-0.157642 0.0121457 0)
(-0.160029 0.0107253 0)
(-0.162015 0.00920572 0)
(-0.163587 0.00759488 0)
(-0.164734 0.00590142 0)
(-0.165444 0.00413477 0)
(-0.165713 0.00230511 0)
(-0.165533 0.000423386 0)
(-0.164902 -0.00149874 0)
(-0.163819 -0.00344985 0)
(-0.162285 -0.0054167 0)
(-0.160303 -0.00738615 0)
(-0.157878 -0.00934462 0)
(-0.155017 -0.0112781 0)
(-0.151731 -0.0131723 0)
(-0.148031 -0.0150126 0)
(-0.143932 -0.0167844 0)
(-0.139448 -0.018473 0)
(-0.1346 -0.0200639 0)
(-0.129408 -0.0215428 0)
(-0.123896 -0.0228959 0)
(-0.11809 -0.02411 0)
(-0.112016 -0.0251728 0)
(-0.105707 -0.0260729 0)
(-0.099194 -0.0268004 0)
(-0.0925118 -0.0273465 0)
(-0.0856968 -0.0277046 0)
(-0.0787868 -0.0278695 0)
(-0.0718212 -0.0278384 0)
(-0.0648404 -0.0276106 0)
(-0.0578852 -0.0271879 0)
(-0.0509971 -0.0265743 0)
(-0.0442172 -0.0257766 0)
(-0.0375861 -0.0248039 0)
(-0.0311432 -0.0236677 0)
(-0.0249265 -0.0223819 0)
(-0.018972 -0.0209623 0)
(-0.0133129 -0.0194267 0)
(-0.00797973 -0.0177944 0)
(-0.00299952 -0.0160857 0)
(0.00160443 -0.0143221 0)
(0.0058129 -0.0125252 0)
(0.00961098 -0.0107166 0)
(0.0129882 -0.00891762 0)
(0.0159388 -0.00714845 0)
(0.0184616 -0.00542819 0)
(0.0205597 -0.00377421 0)
(0.022241 -0.00220198 0)
(0.0235173 -0.000724738 0)
(0.0244042 0.000646655 0)
(0.0249208 0.00190382 0)
(0.0250894 0.00304092 0)
(0.0249346 0.00405452 0)
(0.0244831 0.00494347 0)
(0.0237633 0.00570863 0)
(0.0228044 0.0063525 0)
(0.0216364 0.00687876 0)
(0.0202896 0.00729173 0)
(0.0187943 0.00759576 0)
(0.0171806 0.00779451 0)
(0.0154782 0.00789029 0)
(0.0137171 0.00788336 0)
(0.0119268 0.00777137 0)
(0.0101377 0.00754899 0)
(0.00838052 0.00720783 0)
(0.00668725 0.00673689 0)
(0.00509171 0.0061236 0)
(0.00363041 0.00535577 0)
(0.00234236 0.00442468 0)
(0.00126845 0.00332905 0)
(0.000471677 0.00208009 0)
(7.65507e-05 0.000710995 0)
(4.49389e-05 -0.00066569 0)
(0.000250088 -0.00169066 0)
(0.000627639 -0.00243213 0)
(0.00108469 -0.00291306 0)
(0.00156518 -0.00315849 0)
(0.00202902 -0.00319558 0)
(0.00244115 -0.00305247 0)
(0.00277161 -0.00275707 0)
(0.00299547 -0.00233617 0)
(0.00309205 -0.0018146 0)
(0.00304438 -0.00121473 0)
(0.00283871 -0.000556105 0)
(0.002464 0.000144839 0)
(0.00191146 0.000874817 0)
(0.00117405 0.00162368 0)
(0.00024606 0.00238429 0)
(-0.000877378 0.00315226 0)
(-0.00220062 0.00392566 0)
(-0.00372782 0.00470458 0)
(-0.00546321 0.00549072 0)
(-0.00741117 0.00628688 0)
(-0.00957634 0.00709646 0)
(-0.0119636 0.00792302 0)
(-0.0145777 0.00876983 0)
(-0.0174235 0.00963948 0)
(-0.0205055 0.0105336 0)
(-0.0238272 0.0114527 0)
(-0.0273914 0.0123958 0)
(-0.0311996 0.0133606 0)
(-0.0352514 0.0143436 0)
(-0.0395448 0.0153395 0)
(-0.0440753 0.0163422 0)
(-0.0488364 0.017344 0)
(-0.0538186 0.0183364 0)
(-0.0590101 0.01931 0)
(-0.064396 0.0202546 0)
(-0.0699589 0.0211594 0)
(-0.0756786 0.0220131 0)
(-0.0815324 0.0228045 0)
(-0.0874951 0.0235219 0)
(-0.0935395 0.0241541 0)
(-0.0996365 0.0246901 0)
(-0.105755 0.0251193 0)
(-0.111864 0.0254321 0)
(-0.11793 0.0256193 0)
(-0.12392 0.0256731 0)
(-0.129801 0.0255866 0)
(-0.13554 0.0253543 0)
(-0.141106 0.0249719 0)
(-0.146466 0.0244363 0)
(-0.151591 0.0237461 0)
(-0.156452 0.022901 0)
(-0.161024 0.0219021 0)
(-0.16528 0.020752 0)
(-0.169198 0.0194543 0)
(-0.172757 0.0180139 0)
(-0.175938 0.0164368 0)
(-0.178724 0.0147303 0)
(-0.1811 0.0129023 0)
(-0.183054 0.0109619 0)
(-0.184574 0.00891894 0)
(-0.185651 0.00678415 0)
(-0.186278 0.00456892 0)
(-0.186449 0.00228538 0)
(-0.186162 -5.36173e-05 0)
(-0.185413 -0.00243441 0)
(-0.184202 -0.00484339 0)
(-0.182532 -0.00726578 0)
(-0.180405 -0.00968645 0)
(-0.177827 -0.0120898 0)
(-0.174803 -0.0144598 0)
(-0.171343 -0.01678 0)
(-0.167458 -0.0190339 0)
(-0.163159 -0.0212046 0)
(-0.158463 -0.0232751 0)
(-0.153385 -0.0252287 0)
(-0.147946 -0.0270488 0)
(-0.142167 -0.0287192 0)
(-0.136072 -0.0302244 0)
(-0.129687 -0.0315497 0)
(-0.123041 -0.0326816 0)
(-0.116165 -0.0336077 0)
(-0.109093 -0.0343176 0)
(-0.10186 -0.0348024 0)
(-0.094504 -0.0350555 0)
(-0.0870638 -0.0350726 0)
(-0.0795801 -0.0348521 0)
(-0.0720947 -0.034395 0)
(-0.0646499 -0.0337051 0)
(-0.0572886 -0.0327893 0)
(-0.0500533 -0.0316573 0)
(-0.0429858 -0.0303219 0)
(-0.0361268 -0.0287984 0)
(-0.0295154 -0.0271048 0)
(-0.0231884 -0.0252616 0)
(-0.0171799 -0.0232909 0)
(-0.0115208 -0.0212169 0)
(-0.0062386 -0.0190645 0)
(-0.00135664 -0.0168596 0)
(0.00310585 -0.0146283 0)
(0.00713418 -0.0123963 0)
(0.0107183 -0.0101886 0)
(0.0138529 -0.00802882 0)
(0.0165374 -0.00593905 0)
(0.0187759 -0.00393915 0)
(0.020577 -0.00204655 0)
(0.0219534 -0.000275994 0)
(0.022922 0.00136064 0)
(0.0235029 0.00285442 0)
(0.0237196 0.00419934 0)
(0.0235982 0.00539213 0)
(0.0231667 0.00643202 0)
(0.0224551 0.00732037 0)
(0.0214945 0.00806013 0)
(0.0203167 0.00865522 0)
(0.0189542 0.00910987 0)
(0.0174396 0.00942778 0)
(0.0158055 0.00961131 0)
(0.0140848 0.00966071 0)
(0.0123104 0.00957344 0)
(0.0105156 0.00934364 0)
(0.00873432 0.00896199 0)
(0.00700188 0.008416 0)
(0.00535541 0.00769087 0)
(0.00383519 0.00677112 0)
(0.00248475 0.00564298 0)
(0.00135047 0.00429755 0)
(0.000503554 0.00273443 0)
(8.18783e-05 0.000967625 0)
(4.28031e-05 -0.00079509 0)
(0.000234242 -0.00199073 0)
(0.00058007 -0.0028328 0)
(0.000988046 -0.00335726 0)
(0.00140133 -0.00359895 0)
(0.00177906 -0.00359296 0)
(0.00208586 -0.00337389 0)
(0.00229177 -0.00297508 0)
(0.00237196 -0.00242788 0)
(0.00230579 -0.00176112 0)
(0.00207625 -0.00100056 0)
(0.00166934 -0.000168619 0)
(0.0010736 0.000715849 0)
(0.000279602 0.00163765 0)
(-0.000720486 0.00258517 0)
(-0.00193333 0.00355024 0)
(-0.00336484 0.00452783 0)
(-0.00502046 0.00551567 0)
(-0.00690544 0.00651378 0)
(-0.00902501 0.00752392 0)
(-0.0113845 0.00854904 0)
(-0.0139891 0.00959266 0)
(-0.0168442 0.0106583 0)
(-0.0199547 0.0117491 0)
(-0.0233252 0.0128672 0)
(-0.0269592 0.0140135 0)
(-0.0308594 0.0151874 0)
(-0.0350267 0.0163865 0)
(-0.0394602 0.0176069 0)
(-0.0441572 0.0188429 0)
(-0.0491121 0.0200871 0)
(-0.0543169 0.0213307 0)
(-0.0597608 0.0225634 0)
(-0.0654301 0.0237739 0)
(-0.071308 0.0249499 0)
(-0.0773748 0.0260782 0)
(-0.083608 0.0271454 0)
(-0.0899824 0.0281376 0)
(-0.0964704 0.029041 0)
(-0.103042 0.0298418 0)
(-0.109666 0.0305269 0)
(-0.11631 0.0310839 0)
(-0.122939 0.0315011 0)
(-0.129519 0.0317679 0)
(-0.136015 0.0318753 0)
(-0.142394 0.0318153 0)
(-0.148621 0.0315816 0)
(-0.154664 0.0311695 0)
(-0.160492 0.0305759 0)
(-0.166075 0.0297991 0)
(-0.171386 0.0288394 0)
(-0.176398 0.0276984 0)
(-0.181088 0.026379 0)
(-0.185433 0.0248859 0)
(-0.189414 0.0232248 0)
(-0.193014 0.0214026 0)
(-0.196216 0.0194275 0)
(-0.199007 0.0173084 0)
(-0.201375 0.0150556 0)
(-0.203309 0.0126797 0)
(-0.204801 0.0101924 0)
(-0.205843 0.00760621 0)
(-0.20643 0.00493408 0)
(-0.206558 0.00218977 0)
(-0.206223 -0.000612347 0)
(-0.205425 -0.00345735 0)
(-0.204162 -0.00632971 0)
(-0.202436 -0.00921323 0)
(-0.200248 -0.0120912 0)
(-0.197604 -0.0149465 0)
(-0.194509 -0.0177612 0)
(-0.190968 -0.0205173 0)
(-0.186992 -0.0231962 0)
(-0.18259 -0.025779 0)
(-0.177776 -0.0282468 0)
(-0.172564 -0.0305806 0)
(-0.16697 -0.0327615 0)
(-0.161015 -0.0347709 0)