/*--------------------------------*- C++ -*----------------------------------*\
| =========                 |                                                 |
| \\      /  F ield         | OpenFOAM: The Open Source CFD Toolbox           |
|  \\    /   O peration     | Version:  2112                                  |
|   \\  /    A nd           | Website:  www.openfoam.com                      |
|    \\/     M anipulation  |                                                 |
\*---------------------------------------------------------------------------*/
FoamFile
{
    version     2.0;
    format      ascii;
    arch        "LSB;label=32;scalar=64";
    class       volScalarField;
    location    "40";
    object      p;
}
// * * * * * * * * * * * * * * * * * * * * * * * * * * * * * * * * * * * * * //

dimensions      [0 2 -2 0 0 0 0];

internalField   nonuniform List<scalar> 
16641
(
5.63938e-07
1.53056e-05
2.97409e-05
3.88134e-05
3.88673e-05
2.80152e-05
5.6542e-06
-2.80809e-05
-7.26269e-05
-0.000127183
-0.000190844
-0.000262699
-0.000341893
-0.000427669
-0.000519389
-0.000616558
-0.000718827
-0.000825994
-0.000937987
-0.00105485
-0.00117672
-0.00130381
-0.00143637
-0.0015747
-0.00171907
-0.00186976
-0.00202697
-0.00219089
-0.00236161
-0.00253916
-0.00272346
-0.00291435
-0.00311154
-0.00331466
-0.0035232
-0.00373653
-0.00395388
-0.00417436
-0.00439694
-0.00462043
-0.00484353
-0.00506477
-0.00528255
-0.00549514
-0.0057007
-0.00589726
-0.00608277
-0.00625511
-0.0064121
-0.00655155
-0.00667127
-0.00676913
-0.00684304
-0.00689108
-0.00691146
-0.0069026
-0.00686315
-0.00679207
-0.00668863
-0.00655246
-0.00638362
-0.00618257
-0.00595023
-0.00568803
-0.00539786
-0.00508211
-0.00474365
-0.00438572
-0.00401232
-0.0036276
-0.00323611
-0.00284276
-0.00245268
-0.00207116
-0.00170359
-0.00135532
-0.00103158
-0.000737392
-0.000477463
-0.000256062
-7.69442e-05
5.67448e-05
0.000142544
0.000178738
0.000164409
9.94537e-05
-1.5398e-05
-0.000178606
-0.000387848
-0.00064008
-0.000931684
-0.00125832
-0.00161536
-0.00199778
-0.00240036
-0.00281779
-0.00324477
-0.00367618
-0.00410713
-0.00453307
-0.00494987
-0.00535387
-0.00574191
-0.00611136
-0.00646015
-0.00678671
-0.00708996
-0.00736932
-0.0076246
-0.00785598
-0.00806394
-0.00824924
-0.00841279
-0.00855564
-0.00867891
-0.00878371
-0.00887115
-0.00894222
-0.00899783
-0.00903875
-0.00906566
-0.00907917
-0.00907996
-0.00906892
-0.00904751
-0.00901819
-0.00898508
-0.00895438
-0.00893555
-1.36788e-05
8.84387e-07
1.10114e-05
1.51281e-05
1.14949e-05
-1.38973e-06
-2.41779e-05
-5.69232e-05
-9.93156e-05
-0.000150815
-0.000210753
-0.000278424
-0.000353138
-0.000434268
-0.000521278
-0.000613743
-0.000711358
-0.000813939
-0.000921412
-0.0010338
-0.00115121
-0.00127382
-0.00140183
-0.0015355
-0.00167507
-0.00182076
-0.00197277
-0.00213124
-0.00229628
-0.00246789
-0.00264602
-0.00283051
-0.00302112
-0.00321749
-0.00341916
-0.00362555
-0.00383596
-0.00404956
-0.00426536
-0.00448229
-0.00469909
-0.00491439
-0.00512668
-0.00533431
-0.00553553
-0.00572847
-0.00591116
-0.00608157
-0.0062376
-0.00637713
-0.00649806
-0.0065983
-0.00667584
-0.00672878
-0.00675538
-0.00675406
-0.00672349
-0.00666262
-0.00657069
-0.00644731
-0.00629247
-0.00610658
-0.00589047
-0.00564545
-0.00537332
-0.00507638
-0.00475736
-0.00441933
-0.00406602
-0.00370149
-0.00333013
-0.00295666
-0.002586
-0.00222327
-0.00187363
-0.00154226
-0.0012342
-0.000954291
-0.000707068
-0.00049665
-0.000326652
-0.000200102
-0.000119368
-8.60925e-05
-0.000101153
-0.000164637
-0.000275832
-0.000433246
-0.000634641
-0.000877085
-0.00115704
-0.00147046
-0.0018128
-0.00217929
-0.00256493
-0.00296466
-0.00337344
-0.00378639
-0.00419888
-0.00460658
-0.00500561
-0.00539249
-0.00576426
-0.00611845
-0.00645309
-0.00676673
-0.00705836
-0.00732741
-0.00757371
-0.00779742
-0.00799899
-0.00817909
-0.00833859
-0.00847844
-0.0085997
-0.00870341
-0.00879063
-0.00886232
-0.00891941
-0.00896272
-0.00899304
-0.00901111
-0.00901778
-0.00901407
-0.00900141
-0.00898192
-0.00895874
-0.00893567
-0.00891673
-2.80279e-05
-9.13314e-06
9.94507e-07
3.53619e-06
-1.56647e-06
-1.53619e-05
-3.83467e-05
-7.05359e-05
-0.000111666
-0.000161288
-0.000218844
-0.00028373
-0.000355347
-0.000433144
-0.000516649
-0.000605488
-0.000699394
-0.000798204
-0.000901854
-0.00101037
-0.00112386
-0.00124247
-0.00136642
-0.00149594
-0.00163124
-0.00177256
-0.00192007
-0.00207393
-0.00223424
-0.00240101
-0.00257422
-0.00275373
-0.00293933
-0.0031307
-0.00332743
-0.00352898
-0.0037347
-0.00394383
-0.00415545
-0.00436852
-0.00458188
-0.00479421
-0.00500406
-0.00520986
-0.0054099
-0.00560237
-0.00578535
-0.00595685
-0.00611482
-0.00625717
-0.00638179
-0.00648662
-0.00656965
-0.00662897
-0.0066628
-0.00666956
-0.00664786
-0.00659661
-0.006515
-0.00640256
-0.00625922
-0.00608529
-0.00588154
-0.00564917
-0.00538992
-0.00510602
-0.00479976
-0.0044747
-0.00413417
-0.00378212
-0.00342289
-0.00306107
-0.00270154
-0.0023493
-0.00200946
-0.00168712
-0.00138727
-0.00111468
-0.000873839
-0.000668823
-0.000503212
-0.000380007
-0.000301551
-0.000269473
-0.000284645
-0.000347152
-0.000456289
-0.00061058
-0.000807809
-0.00104508
-0.00131889
-0.00162522
-0.00195964
-0.00231742
-0.00269364
-0.00308333
-0.00348156
-0.00388356
-0.00428481
-0.00468112
-0.00506872
-0.00544426
-0.00580491
-0.00614832
-0.00647262
-0.00677645
-0.00705889
-0.00731945
-0.00755801
-0.00777476
-0.00797018
-0.00814495
-0.00829993
-0.00843608
-0.00855442
-0.008656
-0.00874186
-0.00881297
-0.00887026
-0.00891458
-0.00894673
-0.00896748
-0.00897764
-0.00897814
-0.00897014
-0.00895525
-0.0089357
-0.00891269
-0.00888585
-3.72417e-05
-1.32626e-05
-1.56951e-06
8.89231e-07
-4.67298e-06
-1.88798e-05
-4.19981e-05
-7.39079e-05
-0.000114294
-0.000162712
-0.000218631
-0.000281491
-0.000350738
-0.000425867
-0.00050645
-0.000592154
-0.000682741
-0.000778078
-0.000878123
-0.00098292
-0.00109258
-0.00120729
-0.00132725
-0.00145269
-0.00158386
-0.00172098
-0.00186425
-0.00201384
-0.00216986
-0.00233237
-0.00250134
-0.00267671
-0.00285828
-0.00304579
-0.00323888
-0.00343707
-0.00363976
-0.00384625
-0.00405568
-0.00426709
-0.00447934
-0.00469119
-0.00490124
-0.00510795
-0.00530966
-0.00550458
-0.00569081
-0.00586637
-0.0060292
-0.0061772
-0.00630824
-0.00642022
-0.00651108
-0.00657887
-0.00662174
-0.00663803
-0.00662629
-0.00658534
-0.00651429
-0.00641257
-0.00628003
-0.0061169
-0.00592385
-0.00570202
-0.00545312
-0.00517954
-0.00488245
-0.00456635
-0.00423435
-0.00389029
-0.00353843
-0.00318336
-0.00282992
-0.0024831
-0.00214801
-0.00182975
-0.00153331
-0.0012635
-0.00102482
-0.000821381
-0.000656784
-0.000534062
-0.000455589
-0.00042302
-0.000437248
-0.000498377
-0.000605714
-0.000757786
-0.000952375
-0.00118658
-0.00145688
-0.00175925
-0.00208923
-0.00244213
-0.00281294
-0.00319674
-0.0035886
-0.00398377
-0.00437776
-0.00476643
-0.00514605
-0.00551338
-0.00586562
-0.00620054
-0.00651636
-0.00681183
-0.0070861
-0.00733879
-0.00756986
-0.00777958
-0.00796849
-0.00813734
-0.00828703
-0.00841856
-0.00853299
-0.00863139
-0.0087148
-0.00878424
-0.00884063
-0.00888482
-0.0089176
-0.00893967
-0.00895173
-0.00895449
-0.00894871
-0.0089355
-0.00891627
-0.00888996
-0.00885297
-3.76449e-05
-9.7723e-06
3.33101e-06
5.91414e-06
5.34591e-08
-1.45389e-05
-3.79059e-05
-6.97774e-05
-0.000109759
-0.000157369
-0.000212072
-0.000273312
-0.000340562
-0.000413345
-0.000491268
-0.00057403
-0.000661428
-0.00075336
-0.000849816
-0.00095087
-0.00105667
-0.0011674
-0.00128332
-0.00140467
-0.00153171
-0.00166471
-0.00180389
-0.00194944
-0.00210151
-0.00226021
-0.00242555
-0.00259751
-0.00277596
-0.00296069
-0.00315139
-0.00334765
-0.00354895
-0.00375464
-0.00396392
-0.00417588
-0.00438945
-0.00460343
-0.00481643
-0.00502696
-0.00523336
-0.00543385
-0.0056265
-0.00580931
-0.00598019
-0.00613696
-0.00627746
-0.00639949
-0.00650093
-0.00657971
-0.00663391
-0.00666175
-0.00666168
-0.00663242
-0.00657296
-0.00648267
-0.00636126
-0.00620889
-0.00602614
-0.00581411
-0.00557422
-0.00530811
-0.00501976
-0.00471087
-0.00438513
-0.00404651
-0.00369928
-0.00334801
-0.00299756
-0.00265297
-0.00231935
-0.00200187
-0.00170556
-0.0014353
-0.00119564
-0.000990768
-0.00082436
-0.000699518
-0.000618682
-0.000583569
-0.000595125
-0.000653493
-0.000758012
-0.000907221
-0.00109891
-0.00133015
-0.00159741
-0.00189661
-0.00222326
-0.00257257
-0.00293956
-0.00331919
-0.00370651
-0.00409671
-0.00448528
-0.00486809
-0.0052414
-0.005602
-0.00594714
-0.00627465
-0.00658282
-0.00687047
-0.00713689
-0.00738177
-0.00760518
-0.00780748
-0.00798933
-0.00815154
-0.00829511
-0.00842111
-0.00853065
-0.00862485
-0.00870482
-0.00877157
-0.00882605
-0.00886912
-0.0089015
-0.00892383
-0.00893666
-0.00894045
-0.00893559
-0.00892268
-0.00890247
-0.00887205
-0.00882516
-2.71759e-05
2.94827e-06
1.6797e-05
1.92704e-05
1.29496e-05
-2.21108e-06
-2.60655e-05
-5.82016e-05
-9.81336e-05
-0.000145326
-0.00019921
-0.000259222
-0.000324839
-0.000395603
-0.000471147
-0.000551201
-0.000635598
-0.000724273
-0.000817257
-0.000914665
-0.00101668
-0.00112355
-0.00123555
-0.00135298
-0.00147614
-0.00160533
-0.00174083
-0.00188287
-0.00203167
-0.00218736
-0.00235006
-0.00251977
-0.00269645
-0.00287995
-0.00307004
-0.00326638
-0.00346851
-0.00367584
-0.00388764
-0.00410305
-0.00432102
-0.00454037
-0.00475975
-0.00497764
-0.00519237
-0.00540211
-0.0056049
-0.00579866
-0.00598121
-0.00615029
-0.00630362
-0.00643891
-0.00655389
-0.00664638
-0.00671434
-0.00675586
-0.00676928
-0.00675318
-0.00670645
-0.00662836
-0.00651852
-0.006377
-0.00620431
-0.00600148
-0.00576996
-0.00551153
-0.00522909
-0.00492538
-0.00460388
-0.00426845
-0.00392338
-0.00357327
-0.003223
-0.00287765
-0.00254243
-0.00222253
-0.00192309
-0.00164907
-0.00140513
-0.00119556
-0.00102414
-0.000894074
-0.000807917
-0.00076748
-0.000773798
-0.000827091
-0.000926752
-0.00107136
-0.00125873
-0.00148593
-0.0017494
-0.00204503
-0.00236826
-0.00271423
-0.00307786
-0.00345405
-0.00383773
-0.00422403
-0.00460836
-0.00498651
-0.00535474
-0.00570977
-0.00604889
-0.00636993
-0.00667124
-0.0069517
-0.00721068
-0.00744796
-0.00766371
-0.00785843
-0.00803286
-0.00818793
-0.00832474
-0.00844446
-0.00854828
-0.00863741
-0.00871299
-0.0087761
-0.0088277
-0.00886865
-0.00889963
-0.0089212
-0.00893377
-0.00893756
-0.00893262
-0.00891915
-0.00889737
-0.00886295
-0.0088076
-4.90512e-06
2.58118e-05
3.95364e-05
4.14151e-05
3.42664e-05
1.82093e-05
-6.46126e-06
-3.92102e-05
-7.94604e-05
-0.000126612
-0.000180057
-0.000239211
-0.000303547
-0.000372622
-0.000446087
-0.000523705
-0.000605348
-0.000690995
-0.000780729
-0.000874717
-0.000973201
-0.00107648
-0.00118489
-0.00129879
-0.00141855
-0.00154453
-0.00167706
-0.00181646
-0.00196301
-0.00211693
-0.00227839
-0.00244749
-0.00262427
-0.00280865
-0.00300049
-0.00319952
-0.00340534
-0.00361742
-0.00383509
-0.00405749
-0.00428361
-0.00451227
-0.00474207
-0.00497148
-0.00519874
-0.00542196
-0.00563908
-0.0058479
-0.00604612
-0.00623135
-0.00640116
-0.00655311
-0.0066848
-0.00679388
-0.00687817
-0.00693562
-0.00696445
-0.00696311
-0.00693039
-0.00686543
-0.00676778
-0.00663741
-0.00647477
-0.00628082
-0.00605703
-0.00580509
-0.00552774
-0.00522788
-0.00490895
-0.00457481
-0.00422976
-0.00387843
-0.00352576
-0.00317687
-0.00283704
-0.00251156
-0.00220566
-0.00192443
-0.00167264
-0.00145471
-0.00127458
-0.00113559
-0.00104044
-0.000991087
-0.000988689
-0.00103359
-0.00112527
-0.00126241
-0.00144285
-0.00166371
-0.00192141
-0.00221182
-0.00253033
-0.00287199
-0.00323164
-0.00360406
-0.00398407
-0.00436668
-0.00474719
-0.00512128
-0.0054851
-0.00583534
-0.00616923
-0.00648457
-0.00677972
-0.0070536
-0.00730562
-0.00753566
-0.00774396
-0.00793113
-0.00809802
-0.00824569
-0.00837535
-0.00848826
-0.00858575
-0.00866909
-0.00873952
-0.00879817
-0.00884604
-0.00888398
-0.00891266
-0.00893258
-0.00894401
-0.00894699
-0.00894129
-0.00892679
-0.00890331
-0.00886554
-0.00880373
2.94885e-05
5.92522e-05
7.19112e-05
7.25688e-05
6.40916e-05
4.67134e-05
2.08427e-05
-1.28865e-05
-5.38144e-05
-0.000101279
-0.000154633
-0.000213269
-0.000276658
-0.000344364
-0.000416063
-0.00049155
-0.000570743
-0.000653675
-0.000740488
-0.000831417
-0.000926774
-0.00102693
-0.0011323
-0.00124332
-0.00136045
-0.00148411
-0.00161474
-0.00175275
-0.00189849
-0.0020523
-0.00221442
-0.00238507
-0.00256436
-0.00275233
-0.00294889
-0.00315385
-0.00336688
-0.00358748
-0.00381501
-0.00404861
-0.00428727
-0.00452975
-0.0047746
-0.00502019
-0.00526468
-0.00550603
-0.00574204
-0.00597037
-0.00618854
-0.00639399
-0.00658413
-0.00675633
-0.00690802
-0.0070367
-0.00714003
-0.00721583
-0.00726217
-0.00727738
-0.00726015
-0.00720953
-0.00712497
-0.00700638
-0.00685414
-0.00666914
-0.00645268
-0.00620687
-0.00593401
-0.00563706
-0.00531946
-0.0049851
-0.00463828
-0.00428367
-0.00392623
-0.00357117
-0.00322383
-0.00288959
-0.00257382
-0.00228169
-0.00201816
-0.0017878
-0.00159472
-0.00144245
-0.00133388
-0.00127114
-0.00125558
-0.00128772
-0.00136718
-0.00149278
-0.00166245
-0.00187339
-0.00212206
-0.00240432
-0.00271554
-0.00305071
-0.00340458
-0.0037718
-0.00414707
-0.00452525
-0.0049015
-0.00527138
-0.00563089
-0.00597659
-0.00630564
-0.00661577
-0.0069053
-0.00717314
-0.00741871
-0.00764193
-0.00784313
-0.00802298
-0.00818245
-0.00832272
-0.00844509
-0.00855096
-0.00864175
-0.00871885
-0.00878359
-0.00883717
-0.00888064
-0.00891488
-0.00894057
-0.00895813
-0.00896777
-0.00896937
-0.00896252
-0.00894684
-0.00892188
-0.00888168
-0.00881562
7.6025e-05
0.00010343
0.000114095
0.000112855
0.000102492
8.33244e-05
5.58489e-05
2.07742e-05
-2.11737e-05
-6.92821e-05
-0.000122869
-0.000181312
-0.00024408
-0.000310749
-0.000381023
-0.000454739
-0.000531866
-0.000612503
-0.000696863
-0.000785261
-0.000878095
-0.000975827
-0.00107897
-0.00118805
-0.00130363
-0.00142625
-0.00155645
-0.00169474
-0.00184161
-0.00199748
-0.00216273
-0.00233767
-0.00252252
-0.0027174
-0.00292231
-0.00313712
-0.00336154
-0.00359509
-0.00383713
-0.00408677
-0.00434294
-0.0046043
-0.00486932
-0.00513622
-0.005403
-0.00566746
-0.00592722
-0.00617972
-0.00642231
-0.00665223
-0.00686667
-0.00706283
-0.00723796
-0.00738939
-0.00751463
-0.00761135
-0.00767749
-0.00771129
-0.00771132
-0.00767653
-0.00760632
-0.00750052
-0.00735944
-0.00718391
-0.00697521
-0.00673536
-0.00646666
-0.00617205
-0.00585492
-0.00551916
-0.00516908
-0.00480935
-0.00444498
-0.00408122
-0.00372347
-0.00337723
-0.00304797
-0.00274101
-0.00246148
-0.00221412
-0.00200326
-0.00183266
-0.00170543
-0.00162396
-0.00158982
-0.00160376
-0.00166563
-0.00177443
-0.00192826
-0.00212445
-0.00235954
-0.00262946
-0.00292957
-0.00325483
-0.00359993
-0.0039594
-0.00432783
-0.0046999
-0.00507063
-0.00543537
-0.00579
-0.0061309
-0.00645509
-0.00676018
-0.00704441
-0.00730663
-0.00754624
-0.00776314
-0.00795771
-0.00813068
-0.00828308
-0.00841619
-0.00853142
-0.00863029
-0.00871432
-0.00878502
-0.00884381
-0.00889198
-0.00893065
-0.00896074
-0.00898294
-0.00899768
-0.0090051
-0.009005
-0.00899684
-0.00898005
-0.00895403
-0.00891247
-0.00884432
0.000134559
0.000158324
0.000166108
0.000162302
0.00014949
0.000128064
9.85889e-05
6.18222e-05
1.85348e-05
-3.05252e-05
-8.46533e-05
-0.00014322
-0.000205699
-0.00027169
-0.000340931
-0.00041331
-0.000488861
-0.000567757
-0.000650297
-0.000736891
-0.00082804
-0.000924314
-0.00102634
-0.00113477
-0.00125027
-0.00137354
-0.00150523
-0.001646
-0.00179645
-0.00195714
-0.00212858
-0.00231119
-0.00250528
-0.00271108
-0.00292865
-0.0031579
-0.00339855
-0.00365013
-0.00391192
-0.00418299
-0.00446214
-0.00474791
-0.00503862
-0.00533229
-0.00562672
-0.00591951
-0.00620805
-0.00648957
-0.00676119
-0.00701992
-0.00726276
-0.00748671
-0.00768885
-0.00786633
-0.00801652
-0.00813695
-0.00822545
-0.00828015
-0.00829952
-0.00828244
-0.00822821
-0.00813659
-0.00800785
-0.00784273
-0.0076425
-0.00740901
-0.00714461
-0.00685214
-0.00653498
-0.00619698
-0.00584241
-0.00547595
-0.00510263
-0.00472772
-0.00435669
-0.00399512
-0.00364859
-0.0033226
-0.00302243
-0.00275305
-0.00251902
-0.00232436
-0.00217248
-0.00206604
-0.00200694
-0.00199621
-0.00203401
-0.00211958
-0.00225128
-0.00242662
-0.00264234
-0.00289444
-0.00317836
-0.00348908
-0.00382123
-0.00416928
-0.00452768
-0.00489099
-0.00525401
-0.00561193
-0.0059604
-0.00629564
-0.00661445
-0.00691431
-0.00719329
-0.00745014
-0.00768418
-0.00789528
-0.00808377
-0.00825042
-0.0083963
-0.00852275
-0.00863127
-0.00872347
-0.00880099
-0.00886543
-0.00891831
-0.00896102
-0.00899476
-0.00902052
-0.00903902
-0.00905071
-0.00905572
-0.00905381
-0.00904436
-0.00902672
-0.00900016
-0.00895829
-0.00889003
0.000204831
0.000223771
0.00022784
0.000220828
0.000205035
0.000180913
0.000149072
0.000110296
6.53759e-05
1.50773e-05
-3.98889e-05
-9.88975e-05
-0.000161442
-0.000227154
-0.000295823
-0.000367398
-0.000441988
-0.000519857
-0.000601405
-0.000687152
-0.000777719
-0.000873807
-0.000976173
-0.00108562
-0.00120296
-0.00132903
-0.00146465
-0.00161062
-0.00176769
-0.00193657
-0.0021179
-0.0023122
-0.0025199
-0.00274129
-0.00297648
-0.00322539
-0.00348772
-0.00376294
-0.00405026
-0.0043486
-0.00465662
-0.00497269
-0.00529489
-0.00562102
-0.00594867
-0.00627516
-0.00659765
-0.00691312
-0.00721846
-0.00751045
-0.00778589
-0.00804159
-0.00827444
-0.00848146
-0.00865985
-0.00880705
-0.00892074
-0.00899898
-0.00904013
-0.00904299
-0.00900677
-0.00893118
-0.00881637
-0.00866303
-0.00847234
-0.00824609
-0.00798651
-0.00769641
-0.00737908
-0.0070383
-0.00667831
-0.00630376
-0.00591964
-0.00553126
-0.00514412
-0.00476388
-0.00439623
-0.00404681
-0.00372109
-0.00342429
-0.00316122
-0.0029362
-0.00275298
-0.00261457
-0.00252325
-0.00248041
-0.00248659
-0.00254138
-0.00264347
-0.00279065
-0.00297991
-0.00320744
-0.00346882
-0.00375909
-0.00407291
-0.00440469
-0.00474878
-0.00509961
-0.00545179
-0.00580031
-0.00614059
-0.00646863
-0.006781
-0.00707494
-0.00734838
-0.00759986
-0.00782857
-0.00803428
-0.00821726
-0.00837823
-0.00851828
-0.00863876
-0.00874123
-0.00882736
-0.00889889
-0.0089575
-0.00900482
-0.00904233
-0.00907131
-0.00909284
-0.00910769
-0.00911636
-0.009119
-0.00911536
-0.00910481
-0.00908666
-0.00906013
-0.00901896
-0.00895235
0.000286475
0.000299476
0.000299049
0.000288243
0.000268987
0.000241775
0.000207245
0.000166177
0.000119359
6.75538e-05
1.14583e-05
-4.8325e-05
-0.000111324
-0.00017722
-0.000245865
-0.000317285
-0.000391682
-0.000469423
-0.000551028
-0.000637145
-0.000728536
-0.000826049
-0.0009306
-0.00104315
-0.0011647
-0.00129624
-0.00143876
-0.00159324
-0.00176058
-0.00194165
-0.00213719
-0.00234787
-0.00257419
-0.00281646
-0.00307483
-0.00334918
-0.00363917
-0.00394414
-0.00426316
-0.00459499
-0.00493807
-0.00529054
-0.00565022
-0.00601467
-0.00638118
-0.00674683
-0.00710849
-0.00746291
-0.00780672
-0.00813651
-0.00844885
-0.00874038
-0.00900782
-0.00924804
-0.00945813
-0.00963538
-0.0097774
-0.00988211
-0.00994782
-0.00997322
-0.00995744
-0.00990007
-0.0098012
-0.00966139
-0.00948177
-0.00926398
-0.00901016
-0.00872301
-0.00840573
-0.008062
-0.00769597
-0.00731224
-0.00691575
-0.00651179
-0.00610587
-0.00570372
-0.00531111
-0.00493383
-0.00457755
-0.0042477
-0.0039494
-0.00368731
-0.00346554
-0.00328753
-0.00315598
-0.00307276
-0.00303883
-0.00305425
-0.00311813
-0.00322867
-0.00338316
-0.00357811
-0.00380931
-0.00407196
-0.00436078
-0.00467021
-0.00499454
-0.00532806
-0.00566523
-0.00600083
-0.00633003
-0.00664856
-0.00695275
-0.00723957
-0.00750668
-0.00775242
-0.00797578
-0.00817636
-0.0083543
-0.00851024
-0.0086452
-0.00876052
-0.00885776
-0.00893865
-0.00900495
-0.00905845
-0.00910083
-0.00913368
-0.00915837
-0.00917604
-0.00918756
-0.00919347
-0.00919398
-0.00918888
-0.00917755
-0.00915932
-0.00913341
-0.00909384
-0.00903037
0.000379007
0.00038501
0.000379361
0.000364229
0.000341085
0.000310444
0.000272949
0.000229346
0.000180394
0.000126825
6.93027e-05
8.38514e-06
-5.55099e-05
-0.00012213
-0.000191408
-0.000263464
-0.000338608
-0.000417333
-0.000500293
-0.000588287
-0.000682235
-0.000783157
-0.00089215
-0.00101036
-0.00113897
-0.00127917
-0.00143214
-0.00159902
-0.0017809
-0.00197876
-0.0021935
-0.00242585
-0.00267637
-0.0029454
-0.00323303
-0.0035391
-0.00386313
-0.00420431
-0.00456152
-0.00493328
-0.00531778
-0.00571288
-0.00611613
-0.00652479
-0.00693586
-0.00734613
-0.00775221
-0.0081506
-0.00853768
-0.00890984
-0.00926347
-0.00959501
-0.00990104
-0.0101783
-0.0104238
-0.0106346
-0.0108083
-0.0109427
-0.011036
-0.0110868
-0.0110942
-0.0110576
-0.010977
-0.0108528
-0.0106861
-0.0104783
-0.0102316
-0.0099483
-0.00963165
-0.00928515
-0.00891285
-0.00851921
-0.00810911
-0.00768779
-0.00726074
-0.0068337
-0.00641252
-0.00600312
-0.00561133
-0.00524284
-0.00490305
-0.004597
-0.00432919
-0.00410354
-0.00392324
-0.00379069
-0.00370741
-0.00367399
-0.00369009
-0.00375439
-0.00386466
-0.0040178
-0.00420993
-0.00443648
-0.00469237
-0.00497211
-0.00526997
-0.00558019
-0.00589706
-0.00621517
-0.00652944
-0.00683531
-0.00712881
-0.00740662
-0.00766608
-0.00790526
-0.00812287
-0.0083183
-0.0084915
-0.00864295
-0.00877354
-0.00888455
-0.0089775
-0.00905409
-0.00911613
-0.00916543
-0.00920376
-0.00923274
-0.00925385
-0.0092683
-0.00927703
-0.00928068
-0.0092795
-0.00927336
-0.0092617
-0.00924387
-0.00921914
-0.00918194
-0.00912281
0.000481809
0.000479792
0.000468251
0.00044832
0.000420921
0.000386574
0.000345886
0.000299541
0.00024824
0.000192656
0.00013339
7.09353e-05
5.63356e-06
-6.23499e-05
-0.000133046
-0.000206691
-0.000283723
-0.000364778
-0.000450665
-0.000542355
-0.00064095
-0.000747664
-0.000863792
-0.000990688
-0.00112974
-0.00128234
-0.00144986
-0.00163363
-0.00183489
-0.00205477
-0.00229424
-0.00255412
-0.00283496
-0.00313707
-0.00346049
-0.0038049
-0.00416966
-0.00455375
-0.0049558
-0.00537405
-0.00580641
-0.00625042
-0.00670331
-0.00716204
-0.00762332
-0.00808364
-0.00853935
-0.00898669
-0.00942184
-0.00984096
-0.0102403
-0.0106161
-0.0109648
-0.011283
-0.0115676
-0.0118156
-0.0120245
-0.0121919
-0.012316
-0.0123953
-0.0124287
-0.0124156
-0.0123557
-0.0122495
-0.0120978
-0.011902
-0.0116638
-0.0113858
-0.0110707
-0.010722
-0.0103436
-0.00993977
-0.0095153
-0.0090753
-0.00862522
-0.00817079
-0.00771788
-0.00727249
-0.00684063
-0.0064282
-0.00604089
-0.00568411
-0.00536279
-0.00508136
-0.00484355
-0.00465237
-0.00450997
-0.0044176
-0.00437555
-0.00438313
-0.00443869
-0.00453966
-0.00468262
-0.00486337
-0.0050771
-0.0053185
-0.00558193
-0.00586159
-0.0061517
-0.00644662
-0.00674106
-0.00703016
-0.00730961
-0.00757575
-0.00782557
-0.00805679
-0.00826781
-0.0084577
-0.00862616
-0.00877344
-0.00890028
-0.00900778
-0.00909738
-0.00917072
-0.00922957
-0.00927576
-0.00931107
-0.0093372
-0.00935565
-0.00936773
-0.00937445
-0.00937651
-0.00937426
-0.00936764
-0.00935618
-0.00933927
-0.00931626
-0.00928209
-0.00922818
0.000594095
0.000583062
0.000565016
0.000539877
0.000507918
0.000469637
0.000425576
0.000376317
0.000322464
0.000264602
0.000203245
0.000138791
7.14847e-05
1.38193e-06
-7.16695e-05
-0.000148041
-0.00022832
-0.000313307
-0.000403991
-0.000501533
-0.000607242
-0.000722544
-0.000848953
-0.000988046
-0.00114143
-0.00131071
-0.00149744
-0.00170314
-0.00192919
-0.00217682
-0.00244709
-0.00274081
-0.00305851
-0.00340042
-0.00376643
-0.00415605
-0.00456841
-0.00500222
-0.00545582
-0.00592714
-0.00641375
-0.00691286
-0.00742138
-0.00793595
-0.00845296
-0.00896864
-0.00947907
-0.00998026
-0.0104682
-0.0109387
-0.0113881
-0.0118123
-0.0122077
-0.0125707
-0.0128981
-0.0131869
-0.0134344
-0.0136382
-0.0137963
-0.0139071
-0.0139695
-0.0139826
-0.0139461
-0.0138603
-0.0137259
-0.013544
-0.0133163
-0.013045
-0.0127328
-0.0123829
-0.011999
-0.0115852
-0.0111461
-0.0106868
-0.0102124
-0.00972877
-0.00924165
-0.00875711
-0.00828127
-0.00782022
-0.00737993
-0.00696614
-0.00658424
-0.00623915
-0.00593522
-0.0056761
-0.00546466
-0.00530287
-0.00519179
-0.00513149
-0.00512104
-0.00515854
-0.00524116
-0.00536523
-0.00552635
-0.00571949
-0.00593921
-0.00617978
-0.00643537
-0.00670022
-0.0069688
-0.00723595
-0.00749703
-0.00774798
-0.00798539
-0.00820659
-0.00840959
-0.00859308
-0.00875644
-0.00889961
-0.00902307
-0.00912773
-0.00921486
-0.00928597
-0.00934276
-0.00938701
-0.00942049
-0.0094449
-0.0094618
-0.00947253
-0.00947817
-0.00947951
-0.00947695
-0.00947052
-0.00945984
-0.0094444
-0.0094236
-0.00939296
-0.00934488
0.000714869
0.000693875
0.000668746
0.000638046
0.000601285
0.000558899
0.000511325
0.000459
0.000402395
0.000341971
0.000278124
0.000211133
0.000141118
6.80031e-05
-8.50904e-06
-8.89473e-05
-0.000174072
-0.00026487
-0.000362533
-0.000468437
-0.000584114
-0.000711222
-0.000851513
-0.0010068
-0.0011789
-0.00136964
-0.00158078
-0.00181395
-0.00207069
-0.00235228
-0.00265981
-0.00299405
-0.00335546
-0.00374412
-0.00415972
-0.00460153
-0.0050684
-0.00555873
-0.00607053
-0.00660137
-0.00714848
-0.00770872
-0.00827866
-0.00885462
-0.0094327
-0.0100088
-0.0105789
-0.0111385
-0.0116837
-0.01221
-0.0127134
-0.01319
-0.0136358
-0.0140473
-0.014421
-0.014754
-0.0150433
-0.0152865
-0.0154816
-0.0156268
-0.0157208
-0.0157627
-0.0157522
-0.0156892
-0.0155743
-0.0154085
-0.0151932
-0.0149305
-0.0146228
-0.0142731
-0.0138848
-0.0134619
-0.0130087
-0.01253
-0.0120309
-0.0115171
-0.0109942
-0.0104683
-0.00994556
-0.00943219
-0.00893439
-0.0084582
-0.00800944
-0.00759354
-0.00721544
-0.00687949
-0.00658931
-0.00634773
-0.00615663
-0.00601697
-0.00592868
-0.0058907
-0.00590095
-0.00595644
-0.00605333
-0.00618708
-0.00635254
-0.00654419
-0.00675622
-0.00698283
-0.00721829
-0.00745718
-0.00769449
-0.00792575
-0.00814714
-0.00835549
-0.00854837
-0.00872404
-0.00888145
-0.00902018
-0.00914037
-0.00924264
-0.00932802
-0.00939785
-0.00945367
-0.00949717
-0.00953005
-0.00955399
-0.00957054
-0.00958107
-0.00958671
-0.00958829
-0.00958628
-0.0095808
-0.00957156
-0.00955813
-0.00953999
-0.00951325
-0.00947132
0.000842913
0.000811032
0.0007783
0.000741748
0.0007
0.000653385
0.000602192
0.000546659
0.000487086
0.000423777
0.000356976
0.000286816
0.000213266
0.00013609
5.4825e-05
-3.12406e-05
-0.000123064
-0.000221841
-0.00032899
-0.000446123
-0.000575014
-0.00071757
-0.000875787
-0.00105171
-0.0012474
-0.00146487
-0.00170603
-0.00197268
-0.00226639
-0.00258851
-0.00294008
-0.00332178
-0.00373392
-0.00417639
-0.00464861
-0.00514957
-0.00567777
-0.00623129
-0.00680774
-0.00740435
-0.00801795
-0.00864506
-0.00928192
-0.0099245
-0.0105686
-0.01121
-0.0118441
-0.0124666
-0.013073
-0.0136589
-0.0142201
-0.0147525
-0.0152521
-0.0157152
-0.0161383
-0.0165182
-0.0168521
-0.0171375
-0.017372
-0.0175541
-0.0176821
-0.0177552
-0.0177729
-0.0177349
-0.0176417
-0.0174941
-0.0172933
-0.0170411
-0.0167398
-0.016392
-0.016001
-0.0155703
-0.0151041
-0.014607
-0.0140837
-0.0135398
-0.0129807
-0.0124124
-0.0118411
-0.011273
-0.0107145
-0.0101718
-0.00965117
-0.00915845
-0.0086992
-0.00827844
-0.00790061
-0.00756938
-0.00728761
-0.00705722
-0.00687915
-0.00675331
-0.00667858
-0.00665283
-0.00667297
-0.00673509
-0.00683455
-0.00696614
-0.00712428
-0.00730316
-0.00749697
-0.00770004
-0.00790702
-0.00811305
-0.0083138
-0.00850562
-0.00868553
-0.00885129
-0.00900136
-0.00913484
-0.00925147
-0.0093515
-0.00943565
-0.00950498
-0.00956084
-0.00960471
-0.00963823
-0.00966297
-0.00968044
-0.009692
-0.00969878
-0.00970165
-0.00970113
-0.00969741
-0.00969028
-0.0096794
-0.00966432
-0.00964172
-0.00960602
0.00097673
0.000933088
0.000892288
0.000849647
0.00080278
0.000751855
0.000696949
0.000638064
0.000575281
0.000508708
0.000438408
0.000364336
0.000286282
0.000203829
0.000116318
2.28319e-05
-7.78075e-05
-0.000187031
-0.000306503
-0.000438088
-0.000583822
-0.000745869
-0.000926475
-0.00112792
-0.00135248
-0.00160234
-0.00187955
-0.002186
-0.00252329
-0.00289275
-0.00329531
-0.00373152
-0.00420146
-0.00470477
-0.00524055
-0.00580746
-0.00640362
-0.00702671
-0.00767397
-0.00834223
-0.00902794
-0.00972726
-0.0104361
-0.0111501
-0.0118647
-0.0125755
-0.0132777
-0.0139667
-0.0146379
-0.0152867
-0.0159087
-0.0164998
-0.0170558
-0.0175729
-0.0180477
-0.0184768
-0.0188574
-0.0191868
-0.0194628
-0.0196836
-0.0198476
-0.0199538
-0.0200015
-0.0199904
-0.0199208
-0.0197933
-0.019609
-0.0193694
-0.0190765
-0.0187327
-0.018341
-0.0179045
-0.0174273
-0.0169133
-0.0163674
-0.0157946
-0.0152001
-0.0145899
-0.0139698
-0.0133462
-0.0127253
-0.0121137
-0.0115178
-0.0109439
-0.0103981
-0.00988601
-0.00941287
-0.00898327
-0.00860105
-0.0082692
-0.00798979
-0.00776385
-0.00759137
-0.00747128
-0.00740147
-0.00737886
-0.00739953
-0.00745878
-0.0075514
-0.00767176
-0.00781404
-0.00797243
-0.0081413
-0.00831536
-0.0084898
-0.00866041
-0.00882364
-0.00897666
-0.00911734
-0.00924423
-0.00935657
-0.00945415
-0.00953727
-0.00960667
-0.00966338
-0.00970869
-0.009744
-0.00977077
-0.00979043
-0.00980426
-0.00981338
-0.00981863
-0.00982058
-0.00981946
-0.00981512
-0.0098073
-0.00979561
-0.00977729
-0.00974769
0.00111454
0.00105832
0.00100904
0.000960132
0.000908062
0.000852765
0.000794064
0.000731666
0.000665387
0.000595102
0.000520658
0.000441804
0.000358126
0.000268996
0.000173535
7.05942e-05
-4.12495e-05
-0.000163684
-0.000298637
-0.000448246
-0.000614815
-0.00080077
-0.00100861
-0.00124083
-0.00149989
-0.00178813
-0.00210771
-0.00246053
-0.0028482
-0.00327191
-0.00373248
-0.00423022
-0.00476494
-0.00533596
-0.00594202
-0.00658137
-0.00725175
-0.00795043
-0.00867421
-0.00941952
-0.0101824
-0.0109588
-0.011744
-0.0125335
-0.0133226
-0.0141063
-0.0148798
-0.0156383
-0.0163769
-0.017091
-0.017776
-0.0184277
-0.0190419
-0.0196147
-0.0201426
-0.0206223
-0.0210508
-0.0214255
-0.0217441
-0.0220047
-0.0222058
-0.0223463
-0.0224254
-0.0224427
-0.0223981
-0.0222925
-0.0221265
-0.0219015
-0.0216192
-0.0212817
-0.0208916
-0.0204519
-0.0199661
-0.019438
-0.0188719
-0.0182725
-0.0176448
-0.0169945
-0.0163271
-0.0156488
-0.0149659
-0.0142849
-0.0136124
-0.012955
-0.0123192
-0.0117112
-0.0111369
-0.0106019
-0.0101109
-0.00966816
-0.0092768
-0.00893918
-0.00865654
-0.00842908
-0.00825586
-0.00813489
-0.00806317
-0.00803681
-0.00805113
-0.0081009
-0.00818047
-0.00828399
-0.00840562
-0.00853972
-0.008681
-0.00882467
-0.00896654
-0.00910313
-0.00923162
-0.00934996
-0.00945674
-0.00955121
-0.00963317
-0.0097029
-0.00976108
-0.00980867
-0.00984683
-0.0098768
-0.00989986