/*--------------------------------*- C++ -*----------------------------------*\
| =========                 |                                                 |
| \\      /  F ield         | OpenFOAM: The Open Source CFD Toolbox           |
|  \\    /   O peration     | Version:  2112                                  |
|   \\  /    A nd           | Website:  www.openfoam.com                      |
|    \\/     M anipulation  |                                                 |
\*---------------------------------------------------------------------------*/
FoamFile
{
    version     2.0;
    format      ascii;
    arch        "LSB;label=32;scalar=64";
    class       surfaceScalarField;
    location    "40";
    object      phi;
}
// * * * * * * * * * * * * * * * * * * * * * * * * * * * * * * * * * * * * * //

dimensions      [0 3 -1 0 0 0 0];

oriented        oriented;

internalField   nonuniform List<scalar> 
33024
(
-4.0223e-09
3.63977e-09
2.28798e-08
-2.68974e-08
8.10279e-08
-5.81474e-08
1.619e-07
-8.08681e-08
2.56767e-07
-9.48694e-08
3.58191e-07
-1.01427e-07
4.60205e-07
-1.02012e-07
5.58211e-07
-9.80032e-08
6.48788e-07
-9.05768e-08
7.29497e-07
-8.07093e-08
7.98703e-07
-6.92064e-08
8.55426e-07
-5.67233e-08
8.99206e-07
-4.37798e-08
9.29979e-07
-3.07722e-08
9.47964e-07
-1.79842e-08
9.53561e-07
-5.59832e-09
9.47264e-07
6.29654e-09
9.29582e-07
1.76827e-08
9.0097e-07
2.86115e-08
8.61788e-07
3.91818e-08
8.12259e-07
4.95293e-08
7.52447e-07
5.98118e-08
6.8225e-07
7.01963e-08
6.01403e-07
8.08479e-08
5.09483e-07
9.19201e-08
4.05935e-07
1.03548e-07
2.90094e-07
1.15841e-07
1.61209e-07
1.28885e-07
1.84763e-08
1.42733e-07
-1.38936e-07
1.57412e-07
-3.11859e-07
1.72923e-07
-5.011e-07
1.8924e-07
-7.07415e-07
2.06315e-07
-9.31492e-07
2.24077e-07
-1.17393e-06
2.42437e-07
-1.43521e-06
2.61285e-07
-1.71571e-06
2.80495e-07
-2.01563e-06
2.99922e-07
-2.33504e-06
3.19405e-07
-2.6738e-06
3.38764e-07
-3.0316e-06
3.57803e-07
-3.40791e-06
3.76311e-07
-3.80198e-06
3.94061e-07
-4.21279e-06
4.10814e-07
-4.63911e-06
4.26319e-07
-5.07943e-06
4.40315e-07
-5.53196e-06
4.52537e-07
-5.99468e-06
4.62715e-07
-6.46526e-06
4.70581e-07
-6.94113e-06
4.7587e-07
-7.41945e-06
4.78325e-07
-7.89716e-06
4.77704e-07
-8.37094e-06
4.73777e-07
-8.83727e-06
4.66336e-07
-9.29247e-06
4.55201e-07
-9.73269e-06
4.40215e-07
-1.01539e-05
4.21259e-07
-1.05522e-05
3.98247e-07
-1.09233e-05
3.71137e-07
-1.12633e-05
3.39927e-07
-1.15679e-05
3.04664e-07
-1.18334e-05
2.65445e-07
-1.20558e-05
2.22419e-07
-1.22316e-05
1.75793e-07
-1.23574e-05
1.25847e-07
-1.24303e-05
7.29094e-08
-1.24477e-05
1.74009e-08
-1.2407e-05
-4.07236e-08
-1.23068e-05
-1.00238e-07
-1.21457e-05
-1.61028e-07
-1.19233e-05
-2.22437e-07
-1.16395e-05
-2.83836e-07
-1.12949e-05
-3.44559e-07
-1.0891e-05
-4.03915e-07
-1.04298e-05
-4.61191e-07
-9.91414e-06
-5.15668e-07
-9.34751e-06
-5.66629e-07
-8.73413e-06
-6.13377e-07
-8.07889e-06
-6.55244e-07
-7.38728e-06
-6.91608e-07
-6.66537e-06
-7.2191e-07
-5.9197e-06
-7.45666e-07
-5.15722e-06
-7.62481e-07
-4.38516e-06
-7.72066e-07
-3.61091e-06
-7.74243e-07
-2.84196e-06
-7.68957e-07
-2.08567e-06
-7.56283e-07
-1.34925e-06
-7.36423e-07
-6.39541e-07
-7.09707e-07
3.7056e-08
-6.76597e-07
6.74782e-07
-6.37725e-07
1.26842e-06
-5.93634e-07
1.81359e-06
-5.45177e-07
2.30676e-06
-4.93163e-07
2.74523e-06
-4.38471e-07
3.12723e-06
-3.81998e-07
3.45187e-06
-3.24642e-07
3.71915e-06
-2.67283e-07
3.92991e-06
-2.10758e-07
4.08575e-06
-1.5584e-07
4.18897e-06
-1.03223e-07
4.24248e-06
-5.35098e-08
4.24968e-06
-7.20219e-09
4.21437e-06
3.53123e-08
4.14062e-06
7.37475e-08
4.03269e-06
1.07935e-07
3.89488e-06
1.37806e-07
3.73149e-06
1.63392e-07
3.54668e-06
1.8481e-07
3.34443e-06
2.02254e-07
3.12845e-06
2.1598e-07
2.90216e-06
2.26289e-07
2.66865e-06
2.33512e-07
2.43066e-06
2.3799e-07
2.1906e-06
2.4005e-07
1.95062e-06
2.39985e-07
1.7126e-06
2.38022e-07
1.47831e-06
2.3429e-07
1.24952e-06
2.28789e-07
1.02817e-06
2.21347e-07
8.16591e-07
2.1158e-07
6.17736e-07
1.98855e-07
4.3547e-07
1.82266e-07
2.74826e-07
1.60643e-07
1.42142e-07
1.32684e-07
4.47637e-08
9.73781e-08
-1.03294e-08
5.50933e-08
-2.09057e-08
1.05769e-08
-2.09053e-08
2.66163e-08
-2.2972e-08
1.19352e-07
-1.19647e-07
2.7196e-07
-2.10752e-07
4.70105e-07
-2.79016e-07
6.97716e-07
-3.22479e-07
9.39544e-07
-3.43255e-07
1.18232e-06
-3.4479e-07
1.41511e-06
-3.308e-07
1.62931e-06
-3.04772e-07
1.81839e-06
-2.69795e-07
1.97771e-06
-2.28523e-07
2.10416e-06
-1.8317e-07
2.19591e-06
-1.35534e-07
2.25215e-06
-8.70142e-08
2.2728e-06
-3.8635e-08
2.25828e-06
8.91932e-09
2.20931e-06
5.52756e-08
2.12666e-06
1.00329e-07
2.01108e-06
1.44191e-07
1.86311e-06
1.87153e-07
1.683e-06
2.29636e-07
1.47068e-06
2.72138e-07
1.22568e-06
3.15195e-07
9.47187e-07
3.5934e-07
6.34037e-07
4.05069e-07
2.84772e-07
4.52813e-07
-1.02307e-07
5.0292e-07
-5.29064e-07
5.55642e-07
-9.97461e-07
6.1113e-07
-1.50948e-06
6.69429e-07
-2.06704e-06
7.30488e-07
-2.67196e-06
7.94158e-07
-3.32585e-06
8.60203e-07
-4.03007e-06
9.28302e-07
-4.78569e-06
9.98059e-07
-5.59341e-06
1.06901e-06
-6.45352e-06
1.1406e-06
-7.36585e-06
1.21225e-06
-8.32973e-06
1.28329e-06
-9.34395e-06
1.35298e-06
-1.04067e-05
1.42056e-06
-1.15156e-05
1.48521e-06
-1.26676e-05
1.54604e-06
-1.38589e-05
1.60216e-06
-1.50852e-05
1.65264e-06
-1.63415e-05
1.69653e-06
-1.76218e-05
1.7329e-06
-1.89199e-05
1.7608e-06
-2.02286e-05
1.77932e-06
-2.15404e-05
1.78758e-06
-2.28468e-05
1.78477e-06
-2.41392e-05
1.77011e-06
-2.54084e-05
1.74294e-06
-2.66447e-05
1.70266e-06
-2.78383e-05
1.6488e-06
-2.8979e-05
1.58098e-06
-3.00568e-05
1.49898e-06
-3.10612e-05
1.40269e-06
-3.19822e-05
1.29218e-06
-3.281e-05
1.16763e-06
-3.35347e-05
1.02943e-06
-3.41474e-05
8.78115e-07
-3.46394e-05
7.14384e-07
-3.50027e-05
5.39135e-07
-3.52303e-05
3.53478e-07
-3.53161e-05
1.58652e-07
-3.52549e-05
-4.38113e-08
-3.50423e-05
-2.53309e-07
-3.46756e-05
-4.66866e-07
-3.41536e-05
-6.83113e-07
-3.34759e-05
-9.00056e-07
-3.26442e-05
-1.11559e-06
-3.16612e-05
-1.32751e-06
-3.05316e-05
-1.53356e-06
-2.92614e-05
-1.73144e-06
-2.78582e-05
-1.91885e-06
-2.63313e-05
-2.09352e-06
-2.46914e-05
-2.25325e-06
-2.29507e-05
-2.39595e-06
-2.11226e-05
-2.51968e-06
-1.92218e-05
-2.62271e-06
-1.7264e-05
-2.70353e-06
-1.52655e-05
-2.76093e-06
-1.32436e-05
-2.79399e-06
-1.12157e-05
-2.80216e-06
-9.19939e-06
-2.78526e-06
-7.21219e-06
-2.74349e-06
-5.27116e-06
-2.67746e-06
-3.39269e-06
-2.58818e-06
-1.59224e-06
-2.47705e-06
1.15879e-07
-2.34584e-06
1.71891e-06
-2.19667e-06
3.20556e-06
-2.03183e-06
4.56641e-06
-1.85401e-06
5.79394e-06
-1.666e-06
6.88266e-06
-1.47072e-06
7.82911e-06
-1.27109e-06
8.63187e-06
-1.07005e-06
9.29153e-06
-8.70415e-07
9.81054e-06
-6.74852e-07
1.01931e-05
-4.85806e-07
1.04451e-05
-3.05453e-07
1.05735e-05
-1.35666e-07
1.05868e-05
2.20227e-08
1.04941e-05
1.66429e-07
1.03053e-05
2.9673e-07
1.00307e-05
4.12452e-07
9.68064e-06
5.13457e-07
9.26553e-06
5.99919e-07
8.7955e-06
6.72282e-07
8.28026e-06
7.31222e-07
7.72895e-06
7.77597e-07
7.15008e-06
8.1238e-07
6.55147e-06
8.36603e-07
5.94025e-06
8.51271e-07
5.32295e-06
8.57281e-07
4.70565e-06
8.55329e-07
4.09413e-06
8.45803e-07
3.49425e-06
8.28673e-07
2.91221e-06
8.0339e-07
2.35501e-06
7.68781e-07
1.83086e-06
7.22998e-07
1.34959e-06
6.63536e-07
9.22803e-07
5.87433e-07
5.63643e-07
4.91843e-07
2.85624e-07
3.75397e-07
9.99766e-08
2.4074e-07
1.09817e-08
9.95705e-08
-9.92336e-09
5.79552e-08
-8.09265e-08
2.10731e-07
-2.72419e-07
4.39921e-07
-4.39947e-07
7.2555e-07
-5.64648e-07
1.04687e-06
-6.4379e-07
1.3841e-06
-6.8049e-07
1.71962e-06
-6.80311e-07
2.03844e-06
-6.49617e-07
2.32834e-06
-5.94676e-07
2.57979e-06
-5.21246e-07
2.78568e-06
-4.34404e-07
2.94098e-06
-3.38476e-07
3.04248e-06
-2.37026e-07
3.08833e-06
-1.32866e-07
3.07778e-06
-2.80847e-08
3.01081e-06
7.58874e-08
2.88784e-06
1.78241e-07
2.70948e-06
2.7869e-07
2.47628e-06
3.77393e-07
2.18856e-06
4.74866e-07
1.84632e-06
5.71883e-07
1.44908e-06
6.6938e-07
9.959e-07
7.68371e-07
4.85379e-07
8.69861e-07
-8.4334e-08
9.74782e-07
-7.15455e-07
1.08393e-06
-1.41048e-06
1.19794e-06
-2.17207e-06
1.31724e-06
-3.00297e-06
1.44203e-06
-3.90585e-06
1.57231e-06
-4.88323e-06
1.70787e-06
-5.93735e-06
1.84828e-06
-7.07007e-06
1.99293e-06
-8.28278e-06
2.14102e-06
-9.57631e-06
2.29159e-06
-1.09508e-05
2.44353e-06
-1.24058e-05
2.59557e-06
-1.39399e-05
2.74633e-06
-1.55509e-05
2.89428e-06
-1.72357e-05
3.03779e-06
-1.89903e-05
3.17514e-06
-2.08096e-05
3.3045e-06
-2.26875e-05
3.42401e-06
-2.46171e-05
3.53174e-06
-2.65902e-05
3.62575e-06
-2.85978e-05
3.70409e-06
-3.06297e-05
3.76487e-06
-3.26752e-05
3.80622e-06
-3.47223e-05
3.82639e-06
-3.67584e-05
3.82374e-06
-3.87704e-05
3.79677e-06
-4.07444e-05
3.74414e-06
-4.26662e-05
3.66473e-06
-4.45212e-05
3.55762e-06
-4.62945e-05
3.42215e-06
-4.79715e-05
3.25791e-06
-4.95372e-05
3.06476e-06
-5.09774e-05
2.84286e-06
-5.22779e-05
2.59267e-06
-5.34252e-05
2.31496e-06
-5.44066e-05
2.01079e-06
-5.52101e-05
1.68158e-06
-5.58247e-05
1.32904e-06
-5.62408e-05
9.552e-07
-5.64498e-05
5.62499e-07
-5.64453e-05
1.5413e-07
-5.62203e-05
-2.68808e-07
-5.57719e-05
-7.01648e-07
-5.50978e-05
-1.14097e-06
-5.41977e-05
-1.58328e-06
-5.3073e-05
-2.0247e-06
-5.17274e-05
-2.46118e-06
-5.01664e-05
-2.88851e-06
-4.83976e-05
-3.30242e-06
-4.64304e-05
-3.69858e-06
-4.42766e-05
-4.07269e-06
-4.19496e-05
-4.42054e-06
-3.94648e-05
-4.73807e-06
-3.68393e-05
-5.02141e-06
-3.4092e-05
-5.26702e-06
-3.1243e-05
-5.47169e-06
-2.83139e-05
-5.63266e-06
-2.53271e-05
-5.74766e-06
-2.23061e-05
-5.81501e-06
-1.92746e-05
-5.83365e-06
-1.62567e-05
-5.80318e-06
-1.32762e-05
-5.72392e-06
-1.03568e-05
-5.59691e-06
-7.52104e-06
-5.42393e-06
-4.7906e-06
-5.20748e-06
-2.1857e-06
-4.95075e-06
2.7518e-07
-4.65754e-06
2.57561e-06
-4.33226e-06
4.70126e-06
-3.97966e-06
6.64038e-06
-3.60512e-06
8.38372e-06
-3.21406e-06
9.92477e-06
-2.81213e-06
1.12597e-05
-2.40499e-06
1.23875e-05
-1.99817e-06
1.33096e-05
-1.59699e-06
1.40302e-05
-1.20638e-06
1.45556e-05
-8.30871e-07
1.48944e-05
-4.74415e-07
1.50568e-05
-1.40378e-07
1.50547e-05
1.68526e-07
1.49011e-05
4.50276e-07
1.461e-05
7.03511e-07
1.4196e-05
9.27547e-07
1.36736e-05
1.12232e-06
1.30575e-05
1.28834e-06
1.23621e-05
1.4266e-06
1.16012e-05
1.53848e-06
1.0788e-05
1.62564e-06
9.93467e-06
1.68991e-06
9.05286e-06
1.73308e-06
8.15336e-06
1.75678e-06
7.24639e-06
1.76229e-06
6.34187e-06
1.75033e-06
5.44969e-06
1.72085e-06
4.5802e-06
1.67289e-06
3.74458e-06
1.60439e-06
2.95539e-06
1.51219e-06
2.22678e-06
1.39214e-06
1.57465e-06
1.23956e-06
1.01613e-06
1.05036e-06
5.68332e-07
8.23199e-07
2.45909e-07
5.63162e-07
5.72761e-08
2.88203e-07
4.73528e-08
8.10957e-08
-1.62018e-07
2.8037e-07
-4.71694e-07
5.67168e-07
-7.26748e-07
9.14858e-07
-9.12339e-07
1.29848e-06
-1.02742e-06
1.69507e-06
-1.07708e-06
2.08418e-06
-1.06942e-06
2.44824e-06
-1.01367e-06
2.77267e-06
-9.19105e-07
3.04581e-06
-7.94391e-07
3.25872e-06
-6.47308e-07
3.40482e-06
-4.84578e-07
3.47959e-06
-3.11797e-07
3.48015e-06
-1.33429e-07
3.4049e-06
4.71681e-08
3.25311e-06
2.27676e-07
3.02463e-06
4.06728e-07
2.71952e-06
5.83795e-07
2.33786e-06
7.59055e-07
1.87948e-06
9.33246e-07
1.34384e-06
1.10752e-06
7.29935e-07
1.28329e-06
3.62388e-08
1.46207e-06
-7.39275e-07
1.64537e-06
-1.59908e-06
1.83459e-06
-2.546e-06
2.03086e-06
-3.58312e-06
2.23506e-06
-4.71361e-06
2.44773e-06
-5.94061e-06
2.66902e-06
-7.26706e-06
2.89876e-06
-8.69556e-06
3.13637e-06
-1.02282e-05
3.38095e-06
-1.18666e-05
3.63126e-06
-1.36113e-05
3.88576e-06
-1.54623e-05
4.14263e-06
-1.74186e-05
4.3998e-06
-1.9478e-05
4.65493e-06
-2.16371e-05
4.9055e-06
-2.38917e-05
5.1488e-06
-2.62358e-05
5.38193e-06
-2.86626e-05
5.60188e-06
-3.11636e-05
5.80554e-06
-3.37293e-05
5.98972e-06
-3.63488e-05
6.15124e-06
-3.90099e-05
6.2869e-06
-4.16994e-05
6.39359e-06
-4.44029e-05
6.46833e-06
-4.7105e-05
6.50828e-06
-4.97894e-05
6.51081e-06
-5.24392e-05
6.47356e-06
-5.50369e-05
6.39444e-06
-5.75645e-05
6.27172e-06
-6.00038e-05
6.10401e-06
-6.23365e-05
5.89033e-06
-6.45444e-05
5.63012e-06
-6.66098e-05
5.32326e-06
-6.85151e-05
4.97007e-06
-7.02436e-05
4.57134e-06
-7.17792e-05
4.12833e-06
-7.31071e-05
3.64278e-06
-7.42131e-05
3.11688e-06
-7.50848e-05
2.55328e-06
-7.57109e-05
1.9551e-06
-7.60816e-05
1.3259e-06
-7.61885e-05
6.69373e-07
-7.60276e-05
-6.76871e-09
-7.55903e-05
-7.06117e-07
-7.48767e-05
-1.41523e-06
-7.38858e-05
-2.13188e-06
-7.2619e-05
-2.85008e-06
-7.10798e-05
-3.56382e-06
-6.92741e-05
-4.26689e-06
-6.72097e-05
-4.95293e-06
-6.48967e-05
-5.61549e-06
-6.23471e-05
-6.24811e-06
-5.95754e-05
-6.8444e-06
-5.65979e-05
-7.39808e-06
-5.34328e-05
-7.90312e-06
-5.01004e-05
-8.35382e-06
-4.66225e-05
-8.7449e-06
-4.30226e-05
-9.0716e-06
-3.93255e-05
-9.3298e-06
-3.5557e-05
-9.51608e-06
-3.17442e-05
-9.62788e-06
-2.79143e-05
-9.6635e-06
-2.40953e-05
-9.62225e-06
-2.03148e-05
-9.50443e-06
-1.66002e-05
-9.31145e-06
-1.29784e-05
-9.04576e-06
-9.47498e-06
-8.7109e-06
-6.11429e-06
-8.31144e-06
-2.9189e-06
-7.85293e-06
9.06257e-08
-7.34178e-06
2.8962e-06
-6.78524e-06
5.48213e-06
-6.19104e-06
7.83562e-06
-5.56755e-06
9.94685e-06
-4.92337e-06
1.18091e-05
-4.26721e-06
1.34186e-05
-3.60774e-06
1.4775e-05
-2.95336e-06
1.58807e-05
-2.31203e-06
1.67409e-05
-1.69114e-06
1.73638e-05
-1.09732e-06
1.77598e-05
-5.36334e-07
1.79413e-05
-1.30236e-08
1.79228e-05
4.68842e-07
1.77198e-05
9.06472e-07
1.73492e-05
1.29815e-06
1.68284e-05
1.64316e-06
1.6175e-05
1.94168e-06
1.54069e-05
2.19473e-06
1.45414e-05
2.40399e-06
1.35954e-05
2.57165e-06
1.25851e-05
2.7002e-06
1.1526e-05
2.79219e-06
1.04328e-05
2.84996e-06
9.3197e-06
2.87538e-06
8.20049e-06
2.86953e-06
7.08893e-06
2.83242e-06
5.99909e-06
2.76272e-06
4.94588e-06
2.6576e-06
3.94535e-06
2.51273e-06
3.01501e-06
2.32248e-06
2.17389e-06
2.08068e-06
1.44216e-06
1.78209e-06
8.40328e-07
1.42503e-06
3.87972e-07
1.01552e-06
1.02475e-07
5.737e-07
1.49828e-07
9.6011e-08
-2.58033e-07
3.26586e-07
-7.02268e-07
6.51187e-07
-1.05134e-06
1.03689e-06
-1.29805e-06
1.45484e-06
-1.44536e-06
1.87941e-06
-1.50166e-06
2.28819e-06
-1.47819e-06
2.66189e-06
-1.38738e-06
2.98441e-06
-1.24163e-06
3.24267e-06
-1.05265e-06
3.4264e-06
-8.31036e-07
3.52783e-06
-5.86011e-07
3.54135e-06
-3.25314e-07
3.46308e-06
-5.5163e-08
3.29053e-06
2.19725e-07
3.02214e-06
4.96063e-07
2.65699e-06
7.71877e-07
2.19443e-06
1.04635e-06
1.63383e-06
1.31966e-06
9.74323e-07
1.59275e-06
2.14709e-07
1.86713e-06
-6.46689e-07
2.14468e-06
-1.61203e-06
2.42741e-06
-2.68394e-06
2.71729e-06
-3.86544e-06
3.01608e-06
-5.1598e-06
3.32522e-06
-6.57044e-06
3.6457e-06
-8.10074e-06
3.97802e-06
-9.75383e-06
4.32211e-06
-1.15325e-05
4.67739e-06
-1.34388e-05
5.04271e-06
-1.54743e-05
5.41642e-06
-1.76394e-05
5.79635e-06
-1.99335e-05
6.17991e-06
-2.2355e-05
6.56409e-06
-2.49007e-05
6.9455e-06
-2.75662e-05
7.32044e-06
-3.03456e-05
7.68491e-06
-3.32314e-05
8.03466e-06
-3.62148e-05
8.36526e-06
-3.9285e-05
8.67214e-06
-4.24302e-05
8.95067e-06
-4.56366e-05
9.19618e-06
-4.88895e-05
9.40407e-06
-5.21724e-05
9.56985e-06
-5.5468e-05
9.68923e-06
-5.87579e-05
9.75819e-06
-6.20227e-05
9.77303e-06
-6.52423e-05
9.73043e-06
-6.83962e-05
9.62753e-06
-7.14638e-05
9.46196e-06
-7.44239e-05
9.23188e-06
-7.7256e-05
8.93604e-06
-7.99394e-05
8.57376e-06
-8.24543e-05
8.145e-06
-8.47813e-05
7.65033e-06
-8.69022e-05
7.09095e-06
-8.87996e-05
6.46868e-06
-9.04572e-05
5.78598e-06
-9.18603e-05
5.0459e-06
-9.29955e-05
4.25209e-06
-9.3851e-05
3.40875e-06
-9.44166e-05
2.52066e-06
-9.46838e-05
1.59313e-06
-9.46465e-05
6.32106e-07
-9.42975e-05
-3.5586e-07
-9.36378e-05
-1.36581e-06
-9.26642e-05
-2.38876e-06
-9.13784e-05
-3.41768e-06
-8.97837e-05
-4.44486e-06
-8.78852e-05
-5.46224e-06
-8.56906e-05
-6.46149e-06
-8.32094e-05
-7.43417e-06
-8.04531e-05
-8.37174e-06
-7.74356e-05
-9.26563e-06
-7.41726e-05
-1.01074e-05
-7.06819e-05
-1.08888e-05
-6.69831e-05
-1.16019e-05
-6.30979e-05
-1.2239e-05
-5.90495e-05
-1.27933e-05
-5.48628e-05
-1.32583e-05
-5.0564e-05
-1.36285e-05
-4.61808e-05
-1.38993e-05
-4.17415e-05
-1.40671e-05
-3.72755e-05
-1.41295e-05
-3.28125e-05
-1.40852e-05
-2.83824e-05
-1.39345e-05
-2.4015e-05
-1.36789e-05
-1.97394e-05
-1.33213e-05
-1.55842e-05
-1.28661e-05
-1.15765e-05
-1.23192e-05
-7.74186e-06
-1.16875e-05
-4.1041e-06
-1.09795e-05
-6.84711e-07
-1.02046e-05
2.49739e-06
-9.37314e-06
5.42602e-06
-8.49618e-06
8.08801e-06
-7.58536e-06
1.04734e-05
-6.65258e-06
1.25754e-05
-5.70979e-06
1.43908e-05
-4.76873e-06
1.59195e-05
-3.84069e-06
1.71646e-05
-2.93627e-06
1.81325e-05
-2.06519e-06
1.88322e-05
-1.23611e-06
1.92757e-05
-4.56457e-07
1.94768e-05
2.67678e-07
1.94517e-05
9.31597e-07
1.92179e-05
1.53201e-06
1.8794e-05
2.06701e-06
1.81996e-05
2.53603e-06
1.74547e-05
2.93967e-06
1.65792e-05
3.27952e-06
1.55928e-05
3.558e-06
1.4515e-05
3.77801e-06
1.33646e-05
3.94264e-06
1.21597e-05
4.05484e-06
1.09181e-05
4.11699e-06
9.6571e-06
4.13052e-06
8.39399e-06
4.09553e-06
7.14625e-06
4.01045e-06
5.93201e-06
3.87184e-06
4.77037e-06
3.67438e-06
3.68166e-06
3.41119e-06
2.68763e-06
3.07471e-06
1.81142e-06
2.65831e-06
1.07739e-06
2.15906e-06
5.11229e-07
1.58168e-06
1.40731e-07
9.44198e-07
2.90558e-07
1.03976e-07
-3.62012e-07
3.51273e-07
-9.49565e-07
6.94392e-07
-1.39446e-06
1.0953e-06
-1.69895e-06
1.52174e-06
-1.8718e-06
1.94593e-06
-1.92586e-06
2.34395e-06
-1.87621e-06
2.69536e-06
-1.7388e-06
2.98309e-06
-1.52935e-06
3.19314e-06
-1.26269e-06
3.31433e-06
-9.5223e-07
3.33802e-06
-6.09698e-07
3.25769e-06
-2.44985e-07
3.0686e-06
1.3393e-07
2.76736e-06
5.20967e-07
2.35156e-06
9.11858e-07
1.81942e-06
1.30401e-06
1.16945e-06
1.69632e-06
4.00178e-07
2.08893e-06
-4.90044e-07
2.48297e-06
-1.50319e-06
2.88029e-06
-2.64165e-06
3.28314e-06
-3.90822e-06
3.69397e-06
-5.30604e-06
4.11511e-06
-6.83855e-06
4.54859e-06
-8.50926e-06
4.99594e-06
-1.03217e-05
5.4581e-06
-1.22789e-05
5.93529e-06
-1.43838e-05
6.42701e-06
-1.66384e-05
6.93196e-06
-1.90438e-05
7.44812e-06
-2.16002e-05
7.97277e-06
-2.43063e-05
8.5025e-06
-2.71597e-05
9.03332e-06
-3.01563e-05
9.56069e-06
-3.32904e-05
1.00796e-05
-3.65546e-05
1.05846e-05
-3.99396e-05
1.10699e-05
-4.34346e-05
1.15296e-05
-4.70268e-05
1.19575e-05
-5.07019e-05
1.23472e-05
-5.44438e-05
1.26925e-05
-5.82349e-05
1.29873e-05
-6.20563e-05
1.32255e-05
-6.5888e-05
1.34015e-05
-6.97088e-05
1.351e-05
-7.34967e-05
1.35461e-05
-7.72294e-05
1.35057e-05
-8.08839e-05
1.3385e-05
-8.44374e-05
1.3181e-05
-8.7867e-05
1.28916e-05
-9.11504e-05
1.25152e-05
-9.42655e-05
1.20512e-05
-9.71914e-05
1.14996e-05
-9.99078e-05
1.08614e-05
-0.000102396
1.01382e-05
-0.000104637
9.33239e-06
-0.000106616
8.44726e-06
-0.000108316
7.4867e-06
-0.000109726
6.45532e-06
-0.000110832
5.35839e-06
-0.000111625
4.20181e-06
-0.000112097
2.99209e-06
-0.00011224
1.73631e-06
-0.00011205
4.42341e-07
-0.000111523
-8.8243e-07
-0.00011066
-2.22916e-06
-0.00010946
-3.58865e-06
-0.000107926
-4.95158e-06
-0.000106063
-6.30827e-06
-0.000103876
-7.64873e-06
-0.000101375
-8.96274e-06
-9.85694e-05
-1.02399e-05
-9.54715e-05
-1.14697e-05
-9.20955e-05
-1.26417e-05
-8.84575e-05
-1.37454e-05
-8.45755e-05
-1.47708e-05
-8.04695e-05
-1.57079e-05
-7.6161e-05
-1.65475e-05
-7.16736e-05
-1.72807e-05
-6.70323e-05
-1.78996e-05
-6.22636e-05
-1.83972e-05
-5.73955e-05
-1.87675e-05
-5.24569e-05
-1.90057e-05
-4.74778e-05
-1.91086e-05
-4.2489e-05
-1.90741e-05
-3.75213e-05
-1.89022e-05
-3.2606e-05
-1.85942e-05
-2.7774e-05
-1.81533e-05
-2.30555e-05
-1.75846e-05
-1.84799e-05
-1.68947e-05
-1.40753e-05
-1.60921e-05
-9.86806e-06
-1.51868e-05
-5.88249e-06
-1.41902e-05
-2.14061e-06
-1.3115e-05
1.33823e-06
-1.1975e-05
4.53763e-06
-1.07848e-05
7.4443e-06
-9.55924e-06
1.00483e-05
-8.31376e-06
1.2343e-05
-7.06346e-06
1.43254e-05
-5.82312e-06
1.59959e-05
-4.60678e-06
1.73583e-05
-3.42756e-06
1.84195e-05
-2.29731e-06
1.91895e-05
-1.22649e-06
1.96812e-05
-2.23939e-07
1.99095e-05
7.03237e-07
1.98918e-05
1.54967e-06
1.96471e-05
2.31179e-06
1.91954e-05
2.98772e-06
1.85579e-05
3.57716e-06
1.77562e-05
4.0812e-06
1.68122e-05
4.50202e-06
1.57476e-05
4.84261e-06
1.45839e-05
5.10632e-06
1.33423e-05
5.29645e-06
1.20436e-05
5.41575e-06
1.07081e-05
5.46595e-06
9.35642e-06
5.44723e-06
8.009e-06
5.35787e-06
6.6869e-06
5.19394e-06
5.41196e-06
4.94931e-06
4.20717e-06
4.61598e-06
3.09696e-06
4.18491e-06
2.10759e-06
3.64768e-06
1.26769e-06
2.99896e-06
6.09383e-07
2.23999e-06
1.70442e-07
1.38314e-06
4.61e-07
1.06275e-07
-4.68284e-07
3.5716e-07
-1.20045e-06
7.00787e-07
-1.73809e-06
1.09544e-06
-2.0936e-06
1.50628e-06
-2.28265e-06
1.90386e-06
-2.32343e-06
2.26314e-06
-2.2355e-06
2.563e-06
-2.03865e-06
2.78576e-06
-1.75211e-06
2.91686e-06
-1.3938e-06
2.94458e-06
-9.79945e-07
2.85961e-06
-5.24734e-07
2.65476e-06
-4.01322e-08
2.3245e-06
4.64186e-07
1.86464e-06
9.80829e-07
1.2719e-06
1.50459e-06
5.4362e-07
2.0323e-06
-3.226e-07
2.56254e-06
-1.3291e-06
3.09544e-06
-2.47839e-06
3.63225e-06
-3.77321e-06
4.17511e-06
-5.21664e-06
4.72657e-06
-6.81203e-06
5.28937e-06
-8.56296e-06
5.86603e-06
-1.0473e-05
6.45866e-06
-1.25458e-05
7.06866e-06
-1.47843e-05
7.69666e-06
-1.71914e-05
8.34233e-06
-1.97687e-05
9.00436e-06
-2.25172e-05
9.68045e-06
-2.54364e-05
1.03674e-05
-2.85246e-05
1.10609e-05
-3.17783e-05
1.17562e-05
-3.51922e-05
1.24473e-05
-3.87595e-05
1.3128e-05
-4.24712e-05
1.37913e-05
-4.63164e-05
1.44297e-05
-5.02821e-05
1.50357e-05
-5.43536e-05
1.56012e-05
-5.85143e-05
1.61182e-05
-6.27457e-05
1.65787e-05
-6.70281e-05
1.69749e-05
-7.134e-05
1.72992e-05
-7.56591e-05
1.75446e-05
-7.99619e-05
1.77044e-05
-8.42246e-05
1.77726e-05
-8.84226e-05
1.77442e-05
-9.25315e-05
1.76146e-05
-9.65268e-05
1.73803e-05
-0.000100385
1.70388e-05
-0.000104081
1.65884e-05
-0.000107595
1.60285e-05
-0.000110903
1.53594e-05
-0.000113986
1.45824e-05
-0.000116824
1.36996e-05
-0.0001194
1.27142e-05
-0.000121698
1.163e-05
-0.000123702
1.04519e-05
-0.000125401
9.18526e-06
-0.000126782
7.83644e-06
-0.000127836
6.41232e-06
-0.000128554
4.92042e-06
-0.000128931
3.36888e-06
-0.000128961
1.76638e-06
-0.000128642
1.22824e-07
-0.00012797
-1.55391e-06
-0.000126947
-3.25198e-06
-0.000125575
-4.96126e-06
-0.000123856
-6.67073e-06
-0.000121795
-8.36903e-06
-0.000119399
-1.00445e-05
-0.000116677
-1.16851e-05
-0.000113638
-1.32788e-05
-0.000110294
-1.48133e-05
-0.000106659
-1.62763e-05
-0.000102749
-1.76557e-05
-9.85807e-05
-1.89393e-05
-9.4173e-05
-2.01156e-05
-8.95471e-05
-2.11734e-05
-8.47257e-05
-2.21021e-05
-7.97333e-05
-2.28921e-05
-7.45959e-05
-2.35346e-05
-6.9341e-05
-2.40223e-05
-6.39977e-05
-2.43491e-05
-5.85958e-05
-2.45104e-05
-5.31666e-05
-2.45034e-05
-4.77415e-05
-2.43273e-05
-4.23527e-05
-2.3983e-05
-3.70322e-05
-2.34738e-05
-3.18119e-05
-2.28049e-05
-2.67229e-05
-2.19837e-05
-2.17954e-05
-2.10196e-05
-1.70582e-05
-1.9924e-05
-1.25382e-05
-1.87102e-05
-8.26021e-06
-1.7393e-05
-4.24666e-06
-1.59886e-05
-5.17114e-07
-1.45143e-05
2.91189e-06
-1.29882e-05
6.02705e-06
-1.14289e-05
8.81852e-06
-9.85494e-06
1.128e-05
-8.28459e-06
1.34087e-05
-6.73552e-06
1.52056e-05
-5.22439e-06
1.66748e-05
-3.76656e-06
1.78241e-05
-2.37577e-06
1.86641e-05
-1.06398e-06
1.92085e-05
1.58831e-07
1.94734e-05
1.28484e-06
1.94769e-05
2.30826e-06
1.92392e-05
3.22544e-06
1.87817e-05
4.0347e-06
1.81268e-05
4.73609e-06
1.72976e-05
5.33116e-06
1.63177e-05
5.82252e-06
1.52106e-05
6.21344e-06
1.39998e-05
6.50727e-06
1.27086e-05
6.70693e-06
1.13602e-05
6.81429e-06
9.9779e-06
6.82958e-06
8.58485e-06
6.75092e-06
7.20481e-06
6.57398e-06
5.86222e-06
6.29191e-06
4.58264e-06
5.89555e-06
3.39328e-06
5.37428e-06
2.32364e-06
4.71732e-06
1.40668e-06
3.91592e-06
6.80547e-07
2.96612e-06
1.91521e-07
1.87216e-06
6.52521e-07
1.03945e-07
-5.72227e-07
3.46828e-07
-1.44334e-06
6.74446e-07
-2.06571e-06
1.04283e-06
-2.46198e-06
1.41549e-06
-2.6553e-06
1.76188e-06
-2.66982e-06
2.05636e-06
-2.52998e-06
2.27744e-06
-2.25973e-06
2.40717e-06
-1.88184e-06
2.43077e-06
-1.4174e-06
2.33617e-06
-8.85346e-07
2.11366e-06
-3.0222e-07
1.75548e-06
3.18047e-07
1.25546e-06
9.64198e-07
6.08665e-07
1.62763e-06
-1.89016e-07
2.30227e-06
-1.14113e-06
2.98441e-06
-2.25095e-06
3.67237e-06
-3.52172e-06
4.3662e-06
-4.95674e-06
5.06728e-06
-6.55952e-06
5.77788e-06
-8.33371e-06
6.50077e-06
-1.02831e-05
7.23876e-06
-1.24114e-05
7.99438e-06
-1.47223e-05
8.76952e-06
-1.72188e-05
9.56519e-06
-1.99035e-05
1.03814e-05
-2.2778e-05
1.12168e-05
-2.58426e-05
1.2069e-05
-2.90965e-05
1.29343e-05
-3.2537e-05
1.38079e-05
-3.61599e-05
1.46838e-05
-3.99589e-05
1.55551e-05
-4.39255e-05
1.64139e-05
-4.80493e-05
1.72518e-05
-5.23177e-05
1.80597e-05
-5.6716e-05
1.8828e-05
-6.12274e-05
1.9547e-05
-6.5833e-05
2.02068e-05
-7.05126e-05
2.07977e-05
-7.52439e-05
2.131e-05
-8.00036e-05
2.17346e-05
-8.47673e-05
2.20629e-05
-8.95098e-05
2.22871e-05
-9.42054e-05
2.24e-05
-9.88283e-05
2.23956e-05
-0.000103353
2.22687e-05
-0.000107754
2.20154e-05
-0.000112006
2.16328e-05
-0.000116087
2.11192e-05
-0.000119972
2.04741e-05
-0.000123642
1.9698e-05
-0.000127075
1.87927e-05
-0.000130254
1.77609e-05
-0.00013316
1.66063e-05
-0.00013578
1.53335e-05
-0.000138098
1.39482e-05
-0.000140103
1.24566e-05
-0.000141783
1.08657e-05
-0.00014313
9.18349e-06
-0.000144136
7.41817e-06
-0.000144794
5.57879e-06
-0.0001451
3.67488e-06
-0.00014505
1.71654e-06
-0.000144642
-2.85338e-07
-0.000143875
-2.32078e-06
-0.00014275
-4.37725e-06
-0.000141268
-6.44306e-06
-0.000139433
-8.50587e-06
-0.000137249
-1.05529e-05
-0.000134723
-1.2571e-05
-0.000131861
-1.45468e-05
-0.000128673
-1.64666e-05
-0.00012517
-1.83165e-05
-0.000121364
-2.00825e-05
-0.000117269
-2.17507e-05
-0.000112901
-2.33073e-05
-0.000108278
-2.47388e-05
-0.000103419
-2.60321e-05
-9.83462e-05
-2.7175e-05
-9.30825e-05
-2.81558e-05
-8.76531e-05
-2.89641e-05
-8.20848e-05
-2.95906e-05
-7.64061e-05
-3.00279e-05
-7.06467e-05
-3.02698e-05
-6.48377e-05
-3.03124e-05
-5.90112e-05
-3.01537e-05
-5.32e-05
-2.97942e-05
-4.74372e-05
-2.92366e-05
-4.1756e-05
-2.84861e-05
-3.61892e-05
-2.75505e-05
-3.07691e-05
-2.64398e-05
-2.55266e-05
-2.51666e-05
-2.04912e-05
-2.37456e-05
-1.56906e-05
-2.21936e-05
-1.11501e-05
-2.05291e-05
-6.89238e-06
-1.8772e-05
-2.93725e-06
-1.69434e-05
6.98712e-07
-1.50649e-05
4.00233e-06
-1.31586e-05
6.96397e-06
-1.12462e-05
9.57768e-06
-9.34923e-06
1.18412e-05
-7.48789e-06
1.37558e-05
-5.68122e-06
1.53266e-05
-3.94654e-06
1.65618e-05
-2.2992e-06
1.7473e-05
-7.52353e-07
1.80746e-05
6.83243e-07
1.83836e-05
1.99925e-06
1.84193e-05
3.18975e-06
1.82028e-05
4.2512e-06
1.77567e-05
5.18216e-06
1.71049e-05
5.98305e-06
1.62717e-05
6.65569e-06
1.52823e-05
7.20285e-06
1.41619e-05
7.62761e-06
1.29361e-05
7.93278e-06
1.16302e-05
8.12016e-06
1.02699e-05
8.18991e-06
8.88086e-06
8.13994e-06
7.48933e-06
7.96551e-06
6.12222e-06
7.65902e-06
4.80765e-06
7.21012e-06
3.5756e-06
6.60633e-06
2.4588e-06
5.83411e-06
1.49423e-06
4.88049e-06
7.25187e-07
3.73516e-06
2.04468e-07
2.39288e-06
8.56989e-07
9.77252e-08
-6.69952e-07
3.2232e-07
-1.66793e-06
6.18815e-07
-2.3622e-06
9.42288e-07
-2.78546e-06
1.25553e-06
-2.96855e-06
1.52763e-06
-2.94191e-06
1.73281e-06
-2.73516e-06
1.84959e-06
-2.3765e-06
1.86008e-06
-1.89234e-06
1.74951e-06
-1.30682e-06
1.50569e-06
-6.41524e-07
1.11864e-06
8.48239e-08
5.80217e-07
8.56475e-07
-1.16315e-07
1.66073e-06
-9.76583e-07
2.4879e-06
-2.00545e-06
3.33115e-06
-3.20731e-06
4.18627e-06
-4.58628e-06
5.05134e-06
-6.14642e-06
5.92634e-06
-7.89179e-06
6.81265e-06
-9.8265e-06
7.71259e-06
-1.19547e-05
8.62892e-06
-1.42802e-05
9.56433e-06
-1.68069e-05
1.0521e-05
-1.95378e-05
1.15004e-05
-2.24754e-05
1.25028e-05
-2.5621e-05
1.35269e-05
-2.89746e-05
1.45704e-05
-3.25348e-05
1.56292e-05
-3.62983e-05
1.66978e-05
-4.02598e-05
1.77694e-05
-4.44118e-05
1.88358e-05
-4.87447e-05
1.9888e-05
-5.32466e-05
2.09158e-05
-5.79031e-05
2.19084e-05
-6.26978e-05
2.28544e-05
-6.76119e-05
2.37421e-05
-7.26248e-05
2.45599e-05
-7.77141e-05
2.52961e-05
-8.28559e-05
2.59394e-05
-8.80248e-05
2.64789e-05
-9.31949e-05
2.69047e-05
-9.83395e-05
2.72075e-05
-0.000103432
2.73793e-05
-0.000108445
2.74129e-05
-0.000113352
2.73028e-05
-0.000118128
2.70446e-05
-0.000122747
2.66351e-05
-0.000127187
2.60726e-05
-0.000131425
2.53569e-05
-0.000135439
2.44887e-05
-0.000139212
2.34704e-05
-0.000142724
2.2305e-05
-0.00014596
2.09971e-05
-0.000148906
1.95518e-05
-0.000151548
1.79755e-05
-0.000153875
1.62752e-05
-0.000155877
1.44587e-05
-0.000157546
1.25343e-05
-0.000158873
1.05112e-05
-0.000159854
8.39893e-06
-0.000160483
6.20765e-06
-0.000160756
3.948e-06
-0.000160671
1.63117e-06
-0.000160225
-7.31218e-07
-0.000159418
-3.12747e-06
-0.000158251
-5.54464e-06
-0.000156724
-7.9698e-06
-0.00015484
-1.03895e-05
-0.000152603
-1.27898e-05
-0.000150018
-1.51564e-05
-0.00014709
-1.74746e-05
-0.000143828
-1.97292e-05
-0.000140239
-2.19049e-05
-0.000136335
-2.39862e-05
-0.000132129
-2.59574e-05
-0.000127633
-2.7803e-05
-0.000122864
-2.95075e-05
-0.00011784
-3.1056e-05
-0.000112581
-3.24342e-05
-0.000107109
-3.36284e-05
-0.000101446
-3.46263e-05
-9.56204e-05
-3.54166e-05
-8.96583e-05
-3.599e-05
-8.35895e-05
-3.63385e-05
-7.7445e-05
-3.64568e-05
-7.12572e-05
-3.63416e-05
-6.50594e-05
-3.5992e-05
-5.88858e-05
-3.54103e-05
-5.27708e-05
-3.46011e-05
-4.67492e-05
-3.35721e-05
-4.0855e-05
-3.23339e-05
-3.51217e-05
-3.08999e-05
-2.95813e-05
-2.9286e-05
-2.42642e-05
-2.75107e-05
-1.91988e-05
-2.55945e-05
-1.44109e-05
-2.35599e-05
-9.92355e-06
-2.14307e-05
-5.7567e-06
-1.92317e-05
-1.92685e-06
-1.69884e-05
1.55307e-06
-1.47262e-05
4.67384e-06
-1.247e-05
7.43003e-06
-1.02441e-05
9.82002e-06
-8.07121e-06
1.18459e-05
-5.97246e-06
1.35135e-05
-3.96681e-06
1.48321e-05
-2.07088e-06
1.5814e-05
-2.98689e-07
1.64748e-05
1.33851e-06
1.68324e-05
2.83214e-06
1.69072e-05
4.17635e-06
1.67216e-05
5.36779e-06
1.62994e-05
6.40528e-06
1.56656e-05
7.28944e-06
1.48464e-05
8.02211e-06
1.38682e-05
8.60576e-06
1.27582e-05
9.04275e-06
1.15438e-05
9.33459e-06
1.02526e-05
9.48115e-06
8.91246e-06
9.48004e-06
7.55197e-06
9.326e-06
6.2004e-06
9.01059e-06
4.88834e-06
8.52217e-06
3.64846e-06
7.84621e-06
2.51651e-06
6.96606e-06
1.53293e-06
5.86407e-06
7.45034e-07
4.52305e-06
2.10024e-07
2.92789e-06
1.06701e-06
8.80936e-08
-7.58046e-07
2.851e-07
-1.86494e-06
5.36527e-07
-2.61363e-06
7.97659e-07
-3.04659e-06
1.03152e-06
-3.20241e-06
1.20753e-06
-3.11792e-06
1.30032e-06
-2.82795e-06
1.28883e-06
-2.36501e-06
1.15554e-06
-1.75906e-06
8.85899e-07
-1.03718e-06
4.67792e-07
-2.23417e-07
-1.08868e-07
6.61484e-07
-8.52541e-07
1.60015e-06
-1.77042e-06
2.5786e-06
-2.86873e-06
3.58621e-06
-4.15305e-06
4.61547e-06
-5.62852e-06
5.66174e-06
-7.30004e-06