/*--------------------------------*- C++ -*----------------------------------*\
| =========                 |                                                 |
| \\      /  F ield         | OpenFOAM: The Open Source CFD Toolbox           |
|  \\    /   O peration     | Version:  2112                                  |
|   \\  /    A nd           | Website:  www.openfoam.com                      |
|    \\/     M anipulation  |                                                 |
\*---------------------------------------------------------------------------*/
FoamFile
{
    version     2.0;
    format      ascii;
    arch        "LSB;label=32;scalar=64";
    class       volVectorField;
    location    "40";
    object      U;
}
// * * * * * * * * * * * * * * * * * * * * * * * * * * * * * * * * * * * * * //

dimensions      [0 1 -1 0 0 0 0];

internalField   nonuniform List<vector> 
16641
(
(-7.97149e-06 7.67378e-06 0)
(2.59465e-06 -6.58501e-06 0)
(5.99035e-05 -2.26204e-05 0)
(0.000151893 -3.39361e-05 0)
(0.000267268 -4.06185e-05 0)
(0.000395663 -4.36259e-05 0)
(0.000528359 -4.38854e-05 0)
(0.00065853 -4.21684e-05 0)
(0.000781036 -3.90722e-05 0)
(0.000892142 -3.50566e-05 0)
(0.000989257 -3.04802e-05 0)
(0.00107073 -2.56232e-05 0)
(0.00113568 -2.07006e-05 0)
(0.00118378 -1.58708e-05 0)
(0.00121518 -1.12432e-05 0)
(0.0012303 -6.88347e-06 0)
(0.00122973 -2.81911e-06 0)
(0.00121415 9.56418e-07 0)
(0.0011842 4.47337e-06 0)
(0.00114041 7.78278e-06 0)
(0.00108317 1.09503e-05 0)
(0.00101266 1.405e-05 0)
(0.000928871 1.71589e-05 0)
(0.000831555 2.03523e-05 0)
(0.000720268 2.37004e-05 0)
(0.000594372 2.72649e-05 0)
(0.000453072 3.10977e-05 0)
(0.000295448 3.52395e-05 0)
(0.000120487 3.97196e-05 0)
(-7.28726e-05 4.45565e-05 0)
(-0.000285713 4.97587e-05 0)
(-0.000519097 5.53252e-05 0)
(-0.000774041 6.12471e-05 0)
(-0.00105148 6.7508e-05 0)
(-0.00135226 7.40846e-05 0)
(-0.00167707 8.09469e-05 0)
(-0.00202648 8.80587e-05 0)
(-0.00240085 9.53769e-05 0)
(-0.00280039 0.000102852 0)
(-0.00322503 0.000110426 0)
(-0.00367451 0.000118036 0)
(-0.00414827 0.000125609 0)
(-0.00464549 0.000133066 0)
(-0.00516504 0.00014032 0)
(-0.00570548 0.000147278 0)
(-0.00626502 0.00015384 0)
(-0.00684155 0.0001599 0)
(-0.0074326 0.000165349 0)
(-0.00803537 0.000170072 0)
(-0.00864669 0.000173955 0)
(-0.00926308 0.000176881 0)
(-0.00988071 0.000178735 0)
(-0.0104955 0.000179406 0)
(-0.0111029 0.000178786 0)
(-0.0116985 0.000176775 0)
(-0.0122772 0.000173281 0)
(-0.012834 0.000168223 0)
(-0.0133638 0.000161533 0)
(-0.0138612 0.000153158 0)
(-0.014321 0.000143064 0)
(-0.0147379 0.000131232 0)
(-0.0151067 0.000117669 0)
(-0.0154223 0.0001024 0)
(-0.0156801 8.54796e-05 0)
(-0.0158755 6.70016e-05 0)
(-0.0160044 4.70854e-05 0)
(-0.0160633 2.58338e-05 0)
(-0.0160488 3.47477e-06 0)
(-0.0159582 -1.99395e-05 0)
(-0.0157898 -4.41205e-05 0)
(-0.0155424 -6.8804e-05 0)
(-0.0152157 -9.37223e-05 0)
(-0.01481 -0.000118586 0)
(-0.0143267 -0.000143088 0)
(-0.0137679 -0.000166905 0)
(-0.0131369 -0.000189707 0)
(-0.0124377 -0.000211163 0)
(-0.0116753 -0.000230944 0)
(-0.0108555 -0.000248734 0)
(-0.00998513 -0.000264239 0)
(-0.00907162 -0.000277189 0)
(-0.00812313 -0.000287354 0)
(-0.00714838 -0.000294543 0)
(-0.00615654 -0.000298616 0)
(-0.00515708 -0.000299489 0)
(-0.00415963 -0.000297136 0)
(-0.0031738 -0.000291595 0)
(-0.00220903 -0.000282964 0)
(-0.00127439 -0.000271404 0)
(-0.00037842 -0.000257142 0)
(0.000470904 -0.000240492 0)
(0.00126646 -0.000221678 0)
(0.00200217 -0.000201127 0)
(0.00267285 -0.000179216 0)
(0.00327447 -0.000156346 0)
(0.00380413 -0.000132924 0)
(0.00426013 -0.000109352 0)
(0.0046419 -8.60179e-05 0)
(0.00494999 -6.32786e-05 0)
(0.00518598 -4.14579e-05 0)
(0.00535242 -2.0837e-05 0)
(0.00545269 -1.64972e-06 0)
(0.00549088 1.59205e-05 0)
(0.00547168 3.17405e-05 0)
(0.00540019 4.5731e-05 0)
(0.0052818 5.786e-05 0)
(0.00512207 6.81404e-05 0)
(0.00492658 7.66261e-05 0)
(0.00470081 8.34062e-05 0)
(0.00445001 8.85992e-05 0)
(0.00417918 9.23463e-05 0)
(0.00389293 9.48047e-05 0)
(0.00359545 9.61403e-05 0)
(0.00329052 9.65201e-05 0)
(0.00298145 9.61028e-05 0)
(0.00267116 9.50295e-05 0)
(0.00236222 9.34107e-05 0)
(0.00205698 9.13129e-05 0)
(0.00175766 8.87406e-05 0)
(0.00146662 8.56157e-05 0)
(0.00118654 8.17521e-05 0)
(0.000920781 7.68259e-05 0)
(0.000673678 7.03436e-05 0)
(0.00045095 6.16161e-05 0)
(0.000260006 4.97854e-05 0)
(0.000109852 3.40341e-05 0)
(1.00304e-05 1.42451e-05 0)
(-3.16335e-05 -7.09809e-06 0)
(-1.85717e-05 -1.86215e-05 0)
(6.335e-06 -2.95399e-06 0)
(7.35741e-05 -7.39827e-05 0)
(0.000235844 -0.000145196 0)
(0.000467486 -0.000198221 0)
(0.000746836 -0.000231587 0)
(0.00105391 -0.000247539 0)
(0.00137017 -0.000249169 0)
(0.00167991 -0.000239565 0)
(0.00197056 -0.000221475 0)
(0.00223241 -0.00019724 0)
(0.00245836 -0.000168821 0)
(0.00264347 -0.000137824 0)
(0.00278465 -0.000105534 0)
(0.00288028 -7.29363e-05 0)
(0.00292986 -4.07411e-05 0)
(0.00293368 -9.41029e-06 0)
(0.00289252 2.08161e-05 0)
(0.00280742 4.98882e-05 0)
(0.00267939 7.79139e-05 0)
(0.0025093 0.000105125 0)
(0.00229769 0.000131845 0)
(0.00204467 0.00015845 0)
(0.00174991 0.000185344 0)
(0.00141258 0.000212924 0)
(0.00103138 0.000241562 0)
(0.000604622 0.000271584 0)
(0.000130235 0.000303257 0)
(-0.000394099 0.000336782 0)
(-0.000970869 0.000372288 0)
(-0.00160264 0.000409837 0)
(-0.00229196 0.00044942 0)
(-0.00304125 0.000490967 0)
(-0.00385275 0.000534347 0)
(-0.00472839 0.000579378 0)
(-0.00566976 0.000625822 0)
(-0.00667801 0.000673398 0)
(-0.0077538 0.000721777 0)
(-0.00889722 0.000770584 0)
(-0.0101077 0.000819404 0)
(-0.0113842 0.000867775 0)
(-0.0127246 0.000915198 0)
(-0.0141262 0.000961134 0)
(-0.0155856 0.00100501 0)
(-0.0170984 0.00104621 0)
(-0.0186594 0.00108412 0)
(-0.0202624 0.00111807 0)
(-0.0219005 0.00114741 0)
(-0.0235658 0.00117147 0)
(-0.0252496 0.00118957 0)
(-0.0269423 0.00120109 0)
(-0.0286338 0.00120538 0)
(-0.0303129 0.00120186 0)
(-0.0319681 0.00118998 0)
(-0.0335872 0.00116925 0)
(-0.0351576 0.00113925 0)
(-0.0366664 0.00109961 0)
(-0.0381005 0.00105008 0)
(-0.0394467 0.000990481 0)
(-0.0406917 0.00092074 0)
(-0.0418226 0.000840897 0)
(-0.0428267 0.000751108 0)
(-0.043692 0.00065165 0)
(-0.044407 0.000542929 0)
(-0.0449608 0.000425493 0)
(-0.0453439 0.000300056 0)
(-0.0455477 0.000167405 0)
(-0.0455648 2.8159e-05 0)
(-0.0453891 -0.000115945 0)
(-0.045016 -0.000264098 0)
(-0.0444429 -0.000414962 0)
(-0.0436687 -0.000567068 0)
(-0.0426944 -0.000718877 0)
(-0.0415227 -0.00086877 0)
(-0.0401583 -0.00101507 0)
(-0.0386082 -0.00115605 0)
(-0.0368812 -0.00128998 0)
(-0.0349882 -0.00141513 0)
(-0.0329421 -0.00152984 0)
(-0.0307577 -0.00163251 0)
(-0.0284516 -0.00172165 0)
(-0.0260419 -0.00179593 0)
(-0.0235482 -0.00185419 0)
(-0.0209913 -0.0018955 0)
(-0.0183929 -0.00191916 0)
(-0.0157755 -0.00192475 0)
(-0.0131617 -0.00191213 0)
(-0.0105742 -0.00188148 0)
(-0.00803542 -0.00183327 0)
(-0.00556701 -0.0017683 0)
(-0.00318956 -0.00168765 0)
(-0.000922329 -0.00159274 0)
(0.00121708 -0.00148508 0)
(0.0032131 -0.00136651 0)
(0.00505241 -0.00123905 0)
(0.00672401 -0.0011048 0)
(0.00821948 -0.000965936 0)
(0.00953305 -0.000824632 0)
(0.0106616 -0.00068303 0)
(0.0116045 -0.000543178 0)
(0.0123639 -0.00040698 0)
(0.012944 -0.000276157 0)
(0.0133514 -0.000152215 0)
(0.0135945 -3.64155e-05 0)
(0.0136833 7.0237e-05 0)
(0.0136293 0.000167007 0)
(0.0134447 0.000253428 0)
(0.0131426 0.000329284 0)
(0.0127365 0.000394601 0)
(0.0122397 0.000449626 0)
(0.0116658 0.000494792 0)
(0.0110273 0.000530689 0)
(0.0103366 0.000558023 0)
(0.00960504 0.000577577 0)
(0.00884318 0.000590159 0)
(0.00806064 0.000596551 0)
(0.00726621 0.000597445 0)
(0.00646797 0.000593379 0)
(0.00567349 0.000584653 0)
(0.00489019 0.000571253 0)
(0.00412573 0.000552752 0)
(0.0033885 0.000528233 0)
(0.00268822 0.000496206 0)
(0.00203641 0.000454591 0)
(0.00144692 0.000400797 0)
(0.000935964 0.000332112 0)
(0.000521253 0.000246796 0)
(0.000219294 0.00014644 0)
(4.23786e-05 4.1415e-05 0)
(-6.80993e-06 -3.17002e-05 0)
(2.24106e-05 -5.98356e-05 0)
(0.000145013 -0.00023614 0)
(0.000397542 -0.000397327 0)
(0.000737509 -0.000518618 0)
(0.00113542 -0.000596248 0)
(0.00156598 -0.000633317 0)
(0.00200503 -0.00063549 0)
(0.00243135 -0.000609145 0)
(0.00282739 -0.000560435 0)
(0.00317919 -0.000494916 0)
(0.00347609 -0.000417418 0)
(0.00371038 -0.000332015 0)
(0.00387683 -0.000242031 0)
(0.0039723 -0.000150067 0)
(0.00399522 -5.80418e-05 0)
(0.00394518 3.27568e-05 0)
(0.00382254 0.000121606 0)
(0.00362803 0.000208277 0)
(0.00336246 0.000292956 0)
(0.00302644 0.000376157 0)
(0.00262021 0.000458631 0)
(0.00214348 0.000541283 0)
(0.00159535 0.000625084 0)
(0.000974294 0.000711002 0)
(0.000278195 0.000799938 0)
(-0.000495593 0.000892673 0)
(-0.00135014 0.000989833 0)
(-0.0022888 0.00109187 0)
(-0.00331511 0.00119903 0)
(-0.00443258 0.00131138 0)
(-0.00564462 0.00142879 0)
(-0.00695431 0.00155096 0)
(-0.00836434 0.0016774 0)
(-0.00987684 0.00180749 0)
(-0.0114933 0.00194043 0)
(-0.0132143 0.0020753 0)
(-0.0150396 0.00221107 0)
(-0.0169682 0.00234654 0)
(-0.0189977 0.00248044 0)
(-0.0211247 0.00261136 0)
(-0.0233446 0.00273781 0)
(-0.0256516 0.00285819 0)
(-0.0280385 0.00297086 0)
(-0.0304969 0.00307409 0)
(-0.033017 0.00316613 0)
(-0.0355876 0.00324519 0)
(-0.0381966 0.00330952 0)
(-0.0408302 0.00335737 0)
(-0.0434738 0.00338706 0)
(-0.0461116 0.00339699 0)
(-0.0487271 0.00338566 0)
(-0.0513025 0.00335171 0)
(-0.05382 0.00329394 0)
(-0.0562606 0.00321135 0)
(-0.0586056 0.00310312 0)
(-0.0608357 0.00296868 0)
(-0.0629318 0.00280768 0)
(-0.0648751 0.00262008 0)
(-0.0666471 0.00240607 0)
(-0.06823 0.00216616 0)
(-0.0696068 0.00190114 0)
(-0.0707615 0.00161214 0)
(-0.0716793 0.00130058 0)
(-0.0723468 0.000968196 0)
(-0.0727523 0.000617116 0)
(-0.072886 0.000249703 0)
(-0.0727393 -0.000132123 0)
(-0.0723058 -0.000524336 0)
(-0.071582 -0.000924066 0)
(-0.0705662 -0.00132799 0)
(-0.0692593 -0.00173243 0)
(-0.0676644 -0.00213352 0)
(-0.0657875 -0.00252725 0)
(-0.063637 -0.0029095 0)
(-0.0612238 -0.00327611 0)
(-0.0585618 -0.00362293 0)
(-0.0556671 -0.00394585 0)
(-0.0525584 -0.00424093 0)
(-0.0492567 -0.00450442 0)
(-0.0457852 -0.00473283 0)
(-0.0421691 -0.00492306 0)
(-0.0384355 -0.00507242 0)
(-0.0346127 -0.00517872 0)
(-0.0307304 -0.00524031 0)
(-0.0268192 -0.00525621 0)
(-0.02291 -0.00522606 0)
(-0.0190337 -0.00515021 0)
(-0.0152212 -0.00502972 0)
(-0.0115022 -0.0048664 0)
(-0.00790549 -0.00466271 0)
(-0.00445816 -0.00442182 0)
(-0.00118522 -0.00414746 0)
(0.00189068 -0.00384387 0)
(0.00474964 -0.00351578 0)
(0.00737481 -0.00316829 0)
(0.00975259 -0.00280664 0)
(0.0118728 -0.00243621 0)
(0.0137287 -0.00206235 0)
(0.0153173 -0.00169025 0)
(0.0166387 -0.00132484 0)
(0.0176968 -0.000970676 0)
(0.0184983 -0.000631855 0)
(0.0190529 -0.000311921 0)
(0.0193728 -1.38212e-05 0)
(0.0194723 0.000260134 0)
(0.0193678 0.000508287 0)
(0.0190766 0.000729624 0)
(0.0186172 0.000923751 0)
(0.0180086 0.00109085 0)
(0.0172697 0.00123163 0)
(0.0164193 0.00134722 0)
(0.0154758 0.00143911 0)
(0.0144564 0.001509 0)
(0.0133776 0.00155873 0)
(0.0122549 0.00159009 0)
(0.0111025 0.00160469 0)
(0.0099341 0.00160378 0)
(0.00876249 0.00158803 0)
(0.00760036 0.00155741 0)
(0.00646062 0.00151092 0)
(0.00535703 0.0014465 0)
(0.00430478 0.00136091 0)
(0.00332102 0.00124986 0)
(0.0024252 0.00110841 0)
(0.00163898 0.000932078 0)
(0.000984794 0.000719159 0)
(0.000482656 0.000474946 0)
(0.000151446 0.000219654 0)
(1.55329e-05 1.1334e-05 0)
(3.39206e-05 -0.000151718 0)
(0.00019909 -0.000468369 0)
(0.000521351 -0.00073775 0)
(0.00094077 -0.000936943 0)
(0.00142016 -0.00106268 0)
(0.00193018 -0.00111984 0)
(0.00244299 -0.00111704 0)
(0.00293389 -0.00106423 0)
(0.00338213 -0.000971365 0)
(0.00377084 -0.000847698 0)
(0.00408681 -0.000701457 0)
(0.00432014 -0.000539706 0)
(0.0044638 -0.000368292 0)
(0.00451312 -0.000191855 0)
(0.00446534 -1.38613e-05 0)
(0.00431907 0.000163313 0)
(0.00407383 0.000338284 0)
(0.00372966 0.000510547 0)
(0.00328674 0.000680327 0)
(0.00274505 0.000848437 0)
(0.00210417 0.00101612 0)
(0.00136314 0.00118488 0)
(0.000520318 0.00135635 0)
(-0.000426592 0.00153217 0)
(-0.00148052 0.00171382 0)
(-0.00264491 0.0019026 0)
(-0.00392362 0.00209948 0)
(-0.00532072 0.00230512 0)
(-0.00684034 0.00251981 0)
(-0.00848644 0.00274349 0)
(-0.0102627 0.00297573 0)
(-0.0121721 0.00321573 0)
(-0.014217 0.0034624 0)
(-0.016399 0.00371432 0)
(-0.0187186 0.0039698 0)
(-0.0211749 0.00422689 0)
(-0.0237659 0.00448339 0)
(-0.0264881 0.00473687 0)
(-0.0293367 0.00498471 0)
(-0.0323049 0.00522411 0)
(-0.0353847 0.00545209 0)
(-0.0385661 0.00566557 0)
(-0.0418375 0.00586136 0)
(-0.0451857 0.00603622 0)
(-0.0485959 0.00618689 0)
(-0.0520516 0.00631014 0)
(-0.0555349 0.00640282 0)
(-0.0590266 0.00646189 0)
(-0.0625063 0.0064845 0)
(-0.0659524 0.00646801 0)
(-0.0693428 0.00641005 0)
(-0.0726544 0.00630856 0)
(-0.0758638 0.00616182 0)
(-0.0789476 0.0059685 0)
(-0.0818821 0.00572769 0)
(-0.084644 0.00543893 0)
(-0.0872104 0.00510221 0)
(-0.0895594 0.004718 0)
(-0.0916696 0.0042873 0)
(-0.093521 0.00381158 0)
(-0.095095 0.00329283 0)
(-0.0963743 0.00273355 0)
(-0.0973435 0.00213675 0)
(-0.097989 0.00150591 0)
(-0.0982992 0.000844842 0)
(-0.0982659 0.000158021 0)
(-0.0978809 -0.000548265 0)
(-0.0971389 -0.00127023 0)
(-0.0960392 -0.00200195 0)
(-0.094582 -0.00273725 0)
(-0.0927705 -0.00346976 0)
(-0.0906108 -0.00419287 0)
(-0.0881116 -0.00489978 0)
(-0.0852845 -0.00558358 0)
(-0.0821439 -0.00623732 0)
(-0.0787068 -0.00685412 0)
(-0.0749931 -0.0074272 0)
(-0.0710251 -0.00795008 0)
(-0.0668276 -0.00841659 0)
(-0.0624279 -0.00882104 0)
(-0.0578552 -0.00915832 0)
(-0.0531408 -0.009424 0)
(-0.0483173 -0.00961446 0)
(-0.043419 -0.00972698 0)
(-0.0384809 -0.00975981 0)
(-0.0335388 -0.00971229 0)
(-0.0286285 -0.00958487 0)
(-0.0237857 -0.00937915 0)
(-0.0190456 -0.00909791 0)
(-0.014442 -0.00874509 0)
(-0.0100073 -0.00832571 0)
(-0.00577184 -0.00784583 0)
(-0.00176346 -0.00731244 0)
(0.0019927 -0.00673329 0)
(0.00547474 -0.0061168 0)
(0.00866438 -0.00547186 0)
(0.0115469 -0.00480759 0)
(0.0141116 -0.00413321 0)
(0.0163518 -0.00345777 0)
(0.0182647 -0.00279001 0)
(0.0198517 -0.00213815 0)
(0.0211178 -0.0015097 0)
(0.0220716 -0.000911344 0)
(0.0227253 -0.000348816 0)
(0.0230937 0.000173204 0)
(0.0231942 0.000651115 0)
(0.0230462 0.00108244 0)
(0.0226709 0.00146579 0)
(0.0220903 0.0018008 0)
(0.0213274 0.00208806 0)
(0.0204049 0.00232897 0)
(0.0193457 0.00252561 0)
(0.018172 0.00268054 0)
(0.0169051 0.00279661 0)
(0.0155655 0.00287664 0)
(0.0141726 0.00292324 0)
(0.012745 0.00293844 0)
(0.0113007 0.00292339 0)
(0.00985738 0.00287806 0)
(0.0084328 0.00280093 0)
(0.00704556 0.00268882 0)
(0.00571549 0.00253682 0)
(0.00446419 0.00233859 0)
(0.00331529 0.0020871 0)
(0.00229441 0.00177636 0)
(0.00142774 0.00140471 0)
(0.000739292 0.000979985 0)
(0.000258219 0.000528265 0)
(3.70201e-05 0.000115818 0)
(4.10684e-05 -0.000267864 0)
(0.000234654 -0.000750153 0)
(0.000603881 -0.00113833 0)
(0.00107418 -0.00141754 0)
(0.00160129 -0.00158838 0)
(0.00215223 -0.00165914 0)
(0.0026964 -0.00164206 0)
(0.00320675 -0.00155099 0)
(0.00366047 -0.00139986 0)
(0.0040388 -0.00120177 0)
(0.00432676 -0.000968554 0)
(0.00451284 -0.000710478 0)
(0.00458851 -0.000436126 0)
(0.00454779 -0.00015237 0)
(0.00438668 0.000135598 0)
(0.00410269 0.000424174 0)
(0.00369433 0.000711214 0)
(0.00316069 0.000995863 0)
(0.00250101 0.00127835 0)
(0.0017144 0.00155977 0)
(0.000799549 0.00184185 0)
(-0.000245372 0.00212672 0)
(-0.00142284 0.00241668 0)
(-0.00273595 0.00271399 0)
(-0.00418838 0.00302071 0)
(-0.00578423 0.00333856 0)
(-0.00752787 0.00366878 0)
(-0.00942373 0.0040121 0)
(-0.0114761 0.00436866 0)
(-0.0136888 0.00473803 0)
(-0.016065 0.00511921 0)
(-0.0186072 0.00551062 0)
(-0.0213166 0.0059102 0)
(-0.0241932 0.00631537 0)
(-0.0272356 0.00672313 0)
(-0.0304407 0.00713005 0)
(-0.0338037 0.00753237 0)
(-0.0373179 0.00792596 0)
(-0.0409747 0.00830643 0)
(-0.0447635 0.00866915 0)
(-0.0486718 0.00900928 0)
(-0.0526849 0.00932187 0)
(-0.0567864 0.00960191 0)
(-0.0609577 0.00984437 0)
(-0.0651788 0.0100443 0)
(-0.0694279 0.0101969 0)
(-0.0736817 0.0102976 0)
(-0.0779158 0.010342 0)
(-0.0821048 0.0103264 0)
(-0.0862224 0.0102471 0)
(-0.090242 0.0101013 0)
(-0.0941366 0.00988644 0)
(-0.0978792 0.00960072 0)
(-0.101443 0.00924293 0)
(-0.104802 0.00881254 0)
(-0.107931 0.00830971 0)
(-0.110806 0.00773529 0)
(-0.113403 0.00709085 0)
(-0.115701 0.00637868 0)
(-0.117679 0.00560175 0)
(-0.11932 0.00476375 0)
(-0.120608 0.00386905 0)
(-0.121527 0.00292267 0)
(-0.122066 0.00193026 0)
(-0.122216 0.000897937 0)
(-0.121968 -0.00016744 0)
(-0.121318 -0.00125711 0)
(-0.120264 -0.00236471 0)
(-0.118806 -0.00348163 0)
(-0.116946 -0.00459897 0)
(-0.114691 -0.00570759 0)
(-0.112048 -0.00679811 0)
(-0.109029 -0.0078609 0)
(-0.105646 -0.00888628 0)
(-0.101918 -0.00986454 0)
(-0.0978614 -0.010786 0)
(-0.0934992 -0.0116414 0)
(-0.0888555 -0.0124216 0)
(-0.0839569 -0.0131181 0)
(-0.0788322 -0.0137229 0)
(-0.0735126 -0.0142288 0)
(-0.0680311 -0.0146298 0)
(-0.0624225 -0.0149205 0)
(-0.056723 -0.0150971 0)
(-0.05097 -0.015157 0)
(-0.0452015 -0.015099 0)
(-0.0394562 -0.0149234 0)
(-0.0337726 -0.0146323 0)
(-0.0281889 -0.0142292 0)
(-0.0227423 -0.0137192 0)
(-0.0174689 -0.0131092 0)
(-0.0124028 -0.0124072 0)
(-0.00757587 -0.011623 0)
(-0.00301752 -0.0107673 0)
(0.00124613 -0.00985187 0)
(0.00519234 -0.00888917 0)
(0.00880215 -0.00789232 0)
(0.0120605 -0.00687459 0)
(0.0149567 -0.00584925 0)
(0.0174843 -0.00482924 0)
(0.0196409 -0.00382692 0)
(0.0214287 -0.00285379 0)
(0.0228538 -0.00192029 0)
(0.0239263 -0.0010356 0)
(0.0246597 -0.000207482 0)
(0.0250708 0.000557832 0)
(0.0251791 0.00125569 0)
(0.0250064 0.00188303 0)
(0.0245761 0.00243831 0)
(0.0239131 0.00292144 0)
(0.0230428 0.0033336 0)
(0.0219913 0.00367706 0)
(0.0207841 0.00395488 0)
(0.0194465 0.00417065 0)
(0.0180033 0.00432808 0)
(0.0164783 0.00443064 0)
(0.0148947 0.00448111 0)
(0.0132749 0.00448112 0)
(0.0116412 0.00443073 0)
(0.010016 0.00432804 0)
(0.00842198 0.00416897 0)
(0.00688315 0.00394722 0)
(0.00542484 0.00365469 0)
(0.00407422 0.00328254 0)
(0.00286046 0.00282323 0)
(0.00181372 0.00227416 0)
(0.000963147 0.00164301 0)
(0.000349826 0.000955713 0)
(5.46103e-05 0.000274667 0)
(4.48446e-05 -0.000398576 0)
(0.000253879 -0.00106258 0)
(0.000647724 -0.00157482 0)
(0.00114132 -0.00193187 0)
(0.00168459 -0.00214089 0)
(0.00224135 -0.00221524 0)
(0.00277876 -0.00217169 0)
(0.00326815 -0.00202841 0)
(0.00368537 -0.0018035 0)
(0.00401046 -0.00151404 0)
(0.00422729 -0.00117551 0)
(0.00432318 -0.000801439 0)
(0.00428846 -0.000403203 0)
(0.00411601 1.0031e-05 0)
(0.0038007 0.000431293 0)
(0.00333891 0.000855705 0)
(0.00272805 0.00128032 0)
(0.00196609 0.0017039 0)
(0.0010512 0.00212665 0)
(-1.85638e-05 0.00254992 0)
(-0.00124552 0.0029759 0)
(-0.00263245 0.00340727 0)
(-0.00418272 0.00384694 0)
(-0.00590018 0.00429773 0)
(-0.00778912 0.00476214 0)
(-0.00985407 0.00524214 0)
(-0.0120996 0.00573906 0)
(-0.0145301 0.00625344 0)
(-0.0171494 0.006785 0)
(-0.0199608 0.00733264 0)
(-0.0229663 0.00789442 0)
(-0.0261668 0.00846761 0)
(-0.0295617 0.00904875 0)
(-0.0331488 0.0096337 0)
(-0.0369237 0.0102177 0)
(-0.0408801 0.0107954 0)
(-0.0450097 0.0113611 0)
(-0.0493018 0.0119084 0)
(-0.0537433 0.0124309 0)
(-0.058319 0.0129218 0)
(-0.0630114 0.0133741 0)
(-0.0678008 0.0137808 0)
(-0.0726656 0.0141348 0)
(-0.0775821 0.0144292 0)
(-0.0825251 0.0146576 0)
(-0.0874679 0.0148135 0)
(-0.0923828 0.0148912 0)
(-0.0972409 0.0148854 0)
(-0.102013 0.0147915 0)
(-0.10667 0.0146056 0)
(-0.111181 0.0143245 0)
(-0.115518 0.013946 0)
(-0.119652 0.0134686 0)
(-0.123555 0.0128919 0)
(-0.127201 0.0122162 0)
(-0.130563 0.0114429 0)
(-0.133619 0.0105742 0)
(-0.136346 0.00961333 0)
(-0.138723 0.00856427 0)
(-0.140733 0.00743194 0)
(-0.142359 0.00622205 0)
(-0.143587 0.00494112 0)
(-0.144405 0.00359643 0)
(-0.144803 0.00219601 0)
(-0.144774 0.000748611 0)
(-0.144312 -0.000736519 0)
(-0.143416 -0.00225014 0)
(-0.142084 -0.003781 0)
(-0.140319 -0.00531829 0)
(-0.138126 -0.00685073 0)
(-0.135512 -0.00836661 0)
(-0.132485 -0.00985391 0)
(-0.129058 -0.0113004 0)
(-0.125246 -0.0126937 0)
(-0.121065 -0.0140217 0)
(-0.116536 -0.0152719 0)
(-0.11168 -0.0164326 0)
(-0.106521 -0.0174923 0)
(-0.101086 -0.0184399 0)
(-0.0954055 -0.0192655 0)
(-0.0895094 -0.0199598 0)
(-0.0834315 -0.0205146 0)
(-0.0772069 -0.0209232 0)
(-0.0708724 -0.0211803 0)
(-0.0644661 -0.0212822 0)
(-0.0580272 -0.021227 0)
(-0.0515956 -0.0210147 0)
(-0.0452115 -0.0206474 0)
(-0.0389149 -0.0201291 0)
(-0.0327454 -0.0194659 0)
(-0.0267417 -0.018666 0)
(-0.0209409 -0.0177395 0)
(-0.0153782 -0.0166983 0)
(-0.0100863 -0.0155558 0)
(-0.00509544 -0.0143272 0)
(-0.000432225 -0.0130283 0)
(0.00388016 -0.0116762 0)
(0.00782249 -0.0102881 0)
(0.0113797 -0.00888182 0)
(0.0145412 -0.0074745 0)
(0.0173006 -0.00608297 0)
(0.0196563 -0.00472309 0)
(0.0216111 -0.00340949 0)
(0.0231718 -0.00215533 0)
(0.0243495 -0.000972014 0)
(0.0251589 0.000130948 0)
(0.0256182 0.00114606 0)
(0.0257485 0.00206791 0)
(0.025573 0.00289312 0)
(0.0251172 0.00362027 0)
(0.0244078 0.00424971 0)
(0.0234726 0.00478332 0)
(0.0223396 0.0052242 0)
(0.021037 0.00557627 0)
(0.0195929 0.0058438 0)
(0.0180347 0.00603089 0)
(0.0163895 0.00614092 0)
(0.0146838 0.00617595 0)
(0.012944 0.00613619 0)
(0.0111963 0.00601947 0)
(0.00946748 0.00582103 0)
(0.00778511 0.00553344 0)
(0.00617797 0.0051471 0)
(0.00467658 0.00465134 0)
(0.00331376 0.00403664 0)
(0.00212404 0.00329803 0)
(0.00114244 0.00243999 0)
(0.000421826 0.00148309 0)
(6.77931e-05 0.000477615 0)
(4.61085e-05 -0.000535669 0)
(0.00025938 -0.00138772 0)
(0.000657179 -0.00202323 0)
(0.00114813 -0.00245163 0)
(0.00167799 -0.00268844 0)
(0.00220794 -0.00275346 0)
(0.00270349 -0.00266886 0)
(0.00313486 -0.0024576 0)
(0.0034771 -0.00214216 0)
(0.00370956 -0.00174366 0)
(0.00381538 -0.00128122 0)
(0.00378112 -0.00077159 0)
(0.00359625 -0.000228888 0)
(0.00325269 0.000335472 0)
(0.00274429 0.000912776 0)
(0.00206635 0.0014969 0)
(0.00121514 0.0020841 0)
(0.000187477 0.00267276 0)
(-0.00101962 0.00326305 0)
(-0.00240923 0.00385653 0)
(-0.00398472 0.00445578 0)
(-0.00574983 0.00506396 0)
(-0.00770874 0.00568445 0)
(-0.00986595 0.00632043 0)
(-0.0122261 0.00697466 0)
(-0.0147939 0.00764912 0)
(-0.0175738 0.00834491 0)
(-0.0205695 0.00906206 0)
(-0.023784 0.00979952 0)
(-0.0272191 0.0105551 0)
(-0.0308752 0.0113255 0)
(-0.0347508 0.0121064 0)
(-0.0388427 0.0128925 0)
(-0.0431453 0.0136776 0)
(-0.0476509 0.0144548 0)
(-0.0523491 0.0152165 0)
(-0.0572272 0.0159544 0)
(-0.0622697 0.0166599 0)
(-0.0674589 0.017324 0)
(-0.0727744 0.0179376 0)
(-0.0781936 0.0184914 0)
(-0.0836917 0.0189763 0)
(-0.0892422 0.0193833 0)
(-0.0948167 0.019704 0)
(-0.100386 0.0199302 0)
(-0.105918 0.0200545 0)
(-0.111383 0.0200704 0)
(-0.116749 0.0199721 0)
(-0.121984 0.0197549 0)
(-0.127057 0.0194148 0)
(-0.131937 0.0189494 0)
(-0.136595 0.018357 0)
(-0.141002 0.0176374 0)
(-0.14513 0.0167912 0)
(-0.148955 0.0158204 0)
(-0.152452 0.0147279 0)
(-0.155601 0.0135178 0)
(-0.15838 0.0121953 0)
(-0.160772 0.0107663 0)
(-0.162762 0.0092379 0)
(-0.164335 0.00761798 0)
(-0.165481 0.00591524 0)
(-0.166189 0.00413917 0)
(-0.166452 0.00229998 0)
(-0.166266 0.000408667 0)
(-0.165627 -0.00152302 0)
(-0.164533 -0.00348353 0)
(-0.162987 -0.0054597 0)
(-0.160992 -0.00743833 0)
(-0.158552 -0.00940576 0)
(-0.155675 -0.0113479 0)
(-0.15237 -0.0132505 0)
(-0.148651 -0.0150988 0)
(-0.14453 -0.0168782 0)
(-0.140024 -0.0185739 0)
(-0.135152 -0.0201713 0)
(-0.129936 -0.0216561 0)
(-0.124398 -0.0230145 0)
(-0.118564 -0.0242332 0)
(-0.112463 -0.0252997 0)
(-0.106126 -0.0262029 0)
(-0.0995836 -0.0269325 0)
(-0.0928718 -0.0274799 0)
(-0.0860269 -0.0278383 0)
(-0.0790868 -0.0280026 0)
(-0.072091 -0.02797 0)
(-0.06508 -0.0277397 0)
(-0.0580951 -0.0273135 0)
(-0.0511776 -0.0266957 0)
(-0.0443689 -0.0258928 0)
(-0.0377098 -0.024914 0)
(-0.0312398 -0.0237711 0)
(-0.0249972 -0.0224778 0)
(-0.019018 -0.0210502 0)
(-0.0133356 -0.019506 0)
(-0.00798074 -0.0178648 0)
(-0.00298046 -0.016147 0)
(0.00164179 -0.0143742 0)
(0.00586672 -0.012568 0)
(0.00967935 -0.0107502 0)
(0.0130692 -0.00894224 0)
(0.0160305 -0.00716447 0)
(0.0185619 -0.00543604 0)
(0.0206669 -0.00377444 0)
(0.0223531 -0.00219519 0)
(0.0236325 -0.000711615 0)
(0.0245209 0.000665389 0)
(0.0250374 0.00192741 0)
(0.0252045 0.0030686 0)
(0.0250468 0.00408554 0)
(0.0245913 0.00497708 0)
(0.0238665 0.00574414 0)
(0.0229018 0.00638924 0)
(0.0217273 0.00691615 0)
(0.0203736 0.00732924 0)
(0.0188709 0.00763291 0)
(0.0172496 0.00783091 0)
(0.0155395 0.0079256 0)
(0.0137707 0.00791727 0)
(0.0119729 0.00780362 0)
(0.0101765 0.0075793 0)
(0.00841222 0.00723594 0)
(0.00671233 0.00676249 0)
(0.00511067 0.00614634 0)
(0.00364384 0.00537527 0)
(0.00235099 0.00444049 0)
(0.00127311 0.00334072 0)
(0.00047341 0.00208723 0)
(7.68328e-05 0.000713363 0)
(4.54843e-05 -0.000672523 0)
(0.00025343 -0.0017096 0)
(0.00063652 -0.0024612 0)
(0.00110079 -0.00294997 0)
(0.00158949 -0.00320085 0)
(0.00206207 -0.00324101 0)
(0.00248296 -0.00309872 0)
(0.00282182 -0.00280213 0)
(0.00305333 -0.00237829 0)
(0.00315654 -0.00185238 0)
(0.00311426 -0.0012471 0)
(0.00291255 -0.000582305 0)
(0.00254027 0.000125257 0)
(0.00198855 0.000862047 0)
(0.00125035 0.00161771 0)
(0.000319926 0.00238496 0)
(-0.000807554 0.00315931 0)
(-0.00213642 0.00393878 0)
(-0.00367081 0.00472349 0)
(-0.00541491 0.00551517 0)
(-0.00737311 0.00631667 0)
(-0.00955004 0.00713149 0)
(-0.0119505 0.00796328 0)
(-0.0145795 0.00881537 0)
(-0.0174417 0.00969043 0)
(-0.0205415 0.0105901 0)
(-0.0238827 0.011515 0)
(-0.027468 0.0124641 0)
(-0.0312988 0.0134351 0)
(-0.0353748 0.0144244 0)
(-0.0396939 0.0154267 0)
(-0.0442516 0.0164358 0)
(-0.049041 0.017444 0)
(-0.0540529 0.0184426 0)
(-0.059275 0.0194222 0)
(-0.0646925 0.0203725 0)
(-0.0702877 0.0212824 0)
(-0.0760403 0.0221409 0)
(-0.0819272 0.0229364 0)
(-0.0879231 0.0236573 0)
(-0.0940005 0.0242922 0)
(-0.10013 0.02483 0)
(-0.106281 0.0252603 0)
(-0.112421 0.0255731 0)
(-0.118517 0.0257595 0)
(-0.124535 0.0258116 0)
(-0.130444 0.0257225 0)
(-0.136209 0.0254866 0)
(-0.141798 0.0250997 0)
(-0.14718 0.0245588 0)
(-0.152326 0.0238625 0)
(-0.157205 0.0230104 0)
(-0.161793 0.0220039 0)
(-0.166063 0.0208455 0)
(-0.169993 0.0195389 0)
(-0.173562 0.018089 0)
(-0.176751 0.0165021 0)
(-0.179543 0.0147853 0)
(-0.181923 0.0129468 0)
(-0.183878 0.0109955 0)
(-0.185398 0.00894149 0)
(-0.186473 0.00679548 0)
(-0.187096 0.00456893 0)
(-0.187262 0.00227403 0)
(-0.186966 -7.63197e-05 0)
(-0.186208 -0.00246839 0)
(-0.184987 -0.00488851 0)
(-0.183305 -0.00732188 0)
(-0.181164 -0.00975332 0)
(-0.17857 -0.0121672 0)
(-0.175529 -0.0145473 0)
(-0.172051 -0.0168774 0)
(-0.168146 -0.0191407 0)
(-0.163826 -0.0213202 0)
(-0.159107 -0.0233991 0)
(-0.154006 -0.0253604 0)
(-0.148543 -0.0271876 0)
(-0.142737 -0.0288643 0)
(-0.136615 -0.030375 0)
(-0.130202 -0.031705 0)
(-0.123528 -0.0328405 0)
(-0.116623 -0.0337695 0)
(-0.10952 -0.0344811 0)
(-0.102257 -0.0349666 0)
(-0.0948701 -0.0352193 0)
(-0.0873987 -0.035235 0)
(-0.0798838 -0.0350119 0)
(-0.0723672 -0.034551 0)
(-0.0648916 -0.0338564 0)
(-0.0574998 -0.0329348 0)
(-0.0502346 -0.031796 0)
(-0.0431381 -0.0304528 0)
(-0.036251 -0.0289207 0)
(-0.0296126 -0.0272179 0)
(-0.0232599 -0.0253647 0)
(-0.017227 -0.0233836 0)
(-0.0115452 -0.0212988 0)
(-0.00624185 -0.0191353 0)
(-0.00134056 -0.0169193 0)
(0.0031394 -0.0146769 0)
(0.00718328 -0.012434 0)
(0.010781 -0.0102157 0)
(0.0139272 -0.00804585 0)
(0.0166214 -0.00594652 0)
(0.0188676 -0.00393773 0)
(0.0206745 -0.00203699 0)
(0.0220549 -0.000259117 0)
(0.0230258 0.00138397 0)
(0.0236074 0.00288331 0)
(0.0238233 0.00423288 0)
(0.0236997 0.00542944 0)
(0.0232649 0.00647224 0)
(0.0225489 0.00736269 0)
(0.021583 0.00810378 0)
(0.0203993 0.00869953 0)
(0.0190303 0.00915423 0)
(0.0175087 0.00947163 0)
(0.0158674 0.00965419 0)
(0.0141394 0.0097022 0)
(0.0123576 0.00961314 0)
(0.0105555 0.00938119 0)
(0.00876718 0.00899701 0)
(0.00702803 0.00844809 0)
(0.0053753 0.00771958 0)
(0.00384937 0.00679592 0)
(0.00249391 0.00566331 0)
(0.00135544 0.0043128 0)
(0.000505411 0.00274399 0)
(8.21827e-05 0.000970943 0)
(4.33734e-05 -0.000803707 0)
(0.000237718 -0.00201418 0)
(0.000589261 -0.00286835 0)
(0.0010046 -0.00340197 0)
(0.00142619 -0.00364985 0)
(0.00181261 -0.00364715 0)
(0.00212799 -0.00342866 0)
(0.00234196 -0.00302802 0)
(0.00242929 -0.00247693 0)
(0.00236907 -0.0018046 0)
(0.00214406 -0.0010372 0)
(0.0017401 -0.000197539 0)
(0.0011456 0.000695196 0)
(0.000351076 0.0016255 0)
(-0.000651326 0.00258154 0)
(-0.00186829 0.00355495 0)
(-0.00330569 0.00454061 0)
(-0.00496896 0.00553619 0)
(-0.00686334 0.00654173 0)
(-0.00899404 0.00755904 0)
(-0.0113663 0.00859112 0)
(-0.0139855 0.0096416 0)
(-0.0168569 0.0107141 0)
(-0.0199855 0.0118119 0)
(-0.0233757 0.012937 0)
(-0.0270313 0.0140906 0)
(-0.0309547 0.0152719 0)
(-0.035147 0.0164786 0)
(-0.0396072 0.0177068 0)
(-0.0443323 0.0189507 0)
(-0.049317 0.0202028 0)
(-0.054553 0.0214542 0)
(-0.0600293 0.0226945 0)
(-0.065732 0.0239123 0)
(-0.0716443 0.0250951 0)
(-0.0777461 0.0262299 0)
(-0.0840147 0.0273028 0)
(-0.0904247 0.0282999 0)
(-0.0969482 0.0292074 0)
(-0.103555 0.0300114 0)
(-0.110214 0.0306987 0)
(-0.116891 0.0312568 0)
(-0.123553 0.0316741 0)
(-0.130165 0.0319399 0)
(-0.136691 0.0320451 0)
(-0.143098 0.0319818 0)
(-0.149352 0.0317438 0)
(-0.15542 0.0313263 0)
(-0.161271 0.0307262 0)
(-0.166875 0.0299422 0)
(-0.172204 0.0289743 0)
(-0.177233 0.0278242 0)
(-0.181937 0.0264951 0)
(-0.186294 0.0249915 0)
(-0.190286 0.0233194 0)
(-0.193893 0.0214857 0)
(-0.197102 0.0194987 0)
(-0.199897 0.0173674 0)
(-0.202267 0.015102 0)
(-0.204201 0.0127134 0)
(-0.205692 0.0102132 0)
(-0.206731 0.007614 0)
(-0.207314 0.00492883 0)
(-0.207435 0.00217149 0)
(-0.207093 -0.000643599 0)
(-0.206285 -0.00350149 0)
(-0.205011 -0.00638655 0)
(-0.203272 -0.00928257 0)
(-0.201072 -0.0121728 0)
(-0.198412 -0.01504 0)
(-0.1953 -0.0178663 0)
(-0.191742 -0.0206336 0)
(-0.187746 -0.0233232 0)
(-0.183324 -0.0259162 0)
(-0.178488 -0.0283936 0)
(-0.173252 -0.0307363 0)
(-0.167634 -0.0329254 0)
(-0.161654 -0.0349422 0)
(-0.155332 -0.0367687 0)