/*--------------------------------*- C++ -*----------------------------------*\
| =========                 |                                                 |
| \\      /  F ield         | OpenFOAM: The Open Source CFD Toolbox           |
|  \\    /   O peration     | Version:  2112                                  |
|   \\  /    A nd           | Website:  www.openfoam.com                      |
|    \\/     M anipulation  |                                                 |
\*---------------------------------------------------------------------------*/
FoamFile
{
    version     2.0;
    format      ascii;
    arch        "LSB;label=32;scalar=64";
    class       volScalarField;
    location    "33";
    object      p;
}
// * * * * * * * * * * * * * * * * * * * * * * * * * * * * * * * * * * * * * //

dimensions      [0 2 -2 0 0 0 0];

internalField   nonuniform List<scalar> 
16641
(
8.3373e-07
1.57186e-05
2.99539e-05
3.87498e-05
3.86394e-05
2.77994e-05
5.6677e-06
-2.75892e-05
-7.14089e-05
-0.000125012
-0.000187525
-0.000258063
-0.000335799
-0.000420002
-0.000510062
-0.000605501
-0.000705983
-0.000811306
-0.0009214
-0.0010363
-0.00115614
-0.0012811
-0.00141145
-0.00154743
-0.00168933
-0.00183738
-0.00199179
-0.00215273
-0.00232029
-0.00249448
-0.00267522
-0.00286236
-0.0030556
-0.00325458
-0.00345879
-0.00366762
-0.00388032
-0.004096
-0.00431366
-0.00453214
-0.00475014
-0.00496625
-0.00517889
-0.00538637
-0.00558688
-0.00577851
-0.00595924
-0.006127
-0.00627965
-0.00641506
-0.00653108
-0.00662562
-0.00669666
-0.00674229
-0.00676077
-0.00675056
-0.00671034
-0.00663909
-0.0065361
-0.00640101
-0.00623387
-0.00603515
-0.00580575
-0.00554708
-0.00526098
-0.00494982
-0.00461638
-0.00426388
-0.00389624
-0.00351751
-0.00313218
-0.00274506
-0.00236118
-0.00198575
-0.00162404
-0.00128132
-0.000962711
-0.00067316
-0.000417275
-0.000199255
-2.27885e-05
0.000109031
0.000193782
0.000229775
0.000216099
0.000152647
4.0125e-05
-0.000119966
-0.000325352
-0.00057305
-0.000859564
-0.00118057
-0.00153157
-0.00190765
-0.00230366
-0.00271441
-0.00313469
-0.00355947
-0.00398394
-0.00440362
-0.00481445
-0.00521282
-0.00559561
-0.00596023
-0.0063046
-0.00662718
-0.00692689
-0.00720312
-0.00745568
-0.00768473
-0.00789072
-0.00807437
-0.00823657
-0.00837834
-0.00850075
-0.00860491
-0.00869188
-0.00876263
-0.00881805
-0.0088589
-0.00888583
-0.00889945
-0.00890042
-0.00888965
-0.00886855
-0.00883958
-0.00880683
-0.00877642
-0.00875776
-1.26132e-05
1.82194e-06
1.17607e-05
1.57241e-05
1.20262e-05
-7.68838e-07
-2.32767e-05
-5.55344e-05
-9.72337e-05
-0.000147847
-0.000206726
-0.000273179
-0.000346542
-0.000426213
-0.000511674
-0.000602515
-0.00069844
-0.000799267
-0.000904922
-0.00101542
-0.00113087
-0.00125142
-0.00137727
-0.00150866
-0.00164581
-0.00178894
-0.00193822
-0.00209379
-0.00225575
-0.0024241
-0.00259877
-0.00277961
-0.00296638
-0.00315872
-0.00335619
-0.00355821
-0.00376408
-0.00397299
-0.00418399
-0.00439601
-0.00460782
-0.00481809
-0.00502533
-0.00522793
-0.00542417
-0.00561223
-0.00579017
-0.00595602
-0.00610772
-0.0062432
-0.0063604
-0.00645727
-0.00653186
-0.00658231
-0.0066069
-0.0066041
-0.00657261
-0.0065114
-0.00641974
-0.00629724
-0.00614389
-0.00596009
-0.00574667
-0.00550493
-0.00523661
-0.00494397
-0.00462972
-0.00429684
-0.003949
-0.00359019
-0.00322472
-0.00285721
-0.00249251
-0.00213561
-0.00179161
-0.00146557
-0.00116245
-0.000887003
-0.000643675
-0.000436511
-0.000269067
-0.000144317
-6.4591e-05
-3.15074e-05
-4.59353e-05
-0.000107968
-0.000216916
-0.000371325
-0.000569006
-0.000807092
-0.00108212
-0.00139014
-0.00172667
-0.00208706
-0.0024664
-0.00285971
-0.00326206
-0.00366864
-0.00407491
-0.00447661
-0.00486991
-0.00525139
-0.00561812
-0.00596765
-0.00629805
-0.00660785
-0.00689605
-0.00716208
-0.00740573
-0.00762717
-0.00782679
-0.00800527
-0.00816342
-0.00830218
-0.00842256
-0.0085256
-0.0086123
-0.00868363
-0.00874048
-0.00878366
-0.00881394
-0.00883206
-0.00883884
-0.00883531
-0.00882287
-0.00880364
-0.00878071
-0.00875787
-0.00873911
-2.61916e-05
-7.68346e-06
2.20623e-06
4.59859e-06
-5.49717e-07
-1.42311e-05
-3.69152e-05
-6.86123e-05
-0.000109066
-0.000157839
-0.000214384
-0.000278111
-0.000348446
-0.000424859
-0.000506896
-0.000594191
-0.000686485
-0.000783617
-0.000885523
-0.000992223
-0.00110381
-0.00122044
-0.0013423
-0.0014696
-0.00160256
-0.00174138
-0.00188624
-0.00203728
-0.00219458
-0.00235817
-0.002528
-0.00270394
-0.00288579
-0.00307322
-0.00326582
-0.00346307
-0.00366434
-0.00386885
-0.00407573
-0.00428395
-0.00449237
-0.0046997
-0.00490453
-0.0051053
-0.00530037
-0.00548794
-0.00566615
-0.00583306
-0.00598664
-0.00612485
-0.00624566
-0.00634702
-0.00642698
-0.00648368
-0.00651537
-0.0065205
-0.00649773
-0.00644598
-0.00636446
-0.00625272
-0.00611068
-0.00593867
-0.00573743
-0.00550815
-0.00525254
-0.0049728
-0.00467111
-0.00435104
-0.00401582
-0.00366934
-0.00331585
-0.00295986
-0.00260616
-0.00225965
-0.00192535
-0.00160825
-0.00131326
-0.00104507
-0.000808072
-0.000606273
-0.000443189
-0.000321769
-0.000244319
-0.000212444
-0.000227006
-0.000288097
-0.000395034
-0.000546378
-0.000739964
-0.00097296
-0.00124194
-0.00154296
-0.00187169
-0.0022235
-0.00259354
-0.00297695
-0.0033689
-0.00376468
-0.00415987
-0.00455033
-0.00493236
-0.00530266
-0.00565841
-0.0059973
-0.00631749
-0.00661761
-0.00689674
-0.00715438
-0.00739038
-0.00760493
-0.00779847
-0.00797166
-0.00812533
-0.0082604
-0.00837788
-0.00847879
-0.00856413
-0.00863486
-0.00869189
-0.00873606
-0.00876813
-0.00878889
-0.00879912
-0.00879975
-0.00879191
-0.00877723
-0.00875791
-0.00873512
-0.00870852
-3.47611e-05
-1.13597e-05
-6.1097e-09
2.26602e-06
-3.34581e-06
-1.74328e-05
-4.02442e-05
-7.16623e-05
-0.000111382
-0.000158966
-0.0002139
-0.000275639
-0.000343652
-0.000417453
-0.000496629
-0.000580857
-0.000669904
-0.000763638
-0.000862014
-0.000965071
-0.00107292
-0.00118571
-0.00130366
-0.00142696
-0.00155586
-0.00169056
-0.00183125
-0.00197809
-0.00213118
-0.00229058
-0.00245625
-0.00262812
-0.002806
-0.00298963
-0.00317865
-0.00337259
-0.00357086
-0.00377277
-0.00397748
-0.00418403
-0.00439134
-0.00459818
-0.00480316
-0.0050048
-0.00520147
-0.00539141
-0.00557277
-0.00574362
-0.00590193
-0.00604566
-0.00617274
-0.00628109
-0.00636872
-0.00643371
-0.00647426
-0.00648875
-0.00647575
-0.00643412
-0.00636298
-0.00626179
-0.00613039
-0.00596901
-0.00577832
-0.00555943
-0.00531407
-0.00504467
-0.00475188
-0.00444064
-0.00411386
-0.00377529
-0.00342912
-0.00307983
-0.00273217
-0.00239105
-0.00206148
-0.00174846
-0.00145689
-0.00119148
-0.000956666
-0.000756465
-0.000594424
-0.000473522
-0.000396093
-0.000363767
-0.000377428
-0.000437185
-0.000542367
-0.000691538
-0.000882533
-0.00111251
-0.00137804
-0.00167515
-0.00199948
-0.00234651
-0.0027112
-0.0030888
-0.00347446
-0.00386351
-0.00425153
-0.00463446
-0.00500863
-0.00537082
-0.00571829
-0.00604882
-0.00636065
-0.00665252
-0.00692361
-0.00717348
-0.0074021
-0.00760971
-0.00779683
-0.00796418
-0.00811263
-0.00824314
-0.00835675
-0.00845451
-0.00853743
-0.00860651
-0.00866264
-0.00870667
-0.00873936
-0.00876141
-0.00877352
-0.00877637
-0.00877074
-0.00875771
-0.00873869
-0.00871264
-0.00867599
-3.46611e-05
-7.54401e-06
5.11897e-06
7.47666e-06
1.55842e-06
-1.29098e-05
-3.59652e-05
-6.73431e-05
-0.000106657
-0.000153438
-0.000207167
-0.000267312
-0.000333365
-0.000404868
-0.000481439
-0.000562787
-0.000648716
-0.00073912
-0.000833988
-0.000933386
-0.00103745
-0.00114636
-0.00126034
-0.00137964
-0.00150449
-0.00163515
-0.00177183
-0.0019147
-0.00206392
-0.00221957
-0.00238167
-0.00255018
-0.00272499
-0.00290587
-0.00309252
-0.00328455
-0.00348142
-0.00368251
-0.00388703
-0.0040941
-0.00430266
-0.00451152
-0.00471936
-0.0049247
-0.00512591
-0.00532126
-0.00550887
-0.00568678
-0.00585294
-0.00600524
-0.00614155
-0.00625974
-0.00635772
-0.00643348
-0.00648512
-0.00651094
-0.0065094
-0.00647925
-0.00641951
-0.00632955
-0.00620911
-0.00605834
-0.00587781
-0.00566859
-0.00543206
-0.00516967
-0.00488588
-0.00458184
-0.00426129
-0.00392813
-0.00358656
-0.00324106
-0.00289642
-0.00255754
-0.00222949
-0.00191729
-0.00162591
-0.00136011
-0.00112439
-0.000922837
-0.000759069
-0.000636132
-0.000556426
-0.000521642
-0.000532712
-0.000589788
-0.000692227
-0.000838607
-0.00102676
-0.00125384
-0.00151638
-0.00181039
-0.00213147
-0.00247493
-0.00283587
-0.00320936
-0.00359054
-0.00397469
-0.00435738
-0.00473454
-0.00510249
-0.00545805
-0.00579854
-0.00612177
-0.00642608
-0.00671027
-0.00697362
-0.00721581
-0.00743688
-0.0076372
-0.00781736
-0.00797818
-0.0081206
-0.00824566
-0.00835445
-0.00844808
-0.0085276
-0.00859402
-0.00864828
-0.00869119
-0.00872349
-0.0087458
-0.00875867
-0.00876254
-0.00875781
-0.00874507
-0.00872508
-0.00869496
-0.0086485
-2.39039e-05
5.32854e-06
1.86607e-05
2.08746e-05
1.44865e-05
-5.46562e-07
-2.40801e-05
-5.571e-05
-9.49616e-05
-0.000141317
-0.00019423
-0.000253161
-0.000317607
-0.000387129
-0.000461371
-0.00054007
-0.000623065
-0.000710288
-0.000801766
-0.000897606
-0.000997979
-0.00110311
-0.00121327
-0.00132872
-0.00144978
-0.0015767
-0.00170977
-0.0018492
-0.0019952
-0.00214789
-0.00230738
-0.00247367
-0.00264671
-0.00282636
-0.00301239
-0.00320444
-0.00340209
-0.00360474
-0.00381168
-0.00402206
-0.00423487
-0.00444894
-0.00466296
-0.00487544
-0.00508475
-0.00528911
-0.0054866
-0.00567518
-0.00585273
-0.00601706
-0.00616591
-0.00629706
-0.0064083
-0.00649749
-0.00656263
-0.00660187
-0.00661357
-0.00659636
-0.00654914
-0.00647119
-0.00636214
-0.00622206
-0.00605145
-0.00585133
-0.00562309
-0.00536845
-0.00509037
-0.00479145
-0.0044751
-0.00414513
-0.00380574
-0.00346144
-0.00311703
-0.00277748
-0.00244789
-0.00213338
-0.00183898
-0.00156956
-0.00132969
-0.00112357
-0.000954936
-0.000826926
-0.000742046
-0.000702084
-0.000708059
-0.000760195
-0.000857906
-0.00099981
-0.00118376
-0.0014069
-0.00166575
-0.00195627
-0.002274
-0.00261418
-0.00297184
-0.00334195
-0.00371957
-0.00409989
-0.00447841
-0.00485099
-0.00521394
-0.00556405
-0.00589861
-0.00621549
-0.00651305
-0.00679018
-0.00704621
-0.00728094
-0.0074945
-0.00768736
-0.00786023
-0.00801403
-0.0081498
-0.00826869
-0.00837186
-0.00846049
-0.0085357
-0.00859854
-0.00864996
-0.00869079
-0.00872171
-0.00874328
-0.00875588
-0.00875975
-0.00875495
-0.00874165
-0.0087201
-0.00868602
-0.00863118
-1.5908e-06
2.81415e-05
4.13005e-05
4.28964e-05
3.56734e-05
1.97515e-05
-4.57869e-06
-3.67958e-05
-7.63411e-05
-0.000122638
-0.000175104
-0.00023318
-0.000296362
-0.000364223
-0.000436428
-0.000512746
-0.00059305
-0.00067732
-0.000765629
-0.000858134
-0.000955061
-0.00105669
-0.00116334
-0.00127535
-0.00139308
-0.00151686
-0.00164702
-0.00178385
-0.00192763
-0.00207856
-0.00223681
-0.00240248
-0.00257557
-0.00275604
-0.00294373
-0.00313836
-0.00333956
-0.0035468
-0.00375941
-0.00397656
-0.00419728
-0.00442038
-0.00464453
-0.00486821
-0.00508973
-0.00530722
-0.00551868
-0.00572196
-0.00591482
-0.00609493
-0.00625991
-0.00640738
-0.00653498
-0.00664044
-0.0067216
-0.00677649
-0.00680333
-0.00680063
-0.00676719
-0.00670217
-0.00660513
-0.00647605
-0.00631536
-0.00612399
-0.00590339
-0.00565523
-0.00538218
-0.00508709
-0.00477331
-0.00444467
-0.00410534
-0.0037599
-0.00341317
-0.0030702
-0.00273614
-0.0024162
-0.00211551
-0.00183906
-0.00159153
-0.00137728
-0.00120015
-0.00106344
-0.000969789
-0.000921132
-0.000918612
-0.000962567
-0.00105251
-0.00118713
-0.00136434
-0.0015813
-0.00183453
-0.00211997
-0.0024331
-0.00276909
-0.00312287
-0.00348932
-0.00386335
-0.00424006
-0.00461484
-0.00498345
-0.00534209
-0.0056875
-0.00601693
-0.00632822
-0.00661974
-0.00689041
-0.00713962
-0.00736724
-0.00757349
-0.00775893
-0.00792441
-0.00807093
-0.00819968
-0.00831189
-0.00840883
-0.00849178
-0.00856193
-0.00862038
-0.00866813
-0.00870601
-0.00873468
-0.00875462
-0.0087661
-0.00876917
-0.00876361
-0.00874929
-0.00872606
-0.00868865
-0.00862742
3.25943e-05
6.13093e-05
7.33741e-05
7.37391e-05
6.51925e-05
4.79699e-05
2.24718e-05
-1.06881e-05
-5.08758e-05
-9.74584e-05
-0.000149815
-0.000207368
-0.00026961
-0.000336123
-0.000406596
-0.00048083
-0.000558745
-0.000640369
-0.000725834
-0.00081536
-0.00090924
-0.00100783
-0.00111151
-0.00122071
-0.00133585
-0.00145736
-0.00158565
-0.00172111
-0.00186408
-0.00201487
-0.00217373
-0.00234086
-0.00251637
-0.00270029
-0.00289252
-0.00309289
-0.00330106
-0.00351655
-0.00373872
-0.00396675
-0.00419964
-0.00443619
-0.00467498
-0.00491443
-0.00515273
-0.0053879
-0.00561781
-0.00584015
-0.00605251
-0.00625241
-0.00643729
-0.0066046
-0.00675182
-0.00687652
-0.00697638
-0.0070493
-0.00709336
-0.00710695
-0.00708876
-0.00703787
-0.00695375
-0.00683629
-0.00668587
-0.00650335
-0.00629005
-0.00604793
-0.00577933
-0.00548714
-0.00517473
-0.00484591
-0.0045049
-0.00415627
-0.00380491
-0.00345592
-0.00311453
-0.00278604
-0.0024757
-0.0021886
-0.00192961
-0.00170321
-0.00151343
-0.00136374
-0.00125699
-0.00119527
-0.00117991
-0.00121141
-0.00128943
-0.0014128
-0.00157951
-0.00178681
-0.00203124
-0.00230875
-0.0026148
-0.00294447
-0.00329262
-0.00365401
-0.00402342
-0.00439583
-0.00476647
-0.00513096
-0.00548539
-0.00582637
-0.00615107
-0.00645726
-0.00674327
-0.00700802
-0.00725091
-0.00747184
-0.00767112
-0.00784939
-0.00800759
-0.00814684
-0.00826843
-0.00837372
-0.0084641
-0.00854092
-0.00860548
-0.00865896
-0.00870239
-0.00873663
-0.00876235
-0.00877998
-0.0087897
-0.00879142
-0.00878472
-0.00876923
-0.00874453
-0.00870472
-0.00863928
7.8657e-05
0.000104974
0.000115031
0.000113506
0.000103096
8.41213e-05
5.70633e-05
2.26055e-05
-1.85578e-05
-6.57463e-05
-0.000118309
-0.000175653
-0.000237271
-0.00030276
-0.000371835
-0.000444338
-0.000520241
-0.000599631
-0.000682709
-0.000769772
-0.000861196
-0.00095742
-0.00105893
-0.00116623
-0.00127986
-0.00140034
-0.00152819
-0.0016639
-0.00180793
-0.0019607
-0.00212257
-0.00229384
-0.00247471
-0.00266531
-0.00286563
-0.00307554
-0.00329475
-0.00352281
-0.00375908
-0.0040027
-0.00425261
-0.00450755
-0.00476599
-0.00502621
-0.00528626
-0.005544
-0.00579711
-0.0060431
-0.00627937
-0.00650322
-0.00671193
-0.00690275
-0.00707299
-0.00722004
-0.00734145
-0.00743494
-0.0074985
-0.0075304
-0.00752923
-0.00749396
-0.00742399
-0.00731916
-0.00717977
-0.00700662
-0.00680095
-0.00656478
-0.00630033
-0.00601048
-0.00569858
-0.00536843
-0.00502425
-0.00467064
-0.00431251
-0.003955
-0.00360344
-0.0032632
-0.00293966
-0.00263806
-0.0023634
-0.00212037
-0.0019132
-0.0017456
-0.00162061
-0.00154057
-0.00150706
-0.00152079
-0.00158164
-0.00168861
-0.00183987
-0.00203279
-0.00226399
-0.00252947
-0.00282469
-0.00314472
-0.00348433
-0.00383818
-0.00420094
-0.00456741
-0.00493267
-0.00529217
-0.00564184
-0.00597813
-0.00629808
-0.00659935
-0.00688018
-0.00713942
-0.00737647
-0.00759121
-0.00778399
-0.0079555
-0.00810676
-0.008239
-0.00835358
-0.008452
-0.00853574
-0.00860628
-0.008665
-0.00871316
-0.00875187
-0.00878204
-0.00880434
-0.0088192
-0.00882674
-0.00882679
-0.00881879
-0.00880222
-0.00877647
-0.00873529
-0.00866776
0.00013643
0.000159094
0.000166276
0.000162211
0.000149394
0.000128213
9.9211e-05
6.31175e-05
2.06684e-05
-2.74247e-05
-8.0492e-05
-0.000137935
-0.000199254
-0.000264067
-0.000332127
-0.000403325
-0.000477691
-0.000555388
-0.000636698
-0.000722007
-0.00081179
-0.000906592
-0.00100701
-0.00111367
-0.00122722
-0.00134831
-0.00147759
-0.00161568
-0.00176316
-0.00192059
-0.00208844
-0.00226712
-0.00245695
-0.00265813
-0.00287072
-0.00309464
-0.00332962
-0.00357519
-0.00383066
-0.00409513
-0.00436743
-0.00464616
-0.00492965
-0.005216
-0.00550307
-0.00578851
-0.00606978
-0.00634419
-0.0066089
-0.00686102
-0.00709761
-0.00731573
-0.00751251
-0.00768519
-0.00783116
-0.00794801
-0.00803361
-0.00808612
-0.00810403
-0.00808624
-0.00803205
-0.00794124
-0.00781405
-0.0076512
-0.00745392
-0.00722406
-0.00696388
-0.00667619
-0.0063643
-0.00603197
-0.00568342
-0.00532324
-0.00495634
-0.00458791
-0.00422333
-0.00386808
-0.00352763
-0.00320737
-0.0029125
-0.0026479
-0.00241805
-0.0022269
-0.00207778
-0.00197333
-0.00191541
-0.00190503
-0.00194234
-0.00202662
-0.00215627
-0.00232884
-0.00254112
-0.00278922
-0.00306866
-0.00337451
-0.00370151
-0.00404424
-0.00439724
-0.00475517
-0.00511293
-0.00546578
-0.00580946
-0.00614022
-0.00645494
-0.00675109
-0.00702679
-0.00728079
-0.00751238
-0.00772143
-0.00790825
-0.00807357
-0.00821843
-0.00834413
-0.00845213
-0.008544
-0.00862134
-0.00868573
-0.00873864
-0.00878145
-0.00881533
-0.00884124
-0.00885991
-0.00887177
-0.00887695
-0.00887522
-0.00886595
-0.00884853
-0.00882224
-0.00878076
-0.0087131
0.000205636
0.000223489
0.000226987
0.000219761
0.000204019
0.000180205
0.000148904
0.000110866
6.68474e-05
1.75711e-05
-3.62882e-05
-9.41398e-05
-0.000155504
-0.000220033
-0.000287527
-0.000357937
-0.000431368
-0.000508066
-0.000588411
-0.000672897
-0.000762114
-0.000856731
-0.000957474
-0.00106511
-0.00118043
-0.00130423
-0.0014373
-0.00158042
-0.00173431
-0.00189966
-0.00207709
-0.00226711
-0.00247014
-0.00268644
-0.00291614
-0.00315915
-0.0034152
-0.00368377
-0.0039641
-0.00425514
-0.00455559
-0.00486387
-0.00517811
-0.00549619
-0.00581575
-0.00613418
-0.00644872
-0.00675642
-0.00705422
-0.00733901
-0.00760764
-0.00785699
-0.00808401
-0.00828578
-0.00845954
-0.00860279
-0.00871325
-0.00878899
-0.00882841
-0.00883032
-0.00879395
-0.00871897
-0.00860556
-0.00845437
-0.00826656
-0.00804386
-0.00778849
-0.00750317
-0.00719115
-0.00685613
-0.00650229
-0.00613417
-0.00575669
-0.00537505
-0.00499467
-0.0046211
-0.00425992
-0.00391669
-0.00359677
-0.00330529
-0.00304697
-0.00282608
-0.00264626
-0.00251051
-0.00242104
-0.00237924
-0.00238563
-0.00243981
-0.0025405
-0.00268555
-0.00287198
-0.00309609
-0.00335352
-0.00363941
-0.00394852
-0.00427538
-0.00461443
-0.0049602
-0.0053074
-0.00565109
-0.00598679
-0.00631054
-0.00661897
-0.00690936
-0.00717964
-0.00742838
-0.00765476
-0.00785853
-0.00803995
-0.0081997
-0.00833883
-0.00845866
-0.00856072
-0.00864663
-0.00871809
-0.00877675
-0.00882421
-0.0088619
-0.00889111
-0.00891287
-0.00892795
-0.00893684
-0.00893969
-0.00893627
-0.00892593
-0.008908
-0.00888174
-0.00884093
-0.0087749
0.000285897
0.000297855
0.000296909
0.000285948
0.00026681
0.000239981
0.000206067
0.000165812
0.000119967
6.92473e-05
1.43126e-05
-4.4271e-05
-0.00010606
-0.000170754
-0.000238216
-0.000308471
-0.000381711
-0.000458285
-0.000538684
-0.000623527
-0.00071354
-0.000809537
-0.000912396
-0.00102304
-0.00114243
-0.00127152
-0.00141128
-0.00156263
-0.00172648
-0.00190364
-0.00209486
-0.00230077
-0.00252186
-0.00275845
-0.00301067
-0.00327843
-0.00356139
-0.00385893
-0.00417016
-0.00449386
-0.00482853
-0.00517237
-0.00552326
-0.00587884
-0.00623646
-0.00659328
-0.00694625
-0.00729219
-0.00762782
-0.00794978
-0.00825473
-0.00853936
-0.00880047
-0.00903498
-0.00924002
-0.00941294
-0.00955138
-0.00965329
-0.00971699
-0.00974119
-0.00972503
-0.00966809
-0.00957045
-0.00943267
-0.00925582
-0.00904152
-0.00879187
-0.00850951
-0.00819758
-0.00785969
-0.00749994
-0.00712281
-0.00673319
-0.00633625
-0.00593743
-0.00554233
-0.00515665
-0.00478606
-0.00443613
-0.00411222
-0.00381935
-0.00356209
-0.00334448
-0.00316991
-0.00304103
-0.00295966
-0.00292677
-0.00294241
-0.00300571
-0.0031149
-0.00326733
-0.00345959
-0.00368752
-0.00394641
-0.00423111
-0.00453614
-0.0048559
-0.00518478
-0.00551733
-0.00584842
-0.00617331
-0.00648779
-0.00678824
-0.00707167
-0.00733578
-0.00757891
-0.00780005
-0.0079988
-0.00817528
-0.00833009
-0.00846422
-0.00857899
-0.00867591
-0.00875666
-0.00882299
-0.00887662
-0.00891922
-0.00895234
-0.00897733
-0.0089953
-0.00900711
-0.00901329
-0.00901405
-0.00900919
-0.00899809
-0.00898009
-0.00895443
-0.00891519
-0.00885224
0.00037672
0.00038175
0.000375651
0.000360437
0.00033749
0.000307315
0.000270522
0.000227816
0.000179914
0.000127502
7.12025e-05
1.15363e-05
-5.11067e-05
-0.000116493
-0.000184561
-0.000255428
-0.000329391
-0.000406916
-0.000488628
-0.000575289
-0.000667781
-0.000767082
-0.000874244
-0.000990371
-0.0011166
-0.00125409
-0.00140397
-0.00156735
-0.00174529
-0.00193875
-0.0021486
-0.00237555
-0.00262015
-0.00288274
-0.00316344
-0.00346207
-0.00377819
-0.00411104
-0.00445952
-0.00482221
-0.00519737
-0.00558291
-0.00597647
-0.00637537
-0.00677669
-0.00717732
-0.00757393
-0.0079631
-0.00834132
-0.00870501
-0.00905064
-0.00937475
-0.00967395
-0.00994504
-0.010185
-0.0103911
-0.0105609
-0.0106922
-0.0107832
-0.0108326
-0.0108393
-0.0108029
-0.0107234
-0.0106011
-0.010437
-0.0102327
-0.00999005
-0.00971159
-0.00940032
-0.00905975
-0.00869384
-0.00830698
-0.00790398
-0.00748997
-0.00707036
-0.00665079
-0.00623702
-0.00583485
-0.00545004
-0.00508816
-0.00475454
-0.00445411
-0.00419132
-0.00396999
-0.00379329
-0.00366355
-0.00358227
-0.00355005
-0.00356654
-0.00363045
-0.00373958
-0.0038909
-0.0040806
-0.00430419
-0.00455668
-0.00483268
-0.00512657
-0.00543268
-0.00574541
-0.00605942
-0.00636973
-0.00667185
-0.00696187
-0.0072365
-0.00749314
-0.00772985
-0.00794538
-0.00813908
-0.00831091
-0.00846131
-0.00859116
-0.00870168
-0.00879438
-0.00887091
-0.00893304
-0.00898255
-0.00902116
-0.00905047
-0.00907193
-0.00908674
-0.00909581
-0.00909977
-0.00909888
-0.009093
-0.00908157
-0.00906398
-0.00903948
-0.00900259
-0.0089439
0.000477475
0.00047458
0.000462672
0.000442748
0.000415637
0.000381846
0.000341952
0.000296594
0.000246427
0.000192078
0.000134106
7.2965e-05
8.97095e-06
-5.77272e-05
-0.000127164
-0.000199567
-0.000275357
-0.000355139
-0.000439687
-0.00052993
-0.000626926
-0.000731839
-0.000845915
-0.000970458
-0.00110681
-0.00125632
-0.00142031
-0.00160007
-0.00179682
-0.00201165
-0.00224552
-0.00249922
-0.0027733
-0.0030681
-0.00338363
-0.00371963
-0.00407548
-0.0044502
-0.00484249
-0.00525065
-0.00567264
-0.00610609
-0.00654832
-0.00699636
-0.007447
-0.00789683
-0.00834227
-0.00877966
-0.00920523
-0.00961524
-0.010006
-0.0103738
-0.0107151
-0.0110267
-0.0113054
-0.0115483
-0.0117529
-0.0119169
-0.0120385
-0.0121161
-0.0121486
-0.0121355
-0.0120766
-0.0119721
-0.011823
-0.0116304
-0.0113964
-0.0111231
-0.0108134
-0.0104707
-0.0100988
-0.0097019
-0.00928474
-0.00885234
-0.00841005
-0.0079635
-0.00751849
-0.00708091
-0.00665666
-0.00625156
-0.00587121
-0.00552091
-0.00520553
-0.0049294
-0.00469622
-0.00450893
-0.00436964
-0.00427957
-0.00423903
-0.00424732
-0.00430283
-0.00440303
-0.00454456
-0.0047233
-0.00493452
-0.005173
-0.00543319
-0.00570941
-0.00599596
-0.00628731
-0.00657823
-0.00686397
-0.00714026
-0.00740349
-0.00765071
-0.00787964
-0.00808871
-0.008277
-0.00844419
-0.00859051
-0.00871666
-0.00882374
-0.00891314
-0.00898646
-0.00904545
-0.00909189
-0.00912753
-0.00915403
-0.00917288
-0.00918534
-0.00919244
-0.00919485
-0.0091929
-0.00918655
-0.00917532
-0.00915865
-0.00913585
-0.00910193
-0.00904839
0.000587366
0.000575575
0.000557264
0.000532229
0.000500658
0.000463034
0.000419863
0.000371685
0.000319057
0.000262515
0.00020253
0.000139466
7.35401e-05
4.79667e-06
-6.69166e-05
-0.000141957
-0.00022089
-0.00030448
-0.000393675
-0.00048959
-0.000593479
-0.000706713
-0.000830752
-0.000967118
-0.00111736
-0.00128304
-0.00146568
-0.00166673
-0.00188754
-0.00212933
-0.00239313
-0.00267975
-0.00298971
-0.00332327
-0.00368032
-0.00406043
-0.00446275
-0.00488607
-0.00532878
-0.0057889
-0.00626406
-0.00675156
-0.00724841
-0.00775133
-0.00825679
-0.00876113
-0.00926049
-0.00975097
-0.0102286
-0.0106895
-0.0111296
-0.0115453
-0.0119329
-0.0122888
-0.01261
-0.0128933
-0.0131362
-0.0133363
-0.0134915
-0.0136004
-0.0136617
-0.0136746
-0.0136389
-0.0135547
-0.0134227
-0.013244
-0.0130203
-0.0127537
-0.0124469
-0.0121031
-0.0117258
-0.0113191
-0.0108875
-0.010436
-0.00996981
-0.00949443
-0.00901569
-0.00853952
-0.00807193
-0.00761894
-0.00718642
-0.00678
-0.00640501
-0.00606627
-0.00576807
-0.005514
-0.00530687
-0.00514863
-0.00504031
-0.00498197
-0.00497271
-0.00501065
-0.00509301
-0.00521619
-0.00537583
-0.00556703
-0.00578441
-0.00602235
-0.00627511
-0.00653702
-0.00680265
-0.00706691
-0.00732523
-0.00757361
-0.0078087
-0.00802784
-0.00822906
-0.00841109
-0.00857328
-0.00871557
-0.00883841
-0.0089427
-0.00902966
-0.00910079
-0.00915774
-0.00920226
-0.00923609
-0.0092609
-0.00927821
-0.00928935
-0.00929538
-0.00929707
-0.00929483
-0.00928867
-0.00927822
-0.00926299
-0.00924238
-0.00921195
-0.00916416
0.000705396
0.000683787
0.000658513
0.000628025
0.00059176
0.000550134
0.000503552
0.000452406
0.00039712
0.000338107
0.000275723
0.000210212
0.000141673
7.00188e-05
-5.04068e-06
-8.40158e-05
-0.00016764
-0.000256858
-0.000352813
-0.000456827
-0.000570373
-0.000695049
-0.000832543
-0.000984605
-0.00115301
-0.00133951
-0.00154582
-0.00177355
-0.00202418
-0.00229899
-0.00259904
-0.0029251
-0.00327765
-0.00365678
-0.00406223
-0.00449331
-0.00494893
-0.00542756
-0.00592728
-0.00644575
-0.00698029
-0.00752785
-0.0080851
-0.00864843
-0.00921405
-0.00977799
-0.0103362
-0.0108844
-0.0114186
-0.0119346
-0.0124283
-0.0128959
-0.0133334
-0.0137374
-0.0141045
-0.0144317
-0.0147161
-0.0149553
-0.0151473
-0.0152903
-0.0153831
-0.0154247
-0.0154147
-0.0153532
-0.0152406
-0.0150779
-0.0148666
-0.0146086
-0.0143063
-0.0139626
-0.013581
-0.0131653
-0.0127198
-0.0122491
-0.0117585
-0.0112533
-0.0107393
-0.0102222
-0.00970837
-0.00920377
-0.00871453
-0.00824662
-0.00780574
-0.00739726
-0.00702604
-0.00669636
-0.00641178
-0.00617506
-0.00598808
-0.00585177
-0.00576604
-0.00572986
-0.00574117
-0.00579704
-0.00589369
-0.00602663
-0.00619081
-0.00638079
-0.00659087
-0.00681532
-0.0070485
-0.00728509
-0.00752014
-0.00774926
-0.00796866
-0.00817523
-0.00836656
-0.00854093
-0.0086973
-0.00883524
-0.00895487
-0.00905681
-0.00914206
-0.00921192
-0.00926791
-0.00931168
-0.00934491
-0.00936924
-0.0093862
-0.00939715
-0.00940317
-0.00940509
-0.00940339
-0.00939817
-0.00938915
-0.00937591
-0.00935793
-0.00933135
-0.00928962
0.000830345
0.000798025
0.000765282
0.000729057
0.000687915
0.000642169
0.000592071
0.000537818
0.000479664
0.000417867
0.000352632
0.000284063
0.000212108
0.00013653
5.68736e-05
-2.75468e-05
-0.000117655
-0.0002146
-0.000319742
-0.000434632
-0.00056098
-0.000700626
-0.000855497
-0.00102758
-0.00121886
-0.0014313
-0.00166677
-0.00192702
-0.00221361
-0.00252784
-0.00287077
-0.00324308
-0.0036451
-0.00407676
-0.00453753
-0.00502645
-0.00554212
-0.00608266
-0.0066458
-0.00722884
-0.00782874
-0.00844209
-0.00906523
-0.00969424
-0.010325
-0.0109534
-0.0115749
-0.0121853
-0.0127801
-0.0133552
-0.0139062
-0.0144291
-0.01492
-0.0153753
-0.0157915
-0.0161653
-0.0164941
-0.0167752
-0.0170065
-0.0171862
-0.0173128
-0.0173855
-0.0174036
-0.017367
-0.017276
-0.0171314
-0.0169345
-0.0166869
-0.016391
-0.0160493
-0.0156649
-0.0152415
-0.0147831
-0.0142942
-0.0137796
-0.0132446
-0.0126948
-0.0121358
-0.0115739
-0.0110153
-0.010466
-0.00993249
-0.00942069
-0.00893645
-0.00848522
-0.00807197
-0.00770104
-0.00737606
-0.00709984
-0.00687426
-0.00670025
-0.0065777
-0.0065055
-0.00648155
-0.00650282
-0.00656544
-0.00666484
-0.0067959
-0.00695311
-0.00713075
-0.0073231
-0.00752457
-0.00772992
-0.00793431
-0.0081335
-0.00832388
-0.00850252
-0.00866719
-0.00881637
-0.00894918
-0.00906533
-0.00916508
-0.00924911
-0.00931848
-0.00937449
-0.00941863
-0.00945248
-0.00947758
-0.00949544
-0.00950739
-0.00951453
-0.00951773
-0.0095175
-0.00951401
-0.00950707
-0.00949635
-0.00948139
-0.0094589
-0.00942333
0.000960733
0.000916852
0.000876188
0.000833995
0.000787845
0.000737903
0.000684196
0.000626696
0.000565438
0.000500488
0.000431875
0.000359526
0.00028322
0.000202539
0.000116842
2.5241e-05
-7.3401e-05
-0.000180459
-0.000297534
-0.000426423
-0.00056909
-0.000727627
-0.000904207
-0.00110104
-0.00132034
-0.00156424
-0.00183474
-0.00213369
-0.00246267
-0.002823
-0.00321563
-0.0036411
-0.00409956
-0.00459067
-0.00511363
-0.00566713
-0.0062494
-0.00685822
-0.00749091
-0.00814441
-0.00881529
-0.00949979
-0.0101939
-0.0108934
-0.0115939
-0.0122909
-0.0129798
-0.0136561
-0.0143152
-0.0149527
-0.0155641
-0.0161453
-0.0166923
-0.0172014
-0.017669
-0.0180919
-0.0184672
-0.0187922
-0.0190648
-0.0192831
-0.0194456
-0.0195512
-0.0195992
-0.0195894
-0.0195219
-0.0193975
-0.019217
-0.018982
-0.0186944
-0.0183566
-0.0179716
-0.0175424
-0.017073
-0.0165675
-0.0160304
-0.0154667
-0.0148817
-0.0142812
-0.013671
-0.0130573
-0.0124465
-0.0118448
-0.0112586
-0.0106941
-0.0101574
-0.00965404
-0.00918911
-0.00876714
-0.00839193
-0.00806642
-0.00779262
-0.00757155
-0.00740318
-0.00728646
-0.0072193
-0.00719865
-0.00722063
-0.00728064
-0.00737352
-0.00749372
-0.0076355
-0.00779315
-0.00796111
-0.00813415
-0.00830755
-0.00847715
-0.00863945
-0.00879165
-0.00893164
-0.009058
-0.00916995
-0.0092673
-0.00935034
-0.00941977
-0.00947663
-0.00952216
-0.00955776
-0.00958487
-0.00960487
-0.00961904
-0.00962848
-0.00963402
-0.00963622
-0.00963529
-0.00963112
-0.00962341
-0.00961181
-0.00959356
-0.00956402
0.0010948
0.00103856
0.000989582
0.000941246
0.000890027
0.000835807
0.00077841
0.000717503
0.000652862
0.000584325
0.000511709
0.000434741
0.000352999
0.000265862
0.000172474
7.17238e-05
-3.77625e-05
-0.00015761
-0.000289676
-0.000436024
-0.000598881
-0.000780595
-0.000983585
-0.00121029
-0.00146309
-0.00174428
-0.00205597
-0.00240004
-0.00277808
-0.00319129
-0.0036405
-0.00412607
-0.00464785
-0.00520521
-0.00579699
-0.00642154
-0.00707667
-0.00775976
-0.00846773
-0.00919712
-0.0099441
-0.0107046
-0.0114742
-0.0122484
-0.0130226
-0.0137918
-0.0145515
-0.0152967
-0.0160228
-0.0167252
-0.0173993
-0.0180409
-0.0186459
-0.0192105
-0.0197311
-0.0202044
-0.0206275
-0.0209977
-0.0213129
-0.021571
-0.0217705
-0.0219104
-0.0219898
-0.0220082
-0.0219658
-0.0218631
-0.0217009
-0.0214804
-0.0212034
-0.0208718
-0.0204884
-0.020056
-0.019578
-0.0190583
-0.0185011
-0.017911
-0.0172931
-0.0166527
-0.0159955
-0.0153276
-0.0146553
-0.0139848
-0.0133228
-0.0126757
-0.01205
-0.0114518
-0.010887
-0.010361
-0.00987846
-0.00944352
-0.00905936
-0.00872824
-0.00845137
-0.00822894
-0.00806
-0.00794258
-0.00787372
-0.00784955
-0.00786549
-0.00791633
-0.00799652
-0.00810029
-0.00822188
-0.00835571
-0.00849658
-0.00863975
-0.00878111
-0.0089172
-0.00904526
-0.00916324
-0.00926976
-0.00936407
-0.00944598
-0.00951575
-0.00957406
-0.00962184
-0.00966024
-0.00969049
-0.00971383