/*--------------------------------*- C++ -*----------------------------------*\
| =========                 |                                                 |
| \\      /  F ield         | OpenFOAM: The Open Source CFD Toolbox           |
|  \\    /   O peration     | Version:  2112                                  |
|   \\  /    A nd           | Website:  www.openfoam.com                      |
|    \\/     M anipulation  |                                                 |
\*---------------------------------------------------------------------------*/
FoamFile
{
    version     2.0;
    format      ascii;
    arch        "LSB;label=32;scalar=64";
    class       surfaceScalarField;
    location    "33";
    object      phi;
}
// * * * * * * * * * * * * * * * * * * * * * * * * * * * * * * * * * * * * * //

dimensions      [0 3 -1 0 0 0 0];

oriented        oriented;

internalField   nonuniform List<scalar> 
33024
(
-3.81468e-09
3.24419e-09
2.27493e-08
-2.65636e-08
7.97628e-08
-5.70069e-08
1.58802e-07
-7.90429e-08
2.51332e-07
-9.25297e-08
3.50098e-07
-9.87657e-08
4.49306e-07
-9.92077e-08
5.44512e-07
-9.52052e-08
6.32419e-07
-8.79058e-08
7.10678e-07
-7.82587e-08
7.7772e-07
-6.70422e-08
8.32604e-07
-5.48846e-08
8.74885e-07
-4.22814e-08
9.04496e-07
-2.96096e-08
9.21635e-07
-1.71383e-08
9.26675e-07
-5.04052e-09
9.20073e-07
6.6012e-09
9.02303e-07
1.77711e-08
8.73785e-07
2.85182e-08
8.34848e-07
3.89368e-08
7.85693e-07
4.91556e-08
7.26369e-07
5.93242e-08
6.56767e-07
6.96018e-08
5.76621e-07
8.01452e-08
4.8552e-07
9.11008e-08
3.82922e-07
1.02598e-07
2.6818e-07
1.14742e-07
1.40566e-07
1.27615e-07
-7.03791e-10
1.41269e-07
-1.56434e-07
1.55731e-07
-3.27436e-07
1.71001e-07
-5.14493e-07
1.87056e-07
-7.18342e-07
2.0385e-07
-9.39656e-07
2.21314e-07
-1.17902e-06
2.39361e-07
-1.4369e-06
2.57885e-07
-1.71366e-06
2.76763e-07
-2.00952e-06
2.95853e-07
-2.32451e-06
3.14996e-07
-2.65853e-06
3.34018e-07
-3.01126e-06
3.52725e-07
-3.38217e-06
3.70912e-07
-3.77052e-06
3.88354e-07
-4.17534e-06
4.04817e-07
-4.5954e-06
4.20055e-07
-5.02921e-06
4.33811e-07
-5.47503e-06
4.45824e-07
-5.93086e-06
4.5583e-07
-6.39442e-06
4.63563e-07
-6.86319e-06
4.68763e-07
-7.33437e-06
4.71178e-07
-7.80493e-06
4.70567e-07
-8.27164e-06
4.66704e-07
-8.73102e-06
4.59385e-07
-9.17945e-06
4.48428e-07
-9.61313e-06
4.33682e-07
-1.00282e-05
4.15026e-07
-1.04205e-05
3.92375e-07
-1.07862e-05
3.65687e-07
-1.11212e-05
3.34958e-07
-1.14214e-05
3.00236e-07
-1.1683e-05
2.61613e-07
-1.19023e-05
2.19236e-07
-1.20756e-05
1.73309e-07
-1.21997e-05
1.24114e-07
-1.22717e-05
7.19738e-08
-1.22889e-05
1.72678e-08
-1.22489e-05
-4.00044e-08
-1.21503e-05
-9.86536e-08
-1.19917e-05
-1.58561e-07
-1.17726e-05
-2.19083e-07
-1.1493e-05
-2.796e-07
-1.11536e-05
-3.39456e-07
-1.07556e-05
-3.97969e-07
-1.03012e-05
-4.54438e-07
-9.79301e-06
-5.08154e-07
-9.2346e-06
-5.58412e-07
-8.63007e-06
-6.04524e-07
-7.98424e-06
-6.45832e-07
-7.30252e-06
-6.81724e-07
-6.59087e-06
-7.1165e-07
-5.85573e-06
-7.35133e-07
-5.10395e-06
-7.51784e-07
-4.34263e-06
-7.61318e-07
-3.57907e-06
-7.63559e-07
-2.82062e-06
-7.58454e-07
-2.07454e-06
-7.46072e-07
-1.34793e-06
-7.26613e-07
-6.47534e-07
-7.00396e-07
2.03443e-08
-6.67878e-07
6.50064e-07
-6.2972e-07
1.23643e-06
-5.86367e-07
1.77515e-06
-5.38715e-07
2.26269e-06
-4.87545e-07
2.69642e-06
-4.33727e-07
3.07456e-06
-3.78138e-07
3.39622e-06
-3.2166e-07
3.66138e-06
-2.65158e-07
3.87083e-06
-2.09454e-07
4.02614e-06
-1.5531e-07
4.12955e-06
-1.0341e-07
4.1839e-06
-5.43484e-08
4.19252e-06
-8.61898e-09
4.15912e-06
3.33933e-08
4.08772e-06
7.14055e-08
3.98247e-06
1.05248e-07
3.84762e-06
1.34852e-07
3.68738e-06
1.60243e-07
3.50584e-06
1.81535e-07
3.30692e-06
1.98916e-07
3.09429e-06
2.12633e-07
2.87131e-06
2.22981e-07
2.64103e-06
2.30282e-07
2.40616e-06
2.34869e-07
2.1691e-06
2.37062e-07
1.93195e-06
2.37146e-07
1.69661e-06
2.35341e-07
1.46484e-06
2.31773e-07
1.2384e-06
2.26438e-07
1.01924e-06
2.19163e-07
8.0967e-07
2.09567e-07
6.12647e-07
1.97024e-07
4.3201e-07
1.80636e-07
2.72763e-07
1.59247e-07
1.41196e-07
1.31567e-07
4.45986e-08
9.65975e-08
-1.01007e-08
5.46992e-08
-2.06736e-08
1.05728e-08
-2.06737e-08
2.62291e-08
-2.29845e-08
1.17192e-07
-1.17526e-07
2.6638e-07
-2.062e-07
4.59679e-07
-2.72338e-07
6.81339e-07
-3.1419e-07
9.165e-07
-3.33929e-07
1.15227e-06
-3.34982e-07
1.37807e-06
-3.21005e-07
1.58557e-06
-2.95406e-07
1.7685e-06
-2.61184e-07
1.92236e-06
-2.20901e-07
2.04416e-06
-1.76686e-07
2.13214e-06
-1.30258e-07
2.18548e-06
-8.2952e-08
2.20408e-06
-3.57392e-08
2.18831e-06
1.07308e-08
2.1388e-06
5.61098e-08
2.05627e-06
1.00298e-07
1.94139e-06
1.43403e-07
1.79462e-06
1.85704e-07
1.61618e-06
2.27598e-07
1.40594e-06
2.6956e-07
1.16344e-06
3.12099e-07
8.87869e-07
3.55721e-07
5.78072e-07
4.00898e-07
2.32628e-07
4.48042e-07
-1.50116e-07
4.97487e-07
-5.71975e-07
5.49474e-07
-1.03486e-06
6.04149e-07
-1.54068e-06
6.61559e-07
-2.09134e-06
7.21653e-07
-2.68857e-06
7.84289e-07
-3.33396e-06
8.4924e-07
-4.02884e-06
9.16194e-07
-4.77425e-06
9.84767e-07
-5.57086e-06
1.0545e-06
-6.41897e-06
1.12487e-06
-7.31841e-06
1.19529e-06
-8.26853e-06
1.26511e-06
-9.26813e-06
1.33362e-06
-1.03155e-05
1.40006e-06
-1.14082e-05
1.46361e-06
-1.25433e-05
1.52343e-06
-1.37171e-05
1.57863e-06
-1.49253e-05
1.62829e-06
-1.6163e-05
1.67149e-06
-1.74245e-05
1.7073e-06
-1.87034e-05
1.73479e-06
-1.99929e-05
1.75306e-06
-2.12854e-05
1.76126e-06
-2.25728e-05
1.75856e-06
-2.38464e-05
1.74421e-06
-2.50973e-05
1.71755e-06
-2.63159e-05
1.67798e-06
-2.74925e-05
1.62504e-06
-2.86172e-05
1.55835e-06
-2.96798e-05
1.47769e-06
-3.06704e-05
1.38295e-06
-3.15789e-05
1.27417e-06
-3.23955e-05
1.15156e-06
-3.31107e-05
1.01548e-06
-3.37155e-05
8.66443e-07
-3.42015e-05
7.05155e-07
-3.45607e-05
5.32493e-07
-3.47861e-05
3.49566e-07
-3.48717e-05
1.57585e-07
-3.48124e-05
-4.20034e-08
-3.46039e-05
-2.48546e-07
-3.42435e-05
-4.59098e-07
-3.37297e-05
-6.72325e-07
-3.30625e-05
-8.86263e-07
-3.22433e-05
-1.09883e-06
-3.12749e-05
-1.30787e-06
-3.01617e-05
-1.51114e-06
-2.89098e-05
-1.70637e-06
-2.75266e-05
-1.89131e-06
-2.60213e-05
-2.0637e-06
-2.44045e-05
-2.22138e-06
-2.2688e-05
-2.36229e-06
-2.08852e-05
-2.48452e-06
-1.90105e-05
-2.58635e-06
-1.70793e-05
-2.66632e-06
-1.51079e-05
-2.7232e-06
-1.31131e-05
-2.75611e-06
-1.11122e-05
-2.7645e-06
-9.12244e-06
-2.74819e-06
-7.16114e-06
-2.70737e-06
-5.24511e-06
-2.64264e-06
-3.39052e-06
-2.55499e-06
-1.61259e-06
-2.4458e-06
7.45112e-08
-2.31682e-06
1.65827e-06
-2.17012e-06
3.12748e-06
-2.00793e-06
4.47284e-06
-1.8329e-06
5.68693e-06
-1.64782e-06
6.7643e-06
-1.4555e-06
7.70149e-06
-1.25885e-06
8.49708e-06
-1.06075e-06
9.15159e-06
-8.63961e-07
9.66739e-06
-6.71118e-07
1.00486e-05
-4.84625e-07
1.03009e-05
-3.06628e-07
1.04312e-05
-1.38973e-07
1.04478e-05
1.68255e-08
1.03596e-05
1.59596e-07
1.01763e-05
2.88521e-07
9.90807e-06
4.03125e-07
9.56505e-06
5.03265e-07
9.15749e-06
5.891e-07
8.69534e-06
6.61059e-07
8.18818e-06
7.19797e-07
7.64501e-06
7.66148e-07
7.07423e-06
8.01061e-07
6.48356e-06
8.2554e-07
5.88006e-06
8.40564e-07
5.2702e-06
8.47009e-07
4.65999e-06
8.45546e-07
4.05522e-06
8.36547e-07
3.46168e-06
8.19973e-07
2.88558e-06
7.95271e-07
2.33387e-06
7.61275e-07
1.81474e-06
7.16152e-07
1.33795e-06
6.57423e-07
9.15042e-07
5.82159e-07
5.59064e-07
4.87545e-07
2.83435e-07
3.72227e-07
9.93094e-08
2.38825e-07
1.09708e-08
9.89117e-08
-9.70303e-09
5.68275e-08
-7.98054e-08
2.06193e-07
-2.66899e-07
4.29807e-07
-4.29811e-07
7.07992e-07
-5.50521e-07
1.02044e-06
-6.26636e-07
1.34789e-06
-6.61383e-07
1.67322e-06
-6.60311e-07
1.9819e-06
-6.29688e-07
2.26214e-06
-5.7564e-07
2.50471e-06
-5.0376e-07
2.70276e-06
-4.1895e-07
2.85145e-06
-3.25371e-07
2.94763e-06
-2.26433e-07
2.98949e-06
-1.2482e-07
2.97627e-06
-2.25176e-08
2.90788e-06
7.91188e-08
2.78467e-06
1.79327e-07
2.60713e-06
2.77837e-07
2.37573e-06
3.74804e-07
2.09072e-06
4.70716e-07
1.75201e-06
5.66308e-07
1.35909e-06
6.62471e-07
9.11028e-07
7.60165e-07
4.06404e-07
8.60345e-07
-1.56595e-07
9.63898e-07
-7.80138e-07
1.07159e-06
-1.46666e-06
1.18401e-06
-2.21875e-06
1.30157e-06
-3.03909e-06
1.42448e-06
-3.93026e-06
1.55274e-06
-4.89474e-06
1.68613e-06
-5.93469e-06
1.82424e-06
-7.05194e-06
1.96649e-06
-8.24784e-06
2.1121e-06
-9.5232e-06
2.26013e-06
-1.08782e-05
2.40949e-06
-1.23123e-05
2.55897e-06
-1.38242e-05
2.70719e-06
-1.54117e-05
2.85266e-06
-1.70719e-05
2.99379e-06
-1.88007e-05
3.12889e-06
-2.05933e-05
3.25617e-06
-2.24436e-05
3.37379e-06
-2.43449e-05
3.47986e-06
-2.62891e-05
3.57247e-06
-2.82673e-05
3.64971e-06
-3.02697e-05
3.7097e-06
-3.22855e-05
3.75061e-06
-3.43031e-05
3.77071e-06
-3.63102e-05
3.76837e-06
-3.82938e-05
3.7421e-06
-4.02402e-05
3.6906e-06
-4.21354e-05
3.61272e-06
-4.3965e-05
3.50758e-06
-4.57144e-05
3.37449e-06
-4.73691e-05
3.21303e-06
-4.89145e-05
3.02307e-06
-5.03363e-05
2.80475e-06
-5.16206e-05
2.5585e-06
-5.27541e-05
2.28507e-06
-5.37242e-05
1.98552e-06
-5.45189e-05
1.66122e-06
-5.51276e-05
1.31384e-06
-5.55405e-05
9.45397e-07
-5.57493e-05
5.58315e-07
-5.57476e-05
1.55869e-07
-5.55282e-05
-2.61365e-07
-5.50884e-05
-6.88288e-07
-5.44259e-05
-1.12164e-06
-5.35402e-05
-1.558e-06
-5.24329e-05
-1.99356e-06
-5.11075e-05
-2.42429e-06
-4.95693e-05
-2.84606e-06
-4.78258e-05
-3.25463e-06
-4.58864e-05
-3.64575e-06
-4.37626e-05
-4.01516e-06
-4.14676e-05
-4.35871e-06
-3.90166e-05
-4.67237e-06
-3.64265e-05
-4.95236e-06
-3.37159e-05
-5.19515e-06
-3.09046e-05
-5.39759e-06
-2.8014e-05
-5.55696e-06
-2.50662e-05
-5.67101e-06
-2.20842e-05
-5.73808e-06
-1.90916e-05
-5.75713e-06
-1.6112e-05
-5.72775e-06
-1.31691e-05
-5.65027e-06
-1.02861e-05
-5.5257e-06
-7.48525e-06
-5.35579e-06
-4.78804e-06
-5.14301e-06
-2.21438e-06
-4.89048e-06
2.17458e-07
-4.60196e-06
2.4913e-06
-4.28178e-06
4.59292e-06
-3.93453e-06
6.51075e-06
-3.56564e-06
8.23562e-06
-3.18038e-06
9.76107e-06
-2.7843e-06
1.10833e-05
-2.38297e-06
1.22012e-05
-1.98185e-06
1.31162e-05
-1.58615e-06
1.38324e-05
-1.20077e-06
1.43559e-05
-8.30125e-07
1.4695e-05
-4.78142e-07
1.486e-05
-1.48134e-07
1.48624e-05
1.57217e-07
1.4715e-05
4.35907e-07
1.44315e-05
6.86585e-07
1.40262e-05
9.08561e-07
1.35136e-05
1.10176e-06
1.2908e-05
1.26665e-06
1.22236e-05
1.4042e-06
1.1474e-05
1.51575e-06
1.06721e-05
1.60293e-06
9.83014e-06
1.66749e-06
8.95953e-06
1.71118e-06
8.07094e-06
1.7356e-06
7.17452e-06
1.74197e-06
6.28009e-06
1.73097e-06
5.39751e-06
1.70256e-06
4.53704e-06
1.65574e-06
3.70985e-06
1.58847e-06
2.92838e-06
1.49762e-06
2.20673e-06
1.37907e-06
1.56069e-06
1.2282e-06
1.00729e-06
1.04095e-06
5.63497e-07
8.16018e-07
2.43888e-07
5.58433e-07
5.68381e-08
2.85962e-07
4.7135e-08
7.9286e-08
-1.59094e-07
2.7369e-07
-4.613e-07
5.52979e-07
-7.09101e-07
8.91013e-07
-8.88557e-07
1.2634e-06
-9.99027e-07
1.64778e-06
-1.04576e-06
2.0243e-06
-1.03682e-06
2.37593e-06
-9.8132e-07
2.68859e-06
-8.88297e-07
2.951e-06
-7.66179e-07
3.15453e-06
-6.22479e-07
3.29282e-06
-4.63659e-07
3.36147e-06
-2.95078e-07
3.35764e-06
-1.20994e-07
3.27972e-06
5.53981e-08
3.12694e-06
2.319e-07
2.89905e-06
4.0722e-07
2.59603e-06
5.80861e-07
2.21784e-06
7.52994e-07
1.76423e-06
9.2432e-07
1.23461e-06
1.09593e-06
6.27921e-07
1.26916e-06
-5.73743e-08
1.44546e-06
-8.23284e-07
1.62625e-06
-1.67224e-06
1.81286e-06
-2.60703e-06
2.00637e-06
-3.63063e-06
2.20761e-06
-4.74617e-06
2.4171e-06
-5.95668e-06
2.635e-06
-7.26505e-06
2.8611e-06
-8.67381e-06
3.09488e-06
-1.0185e-05
3.33545e-06
-1.18001e-05
3.58162e-06
-1.35199e-05
3.83188e-06
-1.53443e-05
4.08446e-06
-1.72721e-05
4.33733e-06
-1.93014e-05
4.58823e-06
-2.14289e-05
4.83469e-06
-2.36502e-05
5.07403e-06
-2.59599e-05
5.30344e-06
-2.83509e-05
5.51996e-06
-3.08153e-05
5.72052e-06
-3.33435e-05
5.902e-06
-3.59249e-05
6.06125e-06
-3.85476e-05
6.19515e-06
-4.11985e-05
6.30063e-06
-4.38635e-05
6.37473e-06
-4.65276e-05
6.41465e-06
-4.91746e-05
6.41779e-06
-5.17881e-05
6.38181e-06
-5.43506e-05
6.30463e-06
-5.68445e-05
6.18452e-06
-5.92519e-05
6.0201e-06
-6.15547e-05
5.81037e-06
-6.3735e-05
5.55476e-06
-6.57751e-05
5.25313e-06
-6.76578e-05
4.90576e-06
-6.93664e-05
4.51342e-06
-7.08853e-05
4.07734e-06
-7.21994e-05
3.59918e-06
-7.3295e-05
3.08112e-06
-7.41595e-05
2.52574e-06
-7.47818e-05
1.93613e-06
-7.51521e-05
1.31575e-06
-7.5262e-05
6.68151e-07
-7.51083e-05
2.14583e-09
-7.46809e-05
-6.88754e-07
-7.39808e-05
-1.38836e-06
-7.30068e-05
-2.09562e-06
-7.17603e-05
-2.80456e-06
-7.02446e-05
-3.50922e-06
-6.84654e-05
-4.20345e-06
-6.64305e-05
-4.88096e-06
-6.41498e-05
-5.53539e-06
-6.16352e-05
-6.16035e-06
-5.89008e-05
-6.74951e-06
-5.59629e-05
-7.29668e-06
-5.28393e-05
-7.7959e-06
-4.95502e-05
-8.24153e-06
-4.6117e-05
-8.62836e-06
-4.25629e-05
-8.95169e-06
-3.89124e-05
-9.20744e-06
-3.51911e-05
-9.39225e-06
-3.14256e-05
-9.50358e-06
-2.7643e-05
-9.53977e-06
-2.38706e-05
-9.5001e-06
-2.0136e-05
-9.3849e-06
-1.64662e-05
-9.19553e-06
-1.28876e-05
-8.93442e-06
-9.42552e-06
-8.60505e-06
-6.10409e-06
-8.21192e-06
-2.94558e-06
-7.76047e-06
2.96756e-08
-7.25703e-06
2.80396e-06
-6.70881e-06
5.36159e-06
-6.12327e-06
7.68997e-06
-5.50875e-06
9.77936e-06
-4.8737e-06
1.16231e-05
-4.22669e-06
1.32175e-05
-3.57626e-06
1.4562e-05
-2.93067e-06
1.5659e-05
-2.29779e-06
1.65138e-05
-1.68487e-06
1.71341e-05
-1.09846e-06
1.75302e-05
-5.4425e-07
1.77144e-05
-2.70044e-08
1.77008e-05
4.4953e-07
1.75048e-05
8.82604e-07
1.71428e-05
1.2705e-06
1.66321e-05
1.61248e-06
1.59901e-05
1.90872e-06
1.52341e-05
2.16016e-06
1.43814e-05
2.36846e-06
1.34486e-05
2.53572e-06
1.24517e-05
2.66437e-06
1.1406e-05
2.75687e-06
1.03261e-05
2.81551e-06
9.226e-06
2.84208e-06
8.11935e-06
2.83762e-06
7.01983e-06
2.80208e-06
5.94144e-06
2.73413e-06
4.89897e-06
2.63095e-06
3.90838e-06
2.48821e-06
2.98708e-06
2.30036e-06
2.15397e-06
2.0613e-06
1.42909e-06
1.76583e-06
8.32804e-07
1.41231e-06
3.84548e-07
1.00669e-06
1.01591e-07
5.68919e-07
1.48726e-07
9.36606e-08
-2.52753e-07
3.18136e-07
-6.85774e-07
6.33609e-07
-1.02458e-06
1.00785e-06
-1.2628e-06
1.41269e-06
-1.40387e-06
1.82323e-06
-1.45629e-06
2.21769e-06
-1.43128e-06
2.57741e-06
-1.34104e-06
2.88681e-06
-1.19771e-06
3.13327e-06
-1.01263e-06
3.30684e-06
-7.96053e-07
3.40001e-06
-5.56828e-07
3.4073e-06
-3.0237e-07
3.32492e-06
-3.86101e-08
3.15035e-06
2.29965e-07
2.88202e-06
5.00235e-07
2.51891e-06
7.70333e-07
2.06028e-06
1.03949e-06
1.5054e-06
1.30787e-06
8.53337e-07
1.57638e-06
1.02826e-07
1.84644e-06
-7.47842e-07
2.11983e-06
-1.70083e-06
2.39845e-06
-2.75875e-06
2.68417e-06
-3.92456e-06
2.97867e-06
-5.20148e-06
3.28329e-06
-6.59287e-06
3.599e-06
-8.102e-06
3.92623e-06
-9.73195e-06
4.26495e-06
-1.14854e-05
4.61457e-06
-1.33645e-05
4.97398e-06
-1.53706e-05
5.34156e-06
-1.75043e-05
5.71524e-06
-1.97649e-05
6.09248e-06
-2.21507e-05
6.47034e-06
-2.46589e-05
6.84553e-06
-2.72851e-05
7.21442e-06
-3.00235e-05
7.57309e-06
-3.28669e-05
7.9174e-06
-3.58064e-05
8.24299e-06
-3.88319e-05
8.54538e-06
-4.19314e-05
8.82002e-06
-4.50917e-05
9.0623e-06
-4.82981e-05
9.26771e-06
-5.15348e-05
9.43182e-06
-5.47845e-05
9.55039e-06
-5.80292e-05
9.61943e-06
-6.12499e-05
9.63528e-06
-6.44267e-05
9.59465e-06
-6.75396e-05
9.49469e-06
-7.0568e-05
9.33301e-06
-7.34913e-05
9.10779e-06
-7.62889e-05
8.81773e-06
-7.89407e-05
8.46214e-06
-8.14268e-05
8.04093e-06
-8.37283e-05
7.55462e-06
-8.58269e-05
7.00437e-06
-8.77054e-05
6.39193e-06
-8.93478e-05
5.71971e-06
-9.07393e-05
4.99067e-06
-9.18666e-05
4.2084e-06
-9.27179e-05
3.37704e-06
-9.3283e-05
2.50129e-06
-9.35537e-05
1.58637e-06
-9.35237e-05
6.38177e-07
-9.31849e-05
-3.36637e-07
-9.25399e-05
-1.33376e-06
-9.15845e-05
-2.34378e-06
-9.03202e-05
-3.35985e-06
-8.87504e-05
-4.37438e-06
-8.68802e-05
-5.3794e-06
-8.4717e-05
-6.36667e-06
-8.22701e-05
-7.32784e-06
-7.95511e-05
-8.25444e-06
-7.65734e-05
-9.13802e-06
-7.33527e-05
-9.97022e-06
-6.99065e-05
-1.07429e-05
-6.62543e-05
-1.14481e-05
-6.24174e-05
-1.20784e-05
-5.84188e-05
-1.26269e-05
-5.42831e-05
-1.30874e-05
-5.00363e-05
-1.34542e-05
-4.57056e-05
-1.3723e-05
-4.13192e-05
-1.389e-05
-3.69061e-05
-1.39529e-05
-3.24955e-05
-1.39106e-05
-2.81172e-05
-1.37633e-05
-2.38004e-05
-1.35123e-05
-1.95742e-05
-1.31607e-05
-1.54665e-05
-1.27127e-05
-1.15043e-05
-1.21741e-05
-7.71288e-06
-1.15519e-05
-4.11565e-06
-1.08543e-05
-7.33963e-07
-1.00905e-05
2.41356e-06
-9.27079e-06
5.31089e-06
-8.40608e-06
7.94501e-06
-7.50782e-06
1.0306e-05
-6.58772e-06
1.23873e-05
-5.65756e-06
1.41856e-05
-4.7289e-06
1.57007e-05
-3.81287e-06
1.69357e-05
-2.91991e-06
1.78969e-05
-2.05961e-06
1.85931e-05
-1.2405e-06
1.9036e-05
-4.69911e-07
1.92394e-05
2.46136e-07
1.9219e-05
9.02997e-07
1.89921e-05
1.4974e-06
1.85771e-05
2.02746e-06
1.79933e-05
2.49256e-06
1.72602e-05
2.89326e-06
1.63975e-05
3.2311e-06
1.54249e-05
3.50841e-06
1.43612e-05
3.728e-06
1.32252e-05
3.89287e-06
1.20349e-05
4.00587e-06
1.08077e-05
4.06929e-06
9.56079e-06
4.08448e-06
8.31137e-06
4.0515e-06
7.07677e-06
3.96873e-06
5.87498e-06
3.83274e-06
4.72496e-06
3.63823e-06
3.64693e-06
3.37839e-06
2.66249e-06
3.04574e-06
1.79459e-06
2.63373e-06
1.06745e-06
2.13945e-06
5.06543e-07
1.5676e-06
1.39451e-07
9.36011e-07
2.88176e-07
1.01213e-07
-3.53966e-07
3.41443e-07
-9.26006e-07
6.74162e-07
-1.35729e-06
1.06221e-06
-1.65085e-06
1.47416e-06
-1.81582e-06
1.88303e-06
-1.86516e-06
2.2656e-06
-1.81386e-06
2.60213e-06
-1.67757e-06
2.8761e-06
-1.47167e-06
3.07397e-06
-1.2105e-06
3.18494e-06
-9.07024e-07
3.20062e-06
-5.72504e-07
3.11465e-06
-2.16407e-07
2.92238e-06
1.53661e-07
2.62043e-06
5.31915e-07
2.20636e-06
9.14307e-07
1.67831e-06
1.29838e-06
1.03471e-06
1.68309e-06
2.74013e-07
2.06857e-06
-6.05504e-07
2.4559e-06
-1.60586e-06
2.8468e-06
-2.72947e-06
3.24343e-06
-3.97911e-06
3.64809e-06
-5.35791e-06
4.06298e-06
-6.86925e-06
4.49001e-06
-8.5166e-06
4.93064e-06
-1.03034e-05
5.38575e-06
-1.22326e-05
5.85553e-06
-1.43072e-05
6.33948e-06
-1.6529e-05
6.83635e-06
-1.88992e-05
7.34417e-06
-2.14179e-05
7.86029e-06
-2.40841e-05
8.38141e-06
-2.68952e-05
8.90363e-06
-2.98474e-05
9.42253e-06
-3.29351e-05
9.93321e-06
-3.6151e-05
1.04304e-05
-3.94863e-05
1.09084e-05
-4.29302e-05
1.13613e-05
-4.64703e-05
1.17831e-05
-5.00926e-05
1.21677e-05
-5.37813e-05
1.25087e-05
-5.75193e-05
1.28003e-05
-6.12879e-05
1.30364e-05
-6.50675e-05
1.32114e-05
-6.88373e-05
1.33201e-05
-7.25756e-05
1.33578e-05
-7.62605e-05
1.33202e-05
-7.98694e-05
1.32035e-05
-8.33796e-05
1.30049e-05
-8.67687e-05
1.27221e-05
-9.00144e-05
1.23535e-05
-9.30952e-05
1.18985e-05
-9.599e-05
1.13569e-05
-9.86788e-05
1.07298e-05
-0.000101143
1.00186e-05
-0.000103364
9.22569e-06
-0.000105326
8.35423e-06
-0.000107015
7.40803e-06
-0.000108416
6.39161e-06
-0.000109517
5.31014e-06
-0.00011031
4.16944e-06
-0.000110784
2.97592e-06
-0.000110935
1.73658e-06
-0.000110756
4.5919e-07
-0.000110243
-8.48881e-07
-0.000109398
-2.17905e-06
-0.00010822
-3.52208e-06
-0.000106711
-4.86877e-06
-0.000104876
-6.20952e-06
-0.000102721
-7.53446e-06
-0.000100254
-8.83344e-06
-9.74856e-05
-1.00962e-05
-9.44278e-05
-1.13123e-05
-9.10945e-05
-1.24713e-05
-8.75016e-05
-1.35631e-05
-8.3667e-05
-1.45775e-05
-7.96103e-05
-1.55048e-05
-7.5353e-05
-1.63357e-05
-7.09184e-05
-1.70616e-05
-6.63311e-05
-1.76746e-05
-6.16175e-05
-1.81678e-05
-5.68052e-05
-1.85353e-05
-5.19229e-05
-1.87723e-05
-4.70004e-05
-1.88755e-05
-4.20678e-05
-1.88432e-05
-3.7156e-05
-1.86751e-05
-3.22957e-05
-1.83726e-05
-2.75175e-05
-1.79389e-05
-2.28514e-05
-1.73789e-05
-1.83263e-05
-1.66992e-05
-1.39701e-05
-1.59081e-05
-9.80873e-06
-1.50156e-05
-5.86636e-06
-1.40329e-05
-2.1647e-06
-1.29725e-05
1.27714e-06
-1.18479e-05
4.44292e-06
-1.06736e-05
7.31951e-06
-9.46431e-06
9.89705e-06
-8.23511e-06
1.21691e-05
-7.00093e-06
1.41325e-05
-5.77633e-06
1.57878e-05
-4.57516e-06
1.71385e-05
-3.41035e-06
1.81916e-05
-2.29359e-06
1.89569e-05
-1.23519e-06
1.94469e-05
-2.43878e-07
1.96766e-05
6.73315e-07
1.96629e-05
1.51109e-06
1.94245e-05
2.26588e-06
1.89812e-05
2.9358e-06
1.8354e-05
3.52053e-06
1.7564e-05
4.02108e-06
1.66328e-05
4.43957e-06
1.5582e-05
4.77885e-06
1.44327e-05
5.04218e-06
1.32058e-05
5.23274e-06
1.19219e-05
5.35318e-06
1.06013e-05
5.40511e-06
9.26415e-06
5.38865e-06
7.93085e-06
5.30204e-06
6.62226e-06
5.14132e-06
5.36009e-06
4.90041e-06
4.16713e-06
4.57135e-06
3.06767e-06
4.14521e-06
2.08775e-06
3.61364e-06
1.2558e-06
2.9714e-06
6.03681e-07
2.21972e-06
1.68848e-07
1.37084e-06
4.57025e-07
1.03209e-07
-4.57176e-07
3.46315e-07
-1.16911e-06
6.78612e-07
-1.68959e-06
1.05942e-06
-2.03165e-06
1.45485e-06
-2.21126e-06
1.83633e-06
-2.24664e-06
2.17963e-06
-2.15716e-06
2.46431e-06
-1.96225e-06
2.67329e-06
-1.68064e-06
2.79251e-06
-1.32972e-06
2.8106e-06
-9.25117e-07
2.71855e-06
-4.80452e-07
2.50931e-06
-7.16943e-09
2.17746e-06
4.85509e-07
1.71882e-06
9.90555e-07
1.1301e-06
1.50303e-06
4.08556e-07
2.01992e-06
-4.48258e-07
2.53991e-06
-1.44276e-06
3.06307e-06
-2.5775e-06
3.59063e-06
-3.85527e-06
4.12457e-06
-5.27915e-06
4.66731e-06
-6.85248e-06
5.22142e-06
-8.57879e-06
5.78929e-06
-1.04617e-05
6.37288e-06
-1.25046e-05
6.97353e-06
-1.47106e-05
7.59179e-06
-1.70824e-05
8.22732e-06
-1.96218e-05
8.87885e-06
-2.23295e-05
9.54413e-06
-2.52054e-05
1.022e-05
-2.82476e-05
1.09025e-05
-3.14527e-05
1.15866e-05
-3.48159e-05
1.22668e-05
-3.83304e-05
1.29369e-05
-4.19873e-05
1.35901e-05
-4.57761e-05
1.42192e-05
-4.96842e-05
1.48165e-05
-5.36972e-05
1.53743e-05
-5.77988e-05
1.58848e-05
-6.19711e-05
1.63399e-05
-6.61945e-05
1.67321e-05
-7.04482e-05
1.70539e-05
-7.47101e-05
1.72982e-05
-7.89572e-05
1.74586e-05
-8.3166e-05
1.75289e-05
-8.73124e-05
1.75042e-05
-9.13722e-05
1.73799e-05
-9.53213e-05
1.71526e-05
-9.91359e-05
1.68196e-05
-0.000102793
1.63791e-05
-0.00010627
1.58306e-05
-0.000109546
1.51741e-05
-0.0001126
1.4411e-05
-0.000115413
1.35431e-05
-0.000117968
1.25737e-05
-0.000120249
1.15064e-05
-0.00012224
1.03459e-05
-0.00012393
9.09761e-06
-0.000125306
7.76768e-06
-0.000126359
6.3629e-06
-0.00012708
4.89069e-06
-0.000127463
3.35911e-06
-0.000127503
1.77672e-06
-0.000127198
1.53235e-07
-0.000126543
-1.50327e-06
-0.000125541
-3.18138e-06
-0.000124192
-4.87091e-06
-0.0001225
-6.56094e-06
-0.000120469
-8.24021e-06
-0.000118106
-9.89714e-06
-0.00011542
-1.15199e-05
-0.00011242
-1.30964e-05
-0.000109117
-1.46146e-05
-0.000105527
-1.60622e-05
-0.000101663
-1.74271e-05
-9.75425e-05
-1.86976e-05
-9.31853e-05
-1.9862e-05
-8.86118e-05
-2.09092e-05
-8.38444e-05
-2.1829e-05
-7.89075e-05
-2.26116e-05
-7.38268e-05
-2.32485e-05
-6.86296e-05
-2.37324e-05
-6.33446e-05
-2.40572e-05
-5.80016e-05
-2.42185e-05
-5.26312e-05
-2.42136e-05
-4.72648e-05
-2.40415e-05
-4.19342e-05
-2.37032e-05
-3.6671e-05
-2.3202e-05
-3.15068e-05
-2.25431e-05
-2.64724e-05
-2.17336e-05
-2.15976e-05
-2.07829e-05
-1.69109e-05
-1.97023e-05
-1.2439e-05
-1.85048e-05
-8.20629e-06
-1.72051e-05
-4.23502e-06
-1.58192e-05
-5.44522e-07
-1.43641e-05
2.84887e-06
-1.28577e-05
5.93202e-06
-1.13183e-05
8.69517e-06
-9.76409e-06
1.11321e-05
-8.21326e-06
1.32401e-05
-6.68316e-06
1.502e-05
-5.19023e-06
1.6476e-05
-3.74959e-06
1.76156e-05
-2.37482e-06
1.84495e-05
-1.07772e-06
1.89909e-05
1.31847e-07
1.92558e-05
1.24617e-06
1.92622e-05
2.25948e-06
1.90299e-05
3.16816e-06
1.85799e-05
3.97051e-06
1.79345e-05
4.66652e-06
1.71164e-05
5.25766e-06
1.61488e-05
5.74644e-06
1.5055e-05
6.13598e-06
1.38582e-05
6.42954e-06
1.25815e-05
6.62989e-06
1.12478e-05
6.73878e-06
9.88008e-06
6.75636e-06
8.50144e-06
6.68068e-06
7.13536e-06
6.5074e-06
5.8061e-06
6.22967e-06
4.53903e-06
5.83842e-06
3.36113e-06
5.32311e-06
2.30169e-06
4.67308e-06
1.39341e-06
3.87968e-06
6.74128e-07
2.939e-06
1.89709e-07
1.85526e-06
6.46735e-07
1.00672e-07
-5.57847e-07
3.35291e-07
-1.40373e-06
6.50975e-07
-2.00527e-06
1.00493e-06
-2.3856e-06
1.36171e-06
-2.56804e-06
1.69175e-06
-2.57668e-06
1.97024e-06
-2.43565e-06
2.17642e-06
-2.16843e-06
2.29297e-06
-1.7972e-06
2.3056e-06
-1.34234e-06
2.20261e-06
-8.22129e-07
1.97456e-06
-2.52405e-07
1.61388e-06
3.53515e-07
1.11448e-06
9.84907e-07
4.71441e-07
1.63359e-06
-3.19349e-07
2.29382e-06
-1.26149e-06
2.96206e-06
-2.3583e-06
3.63672e-06
-3.61308e-06
4.31785e-06
-5.02918e-06
5.00673e-06
-6.61011e-06
5.7055e-06
-8.35954e-06
6.41674e-06
-1.02812e-05
7.14311e-06
-1.23789e-05
7.88697e-06
-1.46561e-05
8.65007e-06
-1.71159e-05
9.43335e-06
-1.97609e-05
1.02367e-05
-2.25925e-05
1.1059e-05
-2.56114e-05
1.18977e-05
-2.88165e-05
1.27493e-05
-3.22056e-05
1.36091e-05
-3.57743e-05
1.44712e-05
-3.95166e-05
1.53289e-05
-4.34245e-05
1.61747e-05
-4.74877e-05
1.70001e-05
-5.16939e-05
1.77964e-05
-5.60288e-05
1.85541e-05
-6.04761e-05
1.92637e-05
-6.50173e-05
1.99156e-05
-6.96325e-05
2.05e-05
-7.43001e-05
2.10075e-05
-7.89971e-05
2.14291e-05
-8.36995e-05
2.17564e-05
-8.83826e-05
2.19814e-05
-9.30211e-05
2.20971e-05
-9.75896e-05
2.20974e-05
-0.000102063
2.19772e-05
-0.000106415
2.17325e-05
-0.000110623
2.13603e-05
-0.000114662
2.08588e-05
-0.00011851
2.02274e-05
-0.000122146
1.94666e-05
-0.00012555
1.8578e-05
-0.000128703
1.7564e-05
-0.000131589
1.64284e-05
-0.000134191
1.51757e-05
-0.000136495
1.38112e-05
-0.000138491
1.23411e-05
-0.000140166
1.07725e-05
-0.000141511
9.11283e-06
-0.000142518
7.37051e-06
-0.000143182
5.55438e-06
-0.000143497
3.67388e-06
-0.000143459
1.739e-06
-0.000143066
-2.39423e-07
-0.000142318
-2.25157e-06
-0.000141214
-4.28495e-06
-0.000139757
-6.32798e-06
-0.00013795
-8.3684e-06
-0.000135797
-1.03935e-05
-0.000133303
-1.23904e-05
-0.000130478
-1.43455e-05
-0.000127329
-1.62455e-05
-0.000123867
-1.80765e-05
-0.000120104
-1.98246e-05
-0.000116055
-2.14761e-05
-0.000111736
-2.30173e-05
-0.000107163
-2.44347e-05
-0.000102357
-2.57156e-05
-9.73378e-05
-2.68477e-05
-9.21299e-05
-2.78195e-05
-8.67577e-05
-2.86207e-05
-8.12479e-05
-2.92423e-05
-7.56286e-05
-2.96766e-05
-6.99293e-05
-2.99178e-05
-6.41809e-05
-2.9962e-05
-5.84151e-05
-2.98072e-05
-5.26644e-05
-2.9454e-05
-4.69616e-05
-2.89049e-05
-4.13395e-05
-2.81651e-05
-3.58306e-05
-2.72424e-05
-3.04669e-05
-2.61466e-05
-2.5279e-05
-2.48903e-05
-2.0296e-05
-2.34878e-05
-1.55453e-05
-2.19558e-05
-1.10519e-05
-2.03126e-05
-6.83829e-06
-1.85777e-05
-2.92401e-06
-1.6772e-05
6.7455e-07
-1.49168e-05
3.94438e-06
-1.30339e-05
6.87595e-06
-1.11448e-05
9.46339e-06
-9.2706e-06
1.17044e-05
-7.43128e-06
1.36005e-05
-5.64562e-06
1.51564e-05
-3.93072e-06
1.63804e-05
-2.30172e-06
1.72838e-05
-7.71613e-07
1.7881e-05
6.48968e-07
1.81887e-05
1.95177e-06
1.8226e-05
3.13093e-06
1.80136e-05
4.18289e-06
1.75739e-05
5.10619e-06
1.69304e-05
5.90116e-06
1.61073e-05
6.56954e-06
1.51294e-05
7.11396e-06
1.40215e-05
7.53738e-06
1.2809e-05
7.84245e-06
1.15169e-05
8.03085e-06
1.01706e-05
8.10264e-06
8.79566e-06
8.05565e-06
7.41795e-06
7.88511e-06
6.06419e-06
7.58343e-06
4.76229e-06
7.14032e-06
3.54197e-06
6.54343e-06
2.43572e-06
5.77933e-06
1.48021e-06
4.83519e-06
7.18373e-07
3.70084e-06
2.02537e-07
2.3711e-06
8.49272e-07
9.43245e-08
-6.5217e-07
3.1038e-07
-1.61979e-06
5.94644e-07
-2.28954e-06
9.03482e-07
-2.69444e-06
1.20084e-06
-2.8654e-06
1.45682e-06
-2.83265e-06
1.64653e-06
-2.62537e-06
1.74926e-06
-2.27116e-06
1.74775e-06
-1.79568e-06
1.6277e-06
-1.2223e-06
1.37732e-06
-5.71749e-07
9.86896e-07
1.38019e-07
4.48437e-07
8.91974e-07
-2.44688e-07
1.67803e-06
-1.09808e-06
2.48699e-06
-2.11663e-06
3.31236e-06
-3.30473e-06
4.15016e-06
-4.66657e-06
4.99856e-06
-6.20623e-06
5.85751e-06
-7.9278e-06
6.7283e-06
-9.8354e-06
7.6131e-06
-1.19331e-05
8.51447e-06
-1.42249e-05
9.43492e-06
-1.67145e-05
1.03765e-05
-1.9405e-05
1.13405e-05
-2.22987e-05
1.23271e-05
-2.53972e-05
1.33352e-05
-2.87004e-05
1.43622e-05
-3.22071e-05
1.54044e-05
-3.59141e-05
1.64562e-05
-3.98162e-05
1.75112e-05
-4.39064e-05
1.85614e-05
-4.81753e-05
1.95978e-05
-5.26113e-05
2.06107e-05
-5.72005e-05
2.15893e-05
-6.19268e-05
2.25227e-05
-6.6772e-05
2.33993e-05
-7.17159e-05
2.42076e-05
-7.67366e-05
2.49363e-05
-8.18106e-05
2.5574e-05
-8.69133e-05
2.61101e-05
-9.20189e-05
2.65348e-05
-9.71013e-05
2.68388e-05
-0.000102134
2.7014e-05
-0.00010709
2.70535e-05
-0.000111944
2.69515e-05
-0.000116671
2.67034e-05
-0.000121244
2.63063e-05
-0.000125642
2.57582e-05
-0.000129842
2.50586e-05
-0.000133823
2.42083e-05
-0.000137566
2.32093e-05
-0.000141052
2.20646e-05
-0.000144267
2.07786e-05
-0.000147195
1.93563e-05
-0.000149823
1.78039e-05
-0.00015214
1.61282e-05
-0.000154136
1.43369e-05
-0.000155802
1.24382e-05
-0.00015713
1.04412e-05
-0.000158115
8.35522e-06
-0.000158751
6.19041e-06
-0.000159034
3.95728e-06
-0.000158962
1.66693e-06
-0.000158532
-6.69062e-07
-0.000157745
-3.03916e-06
-0.000156599
-5.43043e-06
-0.000155097
-7.83007e-06
-0.000153241
-1.02247e-05
-0.000151034
-1.26005e-05
-0.000148481
-1.49432e-05
-0.000145589
-1.72381e-05
-0.000142364
-1.94704e-05
-0.000138815
-2.16248e-05
-0.000134954
-2.36858e-05
-0.000130792
-2.56379e-05
-0.000126344
-2.74657e-05
-0.000121625
-2.9154e-05
-0.000116652
-3.0688e-05
-0.000111447
-3.20534e-05
-0.000106029
-3.32368e-05
-0.000100424
-3.42259e-05
-9.46564e-05
-3.50098e-05
-8.87541e-05
-3.55789e-05
-8.27461e-05
-3.59258e-05
-7.66631e-05
-3.60449e-05
-7.05373e-05
-3.59331e-05
-6.44017e-05
-3.55896e-05
-5.82901e-05
-3.50165e-05
-5.22367e-05
-3.42185e-05
-4.62758e-05
-3.32033e-05
-4.04412e-05
-3.19812e-05
-3.47659e-05
-3.05655e-05
-2.92817e-05
-2.8972e-05
-2.40187e-05
-2.72189e-05
-1.90048e-05
-2.53264e-05
-1.42657e-05
-2.33168e-05
-9.82411e-06
-2.12136e-05
-5.69973e-06
-1.90412e-05
-1.90889e-06
-1.68248e-05
1.53564e-06
-1.45894e-05
4.62475e-06
-1.23597e-05
7.35309e-06
-1.01596e-05
9.71907e-06
-8.0116e-06
1.17248e-05
-5.93645e-06
1.3376e-05
-3.95292e-06
1.46818e-05
-2.0774e-06
1.56545e-05
-3.23754e-07
1.63094e-05
1.29689e-06
1.66643e-05
2.77603e-06
1.67393e-05
4.10786e-06
1.65565e-05
5.289e-06
1.61394e-05
6.31824e-06
1.55129e-05
7.19609e-06
1.47026e-05
7.92429e-06
1.37348e-05
8.50516e-06
1.26363e-05
8.94093e-06
1.14342e-05
9.23296e-06
1.01558e-05
9.38102e-06
8.82881e-06
9.38262e-06
7.48145e-06
9.23247e-06
6.14275e-06
8.92213e-06
4.84305e-06
8.44002e-06
3.61474e-06
7.77174e-06
2.49328e-06
6.90079e-06
1.51877e-06
5.8097e-06
7.38139e-07
4.48147e-06
2.08069e-07
2.90117e-06
1.05734e-06
8.4634e-08
-7.36804e-07
2.7302e-07
-1.80817e-06
5.12216e-07
-2.52874e-06
7.58888e-07
-2.94111e-06
9.77284e-07
-3.0838e-06
1.13788e-06
-2.99325e-06
1.21625e-06
-2.70373e-06
1.19209e-06
-2.247e-06
1.04852e-06
-1.65212e-06
7.71476e-07
-9.4525e-07
3.49207e-07
-1.4948e-07
-2.28116e-07
7.15342e-07
-9.68794e-07
1.63265e-06
-1.87993e-06
2.58917e-06
-2.96773e-06
3.57479e-06
-4.23777e-06
4.5824e-06
-5.69522e-06
5.60761e-06