/*--------------------------------*- C++ -*----------------------------------*\
| =========                 |                                                 |
| \\      /  F ield         | OpenFOAM: The Open Source CFD Toolbox           |
|  \\    /   O peration     | Version:  2112                                  |
|   \\  /    A nd           | Website:  www.openfoam.com                      |
|    \\/     M anipulation  |                                                 |
\*---------------------------------------------------------------------------*/
FoamFile
{
    version     2.0;
    format      ascii;
    arch        "LSB;label=32;scalar=64";
    class       volVectorField;
    location    "33";
    object      U;
}
// * * * * * * * * * * * * * * * * * * * * * * * * * * * * * * * * * * * * * //

dimensions      [0 1 -1 0 0 0 0];

internalField   nonuniform List<vector> 
16641
(
(-7.74977e-06 7.35585e-06 0)
(2.84186e-06 -6.59818e-06 0)
(5.92059e-05 -2.22439e-05 0)
(0.000149238 -3.32322e-05 0)
(0.000261875 -3.96737e-05 0)
(0.000387002 -4.25358e-05 0)
(0.00051613 -4.27342e-05 0)
(0.000642645 -4.10223e-05 0)
(0.000761593 -3.79828e-05 0)
(0.000869372 -3.40623e-05 0)
(0.000963496 -2.96069e-05 0)
(0.00104238 -2.48843e-05 0)
(0.00110517 -2.00986e-05 0)
(0.00115156 -1.54004e-05 0)
(0.00118167 -1.08929e-05 0)
(0.00119589 -6.6384e-06 0)
(0.00119478 -2.66168e-06 0)
(0.00117896 1.04394e-06 0)
(0.00114901 4.50736e-06 0)
(0.00110545 7.77723e-06 0)
(0.00104861 1.09158e-05 0)
(0.000978664 1.39933e-05 0)
(0.000895572 1.70832e-05 0)
(0.000799092 2.02572e-05 0)
(0.000688783 2.35822e-05 0)
(0.000564023 2.71175e-05 0)
(0.000424039 3.09131e-05 0)
(0.000267937 3.50082e-05 0)
(9.47336e-05 3.94314e-05 0)
(-9.66042e-05 4.42006e-05 0)
(-0.000307127 4.93252e-05 0)
(-0.000537869 5.48046e-05 0)
(-0.000789818 6.06302e-05 0)
(-0.00106389 6.67863e-05 0)
(-0.0013609 7.32506e-05 0)
(-0.00168154 7.99939e-05 0)
(-0.00202635 8.69809e-05 0)
(-0.00239569 9.41695e-05 0)
(-0.00278976 0.000101511 0)
(-0.00320849 0.000108949 0)
(-0.00365163 0.000116421 0)
(-0.00411863 0.000123857 0)
(-0.00460868 0.000131177 0)
(-0.00512067 0.000138299 0)
(-0.00565319 0.000145128 0)
(-0.00620449 0.000151568 0)
(-0.00677248 0.000157515 0)
(-0.00735475 0.000162861 0)
(-0.00794853 0.000167494 0)
(-0.00855073 0.0001713 0)
(-0.00915791 0.000174166 0)
(-0.00976631 0.000175979 0)
(-0.0103719 0.000176628 0)
(-0.0109703 0.000176008 0)
(-0.0115569 0.000174019 0)
(-0.0121271 0.000170571 0)
(-0.0126756 0.000165585 0)
(-0.0131976 0.000158994 0)
(-0.0136877 0.000150745 0)
(-0.0141407 0.000140802 0)
(-0.0145515 0.000129151 0)
(-0.014915 0.000115794 0)
(-0.0152261 0.000100758 0)
(-0.0154802 8.40949e-05 0)
(-0.0156729 6.59011e-05 0)
(-0.0158001 4.62964e-05 0)
(-0.0158583 2.53666e-05 0)
(-0.0158441 3.3462e-06 0)
(-0.015755 -1.97098e-05 0)
(-0.0155892 -4.35209e-05 0)
(-0.0153457 -6.78275e-05 0)
(-0.0150238 -9.23661e-05 0)
(-0.0146242 -0.000116852 0)
(-0.014148 -0.000140983 0)
(-0.0135974 -0.000164441 0)
(-0.0129756 -0.000186902 0)
(-0.0122865 -0.000208038 0)
(-0.0115351 -0.000227528 0)
(-0.0107272 -0.000245061 0)
(-0.00986929 -0.000260347 0)
(-0.0089688 -0.000273122 0)
(-0.00803375 -0.000283157 0)
(-0.00707273 -0.000290266 0)
(-0.00609475 -0.000294311 0)
(-0.00510915 -0.00029521 0)
(-0.0041254 -0.000292935 0)
(-0.00315296 -0.000287524 0)
(-0.00220113 -0.000279073 0)
(-0.00127885 -0.000267735 0)
(-0.000394491 -0.000253737 0)
(0.000444024 -0.000237416 0)
(0.00122968 -0.000218927 0)
(0.00195651 -0.00019873 0)
(0.00261939 -0.000177188 0)
(0.00321432 -0.000154698 0)
(0.00373843 -0.000131656 0)
(0.00419002 -0.000108457 0)
(0.0045685 -8.5481e-05 0)
(0.00487438 -6.308e-05 0)
(0.0051092 -4.15724e-05 0)
(0.00527544 -2.12351e-05 0)
(0.00537639 -2.29884e-06 0)
(0.00541606 1.5055e-05 0)
(0.00539903 3.06944e-05 0)
(0.0053303 4.45398e-05 0)
(0.00521518 5.65584e-05 0)
(0.00505912 6.67614e-05 0)
(0.00486758 7.52002e-05 0)
(0.00464597 8.19612e-05 0)
(0.00439946 8.71593e-05 0)
(0.00413295 9.09324e-05 0)
(0.00385101 9.34339e-05 0)
(0.00355776 9.4826e-05 0)
(0.00325693 9.5272e-05 0)
(0.00295181 9.49272e-05 0)
(0.00264528 9.39293e-05 0)
(0.00233991 9.23864e-05 0)
(0.00203802 9.03629e-05 0)
(0.00174185 8.78621e-05 0)
(0.00145373 8.48059e-05 0)
(0.00117637 8.10096e-05 0)
(0.000913092 7.61526e-05 0)
(0.000668229 6.97467e-05 0)
(0.000447464 6.11104e-05 0)
(0.000258154 4.93945e-05 0)
(0.000109237 3.37895e-05 0)
(1.01763e-05 1.41779e-05 0)
(-3.12443e-05 -6.97995e-06 0)
(-1.8381e-05 -1.84302e-05 0)
(6.3447e-06 -3.38796e-06 0)
(7.24504e-05 -7.28843e-05 0)
(0.00023133 -0.000142254 0)
(0.000457544 -0.000193666 0)
(0.000729821 -0.000225815 0)
(0.00102864 -0.000240994 0)
(0.00133597 -0.000242268 0)
(0.00163659 -0.00023267 0)
(0.00191833 -0.000214885 0)
(0.00217183 -0.000191186 0)
(0.00239024 -0.000163466 0)
(0.0025688 -0.000133267 0)
(0.00270454 -0.000101816 0)
(0.00279587 -7.00511e-05 0)
(0.00284227 -3.86469e-05 0)
(0.00284397 -8.03959e-06 0)
(0.00280169 2.15453e-05 0)
(0.00271634 5.00631e-05 0)
(0.00258886 7.76173e-05 0)
(0.00242002 0.000104429 0)
(0.00221026 0.000130804 0)
(0.00195967 0.000157102 0)
(0.00166787 0.000183703 0)
(0.00133403 0.000210989 0)
(0.000956875 0.000239312 0)
(0.000534728 0.000268985 0)
(6.55862e-05 0.000300263 0)
(-0.000452808 0.000333341 0)
(-0.00102288 0.000368344 0)
(-0.00164712 0.00040533 0)
(-0.002328 0.000444296 0)
(-0.00306789 0.000485173 0)
(-0.00386896 0.000527837 0)
(-0.0047331 0.00057211 0)
(-0.00566186 0.000617763 0)
(-0.00665636 0.000664521 0)
(-0.00771725 0.000712063 0)
(-0.00884461 0.000760023 0)
(-0.0100379 0.000807994 0)
(-0.011296 0.000855525 0)
(-0.012617 0.000902124 0)
(-0.0139983 0.000947264 0)
(-0.0154363 0.00099038 0)
(-0.0169269 0.00103088 0)
(-0.0184649 0.00106814 0)
(-0.0200443 0.00110151 0)
(-0.0216582 0.00113036 0)
(-0.0232989 0.00115401 0)
(-0.0249579 0.00117183 0)
(-0.0266258 0.00118316 0)
(-0.0282925 0.00118739 0)
(-0.0299472 0.00118393 0)
(-0.0315784 0.00117226 0)
(-0.0331742 0.00115188 0)
(-0.0347222 0.00112236 0)
(-0.0362097 0.00108337 0)
(-0.0376236 0.00103463 0)
(-0.038951 0.000975972 0)
(-0.040179 0.000907322 0)
(-0.0412946 0.000828716 0)
(-0.0422854 0.000740303 0)
(-0.0431395 0.000642358 0)
(-0.0438454 0.000535276 0)
(-0.0443927 0.000419598 0)
(-0.0447716 0.000296049 0)
(-0.0449739 0.000165402 0)
(-0.0449922 2.81488e-05 0)
(-0.0448203 -0.000113878 0)
(-0.0444539 -0.000259892 0)
(-0.0438901 -0.000408587 0)
(-0.043128 -0.000558518 0)
(-0.0421685 -0.00070817 0)
(-0.0410143 -0.000855947 0)
(-0.03967 -0.00100019 0)
(-0.0381423 -0.00113921 0)
(-0.0364401 -0.0012713 0)
(-0.034574 -0.00139475 0)
(-0.0325567 -0.00150792 0)
(-0.0304029 -0.00160924 0)
(-0.0281288 -0.00169725 0)
(-0.0257522 -0.00177062 0)
(-0.0232926 -0.00182823 0)
(-0.0207705 -0.00186914 0)
(-0.0182071 -0.00189268 0)
(-0.0156246 -0.00189842 0)
(-0.0130454 -0.00188623 0)
(-0.0104919 -0.00185629 0)
(-0.007986 -0.00180905 0)
(-0.00554917 -0.00174528 0)
(-0.00320171 -0.00166607 0)
(-0.0009626 -0.00157284 0)
(0.00115077 -0.00146699 0)
(0.00312306 -0.00135037 0)
(0.0049411 -0.00122495 0)
(0.00659402 -0.00109284 0)
(0.00807349 -0.000956129 0)
(0.00937375 -0.000816971 0)
(0.0104917 -0.000677471 0)
(0.0114267 -0.000539642 0)
(0.0121807 -0.000405358 0)
(0.0127579 -0.000276315 0)
(0.0131647 -0.000153996 0)
(0.0134093 -3.96459e-05 0)
(0.0135015 6.57415e-05 0)
(0.0134525 0.000161438 0)
(0.0132744 0.000246975 0)
(0.01298 0.000322135 0)
(0.0125826 0.000386939 0)
(0.0120954 0.000441618 0)
(0.0115314 0.000486593 0)
(0.0109033 0.000522437 0)
(0.010223 0.000549839 0)
(0.009502 0.00056956 0)
(0.0087505 0.00058239 0)
(0.00797809 0.000589092 0)
(0.00719345 0.00059034 0)
(0.00640459 0.000586656 0)
(0.00561905 0.000578329 0)
(0.0048442 0.000565337 0)
(0.00408768 0.000547253 0)
(0.00335784 0.000523163 0)
(0.00266434 0.000491595 0)
(0.00201868 0.000450487 0)
(0.00143461 0.000397277 0)
(0.000928235 0.000329284 0)
(0.000517143 0.000244785 0)
(0.000217722 0.000145353 0)
(4.21992e-05 4.12534e-05 0)
(-6.69603e-06 -3.13109e-05 0)
(2.2057e-05 -5.93211e-05 0)
(0.000142105 -0.000231691 0)
(0.00038876 -0.000388527 0)
(0.000720175 -0.000506008 0)
(0.00110741 -0.000580737 0)
(0.00152578 -0.000615929 0)
(0.00195179 -0.000617228 0)
(0.00236487 -0.000590912 0)
(0.00274802 -0.000542997 0)
(0.00308777 -0.000478878 0)
(0.00337383 -0.00040322 0)
(0.00359874 -0.000319938 0)
(0.00375748 -0.000232214 0)
(0.00384695 -0.00014253 0)
(0.00386559 -5.27082e-05 0)
(0.00381294 3.60336e-05 0)
(0.00368925 0.000123013 0)
(0.00349513 0.000208016 0)
(0.00323128 0.000291222 0)
(0.00289819 0.000373121 0)
(0.002496 0.000454427 0)
(0.00202435 0.000535997 0)
(0.00148231 0.000618754 0)
(0.00086835 0.000703619 0)
(0.000180372 0.000791448 0)
(-0.000584215 0.000882989 0)
(-0.00142841 0.000978839 0)
(-0.00235548 0.00107943 0)
(-0.00336888 0.001185 0)
(-0.00447201 0.00129562 0)
(-0.00566819 0.00141117 0)
(-0.00696044 0.00153135 0)
(-0.00835137 0.00165569 0)
(-0.00984305 0.00178359 0)
(-0.0114369 0.00191427 0)
(-0.0131336 0.00204685 0)
(-0.0149329 0.00218029 0)
(-0.0168337 0.00231345 0)
(-0.0188337 0.00244507 0)
(-0.0209297 0.00257377 0)
(-0.0231171 0.00269809 0)
(-0.0253902 0.00281647 0)
(-0.027742 0.00292729 0)
(-0.0301642 0.00302885 0)
(-0.0326473 0.00311942 0)
(-0.0351803 0.00319727 0)
(-0.0377512 0.00326065 0)
(-0.0403465 0.00330784 0)
(-0.042952 0.00333719 0)
(-0.0455521 0.00334711 0)
(-0.0481303 0.00333613 0)
(-0.0506696 0.0033029 0)
(-0.0531519 0.00324623 0)
(-0.055559 0.00316513 0)
(-0.0578721 0.00305877 0)
(-0.0600724 0.00292659 0)
(-0.0621409 0.00276824 0)
(-0.0640592 0.00258365 0)
(-0.0658088 0.00237302 0)
(-0.0673724 0.00213684 0)
(-0.0687329 0.00187588 0)
(-0.0698747 0.00159123 0)
(-0.070783 0.0012843 0)
(-0.0714446 0.000956807 0)
(-0.0718478 0.000610873 0)
(-0.0719832 0.000248847 0)
(-0.071842 -0.00012769 0)
(-0.0714176 -0.000514431 0)
(-0.0707068 -0.000908602 0)
(-0.0697079 -0.00130695 0)
(-0.0684215 -0.00170586 0)
(-0.0668509 -0.00210152 0)
(-0.0650017 -0.00248997 0)
(-0.0628822 -0.00286714 0)
(-0.0605035 -0.00322893 0)
(-0.0578788 -0.00357124 0)
(-0.0550241 -0.00389003 0)
(-0.0519579 -0.0041814 0)
(-0.0487009 -0.00444164 0)
(-0.045276 -0.00466734 0)
(-0.041708 -0.00485542 0)
(-0.0380236 -0.00500323 0)
(-0.0342509 -0.0051086 0)
(-0.030419 -0.00516993 0)
(-0.0265581 -0.00518622 0)
(-0.0226988 -0.00515712 0)
(-0.0188716 -0.00508298 0)
(-0.0151068 -0.00496485 0)
(-0.0114339 -0.00480448 0)
(-0.00788132 -0.0046043 0)
(-0.00447564 -0.00436745 0)
(-0.00124166 -0.00409757 0)
(0.00179831 -0.00379883 0)
(0.00462457 -0.00347581 0)
(0.00722046 -0.00313366 0)
(0.00957258 -0.00277747 0)
(0.0116708 -0.00241252 0)
(0.0135085 -0.00204407 0)
(0.0150824 -0.00167725 0)
(0.016393 -0.00131689 0)
(0.0174437 -0.000967503 0)
(0.0182411 -0.000633101 0)
(0.0187948 -0.000317188 0)
(0.0191166 -2.26729e-05 0)
(0.0192208 0.000248158 0)
(0.0191232 0.00049366 0)
(0.018841 0.00071282 0)
(0.0183922 0.000905236 0)
(0.0177956 0.00107107 0)
(0.0170698 0.001211 0)
(0.0162334 0.00132612 0)
(0.0153042 0.00141788 0)
(0.0142995 0.00148793 0)
(0.0132355 0.00153807 0)
(0.0121273 0.00157004 0)
(0.0109893 0.0015854 0)
(0.0098347 0.00158535 0)
(0.00867643 0.00157057 0)
(0.00752702 0.00154096 0)
(0.00639931 0.00149555 0)
(0.005307 0.00143227 0)
(0.00426518 0.00134793 0)
(0.00329092 0.00123825 0)
(0.00240355 0.00109838 0)
(0.0016246 0.00092385 0)
(0.000976334 0.000713006 0)
(0.000478632 0.00047108 0)
(0.000150258 0.000218075 0)
(1.544e-05 1.14528e-05 0)
(3.32415e-05 -0.00014928 0)
(0.000194566 -0.000458516 0)
(0.000508698 -0.000720387 0)
(0.000916829 -0.000913129 0)
(0.00138255 -0.00103398 0)
(0.00187726 -0.001088 0)
(0.0023739 -0.00108377 0)
(0.0028485 -0.00103112 0)
(0.00328098 -0.000939767 0)
(0.00365507 -0.000818692 0)
(0.00395799 -0.000675847 0)
(0.00418019 -0.000518023 0)
(0.00431483 -0.000350822 0)
(0.00435736 -0.000178667 0)
(0.00430504 -4.85682e-06 0)
(0.00415643 0.000168357 0)
(0.00391096 0.000339669 0)
(0.00356855 0.000508602 0)
(0.00312924 0.000675376 0)
(0.00259289 0.000840763 0)
(0.00195899 0.00100594 0)
(0.0012265 0.00117234 0)
(0.000393748 0.00134151 0)
(-0.000541557 0.001515 0)
(-0.00158231 0.00169423 0)
(-0.00273189 0.00188042 0)
(-0.00399408 0.00207451 0)
(-0.00537285 0.00227713 0)
(-0.00687222 0.00248856 0)
(-0.00849605 0.00270874 0)
(-0.0102479 0.00293724 0)
(-0.0121307 0.00317331 0)
(-0.0141469 0.00341588 0)
(-0.0162978 0.00366358 0)
(-0.018584 0.00391475 0)
(-0.0210047 0.00416751 0)
(-0.023558 0.00441969 0)
(-0.0262403 0.00466893 0)
(-0.029047 0.00491266 0)
(-0.0319716 0.00514812 0)
(-0.0350061 0.00537242 0)
(-0.0381407 0.00558252 0)
(-0.0413642 0.00577528 0)
(-0.0446636 0.00594753 0)
(-0.0480243 0.00609604 0)
(-0.0514302 0.00621765 0)
(-0.0548638 0.00630924 0)
(-0.0583061 0.00636783 0)
(-0.061737 0.00639058 0)
(-0.0651356 0.00637489 0)
(-0.0684797 0.00631841 0)
(-0.0717468 0.00621909 0)
(-0.0749139 0.00607521 0)
(-0.0779577 0.00588546 0)
(-0.080855 0.00564891 0)
(-0.0835826 0.00536507 0)
(-0.0861182 0.00503392 0)
(-0.0884397 0.00465591 0)
(-0.0905262 0.00423199 0)
(-0.0923579 0.0037636 0)
(-0.0939162 0.00325268 0)
(-0.0951842 0.00270169 0)
(-0.0961463 0.00211357 0)
(-0.0967891 0.00149173 0)
(-0.0971011 0.000839887 0)
(-0.0970742 0.000162441 0)
(-0.0967003 -0.000533949 0)
(-0.0959735 -0.00124605 0)
(-0.0948934 -0.00196794 0)
(-0.0934602 -0.0026935 0)
(-0.0916769 -0.00341643 0)
(-0.0895495 -0.00413018 0)
(-0.0870866 -0.00482805 0)
(-0.0842994 -0.00550321 0)
(-0.0812022 -0.00614879 0)
(-0.0778118 -0.00675798 0)
(-0.0741478 -0.00732412 0)
(-0.0702321 -0.00784077 0)
(-0.0660894 -0.00830186 0)
(-0.0617465 -0.00870178 0)
(-0.0572323 -0.00903546 0)
(-0.0525776 -0.00929856 0)
(-0.0478148 -0.00948748 0)
(-0.0429775 -0.00959953 0)
(-0.0381005 -0.009633 0)
(-0.0332191 -0.00958723 0)
(-0.0283686 -0.00946265 0)
(-0.0235844 -0.00926084 0)
(-0.0189011 -0.00898454 0)
(-0.0143521 -0.0086376 0)
(-0.00996954 -0.008225 0)
(-0.00578324 -0.00775268 0)
(-0.00182071 -0.0072275 0)
(0.00189309 -0.00665712 0)
(0.00533654 -0.00604981 0)
(0.00849168 -0.00541431 0)
(0.0113439 -0.00475961 0)
(0.0138826 -0.00409476 0)
(0.016101 -0.00342871 0)
(0.0179965 -0.00277003 0)
(0.0195703 -0.00212683 0)
(0.0208273 -0.00150651 0)
(0.021776 -0.000915661 0)
(0.0224282 -0.000359929 0)
(0.0227985 0.000156055 0)
(0.0229039 0.000628734 0)
(0.0227637 0.00105565 0)
(0.0223986 0.00143539 0)
(0.0218302 0.00176759 0)
(0.0210811 0.00205279 0)
(0.0201739 0.00229234 0)
(0.0191309 0.00248827 0)
(0.017974 0.00264306 0)
(0.0167244 0.00275946 0)
(0.0154021 0.00284025 0)
(0.0140265 0.00288792 0)
(0.0126159 0.00290446 0)
(0.0111881 0.00289096 0)
(0.00976065 0.00284734 0)
(0.00835125 0.00277208 0)
(0.00697834 0.002662 0)
(0.00566165 0.00251223 0)
(0.00442263 0.00231649 0)
(0.00328478 0.00206782 0)
(0.00227353 0.00176031 0)
(0.0014149 0.00139232 0)
(0.000732733 0.000971623 0)
(0.000255976 0.000524014 0)
(3.67145e-05 0.000115082 0)
(4.01439e-05 -0.000262708 0)
(0.000228817 -0.000733144 0)
(0.000588006 -0.00111014 0)
(0.00104474 -0.00137997 0)
(0.00155578 -0.00154383 0)
(0.002089 -0.00161018 0)
(0.00261467 -0.00159123 0)
(0.00310658 -0.00150063 0)
(0.00354267 -0.00135197 0)
(0.0039048 -0.00115799 0)
(0.00417851 -0.000930106 0)
(0.00435265 -0.000678188 0)
(0.00441894 -0.000410459 0)
(0.00437153 -0.000133474 0)
(0.00420648 0.000147828 0)
(0.00392124 0.000430029 0)
(0.00351427 0.000711101 0)
(0.0029845 0.000990237 0)
(0.00233108 0.00126766 0)
(0.00155298 0.00154441 0)
(0.000648814 0.00182212 0)
(-0.000383308 0.00210281 0)
(-0.00154589 0.00238865 0)
(-0.00284202 0.0026818 0)
(-0.00427532 0.00298422 0)
(-0.00584983 0.00329752 0)
(-0.00756982 0.00362289 0)
(-0.00943964 0.00396103 0)
(-0.0114634 0.00431206 0)
(-0.013645 0.00467558 0)
(-0.0159874 0.00505058 0)
(-0.0184931 0.00543558 0)
(-0.0211633 0.00582854 0)
(-0.023998 0.00622697 0)
(-0.0269957 0.00662794 0)
(-0.0301537 0.00702813 0)
(-0.033467 0.00742382 0)
(-0.0369293 0.00781101 0)
(-0.0405322 0.00818539 0)
(-0.0442654 0.00854241 0)
(-0.0481164 0.00887734 0)
(-0.0520711 0.00918531 0)
(-0.0561133 0.00946139 0)
(-0.0602248 0.00970063 0)
(-0.064386 0.00989815 0)
(-0.0685755 0.0100492 0)
(-0.0727705 0.0101493 0)
(-0.0769469 0.0101942 0)
(-0.0810798 0.01018 0)
(-0.0851433 0.0101032 0)
(-0.089111 0.00996087 0)
(-0.0929564 0.00975059 0)
(-0.096653 0.00947048 0)
(-0.100174 0.00911933 0)
(-0.103494 0.00869656 0)
(-0.106588 0.00820229 0)
(-0.109432 0.00763733 0)
(-0.112002 0.00700319 0)
(-0.114278 0.00630208 0)
(-0.116239 0.00553693 0)
(-0.117868 0.00471133 0)
(-0.119147 0.00382956 0)
(-0.120064 0.00289658 0)
(-0.120605 0.00191792 0)
(-0.120762 0.000899573 0)
(-0.120525 -0.000151683 0)
(-0.119891 -0.00122675 0)
(-0.118858 -0.00231986 0)
(-0.117426 -0.00342244 0)
(-0.115596 -0.00452564 0)
(-0.113375 -0.00562042 0)
(-0.110771 -0.00669748 0)
(-0.107794 -0.00774734 0)
(-0.104458 -0.00876039 0)
(-0.100779 -0.00972703 0)
(-0.0967757 -0.0106378 0)
(-0.0924697 -0.0114833 0)
(-0.0878848 -0.0122547 0)
(-0.0830474 -0.0129435 0)
(-0.0779861 -0.0135418 0)
(-0.0727316 -0.0140427 0)
(-0.0673166 -0.0144399 0)
(-0.0617755 -0.0147284 0)
(-0.0561441 -0.0149042 0)
(-0.0504594 -0.0149649 0)
(-0.0447589 -0.0149092 0)
(-0.0390809 -0.0147375 0)
(-0.0334635 -0.0144518 0)
(-0.0279443 -0.0140555 0)
(-0.0225604 -0.0135538 0)
(-0.0173471 -0.0129533 0)
(-0.0123383 -0.012262 0)
(-0.00756547 -0.0114895 0)
(-0.00305765 -0.0106464 0)
(0.00115929 -0.00974408 0)
(0.00506297 -0.00879506 0)
(0.00863456 -0.00781217 0)
(0.0118593 -0.00680849 0)
(0.0147264 -0.00579708 0)
(0.0172294 -0.00479068 0)
(0.0193663 -0.00380146 0)
(0.0211388 -0.00284077 0)
(0.0225532 -0.00191889 0)
(0.0236191 -0.00104488 0)
(0.02435 -0.000226389 0)
(0.0247622 0.000530417 0)
(0.0248751 0.00122093 0)
(0.02471 0.00184211 0)
(0.02429 0.0023924 0)
(0.0236396 0.00287167 0)
(0.0227839 0.00328105 0)
(0.0217483 0.00362272 0)
(0.0205583 0.00389965 0)
(0.0192388 0.00411532 0)
(0.0178142 0.00427333 0)
(0.0163079 0.00437705 0)
(0.014743 0.00442916 0)
(0.0131417 0.00443119 0)
(0.011526 0.00438315 0)
(0.00991806 0.00428311 0)
(0.00834061 0.00412699 0)
(0.00681735 0.00390854 0)
(0.00537348 0.00361972 0)
(0.00403597 0.00325179 0)
(0.00283382 0.0027973 0)
(0.00179695 0.00225368 0)
(0.000954301 0.00162855 0)
(0.000346639 0.000947587 0)
(5.41203e-05 0.000272517 0)
(4.37397e-05 -0.000390082 0)
(0.00024703 -0.001037 0)
(0.000629327 -0.00153393 0)
(0.00110758 -0.00187849 0)
(0.00163295 -0.00207838 0)
(0.00217024 -0.00214715 0)
(0.00268758 -0.00210148 0)
(0.00315721 -0.00195923 0)
(0.00355579 -0.00173807 0)
(0.00386402 -0.00145458 0)
(0.0040663 -0.0011237 0)
(0.00415036 -0.000758432 0)
(0.00410681 -0.000369669 0)
(0.00392865 3.38464e-05 0)
(0.00361084 0.000445485 0)
(0.00314972 0.000860617 0)
(0.00254263 0.00127645 0)
(0.00178744 0.00169182 0)
(0.000882218 0.00210693 0)
(-0.000175097 0.00252304 0)
(-0.00138688 0.00294223 0)
(-0.00275599 0.00336705 0)
(-0.00428576 0.00380023 0)
(-0.00598006 0.00424445 0)
(-0.00784309 0.00470207 0)
(-0.00987933 0.00517497 0)
(-0.0120933 0.00566439 0)
(-0.0144892 0.00617084 0)
(-0.0170709 0.00669405 0)
(-0.0198415 0.00723293 0)
(-0.0228032 0.00778561 0)
(-0.0259567 0.00834943 0)
(-0.0293016 0.00892104 0)
(-0.0328355 0.00949639 0)
(-0.0365544 0.0100709 0)
(-0.0404523 0.0106392 0)
(-0.0445208 0.0111959 0)
(-0.0487495 0.0117347 0)
(-0.0531259 0.0122492 0)
(-0.057635 0.0127329 0)
(-0.0622596 0.0131788 0)
(-0.0669806 0.01358 0)
(-0.0717767 0.0139296 0)
(-0.0766247 0.0142209 0)
(-0.0814999 0.0144473 0)
(-0.0863761 0.0146026 0)
(-0.091226 0.0146811 0)
(-0.0960212 0.0146775 0)
(-0.100733 0.0145873 0)
(-0.105332 0.0144065 0)
(-0.109789 0.0141319 0)
(-0.114076 0.0137614 0)
(-0.118163 0.0132933 0)
(-0.122024 0.0127272 0)
(-0.125632 0.0120634 0)
(-0.128961 0.0113031 0)
(-0.131989 0.0104485 0)
(-0.134692 0.00950267 0)
(-0.137051 0.00846956 0)
(-0.139047 0.00735395 0)
(-0.140665 0.00616146 0)
(-0.141889 0.0048985 0)
(-0.142709 0.00357223 0)
(-0.143114 0.00219058 0)
(-0.143096 0.000762227 0)
(-0.142651 -0.000703664 0)
(-0.141775 -0.00219827 0)
(-0.140469 -0.00371013 0)
(-0.138734 -0.00522861 0)
(-0.136576 -0.00674257 0)
(-0.133999 -0.00824041 0)
(-0.131015 -0.00971024 0)
(-0.127635 -0.01114 0)
(-0.123873 -0.0125174 0)
(-0.119746 -0.0138303 0)
(-0.115273 -0.0150666 0)
(-0.110476 -0.0162146 0)
(-0.10538 -0.0172628 0)
(-0.100011 -0.0182005 0)
(-0.0943967 -0.0190177 0)
(-0.0885696 -0.0197052 0)
(-0.0825622 -0.0202551 0)
(-0.0764092 -0.0206606 0)
(-0.0701472 -0.0209164 0)
(-0.0638138 -0.021019 0)
(-0.0574477 -0.0209666 0)
(-0.0510886 -0.020759 0)
(-0.044776 -0.0203983 0)
(-0.0385497 -0.0198885 0)
(-0.0324488 -0.0192357 0)
(-0.0265116 -0.0184478 0)
(-0.0207746 -0.0175349 0)
(-0.0152728 -0.0165087 0)
(-0.0100385 -0.0153824 0)
(-0.00510153 -0.0141709 0)
(-0.000488189 -0.01289 0)
(0.00377858 -0.0115562 0)
(0.00767978 -0.0101869 0)
(0.0112005 -0.00879921 0)
(0.0143303 -0.00741027 0)
(0.0170628 -0.00603661 0)
(0.0193965 -0.00469385 0)
(0.0213339 -0.00339643 0)
(0.0228819 -0.00215731 0)
(0.0240514 -0.000987759 0)
(0.0248568 0.000102844 0)
(0.025316 0.00110708 0)
(0.0254497 0.0020196 0)
(0.025281 0.00283703 0)
(0.0248349 0.00355792 0)
(0.0241376 0.00418256 0)
(0.0232166 0.00471276 0)
(0.0220996 0.00515151 0)
(0.0208143 0.00550259 0)
(0.0193884 0.00577014 0)
(0.017849 0.00595813 0)
(0.016223 0.0060698 0)
(0.0145365 0.0061071 0)
(0.0128157 0.00607015 0)
(0.0110865 0.00595675 0)
(0.0093756 0.00576211 0)
(0.00771023 0.00547885 0)
(0.00611901 0.00509745 0)
(0.00463225 0.00460736 0)
(0.00328252 0.00399913 0)
(0.0021041 0.00326789 0)
(0.00113175 0.00241808 0)
(0.000417886 0.00147006 0)
(6.71604e-05 0.000473589 0)
(4.48742e-05 -0.000523386 0)
(0.000251789 -0.00135249 0)
(0.000636922 -0.00196822 0)
(0.00111124 -0.00238089 0)
(0.00162194 -0.00260651 0)
(0.00213131 -0.00266494 0)
(0.00260593 -0.0025782 0)
(0.00301699 -0.00236883 0)
(0.00334038 -0.00205876 0)
(0.00355614 -0.00166847 0)
(0.00364799 -0.0012164 0)
(0.00360287 -0.000718631 0)
(0.00341056 -0.00018868 0)
(0.00306313 0.000362572 0)
(0.0025545 0.00092684 0)
(0.00187994 0.00149831 0)
(0.00103569 0.00207344 0)
(1.84594e-05 0.0026507 0)
(-0.00117481 0.00323024 0)
(-0.00254729 0.00381355 0)
(-0.00410239 0.00440304 0)
(-0.00584389 0.00500172 0)
(-0.00777597 0.00561276 0)
(-0.00990309 0.00623918 0)
(-0.0122299 0.00688356 0)
(-0.0147609 0.00754778 0)
(-0.0175006 0.00823286 0)
(-0.0204525 0.0089388 0)
(-0.0236198 0.00966457 0)
(-0.0270042 0.010408 0)
(-0.030606 0.011166 0)
(-0.0344239 0.0119343 0)
(-0.0384548 0.0127076 0)
(-0.0426934 0.0134802 0)
(-0.047132 0.014245 0)
(-0.0517607 0.0149948 0)
(-0.056567 0.0157215 0)
(-0.0615359 0.0164165 0)
(-0.0666501 0.0170712 0)
(-0.0718896 0.0176764 0)
(-0.0772325 0.0182233 0)
(-0.0826543 0.0187026 0)
(-0.088129 0.0191056 0)
(-0.0936289 0.019424 0)
(-0.0991249 0.0196496 0)
(-0.104587 0.0197753 0)
(-0.109984 0.0197943 0)
(-0.115285 0.0197011 0)
(-0.120458 0.0194906 0)
(-0.125473 0.0191593 0)
(-0.1303 0.0187044 0)
(-0.134908 0.0181242 0)
(-0.139271 0.0174184 0)
(-0.143359 0.0165875 0)
(-0.14715 0.0156334 0)
(-0.150618 0.0145589 0)
(-0.153742 0.013368 0)
(-0.156502 0.0120656 0)
(-0.15888 0.0106578 0)
(-0.16086 0.00915124 0)
(-0.16243 0.00755382 0)
(-0.163576 0.00587408 0)
(-0.16429 0.0041214 0)
(-0.164564 0.00230588 0)
(-0.164393 0.000438398 0)
(-0.163774 -0.00146949 0)
(-0.162705 -0.00340638 0)
(-0.161187 -0.00535913 0)
(-0.159224 -0.00731467 0)
(-0.156821 -0.00925947 0)
(-0.153985 -0.0111796 0)
(-0.150725 -0.0130609 0)
(-0.147054 -0.0148888 0)
(-0.142984 -0.0166487 0)
(-0.138534 -0.0183261 0)
(-0.13372 -0.0199066 0)
(-0.128565 -0.0213758 0)
(-0.12309 -0.0227202 0)
(-0.117323 -0.0239265 0)
(-0.111291 -0.0249826 0)
(-0.105024 -0.0258772 0)
(-0.0985546 -0.0266004 0)
(-0.0919167 -0.0271436 0)
(-0.0851466 -0.0275 0)
(-0.0782822 -0.0276647 0)
(-0.0713624 -0.0276349 0)
(-0.0644274 -0.0274097 0)
(-0.0575179 -0.0269911 0)
(-0.050675 -0.0263831 0)
(-0.0439395 -0.0255923 0)
(-0.0373519 -0.0246278 0)
(-0.0309512 -0.023501 0)
(-0.0247753 -0.0222258 0)
(-0.0188598 -0.0208177 0)
(-0.0132377 -0.0192945 0)
(-0.00793942 -0.0176752 0)
(-0.00299168 -0.0159801 0)
(0.00158237 -0.0142304 0)
(0.00576363 -0.0124476 0)
(0.00953731 -0.010653 0)
(0.0128931 -0.00886782 0)
(0.0158251 -0.00711205 0)
(0.0183322 -0.00540462 0)
(0.0204177 -0.00376276 0)
(0.0220892 -0.0022018 0)
(0.0233585 -0.00073487 0)
(0.024241 0.000627251 0)
(0.0247558 0.00187625 0)
(0.0249248 0.0030063 0)
(0.0247726 0.00401401 0)
(0.0243255 0.00489818 0)
(0.0236118 0.00565965 0)
(0.0226604 0.00630084 0)
(0.0215011 0.00682536 0)
(0.020164 0.00723744 0)
(0.018679 0.00754133 0)
(0.0170761 0.00774061 0)
(0.015385 0.00783749 0)
(0.0136351 0.00783218 0)
(0.0118561 0.00772229 0)
(0.010078 0.00750246 0)
(0.00833147 0.00716435 0)
(0.00664831 0.00669699 0)
(0.00506217 0.00608789 0)
(0.0036094 0.00532495 0)
(0.00232882 0.00439951 0)
(0.00126111 0.00331031 0)
(0.000468942 0.00206852 0)
(7.61029e-05 0.000707114 0)
(4.41606e-05 -0.00065613 0)
(0.000245327 -0.00166396 0)
(0.000615003 -0.00239107 0)
(0.00106182 -0.00286087 0)
(0.00153066 -0.00309859 0)
(0.00198217 -0.0031314 0)
(0.00238194 -0.00298726 0)
(0.00270066 -0.00269377 0)
(0.00291389 -0.00227731 0)
(0.00300138 -0.00176224 0)
(0.0029465 -0.00117046 0)
(0.00273574 -0.000521003 0)
(0.00235823 0.000170108 0)
(0.00180527 0.000889974 0)
(0.00106989 0.00162875 0)
(0.000146347 0.00237953 0)
(-0.00097024 0.00313805 0)
(-0.00228427 0.00390245 0)
(-0.00379995 0.00467281 0)
(-0.00552152 0.00545076 0)
(-0.00745342 0.006239 0)
(-0.00960029 0.00704082 0)
(-0.0119669 0.00785963 0)
(-0.0145582 0.00869859 0)
(-0.0173789 0.00956018 0)
(-0.0204334 0.010446 0)
(-0.0237253 0.0113564 0)
(-0.0272574 0.0122905 0)
(-0.031031 0.0132461 0)
(-0.035046 0.0142196 0)
(-0.0393004 0.0152059 0)
(-0.0437898 0.0161989 0)
(-0.0485078 0.0171912 0)
(-0.0534452 0.0181743 0)
(-0.0585902 0.0191389 0)
(-0.0639283 0.020075 0)
(-0.0694424 0.0209719 0)
(-0.0751126 0.0218186 0)
(-0.0809165 0.0226037 0)
(-0.0868292 0.023316 0)
(-0.0928239 0.0239441 0)
(-0.0988717 0.0244772 0)
(-0.104942 0.0249048 0)
(-0.111004 0.0252172 0)
(-0.117025 0.0254056 0)
(-0.122972 0.0254618 0)
(-0.128812 0.0253792 0)
(-0.134512 0.0251521 0)
(-0.140041 0.0247762 0)
(-0.145368 0.0242485 0)
(-0.150463 0.0235672 0)
(-0.155297 0.0227323 0)
(-0.159844 0.0217446 0)
(-0.164078 0.0206066 0)
(-0.167978 0.0193219 0)
(-0.171522 0.0178953 0)
(-0.174691 0.0163328 0)
(-0.177468 0.0146413 0)
(-0.179839 0.0128289 0)
(-0.181789 0.0109045 0)
(-0.183309 0.00887793 0)
(-0.184388 0.00675972 0)
(-0.18502 0.00456125 0)
(-0.1852 0.00229457 0)
(-0.184922 -2.75458e-05 0)
(-0.184186 -0.00239151 0)
(-0.182991 -0.00478377 0)
(-0.181339 -0.00718962 0)
(-0.179232 -0.009594 0)
(-0.176675 -0.0119814 0)
(-0.173676 -0.0143358 0)
(-0.170242 -0.016641 0)
(-0.166385 -0.0188803 0)
(-0.162117 -0.0210371 0)
(-0.157454 -0.0230945 0)
(-0.15241 -0.0250358 0)
(-0.147007 -0.0268445 0)
(-0.141266 -0.0285045 0)
(-0.13521 -0.0300005 0)
(-0.128866 -0.0313177 0)
(-0.122262 -0.0324428 0)
(-0.11543 -0.0333636 0)
(-0.108403 -0.0340696 0)
(-0.101216 -0.0345521 0)
(-0.0939057 -0.0348045 0)
(-0.0865122 -0.0348226 0)
(-0.0790756 -0.0346047 0)
(-0.0716373 -0.0341518 0)
(-0.0642395 -0.0334679 0)
(-0.0569247 -0.0325598 0)
(-0.0497351 -0.031437 0)
(-0.0427124 -0.0301122 0)
(-0.035897 -0.0286007 0)
(-0.0293277 -0.0269205 0)
(-0.023041 -0.0250916 0)
(-0.0170708 -0.0231362 0)
(-0.0114479 -0.0210781 0)
(-0.00619947 -0.0189422 0)
(-0.00134872 -0.0167541 0)
(0.00308528 -0.0145396 0)
(0.00708793 -0.0123243 0)
(0.0106493 -0.010133 0)
(0.0137641 -0.00798902 0)
(0.0164318 -0.00591432 0)
(0.0186564 -0.00392858 0)
(0.0204465 -0.0020491 0)
(0.0218148 -0.000290494 0)
(0.0227778 0.00133544 0)
(0.0233559 0.00281984 0)
(0.023572 0.00415672 0)
(0.0234521 0.00534281 0)
(0.0230242 0.00637731 0)
(0.0223179 0.00726153 0)
(0.021364 0.00799832 0)
(0.0201943 0.00859154 0)
(0.0188408 0.0090453 0)
(0.0173359 0.0093632 0)
(0.0157122 0.0095475 0)
(0.0140022 0.0095984 0)
(0.0122386 0.00951327 0)
(0.0104546 0.00928625 0)
(0.0086839 0.00890804 0)
(0.00696161 0.0083662 0)
(0.0053247 0.00764602 0)
(0.00381323 0.00673209 0)
(0.00247052 0.00561078 0)
(0.00134272 0.00427324 0)
(0.000500652 0.00271909 0)
(8.14008e-05 0.000962253 0)
(4.19907e-05 -0.000782987 0)
(0.000229302 -0.00195763 0)
(0.000567022 -0.00278254 0)
(0.000964561 -0.003294 0)
(0.00136611 -0.00352697 0)
(0.00173159 -0.00351644 0)
(0.00202634 -0.00329674 0)
(0.00222104 -0.00290081 0)
(0.00229138 -0.00235951 0)
(0.00221717 -0.00170108 0)
(0.00198172 -0.000950727 0)
(0.00157127 -0.000130299 0)
(0.000974529 0.00074187 0)
(0.000182164 0.00165102 0)
(-0.000813613 0.0025859 0)
(-0.00201947 0.00353859 0)
(-0.00344133 0.00450422 0)
(-0.00508468 0.00548058 0)
(-0.00695479 0.00646768 0)
(-0.00905692 0.00746722 0)
(-0.0113964 0.00848202 0)
(-0.0139785 0.00951546 0)
(-0.0168085 0.010571 0)
(-0.0198913 0.0116515 0)
(-0.0232316 0.012759 0)
(-0.0268328 0.0138945 0)
(-0.0306975 0.0150572 0)
(-0.0348268 0.016245 0)
(-0.0392199 0.0174538 0)
(-0.0438741 0.018678 0)
(-0.0487839 0.0199104 0)
(-0.0539417 0.0211423 0)
(-0.0593367 0.0223636 0)
(-0.0649556 0.0235632 0)
(-0.0707817 0.0247289 0)
(-0.0767958 0.0258477 0)
(-0.0829757 0.0269064 0)
(-0.0892966 0.0278911 0)
(-0.0957312 0.0287883 0)
(-0.10225 0.0295843 0)
(-0.108822 0.0302661 0)
(-0.115415 0.0308213 0)
(-0.121995 0.0312383 0)
(-0.128528 0.0315067 0)
(-0.13498 0.0316172 0)
(-0.141316 0.031562 0)
(-0.147503 0.0313347 0)
(-0.15351 0.0309306 0)
(-0.159304 0.0303464 0)
(-0.164856 0.0295805 0)
(-0.170139 0.0286329 0)
(-0.175127 0.0275051 0)
(-0.179795 0.0262001 0)
(-0.184122 0.0247223 0)
(-0.188088 0.0230773 0)
(-0.191676 0.021272 0)
(-0.194869 0.0193144 0)
(-0.197654 0.0172134 0)
(-0.200018 0.0149789 0)
(-0.201951 0.0126218 0)
(-0.203444 0.0101536 0)
(-0.204491 0.00758658 0)
(-0.205085 0.00493373 0)
(-0.205222 0.00220872 0)
(-0.204898 -0.000574152 0)
(-0.204113 -0.00339999 0)
(-0.202866 -0.00625336 0)
(-0.201157 -0.00911814 0)
(-0.19899 -0.0119777 0)
(-0.196368 -0.0148149 0)
(-0.193296 -0.017612 0)
(-0.189781 -0.0203509 0)
(-0.185833 -0.0230133 0)
(-0.181461 -0.0255803 0)
(-0.176678 -0.0280331 0)
(-0.171499 -0.0303528 0)
(-0.16594 -0.0325204 0)
(-0.160022 -0.0345178 0)
(-0.153765 -0.0363269 0)
(-0.147194 -0.0379308 0)