# Force             
# CofR              : (0.000000000000e+00 0.000000000000e+00 0.000000000000e+00)
#
# Time              	(total_x total_y total_z)	(pressure_x pressure_y pressure_z)	(viscous_x viscous_y viscous_z)
4e-05               	(3.009094704182e-02 2.009469863299e-05 -4.727336644992e-06)	(2.645150535059e-02 2.047518133118e-05 -4.695804492202e-06)	(3.639441691233e-03 -3.804826981922e-07 -3.153215279025e-08)
5e-05               	(-9.305098906052e-04 -2.611833625629e-05 4.571884044686e-06)	(-3.264873481693e-03 -2.655561001041e-05 4.683714805885e-06)	(2.334363591088e-03 4.372737541252e-07 -1.118307611991e-07)
6e-05               	(3.768119899971e-03 1.006250352860e-05 -9.316221029259e-07)	(1.957165183926e-03 1.003888422590e-05 -1.048251096712e-06)	(1.810954716045e-03 2.361930270279e-08 1.166289937865e-07)
7e-05               	(1.747910641343e-03 -3.944439858822e-06 -1.195465884059e-07)	(3.347557950640e-04 -3.888929538942e-06 -1.056777172228e-07)	(1.413154846279e-03 -5.551031988048e-08 -1.386887118309e-08)
8e-05               	(2.039026231615e-03 1.318275299525e-06 5.597108786907e-07)	(7.648862533993e-04 1.273982834590e-06 5.120472746431e-07)	(1.274139978215e-03 4.429246493453e-08 4.766360404760e-08)
9e-05               	(1.635737415395e-03 -5.352332827237e-07 -2.970691425919e-07)	(5.027585194673e-04 -5.172082061421e-07 -3.010366961182e-07)	(1.132978895928e-03 -1.802507658160e-08 3.967553526310e-09)
0.0001              	(1.591426377416e-03 1.301497467547e-07 2.644882324948e-07)	(5.396674962999e-04 1.213372975790e-07 2.437433875537e-07)	(1.051758881116e-03 8.812449175724e-09 2.074484494108e-08)
