# Moment            
# CofR              : (0.000000000000e+00 0.000000000000e+00 0.000000000000e+00)
#
# Time              	(total_x total_y total_z)	(pressure_x pressure_y pressure_z)	(viscous_x viscous_y viscous_z)
4e-05               	(7.836127164364e-11 7.746178810976e-10 -1.082054937015e-09)	(2.856523621305e-13 3.140080736211e-12 -3.728309859718e-12)	(7.807561928151e-11 7.714778003614e-10 -1.078326627155e-09)
5e-05               	(-2.376509526498e-10 -4.521220163345e-09 5.120152665953e-09)	(-5.688865839019e-13 -3.277211927166e-12 3.383557554670e-12)	(-2.370820660659e-10 -4.517942951418e-09 5.116769108398e-09)
6e-05               	(1.663962013955e-10 2.372027092913e-09 -2.816959623193e-09)	(6.109233987237e-13 1.303951646140e-12 -1.045741554284e-12)	(1.657852779967e-10 2.370723141267e-09 -2.815913881638e-09)
7e-05               	(-1.652147489845e-10 4.106564921152e-09 -4.058399113515e-09)	(-4.664160713402e-13 -3.310853700914e-13 3.306385560538e-13)	(-1.647483329131e-10 4.106896006522e-09 -4.058729752071e-09)
8e-05               	(1.316865978033e-10 3.547243553300e-09 -3.614460109493e-09)	(3.275827381888e-13 -1.484283339092e-13 -3.056806183278e-14)	(1.313590150651e-10 3.547391981634e-09 -3.614429541431e-09)
9e-05               	(-8.177417247089e-11 2.675536960790e-09 -2.659633547267e-09)	(-1.993149797639e-13 1.004273971198e-13 6.992634017211e-14)	(-8.157485749112e-11 2.675436533393e-09 -2.659703473607e-09)
0.0001              	(4.621669627937e-11 1.870288219979e-09 -1.928431481648e-09)	(1.241362865362e-13 -5.822601260294e-14 -2.141555210013e-14)	(4.609255999283e-11 1.870346445991e-09 -1.928410066096e-09)
