/*--------------------------------*- C++ -*----------------------------------*\
| =========                 |                                                 |
| \\      /  F ield         | OpenFOAM: The Open Source CFD Toolbox           |
|  \\    /   O peration     | Version:  2112                                  |
|   \\  /    A nd           | Website:  www.openfoam.com                      |
|    \\/     M anipulation  |                                                 |
\*---------------------------------------------------------------------------*/
FoamFile
{
    version     2.0;
    format      ascii;
    arch        "LSB;label=32;scalar=64";
    class       volScalarField;
    location    "2.1";
    object      p;
}
// * * * * * * * * * * * * * * * * * * * * * * * * * * * * * * * * * * * * * //

dimensions      [0 2 -2 0 0 0 0];

internalField   nonuniform List<scalar> 
16641
(
-9.59035e-09
9.17819e-06
1.6328e-05
1.88271e-05
1.46224e-05
2.80114e-06
-1.67538e-05
-4.37692e-05
-7.77889e-05
-0.000118287
-0.000164731
-0.000216624
-0.00027352
-0.000335039
-0.000400874
-0.000470786
-0.000544601
-0.000622207
-0.000703547
-0.000788604
-0.000877402
-0.000969988
-0.00106643
-0.00116679
-0.00127116
-0.00137958
-0.0014921
-0.00160873
-0.00172945
-0.00185419
-0.00198283
-0.0021152
-0.00225106
-0.0023901
-0.00253194
-0.00267611
-0.00282207
-0.00296918
-0.00311671
-0.00326385
-0.00340968
-0.00355319
-0.0036933
-0.00382883
-0.00395851
-0.00408102
-0.00419498
-0.00429896
-0.00439148
-0.0044711
-0.00453635
-0.00458581
-0.00461811
-0.00463199
-0.00462629
-0.0046
-0.00455228
-0.00448253
-0.00439033
-0.00427558
-0.00413843
-0.00397936
-0.00379917
-0.003599
-0.00338036
-0.00314507
-0.00289532
-0.00263367
-0.00236295
-0.00208627
-0.00180701
-0.00152875
-0.00125522
-0.000990256
-0.000737715
-0.00050142
-0.000285085
-9.22391e-05
7.3841e-05
0.000210207
0.000314304
0.00038403
0.000417787
0.000414523
0.000373757
0.000295599
0.000180743
3.04613e-05
-0.00015343
-0.000368615
-0.000612326
-0.000881414
-0.00117243
-0.00148169
-0.00180539
-0.00213964
-0.0024806
-0.00282453
-0.00316787
-0.00350729
-0.00383975
-0.00416255
-0.00447333
-0.00477013
-0.00505133
-0.0053157
-0.00556238
-0.00579081
-0.00600075
-0.00619222
-0.00636547
-0.00652093
-0.00665916
-0.00678084
-0.00688667
-0.00697741
-0.00705376
-0.00711638
-0.00716589
-0.0072028
-0.00722759
-0.00724071
-0.00724271
-0.00723436
-0.0072169
-0.00719249
-0.00716467
-0.00713875
-0.00712278
-9.64354e-06
-3.73812e-07
4.47147e-06
4.29106e-06
-1.69601e-06
-1.42158e-05
-3.34986e-05
-5.94394e-05
-9.17608e-05
-0.000130097
-0.000174046
-0.000223214
-0.00027723
-0.000335773
-0.000398571
-0.000465405
-0.000536114
-0.000610586
-0.000688758
-0.000770602
-0.000856127
-0.000945365
-0.00103836
-0.00113518
-0.00123586
-0.00134047
-0.00144903
-0.00156154
-0.00167798
-0.00179829
-0.00192234
-0.00204999
-0.00218101
-0.00231511
-0.00245193
-0.00259105
-0.00273195
-0.00287404
-0.00301664
-0.00315899
-0.00330022
-0.0034394
-0.00357549
-0.00370738
-0.00383389
-0.00395374
-0.00406563
-0.00416818
-0.00426001
-0.00433972
-0.00440589
-0.00445717
-0.00449223
-0.00450984
-0.00450888
-0.00448836
-0.00444746
-0.00438554
-0.00430222
-0.00419733
-0.00407101
-0.00392367
-0.00375606
-0.00356925
-0.00336465
-0.00314401
-0.0029094
-0.00266319
-0.00240812
-0.00214719
-0.00188362
-0.00162083
-0.0013624
-0.00111202
-0.000873371
-0.000650137
-0.00044588
-0.00026399
-0.000107612
2.0423e-05
0.000117665
0.000182101
0.0002122
0.000206961
0.000165929
8.92154e-05
-2.25028e-05
-0.000168
-0.000345527
-0.000552858
-0.00078734
-0.00104596
-0.00132542
-0.0016222
-0.00193266
-0.00225313
-0.00257993
-0.00290952
-0.00323852
-0.00356379
-0.00388244
-0.00419194
-0.00449005
-0.00477492
-0.00504504
-0.00529924
-0.0055367
-0.00575691
-0.00595962
-0.00614485
-0.00631281
-0.00646389
-0.00659862
-0.00671762
-0.00682155
-0.00691113
-0.00698703
-0.00704992
-0.00710043
-0.00713915
-0.00716664
-0.00718347
-0.00719033
-0.00718809
-0.00717798
-0.00716184
-0.00714238
-0.00712286
-0.00710681
-1.72911e-05
-5.57293e-06
-6.91343e-07
-1.72784e-06
-8.41521e-06
-2.12234e-05
-4.03198e-05
-6.56089e-05
-9.68657e-05
-0.000133792
-0.000176052
-0.000223307
-0.000275235
-0.000331553
-0.000392013
-0.000456419
-0.000524621
-0.000596514
-0.000672034
-0.000751155
-0.000833882
-0.000920242
-0.00101028
-0.00110404
-0.00120158
-0.00130295
-0.00140817
-0.00151726
-0.0016302
-0.00174692
-0.00186734
-0.00199131
-0.00211862
-0.00224901
-0.00238217
-0.00251768
-0.00265508
-0.00279381
-0.00293325
-0.00307265
-0.00321122
-0.00334806
-0.00348218
-0.00361253
-0.00373795
-0.00385723
-0.0039691
-0.00407223
-0.00416526
-0.00424681
-0.0043155
-0.00436999
-0.00440895
-0.00443116
-0.00443549
-0.00442092
-0.00438663
-0.00433194
-0.00425642
-0.00415987
-0.00404236
-0.00390427
-0.00374627
-0.00356935
-0.00337485
-0.00316448
-0.0029401
-0.00270418
-0.00245932
-0.0022084
-0.00195459
-0.00170122
-0.00145182
-0.00120997
-0.000979317
-0.000763471
-0.000565941
-0.000390064
-0.00023894
-0.00011536
-2.17422e-05
3.99275e-05
6.81403e-05
6.19054e-05
2.07766e-05
-5.51351e-05
-0.000165161
-0.000308089
-0.000482195
-0.00068528
-0.000914733
-0.00116759
-0.00144059
-0.00173031
-0.00203316
-0.00234553
-0.00266387
-0.0029847
-0.00330474
-0.00362095
-0.00393054
-0.00423107
-0.0045204
-0.00479676
-0.00505872
-0.0053052
-0.00553541
-0.00574891
-0.00594548
-0.00612517
-0.00628821
-0.006435
-0.00656608
-0.00668204
-0.00678357
-0.00687135
-0.00694609
-0.00700846
-0.0070591
-0.00709862
-0.0071276
-0.00714666
-0.00715644
-0.00715773
-0.00715154
-0.00713929
-0.00712291
-0.00710341
-0.00708075
-2.01644e-05
-5.69192e-06
-1.42434e-08
-1.14795e-06
-8.07355e-06
-2.10116e-05
-4.00061e-05
-6.49019e-05
-9.54629e-05
-0.000131408
-0.000172428
-0.000218216
-0.00026848
-0.000322959
-0.000381432
-0.000443717
-0.00050968
-0.000579226
-0.0006523
-0.00072888
-0.000808978
-0.000892623
-0.000979864
-0.00107076
-0.00116536
-0.00126373
-0.0013659
-0.0014719
-0.00158172
-0.00169532
-0.00181263
-0.00193353
-0.00205785
-0.00218535
-0.00231574
-0.00244867
-0.00258369
-0.0027203
-0.0028579
-0.00299581
-0.00313326
-0.0032694
-0.00340329
-0.00353389
-0.0036601
-0.00378072
-0.00389449
-0.00400012
-0.00409624
-0.00418148
-0.00425445
-0.00431378
-0.00435815
-0.00438627
-0.004397
-0.00438926
-0.00436218
-0.00431504
-0.00424733
-0.00415879
-0.00404944
-0.00391958
-0.0037698
-0.00360105
-0.0034146
-0.00321202
-0.0029953
-0.00276671
-0.00252882
-0.00228449
-0.00203683
-0.00178918
-0.00154501
-0.0013079
-0.00108149
-0.000869384
-0.000675084
-0.000501941
-0.000353062
-0.00023125
-0.000138938
-7.8127e-05
-5.034e-05
-5.65812e-05
-9.73083e-05
-0.000172418
-0.000281247
-0.000422585
-0.000594707
-0.000795413
-0.00102209
-0.00127175
-0.00154117
-0.00182688
-0.00212532
-0.0024329
-0.00274605
-0.00306135
-0.00337555
-0.00368563
-0.00398888
-0.00428289
-0.0045656
-0.00483531
-0.00509065
-0.00533061
-0.00555449
-0.00576188
-0.00595266
-0.00612691
-0.00628492
-0.00642713
-0.00655411
-0.00666649
-0.00676498
-0.0068503
-0.00692317
-0.00698426
-0.00703424
-0.00707372
-0.00710328
-0.00712347
-0.00713485
-0.00713803
-0.00713368
-0.0071228
-0.00710663
-0.00708428
-0.00705307
-1.60782e-05
1.37732e-07
6.32968e-06
5.09484e-06
-2.07236e-06
-1.52014e-05
-3.42224e-05
-5.89097e-05
-8.89988e-05
-0.000124203
-0.000164224
-0.000208774
-0.000257582
-0.000310405
-0.000367043
-0.000427332
-0.000491152
-0.000558422
-0.000629102
-0.00070318
-0.00078068
-0.000861643
-0.000946128
-0.0010342
-0.00112595
-0.00122143
-0.0013207
-0.00142381
-0.00153078
-0.00164159
-0.00175621
-0.00187454
-0.00199645
-0.00212175
-0.00225018
-0.00238142
-0.0025151
-0.00265073
-0.00278778
-0.00292559
-0.00306345
-0.00320053
-0.00333592
-0.00346862
-0.00359752
-0.00372146
-0.00383918
-0.00394936
-0.00405064
-0.0041416
-0.00422084
-0.00428693
-0.0043385
-0.00437422
-0.00439286
-0.0043933
-0.00437458
-0.00433589
-0.00427668
-0.0041966
-0.00409558
-0.00397385
-0.00383195
-0.00367076
-0.00349148
-0.00329561
-0.00308519
-0.00286235
-0.00262966
-0.00238997
-0.00214638
-0.00190221
-0.00166096
-0.00142621
-0.00120163
-0.000990844
-0.000797397
-0.000624675
-0.000475832
-0.000353714
-0.000260801
-0.000199137
-0.000170286
-0.00017529
-0.000214636
-0.000288242
-0.000395457
-0.000535078
-0.000705373
-0.000904128
-0.00112871
-0.00137611
-0.00164305
-0.00192605
-0.00222152
-0.00252581
-0.00283537
-0.00314672
-0.00345662
-0.00376206
-0.00406033
-0.00434907
-0.00462624
-0.00489019
-0.00513962
-0.00537358
-0.00559145
-0.00579288
-0.00597783
-0.00614645
-0.0062991
-0.00643629
-0.00655864
-0.00666684
-0.00676165
-0.00684383
-0.00691411
-0.00697322
-0.00702183
-0.00706054
-0.0070899
-0.0071104
-0.00712248
-0.00712654
-0.00712295
-0.00711227
-0.00709519
-0.00706926
-0.00702966
-3.97678e-06
1.2766e-05
1.8912e-05
1.73219e-05
9.72637e-06
-3.77118e-06
-2.30072e-05
-4.76963e-05
-7.75387e-05
-0.000112236
-0.000151493
-0.000195031
-0.000242592
-0.000293952
-0.000348928
-0.000407375
-0.000469188
-0.000534307
-0.000602705
-0.000674393
-0.00074941
-0.000827814
-0.000909687
-0.000995121
-0.00108421
-0.00117706
-0.00127374
-0.00137434
-0.00147891
-0.00158747
-0.00170002
-0.00181652
-0.00193688
-0.00206094
-0.00218851
-0.00231931
-0.00245301
-0.00258918
-0.00272732
-0.00286683
-0.003007
-0.00314706
-0.0032861
-0.00342313
-0.00355705
-0.00368668
-0.00381074
-0.00392788
-0.0040367
-0.00413573
-0.00422349
-0.00429851
-0.00435931
-0.00440451
-0.00443277
-0.00444289
-0.00443381
-0.00440465
-0.00435475
-0.00428369
-0.00419132
-0.00407779
-0.00394357
-0.00378949
-0.00361671
-0.00342667
-0.00322135
-0.0030029
-0.00277386
-0.00253709
-0.00229569
-0.00205299
-0.00181251
-0.0015779
-0.00135283
-0.00114101
-0.000946037
-0.000771363
-0.000620213
-0.000495509
-0.000399801
-0.000335209
-0.000303366
-0.000305372
-0.000341768
-0.000412515
-0.000516994
-0.000654017
-0.000821855
-0.00101828
-0.00124064
-0.00148588
-0.00175069
-0.00203153
-0.00232473
-0.00262662
-0.00293355
-0.00324201
-0.00354872
-0.00385063
-0.00414501
-0.00442949
-0.00470206
-0.00496108
-0.00520529
-0.00543379
-0.00564603
-0.00584174
-0.00602094
-0.00618387
-0.00633097
-0.00646283
-0.00658014
-0.00668368
-0.00677425
-0.00685267
-0.00691974
-0.00697619
-0.00702273
-0.00705994
-0.00708835
-0.00710839
-0.00712035
-0.00712447
-0.00712081
-0.00710961
-0.00709112
-0.00706169
-0.00701486
1.64742e-05
3.25757e-05
3.80324e-05
3.57078e-05
2.73907e-05
1.32733e-05
-6.41137e-06
-3.1329e-05
-6.11525e-05
-9.55723e-05
-0.000134292
-0.000177035
-0.000223559
-0.000273657
-0.00032716
-0.000383945
-0.000443928
-0.000507068
-0.000573362
-0.000642843
-0.000715575
-0.000791645
-0.000871162
-0.000954249
-0.00104104
-0.00113166
-0.00122624
-0.00132489
-0.00142772
-0.0015348
-0.00164618
-0.00176186
-0.0018818
-0.00200592
-0.00213407
-0.00226603
-0.00240151
-0.00254013
-0.00268142
-0.00282482
-0.00296966
-0.00311515
-0.00326041
-0.00340442
-0.00354608
-0.00368416
-0.00381733
-0.0039442
-0.00406327
-0.00417301
-0.00427185
-0.00435821
-0.00443052
-0.00448729
-0.00452708
-0.00454857
-0.00455062
-0.00453223
-0.00449264
-0.00443136
-0.00434816
-0.0042431
-0.0041166
-0.00396942
-0.00380272
-0.00361782
-0.00341671
-0.00320156
-0.00297489
-0.00273955
-0.00249866
-0.00225559
-0.00201389
-0.00177727
-0.00154946
-0.00133423
-0.00113526
-0.000956111
-0.000800083
-0.000670204
-0.000569125
-0.000499067
-0.00046176
-0.000458397
-0.000489601
-0.000555404
-0.000655241
-0.000787964
-0.000951866
-0.00114472
-0.00136386
-0.0016062
-0.00186838
-0.00214678
-0.00243768
-0.00273732
-0.00304196
-0.00334803
-0.00365215
-0.00395121
-0.00424245
-0.00452343
-0.00479213
-0.00504692
-0.00528654
-0.00551013
-0.00571718
-0.00590748
-0.00608113
-0.00623845
-0.00637996
-0.00650633
-0.00661836
-0.00671688
-0.00680279
-0.00687696
-0.00694026
-0.00699348
-0.00703731
-0.00707238
-0.00709918
-0.00711806
-0.00712924
-0.00713276
-0.00712849
-0.00711639
-0.00709637
-0.00706395
-0.00701152
4.52353e-05
5.96346e-05
6.37427e-05
6.02404e-05
5.08494e-05
3.58189e-05
1.54322e-05
-9.9455e-06
-3.99719e-05
-7.43276e-05
-0.000112715
-0.000154869
-0.000200558
-0.000249593
-0.000301824
-0.000357149
-0.000415508
-0.000476887
-0.000541311
-0.000608843
-0.000679576
-0.000753637
-0.000831172
-0.000912344
-0.000997328
-0.0010863
-0.00117945
-0.00127694
-0.00137892
-0.00148554
-0.0015969
-0.00171307
-0.00183408
-0.00195989
-0.00209042
-0.00222551
-0.00236492
-0.0025083
-0.00265523
-0.00280516
-0.00295742
-0.00311125
-0.00326571
-0.00341978
-0.00357229
-0.00372195
-0.00386737
-0.00400705
-0.0041394
-0.00426279
-0.00437552
-0.0044759
-0.00456225
-0.00463292
-0.00468638
-0.00472119
-0.00473608
-0.00472995
-0.00470196
-0.00465151
-0.00457828
-0.00448227
-0.00436384
-0.0042237
-0.00406292
-0.00388286
-0.00368544
-0.00347282
-0.00324751
-0.00301239
-0.00277058
-0.0025255
-0.00228075
-0.00204006
-0.00180726
-0.0015862
-0.00138067
-0.0011943
-0.00103054
-0.00089253
-0.000783051
-0.000704456
-0.000658607
-0.000646823
-0.000669844
-0.000727809
-0.000820243
-0.00094607
-0.00110363
-0.00129074
-0.00150472
-0.00174247
-0.00200059
-0.00227541
-0.00256313
-0.00285988
-0.00316185
-0.00346535
-0.00376691
-0.00406331
-0.00435171
-0.00462961
-0.00489492
-0.00514598
-0.00538152
-0.00560069
-0.00580298
-0.00598825
-0.00615664
-0.00630854
-0.00644456
-0.00656546
-0.0066721
-0.00676543
-0.00684641
-0.00691602
-0.00697516
-0.00702468
-0.00706533
-0.00709774
-0.00712238
-0.00713958
-0.00714947
-0.00715198
-0.00714679
-0.00713366
-0.00711229
-0.00707764
-0.00702136
8.20774e-05
9.38273e-05
9.59525e-05
9.08169e-05
7.99814e-05
6.37345e-05
4.239e-05
1.63234e-05
-1.41151e-05
-4.86047e-05
-8.68567e-05
-0.000128618
-0.000173672
-0.000221851
-0.000273027
-0.000327124
-0.000384111
-0.000444005
-0.000506866
-0.00057279
-0.000641917
-0.000714414
-0.000790478
-0.000870324
-0.000954183
-0.00104229
-0.0011349
-0.00123225
-0.00133455
-0.00144202
-0.00155484
-0.00167315
-0.00179705
-0.00192658
-0.0020617
-0.00220232
-0.00234824
-0.00249915
-0.00265464
-0.00281418
-0.00297709
-0.00314256
-0.00330964
-0.00347723
-0.00364409
-0.00380884
-0.00396998
-0.00412589
-0.00427486
-0.00441512
-0.00454485
-0.0046622
-0.00476535
-0.00485253
-0.00492207
-0.0049724
-0.00500213
-0.00501007
-0.00499525
-0.00495699
-0.00489488
-0.00480886
-0.00469922
-0.00456656
-0.00441188
-0.00423675
-0.00404281
-0.00383226
-0.00360761
-0.00337173
-0.00312779
-0.0028792
-0.00262962
-0.00238284
-0.00214277
-0.00191335
-0.00169846
-0.00150187
-0.00132716
-0.00117762
-0.00105619
-0.000965387
-0.000907241
-0.000883239
-0.000894281
-0.000940655
-0.00102202
-0.00113742
-0.00128528
-0.00146349
-0.00166939
-0.00189991
-0.00215162
-0.00242081
-0.0027036
-0.00299603
-0.00329419
-0.00359427
-0.00389267
-0.00418607
-0.0044715
-0.00474635
-0.00500846
-0.00525609
-0.00548792
-0.00570306
-0.00590102
-0.00608166
-0.00624517
-0.00639198
-0.00652276
-0.00663835
-0.00673971
-0.00682785
-0.00690385
-0.00696874
-0.00702351
-0.00706907
-0.00710621
-0.00713561
-0.00715773
-0.00717288
-0.00718116
-0.0071824
-0.00717617
-0.0071621
-0.00713973
-0.0071037
-0.00704529
0.000126656
0.000134907
0.00013446
0.000127251
0.000114611
9.68536e-05
7.43035e-05
4.73343e-05
1.629e-05
-1.85207e-05
-5.68245e-05
-9.83855e-05
-0.000143011
-0.000190557
-0.000240924
-0.000294066
-0.000349989
-0.000408744
-0.000470432
-0.000535199
-0.000603233
-0.000674756
-0.000750024
-0.000829317
-0.000912937
-0.0010012
-0.00109442
-0.00119292
-0.00129701
-0.00140698
-0.00152309
-0.00164558
-0.0017746
-0.00191028
-0.00205264
-0.00220164
-0.00235711
-0.00251877
-0.00268622
-0.0028589
-0.00303611
-0.00321698
-0.0034005
-0.00358548
-0.00377056
-0.00395425
-0.00413491
-0.00431078
-0.00448001
-0.00464067
-0.00479076
-0.00492831
-0.00505133
-0.00515791
-0.00524623
-0.0053146
-0.00536151
-0.00538564
-0.00538592
-0.00536158
-0.00531211
-0.00523738
-0.0051376
-0.00501332
-0.00486549
-0.00469554
-0.00450517
-0.00429651
-0.00407207
-0.00383469
-0.00358755
-0.00333408
-0.00307797
-0.00282308
-0.00257338
-0.0023329
-0.00210564
-0.00189551
-0.00170624
-0.0015413
-0.00140381
-0.00129649
-0.00122159
-0.0011808
-0.00117523
-0.00120537
-0.00127106
-0.00137153
-0.00150533
-0.00167047
-0.00186437
-0.00208402
-0.00232599
-0.00258654
-0.00286175
-0.00314758
-0.00344001
-0.00373509
-0.00402911
-0.00431858
-0.00460041
-0.00487185
-0.00513061
-0.00537484
-0.00560315
-0.00581457
-0.00600859
-0.00618503
-0.00634407
-0.0064862
-0.00661214
-0.00672277
-0.00681912
-0.00690229
-0.00697344
-0.00703367
-0.00708406
-0.00712559
-0.00715911
-0.00718532
-0.00720474
-0.00721766
-0.00722417
-0.00722406
-0.00721683
-0.00720202
-0.00717908
-0.00714255
-0.00708361
0.000178543
0.000182523
0.000178958
0.000169269
0.00015449
0.000134946
0.000110965
8.29002e-05
5.10714e-05
1.57642e-05
-2.27724e-05
-6.43295e-05
-0.000108745
-0.000155904
-0.000205745
-0.000258258
-0.000313488
-0.000371534
-0.000432545
-0.000496724
-0.000564318
-0.000635617
-0.000710949
-0.000790673
-0.000875173
-0.000964851
-0.00106012
-0.00116139
-0.00126908
-0.00138356
-0.00150519
-0.00163428
-0.0017711
-0.00191581
-0.00206852
-0.0022292
-0.00239773
-0.00257382
-0.00275707
-0.00294687
-0.00314246
-0.00334291
-0.00354708
-0.00375368
-0.0039612
-0.00416802
-0.00437233
-0.00457221
-0.00476563
-0.00495048
-0.00512462
-0.00528589
-0.00543215
-0.00556133
-0.00567148
-0.00576076
-0.00582752
-0.00587035
-0.00588805
-0.00587975
-0.00584485
-0.00578312
-0.00569468
-0.00558001
-0.00544002
-0.005276
-0.00508964
-0.00488302
-0.00465861
-0.00441921
-0.00416799
-0.0039084
-0.00364413
-0.0033791
-0.00311734
-0.00286297
-0.00262012
-0.00239284
-0.00218503
-0.00200036
-0.00184217
-0.00171341
-0.00161659
-0.00155367
-0.00152601
-0.00153437
-0.00157884
-0.00165886
-0.00177323
-0.00192008
-0.00209702
-0.0023011
-0.00252896
-0.00277688
-0.00304091
-0.00331694
-0.00360085
-0.00388859
-0.00417627
-0.00446027
-0.00473731
-0.00500449
-0.00525936
-0.00549992
-0.00572465
-0.0059325
-0.00612283
-0.00629544
-0.00645049
-0.00658844
-0.00671003
-0.00681618
-0.00690797
-0.00698658
-0.00705321
-0.00710906
-0.00715528
-0.00719292
-0.00722289
-0.00724596
-0.00726268
-0.00727337
-0.00727812
-0.00727671
-0.00726863
-0.00725337
-0.00723035
-0.00719413
-0.00713608
0.000237235
0.000236225
0.000229047
0.000216503
0.000199281
0.000177708
0.000152099
0.000122765
8.99887e-05
5.40202e-05
1.50715e-05
-2.66863e-05
-7.11284e-05
-0.000118181
-0.000167825
-0.000220095
-0.000275085
-0.000332946
-0.000393892
-0.000458189
-0.000526157
-0.000598165
-0.000674629
-0.000755999
-0.000842759
-0.000935413
-0.00103448
-0.00114048
-0.00125393
-0.00137532
-0.0015051
-0.00164368
-0.00179139
-0.00194848
-0.00211509
-0.00229123
-0.00247678
-0.00267144
-0.00287477
-0.00308609
-0.00330456
-0.00352913
-0.00375853
-0.00399132
-0.00422586
-0.00446031
-0.0046927
-0.00492092
-0.00514276
-0.00535592
-0.00555808
-0.00574691
-0.0059201
-0.00607544
-0.00621079
-0.0063242
-0.00641389
-0.00647831
-0.00651615
-0.00652641
-0.0065084
-0.00646177
-0.00638656
-0.00628314
-0.00615234
-0.00599535
-0.00581379
-0.00560966
-0.00538537
-0.00514368
-0.00488771
-0.0046209
-0.00434696
-0.00406981
-0.00379355
-0.0035224
-0.00326059
-0.00301233
-0.00278169
-0.00257257
-0.00238857
-0.0022329
-0.00210837
-0.00201724
-0.00196122
-0.00194138
-0.00195814
-0.00201124
-0.00209973
-0.00222204
-0.00237594
-0.00255867
-0.00276698
-0.00299721
-0.00324542
-0.00350747
-0.00377917
-0.00405634
-0.00433495
-0.00461121
-0.00488164
-0.00514316
-0.00539312
-0.00562934
-0.00585014
-0.00605429
-0.00624106
-0.00641014
-0.00656161
-0.00669589
-0.00681369
-0.00691595
-0.00700377
-0.00707837
-0.007141
-0.00719294
-0.0072354
-0.00726949
-0.00729621
-0.00731638
-0.00733058
-0.00733921
-0.00734237
-0.00733987
-0.0073312
-0.00731584
-0.0072932
-0.00725805
-0.00720211
0.000302148
0.000295467
0.000284217
0.00026849
0.000248559
0.000224747
0.000197337
0.000166584
0.000132714
9.59255e-05
5.63814e-05
1.42038e-05
-3.05313e-05
-7.78002e-05
-0.000127633
-0.000180119
-0.000235411
-0.000293726
-0.000355349
-0.000420622
-0.000489954
-0.000563808
-0.000642699
-0.000727186
-0.000817867
-0.000915363
-0.00102031
-0.00113336
-0.00125513
-0.00138624
-0.00152723
-0.0016786
-0.00184076
-0.00201402
-0.00219855
-0.00239437
-0.00260135
-0.00281915
-0.00304724
-0.00328487
-0.00353109
-0.00378468
-0.00404423
-0.00430812
-0.00457451
-0.00484139
-0.00510658
-0.00536777
-0.00562254
-0.00586842
-0.00610289
-0.00632343
-0.00652757
-0.00671293
-0.00687723
-0.00701835
-0.00713439
-0.00722366
-0.00728472
-0.00731644
-0.00731802
-0.00728899
-0.00722925
-0.00713908
-0.00701919
-0.00687066
-0.006695
-0.00649412
-0.00627034
-0.00602635
-0.0057652
-0.00549029
-0.00520532
-0.00491421
-0.0046211
-0.00433029
-0.00404612
-0.00377294
-0.00351503
-0.0032765
-0.00306122
-0.00287273
-0.00271417
-0.00258816
-0.0024968
-0.00244156
-0.00242324
-0.00244197
-0.00249717
-0.00258759
-0.0027113
-0.00286578
-0.00304797
-0.00325433
-0.00348099
-0.00372383
-0.0039786
-0.00424103
-0.00450694
-0.00477238
-0.00503366
-0.00528747
-0.00553095
-0.00576169
-0.00597779
-0.00617785
-0.00636093
-0.0065266
-0.0066748
-0.00680587
-0.00692047
-0.00701948
-0.00710401
-0.00717529
-0.00723461
-0.00728327
-0.00732256
-0.00735365
-0.00737759
-0.00739527
-0.00740735
-0.00741425
-0.00741613
-0.00741285
-0.00740392
-0.00738885
-0.00736707
-0.00733365
-0.00728081
0.000372593
0.000359612
0.00034386
0.000324653
0.000301787
0.00027556
0.000246208
0.000213905
0.000178806
0.00014104
0.000100708
5.7868e-05
1.25371e-05
-3.53203e-05
-8.57946e-05
-0.000139041
-0.000195283
-0.000254815
-0.000318002
-0.000385283
-0.000457164
-0.000534218
-0.000617079
-0.000706429
-0.000802993
-0.000907527
-0.0010208
-0.00114359
-0.00127664
-0.00142068
-0.00157636
-0.00174428
-0.00192489
-0.00211855
-0.00232545
-0.0025456
-0.00277882
-0.00302471
-0.00328264
-0.00355174
-0.00383088
-0.00411871
-0.00441363
-0.0047138
-0.00501718
-0.00532155
-0.00562452
-0.00592355
-0.00621605
-0.00649931
-0.00677063
-0.00702731
-0.0072667
-0.00748625
-0.00768352
-0.00785625
-0.00800237
-0.00812005
-0.00820772
-0.00826412
-0.00828829
-0.00827964
-0.00823794
-0.00816333
-0.00805637
-0.00791803
-0.00774969
-0.00755313
-0.00733054
-0.00708453
-0.00681806
-0.00653445
-0.00623735
-0.00593067
-0.00561858
-0.0053054
-0.00499558
-0.00469362
-0.00440397
-0.004131
-0.00387884
-0.00365138
-0.00345212
-0.00328412
-0.00314989
-0.00305138
-0.00298986
-0.00296594
-0.00297949
-0.00302968
-0.00311498
-0.00323319
-0.00338153
-0.00355669
-0.00375493
-0.00397219
-0.00420423
-0.00444671
-0.00469533
-0.00494596
-0.00519471
-0.00543804
-0.0056728
-0.00589635
-0.00610652
-0.00630166
-0.00648062
-0.00664274
-0.00678782
-0.00691605
-0.00702796
-0.00712437
-0.00720634
-0.00727507
-0.00733186
-0.00737803
-0.00741489
-0.00744368
-0.0074655
-0.00748128
-0.00749176
-0.00749742
-0.00749847
-0.00749481
-0.00748603
-0.00747168
-0.0074512
-0.00742007
-0.00737111
0.000447786
0.000427889
0.000407247
0.000384302
0.000358309
0.000329524
0.000298112
0.000264148
0.000227691
0.000188788
0.000147456
0.00010368
5.74048e-05
8.52538e-06
-4.31232e-05
-9.77732e-05
-0.00015573
-0.000217378
-0.000283179
-0.00035368
-0.000429506
-0.000511354
-0.000599991
-0.000696239
-0.000800967
-0.000915074
-0.00103947
-0.00117508
-0.00132277
-0.00148338
-0.00165767
-0.0018463
-0.00204978
-0.00226849
-0.00250262
-0.00275214
-0.00301679
-0.00329607
-0.00358923
-0.00389524
-0.0042128
-0.00454035
-0.00487608
-0.00521794
-0.00556367
-0.00591081
-0.00625675
-0.00659873
-0.00693393
-0.00725945
-0.00757239
-0.00786984
-0.008149
-0.00840711
-0.00864159
-0.00885
-0.00903013
-0.00917999
-0.00929787
-0.00938235
-0.00943233
-0.00944706
-0.00942616
-0.00936963
-0.00927788
-0.00915171
-0.00899236
-0.00880147
-0.00858108
-0.00833366
-0.00806205
-0.00776949
-0.00745952
-0.00713603
-0.00680315
-0.00646524
-0.00612681
-0.00579247
-0.00546686
-0.00515456
-0.00486001
-0.00458743
-0.00434072
-0.00412339
-0.00393845
-0.00378838
-0.00367499
-0.00359946
-0.0035622
-0.00356292
-0.00360059
-0.00367345
-0.00377911
-0.00391456
-0.00407631
-0.00426045
-0.00446279
-0.00467898
-0.00490465
-0.00513549
-0.00536741
-0.00559661
-0.00581968
-0.00603366
-0.00623608
-0.006425
-0.00659899
-0.00675712
-0.00689897
-0.00702452
-0.00713415
-0.00722855
-0.00730868
-0.00737566
-0.00743077
-0.00747531
-0.00751062
-0.00753794
-0.00755843
-0.00757306
-0.00758262
-0.00758764
-0.00758841
-0.00758489
-0.00757672
-0.0075635
-0.00754475
-0.00751636
-0.00747184
0.000526808
0.000499407
0.000473519
0.000446613
0.000417337
0.000385879
0.000352314
0.000316588
0.000278646
0.000238429
0.000195861
0.000150835
0.000103214
5.28058e-05
-6.3901e-07
-5.74437e-05
-0.000118009
-0.000182822
-0.000252462
-0.000327598
-0.000408988
-0.000497472
-0.000593966
-0.000699449
-0.000814945
-0.000941508
-0.00108021
-0.00123209
-0.00139817
-0.00157939
-0.0017766
-0.0019905
-0.00222167
-0.00247047
-0.00273703
-0.00302129
-0.00332287
-0.00364115
-0.0039752
-0.00432381
-0.00468549
-0.00505845
-0.00544065
-0.0058298
-0.00622339
-0.00661873
-0.00701296
-0.00740312
-0.00778614
-0.00815891
-0.00851832
-0.00886128
-0.00918478
-0.00948591
-0.00976189
-0.0100101
-0.0102282
-0.0104141
-0.0105658
-0.0106818
-0.0107609
-0.0108021
-0.0108049
-0.0107691
-0.0106949
-0.0105831
-0.0104346
-0.010251
-0.0100341
-0.00978621
-0.00951004
-0.00920869
-0.00888558
-0.00854452
-0.00818957
-0.00782508
-0.00745559
-0.0070858
-0.00672048
-0.00636443
-0.00602234
-0.00569879
-0.00539808
-0.0051242
-0.00488069
-0.00467061
-0.00449639
-0.00435984
-0.00426205
-0.00420335
-0.00418332
-0.0042008
-0.00425389
-0.00434002
-0.00445604
-0.0045983
-0.00476277
-0.00494515
-0.00514103
-0.005346
-0.00555575
-0.00576624
-0.00597376
-0.00617502
-0.00636721
-0.00654802
-0.00671569
-0.00686899
-0.00700717
-0.00712997
-0.00723754
-0.00733039
-0.00740931
-0.00747532
-0.00752962
-0.00757347
-0.00760816
-0.00763495
-0.007655
-0.00766932
-0.00767875
-0.00768386
-0.007685
-0.00768217
-0.00767512
-0.00766348
-0.00764684
-0.00762154
-0.00758181
0.0006086
0.000573136
0.000541675
0.000510619
0.000477934
0.000443717
0.00040792
0.000370338
0.000330776
0.000289052
0.000244975
0.000198339
0.000148902
9.63758e-05
4.04112e-05
-1.94178e-05
-8.36241e-05
-0.000152816
-0.000227704
-0.000309098
-0.000397906
-0.000495128
-0.000601846
-0.000719205
-0.0008484
-0.000990649
-0.00114717
-0.00131917
-0.00150776
-0.001714
-0.00193881
-0.00218293
-0.00244694
-0.00273117
-0.0030357
-0.00336035
-0.00370462
-0.00406772
-0.00444852
-0.00484562
-0.00525727
-0.00568145
-0.00611587
-0.00655798
-0.00700502
-0.00745404
-0.00790194
-0.0083455
-0.00878144
-0.00920642
-0.00961712
-0.0100103
-0.0103826
-0.0107311
-0.0110527
-0.0113448
-0.0116048
-0.0118303
-0.0120194
-0.0121703
-0.0122816
-0.0123522
-0.0123815
-0.012369
-0.0123149
-0.0122197
-0.0120842
-0.0119096
-0.0116978
-0.0114507
-0.011171
-0.0108614
-0.0105255
-0.0101667
-0.00978902
-0.00939681
-0.00899456
-0.00858699
-0.00817897
-0.00777547
-0.00738142
-0.0070017
-0.00664103
-0.00630384
-0.00599426
-0.00571592
-0.00547197
-0.0052649
-0.00509657
-0.00496805
-0.00487967
-0.00483097
-0.00482069
-0.00484686
-0.0049068
-0.00499725
-0.00511444
-0.00525425
-0.0054123
-0.00558412
-0.00576524
-0.00595139
-0.00613854
-0.00632305
-0.00650173
-0.00667186
-0.00683129
-0.00697839
-0.00711206
-0.00723171
-0.00733719
-0.00742875
-0.00750698
-0.00757273
-0.00762706
-0.00767113
-0.00770618
-0.00773342
-0.007754
-0.00776895
-0.00777912
-0.00778512
-0.00778733
-0.00778584
-0.00778042
-0.00777081
-0.00775662
-0.00773466
-0.0076999
0.000691946
0.000647886
0.000610565
0.000575202
0.000539012
0.000501968
0.000463873
0.000424338
0.000383006
0.000339551
0.000293653
0.000244983
0.000193187
0.000137862
7.85455e-05
1.46921e-05
-5.43396e-05
-0.000129296
-0.000211036
-0.000300527
-0.000398849
-0.000507175
-0.000626766
-0.00075895
-0.000905096
-0.00106659
-0.00124482
-0.0014411
-0.00165669
-0.0018927
-0.00215012
-0.0024297
-0.002732
-0.00305728
-0.00340554
-0.00377645
-0.00416934
-0.00458323
-0.00501677
-0.00546831
-0.00593584
-0.0064171
-0.00690949
-0.00741022
-0.00791624
-0.00842433
-0.00893115
-0.00943321
-0.009927
-0.0104089
-0.0108755
-0.0113232
-0.0117486
-0.0121485
-0.0125197
-0.0128593
-0.0131646
-0.0134331
-0.0136627
-0.0138515
-0.0139979
-0.0141007
-0.0141591
-0.0141725
-0.0141408
-0.0140644
-0.0139439
-0.0137803
-0.0135753
-0.0133307
-0.0130487
-0.0127322
-0.0123843
-0.0120083
-0.0116081
-0.0111879
-0.0107521
-0.0103054
-0.00985269
-0.00939909
-0.00894969
-0.00850963
-0.00808397
-0.00767762
-0.00729521
-0.00694104
-0.00661893
-0.00633217
-0.00608341
-0.00587461
-0.00570693
-0.00558077
-0.00549568
-0.0054504
-0.00544293
-0.00547054
-0.00552988
-0.00561712
-0.00572803
-0.00585817
-0.00600299
-0.006158
-0.00631888
-0.00648162
-0.00664262
-0.00679872
-0.00694729
-0.00708626
-0.00721409
-0.00732977
-0.0074328
-0.00752309
-0.00760096
-0.00766701
-0.00772212
-0.00776729
-0.00780365
-0.00783235
-0.00785447
-0.00787103
-0.00788285
-0.00789059
-0.00789465
-0.00789514
-0.00789192
-0.00788475
-0.00787332
-0.00785487
-0.00782509
0.000775463
0.000722322
0.000678874
0.000639078
0.000599314
0.000559391
0.000518934
0.000477342
0.000434068
0.000388623
0.000340538
0.000289344
0.000234559
0.000175654
0.000112035
4.30199e-05
-3.2179e-05
-0.000114464
-0.00020486
-0.000304512
-0.000414684
-0.000536742
-0.000672138
-0.000822389
-0.000989047
-0.00117367
-0.00137779
-0.00160285
-0.00185021
-0.00212105
-0.00241636
-0.0027369
-0.00308316
-0.00345532
-0.00385322
-0.00427637
-0.00472392
-0.00519462
-0.00568691
-0.00619883
-0.00672812
-0.0072722
-0.00782821
-0.00839303
-0.00896336
-0.00953568
-0.0101064
-0.0106717
-0.0112279
-0.0117712
-0.0122977
-0.0128039
-0.0132861
-0.0137409
-0.0141649
-0.0145551
-0.0149087
-0.015223
-0.0154958
-0.0157249
-0.0159089
-0.0160462
-0.0161359
-0.0161773
-0.0161702
-0.0161147
-0.0160112
-0.0158607
-0.0156644
-0.015424
-0.0151417
-0.0148198
-0.0144613
-0.0140694
-0.0136477
-0.0132002
-0.0127311
-0.0122451
-0.0117471
-0.0112421
-0.0107353
-0.0102321
-0.00973776
-0.00925767
-0.00879694
-0.00836045
-0.00795274
-0.00757789
-0.00723944
-0.00694026
-0.0066825
-0.00646752
-0.00629583
-0.0061671
-0.00608014
-0.00603295
-0.00602279
-0.00604628
-0.0060995
-0.00617816