/*--------------------------------*- C++ -*----------------------------------*\
| =========                 |                                                 |
| \\      /  F ield         | OpenFOAM: The Open Source CFD Toolbox           |
|  \\    /   O peration     | Version:  2112                                  |
|   \\  /    A nd           | Website:  www.openfoam.com                      |
|    \\/     M anipulation  |                                                 |
\*---------------------------------------------------------------------------*/
FoamFile
{
    version     2.0;
    format      ascii;
    arch        "LSB;label=32;scalar=64";
    class       surfaceScalarField;
    location    "2.1";
    object      phi;
}
// * * * * * * * * * * * * * * * * * * * * * * * * * * * * * * * * * * * * * //

dimensions      [0 3 -1 0 0 0 0];

oriented        oriented;

internalField   nonuniform List<scalar> 
33024
(
2.21066e-12
-2.14623e-12
2.09958e-10
-2.0775e-10
6.12673e-10
-4.02706e-10
1.14222e-09
-5.2955e-10
1.73854e-09
-5.9632e-10
2.35509e-09
-6.16558e-10
2.95738e-09
-6.02287e-10
3.52076e-09
-5.63376e-10
4.02817e-09
-5.07411e-10
4.46826e-09
-4.40083e-10
4.83385e-09
-3.65599e-10
5.12086e-09
-2.87001e-10
5.3273e-09
-2.06444e-10
5.45266e-09
-1.25358e-10
5.49727e-09
-4.46126e-11
5.46191e-09
3.53584e-11
5.34745e-09
1.14458e-10
5.15459e-09
1.9287e-10
4.88363e-09
2.70956e-10
4.5344e-09
3.49227e-10
4.10612e-09
4.28284e-10
3.59734e-09
5.08773e-10
3.00599e-09
5.91359e-10
2.32929e-09
6.76697e-10
1.5639e-09
7.65393e-10
7.05899e-10
8.57996e-10
-2.49071e-10
9.54972e-10
-1.30576e-09
1.05668e-09
-2.46915e-09
1.16339e-09
-3.74438e-09
1.27523e-09
-5.13659e-09
1.3922e-09
-6.65078e-09
1.51419e-09
-8.29171e-09
1.64093e-09
-1.00637e-08
1.77201e-09
-1.19706e-08
1.90689e-09
-1.40155e-08
2.04488e-09
-1.62006e-08
2.18514e-09
-1.85273e-08
2.32669e-09
-2.09957e-08
2.46841e-09
-2.36048e-08
2.60904e-09
-2.6352e-08
2.74717e-09
-2.92332e-08
2.88127e-09
-3.22429e-08
3.00968e-09
-3.53735e-08
3.13063e-09
-3.86158e-08
3.24225e-09
-4.19584e-08
3.34259e-09
-4.5388e-08
3.42963e-09
-4.88893e-08
3.50133e-09
-5.24449e-08
3.55561e-09
-5.60354e-08
3.59043e-09
-5.96392e-08
3.60379e-09
-6.32329e-08
3.59374e-09
-6.67914e-08
3.55849e-09
-7.02877e-08
3.49635e-09
-7.36936e-08
3.40586e-09
-7.69793e-08
3.28575e-09
-8.01143e-08
3.13502e-09
-8.30673e-08
2.95296e-09
-8.58065e-08
2.73918e-09
-8.83001e-08
2.49365e-09
-9.05169e-08
2.21673e-09
-9.2426e-08
1.90917e-09
-9.39982e-08
1.57219e-09
-9.52056e-08
1.20743e-09
-9.60227e-08
8.17078e-10
-9.64267e-08
4.03948e-10
-9.63964e-08
-3.02398e-11
-9.5916e-08
-4.80454e-10
-9.49726e-08
-9.43361e-10
-9.35579e-08
-1.41471e-09
-9.16681e-08
-1.88977e-09
-8.93046e-08
-2.36354e-09
-8.64738e-08
-2.83077e-09
-8.31878e-08
-3.28601e-09
-7.94641e-08
-3.72373e-09
-7.53258e-08
-4.13834e-09
-7.08014e-08
-4.52435e-09
-6.59249e-08
-4.87647e-09
-6.07353e-08
-5.18968e-09
-5.52759e-08
-5.45937e-09
-4.95944e-08
-5.68145e-09
-4.3742e-08
-5.85247e-09
-3.77723e-08
-5.96968e-09
-3.17412e-08
-6.03114e-09
-2.57053e-08
-6.03581e-09
-1.97218e-08
-5.98355e-09
-1.38466e-08
-5.87521e-09
-8.13401e-09
-5.71258e-09
-2.63562e-09
-5.4984e-09
2.60071e-09
-5.23633e-09
7.53153e-09
-4.93082e-09
1.21185e-08
-4.58698e-09
1.63291e-08
-4.21064e-09
2.01372e-08
-3.808e-09
2.35227e-08
-3.38559e-09
2.64728e-08
-2.95007e-09
2.89809e-08
-2.50809e-09
3.1047e-08
-2.06611e-09
3.26773e-08
-1.63025e-09
3.38835e-08
-1.2062e-09
3.46825e-08
-7.99042e-10
3.50957e-08
-4.13203e-10
3.51481e-08
-5.238e-11
3.48675e-08
2.80545e-10
3.42841e-08
5.83417e-10
3.34292e-08
8.5492e-10
3.23347e-08
1.09447e-09
3.10326e-08
1.30217e-09
2.95538e-08
1.47878e-09
2.79282e-08
1.62557e-09
2.61839e-08
1.74427e-09
2.4347e-08
1.83694e-09
2.24412e-08
1.90581e-09
2.0488e-08
1.95318e-09
1.85068e-08
1.9812e-09
1.65151e-08
1.99173e-09
1.4529e-08
1.98608e-09
1.25642e-08
1.96481e-09
1.06368e-08
1.9274e-09
8.76477e-09
1.872e-09
6.96966e-09
1.79511e-09
5.27841e-09
1.69125e-09
3.72558e-09
1.55282e-09
2.35539e-09
1.3702e-09
1.22265e-09
1.13274e-09
3.90263e-10
8.32383e-10
-8.21671e-11
4.72427e-10
-1.75179e-10
9.30062e-11
-1.75184e-10
2.07662e-10
-2.0981e-10
8.56148e-10
-8.56229e-10
1.86071e-09
-1.40728e-09
3.11142e-09
-1.78026e-09
4.49826e-09
-1.98316e-09
5.92524e-09
-2.04352e-09
7.31447e-09
-1.99152e-09
8.60578e-09
-1.85469e-09
9.75438e-09
-1.65601e-09
1.07281e-08
-1.4138e-09
1.15047e-08
-1.14217e-09
1.20694e-08
-8.51766e-10
1.24133e-08
-5.50303e-10
1.2531e-08
-2.43092e-10
1.242e-08
6.64345e-11
1.20789e-08
3.76458e-10
1.1507e-08
6.86362e-10
1.07034e-08
9.96447e-10
9.66658e-09
1.30775e-09
8.39399e-09
1.62183e-09
6.88171e-09
1.94056e-09
5.12446e-09
2.26602e-09
3.11549e-09
2.60034e-09
8.46588e-10
2.94559e-09
-1.69173e-09
3.30371e-09
-4.51012e-09
3.67638e-09
-7.62013e-09
4.06498e-09
-1.10339e-08
4.47051e-09
-1.47641e-08
4.89354e-09
-1.88231e-08
5.33422e-09
-2.32231e-08
5.79216e-09
-2.79754e-08
6.2665e-09
-3.30903e-08
6.75582e-09
-3.85764e-08
7.25818e-09
-4.44406e-08
7.7711e-09
-5.06873e-08
8.29154e-09
-5.73181e-08
8.81593e-09
-6.43316e-08
9.3402e-09
-7.17229e-08
9.85972e-09
-7.94833e-08
1.03694e-08
-8.75997e-08
1.08637e-08
-9.6055e-08
1.13365e-08
-1.04827e-07
1.17816e-08
-1.13888e-07
1.21922e-08
-1.23208e-07
1.25613e-08
-1.32747e-07
1.28819e-08
-1.42464e-07
1.31465e-08
-1.5231e-07
1.33481e-08
-1.62234e-07
1.34793e-08
-1.72177e-07
1.35333e-08
-1.82077e-07
1.35034e-08
-1.91866e-07
1.33834e-08
-2.01476e-07
1.31677e-08
-2.10831e-07
1.28513e-08
-2.19855e-07
1.24301e-08
-2.2847e-07
1.19007e-08
-2.36596e-07
1.12609e-08
-2.44152e-07
1.05097e-08
-2.5106e-07
9.64695e-09
-2.57241e-07
8.67414e-09
-2.62618e-07
7.59392e-09
-2.67119e-07
6.41041e-09
-2.70676e-07
5.12913e-09
-2.73226e-07
3.75713e-09
-2.74712e-07
2.303e-09
-2.75085e-07
7.77457e-10
-2.74305e-07
-8.10243e-10
-2.72339e-07
-2.44685e-09
-2.69165e-07
-4.11699e-09
-2.64774e-07
-5.80635e-09
-2.59164e-07
-7.49883e-09
-2.52351e-07
-9.17746e-09
-2.44357e-07
-1.08246e-08
-2.3522e-07
-1.24223e-08
-2.24992e-07
-1.39523e-08
-2.13734e-07
-1.53964e-08
-2.01521e-07
-1.67369e-08
-1.88441e-07
-1.79569e-08
-1.7459e-07
-1.90402e-08
-1.60077e-07
-1.99723e-08
-1.45018e-07
-2.07403e-08
-1.29538e-07
-2.1333e-08
-1.13766e-07
-2.17419e-08
-9.7836e-08
-2.19608e-08
-8.18855e-08
-2.19863e-08
-6.60512e-08
-2.18178e-08
-5.04684e-08
-2.1458e-08
-3.52688e-08
-2.09122e-08
-2.05781e-08
-2.01891e-08
-6.51447e-09
-1.93e-08
6.81363e-09
-1.82589e-08
1.93089e-08
-1.70823e-08
3.08868e-08
-1.57885e-08
4.14764e-08
-1.43977e-08
5.10218e-08
-1.2931e-08
5.94822e-08
-1.14105e-08
6.68323e-08
-9.85814e-09
7.3062e-08
-8.29582e-09
7.81762e-08
-6.74448e-09
8.21939e-08
-5.22386e-09
8.51469e-08
-3.75205e-09
8.70788e-08
-2.34511e-09
8.80433e-08
-1.01689e-09
8.81026e-08
2.21254e-10
8.73255e-08
1.36051e-09
8.57858e-08
2.39465e-09
8.35602e-08
3.32001e-09
8.07271e-08
4.1353e-09
7.73644e-08
4.84147e-09
7.35486e-08
5.4414e-09
6.93532e-08
5.93962e-09
6.48483e-08
6.34187e-09
6.00994e-08
6.65469e-09
5.51677e-08
6.88488e-09
5.011e-08
7.03893e-09
4.49793e-08
7.12239e-09
3.98264e-08
7.13907e-09
3.47008e-08
7.09033e-09
2.9654e-08
6.97425e-09
2.47412e-08
6.78475e-09
2.00254e-08
6.51096e-09
1.55798e-08
6.13679e-09
1.14915e-08
5.64114e-09
7.86212e-09
4.99959e-09
4.80566e-09
4.18919e-09
2.43836e-09
3.19969e-09
8.56252e-10
2.05455e-09
9.57464e-11
8.53524e-10
-7.94431e-11
4.04955e-10
-6.14757e-10
1.41228e-09
-1.86356e-09
2.86196e-09
-2.85695e-09
4.6046e-09
-3.5229e-09
6.50011e-09
-3.87867e-09
8.42487e-09
-3.96828e-09
1.02754e-08
-3.84207e-09
1.19687e-08
-3.54798e-09
1.34404e-08
-3.12766e-09
1.4642e-08
-2.6154e-09
1.55383e-08
-2.03848e-09
1.61043e-08
-1.41784e-09
1.6323e-08
-7.68994e-10
1.61828e-08
-1.02843e-10
1.56759e-08
5.73367e-10
1.47966e-08
1.25567e-09
1.35406e-08
1.94241e-09
1.19031e-08
2.6339e-09
9.879e-09
3.3319e-09
7.46162e-09
4.03921e-09
4.64283e-09
4.75935e-09
1.41265e-09
5.4962e-09
-2.24076e-09
6.25374e-09
-6.33101e-09
7.03584e-09
-1.08733e-08
7.846e-09
-1.58841e-08
8.68723e-09
-2.1381e-08
9.56181e-09
-2.73817e-08
1.04713e-08
-3.39043e-08
1.14161e-08
-4.09661e-08
1.2396e-08
-4.85832e-08
1.34093e-08
-5.67702e-08
1.44535e-08
-6.55391e-08
1.55247e-08
-7.48989e-08
1.6618e-08
-8.48551e-08
1.77273e-08
-9.54089e-08
1.88453e-08
-1.06557e-07
1.99636e-08
-1.18289e-07
2.10727e-08
-1.30591e-07
2.2162e-08
-1.43442e-07
2.322e-08
-1.56813e-07
2.42343e-08
-1.70668e-07
2.51917e-08
-1.84964e-07
2.60783e-08
-1.99652e-07
2.68797e-08
-2.14672e-07
2.75812e-08
-2.29958e-07
2.81679e-08
-2.45436e-07
2.86248e-08
-2.61025e-07
2.89374e-08
-2.76637e-07
2.90914e-08
-2.92177e-07
2.90734e-08
-3.07545e-07
2.88709e-08
-3.22634e-07
2.84724e-08
-3.37334e-07
2.78681e-08
-3.51533e-07
2.70496e-08
-3.65113e-07
2.60105e-08
-3.77959e-07
2.47462e-08
-3.89952e-07
2.32545e-08
-4.00978e-07
2.15355e-08
-4.10923e-07
1.95919e-08
-4.19678e-07
1.74289e-08
-4.27138e-07
1.50543e-08
-4.33206e-07
1.24787e-08
-4.37793e-07
9.7156e-09
-4.40817e-07
6.78102e-09
-4.42207e-07
3.69369e-09
-4.41908e-07
4.78077e-10
-4.39868e-07
-2.85046e-09
-4.36057e-07
-6.25786e-09
-4.30456e-07
-9.71789e-09
-4.23062e-07
-1.32005e-08
-4.13887e-07
-1.66737e-08
-4.0296e-07
-2.01044e-08
-3.90326e-07
-2.34584e-08
-3.76048e-07
-2.6701e-08
-3.60202e-07
-2.97974e-08
-3.42886e-07
-3.27131e-08
-3.24208e-07
-3.54148e-08
-3.04294e-07
-3.78703e-08
-2.83285e-07
-4.00497e-08
-2.61332e-07
-4.19255e-08
-2.38599e-07
-4.34735e-08
-2.15259e-07
-4.46731e-08
-1.91493e-07
-4.5508e-08
-1.67487e-07
-4.59664e-08
-1.43432e-07
-4.60416e-08
-1.19517e-07
-4.57325e-08
-9.59317e-08
-4.50432e-08
-7.28605e-08
-4.39835e-08
-5.04808e-08
-4.25688e-08
-2.89608e-08
-4.082e-08
-8.45681e-09
-3.87629e-08
1.08889e-08
-3.6428e-08
2.89503e-08
-3.38499e-08
4.5619e-08
-3.10663e-08
6.08057e-08
-2.81178e-08
7.44417e-08
-2.50464e-08
8.64786e-08
-2.18951e-08
9.68893e-08
-1.87065e-08
1.05667e-07
-1.55224e-08
1.12826e-07
-1.23825e-08
1.18397e-07
-9.32365e-09
1.22432e-07
-6.37947e-09
1.24994e-07
-3.57935e-09
1.26164e-07
-9.48247e-10
1.26031e-07
1.4937e-09
1.24694e-07
3.73136e-09
1.22259e-07
5.75451e-09
1.18837e-07
7.55773e-09
1.14538e-07
9.14011e-09
1.09475e-07
1.05047e-08
1.03756e-07
1.16581e-08
9.74888e-08
1.26095e-08
9.07735e-08
1.337e-08
8.37071e-08
1.39512e-08
7.63813e-08
1.43647e-08
6.88833e-08
1.46204e-08
6.12975e-08
1.47249e-08
5.37074e-08
1.46805e-08
4.61982e-08
1.44835e-08
3.88601e-08
1.41228e-08
3.17921e-08
1.3579e-08
2.51046e-08
1.28243e-08
1.89223e-08
1.18234e-08
1.33839e-08
1.05379e-08
8.63819e-09
8.93494e-09
4.83227e-09
7.0056e-09
2.09165e-09
4.79517e-09
4.87839e-10
2.45734e-09
4.08394e-10
5.35226e-10
-1.14999e-09
1.79265e-09
-3.12098e-09
3.5377e-09
-4.60201e-09
5.58113e-09
-5.56633e-09
7.75842e-09
-6.05596e-09
9.92791e-09
-6.13777e-09
1.19707e-08
-5.88485e-09
1.37897e-08
-5.36696e-09
1.53076e-08
-4.64562e-09
1.64647e-08
-3.77247e-09
1.72154e-08
-2.78923e-09
1.7526e-08
-1.72844e-09
1.73716e-08
-6.14531e-10
1.67337e-08
5.35039e-10
1.55984e-08
1.70864e-09
1.39546e-08
2.89949e-09
1.17923e-08
4.10466e-09
9.10196e-09
5.32428e-09
5.87305e-09
6.5608e-09
2.09393e-09
7.81832e-09
-2.24876e-09
9.10205e-09
-7.1703e-09
1.04177e-08
-1.26879e-08
1.17713e-08
-1.88204e-08
1.31684e-08
-2.55885e-08
1.4614e-08
-3.30134e-08
1.61122e-08
-4.11174e-08
1.76658e-08
-4.99225e-08
1.92763e-08
-5.94498e-08
2.09435e-08
-6.97192e-08
2.26654e-08
-8.07481e-08
2.44382e-08
-9.25507e-08
2.62561e-08
-1.05137e-07
2.81115e-08
-1.18514e-07
2.99945e-08
-1.3268e-07
3.18934e-08
-1.47629e-07
3.37945e-08
-1.63348e-07
3.56824e-08
-1.79815e-07
3.75396e-08
-1.97e-07
3.93471e-08
-2.14865e-07
4.10846e-08
-2.33361e-07
4.27302e-08
-2.5243e-07
4.42611e-08
-2.72005e-07
4.56534e-08
-2.92008e-07
4.6883e-08
-3.12353e-07
4.79254e-08
-3.32941e-07
4.8756e-08
-3.53667e-07
4.93511e-08
-3.74417e-07
4.96874e-08
-3.95069e-07
4.97431e-08
-4.15493e-07
4.94979e-08
-4.35556e-07
4.89333e-08
-4.55117e-07
4.80334e-08
-4.74033e-07
4.67849e-08
-4.92161e-07
4.51773e-08
-5.09354e-07
4.32036e-08
-5.25468e-07
4.08601e-08
-5.4036e-07
3.81469e-08
-5.53893e-07
3.5068e-08
-5.65932e-07
3.16315e-08
-5.76353e-07
2.78493e-08
-5.85036e-07
2.37377e-08
-5.91875e-07
1.9317e-08
-5.9677e-07
1.46115e-08
-5.99639e-07
9.64967e-09
-6.00409e-07
4.46385e-09
-5.99023e-07
-9.08057e-10
-5.95439e-07
-6.4343e-09
-5.89633e-07
-1.20644e-08
-5.81595e-07
-1.77557e-08
-5.71335e-07
-2.34603e-08
-5.5888e-07
-2.91284e-08
-5.44276e-07
-3.47085e-08
-5.27587e-07
-4.0148e-08
-5.08894e-07
-4.53938e-08
-4.88298e-07
-5.03929e-08
-4.65918e-07
-5.50933e-08
-4.41889e-07
-5.94442e-08
-4.16362e-07
-6.33975e-08
-3.89503e-07
-6.69078e-08
-3.61495e-07
-6.99339e-08
-3.32529e-07
-7.24391e-08
-3.0281e-07
-7.43922e-08
-2.7255e-07
-7.57683e-08
-2.41967e-07
-7.6549e-08
-2.11285e-07
-7.67237e-08
-1.80728e-07
-7.62896e-08
-1.5052e-07
-7.52518e-08
-1.20879e-07
-7.36241e-08
-9.20192e-08
-7.14286e-08
-6.41438e-08
-6.86954e-08
-3.74441e-08
-6.54626e-08
-1.20967e-08
-6.17754e-08
1.17387e-08
-5.76853e-08
3.3922e-08
-5.32496e-08
5.43337e-08
-4.85295e-08
7.2877e-08
-4.35898e-08
8.94788e-08
-3.84968e-08
1.0409e-07
-3.33175e-08
1.16685e-07
-2.81178e-08
1.27264e-07
-2.29613e-08
1.35848e-07
-1.79079e-08
1.42482e-07
-1.30131e-08
1.47229e-07
-8.32642e-09
1.50172e-07
-3.8908e-09
1.51407e-07
2.57873e-10
1.51047e-07
4.09134e-09
1.49213e-07
7.58897e-09
1.46033e-07
1.07377e-08
1.41641e-07
1.35316e-08
1.36175e-07
1.59715e-08
1.29769e-07
1.80636e-08
1.2256e-07
1.98192e-08
1.14677e-07
2.12524e-08
1.06249e-07
2.23793e-08
9.73981e-08
2.32158e-08
8.82427e-08
2.37757e-08
7.88989e-08
2.40687e-08
6.94816e-08
2.40978e-08
6.01073e-08
2.38578e-08
5.08974e-08
2.33327e-08
4.19812e-08
2.24952e-08
3.3499e-08
2.13065e-08
2.56037e-08
1.97187e-08
1.84609e-08
1.76807e-08
1.22453e-08
1.51506e-08
7.13326e-09
1.21176e-08
3.29212e-09
8.6363e-09
8.69153e-10
4.88031e-09
1.27755e-09
6.05468e-10
-1.75545e-09
2.00015e-09
-4.51566e-09
3.89381e-09
-6.49568e-09
6.06267e-09
-7.73519e-09
8.32171e-09
-8.315e-09
1.05161e-08
-8.3322e-09
1.25173e-08
-7.88603e-09
1.42197e-08
-7.06931e-09
1.55381e-08
-5.96399e-09
1.64049e-08
-4.63927e-09
1.67672e-08
-3.15154e-09
1.65839e-08
-1.54516e-09
1.58231e-08
1.46248e-10
1.44597e-08
1.89846e-09
1.24731e-08
3.69518e-09
9.84593e-09
5.5267e-09
6.56194e-09
7.38865e-09
2.60536e-09
9.28087e-09
-2.04022e-09
1.12064e-08
-7.39242e-09
1.31705e-08
-1.34704e-08
1.51801e-08
-2.02952e-08
1.72425e-08
-2.78893e-08
1.93654e-08
-3.62767e-08
2.15559e-08
-4.54827e-08
2.382e-08
-5.55327e-08
2.61622e-08
-6.64521e-08
2.85852e-08
-7.82653e-08
3.10895e-08
-9.09947e-08
3.36728e-08
-1.0466e-07
3.63305e-08
-1.19277e-07
3.90549e-08
-1.34856e-07
4.18353e-08
-1.51403e-07
4.46582e-08
-1.68915e-07
4.75069e-08
-1.87383e-07
5.03618e-08
-2.06789e-07
5.32006e-08
-2.27105e-07
5.59981e-08
-2.48293e-07
5.87269e-08
-2.70302e-07
6.13571e-08
-2.93075e-07
6.38569e-08
-3.16538e-07
6.61931e-08
-3.40608e-07
6.8331e-08
-3.65189e-07
7.02354e-08
-3.90177e-07
7.18706e-08
-4.15453e-07
7.32013e-08
-4.4089e-07
7.41927e-08
-4.6635e-07
7.48116e-08
-4.91689e-07
7.50263e-08
-5.16754e-07
7.48079e-08
-5.41386e-07
7.413e-08
-5.65423e-07
7.29699e-08
-5.88698e-07
7.13087e-08
-6.11045e-07
6.91316e-08
-6.32296e-07
6.64286e-08
-6.52287e-07
6.31945e-08
-6.70856e-07
5.94295e-08
-6.87848e-07
5.51389e-08
-7.03114e-07
5.03335e-08
-7.16512e-07
4.50297e-08
-7.27912e-07
3.92492e-08
-7.37194e-07
3.30193e-08
-7.44249e-07
2.63727e-08
-7.48985e-07
1.93472e-08
-7.51321e-07
1.19858e-08
-7.51194e-07
4.33644e-09
-7.48552e-07
-3.54999e-09
-7.43368e-07
-1.16186e-08
-7.35625e-07
-1.98067e-08
-7.25329e-07
-2.80519e-08
-7.12501e-07
-3.62883e-08
-6.97182e-07
-4.44475e-08
-6.79431e-07
-5.24594e-08
-6.59326e-07
-6.02526e-08
-6.36965e-07
-6.77556e-08
-6.1246e-07
-7.48972e-08
-5.85946e-07
-8.16073e-08
-5.57572e-07
-8.78182e-08
-5.27505e-07
-9.3465e-08
-4.95925e-07
-9.84871e-08
-4.6303e-07
-1.02829e-07
-4.29029e-07
-1.06441e-07
-3.94141e-07
-1.0928e-07
-3.58597e-07
-1.11312e-07
-3.22634e-07
-1.12512e-07
-2.86493e-07
-1.12864e-07
-2.50422e-07
-1.12361e-07
-2.14663e-07
-1.1101e-07
-1.79461e-07
-1.08826e-07
-1.45052e-07
-1.05838e-07
-1.11665e-07
-1.02082e-07
-7.95177e-08
-9.76099e-08
-4.88139e-08
-9.24792e-08
-1.97408e-08
-8.67585e-08
7.53354e-09
-8.05239e-08
3.28621e-08
-7.38581e-08
5.6121e-08
-6.68486e-08
7.72109e-08
-5.95867e-08
9.60579e-08
-5.21646e-08
1.12614e-07
-4.46744e-08
1.26859e-07
-3.72062e-08
1.38797e-07
-2.98457e-08
1.48458e-07
-2.26735e-08
1.55894e-07
-1.57625e-08
1.61181e-07
-9.1778e-09
1.64413e-07
-2.97476e-09
1.65703e-07
2.80116e-09
1.65177e-07
8.11499e-09
1.62973e-07
1.29421e-08
1.59237e-07
1.7268e-08
1.5412e-07
2.10877e-08
1.4778e-07
2.44044e-08
1.40371e-07
2.72283e-08
1.32048e-07
2.9575e-08
1.22965e-07
3.14627e-08
1.1327e-07
3.29106e-08
1.0311e-07
3.39354e-08
9.26295e-08
3.45492e-08
8.19715e-08
3.47558e-08
7.12808e-08
3.45485e-08
6.07062e-08
3.39073e-08
5.04033e-08
3.27981e-08
4.05372e-08
3.11726e-08
3.12844e-08
2.89715e-08
2.28333e-08
2.61318e-08
1.53836e-08
2.26003e-08
9.14475e-09
1.83565e-08
4.33582e-09
1.34452e-08
1.19203e-09
8.02409e-09
2.46959e-09
6.27269e-10
-2.38273e-09
2.05555e-09
-5.94394e-09
3.96011e-09
-8.40024e-09
6.09214e-09
-9.86723e-09
8.25119e-09
-1.04741e-08
1.02733e-08
-1.03543e-08
1.20237e-08
-9.63644e-09
1.33921e-08
-8.43777e-09
1.42889e-08
-6.86079e-09
1.46416e-08
-4.99197e-09
1.4392e-08
-2.90193e-09
1.34933e-08
-6.46415e-10
1.19073e-08
1.73218e-09
9.60269e-09
4.20312e-09
6.55224e-09
6.74563e-09
2.73172e-09
9.34721e-09
-1.88171e-09
1.20021e-08
-7.31057e-09
1.47097e-08
-1.35779e-08
1.74737e-08
-2.07076e-08
2.03003e-08
-2.87251e-08
2.31976e-08
-3.76571e-08
2.61744e-08
-4.75313e-08
2.92396e-08
-5.83765e-08
3.24011e-08
-7.02215e-08
3.5665e-08
-8.30948e-08
3.90355e-08
-9.70234e-08
4.25139e-08
-1.12032e-07
4.60982e-08
-1.28142e-07
4.9783e-08
-1.45371e-07
5.35589e-08
-1.63728e-07
5.74125e-08
-1.83219e-07
6.13264e-08
-2.0384e-07
6.52787e-08
-2.25577e-07
6.92438e-08
-2.48407e-07
7.31919e-08
-2.72296e-07
7.70894e-08
-2.97197e-07
8.08995e-08
-3.23052e-07
8.4582e-08
-3.4979e-07
8.80942e-08
-3.77324e-07
9.13912e-08
-4.05557e-07
9.44264e-08
-4.34378e-07
9.71522e-08
-4.63664e-07
9.95209e-08
-4.93278e-07
1.01485e-07
-5.23074e-07
1.02997e-07
-5.52896e-07
1.04014e-07
-5.82578e-07
1.04494e-07
-6.11949e-07
1.04397e-07
-6.4083e-07
1.03689e-07
-6.6904e-07
1.0234e-07
-6.96395e-07
1.00325e-07
-7.22712e-07
9.76251e-08
-7.47807e-07
9.42269e-08
-7.71502e-07
9.01238e-08
-7.93623e-07
8.53156e-08
-8.14003e-07
7.98091e-08
-8.32481e-07
7.36177e-08
-8.4891e-07
6.67621e-08
-8.63149e-07
5.92692e-08
-8.75073e-07
5.11731e-08
-8.84568e-07
4.25139e-08
-8.91533e-07
3.33383e-08
-8.95885e-07
2.36989e-08
-8.97553e-07
1.3654e-08
-8.96485e-07
3.26848e-09
-8.92642e-07
-7.39367e-09
-8.86004e-07
-1.8256e-08
-8.7657e-07
-2.92415e-08
-8.64352e-07
-4.02696e-08
-8.49383e-07
-5.12567e-08
-8.31714e-07
-6.21167e-08
-8.11412e-07
-7.27614e-08
-7.88563e-07
-8.31016e-08
-7.63271e-07
-9.3048e-08
-7.35656e-07
-1.02512e-07
-7.05858e-07
-1.11405e-07
-6.74032e-07
-1.19644e-07
-6.40349e-07
-1.27148e-07
-6.04997e-07
-1.33839e-07
-5.68178e-07
-1.39648e-07
-5.30108e-07
-1.44511e-07
-4.91012e-07
-1.48375e-07
-4.5113e-07
-1.51194e-07
-4.10708e-07
-1.52934e-07
-3.69999e-07
-1.53573e-07
-3.2926e-07
-1.531e-07
-2.88751e-07
-1.5152e-07
-2.48729e-07
-1.48848e-07
-2.0945e-07
-1.45117e-07
-1.71161e-07
-1.40371e-07
-1.34101e-07
-1.3467e-07
-9.8497e-08
-1.28083e-07
-6.45595e-08
-1.20696e-07
-3.2482e-08
-1.12601e-07
-2.43731e-09
-1.03903e-07
2.54245e-08
-9.47104e-08
5.09773e-08
-8.51396e-08
7.41216e-08
-7.53088e-08
9.47844e-08
-6.53372e-08
1.12921e-07
-5.53424e-08
1.28513e-07
-4.5438e-08
1.41571e-07
-3.57316e-08
1.52131e-07
-2.63227e-08
1.60254e-07
-1.73011e-08
1.66025e-07
-8.74524e-09
1.69548e-07
-7.21555e-10
1.70946e-07
6.71709e-09
1.70357e-07
1.35305e-08
1.67933e-07
1.96917e-08
1.63835e-07
2.51864e-08
1.58228e-07
3.00111e-08
1.51284e-07
3.4172e-08
1.43177e-07
3.76827e-08
1.34078e-07
4.05616e-08
1.24159e-07
4.28289e-08
1.13592e-07
4.4503e-08
1.02544e-07
4.55972e-08
9.1184e-08
4.61156e-08
7.9682e-08
4.60504e-08
6.82112e-08
4.53782e-08
5.69503e-08
4.4059e-08
4.60868e-08
4.20361e-08
3.58186e-08
3.92397e-08
2.63565e-08
3.55939e-08
1.79265e-08
3.10302e-08
1.07744e-08
2.55086e-08
5.17377e-09
1.90458e-08
1.44458e-09
1.17533e-08
3.91416e-09
6.1039e-10
-2.99312e-09
1.98122e-09
-7.31477e-09
3.77118e-09
-1.01902e-08
5.71707e-09
-1.18131e-08
7.60917e-09
-1.23662e-08
9.27837e-09
-1.20235e-08
1.05872e-08
-1.09453e-08
1.14236e-08
-9.27411e-09
1.16957e-08
-7.13291e-09
1.13285e-08
-4.62478e-09
1.02602e-08
-1.83367e-09
8.43961e-09
1.1742e-09
5.82332e-09
4.34847e-09
2.37383e-09
7.65261e-09
-1.9424e-09
1.10619e-08
-7.15643e-09
1.45612e-08
-1.32981e-08
1.81438e-08
-2.0397e-08
2.18086e-08
-2.84828e-08
2.55595e-08
-3.75862e-08
2.94037e-08
-4.77387e-08
3.335e-08
-5.89724e-08
3.74081e-08
-7.13199e-08
4.15872e-08
-8.48138e-08
4.58949e-08
-9.94856e-08
5.03368e-08
-1.15365e-07
5.49151e-08
-1.32479e-07
5.96282e-08
-1.50852e-07
6.44703e-08
-1.70499e-07
6.94305e-08
-1.91433e-07
7.44929e-08
-2.13657e-07
7.96361e-08
-2.37164e-07
8.48335e-08
-2.61938e-07
9.0053e-08
-2.87951e-07
9.52571e-08
-3.15163e-07
1.00404e-07
-3.43519e-07
1.05445e-07
-3.72951e-07
1.10332e-07
-4.03377e-07
1.15008e-07
-4.34699e-07
1.19417e-07
-4.66807e-07
1.23499e-07
-4.99574e-07
1.27193e-07
-5.32861e-07
1.30439e-07
-5.66516e-07
1.33176e-07
-6.00377e-07
1.35345e-07
-6.34269e-07
1.3689e-07
-6.68011e-07
1.37757e-07
-7.01416e-07
1.37898e-07
-7.34288e-07
1.3727e-07
-7.66434e-07
1.35834e-07
-7.97654e-07
1.33561e-07
-8.27754e-07
1.30425e-07
-8.56541e-07
1.26412e-07
-8.83826e-07
1.21512e-07
-9.09427e-07
1.15725e-07
-9.3317e-07
1.09059e-07
-9.5489e-07
1.0153e-07
-9.74435e-07
9.31622e-08
-9.91661e-07
8.39879e-08
-1.00644e-06
7.40466e-08
-1.01865e-06
6.33854e-08
-1.0282e-06
5.20587e-08
-1.03498e-06
4.01274e-08
-1.03894e-06
2.76588e-08
-1.04002e-06
1.47263e-08
-1.03816e-06
1.41273e-09
-1.03335e-06
-1.22091e-08
-1.02556e-06
-2.60397e-08
-1.01481e-06
-3.99891e-08
-1.00112e-06
-5.39605e-08
-9.84526e-07
-6.78539e-08
-9.65076e-07
-8.15665e-08
-9.42844e-07
-9.49937e-08
-9.17916e-07
-1.0803e-07
-8.90395e-07
-1.20568e-07
-8.60404e-07
-1.32503e-07
-8.28077e-07
-1.43732e-07
-7.9357e-07
-1.54152e-07
-7.57052e-07
-1.63666e-07
-7.18709e-07
-1.72182e-07
-6.7874e-07
-1.79616e-07
-6.37363e-07
-1.85889e-07
-5.94803e-07
-1.90935e-07
-5.51302e-07
-1.94696e-07
-5.07109e-07
-1.97127e-07
-4.62483e-07
-1.98199e-07
-4.17689e-07
-1.97894e-07
-3.72996e-07
-1.96213e-07
-3.28673e-07
-1.93171e-07
-2.8499e-07
-1.888e-07
-2.42211e-07
-1.83151e-07
-2.00592e-07
-1.76288e-07
-1.6038e-07
-1.68295e-07
-1.2181e-07
-1.59267e-07
-8.50964e-08
-1.49315e-07
-5.04387e-08
-1.3856e-07
-1.80127e-08
-1.27136e-07
1.20293e-08
-1.15182e-07
3.9561e-08
-1.0284e-07
6.44829e-08
-9.02592e-08
8.67242e-08
-7.75837e-08
1.06243e-07
-6.49565e-08
1.23025e-07
-5.25141e-08
1.37087e-07
-4.03844e-08
1.4847e-07
-2.86845e-08
1.57244e-07
-1.75188e-08
1.635e-07
-6.97757e-09
1.67353e-07
2.86442e-09
1.68935e-07
1.19482e-08
1.68396e-07
2.02307e-08
1.65898e-07
2.7684e-08
1.61615e-07
3.42945e-08
1.55726e-07
4.00609e-08
1.48417e-07
4.49918e-08
1.39876e-07
4.91025e-08
1.30293e-07
5.2412e-08
1.19858e-07
5.49384e-08
1.0876e-07
5.66947e-08
9.71908e-08
5.76849e-08
8.53418e-08
5.78995e-08
7.3408e-08
5.7312e-08
6.15898e-08
5.58771e-08
5.00954e-08
5.35305e-08
3.91437e-08
5.01915e-08
2.89682e-08
4.57694e-08
1.98225e-08
4.01759e-08
1.1989e-08
3.33421e-08
5.79306e-09
2.52418e-08
1.62705e-09
1.59193e-08
5.54121e-09
5.62226e-10
-3.55535e-09
1.7965e-09
-8.54905e-09
3.35879e-09
-1.17525e-08
4.98156e-09
-1.34359e-08
6.45255e-09
-1.38371e-08
7.60203e-09
-1.3173e-08
8.2931e-09
-1.16364e-08
8.41429e-09
-9.3953e-09
7.87406e-09
-6.59267e-09
6.59642e-09
-3.34714e-09
4.51747e-09
2.45283e-10
1.58247e-09
4.10919e-09
-2.25647e-09
8.1874e-09
-7.04241e-09
1.24385e-08
-1.28152e-08
1.68346e-08
-1.96125e-08
2.13586e-08
-2.74714e-08
2.60026e-08
-3.64283e-08
3.07655e-08
-4.652e-08
3.56512e-08
-5.77834e-08
4.06671e-08
-7.02558e-08
4.58224e-08
-8.39743e-08
5.11267e-08
-9.89757e-08
5.65885e-08
-1.15295e-07
6.22143e-08
-1.32965e-07
6.80071e-08
-1.52016e-07
7.39658e-08
-1.72472e-07
8.00841e-08
-1.94352e-07
8.63501e-08
-2.17667e-07
9.27454e-08
-2.42419e-07
9.92453e-08
-2.68601e-07
1.05818e-07
-2.96193e-07
1.12425e-07
-3.25162e-07
1.19022e-07
-3.55461e-07
1.25557e-07
-3.8703e-07
1.31973e-07
-4.19792e-07
1.38207e-07
-4.53654e-07
1.44194e-07
-4.88508e-07
1.49862e-07
-5.2423e-07
1.55139e-07
-5.6068e-07
1.59949e-07
-5.97707e-07
1.6422e-07
-6.35143e-07
1.67876e-07
-6.72812e-07
1.70845e-07
-7.10525e-07
1.73059e-07
-7.48088e-07
1.74452e-07
-7.85299e-07
1.74968e-07
-8.21952e-07
1.74552e-07
-8.57842e-07
1.73159e-07
-8.9276e-07
1.70753e-07
-9.26504e-07
1.67304e-07
-9.58873e-07
1.62794e-07
-9.89673e-07
1.57212e-07
-1.01872e-06
1.50558e-07
-1.04584e-06
1.4284e-07
-1.07085e-06
1.34077e-07
-1.09362e-06
1.24296e-07
-1.11399e-06
1.13533e-07
-1.13183e-06
1.01832e-07
-1.14704e-06
8.92482e-08
-1.15949e-06
7.58404e-08
-1.16911e-06
6.16768e-08
-1.17581e-06
4.68322e-08
-1.17954e-06
3.13878e-08
-1.18025e-06
1.54305e-08
-1.17789e-06
-9.40986e-10
-1.17246e-06
-1.76447e-08
-1.16394e-06
-3.4562e-08
-1.15233e-06
-5.1591e-08
-1.13767e-06
-6.86204e-08
-1.11999e-06
-8.55355e-08
-1.09934e-06
-1.02219e-07
-1.07578e-06
-1.1855e-07
-1.0494e-06
-1.34409e-07
-1.0203e-06
-1.49673e-07
-9.88583e-07
-1.6422e-07
-9.54384e-07
-1.7793e-07
-9.17849e-07
-1.90686e-07
-8.79141e-07
-2.02374e-07
-8.38438e-07
-2.12885e-07
-7.95935e-07
-2.22119e-07
-7.51842e-07
-2.29982e-07
-7.06383e-07
-2.36393e-07
-6.59799e-07
-2.4128e-07
-6.12338e-07
-2.44588e-07
-5.64262e-07
-2.46275e-07
-5.15841e-07
-2.46315e-07
-4.67352e-07
-2.44703e-07
-4.19073e-07
-2.41449e-07
-3.71287e-07
-2.36586e-07
-3.24274e-07
-2.30165e-07
-2.78307e-07
-2.22256e-07
-2.33652e-07
-2.12949e-07
-1.90565e-07
-2.02353e-07
-1.49287e-07
-1.90593e-07
-1.10039e-07
-1.77808e-07
-7.30244e-08
-1.64151e-07
-3.84218e-08
-1.49784e-07
-6.38519e-09
-1.34877e-07
2.2959e-08
-1.19603e-07
4.9513e-08
-1.04138e-07
7.32084e-08
-8.8652e-08
9.40073e-08
-7.3313e-08
1.11901e-07
-5.82785e-08
1.26912e-07
-4.36951e-08
1.39089e-07
-2.96955e-08
1.48508e-07
-1.63967e-08
1.5527e-07
-3.8981e-09
1.595e-07
7.71882e-09
1.61339e-07
1.83915e-08
1.60948e-07
2.8075e-08
1.58501e-07
3.67418e-08
1.54182e-07
4.43795e-08
1.48185e-07
5.09883e-08
1.4071e-07
5.65777e-08
1.3196e-07
6.11623e-08
1.22141e-07
6.47576e-08
1.1146e-07
6.73752e-08
1.00128e-07
6.90171e-08
8.83557e-08
6.96718e-08
7.63582e-08
6.93094e-08
6.43558e-08
6.78795e-08
5.25768e-08
6.53096e-08
4.12609e-08
6.15074e-08
3.06646e-08
5.63657e-08
2.10688e-08
4.97716e-08
1.27904e-08
4.16206e-08
6.19921e-09
3.1833e-08
1.74422e-09
2.03743e-08
7.28543e-09
4.87901e-10
-4.04325e-09
1.51623e-09
-9.57738e-09
2.74883e-09
-1.29851e-08
3.92276e-09
-1.46098e-08
4.82987e-09
-1.47443e-08
5.3046e-09
-1.36477e-08
5.21402e-09
-1.15458e-08
4.44997e-09
-8.63125e-09
2.92302e-09
-5.06572e-09
5.57778e-10
-9.81906e-10
-2.71066e-09
3.51373e-09
-6.93963e-09
8.33816e-09
-1.2181e-08
1.34288e-08
-1.84831e-08
1.87406e-08
-2.58916e-08
2.42431e-08
-3.44511e-08
2.99181e-08
-4.42053e-08
3.57568e-08
-5.51975e-08
4.17578e-08
-6.74712e-08
4.79248e-08
-8.10692e-08
5.42651e-08
-9.6034e-08
6.07873e-08
-1.12407e-07
6.74997e-08
-1.30228e-07
7.44092e-08
-1.49533e-07
8.15191e-08
-1.70354e-07
8.88285e-08
-1.92719e-07
9.63309e-08
-2.16648e-07
1.04013e-07
-2.42153e-07
1.11855e-07
-2.69235e-07
1.19828e-07
-2.97885e-07
1.27896e-07
-3.28082e-07
1.36014e-07
-3.59787e-07
1.4413e-07
-3.92949e-07
1.52184e-07
-4.27501e-07
1.60109e-07
-4.63358e-07
1.67829e-07
-5.00418e-07
1.75267e-07
-5.38562e-07
1.82338e-07
-5.77657e-07
1.88956e-07
-6.1755e-07
1.95032e-07
-6.58077e-07
2.00477e-07
-6.99059e-07
2.05202e-07
-7.40307e-07
2.09123e-07
-7.81621e-07
2.12159e-07
-8.22794e-07
2.14232e-07
-8.63615e-07
2.15274e-07
-9.0387e-07
2.15222e-07
-9.43343e-07
2.14025e-07
-9.81822e-07
2.11638e-07
-1.0191e-06
2.08028e-07
-1.05497e-06
2.03173e-07
-1.08923e-06
1.9706e-07
-1.12171e-06
1.89689e-07
-1.15222e-06
1.81069e-07
-1.1806e-06
1.7122e-07
-1.20669e-06
1.60171e-07
-1.23036e-06
1.47963e-07
-1.25147e-06
1.34644e-07
-1.26991e-06
1.20271e-07
-1.28557e-06
1.04911e-07
-1.29837e-06
8.86355e-08
-1.30822e-06
7.15256e-08
-1.31505e-06
5.36681e-08
-1.31882e-06
3.51561e-08
-1.31948e-06
1.6089e-08
-1.31699e-06
-3.42662e-09
-1.31135e-06
-2.32881e-08
-1.30254e-06
-4.33734e-08
-1.29057e-06
-6.3565e-08
-1.27545e-06
-8.37396e-08
-1.25721e-06
-1.0377e-07
-1.23591e-06
-1.23525e-07
-1.21159e-06
-1.42871e-07
-1.18432e-06
-1.61673e-07
-1.1542e-06
-1.79793e-07
-1.12133e-06
-1.97095e-07
-1.08581e-06
-2.13443e-07
-1.0478e-06
-2.28702e-07
-1.00743e-06
-2.42741e-07
-9.6488e-07
-2.55436e-07
-9.20331e-07
-2.66668e-07
-8.73986e-07
-2.76327e-07
-8.26064e-07
-2.84315e-07
-7.768e-07
-2.90545e-07
-7.26441e-07
-2.94947e-07
-6.75251e-07
-2.97465e-07
-6.23503e-07
-2.98063e-07
-5.71479e-07
-2.96726e-07
-5.1947e-07
-2.93458e-07
-4.67768e-07
-2.88288e-07
-4.16669e-07
-2.81264e-07
-3.66463e-07
-2.72461e-07
-3.17438e-07
-2.61974e-07
-2.69871e-07
-2.49921e-07
-2.24026e-07
-2.36438e-07
-1.80151e-07
-2.21683e-07
-1.38475e-07
-2.05827e-07
-9.92059e-08
-1.89054e-07
-6.25243e-08
-1.71559e-07
-2.85853e-08
-1.53542e-07
2.48568e-09
-1.35209e-07
3.05933e-08
-1.1676e-07
5.56735e-08
-9.83931e-08
7.76934e-08
-8.02984e-08
9.66516e-08
-6.26534e-08
1.12577e-07
-4.5621e-08
1.25528e-07
-2.93475e-08
1.3559e-07
-1.39598e-08
1.42873e-07
4.34977e-10
1.47513e-07
1.37522e-08
1.49662e-07
2.59258e-08
1.49492e-07
3.69114e-08
1.4719e-07
4.66819e-08
1.42953e-07
5.52257e-08
1.36987e-07
6.25431e-08
1.29508e-07
6.8642e-08
1.20732e-07
7.35328e-08
1.10884e-07
7.72231e-08
1.0019e-07
7.97119e-08
8.88772e-08
8.09843e-08
7.71802e-08
8.10065e-08
6.53377e-08
7.9722e-08
5.35973e-08
7.705e-08
4.22193e-08
7.28854e-08
3.14828e-08
6.71022e-08
2.16942e-08
5.95602e-08
1.32004e-08
5.01143e-08
6.40697e-09
3.86264e-08
1.8024e-09
2.49789e-08
9.08784e-09
3.90744e-10
-4.43399e-09
1.15107e-09
-1.03377e-08
1.96108e-09
-1.37951e-08
2.57024e-09
-1.5219e-08
2.78084e-09
-1.49549e-08
2.4363e-09
-1.33031e-08
1.41124e-09
-1.05207e-08
-3.9661e-10
-6.82341e-09
-3.07267e-09
-2.38966e-09
-6.69036e-09
2.63579e-09
-1.13147e-08
8.13802e-09
-1.70048e-08
1.40283e-08
-2.38162e-08
2.02402e-08
-3.18019e-08
2.67263e-08
-4.10136e-08
3.34548e-08
-5.15021e-08
4.04066e-08
-6.33177e-08
4.75724e-08