/*--------------------------------*- C++ -*----------------------------------*\
| =========                 |                                                 |
| \\      /  F ield         | OpenFOAM: The Open Source CFD Toolbox           |
|  \\    /   O peration     | Version:  2112                                  |
|   \\  /    A nd           | Website:  www.openfoam.com                      |
|    \\/     M anipulation  |                                                 |
\*---------------------------------------------------------------------------*/
FoamFile
{
    version     2.0;
    format      ascii;
    arch        "LSB;label=32;scalar=64";
    class       volVectorField;
    location    "2.1";
    object      U;
}
// * * * * * * * * * * * * * * * * * * * * * * * * * * * * * * * * * * * * * //

dimensions      [0 1 -1 0 0 0 0];

internalField   nonuniform List<vector> 
16641
(
(-3.83981e-06 3.76409e-06 0)
(7.15981e-06 -6.49431e-06 0)
(4.88962e-05 -1.67423e-05 0)
(0.000110727 -2.32185e-05 0)
(0.000184659 -2.64898e-05 0)
(0.000263973 -2.74656e-05 0)
(0.000343426 -2.68668e-05 0)
(0.000419224 -2.52295e-05 0)
(0.000488723 -2.29316e-05 0)
(0.000550132 -2.02362e-05 0)
(0.000602291 -1.73263e-05 0)
(0.0006445 -1.43266e-05 0)
(0.000676389 -1.13218e-05 0)
(0.000697816 -8.36453e-06 0)
(0.000708784 -5.48378e-06 0)
(0.000709377 -2.69133e-06 0)
(0.000699709 1.56056e-08 0)
(0.000679888 2.64924e-06 0)
(0.000649984 5.22914e-06 0)
(0.000610009 7.78081e-06 0)
(0.000559903 1.03329e-05 0)
(0.000499525 1.29154e-05 0)
(0.000428646 1.55592e-05 0)
(0.000346953 1.82949e-05 0)
(0.00025405 2.11509e-05 0)
(0.000149467 2.41539e-05 0)
(3.26653e-05 2.73272e-05 0)
(-9.6944e-05 3.06904e-05 0)
(-0.000239993 3.42593e-05 0)
(-0.000397139 3.80456e-05 0)
(-0.000569047 4.20561e-05 0)
(-0.000756377 4.62926e-05 0)
(-0.000959763 5.07524e-05 0)
(-0.0011798 5.54277e-05 0)
(-0.001417 6.03054e-05 0)
(-0.00167184 6.53671e-05 0)
(-0.00194465 7.0589e-05 0)
(-0.00223567 7.5942e-05 0)
(-0.00254501 8.13914e-05 0)
(-0.0028726 8.68962e-05 0)
(-0.00321821 9.24094e-05 0)
(-0.00358144 9.78783e-05 0)
(-0.00396165 0.000103245 0)
(-0.004358 0.000108444 0)
(-0.0047694 0.000113407 0)
(-0.00519454 0.000118059 0)
(-0.00563182 0.00012232 0)
(-0.00607941 0.000126108 0)
(-0.00653517 0.000129337 0)
(-0.00699675 0.000131919 0)
(-0.00746148 0.000133766 0)
(-0.00792648 0.000134789 0)
(-0.0083886 0.000134901 0)
(-0.00884447 0.000134022 0)
(-0.00929054 0.000132072 0)
(-0.00972305 0.000128981 0)
(-0.0101381 0.000124686 0)
(-0.0105317 0.000119136 0)
(-0.0108998 0.00011229 0)
(-0.0112382 0.000104123 0)
(-0.0115429 9.46244e-05 0)
(-0.0118098 8.38005e-05 0)
(-0.0120352 7.16771e-05 0)
(-0.0122152 5.83014e-05 0)
(-0.0123464 4.37481e-05 0)
(-0.0124258 2.81196e-05 0)
(-0.0124503 1.15085e-05 0)
(-0.0124178 -5.99507e-06 0)
(-0.0123262 -2.42041e-05 0)
(-0.0121742 -4.29289e-05 0)
(-0.011961 -6.19751e-05 0)
(-0.0116865 -8.11312e-05 0)
(-0.0113511 -0.000100169 0)
(-0.0109561 -0.000118849 0)
(-0.0105034 -0.000136922 0)
(-0.00999549 -0.000154135 0)
(-0.00943582 -0.000170237 0)
(-0.00882841 -0.000184983 0)
(-0.00817795 -0.000198139 0)
(-0.00748977 -0.00020949 0)
(-0.00676978 -0.000218843 0)
(-0.00602435 -0.000226035 0)
(-0.00526027 -0.000230936 0)
(-0.00448462 -0.000233455 0)
(-0.00370469 -0.000233543 0)
(-0.00292783 -0.000231194 0)
(-0.00216137 -0.000226449 0)
(-0.00141245 -0.000219395 0)
(-0.000687915 -0.000210163 0)
(5.79647e-06 -0.000198927 0)
(0.000662766 -0.000185894 0)
(0.0012777 -0.000171306 0)
(0.00184603 -0.000155431 0)
(0.00236394 -0.000138555 0)
(0.00282845 -0.000120974 0)
(0.00323744 -0.000102987 0)
(0.00358965 -8.48877e-05 0)
(0.00388466 -6.6956e-05 0)
(0.00412289 -4.94531e-05 0)
(0.00430549 -3.26148e-05 0)
(0.00443434 -1.66468e-05 0)
(0.00451192 -1.72089e-06 0)
(0.00454124 1.20265e-05 0)
(0.00452573 2.44945e-05 0)
(0.00446915 3.56205e-05 0)
(0.00437548 4.53759e-05 0)
(0.00424883 5.37641e-05 0)
(0.00409334 6.08182e-05 0)
(0.00391308 6.65971e-05 0)
(0.00371199 7.11809e-05 0)
(0.00349382 7.46667e-05 0)
(0.00326207 7.71633e-05 0)
(0.00301997 7.87856e-05 0)
(0.00277042 7.96487e-05 0)
(0.00251606 7.98606e-05 0)
(0.00225925 7.95143e-05 0)
(0.00200215 7.86785e-05 0)
(0.00174679 7.73857e-05 0)
(0.00149518 7.56188e-05 0)
(0.00124948 7.32949e-05 0)
(0.00101219 7.02445e-05 0)
(0.000786399 6.61887e-05 0)
(0.000576028 6.0713e-05 0)
(0.000386143 5.32464e-05 0)
(0.000223199 4.30848e-05 0)
(9.49504e-05 2.95627e-05 0)
(9.55138e-06 1.25933e-05 0)
(-2.6339e-05 -5.71373e-06 0)
(-1.56208e-05 -1.56557e-05 0)
(6.42683e-06 -7.16213e-06 0)
(5.57784e-05 -5.5784e-05 0)
(0.000165706 -9.96508e-05 0)
(0.000315106 -0.000129105 0)
(0.000488341 -0.000145016 0)
(0.000672429 -0.000149991 0)
(0.000856178 -0.000146634 0)
(0.00103069 -0.000137193 0)
(0.00118925 -0.000123459 0)
(0.00132699 -0.000106809 0)
(0.00144047 -8.82764e-05 0)
(0.00152737 -6.86211e-05 0)
(0.00158622 -4.83841e-05 0)
(0.00161614 -2.79299e-05 0)
(0.00161665 -7.48504e-06 0)
(0.00158754 1.28346e-05 0)
(0.0015287 3.29989e-05 0)
(0.00144003 5.30432e-05 0)
(0.00132141 7.30526e-05 0)
(0.00117257 9.3148e-05 0)
(0.000993106 0.000113473 0)
(0.000782422 0.000134184 0)
(0.000539744 0.000155442 0)
(0.000264105 0.000177404 0)
(-4.56403e-05 0.000200217 0)
(-0.000390798 0.000224014 0)
(-0.000772808 0.000248905 0)
(-0.00119321 0.000274976 0)
(-0.00165361 0.000302285 0)
(-0.00215563 0.000330861 0)
(-0.00270088 0.000360701 0)
(-0.00329088 0.000391764 0)
(-0.00392704 0.00042398 0)
(-0.00461059 0.00045724 0)
(-0.00534255 0.000491398 0)
(-0.00612363 0.000526274 0)
(-0.00695426 0.00056165 0)
(-0.00783446 0.000597274 0)
(-0.00876383 0.000632854 0)
(-0.0097415 0.000668068 0)
(-0.0107661 0.000702555 0)
(-0.0118356 0.000735924 0)
(-0.0129476 0.000767755 0)
(-0.0140989 0.0007976 0)
(-0.0152856 0.000824986 0)
(-0.0165033 0.000849425 0)
(-0.0177468 0.000870412 0)
(-0.0190102 0.000887436 0)
(-0.0202872 0.000899984 0)
(-0.0215705 0.00090755 0)
(-0.0228525 0.000909643 0)
(-0.0241246 0.000905791 0)
(-0.0253781 0.000895558 0)
(-0.0266037 0.000878543 0)
(-0.0277916 0.000854396 0)
(-0.0289318 0.000822825 0)
(-0.030014 0.000783603 0)
(-0.031028 0.000736577 0)
(-0.0319634 0.000681677 0)
(-0.03281 0.000618923 0)
(-0.0335577 0.00054843 0)
(-0.034197 0.000470414 0)
(-0.0347187 0.0003852 0)
(-0.0351143 0.00029322 0)
(-0.0353762 0.000195025 0)
(-0.0354974 9.12745e-05 0)
(-0.0354723 -1.73242e-05 0)
(-0.0352958 -0.000129822 0)
(-0.0349647 -0.000245273 0)
(-0.0344768 -0.000362607 0)
(-0.0338315 -0.000480668 0)
(-0.0330295 -0.00059823 0)
(-0.0320734 -0.000714007 0)
(-0.0309671 -0.000826672 0)
(-0.0297162 -0.000934874 0)
(-0.0283282 -0.00103726 0)
(-0.0268118 -0.00113251 0)
(-0.0251776 -0.00121934 0)
(-0.0234374 -0.00129654 0)
(-0.0216045 -0.00136301 0)
(-0.0196935 -0.00141776 0)
(-0.0177198 -0.00145995 0)
(-0.0157 -0.00148894 0)
(-0.0136511 -0.00150426 0)
(-0.0115907 -0.00150564 0)
(-0.00953643 -0.00149307 0)
(-0.00750597 -0.00146673 0)
(-0.00551658 -0.00142706 0)
(-0.00358493 -0.00137471 0)
(-0.00172679 -0.00131055 0)
(4.31521e-05 -0.00123565 0)
(0.00171158 -0.00115126 0)
(0.00326673 -0.00105875 0)
(0.00469854 -0.000959643 0)
(0.00599881 -0.00085551 0)
(0.00716129 -0.000747972 0)
(0.0081817 -0.000638649 0)
(0.00905777 -0.000529125 0)
(0.00978918 -0.000420907 0)
(0.0103775 -0.000315396 0)
(0.010826 -0.000213859 0)
(0.0111397 -0.000117404 0)
(0.0113248 -2.6961e-05 0)
(0.0113889 5.67235e-05 0)
(0.0113405 0.000133098 0)
(0.0111887 0.000201802 0)
(0.0109435 0.000262657 0)
(0.0106148 0.000315661 0)
(0.0102128 0.000360963 0)
(0.00974744 0.000398852 0)
(0.00922847 0.000429725 0)
(0.00866517 0.000454061 0)
(0.00806629 0.000472389 0)
(0.00744002 0.00048525 0)
(0.00679394 0.000493158 0)
(0.00613511 0.000496548 0)
(0.0054702 0.000495725 0)
(0.00480561 0.000490809 0)
(0.00414777 0.000481663 0)
(0.0035035 0.000467831 0)
(0.0028803 0.000448467 0)
(0.0022869 0.000422282 0)
(0.00173355 0.000387528 0)
(0.00123246 0.000342067 0)
(0.000797752 0.000283696 0)
(0.000444713 0.000211053 0)
(0.000187504 0.000125558 0)
(3.67093e-05 3.60428e-05 0)
(-5.52159e-06 -2.63943e-05 0)
(1.68627e-05 -4.89811e-05 0)
(0.000100157 -0.000165799 0)
(0.000263337 -0.000262595 0)
(0.000474799 -0.000328354 0)
(0.000713642 -0.00036421 0)
(0.000963548 -0.000374572 0)
(0.00120997 -0.000364514 0)
(0.00144087 -0.000338812 0)
(0.00164677 -0.000301542 0)
(0.00182051 -0.000256009 0)
(0.00195678 -0.000204801 0)
(0.00205178 -0.000149884 0)
(0.00210286 -9.26953e-05 0)
(0.00210824 -3.42389e-05 0)
(0.00206673 2.48403e-05 0)
(0.0019775 8.41822e-05 0)
(0.00183994 0.000143655 0)
(0.00165348 0.000203305 0)
(0.00141751 0.000263312 0)
(0.00113128 0.000323953 0)
(0.000793846 0.000385567 0)
(0.000404045 0.000448529 0)
(-3.95328e-05 0.000513227 0)
(-0.000538533 0.000580035 0)
(-0.00109482 0.000649303 0)
(-0.00171046 0.00072133 0)
(-0.00238764 0.00079636 0)
(-0.00312867 0.000874565 0)
(-0.00393587 0.000956036 0)
(-0.00481154 0.00104078 0)
(-0.00575785 0.0011287 0)
(-0.00677681 0.00121961 0)
(-0.00787015 0.00131323 0)
(-0.00903924 0.00140916 0)
(-0.0102851 0.00150691 0)
(-0.011608 0.00160589 0)
(-0.013008 0.00170538 0)
(-0.0144842 0.00180461 0)
(-0.0160351 0.00190266 0)
(-0.0176583 0.00199856 0)
(-0.0193506 0.00209122 0)
(-0.021108 0.00217951 0)
(-0.0229253 0.00226221 0)
(-0.0247966 0.00233802 0)
(-0.0267148 0.00240565 0)
(-0.0286718 0.00246372 0)
(-0.0306586 0.0025109 0)
(-0.0326652 0.00254581 0)
(-0.0346807 0.00256712 0)
(-0.0366931 0.00257357 0)
(-0.03869 0.00256392 0)
(-0.0406579 0.00253706 0)
(-0.0425829 0.00249199 0)
(-0.0444505 0.00242781 0)
(-0.0462459 0.00234382 0)
(-0.0479541 0.00223946 0)
(-0.0495599 0.0021144 0)
(-0.0510482 0.0019685 0)
(-0.0524043 0.00180184 0)
(-0.0536137 0.00161476 0)
(-0.0546627 0.00140785 0)
(-0.0555382 0.00118194 0)
(-0.056228 0.000938136 0)
(-0.0567212 0.000677815 0)
(-0.0570079 0.000402596 0)
(-0.0570798 0.000114357 0)
(-0.05693 -0.000184664 0)
(-0.0565533 -0.000492077 0)
(-0.0559465 -0.000805334 0)
(-0.0551081 -0.00112163 0)
(-0.0540386 -0.00143799 0)
(-0.0527408 -0.00175128 0)
(-0.0512194 -0.00205826 0)
(-0.0494813 -0.00235565 0)
(-0.0475355 -0.00264013 0)
(-0.0453933 -0.00290839 0)
(-0.043068 -0.00315722 0)
(-0.0405747 -0.00338354 0)
(-0.0379306 -0.00358447 0)
(-0.0351546 -0.00375735 0)
(-0.0322671 -0.00389985 0)
(-0.0292899 -0.00400999 0)
(-0.0262459 -0.0040862 0)
(-0.0231588 -0.00412736 0)
(-0.020053 -0.00413286 0)
(-0.016953 -0.00410258 0)
(-0.0138835 -0.00403698 0)
(-0.0108686 -0.00393702 0)
(-0.00793159 -0.00380424 0)
(-0.00509499 -0.00364066 0)
(-0.00237976 -0.00344882 0)
(0.000194773 -0.00323166 0)
(0.00261125 -0.00299252 0)
(0.00485449 -0.00273503 0)
(0.00691172 -0.00246306 0)
(0.00877271 -0.00218061 0)
(0.0104299 -0.00189173 0)
(0.0118784 -0.00160041 0)
(0.0131161 -0.00131055 0)
(0.0141434 -0.00102581 0)
(0.0149633 -0.000749555 0)
(0.0155812 -0.000484823 0)
(0.0160045 -0.000234235 0)
(0.0162426 2.87668e-08 0)
(0.0163066 0.000216251 0)
(0.0162086 0.000413186 0)
(0.015962 0.00059006 0)
(0.0155807 0.00074654 0)
(0.0150792 0.000882709 0)
(0.0144719 0.000999017 0)
(0.013773 0.00109622 0)
(0.0129966 0.0011753 0)
(0.0121561 0.00123742 0)
(0.0112641 0.00128376 0)
(0.010333 0.00131548 0)
(0.00937408 0.00133357 0)
(0.00839847 0.00133869 0)
(0.00741691 0.00133107 0)
(0.00644018 0.00131036 0)
(0.00547951 0.00127546 0)
(0.00454698 0.00122444 0)
(0.00365601 0.00115448 0)
(0.00282173 0.00106194 0)
(0.00206119 0.000942772 0)
(0.00139324 0.000793357 0)
(0.000837264 0.000612502 0)
(0.00041046 0.000404889 0)
(0.000129126 0.000187777 0)
(1.34923e-05 1.0444e-05 0)
(2.35884e-05 -0.000111288 0)
(0.000130363 -0.000315838 0)
(0.000330249 -0.000474323 0)
(0.000581497 -0.000579647 0)
(0.000858649 -0.000635133 0)
(0.00114307 -0.000647679 0)
(0.00141818 -0.000625133 0)
(0.00167003 -0.000575032 0)
(0.00188743 -0.000504 0)
(0.00206164 -0.000417554 0)
(0.00218595 -0.000320118 0)
(0.00225535 -0.000215119 0)
(0.00226612 -0.000105111 0)
(0.00221554 8.09194e-06 0)
(0.00210158 0.000123297 0)
(0.00192268 0.000239811 0)
(0.00167752 0.000357351 0)
(0.00136486 0.000475948 0)
(0.000983429 0.000595879 0)
(0.000531825 0.000717588 0)
(8.43952e-06 0.000841638 0)
(-0.000588573 0.000968655 0)
(-0.00126131 0.00109928 0)
(-0.00201211 0.00123413 0)
(-0.00284352 0.00137376 0)
(-0.00375827 0.00151865 0)
(-0.00475918 0.00166914 0)
(-0.00584912 0.00182545 0)
(-0.00703091 0.00198763 0)
(-0.00830722 0.00215556 0)
(-0.00968046 0.00232896 0)
(-0.0111527 0.00250732 0)
(-0.0127256 0.00268996 0)
(-0.0144002 0.00287599 0)
(-0.0161768 0.00306433 0)
(-0.0180551 0.0032537 0)
(-0.0200338 0.00344264 0)
(-0.0221106 0.00362948 0)
(-0.0242823 0.00381241 0)
(-0.0265444 0.00398943 0)
(-0.0288915 0.00415843 0)
(-0.0313165 0.00431713 0)
(-0.0338114 0.00446319 0)
(-0.0363669 0.00459417 0)
(-0.0389724 0.00470759 0)
(-0.0416158 0.00480094 0)
(-0.0442842 0.00487176 0)
(-0.0469632 0.00491762 0)
(-0.0496377 0.0049362 0)
(-0.0522914 0.00492531 0)
(-0.0549072 0.00488292 0)
(-0.0574674 0.00480724 0)
(-0.0599539 0.00469671 0)
(-0.0623479 0.00455006 0)
(-0.0646307 0.00436634 0)
(-0.0667835 0.00414496 0)
(-0.0687879 0.00388568 0)
(-0.0706256 0.00358868 0)
(-0.072279 0.00325455 0)
(-0.0737315 0.00288429 0)
(-0.0749672 0.00247937 0)
(-0.0759715 0.00204169 0)
(-0.0767312 0.00157358 0)
(-0.0772344 0.00107782 0)
(-0.077471 0.000557598 0)
(-0.0774327 1.65064e-05 0)
(-0.0771131 -0.00054122 0)
(-0.0765078 -0.00111143 0)
(-0.0756147 -0.00168942 0)
(-0.0744338 -0.00227017 0)
(-0.0729674 -0.00284846 0)
(-0.0712203 -0.00341884 0)
(-0.0691995 -0.00397577 0)
(-0.0669144 -0.0045136 0)
(-0.0643768 -0.0050267 0)
(-0.0616008 -0.00550951 0)
(-0.0586028 -0.00595663 0)
(-0.0554014 -0.00636289 0)
(-0.0520171 -0.00672347 0)
(-0.0484724 -0.00703396 0)
(-0.0447914 -0.00729044 0)
(-0.0409997 -0.00748961 0)
(-0.0371244 -0.00762882 0)
(-0.0331931 -0.00770616 0)
(-0.0292346 -0.00772055 0)
(-0.0252777 -0.00767175 0)
(-0.0213514 -0.00756038 0)
(-0.0174843 -0.00738799 0)
(-0.0137046 -0.00715703 0)
(-0.0100389 -0.00687079 0)
(-0.00651304 -0.00653341 0)
(-0.00315068 -0.00614977 0)
(2.63904e-05 -0.00572541 0)
(0.00299876 -0.00526644 0)
(0.00574963 -0.00477941 0)
(0.00826502 -0.00427114 0)
(0.0105339 -0.00374863 0)
(0.0125485 -0.00321889 0)
(0.0143038 -0.00268875 0)
(0.0157983 -0.0021648 0)
(0.0170334 -0.00165317 0)
(0.0180134 -0.00115947 0)
(0.0187453 -0.000688676 0)
(0.0192385 -0.000245036 0)
(0.0195048 0.000167973 0)
(0.0195577 0.000547675 0)
(0.0194122 0.000892211 0)
(0.0190846 0.0012005 0)
(0.018592 0.00147222 0)
(0.0179518 0.00170771 0)
(0.0171817 0.00190788 0)
(0.0162993 0.00207412 0)
(0.0153217 0.0022081 0)
(0.0142657 0.00231166 0)
(0.0131473 0.00238661 0)
(0.0119821 0.00243448 0)
(0.0107852 0.00245634 0)
(0.00957137 0.00245254 0)
(0.00835547 0.00242248 0)
(0.00715276 0.00236442 0)
(0.0059793 0.00227531 0)
(0.00485239 0.00215081 0)
(0.00379092 0.00198553 0)
(0.0028155 0.00177367 0)
(0.00194837 0.00151045 0)
(0.00121212 0.00119484 0)
(0.000627419 0.00083385 0)
(0.000219361 0.000449849 0)
(3.16901e-05 9.91602e-05 0)
(2.71532e-05 -0.00018623 0)
(0.000146959 -0.000490194 0)
(0.000366599 -0.000713548 0)
(0.000636568 -0.000856774 0)
(0.000927632 -0.000927436 0)
(0.0012193 -0.000935885 0)
(0.00149365 -0.00089312 0)
(0.00173557 -0.00080958 0)
(0.00193283 -0.000694504 0)
(0.0020757 -0.000555684 0)
(0.00215647 -0.000399451 0)
(0.00216919 -0.000230771 0)
(0.00210922 -5.33888e-05 0)
(0.00197295 0.000130006 0)
(0.00175749 0.000317612 0)
(0.00146046 0.000508366 0)
(0.00107971 0.0007018 0)
(0.000613227 0.000897915 0)
(5.89472e-05 0.00109707 0)
(-0.000585306 0.00129987 0)
(-0.0013219 0.0015071 0)
(-0.00215342 0.00171962 0)
(-0.00308267 0.00193832 0)
(-0.00411269 0.00216403 0)
(-0.00524665 0.00239749 0)
(-0.00648784 0.00263927 0)
(-0.00783957 0.00288977 0)
(-0.00930507 0.00314913 0)
(-0.0108874 0.00341726 0)
(-0.0125893 0.00369377 0)
(-0.014413 0.00397797 0)
(-0.0163604 0.00426888 0)
(-0.0184325 0.00456517 0)
(-0.0206296 0.00486523 0)
(-0.0229508 0.0051671 0)
(-0.0253945 0.00546853 0)
(-0.0279576 0.00576699 0)
(-0.030636 0.00605965 0)
(-0.0334241 0.00634344 0)
(-0.0363147 0.00661506 0)
(-0.0392994 0.00687102 0)
(-0.0423682 0.00710765 0)
(-0.0455095 0.00732121 0)
(-0.0487104 0.00750786 0)
(-0.0519564 0.00766375 0)
(-0.0552317 0.00778508 0)
(-0.0585191 0.00786814 0)
(-0.0618005 0.00790939 0)
(-0.0650566 0.00790549 0)
(-0.0682672 0.0078534 0)
(-0.0714117 0.0077504 0)
(-0.0744687 0.00759416 0)
(-0.0774166 0.00738278 0)
(-0.080234 0.00711487 0)
(-0.0828994 0.00678953 0)
(-0.0853916 0.00640645 0)
(-0.0876901 0.00596587 0)
(-0.0897753 0.00546866 0)
(-0.0916284 0.00491629 0)
(-0.0932318 0.00431087 0)
(-0.0945693 0.00365511 0)
(-0.0956261 0.00295237 0)
(-0.0963893 0.0022066 0)
(-0.0968476 0.00142234 0)
(-0.0969918 0.000604678 0)
(-0.0968143 -0.000240774 0)
(-0.09631 -0.00110779 0)
(-0.0954763 -0.00198986 0)
(-0.0943123 -0.00287998 0)
(-0.0928196 -0.00377079 0)
(-0.0910024 -0.00465466 0)
(-0.0888671 -0.00552374 0)
(-0.0864226 -0.00637002 0)
(-0.0836801 -0.00718546 0)
(-0.0806532 -0.00796203 0)
(-0.0773581 -0.00869185 0)
(-0.0738128 -0.00936727 0)
(-0.0700378 -0.009981 0)
(-0.0660556 -0.0105262 0)
(-0.0618907 -0.0109967 0)
(-0.0575692 -0.0113868 0)
(-0.0531188 -0.0116919 0)
(-0.0485686 -0.0119081 0)
(-0.0439489 -0.0120327 0)
(-0.0392906 -0.012064 0)
(-0.0346253 -0.0120014 0)
(-0.0299846 -0.0118457 0)
(-0.0254002 -0.0115989 0)
(-0.0209029 -0.0112641 0)
(-0.016523 -0.010846 0)
(-0.0122894 -0.0103501 0)
(-0.00822932 -0.00978322 0)
(-0.00436804 -0.00915311 0)
(-0.00072856 -0.00846837 0)
(0.00266871 -0.00773832 0)
(0.00580626 -0.00697277 0)
(0.00866963 -0.00618187 0)
(0.0112476 -0.00537586 0)
(0.0135324 -0.0045649 0)
(0.0155195 -0.00375882 0)
(0.0172079 -0.00296697 0)
(0.0185998 -0.00219801 0)
(0.0197006 -0.00145978 0)
(0.0205187 -0.000759107 0)
(0.021065 -0.000101777 0)
(0.021353 0.000507577 0)
(0.0213982 0.00106549 0)
(0.0212176 0.00156966 0)
(0.0208296 0.00201889 0)
(0.0202538 0.00241301 0)
(0.0195098 0.00275275 0)
(0.018618 0.00303957 0)
(0.0175983 0.00327548 0)
(0.0164708 0.00346276 0)
(0.0152548 0.00360372 0)
(0.0139695 0.00370039 0)
(0.0126336 0.00375416 0)
(0.0112655 0.00376552 0)
(0.00988375 0.00373365 0)
(0.00850722 0.00365625 0)
(0.00715545 0.00352931 0)
(0.00584903 0.00334716 0)
(0.00460995 0.00310288 0)
(0.00346178 0.00278911 0)
(0.00242976 0.00239984 0)
(0.00153986 0.00193337 0)
(0.000817131 0.00139676 0)
(0.000296875 0.000812465 0)
(4.65793e-05 0.000233729 0)
(2.83915e-05 -0.000266937 0)
(0.00015208 -0.00067522 0)
(0.000375521 -0.000962626 0)
(0.000644521 -0.00113907 0)
(0.000927153 -0.0012179 0)
(0.0012015 -0.00121382 0)
(0.00144873 -0.00114143 0)
(0.00165309 -0.00101424 0)
(0.00180179 -0.000844138 0)
(0.00188447 -0.000641186 0)
(0.0018928 -0.000413591 0)
(0.00182009 -0.000167833 0)
(0.00166095 9.11685e-05 0)
(0.00141096 0.000359853 0)
(0.00106639 0.000635816 0)
(0.000623985 0.00091762 0)
(8.07384e-05 0.00120461 0)
(-0.000566243 0.00149673 0)
(-0.00131988 0.00179442 0)
(-0.00218318 0.00209844 0)
(-0.00315933 0.00240975 0)
(-0.00425168 0.00272943 0)
(-0.00546376 0.00305855 0)
(-0.00679922 0.00339811 0)
(-0.00826181 0.00374892 0)
(-0.00985524 0.00411159 0)
(-0.0115831 0.0044864 0)
(-0.0134489 0.00487332 0)
(-0.0154554 0.0052719 0)
(-0.0176053 0.0056813 0)
(-0.0199004 0.00610023 0)
(-0.0223416 0.00652694 0)
(-0.0249291 0.00695923 0)
(-0.0276618 0.00739444 0)
(-0.0305373 0.00782947 0)
(-0.033552 0.00826079 0)
(-0.0367007 0.00868447 0)
(-0.0399767 0.00909621 0)
(-0.0433714 0.0094914 0)
(-0.0468749 0.00986514 0)
(-0.0504754 0.0102123 0)
(-0.0541592 0.0105277 0)
(-0.0579114 0.0108059 0)
(-0.061715 0.0110415 0)
(-0.0655519 0.0112293 0)
(-0.0694025 0.0113642 0)
(-0.073246 0.0114411 0)
(-0.0770606 0.0114556 0)
(-0.0808236 0.0114035 0)
(-0.0845119 0.011281 0)
(-0.0881018 0.011085 0)
(-0.0915695 0.0108128 0)
(-0.0948914 0.0104628 0)
(-0.0980441 0.0100335 0)
(-0.101005 0.00952466 0)
(-0.103751 0.00893656 0)
(-0.106262 0.00827034 0)
(-0.108518 0.00752794 0)
(-0.110501 0.00671209 0)
(-0.112192 0.00582633 0)
(-0.113577 0.00487497 0)
(-0.114641 0.00386308 0)
(-0.115374 0.00279648 0)
(-0.115764 0.00168167 0)
(-0.115804 0.000525846 0)
(-0.115488 -0.000663312 0)
(-0.114812 -0.00187742 0)
(-0.113775 -0.00310757 0)
(-0.112377 -0.00434447 0)
(-0.110622 -0.00557841 0)
(-0.108515 -0.0067994 0)
(-0.106064 -0.00799719 0)
(-0.103277 -0.00916142 0)
(-0.100169 -0.0102817 0)
(-0.0967518 -0.0113476 0)
(-0.093044 -0.012349 0)
(-0.089064 -0.013276 0)
(-0.084833 -0.0141193 0)
(-0.0803742 -0.01487 0)
(-0.0757127 -0.0155201 0)
(-0.0708753 -0.0160621 0)
(-0.0658909 -0.0164901 0)
(-0.0607893 -0.0167987 0)
(-0.0556019 -0.0169843 0)
(-0.0503609 -0.0170444 0)
(-0.0450995 -0.016978 0)
(-0.0398509 -0.0167859 0)
(-0.0346486 -0.0164701 0)
(-0.0295257 -0.0160345 0)
(-0.0245149 -0.0154846 0)
(-0.0196476 -0.0148275 0)
(-0.0149538 -0.0140715 0)
(-0.0104619 -0.0132264 0)
(-0.00619802 -0.0123034 0)
(-0.00218589 -0.0113144 0)
(0.00155358 -0.0102722 0)
(0.00500255 -0.00919017 0)
(0.00814641 -0.00808183 0)
(0.010974 -0.00696082 0)
(0.0134777 -0.0058405 0)
(0.0156535 -0.00473369 0)
(0.0175009 -0.00365245 0)
(0.0190229 -0.00260785 0)
(0.0202258 -0.00160978 0)
(0.021119 -0.000666775 0)
(0.0217149 0.000214062 0)
(0.0220282 0.00102715 0)
(0.0220758 0.00176845 0)
(0.0218766 0.00243542 0)
(0.0214507 0.00302691 0)
(0.0208193 0.00354302 0)
(0.0200042 0.00398493 0)
(0.0190279 0.0043546 0)
(0.0179125 0.0046545 0)
(0.0166804 0.00488721 0)
(0.0153535 0.00505507 0)
(0.0139539 0.00515975 0)
(0.0125031 0.00520178 0)
(0.011023 0.00518023 0)
(0.00953551 0.00509228 0)
(0.00806338 0.00493313 0)
(0.00663011 0.00469599 0)
(0.00526048 0.00437253 0)
(0.00398081 0.00395384 0)
(0.00281939 0.00343222 0)
(0.0018059 0.0028041 0)
(0.000970386 0.002074 0)
(0.000358256 0.00126007 0)
(5.7807e-05 0.000405616 0)
(2.79286e-05 -0.000347779 0)
(0.000147775 -0.000858384 0)
(0.000360649 -0.00120468 0)
(0.000610594 -0.00140666 0)
(0.000864225 -0.00148434 0)
(0.00109872 -0.00145748 0)
(0.00129478 -0.00134464 0)
(0.00143641 -0.00116258 0)
(0.00151057 -0.00092582 0)
(0.00150663 -0.000646631 0)
(0.00141586 -0.000335011 0)
(0.00123105 1.1394e-06 0)
(0.000946173 0.000355806 0)
(0.000556082 0.000724625 0)
(5.6245e-05 0.00110464 0)
(-0.000557463 0.00149406 0)
(-0.00128894 0.00189206 0)
(-0.00214198 0.00229856 0)
(-0.0031204 0.00271402 0)
(-0.0042281 0.00313933 0)
(-0.00546907 0.00357561 0)
(-0.00684741 0.00402406 0)
(-0.00836734 0.00448587 0)
(-0.0100331 0.00496209 0)
(-0.0118488 0.00545352 0)
(-0.0138184 0.00596061 0)
(-0.0159457 0.0064834 0)
(-0.0182339 0.00702144 0)
(-0.0206857 0.00757376 0)
(-0.023303 0.00813879 0)
(-0.0260867 0.00871436 0)
(-0.0290367 0.00929771 0)
(-0.0321516 0.00988544 0)
(-0.0354285 0.0104736 0)
(-0.0388631 0.0110575 0)
(-0.0424492 0.0116321 0)
(-0.046179 0.0121918 0)
(-0.0500428 0.0127305 0)
(-0.054029 0.0132419 0)
(-0.0581241 0.0137192 0)
(-0.0623129 0.0141555 0)
(-0.0665781 0.0145438 0)
(-0.070901 0.0148771 0)
(-0.0752613 0.0151486 0)
(-0.0796371 0.0153514 0)
(-0.0840056 0.0154793 0)
(-0.0883427 0.0155264 0)
(-0.0926239 0.0154872 0)
(-0.096824 0.015357 0)
(-0.100917 0.0151318 0)
(-0.104879 0.0148082 0)
(-0.108683 0.014384 0)
(-0.112306 0.0138576 0)
(-0.115723 0.0132285 0)
(-0.118911 0.012497 0)
(-0.121848 0.0116647 0)
(-0.124514 0.0107338 0)
(-0.12689 0.00970764 0)
(-0.128958 0.00859059 0)
(-0.130703 0.0073878 0)
(-0.132109 0.00610538 0)
(-0.133165 0.00475026 0)
(-0.13386 0.00333018 0)
(-0.134186 0.00185367 0)
(-0.134137 0.000329947 0)
(-0.133707 -0.0012311 0)
(-0.132894 -0.00281903 0)
(-0.131698 -0.00442277 0)
(-0.130121 -0.00603083 0)
(-0.128166 -0.00763129 0)
(-0.125839 -0.00921193 0)
(-0.123148 -0.0107603 0)
(-0.120103 -0.0122637 0)
(-0.116716 -0.0137095 0)
(-0.113002 -0.0150852 0)
(-0.108978 -0.0163785 0)
(-0.104662 -0.0175772 0)
(-0.100076 -0.0186699 0)
(-0.0952409 -0.0196458 0)
(-0.0901833 -0.0204948 0)
(-0.0849296 -0.021208 0)
(-0.0795083 -0.0217775 0)
(-0.0739497 -0.0221967 0)
(-0.0682855 -0.0224607 0)
(-0.0625486 -0.0225661 0)
(-0.0567727 -0.0225113 0)
(-0.0509923 -0.0222965 0)
(-0.0452423 -0.0219239 0)
(-0.0395576 -0.0213977 0)
(-0.0339725 -0.0207241 0)
(-0.0285208 -0.0199111 0)
(-0.0232351 -0.0189688 0)
(-0.0181465 -0.0179088 0)
(-0.013284 -0.0167442 0)
(-0.00867453 -0.0154898 0)
(-0.00434227 -0.0141611 0)
(-0.000308482 -0.0127746 0)
(0.00340879 -0.0113473 0)
(0.00679494 -0.00989617 0)
(0.00983896 -0.00843833 0)
(0.0125335 -0.00699021 0)
(0.0148751 -0.00556753 0)
(0.0168638 -0.00418489 0)
(0.0185034 -0.00285557 0)
(0.0198011 -0.00159129 0)
(0.0207673 -0.000402035 0)
(0.0214155 0.000704019 0)
(0.0217616 0.00172061 0)
(0.0218239 0.00264334 0)
(0.0216227 0.00346959 0)
(0.0211797 0.00419838 0)
(0.0205177 0.00483014 0)
(0.0196604 0.0053664 0)
(0.018632 0.00580943 0)
(0.0174569 0.00616184 0)
(0.0161595 0.00642605 0)
(0.0147645 0.0066038 0)
(0.0132963 0.00669567 0)
(0.0117795 0.00670052 0)
(0.0102391 0.00661517 0)
(0.00870049 0.00643409 0)
(0.0071899 0.00614948 0)
(0.00573476 0.00575164 0)
(0.00436417 0.00522992 0)
(0.00310958 0.00457434 0)
(0.00200456 0.00377814 0)
(0.00108427 0.00284113 0)
(0.000403053 0.00177382 0)
(6.56438e-05 0.000605577 0)
(2.61918e-05 -0.000424269 0)
(0.000135694 -0.00102872 0)
(0.000325247 -0.0014243 0)
(0.000539665 -0.00164102 0)
(0.000745336 -0.00170601 0)
(0.000919149 -0.00164445 0)
(0.00104182 -0.00147911 0)
(0.00109746 -0.00123002 0)
(0.00107312 -0.000914354 0)
(0.000958106 -0.00054646 0)
(0.000743514 -0.000137987 0)
(0.00042177 0.000301884 0)
(-1.36762e-05 0.000766178 0)
(-0.000568635 0.00124983 0)
(-0.00124841 0.00174942 0)
(-0.00205796 0.00226287 0)
(-0.00300209 0.0027892 0)
(-0.00408551 0.00332829 0)
(-0.00531294 0.00388064 0)
(-0.00668913 0.00444721 0)
(-0.00821887 0.00502919 0)
(-0.00990698 0.00562784 0)
(-0.0117582 0.00624435 0)
(-0.0137773 0.00687969 0)
(-0.0159686 0.00753444 0)
(-0.0183363 0.00820874 0)
(-0.0208837 0.00890216 0)
(-0.0236139 0.0096136 0)
(-0.0265287 0.0103413 0)
(-0.0296292 0.0110826 0)
(-0.0329149 0.0118343 0)
(-0.0363841 0.0125922 0)
(-0.0400336 0.0133515 0)
(-0.0438582 0.0141064 0)
(-0.047851 0.0148506 0)
(-0.0520031 0.0155772 0)
(-0.0563036 0.0162786 0)
(-0.0607396 0.0169468 0)
(-0.065296 0.0175733 0)
(-0.0699559 0.0181496 0)
(-0.0747004 0.0186669 0)
(-0.0795089 0.0191165 0)
(-0.0843591 0.0194897 0)
(-0.0892275 0.0197782 0)
(-0.0940893 0.0199743 0)
(-0.0989188 0.0200704 0)
(-0.10369 0.0200601 0)
(-0.108375 0.0199375 0)
(-0.112949 0.0196977 0)
(-0.117385 0.0193366 0)
(-0.121655 0.0188515 0)
(-0.125736 0.0182405 0)
(-0.129602 0.0175029 0)
(-0.13323 0.0166393 0)
(-0.136597 0.0156511 0)
(-0.139684 0.0145413 0)
(-0.142471 0.0133136 0)
(-0.144939 0.0119731 0)
(-0.147074 0.0105256 0)
(-0.148861 0.00897807 0)
(-0.150287 0.00733852 0)
(-0.151342 0.00561568 0)
(-0.152017 0.00381918 0)
(-0.152304 0.00195939 0)
(-0.152198 4.74695e-05 0)
(-0.151696 -0.00190454 0)
(-0.150796 -0.0038845 0)
(-0.149497 -0.00587938 0)
(-0.147802 -0.00787567 0)
(-0.145715 -0.00985945 0)
(-0.14324 -0.0118165 0)
(-0.140386 -0.0137322 0)
(-0.137162 -0.015592 0)
(-0.13358 -0.017381 0)
(-0.129653 -0.0190847 0)
(-0.125397 -0.0206885 0)
(-0.12083 -0.0221783 0)
(-0.115972 -0.0235405 0)
(-0.110844 -0.0247622 0)
(-0.105471 -0.0258315 0)
(-0.0998783 -0.0267373 0)
(-0.094095 -0.0274702 0)
(-0.0881506 -0.0280218 0)
(-0.0820767 -0.0283859 0)
(-0.0759063 -0.0285578 0)
(-0.0696737 -0.0285348 0)
(-0.0634143 -0.0283168 0)
(-0.057164 -0.0279054 0)
(-0.050959 -0.0273049 0)
(-0.0448357 -0.0265219 0)
(-0.0388299 -0.0255653 0)
(-0.0329765 -0.0244462 0)
(-0.0273093 -0.0231779 0)
(-0.0218603 -0.0217756 0)
(-0.0166595 -0.0202564 0)
(-0.0117343 -0.0186384 0)
(-0.00710954 -0.0169413 0)
(-0.00280665 -0.0151853 0)
(0.00115619 -0.013391 0)
(0.00476448 -0.0115791 0)
(0.00800747 -0.00976984 0)
(0.0108783 -0.00798274 0)
(0.013374 -0.0062362 0)
(0.0154954 -0.00454714 0)
(0.0172471 -0.00293082 0)
(0.0186373 -0.00140049 0)
(0.0196775 3.26806e-05 0)
(0.0203823 0.00135973 0)
(0.020769 0.00257395 0)
(0.0208571 0.00367078 0)
(0.0206682 0.00464764 0)
(0.0202258 0.00550379 0)
(0.0195541 0.00623987 0)
(0.0186787 0.0068576 0)
(0.0176255 0.00735922 0)
(0.0164211 0.00774699 0)
(0.0150921 0.00802254 0)
(0.0136654 0.00818633 0)
(0.0121682 0.00823699 0)
(0.010628 0.00817093 0)
(0.00907273 0.00798199 0)
(0.00753122 0.00766134 0)
(0.00603352 0.00719786 0)
(0.00461148 0.00657888 0)
(0.00329975 0.00579152 0)
(0.00213572 0.00482478 0)
(0.00115932 0.00367208 0)
(0.000432096 0.00233427 0)
(7.04979e-05 0.000824761 0)
(2.34491e-05 -0.000492744 0)
(0.000117031 -0.0011767 0)
(0.000271905 -0.00160765 0)
(0.000435792 -0.00182525 0)
(0.000576003 -0.0018638 0)
(0.000669803 -0.00175401 0)
(0.00069842 -0.00152292 0)
(0.000646458 -0.00119383 0)
(0.000501327 -0.000786429 0)
(0.000252533 -0.000316989 0)
(-0.00010887 0.000201375 0)
(-0.000590688 0.000758389 0)
(-0.0011999 0.00134628 0)
(-0.00194292 0.00195943 0)
(-0.00282578 0.00259405 0)
(-0.00385428 0.00324785 0)
(-0.00503409 0.00391972 0)
(-0.00637082 0.00460952 0)
(-0.00787005 0.00531776 0)
(-0.00953738 0.0060454 0)
(-0.0113783 0.00679361 0)
(-0.0133983 0.0075636 0)
(-0.0156025 0.00835639 0)
(-0.017996 0.00917268 0)
(-0.0205832 0.0100127 0)
(-0.0233679 0.0108759 0)
(-0.0263534 0.0117613 0)
(-0.0295416 0.0126667 0)
(-0.0329336 0.0135894 0)
(-0.0365289 0.0145253 0)
(-0.0403254 0.0154697 0)
(-0.0443195 0.0164168 0)
(-0.0485054 0.0173599 0)
(-0.0528755 0.0182914 0)
(-0.0574199 0.0192029 0)
(-0.0621266 0.0200852 0)
(-0.0669815 0.0209288 0)
(-0.071968 0.0217235 0)
(-0.0770679 0.0224587 0)
(-0.0822607 0.0231241 0)
(-0.087524 0.023709 0)
(-0.0928342 0.024203 0)
(-0.0981661 0.0245963 0)
(-0.103493 0.0248793 0)
(-0.108789 0.0250432 0)
(-0.114025 0.0250803 0)
(-0.119175 0.0249836 0)
(-0.124209 0.0247472 0)
(-0.129102 0.0243666 0)
(-0.133827 0.0238382 0)
(-0.138356 0.02316 0)
(-0.142667 0.0223311 0)
(-0.146735 0.0213522 0)
(-0.150539 0.0202249 0)
(-0.154057 0.0189524 0)
(-0.157271 0.0175389 0)
(-0.160163 0.0159901 0)
(-0.162718 0.0143123 0)
(-0.16492 0.0125135 0)
(-0.166758 0.0106021 0)
(-0.168221 0.00858777 0)
(-0.169299 0.00648106 0)
(-0.169984 0.00429324 0)
(-0.170271 0.00203637 0)
(-0.170153 -0.000276711 0)
(-0.169629 -0.00263239 0)
(-0.168697 -0.00501674 0)
(-0.167356 -0.00741505 0)
(-0.165607 -0.00981208 0)