/*--------------------------------*- C++ -*----------------------------------*\
| =========                 |                                                 |
| \\      /  F ield         | OpenFOAM: The Open Source CFD Toolbox           |
|  \\    /   O peration     | Version:  2112                                  |
|   \\  /    A nd           | Website:  www.openfoam.com                      |
|    \\/     M anipulation  |                                                 |
\*---------------------------------------------------------------------------*/
FoamFile
{
    version     2.0;
    format      ascii;
    arch        "LSB;label=32;scalar=64";
    class       volScalarField;
    location    "14";
    object      p;
}
// * * * * * * * * * * * * * * * * * * * * * * * * * * * * * * * * * * * * * //

dimensions      [0 2 -2 0 0 0 0];

internalField   nonuniform List<scalar> 
50000
(
-3.5622e-14
-7.03659e-14
-8.18193e-14
-8.85626e-14
-9.36874e-14
-9.76297e-14
-1.00852e-13
-1.03703e-13
-1.06217e-13
-1.08522e-13
-1.10694e-13
-1.12757e-13
-1.14713e-13
-1.16717e-13
-1.18664e-13
-1.20449e-13
-1.22156e-13
-1.24082e-13
-1.26069e-13
-1.28082e-13
-1.30114e-13
-1.32139e-13
-1.34222e-13
-1.36137e-13
-1.38016e-13
-1.39945e-13
-1.42039e-13
-1.44123e-13
-1.45925e-13
-1.47931e-13
-1.49954e-13
-1.51937e-13
-1.54017e-13
-1.56116e-13
-1.58201e-13
-1.60426e-13
-1.62435e-13
-1.64385e-13
-1.66366e-13
-1.68307e-13
-1.70428e-13
-1.72453e-13
-1.74646e-13
-1.7685e-13
-1.78946e-13
-1.8123e-13
-1.83316e-13
-1.85221e-13
-1.87401e-13
-1.89681e-13
-1.91719e-13
-1.937e-13
-1.95698e-13
-1.97895e-13
-2.00011e-13
-2.01951e-13
-2.04124e-13
-2.05892e-13
-2.07566e-13
-2.09586e-13
-2.11409e-13
-2.13183e-13
-2.14994e-13
-2.16791e-13
-2.18431e-13
-2.20112e-13
-2.21711e-13
-2.23382e-13
-2.25182e-13
-2.2666e-13
-2.28177e-13
-2.29855e-13
-2.31524e-13
-2.3288e-13
-2.34424e-13
-2.36292e-13
-2.37633e-13
-2.38949e-13
-2.40745e-13
-2.42459e-13
-2.438e-13
-2.4513e-13
-2.46728e-13
-2.48015e-13
-2.49291e-13
-2.50852e-13
-2.52133e-13
-2.53352e-13
-2.54611e-13
-2.55899e-13
-2.57317e-13
-2.58647e-13
-2.59923e-13
-2.61149e-13
-2.62197e-13
-2.63098e-13
-2.64421e-13
-2.65701e-13
-2.6629e-13
-2.67125e-13
-2.6829e-13
-2.69003e-13
-2.69439e-13
-2.69912e-13
-2.7057e-13
-2.71041e-13
-2.71483e-13
-2.72111e-13
-2.72783e-13
-2.73259e-13
-2.73304e-13
-2.73548e-13
-2.74221e-13
-2.74914e-13
-2.75034e-13
-2.74963e-13
-2.75326e-13
-2.75997e-13
-2.76324e-13
-2.76233e-13
-2.76319e-13
-2.76594e-13
-2.76812e-13
-2.76658e-13
-2.7662e-13
-2.7691e-13
-2.76736e-13
-2.76325e-13
-2.7622e-13
-2.76039e-13
-2.75816e-13
-2.75553e-13
-2.75403e-13
-2.74526e-13
-2.74036e-13
-2.74048e-13
-2.73627e-13
-2.73071e-13
-2.72928e-13
-2.72469e-13
-2.71594e-13
-2.71307e-13
-2.71504e-13
-2.71161e-13
-2.70097e-13
-2.69718e-13
-2.69542e-13
-2.68412e-13
-2.67686e-13
-2.67599e-13
-2.66691e-13
-2.66229e-13
-2.65864e-13
-2.64495e-13
-2.63982e-13
-2.63513e-13
-2.62472e-13
-2.6205e-13
-2.61459e-13
-2.60929e-13
-2.59953e-13
-2.5894e-13
-2.58258e-13
-2.57615e-13
-2.5673e-13
-2.55917e-13
-2.55231e-13
-2.54184e-13
-2.54095e-13
-2.53444e-13
-2.52047e-13
-2.5175e-13
-2.51134e-13
-2.49837e-13
-2.49132e-13
-2.48729e-13
-2.48281e-13
-2.47328e-13
-2.4656e-13
-2.46214e-13
-2.45119e-13
-2.44203e-13
-2.43628e-13
-2.42775e-13
-2.42367e-13
-2.41297e-13
-2.40255e-13
-2.39786e-13
-2.39131e-13
-2.38352e-13
-2.37604e-13
-2.37096e-13
-2.36775e-13
-2.36838e-13
-2.362e-13
-2.35403e-13
-2.35004e-13
-2.34043e-13
-2.33011e-13
-2.32744e-13
-2.32611e-13
-2.31909e-13
-2.32145e-13
-2.31707e-13
-2.31171e-13
-2.30537e-13
-2.2928e-13
-2.28974e-13
-2.28957e-13
-2.28412e-13
-2.27938e-13
-2.27292e-13
-2.26521e-13
-2.26443e-13
-2.25502e-13
-2.25084e-13
-2.24651e-13
-2.24261e-13
-2.24144e-13
-2.23588e-13
-2.22689e-13
-2.2196e-13
-2.21711e-13
-2.2108e-13
-2.20843e-13
-2.20289e-13
-2.19851e-13
-2.19465e-13
-2.188e-13
-2.17754e-13
-2.16864e-13
-2.16001e-13
-2.15672e-13
-2.151e-13
-2.14105e-13
-2.1388e-13
-2.13117e-13
-2.12198e-13
-2.11035e-13
-2.10322e-13
-2.09529e-13
-2.08651e-13
-2.08291e-13
-2.0789e-13
-2.06548e-13
-2.05745e-13
-2.05243e-13
-2.03969e-13
-2.03465e-13
-2.02752e-13
-2.02052e-13
-2.01525e-13
-2.01115e-13
-1.99819e-13
-1.98909e-13
-1.98525e-13
-1.97382e-13
-1.96444e-13
-1.96036e-13
-1.94846e-13
-1.94276e-13
-1.93708e-13
-1.92018e-13
-1.91418e-13
-1.90005e-13
-1.89263e-13
-1.89349e-13
-1.87408e-13
-1.86837e-13
-1.86993e-13
-1.84487e-13
-1.83421e-13
-1.83059e-13
-1.81689e-13
-1.81249e-13
-1.79898e-13
-1.79361e-13
-1.79224e-13
-1.78277e-13
-1.76869e-13
-1.75892e-13
-1.75133e-13
-1.74703e-13
-1.74064e-13
-1.7244e-13
-1.72503e-13
-1.71199e-13
-1.69649e-13
-1.69654e-13
-1.68346e-13
-1.66402e-13
-1.66017e-13
-1.6512e-13
-1.63909e-13
-1.64136e-13
-1.62335e-13
-1.60061e-13
-1.59761e-13
-1.5852e-13
-1.57246e-13
-1.57318e-13
-1.55697e-13
-1.54904e-13
-1.55017e-13
-1.52679e-13
-1.51462e-13
-1.51703e-13
-1.50243e-13
-1.49597e-13
-1.50054e-13
-1.48832e-13
-1.47281e-13
-1.47305e-13
-1.46443e-13
-1.45147e-13
-1.44876e-13
-1.43821e-13
-1.43115e-13
-1.42804e-13
-1.42635e-13
-1.41869e-13
-1.40624e-13
-1.39584e-13
-1.39285e-13
-1.39298e-13
-1.3803e-13
-1.37291e-13
-1.37045e-13
-1.37107e-13
-1.3616e-13
-1.34243e-13
-1.34444e-13
-1.34328e-13
-1.33025e-13
-1.33337e-13
-1.3292e-13
-1.31189e-13
-1.31863e-13
-1.30933e-13
-1.29137e-13
-1.29199e-13
-1.28491e-13
-1.27769e-13
-1.27753e-13
-1.27572e-13
-1.26513e-13
-1.25496e-13
-1.24523e-13
-1.24343e-13
-1.24427e-13
-1.23496e-13
-1.2274e-13
-1.22939e-13
-1.22863e-13
-1.21736e-13
-1.20693e-13
-1.19818e-13
-1.1975e-13
-1.19991e-13
-1.19274e-13
-1.19086e-13
-1.17976e-13
-1.18021e-13
-1.18237e-13
-1.165e-13
-1.1625e-13
-1.16069e-13
-1.15553e-13
-1.15311e-13
-1.15879e-13
-1.14878e-13
-1.13578e-13
-1.13481e-13
-1.13483e-13
-1.13667e-13
-1.12928e-13
-1.12729e-13
-1.12029e-13
-1.12454e-13
-1.11653e-13
-1.10362e-13
-1.10053e-13
-1.10259e-13
-1.10033e-13
-1.09486e-13
-1.09888e-13
-1.0858e-13
-1.08819e-13
-1.08563e-13
-1.07456e-13
-1.07169e-13
-1.07309e-13
-1.06669e-13
-1.06216e-13
-1.07338e-13
-1.06844e-13
-1.05355e-13
-1.05008e-13
-1.05293e-13
-1.05626e-13
-1.06323e-13
-1.0661e-13
-1.04681e-13
-1.04559e-13
-1.04989e-13
-1.05932e-13
-1.05392e-13
-1.03409e-13
-1.04381e-13
-1.05398e-13
-1.05114e-13
-1.03086e-13
-1.0364e-13
-1.03662e-13
-1.02862e-13
-1.02696e-13
-1.01889e-13
-1.02499e-13
-1.02996e-13
-1.0226e-13
-1.00589e-13
-1.01107e-13
-1.02499e-13
-1.00976e-13
-1.00489e-13
-1.0107e-13
-1.01169e-13
-1.00952e-13
-1.00919e-13
-1.00168e-13
-1.00497e-13
-1.01938e-13
-1.00525e-13
-9.95201e-14
-1.01005e-13
-1.02528e-13
-1.00914e-13
-1.00752e-13
-1.00643e-13
-1.00269e-13
-1.01681e-13
-1.00234e-13
-1.00353e-13
-1.00852e-13
-1.01692e-13
-1.01426e-13
-1.00813e-13
-1.01338e-13
-1.01084e-13
-1.01816e-13
-1.01254e-13
-1.01318e-13
-1.00812e-13
-1.01367e-13
-1.01012e-13
-1.00619e-13
-1.01316e-13
-1.01321e-13
-1.01079e-13
-9.97119e-14
-1.01499e-13
-1.015e-13
-1.01193e-13
-1.00719e-13
-9.91199e-14
-1.00586e-13
-1.01072e-13
-1.00201e-13
-9.95359e-14
-1.00239e-13
-1.00013e-13
-1.00228e-13
-1.00133e-13
-9.94607e-14
-1.0015e-13
-9.97406e-14
-9.92235e-14
-9.78854e-14
-9.83468e-14
-9.85651e-14
-9.79531e-14
-9.71435e-14
-9.67017e-14
-9.74188e-14
-9.59832e-14
-9.63149e-14
-9.60208e-14
-9.576e-14
-9.62724e-14
-9.44361e-14
-9.37377e-14
-9.45342e-14
-9.42183e-14
-9.21704e-14
-9.14738e-14
-8.97918e-14
-8.79121e-14
-8.4911e-14
-7.8818e-14
-6.90158e-14
-5.77226e-14
-7.32079e-14
-8.23189e-14
-8.87254e-14
-9.37717e-14
-9.76827e-14
-1.00864e-13
-1.037e-13
-1.06216e-13
-1.08526e-13
-1.10729e-13
-1.12793e-13
-1.14708e-13
-1.16707e-13
-1.18682e-13
-1.20465e-13
-1.22157e-13
-1.24081e-13
-1.26068e-13
-1.28058e-13
-1.301e-13
-1.32147e-13
-1.34246e-13
-1.36163e-13
-1.38015e-13
-1.39918e-13
-1.42028e-13
-1.44139e-13
-1.45965e-13
-1.47935e-13
-1.49937e-13
-1.51988e-13
-1.54033e-13
-1.56064e-13
-1.58229e-13
-1.60486e-13
-1.62449e-13
-1.64406e-13
-1.66381e-13
-1.6831e-13
-1.70391e-13
-1.72488e-13
-1.74624e-13
-1.76791e-13
-1.78974e-13
-1.81233e-13
-1.83292e-13
-1.85234e-13
-1.87403e-13
-1.89688e-13
-1.91716e-13
-1.93655e-13
-1.95735e-13
-1.97939e-13
-1.99949e-13
-2.01974e-13
-2.04154e-13
-2.05943e-13
-2.07605e-13
-2.0957e-13
-2.11364e-13
-2.13245e-13
-2.15021e-13
-2.16764e-13
-2.18526e-13
-2.20076e-13
-2.21701e-13
-2.23387e-13
-2.25138e-13
-2.26709e-13
-2.2824e-13
-2.29833e-13
-2.31443e-13
-2.32895e-13
-2.34451e-13
-2.36192e-13
-2.37627e-13
-2.3902e-13
-2.40746e-13
-2.42425e-13
-2.43819e-13
-2.45133e-13
-2.46693e-13
-2.4803e-13
-2.49418e-13
-2.50744e-13
-2.52071e-13
-2.53458e-13
-2.54588e-13
-2.55894e-13
-2.57327e-13
-2.58579e-13
-2.59918e-13
-2.61183e-13
-2.62203e-13
-2.63198e-13
-2.64401e-13
-2.65641e-13
-2.66313e-13
-2.67118e-13
-2.68301e-13
-2.6898e-13
-2.69486e-13
-2.69892e-13
-2.70492e-13
-2.71179e-13
-2.71521e-13
-2.72026e-13
-2.72755e-13
-2.73185e-13
-2.73356e-13
-2.73693e-13
-2.74195e-13
-2.74817e-13
-2.74994e-13
-2.75007e-13
-2.75467e-13
-2.75995e-13
-2.76227e-13
-2.76216e-13
-2.76298e-13
-2.76597e-13
-2.76728e-13
-2.76679e-13
-2.76792e-13
-2.76856e-13
-2.76661e-13
-2.76387e-13
-2.76226e-13
-2.76025e-13
-2.75901e-13
-2.75536e-13
-2.7525e-13
-2.74603e-13
-2.74122e-13
-2.73968e-13
-2.73557e-13
-2.7315e-13
-2.72872e-13
-2.72427e-13
-2.71741e-13
-2.71357e-13
-2.71543e-13
-2.71068e-13
-2.70044e-13
-2.69698e-13
-2.69477e-13
-2.68469e-13
-2.67733e-13
-2.67477e-13
-2.66765e-13
-2.66317e-13
-2.65711e-13
-2.64579e-13
-2.64049e-13
-2.63438e-13
-2.62613e-13
-2.62059e-13
-2.61364e-13
-2.60808e-13
-2.59938e-13
-2.58977e-13
-2.58322e-13
-2.5762e-13
-2.56731e-13
-2.55886e-13
-2.55143e-13
-2.54397e-13
-2.53951e-13
-2.53335e-13
-2.52261e-13
-2.51558e-13
-2.50976e-13
-2.50106e-13
-2.49117e-13
-2.48666e-13
-2.48254e-13
-2.47286e-13
-2.46598e-13
-2.46219e-13
-2.45214e-13
-2.44234e-13
-2.43647e-13
-2.42795e-13
-2.42196e-13
-2.41286e-13
-2.40417e-13
-2.39702e-13
-2.39175e-13
-2.3837e-13
-2.37655e-13
-2.37161e-13
-2.36864e-13
-2.36722e-13
-2.36018e-13
-2.35461e-13
-2.35002e-13
-2.33876e-13
-2.33208e-13
-2.32971e-13
-2.32483e-13
-2.31943e-13
-2.32051e-13
-2.31601e-13
-2.3119e-13
-2.30628e-13
-2.29348e-13
-2.28915e-13
-2.28926e-13
-2.2849e-13
-2.27876e-13
-2.27371e-13
-2.26651e-13
-2.26248e-13
-2.2557e-13
-2.25169e-13
-2.24606e-13
-2.24236e-13
-2.241e-13
-2.23391e-13
-2.22686e-13
-2.22132e-13
-2.21822e-13
-2.21184e-13
-2.20789e-13
-2.20216e-13
-2.1975e-13
-2.19377e-13
-2.18765e-13
-2.17669e-13
-2.17008e-13
-2.16273e-13
-2.15571e-13
-2.15104e-13
-2.1423e-13
-2.13757e-13
-2.13092e-13
-2.12026e-13
-2.11182e-13
-2.10344e-13
-2.09553e-13
-2.08816e-13
-2.08082e-13
-2.07718e-13
-2.06657e-13
-2.05753e-13
-2.05102e-13
-2.04064e-13
-2.0354e-13
-2.02948e-13
-2.02058e-13
-2.01394e-13
-2.00866e-13
-1.99864e-13
-1.98987e-13
-1.98399e-13
-1.97569e-13
-1.9663e-13
-1.95937e-13
-1.94809e-13
-1.94235e-13
-1.93589e-13
-1.92277e-13
-1.9134e-13
-1.9003e-13
-1.89227e-13
-1.8923e-13
-1.87742e-13
-1.86795e-13
-1.8652e-13
-1.84758e-13
-1.83618e-13
-1.82977e-13
-1.8179e-13
-1.80951e-13
-1.80224e-13
-1.79345e-13
-1.7882e-13
-1.78167e-13
-1.77162e-13
-1.76042e-13
-1.75069e-13
-1.74697e-13
-1.74071e-13
-1.72501e-13
-1.72197e-13
-1.71369e-13
-1.69817e-13
-1.69533e-13
-1.68197e-13
-1.66505e-13
-1.66029e-13
-1.65179e-13
-1.64006e-13
-1.63802e-13
-1.62177e-13
-1.60553e-13
-1.59797e-13
-1.58476e-13
-1.5741e-13
-1.56976e-13
-1.55991e-13
-1.54845e-13
-1.54553e-13
-1.52955e-13
-1.51598e-13
-1.51374e-13
-1.50466e-13
-1.49805e-13
-1.49667e-13
-1.48826e-13
-1.47594e-13
-1.47158e-13
-1.4646e-13
-1.4526e-13
-1.44601e-13
-1.43968e-13
-1.43303e-13
-1.42629e-13
-1.42403e-13
-1.41826e-13
-1.40663e-13
-1.39887e-13
-1.39525e-13
-1.38922e-13
-1.38024e-13
-1.37477e-13
-1.37051e-13
-1.36726e-13
-1.36013e-13
-1.34687e-13
-1.34417e-13
-1.34156e-13
-1.33364e-13
-1.33046e-13
-1.3264e-13
-1.31736e-13
-1.31463e-13
-1.30715e-13
-1.29706e-13
-1.29125e-13
-1.2829e-13
-1.28165e-13
-1.27638e-13
-1.2704e-13
-1.26605e-13
-1.25642e-13
-1.24693e-13
-1.24598e-13
-1.24262e-13
-1.23287e-13
-1.23146e-13
-1.22836e-13
-1.22329e-13
-1.21828e-13
-1.20825e-13
-1.20074e-13
-1.19955e-13
-1.19666e-13
-1.19272e-13
-1.19132e-13
-1.18037e-13
-1.1795e-13
-1.17957e-13
-1.16799e-13
-1.16293e-13
-1.16036e-13
-1.15626e-13
-1.15305e-13
-1.15482e-13
-1.14681e-13
-1.1385e-13
-1.13812e-13
-1.13572e-13
-1.13369e-13
-1.12945e-13
-1.12713e-13
-1.12242e-13
-1.12276e-13
-1.11365e-13
-1.10496e-13
-1.10256e-13
-1.10299e-13
-1.09945e-13
-1.09423e-13
-1.09943e-13
-1.08826e-13
-1.08328e-13
-1.08537e-13
-1.07807e-13
-1.07046e-13
-1.07099e-13
-1.06856e-13
-1.06391e-13
-1.07131e-13
-1.06449e-13
-1.05377e-13
-1.05577e-13
-1.05566e-13
-1.05472e-13
-1.06054e-13
-1.0629e-13
-1.05002e-13
-1.04961e-13
-1.04807e-13
-1.054e-13
-1.05556e-13
-1.03877e-13
-1.04092e-13
-1.0517e-13
-1.05194e-13
-1.03374e-13
-1.03635e-13
-1.03507e-13
-1.02821e-13
-1.02553e-13
-1.02063e-13
-1.02698e-13
-1.02645e-13
-1.02119e-13
-1.01076e-13
-1.01254e-13
-1.01892e-13
-1.01247e-13
-1.00786e-13
-1.00779e-13
-1.01146e-13
-1.00867e-13
-1.00786e-13
-1.00335e-13
-1.006e-13
-1.01521e-13
-1.00825e-13
-9.983e-14
-1.00644e-13
-1.02193e-13
-1.0117e-13
-1.00804e-13
-1.0072e-13
-1.00525e-13
-1.01115e-13
-1.00454e-13
-1.00396e-13
-1.00991e-13
-1.01561e-13
-1.01258e-13
-1.01083e-13
-1.01293e-13
-1.01259e-13
-1.01629e-13
-1.0112e-13
-1.01056e-13
-1.01256e-13
-1.0127e-13
-1.00856e-13
-1.00885e-13
-1.01167e-13
-1.01138e-13
-1.01125e-13
-1.00117e-13
-1.01106e-13
-1.01749e-13
-1.00985e-13
-1.00293e-13
-9.99055e-14
-1.00673e-13
-1.00406e-13
-1.00157e-13
-1.00173e-13
-1.0002e-13
-9.99817e-14
-1.00242e-13
-1.00161e-13
-9.97409e-14
-9.98445e-14
-9.96329e-14
-9.88942e-14
-9.82136e-14
-9.87187e-14
-9.82233e-14
-9.75694e-14
-9.75136e-14
-9.70224e-14
-9.68641e-14
-9.62004e-14
-9.63535e-14
-9.60483e-14
-9.60081e-14
-9.56454e-14
-9.44151e-14
-9.44303e-14
-9.45901e-14
-9.36072e-14
-9.24103e-14
-9.15487e-14
-8.98349e-14
-8.80058e-14
-8.48322e-14
-7.96416e-14
-7.19424e-14
-6.81009e-14
-7.62534e-14
-8.3388e-14
-8.92072e-14
-9.40218e-14
-9.78193e-14
-1.00927e-13
-1.0373e-13
-1.06272e-13
-1.08567e-13
-1.10751e-13
-1.12858e-13
-1.14774e-13
-1.16703e-13
-1.18707e-13
-1.20523e-13
-1.22112e-13
-1.24057e-13
-1.26083e-13
-1.28048e-13
-1.30113e-13
-1.32157e-13
-1.3424e-13
-1.3621e-13
-1.38029e-13
-1.39871e-13
-1.42052e-13
-1.44168e-13
-1.45991e-13
-1.47969e-13
-1.49928e-13
-1.51998e-13
-1.54011e-13
-1.5605e-13
-1.58261e-13
-1.60527e-13
-1.62506e-13
-1.64451e-13
-1.66392e-13
-1.68268e-13
-1.70365e-13
-1.72514e-13
-1.7466e-13
-1.76737e-13
-1.78958e-13
-1.81235e-13
-1.83289e-13
-1.85266e-13
-1.87378e-13
-1.89643e-13
-1.91728e-13
-1.93679e-13
-1.95778e-13
-1.97931e-13
-1.99927e-13
-2.02028e-13
-2.04175e-13
-2.06028e-13
-2.07654e-13
-2.09534e-13
-2.11365e-13
-2.13332e-13
-2.15086e-13
-2.16745e-13
-2.18552e-13
-2.2005e-13
-2.21717e-13
-2.23391e-13
-2.25121e-13
-2.26764e-13
-2.28275e-13
-2.298e-13
-2.31418e-13
-2.3289e-13
-2.34476e-13
-2.36149e-13
-2.37641e-13
-2.39031e-13
-2.40703e-13
-2.4245e-13
-2.4383e-13
-2.45117e-13
-2.46676e-13
-2.48029e-13
-2.49485e-13
-2.50719e-13
-2.52113e-13
-2.53443e-13
-2.54559e-13
-2.55945e-13
-2.57358e-13
-2.585e-13
-2.59886e-13
-2.61188e-13
-2.62236e-13
-2.633e-13
-2.6439e-13
-2.65578e-13
-2.66325e-13
-2.67181e-13
-2.68299e-13
-2.69014e-13
-2.69524e-13
-2.69871e-13
-2.70505e-13
-2.7126e-13
-2.71508e-13
-2.71975e-13
-2.7272e-13
-2.73135e-13
-2.73367e-13
-2.73795e-13
-2.74222e-13
-2.74651e-13
-2.74958e-13
-2.75176e-13
-2.75525e-13
-2.75909e-13
-2.76189e-13
-2.76234e-13
-2.76321e-13
-2.76584e-13
-2.76639e-13
-2.76685e-13
-2.76884e-13
-2.76841e-13
-2.7674e-13
-2.7643e-13
-2.76147e-13
-2.76068e-13
-2.75902e-13
-2.75557e-13
-2.75233e-13
-2.74641e-13
-2.74183e-13
-2.73897e-13
-2.73526e-13
-2.73227e-13
-2.72866e-13
-2.72355e-13
-2.71838e-13
-2.71401e-13
-2.71561e-13
-2.7099e-13
-2.70011e-13
-2.69737e-13
-2.6941e-13
-2.68443e-13
-2.6782e-13
-2.67423e-13
-2.66821e-13
-2.66353e-13
-2.65618e-13
-2.6462e-13
-2.64067e-13
-2.63427e-13
-2.6267e-13
-2.62016e-13
-2.61329e-13
-2.60789e-13
-2.59951e-13
-2.59023e-13
-2.58272e-13
-2.57612e-13
-2.56737e-13
-2.55853e-13
-2.55098e-13
-2.54448e-13
-2.53931e-13
-2.53252e-13
-2.52262e-13
-2.51554e-13
-2.50916e-13
-2.50133e-13
-2.49155e-13
-2.48683e-13
-2.48142e-13
-2.47258e-13
-2.46673e-13
-2.462e-13
-2.45283e-13
-2.44245e-13
-2.43733e-13
-2.42888e-13
-2.41974e-13
-2.41228e-13
-2.40558e-13
-2.39625e-13
-2.39223e-13
-2.38439e-13
-2.3768e-13
-2.37247e-13
-2.36842e-13
-2.36549e-13
-2.35997e-13
-2.35426e-13
-2.34924e-13
-2.33976e-13
-2.33375e-13
-2.33023e-13
-2.32427e-13
-2.31953e-13
-2.31902e-13
-2.31572e-13
-2.31244e-13
-2.30557e-13
-2.29426e-13
-2.28988e-13
-2.28916e-13
-2.28509e-13
-2.27877e-13
-2.27301e-13
-2.26752e-13
-2.2624e-13
-2.25541e-13
-2.25241e-13
-2.24677e-13
-2.24188e-13
-2.23956e-13
-2.23263e-13
-2.22796e-13
-2.22268e-13
-2.2181e-13
-2.21284e-13
-2.20791e-13
-2.20126e-13
-2.1977e-13
-2.19191e-13
-2.18656e-13
-2.17798e-13
-2.17139e-13
-2.16382e-13
-2.15627e-13
-2.14999e-13
-2.14272e-13
-2.1375e-13
-2.1305e-13
-2.11989e-13
-2.11238e-13
-2.10248e-13
-2.09684e-13
-2.08942e-13
-2.07945e-13
-2.07585e-13
-2.06587e-13
-2.05892e-13
-2.04994e-13
-2.03952e-13
-2.03638e-13
-2.03065e-13
-2.02063e-13
-2.01347e-13
-2.00658e-13
-1.99937e-13
-1.99231e-13
-1.98178e-13
-1.97568e-13
-1.96838e-13
-1.95887e-13
-1.94765e-13
-1.94198e-13
-1.93524e-13
-1.92381e-13
-1.91355e-13
-1.90183e-13
-1.89213e-13
-1.89063e-13
-1.88025e-13
-1.86785e-13
-1.86119e-13
-1.8488e-13
-1.83754e-13
-1.83096e-13
-1.81733e-13
-1.8067e-13
-1.80562e-13
-1.79371e-13
-1.78345e-13
-1.78079e-13
-1.77343e-13
-1.76204e-13
-1.75166e-13
-1.74734e-13
-1.73967e-13
-1.7254e-13
-1.72058e-13
-1.71391e-13
-1.69925e-13
-1.69484e-13
-1.68213e-13
-1.66501e-13
-1.65968e-13
-1.65365e-13
-1.63999e-13
-1.63469e-13
-1.6217e-13
-1.60813e-13
-1.59865e-13
-1.58554e-13
-1.57364e-13
-1.56788e-13
-1.56241e-13
-1.54765e-13
-1.54118e-13
-1.53101e-13
-1.51653e-13
-1.51313e-13
-1.50679e-13
-1.49786e-13
-1.49424e-13
-1.48952e-13
-1.47814e-13
-1.46918e-13
-1.46444e-13
-1.45408e-13
-1.44557e-13
-1.4388e-13
-1.43405e-13
-1.42628e-13
-1.42219e-13
-1.41748e-13
-1.40709e-13
-1.40148e-13
-1.39562e-13
-1.38797e-13
-1.37881e-13
-1.37529e-13
-1.37168e-13
-1.36482e-13
-1.35933e-13
-1.34882e-13
-1.34454e-13
-1.34118e-13
-1.33468e-13
-1.32878e-13
-1.32689e-13
-1.31928e-13
-1.31126e-13
-1.30674e-13
-1.29899e-13
-1.29175e-13
-1.28339e-13
-1.28193e-13
-1.27646e-13
-1.26931e-13
-1.26364e-13
-1.25734e-13
-1.2496e-13
-1.246e-13
-1.24228e-13
-1.2334e-13
-1.23136e-13
-1.22843e-13
-1.22151e-13
-1.21657e-13
-1.20992e-13
-1.20347e-13
-1.20104e-13
-1.19342e-13
-1.1918e-13
-1.19278e-13
-1.18114e-13
-1.17817e-13
-1.17749e-13
-1.16951e-13
-1.16418e-13
-1.16134e-13
-1.15575e-13
-1.15269e-13
-1.15147e-13
-1.14555e-13
-1.14114e-13
-1.13989e-13
-1.13586e-13
-1.1337e-13
-1.12933e-13
-1.12615e-13
-1.12498e-13
-1.12025e-13
-1.11137e-13
-1.1067e-13
-1.10428e-13
-1.10149e-13
-1.09889e-13
-1.09516e-13
-1.0983e-13
-1.0899e-13
-1.08212e-13
-1.08399e-13
-1.07951e-13
-1.07124e-13
-1.06862e-13
-1.06854e-13
-1.06692e-13
-1.06815e-13
-1.06277e-13
-1.05556e-13
-1.05734e-13
-1.05773e-13
-1.05562e-13
-1.05727e-13
-1.05928e-13
-1.05372e-13
-1.05257e-13
-1.04877e-13
-1.05087e-13
-1.05297e-13
-1.04301e-13
-1.0424e-13
-1.04778e-13
-1.05166e-13
-1.03765e-13
-1.03429e-13
-1.03361e-13
-1.02895e-13
-1.02474e-13
-1.02237e-13
-1.02791e-13
-1.02307e-13
-1.02024e-13
-1.01454e-13
-1.0134e-13
-1.01563e-13
-1.01305e-13
-1.00767e-13
-1.00754e-13
-1.01334e-13
-1.00677e-13
-1.00655e-13
-1.00605e-13
-1.00514e-13
-1.01192e-13
-1.00974e-13
-1.00174e-13
-1.00557e-13
-1.01773e-13
-1.01211e-13
-1.00823e-13
-1.00943e-13
-1.0071e-13
-1.00643e-13
-1.00634e-13
-1.00589e-13
-1.01012e-13
-1.01413e-13
-1.01066e-13
-1.01217e-13
-1.01405e-13
-1.01512e-13
-1.01275e-13
-1.01003e-13
-1.01223e-13
-1.0145e-13
-1.01186e-13
-1.00779e-13
-1.00821e-13
-1.01048e-13
-1.01217e-13
-1.00983e-13
-1.00521e-13
-1.01079e-13
-1.01658e-13
-1.00704e-13
-1.00148e-13
-1.00458e-13
-1.00717e-13
-1.00201e-13
-9.99987e-14
-1.00328e-13
-1.00083e-13
-1.00129e-13
-1.00075e-13
-1.00073e-13
-9.99961e-14
-9.97665e-14
-9.96109e-14
-9.87504e-14
-9.84143e-14
-9.88533e-14
-9.80151e-14
-9.7157e-14
-9.77587e-14
-9.74516e-14
-9.64968e-14
-9.61975e-14
-9.64808e-14
-9.61855e-14
-9.59754e-14
-9.52711e-14
-9.44737e-14
-9.4826e-14
-9.47733e-14
-9.34794e-14
-9.23827e-14
-9.15596e-14
-9.02268e-14
-8.80888e-14
-8.50509e-14
-8.10014e-14
-7.51965e-14
-7.40572e-14
-7.91253e-14
-8.47754e-14
-8.98479e-14
-9.43816e-14
-9.80823e-14
-1.0113e-13
-1.03836e-13
-1.06328e-13
-1.08674e-13
-1.10787e-13
-1.12869e-13
-1.14881e-13
-1.1676e-13
-1.18739e-13
-1.2058e-13
-1.22143e-13
-1.24012e-13
-1.26057e-13
-1.28086e-13
-1.30112e-13
-1.32136e-13
-1.3427e-13
-1.36269e-13
-1.38036e-13
-1.39889e-13
-1.42094e-13
-1.44178e-13
-1.46e-13
-1.48042e-13
-1.49921e-13
-1.51978e-13
-1.54021e-13
-1.56125e-13
-1.58282e-13
-1.60534e-13
-1.6255e-13
-1.64488e-13
-1.66404e-13
-1.68259e-13
-1.70327e-13
-1.72497e-13
-1.74666e-13
-1.76751e-13
-1.78937e-13
-1.81212e-13
-1.83243e-13
-1.85364e-13
-1.87388e-13
-1.8955e-13
-1.91704e-13
-1.93743e-13
-1.95819e-13
-1.97967e-13
-1.9999e-13
-2.02055e-13
-2.04191e-13
-2.06039e-13
-2.07723e-13
-2.09542e-13
-2.11455e-13
-2.13324e-13
-2.15141e-13
-2.1681e-13
-2.18522e-13
-2.2009e-13
-2.21747e-13
-2.23399e-13
-2.25116e-13
-2.26704e-13
-2.28303e-13
-2.29799e-13
-2.31367e-13
-2.32917e-13
-2.34483e-13
-2.36086e-13
-2.37619e-13
-2.39087e-13
-2.40778e-13
-2.42429e-13
-2.43801e-13
-2.45163e-13
-2.46672e-13
-2.48062e-13
-2.49472e-13
-2.50732e-13
-2.52226e-13
-2.5335e-13
-2.54546e-13
-2.56003e-13
-2.5736e-13
-2.58448e-13
-2.59816e-13
-2.61191e-13
-2.6232e-13
-2.63391e-13
-2.64364e-13
-2.65469e-13
-2.66381e-13
-2.67352e-13
-2.68243e-13
-2.68984e-13
-2.69564e-13
-2.69888e-13
-2.70568e-13
-2.71289e-13
-2.71525e-13
-2.7202e-13
-2.72665e-13
-2.73033e-13
-2.73355e-13
-2.73777e-13
-2.74282e-13
-2.74547e-13
-2.74908e-13
-2.75353e-13
-2.75579e-13
-2.75821e-13
-2.76182e-13
-2.76279e-13
-2.7641e-13
-2.76521e-13
-2.7652e-13
-2.76673e-13
-2.76889e-13
-2.76898e-13
-2.76816e-13
-2.76455e-13
-2.76096e-13
-2.7613e-13
-2.75862e-13
-2.75575e-13
-2.75224e-13
-2.74707e-13
-2.74186e-13
-2.73879e-13
-2.73555e-13
-2.73228e-13
-2.72885e-13
-2.72306e-13
-2.71833e-13
-2.71491e-13
-2.71557e-13
-2.70878e-13
-2.70101e-13
-2.69769e-13
-2.69345e-13
-2.68439e-13
-2.67902e-13
-2.6736e-13
-2.66816e-13
-2.66309e-13
-2.65541e-13
-2.64619e-13
-2.64091e-13
-2.6343e-13
-2.62635e-13
-2.6207e-13
-2.61336e-13
-2.60693e-13
-2.59982e-13
-2.59039e-13
-2.58247e-13
-2.57603e-13
-2.56703e-13
-2.5583e-13
-2.55189e-13
-2.54437e-13
-2.53865e-13
-2.53185e-13
-2.5222e-13
-2.51616e-13
-2.50881e-13
-2.49995e-13
-2.49275e-13
-2.48775e-13
-2.48032e-13
-2.47326e-13
-2.46706e-13
-2.46103e-13
-2.45329e-13
-2.44297e-13
-2.43828e-13
-2.42954e-13
-2.41846e-13
-2.41107e-13
-2.40578e-13
-2.39609e-13
-2.39179e-13
-2.38565e-13
-2.37739e-13
-2.37322e-13
-2.36802e-13
-2.36431e-13
-2.36043e-13
-2.35371e-13
-2.34795e-13
-2.34224e-13
-2.33436e-13
-2.3288e-13
-2.32416e-13
-2.32048e-13
-2.31739e-13
-2.31579e-13
-2.31184e-13
-2.30449e-13
-2.2969e-13
-2.2917e-13
-2.28871e-13
-2.28506e-13
-2.27922e-13
-2.27208e-13
-2.267e-13
-2.26217e-13
-2.25603e-13
-2.25308e-13
-2.24737e-13
-2.24101e-13
-2.23777e-13
-2.23233e-13
-2.22907e-13
-2.22352e-13
-2.21774e-13
-2.21306e-13
-2.20732e-13
-2.20188e-13
-2.19753e-13
-2.19042e-13
-2.18509e-13
-2.1805e-13
-2.1722e-13
-2.16319e-13
-2.15761e-13
-2.14966e-13
-2.14355e-13
-2.13691e-13
-2.12947e-13
-2.12081e-13
-2.11297e-13
-2.10138e-13
-2.09744e-13
-2.08946e-13
-2.07982e-13
-2.07462e-13
-2.06486e-13
-2.0595e-13
-2.04925e-13
-2.03892e-13
-2.03613e-13
-2.02995e-13
-2.02074e-13
-2.01474e-13
-2.00593e-13
-1.99925e-13
-1.99392e-13
-1.98145e-13
-1.9738e-13
-1.96955e-13
-1.95951e-13
-1.94813e-13
-1.94167e-13
-1.93447e-13
-1.92397e-13
-1.91347e-13
-1.90336e-13
-1.89343e-13
-1.88833e-13
-1.88065e-13
-1.86864e-13
-1.85983e-13
-1.84944e-13
-1.83898e-13
-1.83061e-13
-1.81693e-13
-1.80678e-13
-1.80467e-13
-1.79371e-13
-1.7826e-13
-1.78038e-13
-1.77273e-13
-1.7634e-13
-1.7542e-13
-1.74686e-13
-1.7387e-13
-1.72697e-13
-1.71951e-13
-1.71206e-13
-1.70073e-13
-1.6931e-13
-1.68266e-13
-1.66725e-13
-1.65982e-13
-1.65416e-13
-1.63922e-13
-1.63149e-13
-1.62372e-13
-1.60971e-13
-1.59755e-13
-1.58688e-13
-1.57393e-13
-1.56674e-13
-1.56211e-13
-1.54755e-13
-1.53788e-13
-1.53202e-13
-1.51757e-13
-1.51251e-13
-1.50819e-13
-1.49712e-13
-1.49377e-13
-1.49027e-13
-1.47871e-13
-1.46833e-13
-1.46515e-13
-1.45434e-13
-1.44561e-13
-1.4396e-13
-1.43361e-13
-1.42651e-13
-1.42051e-13
-1.41666e-13
-1.4084e-13
-1.40241e-13
-1.394e-13
-1.38811e-13
-1.3796e-13
-1.37548e-13
-1.37157e-13
-1.36305e-13
-1.35872e-13
-1.34986e-13
-1.34484e-13
-1.34053e-13
-1.33535e-13
-1.32975e-13
-1.3276e-13
-1.31734e-13
-1.31075e-13
-1.30741e-13
-1.29686e-13
-1.29271e-13
-1.28657e-13
-1.28004e-13
-1.27719e-13
-1.27044e-13
-1.26126e-13
-1.25813e-13
-1.25061e-13
-1.24428e-13
-1.24278e-13
-1.23638e-13
-1.22844e-13
-1.22715e-13
-1.22252e-13
-1.21598e-13
-1.21172e-13
-1.20508e-13
-1.20031e-13
-1.19308e-13
-1.1917e-13
-1.19171e-13
-1.1818e-13
-1.17787e-13
-1.17559e-13
-1.16962e-13
-1.16598e-13
-1.16267e-13
-1.15434e-13
-1.15241e-13
-1.15058e-13
-1.14555e-13
-1.14294e-13
-1.13849e-13
-1.13495e-13
-1.13607e-13
-1.13019e-13
-1.1248e-13
-1.12447e-13
-1.11874e-13
-1.11115e-13
-1.10866e-13
-1.10388e-13
-1.09891e-13
-1.09908e-13
-1.09726e-13
-1.09612e-13
-1.08981e-13
-1.08425e-13
-1.08285e-13
-1.07758e-13
-1.07387e-13
-1.0692e-13
-1.06564e-13
-1.06778e-13
-1.06588e-13
-1.06359e-13
-1.06029e-13
-1.05612e-13
-1.05587e-13
-1.05634e-13
-1.0563e-13
-1.05739e-13
-1.05654e-13
-1.05332e-13
-1.05146e-13
-1.05007e-13
-1.04971e-13
-1.04599e-13
-1.0448e-13
-1.04475e-13
-1.04888e-13
-1.0414e-13
-1.03337e-13
-1.03282e-13
-1.03032e-13
-1.02497e-13
-1.02347e-13
-1.02565e-13
-1.02137e-13
-1.01886e-13
-1.01787e-13
-1.01443e-13
-1.0133e-13
-1.01159e-13
-1.0079e-13
-1.00837e-13
-1.01365e-13
-1.00626e-13
-1.00597e-13
-1.0083e-13
-1.00533e-13
-1.00878e-13
-1.01037e-13
-1.00609e-13
-1.00621e-13
-1.01129e-13
-1.01087e-13
-1.00933e-13
-1.01157e-13
-1.0072e-13
-1.00464e-13
-1.00896e-13
-1.00922e-13
-1.00985e-13
-1.01018e-13
-1.01085e-13
-1.0149e-13
-1.01363e-13
-1.01356e-13
-1.01201e-13
-1.01295e-13
-1.01511e-13
-1.01291e-13
-1.0094e-13
-1.0087e-13
-1.00838e-13
-1.00773e-13
-1.01226e-13
-1.01006e-13
-1.00998e-13
-1.01076e-13
-1.01143e-13
-1.00562e-13
-1.00465e-13
-1.0068e-13
-1.00456e-13
-1.0036e-13
-1.0016e-13
-1.00204e-13
-1.00137e-13
-1.00229e-13
-9.99383e-14
-9.99367e-14
-1.00024e-13
-9.97621e-14
-9.97466e-14
-9.9087e-14
-9.84936e-14
-9.84126e-14
-9.79848e-14
-9.72223e-14
-9.76496e-14
-9.757e-14
-9.63953e-14
-9.63867e-14
-9.66832e-14
-9.61481e-14
-9.56443e-14
-9.53196e-14
-9.4781e-14
-9.49339e-14
-9.47044e-14
-9.37509e-14
-9.2467e-14
-9.16971e-14
-9.06179e-14
-8.8218e-14
-8.56507e-14
-8.24394e-14
-7.81634e-14
-7.83299e-14
-8.17537e-14
-8.61888e-14
-9.06184e-14
-9.48796e-14
-9.84261e-14
-1.01314e-13
-1.04003e-13
-1.06523e-13
-1.08783e-13
-1.10791e-13
-1.12875e-13
-1.14978e-13
-1.16859e-13
-1.18823e-13
-1.20704e-13
-1.22152e-13
-1.23932e-13
-1.26028e-13
-1.28092e-13
-1.30105e-13
-1.32129e-13
-1.34317e-13
-1.36309e-13
-1.38027e-13
-1.40011e-13
-1.42127e-13
-1.4421e-13
-1.4606e-13
-1.48147e-13
-1.49938e-13
-1.51974e-13
-1.54009e-13
-1.56169e-13
-1.5834e-13
-1.60615e-13
-1.62617e-13
-1.64402e-13
-1.66407e-13
-1.68297e-13
-1.70295e-13
-1.72494e-13
-1.74586e-13
-1.76765e-13
-1.79036e-13
-1.81123e-13
-1.83205e-13
-1.85423e-13
-1.87409e-13
-1.8956e-13
-1.91663e-13
-1.93741e-13
-1.95788e-13
-1.9804e-13
-2.00115e-13
-2.0215e-13
-2.04247e-13
-2.06021e-13
-2.07716e-13
-2.096e-13
-2.11554e-13
-2.13291e-13
-2.15238e-13
-2.16905e-13
-2.18488e-13
-2.20152e-13
-2.21812e-13
-2.23385e-13
-2.25068e-13
-2.26615e-13
-2.28381e-13
-2.29789e-13
-2.31249e-13
-2.33003e-13
-2.34549e-13
-2.36025e-13
-2.37605e-13
-2.39145e-13
-2.40815e-13
-2.42388e-13
-2.43846e-13
-2.45219e-13
-2.46671e-13
-2.48071e-13
-2.49413e-13
-2.50733e-13
-2.52337e-13
-2.53342e-13
-2.54525e-13
-2.56032e-13
-2.57303e-13
-2.58623e-13
-2.59699e-13
-2.61181e-13
-2.6249e-13
-2.63431e-13
-2.64362e-13
-2.65448e-13
-2.66541e-13
-2.67447e-13
-2.6822e-13
-2.68951e-13
-2.69539e-13
-2.69911e-13
-2.70604e-13
-2.71384e-13
-2.71646e-13
-2.72066e-13
-2.72511e-13
-2.72975e-13
-2.73364e-13
-2.73717e-13
-2.74273e-13
-2.74482e-13
-2.74978e-13
-2.75402e-13
-2.75648e-13
-2.75737e-13
-2.76119e-13
-2.7635e-13
-2.76457e-13
-2.76533e-13
-2.76476e-13
-2.76582e-13
-2.76832e-13
-2.77049e-13
-2.76882e-13
-2.7646e-13
-2.76112e-13
-2.7618e-13
-2.75846e-13
-2.75582e-13
-2.75167e-13
-2.74777e-13
-2.74259e-13
-2.73778e-13
-2.73617e-13
-2.73197e-13
-2.72851e-13
-2.72444e-13
-2.71719e-13
-2.71537e-13
-2.71502e-13
-2.70764e-13
-2.70286e-13
-2.69764e-13
-2.69162e-13
-2.68592e-13
-2.6801e-13
-2.67276e-13
-2.66769e-13
-2.662e-13
-2.65425e-13
-2.64665e-13
-2.64023e-13
-2.63437e-13
-2.62611e-13
-2.62078e-13
-2.61449e-13
-2.60518e-13
-2.5992e-13
-2.59101e-13
-2.58303e-13
-2.57565e-13
-2.56639e-13
-2.55846e-13
-2.55268e-13
-2.54485e-13
-2.5365e-13
-2.53035e-13
-2.52282e-13
-2.51567e-13
-2.50887e-13
-2.49971e-13
-2.49292e-13
-2.48898e-13
-2.4803e-13
-2.47433e-13
-2.46739e-13
-2.46007e-13
-2.453e-13
-2.44296e-13
-2.43824e-13
-2.4294e-13
-2.41839e-13
-2.4102e-13
-2.4037e-13
-2.39632e-13
-2.39189e-13
-2.38637e-13
-2.37916e-13
-2.37451e-13
-2.36739e-13
-2.36351e-13
-2.35999e-13
-2.35323e-13
-2.34748e-13
-2.34378e-13
-2.33524e-13
-2.32701e-13
-2.32443e-13
-2.32097e-13
-2.31755e-13
-2.31548e-13
-2.31094e-13
-2.3034e-13
-2.29793e-13
-2.29325e-13
-2.28708e-13
-2.28598e-13
-2.28024e-13
-2.27259e-13
-2.26577e-13
-2.26076e-13
-2.25693e-13
-2.25371e-13
-2.24803e-13
-2.24018e-13
-2.23615e-13
-2.23201e-13
-2.22939e-13
-2.22415e-13
-2.21756e-13
-2.21267e-13
-2.20797e-13
-2.20253e-13
-2.19689e-13
-2.19056e-13
-2.18451e-13
-2.18153e-13
-2.17249e-13
-2.16236e-13
-2.15736e-13
-2.15154e-13
-2.14504e-13
-2.13559e-13
-2.12887e-13
-2.12119e-13
-2.11283e-13
-2.10096e-13
-2.09696e-13
-2.08929e-13
-2.08051e-13
-2.07256e-13
-2.06599e-13
-2.05859e-13
-2.04917e-13
-2.04004e-13
-2.03466e-13
-2.02872e-13
-2.02114e-13
-2.01553e-13
-2.00651e-13
-1.99925e-13
-1.99413e-13
-1.98229e-13
-1.972e-13
-1.96902e-13