/*--------------------------------*- C++ -*----------------------------------*\
| =========                 |                                                 |
| \\      /  F ield         | OpenFOAM: The Open Source CFD Toolbox           |
|  \\    /   O peration     | Version:  2112                                  |
|   \\  /    A nd           | Website:  www.openfoam.com                      |
|    \\/     M anipulation  |                                                 |
\*---------------------------------------------------------------------------*/
FoamFile
{
    version     2.0;
    format      ascii;
    arch        "LSB;label=32;scalar=64";
    class       surfaceScalarField;
    location    "14";
    object      phi;
}
// * * * * * * * * * * * * * * * * * * * * * * * * * * * * * * * * * * * * * //

dimensions      [0 3 -1 0 0 0 0];

oriented        oriented;

internalField   nonuniform List<scalar> 
99400
(
2.99957e-05
1.06387e-17
2.99957e-05
1.96825e-18
2.99957e-05
5.6371e-19
2.99957e-05
2.69121e-19
2.99957e-05
1.82044e-19
2.99957e-05
1.16309e-19
2.99957e-05
8.11704e-20
2.99957e-05
5.76997e-20
2.99957e-05
3.59534e-20
2.99957e-05
2.56473e-20
2.99957e-05
6.62614e-21
2.99957e-05
-1.07127e-20
2.99957e-05
-7.72731e-21
2.99957e-05
1.79514e-21
2.99957e-05
2.49097e-20
2.99957e-05
-6.45436e-21
2.99957e-05
-3.35147e-20
2.99957e-05
-1.56685e-20
2.99957e-05
-5.7553e-21
2.99957e-05
5.07539e-21
2.99957e-05
3.97053e-21
2.99957e-05
8.34044e-21
2.99957e-05
4.56813e-20
2.99957e-05
3.36873e-21
2.99957e-05
-2.4976e-20
2.99957e-05
-2.17085e-20
2.99957e-05
4.32585e-21
2.99957e-05
4.2545e-20
2.99957e-05
-3.21055e-20
2.99957e-05
-1.84937e-20
2.99957e-05
-3.13713e-21
2.99957e-05
-1.56603e-20
2.99957e-05
-8.44214e-21
2.99957e-05
-1.56211e-20
2.99957e-05
-3.6522e-20
2.99957e-05
1.63026e-20
2.99957e-05
-2.51432e-20
2.99957e-05
-2.99489e-20
2.99957e-05
3.22271e-22
2.99957e-05
-3.6749e-20
2.99957e-05
1.88924e-20
2.99957e-05
-1.86985e-20
2.99957e-05
2.43334e-21
2.99957e-05
2.34029e-20
2.99957e-05
-6.97415e-21
2.99957e-05
3.83913e-20
2.99957e-05
3.66896e-20
2.99957e-05
-4.52767e-20
2.99957e-05
-2.26799e-20
2.99957e-05
4.57159e-20
2.99957e-05
2.21519e-20
2.99957e-05
5.26584e-21
2.99957e-05
-3.8468e-20
2.99957e-05
-9.58041e-21
2.99957e-05
3.63766e-20
2.99957e-05
-2.45691e-20
2.99957e-05
5.02631e-20
2.99957e-05
-1.50394e-20
2.99957e-05
-6.54658e-20
2.99957e-05
4.45404e-21
2.99957e-05
4.43016e-21
2.99957e-05
-3.36064e-21
2.99957e-05
-2.13354e-21
2.99957e-05
1.76759e-20
2.99957e-05
-1.04605e-20
2.99957e-05
1.75441e-20
2.99957e-05
-4.04235e-20
2.99957e-05
-1.50433e-20
2.99957e-05
5.97019e-20
2.99957e-05
-1.02873e-20
2.99957e-05
-1.81186e-20
2.99957e-05
1.10846e-20
2.99957e-05
5.89252e-20
2.99957e-05
-2.72832e-20
2.99957e-05
-4.97307e-20
2.99957e-05
1.12248e-19
2.99957e-05
3.95269e-20
2.99957e-05
-5.71151e-20
2.99957e-05
-9.51913e-21
2.99957e-05
4.4051e-20
2.99957e-05
7.76728e-21
2.99957e-05
-4.47265e-20
2.99957e-05
1.81591e-20
2.99957e-05
1.01389e-21
2.99957e-05
-4.62614e-20
2.99957e-05
4.24292e-20
2.99957e-05
1.23578e-20
2.99957e-05
-1.04029e-20
2.99957e-05
7.59251e-21
2.99957e-05
-8.54179e-21
2.99957e-05
3.51699e-20
2.99957e-05
2.86275e-20
2.99957e-05
2.48992e-20
2.99957e-05
1.61885e-20
2.99957e-05
1.33287e-20
2.99957e-05
-8.92168e-20
2.99957e-05
3.95742e-21
2.99957e-05
1.13619e-19
2.99957e-05
-4.6123e-20
2.99957e-05
-5.36143e-20
2.99957e-05
8.50608e-20
2.99957e-05
7.60139e-20
2.99957e-05
-6.73018e-21
2.99957e-05
-3.37504e-20
2.99957e-05
3.05277e-20
2.99957e-05
-7.99072e-22
2.99957e-05
-2.35586e-20
2.99957e-05
-7.3673e-22
2.99957e-05
4.15808e-20
2.99957e-05
7.30528e-20
2.99957e-05
-4.51137e-20
2.99957e-05
-8.98958e-20
2.99957e-05
-1.1986e-20
2.99957e-05
1.09681e-19
2.99957e-05
4.45121e-20
2.99957e-05
-1.03835e-19
2.99957e-05
-6.52858e-20
2.99957e-05
6.85264e-20
2.99957e-05
8.20788e-20
2.99957e-05
-2.61945e-21
2.99957e-05
-3.40198e-20
2.99957e-05
1.53035e-20
2.99957e-05
5.07034e-20
2.99957e-05
-1.72103e-20
2.99957e-05
-5.69854e-20
2.99957e-05
7.94322e-20
2.99957e-05
3.85095e-20
2.99957e-05
-4.4727e-20
2.99957e-05
3.39888e-20
2.99957e-05
2.07017e-20
2.99957e-05
2.0664e-20
2.99957e-05
-6.94235e-21
2.99957e-05
1.03393e-19
2.99957e-05
-5.55036e-20
2.99957e-05
-8.62513e-20
2.99957e-05
4.60149e-20
2.99957e-05
-4.56845e-21
2.99957e-05
-5.79152e-20
2.99957e-05
8.29218e-20
2.99957e-05
5.81573e-20
2.99957e-05
-1.34718e-19
2.99957e-05
-9.82304e-20
2.99957e-05
1.13469e-19
2.99957e-05
1.36639e-19
2.99957e-05
-9.95261e-20
2.99957e-05
-2.85257e-20
2.99957e-05
1.84864e-19
2.99957e-05
-4.00721e-20
2.99957e-05
-1.29267e-19
2.99957e-05
1.08629e-19
2.99957e-05
-6.43974e-20
2.99957e-05
-1.96549e-21
2.99957e-05
1.35277e-19
2.99957e-05
-1.65918e-19
2.99957e-05
-3.1041e-20
2.99957e-05
8.2453e-20
2.99957e-05
-1.07073e-19
2.99957e-05
-1.61513e-21
2.99957e-05
1.13867e-20
2.99957e-05
1.11748e-19
2.99957e-05
3.38259e-20
2.99957e-05
-4.02576e-20
2.99957e-05
-1.70377e-20
2.99957e-05
8.36476e-21
2.99957e-05
-3.01753e-20
2.99957e-05
-1.50153e-20
2.99957e-05
5.99439e-20
2.99957e-05
-1.37867e-19
2.99957e-05
1.18808e-19
2.99957e-05
1.3895e-19
2.99957e-05
-1.54238e-19
2.99957e-05
5.61869e-20
2.99957e-05
1.12751e-19
2.99957e-05
-1.11457e-19
2.99957e-05
-8.51291e-20
2.99957e-05
2.4529e-20
2.99957e-05
1.00097e-19
2.99957e-05
-2.70435e-20
2.99957e-05
-7.2168e-20
2.99957e-05
1.32413e-19
2.99957e-05
-1.624e-20
2.99957e-05
-8.18255e-20
2.99957e-05
1.84711e-20
2.99957e-05
-6.41939e-20
2.99957e-05
8.73714e-20
2.99957e-05
-2.9699e-20
2.99957e-05
-1.19864e-19
2.99957e-05
-3.41387e-21
2.99957e-05
1.1076e-21
2.99957e-05
-1.96943e-20
2.99957e-05
-7.60952e-20
2.99957e-05
-4.7531e-20
2.99957e-05
-2.80725e-20
2.99957e-05
1.51801e-19
2.99957e-05
6.1895e-20
2.99957e-05
-3.95801e-20
2.99957e-05
8.83531e-20
2.99957e-05
-1.71871e-20
2.99957e-05
-1.84802e-19
2.99957e-05
-5.28121e-20
2.99957e-05
5.84751e-20
2.99957e-05
-1.49716e-19
2.99957e-05
1.35927e-19
2.99957e-05
3.93211e-20
2.99957e-05
4.9639e-20
2.99957e-05
9.72225e-20
2.99957e-05
-1.77901e-19
2.99957e-05
-1.07536e-19
2.99957e-05
4.79236e-20
2.99957e-05
7.15407e-21
2.99957e-05
4.2665e-20
2.99957e-05
1.48312e-20
2.99957e-05
-1.13811e-19
2.99957e-05
1.05507e-19
2.99957e-05
-9.15647e-20
2.99957e-05
1.35312e-21
2.99957e-05
-4.46441e-20
2.99957e-05
-4.8458e-20
2.99957e-05
1.24666e-19
2.99957e-05
9.5449e-20
2.99957e-05
-4.2494e-20
2.99957e-05
-8.43193e-20
2.99957e-05
5.17326e-20
2.99957e-05
-5.2825e-20
2.99957e-05
4.57186e-20
2.99957e-05
-1.38171e-20
2.99957e-05
-4.78723e-21
2.99957e-05
8.63245e-20
2.99957e-05
1.02395e-19
2.99957e-05
-1.75265e-20
2.99957e-05
-2.27775e-20
2.99957e-05
-1.23175e-19
2.99957e-05
-8.287e-21
2.99957e-05
4.52027e-20
2.99957e-05
-1.10704e-19
2.99957e-05
8.95438e-20
2.99957e-05
4.13888e-20
2.99957e-05
3.23003e-20
2.99957e-05
-6.12264e-20
2.99957e-05
4.18121e-22
2.99957e-05
-9.1788e-21
2.99957e-05
-1.04617e-19
2.99957e-05
2.39694e-20
2.99957e-05
1.90607e-19
2.99957e-05
-5.23045e-20
2.99957e-05
-4.43897e-20
2.99957e-05
1.07469e-19
2.99957e-05
-1.10711e-19
2.99957e-05
1.22609e-20
2.99957e-05
-1.12838e-20
2.99957e-05
-4.97047e-20
2.99957e-05
-1.05882e-20
2.99957e-05
1.65228e-19
2.99957e-05
-4.18317e-20
2.99957e-05
-8.50564e-20
2.99957e-05
1.09575e-19
2.99957e-05
-3.21877e-20
2.99957e-05
-1.02311e-19
2.99957e-05
6.08412e-20
2.99957e-05
-1.10541e-19
2.99957e-05
4.05439e-20
2.99957e-05
2.30615e-19
2.99957e-05
-1.63396e-19
2.99957e-05
7.053e-20
2.99957e-05
-1.69411e-19
2.99957e-05
-1.56619e-19
2.99957e-05
3.19805e-19
2.99957e-05
-1.88881e-19
2.99957e-05
-9.6629e-20
2.99957e-05
4.48635e-19
2.99957e-05
-2.01932e-19
2.99957e-05
-1.48813e-19
2.99957e-05
1.22172e-19
2.99957e-05
-1.59093e-19
2.99957e-05
1.20084e-19
2.99957e-05
-1.18019e-19
2.99957e-05
-6.00981e-20
2.99957e-05
1.41322e-19
2.99957e-05
9.96359e-20
2.99957e-05
-6.97896e-20
2.99957e-05
-8.06753e-20
2.99957e-05
-1.07897e-19
2.99957e-05
5.9612e-20
2.99957e-05
1.77648e-19
2.99957e-05
-2.38023e-19
2.99957e-05
2.3272e-19
2.99957e-05
4.26432e-20
2.99957e-05
-2.46454e-19
2.99957e-05
2.14327e-19
2.99957e-05
8.82475e-20
2.99957e-05
-2.80636e-19
2.99957e-05
6.35212e-20
2.99957e-05
5.90688e-20
2.99957e-05
-1.81602e-19
2.99957e-05
3.43591e-19
2.99957e-05
7.69202e-20
2.99957e-05
-3.42047e-19
2.99957e-05
9.56733e-20
2.99957e-05
-2.75625e-20
2.99957e-05
-2.23944e-19
2.99957e-05
2.72509e-19
2.99957e-05
-1.22719e-19
2.99957e-05
-1.06071e-19
2.99957e-05
4.15879e-19
2.99957e-05
-1.62807e-19
2.99957e-05
-2.78316e-19
2.99957e-05
2.22445e-19
2.99957e-05
-1.452e-19
2.99957e-05
-1.6459e-19
2.99957e-05
2.9492e-19
2.99957e-05
9.76457e-20
2.99957e-05
-2.37952e-19
2.99957e-05
1.17667e-19
2.99957e-05
7.00417e-20
2.99957e-05
-1.60978e-19
2.99957e-05
7.1369e-20
2.99957e-05
-8.94161e-20
2.99957e-05
-7.65769e-20
2.99957e-05
-6.08001e-21
2.99957e-05
1.59226e-19
2.99957e-05
1.35094e-19
2.99957e-05
-4.23503e-20
2.99957e-05
-1.45358e-19
2.99957e-05
-4.86559e-20
2.99957e-05
2.11359e-19
2.99957e-05
-8.87578e-20
2.99957e-05
-1.02492e-19
2.99957e-05
-4.8301e-20
2.99957e-05
1.96837e-19
2.99957e-05
1.79587e-19
2.99957e-05
-3.38179e-19
2.99957e-05
8.44923e-21
2.99957e-05
1.72246e-19
2.99957e-05
-2.51786e-19
2.99957e-05
1.37412e-19
2.99957e-05
2.48171e-19
2.99957e-05
-3.20179e-19
2.99957e-05
2.67699e-19
2.99957e-05
1.36341e-19
2.99957e-05
-3.11271e-19
2.99957e-05
5.31955e-20
2.99957e-05
-4.96382e-20
2.99957e-05
-1.18408e-19
2.99957e-05
5.90886e-20
2.99957e-05
1.71307e-19
2.99957e-05
2.32408e-20
2.99957e-05
-2.42815e-20
2.99957e-05
-1.70423e-19
2.99957e-05
-5.77742e-20
2.99957e-05
1.53181e-19
2.99957e-05
-8.03201e-20
2.99957e-05
-1.71386e-19
2.99957e-05
6.88915e-20
2.99957e-05
2.14217e-19
2.99957e-05
2.28694e-20
2.99957e-05
-5.93484e-20
2.99957e-05
-1.9193e-19
2.99957e-05
-9.24396e-20
2.99957e-05
1.44669e-19
2.99957e-05
-4.13979e-20
2.99957e-05
1.85586e-19
2.99957e-05
-1.79582e-19
2.99957e-05
-1.22391e-20
2.99957e-05
3.47053e-19
2.99957e-05
-2.3682e-19
2.99957e-05
-6.05327e-20
2.99957e-05
3.04047e-20
2.99957e-05
-4.5186e-20
2.99957e-05
-8.03823e-20
2.99957e-05
3.01857e-19
2.99957e-05
6.44865e-20
2.99957e-05
-2.07647e-19
2.99957e-05
-4.62754e-20
2.99957e-05
-3.68988e-20
2.99957e-05
1.41572e-19
2.99957e-05
-1.10151e-19
2.99957e-05
7.272e-20
2.99957e-05
-1.19331e-19
2.99957e-05
2.16643e-19
2.99957e-05
4.78485e-20
2.99957e-05
-1.7734e-19
2.99957e-05
-7.05666e-20
2.99957e-05
7.65521e-20
2.99957e-05
4.94884e-20
2.99957e-05
-1.0658e-19
2.99957e-05
3.11376e-19
2.99957e-05
-2.25406e-19
2.99957e-05
5.51424e-20
2.99957e-05
1.41789e-19
2.99957e-05
-1.11824e-19
2.99957e-05
-1.10055e-19
2.99957e-05
7.78292e-20
2.99957e-05
-4.76074e-20
2.99957e-05
-2.27827e-19
2.99957e-05
3.43448e-19
2.99957e-05
1.85226e-19
2.99957e-05
-2.32463e-19
2.99957e-05
-1.48995e-19
2.99957e-05
-6.5321e-20
2.99957e-05
-5.68242e-20
2.99957e-05
1.21971e-19
2.99957e-05
3.70874e-19
2.99957e-05
-2.82911e-19
2.99957e-05
-1.48426e-19
2.99957e-05
-9.40451e-20
2.99957e-05
2.8055e-19
2.99957e-05
2.7683e-19
2.99957e-05
-5.1256e-19
2.99957e-05
-8.20171e-20
2.99957e-05
2.74074e-19
2.99957e-05
3.48372e-19
2.99957e-05
-3.87296e-19
2.99957e-05
4.16148e-20
2.99957e-05
1.32412e-19
2.99957e-05
-9.16014e-20
2.99957e-05
4.13042e-20
2.99957e-05
-2.71063e-19
2.99957e-05
4.41699e-20
2.99957e-05
2.67927e-19
2.99957e-05
1.42606e-19
2.99957e-05
-3.75238e-19
2.99957e-05
-1.37027e-19
2.99957e-05
4.85241e-19
2.99957e-05
-1.1445e-19
2.99957e-05
-1.95446e-19
2.99957e-05
3.70887e-20
2.99957e-05
9.6482e-20
2.99957e-05
2.73263e-20
2.99957e-05
8.89737e-20
2.99957e-05
-2.03219e-19
2.99957e-05
-1.65416e-19
2.99957e-05
4.96606e-19
2.99957e-05
-3.03793e-20
2.99957e-05
-4.70268e-19
2.99957e-05
-3.05582e-20
2.99957e-05
6.03672e-19
2.99957e-05
-1.21839e-19
2.99957e-05
-4.88289e-20
2.99957e-05
-1.9977e-20
2.99957e-05
-2.70779e-19
2.99957e-05
4.32674e-19
2.99957e-05
-2.40666e-19
2.99957e-05
-8.86319e-20
2.99957e-05
-4.80133e-20
2.99957e-05
1.9876e-19
2.99957e-05
7.90579e-20
2.99957e-05
-1.71247e-19
2.99957e-05
8.77246e-20
2.99957e-05
-1.57293e-19
2.99957e-05
2.25993e-19
2.99957e-05
-8.40533e-20
2.99957e-05
7.21398e-20
2.99957e-05
-1.23458e-19
2.99957e-05
1.53825e-19
2.99957e-05
-2.71253e-20
2.99957e-05
-1.63351e-19
2.99957e-05
1.40804e-19
2.99957e-05
7.32355e-20
2.99957e-05
1.66728e-19
2.99957e-05
-5.40873e-19
2.99957e-05
2.74185e-19
2.99957e-05
1.80455e-19
2.99957e-05
6.5988e-20
2.99957e-05
8.53054e-20
2.99957e-05
-4.81925e-19
2.99957e-05
1.60283e-19
2.99957e-05
1.94514e-19
2.99957e-05
-3.22696e-20
2.99957e-05
-2.02353e-19
2.99957e-05
1.18459e-19
2.99957e-05
-9.10366e-20
2.99957e-05
5.19197e-20
2.99957e-05
9.99618e-20
2.99957e-05
-1.78046e-19
2.99957e-05
2.15137e-19
2.99957e-05
7.07544e-20
2.99957e-05
1.15288e-19
2.99957e-05
-2.88945e-19
2.99957e-05
5.93591e-20
2.99957e-05
1.36483e-19
2.99957e-05
3.15025e-20
2.99957e-05
-3.68178e-20
2.99957e-05
-1.56179e-19
2.99957e-05
2.80406e-19
2.99957e-05
-3.09745e-19
2.99957e-05
9.07788e-20
2.99957e-05
3.76316e-20
2.99957e-05
-7.02989e-20
2.99957e-05
3.25335e-19
2.99957e-05
-2.11872e-19
2.99957e-05
-2.13825e-19
2.99957e-05
2.19718e-19
2.99957e-05
2.52317e-19
2.99957e-05
-2.31255e-19
2.99957e-05
1.20073e-19
2.99957e-05
4.1693e-20
2.99957e-05
1.62926e-19
2.99957e-05
4.47121e-19
2.99957e-05
4.01576e-19
2.04334e-18
8.87873e-05
6.50233e-18
8.87873e-05
2.4122e-18
8.87873e-05
9.76732e-19
8.87873e-05
5.9639e-19
8.87873e-05
4.1772e-19
8.87873e-05
2.65155e-19
8.87873e-05
1.92479e-19
8.87873e-05
1.56647e-19
8.87873e-05
1.03857e-19
8.87873e-05
4.02719e-20
8.87873e-05
-2.48997e-20
8.87873e-05
-3.63618e-20
8.87873e-05
-2.4966e-20
8.87873e-05
-1.48703e-20
8.87873e-05
2.87209e-20
8.87873e-05
2.8607e-21
8.87873e-05
-9.31399e-20
8.87873e-05
-7.49318e-20
8.87873e-05
-1.41586e-20
8.87873e-05
2.51003e-20
8.87873e-05
2.13141e-20
8.87873e-05
3.7848e-20
8.87873e-05
7.08759e-20
8.87873e-05
4.03031e-21
8.87873e-05
-3.28469e-20
8.87873e-05
-6.11689e-20
8.87873e-05
8.73704e-21
8.87873e-05
7.91132e-20
8.87873e-05
-8.10984e-20
8.87873e-05
-6.94907e-20
8.87873e-05
-2.57475e-20
8.87873e-05
-3.30427e-20
8.87873e-05
-4.62531e-20
8.87873e-05
-7.69296e-20
8.87873e-05
-8.00427e-20
8.87873e-05
-1.10051e-20
8.87873e-05
-1.02029e-19
8.87873e-05
-8.87131e-20
8.87873e-05
-2.96763e-20
8.87873e-05
-1.10729e-19
8.87873e-05
1.02384e-20
8.87873e-05
-1.70204e-20
8.87873e-05
1.47589e-20
8.87873e-05
5.55116e-20
8.87873e-05
4.33684e-20
8.87873e-05
7.76932e-20
8.87873e-05
8.47337e-20
8.87873e-05
-7.4089e-20
8.87873e-05
-5.27531e-20
8.87873e-05
7.18714e-20
8.87873e-05
6.26113e-20
8.87873e-05
6.72786e-21
8.87873e-05
-6.63787e-20
8.87873e-05
-1.50167e-20
8.87873e-05
6.77832e-20
8.87873e-05
-2.15693e-20
8.87873e-05
6.95841e-20
8.87873e-05
-6.04749e-20
8.87873e-05
-1.52975e-19
8.87873e-05
-4.21368e-20
8.87873e-05
-7.64222e-22
8.87873e-05
3.65786e-20
8.87873e-05
-1.25813e-20
8.87873e-05
1.42409e-20
8.87873e-05
7.51858e-21
8.87873e-05
1.77881e-20
8.87873e-05
-1.05886e-19
8.87873e-05
-5.94368e-20
8.87873e-05
1.10657e-19
8.87873e-05
3.78557e-20
8.87873e-05
-8.35712e-21
8.87873e-05
1.61786e-20
8.87873e-05
1.47309e-19
8.87873e-05
-3.2737e-20
8.87873e-05
-1.04432e-19
8.87873e-05
2.64403e-19
8.87873e-05
1.78222e-19
8.87873e-05
-7.6066e-20
8.87873e-05
-8.94295e-20
8.87873e-05
5.87475e-20
8.87873e-05
2.99811e-20
8.87873e-05
-9.36308e-20
8.87873e-05
-3.00732e-21
8.87873e-05
-1.34734e-20
8.87873e-05
-4.98758e-20
8.87873e-05
7.78742e-20
8.87873e-05
2.23645e-20
8.87873e-05
3.30472e-21
8.87873e-05
2.5465e-20
8.87873e-05
2.43121e-20
8.87873e-05
1.19202e-19
8.87873e-05
5.72584e-20
8.87873e-05
7.38152e-20
8.87873e-05
4.07105e-20
8.87873e-05
5.22742e-21
8.87873e-05
-1.85844e-19
8.87873e-05
-2.59604e-20
8.87873e-05
2.55684e-19
8.87873e-05
-8.67029e-20
8.87873e-05
-1.12624e-19
8.87873e-05
2.22939e-19
8.87873e-05
1.86016e-19
8.87873e-05
3.11586e-21
8.87873e-05
-9.73137e-20
8.87873e-05
5.39675e-20
8.87873e-05
6.69986e-20
8.87873e-05
-4.35084e-20
8.87873e-05
-5.94494e-20
8.87873e-05
1.30531e-19
8.87873e-05
1.61321e-19
8.87873e-05
-1.19835e-19
8.87873e-05
-1.76602e-19
8.87873e-05
-5.08462e-20
8.87873e-05
2.26925e-19
8.87873e-05
1.24224e-19
8.87873e-05
-2.35139e-19
8.87873e-05
-1.40431e-19
8.87873e-05
1.68115e-19
8.87873e-05
2.04672e-19
8.87873e-05
2.38291e-20
8.87873e-05
-5.96065e-20
8.87873e-05
6.09033e-20
8.87873e-05
9.43008e-20
8.87873e-05
-7.72298e-20
8.87873e-05
-8.76228e-20
8.87873e-05
1.42312e-19
8.87873e-05
7.34495e-20
8.87873e-05
-2.84224e-20
8.87873e-05
8.82317e-20
8.87873e-05
8.05281e-20
8.87873e-05
8.78737e-20
8.87873e-05
-1.96002e-21
8.87873e-05
1.94927e-19
8.87873e-05
-1.09337e-19
8.87873e-05
-1.64246e-19
8.87873e-05
6.42514e-20
8.87873e-05
-8.30878e-20
8.87873e-05
-1.04281e-19
8.87873e-05
2.1258e-19
8.87873e-05
1.31832e-19
8.87873e-05
-3.12928e-19
8.87873e-05
-2.60255e-19
8.87873e-05
2.79064e-19
8.87873e-05
3.62198e-19
8.87873e-05
-2.18555e-19
8.87873e-05
-4.9478e-20
8.87873e-05
4.40797e-19
8.87873e-05
-6.11835e-20
8.87873e-05
-2.64912e-19
8.87873e-05
1.50437e-19
8.87873e-05
-1.07891e-19
8.87873e-05
3.92549e-20
8.87873e-05
2.13317e-19
8.87873e-05
-3.58108e-19
8.87873e-05
-9.95414e-20
8.87873e-05
1.28759e-19
8.87873e-05
-1.76595e-19
8.87873e-05
-4.82466e-20
8.87873e-05
1.4061e-20
8.87873e-05
3.38119e-19
8.87873e-05
1.39376e-19
8.87873e-05
-8.7069e-20
8.87873e-05
-5.02812e-20
8.87873e-05
-4.46328e-20
8.87873e-05
-7.2406e-20
8.87873e-05
3.15637e-21
8.87873e-05
1.14002e-19
8.87873e-05
-2.31622e-19
8.87873e-05
2.45612e-19
8.87873e-05
2.7796e-19
8.87873e-05
-2.25453e-19
8.87873e-05
5.74699e-20
8.87873e-05
2.25911e-19
8.87873e-05
-1.4893e-19
8.87873e-05
-2.82459e-19
8.87873e-05
7.85597e-20
8.87873e-05
2.94849e-19
8.87873e-05
-1.02271e-19
8.87873e-05
-1.40852e-19
8.87873e-05
3.02325e-19
8.87873e-05
-3.23183e-20
8.87873e-05
-2.07312e-19
8.87873e-05
-4.38236e-20
8.87873e-05
-1.01486e-19
8.87873e-05
1.27795e-19
8.87873e-05
-7.64848e-20
8.87873e-05
-2.90448e-19
8.87873e-05
-1.22528e-19
8.87873e-05
4.89213e-20
8.87873e-05
-8.43209e-20
8.87873e-05
-2.07054e-19
8.87873e-05
-1.17603e-19
8.87873e-05
5.36749e-21
8.87873e-05
3.81324e-19
8.87873e-05
1.13235e-19
8.87873e-05
-4.14222e-20
8.87873e-05
2.49406e-19
8.87873e-05
-1.18738e-19
8.87873e-05
-4.55982e-19
8.87873e-05
-1.24187e-19
8.87873e-05
2.22869e-20
8.87873e-05
-3.1585e-19
8.87873e-05
3.21852e-19
8.87873e-05
8.86762e-20
8.87873e-05
1.59907e-19
8.87873e-05
2.79261e-19
8.87873e-05
-4.59531e-19
8.87873e-05
-3.57866e-19
8.87873e-05
2.35298e-20
8.87873e-05
6.45142e-20
8.87873e-05
7.12291e-20
8.87873e-05
6.89491e-20
8.87873e-05
-1.59161e-19
8.87873e-05
1.28412e-19
8.87873e-05
-2.47482e-19
8.87873e-05
3.92361e-20
8.87873e-05
-1.7493e-19
8.87873e-05
-1.17776e-19
8.87873e-05
3.84565e-19
8.87873e-05
2.04771e-19
8.87873e-05
-8.60791e-20
8.87873e-05
-1.33765e-19
8.87873e-05
1.35202e-19
8.87873e-05
-1.20164e-19
8.87873e-05
9.27355e-20
8.87873e-05
1.26822e-20
8.87873e-05
2.9682e-21
8.87873e-05
1.80973e-19
8.87873e-05
2.97095e-19
8.87873e-05
-6.88993e-20
8.87873e-05
-6.92618e-20
8.87873e-05
-2.45884e-19
8.87873e-05
-1.89165e-19
8.87873e-05
1.01033e-19
8.87873e-05
-1.56432e-19
8.87873e-05
1.47945e-19
8.87873e-05
1.42975e-19
8.87873e-05
-1.30692e-20
8.87873e-05
-7.6875e-20
8.87873e-05
-5.04904e-20
8.87873e-05
-3.72648e-20
8.87873e-05
-1.91498e-19
8.87873e-05
2.37419e-20
8.87873e-05
4.41529e-19
8.87873e-05
-4.11547e-20
8.87873e-05
-9.2352e-20
8.87873e-05
1.75552e-19
8.87873e-05
-1.94514e-19
8.87873e-05
-2.99574e-20
8.87873e-05
3.10064e-20
8.87873e-05
-1.31138e-19
8.87873e-05
-2.74907e-20
8.87873e-05
3.17698e-19
8.87873e-05
4.04954e-21
8.87873e-05
-1.49795e-19
8.87873e-05
1.24995e-19
8.87873e-05
-4.75352e-20
8.87873e-05
-1.82787e-19
8.87873e-05
-4.85606e-21
8.87873e-05
-2.66577e-19
8.87873e-05
1.67243e-19
8.87873e-05
5.14284e-19
8.87873e-05
-2.08171e-19
8.87873e-05
2.33854e-20
8.87873e-05
-4.79771e-19
8.87873e-05
-4.02039e-19
8.87873e-05
7.27622e-19
8.87873e-05
-3.04749e-19
8.87873e-05
-2.13576e-19
8.87873e-05
8.95896e-19
8.87873e-05
-3.39426e-19
8.87873e-05
-3.55299e-19
8.87873e-05
1.90186e-19
8.87873e-05
-3.23372e-19
8.87873e-05
8.43113e-20
8.87873e-05
-6.82989e-20
8.87873e-05
-1.27286e-19
8.87873e-05
2.03702e-19
8.87873e-05
2.51708e-19
8.87873e-05
-8.55582e-20
8.87873e-05
-2.13373e-19
8.87873e-05
-3.63348e-19
8.87873e-05
1.75319e-19
8.87873e-05
4.59737e-19
8.87873e-05
-4.68131e-19
8.87873e-05
4.76474e-19
8.87873e-05
1.90173e-19
8.87873e-05
-6.0115e-19
8.87873e-05
5.01369e-19
8.87873e-05
1.42043e-19
8.87873e-05
-6.6264e-19
8.87873e-05
1.54443e-19
8.87873e-05
1.54589e-19
8.87873e-05
-3.39735e-19
8.87873e-05
7.41293e-19
8.87873e-05
9.85314e-20
8.87873e-05
-6.84002e-19
8.87873e-05
1.18394e-19
8.87873e-05
-1.54565e-19
8.87873e-05
-4.24301e-19
8.87873e-05
4.38188e-19
8.87873e-05
-9.35768e-20
8.87873e-05
-2.27058e-19
8.87873e-05
7.98321e-19
8.87873e-05
-2.54321e-19
8.87873e-05
-6.67251e-19
8.87873e-05
3.22792e-19
8.87873e-05
-2.21941e-19
8.87873e-05
-2.85669e-19
8.87873e-05
5.31813e-19
8.87873e-05
2.98379e-19
8.87873e-05
-4.22721e-19
8.87873e-05
1.59602e-19
8.87873e-05
1.57233e-19
8.87873e-05
-2.72122e-19
8.87873e-05
-1.90967e-20
8.87873e-05
-2.08104e-19
8.87873e-05
-1.12767e-19
8.87873e-05
-5.27123e-20
8.87873e-05
3.92779e-19
8.87873e-05
4.002e-19
8.87873e-05
-1.76049e-19
8.87873e-05
-3.1673e-19
8.87873e-05
2.02804e-21
8.87873e-05
3.41773e-19
8.87873e-05
-1.7715e-19
8.87873e-05
-2.09079e-19
8.87873e-05
-6.32053e-20
8.87873e-05
3.90186e-19
8.87873e-05
3.88306e-19
8.87873e-05
-6.29224e-19
8.87873e-05
-6.58269e-20
8.87873e-05
2.87471e-19
8.87873e-05
-4.17073e-19
8.87873e-05
2.71724e-19
8.87873e-05
5.11145e-19
8.87873e-05
-3.91038e-19
8.87873e-05
4.46863e-19
8.87873e-05
2.12136e-19
8.87873e-05
-5.49571e-19
8.87873e-05
-2.9114e-20
8.87873e-05
-2.95485e-19
8.87873e-05
-1.06647e-19
8.87873e-05
1.6468e-19
8.87873e-05
2.81817e-19
8.87873e-05
1.63871e-19
8.87873e-05
-1.18439e-19
8.87873e-05
-4.86784e-19
8.87873e-05
-3.2783e-20
8.87873e-05
3.29554e-19
8.87873e-05
-3.8002e-19
8.87873e-05
-2.64426e-19
8.87873e-05
1.97182e-19
8.87873e-05
3.79625e-19
8.87873e-05
1.60562e-19
8.87873e-05
-1.77963e-19
8.87873e-05
-5.0869e-19
8.87873e-05
-1.56163e-19
8.87873e-05
1.65054e-19
8.87873e-05
-2.86941e-20
8.87873e-05
5.17873e-19
8.87873e-05
-4.12788e-19
8.87873e-05
1.67252e-21
8.87873e-05
7.21171e-19
8.87873e-05
-4.39303e-19
8.87873e-05
-2.13333e-19
8.87873e-05
3.74044e-21
8.87873e-05
-4.86157e-20
8.87873e-05
-8.47722e-20
8.87873e-05
6.79733e-19
8.87873e-05
1.26712e-19
8.87873e-05
-4.39061e-19
8.87873e-05
-6.04596e-20
8.87873e-05
-7.62732e-20
8.87873e-05
1.88636e-19
8.87873e-05
-2.03933e-19
8.87873e-05
8.80085e-20
8.87873e-05
-1.18695e-19
8.87873e-05
4.93476e-19
8.87873e-05
-1.24762e-20
8.87873e-05
-3.81601e-19
8.87873e-05
-1.11881e-19
8.87873e-05
1.41527e-19
8.87873e-05
9.1406e-20
8.87873e-05
-1.95763e-19
8.87873e-05
8.00333e-19
8.87873e-05
-3.48592e-19
8.87873e-05
-1.00849e-19
8.87873e-05
3.92184e-19
8.87873e-05
-1.39058e-19
8.87873e-05
-4.24791e-19
8.87873e-05
1.10429e-19
8.87873e-05
-3.5017e-20
8.87873e-05
-4.70017e-19
8.87873e-05
8.60712e-19
8.87873e-05
3.71557e-19
8.87873e-05
-6.74914e-19
8.87873e-05
-2.61197e-19
8.87873e-05
-1.78869e-19
8.87873e-05
-2.04823e-19
8.87873e-05
3.22622e-19
8.87873e-05
7.85685e-19
8.87873e-05
-5.64114e-19
8.87873e-05
-2.72185e-19
8.87873e-05
-2.92515e-19
8.87873e-05
5.3839e-19
8.87873e-05
7.71599e-19
8.87873e-05
-1.07868e-18
8.87873e-05
-3.75331e-19
8.87873e-05
6.88967e-19
8.87873e-05
9.01067e-19
8.87873e-05
-8.32847e-19
8.87873e-05
5.43474e-20
8.87873e-05
2.70487e-19
8.87873e-05
-1.84918e-19
8.87873e-05
-4.67146e-20
8.87873e-05
-6.50971e-19
8.87873e-05
2.38339e-19
8.87873e-05
5.33884e-19
8.87873e-05
2.8488e-19
8.87873e-05
-7.24693e-19
8.87873e-05
-2.8964e-19
8.87873e-05
9.13333e-19
8.87873e-05
-7.3599e-20
8.87873e-05
-3.77597e-19
8.87873e-05
-9.13167e-20
8.87873e-05
3.47113e-19
8.87873e-05
1.33333e-19
8.87873e-05
1.23082e-19
8.87873e-05
-4.59462e-19
8.87873e-05
-3.43192e-19
8.87873e-05
1.02786e-18
8.87873e-05
1.27325e-19
8.87873e-05
-1.07863e-18
8.87873e-05
-2.14191e-19
8.87873e-05
1.4787e-18
8.87873e-05
-9.15319e-20
8.87873e-05
-2.00442e-19
8.87873e-05
-1.18972e-19
8.87873e-05
-4.71725e-19
8.87873e-05
7.1e-19
8.87873e-05
-3.84713e-19
8.87873e-05
-2.4484e-19
8.87873e-05
-4.92172e-20
8.87873e-05
4.37174e-19
8.87873e-05
1.21092e-19
8.87873e-05
-2.86285e-19
8.87873e-05
9.04719e-20
8.87873e-05
-2.72336e-19
8.87873e-05
5.09837e-19
8.87873e-05
-1.30469e-19
8.87873e-05
6.47169e-22
8.87873e-05
-1.71668e-20
8.87873e-05
2.92949e-19
8.87873e-05
-1.79961e-19
8.87873e-05
-2.86846e-19
8.87873e-05
3.26506e-19
8.87873e-05
1.95217e-19
8.87873e-05
3.32121e-19
8.87873e-05
-1.10165e-18
8.87873e-05
4.76194e-19
8.87873e-05
7.31478e-19
8.87873e-05
9.80051e-20
8.87873e-05
-1.38293e-19
8.87873e-05
-8.13781e-19
8.87873e-05
3.93993e-19
8.87873e-05
1.89363e-19
8.87873e-05
-8.81913e-20
8.87873e-05
-1.84275e-19
8.87873e-05
8.85306e-20
8.87873e-05
-1.94709e-19
8.87873e-05
8.40669e-20
8.87873e-05
2.38874e-19
8.87873e-05
-2.02493e-19
8.87873e-05
4.39979e-19
8.87873e-05
2.99625e-19
8.87873e-05
7.73327e-20
8.87873e-05
-6.09011e-19
8.87873e-05
3.56311e-19
8.87873e-05
2.04751e-19
8.87873e-05
-1.13044e-19
8.87873e-05
6.23793e-20
8.87873e-05
-1.92028e-19
8.87873e-05
2.65683e-19
8.87873e-05
-6.12843e-19
8.87873e-05
2.15593e-19
8.87873e-05
1.03664e-19
8.87873e-05
6.8307e-20
8.87873e-05
4.80041e-19
8.87873e-05
-5.80572e-19
8.87873e-05
-2.3767e-19
8.87873e-05
5.96783e-19
8.87873e-05
2.91888e-19
8.87873e-05
-4.41792e-19
8.87873e-05
2.46936e-19
8.87873e-05
1.52201e-19
8.87873e-05
3.63474e-19
8.87873e-05
7.88569e-19
8.87873e-05
7.47064e-19
2.56724e-18
0.000146379
4.26197e-18
0.000146379
2.2798e-18
0.000146379
1.21762e-18
0.000146379
8.13672e-19
0.000146379
6.03676e-19
0.000146379
4.08417e-19
0.000146379
3.32667e-19
0.000146379
2.85926e-19
0.000146379
1.33906e-19
0.000146379
3.03991e-20
0.000146379
-6.28597e-20
0.000146379
-1.12886e-19
0.000146379
-8.03651e-20
0.000146379
-3.74324e-20
0.000146379
4.99142e-21
0.000146379
-3.01811e-20
0.000146379
-5.92855e-20
0.000146379
-1.28628e-19
0.000146379
-4.08467e-20
0.000146379
6.55304e-20
0.000146379
7.81101e-21
0.000146379
5.42882e-20
0.000146379
1.45025e-19
0.000146379
-1.60926e-20
0.000146379
-5.09296e-20
0.000146379
-5.82305e-20
0.000146379
-9.17844e-21
0.000146379
9.93432e-20
0.000146379
-1.13703e-19
0.000146379
-1.45461e-19
0.000146379
-9.726e-20
0.000146379
-7.06175e-20
0.000146379
-6.68717e-20
0.000146379
-1.33837e-19
0.000146379
-1.54612e-19
0.000146379
-8.51958e-20
0.000146379
-2.41972e-19
0.000146379
-1.68927e-19
0.000146379
-9.65474e-20
0.000146379
-1.51123e-19
0.000146379
-1.71717e-20
0.000146379
-4.25133e-20
0.000146379
-3.83662e-21
0.000146379
9.54418e-20
0.000146379
1.49276e-19
0.000146379
1.33892e-19
0.000146379
6.12673e-20
0.000146379
-5.52323e-20
0.000146379
-2.8257e-20
0.000146379
8.13503e-20
0.000146379
1.01568e-19
0.000146379
2.10138e-20
0.000146379
-1.22217e-19
0.000146379
1.36537e-20
0.000146379
1.14339e-19
0.000146379
-3.55232e-20
0.000146379
4.18435e-20
0.000146379
-2.07927e-19
0.000146379
-1.96614e-19
0.000146379
-6.43964e-20
0.000146379
-1.45151e-20
0.000146379
7.82988e-21
0.000146379
-4.149e-20
0.000146379
2.91018e-20
0.000146379
1.8655e-20
0.000146379
5.13301e-20
0.000146379
-1.55907e-19
0.000146379
-1.13205e-19
0.000146379
1.65059e-19
0.000146379
9.3107e-20
0.000146379
4.09154e-20
0.000146379
2.3333e-21
0.000146379
2.22064e-19
0.000146379
1.20218e-20
0.000146379
-1.88599e-19
0.000146379
3.8055e-19
0.000146379
3.43081e-19
0.000146379
-2.63124e-20
0.000146379
-1.35678e-19
0.000146379
2.47413e-20
0.000146379
4.26973e-20
0.000146379
-1.18705e-19
0.000146379
-6.59428e-20
0.000146379
1.52429e-20
0.000146379
-2.7274e-20
0.000146379
5.27084e-20
0.000146379
2.60398e-20
0.000146379
4.4633e-20
0.000146379
3.85851e-20
0.000146379
7.42751e-20
0.000146379
2.33079e-19
0.000146379
7.36487e-20
0.000146379
1.30441e-19
0.000146379
1.11654e-19
0.000146379
-1.41485e-20
0.000146379
-2.55651e-19
0.000146379
-4.26774e-20
0.000146379
3.19218e-19
0.000146379
-8.84444e-20
0.000146379
-1.09891e-19
0.000146379
3.42484e-19
0.000146379
2.81745e-19
0.000146379
3.49832e-20
0.000146379
-1.77141e-19
0.000146379
7.3477e-20
0.000146379
1.73382e-19
0.000146379
-8.40944e-20
0.000146379
-1.07262e-19
0.000146379
2.64546e-19
0.000146379
1.60714e-19
0.000146379
-2.0606e-19
0.000146379
-2.25644e-19
0.000146379
-4.23659e-20
0.000146379
3.19116e-19
0.000146379
2.1061e-19
0.000146379
-2.6495e-19
0.000146379
-2.21971e-19
0.000146379
2.44241e-19
0.000146379
3.07055e-19
0.000146379
8.47228e-20
0.000146379
-3.66299e-20
0.000146379
7.1615e-20
0.000146379
1.24047e-19
0.000146379
-1.2285e-19
0.000146379
-9.47457e-20
0.000146379
1.62772e-19
0.000146379
8.50403e-20
0.000146379
4.32532e-20
0.000146379
1.32155e-19
0.000146379
1.64304e-19
0.000146379
2.10048e-19
0.000146379
6.86525e-21
0.000146379
1.576e-19
0.000146379
-7.92366e-20
0.000146379
-2.08888e-19
0.000146379
8.64765e-20
0.000146379
-2.38951e-19
0.000146379
-1.48482e-19
0.000146379
3.39379e-19
0.000146379
1.31395e-19
0.000146379
-3.99392e-19
0.000146379
-3.71985e-19
0.000146379
4.41753e-19
0.000146379
5.80306e-19
0.000146379
-3.10327e-19
0.000146379
-3.04093e-20
0.000146379
6.91648e-19
0.000146379
-1.04193e-19
0.000146379
-3.66032e-19
0.000146379
1.0705e-19
0.000146379
-1.52346e-19
0.000146379
1.27466e-19
0.000146379
1.77848e-19
0.000146379
-5.19493e-19
0.000146379
-9.04957e-20
0.000146379
1.1682e-19
0.000146379
-2.30293e-19
0.000146379
-9.66022e-20
0.000146379
-4.85753e-21
0.000146379
5.66514e-19
0.000146379
2.86821e-19
0.000146379
-1.07244e-19
0.000146379
-1.40854e-19
0.000146379
-1.42307e-19
0.000146379
-5.0354e-20
0.000146379
5.22662e-20
0.000146379
1.5831e-19
0.000146379
-1.82003e-19
0.000146379
3.61168e-19
0.000146379
3.49727e-19
0.000146379
-2.20543e-19
0.000146379
7.16625e-20
0.000146379
2.60481e-19
0.000146379
-2.10401e-19
0.000146379
-3.91942e-19
0.000146379
1.77636e-19
0.000146379
4.4934e-19
0.000146379
-1.54084e-19
0.000146379
-2.23354e-19
0.000146379
4.47598e-19
0.000146379
-1.01989e-20
0.000146379
-3.78657e-19
0.000146379
-8.73275e-20
0.000146379
-1.67598e-19
0.000146379
4.54336e-20
0.000146379
-1.69578e-19
0.000146379
-4.23004e-19
0.000146379
-3.10505e-19
0.000146379
9.6251e-21
0.000146379
-1.34838e-19
0.000146379
-3.50252e-19
0.000146379
-1.54679e-19
0.000146379