/*--------------------------------*- C++ -*----------------------------------*\
| =========                 |                                                 |
| \\      /  F ield         | OpenFOAM: The Open Source CFD Toolbox           |
|  \\    /   O peration     | Version:  2112                                  |
|   \\  /    A nd           | Website:  www.openfoam.com                      |
|    \\/     M anipulation  |                                                 |
\*---------------------------------------------------------------------------*/
FoamFile
{
    version     2.0;
    format      ascii;
    arch        "LSB;label=32;scalar=64";
    class       volVectorField;
    location    "14";
    object      U;
}
// * * * * * * * * * * * * * * * * * * * * * * * * * * * * * * * * * * * * * //

dimensions      [0 1 -1 0 0 0 0];

internalField   nonuniform List<vector> 
50000
(
(0.0299957 2.50308e-15 0)
(0.0299957 5.00747e-16 0)
(0.0299957 1.14691e-16 0)
(0.0299957 4.67236e-17 0)
(0.0299957 3.26324e-17 0)
(0.0299957 2.11237e-17 0)
(0.0299957 1.26664e-17 0)
(0.0299957 8.0081e-18 0)
(0.0299957 5.36765e-18 0)
(0.0299957 8.75127e-18 0)
(0.0299957 2.61732e-18 0)
(0.0299957 -1.60723e-18 0)
(0.0299957 -2.13829e-19 0)
(0.0299957 3.35735e-18 0)
(0.0299957 7.70059e-18 0)
(0.0299957 -1.3965e-18 0)
(0.0299957 -8.48745e-18 0)
(0.0299957 4.56826e-19 0)
(0.0299957 -9.86603e-19 0)
(0.0299957 -1.91499e-18 0)
(0.0299957 4.10907e-18 0)
(0.0299957 5.50505e-19 0)
(0.0299957 5.93003e-18 0)
(0.0299957 1.19716e-18 0)
(0.0299957 -5.62047e-18 0)
(0.0299957 -3.91383e-18 0)
(0.0299957 1.18851e-18 0)
(0.0299957 1.39928e-17 0)
(0.0299957 -9.04074e-18 0)
(0.0299957 -8.32681e-19 0)
(0.0299957 5.27467e-18 0)
(0.0299957 -1.19481e-17 0)
(0.0299957 -2.08389e-18 0)
(0.0299957 6.40074e-18 0)
(0.0299957 -8.75268e-18 0)
(0.0299957 7.15867e-18 0)
(0.0299957 -1.39289e-18 0)
(0.0299957 -3.30756e-18 0)
(0.0299957 2.77707e-18 0)
(0.0299957 -1.08161e-17 0)
(0.0299957 5.90869e-18 0)
(0.0299957 -6.64725e-18 0)
(0.0299957 1.19447e-17 0)
(0.0299957 6.66772e-18 0)
(0.0299957 -1.61862e-17 0)
(0.0299957 5.69815e-18 0)
(0.0299957 1.53499e-17 0)
(0.0299957 -1.1616e-17 0)
(0.0299957 -1.03898e-17 0)
(0.0299957 1.03578e-17 0)
(0.0299957 3.95136e-18 0)
(0.0299957 9.85504e-18 0)
(0.0299957 -1.41935e-17 0)
(0.0299957 -1.01886e-17 0)
(0.0299957 1.29635e-17 0)
(0.0299957 -4.68349e-18 0)
(0.0299957 2.06887e-17 0)
(0.0299957 -8.12778e-18 0)
(0.0299957 -1.99215e-17 0)
(0.0299957 9.9591e-18 0)
(0.0299957 9.5835e-18 0)
(0.0299957 -6.56594e-18 0)
(0.0299957 1.26256e-18 0)
(0.0299957 1.05268e-17 0)
(0.0299957 -2.06761e-17 0)
(0.0299957 2.41896e-18 0)
(0.0299957 5.47643e-18 0)
(0.0299957 9.5725e-18 0)
(0.0299957 7.27491e-18 0)
(0.0299957 -1.05231e-17 0)
(0.0299957 -1.08495e-17 0)
(0.0299957 4.10094e-19 0)
(0.0299957 2.46266e-17 0)
(0.0299957 -1.43074e-17 0)
(0.0299957 -1.71394e-17 0)
(0.0299957 3.40348e-17 0)
(0.0299957 5.74235e-18 0)
(0.0299957 -2.68276e-17 0)
(0.0299957 -3.17334e-18 0)
(0.0299957 1.66693e-17 0)
(0.0299957 3.1783e-18 0)
(0.0299957 -8.61223e-18 0)
(0.0299957 1.55128e-18 0)
(0.0299957 1.18738e-17 0)
(0.0299957 -2.31126e-17 0)
(0.0299957 1.32751e-17 0)
(0.0299957 2.04823e-17 0)
(0.0299957 -1.83025e-17 0)
(0.0299957 -1.40088e-18 0)
(0.0299957 -1.19371e-17 0)
(0.0299957 8.73354e-18 0)
(0.0299957 2.01426e-17 0)
(0.0299957 -7.75625e-18 0)
(0.0299957 3.45139e-18 0)
(0.0299957 1.25024e-17 0)
(0.0299957 -3.87908e-17 0)
(0.0299957 7.9059e-18 0)
(0.0299957 3.54821e-17 0)
(0.0299957 -1.72265e-17 0)
(0.0299957 -9.80924e-18 0)
(0.0299957 1.52588e-17 0)
(0.0299957 3.20247e-17 0)
(0.0299957 -2.1099e-17 0)
(0.0299957 -2.86293e-17 0)
(0.0299957 4.35223e-17 0)
(0.0299957 -1.31462e-17 0)
(0.0299957 -2.41121e-17 0)
(0.0299957 1.62138e-17 0)
(0.0299957 5.3911e-18 0)
(0.0299957 2.89898e-17 0)
(0.0299957 -2.48676e-17 0)
(0.0299957 -2.83642e-17 0)
(0.0299957 1.61295e-17 0)
(0.0299957 1.06129e-17 0)
(0.0299957 2.53015e-17 0)
(0.0299957 -1.00588e-17 0)
(0.0299957 -4.50865e-17 0)
(0.0299957 6.68929e-18 0)
(0.0299957 2.95012e-17 0)
(0.0299957 -1.28246e-18 0)
(0.0299957 -6.64436e-18 0)
(0.0299957 9.90244e-19 0)
(0.0299957 2.51621e-17 0)
(0.0299957 -1.87101e-18 0)
(0.0299957 -4.40552e-17 0)
(0.0299957 3.12827e-17 0)
(0.0299957 2.74869e-17 0)
(0.0299957 -2.74327e-17 0)
(0.0299957 2.47867e-18 0)
(0.0299957 2.11765e-18 0)
(0.0299957 -1.46281e-17 0)
(0.0299957 -2.58718e-18 0)
(0.0299957 3.29248e-17 0)
(0.0299957 -3.16105e-18 0)
(0.0299957 -1.14455e-17 0)
(0.0299957 5.85014e-18 0)
(0.0299957 1.70032e-17 0)
(0.0299957 -2.63558e-17 0)
(0.0299957 1.17842e-17 0)
(0.0299957 2.72179e-17 0)
(0.0299957 -3.49109e-17 0)
(0.0299957 -3.50308e-17 0)
(0.0299957 1.72698e-17 0)
(0.0299957 3.70462e-17 0)
(0.0299957 -1.80971e-17 0)
(0.0299957 -2.71343e-18 0)
(0.0299957 4.76416e-17 0)
(0.0299957 -2.85083e-17 0)
(0.0299957 -3.81909e-17 0)
(0.0299957 3.61271e-17 0)
(0.0299957 -8.41756e-18 0)
(0.0299957 3.4451e-18 0)
(0.0299957 3.60322e-17 0)
(0.0299957 -4.42247e-17 0)
(0.0299957 6.15047e-19 0)
(0.0299957 3.14982e-17 0)
(0.0299957 -5.5365e-17 0)
(0.0299957 -1.99477e-17 0)
(0.0299957 3.84932e-17 0)
(0.0299957 5.6261e-17 0)
(0.0299957 -3.41396e-17 0)
(0.0299957 -5.27828e-18 0)
(0.0299957 -2.02761e-18 0)
(0.0299957 -1.34593e-18 0)
(0.0299957 -4.03479e-18 0)
(0.0299957 -5.20694e-18 0)
(0.0299957 7.51435e-18 0)
(0.0299957 -5.6599e-17 0)
(0.0299957 7.61073e-17 0)
(0.0299957 1.78642e-17 0)
(0.0299957 -8.07516e-17 0)
(0.0299957 6.53002e-17 0)
(0.0299957 3.259e-17 0)
(0.0299957 -7.03434e-17 0)
(0.0299957 6.78301e-18 0)
(0.0299957 2.18497e-18 0)
(0.0299957 1.16982e-17 0)
(0.0299957 -8.34636e-18 0)
(0.0299957 -1.17332e-17 0)
(0.0299957 4.25341e-17 0)
(0.0299957 -4.06571e-17 0)
(0.0299957 -1.08542e-17 0)
(0.0299957 2.91613e-17 0)
(0.0299957 -2.98479e-17 0)
(0.0299957 4.54885e-17 0)
(0.0299957 -6.11169e-18 0)
(0.0299957 -5.15544e-17 0)
(0.0299957 3.72975e-17 0)
(0.0299957 3.4692e-18 0)
(0.0299957 -2.18008e-17 0)
(0.0299957 -7.32863e-18 0)
(0.0299957 -2.75408e-18 0)
(0.0299957 -4.51477e-17 0)
(0.0299957 3.82067e-17 0)
(0.0299957 4.31961e-17 0)
(0.0299957 -2.94215e-17 0)
(0.0299957 1.36215e-17 0)
(0.0299957 3.75541e-17 0)
(0.0299957 -5.91718e-17 0)
(0.0299957 -4.07385e-17 0)
(0.0299957 4.77562e-17 0)
(0.0299957 -2.45116e-17 0)
(0.0299957 1.58114e-17 0)
(0.0299957 2.23201e-19 0)
(0.0299957 4.73504e-17 0)
(0.0299957 -2.34697e-17 0)
(0.0299957 -6.48772e-17 0)
(0.0299957 2.63776e-17 0)
(0.0299957 8.88953e-18 0)
(0.0299957 4.3625e-18 0)
(0.0299957 4.44676e-17 0)
(0.0299957 -3.72478e-17 0)
(0.0299957 -5.35439e-17 0)
(0.0299957 9.50449e-17 0)
(0.0299957 -5.57326e-17 0)
(0.0299957 -3.50625e-17 0)
(0.0299957 3.30975e-17 0)
(0.0299957 -8.6377e-18 0)
(0.0299957 1.42459e-17 0)
(0.0299957 4.62156e-17 0)
(0.0299957 -4.46471e-18 0)
(0.0299957 -4.7844e-17 0)
(0.0299957 -2.87792e-17 0)
(0.0299957 -2.5901e-18 0)
(0.0299957 4.44788e-17 0)
(0.0299957 -4.69568e-17 0)
(0.0299957 3.74209e-17 0)
(0.0299957 4.44697e-17 0)
(0.0299957 -2.80164e-17 0)
(0.0299957 3.81946e-17 0)
(0.0299957 7.02542e-18 0)
(0.0299957 -8.92009e-17 0)
(0.0299957 3.6208e-17 0)
(0.0299957 6.40462e-18 0)
(0.0299957 -5.63015e-17 0)
(0.0299957 4.94206e-17 0)
(0.0299957 7.50471e-18 0)
(0.0299957 4.04935e-17 0)
(0.0299957 -4.36137e-17 0)
(0.0299957 -2.92895e-18 0)
(0.0299957 1.88639e-18 0)
(0.0299957 -4.70946e-17 0)
(0.0299957 3.51714e-17 0)
(0.0299957 6.45182e-17 0)
(0.0299957 -5.02103e-17 0)
(0.0299957 -3.97596e-18 0)
(0.0299957 5.32842e-17 0)
(0.0299957 -5.90545e-17 0)
(0.0299957 6.19599e-18 0)
(0.0299957 -3.20995e-17 0)
(0.0299957 -1.11097e-17 0)
(0.0299957 -6.20421e-18 0)
(0.0299957 9.85315e-17 0)
(0.0299957 -3.60896e-18 0)
(0.0299957 -4.63525e-17 0)
(0.0299957 4.74107e-17 0)
(0.0299957 -4.16591e-17 0)
(0.0299957 -4.83292e-17 0)
(0.0299957 5.13721e-17 0)
(0.0299957 -2.37531e-17 0)
(0.0299957 4.12941e-18 0)
(0.0299957 7.20336e-17 0)
(0.0299957 -1.01553e-16 0)
(0.0299957 5.30135e-17 0)
(0.0299957 -1.96235e-17 0)
(0.0299957 -2.96227e-17 0)
(0.0299957 4.78337e-17 0)
(0.0299957 -5.46375e-17 0)
(0.0299957 2.26293e-17 0)
(0.0299957 1.35425e-16 0)
(0.0299957 -1.0804e-16 0)
(0.0299957 -5.74248e-17 0)
(0.0299957 6.54017e-17 0)
(0.0299957 -6.47576e-17 0)
(0.0299957 8.57794e-17 0)
(0.0299957 -8.20055e-17 0)
(0.0299957 -1.09753e-17 0)
(0.0299957 8.15666e-17 0)
(0.0299957 1.03061e-17 0)
(0.0299957 -3.99124e-17 0)
(0.0299957 -2.00083e-18 0)
(0.0299957 -1.61045e-17 0)
(0.0299957 8.92586e-18 0)
(0.0299957 2.91404e-17 0)
(0.0299957 -8.27073e-17 0)
(0.0299957 1.06948e-16 0)
(0.0299957 -2.4485e-17 0)
(0.0299957 -8.12931e-17 0)
(0.0299957 7.43776e-17 0)
(0.0299957 5.40892e-17 0)
(0.0299957 -8.76678e-17 0)
(0.0299957 -2.95726e-17 0)
(0.0299957 6.00125e-17 0)
(0.0299957 -3.02041e-17 0)
(0.0299957 8.06601e-17 0)
(0.0299957 4.58512e-17 0)
(0.0299957 -1.6085e-16 0)
(0.0299957 2.2329e-17 0)
(0.0299957 3.95391e-17 0)
(0.0299957 -7.44831e-17 0)
(0.0299957 7.20355e-17 0)
(0.0299957 -4.335e-17 0)
(0.0299957 1.68127e-17 0)
(0.0299957 1.2799e-16 0)
(0.0299957 -9.76261e-17 0)
(0.0299957 -8.13693e-17 0)
(0.0299957 1.13703e-16 0)
(0.0299957 -5.21344e-17 0)
(0.0299957 -6.49764e-17 0)
(0.0299957 7.0665e-17 0)
(0.0299957 6.01959e-17 0)
(0.0299957 -6.47548e-17 0)
(0.0299957 1.09115e-17 0)
(0.0299957 9.25887e-18 0)
(0.0299957 -6.03706e-17 0)
(0.0299957 8.48298e-17 0)
(0.0299957 -9.28951e-17 0)
(0.0299957 -1.76786e-18 0)
(0.0299957 7.67659e-17 0)
(0.0299957 1.45903e-17 0)
(0.0299957 1.54227e-17 0)
(0.0299957 -6.2079e-18 0)
(0.0299957 -9.0275e-17 0)
(0.0299957 -4.04145e-17 0)
(0.0299957 1.41587e-16 0)
(0.0299957 -1.0099e-16 0)
(0.0299957 -7.25288e-18 0)
(0.0299957 3.80978e-17 0)
(0.0299957 5.65519e-17 0)
(0.0299957 6.2471e-17 0)
(0.0299957 -1.6374e-16 0)
(0.0299957 2.68906e-18 0)
(0.0299957 1.06477e-16 0)
(0.0299957 -1.13243e-16 0)
(0.0299957 7.08915e-18 0)
(0.0299957 1.58698e-16 0)
(0.0299957 -1.57358e-16 0)
(0.0299957 6.55914e-17 0)
(0.0299957 9.84885e-17 0)
(0.0299957 -1.54469e-16 0)
(0.0299957 1.17694e-17 0)
(0.0299957 6.93273e-17 0)
(0.0299957 -8.79472e-17 0)
(0.0299957 6.55863e-18 0)
(0.0299957 1.29645e-16 0)
(0.0299957 -4.04056e-17 0)
(0.0299957 -3.73243e-17 0)
(0.0299957 -1.52977e-17 0)
(0.0299957 -4.17823e-17 0)
(0.0299957 2.23236e-17 0)
(0.0299957 6.14751e-17 0)
(0.0299957 -9.63665e-17 0)
(0.0299957 9.3362e-18 0)
(0.0299957 1.35303e-16 0)
(0.0299957 -4.01828e-17 0)
(0.0299957 -4.3081e-17 0)
(0.0299957 -5.62986e-17 0)
(0.0299957 -2.49312e-18 0)
(0.0299957 8.69624e-17 0)
(0.0299957 -9.46826e-17 0)
(0.0299957 8.19897e-17 0)
(0.0299957 1.43164e-17 0)
(0.0299957 -9.0616e-17 0)
(0.0299957 1.22766e-16 0)
(0.0299957 -7.08873e-17 0)
(0.0299957 -4.30483e-17 0)
(0.0299957 5.07603e-17 0)
(0.0299957 3.55341e-17 0)
(0.0299957 -9.90334e-17 0)
(0.0299957 6.96205e-17 0)
(0.0299957 8.04788e-17 0)
(0.0299957 -1.02599e-16 0)
(0.0299957 -3.26559e-17 0)
(0.0299957 -2.19642e-18 0)
(0.0299957 5.82637e-17 0)
(0.0299957 -1.76026e-17 0)
(0.0299957 5.18835e-17 0)
(0.0299957 -9.22847e-17 0)
(0.0299957 6.66938e-17 0)
(0.0299957 7.41902e-17 0)
(0.0299957 -1.01573e-16 0)
(0.0299957 -4.20087e-17 0)
(0.0299957 5.27987e-17 0)
(0.0299957 5.3917e-18 0)
(0.0299957 -2.59519e-17 0)
(0.0299957 5.1902e-17 0)
(0.0299957 -1.0838e-16 0)
(0.0299957 1.16177e-16 0)
(0.0299957 2.2734e-17 0)
(0.0299957 -8.87702e-17 0)
(0.0299957 1.85561e-17 0)
(0.0299957 4.69135e-18 0)
(0.0299957 2.22524e-18 0)
(0.0299957 -2.9481e-17 0)
(0.0299957 4.37628e-17 0)
(0.0299957 9.62237e-17 0)
(0.0299957 -3.68842e-17 0)
(0.0299957 -1.64309e-16 0)
(0.0299957 6.03028e-18 0)
(0.0299957 7.18475e-17 0)
(0.0299957 2.00273e-18 0)
(0.0299957 1.23826e-16 0)
(0.0299957 -1.15159e-16 0)
(0.0299957 -7.79175e-17 0)
(0.0299957 6.3319e-17 0)
(0.0299957 9.65246e-17 0)
(0.0299957 -3.79728e-17 0)
(0.0299957 -1.43105e-16 0)
(0.0299957 6.86762e-17 0)
(0.0299957 2.69261e-17 0)
(0.0299957 1.42136e-16 0)
(0.0299957 -1.33094e-16 0)
(0.0299957 -7.926e-17 0)
(0.0299957 9.26148e-17 0)
(0.0299957 -1.534e-17 0)
(0.0299957 8.61345e-18 0)
(0.0299957 -3.36037e-17 0)
(0.0299957 1.36495e-17 0)
(0.0299957 2.00689e-17 0)
(0.0299957 1.01347e-16 0)
(0.0299957 -1.17846e-16 0)
(0.0299957 -9.80016e-17 0)
(0.0299957 2.18143e-16 0)
(0.0299957 -9.64791e-17 0)
(0.0299957 -1.06339e-16 0)
(0.0299957 7.92471e-17 0)
(0.0299957 2.17421e-17 0)
(0.0299957 -4.06109e-18 0)
(0.0299957 9.34711e-17 0)
(0.0299957 -1.02519e-16 0)
(0.0299957 -1.13913e-16 0)
(0.0299957 2.22989e-16 0)
(0.0299957 -7.25517e-17 0)
(0.0299957 -1.38849e-16 0)
(0.0299957 6.35942e-17 0)
(0.0299957 1.63196e-16 0)
(0.0299957 -1.04248e-16 0)
(0.0299957 -6.18736e-18 0)
(0.0299957 8.5866e-18 0)
(0.0299957 -1.14073e-16 0)
(0.0299957 2.10808e-16 0)
(0.0299957 -1.11998e-16 0)
(0.0299957 -1.09175e-17 0)
(0.0299957 -8.5696e-17 0)
(0.0299957 1.08702e-16 0)
(0.0299957 8.31903e-17 0)
(0.0299957 -1.81696e-16 0)
(0.0299957 9.87473e-17 0)
(0.0299957 -1.55274e-17 0)
(0.0299957 2.40168e-17 0)
(0.0299957 -2.32238e-17 0)
(0.0299957 8.84223e-17 0)
(0.0299957 -1.67856e-16 0)
(0.0299957 1.0342e-16 0)
(0.0299957 7.09878e-17 0)
(0.0299957 -1.858e-16 0)
(0.0299957 9.54689e-17 0)
(0.0299957 8.71814e-17 0)
(0.0299957 -4.88352e-17 0)
(0.0299957 -1.52396e-16 0)
(0.0299957 1.96274e-16 0)
(0.0299957 -1.30714e-16 0)
(0.0299957 7.49025e-17 0)
(0.0299957 1.68447e-16 0)
(0.0299957 -2.89634e-16 0)
(0.0299957 3.14335e-17 0)
(0.0299957 1.69711e-16 0)
(0.0299957 -1.24718e-17 0)
(0.0299957 -1.75992e-16 0)
(0.0299957 9.72952e-17 0)
(0.0299957 -1.03935e-17 0)
(0.0299957 4.12227e-18 0)
(0.0299957 1.29549e-17 0)
(0.0299957 -1.00648e-16 0)
(0.0299957 1.05551e-16 0)
(0.0299957 9.8163e-18 0)
(0.0299957 9.0189e-17 0)
(0.0299957 -1.19249e-16 0)
(0.0299957 -5.53e-17 0)
(0.0299957 8.79159e-17 0)
(0.0299957 6.36522e-17 0)
(0.0299957 -7.06028e-17 0)
(0.0299957 -8.72786e-17 0)
(0.0299957 1.87492e-16 0)
(0.0299957 -1.27321e-16 0)
(0.0299957 2.2854e-17 0)
(0.0299957 8.80038e-18 0)
(0.0299957 -8.83482e-17 0)
(0.0299957 1.92048e-16 0)
(0.0299957 -3.68922e-17 0)
(0.0299957 -1.72227e-16 0)
(0.0299957 4.32599e-17 0)
(0.0299957 1.84027e-16 0)
(0.0299957 -1.15587e-16 0)
(0.0299957 2.16526e-17 0)
(0.0299957 9.73272e-18 0)
(0.0299957 2.02598e-17 0)
(0.0299957 1.4403e-16 0)
(0.0299957 2.03663e-17 0)
(0.0299957 5.17332e-16 0)
(0.0887873 4.58239e-15 0)
(0.0887873 1.13889e-15 0)
(0.0887873 4.08408e-16 0)
(0.0887873 2.26019e-16 0)
(0.0887873 1.52813e-16 0)
(0.0887873 9.65819e-17 0)
(0.0887873 7.14627e-17 0)
(0.0887873 5.29766e-17 0)
(0.0887873 3.54672e-17 0)
(0.0887873 2.09688e-17 0)
(0.0887873 -3.05458e-18 0)
(0.0887873 -1.27232e-17 0)
(0.0887873 4.87644e-19 0)
(0.0887873 4.27669e-19 0)
(0.0887873 1.69048e-17 0)
(0.0887873 -2.81747e-18 0)
(0.0887873 -3.37194e-17 0)
(0.0887873 -2.0027e-17 0)
(0.0887873 -6.20286e-18 0)
(0.0887873 1.17177e-17 0)
(0.0887873 4.91835e-18 0)
(0.0887873 5.17972e-18 0)
(0.0887873 3.09433e-17 0)
(0.0887873 1.85117e-18 0)
(0.0887873 -1.54902e-17 0)
(0.0887873 -1.79966e-17 0)
(0.0887873 9.51185e-18 0)
(0.0887873 2.90484e-17 0)
(0.0887873 -3.27891e-17 0)
(0.0887873 -1.5939e-17 0)
(0.0887873 -2.08239e-18 0)
(0.0887873 -1.91584e-17 0)
(0.0887873 -1.31946e-17 0)
(0.0887873 -6.26712e-18 0)
(0.0887873 -3.25143e-17 0)
(0.0887873 -1.56535e-18 0)
(0.0887873 -1.98409e-17 0)
(0.0887873 -2.71545e-17 0)
(0.0887873 -7.6459e-18 0)
(0.0887873 -3.42252e-17 0)
(0.0887873 1.82611e-17 0)
(0.0887873 -1.92234e-17 0)
(0.0887873 4.77822e-18 0)
(0.0887873 2.9357e-17 0)
(0.0887873 -3.93591e-18 0)
(0.0887873 3.28571e-17 0)
(0.0887873 2.98611e-17 0)
(0.0887873 -3.50314e-17 0)
(0.0887873 -1.84023e-17 0)
(0.0887873 2.51147e-17 0)
(0.0887873 2.27823e-17 0)
(0.0887873 1.40777e-17 0)
(0.0887873 -3.01901e-17 0)
(0.0887873 -1.22671e-17 0)
(0.0887873 3.71107e-17 0)
(0.0887873 -1.72725e-17 0)
(0.0887873 2.36762e-17 0)
(0.0887873 -9.3353e-18 0)
(0.0887873 -5.29214e-17 0)
(0.0887873 -6.34763e-18 0)
(0.0887873 7.5025e-18 0)
(0.0887873 -1.84142e-18 0)
(0.0887873 1.72534e-18 0)
(0.0887873 1.03802e-17 0)
(0.0887873 -1.62296e-17 0)
(0.0887873 2.36955e-17 0)
(0.0887873 -4.00552e-17 0)
(0.0887873 -2.43567e-17 0)
(0.0887873 6.50998e-17 0)
(0.0887873 -9.61763e-18 0)
(0.0887873 -2.47845e-17 0)
(0.0887873 1.4563e-17 0)
(0.0887873 5.6379e-17 0)
(0.0887873 -1.82996e-17 0)
(0.0887873 -3.55573e-17 0)
(0.0887873 1.02943e-16 0)
(0.0887873 3.74426e-17 0)
(0.0887873 -4.99233e-17 0)
(0.0887873 -1.34867e-17 0)
(0.0887873 4.27357e-17 0)
(0.0887873 -8.76589e-19 0)
(0.0887873 -4.18594e-17 0)
(0.0887873 2.63721e-17 0)
(0.0887873 -1.27812e-17 0)
(0.0887873 -5.26566e-17 0)
(0.0887873 6.08395e-17 0)
(0.0887873 1.9352e-17 0)
(0.0887873 -2.99324e-17 0)
(0.0887873 1.38724e-17 0)
(0.0887873 1.15916e-17 0)
(0.0887873 2.74963e-17 0)
(0.0887873 1.88732e-17 0)
(0.0887873 2.95338e-17 0)
(0.0887873 1.16523e-18 0)
(0.0887873 2.68009e-18 0)
(0.0887873 -6.33014e-17 0)
(0.0887873 1.95621e-18 0)
(0.0887873 8.53272e-17 0)
(0.0887873 -3.55083e-17 0)
(0.0887873 -3.11389e-17 0)
(0.0887873 6.43978e-17 0)
(0.0887873 5.72334e-17 0)
(0.0887873 7.76549e-18 0)
(0.0887873 -4.74233e-18 0)
(0.0887873 1.51751e-17 0)
(0.0887873 -1.78255e-17 0)
(0.0887873 -1.425e-17 0)
(0.0887873 6.06645e-18 0)
(0.0887873 3.55007e-17 0)
(0.0887873 6.18871e-17 0)
(0.0887873 -3.10432e-17 0)
(0.0887873 -9.58599e-17 0)
(0.0887873 -1.38985e-17 0)
(0.0887873 1.02607e-16 0)
(0.0887873 2.95576e-17 0)
(0.0887873 -7.90619e-17 0)
(0.0887873 -5.48202e-17 0)
(0.0887873 4.29939e-17 0)
(0.0887873 7.87153e-17 0)
(0.0887873 1.03156e-17 0)
(0.0887873 -1.8564e-17 0)
(0.0887873 1.12186e-17 0)
(0.0887873 3.83169e-17 0)
(0.0887873 -1.78305e-17 0)
(0.0887873 -5.60934e-17 0)
(0.0887873 6.23174e-17 0)
(0.0887873 4.91119e-17 0)
(0.0887873 -3.12029e-17 0)
(0.0887873 1.69207e-17 0)
(0.0887873 2.66799e-17 0)
(0.0887873 7.46521e-18 0)
(0.0887873 4.52492e-18 0)
(0.0887873 1.17689e-16 0)
(0.0887873 -7.02591e-17 0)
(0.0887873 -9.39897e-17 0)
(0.0887873 5.33359e-17 0)
(0.0887873 -2.76664e-18 0)
(0.0887873 -4.35147e-17 0)
(0.0887873 8.63375e-17 0)
(0.0887873 2.93432e-17 0)
(0.0887873 -1.29421e-16 0)
(0.0887873 -7.21822e-17 0)
(0.0887873 8.44985e-17 0)
(0.0887873 1.16159e-16 0)
(0.0887873 -6.57265e-17 0)
(0.0887873 -1.13649e-17 0)
(0.0887873 1.45618e-16 0)
(0.0887873 -3.75166e-17 0)
(0.0887873 -9.0845e-17 0)
(0.0887873 1.05416e-16 0)
(0.0887873 -7.25636e-17 0)
(0.0887873 -2.82973e-17 0)
(0.0887873 1.34899e-16 0)
(0.0887873 -1.45366e-16 0)
(0.0887873 -4.69222e-17 0)
(0.0887873 7.51787e-17 0)
(0.0887873 -9.08172e-17 0)
(0.0887873 9.74512e-18 0)
(0.0887873 6.45743e-19 0)
(0.0887873 9.08138e-17 0)
(0.0887873 7.37055e-17 0)
(0.0887873 -4.23502e-17 0)
(0.0887873 -4.38349e-17 0)
(0.0887873 8.84458e-18 0)
(0.0887873 -2.36898e-17 0)
(0.0887873 -6.13897e-18 0)
(0.0887873 7.16862e-17 0)
(0.0887873 -1.43668e-16 0)
(0.0887873 8.73097e-17 0)
(0.0887873 1.46395e-16 0)
(0.0887873 -1.43776e-16 0)
(0.0887873 5.52639e-17 0)
(0.0887873 1.22367e-16 0)
(0.0887873 -1.26101e-16 0)
(0.0887873 -7.88182e-17 0)
(0.0887873 4.45897e-17 0)
(0.0887873 7.62994e-17 0)
(0.0887873 -6.8861e-18 0)
(0.0887873 -5.97455e-17 0)
(0.0887873 8.36736e-17 0)
(0.0887873 4.57327e-18 0)
(0.0887873 -7.895e-17 0)
(0.0887873 -2.2164e-18 0)
(0.0887873 -2.49956e-17 0)
(0.0887873 5.98538e-17 0)
(0.0887873 -2.95539e-17 0)
(0.0887873 -9.28708e-17 0)
(0.0887873 -2.51747e-17 0)
(0.0887873 -1.12266e-17 0)
(0.0887873 6.82977e-18 0)
(0.0887873 -8.01855e-17 0)
(0.0887873 -5.18251e-17 0)
(0.0887873 -1.29626e-17 0)
(0.0887873 1.22718e-16 0)
(0.0887873 7.55549e-17 0)
(0.0887873 -3.7056e-17 0)
(0.0887873 6.14947e-17 0)
(0.0887873 1.61293e-17 0)
(0.0887873 -1.62465e-16 0)
(0.0887873 -7.61457e-17 0)
(0.0887873 4.30292e-17 0)
(0.0887873 -1.34226e-16 0)
(0.0887873 1.19805e-16 0)
(0.0887873 6.9515e-17 0)
(0.0887873 9.0788e-18 0)
(0.0887873 7.52763e-17 0)
(0.0887873 -1.20509e-16 0)
(0.0887873 -9.98227e-17 0)
(0.0887873 4.95672e-17 0)
(0.0887873 -2.06674e-17 0)
(0.0887873 1.9143e-17 0)
(0.0887873 1.43641e-17 0)
(0.0887873 -8.42243e-17 0)
(0.0887873 7.24979e-17 0)
(0.0887873 -6.28338e-17 0)
(0.0887873 1.67683e-17 0)
(0.0887873 -4.88028e-17 0)
(0.0887873 -4.10559e-17 0)
(0.0887873 9.72276e-17 0)
(0.0887873 9.50904e-17 0)
(0.0887873 -1.81913e-17 0)
(0.0887873 -6.97694e-17 0)
(0.0887873 4.07141e-17 0)
(0.0887873 -6.45048e-17 0)
(0.0887873 1.66714e-17 0)
(0.0887873 4.13062e-17 0)
(0.0887873 -3.33032e-18 0)
(0.0887873 3.6647e-17 0)
(0.0887873 1.22391e-16 0)
(0.0887873 -5.89432e-18 0)
(0.0887873 -5.34511e-17 0)
(0.0887873 -1.04008e-16 0)
(0.0887873 -1.34298e-19 0)
(0.0887873 1.92721e-17 0)
(0.0887873 -8.99541e-17 0)
(0.0887873 7.74456e-17 0)
(0.0887873 3.5551e-17 0)
(0.0887873 4.31736e-17 0)
(0.0887873 -5.55256e-17 0)
(0.0887873 -2.1326e-17 0)
(0.0887873 -1.12425e-18 0)
(0.0887873 -8.65959e-17 0)
(0.0887873 3.66844e-17 0)
(0.0887873 1.61596e-16 0)
(0.0887873 -5.40871e-17 0)
(0.0887873 -1.63714e-17 0)
(0.0887873 8.29909e-17 0)
(0.0887873 -1.05159e-16 0)
(0.0887873 1.59187e-18 0)
(0.0887873 -2.15574e-17 0)
(0.0887873 -4.17927e-17 0)
(0.0887873 3.23428e-17 0)
(0.0887873 1.15678e-16 0)
(0.0887873 -4.18005e-17 0)
(0.0887873 -2.29378e-17 0)
(0.0887873 6.7467e-17 0)
(0.0887873 -5.38205e-17 0)
(0.0887873 -8.17691e-17 0)
(0.0887873 3.89145e-17 0)
(0.0887873 -8.49393e-17 0)
(0.0887873 4.31092e-17 0)
(0.0887873 1.86897e-16 0)
(0.0887873 -1.33239e-16 0)
(0.0887873 4.55128e-17 0)
(0.0887873 -1.29767e-16 0)
(0.0887873 -1.1639e-16 0)
(0.0887873 2.79622e-16 0)
(0.0887873 -1.93219e-16 0)
(0.0887873 -1.08294e-16 0)
(0.0887873 3.99888e-16 0)
(0.0887873 -1.62767e-16 0)
(0.0887873 -1.28774e-16 0)
(0.0887873 1.03958e-16 0)
(0.0887873 -1.36861e-16 0)
(0.0887873 8.17139e-17 0)
(0.0887873 -8.41626e-17 0)
(0.0887873 -3.91442e-17 0)
(0.0887873 1.12884e-16 0)
(0.0887873 1.13044e-16 0)
(0.0887873 -9.68201e-17 0)
(0.0887873 -9.9947e-17 0)
(0.0887873 -5.40087e-17 0)
(0.0887873 5.66447e-17 0)
(0.0887873 1.26894e-16 0)
(0.0887873 -1.66405e-16 0)
(0.0887873 2.01923e-16 0)
(0.0887873 1.42475e-17 0)
(0.0887873 -2.02389e-16 0)
(0.0887873 1.73229e-16 0)
(0.0887873 8.92469e-17 0)
(0.0887873 -2.30617e-16 0)
(0.0887873 7.81684e-17 0)
(0.0887873 1.62217e-17 0)
(0.0887873 -1.84962e-16 0)
(0.0887873 3.13235e-16 0)
(0.0887873 8.06239e-17 0)
(0.0887873 -2.99302e-16 0)
(0.0887873 7.55766e-17 0)
(0.0887873 -3.76027e-17 0)
(0.0887873 -2.11604e-16 0)
(0.0887873 2.82596e-16 0)
(0.0887873 -1.32607e-16 0)
(0.0887873 -1.17477e-16 0)
(0.0887873 3.67742e-16 0)
(0.0887873 -1.32296e-16 0)
(0.0887873 -2.32984e-16 0)
(0.0887873 2.05917e-16 0)
(0.0887873 -1.30981e-16 0)
(0.0887873 -1.70965e-16 0)
(0.0887873 3.12247e-16 0)
(0.0887873 6.04618e-17 0)
(0.0887873 -2.37078e-16 0)
(0.0887873 1.14595e-16 0)
(0.0887873 4.98094e-17 0)
(0.0887873 -1.17412e-16 0)
(0.0887873 6.96167e-17 0)
(0.0887873 -5.92757e-17 0)
(0.0887873 -1.20352e-16 0)
(0.0887873 -2.26424e-17 0)
(0.0887873 1.88376e-16 0)
(0.0887873 1.1943e-16 0)
(0.0887873 -3.66315e-17 0)
(0.0887873 -1.10962e-16 0)
(0.0887873 -8.46766e-17 0)
(0.0887873 1.72837e-16 0)
(0.0887873 -1.31433e-17 0)
(0.0887873 -1.46885e-16 0)
(0.0887873 -6.40522e-17 0)
(0.0887873 2.23263e-16 0)
(0.0887873 1.52257e-16 0)
(0.0887873 -2.89001e-16 0)
(0.0887873 2.26982e-17 0)
(0.0887873 1.16165e-16 0)
(0.0887873 -2.34812e-16 0)
(0.0887873 1.94047e-16 0)
(0.0887873 1.94891e-16 0)
(0.0887873 -3.15468e-16 0)
(0.0887873 2.75706e-16 0)
(0.0887873 1.08294e-16 0)
(0.0887873 -3.16348e-16 0)
(0.0887873 7.73524e-17 0)
(0.0887873 -3.73351e-17 0)
(0.0887873 -1.59262e-16 0)
(0.0887873 9.05572e-17 0)
(0.0887873 1.98818e-16 0)
(0.0887873 -1.02135e-17 0)
(0.0887873 -1.6303e-17 0)
(0.0887873 -1.63125e-16 0)
(0.0887873 -1.03246e-16 0)
(0.0887873 1.77196e-16 0)
(0.0887873 -6.04394e-17 0)
(0.0887873 -2.13793e-16 0)
(0.0887873 9.61944e-17 0)
(0.0887873 2.28595e-16 0)
(0.0887873 2.23778e-18 0)
(0.0887873 -3.19349e-17 0)
(0.0887873 -1.71134e-16 0)
(0.0887873 -1.33353e-16 0)
(0.0887873 1.06767e-16 0)
(0.0887873 3.98898e-17 0)
(0.0887873 1.12696e-16 0)
(0.0887873 -1.99306e-16 0)
(0.0887873 8.07547e-17 0)
(0.0887873 2.80563e-16 0)
(0.0887873 -2.43538e-16 0)
(0.0887873 -1.02161e-17 0)
(0.0887873 9.9449e-18 0)
(0.0887873 -1.19004e-16 0)
(0.0887873 1.91635e-17 0)
(0.0887873 3.03674e-16 0)
(0.0887873 2.71049e-17 0)
(0.0887873 -1.47795e-16 0)
(0.0887873 -9.55074e-17 0)
(0.0887873 -6.45278e-17 0)
(0.0887873 1.85846e-16 0)
(0.0887873 -9.87976e-17 0)
(0.0887873 9.25633e-18 0)
(0.0887873 -5.44461e-17 0)
(0.0887873 1.65469e-16 0)
(0.0887873 2.552e-17 0)
(0.0887873 -8.90853e-17 0)
(0.0887873 -6.37332e-17 0)
(0.0887873 -1.35694e-17 0)
(0.0887873 6.15483e-17 0)
(0.0887873 -4.25944e-17 0)
(0.0887873 2.20264e-16 0)
(0.0887873 -1.69035e-16 0)
(0.0887873 8.47545e-17 0)
(0.0887873 9.95631e-17 0)
(0.0887873 -1.1621e-16 0)
(0.0887873 -7.00003e-17 0)
(0.0887873 9.77926e-17 0)
(0.0887873 -1.11038e-16 0)
(0.0887873 -2.0198e-16 0)
(0.0887873 3.11458e-16 0)
(0.0887873 1.86801e-16 0)
(0.0887873 -1.67701e-16 0)
(0.0887873 -1.48218e-16 0)
(0.0887873 -1.25746e-16 0)
(0.0887873 -6.0404e-17 0)
(0.0887873 1.51736e-16 0)
(0.0887873 2.87614e-16 0)
(0.0887873 -2.1155e-16 0)
(0.0887873 -1.508e-16 0)
(0.0887873 -8.23513e-17 0)
(0.0887873 3.04842e-16 0)
(0.0887873 2.09318e-16 0)
(0.0887873 -4.49035e-16 0)
(0.0887873 -2.61099e-17 0)
(0.0887873 2.52874e-16 0)
(0.0887873 1.74726e-16 0)
(0.0887873 -2.80911e-16 0)
(0.0887873 8.36442e-17 0)
(0.0887873 6.63004e-17 0)
(0.0887873 -4.6492e-17 0)
(0.0887873 6.54023e-17 0)
(0.0887873 -2.6375e-16 0)
(0.0887873 -1.82768e-17 0)
(0.0887873 3.08985e-16 0)
(0.0887873 7.09706e-17 0)
(0.0887873 -3.52285e-16 0)
(0.0887873 -7.06307e-17 0)
(0.0887873 4.08909e-16 0)
(0.0887873 -9.85027e-17 0)
(0.0887873 -1.97839e-16 0)
(0.0887873 5.20562e-17 0)
(0.0887873 1.16963e-16 0)
(0.0887873 2.17914e-17 0)
(0.0887873 1.84877e-17 0)
(0.0887873 -1.07484e-16 0)
(0.0887873 -1.00707e-16 0)
(0.0887873 3.54109e-16 0)
(0.0887873 -3.14086e-17 0)
(0.0887873 -3.72356e-16 0)
(0.0887873 1.0128e-17 0)
(0.0887873 4.73943e-16 0)
(0.0887873 -9.93345e-17 0)
(0.0887873 -5.64849e-17 0)
(0.0887873 -1.28404e-17 0)
(0.0887873 -2.0691e-16 0)
(0.0887873 3.30408e-16 0)
(0.0887873 -1.70689e-16 0)
(0.0887873 -5.86412e-17 0)
(0.0887873 -7.27365e-18 0)
(0.0887873 1.07226e-16 0)
(0.0887873 1.73758e-17 0)
(0.0887873 -5.60148e-17 0)
(0.0887873 2.47509e-17 0)
(0.0887873 -1.54861e-16 0)
(0.0887873 1.99418e-16 0)
(0.0887873 -3.87078e-17 0)
(0.0887873 1.02568e-16 0)
(0.0887873 -7.08283e-17 0)
(0.0887873 6.91606e-17 0)
(0.0887873 -5.91218e-17 0)
(0.0887873 -7.85571e-17 0)
(0.0887873 7.07045e-17 0)
(0.0887873 6.32235e-17 0)
(0.0887873 1.7803e-16 0)
(0.0887873 -4.5209e-16 0)
(0.0887873 2.0295e-16 0)
(0.0887873 2.10596e-16 0)
(0.0887873 1.12295e-17 0)
(0.0887873 3.34607e-17 0)
(0.0887873 -3.56352e-16 0)
(0.0887873 1.08349e-16 0)
(0.0887873 2.10878e-16 0)
(0.0887873 -3.73966e-17 0)
(0.0887873 -2.13035e-16 0)
(0.0887873 1.08503e-16 0)
(0.0887873 -4.54162e-17 0)
(0.0887873 1.47787e-17 0)
(0.0887873 5.85902e-17 0)
(0.0887873 -1.27232e-16 0)
(0.0887873 1.97403e-16 0)
(0.0887873 9.5536e-17 0)
(0.0887873 1.07592e-16 0)
(0.0887873 -2.44734e-16 0)
(0.0887873 1.52463e-17 0)
(0.0887873 1.28768e-16 0)
(0.0887873 2.02349e-17 0)
(0.0887873 -4.83736e-17 0)
(0.0887873 -9.85511e-17 0)
(0.0887873 2.13202e-16 0)
(0.0887873 -2.54892e-16 0)
(0.0887873 7.51705e-17 0)
(0.0887873 4.30482e-17 0)
(0.0887873 -7.10739e-17 0)
(0.0887873 2.72585e-16 0)
(0.0887873 -1.59439e-16 0)
(0.0887873 -2.05352e-16 0)
(0.0887873 1.87872e-16 0)
(0.0887873 2.50181e-16 0)
(0.0887873 -2.1073e-16 0)
(0.0887873 7.06091e-17 0)
(0.0887873 8.00015e-17 0)
(0.0887873 1.19223e-16 0)
(0.0887873 3.42152e-16 0)
(0.0887873 2.83434e-16 0)
(0.0887873 1.19946e-15 0)
(0.146379 2.65226e-15 0)
(0.146379 1.17006e-15 0)
(0.146379 5.44079e-16 0)
(0.146379 3.55243e-16 0)
(0.146379 2.58666e-16 0)
(0.146379 1.71248e-16 0)
(0.146379 1.30712e-16 0)
(0.146379 1.14366e-16 0)
(0.146379 6.36642e-17 0)
(0.146379 1.59354e-17 0)
(0.146379 -2.15271e-17 0)
(0.146379 -3.19666e-17 0)
(0.146379 -2.60599e-17 0)
(0.146379 -1.00399e-17 0)
(0.146379 1.23693e-17 0)
(0.146379 2.35775e-19 0)
(0.146379 -3.97758e-17 0)
(0.146379 -5.81139e-17 0)
(0.146379 -1.22379e-17 0)
(0.146379 2.001e-17 0)
(0.146379 3.81728e-18 0)
(0.146379 2.56569e-17 0)
(0.146379 5.83577e-17 0)
(0.146379 -3.24738e-18 0)
(0.146379 -2.35363e-17 0)
(0.146379 -3.10427e-17 0)
(0.146379 -2.08391e-18 0)
(0.146379 4.75771e-17 0)
(0.146379 -4.81031e-17 0)
(0.146379 -5.09002e-17 0)
(0.146379 -2.91953e-17 0)
(0.146379 -1.39895e-17 0)
(0.146379 -2.05156e-17 0)
(0.146379 -6.78373e-17 0)
(0.146379 -5.22044e-17 0)
(0.146379 -1.19458e-17 0)
(0.146379 -8.59057e-17 0)
(0.146379 -6.42541e-17 0)
(0.146379 -2.04988e-17 0)
(0.146379 -6.29853e-17 0)
(0.146379 -8.15157e-18 0)
(0.146379 -3.32918e-18 0)
(0.146379 -6.07748e-18 0)
(0.146379 3.34075e-17 0)
(0.146379 5.43409e-17 0)
(0.146379 4.36716e-17 0)
(0.146379 4.58537e-17 0)
(0.146379 -3.71095e-17 0)
(0.146379 -2.22538e-17 0)
(0.146379 5.28375e-17 0)
(0.146379 3.02552e-17 0)
(0.146379 -1.16228e-17 0)
(0.146379 -3.60331e-17 0)
(0.146379 1.11381e-17 0)
(0.146379 3.669e-17 0)
(0.146379 -1.43851e-17 0)
(0.146379 4.31949e-17 0)
(0.146379 -6.87097e-17 0)
(0.146379 -9.47274e-17 0)
(0.146379 -2.35357e-17 0)
(0.146379 -1.49781e-19 0)
(0.146379 1.9516e-17 0)
(0.146379 -2.7501e-17 0)
(0.146379 1.43851e-17 0)
(0.146379 2.69432e-17 0)
(0.146379 6.20297e-19 0)
(0.146379 -6.68216e-17 0)
(0.146379 -3.58462e-17 0)
(0.146379 4.51863e-17 0)
(0.146379 3.38714e-17 0)
(0.146379 2.42189e-17 0)
(0.146379 4.63262e-18 0)
(0.146379 8.04807e-17 0)
(0.146379 -9.5811e-18 0)
(0.146379 -7.20511e-17 0)
(0.146379 1.50597e-16 0)
(0.146379 1.34307e-16 0)
(0.146379 -1.52659e-17 0)
(0.146379 -5.16774e-17 0)
(0.146379 -7.21865e-19 0)
(0.146379 2.58839e-17 0)
(0.146379 -3.66787e-17 0)
(0.146379 -3.26914e-17 0)
(0.146379 -3.66028e-19 0)
(0.146379 -1.79826e-18 0)
(0.146379 1.02446e-17 0)
(0.146379 -3.014e-18 0)
(0.146379 4.37885e-17 0)
(0.146379 1.52949e-17 0)
(0.146379 7.66969e-18 0)
(0.146379 8.27924e-17 0)
(0.146379 4.02395e-17 0)
(0.146379 4.58691e-17 0)
(0.146379 4.37389e-17 0)
(0.146379 1.15646e-17 0)
(0.146379 -1.27737e-16 0)
(0.146379 -3.37984e-17 0)
(0.146379 1.70337e-16 0)
(0.146379 -3.87205e-17 0)
(0.146379 -7.81245e-17 0)
(0.146379 1.61909e-16 0)
(0.146379 1.04623e-16 0)
(0.146379 -9.20492e-18 0)
(0.146379 -7.87869e-17 0)
(0.146379 3.28779e-17 0)
(0.146379 8.84522e-17 0)
(0.146379 -1.92166e-17 0)