/*--------------------------------*- C++ -*----------------------------------*\
| =========                 |                                                 |
| \\      /  F ield         | OpenFOAM: The Open Source CFD Toolbox           |
|  \\    /   O peration     | Version:  2112                                  |
|   \\  /    A nd           | Website:  www.openfoam.com                      |
|    \\/     M anipulation  |                                                 |
\*---------------------------------------------------------------------------*/
FoamFile
{
    version     2.0;
    format      ascii;
    arch        "LSB;label=32;scalar=64";
    class       volScalarField;
    location    "11";
    object      p;
}
// * * * * * * * * * * * * * * * * * * * * * * * * * * * * * * * * * * * * * //

dimensions      [0 2 -2 0 0 0 0];

internalField   nonuniform List<scalar> 
50000
(
-2.56768e-15
-1.07441e-14
-1.54238e-14
-1.85312e-14
-2.06421e-14
-2.20352e-14
-2.30065e-14
-2.37258e-14
-2.43097e-14
-2.46983e-14
-2.49224e-14
-2.50863e-14
-2.52919e-14
-2.54321e-14
-2.55271e-14
-2.5529e-14
-2.54315e-14
-2.5383e-14
-2.53492e-14
-2.52699e-14
-2.51896e-14
-2.49579e-14
-2.47467e-14
-2.44444e-14
-2.41479e-14
-2.38407e-14
-2.36651e-14
-2.34259e-14
-2.29695e-14
-2.26956e-14
-2.2415e-14
-2.20522e-14
-2.17402e-14
-2.14729e-14
-2.12923e-14
-2.11648e-14
-2.089e-14
-2.06782e-14
-2.04611e-14
-1.99952e-14
-1.97251e-14
-1.93407e-14
-1.90387e-14
-1.87722e-14
-1.8351e-14
-1.81433e-14
-1.78632e-14
-1.73382e-14
-1.71019e-14
-1.69528e-14
-1.65306e-14
-1.6028e-14
-1.54426e-14
-1.51615e-14
-1.48303e-14
-1.42433e-14
-1.3953e-14
-1.34133e-14
-1.28758e-14
-1.26279e-14
-1.22304e-14
-1.18181e-14
-1.14418e-14
-1.11664e-14
-1.08292e-14
-1.05944e-14
-1.02637e-14
-9.95022e-15
-9.71444e-15
-9.17195e-15
-8.75832e-15
-8.50096e-15
-8.34474e-15
-7.91938e-15
-7.62257e-15
-7.6708e-15
-7.18643e-15
-6.65174e-15
-6.50903e-15
-6.36556e-15
-5.99814e-15
-5.5522e-15
-5.30367e-15
-4.90184e-15
-4.54819e-15
-4.48148e-15
-4.21743e-15
-3.89952e-15
-3.61187e-15
-3.32732e-15
-3.06168e-15
-2.7276e-15
-2.37213e-15
-1.89671e-15
-1.37351e-15
-7.25085e-16
-5.66562e-16
-3.37028e-16
4.86595e-16
9.16633e-16
1.03103e-15
1.48695e-15
2.1785e-15
2.65629e-15
2.83795e-15
3.20992e-15
3.56871e-15
3.68238e-15
3.64051e-15
3.81737e-15
4.46806e-15
4.84773e-15
4.82637e-15
4.83748e-15
5.25559e-15
5.71321e-15
5.70122e-15
5.38418e-15
5.35709e-15
5.64391e-15
5.69866e-15
5.48431e-15
5.22899e-15
5.29626e-15
5.2845e-15
4.7493e-15
4.43163e-15
4.24936e-15
3.76699e-15
3.32755e-15
2.8547e-15
2.33704e-15
1.63784e-15
1.49664e-15
9.41193e-16
-1.6557e-16
-7.98508e-16
-1.42077e-15
-2.50839e-15
-3.17439e-15
-3.44835e-15
-4.3995e-15
-5.8264e-15
-6.78916e-15
-7.02482e-15
-7.87738e-15
-8.97271e-15
-9.12165e-15
-9.69158e-15
-1.0811e-14
-1.11054e-14
-1.19135e-14
-1.28676e-14
-1.28766e-14
-1.37671e-14
-1.48096e-14
-1.52634e-14
-1.63449e-14
-1.73851e-14
-1.84283e-14
-1.89665e-14
-1.94436e-14
-2.02088e-14
-2.10321e-14
-2.17359e-14
-2.25962e-14
-2.35123e-14
-2.39521e-14
-2.53399e-14
-2.61318e-14
-2.6125e-14
-2.72406e-14
-2.79503e-14
-2.80375e-14
-2.86305e-14
-2.94581e-14
-3.02015e-14
-3.04504e-14
-3.09273e-14
-3.19484e-14
-3.23039e-14
-3.27947e-14
-3.3533e-14
-3.40024e-14
-3.48873e-14
-3.51347e-14
-3.527e-14
-3.60751e-14
-3.66762e-14
-3.71849e-14
-3.77773e-14
-3.85628e-14
-3.95264e-14
-4.07721e-14
-4.1413e-14
-4.18402e-14
-4.26921e-14
-4.31256e-14
-4.33138e-14
-4.42921e-14
-4.53214e-14
-4.57119e-14
-4.70973e-14
-4.78572e-14
-4.85207e-14
-4.9128e-14
-4.91922e-14
-5.01169e-14
-5.13212e-14
-5.20586e-14
-5.28198e-14
-5.33678e-14
-5.38937e-14
-5.51105e-14
-5.54293e-14
-5.62114e-14
-5.68585e-14
-5.76436e-14
-5.87342e-14
-5.94363e-14
-5.98145e-14
-6.04208e-14
-6.14175e-14
-6.20286e-14
-6.29554e-14
-6.37244e-14
-6.45318e-14
-6.5443e-14
-6.60292e-14
-6.62061e-14
-6.65565e-14
-6.69744e-14
-6.78491e-14
-6.85685e-14
-6.89158e-14
-7.00359e-14
-7.06816e-14
-7.11595e-14
-7.13724e-14
-7.19667e-14
-7.25078e-14
-7.29006e-14
-7.37877e-14
-7.45482e-14
-7.42696e-14
-7.46047e-14
-7.51119e-14
-7.48951e-14
-7.53507e-14
-7.56376e-14
-7.58925e-14
-7.63824e-14
-7.69964e-14
-7.67542e-14
-7.68126e-14
-7.75208e-14
-7.7469e-14
-7.76174e-14
-7.83005e-14
-7.82961e-14
-7.88401e-14
-7.93549e-14
-7.87441e-14
-7.91843e-14
-7.89207e-14
-7.94178e-14
-8.06677e-14
-7.99045e-14
-8.04965e-14
-8.19322e-14
-8.05796e-14
-8.05554e-14
-8.12728e-14
-8.10846e-14
-8.17088e-14
-8.12949e-14
-8.17455e-14
-8.25716e-14
-8.25402e-14
-8.20762e-14
-8.21461e-14
-8.24165e-14
-8.29054e-14
-8.32507e-14
-8.26248e-14
-8.37107e-14
-8.33421e-14
-8.27636e-14
-8.37992e-14
-8.35509e-14
-8.27493e-14
-8.34927e-14
-8.37213e-14
-8.36414e-14
-8.48964e-14
-8.41695e-14
-8.29306e-14
-8.38072e-14
-8.37937e-14
-8.36794e-14
-8.47479e-14
-8.41974e-14
-8.44348e-14
-8.54222e-14
-8.39779e-14
-8.36523e-14
-8.45202e-14
-8.36825e-14
-8.37113e-14
-8.48427e-14
-8.43086e-14
-8.34623e-14
-8.43115e-14
-8.42513e-14
-8.36625e-14
-8.40351e-14
-8.36519e-14
-8.35577e-14
-8.37605e-14
-8.40303e-14
-8.37333e-14
-8.30608e-14
-8.26404e-14
-8.28639e-14
-8.34215e-14
-8.26709e-14
-8.24285e-14
-8.259e-14
-8.30372e-14
-8.26046e-14
-8.12966e-14
-8.20316e-14
-8.25345e-14
-8.17577e-14
-8.25956e-14
-8.26984e-14
-8.14711e-14
-8.26012e-14
-8.20434e-14
-8.05503e-14
-8.09714e-14
-8.0632e-14
-8.01904e-14
-8.05103e-14
-8.06073e-14
-7.98622e-14
-7.91175e-14
-7.83336e-14
-7.82439e-14
-7.84761e-14
-7.76728e-14
-7.71118e-14
-7.75644e-14
-7.77904e-14
-7.69257e-14
-7.60986e-14
-7.53726e-14
-7.54605e-14
-7.58521e-14
-7.52646e-14
-7.52097e-14
-7.42341e-14
-7.43636e-14
-7.46755e-14
-7.29336e-14
-7.26374e-14
-7.2475e-14
-7.19554e-14
-7.16209e-14
-7.20507e-14
-7.09189e-14
-6.95179e-14
-6.91678e-14
-6.8924e-14
-6.88016e-14
-6.77706e-14
-6.74462e-14
-6.65656e-14
-6.67385e-14
-6.57485e-14
-6.4223e-14
-6.37067e-14
-6.35999e-14
-6.30869e-14
-6.2329e-14
-6.25268e-14
-6.10812e-14
-6.13037e-14
-6.10343e-14
-5.99601e-14
-5.9715e-14
-5.99409e-14
-5.93748e-14
-5.88325e-14
-5.98936e-14
-5.9278e-14
-5.75774e-14
-5.70556e-14
-5.71347e-14
-5.7188e-14
-5.75065e-14
-5.74677e-14
-5.53776e-14
-5.52136e-14
-5.57648e-14
-5.6689e-14
-5.62245e-14
-5.42958e-14
-5.52957e-14
-5.64066e-14
-5.62213e-14
-5.45138e-14
-5.53938e-14
-5.57403e-14
-5.52366e-14
-5.53371e-14
-5.47677e-14
-5.56082e-14
-5.63194e-14
-5.59103e-14
-5.46207e-14
-5.54195e-14
-5.7134e-14
-5.58392e-14
-5.5444e-14
-5.62154e-14
-5.65501e-14
-5.6356e-14
-5.62024e-14
-5.54177e-14
-5.56245e-14
-5.70561e-14
-5.55132e-14
-5.42462e-14
-5.55539e-14
-5.69458e-14
-5.51743e-14
-5.47695e-14
-5.43764e-14
-5.37484e-14
-5.49994e-14
-5.33683e-14
-5.32669e-14
-5.3486e-14
-5.40711e-14
-5.34643e-14
-5.24817e-14
-5.26711e-14
-5.20789e-14
-5.24801e-14
-5.1593e-14
-5.12953e-14
-5.05341e-14
-5.08309e-14
-5.02654e-14
-4.96905e-14
-5.01299e-14
-4.97315e-14
-4.91596e-14
-4.74903e-14
-4.88711e-14
-4.84723e-14
-4.77871e-14
-4.6947e-14
-4.50309e-14
-4.6072e-14
-4.60904e-14
-4.48579e-14
-4.37941e-14
-4.40912e-14
-4.34583e-14
-4.32196e-14
-4.26976e-14
-4.16163e-14
-4.19548e-14
-4.13198e-14
-4.06339e-14
-3.90929e-14
-3.93105e-14
-3.92742e-14
-3.83025e-14
-3.70089e-14
-3.60402e-14
-3.61899e-14
-3.41663e-14
-3.39468e-14
-3.30239e-14
-3.21413e-14
-3.19833e-14
-2.9495e-14
-2.80689e-14
-2.82918e-14
-2.7452e-14
-2.5061e-14
-2.41303e-14
-2.24758e-14
-2.08955e-14
-1.90028e-14
-1.50121e-14
-1.07555e-14
-8.19457e-15
-1.22725e-14
-1.59318e-14
-1.87983e-14
-2.08039e-14
-2.21534e-14
-2.30876e-14
-2.37846e-14
-2.4366e-14
-2.47445e-14
-2.49636e-14
-2.51265e-14
-2.53285e-14
-2.54459e-14
-2.55628e-14
-2.55509e-14
-2.54529e-14
-2.54151e-14
-2.53522e-14
-2.5241e-14
-2.52199e-14
-2.49994e-14
-2.47573e-14
-2.4451e-14
-2.41577e-14
-2.38312e-14
-2.36789e-14
-2.34246e-14
-2.30024e-14
-2.27001e-14
-2.24048e-14
-2.21036e-14
-2.17451e-14
-2.14132e-14
-2.13442e-14
-2.12118e-14
-2.08934e-14
-2.06949e-14
-2.05029e-14
-2.00027e-14
-1.96989e-14
-1.9394e-14
-1.90252e-14
-1.87283e-14
-1.83897e-14
-1.81333e-14
-1.7821e-14
-1.7359e-14
-1.71285e-14
-1.69364e-14
-1.65222e-14
-1.6002e-14
-1.54841e-14
-1.51899e-14
-1.47757e-14
-1.42498e-14
-1.39553e-14
-1.34423e-14
-1.29257e-14
-1.25916e-14
-1.21719e-14
-1.18597e-14
-1.14384e-14
-1.11202e-14
-1.09103e-14
-1.05428e-14
-1.02656e-14
-9.96627e-15
-9.66878e-15
-9.23855e-15
-8.8139e-15
-8.45105e-15
-8.26048e-15
-7.95269e-15
-7.64967e-15
-7.55741e-15
-7.19415e-15
-6.74037e-15
-6.48777e-15
-6.32461e-15
-6.01885e-15
-5.57637e-15
-5.25558e-15
-4.90913e-15
-4.66226e-15
-4.36373e-15
-4.15231e-15
-4.00437e-15
-3.58955e-15
-3.37217e-15
-3.07141e-15
-2.663e-15
-2.36811e-15
-1.91137e-15
-1.37185e-15
-8.32102e-16
-5.35026e-16
-2.60614e-16
4.74722e-16
9.2952e-16
1.05559e-15
1.51936e-15
2.16902e-15
2.69566e-15
2.89207e-15
3.08266e-15
3.56649e-15
3.78465e-15
3.66526e-15
3.89311e-15
4.41958e-15
4.69695e-15
4.84953e-15
4.96883e-15
5.32534e-15
5.66752e-15
5.57358e-15
5.3859e-15
5.44234e-15
5.67834e-15
5.72315e-15
5.51981e-15
5.33517e-15
5.28229e-15
5.11916e-15
4.8385e-15
4.52531e-15
4.19989e-15
3.80643e-15
3.34312e-15
2.78407e-15
2.34137e-15
1.79693e-15
1.43508e-15
8.54772e-16
-9.48879e-17
-7.19399e-16
-1.48099e-15
-2.46912e-15
-3.13414e-15
-3.60184e-15
-4.47341e-15
-5.82549e-15
-6.70997e-15
-6.9874e-15
-7.85147e-15
-8.90611e-15
-9.20621e-15
-9.75775e-15
-1.06763e-14
-1.1188e-14
-1.20025e-14
-1.26813e-14
-1.29561e-14
-1.38041e-14
-1.47253e-14
-1.54136e-14
-1.63599e-14
-1.7295e-14
-1.8334e-14
-1.89766e-14
-1.94859e-14
-2.02644e-14
-2.10011e-14
-2.17402e-14
-2.25868e-14
-2.34381e-14
-2.41675e-14
-2.52194e-14
-2.60381e-14
-2.63477e-14
-2.70554e-14
-2.77644e-14
-2.83347e-14
-2.86226e-14
-2.94008e-14
-3.01853e-14
-3.03913e-14
-3.09604e-14
-3.19226e-14
-3.23871e-14
-3.28576e-14
-3.35481e-14
-3.40295e-14
-3.4722e-14
-3.51373e-14
-3.5409e-14
-3.59919e-14
-3.67194e-14
-3.7193e-14
-3.78261e-14
-3.86523e-14
-3.96338e-14
-4.06602e-14
-4.1244e-14
-4.18899e-14
-4.2647e-14
-4.29856e-14
-4.35327e-14
-4.45199e-14
-4.51961e-14
-4.5744e-14
-4.69795e-14
-4.77485e-14
-4.85149e-14
-4.92211e-14
-4.92771e-14
-5.00554e-14
-5.12735e-14
-5.21425e-14
-5.27768e-14
-5.34347e-14
-5.40333e-14
-5.49461e-14
-5.54961e-14
-5.63118e-14
-5.67806e-14
-5.76335e-14
-5.86793e-14
-5.9219e-14
-5.9809e-14
-6.06012e-14
-6.15297e-14
-6.21481e-14
-6.28747e-14
-6.36614e-14
-6.44362e-14
-6.53398e-14
-6.59894e-14
-6.61261e-14
-6.66795e-14
-6.72533e-14
-6.7731e-14
-6.85593e-14
-6.90286e-14
-6.98917e-14
-7.06646e-14
-7.10154e-14
-7.15203e-14
-7.19774e-14
-7.25587e-14
-7.30633e-14
-7.35981e-14
-7.43886e-14
-7.43729e-14
-7.46321e-14
-7.49655e-14
-7.50302e-14
-7.54392e-14
-7.58313e-14
-7.58909e-14
-7.62424e-14
-7.67179e-14
-7.68217e-14
-7.68835e-14
-7.73895e-14
-7.76487e-14
-7.78062e-14
-7.81762e-14
-7.82622e-14
-7.88065e-14
-7.92314e-14
-7.90304e-14
-7.90934e-14
-7.89127e-14
-7.93918e-14
-8.05717e-14
-8.02286e-14
-8.04467e-14
-8.14763e-14
-8.08673e-14
-8.076e-14
-8.11841e-14
-8.11898e-14
-8.14353e-14
-8.16125e-14
-8.17312e-14
-8.21702e-14
-8.24275e-14
-8.23688e-14
-8.2274e-14
-8.23674e-14
-8.29003e-14
-8.32553e-14
-8.2666e-14
-8.3436e-14
-8.351e-14
-8.29189e-14
-8.36545e-14
-8.33927e-14
-8.28556e-14
-8.35221e-14
-8.37734e-14
-8.37507e-14
-8.4571e-14
-8.40104e-14
-8.34088e-14
-8.38255e-14
-8.37423e-14
-8.38888e-14
-8.43934e-14
-8.44964e-14
-8.4394e-14
-8.49661e-14
-8.42534e-14
-8.38294e-14
-8.42089e-14
-8.3903e-14
-8.39109e-14
-8.44307e-14
-8.43003e-14
-8.37524e-14
-8.42038e-14
-8.42611e-14
-8.37827e-14
-8.37689e-14
-8.38076e-14
-8.37599e-14
-8.35946e-14
-8.38038e-14
-8.36843e-14
-8.30795e-14
-8.29694e-14
-8.30919e-14
-8.30544e-14
-8.26741e-14
-8.26279e-14
-8.26119e-14
-8.26254e-14
-8.24386e-14
-8.17391e-14
-8.20192e-14
-8.23709e-14
-8.21115e-14
-8.23024e-14
-8.24194e-14
-8.20402e-14
-8.22322e-14
-8.18434e-14
-8.1113e-14
-8.08844e-14
-8.04245e-14
-8.05751e-14
-8.04061e-14
-8.00793e-14
-7.99789e-14
-7.92654e-14
-7.85328e-14
-7.85006e-14
-7.83135e-14
-7.74554e-14
-7.74996e-14
-7.746e-14
-7.72657e-14
-7.70243e-14
-7.62513e-14
-7.56138e-14
-7.56341e-14
-7.55217e-14
-7.52762e-14
-7.52465e-14
-7.42972e-14
-7.42715e-14
-7.44084e-14
-7.32663e-14
-7.26767e-14
-7.2426e-14
-7.20383e-14
-7.16526e-14
-7.16449e-14
-7.072e-14
-6.97965e-14
-6.95046e-14
-6.90031e-14
-6.85052e-14
-6.77813e-14
-6.74068e-14
-6.68105e-14
-6.65644e-14
-6.54735e-14
-6.43723e-14
-6.39106e-14
-6.36199e-14
-6.29604e-14
-6.22527e-14
-6.2585e-14
-6.13157e-14
-6.08018e-14
-6.10046e-14
-6.0298e-14
-5.95561e-14
-5.97628e-14
-5.95777e-14
-5.90069e-14
-5.97002e-14
-5.88963e-14
-5.75745e-14
-5.76182e-14
-5.74445e-14
-5.70504e-14
-5.72185e-14
-5.71362e-14
-5.56886e-14
-5.55853e-14
-5.55805e-14
-5.61472e-14
-5.64014e-14
-5.47698e-14
-5.49867e-14
-5.61628e-14
-5.62645e-14
-5.48079e-14
-5.53805e-14
-5.55883e-14
-5.5207e-14
-5.52123e-14
-5.49567e-14
-5.5776e-14
-5.59289e-14
-5.57624e-14
-5.513e-14
-5.5556e-14
-5.65485e-14
-5.61251e-14
-5.5727e-14
-5.59075e-14
-5.65572e-14
-5.63179e-14
-5.60796e-14
-5.55913e-14
-5.57017e-14
-5.66463e-14
-5.5842e-14
-5.45449e-14
-5.52189e-14
-5.66076e-14
-5.54138e-14
-5.48161e-14
-5.44612e-14
-5.39937e-14
-5.44233e-14
-5.35897e-14
-5.33207e-14
-5.36299e-14
-5.39633e-14
-5.33081e-14
-5.27435e-14
-5.26018e-14
-5.22371e-14
-5.2296e-14
-5.1471e-14
-5.10243e-14
-5.09655e-14
-5.07243e-14
-5.01184e-14
-4.99519e-14
-5.00033e-14
-4.95474e-14
-4.91971e-14
-4.79043e-14
-4.84718e-14
-4.87125e-14
-4.75896e-14
-4.65196e-14
-4.58214e-14
-4.6155e-14
-4.54198e-14
-4.48134e-14
-4.44312e-14
-4.38779e-14
-4.34484e-14
-4.32076e-14
-4.27326e-14
-4.18866e-14
-4.16499e-14
-4.12049e-14
-4.02972e-14
-3.94147e-14
-3.97119e-14
-3.89503e-14
-3.79416e-14
-3.73925e-14
-3.6375e-14
-3.56494e-14
-3.43831e-14
-3.40153e-14
-3.31061e-14
-3.24225e-14
-3.13744e-14
-2.94779e-14
-2.87748e-14
-2.8371e-14
-2.68441e-14
-2.53473e-14
-2.42495e-14
-2.25782e-14
-2.09824e-14
-1.89542e-14
-1.58141e-14
-1.23026e-14
-1.18124e-14
-1.39689e-14
-1.67696e-14
-1.93302e-14
-2.1148e-14
-2.23738e-14
-2.33236e-14
-2.39007e-14
-2.44427e-14
-2.48585e-14
-2.50647e-14
-2.51955e-14
-2.54178e-14
-2.55038e-14
-2.56035e-14
-2.55434e-14
-2.5433e-14
-2.54976e-14
-2.5413e-14
-2.52252e-14
-2.53066e-14
-2.50413e-14
-2.47433e-14
-2.44629e-14
-2.41934e-14
-2.38056e-14
-2.36816e-14
-2.34262e-14
-2.30477e-14
-2.27216e-14
-2.24166e-14
-2.2102e-14
-2.17349e-14
-2.14023e-14
-2.13709e-14
-2.12742e-14
-2.09153e-14
-2.07537e-14
-2.05186e-14
-1.99974e-14
-1.97056e-14
-1.94383e-14
-1.90492e-14
-1.87292e-14
-1.83375e-14
-1.8122e-14
-1.78142e-14
-1.73734e-14
-1.71161e-14
-1.69189e-14
-1.65584e-14
-1.60419e-14
-1.55053e-14
-1.5174e-14
-1.47265e-14
-1.43029e-14
-1.39668e-14
-1.34655e-14
-1.29154e-14
-1.25568e-14
-1.21272e-14
-1.18996e-14
-1.14698e-14
-1.10459e-14
-1.09189e-14
-1.05372e-14
-1.0296e-14
-9.97476e-15
-9.64762e-15
-9.25591e-15
-8.81089e-15
-8.4328e-15
-8.21834e-15
-7.98501e-15
-7.69391e-15
-7.51547e-15
-7.19683e-15
-6.76543e-15
-6.45801e-15
-6.31976e-15
-6.05329e-15
-5.56727e-15
-5.23557e-15
-4.89269e-15
-4.70285e-15
-4.32581e-15
-4.17384e-15
-4.02867e-15
-3.58381e-15
-3.41387e-15
-3.09277e-15
-2.61995e-15
-2.34638e-15
-1.9045e-15
-1.35345e-15
-9.80792e-16
-5.03315e-16
-1.77935e-16
5.1675e-16
8.83539e-16
1.0871e-15
1.50588e-15
2.19346e-15
2.73957e-15
2.90404e-15
3.00163e-15
3.59158e-15
3.813e-15
3.68938e-15
3.97704e-15
4.42565e-15
4.6084e-15
4.82057e-15
5.16048e-15
5.37138e-15
5.55166e-15
5.54612e-15
5.49279e-15
5.48014e-15
5.68287e-15
5.7005e-15
5.64386e-15
5.40735e-15
5.23749e-15
5.06317e-15
4.91171e-15
4.49137e-15
4.2256e-15
3.93762e-15
3.33467e-15
2.7553e-15
2.34519e-15
1.87609e-15
1.40132e-15
7.87995e-16
-3.31092e-17
-6.5319e-16
-1.52726e-15
-2.46938e-15
-3.02672e-15
-3.7296e-15
-4.55127e-15
-5.77772e-15
-6.64785e-15
-6.97794e-15
-7.83594e-15
-8.86181e-15
-9.19916e-15
-9.9287e-15
-1.06766e-14
-1.12225e-14
-1.20294e-14
-1.25253e-14
-1.3001e-14
-1.38353e-14
-1.46805e-14
-1.54668e-14
-1.63634e-14
-1.73003e-14
-1.83198e-14
-1.90046e-14
-1.95137e-14
-2.01849e-14
-2.09801e-14
-2.1742e-14
-2.25936e-14
-2.34189e-14
-2.42384e-14
-2.5205e-14
-2.59919e-14
-2.63886e-14
-2.70296e-14
-2.76986e-14
-2.83998e-14
-2.87064e-14
-2.94199e-14
-3.00468e-14
-3.03541e-14
-3.09966e-14
-3.18689e-14
-3.24602e-14
-3.29021e-14
-3.36744e-14
-3.40868e-14
-3.45111e-14
-3.51274e-14
-3.55898e-14
-3.59072e-14
-3.67174e-14
-3.72439e-14
-3.78405e-14
-3.87328e-14
-3.96381e-14
-4.05987e-14
-4.12467e-14
-4.17807e-14
-4.25331e-14
-4.30708e-14
-4.36635e-14
-4.46375e-14
-4.51777e-14
-4.57742e-14
-4.67736e-14
-4.76827e-14
-4.85427e-14
-4.91684e-14
-4.93828e-14
-5.01268e-14
-5.12365e-14
-5.22075e-14
-5.27665e-14
-5.33482e-14
-5.41853e-14
-5.49723e-14
-5.54746e-14
-5.63839e-14
-5.68049e-14
-5.75851e-14
-5.85379e-14
-5.9065e-14
-5.98582e-14
-6.07667e-14
-6.15598e-14
-6.22653e-14
-6.27811e-14
-6.36403e-14
-6.44549e-14
-6.51079e-14
-6.58968e-14
-6.62531e-14
-6.68164e-14
-6.73548e-14
-6.78038e-14
-6.84378e-14
-6.90182e-14
-6.98203e-14
-7.06105e-14
-7.10248e-14
-7.16249e-14
-7.18915e-14
-7.26771e-14
-7.32179e-14
-7.34977e-14
-7.42646e-14
-7.4353e-14
-7.47931e-14
-7.48727e-14
-7.49745e-14
-7.55432e-14
-7.59827e-14
-7.58631e-14
-7.61835e-14
-7.64779e-14
-7.68666e-14
-7.70715e-14
-7.72172e-14
-7.76736e-14
-7.79518e-14
-7.81871e-14
-7.81752e-14
-7.87811e-14
-7.9157e-14
-7.91101e-14
-7.90812e-14
-7.90281e-14
-7.94026e-14
-8.04044e-14
-8.04815e-14
-8.04223e-14
-8.11332e-14
-8.09871e-14
-8.09153e-14
-8.12981e-14
-8.12073e-14
-8.12056e-14
-8.18918e-14
-8.17691e-14
-8.17402e-14
-8.2383e-14
-8.25292e-14
-8.23504e-14
-8.24364e-14
-8.29357e-14
-8.31887e-14
-8.27048e-14
-8.33239e-14
-8.35407e-14
-8.3006e-14
-8.35252e-14
-8.33952e-14
-8.28871e-14
-8.3471e-14
-8.40027e-14
-8.37489e-14
-8.42272e-14
-8.39709e-14
-8.36469e-14
-8.39146e-14
-8.38178e-14
-8.39092e-14
-8.42257e-14
-8.4739e-14
-8.44033e-14
-8.4576e-14
-8.44001e-14
-8.39097e-14
-8.41381e-14
-8.4105e-14
-8.388e-14
-8.41627e-14
-8.44092e-14
-8.39568e-14
-8.40245e-14
-8.4269e-14
-8.39049e-14
-8.36967e-14
-8.37295e-14
-8.38607e-14
-8.3636e-14
-8.36304e-14
-8.36228e-14
-8.31285e-14
-8.3248e-14
-8.31459e-14
-8.29505e-14
-8.25226e-14
-8.26936e-14
-8.27291e-14
-8.237e-14
-8.22752e-14
-8.19409e-14
-8.21031e-14
-8.2304e-14
-8.22306e-14
-8.20582e-14
-8.25236e-14
-8.21918e-14
-8.19631e-14
-8.18885e-14
-8.12899e-14
-8.09298e-14
-8.05024e-14
-8.0577e-14
-8.03922e-14
-8.00068e-14
-7.97844e-14
-7.93811e-14
-7.88591e-14
-7.84669e-14
-7.824e-14
-7.75432e-14
-7.74589e-14
-7.74635e-14
-7.70786e-14
-7.68844e-14
-7.6473e-14
-7.58694e-14
-7.57436e-14
-7.52252e-14
-7.52196e-14
-7.53163e-14
-7.43978e-14
-7.41564e-14
-7.42592e-14
-7.34209e-14
-7.28054e-14
-7.2532e-14
-7.19715e-14
-7.16553e-14
-7.13233e-14
-7.05594e-14
-7.00949e-14
-6.96404e-14
-6.90224e-14
-6.84848e-14
-6.77366e-14
-6.73402e-14
-6.71047e-14
-6.63329e-14
-6.52932e-14
-6.45109e-14
-6.40676e-14
-6.34789e-14
-6.28971e-14
-6.23147e-14
-6.24627e-14
-6.14863e-14
-6.06637e-14
-6.08282e-14
-6.04115e-14
-5.95813e-14
-5.9523e-14
-5.96587e-14
-5.93117e-14
-5.94124e-14
-5.86987e-14
-5.77745e-14
-5.77744e-14
-5.76774e-14
-5.71792e-14
-5.6862e-14
-5.67682e-14
-5.60128e-14
-5.58205e-14
-5.56421e-14
-5.58173e-14
-5.61534e-14
-5.51274e-14
-5.50889e-14
-5.57505e-14
-5.61986e-14
-5.51674e-14
-5.51635e-14
-5.54523e-14
-5.52854e-14
-5.51521e-14
-5.51562e-14
-5.58526e-14
-5.5579e-14
-5.56413e-14
-5.55038e-14
-5.5689e-14
-5.62735e-14
-5.61938e-14
-5.5672e-14
-5.59039e-14
-5.67458e-14
-5.61617e-14
-5.59772e-14
-5.58777e-14
-5.55982e-14
-5.62737e-14
-5.60561e-14
-5.48737e-14
-5.51544e-14
-5.6169e-14
-5.54431e-14
-5.48239e-14
-5.46419e-14
-5.41944e-14
-5.39954e-14
-5.37491e-14
-5.34799e-14
-5.36625e-14
-5.38468e-14
-5.31522e-14
-5.28696e-14
-5.27176e-14
-5.2472e-14
-5.19224e-14
-5.13534e-14
-5.11779e-14
-5.11059e-14
-5.06554e-14
-5.0055e-14
-4.98916e-14
-4.98982e-14
-4.96425e-14
-4.91073e-14
-4.82737e-14
-4.84371e-14
-4.86225e-14
-4.73338e-14
-4.63626e-14
-4.63712e-14
-4.62048e-14
-4.52054e-14
-4.45965e-14
-4.46068e-14
-4.39809e-14
-4.3564e-14
-4.30662e-14
-4.26315e-14
-4.2108e-14
-4.15055e-14
-4.11612e-14
-4.01298e-14
-3.96132e-14
-3.98749e-14
-3.88297e-14
-3.75834e-14
-3.76269e-14
-3.68636e-14
-3.53434e-14
-3.44007e-14
-3.41837e-14
-3.32979e-14
-3.24315e-14
-3.09981e-14
-2.95129e-14
-2.91814e-14
-2.85913e-14
-2.67662e-14
-2.53293e-14
-2.43387e-14
-2.30472e-14
-2.1078e-14
-1.92016e-14
-1.68786e-14
-1.40716e-14
-1.45701e-14
-1.57219e-14
-1.77659e-14
-2.00574e-14
-2.15786e-14
-2.2706e-14
-2.36203e-14
-2.40974e-14
-2.46033e-14
-2.49811e-14
-2.51075e-14
-2.52641e-14
-2.55315e-14
-2.56249e-14
-2.56395e-14
-2.55129e-14
-2.54706e-14
-2.55323e-14
-2.54857e-14
-2.52853e-14
-2.52627e-14
-2.49981e-14
-2.48032e-14
-2.44837e-14
-2.42221e-14
-2.38009e-14
-2.37498e-14
-2.34506e-14
-2.30344e-14
-2.27998e-14
-2.24261e-14
-2.20614e-14
-2.17029e-14
-2.14003e-14
-2.13739e-14
-2.1379e-14
-2.09951e-14
-2.07338e-14
-2.05151e-14
-2.00604e-14
-1.97061e-14
-1.94478e-14
-1.90893e-14
-1.87628e-14
-1.83325e-14
-1.8136e-14
-1.78217e-14
-1.74011e-14
-1.7093e-14
-1.69277e-14
-1.65911e-14
-1.60717e-14
-1.55047e-14
-1.51881e-14
-1.47323e-14
-1.42905e-14
-1.39167e-14
-1.35034e-14
-1.29268e-14
-1.2533e-14
-1.20976e-14
-1.18483e-14
-1.15098e-14
-1.10094e-14
-1.08413e-14
-1.05223e-14
-1.03348e-14
-1.00371e-14
-9.62836e-15
-9.21942e-15
-8.82622e-15
-8.43153e-15
-8.14389e-15
-8.00686e-15
-7.74641e-15
-7.43682e-15
-7.17228e-15
-6.80207e-15
-6.5046e-15
-6.34996e-15
-6.01194e-15
-5.54744e-15
-5.25505e-15
-4.9153e-15
-4.63686e-15
-4.33706e-15
-4.17319e-15
-3.97952e-15
-3.56512e-15
-3.4308e-15
-3.14676e-15
-2.59502e-15
-2.35954e-15
-1.9201e-15
-1.35601e-15
-1.04182e-15
-5.18885e-16
-2.74211e-17
5.142e-16
7.66575e-16
1.13011e-15
1.57264e-15
2.16915e-15
2.77382e-15
2.87532e-15
2.95857e-15
3.62312e-15
3.73628e-15
3.7561e-15
4.0781e-15
4.41262e-15
4.65921e-15
4.79776e-15
5.27654e-15
5.41122e-15
5.41716e-15
5.57547e-15
5.58606e-15
5.50952e-15
5.5811e-15
5.68366e-15
5.69734e-15
5.46179e-15
5.20832e-15
5.13745e-15
4.93993e-15
4.36369e-15
4.31393e-15
4.0755e-15
3.32772e-15
2.83373e-15
2.32506e-15
1.96644e-15
1.38099e-15
7.44138e-16
-1.27775e-17
-6.77527e-16
-1.50611e-15
-2.42512e-15
-2.95996e-15
-3.72109e-15
-4.6667e-15
-5.71879e-15
-6.55683e-15
-7.11199e-15
-7.83591e-15
-8.72734e-15
-9.24512e-15
-1.01067e-14
-1.07603e-14
-1.1254e-14
-1.19133e-14
-1.23829e-14
-1.29997e-14
-1.38904e-14
-1.4622e-14
-1.54624e-14
-1.64671e-14
-1.7323e-14
-1.82889e-14
-1.9074e-14
-1.94966e-14
-2.01508e-14
-2.10025e-14
-2.17015e-14
-2.26439e-14
-2.34948e-14
-2.4205e-14
-2.52092e-14
-2.59539e-14
-2.63058e-14
-2.7117e-14
-2.77554e-14
-2.83086e-14
-2.88019e-14
-2.94742e-14
-2.99193e-14
-3.04117e-14
-3.10065e-14
-3.17675e-14
-3.24896e-14
-3.29413e-14
-3.38468e-14
-3.41653e-14
-3.43995e-14
-3.51002e-14
-3.56338e-14
-3.58862e-14
-3.66651e-14
-3.73668e-14
-3.78586e-14
-3.87506e-14
-3.96732e-14
-4.04957e-14
-4.13516e-14
-4.16349e-14
-4.24019e-14
-4.32647e-14
-4.375e-14
-4.45182e-14
-4.52266e-14
-4.58039e-14
-4.66089e-14
-4.76923e-14
-4.85417e-14
-4.90266e-14
-4.95794e-14
-5.022e-14
-5.12723e-14
-5.22015e-14
-5.27827e-14
-5.33019e-14
-5.41636e-14
-5.49822e-14
-5.56111e-14
-5.63984e-14
-5.69045e-14
-5.74558e-14
-5.82777e-14
-5.90654e-14
-5.99619e-14
-6.07447e-14
-6.15418e-14
-6.23481e-14
-6.27533e-14
-6.36807e-14
-6.4446e-14
-6.49043e-14
-6.58282e-14
-6.65357e-14
-6.68547e-14
-6.72542e-14
-6.79276e-14
-6.83722e-14
-6.90616e-14
-6.97074e-14
-7.04337e-14
-7.11872e-14
-7.16605e-14
-7.18991e-14
-7.27832e-14
-7.32329e-14
-7.35614e-14
-7.416e-14
-7.43649e-14
-7.49576e-14
-7.4846e-14
-7.49027e-14
-7.55256e-14
-7.59569e-14
-7.58562e-14
-7.6284e-14
-7.63603e-14
-7.68332e-14
-7.72591e-14
-7.71844e-14
-7.75131e-14
-7.80088e-14
-7.82598e-14
-7.82482e-14
-7.86694e-14
-7.89978e-14
-7.91627e-14
-7.91041e-14
-7.92532e-14
-7.95285e-14
-8.02035e-14
-8.04269e-14
-8.04664e-14
-8.09338e-14
-8.10526e-14
-8.10939e-14
-8.13037e-14
-8.1203e-14
-8.12344e-14
-8.18666e-14
-8.1743e-14
-8.17156e-14
-8.23589e-14
-8.24163e-14
-8.23846e-14
-8.25958e-14
-8.28503e-14
-8.30813e-14
-8.2908e-14
-8.32327e-14
-8.33962e-14
-8.31573e-14
-8.33431e-14
-8.34531e-14
-8.30606e-14
-8.34765e-14
-8.40013e-14
-8.37087e-14
-8.39264e-14
-8.40691e-14
-8.37041e-14
-8.381e-14
-8.39898e-14
-8.39432e-14
-8.42114e-14
-8.47447e-14
-8.44324e-14
-8.43216e-14
-8.45581e-14
-8.40061e-14
-8.40874e-14
-8.42707e-14
-8.37502e-14
-8.40901e-14
-8.44561e-14
-8.40298e-14
-8.38677e-14
-8.43222e-14
-8.38964e-14
-8.3741e-14
-8.38415e-14
-8.37759e-14
-8.3636e-14
-8.34555e-14
-8.35194e-14
-8.32449e-14
-8.33489e-14
-8.30582e-14
-8.30015e-14
-8.25976e-14
-8.27818e-14
-8.26639e-14
-8.21846e-14
-8.21976e-14
-8.20537e-14
-8.20849e-14
-8.22856e-14
-8.22664e-14
-8.21131e-14
-8.26492e-14
-8.20307e-14
-8.19412e-14
-8.20019e-14
-8.11479e-14
-8.10514e-14
-8.07576e-14
-8.04288e-14
-8.04193e-14
-8.01221e-14
-7.95835e-14
-7.95529e-14
-7.90257e-14
-7.82835e-14
-7.83434e-14
-7.78477e-14
-7.71587e-14
-7.74006e-14
-7.72268e-14
-7.68281e-14
-7.66578e-14
-7.5968e-14
-7.56406e-14
-7.52217e-14
-7.51903e-14
-7.52764e-14
-7.44954e-14
-7.41768e-14
-7.41195e-14
-7.34476e-14
-7.30182e-14
-7.26886e-14
-7.18191e-14
-7.16866e-14
-7.12489e-14
-7.051e-14
-7.03041e-14
-6.95438e-14
-6.88803e-14
-6.85983e-14
-6.78648e-14
-6.71903e-14
-6.71085e-14
-6.6194e-14
-6.5288e-14
-6.47026e-14
-6.40566e-14
-6.32418e-14
-6.29263e-14
-6.25065e-14
-6.21847e-14
-6.1457e-14
-6.09119e-14
-6.06082e-14
-6.01279e-14
-5.98073e-14
-5.95878e-14
-5.94093e-14
-5.94126e-14
-5.92001e-14
-5.87802e-14
-5.81954e-14
-5.7692e-14
-5.75275e-14
-5.73701e-14
-5.66798e-14
-5.65062e-14
-5.6231e-14
-5.59067e-14
-5.59039e-14
-5.56956e-14
-5.57676e-14
-5.54274e-14
-5.5292e-14
-5.52885e-14
-5.58946e-14
-5.55585e-14
-5.50262e-14
-5.54108e-14
-5.54037e-14
-5.52271e-14
-5.52437e-14
-5.56286e-14
-5.5383e-14
-5.5595e-14
-5.58473e-14
-5.57692e-14
-5.60169e-14
-5.60628e-14
-5.57302e-14
-5.60205e-14
-5.68266e-14
-5.61016e-14
-5.58928e-14
-5.61088e-14
-5.55799e-14
-5.59318e-14
-5.60121e-14
-5.53926e-14
-5.52179e-14
-5.55494e-14
-5.53016e-14
-5.49104e-14
-5.48887e-14
-5.42122e-14
-5.37076e-14
-5.39869e-14
-5.38107e-14
-5.36365e-14
-5.3483e-14
-5.31334e-14
-5.3084e-14
-5.26257e-14
-5.23972e-14
-5.17711e-14
-5.16288e-14
-5.1526e-14
-5.0969e-14
-5.0404e-14
-5.01419e-14
-4.99614e-14
-4.9603e-14
-4.95991e-14
-4.91432e-14
-4.87174e-14
-4.847e-14
-4.80951e-14
-4.71873e-14
-4.67309e-14
-4.65503e-14
-4.59548e-14
-4.52939e-14
-4.47184e-14
-4.45035e-14
-4.40244e-14
-4.36843e-14
-4.28992e-14
-4.25041e-14
-4.21231e-14
-4.1361e-14
-4.12155e-14
-4.04743e-14
-3.96464e-14
-3.9505e-14
-3.88804e-14
-3.7695e-14
-3.76484e-14
-3.70198e-14
-3.52836e-14
-3.46638e-14
-3.44008e-14
-3.3269e-14
-3.209e-14
-3.10859e-14
-2.98938e-14
-2.93243e-14
-2.85837e-14
-2.70817e-14
-2.54452e-14
-2.45291e-14
-2.35584e-14
-2.13116e-14
-1.9678e-14
-1.79532e-14
-1.58258e-14
-1.66651e-14
-1.73495e-14
-1.88774e-14
-2.09772e-14
-2.21485e-14
-2.30677e-14
-2.39418e-14
-2.43261e-14
-2.48614e-14
-2.52346e-14
-2.52063e-14
-2.527e-14
-2.56259e-14
-2.58092e-14
-2.56792e-14
-2.56462e-14
-2.55024e-14
-2.55088e-14
-2.55385e-14
-2.5285e-14
-2.52398e-14
-2.50865e-14
-2.48701e-14
-2.45379e-14
-2.42561e-14
-2.38744e-14
-2.37551e-14
-2.34226e-14
-2.30034e-14
-2.29149e-14
-2.23704e-14
-2.20044e-14
-2.16926e-14
-2.14288e-14
-2.14242e-14
-2.14615e-14
-2.10607e-14
-2.06783e-14
-2.05183e-14
-2.00524e-14
-1.97563e-14
-1.94836e-14
-1.91159e-14
-1.88352e-14
-1.83375e-14
-1.81464e-14
-1.78477e-14
-1.73953e-14
-1.70672e-14
-1.69202e-14
-1.66635e-14
-1.6064e-14
-1.55269e-14
-1.52327e-14
-1.47739e-14
-1.43212e-14
-1.39424e-14
-1.34632e-14
-1.28705e-14
-1.26471e-14
-1.21144e-14
-1.17794e-14
-1.14474e-14
-1.08856e-14
-1.07956e-14
-1.05389e-14
-1.03585e-14
-1.00999e-14
-9.59462e-15
-9.21332e-15
-8.87786e-15
-8.4248e-15
-8.02056e-15
-8.05718e-15
-7.79169e-15
-7.30631e-15
-7.18255e-15
-6.82033e-15
-6.52127e-15
-6.27941e-15
-6.04499e-15
-5.57704e-15
-5.30103e-15
-4.92693e-15
-4.65914e-15
-4.30722e-15
-4.11222e-15
-3.96953e-15
-3.5447e-15
-3.43337e-15
-3.0717e-15
-2.663e-15
-2.3784e-15
-1.86408e-15
-1.45469e-15
-1.10418e-15
-4.71569e-16
6.33545e-18
4.19586e-16
6.7045e-16
1.27251e-15
1.69909e-15
2.20399e-15
2.8141e-15
2.85213e-15
2.90081e-15
3.56291e-15
3.76368e-15
3.78005e-15
4.0855e-15
4.39989e-15
4.79862e-15
4.80639e-15
5.2421e-15
5.32998e-15
5.43574e-15
5.59267e-15
5.67778e-15
5.53849e-15
5.53038e-15
5.61836e-15
5.70593e-15
5.55203e-15
5.20755e-15
5.18598e-15
4.94994e-15
4.38527e-15
4.39967e-15
4.14055e-15
3.36943e-15
2.87517e-15
2.47926e-15
2.13102e-15
1.30083e-15
6.54573e-16
8.02047e-17
-6.77868e-16
-1.42756e-15
-2.31233e-15
-3.06956e-15
-3.60566e-15
-4.81239e-15
-5.66772e-15
-6.48252e-15
-7.27919e-15
-7.76796e-15
-8.48651e-15
-9.45255e-15
-1.03983e-14
-1.0734e-14
-1.128e-14
-1.18673e-14
-1.22858e-14
-1.29692e-14
-1.39447e-14
-1.45584e-14
-1.54323e-14
-1.65581e-14
-1.73164e-14
-1.82463e-14
-1.90266e-14
-1.9473e-14
-2.0284e-14
-2.10495e-14
-2.1572e-14
-2.26529e-14
-2.36317e-14
-2.43138e-14
-2.51625e-14
-2.58511e-14
-2.62872e-14
-2.71821e-14
-2.7729e-14
-2.83269e-14
-2.88098e-14
-2.94309e-14
-2.994e-14
-3.05379e-14
-3.09601e-14
-3.16144e-14
-3.24427e-14
-3.30214e-14
-3.384e-14
-3.41913e-14
-3.45165e-14
-3.51464e-14
-3.54724e-14
-3.59515e-14
-3.66549e-14
-3.73496e-14
-3.79806e-14
-3.88486e-14
-3.96786e-14
-4.04692e-14
-4.14227e-14
-4.15177e-14
-4.23395e-14
-4.33304e-14
-4.38345e-14
-4.44595e-14
-4.52255e-14
-4.58749e-14
-4.6608e-14
-4.76849e-14
-4.84398e-14
-4.88637e-14
-4.96217e-14
-5.02729e-14
-5.12091e-14
-5.23274e-14
-5.27969e-14
-5.33137e-14
-5.41867e-14
-5.48415e-14
-5.58488e-14
-5.64043e-14
-5.69909e-14
-5.72972e-14
-5.80602e-14
-5.90409e-14
-6.00324e-14
-6.07835e-14
-6.15853e-14
-6.22814e-14
-6.28221e-14
-6.3871e-14
-6.43444e-14
-6.48774e-14
-6.57198e-14
-6.67159e-14
-6.6913e-14
-6.71707e-14
-6.7851e-14
-6.84804e-14
-6.91529e-14
-6.95916e-14
-7.02936e-14
-7.13598e-14
-7.16567e-14
-7.18451e-14
-7.28379e-14
-7.32313e-14
-7.37056e-14
-7.39761e-14
-7.4469e-14
-7.50054e-14
-7.49131e-14
-7.49658e-14
-7.52866e-14
-7.5857e-14
-7.59035e-14
-7.62998e-14
-7.63614e-14
-7.67344e-14
-7.73167e-14
-7.73137e-14
-7.73308e-14
-7.79433e-14
-7.83566e-14
-7.8455e-14
-7.84889e-14
-7.88291e-14
-7.935e-14
-7.90632e-14
-7.92781e-14
-7.96791e-14
-8.01031e-14
-8.02673e-14
-8.0547e-14
-8.07865e-14
-8.12584e-14
-8.12936e-14
-8.09736e-14