/*--------------------------------*- C++ -*----------------------------------*\
| =========                 |                                                 |
| \\      /  F ield         | OpenFOAM: The Open Source CFD Toolbox           |
|  \\    /   O peration     | Version:  2112                                  |
|   \\  /    A nd           | Website:  www.openfoam.com                      |
|    \\/     M anipulation  |                                                 |
\*---------------------------------------------------------------------------*/
FoamFile
{
    version     2.0;
    format      ascii;
    arch        "LSB;label=32;scalar=64";
    class       surfaceScalarField;
    location    "11";
    object      phi;
}
// * * * * * * * * * * * * * * * * * * * * * * * * * * * * * * * * * * * * * //

dimensions      [0 3 -1 0 0 0 0];

oriented        oriented;

internalField   nonuniform List<scalar> 
99400
(
3.00068e-05
8.49781e-19
3.00068e-05
1.3494e-19
3.00068e-05
1.0788e-20
3.00068e-05
4.31774e-20
3.00068e-05
3.81521e-20
3.00068e-05
2.48077e-20
3.00068e-05
1.27439e-20
3.00068e-05
1.23077e-20
3.00068e-05
1.09868e-20
3.00068e-05
1.39977e-21
3.00068e-05
-1.48537e-20
3.00068e-05
-3.08935e-20
3.00068e-05
-2.11598e-20
3.00068e-05
-9.43363e-21
3.00068e-05
8.45343e-21
3.00068e-05
-7.89952e-21
3.00068e-05
-3.15634e-20
3.00068e-05
-1.82691e-20
3.00068e-05
-1.28062e-20
3.00068e-05
9.04854e-23
3.00068e-05
1.03669e-20
3.00068e-05
4.92487e-21
3.00068e-05
2.86099e-20
3.00068e-05
-1.07012e-20
3.00068e-05
-2.61236e-20
3.00068e-05
-3.22941e-20
3.00068e-05
-9.91303e-22
3.00068e-05
3.32974e-20
3.00068e-05
-3.015e-20
3.00068e-05
-9.54617e-21
3.00068e-05
6.90724e-22
3.00068e-05
-1.8167e-20
3.00068e-05
-1.4234e-20
3.00068e-05
-2.82084e-20
3.00068e-05
-3.19314e-20
3.00068e-05
1.33977e-20
3.00068e-05
-2.94555e-20
3.00068e-05
-1.98381e-20
3.00068e-05
1.24515e-20
3.00068e-05
-3.81306e-20
3.00068e-05
1.03899e-20
3.00068e-05
-2.78224e-20
3.00068e-05
-1.67789e-20
3.00068e-05
2.08479e-20
3.00068e-05
-5.8685e-21
3.00068e-05
3.03127e-20
3.00068e-05
3.24131e-20
3.00068e-05
-4.65596e-20
3.00068e-05
-7.93577e-21
3.00068e-05
4.85469e-20
3.00068e-05
2.7629e-20
3.00068e-05
7.53597e-21
3.00068e-05
-4.79956e-20
3.00068e-05
-1.57723e-20
3.00068e-05
4.35861e-20
3.00068e-05
-2.35932e-20
3.00068e-05
3.62291e-20
3.00068e-05
-1.71353e-20
3.00068e-05
-4.6666e-20
3.00068e-05
1.02155e-20
3.00068e-05
1.34827e-21
3.00068e-05
-6.66575e-21
3.00068e-05
-9.16665e-21
3.00068e-05
1.91645e-20
3.00068e-05
-9.31113e-21
3.00068e-05
1.5503e-20
3.00068e-05
-3.88419e-20
3.00068e-05
-1.72271e-20
3.00068e-05
5.49884e-20
3.00068e-05
1.83779e-21
3.00068e-05
-1.42068e-20
3.00068e-05
9.69496e-22
3.00068e-05
5.83484e-20
3.00068e-05
-1.84629e-20
3.00068e-05
-5.84728e-20
3.00068e-05
1.02628e-19
3.00068e-05
4.18441e-20
3.00068e-05
-5.59632e-20
3.00068e-05
-2.02611e-20
3.00068e-05
4.06886e-20
3.00068e-05
1.0526e-20
3.00068e-05
-3.48882e-20
3.00068e-05
7.1608e-21
3.00068e-05
2.39496e-21
3.00068e-05
-4.64135e-20
3.00068e-05
3.82682e-20
3.00068e-05
4.89543e-21
3.00068e-05
-9.52636e-21
3.00068e-05
-2.82893e-22
3.00068e-05
5.05718e-21
3.00068e-05
2.31623e-20
3.00068e-05
2.22725e-20
3.00068e-05
2.44568e-20
3.00068e-05
1.45081e-20
3.00068e-05
1.4772e-20
3.00068e-05
-8.85826e-20
3.00068e-05
-3.21056e-22
3.00068e-05
1.01442e-19
3.00068e-05
-6.28857e-20
3.00068e-05
-4.90239e-20
3.00068e-05
7.50935e-20
3.00068e-05
6.88539e-20
3.00068e-05
-2.95967e-20
3.00068e-05
-4.72507e-20
3.00068e-05
3.42411e-20
3.00068e-05
2.1909e-21
3.00068e-05
-2.90616e-20
3.00068e-05
-7.36342e-21
3.00068e-05
5.03779e-20
3.00068e-05
7.69563e-20
3.00068e-05
-4.83555e-20
3.00068e-05
-8.38916e-20
3.00068e-05
-3.82509e-21
3.00068e-05
9.121e-20
3.00068e-05
3.06969e-20
3.00068e-05
-1.0029e-19
3.00068e-05
-6.83903e-20
3.00068e-05
6.70166e-20
3.00068e-05
7.93596e-20
3.00068e-05
-1.4322e-20
3.00068e-05
-4.14045e-20
3.00068e-05
6.43947e-21
3.00068e-05
4.96545e-20
3.00068e-05
-1.73484e-20
3.00068e-05
-6.45265e-20
3.00068e-05
6.38207e-20
3.00068e-05
3.60256e-20
3.00068e-05
-4.08352e-20
3.00068e-05
2.08442e-20
3.00068e-05
1.72907e-20
3.00068e-05
9.47911e-21
3.00068e-05
-9.72876e-21
3.00068e-05
9.13856e-20
3.00068e-05
-7.15405e-20
3.00068e-05
-8.40015e-20
3.00068e-05
5.66273e-20
3.00068e-05
9.70589e-22
3.00068e-05
-6.94114e-20
3.00068e-05
8.5763e-20
3.00068e-05
5.9357e-20
3.00068e-05
-1.42878e-19
3.00068e-05
-9.74603e-20
3.00068e-05
8.62405e-20
3.00068e-05
1.40638e-19
3.00068e-05
-8.99631e-20
3.00068e-05
-3.22355e-20
3.00068e-05
1.84292e-19
3.00068e-05
-3.82725e-20
3.00068e-05
-1.17716e-19
3.00068e-05
9.87155e-20
3.00068e-05
-6.70267e-20
3.00068e-05
-9.88825e-21
3.00068e-05
1.26581e-19
3.00068e-05
-1.58062e-19
3.00068e-05
-3.07691e-20
3.00068e-05
8.4018e-20
3.00068e-05
-1.04497e-19
3.00068e-05
3.64789e-22
3.00068e-05
1.66647e-20
3.00068e-05
1.23845e-19
3.00068e-05
3.60351e-20
3.00068e-05
-4.98971e-20
3.00068e-05
-1.20653e-20
3.00068e-05
4.08696e-21
3.00068e-05
-3.11594e-20
3.00068e-05
-8.46809e-21
3.00068e-05
6.7017e-20
3.00068e-05
-1.37003e-19
3.00068e-05
1.32099e-19
3.00068e-05
1.4376e-19
3.00068e-05
-1.52856e-19
3.00068e-05
6.73954e-20
3.00068e-05
1.14182e-19
3.00068e-05
-9.68047e-20
3.00068e-05
-7.89212e-20
3.00068e-05
1.78161e-20
3.00068e-05
1.0256e-19
3.00068e-05
-3.76756e-20
3.00068e-05
-7.65753e-20
3.00068e-05
1.215e-19
3.00068e-05
-1.90782e-20
3.00068e-05
-6.65489e-20
3.00068e-05
2.10569e-20
3.00068e-05
-6.1488e-20
3.00068e-05
9.52201e-20
3.00068e-05
-6.74646e-21
3.00068e-05
-1.38815e-19
3.00068e-05
-8.56425e-21
3.00068e-05
1.62696e-21
3.00068e-05
-2.45429e-20
3.00068e-05
-7.5163e-20
3.00068e-05
-4.32903e-20
3.00068e-05
-2.22616e-20
3.00068e-05
1.46465e-19
3.00068e-05
6.0081e-20
3.00068e-05
-4.19955e-20
3.00068e-05
8.20781e-20
3.00068e-05
-4.79777e-21
3.00068e-05
-1.70082e-19
3.00068e-05
-5.20774e-20
3.00068e-05
5.80716e-20
3.00068e-05
-1.41255e-19
3.00068e-05
1.24619e-19
3.00068e-05
4.26425e-20
3.00068e-05
4.23743e-20
3.00068e-05
1.00204e-19
3.00068e-05
-1.66319e-19
3.00068e-05
-1.13515e-19
3.00068e-05
3.90612e-20
3.00068e-05
1.2286e-21
3.00068e-05
4.64819e-20
3.00068e-05
1.55682e-20
3.00068e-05
-1.10253e-19
3.00068e-05
1.05359e-19
3.00068e-05
-8.61652e-20
3.00068e-05
5.5045e-21
3.00068e-05
-5.99926e-20
3.00068e-05
-4.47036e-20
3.00068e-05
1.23405e-19
3.00068e-05
1.006e-19
3.00068e-05
-3.08983e-20
3.00068e-05
-7.61577e-20
3.00068e-05
5.53913e-20
3.00068e-05
-4.90301e-20
3.00068e-05
3.46772e-20
3.00068e-05
-1.36642e-20
3.00068e-05
-6.03846e-21
3.00068e-05
8.37477e-20
3.00068e-05
1.04981e-19
3.00068e-05
-1.57784e-20
3.00068e-05
-3.32345e-20
3.00068e-05
-1.16074e-19
3.00068e-05
-1.29861e-20
3.00068e-05
4.73859e-20
3.00068e-05
-1.00754e-19
3.00068e-05
8.71791e-20
3.00068e-05
3.89718e-20
3.00068e-05
3.76354e-20
3.00068e-05
-6.17683e-20
3.00068e-05
1.43856e-21
3.00068e-05
6.71543e-21
3.00068e-05
-9.57597e-20
3.00068e-05
2.84473e-20
3.00068e-05
1.79164e-19
3.00068e-05
-5.91736e-20
3.00068e-05
-3.59754e-20
3.00068e-05
8.61474e-20
3.00068e-05
-1.05172e-19
3.00068e-05
8.55103e-21
3.00068e-05
-3.85701e-21
3.00068e-05
-4.84738e-20
3.00068e-05
-1.80537e-20
3.00068e-05
1.48985e-19
3.00068e-05
-3.40973e-20
3.00068e-05
-9.63456e-20
3.00068e-05
1.13136e-19
3.00068e-05
-2.83677e-20
3.00068e-05
-9.60442e-20
3.00068e-05
5.57282e-20
3.00068e-05
-1.04058e-19
3.00068e-05
3.99096e-20
3.00068e-05
2.24317e-19
3.00068e-05
-1.49769e-19
3.00068e-05
6.73777e-20
3.00068e-05
-1.77584e-19
3.00068e-05
-1.53127e-19
3.00068e-05
3.1853e-19
3.00068e-05
-2.01133e-19
3.00068e-05
-1.03801e-19
3.00068e-05
4.63546e-19
3.00068e-05
-1.91917e-19
3.00068e-05
-1.55504e-19
3.00068e-05
1.09428e-19
3.00068e-05
-1.51777e-19
3.00068e-05
1.38417e-19
3.00068e-05
-1.19253e-19
3.00068e-05
-5.4463e-20
3.00068e-05
1.4911e-19
3.00068e-05
9.69244e-20
3.00068e-05
-7.9036e-20
3.00068e-05
-9.61454e-20
3.00068e-05
-9.10162e-20
3.00068e-05
5.70972e-20
3.00068e-05
1.86543e-19
3.00068e-05
-2.4709e-19
3.00068e-05
2.50814e-19
3.00068e-05
4.27874e-20
3.00068e-05
-2.61924e-19
3.00068e-05
2.04809e-19
3.00068e-05
8.41832e-20
3.00068e-05
-2.79375e-19
3.00068e-05
6.71306e-20
3.00068e-05
5.17687e-20
3.00068e-05
-1.75569e-19
3.00068e-05
3.4958e-19
3.00068e-05
8.38114e-20
3.00068e-05
-3.54937e-19
3.00068e-05
8.42925e-20
3.00068e-05
-3.14808e-20
3.00068e-05
-2.02403e-19
3.00068e-05
2.6238e-19
3.00068e-05
-1.22446e-19
3.00068e-05
-8.85127e-20
3.00068e-05
4.20957e-19
3.00068e-05
-1.72839e-19
3.00068e-05
-2.60977e-19
3.00068e-05
2.26214e-19
3.00068e-05
-1.43153e-19
3.00068e-05
-1.57831e-19
3.00068e-05
2.93714e-19
3.00068e-05
9.27524e-20
3.00068e-05
-2.49003e-19
3.00068e-05
1.30105e-19
3.00068e-05
7.85448e-20
3.00068e-05
-1.58544e-19
3.00068e-05
7.21004e-20
3.00068e-05
-8.72713e-20
3.00068e-05
-7.44262e-20
3.00068e-05
6.92222e-22
3.00068e-05
1.56546e-19
3.00068e-05
1.25625e-19
3.00068e-05
-5.341e-20
3.00068e-05
-1.39858e-19
3.00068e-05
-5.40864e-20
3.00068e-05
2.138e-19
3.00068e-05
-8.6869e-20
3.00068e-05
-9.76889e-20
3.00068e-05
-3.95403e-20
3.00068e-05
1.78248e-19
3.00068e-05
1.67666e-19
3.00068e-05
-3.48349e-19
3.00068e-05
7.53762e-21
3.00068e-05
1.80713e-19
3.00068e-05
-2.41652e-19
3.00068e-05
1.31193e-19
3.00068e-05
2.36123e-19
3.00068e-05
-3.329e-19
3.00068e-05
2.72039e-19
3.00068e-05
1.42618e-19
3.00068e-05
-3.16319e-19
3.00068e-05
5.89719e-20
3.00068e-05
-2.79786e-20
3.00068e-05
-1.09887e-19
3.00068e-05
6.43148e-20
3.00068e-05
1.61253e-19
3.00068e-05
2.36797e-20
3.00068e-05
-3.37065e-20
3.00068e-05
-1.68133e-19
3.00068e-05
-6.31501e-20
3.00068e-05
1.51739e-19
3.00068e-05
-7.96326e-20
3.00068e-05
-1.80233e-19
3.00068e-05
6.46401e-20
3.00068e-05
2.14361e-19
3.00068e-05
3.04561e-20
3.00068e-05
-3.96835e-20
3.00068e-05
-1.89191e-19
3.00068e-05
-9.19733e-20
3.00068e-05
1.49991e-19
3.00068e-05
-2.47032e-20
3.00068e-05
1.85343e-19
3.00068e-05
-1.68227e-19
3.00068e-05
-1.31897e-20
3.00068e-05
3.56117e-19
3.00068e-05
-2.33079e-19
3.00068e-05
-6.63725e-20
3.00068e-05
2.23193e-20
3.00068e-05
-5.07168e-20
3.00068e-05
-6.60905e-20
3.00068e-05
3.04588e-19
3.00068e-05
6.85225e-20
3.00068e-05
-1.93795e-19
3.00068e-05
-3.67625e-20
3.00068e-05
-3.13654e-20
3.00068e-05
1.33412e-19
3.00068e-05
-1.15046e-19
3.00068e-05
6.07139e-20
3.00068e-05
-1.19479e-19
3.00068e-05
2.10753e-19
3.00068e-05
4.86724e-20
3.00068e-05
-1.79833e-19
3.00068e-05
-6.77212e-20
3.00068e-05
7.41968e-20
3.00068e-05
4.25957e-20
3.00068e-05
-9.70534e-20
3.00068e-05
3.1204e-19
3.00068e-05
-2.36356e-19
3.00068e-05
5.48863e-20
3.00068e-05
1.5109e-19
3.00068e-05
-1.09257e-19
3.00068e-05
-1.13973e-19
3.00068e-05
8.55615e-20
3.00068e-05
-3.26605e-20
3.00068e-05
-2.27079e-19
3.00068e-05
3.5233e-19
3.00068e-05
1.96882e-19
3.00068e-05
-2.35902e-19
3.00068e-05
-1.56276e-19
3.00068e-05
-6.54151e-20
3.00068e-05
-6.47619e-20
3.00068e-05
1.03624e-19
3.00068e-05
3.55893e-19
3.00068e-05
-3.0046e-19
3.00068e-05
-1.66666e-19
3.00068e-05
-8.47261e-20
3.00068e-05
2.88868e-19
3.00068e-05
2.75415e-19
3.00068e-05
-5.2034e-19
3.00068e-05
-9.14123e-20
3.00068e-05
2.87237e-19
3.00068e-05
3.38294e-19
3.00068e-05
-3.84313e-19
3.00068e-05
3.8338e-20
3.00068e-05
1.31498e-19
3.00068e-05
-9.55794e-20
3.00068e-05
3.37983e-20
3.00068e-05
-2.63704e-19
3.00068e-05
4.56358e-20
3.00068e-05
2.57697e-19
3.00068e-05
1.3765e-19
3.00068e-05
-3.62656e-19
3.00068e-05
-1.37445e-19
3.00068e-05
4.93786e-19
3.00068e-05
-9.53211e-20
3.00068e-05
-2.00932e-19
3.00068e-05
3.29319e-20
3.00068e-05
1.15835e-19
3.00068e-05
4.03613e-20
3.00068e-05
7.76988e-20
3.00068e-05
-2.05327e-19
3.00068e-05
-1.72333e-19
3.00068e-05
5.04185e-19
3.00068e-05
-1.49158e-20
3.00068e-05
-4.81395e-19
3.00068e-05
-2.12025e-20
3.00068e-05
6.06058e-19
3.00068e-05
-1.31012e-19
3.00068e-05
-4.51205e-20
3.00068e-05
-1.92942e-20
3.00068e-05
-2.82625e-19
3.00068e-05
4.24628e-19
3.00068e-05
-2.40697e-19
3.00068e-05
-8.33529e-20
3.00068e-05
-5.35939e-20
3.00068e-05
2.03214e-19
3.00068e-05
8.16038e-20
3.00068e-05
-1.77703e-19
3.00068e-05
8.8001e-20
3.00068e-05
-1.51298e-19
3.00068e-05
2.25546e-19
3.00068e-05
-8.06946e-20
3.00068e-05
6.58502e-20
3.00068e-05
-1.36833e-19
3.00068e-05
1.46154e-19
3.00068e-05
-1.94817e-20
3.00068e-05
-1.63355e-19
3.00068e-05
1.50708e-19
3.00068e-05
6.99784e-20
3.00068e-05
1.64136e-19
3.00068e-05
-5.34776e-19
3.00068e-05
2.83756e-19
3.00068e-05
1.64945e-19
3.00068e-05
5.13483e-20
3.00068e-05
7.41086e-20
3.00068e-05
-4.75514e-19
3.00068e-05
1.53955e-19
3.00068e-05
1.8487e-19
3.00068e-05
-3.22712e-20
3.00068e-05
-2.0165e-19
3.00068e-05
1.25204e-19
3.00068e-05
-8.66575e-20
3.00068e-05
3.59177e-20
3.00068e-05
1.01668e-19
3.00068e-05
-1.90055e-19
3.00068e-05
2.00301e-19
3.00068e-05
5.20707e-20
3.00068e-05
1.08222e-19
3.00068e-05
-2.88623e-19
3.00068e-05
6.71347e-20
3.00068e-05
1.46021e-19
3.00068e-05
3.94274e-20
3.00068e-05
-3.63149e-20
3.00068e-05
-1.55881e-19
3.00068e-05
2.72117e-19
3.00068e-05
-3.23254e-19
3.00068e-05
7.7489e-20
3.00068e-05
3.7004e-20
3.00068e-05
-8.28084e-20
3.00068e-05
3.0671e-19
3.00068e-05
-2.32089e-19
3.00068e-05
-2.41387e-19
3.00068e-05
1.94861e-19
3.00068e-05
2.12182e-19
3.00068e-05
-2.75061e-19
3.00068e-05
5.90301e-20
3.00068e-05
-3.3852e-20
3.00068e-05
-2.07644e-21
3.00068e-05
1.9412e-19
3.00068e-05
-1.65552e-19
1.73344e-19
8.88201e-05
6.007e-19
8.88201e-05
9.48401e-20
8.88201e-05
2.23186e-20
8.88201e-05
1.08728e-19
8.88201e-05
1.11201e-19
8.88201e-05
5.32342e-20
8.88201e-05
5.91696e-20
8.88201e-05
3.66217e-20
8.88201e-05
4.63355e-21
8.88201e-05
-1.78339e-20
8.88201e-05
-3.13213e-20
8.88201e-05
-8.30018e-20
8.88201e-05
-7.07104e-20
8.88201e-05
-2.15122e-20
8.88201e-05
-1.1897e-20
8.88201e-05
-4.93593e-20
8.88201e-05
-9.29174e-20
8.88201e-05
-6.5583e-20
8.88201e-05
6.55966e-21
8.88201e-05
5.46873e-21
8.88201e-05
2.08373e-20
8.88201e-05
1.91703e-20
8.88201e-05
3.85449e-20
8.88201e-05
-2.58898e-20
8.88201e-05
-3.30055e-20
8.88201e-05
-9.09551e-20
8.88201e-05
-3.73381e-20
8.88201e-05
5.88028e-20
8.88201e-05
-5.42305e-20
8.88201e-05
-3.96548e-20
8.88201e-05
-1.69862e-20
8.88201e-05
-4.06324e-20
8.88201e-05
-4.16423e-20
8.88201e-05
-9.3969e-20
8.88201e-05
-9.39682e-20
8.88201e-05
1.2568e-20
8.88201e-05
-1.06785e-19
8.88201e-05
-4.82102e-20
8.88201e-05
-1.6581e-20
8.88201e-05
-1.00099e-19
8.88201e-05
-1.04502e-20
8.88201e-05
-6.62334e-20
8.88201e-05
-4.05619e-20
8.88201e-05
5.4618e-20
8.88201e-05
2.00798e-20
8.88201e-05
6.9895e-20
8.88201e-05
8.08861e-20
8.88201e-05
-8.50903e-20
8.88201e-05
-3.41808e-20
8.88201e-05
1.26501e-19
8.88201e-05
8.97502e-20
8.88201e-05
2.74779e-21
8.88201e-05
-1.02926e-19
8.88201e-05
-2.94377e-20
8.88201e-05
5.81159e-20
8.88201e-05
-9.51588e-21
8.88201e-05
7.94355e-20
8.88201e-05
-6.92371e-20
8.88201e-05
-1.3558e-19
8.88201e-05
-5.18569e-21
8.88201e-05
-8.50934e-21
8.88201e-05
2.89719e-20
8.88201e-05
-1.28504e-20
8.88201e-05
9.94617e-21
8.88201e-05
9.64537e-21
8.88201e-05
3.68816e-20
8.88201e-05
-9.16333e-20
8.88201e-05
-7.50358e-20
8.88201e-05
1.04716e-19
8.88201e-05
3.98433e-20
8.88201e-05
-1.15146e-20
8.88201e-05
2.84522e-20
8.88201e-05
1.41612e-19
8.88201e-05
-2.77314e-20
8.88201e-05
-1.2089e-19
8.88201e-05
2.55348e-19
8.88201e-05
1.6225e-19
8.88201e-05
-9.49677e-20
8.88201e-05
-8.62882e-20
8.88201e-05
5.35075e-20
8.88201e-05
5.06662e-20
8.88201e-05
-8.50709e-20
8.88201e-05
-1.65828e-20
8.88201e-05
-2.16677e-20
8.88201e-05
-5.65936e-20
8.88201e-05
6.4716e-20
8.88201e-05
-6.2567e-21
8.88201e-05
1.78026e-20
8.88201e-05
9.70549e-21
8.88201e-05
2.8138e-22
8.88201e-05
8.36585e-20
8.88201e-05
4.25985e-20
8.88201e-05
7.05709e-20
8.88201e-05
5.57799e-20
8.88201e-05
-6.4793e-22
8.88201e-05
-1.73461e-19
8.88201e-05
-4.23657e-20
8.88201e-05
2.23627e-19
8.88201e-05
-1.34795e-19
8.88201e-05
-1.09496e-19
8.88201e-05
2.17334e-19
8.88201e-05
1.70188e-19
8.88201e-05
-5.04975e-20
8.88201e-05
-1.20362e-19
8.88201e-05
3.16973e-20
8.88201e-05
8.39994e-20
8.88201e-05
-2.86232e-20
8.88201e-05
-5.17219e-20
8.88201e-05
1.64106e-19
8.88201e-05
1.51658e-19
8.88201e-05
-1.43617e-19
8.88201e-05
-1.83337e-19
8.88201e-05
-4.01603e-20
8.88201e-05
2.17233e-19
8.88201e-05
1.0575e-19
8.88201e-05
-2.46838e-19
8.88201e-05
-1.62134e-19
8.88201e-05
1.61953e-19
8.88201e-05
1.88794e-19
8.88201e-05
5.50151e-21
8.88201e-05
-6.45687e-20
8.88201e-05
1.48366e-20
8.88201e-05
1.2082e-19
8.88201e-05
-4.72664e-20
8.88201e-05
-1.08883e-19
8.88201e-05
1.22976e-19
8.88201e-05
6.92099e-20
8.88201e-05
-4.17839e-20
8.88201e-05
7.11689e-20
8.88201e-05
6.43833e-20
8.88201e-05
9.56751e-20
8.88201e-05
-2.66039e-20
8.88201e-05
1.45745e-19
8.88201e-05
-1.3493e-19
8.88201e-05
-1.55199e-19
8.88201e-05
8.88837e-20
8.88201e-05
-7.43002e-20
8.88201e-05
-1.22813e-19
8.88201e-05
1.96216e-19
8.88201e-05
1.14081e-19
8.88201e-05
-3.21676e-19
8.88201e-05
-2.67473e-19
8.88201e-05
2.41323e-19
8.88201e-05
3.60715e-19
8.88201e-05
-2.15827e-19
8.88201e-05
-7.23007e-20
8.88201e-05
4.4995e-19
8.88201e-05
-6.15325e-20
8.88201e-05
-2.3089e-19
8.88201e-05
1.53444e-19
8.88201e-05
-1.35803e-19
8.88201e-05
2.39122e-20
8.88201e-05
1.86444e-19
8.88201e-05
-3.29742e-19
8.88201e-05
-6.09463e-20
8.88201e-05
1.27343e-19
8.88201e-05
-1.71295e-19
8.88201e-05
-3.33236e-20
8.88201e-05
3.33662e-20
8.88201e-05
3.44718e-19
8.88201e-05
1.40861e-19
8.88201e-05
-1.07715e-19
8.88201e-05
-5.41704e-20
8.88201e-05
-3.9884e-20
8.88201e-05
-7.80161e-20
8.88201e-05
2.28077e-20
8.88201e-05
1.32658e-19
8.88201e-05
-2.19842e-19
8.88201e-05
2.61816e-19
8.88201e-05
2.89727e-19
8.88201e-05
-2.11754e-19
8.88201e-05
6.05578e-20
8.88201e-05
2.52051e-19
8.88201e-05
-1.33167e-19
8.88201e-05
-2.60967e-19
8.88201e-05
5.7447e-20
8.88201e-05
2.60984e-19
8.88201e-05
-1.18394e-19
8.88201e-05
-1.65824e-19
8.88201e-05
2.88829e-19
8.88201e-05
-2.1284e-20
8.88201e-05
-1.88723e-19
8.88201e-05
-1.13067e-20
8.88201e-05
-1.20915e-19
8.88201e-05
1.40179e-19
8.88201e-05
-2.36421e-20
8.88201e-05
-2.90176e-19
8.88201e-05
-1.4454e-19
8.88201e-05
1.85647e-20
8.88201e-05
-8.22375e-20
8.88201e-05
-2.18545e-19
8.88201e-05
-1.16609e-19
8.88201e-05
-2.26282e-21
8.88201e-05
4.10586e-19
8.88201e-05
1.00992e-19
8.88201e-05
-8.71161e-20
8.88201e-05
2.58654e-19
8.88201e-05
-1.2038e-19
8.88201e-05
-4.6188e-19
8.88201e-05
-1.03765e-19
8.88201e-05
5.84812e-20
8.88201e-05
-2.8028e-19
8.88201e-05
3.02386e-19
8.88201e-05
7.83628e-20
8.88201e-05
1.53408e-19
8.88201e-05
2.86018e-19
8.88201e-05
-4.38958e-19
8.88201e-05
-3.5831e-19
8.88201e-05
5.93965e-21
8.88201e-05
7.35074e-20
8.88201e-05
6.13282e-20
8.88201e-05
6.07445e-20
8.88201e-05
-1.41127e-19
8.88201e-05
1.2297e-19
8.88201e-05
-2.32961e-19
8.88201e-05
3.84684e-20
8.88201e-05
-1.96129e-19
8.88201e-05
-1.20393e-19
8.88201e-05
3.9998e-19
8.88201e-05
2.18302e-19
8.88201e-05
-7.89252e-20
8.88201e-05
-1.04839e-19
8.88201e-05
1.47517e-19
8.88201e-05
-1.12802e-19
8.88201e-05
5.5551e-20
8.88201e-05
3.01175e-20
8.88201e-05
-1.22798e-20
8.88201e-05
1.76287e-19
8.88201e-05
3.11954e-19
8.88201e-05
-6.50716e-20
8.88201e-05
-6.10131e-20
8.88201e-05
-2.42523e-19
8.88201e-05
-1.67998e-19
8.88201e-05
1.03924e-19
8.88201e-05
-1.47235e-19
8.88201e-05
1.41494e-19
8.88201e-05
1.34869e-19
8.88201e-05
-7.54084e-21
8.88201e-05
-5.68807e-20
8.88201e-05
-2.30353e-20
8.88201e-05
-2.51334e-20
8.88201e-05
-1.54483e-19
8.88201e-05
1.69807e-20
8.88201e-05
4.04595e-19
8.88201e-05
-1.59097e-20
8.88201e-05
-9.205e-20
8.88201e-05
1.46906e-19
8.88201e-05
-2.00478e-19
8.88201e-05
-5.71906e-20
8.88201e-05
6.09979e-20
8.88201e-05
-1.41508e-19
8.88201e-05
-5.67817e-20
8.88201e-05
2.811e-19
8.88201e-05
-2.22817e-20
8.88201e-05
-1.83306e-19
8.88201e-05
1.64133e-19
8.88201e-05
-2.44919e-20
8.88201e-05
-1.91297e-19
8.88201e-05
3.55348e-20
8.88201e-05
-2.67902e-19
8.88201e-05
1.62363e-19
8.88201e-05
4.93935e-19
8.88201e-05
-2.11769e-19
8.88201e-05
1.74201e-20
8.88201e-05
-4.6954e-19
8.88201e-05
-4.00084e-19
8.88201e-05
6.9965e-19
8.88201e-05
-3.37978e-19
8.88201e-05
-2.18681e-19
8.88201e-05
9.32999e-19
8.88201e-05
-3.32518e-19
8.88201e-05
-3.69384e-19
8.88201e-05
1.59706e-19
8.88201e-05
-2.8228e-19
8.88201e-05
1.27464e-19
8.88201e-05
-9.55579e-20
8.88201e-05
-1.09159e-19
8.88201e-05
2.37458e-19
8.88201e-05
2.60606e-19
8.88201e-05
-1.08147e-19
8.88201e-05
-2.67434e-19
8.88201e-05
-3.66814e-19
8.88201e-05
1.80344e-19
8.88201e-05
5.13376e-19
8.88201e-05
-4.73239e-19
8.88201e-05
4.94903e-19
8.88201e-05
1.95946e-19
8.88201e-05
-6.13229e-19
8.88201e-05
4.58912e-19
8.88201e-05
1.29284e-19
8.88201e-05
-6.32892e-19
8.88201e-05
1.39331e-19
8.88201e-05
1.59903e-19
8.88201e-05
-3.2054e-19
8.88201e-05
7.26681e-19
8.88201e-05
1.02873e-19
8.88201e-05
-7.05967e-19
8.88201e-05
1.17156e-19
8.88201e-05
-1.54714e-19
8.88201e-05
-3.88833e-19
8.88201e-05
4.43517e-19
8.88201e-05
-1.00352e-19
8.88201e-05
-1.72704e-19
8.88201e-05
8.12289e-19
8.88201e-05
-2.73151e-19
8.88201e-05
-6.54678e-19
8.88201e-05
3.1629e-19
8.88201e-05
-2.1684e-19
8.88201e-05
-2.74391e-19
8.88201e-05
5.42739e-19
8.88201e-05
2.87003e-19
8.88201e-05
-4.27469e-19
8.88201e-05
1.76462e-19
8.88201e-05
1.9899e-19
8.88201e-05
-2.74134e-19
8.88201e-05
-3.21045e-20
8.88201e-05
-2.12075e-19
8.88201e-05
-1.35638e-19
8.88201e-05
-2.73183e-20
8.88201e-05
3.92234e-19
8.88201e-05
3.86462e-19
8.88201e-05
-1.82911e-19
8.88201e-05
-3.26613e-19
8.88201e-05
1.50093e-20
8.88201e-05
3.50544e-19
8.88201e-05
-1.84868e-19
8.88201e-05
-2.0741e-19
8.88201e-05
-7.57084e-20
8.88201e-05
3.70878e-19
8.88201e-05
3.4226e-19
8.88201e-05
-6.48367e-19
8.88201e-05
-6.71794e-20
8.88201e-05
2.86381e-19
8.88201e-05
-3.94987e-19
8.88201e-05
2.15012e-19
8.88201e-05
4.98048e-19
8.88201e-05
-4.56957e-19
8.88201e-05
4.57518e-19
8.88201e-05
2.41759e-19
8.88201e-05
-5.46657e-19
8.88201e-05
-9.43191e-21
8.88201e-05
-2.32976e-19
8.88201e-05
-9.36524e-20
8.88201e-05
1.65191e-19
8.88201e-05
2.76509e-19
8.88201e-05
1.55924e-19
8.88201e-05
-1.41409e-19
8.88201e-05
-4.85222e-19
8.88201e-05
-5.52462e-20
8.88201e-05
3.07003e-19
8.88201e-05
-3.50715e-19
8.88201e-05
-2.81245e-19
8.88201e-05
1.78295e-19
8.88201e-05
3.62445e-19
8.88201e-05
1.93753e-19
8.88201e-05
-1.29519e-19
8.88201e-05
-4.90652e-19
8.88201e-05
-1.31956e-19
8.88201e-05
2.06561e-19
8.88201e-05
7.81395e-21
8.88201e-05
5.10114e-19
8.88201e-05
-3.75299e-19
8.88201e-05
2.60684e-20
8.88201e-05
7.65997e-19
8.88201e-05
-4.55458e-19
8.88201e-05
-2.25086e-19
8.88201e-05
8.97954e-21
8.88201e-05
-7.51271e-20
8.88201e-05
-8.34294e-20
8.88201e-05
6.96931e-19
8.88201e-05
1.22799e-19
8.88201e-05
-4.04862e-19
8.88201e-05
-5.74817e-20
8.88201e-05
-4.97483e-20
8.88201e-05
1.62841e-19
8.88201e-05
-2.24218e-19
8.88201e-05
9.00605e-20
8.88201e-05
-1.29707e-19
8.88201e-05
4.84281e-19
8.88201e-05
-1.51335e-21
8.88201e-05
-4.17294e-19
8.88201e-05
-1.12797e-19
8.88201e-05
1.57447e-19
8.88201e-05
1.16891e-19
8.88201e-05
-1.73457e-19
8.88201e-05
7.97773e-19
8.88201e-05
-3.55063e-19
8.88201e-05
-1.06233e-19
8.88201e-05
4.00743e-19
8.88201e-05
-1.30554e-19
8.88201e-05
-4.1353e-19
8.88201e-05
1.07122e-19
8.88201e-05
2.83568e-21
8.88201e-05
-4.63028e-19
8.88201e-05
8.87791e-19
8.88201e-05
3.91243e-19
8.88201e-05
-6.40828e-19
8.88201e-05
-2.9064e-19
8.88201e-05
-2.02703e-19
8.88201e-05
-2.26478e-19
8.88201e-05
2.77395e-19
8.88201e-05
7.49589e-19
8.88201e-05
-6.20019e-19
8.88201e-05
-3.07988e-19
8.88201e-05
-2.73482e-19
8.88201e-05
5.61227e-19
8.88201e-05
7.68882e-19
8.88201e-05
-1.12518e-18
8.88201e-05
-4.07566e-19
8.88201e-05
7.12093e-19
8.88201e-05
9.08856e-19
8.88201e-05
-8.24927e-19
8.88201e-05
4.86928e-20
8.88201e-05
2.61518e-19
8.88201e-05
-2.04041e-19
8.88201e-05
-6.20687e-20
8.88201e-05
-6.39346e-19
8.88201e-05
2.63843e-19
8.88201e-05
5.41819e-19
8.88201e-05
2.76577e-19
8.88201e-05
-7.38534e-19
8.88201e-05
-2.51758e-19
8.88201e-05
9.64342e-19
8.88201e-05
-4.99228e-20
8.88201e-05
-3.70079e-19
8.88201e-05
-6.81476e-20
8.88201e-05
3.59127e-19
8.88201e-05
1.33583e-19
8.88201e-05
1.00157e-19
8.88201e-05
-4.70729e-19
8.88201e-05
-3.461e-19
8.88201e-05
1.01808e-18
8.88201e-05
1.60497e-19
8.88201e-05
-1.0877e-18
8.88201e-05
-2.1481e-19
8.88201e-05
1.47846e-18
8.88201e-05
-9.14312e-20
8.88201e-05
-1.97887e-19
8.88201e-05
-1.42983e-19
8.88201e-05
-4.74883e-19
8.88201e-05
7.0718e-19
8.88201e-05
-3.93439e-19
8.88201e-05
-2.59353e-19
8.88201e-05
-5.29586e-20
8.88201e-05
4.32183e-19
8.88201e-05
1.30107e-19
8.88201e-05
-2.93549e-19
8.88201e-05
1.05196e-19
8.88201e-05
-2.54191e-19
8.88201e-05
4.98169e-19
8.88201e-05
-1.31948e-19
8.88201e-05
-1.70653e-20
8.88201e-05
-6.29585e-20
8.88201e-05
2.95624e-19
8.88201e-05
-1.62396e-19
8.88201e-05
-2.84526e-19
8.88201e-05
3.30438e-19
8.88201e-05
1.8496e-19
8.88201e-05
3.50262e-19
8.88201e-05
-1.09651e-18
8.88201e-05
4.84825e-19
8.88201e-05
6.95846e-19
8.88201e-05
7.69464e-20
8.88201e-05
-1.59795e-19
8.88201e-05
-8.11668e-19
8.88201e-05
3.82705e-19
8.88201e-05
1.75493e-19
8.88201e-05
-1.10668e-19
8.88201e-05
-1.70833e-19
8.88201e-05
1.03372e-19
8.88201e-05
-2.1472e-19
8.88201e-05
8.89291e-20
8.88201e-05
2.3155e-19
8.88201e-05
-2.43115e-19
8.88201e-05
3.74296e-19
8.88201e-05
2.62491e-19
8.88201e-05
6.44387e-20
8.88201e-05
-6.1091e-19
8.88201e-05
3.61139e-19
8.88201e-05
2.48961e-19
8.88201e-05
-8.84716e-20
8.88201e-05
4.43826e-20
8.88201e-05
-1.81778e-19
8.88201e-05
2.75371e-19
8.88201e-05
-6.49179e-19
8.88201e-05
1.69186e-19
8.88201e-05
7.58924e-20
8.88201e-05
3.21183e-20
8.88201e-05
4.17492e-19
8.88201e-05
-6.40944e-19
8.88201e-05
-3.17255e-19
8.88201e-05
5.49828e-19
8.88201e-05
2.2535e-19
8.88201e-05
-5.65614e-19
8.88201e-05
9.83418e-20
8.88201e-05
-2.11732e-20
8.88201e-05
2.894e-20
8.88201e-05
3.07268e-19
8.88201e-05
-2.30971e-19
2.15356e-19
0.000146433
4.54514e-19
0.000146433
8.6087e-20
0.000146433
1.95568e-20
0.000146433
1.83422e-19
0.000146433
1.64516e-19
0.000146433
7.44268e-20
0.000146433
6.49831e-20
0.000146433
8.25828e-20
0.000146433
-6.10517e-21
0.000146433
-8.86804e-20
0.000146433
-1.36404e-19
0.000146433
-1.69231e-19
0.000146433
-1.61963e-19
0.000146433
-5.70829e-20
0.000146433
-7.2586e-20
0.000146433
-1.06137e-19
0.000146433
-8.24567e-20
0.000146433
-1.36512e-19
0.000146433
1.14349e-20
0.000146433
4.43344e-20
0.000146433
-5.8445e-20
0.000146433
-4.88672e-21
0.000146433
7.31044e-20
0.000146433
-5.01563e-20
0.000146433
-5.23041e-20
0.000146433
-1.21986e-19
0.000146433
-6.55303e-20
0.000146433
9.56962e-20
0.000146433
-9.40934e-20
0.000146433
-1.01214e-19
0.000146433
-7.50336e-20
0.000146433
-7.61939e-20
0.000146433
-8.9678e-20
0.000146433
-1.7384e-19
0.000146433
-1.7062e-19
0.000146433
2.66361e-21
0.000146433
-2.01917e-19
0.000146433
-1.55435e-19
0.000146433
-6.96604e-20
0.000146433
-1.63368e-19
0.000146433
-5.39667e-20
0.000146433
-1.2937e-19
0.000146433
-7.83227e-20
0.000146433
6.25996e-20
0.000146433
1.46975e-19
0.000146433
1.40762e-19
0.000146433
9.30695e-20
0.000146433
-6.82042e-20
0.000146433
-3.92918e-20
0.000146433
1.72972e-19
0.000146433
1.68941e-19
0.000146433
-7.13688e-21
0.000146433
-1.76061e-19
0.000146433
-2.12445e-20
0.000146433
1.11013e-19
0.000146433
-1.32335e-20
0.000146433
2.34717e-20
0.000146433
-1.46852e-19
0.000146433
-1.61428e-19
0.000146433
-3.46616e-20
0.000146433
-4.23019e-20
0.000146433
1.30871e-20
0.000146433
-1.37884e-20
0.000146433
1.53003e-20
0.000146433
4.99036e-21
0.000146433
3.61035e-20
0.000146433
-1.40259e-19
0.000146433
-1.03983e-19
0.000146433
1.60398e-19
0.000146433
1.22055e-19
0.000146433
7.25391e-20
0.000146433
2.79184e-20
0.000146433
2.00209e-19
0.000146433
-6.32072e-21
0.000146433
-2.09698e-19
0.000146433
3.49304e-19
0.000146433
3.11878e-19
0.000146433
-5.68447e-20
0.000146433
-1.40447e-19
0.000146433
6.63033e-20
0.000146433
3.96978e-20
0.000146433
-1.29614e-19
0.000146433
-6.18596e-20
0.000146433
2.79289e-21
0.000146433
-4.24772e-20
0.000146433
3.94565e-20
0.000146433
-7.25011e-20
0.000146433
4.41021e-20
0.000146433
-5.99461e-21
0.000146433
8.21874e-21
0.000146433
1.8898e-19
0.000146433
4.00434e-20
0.000146433
1.44569e-19
0.000146433
1.446e-19
0.000146433
-2.79988e-20
0.000146433
-2.74635e-19
0.000146433
-3.09938e-20
0.000146433
2.48233e-19
0.000146433
-1.63533e-19
0.000146433
-1.33226e-19
0.000146433
3.08062e-19
0.000146433
2.52702e-19
0.000146433
5.23853e-22
0.000146433
-2.24552e-19
0.000146433
4.14572e-20
0.000146433
1.99138e-19
0.000146433
-5.21008e-20
0.000146433
-7.80412e-20
0.000146433
2.78921e-19
0.000146433
1.97418e-19
0.000146433
-2.2197e-19
0.000146433
-2.55531e-19
0.000146433
-5.42494e-20
0.000146433
3.07062e-19
0.000146433
1.92972e-19
0.000146433
-2.94418e-19
0.000146433
-2.64152e-19
0.000146433
2.2806e-19
0.000146433
2.78183e-19
0.000146433
1.12948e-19
0.000146433
-5.23953e-20
0.000146433
8.75152e-20
0.000146433
1.65057e-19
0.000146433
-8.90068e-20
0.000146433
-1.35211e-19
0.000146433
1.54429e-19
0.000146433
1.40677e-19
0.000146433
1.32117e-20
0.000146433
1.23541e-19
0.000146433
1.41903e-19
0.000146433
1.67117e-19
0.000146433
-3.53589e-20
0.000146433
9.97121e-20
0.000146433
-1.35913e-19
0.000146433
-1.83144e-19
0.000146433
1.30404e-19
0.000146433
-1.93173e-19
0.000146433
-1.4963e-19
0.000146433
2.86816e-19
0.000146433
9.87152e-20
0.000146433
-4.44304e-19
0.000146433
-3.89846e-19
0.000146433
3.97829e-19
0.000146433
5.4739e-19
0.000146433
-3.06805e-19
0.000146433
-2.55558e-20
0.000146433
6.53123e-19
0.000146433
-1.00919e-19
0.000146433
-3.32639e-19
0.000146433
1.30991e-19
0.000146433
-1.76279e-19
0.000146433
1.00708e-19
0.000146433
1.49738e-19
0.000146433
-4.8062e-19
0.000146433
-4.15762e-20
0.000146433
1.22144e-19
0.000146433
-2.32542e-19
0.000146433
-8.42558e-20
0.000146433
-6.79145e-21
0.000146433
6.00077e-19
0.000146433
3.30142e-19
0.000146433
-1.1407e-19
0.000146433
-1.30451e-19
0.000146433
-1.14089e-19
0.000146433
-6.33594e-20
0.000146433
8.72563e-20
0.000146433
1.54719e-19
0.000146433
-2.01696e-19
0.000146433
4.20157e-19
0.000146433
3.75206e-19
0.000146433
-2.25802e-19
0.000146433
9.38e-20
0.000146433
3.46678e-19
0.000146433
-1.71183e-19
0.000146433
-4.14546e-19
0.000146433
9.94584e-20
0.000146433
4.07641e-19
0.000146433
-1.89307e-19
0.000146433
-2.5343e-19
0.000146433
4.41003e-19
0.000146433
-5.09422e-21
0.000146433
-3.69303e-19
0.000146433
-3.94336e-20
0.000146433
-1.65566e-19
0.000146433
7.46948e-20
0.000146433
-9.57253e-20
0.000146433
-4.18515e-19
0.000146433
-3.36361e-19
0.000146433
-2.35733e-20
0.000146433
-1.47813e-19
0.000146433
-3.78859e-19
0.000146433
-1.82529e-19