/*--------------------------------*- C++ -*----------------------------------*\
| =========                 |                                                 |
| \\      /  F ield         | OpenFOAM: The Open Source CFD Toolbox           |
|  \\    /   O peration     | Version:  2112                                  |
|   \\  /    A nd           | Website:  www.openfoam.com                      |
|    \\/     M anipulation  |                                                 |
\*---------------------------------------------------------------------------*/
FoamFile
{
    version     2.0;
    format      ascii;
    arch        "LSB;label=32;scalar=64";
    class       volVectorField;
    location    "11";
    object      U;
}
// * * * * * * * * * * * * * * * * * * * * * * * * * * * * * * * * * * * * * //

dimensions      [0 1 -1 0 0 0 0];

internalField   nonuniform List<vector> 
50000
(
(0.0300068 2.0852e-16 0)
(0.0300068 3.02803e-17 0)
(0.0300068 1.63238e-17 0)
(0.0300068 1.67965e-17 0)
(0.0300068 1.28905e-17 0)
(0.0300068 8.37819e-18 0)
(0.0300068 3.99305e-18 0)
(0.0300068 1.61616e-18 0)
(0.0300068 4.21125e-18 0)
(0.0300068 5.28123e-18 0)
(0.0300068 -1.24377e-18 0)
(0.0300068 -6.18464e-18 0)
(0.0300068 -2.51303e-18 0)
(0.0300068 1.20751e-18 0)
(0.0300068 4.5228e-18 0)
(0.0300068 -6.49305e-19 0)
(0.0300068 -7.76176e-18 0)
(0.0300068 1.19393e-18 0)
(0.0300068 -2.20977e-18 0)
(0.0300068 -2.13048e-18 0)
(0.0300068 7.28047e-18 0)
(0.0300068 1.63502e-18 0)
(0.0300068 2.49508e-18 0)
(0.0300068 -2.02792e-18 0)
(0.0300068 -5.3345e-18 0)
(0.0300068 -4.68753e-18 0)
(0.0300068 3.64177e-19 0)
(0.0300068 1.1737e-17 0)
(0.0300068 -9.34164e-18 0)
(0.0300068 -7.32422e-19 0)
(0.0300068 6.09265e-18 0)
(0.0300068 -1.30897e-17 0)
(0.0300068 -3.3452e-18 0)
(0.0300068 4.87561e-18 0)
(0.0300068 -5.8485e-18 0)
(0.0300068 5.49787e-18 0)
(0.0300068 -4.6324e-18 0)
(0.0300068 -1.90205e-18 0)
(0.0300068 4.51355e-18 0)
(0.0300068 -1.12502e-17 0)
(0.0300068 5.39817e-18 0)
(0.0300068 -8.04261e-18 0)
(0.0300068 9.63334e-18 0)
(0.0300068 7.56797e-18 0)
(0.0300068 -1.626e-17 0)
(0.0300068 3.49769e-18 0)
(0.0300068 1.39673e-17 0)
(0.0300068 -1.26246e-17 0)
(0.0300068 -7.13146e-18 0)
(0.0300068 1.06061e-17 0)
(0.0300068 3.95893e-18 0)
(0.0300068 1.08723e-17 0)
(0.0300068 -1.55371e-17 0)
(0.0300068 -1.1745e-17 0)
(0.0300068 1.34941e-17 0)
(0.0300068 -4.18437e-18 0)
(0.0300068 1.72822e-17 0)
(0.0300068 -8.82658e-18 0)
(0.0300068 -1.64718e-17 0)
(0.0300068 9.47593e-18 0)
(0.0300068 8.41452e-18 0)
(0.0300068 -8.0585e-18 0)
(0.0300068 6.88954e-20 0)
(0.0300068 1.05059e-17 0)
(0.0300068 -2.04754e-17 0)
(0.0300068 1.04713e-18 0)
(0.0300068 4.98262e-18 0)
(0.0300068 9.15279e-18 0)
(0.0300068 7.00279e-18 0)
(0.0300068 -9.44266e-18 0)
(0.0300068 -1.15751e-17 0)
(0.0300068 -1.88052e-18 0)
(0.0300068 2.51627e-17 0)
(0.0300068 -1.18159e-17 0)
(0.0300068 -1.83065e-17 0)
(0.0300068 3.29358e-17 0)
(0.0300068 5.63699e-18 0)
(0.0300068 -2.58472e-17 0)
(0.0300068 -4.6622e-18 0)
(0.0300068 1.47569e-17 0)
(0.0300068 3.60439e-18 0)
(0.0300068 -6.51641e-18 0)
(0.0300068 -9.14842e-19 0)
(0.0300068 1.20836e-17 0)
(0.0300068 -2.23238e-17 0)
(0.0300068 1.2518e-17 0)
(0.0300068 1.93907e-17 0)
(0.0300068 -1.60995e-17 0)
(0.0300068 -3.376e-18 0)
(0.0300068 -7.70362e-18 0)
(0.0300068 5.83523e-18 0)
(0.0300068 1.96017e-17 0)
(0.0300068 -8.26625e-18 0)
(0.0300068 1.94175e-18 0)
(0.0300068 1.23191e-17 0)
(0.0300068 -3.77228e-17 0)
(0.0300068 8.59191e-18 0)
(0.0300068 3.28844e-17 0)
(0.0300068 -2.08841e-17 0)
(0.0300068 -9.14915e-18 0)
(0.0300068 1.36725e-17 0)
(0.0300068 3.02739e-17 0)
(0.0300068 -2.53353e-17 0)
(0.0300068 -2.95925e-17 0)
(0.0300068 4.43329e-17 0)
(0.0300068 -1.28497e-17 0)
(0.0300068 -2.46757e-17 0)
(0.0300068 1.46875e-17 0)
(0.0300068 7.82793e-18 0)
(0.0300068 3.16251e-17 0)
(0.0300068 -2.61604e-17 0)
(0.0300068 -2.87212e-17 0)
(0.0300068 1.82567e-17 0)
(0.0300068 8.19122e-18 0)
(0.0300068 2.26661e-17 0)
(0.0300068 -1.09488e-17 0)
(0.0300068 -4.51558e-17 0)
(0.0300068 7.56908e-18 0)
(0.0300068 2.83715e-17 0)
(0.0300068 -3.87128e-18 0)
(0.0300068 -8.00458e-18 0)
(0.0300068 -1.18854e-18 0)
(0.0300068 2.51847e-17 0)
(0.0300068 -3.03596e-18 0)
(0.0300068 -4.52279e-17 0)
(0.0300068 2.63864e-17 0)
(0.0300068 2.50557e-17 0)
(0.0300068 -2.62208e-17 0)
(0.0300068 -1.74685e-18 0)
(0.0300068 1.35298e-18 0)
(0.0300068 -1.70222e-17 0)
(0.0300068 -2.83141e-18 0)
(0.0300068 2.91795e-17 0)
(0.0300068 -6.89654e-18 0)
(0.0300068 -1.03847e-17 0)
(0.0300068 6.48287e-18 0)
(0.0300068 1.75875e-17 0)
(0.0300068 -2.86971e-17 0)
(0.0300068 1.26109e-17 0)
(0.0300068 2.70105e-17 0)
(0.0300068 -3.55616e-17 0)
(0.0300068 -3.47141e-17 0)
(0.0300068 1.18301e-17 0)
(0.0300068 3.82435e-17 0)
(0.0300068 -1.59827e-17 0)
(0.0300068 -4.40239e-18 0)
(0.0300068 4.86594e-17 0)
(0.0300068 -2.7754e-17 0)
(0.0300068 -3.54863e-17 0)
(0.0300068 3.40471e-17 0)
(0.0300068 -7.72542e-18 0)
(0.0300068 1.01018e-18 0)
(0.0300068 3.49462e-17 0)
(0.0300068 -4.32008e-17 0)
(0.0300068 -7.75485e-20 0)
(0.0300068 2.90706e-17 0)
(0.0300068 -5.49778e-17 0)
(0.0300068 -1.941e-17 0)
(0.0300068 4.07248e-17 0)
(0.0300068 5.83868e-17 0)
(0.0300068 -3.4339e-17 0)
(0.0300068 -7.28019e-18 0)
(0.0300068 -1.09947e-18 0)
(0.0300068 -2.11348e-18 0)
(0.0300068 -5.52931e-18 0)
(0.0300068 -4.1423e-18 0)
(0.0300068 1.03144e-17 0)
(0.0300068 -5.65911e-17 0)
(0.0300068 7.84467e-17 0)
(0.0300068 1.90332e-17 0)
(0.0300068 -8.15877e-17 0)
(0.0300068 6.75844e-17 0)
(0.0300068 3.13246e-17 0)
(0.0300068 -6.59116e-17 0)
(0.0300068 9.64487e-18 0)
(0.0300068 1.66567e-18 0)
(0.0300068 1.36374e-17 0)
(0.0300068 -8.60901e-18 0)
(0.0300068 -1.23755e-17 0)
(0.0300068 4.02453e-17 0)
(0.0300068 -4.16412e-17 0)
(0.0300068 -7.64303e-18 0)
(0.0300068 3.02429e-17 0)
(0.0300068 -3.02508e-17 0)
(0.0300068 4.69922e-17 0)
(0.0300068 -4.77445e-19 0)
(0.0300068 -5.62317e-17 0)
(0.0300068 3.70313e-17 0)
(0.0300068 3.17086e-18 0)
(0.0300068 -2.2097e-17 0)
(0.0300068 -8.24188e-18 0)
(0.0300068 -2.94246e-18 0)
(0.0300068 -4.28699e-17 0)
(0.0300068 3.76602e-17 0)
(0.0300068 4.36553e-17 0)
(0.0300068 -3.01423e-17 0)
(0.0300068 1.26949e-17 0)
(0.0300068 4.09313e-17 0)
(0.0300068 -5.63891e-17 0)
(0.0300068 -3.98969e-17 0)
(0.0300068 4.69552e-17 0)
(0.0300068 -2.31345e-17 0)
(0.0300068 1.29385e-17 0)
(0.0300068 1.71135e-18 0)
(0.0300068 4.4228e-17 0)
(0.0300068 -2.24026e-17 0)
(0.0300068 -6.2959e-17 0)
(0.0300068 2.5014e-17 0)
(0.0300068 8.40529e-18 0)
(0.0300068 3.0076e-18 0)
(0.0300068 4.50078e-17 0)
(0.0300068 -3.81309e-17 0)
(0.0300068 -5.3861e-17 0)
(0.0300068 9.53651e-17 0)
(0.0300068 -5.28791e-17 0)
(0.0300068 -3.4313e-17 0)
(0.0300068 3.04111e-17 0)
(0.0300068 -6.91771e-18 0)
(0.0300068 1.4125e-17 0)
(0.0300068 4.56117e-17 0)
(0.0300068 -2.97514e-18 0)
(0.0300068 -4.56331e-17 0)
(0.0300068 -2.84777e-17 0)
(0.0300068 -3.3736e-18 0)
(0.0300068 4.13775e-17 0)
(0.0300068 -4.67087e-17 0)
(0.0300068 3.8447e-17 0)
(0.0300068 4.48315e-17 0)
(0.0300068 -2.83421e-17 0)
(0.0300068 3.78167e-17 0)
(0.0300068 5.0776e-18 0)
(0.0300068 -8.73772e-17 0)
(0.0300068 3.39405e-17 0)
(0.0300068 7.21408e-18 0)
(0.0300068 -5.52563e-17 0)
(0.0300068 4.77835e-17 0)
(0.0300068 6.55177e-18 0)
(0.0300068 4.25753e-17 0)
(0.0300068 -4.4414e-17 0)
(0.0300068 -3.29173e-18 0)
(0.0300068 4.88746e-18 0)
(0.0300068 -4.47498e-17 0)
(0.0300068 3.62526e-17 0)
(0.0300068 6.27829e-17 0)
(0.0300068 -5.01928e-17 0)
(0.0300068 -2.47199e-18 0)
(0.0300068 4.86868e-17 0)
(0.0300068 -5.58624e-17 0)
(0.0300068 5.65967e-18 0)
(0.0300068 -3.00754e-17 0)
(0.0300068 -1.16586e-17 0)
(0.0300068 -7.2237e-18 0)
(0.0300068 9.58307e-17 0)
(0.0300068 -7.36354e-19 0)
(0.0300068 -4.9183e-17 0)
(0.0300068 5.10366e-17 0)
(0.0300068 -4.30144e-17 0)
(0.0300068 -4.86361e-17 0)
(0.0300068 4.97959e-17 0)
(0.0300068 -2.08809e-17 0)
(0.0300068 3.7387e-18 0)
(0.0300068 7.05906e-17 0)
(0.0300068 -9.85586e-17 0)
(0.0300068 5.14458e-17 0)
(0.0300068 -2.19372e-17 0)
(0.0300068 -2.81425e-17 0)
(0.0300068 4.81336e-17 0)
(0.0300068 -5.8106e-17 0)
(0.0300068 2.06198e-17 0)
(0.0300068 1.38877e-16 0)
(0.0300068 -1.07211e-16 0)
(0.0300068 -5.76067e-17 0)
(0.0300068 6.29361e-17 0)
(0.0300068 -6.20086e-17 0)
(0.0300068 9.10159e-17 0)
(0.0300068 -8.32334e-17 0)
(0.0300068 -9.93853e-18 0)
(0.0300068 8.22998e-17 0)
(0.0300068 8.95526e-18 0)
(0.0300068 -4.17443e-17 0)
(0.0300068 -6.13878e-18 0)
(0.0300068 -1.19486e-17 0)
(0.0300068 9.0833e-18 0)
(0.0300068 3.08604e-17 0)
(0.0300068 -8.57076e-17 0)
(0.0300068 1.11573e-16 0)
(0.0300068 -2.53185e-17 0)
(0.0300068 -8.48802e-17 0)
(0.0300068 7.11039e-17 0)
(0.0300068 5.29643e-17 0)
(0.0300068 -8.68091e-17 0)
(0.0300068 -2.72222e-17 0)
(0.0300068 5.85134e-17 0)
(0.0300068 -2.96052e-17 0)
(0.0300068 8.20272e-17 0)
(0.0300068 4.80362e-17 0)
(0.0300068 -1.63842e-16 0)
(0.0300068 1.91126e-17 0)
(0.0300068 3.92901e-17 0)
(0.0300068 -6.87329e-17 0)
(0.0300068 6.87854e-17 0)
(0.0300068 -4.34669e-17 0)
(0.0300068 2.22817e-17 0)
(0.0300068 1.30755e-16 0)
(0.0300068 -9.99841e-17 0)
(0.0300068 -7.78702e-17 0)
(0.0300068 1.14062e-16 0)
(0.0300068 -5.07153e-17 0)
(0.0300068 -6.45985e-17 0)
(0.0300068 7.0045e-17 0)
(0.0300068 5.90367e-17 0)
(0.0300068 -6.86508e-17 0)
(0.0300068 1.34037e-17 0)
(0.0300068 1.11144e-17 0)
(0.0300068 -5.96228e-17 0)
(0.0300068 8.39888e-17 0)
(0.0300068 -9.21662e-17 0)
(0.0300068 -1.48998e-18 0)
(0.0300068 7.97919e-17 0)
(0.0300068 1.43081e-17 0)
(0.0300068 1.50038e-17 0)
(0.0300068 -8.91687e-18 0)
(0.0300068 -8.81977e-17 0)
(0.0300068 -4.17109e-17 0)
(0.0300068 1.43228e-16 0)
(0.0300068 -9.96969e-17 0)
(0.0300068 -5.98456e-18 0)
(0.0300068 4.02304e-17 0)
(0.0300068 5.22804e-17 0)
(0.0300068 6.04206e-17 0)
(0.0300068 -1.6566e-16 0)
(0.0300068 3.16313e-18 0)
(0.0300068 1.08582e-16 0)
(0.0300068 -1.10953e-16 0)
(0.0300068 7.25029e-18 0)
(0.0300068 1.56933e-16 0)
(0.0300068 -1.60302e-16 0)
(0.0300068 6.77174e-17 0)
(0.0300068 9.87579e-17 0)
(0.0300068 -1.55855e-16 0)
(0.0300068 1.22424e-17 0)
(0.0300068 7.26659e-17 0)
(0.0300068 -8.64184e-17 0)
(0.0300068 8.96123e-18 0)
(0.0300068 1.26932e-16 0)
(0.0300068 -3.99117e-17 0)
(0.0300068 -3.97101e-17 0)
(0.0300068 -1.39026e-17 0)
(0.0300068 -4.38281e-17 0)
(0.0300068 2.11376e-17 0)
(0.0300068 6.30711e-17 0)
(0.0300068 -9.81004e-17 0)
(0.0300068 7.04987e-18 0)
(0.0300068 1.35319e-16 0)
(0.0300068 -3.70768e-17 0)
(0.0300068 -3.90396e-17 0)
(0.0300068 -5.5598e-17 0)
(0.0300068 -2.35364e-18 0)
(0.0300068 8.63651e-17 0)
(0.0300068 -9.22296e-17 0)
(0.0300068 7.96739e-17 0)
(0.0300068 1.54376e-17 0)
(0.0300068 -9.0799e-17 0)
(0.0300068 1.2624e-16 0)
(0.0300068 -7.03813e-17 0)
(0.0300068 -4.5089e-17 0)
(0.0300068 5.05928e-17 0)
(0.0300068 3.48783e-17 0)
(0.0300068 -9.7062e-17 0)
(0.0300068 6.98838e-17 0)
(0.0300068 8.29755e-17 0)
(0.0300068 -9.86517e-17 0)
(0.0300068 -3.03524e-17 0)
(0.0300068 -1.93385e-18 0)
(0.0300068 5.56139e-17 0)
(0.0300068 -1.90904e-17 0)
(0.0300068 4.9872e-17 0)
(0.0300068 -9.07646e-17 0)
(0.0300068 6.52692e-17 0)
(0.0300068 7.6053e-17 0)
(0.0300068 -1.02313e-16 0)
(0.0300068 -4.17624e-17 0)
(0.0300068 5.14591e-17 0)
(0.0300068 3.20862e-18 0)
(0.0300068 -2.32005e-17 0)
(0.0300068 5.18577e-17 0)
(0.0300068 -1.09912e-16 0)
(0.0300068 1.14336e-16 0)
(0.0300068 2.31477e-17 0)
(0.0300068 -8.82462e-17 0)
(0.0300068 1.59901e-17 0)
(0.0300068 5.71253e-18 0)
(0.0300068 5.79835e-18 0)
(0.0300068 -3.02292e-17 0)
(0.0300068 4.58739e-17 0)
(0.0300068 9.92163e-17 0)
(0.0300068 -3.71991e-17 0)
(0.0300068 -1.66608e-16 0)
(0.0300068 6.40424e-18 0)
(0.0300068 7.12993e-17 0)
(0.0300068 -1.37005e-18 0)
(0.0300068 1.21888e-16 0)
(0.0300068 -1.1936e-16 0)
(0.0300068 -8.27683e-17 0)
(0.0300068 6.44679e-17 0)
(0.0300068 9.85152e-17 0)
(0.0300068 -3.90099e-17 0)
(0.0300068 -1.44762e-16 0)
(0.0300068 6.68559e-17 0)
(0.0300068 2.95632e-17 0)
(0.0300068 1.38877e-16 0)
(0.0300068 -1.3283e-16 0)
(0.0300068 -7.94707e-17 0)
(0.0300068 9.25634e-17 0)
(0.0300068 -1.64304e-17 0)
(0.0300068 6.67125e-18 0)
(0.0300068 -3.23768e-17 0)
(0.0300068 1.58823e-17 0)
(0.0300068 1.79249e-17 0)
(0.0300068 9.89944e-17 0)
(0.0300068 -1.15953e-16 0)
(0.0300068 -9.70973e-17 0)
(0.0300068 2.20022e-16 0)
(0.0300068 -9.26365e-17 0)
(0.0300068 -1.08052e-16 0)
(0.0300068 7.82786e-17 0)
(0.0300068 2.57646e-17 0)
(0.0300068 -4.63388e-19 0)
(0.0300068 8.98545e-17 0)
(0.0300068 -1.02232e-16 0)
(0.0300068 -1.15335e-16 0)
(0.0300068 2.23346e-16 0)
(0.0300068 -6.78323e-17 0)
(0.0300068 -1.40667e-16 0)
(0.0300068 6.48414e-17 0)
(0.0300068 1.63576e-16 0)
(0.0300068 -1.06404e-16 0)
(0.0300068 -6.63032e-18 0)
(0.0300068 1.045e-17 0)
(0.0300068 -1.16385e-16 0)
(0.0300068 2.08026e-16 0)
(0.0300068 -1.11252e-16 0)
(0.0300068 -8.73986e-18 0)
(0.0300068 -8.55705e-17 0)
(0.0300068 1.09502e-16 0)
(0.0300068 8.35162e-17 0)
(0.0300068 -1.81869e-16 0)
(0.0300068 9.95079e-17 0)
(0.0300068 -1.47483e-17 0)
(0.0300068 2.45739e-17 0)
(0.0300068 -2.2768e-17 0)
(0.0300068 8.84792e-17 0)
(0.0300068 -1.70355e-16 0)
(0.0300068 1.01365e-16 0)
(0.0300068 7.21355e-17 0)
(0.0300068 -1.85745e-16 0)
(0.0300068 9.93631e-17 0)
(0.0300068 8.73572e-17 0)
(0.0300068 -5.07113e-17 0)
(0.0300068 -1.51583e-16 0)
(0.0300068 1.97973e-16 0)
(0.0300068 -1.34819e-16 0)
(0.0300068 7.54318e-17 0)
(0.0300068 1.65246e-16 0)
(0.0300068 -2.8694e-16 0)
(0.0300068 3.02209e-17 0)
(0.0300068 1.67808e-16 0)
(0.0300068 -1.28583e-17 0)
(0.0300068 -1.753e-16 0)
(0.0300068 9.77233e-17 0)
(0.0300068 -1.09008e-17 0)
(0.0300068 6.73829e-19 0)
(0.0300068 1.47126e-17 0)
(0.0300068 -1.025e-16 0)
(0.0300068 1.02383e-16 0)
(0.0300068 6.84238e-18 0)
(0.0300068 8.81047e-17 0)
(0.0300068 -1.19604e-16 0)
(0.0300068 -5.50908e-17 0)
(0.0300068 9.06432e-17 0)
(0.0300068 6.52437e-17 0)
(0.0300068 -7.04344e-17 0)
(0.0300068 -8.66799e-17 0)
(0.0300068 1.86855e-16 0)
(0.0300068 -1.28623e-16 0)
(0.0300068 2.05594e-17 0)
(0.0300068 9.92386e-18 0)
(0.0300068 -9.07679e-17 0)
(0.0300068 1.91039e-16 0)
(0.0300068 -3.96117e-17 0)
(0.0300068 -1.75753e-16 0)
(0.0300068 4.09937e-17 0)
(0.0300068 1.76776e-16 0)
(0.0300068 -1.2158e-16 0)
(0.0300068 1.49115e-17 0)
(0.0300068 4.55508e-18 0)
(0.0300068 -5.35888e-19 0)
(0.0300068 1.10594e-16 0)
(0.0300068 -8.16728e-17 0)
(0.0300068 3.66215e-17 0)
(0.0888201 3.98006e-16 0)
(0.0888201 7.84199e-17 0)
(0.0888201 5.67735e-18 0)
(0.0888201 3.52343e-17 0)
(0.0888201 3.3845e-17 0)
(0.0888201 1.98283e-17 0)
(0.0888201 1.93203e-17 0)
(0.0888201 1.18623e-17 0)
(0.0888201 4.20609e-18 0)
(0.0888201 4.52927e-19 0)
(0.0888201 -1.10372e-17 0)
(0.0888201 -2.81545e-17 0)
(0.0888201 -1.45413e-17 0)
(0.0888201 -5.0947e-18 0)
(0.0888201 1.3815e-18 0)
(0.0888201 -1.51287e-17 0)
(0.0888201 -3.26264e-17 0)
(0.0888201 -1.86735e-17 0)
(0.0888201 -3.74097e-18 0)
(0.0888201 7.56616e-18 0)
(0.0888201 5.57445e-18 0)
(0.0888201 -1.44682e-18 0)
(0.0888201 1.88835e-17 0)
(0.0888201 -8.43312e-18 0)
(0.0888201 -1.71022e-17 0)
(0.0888201 -2.81497e-17 0)
(0.0888201 -1.95587e-18 0)
(0.0888201 2.15686e-17 0)
(0.0888201 -2.55306e-17 0)
(0.0888201 -5.4853e-18 0)
(0.0888201 1.14426e-18 0)
(0.0888201 -2.23786e-17 0)
(0.0888201 -1.43791e-17 0)
(0.0888201 -1.60866e-17 0)
(0.0888201 -3.52851e-17 0)
(0.0888201 1.69359e-18 0)
(0.0888201 -2.29047e-17 0)
(0.0888201 -1.42181e-17 0)
(0.0888201 -1.11577e-18 0)
(0.0888201 -3.07829e-17 0)
(0.0888201 1.16106e-17 0)
(0.0888201 -3.14063e-17 0)
(0.0888201 -1.4656e-17 0)
(0.0888201 2.7918e-17 0)
(0.0888201 -1.02663e-17 0)
(0.0888201 2.89646e-17 0)
(0.0888201 2.76642e-17 0)
(0.0888201 -3.84859e-17 0)
(0.0888201 -1.02915e-17 0)
(0.0888201 3.95559e-17 0)
(0.0888201 3.07303e-17 0)
(0.0888201 1.34008e-17 0)
(0.0888201 -4.09932e-17 0)
(0.0888201 -1.76088e-17 0)
(0.0888201 3.75879e-17 0)
(0.0888201 -1.40396e-17 0)
(0.0888201 2.07925e-17 0)
(0.0888201 -1.19616e-17 0)
(0.0888201 -4.4888e-17 0)
(0.0888201 4.29027e-18 0)
(0.0888201 4.87033e-18 0)
(0.0888201 -4.25877e-18 0)
(0.0888201 -1.02569e-18 0)
(0.0888201 1.01313e-17 0)
(0.0888201 -1.5212e-17 0)
(0.0888201 2.81381e-17 0)
(0.0888201 -3.65614e-17 0)
(0.0888201 -2.94708e-17 0)
(0.0888201 6.13581e-17 0)
(0.0888201 -5.68145e-18 0)
(0.0888201 -2.39885e-17 0)
(0.0888201 1.40987e-17 0)
(0.0888201 5.38919e-17 0)
(0.0888201 -1.40167e-17 0)
(0.0888201 -4.14207e-17 0)
(0.0888201 9.76929e-17 0)
(0.0888201 3.47987e-17 0)
(0.0888201 -5.43246e-17 0)
(0.0888201 -1.50006e-17 0)
(0.0888201 3.94329e-17 0)
(0.0888201 4.99388e-18 0)
(0.0888201 -3.77061e-17 0)
(0.0888201 2.04598e-17 0)
(0.0888201 -1.38957e-17 0)
(0.0888201 -5.46054e-17 0)
(0.0888201 5.67624e-17 0)
(0.0888201 1.0907e-17 0)
(0.0888201 -2.56029e-17 0)
(0.0888201 7.40899e-18 0)
(0.0888201 1.0301e-17 0)
(0.0888201 1.85215e-17 0)
(0.0888201 1.43557e-17 0)
(0.0888201 2.91677e-17 0)
(0.0888201 5.89054e-18 0)
(0.0888201 1.84956e-18 0)
(0.0888201 -6.05587e-17 0)
(0.0888201 -3.829e-18 0)
(0.0888201 7.44052e-17 0)
(0.0888201 -5.13077e-17 0)
(0.0888201 -2.76712e-17 0)
(0.0888201 6.2451e-17 0)
(0.0888201 5.20475e-17 0)
(0.0888201 -1.13615e-17 0)
(0.0888201 -1.42968e-17 0)
(0.0888201 9.57161e-18 0)
(0.0888201 -1.32992e-17 0)
(0.0888201 -1.20868e-17 0)
(0.0888201 4.67189e-18 0)
(0.0888201 4.60632e-17 0)
(0.0888201 5.92689e-17 0)
(0.0888201 -3.7517e-17 0)
(0.0888201 -9.30889e-17 0)
(0.0888201 -9.42274e-18 0)
(0.0888201 9.31077e-17 0)
(0.0888201 2.14472e-17 0)
(0.0888201 -7.93568e-17 0)
(0.0888201 -5.97764e-17 0)
(0.0888201 4.10932e-17 0)
(0.0888201 7.39764e-17 0)
(0.0888201 7.82995e-19 0)
(0.0888201 -2.27589e-17 0)
(0.0888201 -1.48519e-18 0)
(0.0888201 4.42786e-17 0)
(0.0888201 -1.15216e-17 0)
(0.0888201 -6.43157e-17 0)
(0.0888201 5.33085e-17 0)
(0.0888201 4.70616e-17 0)
(0.0888201 -3.48412e-17 0)
(0.0888201 1.06999e-17 0)
(0.0888201 2.16573e-17 0)
(0.0888201 6.22971e-18 0)
(0.0888201 -1.8558e-18 0)
(0.0888201 1.01084e-16 0)
(0.0888201 -8.05448e-17 0)
(0.0888201 -9.12395e-17 0)
(0.0888201 6.20963e-17 0)
(0.0888201 2.80687e-19 0)
(0.0888201 -5.17847e-17 0)
(0.0888201 8.41444e-17 0)
(0.0888201 2.60293e-17 0)
(0.0888201 -1.34867e-16 0)
(0.0888201 -7.42392e-17 0)
(0.0888201 6.78678e-17 0)
(0.0888201 1.18475e-16 0)
(0.0888201 -6.20299e-17 0)
(0.0888201 -1.83498e-17 0)
(0.0888201 1.46641e-16 0)
(0.0888201 -3.72748e-17 0)
(0.0888201 -7.67961e-17 0)
(0.0888201 1.04386e-16 0)
(0.0888201 -7.97959e-17 0)
(0.0888201 -3.59838e-17 0)
(0.0888201 1.26042e-16 0)
(0.0888201 -1.35453e-16 0)
(0.0888201 -3.82565e-17 0)
(0.0888201 7.61107e-17 0)
(0.0888201 -8.88927e-17 0)
(0.0888201 1.41016e-17 0)
(0.0888201 7.88616e-18 0)
(0.0888201 9.52672e-17 0)
(0.0888201 7.15021e-17 0)
(0.0888201 -5.10878e-17 0)
(0.0888201 -4.28299e-17 0)
(0.0888201 9.50089e-18 0)
(0.0888201 -2.5376e-17 0)
(0.0888201 1.11392e-18 0)
(0.0888201 7.65535e-17 0)
(0.0888201 -1.40265e-16 0)
(0.0888201 9.40839e-17 0)
(0.0888201 1.49959e-16 0)
(0.0888201 -1.40207e-16 0)
(0.0888201 5.92313e-17 0)
(0.0888201 1.29706e-16 0)
(0.0888201 -1.19015e-16 0)
(0.0888201 -7.0907e-17 0)
(0.0888201 3.79814e-17 0)
(0.0888201 6.89238e-17 0)
(0.0888201 -1.27394e-17 0)
(0.0888201 -6.76748e-17 0)
(0.0888201 7.89748e-17 0)
(0.0888201 7.07092e-18 0)
(0.0888201 -7.15388e-17 0)
(0.0888201 6.81807e-18 0)
(0.0888201 -2.83018e-17 0)
(0.0888201 6.42928e-17 0)
(0.0888201 -9.09052e-18 0)
(0.0888201 -9.81497e-17 0)
(0.0888201 -3.17601e-17 0)
(0.0888201 -1.7322e-17 0)
(0.0888201 4.91457e-18 0)
(0.0888201 -8.22829e-17 0)
(0.0888201 -5.0683e-17 0)
(0.0888201 -1.24027e-17 0)
(0.0888201 1.29956e-16 0)
(0.0888201 7.27252e-17 0)
(0.0888201 -4.89506e-17 0)
(0.0888201 6.19844e-17 0)
(0.0888201 1.88529e-17 0)
(0.0888201 -1.59404e-16 0)
(0.0888201 -7.16999e-17 0)
(0.0888201 5.06054e-17 0)
(0.0888201 -1.23566e-16 0)
(0.0888201 1.11872e-16 0)
(0.0888201 6.79774e-17 0)
(0.0888201 5.31234e-18 0)
(0.0888201 7.77982e-17 0)
(0.0888201 -1.12118e-16 0)
(0.0888201 -1.01099e-16 0)
(0.0888201 4.27906e-17 0)
(0.0888201 -2.21964e-17 0)
(0.0888201 1.65385e-17 0)
(0.0888201 1.53789e-17 0)
(0.0888201 -7.88061e-17 0)
(0.0888201 7.00205e-17 0)
(0.0888201 -5.73594e-17 0)
(0.0888201 1.81209e-17 0)
(0.0888201 -5.92897e-17 0)
(0.0888201 -4.16896e-17 0)
(0.0888201 9.93444e-17 0)
(0.0888201 9.95721e-17 0)
(0.0888201 -1.4394e-17 0)
(0.0888201 -5.97716e-17 0)
(0.0888201 4.59949e-17 0)
(0.0888201 -6.20653e-17 0)
(0.0888201 4.39968e-18 0)
(0.0888201 4.52348e-17 0)
(0.0888201 -8.69535e-18 0)
(0.0888201 3.46218e-17 0)
(0.0888201 1.27592e-16 0)
(0.0888201 -3.82939e-18 0)
(0.0888201 -5.6141e-17 0)
(0.0888201 -1.0221e-16 0)
(0.0888201 3.17105e-18 0)
(0.0888201 2.04517e-17 0)
(0.0888201 -8.42782e-17 0)
(0.0888201 7.42603e-17 0)
(0.0888201 3.22971e-17 0)
(0.0888201 4.42111e-17 0)
(0.0888201 -5.06357e-17 0)
(0.0888201 -1.48695e-17 0)
(0.0888201 6.52181e-18 0)
(0.0888201 -7.55528e-17 0)
(0.0888201 3.71508e-17 0)
(0.0888201 1.50176e-16 0)
(0.0888201 -5.03598e-17 0)
(0.0888201 -1.31183e-17 0)
(0.0888201 6.93177e-17 0)
(0.0888201 -1.04221e-16 0)
(0.0888201 -5.59195e-18 0)
(0.0888201 -1.12324e-17 0)
(0.0888201 -4.28886e-17 0)
(0.0888201 2.47876e-17 0)
(0.0888201 1.03641e-16 0)
(0.0888201 -4.62251e-17 0)
(0.0888201 -3.48543e-17 0)
(0.0888201 7.81848e-17 0)
(0.0888201 -4.69553e-17 0)
(0.0888201 -8.42876e-17 0)
(0.0888201 4.92591e-17 0)
(0.0888201 -8.50556e-17 0)
(0.0888201 4.08543e-17 0)
(0.0888201 1.81248e-16 0)
(0.0888201 -1.29545e-16 0)
(0.0888201 4.30572e-17 0)
(0.0888201 -1.30954e-16 0)
(0.0888201 -1.14757e-16 0)
(0.0888201 2.72981e-16 0)
(0.0888201 -2.04352e-16 0)
(0.0888201 -1.12766e-16 0)
(0.0888201 4.13255e-16 0)
(0.0888201 -1.56755e-16 0)
(0.0888201 -1.35573e-16 0)
(0.0888201 9.36655e-17 0)
(0.0888201 -1.23556e-16 0)
(0.0888201 9.78048e-17 0)
(0.0888201 -8.98994e-17 0)
(0.0888201 -3.41904e-17 0)
(0.0888201 1.23445e-16 0)
(0.0888201 1.14909e-16 0)
(0.0888201 -1.04762e-16 0)
(0.0888201 -1.16204e-16 0)
(0.0888201 -4.97841e-17 0)
(0.0888201 5.60496e-17 0)
(0.0888201 1.42278e-16 0)
(0.0888201 -1.71321e-16 0)
(0.0888201 2.10804e-16 0)
(0.0888201 1.69146e-17 0)
(0.0888201 -2.11699e-16 0)
(0.0888201 1.59856e-16 0)
(0.0888201 8.55218e-17 0)
(0.0888201 -2.23388e-16 0)
(0.0888201 7.54846e-17 0)
(0.0888201 1.4712e-17 0)
(0.0888201 -1.79279e-16 0)
(0.0888201 3.11064e-16 0)
(0.0888201 8.4743e-17 0)
(0.0888201 -3.0836e-16 0)
(0.0888201 7.21969e-17 0)
(0.0888201 -3.94107e-17 0)
(0.0888201 -1.97724e-16 0)
(0.0888201 2.817e-16 0)
(0.0888201 -1.34495e-16 0)
(0.0888201 -9.87468e-17 0)
(0.0888201 3.73622e-16 0)
(0.0888201 -1.41847e-16 0)
(0.0888201 -2.25166e-16 0)
(0.0888201 2.05653e-16 0)
(0.0888201 -1.29363e-16 0)
(0.0888201 -1.65956e-16 0)
(0.0888201 3.14964e-16 0)
(0.0888201 5.5054e-17 0)
(0.0888201 -2.42095e-16 0)
(0.0888201 1.22007e-16 0)
(0.0888201 6.32359e-17 0)
(0.0888201 -1.17455e-16 0)
(0.0888201 6.5795e-17 0)
(0.0888201 -5.96872e-17 0)
(0.0888201 -1.25126e-16 0)
(0.0888201 -1.44495e-17 0)
(0.0888201 1.89232e-16 0)
(0.0888201 1.14922e-16 0)
(0.0888201 -4.13767e-17 0)
(0.0888201 -1.12322e-16 0)
(0.0888201 -8.25495e-17 0)
(0.0888201 1.73021e-16 0)
(0.0888201 -1.52949e-17 0)
(0.0888201 -1.4409e-16 0)
(0.0888201 -6.33354e-17 0)
(0.0888201 2.14273e-16 0)
(0.0888201 1.37062e-16 0)
(0.0888201 -2.96982e-16 0)
(0.0888201 2.303e-17 0)
(0.0888201 1.18188e-16 0)
(0.0888201 -2.27236e-16 0)
(0.0888201 1.7939e-16 0)
(0.0888201 1.90131e-16 0)
(0.0888201 -3.34481e-16 0)
(0.0888201 2.7897e-16 0)
(0.0888201 1.18882e-16 0)
(0.0888201 -3.16913e-16 0)
(0.0888201 8.31933e-17 0)
(0.0888201 -1.60987e-17 0)
(0.0888201 -1.54667e-16 0)
(0.0888201 9.11548e-17 0)
(0.0888201 1.94355e-16 0)
(0.0888201 -1.06825e-17 0)
(0.0888201 -2.52419e-17 0)
(0.0888201 -1.60594e-16 0)
(0.0888201 -1.10089e-16 0)
(0.0888201 1.72149e-16 0)
(0.0888201 -5.30454e-17 0)
(0.0888201 -2.20732e-16 0)
(0.0888201 9.06775e-17 0)
(0.0888201 2.24091e-16 0)
(0.0888201 1.14282e-17 0)
(0.0888201 -1.44144e-17 0)
(0.0888201 -1.66859e-16 0)
(0.0888201 -1.30231e-16 0)
(0.0888201 1.17991e-16 0)
(0.0888201 5.23446e-17 0)
(0.0888201 1.08956e-16 0)
(0.0888201 -1.87379e-16 0)
(0.0888201 8.59518e-17 0)
(0.0888201 2.935e-16 0)
(0.0888201 -2.45517e-16 0)
(0.0888201 -1.27758e-17 0)
(0.0888201 8.35298e-18 0)
(0.0888201 -1.26299e-16 0)
(0.0888201 2.29395e-17 0)
(0.0888201 3.0901e-16 0)
(0.0888201 2.63729e-17 0)
(0.0888201 -1.35707e-16 0)
(0.0888201 -9.29753e-17 0)
(0.0888201 -5.43819e-17 0)
(0.0888201 1.76766e-16 0)
(0.0888201 -1.0623e-16 0)
(0.0888201 8.56721e-18 0)
(0.0888201 -5.75374e-17 0)
(0.0888201 1.61924e-16 0)
(0.0888201 2.82082e-17 0)
(0.0888201 -9.83792e-17 0)
(0.0888201 -6.27948e-17 0)
(0.0888201 -1.06432e-17 0)
(0.0888201 6.55516e-17 0)
(0.0888201 -3.49446e-17 0)
(0.0888201 2.19916e-16 0)
(0.0888201 -1.74679e-16 0)
(0.0888201 8.43594e-17 0)
(0.0888201 1.051e-16 0)
(0.0888201 -1.1341e-16 0)
(0.0888201 -6.9382e-17 0)
(0.0888201 9.86473e-17 0)
(0.0888201 -9.64367e-17 0)
(0.0888201 -2.00679e-16 0)
(0.0888201 3.18478e-16 0)
(0.0888201 1.93752e-16 0)
(0.0888201 -1.60099e-16 0)
(0.0888201 -1.5561e-16 0)
(0.0888201 -1.30938e-16 0)
(0.0888201 -6.72884e-17 0)
(0.0888201 1.36418e-16 0)
(0.0888201 2.76615e-16 0)
(0.0888201 -2.29882e-16 0)
(0.0888201 -1.65225e-16 0)
(0.0888201 -7.44539e-17 0)
(0.0888201 3.12919e-16 0)
(0.0888201 2.07225e-16 0)
(0.0888201 -4.6285e-16 0)
(0.0888201 -3.69729e-17 0)
(0.0888201 2.63681e-16 0)
(0.0888201 1.74239e-16 0)
(0.0888201 -2.79639e-16 0)
(0.0888201 8.04069e-17 0)
(0.0888201 6.45852e-17 0)
(0.0888201 -5.25091e-17 0)
(0.0888201 5.78125e-17 0)
(0.0888201 -2.58718e-16 0)
(0.0888201 -1.2067e-17 0)
(0.0888201 3.08169e-16 0)
(0.0888201 6.77865e-17 0)
(0.0888201 -3.52046e-16 0)
(0.0888201 -6.21891e-17 0)
(0.0888201 4.21958e-16 0)
(0.0888201 -8.71033e-17 0)
(0.0888201 -2.00158e-16 0)
(0.0888201 5.61367e-17 0)
(0.0888201 1.2665e-16 0)
(0.0888201 2.4133e-17 0)
(0.0888201 1.04587e-17 0)
(0.0888201 -1.09555e-16 0)
(0.0888201 -1.02585e-16 0)
(0.0888201 3.54126e-16 0)
(0.0888201 -1.83372e-17 0)
(0.0888201 -3.79381e-16 0)
(0.0888201 1.264e-17 0)
(0.0888201 4.74385e-16 0)
(0.0888201 -1.02653e-16 0)
(0.0888201 -5.53385e-17 0)
(0.0888201 -2.04112e-17 0)
(0.0888201 -2.1057e-16 0)
(0.0888201 3.29643e-16 0)
(0.0888201 -1.73429e-16 0)
(0.0888201 -6.19486e-17 0)
(0.0888201 -1.11108e-17 0)
(0.0888201 1.0919e-16 0)
(0.0888201 2.19122e-17 0)
(0.0888201 -5.97952e-17 0)
(0.0888201 2.89474e-17 0)
(0.0888201 -1.48666e-16 0)
(0.0888201 1.9607e-16 0)
(0.0888201 -3.78836e-17 0)
(0.0888201 9.78052e-17 0)
(0.0888201 -8.5954e-17 0)
(0.0888201 6.54113e-17 0)
(0.0888201 -5.4157e-17 0)
(0.0888201 -7.66781e-17 0)
(0.0888201 7.65784e-17 0)
(0.0888201 6.03094e-17 0)
(0.0888201 1.82578e-16 0)
(0.0888201 -4.50832e-16 0)
(0.0888201 2.09448e-16 0)
(0.0888201 1.9898e-16 0)
(0.0888201 5.4191e-19 0)
(0.0888201 2.44827e-17 0)
(0.0888201 -3.55179e-16 0)
(0.0888201 1.03746e-16 0)
(0.0888201 2.05808e-16 0)
(0.0888201 -4.24649e-17 0)
(0.0888201 -2.09298e-16 0)
(0.0888201 1.14538e-16 0)
(0.0888201 -4.93939e-17 0)
(0.0888201 1.20761e-17 0)
(0.0888201 5.60949e-17 0)
(0.0888201 -1.39797e-16 0)
(0.0888201 1.78058e-16 0)
(0.0888201 8.09366e-17 0)
(0.0888201 1.01526e-16 0)
(0.0888201 -2.4448e-16 0)
(0.0888201 1.78384e-17 0)
(0.0888201 1.41492e-16 0)
(0.0888201 2.97149e-17 0)
(0.0888201 -5.21693e-17 0)
(0.0888201 -9.56707e-17 0)
(0.0888201 2.12866e-16 0)
(0.0888201 -2.66682e-16 0)
(0.0888201 6.19685e-17 0)
(0.0888201 3.66833e-17 0)
(0.0888201 -8.49362e-17 0)
(0.0888201 2.52732e-16 0)
(0.0888201 -1.79491e-16 0)
(0.0888201 -2.32803e-16 0)
(0.0888201 1.69302e-16 0)
(0.0888201 2.24231e-16 0)
(0.0888201 -2.54111e-16 0)
(0.0888201 1.64824e-17 0)
(0.0888201 1.50422e-17 0)
(0.0888201 -1.07383e-17 0)
(0.0888201 1.46866e-16 0)
(0.0888201 -1.27238e-16 0)
(0.0888201 1.16081e-16 0)
(0.146433 3.11767e-16 0)
(0.146433 5.49661e-17 0)
(0.146433 1.46451e-17 0)
(0.146433 7.55262e-17 0)
(0.146433 6.96286e-17 0)
(0.146433 3.22444e-17 0)
(0.146433 3.07191e-17 0)
(0.146433 3.31808e-17 0)
(0.146433 5.14912e-18 0)
(0.146433 -2.70229e-17 0)
(0.146433 -3.96031e-17 0)
(0.146433 -5.9582e-17 0)
(0.146433 -5.83702e-17 0)
(0.146433 -1.58914e-17 0)
(0.146433 -1.718e-17 0)
(0.146433 -2.98589e-17 0)
(0.146433 -4.58727e-17 0)
(0.146433 -5.86481e-17 0)
(0.146433 7.89591e-18 0)
(0.146433 7.38483e-18 0)
(0.146433 -1.19909e-17 0)
(0.146433 8.6419e-18 0)
(0.146433 3.35032e-17 0)
(0.146433 -2.03152e-17 0)
(0.146433 -2.0914e-17 0)
(0.146433 -5.53801e-17 0)
(0.146433 -2.88313e-17 0)
(0.146433 4.16239e-17 0)
(0.146433 -3.85222e-17 0)
(0.146433 -3.42402e-17 0)
(0.146433 -2.33263e-17 0)
(0.146433 -1.73925e-17 0)
(0.146433 -2.58042e-17 0)
(0.146433 -8.28449e-17 0)
(0.146433 -6.11578e-17 0)
(0.146433 1.5411e-17 0)
(0.146433 -7.70687e-17 0)
(0.146433 -4.99956e-17 0)
(0.146433 -1.09151e-17 0)
(0.146433 -6.19778e-17 0)
(0.146433 -2.25319e-17 0)
(0.146433 -3.97661e-17 0)
(0.146433 -3.91423e-17 0)
(0.146433 2.6648e-17 0)
(0.146433 5.06288e-17 0)
(0.146433 4.4281e-17 0)
(0.146433 5.32703e-17 0)
(0.146433 -4.48199e-17 0)
(0.146433 -1.8521e-17 0)
(0.146433 8.91781e-17 0)
(0.146433 5.3828e-17 0)
(0.146433 -2.08856e-17 0)
(0.146433 -6.03639e-17 0)
(0.146433 2.80858e-20 0)
(0.146433 3.4266e-17 0)
(0.146433 -7.69413e-18 0)
(0.146433 4.07485e-17 0)
(0.146433 -5.51587e-17 0)
(0.146433 -8.0533e-17 0)
(0.146433 -7.80371e-18 0)
(0.146433 -1.21238e-17 0)
(0.146433 1.76976e-17 0)
(0.146433 -1.98711e-17 0)
(0.146433 1.17679e-17 0)
(0.146433 2.46408e-17 0)
(0.146433 2.04152e-18 0)
(0.146433 -5.96152e-17 0)
(0.146433 -3.64944e-17 0)
(0.146433 4.00092e-17 0)
(0.146433 4.01624e-17 0)
(0.146433 3.05581e-17 0)
(0.146433 1.33395e-17 0)
(0.146433 7.49436e-17 0)
(0.146433 -1.09662e-17 0)
(0.146433 -8.21956e-17 0)
(0.146433 1.4207e-16 0)
(0.146433 1.24e-16 0)
(0.146433 -2.95899e-17 0)
(0.146433 -5.45059e-17 0)
(0.146433 1.01308e-17 0)
(0.146433 3.10883e-17 0)
(0.146433 -3.51695e-17 0)
(0.146433 -3.70261e-17 0)
(0.146433 -4.65786e-18 0)
(0.146433 -5.79868e-18 0)
(0.146433 2.55688e-18 0)
(0.146433 -3.48173e-17 0)
(0.146433 5.14752e-17 0)
(0.146433 -3.49236e-19 0)
(0.146433 -1.74209e-17 0)
(0.146433 6.13039e-17 0)
(0.146433 2.78131e-17 0)
(0.146433 5.1802e-17 0)
(0.146433 5.76523e-17 0)
(0.146433 5.13324e-18 0)
(0.146433 -1.30898e-16 0)
(0.146433 -3.23535e-17 0)
(0.146433 1.45487e-16 0)
(0.146433 -7.01635e-17 0)
(0.146433 -7.99915e-17 0)
(0.146433 1.54001e-16 0)
(0.146433 9.64975e-17 0)
(0.146433 -3.06129e-17 0)
(0.146433 -1.00959e-16 0)
(0.146433 1.75323e-17 0)
(0.146433 1.01353e-16 0)
(0.146433 -8.11882e-18 0)