/*--------------------------------*- C++ -*----------------------------------*\
| =========                 |                                                 |
| \\      /  F ield         | OpenFOAM: The Open Source CFD Toolbox           |
|  \\    /   O peration     | Version:  2112                                  |
|   \\  /    A nd           | Website:  www.openfoam.com                      |
|    \\/     M anipulation  |                                                 |
\*---------------------------------------------------------------------------*/
FoamFile
{
    version     2.0;
    format      ascii;
    arch        "LSB;label=32;scalar=64";
    class       volScalarField;
    location    "12";
    object      p;
}
// * * * * * * * * * * * * * * * * * * * * * * * * * * * * * * * * * * * * * //

dimensions      [0 2 -2 0 0 0 0];

internalField   nonuniform List<scalar> 
16641
(
-1.43901e-08
3.76498e-07
-2.9054e-06
-9.57816e-06
-1.89307e-05
-3.03153e-05
-4.31206e-05
-5.68337e-05
-7.10711e-05
-8.55088e-05
-9.99545e-05
-0.000114271
-0.000128377
-0.000142236
-0.000155842
-0.000169208
-0.000182363
-0.000195338
-0.000208164
-0.000220868
-0.000233469
-0.000245976
-0.000258386
-0.000270685
-0.000282844
-0.000294823
-0.000306568
-0.000318014
-0.000329084
-0.00033969
-0.000349733
-0.000359105
-0.000367691
-0.000375364
-0.000381993
-0.000387439
-0.000391558
-0.000394201
-0.000395216
-0.000394449
-0.000391743
-0.000386942
-0.000379894
-0.000370446
-0.000358454
-0.00034378
-0.000326292
-0.000305874
-0.000282422
-0.00025585
-0.000226092
-0.000193103
-0.000156866
-0.000117393
-7.47275e-05
-2.89479e-05
1.98283e-05
7.14434e-05
0.000125696
0.00018234
0.000241084
0.000301587
0.000363462
0.000426275
0.000489545
0.000552751
0.00061533
0.000676687
0.000736194
0.000793205
0.000847055
0.000897076
0.000942602
0.000982982
0.00101759
0.00104582
0.00106714
0.00108105
0.00108713
0.00108501
0.00107443
0.0010552
0.00102725
0.000990569
0.000945275
0.000891571
0.00082976
0.000760238
0.000683486
0.000600063
0.000510597
0.000415778
0.000316337
0.000213043
0.000106686
-1.93199e-06
-0.000112013
-0.000222772
-0.000333447
-0.000443312
-0.000551681
-0.000657917
-0.00076144
-0.000861725
-0.000958311
-0.00105079
-0.00113883
-0.00122213
-0.00130046
-0.00137364
-0.00144154
-0.00150404
-0.00156109
-0.00161263
-0.00165863
-0.00169909
-0.00173399
-0.00176334
-0.00178714
-0.00180543
-0.00181825
-0.0018257
-0.00182798
-0.00182543
-0.00181864
-0.00180861
-0.00179696
-0.00178598
-0.00177921
-6.6862e-07
-2.66149e-07
-3.23484e-06
-9.0369e-06
-1.70632e-05
-2.6861e-05
-3.80004e-05
-5.00753e-05
-6.27652e-05
-7.58079e-05
-8.90151e-05
-0.000102251
-0.000115427
-0.000128493
-0.000141422
-0.000154211
-0.000166865
-0.000179397
-0.000191822
-0.000204152
-0.000216391
-0.000228539
-0.000240585
-0.000252507
-0.000264271
-0.000275835
-0.000287143
-0.00029813
-0.00030872
-0.000318827
-0.000328356
-0.000337203
-0.000345256
-0.000352396
-0.000358498
-0.000363429
-0.000367054
-0.000369232
-0.000369821
-0.000368676
-0.000365651
-0.000360603
-0.000353388
-0.000343867
-0.000331908
-0.000317384
-0.000300177
-0.000280181
-0.000257306
-0.000231475
-0.000202633
-0.000170746
-0.000135804
-9.78259e-05
-5.68599e-05
-1.29884e-05
3.36696e-05
8.29574e-05
0.000134678
0.000188592
0.000244416
0.000301821
0.000360435
0.000419843
0.000479586
0.000539166
0.000598047
0.000655662
0.000711418
0.0007647
0.000814879
0.000861323
0.000903403
0.000940506
0.000972039
0.000997444
0.00101621
0.00102786
0.00103202
0.00102834
0.00101659
0.000996586
0.000968262
0.000931632
0.000886804
0.000833984
0.000773463
0.000705624
0.000630927
0.00054991
0.000463172
0.000371368
0.000275197
0.000175389
7.26957e-05
-3.21231e-05
-0.00013831
-0.000245119
-0.000351829
-0.000457751
-0.000562234
-0.000664675
-0.000764522
-0.000861277
-0.000954499
-0.0010438
-0.00112886
-0.0012094
-0.00128519
-0.00135606
-0.00142188
-0.00148254
-0.00153798
-0.00158816
-0.00163306
-0.00167268
-0.00170703
-0.00173614
-0.00176005
-0.00177882
-0.00179256
-0.00180143
-0.00180568
-0.00180568
-0.00180201
-0.00179551
-0.00178743
-0.00177923
-0.00177243
2.32071e-06
2.42931e-06
-5.56681e-07
-6.02685e-06
-1.34244e-05
-2.23859e-05
-3.25629e-05
-4.36334e-05
-5.53248e-05
-6.74184e-05
-7.97442e-05
-9.21799e-05
-0.000104642
-0.000117074
-0.000129446
-0.000141745
-0.000153966
-0.000166113
-0.00017819
-0.000190199
-0.000202138
-0.000213998
-0.000225762
-0.000237403
-0.000248885
-0.000260162
-0.000271177
-0.000281864
-0.000292149
-0.000301946
-0.000311161
-0.000319695
-0.000327437
-0.000334274
-0.000340083
-0.000344739
-0.000348111
-0.000350064
-0.000350464
-0.000349171
-0.000346049
-0.000340959
-0.000333769
-0.000324346
-0.000312565
-0.000298308
-0.000281465
-0.000261938
-0.000239642
-0.000214509
-0.000186487
-0.000155549
-0.000121688
-8.49244e-05
-4.53089e-05
-2.92334e-06
4.21147e-05
8.96516e-05
0.000139496
0.000191415
0.000245133
0.00030033
0.000356651
0.000413689
0.000471001
0.000528107
0.000584488
0.000639595
0.000692856
0.000743675
0.000791445
0.000835555
0.000875397
0.000910378
0.000939926
0.000963501
0.000980608
0.000990802
0.000993698
0.000988984
0.00097642
0.00095585
0.000927204
0.000890504
0.000845861
0.000793476
0.000733641
0.00066673
0.000593198
0.000513568
0.000428428
0.000338417
0.000244216
0.000146535
4.61056e-05
-5.63339e-05
-0.000160049
-0.000264317
-0.000368441
-0.000471754
-0.000573628
-0.000673482
-0.000770785
-0.000865059
-0.000955879
-0.00104288
-0.00112574
-0.00120421
-0.00127806
-0.00134714
-0.00141131
-0.0014705
-0.00152464
-0.0015737
-0.00161768
-0.00165658
-0.00169043
-0.00171928
-0.00174318
-0.00176223
-0.00177654
-0.00178628
-0.00179169
-0.00179313
-0.00179104
-0.00178612
-0.00177928
-0.00177105
-0.00176141
8.88107e-06
8.04193e-06
4.60201e-06
-9.56388e-07
-8.18184e-06
-1.67588e-05
-2.63959e-05
-3.68285e-05
-4.7834e-05
-5.92289e-05
-7.08719e-05
-8.26593e-05
-9.45163e-05
-0.000106395
-0.000118265
-0.000130111
-0.000141926
-0.000153709
-0.000165459
-0.000177171
-0.000188839
-0.000200448
-0.000211977
-0.000223395
-0.000234663
-0.000245733
-0.000256546
-0.000267038
-0.000277131
-0.000286741
-0.000295778
-0.000304141
-0.000311724
-0.000318415
-0.000324097
-0.000328647
-0.000331938
-0.000333842
-0.000334228
-0.000332964
-0.000329916
-0.000324953
-0.000317948
-0.000308775
-0.000297313
-0.000283449
-0.000267079
-0.000248111
-0.000226462
-0.000202067
-0.000174878
-0.000144867
-0.000112031
-7.63882e-05
-3.79873e-05
3.09186e-06
4.67363e-05
9.27975e-05
0.00014109
0.000191388
0.000243425
0.000296891
0.00035144
0.000406676
0.000462169
0.000517448
0.000572009
0.000625316
0.000676806
0.000725898
0.000771996
0.000814501
0.000852816
0.000886358
0.000914564
0.000936905
0.000952893
0.000962089
0.000964118
0.00095867
0.000945513
0.000924493
0.000895546
0.000858695
0.000814052
0.000761822
0.000702294
0.000635844
0.000562923
0.000484053
0.000399818
0.00031085
0.000217824
0.000121444
2.2432e-05
-7.84835e-05
-0.000180578
-0.000283145
-0.000385497
-0.000486982
-0.000586988
-0.000684949
-0.000780349
-0.000872726
-0.000961671
-0.00104683
-0.00112791
-0.00120465
-0.00127686
-0.0013444
-0.00140713
-0.001465
-0.00151795
-0.00156598
-0.00160907
-0.00164727
-0.0016806
-0.00170912
-0.00173291
-0.00175206
-0.00176668
-0.00177693
-0.00178301
-0.0017852
-0.00178382
-0.00177938
-0.00177252
-0.00176301
-0.00174969
1.84548e-05
1.60511e-05
1.17543e-05
5.78805e-06
-1.56587e-06
-1.00368e-05
-1.93822e-05
-2.93928e-05
-3.98904e-05
-5.07312e-05
-6.18048e-05
-7.30273e-05
-8.43407e-05
-9.57074e-05
-0.000107103
-0.000118515
-0.000129939
-0.000141369
-0.000152802
-0.000164233
-0.00017565
-0.000187034
-0.00019836
-0.000209597
-0.000220702
-0.000231624
-0.000242305
-0.000252678
-0.000262665
-0.000272185
-0.000281146
-0.000289449
-0.000296991
-0.000303662
-0.000309347
-0.000313927
-0.00031728
-0.000319281
-0.000319803
-0.000318717
-0.000315896
-0.000311213
-0.000304545
-0.000295769
-0.000284769
-0.000271437
-0.00025567
-0.000237378
-0.000216483
-0.000192918
-0.000166637
-0.000137611
-0.000105834
-7.13217e-05
-3.41195e-05
5.69763e-06
4.8023e-05
9.27153e-05
0.000139596
0.000188447
0.000239012
0.00029099
0.000344044
0.000397788
0.000451801
0.000505622
0.000558756
0.000610674
0.000660823
0.000708628
0.000753499
0.000794842
0.000832067
0.000864592
0.000891858
0.000913338
0.000928545
0.000937043
0.000938456
0.000932476
0.00091887
0.000897487
0.000868262
0.00083122
0.000786475
0.000734233
0.000674786
0.000608512
0.000535865
0.000457368
0.000373607
0.000285218
0.000192875
9.72828e-05
-8.37305e-07
-0.00010076
-0.000201762
-0.000303143
-0.000404223
-0.000504358
-0.000602944
-0.000699428
-0.000793304
-0.000884124
-0.000971493
-0.00105507
-0.00113458
-0.00120978
-0.0012805
-0.0013466
-0.00140797
-0.00146457
-0.00151636
-0.00156335
-0.00160554
-0.00164299
-0.00167574
-0.00170386
-0.00172742
-0.00174652
-0.00176126
-0.00177178
-0.00177822
-0.00178077
-0.00177964
-0.00177518
-0.00176779
-0.00175663
-0.00173963
3.04482e-05
2.60314e-05
2.05626e-05
1.39144e-05
6.17117e-06
-2.43423e-06
-1.17068e-05
-2.14871e-05
-3.16425e-05
-4.20685e-05
-5.26841e-05
-6.34313e-05
-7.42714e-05
-8.51795e-05
-9.61421e-05
-0.000107154
-0.000118212
-0.000129314
-0.000140458
-0.000151635
-0.000162831
-0.000174028
-0.000185198
-0.000196305
-0.000207306
-0.00021815
-0.000228776
-0.000239116
-0.000249093
-0.000258626
-0.000267622
-0.000275986
-0.000283615
-0.0002904
-0.00029623
-0.000300989
-0.000304557
-0.000306812
-0.000307631
-0.000306888
-0.00030446
-0.000300223
-0.000294056
-0.000285839
-0.00027546
-0.000262811
-0.000247791
-0.000230311
-0.00021029
-0.000187663
-0.000162381
-0.000134411
-0.000103742
-7.03869e-05
-3.43833e-05
4.20029e-06
4.52651e-05
8.8678e-05
0.000134269
0.00018183
0.000231113
0.000281828
0.000333644
0.000386185
0.000439038
0.000491747
0.000543825
0.000594747
0.000643963
0.000690901
0.000734972
0.000775583
0.00081214
0.00084406
0.000870782
0.000891774
0.000906544
0.000914652
0.000915717
0.000909427
0.000895545
0.000873917
0.000844477
0.000807248
0.000762347
0.000709979
0.000650443
0.000584119
0.000511467
0.000433018
0.000349362
0.000261144
0.000169046
7.37794e-05
-2.39279e-05
-0.000123346
-0.000223749
-0.000324432
-0.000424717
-0.000523961
-0.000621566
-0.000716981
-0.000809713
-0.000899322
-0.000985425
-0.0010677
-0.00114587
-0.00121974
-0.00128912
-0.00135391
-0.00141402
-0.00146942
-0.00152009
-0.00156605
-0.00160733
-0.001644
-0.00167611
-0.00170374
-0.00172697
-0.00174588
-0.00176056
-0.00177112
-0.00177766
-0.00178028
-0.00177908
-0.00177427
-0.00176611
-0.00175326
-0.00173293
4.42595e-05
3.75513e-05
3.06566e-05
2.3102e-05
1.47548e-05
5.81143e-06
-3.57301e-06
-1.32894e-05
-2.32504e-05
-3.33869e-05
-4.36506e-05
-5.40111e-05
-6.44497e-05
-7.4959e-05
-8.55391e-05
-9.61929e-05
-0.000106924
-0.000117735
-0.000128624
-0.000139585
-0.000150604
-0.000161661
-0.000172727
-0.000183765
-0.000194732
-0.000205574
-0.00021623
-0.000226631
-0.000236702
-0.000246358
-0.000255511
-0.000264064
-0.000271916
-0.00027896
-0.000285087
-0.000290183
-0.00029413
-0.00029681
-0.0002981
-0.000297879
-0.000296025
-0.000292416
-0.000286933
-0.000279457
-0.000269876
-0.000258083
-0.000243977
-0.000227465
-0.000208466
-0.00018691
-0.000162744
-0.00013593
-0.000106449
-7.43061e-05
-3.95327e-05
-2.18719e-06
3.76411e-05
7.98291e-05
0.000124217
0.000170606
0.000218759
0.000268395
0.000319189
0.000370777
0.000422747
0.000474652
0.000526006
0.000576287
0.000624944
0.000671403
0.000715073
0.000755355
0.000791649
0.000823364
0.00084993
0.000870805
0.000885488
0.000893528
0.000894535
0.000888186
0.000874238
0.000852529
0.000822989
0.000785638
0.00074059
0.000688055
0.000628333
0.00056181
0.000488954
0.000410304
0.000326464
0.000238087
0.000145872
5.05399e-05
-4.71681e-05
-0.000146509
-0.000246749
-0.000347174
-0.000447099
-0.000545878
-0.000642909
-0.000737647
-0.000829599
-0.000918333
-0.00100348
-0.00108472
-0.0011618
-0.00123453
-0.00130275
-0.00136637
-0.00142533
-0.00147961
-0.00152921
-0.00157417
-0.00161455
-0.00165041
-0.00168184
-0.0017089
-0.00173169
-0.00175028
-0.00176476
-0.00177518
-0.00178162
-0.00178409
-0.00178262
-0.0017773
-0.00176827
-0.00175386
-0.00173074
5.93305e-05
5.0121e-05
4.16324e-05
3.30046e-05
2.38853e-05
1.44451e-05
4.80073e-06
-4.98818e-06
-1.48753e-05
-2.48296e-05
-3.48358e-05
-4.48896e-05
-5.49963e-05
-6.51679e-05
-7.54184e-05
-8.57617e-05
-9.62109e-05
-0.000106774
-0.000117454
-0.000128246
-0.000139138
-0.00015011
-0.000161134
-0.000172172
-0.000183179
-0.000194103
-0.00020488
-0.000215443
-0.000225715
-0.000235613
-0.000245049
-0.000253926
-0.000262145
-0.000269602
-0.000276187
-0.000281789
-0.000286292
-0.000289579
-0.000291531
-0.000292026
-0.000290944
-0.000288166
-0.00028357
-0.00027704
-0.000268461
-0.000257726
-0.000244729
-0.000229377
-0.000211581
-0.000191268
-0.000168375
-0.000142858
-0.000114689
-8.38652e-05
-5.04045e-05
-1.43548e-05
2.42053e-05
6.51647e-05
0.000108375
0.000153649
0.000200761
0.000249438
0.000299363
0.00035018
0.000401483
0.000452828
0.000503731
0.000553667
0.000602086
0.000648406
0.000692031
0.000732352
0.000768758
0.000800647
0.000827434
0.000848563
0.000863518
0.000871832
0.000873099
0.000866984
0.00085323
0.000831665
0.000802208
0.000764876
0.000719778
0.000667123
0.000607214
0.000540443
0.000467286
0.000388293
0.000304081
0.00021532
0.000122722
2.70306e-05
-7.09999e-05
-0.000170608
-0.000271043
-0.000371576
-0.000471511
-0.000570191
-0.000667011
-0.000761417
-0.00085292
-0.000941089
-0.00102556
-0.00110603
-0.00118225
-0.00125405
-0.00132128
-0.00138388
-0.0014418
-0.00149505
-0.00154364
-0.00158764
-0.00162712
-0.00166216
-0.00169286
-0.0017193
-0.00174158
-0.00175976
-0.0017739
-0.00178406
-0.00179025
-0.00179245
-0.00179059
-0.0017847
-0.00177485
-0.0017591
-0.00173375
7.5147e-05
6.33015e-05
5.30904e-05
4.32617e-05
3.3245e-05
2.31854e-05
1.31637e-05
3.19485e-06
-6.71782e-06
-1.65808e-05
-2.64103e-05
-3.62307e-05
-4.60724e-05
-5.59664e-05
-6.59424e-05
-7.60283e-05
-8.62471e-05
-9.66136e-05
-0.000107136
-0.000117813
-0.000128636
-0.000139587
-0.000150636
-0.000161749
-0.000172879
-0.000183974
-0.000194971
-0.000205803
-0.000216393
-0.000226659
-0.000236512
-0.000245858
-0.000254598
-0.000262631
-0.000269847
-0.000276138
-0.000281389
-0.000285483
-0.000288304
-0.000289731
-0.000289644
-0.000287923
-0.000284447
-0.000279099
-0.00027176
-0.00026232
-0.00025067
-0.000236709
-0.000220345
-0.000201494
-0.000180085
-0.000156062
-0.00012939
-0.000100049
-6.8048e-05
-3.34193e-05
3.77196e-06
4.34277e-05
8.54134e-05
0.000129555
0.000175638
0.0002234
0.000272534
0.000322691
0.000373471
0.000424433
0.000475091
0.000524923
0.00057337
0.000619847
0.000663745
0.000704445
0.000741321
0.000773755
0.000801143
0.000822911
0.000838522
0.000847489
0.000849386
0.000843857
0.000830628
0.000809512
0.000780415
0.00074334
0.000698393
0.000645777
0.000585795
0.000518845
0.000445408
0.000366048
0.000281393
0.000192134
9.90007e-05
2.75757e-06
-9.58182e-05
-0.000195945
-0.000296849
-0.000397783
-0.000498031
-0.000596923
-0.00069384
-0.000788222
-0.000879572
-0.00096746
-0.00105152
-0.00113146
-0.00120705
-0.00127811
-0.00134454
-0.00140627
-0.00146327
-0.00151558
-0.00156324
-0.00160633
-0.00164493
-0.00167916
-0.00170912
-0.0017349
-0.0017566
-0.0017743
-0.00178803
-0.00179784
-0.0018037
-0.00180555
-0.00180328
-0.00179685
-0.00178628
-0.00176945
-0.00174241
9.12249e-05
7.66525e-05
6.46261e-05
5.35056e-05
4.24982e-05
3.17261e-05
2.12387e-05
1.10048e-05
9.85659e-07
-8.86102e-06
-1.85844e-05
-2.82387e-05
-3.78778e-05
-4.7553e-05
-5.73123e-05
-6.71974e-05
-7.7241e-05
-8.74669e-05
-9.78901e-05
-0.000108515
-0.000119334
-0.000130333
-0.000141485
-0.000152755
-0.000164098
-0.000175462
-0.000186785
-0.000198001
-0.000209033
-0.000219801
-0.000230216
-0.000240187
-0.000249616
-0.000258401
-0.000266438
-0.000273618
-0.000279826
-0.00028495
-0.000288873
-0.000291474
-0.000292634
-0.000292232
-0.000290145
-0.000286253
-0.000280435
-0.000272575
-0.000262559
-0.000250278
-0.000235631
-0.000218524
-0.000198875
-0.000176617
-0.000151697
-0.000124085
-9.37704e-05
-6.0772e-05
-2.5138e-05
1.30499e-05
5.36732e-05
9.65732e-05
0.000141548
0.00018835
0.00023668
0.000286202
0.000336521
0.000387198
0.00043775
0.000487652
0.000536342
0.000583224
0.00062768
0.000669076
0.00070677
0.000740123
0.000768511
0.000791334
0.00080803
0.000818088
0.000821054
0.000816549
0.000804274
0.000784019
0.000755672
0.00071922
0.000674755
0.000622473
0.000562673
0.000495752
0.000422197
0.000342583
0.000257551
0.00016781
7.41123e-05
-2.27567e-05
-0.000121993
-0.000222788
-0.000324345
-0.00042589
-0.000526683
-0.000626034
-0.000723306
-0.000817926
-0.000909385
-0.000997249
-0.00108115
-0.0011608
-0.00123597
-0.0013065
-0.0013723
-0.00143331
-0.00148954
-0.00154102
-0.00158783
-0.00163008
-0.00166785
-0.00170129
-0.00173051
-0.00175562
-0.00177672
-0.00179389
-0.00180718
-0.00181658
-0.00182208
-0.00182357
-0.0018209
-0.001814
-0.00180284
-0.00178521
-0.00175698
0.000107108
8.97418e-05
7.58371e-05
6.33592e-05
5.12932e-05
3.97424e-05
2.87229e-05
1.81582e-05
7.96917e-06
-1.92331e-06
-1.16025e-05
-2.11502e-05
-3.06449e-05
-4.01601e-05
-4.97614e-05
-5.95038e-05
-6.94319e-05
-7.95795e-05
-8.99682e-05
-0.000100607
-0.000111496
-0.000122621
-0.000133959
-0.000145475
-0.000157129
-0.000168867
-0.000180632
-0.000192355
-0.000203964
-0.000215379
-0.000226515
-0.000237279
-0.000247578
-0.000257311
-0.000266377
-0.000274666
-0.000282068
-0.000288471
-0.000293758
-0.000297811
-0.000300508
-0.000301727
-0.000301344
-0.000299234
-0.000295274
-0.000289339
-0.000281309
-0.000271066
-0.000258498
-0.000243498
-0.000225972
-0.000205836
-0.000183022
-0.000157482
-0.000129186
-9.81345e-05
-6.43565e-05
-2.79134e-05
1.10955e-05
5.25294e-05
9.62042e-05
0.000141886
0.000189288
0.000238099
0.000287919
0.000338318
0.000388818
0.000438893
0.000487975
0.000535464
0.000580728
0.000623118
0.000661972
0.000696631
0.000726445
0.000750785
0.00076906
0.000780725
0.000785298
0.000782364
0.000771595
0.000752752
0.000725693
0.000690384
0.000646896
0.000595411
0.000536217
0.000469705
0.000396366
0.000316777
0.000231597
0.000141547
4.74013e-05
-5.0029e-05
-0.000149912
-0.000251412
-0.000353698
-0.00045597
-0.000557458
-0.000657445
-0.00075527
-0.000850341
-0.000942133
-0.0010302
-0.00111417
-0.00119375
-0.00126872
-0.00133892
-0.00140426
-0.00146473
-0.00152032
-0.00157111
-0.00161719
-0.00165867
-0.00169569
-0.00172839
-0.0017569
-0.00178136
-0.00180187
-0.00181851
-0.00183132
-0.00184032
-0.00184545
-0.0018466
-0.00184359
-0.00183631
-0.00182473
-0.00180656
-0.00177758
0.00012235
0.000102145
8.6317e-05
7.24362e-05
5.92663e-05
4.68901e-05
3.52904e-05
2.43467e-05
1.39382e-05
3.94791e-06
-5.73923e-06
-1.52335e-05
-2.46395e-05
-3.40519e-05
-4.35532e-05
-5.32132e-05
-6.30892e-05
-7.32245e-05
-8.3648e-05
-9.43758e-05
-0.000105412
-0.000116747
-0.00012836
-0.000140222
-0.000152291
-0.000164519
-0.000176849
-0.000189216
-0.000201548
-0.000213769
-0.000225795
-0.000237539
-0.000248909
-0.000259807
-0.000270132
-0.00027978
-0.000288642
-0.000296608
-0.000303562
-0.000309385
-0.000313956
-0.000317152
-0.000318846
-0.00031891
-0.000317213
-0.000313625
-0.000308016
-0.000300259
-0.000290226
-0.0002778
-0.000262867
-0.000245328
-0.000225094
-0.000202095
-0.000176282
-0.000147631
-0.000116147
-8.18676e-05
-4.4869e-05
-5.26917e-06
3.67696e-05
8.1036e-05
0.000127267
0.000175143
0.000224301
0.000274317
0.000324717
0.000374978
0.000424531
0.000472769
0.00051905
0.00056271
0.000603067
0.000639438
0.000671143
0.000697523
0.000717951
0.000731844
0.00073868
0.000738005
0.00072945
0.000712738
0.000687691
0.000654239
0.000612426
0.000562408
0.000504454
0.000438943
0.00036636
0.000287283
0.000202378
0.00011238
1.80839e-05
-7.96759e-05
-0.000180039
-0.000282135
-0.000385103
-0.000488105
-0.000590339
-0.000691055
-0.000789562
-0.000885239
-0.000977541
-0.001066
-0.00115025
-0.00122996
-0.00130493
-0.001375
-0.00144009
-0.00150018
-0.00155531
-0.00160555
-0.00165102
-0.00169185
-0.00172821
-0.00176024
-0.00178811
-0.00181196
-0.00183191
-0.00184805
-0.00186042
-0.00186904
-0.00187384
-0.0018747
-0.00187142
-0.00186389
-0.00185205
-0.00183358
-0.00180423
0.000136516
0.000113435
9.56542e-05
8.03429e-05
6.60395e-05
5.28065e-05
4.05948e-05
2.92372e-05
1.85702e-05
8.44083e-06
-1.29853e-06
-1.07883e-05
-2.01579e-05
-2.95224e-05
-3.89819e-05
-4.86221e-05
-5.85119e-05
-6.87041e-05
-7.92365e-05
-9.01324e-05
-0.000101401
-0.000113037
-0.000125024
-0.000137336
-0.000149936
-0.000162778
-0.000175807
-0.000188964
-0.00020218
-0.000215382
-0.000228489
-0.000241419
-0.000254082
-0.000266386
-0.000278233
-0.000289523
-0.000300149
-0.000310004
-0.000318974
-0.000326942
-0.000333786
-0.000339382
-0.0003436
-0.000346308
-0.000347369
-0.000346646
-0.000343999
-0.000339286
-0.000332368
-0.000323109
-0.000311379
-0.000297055
-0.000280028
-0.000260201
-0.0002375
-0.000211873
-0.000183295
-0.000151777
-0.000117364
-8.01458e-05
-4.02566e-05
2.12088e-06
4.67504e-05
9.33205e-05
0.000141511
0.0001909
0.000241028
0.00029138
0.00034139
0.000390449
0.000437908
0.000483087
0.000525287
0.000563797
0.000597908
0.000626924
0.000650178
0.000667042
0.000676946
0.000679387
0.000673945
0.000660293
0.000638203
0.000607561
0.000568367
0.00052074
0.00046492
0.000401261
0.000330232
0.000252404
0.000168443
7.90919e-05
-1.48383e-05
-0.00011249
-0.000212974
-0.000315388
-0.000418833
-0.000522431
-0.000625342
-0.000726776
-0.000826004
-0.000922373
-0.00101531
-0.00110432
-0.001189
-0.00126904
-0.0013442
-0.00141434
-0.00147936
-0.00153928
-0.00159412
-0.00164398
-0.00168899
-0.00172932
-0.00176513
-0.00179661
-0.00182393
-0.00184725
-0.0018667
-0.0018824
-0.00189439
-0.00190268
-0.00190721
-0.00190786
-0.00190442
-0.00189676
-0.00188482
-0.00186629
-0.00183692
0.000149167
0.000123185
0.000103433
8.66746e-05
7.12207e-05
5.71137e-05
4.42695e-05
3.24729e-05
2.15188e-05
1.12173e-05
1.38633e-06
-8.14338e-06
-1.75251e-05
-2.68951e-05
-3.63719e-05
-4.60556e-05
-5.60269e-05
-6.63494e-05
-7.70697e-05
-8.82179e-05
-9.98085e-05
-0.000111843
-0.000124309
-0.000137187
-0.000150442
-0.000164033
-0.000177911
-0.00019202
-0.000206297
-0.000220671
-0.000235071
-0.000249418
-0.000263627
-0.000277611
-0.000291279
-0.000304535
-0.000317278
-0.000329402
-0.000340799
-0.000351352
-0.000360942
-0.000369444
-0.000376724
-0.000382648
-0.000387073
-0.000389853
-0.000390836
-0.000389869
-0.000386795
-0.00038146
-0.000373711
-0.000363403
-0.000350398
-0.000334572
-0.000315818
-0.00029405
-0.00026921
-0.000241271
-0.000210241
-0.000176174
-0.000139167
-9.93676e-05
-5.69814e-05
-1.22884e-05
3.44461e-05
8.27928e-05
0.000132321
0.000182533
0.000232872
0.000282734
0.000331466
0.000378378
0.000422752
0.000463852
0.000500937
0.000533269
0.000560136
0.00058086
0.00059481
0.000601426
0.000600222
0.000590806
0.00057289
0.000546295
0.000510964
0.000466963
0.000414484
0.000353845
0.000285483
0.00020995
0.000127901
4.00803e-05
-5.26934e-05
-0.000149543
-0.000249554
-0.000351788
-0.00045531
-0.000559197
-0.000662564
-0.000764573
-0.000864454
-0.000961508
-0.00105512
-0.00114477
-0.00123002
-0.00131054
-0.00138608
-0.00145647
-0.00152164
-0.00158157
-0.00163632
-0.00168599
-0.00173072
-0.00177071
-0.00180613
-0.00183719
-0.00186409
-0.00188699
-0.00190606
-0.00192141
-0.0019331
-0.00194115
-0.00194551
-0.00194605
-0.00194256
-0.0019349
-0.00192303
-0.00190464
-0.00187553
0.000159864
0.000130964
0.000109228
9.10156e-05
7.44055e-05
5.94163e-05
4.59273e-05
3.36762e-05
2.24144e-05
1.19127e-05
1.95584e-06
-7.65366e-06
-1.70938e-05
-2.65225e-05
-3.60754e-05
-4.58668e-05
-5.59902e-05
-6.65199e-05
-7.7511e-05
-8.90007e-05
-0.00010101
-0.000113548
-0.000126609
-0.000140176
-0.000154221
-0.000168711
-0.000183601
-0.000198841
-0.000214374
-0.000230139
-0.00024607
-0.000262094
-0.000278136
-0.000294115
-0.000309949
-0.000325547
-0.000340816
-0.000355656
-0.000369964
-0.000383627
-0.000396528
-0.000408543
-0.000419538
-0.000429375
-0.000437906
-0.000444975
-0.000450419
-0.000454071
-0.000455756
-0.000455299
-0.000452523
-0.000447253
-0.000439321
-0.000428568
-0.000414848
-0.000398036
-0.000378028
-0.000354755
-0.000328179
-0.000298303
-0.000265179
-0.000228907
-0.000189641
-0.000147596
-0.000103088
-5.6419e-05
-8.01142e-06
4.16602e-05
9.20587e-05
0.00014259
0.000192605
0.000241409
0.00028827
0.000332427
0.000373105
0.000409524
0.000440919
0.000466551
0.000485725
0.000497803
0.000502225
0.000498515
0.000486304
0.000465333
0.000435465
0.000396692
0.000349142
0.000293072
0.000228874
0.00015706
7.82621e-05
-6.79021e-06
-9.72782e-05
-0.000192314
-0.000290959
-0.000392246
-0.000495196
-0.000598844
-0.000702251
-0.000804528
-0.000904848
-0.00100246
-0.00109671
-0.00118701
-0.00127291
-0.00135403
-0.00143009
-0.00150092
-0.00156642
-0.00162658
-0.00168144
-0.00173113
-0.0017758
-0.00181564
-0.00185086
-0.00188167
-0.0019083
-0.00193094
-0.00194976
-0.00196489
-0.00197641
-0.00198434
-0.00198865
-0.00198919
-0.00198578
-0.00197827
-0.00196661
-0.00194854
-0.00191996
0.000168165
0.00013633
0.000112607
9.29405e-05
7.51747e-05
5.93019e-05
4.51645e-05
3.24501e-05
2.08642e-05
1.01391e-05
2.67726e-08
-9.69973e-06
-1.92436e-05
-2.87833e-05
-3.84711e-05
-4.84364e-05
-5.87855e-05
-6.96027e-05
-8.09517e-05
-9.28779e-05
-0.000105411
-0.000118566
-0.000132344
-0.000146736
-0.000161722
-0.000177274
-0.000193357
-0.000209927
-0.000226938
-0.000244337
-0.000262068
-0.000280068
-0.000298272
-0.00031661
-0.00033501
-0.00035339
-0.000371667
-0.000389751
-0.000407545
-0.000424944
-0.000441834
-0.000458096
-0.000473597
-0.000488196
-0.00050174
-0.000514065
-0.000524997
-0.000534354
-0.000541941
-0.000547557
-0.000551
-0.000552061
-0.000550535
-0.00054622
-0.000538927
-0.000528479
-0.000514722
-0.000497526
-0.000476798
-0.00045248
-0.000424562
-0.000393083
-0.000358137
-0.000319882
-0.000278573
-0.000234454
-0.000187917
-0.000139393
-8.93856e-05
-3.84658e-05
1.27313e-05
6.35128e-05
0.000113137
0.000160822
0.000205759
0.000247123
0.000284091
0.000315857
0.000341646
0.000360733
0.000372462
0.000376258
0.000371648
0.000358267
0.000335877
0.000304371
0.000263785
0.000214292
0.000156212
8.99997e-05
1.62382e-05
-6.43715e-05
-0.000151027
-0.00024284
-0.000338858
-0.000438086
-0.000539507
-0.000642106
-0.000744889
-0.000846907
-0.00094727
-0.00104516
-0.00113986
-0.00123075
-0.00131728
-0.00139906
-0.00147576
-0.00154718
-0.0016132
-0.00167379
-0.001729
-0.00177894
-0.00182377
-0.00186369
-0.00189892
-0.0019297
-0.00195627
-0.00197883
-0.00199757
-0.00201265
-0.00202415
-0.0020321
-0.00203649
-0.00203718
-0.00203399
-0.00202677
-0.00201548
-0.00199791
-0.00197007
0.000173614
0.000138836
0.000113126
9.20106e-05
7.30949e-05
5.63442e-05
4.156e-05
2.83769e-05
1.6455e-05
5.48785e-06
-4.80736e-06
-1.46873e-05
-2.43792e-05
-3.40816e-05
-4.39647e-05
-5.41725e-05
-6.48236e-05
-7.6012e-05
-8.78114e-05
-0.000100277
-0.000113445
-0.00012734
-0.00014197
-0.000157336
-0.000173427
-0.000190224
-0.0002077
-0.000225826
-0.000244565
-0.000263877
-0.000283716
-0.000304036
-0.000324783
-0.000345903
-0.000367335
-0.000389014
-0.000410869
-0.000432822
-0.000454787
-0.00047667
-0.000498366
-0.00051976
-0.000540725
-0.000561118
-0.000580784
-0.000599552
-0.000617236
-0.000633636
-0.000648537
-0.000661713
-0.000672927
-0.000681933
-0.000688483
-0.000692324
-0.000693211
-0.000690908
-0.000685195
-0.000675872
-0.000662773
-0.000645762
-0.000624751
-0.000599701
-0.000570627
-0.00053761
-0.000500815
-0.000460448
-0.000416816
-0.000370297
-0.000321349
-0.000270505
-0.000218373
-0.000165634
-0.000113031
-6.13626e-05
-1.14696e-05
3.57779e-05
7.94943e-05
0.000118796
0.000152819
0.000180734
0.000201773
0.000215239
0.000220529
0.000217147
0.000204723
0.000183022
0.000151954
0.000111581
6.21174e-05
3.92964e-06
-6.24706e-05
-0.000136438
-0.000217204
-0.0003039
-0.000395572
-0.000491204
-0.000589745
-0.000690132
-0.000791311
-0.000892265
-0.000992031
-0.00108972
-0.00118453
-0.00127576
-0.00136282
-0.00144524
-0.00152264
-0.00159477
-0.00166148
-0.0017227
-0.00177848
-0.00182891
-0.00187415
-0.00191441
-0.00194991
-0.0019809
-0.00200764
-0.00203034
-0.00204923
-0.00206444
-0.00207611
-0.00208427
-0.0020889
-0.00208991
-0.00208708
-0.00208031
-0.00206953
-0.00205262
-0.0020257
0.000175748
0.000138023
0.00011033
8.77751e-05
6.77212e-05
5.01017e-05
3.46747e-05
2.10215e-05
8.75547e-06
-2.47086e-06
-1.29755e-05
-2.3044e-05
-3.29279e-05
-4.28464e-05
-5.29875e-05
-6.35091e-05
-7.45414e-05
-8.61902e-05
-9.85391e-05
-0.000111653
-0.000125577
-0.000140345
-0.000155977
-0.000172481
-0.000189859
-0.000208104
-0.000227203
-0.000247139
-0.00026789
-0.000289432
-0.000311736
-0.000334773
-0.000358507
-0.000382903
-0.000407917
-0.000433504
-0.000459609
-0.000486174
-0.000513128
-0.000540392
-0.000567873
-0.000595467
-0.000623054
-0.000650493
-0.000677629
-0.000704284
-0.000730262
-0.000755346
-0.000779296
-0.000801858
-0.000822755
-0.000841698
-0.000858386
-0.000872508
-0.00088375
-0.000891803
-0.000896366
-0.000897154
-0.000893906
-0.000886394
-0.000874427
-0.000857868
-0.000836632
-0.000810694
-0.000780103
-0.000745051
-0.000705676
-0.000662317
-0.000615362
-0.000565282
-0.000512645
-0.000458107
-0.000402404
-0.000346341
-0.000290787
-0.000236659
-0.000184906
-0.000136496
-9.2396e-05
-5.35512e-05
-2.08652e-05
4.81959e-06
2.27441e-05
3.22515e-05
3.28047e-05
2.40029e-05
5.59658e-06
-2.25055e-05
-6.02292e-05
-0.000107334
-0.000163416
-0.000227914
-0.000300127
-0.000379223
-0.000464268
-0.000554242
-0.000648067
-0.000744633
-0.000842826
-0.000941555
-0.00103977
-0.0011365
-0.00123085
-0.00132203
-0.00140935
-0.00149227
-0.00157033
-0.00164323
-0.00171075
-0.0017728
-0.00182938
-0.00188055
-0.00192648
-0.00196735
-0.0020034
-0.00203489
-0.00206207
-0.00208518
-0.00210445
-0.00212005
-0.0021321
-0.00214067
-0.00214575
-0.00214724
-0.00214495
-0.00213878
-0.00212866
-0.00211254
-0.00208671
0.000174095
0.000133422
0.000103753
7.97731e-05
5.8595e-05
4.01179e-05
2.40555e-05
9.93353e-06
-2.68396e-06
-1.41864e-05
-2.49264e-05
-3.52188e-05
-4.53404e-05
-5.55309e-05
-6.59948e-05
-7.69042e-05
-8.84024e-05
-0.000100607
-0.000113612
-0.000127492
-0.000142304
-0.000158092
-0.000174888
-0.000192714
-0.000211585
-0.000231508