/*--------------------------------*- C++ -*----------------------------------*\
| =========                 |                                                 |
| \\      /  F ield         | OpenFOAM: The Open Source CFD Toolbox           |
|  \\    /   O peration     | Version:  2112                                  |
|   \\  /    A nd           | Website:  www.openfoam.com                      |
|    \\/     M anipulation  |                                                 |
\*---------------------------------------------------------------------------*/
FoamFile
{
    version     2.0;
    format      ascii;
    arch        "LSB;label=32;scalar=64";
    class       surfaceScalarField;
    location    "12";
    object      phi;
}
// * * * * * * * * * * * * * * * * * * * * * * * * * * * * * * * * * * * * * //

dimensions      [0 3 -1 0 0 0 0];

oriented        oriented;

internalField   nonuniform List<scalar> 
33024
(
4.81091e-09
-4.8005e-09
1.44472e-08
-9.63661e-09
2.36366e-08
-9.18928e-09
2.92815e-08
-5.64519e-09
2.99324e-08
-6.5113e-10
2.50804e-08
4.85204e-09
1.47987e-08
1.02817e-08
-5.39462e-10
1.53379e-08
-2.03995e-08
1.98603e-08
-4.42129e-08
2.38131e-08
-7.14005e-08
2.71875e-08
-1.01422e-07
3.00215e-08
-1.33797e-07
3.23746e-08
-1.68112e-07
3.43159e-08
-2.0403e-07
3.59172e-08
-2.4128e-07
3.72502e-08
-2.79662e-07
3.83816e-08
-3.19033e-07
3.93714e-08
-3.59306e-07
4.0273e-08
-4.00437e-07
4.11314e-08
-4.42421e-07
4.19836e-08
-4.85281e-07
4.286e-08
-5.29065e-07
4.37839e-08
-5.73837e-07
4.47717e-08
-6.19672e-07
4.58353e-08
-6.66653e-07
4.69813e-08
-7.14865e-07
4.82118e-08
-7.64391e-07
4.95258e-08
-8.1531e-07
5.09193e-08
-8.67695e-07
5.23851e-08
-9.21609e-07
5.39135e-08
-9.77102e-07
5.54927e-08
-1.03421e-06
5.71089e-08
-1.09296e-06
5.87462e-08
-1.15334e-06
6.03866e-08
-1.21535e-06
6.20103e-08
-1.27895e-06
6.35953e-08
-1.34407e-06
6.51181e-08
-1.41062e-06
6.65529e-08
-1.47849e-06
6.78726e-08
-1.54754e-06
6.90479e-08
-1.61759e-06
7.0048e-08
-1.68843e-06
7.08405e-08
-1.75982e-06
7.13921e-08
-1.83149e-06
7.16679e-08
-1.90312e-06
7.16326e-08
-1.97437e-06
7.12503e-08
-2.04486e-06
7.04853e-08
-2.11416e-06
6.93021e-08
-2.18183e-06
6.7666e-08
-2.24737e-06
6.55441e-08
-2.31028e-06
6.29054e-08
-2.37e-06
5.9722e-08
-2.42597e-06
5.5969e-08
-2.47759e-06
5.16257e-08
-2.52427e-06
4.66763e-08
-2.56538e-06
4.11113e-08
-2.60031e-06
3.49273e-08
-2.62844e-06
2.81278e-08
-2.64916e-06
2.07245e-08
-2.6619e-06
1.27377e-08
-2.66609e-06
4.1967e-09
-2.66123e-06
-4.86114e-09
-2.64685e-06
-1.4387e-08
-2.62252e-06
-2.43224e-08
-2.58792e-06
-3.45999e-08
-2.54278e-06
-4.51424e-08
-2.48692e-06
-5.58636e-08
-2.42025e-06
-6.66694e-08
-2.34279e-06
-7.74579e-08
-2.25467e-06
-8.81211e-08
-2.15612e-06
-9.85465e-08
-2.0475e-06
-1.08618e-07
-1.92928e-06
-1.1822e-07
-1.80205e-06
-1.27235e-07
-1.6665e-06
-1.35549e-07
-1.52345e-06
-1.43054e-07
-1.3738e-06
-1.49647e-07
-1.21856e-06
-1.55236e-07
-1.05883e-06
-1.59738e-07
-8.95741e-07
-1.63085e-07
-7.30519e-07
-1.65222e-07
-5.64409e-07
-1.6611e-07
-3.98681e-07
-1.65728e-07
-2.34609e-07
-1.64072e-07
-7.34518e-08
-1.61157e-07
8.35631e-08
-1.57015e-07
2.35258e-07
-1.51695e-07
3.80523e-07
-1.45265e-07
5.18329e-07
-1.37805e-07
6.47741e-07
-1.29413e-07
7.67935e-07
-1.20194e-07
8.782e-07
-1.10265e-07
9.77951e-07
-9.97506e-08
1.06673e-06
-8.87781e-08
1.14421e-06
-7.74775e-08
1.21018e-06
-6.5978e-08
1.26459e-06
-5.44058e-08
1.30747e-06
-4.28814e-08
1.33899e-06
-3.15178e-08
1.35941e-06
-2.04188e-08
1.36909e-06
-9.67727e-09
1.36846e-06
6.25913e-10
1.35804e-06
1.04221e-08
1.33838e-06
1.96557e-08
1.3101e-06
2.82841e-08
1.27382e-06
3.62762e-08
1.23021e-06
4.3613e-08
1.17992e-06
5.02845e-08
1.12363e-06
5.6289e-08
1.062e-06
6.1631e-08
9.95687e-07
6.63173e-08
9.25332e-07
7.0355e-08
8.51585e-07
7.3747e-08
7.75098e-07
7.64877e-08
6.96539e-07
7.85582e-08
6.16619e-07
7.99207e-08
5.36107e-07
8.05113e-08
4.55873e-07
8.02336e-08
3.76923e-07
7.89501e-08
3.0045e-07
7.64734e-08
2.27891e-07
7.25585e-08
1.60993e-07
6.68976e-08
1.01867e-07
5.91261e-08
5.30033e-08
4.88643e-08
1.71438e-08
3.58597e-08
-3.21105e-09
2.03546e-08
-7.35612e-09
4.14379e-09
-7.35739e-09
9.67652e-09
-1.44774e-08
2.44559e-08
-2.44157e-08
3.57097e-08
-2.04428e-08
3.80114e-08
-7.94698e-09
2.82833e-08
9.07745e-09
5.19885e-09
2.79365e-08
-3.13851e-08
4.68652e-08
-8.0863e-08
6.48161e-08
-1.42192e-07
8.11894e-08
-2.14097e-07
9.57176e-08
-2.95246e-07
1.08337e-07
-3.84348e-07
1.19123e-07
-4.80212e-07
1.28238e-07
-5.81787e-07
1.35891e-07
-6.88185e-07
1.42315e-07
-7.98679e-07
1.47745e-07
-9.12706e-07
1.52408e-07
-1.02985e-06
1.56513e-07
-1.14982e-06
1.60248e-07
-1.27246e-06
1.63773e-07
-1.39771e-06
1.67226e-07
-1.52556e-06
1.70716e-07
-1.65611e-06
1.7433e-07
-1.78947e-06
1.78134e-07
-1.92581e-06
1.82171e-07
-2.0653e-06
1.86471e-07
-2.20813e-06
1.91043e-07
-2.35449e-06
1.95887e-07
-2.50456e-06
2.00989e-07
-2.65849e-06
2.06323e-07
-2.81644e-06
2.11857e-07
-2.97849e-06
2.17546e-07
-3.14472e-06
2.23339e-07
-3.31515e-06
2.29177e-07
-3.48976e-06
2.34992e-07
-3.66846e-06
2.40711e-07
-3.85111e-06
2.4625e-07
-4.03752e-06
2.51521e-07
-4.22739e-06
2.56428e-07
-4.42039e-06
2.60867e-07
-4.61607e-06
2.6473e-07
-4.81392e-06
2.67901e-07
-5.01334e-06
2.7026e-07
-5.21363e-06
2.71684e-07
-5.41401e-06
2.72045e-07
-5.61359e-06
2.71212e-07
-5.8114e-06
2.69057e-07
-6.00636e-06
2.65449e-07
-6.19732e-06
2.60261e-07
-6.38302e-06
2.53372e-07
-6.56215e-06
2.44666e-07
-6.73328e-06
2.34036e-07
-6.89494e-06
2.21386e-07
-7.04561e-06
2.06636e-07
-7.1837e-06
1.89719e-07
-7.30761e-06
1.70589e-07
-7.41573e-06
1.49223e-07
-7.50642e-06
1.25618e-07
-7.57809e-06
9.98011e-08
-7.62919e-06
7.18265e-08
-7.65823e-06
4.17795e-08
-7.66381e-06
9.77851e-09
-7.64465e-06
-2.40298e-08
-7.59957e-06
-5.94612e-08
-7.5276e-06
-9.62946e-08
-7.42792e-06
-1.34281e-07
-7.29992e-06
-1.73136e-07
-7.14324e-06
-2.12548e-07
-6.95773e-06
-2.52177e-07
-6.74353e-06
-2.91659e-07
-6.50104e-06
-3.3061e-07
-6.23096e-06
-3.68631e-07
-5.93426e-06
-4.05318e-07
-5.61222e-06
-4.40258e-07
-5.26641e-06
-4.73047e-07
-4.89867e-06
-5.03287e-07
-4.51112e-06
-5.306e-07
-4.10614e-06
-5.54634e-07
-3.68631e-06
-5.75065e-07
-3.25444e-06
-5.91609e-07
-2.81349e-06
-6.04027e-07
-2.36659e-06
-6.12129e-07
-1.91692e-06
-6.15779e-07
-1.46775e-06
-6.14898e-07
-1.02235e-06
-6.0947e-07
-5.8397e-07
-5.99538e-07
-1.55777e-07
-5.85208e-07
2.59174e-07
-5.66646e-07
6.57982e-07
-5.44073e-07
1.03794e-06
-5.17766e-07
1.39658e-06
-4.88049e-07
1.73167e-06
-4.55285e-07
2.04128e-06
-4.19876e-07
2.32378e-06
-3.82245e-07
2.57783e-06
-3.42836e-07
2.80246e-06
-3.02102e-07
2.99697e-06
-2.60495e-07
3.16103e-06
-2.18462e-07
3.29458e-06
-1.76431e-07
3.39787e-06
-1.34809e-07
3.47143e-06
-9.39739e-08
3.51602e-06
-5.42667e-08
3.53263e-06
-1.59923e-08
3.52247e-06
2.05873e-08
3.48687e-06
5.52527e-08
3.42733e-06
8.78271e-08
3.34543e-06
1.18175e-07
3.24284e-06
1.462e-07
3.12129e-06
1.71838e-07
2.98253e-06
1.95053e-07
2.82833e-06
2.15829e-07
2.66049e-06
2.3416e-07
2.4808e-06
2.5004e-07
2.2911e-06
2.63448e-07
2.09325e-06
2.74336e-07
1.8892e-06
2.82611e-07
1.681e-06
2.88117e-07
1.4709e-06
2.90616e-07
1.26136e-06
2.89769e-07
1.0552e-06
2.85115e-07
8.55616e-07
2.76055e-07
6.66322e-07
2.61852e-07
4.91572e-07
2.41647e-07
3.36169e-07
2.14529e-07
2.053e-07
1.79734e-07
1.04068e-07
1.37092e-07
3.65415e-08
8.78838e-08
4.13994e-09
3.65486e-08
-3.21818e-09
9.43013e-09
-2.39074e-08
2.06909e-08
-3.56764e-08
2.38722e-08
-2.36242e-08
1.27332e-08
3.19216e-09
-1.63905e-08
3.8201e-08
-6.51903e-08
7.67359e-08
-1.3391e-07
1.15585e-07
-2.21795e-07
1.52701e-07
-3.27478e-07
1.86872e-07
-4.4925e-07
2.1749e-07
-5.85272e-07
2.44359e-07
-7.33718e-07
2.6757e-07
-8.92879e-07
2.87399e-07
-1.06122e-06
3.04233e-07
-1.23742e-06
3.18515e-07
-1.42038e-06
3.30706e-07
-1.60923e-06
3.41257e-07
-1.80331e-06
3.50588e-07
-2.00214e-06
3.59082e-07
-2.20544e-06
3.67071e-07
-2.41305e-06
3.74837e-07
-2.62495e-06
3.82613e-07
-2.8412e-06
3.90583e-07
-3.06195e-06
3.98886e-07
-3.2874e-06
4.0762e-07
-3.51778e-06
4.16846e-07
-3.75333e-06
4.26593e-07
-3.9943e-06
4.3686e-07
-4.24093e-06
4.47621e-07
-4.49343e-06
4.58824e-07
-4.75197e-06
4.70399e-07
-5.01668e-06
4.82254e-07
-5.28763e-06
4.94281e-07
-5.5648e-06
5.06351e-07
-5.84813e-06
5.18322e-07
-6.13745e-06
5.30032e-07
-6.4325e-06
5.41305e-07
-6.73293e-06
5.51949e-07
-7.03826e-06
5.61757e-07
-7.3479e-06
5.70509e-07
-7.66114e-06
5.77969e-07
-7.97714e-06
5.83893e-07
-8.2949e-06
5.88024e-07
-8.61331e-06
5.90099e-07
-8.93112e-06
5.89846e-07
-9.2469e-06
5.86994e-07
-9.55911e-06
5.8127e-07
-9.86607e-06
5.72403e-07
-1.01659e-05
5.60132e-07
-1.04568e-05
5.44206e-07
-1.07365e-05
5.24389e-07
-1.10029e-05
5.00469e-07
-1.12538e-05
4.72256e-07
-1.14868e-05
4.39594e-07
-1.16994e-05
4.02359e-07
-1.18893e-05
3.60472e-07
-1.2054e-05
3.139e-07
-1.2191e-05
2.62659e-07
-1.2298e-05
2.06823e-07
-1.23727e-05
1.46526e-07
-1.24129e-05
8.19632e-08
-1.24165e-05
1.34057e-08
-1.23817e-05
-5.88388e-08
-1.23068e-05
-1.34353e-07
-1.21904e-05
-2.12675e-07
-1.20315e-05
-2.93273e-07
-1.1829e-05
-3.75553e-07
-1.15827e-05
-4.5886e-07
-1.12924e-05
-5.42489e-07
-1.09584e-05
-6.25688e-07
-1.05813e-05
-7.07668e-07
-1.01623e-05
-7.87615e-07
-9.70296e-06
-8.64698e-07
-9.20514e-06
-9.38083e-07
-8.67124e-06
-1.00695e-06
-8.10404e-06
-1.07048e-06
-7.50671e-06
-1.12793e-06
-6.88278e-06
-1.17857e-06
-6.23609e-06
-1.22175e-06
-5.57079e-06
-1.25691e-06
-4.89128e-06
-1.28354e-06
-4.20214e-06
-1.30127e-06
-3.50811e-06
-1.30981e-06
-2.81401e-06
-1.309e-06
-2.12469e-06
-1.2988e-06
-1.44495e-06
-1.27927e-06
-7.7953e-07
-1.25063e-06
-1.32991e-07
-1.21319e-06
4.90312e-07
-1.16738e-06
1.08629e-06
-1.11374e-06
1.65116e-06
-1.05292e-06
2.18152e-06
-9.8564e-07
2.67433e-06
-9.12694e-07
3.12702e-06
-8.34934e-07
3.53744e-06
-7.53255e-07
3.90391e-06
-6.68572e-07
4.22523e-06
-5.81808e-07
4.50064e-06
-4.93874e-07
4.72986e-06
-4.05658e-07
4.91306e-06
-3.18003e-07
5.05078e-06
-2.31701e-07
5.144e-06
-1.47478e-07
5.19399e-06
-6.59857e-08
5.20237e-06
1.22037e-08
5.17102e-06
8.66029e-08
5.10204e-06
1.56807e-07
4.99772e-06
2.22495e-07
4.8605e-06
2.8342e-07
4.69294e-06
3.39405e-07
4.49766e-06
3.90326e-07
4.27739e-06
4.36103e-07
4.03488e-06
4.76675e-07
3.77294e-06
5.1198e-07
3.49445e-06
5.41936e-07
3.20238e-06
5.66402e-07
2.89984e-06
5.85156e-07
2.5901e-06
5.97857e-07
2.2767e-06
6.04015e-07
1.96351e-06
6.02954e-07
1.65484e-06
5.93788e-07
1.35549e-06
5.75408e-07
1.07084e-06
5.46499e-07
8.06884e-07
5.05603e-07
5.70121e-07
4.51293e-07
3.67315e-07
3.82539e-07
2.04967e-07
2.99438e-07
8.84224e-08
2.04428e-07
2.05145e-08
1.04458e-07
1.7296e-08
5.86898e-09
-2.97765e-08
7.66215e-09
-3.74697e-08
-4.39547e-09
-1.15664e-08
-3.64455e-08
3.52423e-08
-9.21168e-08
9.38719e-08
-1.73004e-07
1.57623e-07
-2.79214e-07
2.21795e-07
-4.09795e-07
2.83281e-07
-5.63102e-07
3.4018e-07
-7.37095e-07
3.91482e-07
-9.2956e-07
4.36824e-07
-1.13828e-06
4.76294e-07
-1.36117e-06
5.10286e-07
-1.59632e-06
5.39384e-07
-1.84208e-06
5.64275e-07
-2.09706e-06
5.85682e-07
-2.36013e-06
6.04326e-07
-2.63042e-06
6.20884e-07
-2.90731e-06
6.35974e-07
-3.19039e-06
6.50142e-07
-3.4794e-06
6.63853e-07
-3.77428e-06
6.77493e-07
-4.07507e-06
6.91371e-07
-4.38191e-06
7.05722e-07
-4.695e-06
7.20713e-07
-5.0146e-06
7.36451e-07
-5.341e-06
7.52988e-07
-5.67446e-06
7.70326e-07
-6.01527e-06
7.88423e-07
-6.36364e-06
8.07196e-07
-6.71977e-06
8.26527e-07
-7.08377e-06
8.46261e-07
-7.45571e-06
8.66214e-07
-7.83552e-06
8.8617e-07
-8.22309e-06
9.05882e-07
-8.61813e-06
9.25077e-07
-9.02028e-06
9.43453e-07
-9.42901e-06
9.60681e-07
-9.84366e-06
9.76408e-07
-1.02634e-05
9.90256e-07
-1.06873e-05
1.00183e-06
-1.11141e-05
1.0107e-06
-1.15425e-05
1.01644e-06
-1.1971e-05
1.01861e-06
-1.23979e-05
1.01674e-06
-1.28213e-05
1.01038e-06
-1.32391e-05
9.99083e-07
-1.36491e-05
9.82389e-07
-1.40488e-05
9.59868e-07
-1.44357e-05
9.31111e-07
-1.48071e-05
8.95738e-07
-1.516e-05
8.53404e-07
-1.54916e-05
8.03813e-07
-1.57987e-05
7.46721e-07
-1.60783e-05
6.81948e-07
-1.63272e-05
6.09385e-07
-1.65423e-05
5.29001e-07
-1.67205e-05
4.40853e-07
-1.68588e-05
3.4509e-07
-1.69542e-05
2.41963e-07
-1.70041e-05
1.31825e-07
-1.70058e-05
1.51528e-08
-1.69571e-05
-1.07529e-07
-1.6856e-05
-2.35494e-07
-1.67007e-05
-3.67967e-07
-1.64899e-05
-5.04053e-07
-1.62227e-05
-6.42758e-07
-1.58986e-05
-7.82997e-07
-1.55174e-05
-9.23603e-07
-1.50798e-05
-1.06334e-06
-1.45866e-05
-1.20091e-06
-1.40392e-05
-1.33499e-06
-1.34397e-05
-1.46422e-06
-1.27905e-05
-1.58725e-06
-1.20947e-05
-1.70274e-06
-1.13558e-05
-1.80939e-06
-1.05778e-05
-1.90595e-06
-9.76506e-06
-1.99128e-06
-8.9225e-06
-2.06431e-06
-8.0553e-06
-2.12411e-06
-7.16895e-06
-2.16989e-06
-6.26921e-06
-2.20101e-06
-5.36201e-06
-2.21701e-06
-4.4534e-06
-2.2176e-06
-3.5495e-06
-2.2027e-06
-2.65636e-06
-2.1724e-06
-1.77998e-06
-2.12701e-06
-9.26162e-07
-2.06701e-06
-1.00468e-07
-1.99307e-06
6.91838e-07
-1.90605e-06
1.44586e-06
-1.80695e-06
2.15714e-06
-1.69692e-06
2.82167e-06
-1.57722e-06
3.43597e-06
-1.44923e-06
3.9971e-06
-1.31439e-06
4.50269e-06
-1.17416e-06
4.95093e-06
-1.03006e-06
5.34063e-06
-8.8357e-07
5.67113e-06
-7.36157e-07
5.94235e-06
-5.89221e-07
6.15473e-06
-4.44083e-07
6.30922e-06
-3.01968e-07
6.40722e-06
-1.63989e-07
6.45056e-06
-3.1135e-08
6.44143e-06
9.57373e-08
6.38233e-06
2.15902e-07
6.27606e-06
3.28764e-07
6.12563e-06
4.33849e-07
5.93424e-06
5.30794e-07
5.70525e-06
6.19324e-07
5.44212e-06
6.99234e-07
5.14844e-06
7.70354e-07
4.8279e-06
8.32521e-07
4.4843e-06
8.85535e-07
4.12158e-06
9.2912e-07
3.74386e-06
9.62874e-07
3.3555e-06
9.86223e-07
2.96114e-06
9.9837e-07
2.56584e-06
9.98257e-07
2.17509e-06
9.84533e-07
1.79495e-06
9.55552e-07
1.43203e-06
9.09413e-07
1.09356e-06
8.44081e-07
7.87197e-07
7.57652e-07
5.20891e-07
6.48845e-07
3.02433e-07
5.17896e-07
1.38954e-07
3.67905e-07
3.64333e-08
2.06979e-07
5.37293e-08
4.58181e-10
-3.02346e-08
-1.13205e-08
-2.56907e-08
-4.38764e-08
2.09894e-08
-1.02604e-07
9.39693e-08
-1.90532e-07
1.81801e-07
-3.08834e-07
2.75924e-07
-4.57257e-07
3.70219e-07
-6.34533e-07
4.60557e-07
-8.3871e-07
5.44357e-07
-1.06744e-06
6.2021e-07
-1.31819e-06
6.8758e-07
-1.58846e-06
7.4656e-07
-1.87585e-06
7.97671e-07
-2.17817e-06
8.41709e-07
-2.49353e-06
8.79628e-07
-2.82029e-06
9.12446e-07
-3.15714e-06
9.4118e-07
-3.50306e-06
9.66796e-07
-3.85726e-06
9.90183e-07
-4.21925e-06
1.01213e-06
-4.5887e-06
1.0333e-06
-4.96548e-06
1.05428e-06
-5.34961e-06
1.0755e-06
-5.74121e-06
1.09733e-06
-6.14051e-06
1.12e-06
-6.54775e-06
1.14369e-06
-6.96323e-06
1.16847e-06
-7.38725e-06
1.19435e-06
-7.8201e-06
1.22127e-06
-8.26201e-06
1.24911e-06
-8.71318e-06
1.27769e-06
-9.17371e-06
1.30679e-06
-9.64363e-06
1.33613e-06
-1.01228e-05
1.36538e-06
-1.06111e-05
1.39417e-06
-1.11081e-05
1.4221e-06
-1.16134e-05
1.4487e-06
-1.21262e-05
1.47347e-06
-1.26457e-05
1.49589e-06
-1.31708e-05
1.51539e-06
-1.37003e-05
1.53136e-06
-1.42328e-05
1.54318e-06
-1.47666e-05
1.5502e-06
-1.52997e-05
1.55175e-06
-1.58301e-05
1.54715e-06
-1.63555e-05
1.53572e-06
-1.68732e-05
1.5168e-06
-1.73805e-05
1.48972e-06
-1.78745e-05
1.45386e-06
-1.8352e-05
1.40861e-06
-1.88097e-05
1.35344e-06
-1.92442e-05
1.28786e-06
-1.96518e-05
1.21146e-06
-2.0029e-05
1.12389e-06
-2.03719e-05
1.02492e-06
-2.0677e-05
9.14433e-07
-2.09404e-05
7.92409e-07
-2.11585e-05
6.58967e-07
-2.13278e-05
5.14365e-07
-2.14448e-05
3.59003e-07
-2.15064e-05
1.93433e-07
-2.15097e-05
1.83878e-08
-2.14519e-05
-1.65333e-07
-2.13307e-05
-3.56645e-07
-2.11443e-05
-5.54391e-07
-2.08911e-05
-7.57248e-07
-2.05701e-05
-9.63754e-07
-2.01808e-05
-1.17232e-06
-1.97231e-05
-1.38124e-06
-1.91977e-05
-1.58873e-06
-1.86057e-05
-1.7929e-06
-1.79489e-05
-1.99184e-06
-1.72295e-05
-2.1836e-06
-1.64506e-05
-2.36621e-06
-1.56155e-05
-2.53776e-06
-1.47285e-05
-2.69639e-06
-1.37942e-05
-2.8403e-06
-1.28176e-05
-2.96784e-06
-1.18045e-05
-3.07747e-06
-1.07607e-05
-3.16786e-06
-9.69274e-06
-3.23786e-06
-8.60723e-06
-3.28652e-06
-7.51108e-06
-3.31317e-06
-6.41132e-06
-3.31736e-06
-5.31508e-06
-3.29894e-06
-4.22948e-06
-3.25801e-06
-3.16154e-06
-3.19495e-06
-2.11811e-06
-3.11043e-06
-1.10582e-06
-3.00537e-06
-1.30937e-07
-2.88093e-06
8.00643e-07
-2.73853e-06
1.68349e-06
-2.57976e-06
2.5127e-06
-2.40643e-06
3.28393e-06
-2.22046e-06
3.99344e-06
-2.0239e-06
4.63816e-06
-1.81888e-06
5.21565e-06
-1.60755e-06
5.72415e-06
-1.39207e-06
6.16256e-06
-1.17457e-06
6.53046e-06
-9.57113e-07
6.82802e-06
-7.41644e-07
7.05604e-06
-5.29994e-07
7.21589e-06
-3.23835e-07
7.30943e-06
-1.24673e-07
7.339e-06
6.61658e-08
7.30736e-06
2.47541e-07
7.21763e-06
4.18495e-07
7.07323e-06
5.78243e-07
6.87787e-06
7.26156e-07
6.63546e-06
8.61737e-07
6.3501e-06
9.84589e-07
6.02608e-06
1.09437e-06
5.66783e-06
1.19077e-06
5.27995e-06
1.27341e-06
4.86723e-06
1.34184e-06
4.43467e-06
1.39543e-06
3.98755e-06
1.43334e-06
3.53148e-06
1.45445e-06
3.07245e-06
1.45728e-06
2.61698e-06
1.44001e-06
2.17206e-06
1.40047e-06
1.74529e-06
1.33618e-06
1.34482e-06
1.24455e-06
9.79298e-07
1.12317e-06
6.57756e-07
9.70387e-07
3.89426e-07
7.86227e-07
1.83651e-07
5.7368e-07
5.00816e-08
3.40549e-07
1.03811e-07
-6.01733e-09
-2.42173e-08
-3.41132e-08
2.40522e-09
-9.09738e-08
7.78494e-08
-1.80721e-07
1.83717e-07
-3.05425e-07
3.06505e-07
-4.65528e-07
4.36027e-07
-6.60214e-07
5.64905e-07
-8.87761e-07
6.88104e-07
-1.14584e-06
8.02433e-07
-1.43176e-06
9.06137e-07
-1.74273e-06
9.98545e-07
-2.07594e-06
1.07978e-06
-2.42878e-06
1.1505e-06
-2.79883e-06
1.21176e-06
-3.18399e-06
1.26479e-06
-3.58247e-06
1.31093e-06
-3.9928e-06
1.35151e-06
-4.41383e-06
1.38782e-06
-4.84468e-06
1.42104e-06
-5.28477e-06
1.45221e-06
-5.73372e-06
1.48225e-06
-6.19136e-06
1.51192e-06
-6.65768e-06
1.54183e-06
-7.1328e-06
1.57245e-06
-7.61694e-06
1.60414e-06
-8.11035e-06
1.63711e-06
-8.61336e-06
1.67148e-06
-9.12626e-06
1.70726e-06
-9.64936e-06
1.74437e-06
-1.01829e-05
1.78266e-06
-1.07271e-05
1.82187e-06
-1.1282e-05
1.8617e-06
-1.18476e-05
1.90176e-06
-1.24239e-05
1.9416e-06
-1.30104e-05
1.9807e-06
-1.36068e-05
2.01849e-06
-1.42124e-05
2.05434e-06
-1.48265e-05
2.08754e-06
-1.5448e-05
2.11735e-06
-1.60755e-05
2.14299e-06
-1.67078e-05
2.16361e-06
-1.7343e-05
2.17834e-06
-1.7979e-05
2.18629e-06
-1.86138e-05
2.18653e-06
-1.92448e-05
2.17813e-06
-1.98693e-05
2.16016e-06
-2.04841e-05
2.13169e-06
-2.10863e-05
2.09185e-06
-2.16722e-05
2.03977e-06
-2.22383e-05
1.97467e-06
-2.27806e-05
1.8958e-06
-2.32953e-05
1.80254e-06
-2.37782e-05
1.69434e-06
-2.42251e-05
1.57079e-06
-2.46317e-05
1.43159e-06
-2.49939e-05
1.27661e-06
-2.53074e-05
1.10588e-06
-2.5568e-05
9.19589e-07
-2.57718e-05
7.18138e-07
-2.59149e-05
5.02109e-07
-2.59937e-05
2.72289e-07
-2.60051e-05
2.96958e-08
-2.59459e-05
-2.24529e-07
-2.58136e-05
-4.88915e-07
-2.56061e-05
-7.61868e-07
-2.53218e-05
-1.04158e-06
-2.49595e-05
-1.32608e-06
-2.45186e-05
-1.6132e-06
-2.39992e-05
-1.90066e-06
-2.34019e-05
-2.18604e-06
-2.27279e-05
-2.46682e-06
-2.19793e-05
-2.74045e-06
-2.11586e-05
-3.0043e-06
-2.02691e-05
-3.25578e-06
-1.93145e-05
-3.4923e-06
-1.82995e-05
-3.71139e-06
-1.72292e-05
-3.91065e-06
-1.61091e-05
-4.08787e-06
-1.49456e-05
-4.24099e-06
-1.37453e-05
-4.3682e-06
-1.25152e-05
-4.46795e-06
-1.12627e-05
-4.53896e-06
-9.99563e-06
-4.58027e-06
-8.72174e-06
-4.59126e-06
-7.44903e-06
-4.57165e-06
-6.18552e-06
-4.52152e-06
-4.93914e-06
-4.44133e-06
-3.71769e-06
-4.33188e-06
-2.52871e-06
-4.19435e-06
-1.37942e-06
-4.03021e-06
-2.76657e-07
-3.84129e-06
7.7325e-07
-3.62967e-06
1.7645e-06
-3.39768e-06
2.69191e-06
-3.14787e-06
3.55093e-06
-2.88293e-06
4.33775e-06
-2.60569e-06
5.04923e-06
-2.31903e-06
5.683e-06
-2.02584e-06
6.23745e-06
-1.72902e-06
6.71167e-06
-1.43134e-06
7.10551e-06
-1.13548e-06
7.41948e-06
-8.4397e-07
7.65478e-06
-5.59134e-07
7.8132e-06
-2.83092e-07
7.8971e-06
-1.77324e-08
7.90934e-06
2.35296e-07
7.85326e-06
4.74582e-07
7.73256e-06
6.98943e-07
7.55131e-06
9.07404e-07
7.31388e-06
1.09917e-06
7.02489e-06
1.27358e-06
6.6892e-06
1.43006e-06
6.31188e-06
1.56808e-06
5.89824e-06
1.68706e-06
5.45378e-06
1.7863e-06
4.98427e-06
1.86494e-06
4.49579e-06
1.92182e-06
3.99476e-06
1.95548e-06
3.48799e-06
1.96404e-06
2.9828e-06
1.94521e-06
2.487e-06
1.89628e-06
2.00898e-06
1.8142e-06
1.55772e-06
1.69581e-06
1.14279e-06
1.5381e-06
7.74345e-07
1.33883e-06
4.63196e-07
1.09738e-06
2.21052e-07
8.15823e-07
6.11496e-08
5.00451e-07
1.64961e-07
-1.30983e-08
-1.1119e-08
-5.93215e-08
4.86282e-08
-1.43213e-07
1.61742e-07
-2.67252e-07
3.07755e-07
-4.32263e-07
4.71516e-07
-6.37721e-07
6.41485e-07
-8.82061e-07
8.09245e-07
-1.16297e-06
9.69013e-07
-1.47765e-06
1.11712e-06
-1.82306e-06
1.25154e-06
-2.19607e-06
1.37155e-06
-2.59364e-06
1.47734e-06
-3.01292e-06
1.56978e-06
-3.45133e-06
1.65017e-06
-3.9066e-06
1.72007e-06
-4.37683e-06
1.78115e-06
-4.86042e-06
1.8351e-06
-5.35613e-06
1.88354e-06
-5.86304e-06
1.92795e-06
-6.38049e-06
1.96966e-06
-6.90808e-06
2.00984e-06
-7.44562e-06
2.04945e-06
-7.99308e-06
2.08929e-06
-8.55059e-06
2.12996e-06
-9.11837e-06
2.17191e-06
-9.6967e-06
2.21544e-06
-1.02859e-05
2.26069e-06
-1.08864e-05
2.30769e-06
-1.14983e-05
2.35634e-06
-1.21221e-05
2.40642e-06
-1.27578e-05
2.45762e-06
-1.34057e-05
2.50954e-06
-1.40656e-05
2.56165e-06
-1.47373e-05
2.61338e-06
-1.54207e-05
2.66404e-06
-1.6115e-05
2.71286e-06
-1.68197e-05
2.75901e-06
-1.75337e-05
2.80157e-06
-1.82559e-05
2.83955e-06
-1.89849e-05
2.8719e-06
-1.97188e-05
2.89753e-06
-2.04557e-05
2.91529e-06
-2.11934e-05
2.92398e-06
-2.19293e-05
2.92241e-06
-2.26605e-05
2.90936e-06
-2.3384e-05
2.88361e-06
-2.40963e-05
2.84397e-06
-2.47937e-05
2.7893e-06
-2.54724e-05
2.7185e-06
-2.61283e-05
2.63056e-06
-2.67571e-05
2.52455e-06
-2.73542e-05
2.39967e-06
-2.79151e-05
2.25526e-06
-2.84351e-05
2.0908e-06
-2.89095e-05
1.90598e-06
-2.93336e-05
1.70064e-06
-2.97026e-05
1.47487e-06
-3.00119e-05
1.22897e-06
-3.02573e-05
9.63484e-07
-3.04344e-05
6.79208e-07
-3.05393e-05
3.77194e-07
-3.05684e-05
5.87716e-08
-3.05184e-05
-2.74529e-07
-3.03864e-05
-6.20829e-07
-3.01703e-05
-9.78054e-07
-2.9868e-05
-1.34388e-06
-2.94783e-05
-1.71575e-06
-2.90006e-05
-2.09092e-06
-2.84348e-05
-2.46646e-06
-2.77815e-05
-2.8393e-06
-2.70421e-05
-3.20622e-06
-2.62186e-05
-3.56398e-06
-2.53136e-05
-3.90924e-06
-2.43307e-05
-4.23869e-06
-2.32739e-05
-4.54908e-06
-2.21481e-05
-4.83723e-06
-2.09586e-05
-5.10011e-06
-1.97116e-05
-5.33487e-06
-1.84137e-05
-5.53889e-06
-1.70721e-05
-5.70984e-06
-1.56944e-05
-5.84568e-06
-1.42886e-05
-5.94476e-06
-1.2863e-05
-6.00579e-06
-1.14264e-05
-6.02791e-06
-9.98736e-06
-6.01068e-06
-8.55476e-06
-5.95412e-06
-7.13737e-06
-5.85872e-06
-5.74385e-06
-5.7254e-06
-4.38265e-06
-5.55555e-06
-3.0619e-06
-5.35096e-06
-1.78934e-06
-5.11386e-06
-5.72219e-07
-4.84679e-06
5.82767e-07
-4.55267e-06
1.66955e-06
-4.23466e-06
2.68277e-06
-3.89614e-06
3.61777e-06
-3.54069e-06
4.47071e-06
-3.17196e-06
5.23853e-06
-2.79366e-06
5.91899e-06
-2.40947e-06
6.51065e-06
-2.02301e-06
7.01292e-06
-1.63774e-06
7.42594e-06
-1.25699e-06
7.75063e-06
-8.83826e-07
7.98861e-06
-5.21073e-07
8.14216e-06
-1.71277e-07
8.21414e-06
1.6331e-07
8.20799e-06
4.80733e-07
8.12761e-06
7.79323e-07
7.97734e-06
1.05767e-06
7.7619e-06
1.31461e-06
7.48634e-06
1.54914e-06
7.156e-06
1.7604e-06
6.77652e-06
1.94756e-06
6.35378e-06
2.1098e-06
5.89395e-06
2.24614e-06
5.40346e-06
2.35543e-06
4.88907e-06
2.43621e-06
4.35791e-06
2.48664e-06
3.81752e-06
2.50444e-06
3.27589e-06
2.48684e-06
2.74156e-06
2.43061e-06
2.22365e-06
2.33211e-06
1.73192e-06
2.18753e-06
1.27687e-06
1.99315e-06
8.6983e-07
1.74587e-06
5.23237e-07
1.44397e-06
2.51091e-07
1.08797e-06
6.98051e-08
6.81738e-07
2.34766e-07
-2.05367e-08
9.41736e-09
-8.61238e-08
1.14216e-07
-1.98973e-07
2.7459e-07
-3.5974e-07
4.68522e-07
-5.67788e-07
6.79565e-07
-8.21436e-07
8.95133e-07
-1.11821e-06
1.10602e-06
-1.45508e-06
1.30589e-06
-1.82871e-06
1.49074e-06
-2.23561e-06
1.65844e-06
-2.67232e-06
1.80826e-06
-3.13554e-06
1.94057e-06
-3.62223e-06
2.05646e-06
-4.12962e-06
2.15757e-06
-4.65535e-06
2.24579e-06
-5.19739e-06
2.32319e-06
-5.75408e-06
2.3918e-06
-6.32414e-06
2.45359e-06
-6.90658e-06
2.51039e-06
-7.50074e-06
2.56382e-06
-8.10621e-06
2.61531e-06
-8.72279e-06
2.66604e-06
-9.35049e-06
2.71698e-06
-9.98943e-06
2.7689e-06
-1.06399e-05
2.82235e-06
-1.13021e-05
2.8777e-06
-1.19766e-05
2.93514e-06
-1.26636e-05
2.9947e-06
-1.33635e-05
3.05625e-06
-1.40766e-05
3.11953e-06
-1.48031e-05
3.18415e-06
-1.55432e-05
3.24958e-06
-1.62967e-05
3.3152e-06
-1.70636e-05
3.38024e-06
-1.78434e-05
3.44384e-06
-1.86355e-05
3.50502e-06
-1.94393e-05
3.56272e-06
-2.02535e-05
3.61577e-06
-2.10768e-05
3.66291e-06
-2.19077e-05
3.70281e-06
-2.27442e-05
3.73407e-06
-2.35842e-05
3.75523e-06
-2.4425e-05
3.7648e-06
-2.52639e-05
3.76125e-06
-2.60976e-05
3.74306e-06
-2.69226e-05
3.7087e-06
-2.77353e-05
3.65668e-06
-2.85316e-05
3.58558e-06
-2.93071e-05
3.49403e-06
-3.00574e-05
3.3808e-06
-3.07776e-05
3.24475e-06
-3.14628e-05
3.0849e-06
-3.2108e-05
2.90047e-06
-3.27081e-05
2.69086e-06
-3.32578e-05
2.45568e-06
-3.3752e-05
2.19482e-06
-3.41855e-05
1.90841e-06
-3.45534e-05
1.59686e-06
-3.48508e-05
1.26089e-06
-3.50731e-05
9.01521e-07
-3.5216e-05
5.20092e-07
-3.52755e-05
1.18265e-07
-3.5248e-05
-3.02015e-07
-3.51304e-05
-7.38441e-07
-3.492e-05
-1.18843e-06
-3.46148e-05
-1.64909e-06
-3.42133e-05
-2.1173e-06
-3.37145e-05
-2.58966e-06
-3.31184e-05
-3.06258e-06
-3.24254e-05
-3.53227e-06
-3.16368e-05
-3.99482e-06
-3.07546e-05
-4.44621e-06
-2.97815e-05
-4.88238e-06
-2.87209e-05
-5.29927e-06
-2.75771e-05
-5.69285e-06
-2.63551e-05
-6.05924e-06
-2.50605e-05
-6.39467e-06
-2.36998e-05
-6.69564e-06
-2.22798e-05
-6.95888e-06
-2.08081e-05
-7.18148e-06
-1.9293e-05
-7.36087e-06
-1.77428e-05
-7.49492e-06
-1.61666e-05
-7.58198e-06
-1.45736e-05
-7.62088e-06
-1.29734e-05
-7.61096e-06
-1.13753e-05
-7.55213e-06
-9.78921e-06
-7.44485e-06
-8.22448e-06
-7.29013e-06
-6.6905e-06
-7.08953e-06
-5.19634e-06
-6.84513e-06
-3.75066e-06
-6.55953e-06
-2.36169e-06
-6.23577e-06
-1.03705e-06
-5.87731e-06
2.16262e-07
-5.48796e-06
1.39196e-06
-5.07184e-06
2.48455e-06
-4.63328e-06
3.48935e-06
-4.17676e-06
4.40255e-06
-3.70686e-06
5.2212e-06
-3.22813e-06
5.94328e-06
-2.74508e-06
6.56761e-06
-2.26208e-06
7.09393e-06
-1.78331e-06
7.52278e-06
-1.31267e-06
7.85551e-06
-8.53808e-07
8.09424e-06
-4.10007e-07
8.24178e-06
1.57773e-08
8.30155e-06
4.20955e-07
8.2776e-06
8.03276e-07
8.17446e-06
1.16082e-06
7.99712e-06
1.49195e-06
7.75099e-06
1.79527e-06
7.44185e-06
2.06954e-06
7.0758e-06
2.31361e-06
6.65926e-06
2.52633e-06
6.19897e-06
2.70643e-06
5.70196e-06
2.85244e-06
5.17561e-06
2.96255e-06
4.62769e-06
3.03456e-06
4.06636e-06
3.06577e-06
3.50028e-06
3.05292e-06
2.93864e-06
2.99224e-06
2.39127e-06
2.87948e-06
1.86872e-06
2.71008e-06
1.38242e-06
2.47945e-06
9.44906e-07
2.18339e-06
5.70176e-07
1.8187e-06
2.74304e-07
1.38384e-06
7.63472e-08
8.79695e-07
3.11114e-07
-2.82059e-08
3.76234e-08
-1.13986e-07
1.99996e-07
-2.5718e-07
4.17785e-07
-4.56488e-07
6.67829e-07
-7.09666e-07
9.32743e-07
-1.01373e-06
1.1992e-06
-1.36517e-06
1.45746e-06
-1.76014e-06
1.70086e-06
-2.19466e-06
1.92526e-06
-2.66476e-06
2.12854e-06
-3.16661e-06
2.31012e-06
-3.69664e-06
2.47059e-06
-4.25158e-06
2.6114e-06
-4.82854e-06
2.73453e-06
-5.42503e-06
2.84229e-06
-6.03896e-06
2.93712e-06
-6.66863e-06
3.02147e-06
-7.31273e-06
3.09769e-06
-7.97027e-06
3.16793e-06
-8.64059e-06
3.23414e-06
-9.3233e-06
3.29802e-06
-1.00182e-05
3.36097e-06
-1.07254e-05
3.42418e-06
-1.14451e-05
3.48855e-06
-1.21775e-05
3.55475e-06
-1.2923e-05
3.62323e-06
-1.36821e-05
3.69422e-06
-1.44552e-05
3.76776e-06
-1.52426e-05
3.84371e-06
-1.60448e-05
3.92174e-06
-1.6862e-05
4.00137e-06
-1.76944e-05
4.08196e-06
-1.85419e-05
4.16273e-06
-1.94044e-05
4.24274e-06
-2.02815e-05
4.32093e-06
-2.11726e-05
4.39608e-06
-2.20768e-05
4.46689e-06
-2.29929e-05
4.53189e-06
-2.39195e-05
4.58954e-06
-2.48549e-05
4.63819e-06
-2.57969e-05
4.67611e-06
-2.67432e-05
4.7015e-06
-2.76909e-05
4.71252e-06
-2.8637e-05
4.70731e-06
-2.95779e-05
4.68399e-06
-3.05099e-05
4.64071e-06
-3.14289e-05
4.57565e-06
-3.23304e-05
4.48708e-06
-3.32097e-05
4.37337e-06
-3.4062e-05
4.23301e-06
-3.48819e-05
4.06467e-06
-3.56641e-05
3.86717e-06
-3.64033e-05
3.63959e-06
-3.70937e-05
3.38124e-06
-3.77297e-05
3.09169e-06
-3.83057e-05
2.77083e-06
-3.88161e-05
2.41885e-06
-3.92556e-05
2.03629e-06
-3.96187e-05
1.62404e-06
-3.99005e-05
1.18335e-06
-4.00963e-05
7.15859e-07
-4.02016e-05
2.23579e-07
-4.02125e-05
-2.91123e-07
-4.01255e-05
-8.25495e-07
-3.99375e-05
-1.37642e-06
-3.96461e-05
-1.94045e-06
-3.92496e-05
-2.51383e-06
-3.87467e-05
-3.09251e-06
-3.81371e-05
-3.67219e-06
-3.7421e-05
-4.24837e-06
-3.65995e-05
-4.81637e-06
-3.56743e-05
-5.37139e-06
-3.46481e-05
-5.90857e-06
-3.35243e-05
-6.42304e-06
-3.23072e-05
-6.90999e-06
-3.10017e-05
-7.36473e-06
-2.96137e-05
-7.78273e-06
-2.81496e-05
-8.15972e-06
-2.66167e-05
-8.49175e-06
-2.50229e-05
-8.77523e-06
-2.33768e-05
-9.00699e-06
-2.16874e-05
-9.18437e-06
-1.99641e-05
-9.30524e-06
-1.8217e-05
-9.36805e-06
-1.6456e-05
-9.37187e-06
-1.46918e-05
-9.31642e-06
-1.29346e-05
-9.20205e-06
-1.11949e-05
-9.02982e-06
-9.48296e-06
-8.80142e-06
-7.80892e-06
-8.51918e-06
-6.18241e-06
-8.18603e-06
-4.61268e-06
-7.8055e-06
-3.10838e-06
-7.3816e-06
-1.67754e-06
-6.91881e-06
-3.27417e-07
-6.42196e-06
9.35515e-07
-5.89621e-06
2.10567e-06
-5.34692e-06
3.17838e-06
-4.77956e-06
4.14992e-06
-4.19967e-06
5.01754e-06
-3.6127e-06
5.77947e-06
-3.02401e-06
6.43488e-06
-2.43872e-06
6.9839e-06
-1.86169e-06
7.42755e-06
-1.29745e-06
7.76768e-06
-7.50145e-07
8.00699e-06
-2.23525e-07
8.14886e-06
2.7908e-07
8.19738e-06
7.54752e-07
8.15724e-06
1.20096e-06
8.03367e-06
1.61553e-06
7.83237e-06
1.99657e-06
7.5595e-06
2.34241e-06
7.22159e-06
2.65151e-06
6.82557e-06
2.92236e-06
6.37867e-06
3.15333e-06
5.8885e-06
3.34261e-06
5.36301e-06
3.48804e-06
4.81056e-06
3.58701e-06
4.23993e-06
3.6364e-06
3.66039e-06
3.63246e-06
3.08179e-06
3.57084e-06
2.51466e-06
3.44661e-06
1.97035e-06
3.25439e-06
1.46123e-06
2.98857e-06
1.001e-06
2.64363e-06
6.05106e-07
2.21459e-06
2.91414e-07
1.69753e-06
8.10769e-08
1.09003e-06
3.9219e-07
-3.60339e-08
7.36569e-08
-1.42588e-07
3.0655e-07
-3.17129e-07
5.92325e-07
-5.56323e-07
9.07023e-07
-8.56219e-07
1.23264e-06
-1.21243e-06
1.5554e-06
-1.62029e-06
1.86532e-06
-2.07506e-06
2.15563e-06
-2.57205e-06
2.42226e-06
-3.10676e-06
2.66324e-06
-3.67493e-06
2.87829e-06
-4.27271e-06
3.06837e-06
-4.89662e-06
3.23531e-06
-5.54363e-06
3.38154e-06
-6.21115e-06
3.50981e-06