/*--------------------------------*- C++ -*----------------------------------*\
| =========                 |                                                 |
| \\      /  F ield         | OpenFOAM: The Open Source CFD Toolbox           |
|  \\    /   O peration     | Version:  2112                                  |
|   \\  /    A nd           | Website:  www.openfoam.com                      |
|    \\/     M anipulation  |                                                 |
\*---------------------------------------------------------------------------*/
FoamFile
{
    version     2.0;
    format      ascii;
    arch        "LSB;label=32;scalar=64";
    class       volVectorField;
    location    "12";
    object      U;
}
// * * * * * * * * * * * * * * * * * * * * * * * * * * * * * * * * * * * * * //

dimensions      [0 1 -1 0 0 0 0];

internalField   nonuniform List<vector> 
16641
(
(2.57586e-06 -2.63884e-06 0)
(1.19703e-05 -5.70089e-06 0)
(2.50867e-05 -5.84728e-06 0)
(3.53541e-05 -4.3653e-06 0)
(3.96971e-05 -2.19445e-06 0)
(3.70604e-05 1.42075e-07 0)
(2.72565e-05 2.3941e-06 0)
(1.063e-05 4.42933e-06 0)
(-1.22203e-05 6.19221e-06 0)
(-4.05608e-05 7.68992e-06 0)
(-7.36147e-05 8.92952e-06 0)
(-0.000110661 9.93717e-06 0)
(-0.000151037 1.07456e-05 0)
(-0.000194164 1.13889e-05 0)
(-0.000239555 1.19001e-05 0)
(-0.00028682 1.23114e-05 0)
(-0.000335657 1.26511e-05 0)
(-0.000385846 1.29441e-05 0)
(-0.00043724 1.32122e-05 0)
(-0.000489756 1.34731e-05 0)
(-0.000543366 1.37409e-05 0)
(-0.000598083 1.40271e-05 0)
(-0.000653955 1.43402e-05 0)
(-0.000711055 1.4686e-05 0)
(-0.000769476 1.50684e-05 0)
(-0.00082932 1.54895e-05 0)
(-0.000890696 1.59493e-05 0)
(-0.000953715 1.64472e-05 0)
(-0.00101848 1.69813e-05 0)
(-0.0010851 1.75487e-05 0)
(-0.00115364 1.81454e-05 0)
(-0.0012242 1.8767e-05 0)
(-0.00129682 1.94082e-05 0)
(-0.00137154 2.00632e-05 0)
(-0.00144839 2.07253e-05 0)
(-0.00152735 2.13873e-05 0)
(-0.00160838 2.20411e-05 0)
(-0.00169143 2.26781e-05 0)
(-0.00177639 2.32889e-05 0)
(-0.00186313 2.38636e-05 0)
(-0.0019515 2.43914e-05 0)
(-0.00204128 2.48607e-05 0)
(-0.00213222 2.52597e-05 0)
(-0.00222404 2.55757e-05 0)
(-0.0023164 2.57955e-05 0)
(-0.00240894 2.59055e-05 0)
(-0.00250121 2.5892e-05 0)
(-0.00259275 2.5741e-05 0)
(-0.00268305 2.54384e-05 0)
(-0.00277154 2.49701e-05 0)
(-0.00285761 2.43225e-05 0)
(-0.00294062 2.34828e-05 0)
(-0.00301988 2.24392e-05 0)
(-0.00309468 2.11804e-05 0)
(-0.00316426 1.96968e-05 0)
(-0.00322784 1.79804e-05 0)
(-0.00328465 1.60257e-05 0)
(-0.00333388 1.38293e-05 0)
(-0.00337473 1.13905e-05 0)
(-0.00340641 8.71168e-06 0)
(-0.00342816 5.7987e-06 0)
(-0.00343924 2.66107e-06 0)
(-0.00343895 -6.88902e-07 0)
(-0.00342666 -4.23382e-06 0)
(-0.0034018 -7.9522e-06 0)
(-0.00336388 -1.18188e-05 0)
(-0.0033125 -1.58042e-05 0)
(-0.00324739 -1.98751e-05 0)
(-0.00316836 -2.39948e-05 0)
(-0.00307537 -2.81227e-05 0)
(-0.00296851 -3.22156e-05 0)
(-0.00284802 -3.62283e-05 0)
(-0.00271427 -4.01136e-05 0)
(-0.0025678 -4.38237e-05 0)
(-0.00240929 -4.73106e-05 0)
(-0.00223957 -5.05275e-05 0)
(-0.00205962 -5.34292e-05 0)
(-0.00187054 -5.59732e-05 0)
(-0.00167359 -5.81208e-05 0)
(-0.0014701 -5.98379e-05 0)
(-0.00126153 -6.10956e-05 0)
(-0.00104941 -6.18717e-05 0)
(-0.000835334 -6.21504e-05 0)
(-0.000620925 -6.19232e-05 0)
(-0.000407832 -6.11891e-05 0)
(-0.000197693 -5.9955e-05 0)
(7.88306e-06 -5.82355e-05 0)
(0.000207339 -5.60524e-05 0)
(0.000399196 -5.34346e-05 0)
(0.000582069 -5.04176e-05 0)
(0.000754689 -4.70424e-05 0)
(0.000915918 -4.33544e-05 0)
(0.00106476 -3.94031e-05 0)
(0.00120038 -3.52403e-05 0)
(0.00132211 -3.09193e-05 0)
(0.00142943 -2.64939e-05 0)
(0.00152201 -2.20167e-05 0)
(0.00159968 -1.75389e-05 0)
(0.00166241 -1.31084e-05 0)
(0.00171034 -8.76993e-06 0)
(0.00174376 -4.56344e-06 0)
(0.00176306 -5.24123e-07 0)
(0.00176877 3.31827e-06 0)
(0.00176149 6.93958e-06 0)
(0.00174193 1.03212e-05 0)
(0.00171083 1.34501e-05 0)
(0.001669 1.63185e-05 0)
(0.00161728 1.89234e-05 0)
(0.00155652 2.1266e-05 0)
(0.00148758 2.33508e-05 0)
(0.00141132 2.51849e-05 0)
(0.00132859 2.67765e-05 0)
(0.00124024 2.81339e-05 0)
(0.00114709 2.92638e-05 0)
(0.00104998 3.01691e-05 0)
(0.000949762 3.08471e-05 0)
(0.00084731 3.12864e-05 0)
(0.000743573 3.14641e-05 0)
(0.000639601 3.13412e-05 0)
(0.000536591 3.08584e-05 0)
(0.000435949 2.99287e-05 0)
(0.000339359 2.84303e-05 0)
(0.000248865 2.61971e-05 0)
(0.000166955 2.3011e-05 0)
(9.66323e-05 1.86094e-05 0)
(4.13358e-05 1.27553e-05 0)
(4.52556e-06 5.46409e-06 0)
(-1.10124e-05 -2.32076e-06 0)
(-6.59029e-06 -6.58928e-06 0)
(5.66216e-06 -1.19686e-05 0)
(2.19099e-05 -2.18749e-05 0)
(4.0676e-05 -2.01943e-05 0)
(5.0877e-05 -1.15821e-05 0)
(4.6756e-05 5.16433e-07 0)
(2.58065e-05 1.38868e-05 0)
(-1.2755e-05 2.72024e-05 0)
(-6.85256e-05 3.96974e-05 0)
(-0.000140352 5.09628e-05 0)
(-0.000226688 6.08557e-05 0)
(-0.000325812 6.93524e-05 0)
(-0.000436009 7.6531e-05 0)
(-0.00055566 8.25263e-05 0)
(-0.00068331 8.75006e-05 0)
(-0.000817706 9.16273e-05 0)
(-0.000957805 9.50791e-05 0)
(-0.00110278 9.8019e-05 0)
(-0.00125199 0.000100596 0)
(-0.001405 0.000102941 0)
(-0.00156153 0.000105166 0)
(-0.00172143 0.000107365 0)
(-0.00188466 0.000109614 0)
(-0.00205131 0.00011197 0)
(-0.00222149 0.000114476 0)
(-0.00239539 0.000117163 0)
(-0.00257324 0.000120048 0)
(-0.00275528 0.000123137 0)
(-0.00294176 0.000126428 0)
(-0.0031329 0.00012991 0)
(-0.00332894 0.000133568 0)
(-0.00353007 0.000137376 0)
(-0.00373645 0.000141305 0)
(-0.00394818 0.000145321 0)
(-0.00416533 0.000149383 0)
(-0.00438789 0.000153447 0)
(-0.00461581 0.000157462 0)
(-0.00484894 0.000161374 0)
(-0.00508707 0.000165122 0)
(-0.00532987 0.000168644 0)
(-0.00557694 0.000171868 0)
(-0.00582779 0.000174724 0)
(-0.0060818 0.000177132 0)
(-0.00633825 0.000179011 0)
(-0.0065963 0.000180279 0)
(-0.00685499 0.000180848 0)
(-0.00711326 0.00018063 0)
(-0.0073699 0.000179534 0)
(-0.00762359 0.000177473 0)
(-0.00787289 0.000174359 0)
(-0.00811624 0.000170104 0)
(-0.00835199 0.000164629 0)
(-0.00857836 0.000157856 0)
(-0.00879348 0.000149718 0)
(-0.00899542 0.000140153 0)
(-0.00918217 0.000129113 0)
(-0.00935167 0.00011656 0)
(-0.00950183 0.000102472 0)
(-0.00963055 8.68427e-05 0)
(-0.00973577 6.96837e-05 0)
(-0.00981543 5.10262e-05 0)
(-0.00986757 3.09232e-05 0)
(-0.00989031 9.44957e-06 0)
(-0.00988193 -1.33e-05 0)
(-0.00984082 -3.71998e-05 0)
(-0.0097656 -6.21039e-05 0)
(-0.00965509 -8.78431e-05 0)
(-0.00950839 -0.000114224 0)
(-0.00932484 -0.000141033 0)
(-0.00910412 -0.000168034 0)
(-0.00884622 -0.000194975 0)
(-0.00855148 -0.000221588 0)
(-0.0082206 -0.000247595 0)
(-0.00785467 -0.00027271 0)
(-0.00745514 -0.000296644 0)
(-0.00702385 -0.000319111 0)
(-0.00656299 -0.000339829 0)
(-0.00607513 -0.000358532 0)
(-0.00556318 -0.000374968 0)
(-0.00503034 -0.000388909 0)
(-0.0044801 -0.000400152 0)
(-0.00391619 -0.000408529 0)
(-0.00334255 -0.000413904 0)
(-0.00276326 -0.000416184 0)
(-0.0021825 -0.000415314 0)
(-0.00160449 -0.000411285 0)
(-0.00103346 -0.00040413 0)
(-0.000473551 -0.000393929 0)
(7.12028e-05 -0.000380802 0)
(0.00059695 -0.000364912 0)
(0.00110007 -0.000346459 0)
(0.0015772 -0.000325676 0)
(0.0020253 -0.000302826 0)
(0.0024417 -0.000278194 0)
(0.00282408 -0.000252085 0)
(0.00317053 -0.000224813 0)
(0.00347955 -0.000196699 0)
(0.00375007 -0.00016806 0)
(0.00398143 -0.00013921 0)
(0.00417337 -0.000110447 0)
(0.00432602 -8.20517e-05 0)
(0.0044399 -5.42832e-05 0)
(0.00451584 -2.73736e-05 0)
(0.004555 -1.52704e-06 0)
(0.00455877 2.30836e-05 0)
(0.00452882 4.63159e-05 0)
(0.00446699 6.80591e-05 0)
(0.00437526 8.82321e-05 0)
(0.00425574 0.000106781 0)
(0.00411063 0.000123677 0)
(0.00394217 0.000138909 0)
(0.00375265 0.000152481 0)
(0.00354437 0.000164405 0)
(0.00331964 0.000174691 0)
(0.0030808 0.000183339 0)
(0.00283023 0.00019033 0)
(0.00257037 0.000195609 0)
(0.00230379 0.000199077 0)
(0.00203324 0.000200572 0)
(0.00176174 0.000199853 0)
(0.00149267 0.000196582 0)
(0.00122989 0.000190307 0)
(0.000977837 0.000180448 0)
(0.000741639 0.000166298 0)
(0.000527167 0.000147054 0)
(0.000340973 0.00012195 0)
(0.000189885 9.06154e-05 0)
(8.00057e-05 5.38784e-05 0)
(1.56823e-05 1.56551e-05 0)
(-2.33951e-06 -1.104e-05 0)
(6.02874e-06 -2.53256e-05 0)
(2.05715e-05 -4.07179e-05 0)
(3.22397e-05 -3.20508e-05 0)
(2.88249e-05 -8.54776e-06 0)
(3.68532e-06 2.3063e-05 0)
(-4.63036e-05 5.80608e-05 0)
(-0.000122199 9.33122e-05 0)
(-0.000223551 0.000126875 0)
(-0.000348892 0.000157627 0)
(-0.000496164 0.000185032 0)
(-0.000663021 0.00020894 0)
(-0.000847062 0.000229466 0)
(-0.00104598 0.000246888 0)
(-0.00125768 0.000261581 0)
(-0.00148029 0.000273965 0)
(-0.00171226 0.000284474 0)
(-0.00195232 0.000293524 0)
(-0.00219949 0.000301505 0)
(-0.00245304 0.000308765 0)
(-0.00271249 0.000315607 0)
(-0.00297756 0.000322285 0)
(-0.00324813 0.00032901 0)
(-0.00352426 0.000335945 0)
(-0.00380608 0.000343213 0)
(-0.00409381 0.000350902 0)
(-0.00438774 0.000359064 0)
(-0.00468819 0.000367722 0)
(-0.00499547 0.000376875 0)
(-0.00530991 0.000386498 0)
(-0.00563179 0.000396544 0)
(-0.00596137 0.000406949 0)
(-0.00629883 0.000417632 0)
(-0.00664432 0.000428496 0)
(-0.00699787 0.000439428 0)
(-0.00735944 0.000450301 0)
(-0.00772886 0.000460973 0)
(-0.00810589 0.000471289 0)
(-0.00849011 0.000481078 0)
(-0.00888099 0.000490158 0)
(-0.00927786 0.000498335 0)
(-0.00967987 0.0005054 0)
(-0.010086 0.000511136 0)
(-0.0104951 0.000515316 0)
(-0.0109058 0.000517705 0)
(-0.0113166 0.000518061 0)
(-0.0117258 0.000516142 0)
(-0.0121313 0.0005117 0)
(-0.0125313 0.000504495 0)
(-0.0129233 0.000494287 0)
(-0.0133049 0.000480849 0)
(-0.0136736 0.000463965 0)
(-0.0140266 0.000443438 0)
(-0.014361 0.000419092 0)
(-0.0146738 0.000390778 0)
(-0.014962 0.000358376 0)
(-0.0152224 0.000321806 0)
(-0.0154518 0.000281027 0)
(-0.0156472 0.000236043 0)
(-0.0158054 0.000186911 0)
(-0.0159233 0.000133738 0)
(-0.015998 7.6691e-05 0)
(-0.0160269 1.59957e-05 0)
(-0.0160073 -4.80635e-05 0)
(-0.0159371 -0.000115131 0)
(-0.0158141 -0.000184794 0)
(-0.0156368 -0.00025658 0)
(-0.0154039 -0.000329954 0)
(-0.0151145 -0.000404328 0)
(-0.0147684 -0.000479064 0)
(-0.0143655 -0.000553481 0)
(-0.0139066 -0.000626861 0)
(-0.0133927 -0.000698463 0)
(-0.0128256 -0.000767527 0)
(-0.0122075 -0.00083329 0)
(-0.0115412 -0.000894996 0)
(-0.0108301 -0.00095191 0)
(-0.0100779 -0.00100333 0)
(-0.00928904 -0.0010486 0)
(-0.00846823 -0.00108711 0)
(-0.00762066 -0.00111835 0)
(-0.00675184 -0.00114187 0)
(-0.0058676 -0.00115731 0)
(-0.00497395 -0.00116442 0)
(-0.00407709 -0.00116305 0)
(-0.00318326 -0.00115317 0)
(-0.00229871 -0.00113486 0)
(-0.00142962 -0.0011083 0)
(-0.000582002 -0.00107381 0)
(0.000238381 -0.00103178 0)
(0.00102606 -0.000982735 0)
(0.00177595 -0.000927259 0)
(0.00248339 -0.00086603 0)
(0.00314423 -0.000799785 0)
(0.00375484 -0.000729312 0)
(0.00431217 -0.000655434 0)
(0.00481373 -0.000578991 0)
(0.00525767 -0.000500827 0)
(0.00564274 -0.000421774 0)
(0.00596827 -0.000342634 0)
(0.00623418 -0.00026417 0)
(0.00644095 -0.000187093 0)
(0.00658956 -0.000112049 0)
(0.00668148 -3.96158e-05 0)
(0.0067186 2.97076e-05 0)
(0.00670317 9.54976e-05 0)
(0.00663777 0.000157411 0)
(0.00652525 0.000215182 0)
(0.00636867 0.000268613 0)
(0.00617127 0.00031757 0)
(0.00593639 0.000361969 0)
(0.0056675 0.000401765 0)
(0.00536811 0.000436929 0)
(0.00504184 0.000467434 0)
(0.00469233 0.000493226 0)
(0.00432336 0.000514201 0)
(0.00393882 0.00053017 0)
(0.00354281 0.000540835 0)
(0.0031397 0.000545748 0)
(0.00273426 0.000544278 0)
(0.00233172 0.000535582 0)
(0.00193793 0.000518584 0)
(0.00155946 0.000491978 0)
(0.00120364 0.000454281 0)
(0.000878578 0.000403985 0)
(0.000592987 0.000339924 0)
(0.000355563 0.00026206 0)
(0.000173779 0.000172877 0)
(5.43188e-05 8.00794e-05 0)
(5.51479e-06 4.53842e-06 0)
(4.65469e-06 -3.59291e-05 0)
(1.17897e-05 -5.08277e-05 0)
(7.54096e-06 -2.844e-05 0)
(-1.92779e-05 1.71194e-05 0)
(-7.50543e-05 7.57156e-05 0)
(-0.000162889 0.000139972 0)
(-0.000283717 0.000204783 0)
(-0.000436872 0.00026683 0)
(-0.000620575 0.000324115 0)
(-0.000832367 0.000375599 0)
(-0.00106944 0.00042093 0)
(-0.0013289 0.000460225 0)
(-0.00160792 0.000493915 0)
(-0.00190392 0.000522618 0)
(-0.0022146 0.000547055 0)
(-0.00253798 0.000567981 0)
(-0.00287243 0.000586138 0)
(-0.00321669 0.000602223 0)
(-0.0035698 0.000616868 0)
(-0.00393108 0.000630629 0)
(-0.00430013 0.000643978 0)
(-0.00467675 0.000657304 0)
(-0.00506093 0.000670919 0)
(-0.00545279 0.000685056 0)
(-0.00585257 0.000699884 0)
(-0.00626058 0.000715506 0)
(-0.00667716 0.000731973 0)
(-0.00710269 0.000749285 0)
(-0.00753751 0.000767398 0)
(-0.00798196 0.000786228 0)
(-0.00843632 0.000805656 0)
(-0.00890078 0.000825529 0)
(-0.00937546 0.000845662 0)
(-0.00986037 0.00086584 0)
(-0.0103554 0.000885819 0)
(-0.0108603 0.000905327 0)
(-0.0113746 0.000924066 0)
(-0.0118978 0.000941711 0)
(-0.0124292 0.00095791 0)
(-0.0129676 0.00097229 0)
(-0.0135121 0.000984454 0)
(-0.0140612 0.000993987 0)
(-0.0146133 0.00100046 0)
(-0.0151665 0.00100342 0)
(-0.0157188 0.00100241 0)
(-0.0162679 0.000996983 0)
(-0.0168111 0.000986674 0)
(-0.0173458 0.000971032 0)
(-0.0178689 0.000949619 0)
(-0.0183771 0.000922016 0)
(-0.0188671 0.000887836 0)
(-0.0193352 0.000846722 0)
(-0.0197776 0.000798367 0)
(-0.0201906 0.000742512 0)
(-0.02057 0.000678964 0)
(-0.0209119 0.000607597 0)
(-0.0212122 0.000528365 0)
(-0.0214668 0.000441309 0)
(-0.0216719 0.000346563 0)
(-0.0218235 0.000244361 0)
(-0.021918 0.000135045 0)
(-0.0219521 1.90644e-05 0)
(-0.0219225 -0.000103017 0)
(-0.0218264 -0.000230525 0)
(-0.0216615 -0.000362671 0)
(-0.0214258 -0.000498559 0)
(-0.0211177 -0.000637189 0)
(-0.0207363 -0.000777466 0)
(-0.0202814 -0.000918208 0)
(-0.0197531 -0.00105816 0)
(-0.0191522 -0.00119601 0)
(-0.0184805 -0.0013304 0)
(-0.01774 -0.00145994 0)
(-0.0169337 -0.00158326 0)
(-0.0160652 -0.00169899 0)
(-0.0151386 -0.00180579 0)
(-0.0141589 -0.00190239 0)
(-0.0131314 -0.00198761 0)
(-0.0120622 -0.00206038 0)
(-0.0109577 -0.00211973 0)
(-0.00982485 -0.00216487 0)
(-0.00867098 -0.00219513 0)
(-0.0075036 -0.00221006 0)
(-0.00633049 -0.00220938 0)
(-0.00515949 -0.00219301 0)
(-0.00399849 -0.00216106 0)
(-0.00285529 -0.00211386 0)
(-0.0017375 -0.00205193 0)
(-0.000652496 -0.00197597 0)
(0.000392729 -0.00188687 0)
(0.0013916 -0.00178569 0)
(0.00233807 -0.00167361 0)
(0.00322666 -0.00155194 0)
(0.00405254 -0.00142209 0)
(0.00481155 -0.00128555 0)
(0.00550026 -0.00114382 0)
(0.00611598 -0.000998444 0)
(0.00665677 -0.000850938 0)
(0.00712143 -0.000702782 0)
(0.0075095 -0.000555389 0)
(0.00782121 -0.000410089 0)
(0.00805749 -0.000268104 0)
(0.00821985 -0.00013054 0)
(0.00831039 1.63117e-06 0)
(0.00833172 0.000127572 0)
(0.00828688 0.000246586 0)
(0.0081793 0.000358107 0)
(0.00801275 0.000461699 0)
(0.00779124 0.000557035 0)
(0.007519 0.000643883 0)
(0.00720046 0.000722075 0)
(0.00684016 0.000791483 0)
(0.00644279 0.00085198 0)
(0.00601319 0.000903397 0)
(0.00555632 0.000945482 0)
(0.00507739 0.000977847 0)
(0.00458183 0.000999915 0)
(0.00407542 0.00101087 0)
(0.00356441 0.0010096 0)
(0.00305556 0.000994668 0)
(0.00255632 0.000964308 0)
(0.00207484 0.00091644 0)
(0.00162006 0.00084881 0)
(0.00120164 0.00075927 0)
(0.000829806 0.000646358 0)
(0.000514711 0.000510384 0)
(0.000265346 0.000355156 0)
(9.20497e-05 0.00019088 0)
(1.29947e-05 4.1759e-05 0)
(2.42523e-06 -4.04375e-05 0)
(-1.46189e-06 -4.54392e-05 0)
(-2.79516e-05 -1.08266e-06 0)
(-8.55204e-05 7.40867e-05 0)
(-0.000179459 0.000166717 0)
(-0.000312348 0.000266904 0)
(-0.000484646 0.000367627 0)
(-0.00069525 0.000464193 0)
(-0.000941985 0.000553694 0)
(-0.00122199 0.000634563 0)
(-0.00153207 0.000706213 0)
(-0.00186892 0.000768756 0)
(-0.00222934 0.000822775 0)
(-0.00261036 0.000869157 0)
(-0.00300933 0.000908949 0)
(-0.00342397 0.000943268 0)
(-0.00385238 0.000973226 0)
(-0.00429305 0.000999875 0)
(-0.00474484 0.00102418 0)
(-0.00520691 0.00104698 0)
(-0.00567876 0.00106902 0)
(-0.0061601 0.00109089 0)
(-0.00665087 0.00111309 0)
(-0.00715116 0.00113599 0)
(-0.00766122 0.00115985 0)
(-0.00818134 0.00118484 0)
(-0.00871191 0.00121105 0)
(-0.0092533 0.00123848 0)
(-0.0098059 0.00126706 0)
(-0.01037 0.00129668 0)
(-0.010946 0.00132713 0)
(-0.0115341 0.00135818 0)
(-0.0121342 0.00138954 0)
(-0.0127464 0.00142085 0)
(-0.0133706 0.00145174 0)
(-0.0140062 0.00148177 0)
(-0.0146529 0.00151045 0)
(-0.0153098 0.00153726 0)
(-0.0159759 0.00156165 0)
(-0.01665 0.00158301 0)
(-0.0173307 0.00160071 0)
(-0.0180162 0.00161408 0)
(-0.0187045 0.00162244 0)
(-0.0193933 0.00162508 0)
(-0.02008 0.00162129 0)
(-0.0207618 0.00161033 0)
(-0.0214354 0.0015915 0)
(-0.0220975 0.00156408 0)
(-0.0227443 0.0015274 0)
(-0.0233719 0.00148083 0)
(-0.0239762 0.00142376 0)
(-0.0245528 0.00135567 0)
(-0.0250971 0.00127609 0)
(-0.0256045 0.00118466 0)
(-0.0260702 0.00108111 0)
(-0.0264893 0.000965283 0)
(-0.0268572 0.000837139 0)
(-0.0271689 0.000696789 0)
(-0.0274199 0.000544485 0)
(-0.0276056 0.000380634 0)
(-0.0277218 0.000205809 0)
(-0.0277645 2.07501e-05 0)
(-0.0277301 -0.000173627 0)
(-0.0276153 -0.000376246 0)
(-0.0274175 -0.000585859 0)
(-0.0271343 -0.000801051 0)
(-0.0267642 -0.00102026 0)
(-0.0263061 -0.00124178 0)
(-0.0257597 -0.00146378 0)
(-0.0251254 -0.00168433 0)
(-0.0244042 -0.0019014 0)
(-0.0235981 -0.00211293 0)
(-0.0227095 -0.00231679 0)
(-0.0217421 -0.00251087 0)
(-0.0206999 -0.0026931 0)
(-0.0195878 -0.00286145 0)
(-0.0184114 -0.00301398 0)
(-0.0171772 -0.00314891 0)
(-0.015892 -0.00326458 0)
(-0.0145633 -0.00335953 0)
(-0.0131992 -0.00343254 0)
(-0.011808 -0.0034826 0)
(-0.0103986 -0.00350898 0)
(-0.00898004 -0.00351124 0)
(-0.00756136 -0.00348921 0)
(-0.00615183 -0.00344304 0)
(-0.00476059 -0.00337317 0)
(-0.00339662 -0.00328036 0)
(-0.00206862 -0.00316562 0)
(-0.000784952 -0.00303025 0)
(0.000446524 -0.00287581 0)
(0.00161848 -0.00270407 0)
(0.00272424 -0.00251699 0)
(0.00375782 -0.00231667 0)
(0.00471401 -0.00210535 0)
(0.00558838 -0.00188533 0)
(0.00637739 -0.00165896 0)
(0.00707833 -0.00142856 0)
(0.00768935 -0.00119641 0)
(0.00820948 -0.000964723 0)
(0.00863856 -0.000735578 0)
(0.00897724 -0.000510911 0)
(0.00922692 -0.000292489 0)
(0.00938969 -8.18903e-05 0)
(0.0094683 0.000119509 0)
(0.00946604 0.000310534 0)
(0.00938672 0.000490212 0)
(0.00923458 0.000657758 0)
(0.00901423 0.000812558 0)
(0.00873059 0.000954138 0)
(0.00838884 0.00108213 0)
(0.0079944 0.00119623 0)
(0.00755289 0.00129614 0)
(0.00707014 0.00138151 0)
(0.00655218 0.00145188 0)
(0.00600533 0.00150661 0)
(0.00543619 0.00154479 0)
(0.00485177 0.00156517 0)
(0.00425953 0.00156615 0)
(0.00366751 0.00154568 0)
(0.00308441 0.00150128 0)
(0.00251964 0.00143013 0)
(0.00198337 0.00132926 0)
(0.00148646 0.00119589 0)
(0.00104045 0.00102821 0)
(0.000656971 0.000826524 0)
(0.000346923 0.00059502 0)
(0.000124918 0.000344405 0)
(1.91446e-05 9.81588e-05 0)
(-2.06146e-07 -3.71099e-05 0)
(-1.73694e-05 -2.04268e-05 0)
(-7.05181e-05 5.55889e-05 0)
(-0.000164275 0.000168664 0)
(-0.00030221 0.000302596 0)
(-0.000485977 0.000445209 0)
(-0.000715239 0.000587735 0)
(-0.000988243 0.000724218 0)
(-0.00130228 0.000850901 0)
(-0.00165405 0.00096572 0)
(-0.00203995 0.00106788 0)
(-0.00245632 0.00115751 0)
(-0.00289964 0.00123535 0)
(-0.00336662 0.0013026 0)
(-0.00385436 0.00136064 0)
(-0.00436034 0.001411 0)
(-0.00488244 0.00145519 0)
(-0.00541899 0.00149464 0)
(-0.00596869 0.00153069 0)
(-0.0065306 0.00156451 0)
(-0.00710412 0.00159711 0)
(-0.0076889 0.00162936 0)
(-0.00828484 0.00166193 0)
(-0.00889202 0.00169535 0)
(-0.00951066 0.00173001 0)
(-0.0101411 0.00176614 0)
(-0.0107837 0.00180387 0)
(-0.0114388 0.00184322 0)
(-0.012107 0.00188409 0)
(-0.0127885 0.00192631 0)
(-0.0134835 0.00196961 0)
(-0.0141924 0.00201364 0)
(-0.0149152 0.00205799 0)
(-0.0156518 0.00210214 0)
(-0.0164019 0.00214555 0)
(-0.017165 0.00218758 0)
(-0.0179406 0.00222754 0)
(-0.0187276 0.00226466 0)
(-0.0195249 0.00229813 0)
(-0.020331 0.00232709 0)
(-0.0211441 0.00235061 0)
(-0.0219621 0.00236775 0)
(-0.0227828 0.00237751 0)
(-0.0236033 0.00237887 0)
(-0.0244205 0.00237082 0)
(-0.0252312 0.00235232 0)
(-0.0260316 0.00232235 0)
(-0.0268176 0.00227993 0)
(-0.0275851 0.0022241 0)
(-0.0283293 0.00215398 0)
(-0.0290455 0.00206874 0)
(-0.0297285 0.00196766 0)
(-0.0303733 0.00185013 0)
(-0.0309744 0.00171566 0)
(-0.0315263 0.00156391 0)
(-0.0320235 0.00139471 0)
(-0.0324607 0.00120806 0)
(-0.0328322 0.00100417 0)
(-0.033133 0.000783433 0)
(-0.0333579 0.000546484 0)
(-0.0335022 0.000294175 0)
(-0.0335613 2.75941e-05 0)
(-0.0335313 -0.000251931 0)
(-0.0334086 -0.000542852 0)
(-0.03319 -0.000843385 0)
(-0.0328733 -0.00115152 0)
(-0.0324564 -0.00146506 0)
(-0.0319384 -0.00178161 0)
(-0.0313189 -0.0020986 0)
(-0.0305983 -0.00241333 0)
(-0.0297779 -0.002723 0)
(-0.0288596 -0.00302471 0)
(-0.0278465 -0.00331556 0)
(-0.0267422 -0.00359261 0)
(-0.0255514 -0.00385298 0)
(-0.0242795 -0.00409388 0)
(-0.0229328 -0.00431264 0)
(-0.0215181 -0.00450677 0)
(-0.0200432 -0.00467399 0)
(-0.0185163 -0.00481227 0)
(-0.0169464 -0.00491988 0)
(-0.0153427 -0.00499542 0)
(-0.0137152 -0.00503783 0)
(-0.0120737 -0.00504646 0)
(-0.0104286 -0.00502102 0)
(-0.0087902 -0.00496165 0)
(-0.00716882 -0.0048689 0)
(-0.00557462 -0.00474373 0)
(-0.00401753 -0.00458748 0)
(-0.00250711 -0.00440188 0)
(-0.00105243 -0.00418899 0)
(0.000337994 -0.0039512 0)
(0.00165631 -0.00369116 0)
(0.00289541 -0.00341174 0)
(0.00404901 -0.003116 0)
(0.0051117 -0.00280711 0)
(0.006079 -0.0024883 0)
(0.00694735 -0.00216282 0)
(0.00771418 -0.00183387 0)
(0.00837786 -0.00150454 0)
(0.00893772 -0.00117781 0)
(0.00939401 -0.000856438 0)
(0.00974783 -0.000542984 0)
(0.0100011 -0.000239755 0)
(0.0101566 5.12066e-05 0)
(0.0102176 0.000328131 0)
(0.0101883 0.000589518 0)
(0.010073 0.000834129 0)
(0.00987689 0.00106095 0)
(0.00960541 0.00126918 0)
(0.00926435 0.00145816 0)
(0.00885985 0.00162732 0)
(0.0083983 0.00177613 0)
(0.0078864 0.00190398 0)
(0.00733111 0.00201017 0)
(0.0067397 0.00209371 0)
(0.00611979 0.00215336 0)
(0.00547943 0.00218742 0)
(0.00482713 0.00219376 0)
(0.00417198 0.0021697 0)
(0.00352373 0.00211211 0)
(0.00289282 0.00201744 0)
(0.00229044 0.00188196 0)
(0.00172857 0.00170224 0)
(0.00122002 0.00147585 0)
(0.000778042 0.00120255 0)
(0.000415713 0.000885838 0)
(0.000151947 0.000535142 0)
(2.39116e-05 0.000170537 0)
(-3.03844e-06 -2.49449e-05 0)
(-3.48775e-05 2.70367e-05 0)
(-0.000117713 0.000145651 0)
(-0.000251648 0.000305662 0)
(-0.000438053 0.000488477 0)
(-0.000677334 0.000679988 0)
(-0.000968091 0.000869932 0)
(-0.00130771 0.00105127 0)
(-0.00169282 0.00121953 0)
(-0.00211958 0.00137225 0)
(-0.00258395 0.00150849 0)
(-0.00308192 0.00162844 0)
(-0.00360967 0.00173306 0)
(-0.00416366 0.00182386 0)
(-0.00474076 0.00190264 0)
(-0.00533827 0.00197131 0)
(-0.00595394 0.00203184 0)
(-0.00658594 0.00208608 0)
(-0.00723289 0.00213574 0)
(-0.00789377 0.00218236 0)
(-0.00856792 0.00222726 0)
(-0.00925496 0.00227156 0)
(-0.00995477 0.00231616 0)
(-0.0106674 0.00236175 0)
(-0.0113932 0.00240886 0)
(-0.0121323 0.0024578 0)
(-0.0128853 0.00250874 0)
(-0.0136525 0.00256172 0)
(-0.0144344 0.0026166 0)
(-0.0152314 0.00267317 0)
(-0.0160437 0.00273105 0)
(-0.0168716 0.00278978 0)
(-0.0177151 0.0028488 0)
(-0.0185741 0.00290744 0)
(-0.0194483 0.00296493 0)
(-0.0203371 0.0030204 0)
(-0.0212398 0.00307293 0)
(-0.0221552 0.00312148 0)
(-0.023082 0.00316494 0)
(-0.0240185 0.00320214 0)
(-0.0249626 0.00323184 0)
(-0.025912 0.00325274 0)
(-0.0268639 0.0032635 0)
(-0.0278152 0.00326278 0)
(-0.0287625 0.00324918 0)
(-0.0297018 0.00322134 0)
(-0.030629 0.0031779 0)
(-0.0315395 0.00311756 0)
(-0.0324284 0.00303907 0)
(-0.0332906 0.00294125 0)
(-0.0341206 0.00282306 0)
(-0.0349127 0.00268356 0)
(-0.0356611 0.00252199 0)
(-0.0363598 0.00233773 0)
(-0.0370028 0.00213039 0)
(-0.0375837 0.0018998 0)
(-0.0380967 0.001646 0)
(-0.0385357 0.00136933 0)
(-0.0388949 0.00107038 0)
(-0.0391687 0.000750034 0)
(-0.0393518 0.000409467 0)
(-0.0394393 5.01612e-05 0)
(-0.0394267 -0.000326095 0)
(-0.0393102 -0.000717223 0)
(-0.0390864 -0.00112085 0)
(-0.0387524 -0.00153431 0)
(-0.0383064 -0.00195471 0)
(-0.037747 -0.00237889 0)
(-0.0370739 -0.00280349 0)
(-0.0362872 -0.00322498 0)
(-0.0353884 -0.00363971 0)
(-0.0343796 -0.00404391 0)
(-0.0332638 -0.00443378 0)
(-0.0320449 -0.00480551 0)
(-0.0307279 -0.00515537 0)
(-0.0293184 -0.0054797 0)
(-0.0278232 -0.00577505 0)
(-0.0262497 -0.00603815 0)
(-0.024606 -0.00626602 0)
(-0.0229012 -0.00645599 0)
(-0.0211447 -0.00660578 0)
(-0.0193467 -0.00671351 0)
(-0.0175178 -0.00677774 0)
(-0.015669 -0.00679753 0)
(-0.0138113 -0.00677245 0)
(-0.0119563 -0.00670258 0)
(-0.0101153 -0.00658853 0)
(-0.00829955 -0.00643143 0)
(-0.00652011 -0.00623294 0)
(-0.00478771 -0.00599518 0)
(-0.00311263 -0.00572075 0)
(-0.00150454 -0.00541265 0)
(2.75196e-05 -0.00507426 0)
(0.00147531 -0.00470924 0)
(0.00283143 -0.00432153 0)
(0.00408941 -0.00391522 0)
(0.00524376 -0.00349451 0)
(0.00629002 -0.00306366 0)
(0.00722477 -0.00262686 0)
(0.00804564 -0.00218822 0)
(0.00875132 -0.0017517 0)
(0.00934153 -0.00132101 0)
(0.00981698 -0.000899619 0)
(0.0101793 -0.000490686 0)
(0.010431 -9.70388e-05 0)
(0.0105755 0.000278836 0)
(0.0106168 0.000634797 0)
(0.0105597 0.000969034 0)
(0.0104095 0.00128004 0)
(0.010172 0.00156656 0)
(0.00985366 0.00182757 0)
(0.0094611 0.00206215 0)
(0.00900142 0.00226944 0)
(0.00848206 0.00244855 0)
(0.00791077 0.00259843 0)
(0.00729569 0.00271777 0)
(0.00664531 0.0028049 0)
(0.00596858 0.00285769 0)
(0.00527492 0.00287346 0)
(0.00457435 0.00284895 0)
(0.00387751 0.00278032 0)
(0.00319577 0.0026633 0)
(0.00254128 0.00249338 0)
(0.00192709 0.00226629 0)
(0.00136733 0.00197867 0)
(0.000876975 0.00162913 0)
(0.00047135 0.00121954 0)
(0.000173313 0.000756674 0)
(2.74873e-05 0.000255611 0)
(-5.95554e-06 -3.35569e-06 0)
(-5.33703e-05 9.88467e-05 0)
(-0.000168001 0.00027203 0)
(-0.000345009 0.000488694 0)
(-0.000583283 0.000728344 0)
(-0.000881723 0.000975316 0)
(-0.00123764 0.00121816 0)
(-0.00164738 0.001449 0)
(-0.00210676 0.00166282 0)
(-0.00261133 0.00185691 0)
(-0.00315655 0.00203028 0)
(-0.00373803 0.00218327 0)
(-0.00435166 0.00231713 0)
(-0.00499367 0.00243373 0)
(-0.00566075 0.0025353 0)
(-0.00635005 0.00262422 0)
(-0.00705921 0.00270289 0)
(-0.00778632 0.00277362 0)
(-0.00852995 0.00283854 0)
(-0.00928904 0.00289956 0)
(-0.0100629 0.00295833 0)
(-0.0108512 0.00301623 0)
(-0.0116537 0.00307442 0)
(-0.0124706 0.00313376 0)
(-0.0133022 0.0031949 0)
(-0.0141488 0.00325827 0)
(-0.0150108 0.00332408 0)
(-0.0158888 0.00339237 0)
(-0.0167833 0.003463 0)
(-0.0176946 0.00353565 0)
(-0.0186231 0.00360988 0)
(-0.019569 0.00368509 0)
(-0.0205325 0.00376055 0)
(-0.0215132 0.00383538 0)
(-0.022511 0.0039086 0)
(-0.0235251 0.0039791 0)
(-0.0245547 0.00404565 0)
(-0.0255987 0.00410691 0)
(-0.0266554 0.00416146 0)
(-0.0277229 0.00420776 0)
(-0.0287991 0.00424421 0)
(-0.0298812 0.00426914 0)
(-0.0309661 0.00428084 0)
(-0.0320505 0.00427754 0)
(-0.0331304 0.00425749 0)
(-0.0342014 0.00421893 0)
(-0.0352591 0.00416015 0)
(-0.0362982 0.00407948 0)
(-0.0373134 0.00397536 0)
(-0.0382991 0.00384632 0)
(-0.039249 0.00369106 0)
(-0.0401571 0.00350842 0)
(-0.0410169 0.00329747 0)
(-0.0418218 0.00305749 0)
(-0.042565 0.00278803 0)
(-0.04324 0.00248893 0)
(-0.04384 0.0021603 0)
(-0.0443585 0.00180261 0)
(-0.0447891 0.00141668 0)
(-0.0451257 0.00100367 0)
(-0.0453626 0.000565111 0)
(-0.0454944 0.000102916 0)
(-0.0455161 -0.000380632 0)
(-0.0454234 -0.000882884 0)
(-0.0452126 -0.00140083 0)
(-0.0448806 -0.00193112 0)
(-0.0444251 -0.0024701 0)
(-0.0438446 -0.00301381 0)
(-0.0431383 -0.00355805 0)
(-0.0423066 -0.00409842 0)
(-0.0413505 -0.00463033 0)
(-0.040272 -0.0051491 0)
(-0.0390743 -0.00564999 0)
(-0.0377613 -0.00612824 0)
(-0.036338 -0.0065792 0)
(-0.0348104 -0.0069983 0)
(-0.0331853 -0.00738121 0)
(-0.0314705 -0.00772382 0)
(-0.0296746 -0.00802237 0)
(-0.027807 -0.0082735 0)
(-0.0258778 -0.00847426 0)
(-0.0238979 -0.00862224 0)
(-0.0218785 -0.00871555 0)
(-0.0198314 -0.00875291 0)
(-0.0177687 -0.00873363 0)
(-0.0157028 -0.0086577 0)
(-0.013646 -0.00852572 0)
(-0.0116106 -0.00833897 0)
(-0.00960904 -0.00809936 0)
(-0.00765305 -0.00780941 0)
(-0.00575414 -0.00747221 0)
(-0.00392325 -0.00709139 0)
(-0.00217061 -0.00667105 0)
(-0.000505696 -0.00621569 0)
(0.00106292 -0.00573014 0)
(0.00252762 -0.00521948 0)
(0.00388182 -0.00468894 0)
(0.00512003 -0.00414385 0)
(0.0062379 -0.0035895 0)
(0.00723221 -0.00303111 0)
(0.00810091 -0.00247371 0)
(0.00884306 -0.0019221 0)
(0.00945886 -0.00138075 0)
(0.00994955 -0.000853808 0)
(0.0103174 -0.000344999 0)
(0.0105655 0.000142349 0)
(0.0106981 0.000605331 0)
(0.0107198 0.00104145 0)
(0.0106363 0.0014486 0)
(0.0104537 0.00182497 0)
(0.0101788 0.00216907 0)
(0.00981876 0.00247954 0)
(0.00938126 0.00275515 0)
(0.00887438 0.00299461 0)
(0.00830661 0.00319651 0)
(0.00768682 0.00335915 0)
(0.00702432 0.00348045 0)
(0.00632885 0.00355779 0)
(0.00561066 0.00358797 0)
(0.0048806 0.0035671 0)
(0.00415015 0.00349068 0)
(0.00343156 0.00335364 0)
(0.0027379 0.00315059 0)
(0.00208334 0.00287624 0)
(0.00148334 0.00252595 0)
(0.00095459 0.00209666 0)
(0.000514594 0.00158783 0)
(0.0001896 0.00100266 0)
(3.00917e-05 0.000350426 0)
(-8.91883e-06 2.80157e-05 0)
(-7.24974e-05 0.000196256 0)
(-0.000220386 0.000436804 0)
(-0.000442584 0.000720448 0)
(-0.000735295 0.00102526 0)
(-0.00109572 0.00133442 0)
(-0.00151972 0.00163563 0)
(-0.00200242 0.00192044 0)
(-0.00253874 0.00218353 0)
(-0.00312348 0.00242209 0)
(-0.00375158 0.00263525 0)
(-0.00441825 0.00282359 0)
(-0.00511904 0.00298874 0)
(-0.00584999 0.00313299 0)
(-0.00660761 0.00325905 0)
(-0.00738894 0.0033698 0)
(-0.00819155 0.00346815 0)
(-0.00901351 0.00355685 0)
(-0.00985333 0.00363848 0)
(-0.01071 0.00371533 0)
(-0.0115828 0.0037894 0)
(-0.0124714 0.00386237 0)
(-0.0133757 0.00393564 0)
(-0.0142959 0.00401026 0)
(-0.0152324 0.00408703 0)
(-0.0161855 0.00416647 0)
(-0.0171559 0.00424885 0)
(-0.018144 0.00433422 0)
(-0.0191504 0.0044224 0)
(-0.0201756 0.00451302 0)
(-0.0212201 0.00460552 0)
(-0.0222841 0.00469915 0)
(-0.0233676 0.004793 0)
(-0.0244707 0.00488598 0)
(-0.0255929 0.00497686 0)
(-0.0267336 0.00506423 0)
(-0.0278918 0.00514656 0)
(-0.0290663 0.00522218 0)
(-0.0302554 0.00528928 0)