/*--------------------------------*- C++ -*----------------------------------*\
| =========                 |                                                 |
| \\      /  F ield         | OpenFOAM: The Open Source CFD Toolbox           |
|  \\    /   O peration     | Version:  2112                                  |
|   \\  /    A nd           | Website:  www.openfoam.com                      |
|    \\/     M anipulation  |                                                 |
\*---------------------------------------------------------------------------*/
FoamFile
{
    version     2.0;
    format      ascii;
    arch        "LSB;label=32;scalar=64";
    class       volScalarField;
    location    "16";
    object      p;
}
// * * * * * * * * * * * * * * * * * * * * * * * * * * * * * * * * * * * * * //

dimensions      [0 2 -2 0 0 0 0];

internalField   nonuniform List<scalar> 
16641
(
5.77093e-10
3.46635e-06
3.77732e-06
1.49383e-07
-7.61312e-06
-1.93529e-05
-3.47041e-05
-5.32422e-05
-7.45763e-05
-9.83684e-05
-0.000124354
-0.000152332
-0.00018216
-0.000213748
-0.000247042
-0.000282018
-0.000318674
-0.00035702
-0.000397068
-0.000438831
-0.000482317
-0.000527521
-0.00057443
-0.000623015
-0.00067323
-0.000725015
-0.000778293
-0.000832964
-0.000888914
-0.000946009
-0.00100409
-0.00106298
-0.00112248
-0.00118235
-0.00124235
-0.00130219
-0.00136155
-0.0014201
-0.00147744
-0.00153316
-0.00158684
-0.00163797
-0.00168606
-0.00173057
-0.00177094
-0.00180658
-0.0018369
-0.00186129
-0.00187915
-0.00188988
-0.00189292
-0.0018877
-0.00187374
-0.00185059
-0.00181788
-0.00177531
-0.00172268
-0.00165993
-0.0015871
-0.00150435
-0.00141203
-0.00131062
-0.00120077
-0.0010833
-0.000959191
-0.000829592
-0.000695834
-0.000559378
-0.000421828
-0.00028491
-0.000150451
-2.03473e-05
0.000103456
0.000219004
0.00032436
0.000417648
0.000497081
0.000561003
0.000607924
0.00063655
0.000645815
0.000634911
0.000603299
0.000550734
0.000477268
0.000383254
0.000269342
0.000136464
-1.41844e-05
-0.000181163
-0.000362828
-0.000557358
-0.000762798
-0.000977096
-0.00119815
-0.00142384
-0.00165207
-0.00188084
-0.00210819
-0.00233235
-0.00255166
-0.00276464
-0.00297
-0.00316664
-0.00335364
-0.00353028
-0.00369603
-0.00385051
-0.00399351
-0.00412496
-0.0042449
-0.00435348
-0.0044509
-0.00453744
-0.00461339
-0.00467907
-0.00473478
-0.0047808
-0.0048174
-0.00484481
-0.00486328
-0.00487306
-0.00487455
-0.00486831
-0.00485533
-0.00483725
-0.00481676
-0.0047978
-0.00478624
-3.65588e-06
-1.79147e-07
-5.14858e-07
-4.5209e-06
-1.205e-05
-2.30419e-05
-3.72804e-05
-5.44835e-05
-7.4361e-05
-9.66544e-05
-0.000121146
-0.000147658
-0.00017606
-0.000206259
-0.000238191
-0.000271819
-0.000307121
-0.000344089
-0.00038272
-0.00042301
-0.000464952
-0.000508533
-0.000553729
-0.000600504
-0.000648812
-0.000698592
-0.000749765
-0.000802238
-0.000855903
-0.00091063
-0.000966271
-0.00102266
-0.00107961
-0.00113689
-0.00119429
-0.00125152
-0.0013083
-0.0013643
-0.00141916
-0.00147251
-0.00152392
-0.00157296
-0.00161913
-0.00166195
-0.00170088
-0.00173539
-0.0017649
-0.00178886
-0.0018067
-0.00181785
-0.00182178
-0.00181798
-0.00180596
-0.00178532
-0.00175569
-0.0017168
-0.00166847
-0.00161061
-0.00154326
-0.00146659
-0.00138091
-0.00128666
-0.00118448
-0.00107512
-0.000959532
-0.000838781
-0.000714126
-0.000586961
-0.000458806
-0.0003313
-0.000206177
-8.52391e-05
2.96665e-05
0.000136682
0.000233967
0.000319738
0.000392299
0.000450076
0.000491657
0.000515816
0.000521547
0.000508084
0.000474927
0.000421849
0.000348912
0.00025646
0.000145123
1.57968e-05
-0.000130372
-0.000292008
-0.000467539
-0.000655232
-0.000853223
-0.00105956
-0.00127226
-0.00148929
-0.00170869
-0.00192854
-0.00214702
-0.00236243
-0.00257321
-0.00277797
-0.00297549
-0.00316473
-0.00334483
-0.00351509
-0.00367502
-0.00382426
-0.0039626
-0.00408996
-0.00420637
-0.00431197
-0.00440695
-0.00449156
-0.00456608
-0.00463083
-0.0046861
-0.0047322
-0.00476943
-0.00479809
-0.00481849
-0.00483099
-0.00483607
-0.00483437
-0.00482683
-0.00481488
-0.00480054
-0.00478629
-0.00477468
-4.18373e-06
-4.12821e-08
-4.07595e-07
-4.51254e-06
-1.18968e-05
-2.24727e-05
-3.6071e-05
-5.24552e-05
-7.13925e-05
-9.26708e-05
-0.000116102
-0.000141533
-0.000168845
-0.000197948
-0.000228781
-0.0002613
-0.000295476
-0.000331292
-0.000368736
-0.000407795
-0.000448458
-0.000490702
-0.000534498
-0.00057981
-0.00062659
-0.000674775
-0.000724291
-0.000775051
-0.00082695
-0.000879866
-0.000933662
-0.000988182
-0.00104325
-0.00109866
-0.00115419
-0.0012096
-0.0012646
-0.0013189
-0.00137217
-0.00142403
-0.0014741
-0.00152195
-0.00156714
-0.00160919
-0.00164759
-0.00168184
-0.00171138
-0.00173568
-0.00175419
-0.00176638
-0.00177171
-0.00176969
-0.00175985
-0.00174177
-0.00171512
-0.00167959
-0.00163501
-0.00158128
-0.00151841
-0.00144656
-0.00136601
-0.00127718
-0.00118064
-0.00107715
-0.0009676
-0.000852935
-0.000734471
-0.000613519
-0.000491543
-0.000370131
-0.000250965
-0.000135797
-2.64236e-05
7.53449e-05
0.000167716
0.000248948
0.000317384
0.00037149
0.000409883
0.000431369
0.000434963
0.00041992
0.000385754
0.000332247
0.000259463
0.000167747
5.77199e-05
-6.97358e-05
-0.000213491
-0.000372197
-0.00054431
-0.000728132
-0.000921842
-0.00112354
-0.00133126
-0.00154307
-0.00175704
-0.0019713
-0.0021841
-0.0023938
-0.0025989
-0.00279806
-0.00299011
-0.00317406
-0.00334909
-0.00351456
-0.00366998
-0.00381504
-0.00394954
-0.00407343
-0.00418674
-0.00428962
-0.00438226
-0.00446492
-0.0045379
-0.0046015
-0.00465604
-0.00470184
-0.00473923
-0.00476852
-0.00479006
-0.00480421
-0.00481144
-0.00481232
-0.00480764
-0.00479849
-0.00478635
-0.0047721
-0.00475563
-6.01132e-07
3.84636e-06
3.42292e-06
-8.04451e-07
-8.18095e-06
-1.85768e-05
-3.1815e-05
-4.76793e-05
-6.59657e-05
-8.64893e-05
-0.00010909
-0.000133636
-0.000160021
-0.000188166
-0.000218012
-0.000249518
-0.000282657
-0.000317406
-0.00035375
-0.000391674
-0.00043116
-0.000472183
-0.000514714
-0.000558716
-0.00060414
-0.000650927
-0.000699006
-0.000748297
-0.0007987
-0.000850104
-0.000902383
-0.000955392
-0.00100897
-0.00106292
-0.00111705
-0.00117113
-0.00122489
-0.00127806
-0.00133032
-0.00138133
-0.00143072
-0.00147809
-0.00152301
-0.00156502
-0.00160365
-0.00163838
-0.0016687
-0.00169407
-0.00171397
-0.00172785
-0.00173519
-0.0017355
-0.0017283
-0.00171317
-0.00168975
-0.00165774
-0.00161692
-0.00156719
-0.00150852
-0.00144104
-0.001365
-0.00128079
-0.00118894
-0.00109015
-0.000985251
-0.000875325
-0.000761475
-0.000645017
-0.000527396
-0.00041017
-0.000294995
-0.0001836
-7.77584e-05
2.07351e-05
0.000110102
0.000188613
0.00025462
0.000306596
0.000343162
0.000363126
0.000365506
0.000349558
0.000314794
0.000260998
0.000188233
9.68442e-05
-1.25492e-05
-0.000139064
-0.000281572
-0.000438726
-0.000608986
-0.000790659
-0.000981931
-0.00118091
-0.00138565
-0.00159423
-0.00180473
-0.00201534
-0.0022243
-0.00243002
-0.00263104
-0.00282604
-0.00301391
-0.00319369
-0.0033646
-0.00352604
-0.00367757
-0.00381889
-0.00394986
-0.00407044
-0.0041807
-0.00428081
-0.00437098
-0.0044515
-0.00452267
-0.00458483
-0.00463831
-0.00468345
-0.00472058
-0.00475002
-0.00477211
-0.00478718
-0.00479564
-0.00479792
-0.00479457
-0.00478637
-0.00477432
-0.00475793
-0.00473513
7.46025e-06
1.14523e-05
1.06088e-05
6.05411e-06
-1.51084e-06
-1.19153e-05
-2.49804e-05
-4.05047e-05
-5.83025e-05
-7.8216e-05
-0.000100107
-0.000123863
-0.000149398
-0.000176643
-0.000205547
-0.000236076
-0.000268205
-0.000301912
-0.000337184
-0.000374003
-0.00041235
-0.0004522
-0.000493526
-0.00053629
-0.000580447
-0.000625942
-0.000672711
-0.000720679
-0.000769757
-0.000819846
-0.000870831
-0.000922583
-0.000974953
-0.00102777
-0.00108086
-0.001134
-0.00118696
-0.00123947
-0.00129125
-0.00134197
-0.00139128
-0.0014388
-0.00148413
-0.00152681
-0.00156639
-0.00160236
-0.00163422
-0.00166144
-0.00168349
-0.00169983
-0.00170992
-0.00171325
-0.00170935
-0.00169777
-0.00167811
-0.00165005
-0.00161335
-0.00156785
-0.00151352
-0.00145044
-0.00137881
-0.00129898
-0.00121146
-0.00111692
-0.00101614
-0.000910165
-0.000800084
-0.00068719
-0.000572906
-0.000458773
-0.000346435
-0.000237615
-0.000134084
-3.76379e-05
4.99398e-05
0.000126911
0.000191618
0.000242519
0.000278223
0.000297523
0.000299423
0.000283165
0.000248251
0.000194457
0.000121841
3.07434e-05
-7.82138e-05
-0.000204144
-0.000345911
-0.000502157
-0.000671333
-0.000851733
-0.00104153
-0.00123882
-0.00144166
-0.0016481
-0.00185624
-0.00206425
-0.0022704
-0.00247311
-0.00267093
-0.00286258
-0.00304696
-0.00322315
-0.00339042
-0.0035482
-0.00369607
-0.00383381
-0.00396129
-0.00407853
-0.00418563
-0.00428279
-0.00437026
-0.00444837
-0.00451744
-0.00457783
-0.0046299
-0.00467401
-0.00471049
-0.00473966
-0.00476184
-0.00477732
-0.00478639
-0.00478937
-0.00478656
-0.00477845
-0.00476564
-0.00474653
-0.00471745
1.9975e-05
2.27953e-05
2.11366e-05
1.59912e-05
8.01564e-06
-2.60152e-06
-1.56807e-05
-3.10347e-05
-4.85004e-05
-6.79409e-05
-8.92412e-05
-0.000112312
-0.000137082
-0.000163498
-0.000191524
-0.000221132
-0.000252303
-0.000285022
-0.000319277
-0.000355053
-0.000392332
-0.000431095
-0.000471314
-0.000512955
-0.000555979
-0.000600338
-0.000645976
-0.000692826
-0.000740813
-0.000789852
-0.000839843
-0.000890672
-0.000942211
-0.000994314
-0.00104681
-0.00109952
-0.00115222
-0.00120467
-0.0012566
-0.00130772
-0.00135769
-0.00140614
-0.00145269
-0.00149689
-0.00153829
-0.00157641
-0.00161072
-0.00164071
-0.00166582
-0.00168549
-0.0016992
-0.00170638
-0.00170655
-0.00169921
-0.00168394
-0.00166038
-0.00162824
-0.00158734
-0.00153758
-0.001479
-0.00141177
-0.00133621
-0.00125277
-0.00116209
-0.00106494
-0.000962293
-0.000855259
-0.000745105
-0.00063324
-0.000521203
-0.000410639
-0.000303275
-0.000200898
-0.000105319
-1.8344e-05
5.82648e-05
0.000122822
0.000173757
0.000209647
0.000229254
0.000231554
0.000215762
0.000181359
0.000128099
5.60278e-05
-3.45217e-05
-0.00014293
-0.000268307
-0.000409505
-0.000565153
-0.00073368
-0.000913356
-0.00110233
-0.00129867
-0.00150039
-0.00170555
-0.0019122
-0.00211851
-0.00232273
-0.00252327
-0.00271868
-0.00290771
-0.00308926
-0.00326244
-0.00342655
-0.00358105
-0.00372558
-0.00385993
-0.00398404
-0.00409796
-0.00420185
-0.00429595
-0.00438056
-0.00445602
-0.00452273
-0.00458105
-0.00463139
-0.00467411
-0.00470955
-0.00473804
-0.00475986
-0.00477525
-0.00478441
-0.00478752
-0.00478467
-0.00477611
-0.00476214
-0.00474031
-0.00470567
3.66676e-05
3.77153e-05
3.48601e-05
2.88595e-05
2.0244e-05
9.20997e-06
-4.0611e-06
-1.94061e-05
-3.66845e-05
-5.57814e-05
-7.66068e-05
-9.90923e-05
-0.000123187
-0.000148857
-0.000176079
-0.000204836
-0.000235121
-0.000266927
-0.000300247
-0.00033507
-0.000371386
-0.000409178
-0.000448424
-0.000489099
-0.000531169
-0.000574597
-0.000619336
-0.000665334
-0.00071253
-0.000760854
-0.000810225
-0.000860552
-0.000911726
-0.000963624
-0.0010161
-0.00106899
-0.0011221
-0.00117522
-0.00122809
-0.00128044
-0.00133194
-0.00138226
-0.00143099
-0.00147773
-0.001522
-0.00156332
-0.00160117
-0.00163499
-0.00166423
-0.00168831
-0.00170664
-0.00171866
-0.00172382
-0.00172158
-0.00171149
-0.00169313
-0.00166616
-0.00163034
-0.00158554
-0.00153174
-0.00146907
-0.00139779
-0.00131833
-0.00123129
-0.00113741
-0.00103765
-0.000933089
-0.00082499
-0.00071476
-0.000603942
-0.000494189
-0.000387249
-0.00028493
-0.000189073
-0.000101518
-2.40671e-05
4.15519e-05
9.3723e-05
0.000130979
0.000152035
0.000155822
0.000141515
0.000108556
5.66697e-05
-1.41261e-05
-0.000103515
-0.000210887
-0.000335353
-0.000475759
-0.000630717
-0.000798635
-0.000977751
-0.00116618
-0.00136195
-0.00156304
-0.00176745
-0.00197323
-0.00217847
-0.00238143
-0.00258047
-0.00277415
-0.00296118
-0.0031405
-0.00331121
-0.00347263
-0.00362425
-0.00376575
-0.00389697
-0.00401787
-0.00412857
-0.00422927
-0.00432025
-0.00440188
-0.00447455
-0.00453868
-0.00459469
-0.004643
-0.004684
-0.00471807
-0.00474549
-0.00476654
-0.00478141
-0.00479023
-0.00479304
-0.00478977
-0.00478047
-0.00476524
-0.00474099
-0.00470187
5.71583e-05
5.59239e-05
5.15314e-05
4.44199e-05
3.49461e-05
2.3312e-05
9.68152e-06
-5.79995e-06
-2.30184e-05
-4.1887e-05
-6.23415e-05
-8.4336e-05
-0.000107844
-0.00013285
-0.000159348
-0.000187338
-0.000216825
-0.00024781
-0.000280295
-0.000314281
-0.000349764
-0.000386734
-0.000425178
-0.00046508
-0.000506418
-0.000549166
-0.000593292
-0.000638761
-0.00068553
-0.000733548
-0.000782759
-0.000833092
-0.000884464
-0.000936776
-0.00098991
-0.00104373
-0.00109805
-0.0011527
-0.00120744
-0.00126201
-0.0013161
-0.00136937
-0.00142145
-0.0014719
-0.00152027
-0.00156604
-0.00160868
-0.00164762
-0.00168226
-0.00171198
-0.00173617
-0.0017542
-0.00176548
-0.00176942
-0.00176549
-0.00175323
-0.00173224
-0.00170222
-0.00166298
-0.00161445
-0.0015567
-0.00148996
-0.0014146
-0.0013312
-0.00124048
-0.00114334
-0.00104088
-0.000934339
-0.000825128
-0.000714797
-0.000605019
-0.000497561
-0.000394267
-0.000297014
-0.000207689
-0.000128142
-6.01585e-05
-5.41254e-06
3.45669e-05
5.84339e-05
6.50585e-05
5.35576e-05
2.33184e-05
-2.59834e-05
-9.43702e-05
-0.000181558
-0.00028696
-0.000409697
-0.000548618
-0.000702326
-0.000869206
-0.00104747
-0.00123519
-0.00143035
-0.00163089
-0.00183475
-0.00203991
-0.00224445
-0.00244655
-0.00264455
-0.00283696
-0.00302249
-0.00320005
-0.00336874
-0.0035279
-0.00367702
-0.00381582
-0.00394416
-0.00406206
-0.00416968
-0.00426726
-0.00435516
-0.00443377
-0.00450354
-0.00456495
-0.00461846
-0.00466452
-0.00470356
-0.00473594
-0.004762
-0.00478196
-0.00479598
-0.00480413
-0.00480636
-0.00480246
-0.00479235
-0.00477597
-0.00474978
-0.00470733
8.10162e-05
7.70693e-05
7.0844e-05
6.23852e-05
5.18552e-05
3.94486e-05
2.53161e-05
9.57233e-06
-7.69994e-06
-2.64426e-05
-4.66193e-05
-6.82131e-05
-9.12212e-05
-0.00011565
-0.000141515
-0.000168833
-0.000197622
-0.000227899
-0.000259678
-0.000292971
-0.000327781
-0.000364113
-0.000401965
-0.000441335
-0.000482213
-0.000524591
-0.000568454
-0.000613789
-0.000660574
-0.000708783
-0.000758386
-0.000809338
-0.000861586
-0.000915058
-0.000969664
-0.00102529
-0.0010818
-0.001139
-0.00119671
-0.00125467
-0.00131258
-0.00137011
-0.00142688
-0.00148245
-0.00153636
-0.00158805
-0.00163698
-0.00168254
-0.00172407
-0.00176093
-0.00179242
-0.00181789
-0.00183665
-0.00184807
-0.00185155
-0.00184655
-0.0018326
-0.00180935
-0.00177653
-0.00173402
-0.00168183
-0.00162013
-0.00154926
-0.00146975
-0.00138228
-0.00128774
-0.0011872
-0.0010819
-0.000973251
-0.000862807
-0.00075226
-0.000643407
-0.000538126
-0.00043834
-0.000345989
-0.000262985
-0.000191178
-0.000132318
-8.80084e-05
-5.96754e-05
-4.85283e-05
-5.55281e-05
-8.13623e-05
-0.000126424
-0.000190799
-0.000274253
-0.000376241
-0.000495914
-0.000632137
-0.000783512
-0.000948416
-0.00112503
-0.0013114
-0.00150547
-0.0017051
-0.0019082
-0.00211267
-0.00231653
-0.0025179
-0.00271507
-0.00290649
-0.00309085
-0.003267
-0.00343405
-0.0035913
-0.00373829
-0.00387471
-0.00400047
-0.00411562
-0.00422035
-0.00431497
-0.00439987
-0.00447551
-0.00454238
-0.00460101
-0.00465191
-0.00469558
-0.00473247
-0.00476298
-0.00478744
-0.00480607
-0.00481901
-0.00482629
-0.00482778
-0.00482318
-0.00481232
-0.004795
-0.00476745
-0.00472282
0.000107782
0.000100764
9.24367e-05
8.24262e-05
7.06631e-05
5.7336e-05
4.25761e-05
2.64592e-05
9.0341e-06
-9.67336e-06
-2.966e-05
-5.09396e-05
-7.35354e-05
-9.748e-05
-0.000122812
-0.000149567
-0.00017778
-0.000207486
-0.000238713
-0.000271486
-0.000305823
-0.000341744
-0.000379263
-0.000418393
-0.000459144
-0.000501527
-0.000545553
-0.000591232
-0.000638569
-0.000687568
-0.000738229
-0.000790538
-0.000844474
-0.000899997
-0.000957048
-0.00101554
-0.00107536
-0.00113635
-0.00119833
-0.00126106
-0.00132425
-0.00138756
-0.00145061
-0.00151295
-0.00157408
-0.00163343
-0.0016904
-0.00174433
-0.00179452
-0.00184027
-0.00188081
-0.00191541
-0.00194332
-0.00196382
-0.00197624
-0.00197996
-0.00197443
-0.00195923
-0.001934
-0.00189856
-0.00185286
-0.001797
-0.00173128
-0.00165617
-0.00157232
-0.00148058
-0.00138201
-0.00127782
-0.00116942
-0.00105838
-0.000946401
-0.00083531
-0.000727022
-0.00062351
-0.000526772
-0.000438792
-0.000361498
-0.000296726
-0.000246175
-0.000211367
-0.000193613
-0.000193976
-0.000213242
-0.0002519
-0.00031012
-0.000387749
-0.000484308
-0.000598999
-0.000730723
-0.000878106
-0.00103953
-0.00121316
-0.00139701
-0.00158898
-0.0017869
-0.00198859
-0.00219189
-0.00239475
-0.00259521
-0.0027915
-0.00298199
-0.00316531
-0.00334027
-0.00350594
-0.0036616
-0.00380676
-0.00394114
-0.00406463
-0.00417731
-0.00427942
-0.0043713
-0.00445337
-0.00452616
-0.00459022
-0.00464611
-0.0046944
-0.00473564
-0.0047703
-0.00479883
-0.00482156
-0.00483873
-0.00485047
-0.00485676
-0.00485745
-0.00485219
-0.0048407
-0.00482275
-0.00479442
-0.00474868
0.00013698
0.000126568
0.00011591
0.000104167
9.10182e-05
7.66439e-05
6.11479e-05
4.45644e-05
2.69021e-05
8.1478e-06
-1.17309e-05
-3.27798e-05
-5.50544e-05
-7.86158e-05
-0.000103526
-0.000129843
-0.000157624
-0.000186922
-0.000217782
-0.000250245
-0.000284351
-0.000320136
-0.000357633
-0.000396876
-0.000437901
-0.000480745
-0.000525444
-0.000572041
-0.000620573
-0.00067108
-0.000723593
-0.000778139
-0.00083473
-0.000893362
-0.000954009
-0.00101661
-0.00108109
-0.0011473
-0.00121508
-0.0012842
-0.00135437
-0.00142526
-0.00149645
-0.00156748
-0.0016378
-0.00170682
-0.00177387
-0.00183825
-0.0018992
-0.00195591
-0.00200757
-0.00205334
-0.00209239
-0.00212392
-0.00214717
-0.00216142
-0.00216604
-0.0021605
-0.00214439
-0.00211743
-0.0020795
-0.00203062
-0.00197103
-0.00190114
-0.00182156
-0.00173308
-0.00163674
-0.00153372
-0.00142543
-0.00131343
-0.00119943
-0.00108529
-0.000972948
-0.000864442
-0.000761829
-0.00066717
-0.000582486
-0.000509712
-0.000450658
-0.000406966
-0.000380072
-0.000371167
-0.000381165
-0.000410681
-0.000460005
-0.000529093
-0.000617564
-0.000724702
-0.000849476
-0.000990556
-0.00114635
-0.00131503
-0.0014946
-0.00168292
-0.00187778
-0.00207693
-0.00227814
-0.00247928
-0.0026783
-0.00287333
-0.00306268
-0.00324489
-0.00341871
-0.00358314
-0.00373742
-0.00388102
-0.00401364
-0.00413517
-0.00424572
-0.00434551
-0.00443493
-0.00451445
-0.00458462
-0.00464604
-0.00469934
-0.00474513
-0.00478399
-0.00481646
-0.004843
-0.00486398
-0.00487965
-0.00489015
-0.00489545
-0.00489538
-0.00488954
-0.00487764
-0.00485939
-0.00483084
-0.00478495
0.000168109
0.000154011
0.000140818
0.000127187
0.000112523
9.69931e-05
8.06711e-05
6.35428e-05
4.55694e-05
2.66945e-05
6.84705e-06
-1.40564e-05
-3.61065e-05
-5.93938e-05
-8.40072e-05
-0.000110032
-0.000137548
-0.000166628
-0.000197341
-0.000229748
-0.00026391
-0.000299886
-0.000337734
-0.000377515
-0.000419294
-0.000463139
-0.000509122
-0.000557321
-0.000607813
-0.000660677
-0.000715986
-0.000773807
-0.000834195
-0.000897181
-0.000962776
-0.00103096
-0.00110166
-0.00117477
-0.00125014
-0.00132754
-0.00140669
-0.00148722
-0.00156871
-0.00165065
-0.00173247
-0.0018135
-0.00189304
-0.0019703
-0.00204443
-0.00211455
-0.00217976
-0.00223912
-0.00229171
-0.00233662
-0.00237298
-0.00239997
-0.00241688
-0.00242305
-0.00241798
-0.0024013
-0.00237279
-0.0023324
-0.00228028
-0.00221676
-0.00214241
-0.00205794
-0.00196435
-0.00186279
-0.00175463
-0.00164143
-0.0015249
-0.00140692
-0.00128947
-0.00117462
-0.00106451
-0.00096128
-0.000867049
-0.000783871
-0.000713684
-0.000658272
-0.000619223
-0.000597886
-0.000595339
-0.000612355
-0.000649383
-0.000706527
-0.000783543
-0.000879837
-0.000994479
-0.00112622
-0.00127352
-0.00143459
-0.00160745
-0.00178992
-0.00197977
-0.00217469
-0.00237237
-0.00257059
-0.00276721
-0.00296026
-0.00314796
-0.00332872
-0.00350122
-0.00366437
-0.00381735
-0.00395957
-0.00409069
-0.00421058
-0.00431931
-0.00441714
-0.00450445
-0.00458174
-0.0046496
-0.00470867
-0.00475962
-0.00480312
-0.00483978
-0.00487019
-0.00489485
-0.00491417
-0.00492841
-0.00493773
-0.00494213
-0.0049414
-0.00493516
-0.00492307
-0.00490486
-0.00487661
-0.00483143
0.000200638
0.000182585
0.000166671
0.000151017
0.000134729
0.000117955
0.000100735
8.29954e-05
6.46464e-05
4.55849e-05
2.56934e-05
4.84678e-06
-1.70816e-05
-4.02157e-05
-6.46758e-05
-9.05756e-05
-0.000118021
-0.000147109
-0.000177933
-0.000210581
-0.00024514
-0.000281696
-0.000320338
-0.000361159
-0.00040426
-0.000449747
-0.000497735
-0.000548343
-0.000601697
-0.000657918
-0.000717131
-0.000779447
-0.000844966
-0.000913763
-0.000985885
-0.00106134
-0.0011401
-0.00122207
-0.0013071
-0.00139496
-0.00148537
-0.00157795
-0.00167223
-0.00176767
-0.00186364
-0.00195942
-0.00205422
-0.00214716
-0.00223732
-0.00232372
-0.00240535
-0.00248115
-0.00255011
-0.00261118
-0.00266338
-0.00270579
-0.00273755
-0.00275791
-0.00276625
-0.00276208
-0.00274508
-0.00271509
-0.00267215
-0.00261653
-0.00254872
-0.0024693
-0.00237923
-0.00227963
-0.00217183
-0.00205734
-0.00193788
-0.00181533
-0.0016917
-0.00156911
-0.00144976
-0.00133588
-0.00122971
-0.00113342
-0.0010491
-0.000978707
-0.000924
-0.000886521
-0.000867547
-0.000868054
-0.00088869
-0.000929754
-0.000991186
-0.00107256
-0.00117309
-0.00129165
-0.00142681
-0.00157683
-0.00173977
-0.00191347
-0.00209567
-0.00228401
-0.00247613
-0.00266969
-0.00286248
-0.00305238
-0.00323751
-0.00341617
-0.0035869
-0.00374853
-0.00390013
-0.00404102
-0.0041708
-0.0042893
-0.00439654
-0.00449276
-0.00457834
-0.0046538
-0.00471974
-0.00477684
-0.00482579
-0.0048673
-0.00490205
-0.00493065
-0.00495366
-0.0049715
-0.00498448
-0.00499279
-0.00499643
-0.00499523
-0.00498879
-0.00497679
-0.00495894
-0.00493147
-0.00488773
0.000234
0.000211734
0.000192934
0.000175141
0.000157137
0.000139048
0.000120869
0.000102465
8.36852e-05
6.43733e-05
4.43607e-05
2.34784e-05
1.56029e-06
-2.15565e-05
-4.60265e-05
-7.19935e-05
-9.95923e-05
-0.000128951
-0.00016019
-0.000193429
-0.000228785
-0.000266377
-0.000306332
-0.000348784
-0.000393874
-0.000441757
-0.000492594
-0.000546558
-0.000603826
-0.000664575
-0.000728982
-0.000797213
-0.000869414
-0.00094571
-0.00102619
-0.00111089
-0.00119981
-0.00129288
-0.00138995
-0.0014908
-0.00159512
-0.0017025
-0.00181244
-0.00192435
-0.00203752
-0.00215117
-0.00226442
-0.0023763
-0.00248578
-0.00259177
-0.00269313
-0.0027887
-0.00287732
-0.00295781
-0.00302908
-0.00309004
-0.00313972
-0.00317722
-0.0032018
-0.00321282
-0.00320983
-0.00319257
-0.00316096
-0.00311513
-0.00305551
-0.00298246
-0.00289701
-0.00280014
-0.00269312
-0.00257743
-0.00245477
-0.002327
-0.00219616
-0.0020644
-0.00193399
-0.00180726
-0.00168655
-0.00157418
-0.0014724
-0.00138336
-0.00130902
-0.00125116
-0.00121128
-0.00119062
-0.00119005
-0.00121015
-0.00125106
-0.00131261
-0.00139419
-0.00149487
-0.00161335
-0.00174801
-0.00189699
-0.00205818
-0.0022293
-0.00240798
-0.0025918
-0.00277833
-0.00296524
-0.00315032
-0.00333152
-0.00350701
-0.00367521
-0.00383478
-0.00398468
-0.00412413
-0.00425261
-0.00436988
-0.00447591
-0.00457087
-0.00465512
-0.00472919
-0.00479366
-0.00484923
-0.00489662
-0.00493656
-0.00496978
-0.00499694
-0.0050186
-0.00503526
-0.00504726
-0.0050548
-0.00505793
-0.00505648
-0.0050501
-0.00503847
-0.00502131
-0.00499503
-0.00495331
0.000267576
0.000240861
0.000219024
0.000198989
0.000179195
0.000159733
0.000140548
0.000121434
0.000102173
8.25472e-05
6.23353e-05
4.13182e-05
1.92844e-05
-3.97003e-06
-2.86356e-05
-5.48905e-05
-8.29037e-05
-0.000112836
-0.000144844
-0.000179079
-0.000215697
-0.000254859
-0.000296735
-0.000341504
-0.000389362
-0.000440516
-0.000495187
-0.000553606
-0.000616011
-0.000682643
-0.000753738
-0.000829521
-0.000910194
-0.000995932
-0.00108687
-0.00118308
-0.00128458
-0.00139132
-0.00150316
-0.00161986
-0.00174109
-0.00186642
-0.00199528
-0.00212704
-0.0022609
-0.00239599
-0.00253134
-0.00266587
-0.00279843
-0.0029278
-0.0030527
-0.00317185
-0.00328392
-0.0033876
-0.00348163
-0.00356478
-0.00363591
-0.00369398
-0.00373807
-0.00376742
-0.0037814
-0.00377962
-0.00376184
-0.00372804
-0.00367839
-0.00361362
-0.00353419
-0.00344109
-0.00333554
-0.00321895
-0.00309298
-0.00295947
-0.00282046
-0.00267815
-0.00253486
-0.00239299
-0.00225501
-0.00212339
-0.00200056
-0.00188888
-0.00179054
-0.00170757
-0.00164176
-0.00159464
-0.00156738
-0.00156086
-0.00157553
-0.00161147
-0.00166839
-0.00174555
-0.00184188
-0.00195594
-0.00208598
-0.00222998
-0.00238572
-0.00255081
-0.00272279
-0.00289917
-0.00307751
-0.00325546
-0.00343082
-0.00360161
-0.00376606
-0.0039227
-0.0040703
-0.00420795
-0.004335
-0.00445108
-0.00455607
-0.00465008
-0.00473339
-0.00480652
-0.00487
-0.00492455
-0.00497088
-0.00500976
-0.00504193
-0.00506809
-0.00508884
-0.0051047
-0.00511607
-0.00512318
-0.00512609
-0.0051247
-0.00511866
-0.0051077
-0.00509152
-0.00506679
-0.00502759
0.000300707
0.000269315
0.000244303
0.000221941
0.000200292
0.000179413
0.000159185
0.000139321
0.000119529
9.95257e-05
7.90296e-05
5.77663e-05
3.5475e-05
1.19085e-05
-1.31642e-05
-3.99614e-05
-6.86899e-05
-9.95484e-05
-0.000132731
-0.000168433
-0.000206853
-0.000248201
-0.000292698
-0.000340582
-0.000392108
-0.000447548
-0.000507187
-0.000571328
-0.000640278
-0.000714351
-0.000793849
-0.000879062
-0.000970254
-0.00106765
-0.00117144
-0.00128173
-0.00139856
-0.00152189
-0.00165158
-0.00178739
-0.00192894
-0.00207577
-0.00222726
-0.00238267
-0.00254115
-0.00270172
-0.00286329
-0.00302465
-0.00318453
-0.00334155
-0.00349431
-0.00364132
-0.00378113
-0.00391224
-0.00403321
-0.00414265
-0.00423923
-0.00432174
-0.00438907
-0.00444028
-0.00447459
-0.00449141
-0.00449035
-0.00447125
-0.00443413
-0.00437944
-0.00430767
-0.00421966
-0.00411651
-0.00399955
-0.00387038
-0.00373079
-0.00358283
-0.00342869
-0.00327074
-0.00311148
-0.00295347
-0.00279935
-0.00265173
-0.00251318
-0.00238616
-0.00227299
-0.00217578
-0.00209636
-0.00203631
-0.00199682
-0.00197873
-0.00198248
-0.0020081
-0.00205518
-0.00212292
-0.00221012
-0.00231523
-0.00243638
-0.00257144
-0.00271806
-0.00287377
-0.00303603
-0.00320229
-0.00337008
-0.00353704
-0.003701
-0.00386002
-0.0040124
-0.00415675
-0.00429195
-0.00441718
-0.00453193
-0.00463594
-0.00472921
-0.00481195
-0.00488453
-0.00494752
-0.00500158
-0.00504743
-0.00508581
-0.00511749
-0.00514317
-0.00516352
-0.00517907
-0.00519025
-0.00519732
-0.0052004
-0.0051994
-0.00519402
-0.00518401
-0.00516912
-0.00514624
-0.0051099
0.000332677
0.000296391
0.000268078
0.000243312
0.00021976
0.000197427
0.000176126
0.000155476
0.000135105
0.000114656
9.37808e-05
7.21452e-05
4.94362e-05
2.53583e-05
-3.65532e-07
-2.7997e-05
-5.77853e-05
-8.99725e-05
-0.000124799
-0.000162507
-0.00020335
-0.000247593
-0.00029552
-0.000347435
-0.000403662
-0.000464547
-0.000530457
-0.000601771
-0.000678878
-0.000762167
-0.000852021
-0.0009488
-0.00105284
-0.00116441
-0.00128376
-0.00141103
-0.00154628
-0.00168949
-0.00184051
-0.00199907
-0.00216477
-0.00233708
-0.00251532
-0.00269866
-0.00288615
-0.00307669
-0.00326906
-0.00346192
-0.00365383
-0.00384326
-0.00402862
-0.00420827
-0.00438054
-0.00454376
-0.00469629
-0.00483653
-0.00496296
-0.00507415
-0.00516882
-0.0052458
-0.00530413
-0.00534301
-0.00536188
-0.00536038
-0.00533841
-0.00529615
-0.00523402
-0.0051527
-0.00505315
-0.00493663
-0.00480461
-0.00465886
-0.00450136
-0.00433432
-0.00416014
-0.00398137
-0.00380069
-0.00362086
-0.0034447
-0.00327499
-0.00311449
-0.00296579
-0.00283137
-0.00271344
-0.00261397
-0.00253458
-0.00247655
-0.00244073
-0.00242757
-0.00243708
-0.0024688
-0.00252188
-0.00259502
-0.00268659
-0.0027946
-0.00291682
-0.00305082
-0.00319402
-0.0033438
-0.00349756
-0.0036528
-0.00380712
-0.00395839
-0.00410468
-0.00424434
-0.00437606
-0.0044988
-0.00461182
-0.00471472
-0.00480731
-0.00488969
-0.00496214
-0.00502513
-0.00507925
-0.00512519
-0.00516369
-0.00519549
-0.00522133
-0.00524185
-0.00525764
-0.00526913
-0.00527665
-0.00528031
-0.00528008
-0.00527571
-0.00526696
-0.00525361
-0.00523282
-0.00519961
0.00036271
0.000321324
0.000289595
0.000262364
0.000236869
0.000213055
0.000190652
0.000169182
0.000148181
0.000127209
0.000105846
8.36956e-05
6.03859e-05
3.55679e-05
8.91393e-06
-1.98849e-05
-5.11265e-05
-8.51034e-05
-0.000122109
-0.000162441
-0.000206416
-0.000254365
-0.000306644
-0.000363633
-0.00042574
-0.000493396
-0.000567056
-0.000647191
-0.000734279
-0.000828799
-0.000931216
-0.00104197
-0.00116147
-0.00129005
-0.001428
-0.0015755
-0.00173264
-0.00189939
-0.00207561
-0.00226098
-0.00245507
-0.00265727
-0.00286682
-0.0030828
-0.00330413
-0.00352958
-0.00375778
-0.00398724
-0.00421633
-0.00444334
-0.00466649
-0.00488392
-0.00509377
-0.00529414
-0.00548317
-0.00565905
-0.00582002
-0.00596445
-0.0060908
-0.00619772
-0.006284
-0.00634865
-0.00639089
-0.00641016
-0.00640618
-0.00637894
-0.00632866
-0.00625588
-0.00616144
-0.00604642
-0.00591222
-0.00576051
-0.00559322
-0.00541252
-0.00522082
-0.0050207
-0.00481495
-0.00460645
-0.00439818
-0.00419316
-0.0039944
-0.00380485
-0.00362732
-0.00346445
-0.00331865
-0.00319202
-0.00308631
-0.00300292
-0.00294277
-0.00290636
-0.00289372
-0.00290439
-0.00293747
-0.00299162
-0.00306511
-0.00315589
-0.00326161
-0.00337974
-0.00350761
-0.00364253
-0.00378181
-0.0039229
-0.00406338
-0.00420108
-0.00433411
-0.00446085
-0.00458001
-0.00469061
-0.00479199
-0.0048838
-0.00496593
-0.00503852
-0.00510193
-0.00515664
-0.00520328
-0.00524253
-0.00527512
-0.00530176
-0.0053231
-0.00533973
-0.00535212
-0.0053606
-0.00536532
-0.00536629
-0.00536328
-0.0053561
-0.00534453
-0.00532603
-0.00529609
0.00038997
0.000343292
0.000308045
0.000278296
0.000250824
0.000225506
0.000201979
0.000179653
0.000157962
0.000136378
0.000114405
9.15758e-05
6.74547e-05
4.16348e-05
1.37333e-05
-1.66128e-05
-4.97562e-05
-8.60469e-05
-0.000125839
-0.000169498
-0.00021741
-0.000269985
-0.000327662
-0.00039091
-0.00046023
-0.000536155
-0.000619238
-0.000710052
-0.000809176
-0.000917186
-0.00103464
-0.00116207
-0.00129995
-0.00144869
-0.00160861
-0.00177996
-0.00196282
-0.00215717
-0.00236284
-0.00257949
-0.00280662
-0.00304353
-0.00328938
-0.00354312
-0.00380354
-0.00406925
-0.00433871
-0.00461024
-0.00488201
-0.00515211
-0.00541853
-0.00567919
-0.00593199
-0.00617479
-0.00640548
-0.00662202
-0.0068224
-0.00700474
-0.00716728
-0.00730842
-0.00742671
-0.00752095
-0.00759012
-0.00763347
-0.00765049
-0.00764097
-0.00760496
-0.00754282
-0.00745521
-0.00734307
-0.00720767