/*--------------------------------*- C++ -*----------------------------------*\
| =========                 |                                                 |
| \\      /  F ield         | OpenFOAM: The Open Source CFD Toolbox           |
|  \\    /   O peration     | Version:  2112                                  |
|   \\  /    A nd           | Website:  www.openfoam.com                      |
|    \\/     M anipulation  |                                                 |
\*---------------------------------------------------------------------------*/
FoamFile
{
    version     2.0;
    format      ascii;
    arch        "LSB;label=32;scalar=64";
    class       surfaceScalarField;
    location    "16";
    object      phi;
}
// * * * * * * * * * * * * * * * * * * * * * * * * * * * * * * * * * * * * * //

dimensions      [0 3 -1 0 0 0 0];

oriented        oriented;

internalField   nonuniform List<scalar> 
33024
(
3.26114e-09
-3.26195e-09
1.70376e-08
-1.37761e-08
3.71511e-08
-2.01138e-08
5.92077e-08
-2.20561e-08
8.02472e-08
-2.10397e-08
9.84561e-08
-1.82085e-08
1.12819e-07
-1.43637e-08
1.22865e-07
-1.00451e-08
1.28465e-07
-5.60091e-09
1.29703e-07
-1.23698e-09
1.26765e-07
2.93803e-09
1.19884e-07
6.88043e-09
1.0929e-07
1.05948e-08
9.51755e-08
1.41139e-08
7.76855e-08
1.74897e-08
5.69018e-08
2.07837e-08
3.28419e-08
2.40597e-08
5.46138e-09
2.73805e-08
-2.53426e-08
3.08041e-08
-5.97235e-08
3.43808e-08
-9.78769e-08
3.81535e-08
-1.40033e-07
4.21561e-08
-1.86447e-07
4.64138e-08
-2.37391e-07
5.09445e-08
-2.9315e-07
5.57587e-08
-3.5401e-07
6.08597e-08
-4.20256e-07
6.62457e-08
-4.92166e-07
7.19103e-08
-5.70008e-07
7.78422e-08
-6.54034e-07
8.40261e-08
-7.44478e-07
9.04435e-08
-8.4155e-07
9.7072e-08
-9.45434e-07
1.03885e-07
-1.05629e-06
1.10851e-07
-1.17422e-06
1.17936e-07
-1.29932e-06
1.25099e-07
-1.43161e-06
1.32293e-07
-1.57108e-06
1.39466e-07
-1.71764e-06
1.46558e-07
-1.87114e-06
1.53504e-07
-2.03137e-06
1.6023e-07
-2.19803e-06
1.66656e-07
-2.37072e-06
1.72694e-07
-2.54897e-06
1.78251e-07
-2.7322e-06
1.83227e-07
-2.91972e-06
1.87516e-07
-3.11073e-06
1.9101e-07
-3.30433e-06
1.93597e-07
-3.49949e-06
1.95164e-07
-3.69508e-06
1.95596e-07
-3.88987e-06
1.94782e-07
-4.08248e-06
1.92616e-07
-4.27148e-06
1.88996e-07
-4.45531e-06
1.83829e-07
-4.63234e-06
1.77032e-07
-4.80087e-06
1.68535e-07
-4.95916e-06
1.58286e-07
-5.10541e-06
1.46246e-07
-5.23781e-06
1.324e-07
-5.35456e-06
1.16753e-07
-5.45389e-06
9.93334e-08
-5.53409e-06
8.01969e-08
-5.59351e-06
5.94252e-08
-5.63065e-06
3.7133e-08
-5.64411e-06
1.34685e-08
-5.63266e-06
-1.14589e-08
-5.59527e-06
-3.73881e-08
-5.53114e-06
-6.41265e-08
-5.43972e-06
-9.14248e-08
-5.3207e-06
-1.19015e-07
-5.17409e-06
-1.46609e-07
-5.00019e-06
-1.73901e-07
-4.79961e-06
-2.00577e-07
-4.5733e-06
-2.26312e-07
-4.32252e-06
-2.50781e-07
-4.04886e-06
-2.73665e-07
-3.75421e-06
-2.94651e-07
-3.44076e-06
-3.13446e-07
-3.11098e-06
-3.29779e-07
-2.76757e-06
-3.43406e-07
-2.41345e-06
-3.5412e-07
-2.0517e-06
-3.61753e-07
-1.68552e-06
-3.66182e-07
-1.31819e-06
-3.67331e-07
-9.53009e-07
-3.65179e-07
-5.93257e-07
-3.59752e-07
-2.42121e-07
-3.51135e-07
9.73408e-08
-3.39462e-07
4.22259e-07
-3.24918e-07
7.29987e-07
-3.07729e-07
1.01815e-06
-2.88167e-07
1.28469e-06
-2.66539e-07
1.52787e-06
-2.43176e-07
1.7463e-06
-2.18432e-07
1.93897e-06
-1.92672e-07
2.10524e-06
-1.66263e-07
2.24481e-06
-1.3957e-07
2.35775e-06
-1.12942e-07
2.44446e-06
-8.67114e-08
2.50564e-06
-6.11824e-08
2.54227e-06
-3.6628e-08
2.55556e-06
-1.32851e-08
2.54691e-06
8.64858e-09
2.51789e-06
2.90154e-08
2.47019e-06
4.76999e-08
2.40556e-06
6.46268e-08
2.3258e-06
7.97599e-08
2.23271e-06
9.30987e-08
2.12803e-06
1.04675e-07
2.01348e-06
1.14548e-07
1.89069e-06
1.22797e-07
1.76117e-06
1.29517e-07
1.62636e-06
1.34809e-07
1.48759e-06
1.38771e-07
1.3461e-06
1.41489e-07
1.20308e-06
1.43024e-07
1.05968e-06
1.434e-07
9.17091e-07
1.42587e-07
7.76603e-07
1.40487e-07
6.39687e-07
1.36916e-07
5.08104e-07
1.31583e-07
3.84027e-07
1.24077e-07
2.70175e-07
1.13852e-07
1.69928e-07
1.00246e-07
8.73753e-08
8.25532e-08
2.7089e-08
6.02863e-08
-6.74213e-09
3.38309e-08
-1.29934e-08
6.2507e-09
-1.29938e-08
1.38345e-08
-1.7096e-08
4.61821e-08
-4.61244e-08
8.84072e-08
-6.2339e-08
1.33143e-07
-6.67925e-08
1.74724e-07
-6.26194e-08
2.09207e-07
-5.26932e-08
2.34113e-07
-3.92679e-08
2.48063e-07
-2.39954e-08
2.50468e-07
-8.0063e-09
2.4126e-07
7.97141e-09
2.20671e-07
2.35268e-08
1.89083e-07
3.84689e-08
1.46907e-07
5.27701e-08
9.45069e-08
6.65145e-08
3.214e-08
7.98571e-08
-4.00694e-08
9.29929e-08
-1.22144e-07
1.06134e-07
-2.14253e-07
1.19491e-07
-3.1671e-07
1.33261e-07
-4.29949e-07
1.4762e-07
-5.54511e-07
1.62717e-07
-6.91026e-07
1.78671e-07
-8.40183e-07
1.95571e-07
-1.00272e-06
2.13479e-07
-1.17939e-06
2.32429e-07
-1.37096e-06
2.5243e-07
-1.57818e-06
2.73469e-07
-1.80179e-06
2.95514e-07
-2.04246e-06
3.18515e-07
-2.30084e-06
3.42405e-07
-2.57749e-06
3.671e-07
-2.87292e-06
3.92502e-07
-3.18754e-06
4.18497e-07
-3.52164e-06
4.4495e-07
-3.87541e-06
4.71711e-07
-4.24892e-06
4.98608e-07
-4.64207e-06
5.25448e-07
-5.05462e-06
5.52015e-07
-5.48613e-06
5.78068e-07
-5.93597e-06
6.03343e-07
-6.40329e-06
6.27551e-07
-6.88701e-06
6.50379e-07
-7.38581e-06
6.71491e-07
-7.89809e-06
6.90531e-07
-8.42199e-06
7.07125e-07
-8.95536e-06
7.20885e-07
-9.49576e-06
7.31415e-07
-1.00405e-05
7.38312e-07
-1.05865e-05
7.41173e-07
-1.11305e-05
7.39604e-07
-1.16689e-05
7.33225e-07
-1.2198e-05
7.21677e-07
-1.27136e-05
7.0463e-07
-1.32116e-05
6.81789e-07
-1.36875e-05
6.52904e-07
-1.41367e-05
6.1778e-07
-1.45547e-05
5.76278e-07
-1.49368e-05
5.28329e-07
-1.52783e-05
4.73937e-07
-1.55748e-05
4.13186e-07
-1.58217e-05
3.46244e-07
-1.60148e-05
2.73371e-07
-1.61503e-05
1.94917e-07
-1.62245e-05
1.11333e-07
-1.62343e-05
2.32325e-08
-1.61768e-05
-6.89736e-08
-1.60498e-05
-1.64378e-07
-1.58517e-05
-2.62205e-07
-1.55815e-05
-3.6159e-07
-1.5239e-05
-4.61583e-07
-1.48244e-05
-5.61178e-07
-1.4339e-05
-6.59321e-07
-1.37846e-05
-7.54928e-07
-1.3164e-05
-8.46901e-07
-1.24807e-05
-9.34145e-07
-1.17388e-05
-1.01558e-06
-1.09432e-05
-1.09018e-06
-1.00997e-05
-1.15695e-06
-9.2145e-06
-1.21501e-06
-8.29435e-06
-1.26355e-06
-7.34659e-06
-1.30188e-06
-6.37889e-06
-1.32946e-06
-5.39921e-06
-1.34586e-06
-4.41569e-06
-1.35085e-06
-3.43654e-06
-1.34433e-06
-2.4699e-06
-1.32639e-06
-1.52374e-06
-1.2973e-06
-6.05734e-07
-1.25747e-06
2.76863e-07
-1.20751e-06
1.1173e-06
-1.14817e-06
1.90945e-06
-1.08031e-06
2.64786e-06
-1.00495e-06
3.32788e-06
-9.23194e-07
3.94566e-06
-8.36209e-07
4.49821e-06
-7.45223e-07
4.98343e-06
-6.51486e-07
5.4001e-06
-5.56239e-07
5.74786e-06
-4.60698e-07
6.02716e-06
-3.66021e-07
6.23927e-06
-2.73291e-07
6.38614e-06
-1.83494e-07
6.47036e-06
-9.75043e-08
6.49508e-06
-1.60709e-08
6.4639e-06
6.01882e-08
6.38081e-06
1.30795e-07
6.25003e-06
1.95405e-07
6.07598e-06
2.53809e-07
5.86316e-06
3.05922e-07
5.61606e-06
3.51769e-07
5.33914e-06
3.91476e-07
5.03669e-06
4.25242e-07
4.71288e-06
4.53322e-07
4.37169e-06
4.75999e-07
4.01692e-06
4.93548e-07
3.6522e-06
5.06207e-07
3.28109e-06
5.14133e-07
2.90713e-06
5.17364e-07
2.53395e-06
5.15765e-07
2.16545e-06
5.0899e-07
1.80594e-06
4.96427e-07
1.46035e-06
4.77168e-07
1.13444e-06
4.49989e-07
8.34909e-07
4.13382e-07
5.69471e-07
3.65685e-07
3.46593e-07
3.05431e-07
1.74711e-07
2.32168e-07
6.05722e-08
1.4797e-07
6.35929e-09
6.04641e-08
-6.63453e-09
2.0434e-08
-3.75302e-08
6.28191e-08
-8.8509e-08
1.15001e-07
-1.14521e-07
1.67806e-07
-1.19597e-07
2.14227e-07
-1.09041e-07
2.49249e-07
-8.77146e-08
2.69559e-07
-5.95781e-08
2.73195e-07
-2.76313e-08
2.59197e-07
5.99174e-09
2.27294e-07
3.98739e-08
1.77644e-07
7.31772e-08
1.10621e-07
1.05492e-07
2.66601e-08
1.36731e-07
-7.38594e-08
1.67034e-07
-1.90692e-07
1.96689e-07
-3.23771e-07
2.26072e-07
-4.73235e-07
2.55598e-07
-6.39428e-07
2.85684e-07
-8.22894e-07
3.16726e-07
-1.02435e-06
3.49077e-07
-1.24467e-06
3.83036e-07
-1.48484e-06
4.18844e-07
-1.74595e-06
4.5668e-07
-2.02914e-06
4.96664e-07
-2.33557e-06
5.38857e-07
-2.6664e-06
5.83267e-07
-3.02279e-06
6.29856e-07
-3.40581e-06
6.78538e-07
-3.81649e-06
7.2919e-07
-4.25573e-06
7.81647e-07
-4.72434e-06
8.35709e-07
-5.22298e-06
8.9114e-07
-5.75214e-06
9.47662e-07
-6.31215e-06
1.00496e-06
-6.90313e-06
1.06269e-06
-7.52495e-06
1.12043e-06
-8.17725e-06
1.17775e-06
-8.85937e-06
1.23414e-06
-9.57038e-06
1.28907e-06
-1.0309e-05
1.34193e-06
-1.10735e-05
1.39209e-06
-1.1862e-05
1.43886e-06
-1.2672e-05
1.4815e-06
-1.35007e-05
1.51924e-06
-1.43449e-05
1.55129e-06
-1.52008e-05
1.57682e-06
-1.60644e-05
1.59502e-06
-1.69311e-05
1.60504e-06
-1.7796e-05
1.60607e-06
-1.86537e-05
1.59732e-06
-1.94986e-05
1.57805e-06
-2.03244e-05
1.54755e-06
-2.1125e-05
1.50521e-06
-2.18937e-05
1.45049e-06
-2.26238e-05
1.38297e-06
-2.33083e-05
1.30232e-06
-2.39404e-05
1.20836e-06
-2.45131e-05
1.10106e-06
-2.50197e-05
9.80534e-07
-2.54536e-05
8.47057e-07
-2.58085e-05
7.01089e-07
-2.60783e-05
5.43265e-07
-2.62578e-05
3.744e-07
-2.6342e-05
1.95476e-07
-2.63267e-05
7.99298e-09
-2.62082e-05
-1.87523e-07
-2.59838e-05
-3.8874e-07
-2.56517e-05
-5.94284e-07
-2.5211e-05
-8.02328e-07
-2.46617e-05
-1.01094e-06
-2.40047e-05
-1.21808e-06
-2.32424e-05
-1.42165e-06
-2.23778e-05
-1.6195e-06
-2.14153e-05
-1.80945e-06
-2.03601e-05
-1.98936e-06
-1.92185e-05
-2.15712e-06
-1.7998e-05
-2.31072e-06
-1.67067e-05
-2.44825e-06
-1.53537e-05
-2.56797e-06
-1.3949e-05
-2.66833e-06
-1.25028e-05
-2.748e-06
-1.10264e-05
-2.8059e-06
-9.53104e-06
-2.84122e-06
-8.02842e-06
-2.85347e-06
-6.53028e-06
-2.84246e-06
-5.04833e-06
-2.80834e-06
-3.59405e-06
-2.75157e-06
-2.17856e-06
-2.67296e-06
-8.12452e-07
-2.57362e-06
4.94351e-07
-2.45497e-06
1.73272e-06
-2.31869e-06
2.89446e-06
-2.16669e-06
3.9724e-06
-2.00113e-06
4.96046e-06
-1.82427e-06
5.85376e-06
-1.63852e-06
6.64863e-06
-1.44635e-06
7.34261e-06
-1.25023e-06
7.93451e-06
-1.05259e-06
8.42428e-06
-8.55792e-07
8.81304e-06
-6.62053e-07
9.10297e-06
-4.73425e-07
9.29722e-06
-2.91756e-07
9.39981e-06
-1.18659e-07
9.4155e-06
4.45e-08
9.34967e-06
1.96625e-07
9.20819e-06
3.36883e-07
8.99729e-06
4.64707e-07
8.72344e-06
5.79777e-07
8.3932e-06
6.82006e-07
8.01317e-06
7.71505e-07
7.58987e-06
8.48547e-07
7.12967e-06
9.13522e-07
6.63878e-06
9.66884e-07
6.12324e-06
1.00909e-06
5.58892e-06
1.04053e-06
5.04162e-06
1.06144e-06
4.48713e-06
1.07184e-06
3.93144e-06
1.07146e-06
3.38084e-06
1.05959e-06
2.84216e-06
1.03511e-06
2.32297e-06
9.96357e-07
1.83177e-06
9.4119e-07
1.37807e-06
8.67082e-07
9.72328e-07
7.71422e-07
6.25575e-07
6.52185e-07
3.48508e-07
5.09235e-07
1.49974e-07
3.46504e-07
3.46097e-08
1.75829e-07
2.79753e-08
2.25186e-08
-6.00486e-08
6.71803e-08
-1.33171e-07
1.19369e-07
-1.66709e-07
1.68658e-07
-1.68886e-07
2.07336e-07
-1.47718e-07
2.29909e-07
-1.10289e-07
2.32708e-07
-6.23764e-08
2.13494e-07
-8.41699e-09
1.71107e-07
4.83781e-08
1.05134e-07
1.05847e-07
1.56396e-08
1.62672e-07
-9.70725e-08
2.18204e-07
-2.32633e-07
2.72292e-07
-3.90742e-07
3.25143e-07
-5.71258e-07
3.77205e-07
-7.74255e-07
4.2907e-07
-1.00005e-06
4.81396e-07
-1.24922e-06
5.34852e-07
-1.52257e-06
5.90069e-07
-1.8211e-06
6.47615e-07
-2.14604e-06
7.07968e-07
-2.4987e-06
7.71512e-07
-2.88055e-06
8.38528e-07
-3.29308e-06
9.09197e-07
-3.73783e-06
9.83601e-07
-4.21629e-06
1.06173e-06
-4.72994e-06
1.1435e-06
-5.28014e-06
1.22874e-06
-5.86814e-06
1.31719e-06
-6.49505e-06
1.40856e-06
-7.1618e-06
1.50245e-06
-7.86909e-06
1.59843e-06
-8.61741e-06
1.69598e-06
-9.40696e-06
1.79451e-06
-1.02376e-05
1.89337e-06
-1.1109e-05
1.99181e-06
-1.20203e-05
2.08903e-06
-1.29703e-05
2.18414e-06
-1.39574e-05
2.27615e-06
-1.49795e-05
2.36402e-06
-1.6034e-05
2.44661e-06
-1.71178e-05
2.52272e-06
-1.82274e-05
2.59109e-06
-1.93586e-05
2.65041e-06
-2.05067e-05
2.69933e-06
-2.16663e-05
2.73648e-06
-2.28318e-05
2.7605e-06
-2.39968e-05
2.77003e-06
-2.51545e-05
2.76375e-06
-2.62976e-05
2.74042e-06
-2.74184e-05
2.69887e-06
-2.85089e-05
2.63805e-06
-2.95607e-05
2.55704e-06
-3.05653e-05
2.4551e-06
-3.1514e-05
2.33164e-06
-3.2398e-05
2.1863e-06
-3.32085e-05
2.01894e-06
-3.39371e-05
1.82966e-06
-3.45754e-05
1.61881e-06
-3.51154e-05
1.38702e-06
-3.55495e-05
1.13519e-06
-3.58707e-05
8.64523e-07
-3.60728e-05
5.76481e-07
-3.61502e-05
2.7283e-07
-3.60979e-05
-4.42837e-08
-3.59124e-05
-3.72998e-07
-3.55908e-05
-7.10354e-07
-3.51314e-05
-1.05373e-06
-3.45335e-05
-1.40019e-06
-3.37978e-05
-1.7466e-06
-3.29262e-05
-2.08973e-06
-3.19216e-05
-2.42621e-06
-3.07885e-05
-2.75265e-06
-2.95323e-05
-3.06563e-06
-2.81599e-05
-3.36179e-06
-2.66792e-05
-3.63782e-06
-2.50993e-05
-3.8906e-06
-2.34304e-05
-4.11715e-06
-2.16836e-05
-4.31478e-06
-1.98709e-05
-4.48105e-06
-1.8005e-05
-4.61389e-06
-1.60993e-05
-4.71161e-06
-1.41675e-05
-4.77293e-06
-1.2224e-05
-4.79705e-06
-1.02828e-05
-4.78362e-06
-8.35835e-06
-4.73281e-06
-6.46462e-06
-4.6453e-06
-4.61533e-06
-4.52226e-06
-2.82359e-06
-4.36536e-06
-1.10184e-06
-4.17673e-06
5.38408e-07
-3.95893e-06
2.08663e-06
-3.71491e-06
3.53347e-06
-3.44796e-06
4.87083e-06
-3.16163e-06
6.09198e-06
-2.85968e-06
7.1916e-06
-2.54597e-06
8.16582e-06
-2.22445e-06
9.01226e-06
-1.89902e-06
9.72995e-06
-1.57349e-06
1.03194e-05
-1.25148e-06
1.07823e-05
-9.3639e-07
1.11219e-05
-6.3132e-07
1.13423e-05
-3.39022e-07
1.14486e-05
-6.18729e-08
1.14471e-05
1.98157e-07
1.13445e-05
4.39513e-07
1.11481e-05
6.61055e-07
1.08659e-05
8.62046e-07
1.05058e-05
1.04212e-06
1.0076e-05
1.20122e-06
9.58498e-06
1.33961e-06
9.0408e-06
1.4577e-06
8.45163e-06
1.55605e-06
7.82547e-06
1.63525e-06
7.17021e-06
1.69579e-06
6.49369e-06
1.73796e-06
5.8038e-06
1.76173e-06
5.10862e-06
1.76664e-06
4.41658e-06
1.75163e-06
3.73668e-06
1.71501e-06
3.07864e-06
1.6544e-06
2.45306e-06
1.56677e-06
1.8715e-06
1.44864e-06
1.34637e-06
1.29655e-06
8.90606e-07
1.10795e-06
5.17048e-07
8.82792e-07
2.37588e-07
6.25964e-07
6.23084e-08
3.51108e-07
9.02836e-08
2.13058e-08
-8.13545e-08
6.16005e-08
-1.73465e-07
1.05206e-07
-2.10315e-07
1.41091e-07
-2.0477e-07
1.61298e-07
-1.67926e-07
1.60252e-07
-1.09243e-07
1.34249e-07
-3.63723e-08
8.10226e-08
4.48088e-08
-6.25483e-10
1.30026e-07
-1.11155e-07
2.16377e-07
-2.50574e-07
3.02091e-07
-4.18662e-07
3.86293e-07
-6.15162e-07
4.68792e-07
-8.39911e-07
5.49892e-07
-1.09294e-06
6.30233e-07
-1.37453e-06
7.10657e-07
-1.68523e-06
7.92101e-07
-2.02589e-06
8.75514e-07
-2.39762e-06
9.61794e-07
-2.80175e-06
1.05174e-06
-3.23981e-06
1.14603e-06
-3.7135e-06
1.2452e-06
-4.22461e-06
1.34963e-06
-4.77497e-06
1.45956e-06
-5.36644e-06
1.57507e-06
-6.00082e-06
1.69611e-06
-6.67983e-06
1.82251e-06
-7.40505e-06
1.95395e-06
-8.17789e-06
2.09004e-06
-8.99957e-06
2.23024e-06
-9.87103e-06
2.37392e-06
-1.07929e-05
2.52035e-06
-1.17657e-05
2.66868e-06
-1.27891e-05
2.81798e-06
-1.38629e-05
2.96716e-06
-1.49862e-05
3.11505e-06
-1.61575e-05
3.26037e-06
-1.7375e-05
3.40169e-06
-1.86364e-05
3.53748e-06
-1.99385e-05
3.66611e-06
-2.12777e-05
3.78584e-06
-2.26498e-05
3.89484e-06
-2.40499e-05
3.99119e-06
-2.54724e-05
4.07293e-06
-2.69112e-05
4.13808e-06
-2.83593e-05
4.18462e-06
-2.98094e-05
4.21057e-06
-3.12534e-05
4.214e-06
-3.26827e-05
4.19307e-06
-3.40883e-05
4.14605e-06
-3.54608e-05
4.07136e-06
-3.67904e-05
3.96762e-06
-3.8067e-05
3.83367e-06
-3.92805e-05
3.66859e-06
-4.04206e-05
3.47175e-06
-4.14772e-05
3.24284e-06
-4.24401e-05
2.98188e-06
-4.32997e-05
2.68923e-06
-4.40465e-05
2.36564e-06
-4.46717e-05
2.01224e-06
-4.51671e-05
1.63053e-06
-4.55249e-05
1.22242e-06
-4.57387e-05
7.90206e-07
-4.58024e-05
3.36565e-07
-4.57112e-05
-1.35457e-07
-4.54616e-05
-6.22678e-07
-4.50507e-05
-1.1212e-06
-4.44773e-05
-1.62712e-06
-4.37413e-05
-2.13623e-06
-4.28438e-05
-2.6441e-06
-4.17873e-05
-3.14615e-06
-4.05759e-05
-3.63769e-06
-3.92145e-05
-4.11397e-06
-3.77099e-05
-4.57025e-06
-3.60699e-05
-5.00184e-06
-3.43035e-05
-5.40419e-06
-3.24211e-05
-5.77296e-06
-3.04342e-05
-6.10406e-06
-2.83553e-05
-6.39372e-06
-2.61977e-05
-6.63861e-06
-2.39758e-05
-6.8358e-06
-2.17045e-05
-6.98293e-06
-1.93993e-05
-7.07817e-06
-1.7076e-05
-7.12034e-06
-1.47507e-05
-7.10888e-06
-1.24396e-05
-7.04393e-06
-1.01586e-05
-6.92631e-06
-7.92334e-06
-6.75751e-06
-5.74897e-06
-6.53973e-06
-3.64989e-06
-6.2758e-06
-1.63967e-06
-5.96916e-06
2.69209e-07
-5.62379e-06
2.06543e-06
-5.24419e-06
3.739e-06
-4.83521e-06
5.28139e-06
-4.40206e-06
6.68556e-06
-3.95014e-06
7.94609e-06
-3.48498e-06
9.05917e-06
-3.01211e-06
1.00226e-05
-2.53696e-06
1.08359e-05
-2.06477e-06
1.15e-05
-1.6005e-06
1.20174e-05
-1.14872e-06
1.2392e-05
-7.13574e-07
1.26288e-05
-2.98685e-07
1.27341e-05
9.28601e-08
1.27151e-05
4.58549e-07
1.25797e-05
7.96442e-07
1.23366e-05
1.10516e-06
1.19948e-05
1.38387e-06
1.15638e-05
1.6322e-06
1.10533e-05
1.85017e-06
1.04728e-05
2.03814e-06
9.83223e-06
2.19665e-06
9.14118e-06
2.3263e-06
8.40934e-06
2.42763e-06
7.64638e-06
2.50092e-06
6.86206e-06
2.54606e-06
6.06633e-06
2.56237e-06
5.2695e-06
2.54845e-06
4.48241e-06
2.50211e-06
3.71655e-06
2.42026e-06
2.98426e-06
2.29906e-06
2.29873e-06
2.13417e-06
1.67401e-06
1.92127e-06
1.12487e-06
1.6571e-06
6.66569e-07
1.34109e-06
3.14806e-07
9.77727e-07
8.60607e-08
5.79853e-07
1.76344e-07
1.77176e-08
-9.90716e-08
4.82185e-08
-2.03967e-07
7.59281e-08
-2.38023e-07
8.98767e-08
-2.18719e-07
8.22928e-08
-1.60342e-07
4.78355e-08
-7.47851e-08
-1.69762e-08
2.84392e-08
-1.14233e-07
1.42066e-07
-2.45028e-07
2.60821e-07
-4.09779e-07
3.81128e-07
-6.08511e-07
5.00823e-07
-8.41084e-07
6.18865e-07
-1.10737e-06
7.35076e-07
-1.40738e-06
8.49902e-07
-1.74136e-06
9.64218e-07
-2.10986e-06
1.07915e-06
-2.51371e-06
1.19595e-06
-2.95407e-06
1.31588e-06
-3.43238e-06
1.4401e-06
-3.95033e-06
1.56969e-06
-4.5098e-06
1.7055e-06
-5.11282e-06
1.84823e-06
-5.76152e-06
1.99834e-06
-6.45807e-06
2.1561e-06
-7.20458e-06
2.32159e-06
-8.00312e-06
2.49466e-06
-8.85562e-06
2.675e-06
-9.76379e-06
2.86213e-06
-1.07292e-05
3.05541e-06
-1.17529e-05
3.25401e-06
-1.2836e-05
3.457e-06
-1.39789e-05
3.66324e-06
-1.51817e-05
3.87149e-06
-1.64441e-05
4.08031e-06
-1.7765e-05
4.28814e-06
-1.91432e-05
4.49324e-06
-2.05766e-05
4.69371e-06
-2.20624e-05
4.8875e-06
-2.35973e-05
5.07242e-06
-2.51773e-05
5.24612e-06
-2.67976e-05
5.40615e-06
-2.84527e-05
5.54993e-06
-3.01363e-05
5.67481e-06
-3.18415e-05
5.77811e-06
-3.35606e-05
5.85711e-06
-3.52851e-05
5.90912e-06
-3.7006e-05
5.9315e-06
-3.87137e-05
5.92175e-06
-4.03981e-05
5.87747e-06
-4.20486e-05
5.79651e-06
-4.36541e-05
5.67691e-06
-4.52035e-05
5.51703e-06
-4.66854e-05
5.31553e-06
-4.80883e-05
5.07145e-06
-4.94007e-05
4.78422e-06
-5.06116e-05
4.4537e-06
-5.17099e-05
4.08019e-06
-5.26852e-05
3.66448e-06
-5.35273e-05
3.20783e-06
-5.42271e-05
2.71202e-06
-5.47759e-05
2.17929e-06
-5.51659e-05
1.61239e-06
-5.53902e-05
1.01456e-06
-5.54431e-05
3.89503e-07
-5.53199e-05
-2.58674e-07
-5.50171e-05
-9.2552e-07
-5.45323e-05
-1.60599e-06
-5.38646e-05
-2.29486e-06
-5.30142e-05
-2.98659e-06
-5.19829e-05
-3.67543e-06
-5.07736e-05
-4.35539e-06
-4.93909e-05
-5.02041e-06
-4.78405e-05
-5.66436e-06
-4.61297e-05
-6.28111e-06
-4.42669e-05
-6.86466e-06
-4.22619e-05
-7.40916e-06
-4.01258e-05
-7.909e-06
-3.7871e-05
-8.35893e-06
-3.55106e-05
-8.75408e-06
-3.30591e-05
-9.0901e-06
-3.05317e-05
-9.36321e-06
-2.79444e-05
-9.57025e-06
-2.53137e-05
-9.70881e-06
-2.26569e-05
-9.7772e-06
-1.99912e-05
-9.77459e-06
-1.73341e-05
-9.70097e-06
-1.47032e-05
-9.55723e-06
-1.21156e-05
-9.34512e-06
-9.58806e-06
-9.06726e-06
-7.13674e-06
-8.72713e-06
-4.77692e-06
-8.32897e-06
-2.52292e-06
-7.87779e-06
-3.87864e-07
-7.37924e-06
1.61644e-06
-6.83952e-06
3.47966e-06
-6.26527e-06
5.19301e-06
-5.66349e-06
6.74939e-06
-5.04137e-06
8.14343e-06
-4.40615e-06
9.3715e-06
-3.76502e-06
1.04317e-05
-3.125e-06
1.1324e-05
-2.49275e-06
1.20498e-05
-1.87453e-06
1.26123e-05
-1.27605e-06
1.3016e-05
-7.02422e-07
1.32669e-05
-1.58069e-07
1.33722e-05
3.53305e-07
1.33399e-05
8.28734e-07
1.31791e-05
1.26598e-06
1.28994e-05
1.66351e-06
1.25112e-05
2.02042e-06
1.2025e-05
2.33635e-06
1.14518e-05
2.6114e-06
1.08025e-05
2.84595e-06
1.00882e-05
3.04051e-06
9.32031e-06
3.19555e-06
8.50995e-06
3.31128e-06
7.66854e-06
3.38746e-06
6.80772e-06
3.42319e-06
5.93943e-06
3.41674e-06
5.07612e-06
3.36542e-06
4.23083e-06
3.26554e-06
3.41739e-06
3.1125e-06
2.65049e-06
2.90108e-06
1.94576e-06
2.626e-06
1.31988e-06
2.28297e-06
7.90813e-07
1.87015e-06
3.78299e-07
1.39024e-06
1.05057e-07
8.53094e-07
2.81401e-07
1.23708e-08
-1.11443e-07
2.86872e-08
-2.20283e-07
3.43102e-08
-2.43647e-07
1.89372e-08
-2.03346e-07
-2.46175e-08
-1.16787e-07
-1.01168e-07
1.76451e-09
-2.13741e-07
1.41013e-07
-3.64085e-07
2.9241e-07
-5.5305e-07
4.49786e-07
-7.80925e-07
6.09003e-07
-1.0477e-06
7.67601e-07
-1.3533e-06
9.24464e-07
-1.69772e-06
1.0795e-06
-2.08119e-06
1.23337e-06
-2.5042e-06
1.38722e-06
-2.96758e-06
1.54254e-06
-3.47251e-06
1.70089e-06
-4.02051e-06
1.86387e-06
-4.61337e-06
2.03296e-06
-5.25314e-06
2.20946e-06
-5.94209e-06
2.39445e-06
-6.68259e-06
2.58873e-06
-7.47711e-06
2.79285e-06
-8.32808e-06
3.00708e-06
-9.2379e-06
3.23141e-06
-1.02088e-05
3.4656e-06
-1.1243e-05
3.70913e-06
-1.23421e-05
3.96128e-06
-1.35078e-05
4.22109e-06
-1.47412e-05
4.48739e-06
-1.6043e-05
4.7588e-06
-1.74135e-05
5.03375e-06
-1.88525e-05
5.31044e-06
-2.0359e-05
5.58689e-06
-2.19318e-05
5.86088e-06
-2.35685e-05
6.13001e-06
-2.52665e-05
6.39169e-06
-2.70221e-05
6.6431e-06
-2.8831e-05
6.88126e-06
-3.06879e-05
7.10304e-06
-3.25869e-05
7.30516e-06
-3.45212e-05
7.48422e-06
-3.64832e-05
7.63678e-06
-3.84644e-05
7.75935e-06
-4.04558e-05
7.84846e-06
-4.24474e-05
7.90073e-06
-4.44287e-05
7.91288e-06
-4.63888e-05
7.88181e-06
-4.8316e-05
7.80469e-06
-5.01984e-05
7.67893e-06
-5.20239e-05
7.50232e-06
-5.37799e-05
7.27303e-06
-5.5454e-05
6.98968e-06
-5.70339e-05
6.65137e-06
-5.85074e-05
6.2577e-06
-5.98625e-05
5.80884e-06
-6.10879e-05
5.30552e-06
-6.21724e-05
4.74906e-06
-6.3106e-05
4.14137e-06
-6.38789e-05
3.48496e-06
-6.44826e-05
2.78294e-06
-6.49092e-05
2.03899e-06
-6.5152e-05
1.25734e-06
-6.52053e-05
4.42811e-07
-6.50646e-05
-3.99386e-07
-6.47265e-05
-1.26353e-06
-6.41892e-05
-2.14336e-06
-6.34517e-05
-3.03235e-06
-6.25146e-05
-3.92362e-06
-6.138e-05
-4.81005e-06
-6.00511e-05
-5.68431e-06
-5.85326e-05
-6.53892e-06
-5.68306e-05
-7.36639e-06
-5.49525e-05
-8.15921e-06
-5.29071e-05
-8.91003e-06
-5.07046e-05
-9.61167e-06
-4.83563e-05
-1.02573e-05
-4.5875e-05
-1.08403e-05
-4.32743e-05
-1.13548e-05
-4.05691e-05
-1.17953e-05
-3.77752e-05
-1.21571e-05
-3.49093e-05
-1.24362e-05
-3.19887e-05
-1.26294e-05
-2.90315e-05
-1.27344e-05
-2.60559e-05
-1.27501e-05
-2.30807e-05
-1.26762e-05
-2.01245e-05
-1.25135e-05
-1.72058e-05
-1.22638e-05
-1.43428e-05
-1.19302e-05
-1.15532e-05
-1.15167e-05
-8.85406e-06
-1.10281e-05
-6.26128e-06
-1.04706e-05
-3.78978e-06
-9.85073e-06
-1.4532e-06
-9.1761e-06
7.36322e-07
-8.45479e-06
2.7682e-06
-7.69537e-06
4.63356e-06
-6.90672e-06
6.3253e-06
-6.09789e-06
7.83818e-06
-5.27791e-06
9.16884e-06
-4.45565e-06
1.03157e-05
-3.63966e-06
1.12792e-05
-2.83802e-06
1.20614e-05
-2.05822e-06
1.2666e-05
-1.30703e-06
1.30984e-05
-5.90424e-07
1.33652e-05
8.64703e-08
1.34745e-05
7.19442e-07
1.34353e-05
1.30516e-06
1.32577e-05
1.84117e-06
1.29522e-05
2.32583e-06
1.25304e-05
2.75819e-06
1.20039e-05
3.1379e-06
1.13848e-05
3.46502e-06
1.06855e-05
3.73983e-06
9.91848e-06
3.9626e-06
9.09636e-06
4.13341e-06
8.23201e-06
4.25181e-06
7.33854e-06
4.31667e-06
6.42935e-06
4.32592e-06
5.51834e-06
4.27643e-06
4.61998e-06
4.16391e-06
3.74947e-06
3.98301e-06
2.92294e-06
3.7276e-06
2.15766e-06
3.39128e-06
1.47234e-06
2.96829e-06
8.87674e-07
2.45482e-06
4.27294e-07
1.85062e-06
1.19373e-07
1.16101e-06
4.00775e-07
5.67513e-09
-1.17117e-07
4.19418e-09
-2.18802e-07
-1.75259e-08
-2.21927e-07
-6.86542e-08
-1.52217e-07
-1.55417e-07
-3.00251e-08
-2.81812e-07
1.2816e-07
-4.5022e-07
3.09421e-07
-6.61876e-07
5.04066e-07
-9.17273e-07
7.05183e-07
-1.21649e-06
9.08215e-07
-1.55943e-06
1.11054e-06
-1.94605e-06
1.31108e-06
-2.37649e-06
1.50994e-06
-2.85118e-06
1.70806e-06
-3.37091e-06
1.90695e-06
-3.93684e-06
2.10847e-06
-4.55052e-06
2.31456e-06
-5.21383e-06
2.52718e-06
-5.92898e-06
2.74811e-06
-6.69842e-06
2.9789e-06
-7.52477e-06
3.2208e-06
-8.41077e-06
3.47473e-06
-9.35919e-06
3.74127e-06
-1.03728e-05
4.02066e-06
-1.14541e-05
4.31276e-06
-1.26057e-05
4.61715e-06
-1.38296e-05
4.93306e-06
-1.51278e-05
5.25944e-06
-1.65016e-05
5.59494e-06
-1.79522e-05
5.93795e-06
-1.948e-05
6.28658e-06
-2.10849e-05
6.63867e-06
-2.27662e-05
6.9918e-06
-2.45227e-05
7.3433e-06
-2.6352e-05
7.69023e-06
-2.82514e-05
8.02941e-06
-3.02171e-05
8.3574e-06
-3.22446e-05
8.67056e-06
-3.43283e-05
8.96502e-06
-3.64621e-05
9.23675e-06
-3.86385e-05
9.48159e-06
-4.08495e-05
9.69527e-06
-4.30863e-05
9.87349e-06
-4.53389e-05
1.0012e-05
-4.75968e-05
1.01064e-05
-4.9849e-05
1.01529e-05
-5.20835e-05
1.01474e-05
-5.4288e-05
1.00864e-05
-5.64499e-05
9.96654e-06
-5.8556e-05
9.78507e-06
-6.05932e-05
9.53955e-06
-6.25483e-05
9.22809e-06
-6.4408e-05
8.84937e-06
-6.61593e-05
8.40268e-06
-6.77895e-05
7.88793e-06
-6.92864e-05
7.30571e-06
-7.06382e-05
6.65728e-06
-7.18337e-05
5.94459e-06
-7.28626e-05
5.1703e-06
-7.37154e-05
4.33772e-06
-7.43833e-05
3.45087e-06
-7.48587e-05
2.51439e-06
-7.51349e-05
1.53357e-06
-7.52064e-05
5.14317e-07
-7.50688e-05
-5.37018e-07
-7.47188e-05
-1.6135e-06
-7.41545e-05
-2.70764e-06
-7.33753e-05
-3.81163e-06
-7.23816e-05
-4.91731e-06
-7.11754e-05
-6.01622e-06
-6.976e-05
-7.09968e-06
-6.81401e-05
-8.15887e-06
-6.63216e-05
-9.18489e-06
-6.43119e-05
-1.01689e-05
-6.21197e-05
-1.11022e-05
-5.97552e-05
-1.19762e-05
-5.72296e-05
-1.27828e-05
-5.45558e-05
-1.35141e-05
-5.17475e-05
-1.41631e-05
-4.88199e-05
-1.4723e-05
-4.5789e-05
-1.5188e-05
-4.26718e-05
-1.55533e-05
-3.94865e-05
-1.58147e-05
-3.62514e-05
-1.59695e-05
-3.2986e-05
-1.60156e-05
-2.97097e-05
-1.59525e-05
-2.64422e-05
-1.57809e-05
-2.32035e-05
-1.55025e-05
-2.00131e-05
-1.51206e-05
-1.68903e-05
-1.46396e-05
-1.38534e-05
-1.4065e-05
-1.09204e-05
-1.34036e-05
-8.10786e-06
-1.26633e-05
-5.4313e-06
-1.18527e-05
-2.90474e-06
-1.09813e-05
-5.40668e-07
-1.00594e-05
1.65018e-06
-9.09757e-06
3.65887e-06
-8.10658e-06
5.4784e-06
-7.09744e-06
7.10373e-06
-6.08098e-06
8.5318e-06
-5.06773e-06
9.76155e-06
-4.06777e-06
1.07938e-05
-3.09049e-06
1.16313e-05
-2.14453e-06
1.22785e-05
-1.23762e-06
1.27415e-05
-3.76499e-07
1.30278e-05
4.33129e-07
1.31463e-05
1.18663e-06
1.31071e-05
1.88042e-06
1.2921e-05
2.51186e-06
1.26e-05
3.07924e-06
1.21563e-05
3.58155e-06
1.1603e-05
4.01834e-06
1.09533e-05
4.38951e-06
1.02209e-05
4.69504e-06
9.41958e-06
4.93471e-06
8.56353e-06
5.10785e-06
7.66716e-06
5.21304e-06
6.74523e-06
5.24786e-06
5.81295e-06
5.20871e-06
4.88613e-06
5.09073e-06
3.98134e-06
4.8878e-06
3.11616e-06
4.59277e-06
2.30952e-06
4.19792e-06
1.58215e-06
3.69567e-06
9.57365e-07
3.0796e-06
4.62251e-07
2.34573e-06
1.29378e-07
1.49389e-06
5.30153e-07
-2.12426e-09
-1.14993e-07
-2.44051e-08
-1.96521e-07
-7.80211e-08
-1.68311e-07
-1.70566e-07
-5.96729e-08
-3.06977e-07
1.06386e-07
-4.90199e-07
3.11382e-07
-7.21754e-07
5.40976e-07
-1.00222e-06
7.84533e-07
-1.33163e-06
1.03459e-06
-1.70977e-06
1.28635e-06
-2.13641e-06
1.53719e-06
-2.61154e-06
1.78621e-06
-3.13542e-06
2.03382e-06
-3.70871e-06
2.28135e-06
-4.33251e-06
2.53075e-06
-5.00834e-06
2.7843e-06
-5.73815e-06
3.04437e-06
-6.52423e-06
3.31327e-06
-7.36922e-06
3.5931e-06
-8.27598e-06
3.88565e-06
-9.24751e-06
4.19233e-06
-1.02869e-05
4.51413e-06
-1.13972e-05
4.85162e-06
-1.25815e-05
5.20493e-06
-1.38425e-05
5.57379e-06
-1.51829e-05
5.95747e-06
-1.66047e-05
6.35491e-06
-1.81099e-05
6.76463e-06
-1.96998e-05
7.18481e-06
-2.13751e-05
7.6133e-06
-2.31361e-05
8.04758e-06
-2.49823e-05
8.48482e-06
-2.69124e-05
8.92188e-06
-2.89243e-05
9.35527e-06
-3.10153e-05
9.78123e-06
-3.31816e-05
1.01957e-05
-3.54184e-05
1.05943e-05
-3.77202e-05
1.09724e-05
-4.00805e-05
1.13252e-05
-4.24915e-05
1.16478e-05
-4.4945e-05
1.19351e-05
-4.74315e-05
1.21818e-05
-4.99408e-05
1.23828e-05
-5.24618e-05
1.2533e-05
-5.49828e-05
1.26274e-05
-5.74914e-05
1.26614e-05
-5.99746e-05
1.26306e-05
-6.24191e-05
1.25309e-05
-6.48112e-05
1.23587e-05
-6.71371e-05
1.2111e-05
-6.93829e-05
1.17853e-05
-7.15346e-05
1.13798e-05
-7.35786e-05
1.08934e-05
-7.55016e-05
1.03257e-05
-7.72906e-05
9.67689e-06
-7.89331e-05
8.9482e-06
-8.04173e-05
8.14146e-06
-8.1732e-05
7.25932e-06
-8.28669e-05
6.30521e-06
-8.38125e-05
5.2833e-06
-8.45601e-05
4.19851e-06
-8.51022e-05
3.05647e-06
-8.54321e-05
1.86347e-06
-8.55443e-05
6.26503e-07
-8.54343e-05
-6.46993e-07
-8.50989e-05
-1.94894e-06
-8.45359e-05
-3.27064e-06
-8.37444e-05
-4.6031e-06
-8.27248e-05
-5.93689e-06
-8.14788e-05
-7.26228e-06
-8.00092e-05
-8.56927e-06
-7.83203e-05
-9.84773e-06
-7.64178e-05
-1.10874e-05
-7.43086e-05
-1.22781e-05
-7.20011e-05
-1.34097e-05
-6.95051e-05
-1.44723e-05
-6.68316e-05
-1.54563e-05
-6.3993e-05
-1.63527e-05
-6.10032e-05
-1.71528e-05
-5.78772e-05
-1.7849e-05
-5.46312e-05
-1.84341e-05
-5.12824e-05
-1.8902e-05
-4.78493e-05
-1.92479e-05
-4.4351e-05
-1.94678e-05
-4.08074e-05
-1.95592e-05
-3.72389e-05
-1.9521e-05
-3.36666e-05
-1.93533e-05
-3.01112e-05
-1.90579e-05
-2.65939e-05
-1.86379e-05
-2.31355e-05
-1.80981e-05
-1.9756e-05
-1.74445e-05
-1.6475e-05
-1.66845e-05
-1.33112e-05
-1.58271e-05
-1.0282e-05
-1.48819e-05
-7.40325e-06
-1.38601e-05
-4.68958e-06
-1.27731e-05
-2.15371e-06
-1.16334e-05
1.9348e-07
-1.04538e-05
2.3431e-06
-9.24705e-06
4.28828e-06
-8.02616e-06
6.0243e-06
-6.80375e-06
7.54851e-06
-5.59198e-06
8.86037e-06
-4.40235e-06
9.96139e-06
-3.24554e-06
1.0855e-05
-2.13121e-06
1.15464e-05
-1.06793e-06
1.20427e-05
-6.31134e-08
1.23522e-05
8.77111e-07
1.24848e-05
1.74776e-06
1.24517e-05
2.54503e-06
1.22647e-05
3.26619e-06
1.19369e-05
3.9094e-06
1.14817e-05
4.47353e-06
1.09133e-05
4.95791e-06
1.02463e-05
5.36208e-06
9.49552e-06
5.68545e-06
8.67636e-06
5.92701e-06
7.8044e-06
6.085e-06
6.89565e-06
6.15661e-06
5.96658e-06
6.13778e-06
5.03431e-06
6.023e-06
4.11677e-06
5.80535e-06
3.23299e-06
5.47656e-06
2.40353e-06
5.02738e-06
1.65108e-06
4.44812e-06
1.00131e-06
3.72936e-06
4.84169e-07
2.86288e-06
1.35514e-07
1.84254e-06
6.65667e-07
-1.08486e-08
-1.04144e-07
-5.65723e-08
-1.50797e-07
-1.4607e-07
-7.88131e-08
-2.8506e-07
7.93173e-08
-4.7691e-07
2.98236e-07
-7.23271e-07
5.57742e-07
-1.02463e-06
8.42332e-07
-1.38077e-06
1.14067e-06
-1.79115e-06
1.44498e-06
-2.25522e-06
1.75042e-06
-2.77259e-06
2.05456e-06
-3.34322e-06
2.35684e-06
-3.96752e-06
2.65812e-06
-4.64639e-06
2.96022e-06
-5.38125e-06
3.26562e-06
-6.17403e-06