/*--------------------------------*- C++ -*----------------------------------*\
| =========                 |                                                 |
| \\      /  F ield         | OpenFOAM: The Open Source CFD Toolbox           |
|  \\    /   O peration     | Version:  2112                                  |
|   \\  /    A nd           | Website:  www.openfoam.com                      |
|    \\/     M anipulation  |                                                 |
\*---------------------------------------------------------------------------*/
FoamFile
{
    version     2.0;
    format      ascii;
    arch        "LSB;label=32;scalar=64";
    class       volVectorField;
    location    "16";
    object      U;
}
// * * * * * * * * * * * * * * * * * * * * * * * * * * * * * * * * * * * * * //

dimensions      [0 1 -1 0 0 0 0];

internalField   nonuniform List<vector> 
16641
(
(4.85279e-07 -5.28326e-07 0)
(1.06592e-05 -6.1375e-06 0)
(3.38849e-05 -9.69543e-06 0)
(6.21105e-05 -1.08733e-05 0)
(9.05242e-05 -1.05326e-05 0)
(0.000116229 -9.34429e-06 0)
(0.000137462 -7.73737e-06 0)
(0.000153309 -5.97631e-06 0)
(0.000163424 -4.21718e-06 0)
(0.000167811 -2.54283e-06 0)
(0.000166666 -9.91019e-07 0)
(0.000160277 4.29751e-07 0)
(0.000148953 1.72885e-06 0)
(0.000132974 2.92574e-06 0)
(0.000112562 4.04667e-06 0)
(8.7865e-05 5.1207e-06 0)
(5.89487e-05 6.17647e-06 0)
(2.57944e-05 7.24119e-06 0)
(-1.16943e-05 8.33963e-06 0)
(-5.36846e-05 9.49255e-06 0)
(-0.000100404 1.07175e-05 0)
(-0.00015213 1.20285e-05 0)
(-0.000209177 1.34353e-05 0)
(-0.000271889 1.49454e-05 0)
(-0.000340627 1.65637e-05 0)
(-0.00041576 1.82918e-05 0)
(-0.000497659 2.01296e-05 0)
(-0.000586689 2.20763e-05 0)
(-0.000683203 2.41292e-05 0)
(-0.000787538 2.62842e-05 0)
(-0.000900008 2.85365e-05 0)
(-0.0010209 3.08805e-05 0)
(-0.00115047 3.33089e-05 0)
(-0.00128894 3.58133e-05 0)
(-0.00143649 3.83843e-05 0)
(-0.00159324 4.101e-05 0)
(-0.00175927 4.36762e-05 0)
(-0.00193458 4.63673e-05 0)
(-0.00211912 4.90648e-05 0)
(-0.00231273 5.17469e-05 0)
(-0.00251519 5.43889e-05 0)
(-0.00272615 5.69634e-05 0)
(-0.00294518 5.94401e-05 0)
(-0.00317172 6.17851e-05 0)
(-0.00340508 6.39615e-05 0)
(-0.00364446 6.59298e-05 0)
(-0.00388888 6.76485e-05 0)
(-0.00413726 6.90737e-05 0)
(-0.00438836 7.01597e-05 0)
(-0.00464077 7.08598e-05 0)
(-0.00489297 7.11268e-05 0)
(-0.00514327 7.09144e-05 0)
(-0.00538987 7.01774e-05 0)
(-0.00563083 6.88723e-05 0)
(-0.00586409 6.69588e-05 0)
(-0.0060875 6.44005e-05 0)
(-0.00629882 6.11668e-05 0)
(-0.00649578 5.72329e-05 0)
(-0.00667603 5.25816e-05 0)
(-0.00683725 4.72039e-05 0)
(-0.00697713 4.11003e-05 0)
(-0.00709341 3.42817e-05 0)
(-0.00718391 2.67708e-05 0)
(-0.00724659 1.86066e-05 0)
(-0.00727959 9.84129e-06 0)
(-0.00728119 5.08057e-07 0)
(-0.00724993 -9.30943e-06 0)
(-0.00718462 -1.95193e-05 0)
(-0.00708439 -3.00266e-05 0)
(-0.00694867 -4.07244e-05 0)
(-0.00677727 -5.1495e-05 0)
(-0.00657038 -6.22122e-05 0)
(-0.0063286 -7.2743e-05 0)
(-0.00605291 -8.29497e-05 0)
(-0.00574476 -9.26925e-05 0)
(-0.00540597 -0.000101832 0)
(-0.0050388 -0.000110233 0)
(-0.0046459 -0.000117766 0)
(-0.00423026 -0.00012431 0)
(-0.00379524 -0.000129757 0)
(-0.00334447 -0.000134017 0)
(-0.00288183 -0.000137013 0)
(-0.00241137 -0.000138691 0)
(-0.00193731 -0.000139018 0)
(-0.00146389 -0.000137986 0)
(-0.000995376 -0.000135607 0)
(-0.000535947 -0.000131921 0)
(-8.96475e-05 -0.00012699 0)
(0.000339683 -0.000120897 0)
(0.000748475 -0.000113744 0)
(0.00113349 -0.000105655 0)
(0.00149184 -9.67646e-05 0)
(0.00182108 -8.72201e-05 0)
(0.00211919 -7.71759e-05 0)
(0.00238463 -6.679e-05 0)
(0.00261631 -5.622e-05 0)
(0.00281364 -4.56196e-05 0)
(0.00297647 -3.51345e-05 0)
(0.00310513 -2.49001e-05 0)
(0.00320031 -1.50383e-05 0)
(0.00326311 -5.65551e-06 0)
(0.00329495 3.15891e-06 0)
(0.00329753 1.13336e-05 0)
(0.00327278 1.88156e-05 0)
(0.00322282 2.55704e-05 0)
(0.00314986 3.15805e-05 0)
(0.00305621 3.68453e-05 0)
(0.0029442 4.1379e-05 0)
(0.00281612 4.52089e-05 0)
(0.00267423 4.83729e-05 0)
(0.00252066 5.09175e-05 0)
(0.00235747 5.28942e-05 0)
(0.00218655 5.4357e-05 0)
(0.00200969 5.53579e-05 0)
(0.00182853 5.59431e-05 0)
(0.00164464 5.61479e-05 0)
(0.00145952 5.59902e-05 0)
(0.00127465 5.54642e-05 0)
(0.00109163 5.45314e-05 0)
(0.000912193 5.31103e-05 0)
(0.00073841 5.10637e-05 0)
(0.000572787 4.81837e-05 0)
(0.000418456 4.41751e-05 0)
(0.000279349 3.8642e-05 0)
(0.000160336 3.11055e-05 0)
(6.7121e-05 2.11319e-05 0)
(5.56144e-06 8.73274e-06 0)
(-1.97944e-05 -4.4955e-06 0)
(-1.14965e-05 -1.15094e-05 0)
(6.13532e-06 -1.06645e-05 0)
(3.42245e-05 -3.41325e-05 0)
(8.47843e-05 -4.79741e-05 0)
(0.000143162 -5.22606e-05 0)
(0.000200285 -4.97514e-05 0)
(0.000250294 -4.29022e-05 0)
(0.000289184 -3.35365e-05 0)
(0.000314548 -2.29332e-05 0)
(0.000325202 -1.19355e-05 0)
(0.000320795 -1.06013e-06 0)
(0.000301487 9.40788e-06 0)
(0.000267716 1.9352e-05 0)
(0.000220026 2.87687e-05 0)
(0.000158935 3.77306e-05 0)
(8.48566e-05 4.63585e-05 0)
(-1.95517e-06 5.47984e-05 0)
(-0.000101432 6.32053e-05 0)
(-0.000213701 7.17319e-05 0)
(-0.000339075 8.05194e-05 0)
(-0.000478042 8.96928e-05 0)
(-0.000631238 9.93574e-05 0)
(-0.000799424 0.000109597 0)
(-0.000983456 0.000120475 0)
(-0.00118426 0.000132036 0)
(-0.00140281 0.000144305 0)
(-0.00164009 0.000157291 0)
(-0.00189708 0.000170989 0)
(-0.00217474 0.00018538 0)
(-0.00247399 0.000200436 0)
(-0.00279569 0.000216118 0)
(-0.00314063 0.000232376 0)
(-0.00350949 0.000249151 0)
(-0.00390286 0.000266373 0)
(-0.00432121 0.000283964 0)
(-0.00476486 0.00030183 0)
(-0.00523398 0.000319866 0)
(-0.00572854 0.000337952 0)
(-0.00624835 0.000355952 0)
(-0.00679295 0.000373715 0)
(-0.00736167 0.000391071 0)
(-0.00795356 0.000407833 0)
(-0.00856739 0.000423796 0)
(-0.00920159 0.000438741 0)
(-0.0098543 0.000452429 0)
(-0.0105233 0.000464609 0)
(-0.011206 0.000475019 0)
(-0.0118994 0.000483385 0)
(-0.0126002 0.000489429 0)
(-0.0133047 0.000492869 0)
(-0.0140089 0.000493425 0)
(-0.0147083 0.000490822 0)
(-0.015398 0.000484799 0)
(-0.0160732 0.000475108 0)
(-0.0167283 0.000461525 0)
(-0.0173578 0.000443853 0)
(-0.017956 0.000421927 0)
(-0.0185168 0.000395623 0)
(-0.0190343 0.000364861 0)
(-0.0195024 0.000329612 0)
(-0.0199153 0.000289901 0)
(-0.0202671 0.000245812 0)
(-0.0205522 0.000197494 0)
(-0.0207653 0.000145162 0)
(-0.0209016 8.91072e-05 0)
(-0.0209567 2.96867e-05 0)
(-0.0209266 -3.27442e-05 0)
(-0.0208081 -9.76284e-05 0)
(-0.0205988 -0.000164423 0)
(-0.020297 -0.000232525 0)
(-0.0199017 -0.000301269 0)
(-0.0194131 -0.000369943 0)
(-0.0188321 -0.000437797 0)
(-0.0181607 -0.000504055 0)
(-0.0174019 -0.000567925 0)
(-0.0165596 -0.000628613 0)
(-0.0156389 -0.000685335 0)
(-0.0146456 -0.000737335 0)
(-0.0135866 -0.000783897 0)
(-0.0124695 -0.000824362 0)
(-0.0113029 -0.000858141 0)
(-0.0100958 -0.000884728 0)
(-0.00885792 -0.000903718 0)
(-0.00759939 -0.00091481 0)
(-0.00633062 -0.000917823 0)
(-0.0050622 -0.000912698 0)
(-0.00380469 -0.000899505 0)
(-0.00256853 -0.000878441 0)
(-0.00136384 -0.000849831 0)
(-0.00020028 -0.000814119 0)
(0.000913075 -0.000771857 0)
(0.00196789 -0.000723702 0)
(0.00295668 -0.000670394 0)
(0.00387292 -0.000612742 0)
(0.00471108 -0.000551606 0)
(0.00546677 -0.000487876 0)
(0.00613669 -0.000422452 0)
(0.00671871 -0.000356226 0)
(0.00721179 -0.000290062 0)
(0.00761603 -0.000224778 0)
(0.00793255 -0.000161128 0)
(0.00816343 -9.9793e-05 0)
(0.00831163 -4.13668e-05 0)
(0.00838089 1.36507e-05 0)
(0.00837558 6.48586e-05 0)
(0.00830063 0.000111956 0)
(0.00816136 0.000154743 0)
(0.00796338 0.000193113 0)
(0.00771245 0.000227049 0)
(0.00741442 0.000256614 0)
(0.00707506 0.000281937 0)
(0.00670003 0.0003032 0)
(0.00629482 0.000320621 0)
(0.00586467 0.000334435 0)
(0.00541458 0.00034487 0)
(0.00494936 0.000352125 0)
(0.00447362 0.000356337 0)
(0.00399189 0.000357551 0)
(0.00350878 0.000355686 0)
(0.00302909 0.000350493 0)
(0.00255806 0.00034152 0)
(0.0021016 0.000328068 0)
(0.00166656 0.000309166 0)
(0.00126093 0.000283565 0)
(0.000894051 0.000249801 0)
(0.000576542 0.000206434 0)
(0.000319634 0.000152703 0)
(0.000133469 8.99452e-05 0)
(2.51663e-05 2.48667e-05 0)
(-4.43372e-06 -1.98399e-05 0)
(9.92738e-06 -3.41713e-05 0)
(4.85673e-05 -8.48375e-05 0)
(0.000112773 -0.000112213 0)
(0.000183483 -0.000119137 0)
(0.000249372 -0.000110831 0)
(0.000303166 -9.21688e-05 0)
(0.00033967 -6.7076e-05 0)
(0.000355566 -3.84871e-05 0)
(0.00034907 -8.45301e-06 0)
(0.000319479 2.16903e-05 0)
(0.000266793 5.11585e-05 0)
(0.000191413 7.95847e-05 0)
(9.39034e-05 0.000106901 0)
(-2.5181e-05 0.000133249 0)
(-0.000165417 0.000158903 0)
(-0.000326594 0.000184218 0)
(-0.000508752 0.000209582 0)
(-0.000712206 0.000235382 0)
(-0.000937531 0.000261984 0)
(-0.00118555 0.000289714 0)
(-0.00145729 0.000318848 0)
(-0.00175398 0.000349608 0)
(-0.00207695 0.00038216 0)
(-0.00242765 0.000416619 0)
(-0.00280758 0.000453046 0)
(-0.00321825 0.000491455 0)
(-0.00366115 0.00053182 0)
(-0.00413774 0.000574077 0)
(-0.00464937 0.000618124 0)
(-0.0051973 0.00066383 0)
(-0.00578264 0.000711031 0)
(-0.00640633 0.000759533 0)
(-0.00706914 0.000809107 0)
(-0.0077716 0.000859495 0)
(-0.008514 0.0009104 0)
(-0.00929634 0.000961485 0)
(-0.0101183 0.00101237 0)
(-0.0109793 0.00106265 0)
(-0.0118782 0.00111184 0)
(-0.0128137 0.00115945 0)
(-0.0137838 0.0012049 0)
(-0.0147863 0.00124761 0)
(-0.0158181 0.00128694 0)
(-0.0168761 0.00132219 0)
(-0.0179562 0.00135268 0)
(-0.019054 0.00137765 0)
(-0.0201645 0.00139637 0)
(-0.0212821 0.00140807 0)
(-0.0224007 0.00141202 0)
(-0.0235136 0.00140747 0)
(-0.0246136 0.00139372 0)
(-0.0256932 0.00137012 0)
(-0.0267443 0.00133605 0)
(-0.0277586 0.00129101 0)
(-0.0287275 0.00123452 0)
(-0.0296421 0.00116627 0)
(-0.0304935 0.00108602 0)
(-0.0312727 0.000993679 0)
(-0.031971 0.000889279 0)
(-0.0325796 0.000773018 0)
(-0.0330903 0.000645245 0)
(-0.033495 0.000506478 0)
(-0.0337864 0.000357402 0)
(-0.0339579 0.000198865 0)
(-0.0340035 3.18947e-05 0)
(-0.0339182 -0.000142199 0)
(-0.0336977 -0.000322145 0)
(-0.0333392 -0.000506437 0)
(-0.0328408 -0.000693418 0)
(-0.032202 -0.000881313 0)
(-0.0314234 -0.00106825 0)
(-0.0305071 -0.00125227 0)
(-0.0294566 -0.00143138 0)
(-0.0282765 -0.00160355 0)
(-0.0269732 -0.00176676 0)
(-0.0255542 -0.00191905 0)
(-0.0240282 -0.0020585 0)
(-0.0224053 -0.00218333 0)
(-0.0206968 -0.0022919 0)
(-0.0189149 -0.00238275 0)
(-0.0170727 -0.0024546 0)
(-0.0151842 -0.00250646 0)
(-0.0132637 -0.00253757 0)
(-0.0113264 -0.00254748 0)
(-0.00938725 -0.00253601 0)
(-0.00746147 -0.00250332 0)
(-0.00556407 -0.00244988 0)
(-0.00370967 -0.00237645 0)
(-0.00191232 -0.00228413 0)
(-0.000185293 -0.00217425 0)
(0.00145908 -0.00204843 0)
(0.00300959 -0.0019085 0)
(0.00445629 -0.00175647 0)
(0.00579061 -0.0015945 0)
(0.00700548 -0.00142483 0)
(0.00809536 -0.00124977 0)
(0.0090563 -0.00107161 0)
(0.00988594 -0.000892612 0)
(0.0105835 -0.000714927 0)
(0.0111497 -0.000540579 0)
(0.0115867 -0.00037142 0)
(0.0118979 -0.000209103 0)
(0.012088 -5.50533e-05 0)
(0.0121627 8.95445e-05 0)
(0.0121286 0.000223755 0)
(0.011993 0.000346897 0)
(0.0117638 0.000458533 0)
(0.0114491 0.000558457 0)
(0.0110573 0.000646672 0)
(0.0105972 0.000723363 0)
(0.010077 0.000788862 0)
(0.00950509 0.000843601 0)
(0.00888969 0.000888064 0)
(0.00823864 0.000922731 0)
(0.00755961 0.000948011 0)
(0.00686011 0.000964169 0)
(0.00614757 0.000971252 0)
(0.00542954 0.000969 0)
(0.00471389 0.000956768 0)
(0.004009 0.000933449 0)
(0.00332412 0.000897418 0)
(0.00266957 0.000846522 0)
(0.00205695 0.000778168 0)
(0.00149921 0.000689594 0)
(0.00101046 0.000578538 0)
(0.000604956 0.000444643 0)
(0.000295036 0.000291948 0)
(9.1808e-05 0.000133643 0)
(9.14997e-06 5.94422e-06 0)
(1.12954e-05 -6.29387e-05 0)
(5.30477e-05 -0.000143481 0)
(0.000119262 -0.000182898 0)
(0.000188086 -0.000188893 0)
(0.000246921 -0.000169915 0)
(0.000287835 -0.000133596 0)
(0.000305123 -8.61891e-05 0)
(0.000295064 -3.24722e-05 0)
(0.000255572 2.41183e-05 0)
(0.000185729 8.12821e-05 0)
(8.53908e-05 0.00013763 0)
(-4.51407e-05 0.000192481 0)
(-0.000205383 0.000245678 0)
(-0.000394867 0.000297439 0)
(-0.000613287 0.000348228 0)
(-0.000860586 0.00039866 0)
(-0.00113701 0.000449414 0)
(-0.00144314 0.000501179 0)
(-0.00177987 0.000554607 0)
(-0.00214837 0.000610283 0)
(-0.0025501 0.0006687 0)
(-0.0029867 0.000730258 0)
(-0.00345999 0.000795251 0)
(-0.00397188 0.000863874 0)
(-0.00452433 0.000936223 0)
(-0.00511933 0.00101231 0)
(-0.00575879 0.00109205 0)
(-0.00644455 0.0011753 0)
(-0.00717831 0.00126184 0)
(-0.00796161 0.00135137 0)
(-0.00879576 0.00144355 0)
(-0.00968183 0.00153796 0)
(-0.0106206 0.00163411 0)
(-0.0116125 0.00173146 0)
(-0.0126577 0.00182938 0)
(-0.0137557 0.00192718 0)
(-0.0149059 0.00202408 0)
(-0.0161068 0.00211922 0)
(-0.0173569 0.00221166 0)
(-0.0186536 0.00230037 0)
(-0.0199939 0.00238427 0)
(-0.0213742 0.00246216 0)
(-0.0227903 0.0025328 0)
(-0.024237 0.00259489 0)
(-0.0257087 0.00264708 0)
(-0.027199 0.00268799 0)
(-0.0287006 0.00271624 0)
(-0.0302059 0.00273043 0)
(-0.0317063 0.00272921 0)
(-0.0331927 0.00271128 0)
(-0.0346555 0.00267541 0)
(-0.0360844 0.00262048 0)
(-0.0374689 0.00254548 0)
(-0.0387981 0.00244957 0)
(-0.0400607 0.00233208 0)
(-0.0412456 0.00219254 0)
(-0.0423413 0.00203071 0)
(-0.0433368 0.00184659 0)
(-0.044221 0.00164043 0)
(-0.0449834 0.00141278 0)
(-0.0456139 0.00116446 0)
(-0.0461032 0.00089658 0)
(-0.0464426 0.000610567 0)
(-0.0466244 0.000308117 0)
(-0.0466419 -8.75958e-06 0)
(-0.0464896 -0.000337631 0)
(-0.0461632 -0.000676091 0)
(-0.0456597 -0.00102133 0)
(-0.0449777 -0.00137032 0)
(-0.0441171 -0.00171986 0)
(-0.0430796 -0.00206657 0)
(-0.0418682 -0.00240699 0)
(-0.0404878 -0.00273757 0)
(-0.0389447 -0.00305477 0)
(-0.0372469 -0.00335506 0)
(-0.0354039 -0.00363498 0)
(-0.0334268 -0.00389126 0)
(-0.031328 -0.00412078 0)
(-0.0291212 -0.00432072 0)
(-0.0268215 -0.00448852 0)
(-0.0244447 -0.00462202 0)
(-0.0220077 -0.00471946 0)
(-0.0195282 -0.00477952 0)
(-0.0170242 -0.00480136 0)
(-0.014514 -0.00478469 0)
(-0.0120162 -0.0047297 0)
(-0.00954915 -0.00463714 0)
(-0.00713067 -0.0045083 0)
(-0.00477817 -0.00434496 0)
(-0.00250818 -0.00414941 0)
(-0.000336189 -0.00392438 0)
(0.00172354 -0.00367299 0)
(0.00365814 -0.0033987 0)
(0.00545633 -0.00310525 0)
(0.00710853 -0.00279657 0)
(0.00860694 -0.00247669 0)
(0.00994562 -0.00214969 0)
(0.0111205 -0.00181961 0)
(0.0121295 -0.00149033 0)
(0.0129723 -0.00116557 0)
(0.0136504 -0.000848758 0)
(0.0141669 -0.000542999 0)
(0.0145267 -0.000251034 0)
(0.0147357 2.48076e-05 0)
(0.0148013 0.000282624 0)
(0.0147319 0.000520951 0)
(0.0145366 0.000738759 0)
(0.0142254 0.00093543 0)
(0.0138085 0.00111073 0)
(0.0132964 0.00126474 0)
(0.0126999 0.00139786 0)
(0.0120296 0.00151063 0)
(0.011296 0.00160375 0)
(0.0105095 0.0016779 0)
(0.00968049 0.00173368 0)
(0.00881897 0.00177144 0)
(0.00793507 0.0017912 0)
(0.00703905 0.00179245 0)
(0.0061415 0.0017741 0)
(0.0052536 0.00173432 0)
(0.00438738 0.00167048 0)
(0.00355589 0.00157924 0)
(0.00277344 0.0014567 0)
(0.00205556 0.00129895 0)
(0.00141883 0.00110307 0)
(0.0008799 0.000869108 0)
(0.000453615 0.000603182 0)
(0.000157384 0.000322611 0)
(2.22248e-05 6.92376e-05 0)
(1.10183e-05 -9.19634e-05 0)
(4.98676e-05 -0.000200118 0)
(0.000108 -0.000247194 0)
(0.000162758 -0.000246765 0)
(0.000201092 -0.000211101 0)
(0.000214883 -0.000150838 0)
(0.000198373 -7.46339e-05 0)
(0.000147811 1.08558e-05 0)
(6.1073e-05 0.000100791 0)
(-6.28155e-05 0.000191891 0)
(-0.000224073 0.000282153 0)
(-0.000422494 0.000370579 0)
(-0.000657721 0.000456938 0)
(-0.000929446 0.000541546 0)
(-0.00123756 0.000625094 0)
(-0.00158225 0.000708494 0)
(-0.00196405 0.000792765 0)
(-0.00238387 0.000878942 0)
(-0.00284296 0.000968004 0)
(-0.00334292 0.00106083 0)
(-0.00388561 0.00115815 0)
(-0.00447313 0.00126057 0)
(-0.00510774 0.00136852 0)
(-0.00579179 0.00148226 0)
(-0.00652769 0.00160192 0)
(-0.0073178 0.00172747 0)
(-0.0081644 0.00185874 0)
(-0.00906964 0.00199545 0)
(-0.0100355 0.00213719 0)
(-0.0110636 0.00228344 0)
(-0.0121554 0.00243359 0)
(-0.013312 0.00258688 0)
(-0.014534 0.00274248 0)
(-0.0158216 0.00289943 0)
(-0.0171745 0.00305665 0)
(-0.018592 0.00321295 0)
(-0.0200725 0.003367 0)
(-0.0216141 0.00351734 0)
(-0.0232138 0.00366242 0)
(-0.0248683 0.00380052 0)
(-0.0265733 0.00392983 0)
(-0.0283236 0.00404844 0)
(-0.0301134 0.00415433 0)
(-0.0319359 0.00424542 0)
(-0.0337835 0.00431958 0)
(-0.0356478 0.00437467 0)
(-0.0375197 0.00440852 0)
(-0.039389 0.00441904 0)
(-0.0412452 0.00440419 0)
(-0.0430767 0.00436205 0)
(-0.0448717 0.00429084 0)
(-0.0466177 0.00418898 0)
(-0.0483019 0.0040551 0)
(-0.0499113 0.0038881 0)
(-0.0514327 0.00368718 0)
(-0.0528527 0.00345184 0)
(-0.0541585 0.00318197 0)
(-0.055337 0.00287784 0)
(-0.056376 0.00254009 0)
(-0.0572637 0.00216981 0)
(-0.057989 0.00176852 0)
(-0.0585415 0.00133816 0)
(-0.0589122 0.000881108 0)
(-0.0590928 0.000400172 0)
(-0.0590764 -0.000101425 0)
(-0.0588575 -0.000620106 0)
(-0.0584321 -0.00115187 0)
(-0.0577974 -0.00169243 0)
(-0.0569526 -0.00223719 0)
(-0.0558983 -0.00278132 0)
(-0.054637 -0.00331978 0)
(-0.0531727 -0.00384741 0)
(-0.0515113 -0.00435897 0)
(-0.0496605 -0.00484922 0)
(-0.0476295 -0.00531299 0)
(-0.0454292 -0.00574523 0)
(-0.0430723 -0.00614113 0)
(-0.0405729 -0.00649617 0)
(-0.0379463 -0.00680618 0)
(-0.0352094 -0.00706747 0)
(-0.03238 -0.00727685 0)
(-0.0294771 -0.0074317 0)
(-0.0265203 -0.00753006 0)
(-0.0235299 -0.00757065 0)
(-0.0205265 -0.00755294 0)
(-0.017531 -0.00747713 0)
(-0.014564 -0.00734421 0)
(-0.0116462 -0.00715592 0)
(-0.00879732 -0.00691477 0)
(-0.00603651 -0.00662398 0)
(-0.00338187 -0.00628741 0)
(-0.000850237 -0.00590956 0)
(0.00154297 -0.00549542 0)
(0.00378397 -0.00505042 0)
(0.00586079 -0.00458032 0)
(0.00776335 -0.00409108 0)
(0.00948362 -0.00358876 0)
(0.0110156 -0.00307942 0)
(0.0123555 -0.00256896 0)
(0.0135015 -0.00206306 0)
(0.014454 -0.00156703 0)
(0.0152151 -0.00108577 0)
(0.015789 -0.000623637 0)
(0.0161816 -0.000184443 0)
(0.0164002 0.00022863 0)
(0.0164534 0.00061303 0)
(0.0163512 0.000966845 0)
(0.0161043 0.00128878 0)
(0.0157241 0.00157813 0)
(0.0152226 0.00183467 0)
(0.0146122 0.00205865 0)
(0.0139054 0.00225061 0)
(0.0131148 0.0024113 0)
(0.0122527 0.00254153 0)
(0.0113319 0.00264197 0)
(0.0103646 0.00271304 0)
(0.00936342 0.00275464 0)
(0.00834102 0.00276604 0)
(0.00731042 0.00274566 0)
(0.0062852 0.00269098 0)
(0.00527971 0.00259845 0)
(0.00430929 0.00246364 0)
(0.00339039 0.00228147 0)
(0.00254063 0.00204697 0)
(0.00177878 0.00175647 0)
(0.00112396 0.00140984 0)
(0.000594243 0.00101357 0)
(0.000214437 0.000585543 0)
(3.30274e-05 0.000166031 0)
(9.67376e-06 -0.000117719 0)
(4.09479e-05 -0.000247265 0)
(8.25167e-05 -0.000295281 0)
(0.000112754 -0.000281397 0)
(0.000118946 -0.000221998 0)
(9.31946e-05 -0.000130859 0)
(3.00412e-05 -1.90656e-05 0)
(-7.3996e-05 0.000104882 0)
(-0.000220859 0.000234798 0)
(-0.000411423 0.000366475 0)
(-0.000645894 0.00049735 0)
(-0.000924132 0.000626164 0)
(-0.00124591 0.000752656 0)
(-0.00161113 0.000877295 0)
(-0.00201993 0.00100104 0)
(-0.0024728 0.00112515 0)
(-0.00297064 0.00125102 0)
(-0.00351474 0.00138007 0)
(-0.00410678 0.00151364 0)
(-0.00474878 0.0016529 0)
(-0.00544308 0.00179888 0)
(-0.00619222 0.00195235 0)
(-0.00699889 0.00211387 0)
(-0.00786588 0.00228378 0)
(-0.00879598 0.00246218 0)
(-0.0097919 0.00264897 0)
(-0.0108562 0.00284385 0)
(-0.0119913 0.00304633 0)
(-0.0131993 0.00325575 0)
(-0.014482 0.00347127 0)
(-0.0158407 0.0036919 0)
(-0.0172764 0.00391648 0)
(-0.0187894 0.00414367 0)
(-0.0203796 0.00437199 0)
(-0.0220462 0.00459976 0)
(-0.0237878 0.00482515 0)
(-0.025602 0.00504613 0)
(-0.0274858 0.00526051 0)
(-0.0294354 0.00546592 0)
(-0.031446 0.00565983 0)
(-0.0335119 0.00583956 0)
(-0.0356264 0.00600231 0)
(-0.037782 0.00614516 0)
(-0.0399702 0.00626513 0)
(-0.0421814 0.00635919 0)
(-0.0444053 0.00642434 0)
(-0.0466306 0.0064576 0)
(-0.0488453 0.0064561 0)
(-0.0510366 0.00641711 0)
(-0.0531911 0.00633809 0)
(-0.0552948 0.00621676 0)
(-0.0573334 0.00605113 0)
(-0.0592922 0.00583955 0)
(-0.0611565 0.00558079 0)
(-0.0629115 0.00527403 0)
(-0.0645426 0.00491892 0)
(-0.0660355 0.00451565 0)
(-0.0673762 0.0040649 0)
(-0.0685515 0.00356793 0)
(-0.0695489 0.00302657 0)
(-0.0703568 0.0024432 0)
(-0.0709645 0.00182079 0)
(-0.0713628 0.00116287 0)
(-0.0715432 0.000473502 0)
(-0.0714991 -0.00024271 0)
(-0.0712252 -0.00098073 0)
(-0.0707177 -0.00173499 0)
(-0.0699743 -0.00249956 0)
(-0.0689948 -0.00326816 0)
(-0.0677803 -0.00403422 0)
(-0.0663339 -0.00479096 0)
(-0.0646604 -0.00553142 0)
(-0.0627665 -0.0062486 0)
(-0.0606604 -0.0069355 0)
(-0.0583525 -0.00758523 0)
(-0.0558544 -0.00819108 0)
(-0.0531797 -0.00874666 0)
(-0.0503436 -0.00924595 0)
(-0.0473624 -0.0096834 0)
(-0.044254 -0.0100541 0)
(-0.0410377 -0.0103537 0)
(-0.0377336 -0.0105786 0)
(-0.0343627 -0.0107263 0)
(-0.0309468 -0.0107948 0)
(-0.0275083 -0.0107832 0)
(-0.0240696 -0.0106918 0)
(-0.0206534 -0.0105216 0)
(-0.017282 -0.0102748 0)
(-0.0139775 -0.00995445 0)
(-0.0107612 -0.00956469 0)
(-0.00765327 -0.00911049 0)
(-0.00467297 -0.00859768 0)
(-0.00183802 -0.00803279 0)
(0.000835438 -0.00742297 0)
(0.00333309 -0.00677586 0)
(0.00564257 -0.00609945 0)
(0.00775361 -0.00540191 0)
(0.00965815 -0.00469147 0)
(0.0113504 -0.00397623 0)
(0.0128267 -0.00326405 0)
(0.0140859 -0.00256239 0)
(0.0151289 -0.00187816 0)
(0.0159587 -0.00121768 0)
(0.0165803 -0.0005865 0)
(0.0170005 1.06026e-05 0)
(0.0172278 0.000569686 0)
(0.0172722 0.00108766 0)
(0.0171446 0.00156227 0)
(0.0168574 0.00199204 0)
(0.0164233 0.00237623 0)
(0.0158558 0.00271469 0)
(0.015169 0.00300776 0)
(0.0143769 0.00325607 0)
(0.0134938 0.00346041 0)
(0.0125342 0.00362144 0)
(0.0115126 0.00373951 0)
(0.0104435 0.00381441 0)
(0.00934172 0.00384512 0)
(0.0082225 0.00382963 0)
(0.0071015 0.00376478 0)
(0.00599512 0.00364618 0)
(0.00492063 0.00346838 0)
(0.0038964 0.00322522 0)
(0.00294197 0.00291057 0)
(0.00207831 0.00251968 0)
(0.00132727 0.00205126 0)
(0.000710649 0.00151034 0)
(0.000260651 0.000912157 0)
(4.13309e-05 0.000290521 0)
(7.6103e-06 -0.000137589 0)
(2.76741e-05 -0.000278693 0)
(4.56321e-05 -0.000318577 0)
(4.23866e-05 -0.000282667 0)
(6.28281e-06 -0.000191465 0)
(-6.99676e-05 -6.18832e-05 0)
(-0.000191204 9.26287e-05 0)
(-0.000360383 0.000261824 0)
(-0.000579065 0.000438278 0)
(-0.000847891 0.000616979 0)
(-0.00116696 0.000794907 0)
(-0.00153616 0.000970636 0)
(-0.00195539 0.00114396 0)
(-0.00242476 0.00131558 0)
(-0.00294472 0.00148678 0)
(-0.00351611 0.00165921 0)
(-0.00414024 0.0018347 0)
(-0.00481885 0.00201507 0)
(-0.00555407 0.00220203 0)
(-0.00634842 0.00239711 0)
(-0.0072047 0.00260156 0)
(-0.00812592 0.00281635 0)
(-0.00911521 0.00304215 0)
(-0.0101758 0.00327931 0)
(-0.0113107 0.0035279 0)
(-0.0125231 0.00378767 0)
(-0.0138158 0.00405813 0)
(-0.0151912 0.00433851 0)
(-0.0166516 0.0046278 0)
(-0.0181987 0.00492476 0)
(-0.0198337 0.0052279 0)
(-0.0215573 0.00553553 0)
(-0.0233696 0.0058457 0)
(-0.0252699 0.00615625 0)
(-0.0272566 0.00646478 0)
(-0.0293275 0.00676866 0)
(-0.0314795 0.00706502 0)
(-0.0337084 0.00735076 0)
(-0.036009 0.00762258 0)
(-0.0383752 0.00787698 0)
(-0.0407999 0.00811027 0)
(-0.0432747 0.00831864 0)
(-0.0457904 0.00849817 0)
(-0.0483366 0.00864488 0)
(-0.050902 0.00875481 0)
(-0.0534743 0.00882402 0)
(-0.0560404 0.00884869 0)
(-0.0585863 0.00882521 0)
(-0.0610974 0.00875017 0)
(-0.0635585 0.00862048 0)
(-0.065954 0.00843345 0)
(-0.068268 0.00818677 0)
(-0.0704845 0.00787868 0)
(-0.0725873 0.00750791 0)
(-0.0745606 0.00707382 0)
(-0.0763888 0.00657637 0)
(-0.0780568 0.00601619 0)
(-0.07955 0.00539461 0)
(-0.0808549 0.00471365 0)
(-0.0819584 0.00397601 0)
(-0.0828489 0.00318515 0)
(-0.0835157 0.00234517 0)
(-0.0839494 0.00146089 0)
(-0.0841419 0.00053775 0)
(-0.0840867 -0.000418184 0)
(-0.0837788 -0.0014003 0)
(-0.0832145 -0.00240143 0)
(-0.0823922 -0.00341396 0)
(-0.0813117 -0.00442988 0)
(-0.0799745 -0.00544085 0)
(-0.0783842 -0.0064383 0)
(-0.0765459 -0.0074135 0)
(-0.0744664 -0.00835764 0)
(-0.0721546 -0.00926195 0)
(-0.069621 -0.0101178 0)
(-0.0668777 -0.0109168 0)
(-0.0639386 -0.0116509 0)
(-0.0608193 -0.0123125 0)
(-0.0575369 -0.0128947 0)
(-0.0541097 -0.0133912 0)
(-0.0505577 -0.0137965 0)
(-0.0469017 -0.014106 0)
(-0.0431639 -0.0143162 0)
(-0.039367 -0.0144245 0)
(-0.0355345 -0.0144297 0)
(-0.0316904 -0.0143316 0)
(-0.0278587 -0.0141313 0)
(-0.0240635 -0.0138314 0)
(-0.0203286 -0.0134353 0)
(-0.0166773 -0.0129479 0)
(-0.0131318 -0.0123753 0)
(-0.00971352 -0.0117246 0)
(-0.00644248 -0.0110036 0)
(-0.00333711 -0.0102213 0)
(-0.000414079 -0.00938729 0)
(0.0023119 -0.00851147 0)
(0.00482824 -0.00760424 0)
(0.00712463 -0.0066761 0)
(0.00919308 -0.00573749 0)
(0.011028 -0.00479862 0)
(0.0126263 -0.00386926 0)
(0.0139872 -0.00295862 0)
(0.0151123 -0.00207514 0)
(0.0160054 -0.00122644 0)
(0.0166724 -0.000419155 0)
(0.0171211 0.000341087 0)
(0.017361 0.00104972 0)
(0.0174032 0.00170323 0)
(0.01726 0.00229911 0)
(0.0169449 0.0028358 0)
(0.0164722 0.00331251 0)
(0.0158566 0.00372914 0)
(0.0151138 0.00408603 0)
(0.0142595 0.00438373 0)
(0.0133096 0.00462277 0)
(0.0122805 0.00480334 0)
(0.0111885 0.00492504 0)
(0.0100504 0.00498657 0)
(0.0088833 0.00498548 0)
(0.00770468 0.004918 0)
(0.00653283 0.00477899 0)
(0.00538683 0.00456203 0)
(0.00428683 0.00425983 0)
(0.0032543 0.00386493 0)
(0.00231252 0.00337097 0)
(0.00148621 0.00277451 0)
(0.000801012 0.00207746 0)
(0.00029583 0.00128998 0)
(4.73619e-05 0.000436497 0)
(5.03752e-06 -0.000149602 0)
(1.09961e-05 -0.000289291 0)
(-5.52045e-07 -0.000309736 0)
(-4.50005e-05 -0.000241689 0)
(-0.000132321 -0.000109588 0)
(-0.000268813 6.66672e-05 0)
(-0.000458401 0.000271407 0)
(-0.000703278 0.000492802 0)
(-0.00100445 0.000722361 0)
(-0.00136218 0.000954426 0)
(-0.0017764 0.00118567 0)
(-0.00224695 0.00141464 0)
(-0.00277387 0.00164131 0)
(-0.00335748 0.00186667 0)
(-0.00399857 0.00209244 0)
(-0.00469838 0.00232072 0)
(-0.00545867 0.0025538 0)
(-0.00628167 0.00279395 0)
(-0.00717002 0.00304326 0)
(-0.00812676 0.00330358 0)
(-0.00915517 0.00357643 0)
(-0.0102587 0.00386291 0)
(-0.0114411 0.00416378 0)
(-0.0127057 0.00447937 0)
(-0.0140561 0.00480961 0)
(-0.0154956 0.00515409 0)
(-0.0170271 0.00551201 0)
(-0.0186533 0.00588225 0)
(-0.0203764 0.00626334 0)
(-0.0221979 0.00665352 0)
(-0.0241188 0.00705072 0)
(-0.0261395 0.00745257 0)
(-0.0282595 0.00785637 0)
(-0.0304775 0.00825916 0)
(-0.0327911 0.00865765 0)
(-0.0351972 0.00904829 0)
(-0.0376916 0.00942719 0)
(-0.0402688 0.00979025 0)
(-0.0429225 0.0101331 0)
(-0.0456449 0.010451 0)
(-0.0484275 0.0107394 0)
(-0.0512602 0.0109932 0)
(-0.054132 0.0112075 0)
(-0.0570309 0.0113772 0)
(-0.0599438 0.0114974 0)
(-0.0628566 0.0115632 0)
(-0.0657544 0.0115701 0)
(-0.0686216 0.0115137 0)
(-0.0714421 0.0113899 0)
(-0.0741992 0.0111954 0)
(-0.0768759 0.010927 0)
(-0.0794552 0.0105824 0)
(-0.0819199 0.0101596 0)
(-0.0842532 0.00965778 0)
(-0.0864383 0.00907645 0)
(-0.0884591 0.00841608 0)
(-0.0903001 0.00767794 0)
(-0.0919465 0.0068641 0)
(-0.0933845 0.00597748 0)
(-0.094601 0.00502184 0)
(-0.0955844 0.00400174 0)
(-0.0963241 0.00292255 0)
(-0.0968108 0.00179041 0)
(-0.0970366 0.000612193 0)
(-0.0969951 -0.000604535 0)
(-0.0966813 -0.00185159 0)
(-0.096092 -0.0031202 0)
(-0.0952254 -0.00440107 0)
(-0.0940813 -0.00568449 0)
(-0.0926615 -0.00696038 0)
(-0.0909693 -0.0082184 0)
(-0.0890098 -0.00944805 0)
(-0.0867898 -0.0106388 0)
(-0.084318 -0.01178 0)
(-0.0816048 -0.0128613 0)
(-0.0786623 -0.0138726 0)
(-0.0755044 -0.0148043 0)
(-0.0721466 -0.0156471 0)
(-0.0686061 -0.0163925 0)
(-0.0649015 -0.0170328 0)
(-0.061053 -0.0175613 0)
(-0.057082 -0.0179721 0)
(-0.0530111 -0.0182608 0)
(-0.048864 -0.018424 0)
(-0.044665 -0.0184598 0)
(-0.0404394 -0.0183676 0)
(-0.0362124 -0.0181485 0)
(-0.0320097 -0.0178049 0)
(-0.0278568 -0.0173408 0)
(-0.0237787 -0.0167617 0)
(-0.0197999 -0.0160744 0)
(-0.0159438 -0.0152871 0)
(-0.0122328 -0.0144093 0)
(-0.00868753 -0.0134515 0)
(-0.00532721 -0.0124249 0)
(-0.00216897 -0.0113418 0)
(0.000772186 -0.0102147 0)
(0.00348353 -0.00905636 0)
(0.00595475 -0.00787968 0)
(0.00817808 -0.00669736 0)
(0.0101483 -0.00552166 0)
(0.0118627 -0.00436423 0)
(0.0133212 -0.00323594 0)
(0.0145262 -0.00214665 0)
(0.0154822 -0.00110514 0)
(0.0161961 -0.000119014 0)
(0.0166768 0.000805414 0)
(0.0169349 0.00166308 0)
(0.0169827 0.00245014 0)
(0.0168338 0.00316393 0)
(0.0165028 0.00380278 0)
(0.0160055 0.00436588 0)
(0.0153582 0.00485304 0)
(0.014578 0.00526442 0)
(0.0136821 0.00560023 0)
(0.0126883 0.0058604 0)
(0.0116147 0.00604425 0)
(0.0104796 0.00615015 0)
(0.00930196 0.0061752 0)
(0.00810097 0.00611507 0)
(0.0068966 0.00596387 0)
(0.00570967 0.00571421 0)
(0.00456212 0.00535755 0)
(0.0034774 0.00488487 0)
(0.00248107 0.00428766 0)
(0.0016008 0.00355948 0)
(0.000865813 0.00269782 0)
(0.000320629 0.00170618 0)
(5.1432e-05 0.000598085 0)
(2.07528e-06 -0.000152205 0)
(-8.46491e-06 -0.000274845 0)
(-5.45385e-05 -0.000262486 0)
(-0.000146908 -0.000150711 0)
(-0.000293342 3.24176e-05 0)
(-0.000498805 0.00026426 0)
(-0.000766017 0.000527159 0)
(-0.00109619 0.000807932 0)
(-0.0014896 0.00109724 0)
(-0.00194604 0.00138899 0)
(-0.00246517 0.00167974 0)
(-0.00304678 0.00196816 0)
(-0.00369099 0.00225455 0)
(-0.00439838 0.00254033 0)
(-0.00517008 0.00282773 0)
(-0.00600778 0.00311936 0)
(-0.00691373 0.00341803 0)
(-0.00789068 0.00372647 0)
(-0.00894183 0.00404718 0)
(-0.0100708 0.00438231 0)
(-0.0112813 0.00473361 0)
(-0.0125773 0.0051023 0)
(-0.0139629 0.00548916 0)
(-0.015442 0.00589443 0)
(-0.0170183 0.00631788 0)
(-0.0186954 0.00675878 0)
(-0.0204764 0.00721599 0)
(-0.0223638 0.00768789 0)
(-0.0243598 0.00817249 0)
(-0.0264657 0.00866737 0)
(-0.0286822 0.00916974 0)
(-0.0310091 0.0096764 0)
(-0.0334453 0.0101838 0)
(-0.0359887 0.010688 0)
(-0.0386362 0.0111848 0)
(-0.0413835 0.0116694 0)
(-0.0442252 0.0121369 0)
(-0.0471546 0.0125819 0)
(-0.0501639 0.012999 0)
(-0.053244 0.0133823 0)
(-0.0563845 0.0137259 0)
(-0.059574 0.0140236 0)
(-0.0627997 0.0142693 0)
(-0.066048 0.0144571 0)
(-0.069304 0.0145809 0)
(-0.0725522 0.0146351 0)
(-0.0757761 0.0146143 0)
(-0.0789589 0.0145136 0)
(-0.082083 0.0143284 0)
(-0.0851306 0.014055 0)
(-0.0880838 0.0136902 0)
(-0.0909246 0.0132316 0)
(-0.0936352 0.0126775 0)