/*--------------------------------*- C++ -*----------------------------------*\
| =========                 |                                                 |
| \\      /  F ield         | OpenFOAM: The Open Source CFD Toolbox           |
|  \\    /   O peration     | Version:  2112                                  |
|   \\  /    A nd           | Website:  www.openfoam.com                      |
|    \\/     M anipulation  |                                                 |
\*---------------------------------------------------------------------------*/
FoamFile
{
    version     2.0;
    format      ascii;
    arch        "LSB;label=32;scalar=64";
    class       volScalarField;
    location    "31";
    object      p;
}
// * * * * * * * * * * * * * * * * * * * * * * * * * * * * * * * * * * * * * //

dimensions      [0 2 -2 0 0 0 0];

internalField   nonuniform List<scalar> 
16641
(
-8.17525e-08
1.32737e-05
2.64311e-05
3.44454e-05
3.3751e-05
2.25525e-05
2.83848e-07
-3.29086e-05
-7.647e-05
-0.000129633
-0.00019155
-0.000261367
-0.000338278
-0.000421567
-0.000510638
-0.00060503
-0.000704418
-0.000808608
-0.000917525
-0.0010312
-0.00114976
-0.00127339
-0.00140232
-0.0015368
-0.00167711
-0.00182347
-0.00197608
-0.0021351
-0.00230061
-0.00247262
-0.00265106
-0.00283575
-0.00302643
-0.00322271
-0.00342411
-0.00363001
-0.00383967
-0.00405223
-0.00426668
-0.00448189
-0.00469658
-0.00490935
-0.00511864
-0.0053228
-0.00552004
-0.00570846
-0.00588609
-0.00605088
-0.00620073
-0.00633352
-0.00644716
-0.00653957
-0.00660877
-0.00665288
-0.00667019
-0.00665916
-0.00661852
-0.00654725
-0.00644466
-0.00631041
-0.00614453
-0.0059475
-0.00572022
-0.00546407
-0.00518089
-0.00487301
-0.00454319
-0.00419461
-0.00383113
-0.00345678
-0.00307598
-0.00269348
-0.00231427
-0.00194347
-0.0015863
-0.00124796
-0.000933517
-0.000647845
-0.000395498
-0.000180619
-6.84894e-06
0.00012276
0.000205819
0.000240664
0.000226397
0.000162915
5.09179e-05
-0.00010811
-0.000311922
-0.00055757
-0.000841598
-0.00115974
-0.00150755
-0.00188017
-0.00227253
-0.00267947
-0.00309587
-0.00351674
-0.00393735
-0.00435326
-0.00476044
-0.00515533
-0.00553484
-0.0058964
-0.00623796
-0.00655797
-0.00685537
-0.00712955
-0.0073803
-0.00760777
-0.00781241
-0.00799492
-0.00815616
-0.00829714
-0.00841892
-0.00852258
-0.00860917
-0.00867964
-0.00873487
-0.0087756
-0.00880249
-0.00881613
-0.00881718
-0.00880653
-0.00878561
-0.00875685
-0.00872431
-0.00869409
-0.00867553
-1.46204e-05
-8.93922e-07
8.34541e-06
1.17027e-05
7.56274e-06
-5.50025e-06
-2.81047e-05
-6.02914e-05
-0.000101748
-0.000151956
-0.000210292
-0.000276091
-0.000348702
-0.000427531
-0.000512076
-0.00060194
-0.000696839
-0.000796593
-0.000901126
-0.00101045
-0.00112466
-0.00124391
-0.00136839
-0.00149833
-0.00163394
-0.00177542
-0.00192294
-0.00207665
-0.00223661
-0.00240284
-0.00257527
-0.00275374
-0.00293801
-0.00312774
-0.00332247
-0.00352163
-0.00372455
-0.00393042
-0.00413829
-0.00434711
-0.00455568
-0.00476267
-0.00496662
-0.00516595
-0.00535897
-0.00554385
-0.00571873
-0.00588162
-0.00603052
-0.00616339
-0.00627819
-0.00637291
-0.00644562
-0.00649449
-0.00651783
-0.00651414
-0.00648214
-0.00642081
-0.00632944
-0.00620764
-0.00605542
-0.00587317
-0.00566172
-0.00542233
-0.00515676
-0.00486724
-0.00455643
-0.00422728
-0.00388343
-0.00352882
-0.0031677
-0.00280464
-0.00244443
-0.002092
-0.00175238
-0.00143058
-0.00113149
-0.000859794
-0.000619892
-0.000415774
-0.000250946
-0.000128345
-5.02656e-05
-1.83056e-05
-3.33196e-05
-9.53966e-05
-0.000203855
-0.000357255
-0.000553435
-0.000789562
-0.00106222
-0.00136749
-0.00170097
-0.00205805
-0.00243389
-0.00282356
-0.0032222
-0.00362505
-0.00402762
-0.00442571
-0.00481552
-0.00519367
-0.00555726
-0.00590387
-0.00623157
-0.00653891
-0.00682489
-0.00708893
-0.00733084
-0.00755074
-0.00774906
-0.00792641
-0.00808361
-0.00822159
-0.00834133
-0.00844386
-0.00853016
-0.00860119
-0.00865782
-0.00870086
-0.00873106
-0.00874916
-0.00875598
-0.00875252
-0.0087402
-0.00872111
-0.00869835
-0.00867565
-0.00865699
-2.86246e-05
-1.06262e-05
-1.27897e-06
6.52326e-07
-4.83803e-06
-1.87262e-05
-4.1471e-05
-7.30743e-05
-0.000113279
-0.000161662
-0.000217696
-0.000280807
-0.000350429
-0.000426046
-0.000507216
-0.000593588
-0.000684907
-0.000781016
-0.000881848
-0.000987421
-0.00109782
-0.0012132
-0.00133373
-0.00145962
-0.00159108
-0.0017283
-0.00187145
-0.00202067
-0.00217603
-0.00233756
-0.0025052
-0.00267883
-0.00285823
-0.00304309
-0.00323301
-0.00342747
-0.00362583
-0.00382734
-0.00403113
-0.0042362
-0.0044414
-0.00464548
-0.00484704
-0.00504456
-0.00523639
-0.00542079
-0.00559591
-0.00575983
-0.00591058
-0.00604613
-0.00616448
-0.00626363
-0.00634164
-0.00639668
-0.00642704
-0.00643119
-0.00640781
-0.00635583
-0.00627449
-0.00616335
-0.00602232
-0.00585174
-0.00565235
-0.00542532
-0.00517234
-0.00489559
-0.00459723
-0.00428079
-0.00394946
-0.00360708
-0.00325784
-0.00290622
-0.00255692
-0.0022148
-0.00188481
-0.00157189
-0.00128087
-0.00101639
-0.000782775
-0.000583989
-0.000423498
-0.00030421
-0.000228399
-0.000197647
-0.000212802
-0.000273952
-0.000380422
-0.000530788
-0.000722911
-0.000953993
-0.00122065
-0.00151899
-0.00184474
-0.0021933
-0.00255992
-0.00293979
-0.00332811
-0.00372026
-0.00411184
-0.0044988
-0.00487743
-0.0052445
-0.00559722
-0.00593328
-0.00625086
-0.0065486
-0.00682558
-0.00708131
-0.00731562
-0.0075287
-0.00772096
-0.00789307
-0.00804582
-0.00818014
-0.00829699
-0.0083974
-0.00848234
-0.00855277
-0.00860957
-0.00865358
-0.00868556
-0.00870628
-0.00871652
-0.00871719
-0.00870945
-0.00869488
-0.00867569
-0.00865304
-0.0086266
-3.73641e-05
-1.45053e-05
-3.61546e-06
-1.71805e-06
-7.61292e-06
-2.18644e-05
-4.46993e-05
-7.59925e-05
-0.000115447
-0.000162645
-0.000217082
-0.000278223
-0.000345546
-0.000418583
-0.000496932
-0.000580281
-0.0006684
-0.000761157
-0.000858508
-0.000960487
-0.0010672
-0.00117879
-0.00129545
-0.0014174
-0.00154485
-0.001678
-0.00181703
-0.0019621
-0.0021133
-0.00227068
-0.00243421
-0.00260381
-0.00277929
-0.0029604
-0.00314677
-0.00333794
-0.00353333
-0.00373225
-0.00393389
-0.00413729
-0.00434139
-0.00454496
-0.00474665
-0.004945
-0.00513839
-0.0053251
-0.00550331
-0.00567111
-0.00582651
-0.00596749
-0.00609201
-0.00619805
-0.00628362
-0.00634684
-0.00638594
-0.00639933
-0.0063856
-0.00634363
-0.00627255
-0.00617184
-0.00604134
-0.00588129
-0.00569234
-0.00547561
-0.00523278
-0.00496627
-0.00467676
-0.00436908
-0.00404613
-0.00371161
-0.00336964
-0.00302468
-0.00268139
-0.00234465
-0.00201938
-0.00171052
-0.00142292
-0.00116123
-0.000929806
-0.000732632
-0.000573203
-0.000454454
-0.000378688
-0.000347511
-0.000361793
-0.000421638
-0.000526382
-0.000674605
-0.000864167
-0.00109226
-0.0013555
-0.00164997
-0.00197136
-0.00231518
-0.00267649
-0.00305059
-0.00343268
-0.00381815
-0.00420263
-0.00458211
-0.00495296
-0.00531199
-0.0056565
-0.00598428
-0.00629358
-0.00658315
-0.00685216
-0.0071002
-0.0073272
-0.0075334
-0.00771931
-0.00788562
-0.0080332
-0.00816299
-0.00827601
-0.00837329
-0.00845583
-0.00852462
-0.00858053
-0.00862441
-0.008657
-0.008679
-0.0086911
-0.00869398
-0.00868842
-0.00867549
-0.0086566
-0.00863072
-0.00859429
-3.74084e-05
-1.08808e-05
1.34227e-06
3.36549e-06
-2.79476e-06
-1.73854e-05
-4.04241e-05
-7.16459e-05
-0.000110678
-0.000157065
-0.000210297
-0.000269851
-0.000335231
-0.000405994
-0.000481772
-0.000562281
-0.000647325
-0.000736802
-0.000830696
-0.000929067
-0.00103204
-0.00113981
-0.00125257
-0.00137056
-0.00149402
-0.00162318
-0.00175825
-0.0018994
-0.00204677
-0.00220044
-0.00236044
-0.00252672
-0.00269915
-0.00287752
-0.00306155
-0.00325081
-0.00344481
-0.0036429
-0.00384433
-0.0040482
-0.0042535
-0.00445905
-0.00466353
-0.00486549
-0.00506333
-0.00525535
-0.00543969
-0.00561443
-0.00577755
-0.00592697
-0.00606059
-0.00617631
-0.00627208
-0.00634592
-0.00639598
-0.00642055
-0.00641814
-0.00638751
-0.00632771
-0.0062381
-0.00611845
-0.00596889
-0.00579001
-0.00558286
-0.0053488
-0.00508929
-0.00480866
-0.00450813
-0.00419137
-0.00386222
-0.00352484
-0.00318367
-0.0028434
-0.00250891
-0.00218518
-0.00187717
-0.0015898
-0.00132776
-0.00109548
-0.00089701
-0.000735909
-0.000615184
-0.0005372
-0.000503623
-0.000515373
-0.000572593
-0.000674647
-0.000820129
-0.0010069
-0.00123214
-0.00149243
-0.00178384
-0.002102
-0.0024423
-0.0027999
-0.00316993
-0.00354758
-0.00392819
-0.0043074
-0.00468115
-0.00504584
-0.00539832
-0.00573591
-0.00605645
-0.0063583
-0.00664027
-0.00690163
-0.00714206
-0.00736159
-0.00756057
-0.00773959
-0.00789944
-0.00804105
-0.00816544
-0.00827369
-0.00836688
-0.00844606
-0.00851222
-0.00856627
-0.00860904
-0.00864125
-0.00866351
-0.00867637
-0.00868026
-0.0086756
-0.00866296
-0.0086431
-0.00861316
-0.00856698
-2.68302e-05
1.75778e-06
1.46425e-05
1.65392e-05
9.94503e-06
-5.1659e-06
-2.86421e-05
-6.00867e-05
-9.90358e-05
-0.00014498
-0.000197384
-0.000255721
-0.000319503
-0.000388305
-0.000461782
-0.000539677
-0.00062183
-0.000708173
-0.000798729
-0.000893595
-0.00099294
-0.00109698
-0.00120597
-0.00132018
-0.00143989
-0.00156537
-0.00169687
-0.00183462
-0.0019788
-0.00212956
-0.00228696
-0.00245103
-0.0026217
-0.00279884
-0.00298222
-0.00317149
-0.00336621
-0.00356581
-0.00376959
-0.0039767
-0.00418615
-0.00439679
-0.00460732
-0.00481629
-0.00502209
-0.00522295
-0.005417
-0.00560223
-0.00577656
-0.00593781
-0.00608378
-0.00621228
-0.00632113
-0.00640822
-0.0064716
-0.00650942
-0.00652009
-0.00650224
-0.00645482
-0.0063771
-0.00626872
-0.00612975
-0.0059607
-0.00576255
-0.00553671
-0.00528487
-0.00500994
-0.0047145
-0.00440192
-0.00407597
-0.00374078
-0.00340082
-0.00306082
-0.00272569
-0.00240048
-0.00209023
-0.00179991
-0.00153432
-0.00129799
-0.00109505
-0.000929177
-0.00080348
-0.000720425
-0.000681772
-0.000688526
-0.000740903
-0.000838321
-0.000979414
-0.00116206
-0.00138344
-0.0016401
-0.00192807
-0.00224295
-0.00258002
-0.00293439
-0.00330108
-0.00367521
-0.00405204
-0.00442712
-0.00479636
-0.0051561
-0.00550317
-0.0058349
-0.00614916
-0.00644434
-0.00671931
-0.00697344
-0.00720648
-0.00741858
-0.00761019
-0.007782
-0.0079349
-0.00806994
-0.00818822
-0.00829091
-0.00837916
-0.00845407
-0.00851668
-0.00856794
-0.00860865
-0.0086395
-0.00866102
-0.00867362
-0.00867752
-0.00867278
-0.00865958
-0.00863817
-0.00860429
-0.00854979
-4.78914e-06
2.42453e-05
3.69445e-05
3.82404e-05
3.08458e-05
1.48878e-05
-9.34744e-06
-4.13474e-05
-8.05605e-05
-0.00012642
-0.000178356
-0.000235829
-0.00029835
-0.000365506
-0.000436969
-0.000512513
-0.000592015
-0.00067545
-0.000762885
-0.00085447
-0.000950424
-0.00105102
-0.00115656
-0.00126737
-0.0013838
-0.00150617
-0.0016348
-0.00176999
-0.00191197
-0.00206097
-0.00221713
-0.00238056
-0.00255126
-0.00272918
-0.00291416
-0.00310594
-0.00330412
-0.0035082
-0.00371751
-0.00393126
-0.00414845
-0.00436794
-0.00458842
-0.00480838
-0.00502616
-0.00523994
-0.00544772
-0.00564742
-0.00583682
-0.00601362
-0.00617548
-0.00632007
-0.00644505
-0.0065482
-0.0066274
-0.00668068
-0.00670631
-0.00670282
-0.00666902
-0.0066041
-0.00650761
-0.00637953
-0.0062203
-0.00603085
-0.00581258
-0.00556717
-0.00529724
-0.00500561
-0.00469561
-0.00437099
-0.0040359
-0.00369484
-0.00335258
-0.0030141
-0.0026845
-0.00236892
-0.00207242
-0.00179992
-0.00155607
-0.00134512
-0.00117091
-0.00103666
-0.000944991
-0.000897798
-0.000896209
-0.000940555
-0.00103035
-0.00116429
-0.00134033
-0.00155564
-0.0018068
-0.0020898
-0.00240017
-0.00273313
-0.00308369
-0.00344677
-0.00381738
-0.00419066
-0.00456205
-0.00492736
-0.00528285
-0.00562528
-0.00595194
-0.00626068
-0.00654988
-0.00681848
-0.00706585
-0.00729187
-0.00749674
-0.00768101
-0.00784551
-0.00799122
-0.00811931
-0.00823099
-0.00832753
-0.00841016
-0.00848007
-0.00853835
-0.00858597
-0.00862377
-0.00865239
-0.00867231
-0.0086838
-0.00868691
-0.00868142
-0.0086672
-0.00864412
-0.00860693
-0.00854607
2.8986e-05
5.69666e-05
6.85732e-05
6.86625e-05
5.99767e-05
4.27534e-05
1.73882e-05
-1.55145e-05
-5.53305e-05
-0.000101441
-0.000153243
-0.000210179
-0.000271757
-0.000337572
-0.000407321
-0.000480811
-0.000557957
-0.000638786
-0.000723422
-0.000812077
-0.000905036
-0.00100264
-0.00110526
-0.0012133
-0.00132718
-0.00144731
-0.00157409
-0.0017079
-0.00184907
-0.0019979
-0.00215465
-0.00231949
-0.00249254
-0.00267381
-0.00286323
-0.0030606
-0.0032656
-0.00347776
-0.00369644
-0.00392085
-0.00414998
-0.00438267
-0.00461752
-0.00485297
-0.00508725
-0.00531842
-0.00554436
-0.00576282
-0.00597143
-0.00616773
-0.00634922
-0.00651338
-0.00665774
-0.00677989
-0.00687757
-0.00694867
-0.00699133
-0.00700395
-0.00698526
-0.00693432
-0.00685062
-0.00673406
-0.00658502
-0.00640434
-0.00619333
-0.0059539
-0.00568841
-0.00539968
-0.00509104
-0.00476627
-0.00442953
-0.00408535
-0.00373854
-0.00339414
-0.00305732
-0.00273332
-0.00242732
-0.00214434
-0.00188919
-0.00166629
-0.00147962
-0.00133261
-0.00122804
-0.001168
-0.00115379
-0.0011859
-0.00126398
-0.00138688
-0.0015526
-0.00175844
-0.00200097
-0.00227618
-0.0025796
-0.00290637
-0.00325141
-0.00360954
-0.00397562
-0.00434468
-0.004712
-0.00507327
-0.0054246
-0.00576266
-0.00608466
-0.00638836
-0.00667212
-0.00693486
-0.007176
-0.0073954
-0.00759338
-0.00777057
-0.00792787
-0.00806639
-0.00818741
-0.00829225
-0.00838229
-0.00845887
-0.00852325
-0.00857661
-0.00861997
-0.00865417
-0.00867988
-0.00869752
-0.00870727
-0.00870904
-0.00870242
-0.00868705
-0.0086625
-0.00862292
-0.00855786
7.44859e-05
0.000100053
0.000109665
0.000107892
9.73744e-05
7.84354e-05
5.15545e-05
1.74026e-05
-2.33422e-05
-7.00191e-05
-0.000121999
-0.000178707
-0.000239653
-0.000304445
-0.000372809
-0.000444589
-0.00051975
-0.00059838
-0.000680669
-0.000766903
-0.000857447
-0.000952724
-0.0010532
-0.00115938
-0.00127176
-0.00139087
-0.0015172
-0.00165123
-0.00179342
-0.00194418
-0.00210385
-0.00227272
-0.00245101
-0.00263881
-0.00283614
-0.00304285
-0.00325867
-0.00348315
-0.00371565
-0.00395535
-0.0042012
-0.00445195
-0.00470611
-0.00496199
-0.00521767
-0.00547105
-0.00571984
-0.00596161
-0.00619378
-0.00641372
-0.00661873
-0.00680611
-0.00697321
-0.00711745
-0.00723642
-0.00732789
-0.00738986
-0.0074206
-0.00741876
-0.0073833
-0.00731363
-0.00720959
-0.00707149
-0.0069001
-0.00669666
-0.00646315
-0.00620179
-0.0059154
-0.00560729
-0.00528122
-0.00494137
-0.00459227
-0.00423879
-0.003886
-0.00353915
-0.00320356
-0.00288454
-0.00258726
-0.00231667
-0.00207738
-0.00187358
-0.00170891
-0.00158639
-0.00150832
-0.00147624
-0.00149086
-0.00155206
-0.00165883
-0.00180937
-0.00200108
-0.00223061
-0.00249402
-0.00278682
-0.00310413
-0.00344079
-0.00379154
-0.00415109
-0.00451431
-0.00487636
-0.00523273
-0.00557939
-0.00591284
-0.00623015
-0.006529
-0.00680765
-0.00706496
-0.00730031
-0.00751361
-0.00770516
-0.00787567
-0.00802611
-0.00815769
-0.00827179
-0.00836983
-0.00845331
-0.00852367
-0.00858228
-0.00863039
-0.00866909
-0.00869927
-0.00872159
-0.00873649
-0.00874409
-0.00874421
-0.00873631
-0.00871986
-0.00869426
-0.00865332
-0.00858618
0.000131536
0.000153452
0.000160208
0.000155921
0.000143034
0.000121935
9.31627e-05
5.74295e-05
1.54491e-05
-3.20901e-05
-8.45405e-05
-0.000141324
-0.000201956
-0.00026607
-0.000333424
-0.00040391
-0.000477556
-0.000554518
-0.000635067
-0.000719578
-0.000808509
-0.000902386
-0.00100179
-0.00110732
-0.00121961
-0.0013393
-0.00146702
-0.00160337
-0.00174893
-0.00190423
-0.00206974
-0.00224587
-0.00243292
-0.00263108
-0.00284043
-0.00306087
-0.00329214
-0.0035338
-0.00378516
-0.00404533
-0.00431317
-0.00458731
-0.0048661
-0.0051477
-0.00542998
-0.00571065
-0.00598721
-0.006257
-0.00651725
-0.0067651
-0.00699765
-0.00721201
-0.00740536
-0.00757496
-0.00771824
-0.00783284
-0.00791663
-0.00796781
-0.00798488
-0.00796675
-0.00791274
-0.00782261
-0.0076966
-0.00753544
-0.00734033
-0.00711309
-0.00685597
-0.00657174
-0.00626366
-0.00593546
-0.0055913
-0.00523572
-0.00487357
-0.00451
-0.0041503
-0.00379988
-0.00346417
-0.00314848
-0.00285794
-0.00259738
-0.0023712
-0.00218332
-0.00203702
-0.00193489
-0.00187876
-0.00186964
-0.00190766
-0.00199211
-0.00212138
-0.00229308
-0.00250401
-0.00275034
-0.00302763
-0.00333102
-0.0036553
-0.00399513
-0.0043451
-0.00469995
-0.00505464
-0.00540448
-0.00574526
-0.00607328
-0.00638544
-0.00667926
-0.00695285
-0.00720498
-0.00743496
-0.00764262
-0.00782829
-0.00799267
-0.00813678
-0.0082619
-0.00836948
-0.00846105
-0.00853821
-0.00860248
-0.00865536
-0.00869817
-0.00873208
-0.00875806
-0.0087768
-0.00878874
-0.008794
-0.00879236
-0.0087832
-0.00876591
-0.00873977
-0.00869852
-0.00863124
0.000199841
0.000216964
0.000220056
0.000212644
0.00019688
0.000173204
0.000142192
0.000104572
6.10739e-05
1.23977e-05
-4.08059e-05
-9.7968e-05
-0.000158626
-0.000222445
-0.00028923
-0.000358932
-0.000431652
-0.000507629
-0.000587228
-0.000670927
-0.000759298
-0.000852988
-0.000952699
-0.00105918
-0.0011732
-0.00129553
-0.00142695
-0.00156822
-0.00172004
-0.00188309
-0.00205798
-0.0022452
-0.00244517
-0.00265816
-0.00288427
-0.00312344
-0.0033754
-0.00363963
-0.0039154
-0.00420169
-0.00449722
-0.00480043
-0.0051095
-0.00542235
-0.00573665
-0.00604986
-0.00635924
-0.0066619
-0.00695484
-0.00723498
-0.00749921
-0.00774447
-0.00796775
-0.00816616
-0.00833698
-0.00847773
-0.00858617
-0.00866039
-0.0086988
-0.00870022
-0.00866388
-0.00858947
-0.00847715
-0.00832756
-0.00814186
-0.00792174
-0.0076694
-0.00738754
-0.00707934
-0.0067485
-0.00639911
-0.00603569
-0.00566308
-0.00528645
-0.00491112
-0.0045426
-0.00418641
-0.00384803
-0.00353275
-0.00324564
-0.00299137
-0.00277413
-0.00259755
-0.00246455
-0.00237732
-0.00233723
-0.00234477
-0.00239957
-0.00250033
-0.00264494
-0.00283044
-0.00305316
-0.0033088
-0.00359257
-0.00389927
-0.0042235
-0.00455978
-0.00490268
-0.005247
-0.00558785
-0.00592079
-0.00624192
-0.0065479
-0.00683604
-0.0071043
-0.00735125
-0.00757608
-0.00777853
-0.00795886
-0.00811773
-0.00825618
-0.0083755
-0.0084772
-0.00856288
-0.0086342
-0.00869282
-0.00874029
-0.00877805
-0.00880735
-0.00882921
-0.00884441
-0.00885342
-0.00885638
-0.00885306
-0.00884284
-0.00882504
-0.00879893
-0.00875834
-0.00869265
0.000279002
0.000290262
0.000288946
0.000277847
0.000258745
0.000232116
0.000198555
0.000158773
0.000113506
6.34366e-05
9.20052e-06
-4.86592e-05
-0.000109716
-0.00017368
-0.000240419
-0.000309958
-0.000382483
-0.000458331
-0.000537979
-0.000622025
-0.000711171
-0.000806205
-0.000907981
-0.0010174
-0.00113539
-0.0012629
-0.00140086
-0.00155019
-0.00171175
-0.00188637
-0.00207477
-0.00227756
-0.00249524
-0.00272811
-0.00297633
-0.00323979
-0.00351817
-0.00381087
-0.00411702
-0.00443543
-0.00476464
-0.00510287
-0.00544806
-0.00579787
-0.00614973
-0.00650083
-0.00684818
-0.00718863
-0.00751896
-0.00783588
-0.00813607
-0.00841627
-0.00867333
-0.0089042
-0.00910603
-0.00927622
-0.00941243
-0.00951262
-0.00957513
-0.00959868
-0.00958242
-0.00952593
-0.00942928
-0.00929301
-0.0091182
-0.00890643
-0.00865978
-0.00838086
-0.00807277
-0.00773909
-0.00738386
-0.00701152
-0.0066269
-0.00623512
-0.00584155
-0.00545174
-0.00507131
-0.00470587
-0.00436093
-0.00404178
-0.00375336
-0.00350021
-0.00328631
-0.00311499
-0.00298886
-0.00290974
-0.00287855
-0.00289535
-0.00295926
-0.00306852
-0.00322053
-0.00341188
-0.00363849
-0.00389569
-0.00417837
-0.00448113
-0.00479844
-0.00512474
-0.00545466
-0.00578312
-0.00610545
-0.00641747
-0.0067156
-0.00699691
-0.00725909
-0.00750051
-0.00772018
-0.00791767
-0.00809312
-0.00824711
-0.00838061
-0.00849492
-0.00859153
-0.0086721
-0.00873835
-0.00879199
-0.00883466
-0.00886789
-0.00889301
-0.00891112
-0.00892308
-0.00892941
-0.0089303
-0.00892557
-0.0089146
-0.00889673
-0.00887121
-0.00883218
-0.00876953
0.000368515
0.000372897
0.000366483
0.000351189
0.00032834
0.000298431
0.000262052
0.000219884
0.000172618
0.00012091
6.53563e-05
6.45503e-06
-5.54202e-05
-0.000120046
-0.000187365
-0.000257494
-0.00033072
-0.000407496
-0.000488425
-0.000574246
-0.000665814
-0.000764077
-0.000870061
-0.000984843
-0.00110953
-0.00124526
-0.00139312
-0.00155423
-0.00172959
-0.00192018
-0.00212683
-0.00235026
-0.002591
-0.0028494
-0.00312557
-0.00341935
-0.00373033
-0.00405774
-0.00440055
-0.00475735
-0.00512644
-0.00550579
-0.00589305
-0.00628562
-0.00668064
-0.00707503
-0.00746553
-0.00784876
-0.00822125
-0.00857949
-0.00892
-0.00923933
-0.00953417
-0.00980133
-0.0100378
-0.010241
-0.0104083
-0.0105377
-0.0106273
-0.0106759
-0.0106824
-0.0106464
-0.0105677
-0.0104468
-0.0102847
-0.0100829
-0.00984318
-0.00956814
-0.00926072
-0.00892439
-0.00856306
-0.00818108
-0.0077832
-0.00737451
-0.00696035
-0.0065463
-0.00613806
-0.00574137
-0.0053619
-0.00500519
-0.00467648
-0.00438065
-0.00412209
-0.00390458
-0.00373122
-0.00360434
-0.00352539
-0.00349496
-0.00351268
-0.00357729
-0.00368661
-0.00383762
-0.00402655
-0.00424897
-0.00449993
-0.00477411
-0.00506596
-0.00536985
-0.00568028
-0.00599194
-0.00629993
-0.0065998
-0.00688768
-0.00716033
-0.00741516
-0.00765027
-0.0078644
-0.00805692
-0.00822777
-0.0083774
-0.00850666
-0.00861678
-0.00870921
-0.0087856
-0.00884769
-0.00889724
-0.00893595
-0.00896541
-0.00898704
-0.00900202
-0.00901127
-0.0090154
-0.00901466
-0.00900892
-0.00899762
-0.00898015
-0.00895579
-0.00891907
-0.00886064
0.000467748
0.000464278
0.000452116
0.000432178
0.000405231
0.000371772
0.000332359
0.000287605
0.000238136
0.000184548
0.000127374
6.70473e-05
3.86647e-06
-6.20293e-05
-0.000130678
-0.000202302
-0.000277311
-0.00035629
-0.000439992
-0.000529315
-0.000625287
-0.00072904
-0.00084179
-0.000964809
-0.0010994
-0.0012469
-0.00140859
-0.00158574
-0.00177954
-0.00199107
-0.00222129
-0.00247095
-0.00274063
-0.00303065
-0.00334105
-0.00367157
-0.00402162
-0.00439026
-0.00477621
-0.00517782
-0.00559309
-0.0060197
-0.00645503
-0.00689615
-0.00733993
-0.00778298
-0.00822182
-0.00865279
-0.00907222
-0.00947639
-0.00986162
-0.0102243
-0.010561
-0.0108684
-0.0111434
-0.0113831
-0.0115851
-0.011747
-0.011867
-0.0119436
-0.0119758
-0.0119629
-0.0119047
-0.0118016
-0.0116543
-0.0114642
-0.0112331
-0.0109632
-0.0106573
-0.0103189
-0.00995161
-0.00955969
-0.00914776
-0.00872082
-0.00828418
-0.00784339
-0.00740418
-0.0069724
-0.00655387
-0.00615436
-0.00577939
-0.00543421
-0.00512363
-0.00485193
-0.00462274
-0.00443897
-0.00430271
-0.00421514
-0.00417655
-0.00418627
-0.00424267
-0.00434325
-0.00448468
-0.00466287
-0.00487315
-0.00511036
-0.00536901
-0.00564347
-0.00592811
-0.00621747
-0.00650638
-0.00679012
-0.0070645
-0.00732593
-0.00757149
-0.00779894
-0.00800672
-0.0081939
-0.00836018
-0.00850578
-0.00863139
-0.00873808
-0.00882725
-0.00890046
-0.00895944
-0.00900594
-0.00904171
-0.00906838
-0.00908741
-0.00910008
-0.00910737
-0.00910996
-0.00910818
-0.00910198
-0.00909088
-0.00907432
-0.00905164
-0.00901787
-0.00896454
0.000575904
0.000563622
0.000545134
0.000520152
0.000488815
0.000451592
0.000408972
0.000361466
0.000309599
0.00025388
0.000194753
0.000132561
6.75044e-05
-3.80844e-07
-7.1248e-05
-0.000145447
-0.000223526
-0.000306228
-0.000394473
-0.000489342
-0.000592057
-0.000703953
-0.000826455
-0.000961047
-0.00110925
-0.00127258
-0.00145254
-0.00165055
-0.00186795
-0.00210593
-0.00236551
-0.00264749
-0.00295242
-0.00328053
-0.00363176
-0.00400568
-0.00440148
-0.004818
-0.00525365
-0.00570651
-0.00617426
-0.00665427
-0.00714358
-0.00763898
-0.00813701
-0.00863405
-0.00912631
-0.00960993
-0.010081
-0.0105356
-0.01097
-0.0113802
-0.0117628
-0.0121143
-0.0124316
-0.0127115
-0.0129516
-0.0131494
-0.0133029
-0.0134107
-0.0134715
-0.0134845
-0.0134495
-0.0133665
-0.0132363
-0.01306
-0.0128391
-0.012576
-0.012273
-0.0119334
-0.0115608
-0.0111591
-0.0107329
-0.0102869
-0.00982651
-0.0093571
-0.00888443
-0.00841436
-0.00795287
-0.00750588
-0.00707922
-0.00667846
-0.00630884
-0.00597516
-0.00568164
-0.00543181
-0.00522846
-0.00507349
-0.00496793
-0.00491182
-0.00490425
-0.00494335
-0.00502637
-0.00514973
-0.00530914
-0.00549971
-0.00571615
-0.00595288
-0.00620422
-0.00646458
-0.00672856
-0.00699116
-0.00724785
-0.00749466
-0.00772828
-0.0079461
-0.00814615
-0.00832717
-0.00848852
-0.00863014
-0.00875248
-0.00885642
-0.00894316
-0.0090142
-0.00907115
-0.00911575
-0.00914971
-0.0091747
-0.00919221
-0.00920355
-0.00920979
-0.00921166
-0.00920958
-0.00920357
-0.00919325
-0.00917813
-0.00915762
-0.0091273
-0.00907966
0.000691981
0.000669981
0.00064461
0.000614249
0.000578292
0.000537141
0.000491181
0.000440775
0.000386318
0.000328196
0.000266737
0.000202166
0.000134564
6.38411e-05
-1.02922e-05
-8.83352e-05
-0.000170999
-0.000259202
-0.000354058
-0.00045685
-0.000569014
-0.000692109
-0.000827782
-0.000977744
-0.00114373
-0.00132747
-0.00153063
-0.00175481
-0.00200145
-0.00227184
-0.00256701
-0.00288775
-0.00323453
-0.00360747
-0.00400632
-0.00443044
-0.00487876
-0.00534982
-0.00584172
-0.00635221
-0.00687863
-0.00741802
-0.00796709
-0.00852232
-0.00907995
-0.00963608
-0.0101867
-0.0107277
-0.0112549
-0.0117643
-0.0122519
-0.0127137
-0.0131461
-0.0135454
-0.0139084
-0.014232
-0.0145134
-0.0147502
-0.0149404
-0.0150822
-0.0151744
-0.015216
-0.0152066
-0.0151463
-0.0150354
-0.014875
-0.0146665
-0.0144118
-0.0141133
-0.0137739
-0.0133969
-0.0129863
-0.0125461
-0.0120812
-0.0115965
-0.0110974
-0.0105897
-0.010079
-0.0095716
-0.00907339
-0.00859046
-0.00812871
-0.00769379
-0.007291
-0.00692515
-0.00660045
-0.00632044
-0.00608782
-0.00590445
-0.00577123
-0.00568807
-0.00565393
-0.00566676
-0.00572365
-0.00582085
-0.00595393
-0.00611787
-0.00630728
-0.00651653
-0.00673994
-0.00697195
-0.00720727
-0.00744103
-0.00766887
-0.00788704
-0.00809248
-0.00828279
-0.00845627
-0.00861189
-0.00874923
-0.0088684
-0.00897002
-0.00905507
-0.00912484
-0.00918084
-0.00922468
-0.00925805
-0.00928255
-0.00929971
-0.00931085
-0.00931707
-0.00931917
-0.00931763
-0.00931255
-0.00930363
-0.00929048
-0.00927258
-0.00924609
-0.00920447
0.000814757
0.000782162
0.000749413
0.000713394
0.000672639
0.000627441
0.000578035
0.000524594
0.000467341
0.000406508
0.000342273
0.000274721
0.000203788
0.000129235
5.06115e-05
-3.27523e-05
-0.000121754
-0.000217512
-0.000321353
-0.000434786
-0.000559479
-0.000697227
-0.000849916
-0.00101949
-0.00120789
-0.00141705
-0.00164881
-0.00190489
-0.00218682
-0.00249593
-0.00283323
-0.00319943
-0.00359488
-0.00401952
-0.00447287
-0.004954
-0.00546155
-0.00599372
-0.00654827
-0.00712258
-0.00771365
-0.00831817
-0.00893251
-0.00955284
-0.0101751
-0.0107951
-0.0114087
-0.0120114
-0.0125989
-0.0131671
-0.0137117
-0.0142287
-0.0147142
-0.0151647
-0.0155765
-0.0159467
-0.0162724
-0.016551
-0.0167804
-0.0169588
-0.0170848
-0.0171574
-0.017176
-0.0171405
-0.0170511
-0.0169088
-0.0167146
-0.0164704
-0.0161782
-0.0158407
-0.015461
-0.0150426
-0.0145897
-0.0141065
-0.0135979
-0.0130692
-0.0125258
-0.0119735
-0.0114183
-0.0108663
-0.0103238
-0.00979692
-0.0092916
-0.00881366
-0.00836847
-0.00796094
-0.00759537
-0.00727534
-0.00700361
-0.00678204
-0.00661153
-0.00649196
-0.00642222
-0.00640022
-0.00642293
-0.00648654
-0.0065865
-0.00671774
-0.0068748
-0.00705203
-0.00724375
-0.00744445
-0.00764891
-0.00785237
-0.00805063
-0.00824011
-0.00841792
-0.00858186
-0.0087304
-0.00886269
-0.00897843
-0.00907789
-0.00916174
-0.00923102
-0.00928704
-0.00933125
-0.00936521
-0.00939047
-0.0094085
-0.00942063
-0.00942796
-0.00943131
-0.00943122
-0.00942785
-0.00942101
-0.00941035
-0.00939545
-0.00937302
-0.00933751
0.000942758
0.000898735
0.000858166
0.000816266
0.000770584
0.000721258
0.000668317
0.000611701
0.00055142
0.000487513
0.000419985
0.000348745
0.000273565
0.000194028
0.000109502
1.91206e-05
-7.82234e-05
-0.000183872
-0.000299386
-0.000426517
-0.000567183
-0.000723426
-0.000897376
-0.0010912
-0.00130707
-0.00154707
-0.0018132
-0.00210726
-0.00243084
-0.00278523
-0.0031714
-0.00358991
-0.00404093
-0.00452414
-0.00503879
-0.00558363
-0.00615695
-0.00675658
-0.00737991
-0.00802393
-0.0086853
-0.00936032
-0.0100451
-0.0107353
-0.0114268
-0.0121151
-0.0127957
-0.0134639
-0.0141154
-0.0147458
-0.0153506
-0.0159257
-0.0164672
-0.0169713
-0.0174345
-0.0178536
-0.0182258
-0.0185483
-0.0188189
-0.0190359
-0.0191977
-0.0193032
-0.0193517
-0.019343
-0.0192771
-0.0191548
-0.018977
-0.0187452
-0.0184614
-0.0181278
-0.0177473
-0.0173232
-0.0168592
-0.0163594
-0.0158284
-0.015271
-0.0146927
-0.0140989
-0.0134956
-0.012889
-0.0122851
-0.0116905
-0.0111112
-0.0105537
-0.0100236
-0.00952663
-0.00906782
-0.00865163
-0.0082818
-0.00796123
-0.00769189
-0.00747479
-0.00730988
-0.0071961
-0.00713136
-0.00711264
-0.00713608
-0.00719712
-0.00729064
-0.00741113
-0.00755294
-0.00771038
-0.00787795
-0.00805049
-0.00822332
-0.00839232
-0.00855402
-0.00870566
-0.00884515
-0.00897109
-0.00908271
-0.00917981
-0.00926269
-0.00933204
-0.00938888
-0.00943447
-0.00947017
-0.0094974
-0.00951754
-0.00953187
-0.00954145
-0.00954713
-0.00954945
-0.00954861
-0.0095445
-0.00953685
-0.00952528
-0.00950705
-0.00947753
0.00107424
0.00101801
0.000969234
0.00092128
0.000870589
0.000817073
0.000760518
0.000700571
0.000636986
0.000569578
0.000498143
0.000422394
0.000341904
0.00025606
0.000164019
6.46949e-05
-4.32526e-05
-0.00016141
-0.000291592
-0.000435809
-0.00059624
-0.000775182
-0.000975005
-0.0011981
-0.00144682
-0.00172341
-0.00202997
-0.00236835
-0.00274013
-0.00314653
-0.00358837
-0.00406605
-0.00457945
-0.005128
-0.00571058
-0.00632558
-0.00697091
-0.007644
-0.00834184
-0.00906104
-0.00979786
-0.0105483
-0.011308
-0.0120725
-0.0128372
-0.0135974
-0.0143483
-0.0150853
-0.0158036
-0.0164987
-0.017166
-0.0178015
-0.0184009
-0.0189604
-0.0194766
-0.0199462
-0.0203661
-0.0207338
-0.0210471
-0.0213039
-0.0215028
-0.0216425
-0.0217224
-0.0217419
-0.0217011
-0.0216006
-0.021441
-0.0212237
-0.0209503
-0.0206229
-0.0202439
-0.0198165
-0.0193439
-0.0188299
-0.0182787
-0.017695
-0.0170836
-0.0164501
-0.0158
-0.0151393
-0.0144742
-0.0138111
-0.0131564
-0.0125167
-0.0118982
-0.011307
-0.010749
-0.0102295
-0.00975323
-0.00932414
-0.00894541
-0.00861926
-0.00834688
-0.00812842
-0.00796294
-0.00784847
-0.00778206
-0.00775986
-0.00777731
-0.00782928
-0.00791023
-0.00801445
-0.00813624
-0.00827007
-0.00841079
-0.00855372
-0.00869477
-0.00883054
-0.00895828
-0.00907596
-0.00918224
-0.00927636
-0.00935813
-0.00942783
-0.00948611
-0.00953392
-0.00957239
-0.00960273
-0.00962617
-0.00964389