/*--------------------------------*- C++ -*----------------------------------*\
| =========                 |                                                 |
| \\      /  F ield         | OpenFOAM: The Open Source CFD Toolbox           |
|  \\    /   O peration     | Version:  2112                                  |
|   \\  /    A nd           | Website:  www.openfoam.com                      |
|    \\/     M anipulation  |                                                 |
\*---------------------------------------------------------------------------*/
FoamFile
{
    version     2.0;
    format      ascii;
    arch        "LSB;label=32;scalar=64";
    class       surfaceScalarField;
    location    "31";
    object      phi;
}
// * * * * * * * * * * * * * * * * * * * * * * * * * * * * * * * * * * * * * //

dimensions      [0 3 -1 0 0 0 0];

oriented        oriented;

internalField   nonuniform List<scalar> 
33024
(
-3.3016e-09
3.35445e-09
2.28857e-08
-2.61836e-08
7.90592e-08
-5.61766e-08
1.56836e-07
-7.77733e-08
2.47771e-07
-9.09367e-08
3.44737e-07
-9.6969e-08
4.42058e-07
-9.73191e-08
5.35384e-07
-9.33244e-08
6.21498e-07
-8.6115e-08
6.98118e-07
-7.66198e-08
7.63715e-07
-6.55971e-08
8.17373e-07
-5.36579e-08
8.58657e-07
-4.12838e-08
8.87496e-07
-2.88389e-08
9.04077e-07
-1.65819e-08
9.08756e-07
-4.6787e-09
9.01964e-07
6.79212e-09
8.84149e-07
1.78154e-08
8.55711e-07
2.84387e-08
8.16958e-07
3.8753e-08
7.68075e-07
4.88828e-08
7.09102e-07
5.89725e-08
6.39925e-07
6.9176e-08
5.60279e-07
7.96456e-08
4.69756e-07
9.0523e-08
3.67823e-07
1.01933e-07
2.53846e-07
1.13978e-07
1.27111e-07
1.26736e-07
-1.31498e-08
1.40261e-07
-1.67728e-07
1.54578e-07
-3.37418e-07
1.69689e-07
-5.2299e-07
1.85571e-07
-7.25169e-07
2.02179e-07
-9.44614e-07
2.19446e-07
-1.1819e-06
2.37287e-07
-1.4375e-06
2.55597e-07
-1.71175e-06
2.74255e-07
-2.00487e-06
2.93122e-07
-2.31691e-06
3.12041e-07
-2.64775e-06
3.30839e-07
-2.99708e-06
3.49327e-07
-3.36438e-06
3.67299e-07
-3.74892e-06
3.84536e-07
-4.14972e-06
4.00805e-07
-4.56559e-06
4.15863e-07
-4.99504e-06
4.29457e-07
-5.43637e-06
4.41327e-07
-5.88758e-06
4.51212e-07
-6.34643e-06
4.58849e-07
-6.81041e-06
4.63982e-07
-7.27677e-06
4.66359e-07
-7.74251e-06
4.65742e-07
-8.20442e-06
4.61907e-07
-8.65907e-06
4.54651e-07
-9.10286e-06
4.43794e-07
-9.53205e-06
4.29186e-07
-9.94275e-06
4.10706e-07
-1.0331e-05
3.88271e-07
-1.06929e-05
3.61836e-07
-1.10243e-05
3.31401e-07
-1.13213e-05
2.97009e-07
-1.158e-05
2.58753e-07
-1.17968e-05
2.16778e-07
-1.19681e-05
1.71286e-07
-1.20906e-05
1.22556e-07
-1.21616e-05
7.09075e-08
-1.21783e-05
1.67199e-08
-1.21383e-05
-4.0006e-08
-1.20402e-05
-9.81006e-08
-1.18827e-05
-1.57438e-07
-1.16653e-05
-2.17385e-07
-1.1388e-05
-2.77323e-07
-1.10514e-05
-3.36605e-07
-1.06569e-05
-3.94555e-07
-1.02064e-05
-4.50478e-07
-9.70271e-06
-5.03672e-07
-9.14927e-06
-5.53439e-07
-8.55017e-06
-5.99097e-07
-7.91018e-06
-6.39996e-07
-7.23465e-06
-6.75532e-07
-6.52949e-06
-7.05158e-07
-5.80109e-06
-7.28403e-07
-5.0562e-06
-7.44885e-07
-4.30188e-06
-7.5432e-07
-3.54535e-06
-7.56535e-07
-2.79387e-06
-7.51479e-07
-2.05465e-06
-7.39221e-07
-1.33469e-06
-7.19958e-07
-6.40683e-07
-6.94007e-07
2.11373e-08
-6.6182e-07
6.45184e-07
-6.24047e-07
1.22632e-06
-5.81136e-07
1.76029e-06
-5.33968e-07
2.2436e-06
-4.83317e-07
2.67364e-06
-4.30041e-07
3.04865e-06
-3.75007e-07
3.36774e-06
-3.19088e-07
3.63088e-06
-2.6314e-07
3.83885e-06
-2.07975e-07
3.9932e-06
-1.54346e-07
4.09613e-06
-1.0293e-07
4.15044e-06
-5.43141e-08
4.15943e-06
-8.9886e-09
4.12677e-06
3.26655e-08
4.0564e-06
7.03679e-08
3.95245e-06
1.0395e-07
3.81911e-06
1.33341e-07
3.66054e-06
1.58567e-07
3.4808e-06
1.79739e-07
3.28376e-06
1.9704e-07
3.07305e-06
2.10716e-07
2.85199e-06
2.21054e-07
2.62362e-06
2.28374e-07
2.39062e-06
2.33001e-07
2.15536e-06
2.35253e-07
1.91995e-06
2.35409e-07
1.68627e-06
2.33685e-07
1.45606e-06
2.30204e-07
1.2311e-06
2.2496e-07
1.01333e-06
2.17779e-07
8.05044e-07
2.08281e-07
6.09201e-07
1.95844e-07
4.29626e-07
1.79575e-07
2.71298e-07
1.58327e-07
1.40479e-07
1.3082e-07
4.44174e-08
9.60612e-08
-9.99364e-09
5.44112e-08
-2.05355e-08
1.05421e-08
-2.05353e-08
2.61132e-08
-2.27544e-08
1.15867e-07
-1.15947e-07
2.62738e-07
-2.0304e-07
4.52756e-07
-2.67792e-07
6.7041e-07
-3.08591e-07
9.01097e-07
-3.27654e-07
1.13218e-06
-3.28399e-07
1.3533e-06
-3.14446e-07
1.55633e-06
-2.89145e-07
1.73514e-06
-2.55437e-07
1.88537e-06
-2.15821e-07
2.00409e-06
-1.72372e-07
2.08956e-06
-1.2676e-07
2.14099e-06
-8.02711e-08
2.15825e-06
-3.38442e-08
2.14168e-06
1.18948e-08
2.09186e-06
5.66131e-08
2.00946e-06
1.00214e-07
1.8951e-06
1.42805e-07
1.74919e-06
1.84655e-07
1.57193e-06
2.26148e-07
1.36316e-06
2.67742e-07
1.12241e-06
3.09928e-07
8.48861e-07
3.53195e-07
5.41384e-07
3.98e-07
1.98574e-07
4.44742e-07
-1.81195e-07
4.93745e-07
-5.99704e-07
5.45244e-07
-1.05883e-06
5.99381e-07
-1.56045e-06
6.56202e-07
-2.10642e-06
7.15658e-07
-2.69846e-06
7.77612e-07
-3.33812e-06
8.4184e-07
-4.02671e-06
9.08038e-07
-4.76525e-06
9.7583e-07
-5.55442e-06
1.04476e-06
-6.39449e-06
1.11433e-06
-7.28531e-06
1.18394e-06
-8.22622e-06
1.25295e-06
-9.21606e-06
1.32067e-06
-1.02531e-05
1.38635e-06
-1.1335e-05
1.44918e-06
-1.24588e-05
1.50833e-06
-1.36209e-05
1.56291e-06
-1.4817e-05
1.61201e-06
-1.60423e-05
1.65474e-06
-1.72911e-05
1.69015e-06
-1.85573e-05
1.71735e-06
-1.98338e-05
1.73542e-06
-2.11134e-05
1.74353e-06
-2.23879e-05
1.74087e-06
-2.36488e-05
1.72667e-06
-2.48872e-05
1.70029e-06
-2.60937e-05
1.66114e-06
-2.72586e-05
1.60874e-06
-2.83722e-05
1.54273e-06
-2.94243e-05
1.46287e-06
-3.04051e-05
1.36906e-06
-3.13047e-05
1.26135e-06
-3.21132e-05
1.13993e-06
-3.28213e-05
1.00515e-06
-3.34201e-05
8.57542e-07
-3.39011e-05
6.97779e-07
-3.42566e-05
5.26738e-07
-3.44795e-05
3.45515e-07
-3.45639e-05
1.55314e-07
-3.45048e-05
-4.24374e-08
-3.42977e-05
-2.47063e-07
-3.39401e-05
-4.55682e-07
-3.34306e-05
-6.66953e-07
-3.27691e-05
-8.7893e-07
-3.19569e-05
-1.08955e-06
-3.09968e-05
-1.29667e-06
-2.98933e-05
-1.49807e-06
-2.86523e-05
-1.69151e-06
-2.72812e-05
-1.87473e-06
-2.57891e-05
-2.04553e-06
-2.41865e-05
-2.20174e-06
-2.24851e-05
-2.34133e-06
-2.06982e-05
-2.46242e-06
-1.88401e-05
-2.56329e-06
-1.6926e-05
-2.6425e-06
-1.4972e-05
-2.69885e-06
-1.29949e-05
-2.73145e-06
-1.10117e-05
-2.73976e-06
-9.03957e-06
-2.7236e-06
-7.09561e-06
-2.68318e-06
-5.19649e-06
-2.61908e-06
-3.35821e-06
-2.53229e-06
-1.59586e-06
-2.42417e-06
7.65336e-08
-2.29644e-06
1.64657e-06
-2.15117e-06
3.10317e-06
-1.99057e-06
4.4371e-06
-1.81725e-06
5.64102e-06
-1.63396e-06
6.70952e-06
-1.4435e-06
7.63917e-06
-1.24874e-06
8.42855e-06
-1.05252e-06
9.07816e-06
-8.57589e-07
9.59036e-06
-6.66539e-07
9.96918e-06
-4.81753e-07
1.02202e-05
-3.05354e-07
1.03504e-05
-1.39168e-07
1.03678e-05
1.53035e-08
1.02812e-05
1.56901e-07
1.01004e-05
2.84812e-07
9.83514e-06
3.98565e-07
9.49569e-06
4.98013e-07
9.09212e-06
5.83311e-07
8.63428e-06
6.54879e-07
8.13164e-06
7.1336e-07
7.59312e-06
7.59574e-07
7.02704e-06
7.94457e-07
6.44104e-06
8.18994e-07
5.84214e-06
8.34152e-07
5.23677e-06
8.40787e-07
4.63089e-06
8.3956e-07
4.03026e-06
8.30831e-07
3.44067e-06
8.14553e-07
2.86828e-06
7.9017e-07
2.32004e-06
7.56519e-07
1.80411e-06
7.11778e-07
1.3302e-06
6.53483e-07
9.09803e-07
5.78724e-07
5.55914e-07
4.84709e-07
2.81878e-07
3.70097e-07
9.87959e-08
2.37494e-07
1.09343e-08
9.84038e-08
-9.60084e-09
5.61214e-08
-7.8879e-08
2.03222e-07
-2.63041e-07
4.23081e-07
-4.22902e-07
6.9626e-07
-5.40975e-07
1.00276e-06
-6.1509e-07
1.32367e-06
-6.48556e-07
1.64218e-06
-6.46913e-07
1.94409e-06
-6.16363e-07
2.21788e-06
-5.62933e-07
2.45455e-06
-4.92104e-07
2.6474e-06
-4.08666e-07
2.79169e-06
-3.1667e-07
2.88436e-06
-2.19425e-07
2.92361e-06
-1.19528e-07
2.90866e-06
-1.88937e-08
2.83939e-06
8.11681e-08
2.71608e-06
1.79927e-07
2.53917e-06
2.77125e-07
2.30906e-06
3.72913e-07
2.02595e-06
4.67765e-07
1.6897e-06
5.62391e-07
1.2998e-06
6.57648e-07
8.5526e-07
7.54465e-07
3.54693e-07
8.53762e-07
-2.03703e-07
9.56397e-07
-8.22067e-07
1.06311e-06
-1.50279e-06
1.17447e-06
-2.24844e-06
1.29089e-06
-3.06161e-06
1.41255e-06
-3.94488e-06
1.53947e-06
-4.90065e-06
1.67143e-06
-5.93107e-06
1.80803e-06
-7.03793e-06
1.94869e-06
-8.22255e-06
2.09266e-06
-9.48574e-06
2.23902e-06
-1.08277e-05
2.38669e-06
-1.22478e-05
2.53447e-06
-1.37449e-05
2.68101e-06
-1.53168e-05
2.82485e-06
-1.69605e-05
2.96441e-06
-1.86722e-05
3.09801e-06
-2.04469e-05
3.2239e-06
-2.22788e-05
3.34026e-06
-2.41611e-05
3.44521e-06
-2.6086e-05
3.53686e-06
-2.80446e-05
3.61333e-06
-3.00272e-05
3.67275e-06
-3.20231e-05
3.71331e-06
-3.4021e-05
3.73329e-06
-3.60085e-05
3.73108e-06
-3.79729e-05
3.70519e-06
-3.99005e-05
3.65432e-06
-4.17776e-05
3.57735e-06
-4.35898e-05
3.47337e-06
-4.53228e-05
3.34171e-06
-4.6962e-05
3.18195e-06
-4.8493e-05
2.99393e-06
-4.99018e-05
2.77781e-06
-5.11744e-05
2.53399e-06
-5.22977e-05
2.26323e-06
-5.32591e-05
1.96655e-06
-5.40469e-05
1.64531e-06
-5.46503e-05
1.30118e-06
-5.50597e-05
9.36137e-07
-5.52668e-05
5.52591e-07
-5.52652e-05
1.53766e-07
-5.5048e-05
-2.59693e-07
-5.46122e-05
-6.82795e-07
-5.39556e-05
-1.11229e-06
-5.30778e-05
-1.54479e-06
-5.19802e-05
-1.97651e-06
-5.06663e-05
-2.40345e-06
-4.91414e-05
-2.82152e-06
-4.7413e-05
-3.2265e-06
-4.54903e-05
-3.61417e-06
-4.33847e-05
-3.98033e-06
-4.11094e-05
-4.32085e-06
-3.86794e-05
-4.63175e-06
-3.61115e-05
-4.90925e-06
-3.3424e-05
-5.14989e-06
-3.06368e-05
-5.35052e-06
-2.77708e-05
-5.50846e-06
-2.48482e-05
-5.6215e-06
-2.18917e-05
-5.68798e-06
-1.89246e-05
-5.70686e-06
-1.59704e-05
-5.67777e-06
-1.30525e-05
-5.60102e-06
-1.0194e-05
-5.47762e-06
-7.41697e-06
-5.30931e-06
-4.7426e-06
-5.09853e-06
-2.19067e-06
-4.84838e-06
2.20722e-07
-4.56257e-06
2.47554e-06
-4.24539e-06
4.55971e-06
-3.90142e-06
6.46175e-06
-3.53599e-06
8.17258e-06
-3.15434e-06
9.68579e-06
-2.76195e-06
1.09976e-05
-2.36434e-06
1.21069e-05
-1.9669e-06
1.30152e-05
-1.5748e-06
1.37263e-05
-1.19288e-06
1.42465e-05
-8.25515e-07
1.45839e-05
-4.76585e-07
1.47486e-05
-1.49372e-07
1.4752e-05
1.53467e-07
1.46069e-05
4.29946e-07
1.43267e-05
6.78724e-07
1.39256e-05
8.99113e-07
1.34179e-05
1.09103e-06
1.28178e-05
1.25494e-06
1.21394e-05
1.39178e-06
1.13961e-05
1.50288e-06
1.06007e-05
1.58982e-06
9.76537e-06
1.65435e-06
8.90135e-06
1.69818e-06
8.01926e-06
1.72287e-06
7.1292e-06
1.72963e-06
6.24092e-06
1.71911e-06
5.36423e-06
1.69124e-06
4.50937e-06
1.64503e-06
3.68743e-06
1.57846e-06
2.91084e-06
1.48837e-06
2.19362e-06
1.3707e-06
1.55149e-06
1.22085e-06
1.00139e-06
1.0348e-06
5.6023e-07
8.1126e-07
2.42494e-07
5.55231e-07
5.65221e-08
2.84375e-07
4.69214e-08
7.81041e-08
-1.56979e-07
2.6925e-07
-4.54187e-07
5.43504e-07
-6.9716e-07
8.7507e-07
-8.7254e-07
1.23994e-06
-9.79961e-07
1.61616e-06
-1.02477e-06
1.98427e-06
-1.01502e-06
2.32762e-06
-9.59715e-07
2.63244e-06
-8.67753e-07
2.88773e-06
-7.47396e-07
3.08505e-06
-6.0598e-07
3.21817e-06
-4.49795e-07
3.28279e-06
-2.84041e-07
3.2761e-06
-1.12842e-07
3.19649e-06
6.072e-08
3.04313e-06
2.34522e-07
2.81574e-06
4.07324e-07
2.51421e-06
5.7865e-07
2.13846e-06
7.48666e-07
1.68817e-06
9.18053e-07
1.1627e-06
1.08786e-06
5.60971e-07
1.25938e-06
-1.18568e-07
1.434e-06
-8.77917e-07
1.61311e-06
-1.71949e-06
1.79797e-06
-2.64603e-06
1.98964e-06
-3.66048e-06
2.18892e-06
-4.7659e-06
2.39631e-06
-5.9653e-06
2.61195e-06
-7.2615e-06
2.83567e-06
-8.65699e-06
3.06692e-06
-1.01538e-05
3.30485e-06
-1.17534e-05
3.54828e-06
-1.34565e-05
3.79575e-06
-1.5263e-05
4.0455e-06
-1.71718e-05
4.29555e-06
-1.9181e-05
4.54366e-06
-2.12874e-05
4.7874e-06
-2.34867e-05
5.02414e-06
-2.57734e-05
5.25108e-06
-2.81407e-05
5.46531e-06
-3.05806e-05
5.6638e-06
-3.30838e-05
5.84347e-06
-3.56398e-05
6.00119e-06
-3.82368e-05
6.13387e-06
-4.08619e-05
6.23848e-06
-4.35012e-05
6.31207e-06
-4.61398e-05
6.35187e-06
-4.87618e-05
6.35529e-06
-5.13507e-05
6.32001e-06
-5.38895e-05
6.24395e-06
-5.63606e-05
6.12539e-06
-5.87462e-05
5.96295e-06
-6.10284e-05
5.75563e-06
-6.31895e-05
5.50283e-06
-6.5212e-05
5.20441e-06
-6.70787e-05
4.86064e-06
-6.87731e-05
4.47226e-06
-7.02796e-05
4.04047e-06
-7.15833e-05
3.56693e-06
-7.26706e-05
3.05377e-06
-7.35288e-05
2.50357e-06
-7.4147e-05
1.91935e-06
-7.45154e-05
1.30457e-06
-7.46256e-05
6.62751e-07
-7.44743e-05
2.46895e-09
-7.40517e-05
-6.82287e-07
-7.33586e-05
-1.37588e-06
-7.23938e-05
-2.07709e-06
-7.11586e-05
-2.78001e-06
-6.96564e-05
-3.47871e-06
-6.78927e-05
-4.16709e-06
-6.58753e-05
-4.83891e-06
-6.3614e-05
-5.48786e-06
-6.11206e-05
-6.10758e-06
-5.84091e-05
-6.6918e-06
-5.54956e-05
-7.23437e-06
-5.23979e-05
-7.7294e-06
-4.91359e-05
-8.17127e-06
-4.5731e-05
-8.55484e-06
-4.22061e-05
-8.87543e-06
-3.85855e-05
-9.12902e-06
-3.48947e-05
-9.31227e-06
-3.11601e-05
-9.42266e-06
-2.74084e-05
-9.45856e-06
-2.36669e-05
-9.41927e-06
-1.99628e-05
-9.30512e-06
-1.63229e-05
-9.11746e-06
-1.27735e-05
-8.8587e-06
-9.33977e-06
-8.5323e-06
-6.04543e-06
-8.14272e-06
-2.91263e-06
-7.69536e-06
3.84696e-08
-7.19649e-06
2.79027e-06
-6.65322e-06
5.32728e-06
-6.073e-06
7.63698e-06
-5.46404e-06
9.70976e-06
-4.83473e-06
1.1539e-05
-4.19354e-06
1.3121e-05
-3.54893e-06
1.44553e-05
-2.90908e-06
1.55442e-05
-2.28176e-06
1.63928e-05
-1.67417e-06
1.7009e-05
-1.09278e-06
1.74029e-05
-5.43221e-07
1.75865e-05
-3.02136e-08
1.7574e-05
4.42529e-07
1.73804e-05
8.72284e-07
1.70222e-05
1.25734e-06
1.65162e-05
1.59697e-06
1.58798e-05
1.89132e-06
1.51303e-05
2.14133e-06
1.42846e-05
2.34861e-06
1.33591e-05
2.51524e-06
1.23699e-05
2.64359e-06
1.1332e-05
2.73609e-06
1.02599e-05
2.79498e-06
9.1675e-06
2.82201e-06
8.06843e-06
2.81818e-06
6.97624e-06
2.78343e-06
5.90487e-06
2.7164e-06
4.86905e-06
2.61427e-06
3.88467e-06
2.47275e-06
2.96907e-06
2.28631e-06
2.14105e-06
2.04887e-06
1.42055e-06
1.7553e-06
8.27845e-07
1.40397e-06
3.82267e-07
1.00081e-06
1.00991e-07
5.65651e-07
1.47913e-07
9.2101e-08
-2.49082e-07
3.12498e-07
-6.74585e-07
6.21868e-07
-1.00653e-06
9.88451e-07
-1.23912e-06
1.38454e-06
-1.37605e-06
1.78571e-06
-1.42594e-06
2.17062e-06
-1.39994e-06
2.52104e-06
-1.31013e-06
2.82174e-06
-1.16845e-06
3.06037e-06
-9.86026e-07
3.22723e-06
-7.72841e-07
3.31496e-06
-5.37523e-07
3.31818e-06
-2.87263e-07
3.23314e-06
-2.78029e-08
3.05734e-06
2.36523e-07
2.78916e-06
5.02707e-07
2.42753e-06
7.68952e-07
1.97165e-06
1.03452e-06
1.42074e-06
1.29958e-06
7.73806e-07
1.56499e-06
2.95321e-08
1.83213e-06
-8.13809e-07
2.10272e-06
-1.75839e-06
2.37858e-06
-2.8068e-06
2.66152e-06
-3.96198e-06
2.95315e-06
-5.22712e-06
3.25478e-06
-6.60551e-06
3.56731e-06
-8.1004e-06
3.8912e-06
-9.71481e-06
4.22637e-06
-1.14514e-05
4.57225e-06
-1.33122e-05
4.92777e-06
-1.52987e-05
5.29133e-06
-1.74113e-05
5.66089e-06
-1.96496e-05
6.03397e-06
-2.20117e-05
6.40768e-06
-2.4495e-05
6.77878e-06
-2.7095e-05
7.14368e-06
-2.98061e-05
7.49853e-06
-3.26212e-05
7.83924e-06
-3.55317e-05
8.16152e-06
-3.85273e-05
8.46093e-06
-4.15964e-05
8.73295e-06
-4.4726e-05
8.97307e-06
-4.79016e-05
9.17677e-06
-5.11074e-05
9.33969e-06
-5.43266e-05
9.45761e-06
-5.75411e-05
9.52658e-06
-6.07321e-05
9.54295e-06
-6.38803e-05
9.50344e-06
-6.69655e-05
9.40521e-06
-6.99674e-05
9.24588e-06
-7.28656e-05
9.02361e-06
-7.56398e-05
8.73709e-06
-7.82698e-05
8.38562e-06
-8.0736e-05
7.96907e-06
-8.30195e-05
7.48794e-06
-8.51023e-05
6.94336e-06
-8.69671e-05
6.33706e-06
-8.8598e-05
5.67137e-06
-8.99803e-05
4.94925e-06
-9.11008e-05
4.17424e-06
-9.19476e-05
3.35042e-06
-9.25107e-05
2.48246e-06
-9.27817e-05
1.57554e-06
-9.27544e-05
6.35501e-07
-9.24209e-05
-3.31075e-07
-9.17834e-05
-1.31983e-06
-9.08378e-05
-2.32148e-06
-8.95856e-05
-3.32922e-06
-8.80301e-05
-4.3355e-06
-8.61765e-05
-5.3324e-06
-8.40318e-05
-6.31173e-06
-8.16055e-05
-7.2652e-06
-7.8909e-05
-8.18439e-06
-7.59556e-05
-9.06092e-06
-7.2761e-05
-9.88648e-06
-6.93424e-05
-1.0653e-05
-6.57192e-05
-1.13525e-05
-6.19127e-05
-1.19778e-05
-5.79456e-05
-1.25219e-05
-5.38424e-05
-1.29786e-05
-4.96289e-05
-1.33425e-05
-4.53322e-05
-1.36091e-05
-4.09801e-05
-1.37747e-05
-3.66014e-05
-1.38372e-05
-3.22254e-05
-1.37953e-05
-2.78814e-05
-1.36492e-05
-2.35985e-05
-1.34004e-05
-1.94054e-05
-1.30518e-05
-1.533e-05
-1.26077e-05
-1.1399e-05
-1.20738e-05
-7.63739e-06
-1.14569e-05
-4.0685e-06
-1.07654e-05
-7.13446e-07
-1.00083e-05
2.4093e-06
-9.19574e-06
5.28385e-06
-8.3386e-06
7.89731e-06
-7.44819e-06
1.02399e-05
-6.53612e-06
1.2305e-05
-5.61406e-06
1.40894e-05
-4.69344e-06
1.55929e-05
-3.78528e-06
1.68186e-05
-2.89992e-06
1.77727e-05
-2.04687e-06
1.84641e-05
-1.23455e-06
1.89041e-05
-4.70221e-07
1.91065e-05
2.40142e-07
1.90868e-05
8.91944e-07
1.88622e-05
1.48194e-06
1.84509e-05
2.00825e-06
1.7872e-05
2.47026e-06
1.71448e-05
2.86851e-06
1.62889e-05
3.2045e-06
1.53236e-05
3.48052e-06
1.42679e-05
3.69933e-06
1.31401e-05
3.86387e-06
1.19581e-05
3.97693e-06
1.07394e-05
4.04075e-06
9.50094e-06
4.05664e-06
8.25977e-06
4.0246e-06
7.03315e-06
3.94302e-06
5.839e-06
3.80843e-06
4.69617e-06
3.61558e-06
3.6248e-06
3.35768e-06
2.64638e-06
3.02729e-06
1.78375e-06
2.61793e-06
1.06101e-06
2.12672e-06
5.03485e-07
1.55833e-06
1.38607e-07
9.30528e-07
2.8652e-07
9.9373e-08
-3.48458e-07
3.34887e-07
-9.10097e-07
6.60664e-07
-1.3323e-06
1.04013e-06
-1.61859e-06
1.44243e-06
-1.77835e-06
1.84109e-06
-1.8246e-06
2.2134e-06
-1.77225e-06
2.54005e-06
-1.63678e-06
2.8049e-06
-1.43329e-06
2.99472e-06
-1.17585e-06
3.09896e-06
-8.77079e-07
3.10938e-06
-5.47953e-07
3.01977e-06
-1.97648e-07
2.8255e-06
1.66471e-07
2.5232e-06
5.38818e-07
2.11042e-06
9.1549e-07
1.58525e-06
1.29412e-06
9.46056e-07
1.67371e-06
1.91244e-07
2.05439e-06
-6.80957e-07
2.43719e-06
-1.6726e-06
2.82378e-06
-2.78612e-06
3.21624e-06
-4.0243e-06
3.61676e-06
-5.39024e-06
4.02747e-06
-6.88731e-06
4.45022e-06
-8.51892e-06
4.88639e-06
-1.02884e-05
5.33683e-06
-1.2199e-05
5.80173e-06
-1.42532e-05
6.28056e-06
-1.6453e-05
6.77212e-06
-1.87997e-05
7.27445e-06
-2.12934e-05
7.78497e-06
-2.39329e-05
8.30043e-06
-2.67159e-05
8.81701e-06
-2.96386e-05
9.33035e-06
-3.26955e-05
9.83562e-06
-3.58794e-05
1.03276e-05
-3.91816e-05
1.08008e-05
-4.25916e-05
1.12493e-05
-4.60972e-05
1.16671e-05
-4.96845e-05
1.20482e-05
-5.33379e-05
1.23864e-05
-5.70406e-05
1.26757e-05
-6.07741e-05
1.29103e-05
-6.4519e-05
1.30846e-05
-6.82548e-05
1.31934e-05
-7.19601e-05
1.32319e-05
-7.5613e-05
1.31959e-05
-7.91912e-05
1.30817e-05
-8.26724e-05
1.28863e-05
-8.60341e-05
1.26076e-05
-8.92543e-05
1.22438e-05
-9.23115e-05
1.17943e-05
-9.51849e-05
1.1259e-05
-9.78546e-05
1.06388e-05
-0.000100302
9.93505e-06
-0.000102509
9.15022e-06
-0.000104459
8.28732e-06
-0.000106138
7.35012e-06
-0.000107531
6.34309e-06
-0.000108629
5.27136e-06
-0.000109419
4.14069e-06
-0.000109894
2.95743e-06
-0.000110047
1.72853e-06
-0.000109873
4.61681e-07
-0.000109368
-8.35751e-07
-0.000108533
-2.15525e-06
-0.000107367
-3.48766e-06
-0.000105872
-4.8238e-06
-0.000104053
-6.15415e-06
-0.000101917
-7.46888e-06
-9.94708e-05
-8.75791e-06
-9.6725e-05
-1.0011e-05
-9.36915e-05
-1.12178e-05
-9.03844e-05
-1.23681e-05
-8.68193e-05
-1.34515e-05
-8.30141e-05
-1.44582e-05
-7.89883e-05
-1.53784e-05
-7.47632e-05
-1.62029e-05
-7.03618e-05
-1.69232e-05
-6.58089e-05
-1.75315e-05
-6.11306e-05
-1.80209e-05
-5.63542e-05
-1.83854e-05
-5.15084e-05
-1.86205e-05
-4.66226e-05
-1.8723e-05
-4.1727e-05
-1.86909e-05
-3.6852e-05
-1.85242e-05
-3.20282e-05
-1.82241e-05
-2.7286e-05
-1.7794e-05
-2.26551e-05
-1.72386e-05
-1.81644e-05
-1.65645e-05
-1.38412e-05
-1.57801e-05
-9.71162e-06
-1.4895e-05
-5.79939e-06
-1.39205e-05
-2.12611e-06
-1.2869e-05
1.28927e-06
-1.1754e-05
4.43068e-06
-1.05896e-05
7.28509e-06
-9.39053e-06
9.84275e-06
-8.17171e-06
1.20972e-05
-6.94793e-06
1.40456e-05
-5.7336e-06
1.56881e-05
-4.54244e-06
1.70284e-05
-3.38724e-06
1.80735e-05
-2.2796e-06
1.8833e-05
-1.2297e-06
1.93193e-05
-2.46208e-07
1.95473e-05
6.63925e-07
1.95338e-05
1.49544e-06
1.92973e-05
2.24481e-06
1.88574e-05
2.91015e-06
1.82348e-05
3.49112e-06
1.74506e-05
3.98871e-06
1.65261e-05
4.40499e-06
1.54827e-05
4.74276e-06
1.43413e-05
5.0052e-06
1.31228e-05
5.19544e-06
1.18475e-05
5.31605e-06
1.05356e-05
5.36858e-06
9.2071e-06
5.35311e-06
7.88228e-06
5.26784e-06
6.5819e-06
5.10881e-06
5.32754e-06
4.86994e-06
4.1419e-06
4.54332e-06
3.04912e-06
4.12007e-06
2.07513e-06
3.59192e-06
1.2482e-06
2.95364e-06
6.00015e-07
2.20652e-06
1.67817e-07
1.36273e-06
4.54337e-07
1.0117e-07
-4.49627e-07
3.39092e-07
-1.14802e-06
6.63839e-07
-1.65705e-06
1.03543e-06
-1.99018e-06
1.42062e-06
-2.16354e-06
1.79141e-06
-2.19539e-06
2.12411e-06
-2.10495e-06
2.39874e-06
-1.91141e-06
2.59862e-06
-1.63317e-06
2.71001e-06
-1.28724e-06
2.72179e-06
-8.88866e-07
2.62513e-06
-4.51293e-07
2.4131e-06
1.43829e-08
2.08033e-06
4.9924e-07
1.62266e-06
9.96493e-07
1.03677e-06
1.50138e-06
3.19892e-07
2.011e-06
-5.30474e-07
2.52408e-06
-1.51679e-06
3.04071e-06
-2.64164e-06
3.56204e-06
-3.90786e-06
4.08999e-06
-5.31852e-06
4.6269e-06
-6.87697e-06
5.17521e-06
-8.58671e-06
5.73722e-06
-1.04513e-05
6.31482e-06
-1.24742e-05
6.90927e-06
-1.46585e-05
7.5211e-06
-1.70067e-05
8.14996e-06
-1.95207e-05
8.79458e-06
-2.22014e-05
9.45276e-06
-2.50483e-05
1.01214e-05
-2.80599e-05
1.07966e-05
-3.12329e-05
1.14734e-05
-3.45624e-05
1.21465e-05
-3.80417e-05
1.28097e-05
-4.16624e-05
1.34563e-05
-4.54139e-05
1.40791e-05
-4.92839e-05
1.46708e-05
-5.32581e-05
1.52235e-05
-5.73207e-05
1.57296e-05
-6.14538e-05
1.61813e-05
-6.56382e-05
1.65708e-05
-6.98533e-05
1.68908e-05
-7.40772e-05
1.71343e-05
-7.82874e-05
1.72948e-05
-8.24604e-05
1.73664e-05
-8.65724e-05
1.73439e-05
-9.05995e-05
1.72229e-05
-9.45176e-05
1.69998e-05
-9.83033e-05
1.6672e-05
-0.000101934
1.62378e-05
-0.000105386
1.56963e-05
-0.000108639
1.50477e-05
-0.000111674
1.42932e-05
-0.00011447
1.34348e-05
-0.00011701
1.24753e-05
-0.000119278
1.14186e-05
-0.00012126
1.02692e-05
-0.000122943
9.03248e-06
-0.000124314
7.71445e-06
-0.000125364
6.32186e-06
-0.000126086
4.86211e-06
-0.000126472
3.34315e-06
-0.000126517
1.77354e-06
-0.000126218
1.62869e-07
-0.000125573
-1.48075e-06
-0.000124582
-3.14603e-06
-0.000123247
-4.82281e-06
-0.00012157
-6.50023e-06
-0.000119558
-8.16709e-06
-0.000117215
-9.81186e-06
-0.00011455
-1.14227e-05
-0.000111573
-1.29878e-05
-0.000108296
-1.44949e-05
-0.000104732
-1.5932e-05
-0.000100896
-1.72871e-05
-9.68063e-05
-1.85482e-05
-9.24806e-05
-1.97041e-05
-8.79399e-05
-2.07436e-05
-8.32066e-05
-2.16565e-05
-7.83048e-05
-2.24333e-05
-7.32603e-05
-2.30654e-05
-6.81e-05
-2.35456e-05
-6.28527e-05
-2.38679e-05
-5.75477e-05
-2.40279e-05
-5.22157e-05
-2.40229e-05
-4.68878e-05
-2.38521e-05
-4.15955e-05
-2.35164e-05
-3.63704e-05
-2.30191e-05
-3.12436e-05
-2.23653e-05
-2.6246e-05
-2.15622e-05
-2.1407e-05
-2.06191e-05
-1.67548e-05
-1.95471e-05
-1.2316e-05
-1.83593e-05
-8.11484e-06
-1.70702e-05
-4.1733e-06
-1.56955e-05
-5.10579e-07
-1.42523e-05
2.85714e-06
-1.27583e-05
5.91685e-06
-1.12314e-05
8.65889e-06
-9.68997e-06
1.10771e-05
-8.15181e-06
1.31688e-05
-6.63416e-06
1.49349e-05
-5.15329e-06
1.63795e-05
-3.72419e-06
1.75101e-05
-2.36031e-06
1.83372e-05
-1.07333e-06
1.88741e-05
1.26978e-07
1.91366e-05
1.23297e-06
1.91425e-05
2.23894e-06
1.89113e-05
3.14129e-06
1.84641e-05
3.93831e-06
1.78229e-05
4.62999e-06
1.70101e-05
5.21774e-06
1.60489e-05
5.70401e-06
1.49622e-05
6.09188e-06
1.37731e-05
6.3845e-06
1.25046e-05
6.58458e-06
1.11794e-05
6.6938e-06
9.82024e-06
6.71225e-06
8.45014e-06
6.63793e-06
7.09244e-06
6.46651e-06
5.77126e-06
6.19112e-06
4.51182e-06
5.80275e-06
3.34099e-06
5.29091e-06
2.28789e-06
4.64502e-06
1.38503e-06
3.8565e-06
6.70054e-07
2.9215e-06
1.88553e-07
1.84423e-06
6.4289e-07
9.84987e-08
-5.48124e-07
3.27621e-07
-1.37714e-06
6.35371e-07
-1.9648e-06
9.79739e-07
-2.33455e-06
1.326e-06
-2.5098e-06
1.64521e-06
-2.5146e-06
1.91313e-06
-2.37287e-06
2.10949e-06
-2.10777e-06
2.21737e-06
-1.74105e-06
2.2228e-06
-1.29267e-06
2.11435e-06
-7.8042e-07
1.88276e-06
-2.19701e-07
1.52056e-06
3.76585e-07
1.02173e-06
9.98068e-07
3.8137e-07
1.63686e-06
-4.04651e-07
2.2874e-06
-1.33996e-06
2.94631e-06
-2.42792e-06
3.61204e-06
-3.67186e-06
4.28464e-06
-5.07515e-06
4.96534e-06
-6.64134e-06
5.65618e-06
-8.37409e-06
6.35965e-06
-1.02772e-05
7.07828e-06
-1.23543e-05
7.81432e-06
-1.46089e-05
8.56946e-06
-1.70442e-05
9.34456e-06
-1.96626e-05
1.01395e-05
-2.24658e-05
1.09531e-05
-2.54541e-05
1.1783e-05
-2.86269e-05
1.26256e-05
-3.19818e-05
1.34763e-05
-3.55146e-05
1.43294e-05
-3.92195e-05
1.51783e-05
-4.30884e-05
1.60155e-05
-4.71115e-05
1.68328e-05
-5.12766e-05
1.76214e-05
-5.55697e-05
1.83722e-05
-5.99746e-05
1.90757e-05
-6.44734e-05
1.97223e-05
-6.90461e-05
2.03024e-05
-7.36716e-05
2.08068e-05
-7.83272e-05
2.12264e-05
-8.29892e-05
2.15528e-05
-8.7633e-05
2.17782e-05
-9.22337e-05
2.18955e-05
-9.67661e-05
2.18987e-05
-0.000101205
2.17827e-05
-0.000105525
2.15433e-05
-0.000109703
2.11776e-05
-0.000113715
2.06838e-05
-0.000117538
2.0061e-05
-0.000121152
1.93098e-05
-0.000124535
1.84316e-05
-0.000127671
1.74289e-05
-0.000130542
1.63052e-05
-0.000133131
1.50651e-05
-0.000135426
1.37137e-05
-0.000137414
1.22572e-05
-0.000139084
1.07025e-05
-0.000140427
9.05712e-06
-0.000141434
7.32932e-06
-0.0001421
5.5279e-06
-0.000142419
3.66223e-06
-0.000142388
1.74224e-06
-0.000142004
-2.21245e-07
-0.000141266
-2.21852e-06
-0.000140175
-4.23708e-06
-0.000138732
-6.26545e-06
-0.000136941
-8.29138e-06
-0.000134806
-1.03023e-05
-0.000132333
-1.22851e-05
-0.000129529
-1.42267e-05
-0.000126403
-1.61135e-05
-0.000122966
-1.79317e-05
-0.000119231
-1.96677e-05
-0.00011521
-2.13077e-05
-0.00011092
-2.2838e-05
-0.000106379
-2.42455e-05
-0.000101605
-2.55173e-05
-9.66204e-05
-2.66412e-05
-9.14477e-05
-2.7606e-05
-8.61118e-05
-2.84013e-05
-8.06392e-05
-2.90182e-05
-7.50579e-05
-2.94492e-05
-6.93974e-05
-2.96885e-05
-6.36882e-05
-2.97321e-05
-5.79619e-05
-2.95784e-05
-5.22508e-05
-2.92276e-05
-4.65874e-05
-2.86824e-05
-4.10045e-05
-2.79482e-05
-3.55344e-05
-2.70324e-05
-3.02085e-05
-2.59449e-05
-2.50575e-05
-2.46982e-05
-2.01102e-05
-2.33066e-05
-1.53938e-05
-2.17866e-05
-1.0933e-05
-2.01562e-05
-6.75031e-06
-1.84351e-05
-2.86493e-06
-1.66436e-05
7.06858e-07
-1.48032e-05
3.95215e-06
-1.29353e-05
6.86153e-06
-1.10612e-05
9.42919e-06
-9.20181e-06
1.16529e-05
-7.37702e-06
1.35341e-05
-5.60538e-06
1.50776e-05
-3.90382e-06
1.62916e-05
-2.28735e-06
1.71874e-05
-7.68838e-07
1.77792e-05
6.41183e-07
1.80837e-05
1.93453e-06
1.81196e-05
3.10539e-06
1.79076e-05
4.15022e-06
1.74701e-05
5.06756e-06
1.68301e-05
5.85772e-06
1.60117e-05
6.52236e-06
1.50396e-05
7.06405e-06
1.39384e-05
7.48569e-06
1.27331e-05
7.78984e-06
1.14488e-05
7.9781e-06
1.01106e-05
8.05045e-06
8.74384e-06
8.0047e-06
7.37431e-06
7.83604e-06
6.02855e-06
7.53689e-06
4.7343e-06
7.097e-06
3.52113e-06
6.50408e-06
2.42136e-06
5.74479e-06
1.47145e-06
4.80641e-06
7.14097e-07
3.67885e-06
2.01319e-07
2.35701e-06
8.44209e-07
9.20694e-08
-6.40194e-07
3.02459e-07
-1.58753e-06
5.78618e-07
-2.24096e-06
8.77771e-07
-2.6337e-06
1.16463e-06
-2.79666e-06
1.40997e-06
-2.75994e-06
1.5895e-06
-2.55241e-06
1.683e-06
-2.20126e-06
1.67363e-06
-1.73168e-06
1.54742e-06
-1.16647e-06
1.29283e-06
-5.2583e-07
9.00322e-07
1.72808e-07
3.62015e-07
9.14893e-07
-3.28663e-07
1.68875e-06
-1.1773e-06
2.48549e-06
-2.18877e-06
3.29887e-06
-3.36752e-06
4.12506e-06
-4.71776e-06
4.96228e-06
-6.24359e-06
5.81047e-06
-7.94913e-06
6.67088e-06
-9.83851e-06
7.54556e-06
-1.19158e-05
8.43696e-06
-1.4185e-05
9.34748e-06
-1.66498e-05
1.02791e-05
-1.93132e-05
1.12329e-05
-2.21778e-05
1.22091e-05
-2.52449e-05
1.32066e-05
-2.85147e-05
1.42229e-05
-3.19858e-05
1.52541e-05
-3.56553e-05
1.62951e-05
-3.95183e-05
1.73392e-05
-4.35676e-05
1.83787e-05
-4.77942e-05
1.94049e-05
-5.21867e-05
2.0408e-05
-5.67315e-05
2.13776e-05
-6.14128e-05
2.23027e-05
-6.62126e-05
2.3172e-05
-7.11111e-05
2.39742e-05
-7.60866e-05
2.46978e-05
-8.11161e-05
2.53319e-05
-8.61751e-05
2.58658e-05
-9.12384e-05
2.62896e-05
-9.62799e-05
2.65942e-05
-0.000101273
2.67716e-05
-0.000106193
2.68147e-05
-0.000111012
2.67178e-05
-0.000115705
2.64762e-05
-0.000120249
2.60869e-05
-0.000124619
2.55478e-05
-0.000128793
2.48584e-05
-0.000132752
2.40193e-05
-0.000136474
2.30325e-05
-0.000139944
2.1901e-05
-0.000143144
2.06288e-05
-0.00014606
1.9221e-05
-0.000148678
1.76836e-05
-0.000150988
1.60235e-05
-0.000152979
1.4248e-05
-0.000154642
1.23656e-05
-0.00015597
1.0385e-05
-0.000156956
8.3156e-06
-0.000157596
6.16751e-06
-0.000157885
3.95117e-06
-0.00015782
1.6776e-06
-0.0001574
-6.41625e-07
-0.000156623
-2.99505e-06
-0.00015549
-5.36977e-06
-0.000154003
-7.75301e-06
-0.000152163
-1.01314e-05
-0.000149974
-1.24913e-05
-0.00014744
-1.48184e-05
-0.000144569
-1.70981e-05
-0.000141367
-1.93156e-05
-0.000137843
-2.14557e-05
-0.000134008
-2.35029e-05
-0.000129873
-2.5442e-05
-0.000125454
-2.72575e-05
-0.000120765
-2.89343e-05
-0.000115825
-3.04577e-05
-0.000110652
-3.18136e-05
-0.00010527
-3.29887e-05
-9.97001e-05
-3.39707e-05
-9.39696e-05
-3.47488e-05
-8.81051e-05
-3.53136e-05
-8.21359e-05
-3.56577e-05
-7.60925e-05
-3.57756e-05
-7.00067e-05
-3.56642e-05
-6.39114e-05
-3.53228e-05
-5.78403e-05
-3.47535e-05
-5.18274e-05
-3.39611e-05
-4.59067e-05
-3.29531e-05
-4.01117e-05
-3.17399e-05
-3.44753e-05
-3.03346e-05
-2.9029e-05
-2.87529e-05
-2.38026e-05
-2.7013e-05
-1.8824e-05
-2.51348e-05
-1.41185e-05
-2.31405e-05
-9.7088e-06
-2.10534e-05
-5.61429e-06
-1.88977e-05
-1.85119e-06
-1.66984e-05
1.56786e-06
-1.44802e-05
4.63383e-06
-1.22678e-05
7.34147e-06
-1.00847e-05
9.6892e-06
-7.95311e-06
1.16792e-05
-5.8938e-06
1.33171e-05
-3.92526e-06
1.4612e-05
-2.06376e-06
1.55762e-05
-3.2303e-07
1.62249e-05
1.2859e-06
1.65756e-05
2.75461e-06
1.66485e-05
4.07733e-06
1.64654e-05
5.25068e-06
1.60497e-05
6.27344e-06
1.5426e-05
7.14609e-06
1.46197e-05
7.8703e-06
1.36571e-05
8.44832e-06
1.25646e-05
8.8823e-06
1.13692e-05
9.1735e-06
1.0098e-05
9.32164e-06
8.77857e-06
9.32417e-06
7.43885e-06
9.17576e-06
6.10774e-06
8.868e-06
4.81542e-06
8.38933e-06
3.59407e-06
7.72542e-06
2.47898e-06
6.85988e-06
1.51003e-06
5.77537e-06
7.3386e-07
4.45501e-06
2.0685e-07
2.88401e-06
1.05106e-06
8.23451e-08
-7.2254e-07
2.65032e-07
-1.77022e-06
4.96152e-07
-2.47208e-06
7.33288e-07
-2.87083e-06
9.415e-07
-3.00487e-06
1.09198e-06
-2.91042e-06
1.16089e-06
-2.62132e-06
1.12846e-06
-2.16883e-06
9.78218e-07
-1.58144e-06
6.96417e-07
-8.84665e-07
2.7156e-07
-1.00972e-07
-3.06018e-07
7.50387e-07
-1.04451e-06
1.65339e-06
-1.95097e-06
2.5952e-06
-3.03157e-06
3.56609e-06
-4.29191e-06
4.55921e-06
-5.73717e-06
5.57032e-06
-7.3723e-06
6.59741e-06