/*--------------------------------*- C++ -*----------------------------------*\
| =========                 |                                                 |
| \\      /  F ield         | OpenFOAM: The Open Source CFD Toolbox           |
|  \\    /   O peration     | Version:  2112                                  |
|   \\  /    A nd           | Website:  www.openfoam.com                      |
|    \\/     M anipulation  |                                                 |
\*---------------------------------------------------------------------------*/
FoamFile
{
    version     2.0;
    format      ascii;
    arch        "LSB;label=32;scalar=64";
    class       volVectorField;
    location    "31";
    object      U;
}
// * * * * * * * * * * * * * * * * * * * * * * * * * * * * * * * * * * * * * //

dimensions      [0 1 -1 0 0 0 0];

internalField   nonuniform List<vector> 
16641
(
(-7.37905e-06 7.36705e-06 0)
(3.37668e-06 -6.52258e-06 0)
(5.89768e-05 -2.1954e-05 0)
(0.000147624 -3.2732e-05 0)
(0.000258386 -3.90241e-05 0)
(0.00038129 -4.17956e-05 0)
(0.000508009 -4.1955e-05 0)
(0.00063207 -4.02487e-05 0)
(0.000748628 -3.72501e-05 0)
(0.000854178 -3.33956e-05 0)
(0.000946301 -2.90218e-05 0)
(0.00102346 -2.43891e-05 0)
(0.00108481 -1.96957e-05 0)
(0.00113006 -1.50867e-05 0)
(0.00115932 -1.06608e-05 0)
(0.00117295 -6.47742e-06 0)
(0.00117149 -2.55987e-06 0)
(0.00115552 1.09823e-06 0)
(0.00112561 4.52486e-06 0)
(0.00108222 7.76697e-06 0)
(0.00102568 1.08848e-05 0)
(0.000956136 1.39461e-05 0)
(0.000873545 1.7022e-05 0)
(0.00077766 2.01823e-05 0)
(0.000668043 2.34917e-05 0)
(0.000544082 2.70074e-05 0)
(0.000405018 3.07779e-05 0)
(0.000249972 3.48414e-05 0)
(7.79816e-05 3.92262e-05 0)
(-0.000111967 4.39506e-05 0)
(-0.000320904 4.90236e-05 0)
(-0.000549845 5.44452e-05 0)
(-0.000799762 6.02071e-05 0)
(-0.00107155 6.6294e-05 0)
(-0.00136602 7.26839e-05 0)
(-0.00168385 7.93485e-05 0)
(-0.00202556 8.62529e-05 0)
(-0.00239153 9.33558e-05 0)
(-0.00278192 0.000100609 0)
(-0.0031967 0.000107957 0)
(-0.00363559 0.000115338 0)
(-0.00409807 0.000122682 0)
(-0.00458332 0.000129912 0)
(-0.00509026 0.000136945 0)
(-0.00561748 0.000143689 0)
(-0.00616326 0.000150047 0)
(-0.00672554 0.000155918 0)
(-0.00730192 0.000161193 0)
(-0.00788968 0.000165763 0)
(-0.00848574 0.000169516 0)
(-0.00908672 0.000172339 0)
(-0.00968889 0.000174119 0)
(-0.0102882 0.000174748 0)
(-0.0108805 0.000174121 0)
(-0.0114611 0.00017214 0)
(-0.0120253 0.000168716 0)
(-0.0125682 0.000163769 0)
(-0.0130847 0.000157233 0)
(-0.0135696 0.000149057 0)
(-0.0140179 0.000139205 0)
(-0.0144243 0.000127661 0)
(-0.0147838 0.000114429 0)
(-0.0150916 9.95354e-05 0)
(-0.0153428 8.30319e-05 0)
(-0.0155331 6.50129e-05 0)
(-0.0156586 4.55965e-05 0)
(-0.0157157 2.48692e-05 0)
(-0.0157012 3.06489e-06 0)
(-0.0156124 -1.97621e-05 0)
(-0.0154478 -4.33358e-05 0)
(-0.015206 -6.73989e-05 0)
(-0.0148867 -9.16901e-05 0)
(-0.0144904 -0.000115928 0)
(-0.0140182 -0.000139811 0)
(-0.0134724 -0.000163028 0)
(-0.0128561 -0.000185255 0)
(-0.0121731 -0.000206171 0)
(-0.0114285 -0.000225455 0)
(-0.0106278 -0.000242801 0)
(-0.00977766 -0.000257922 0)
(-0.00888537 -0.000270558 0)
(-0.00795886 -0.000280483 0)
(-0.00700665 -0.000287512 0)
(-0.00603766 -0.00029151 0)
(-0.00506112 -0.000292395 0)
(-0.00408642 -0.000290141 0)
(-0.00312292 -0.000284785 0)
(-0.00217982 -0.000276422 0)
(-0.00126597 -0.000265205 0)
(-0.000389664 -0.000251356 0)
(0.000441269 -0.000235206 0)
(0.00121988 -0.000216916 0)
(0.00194027 -0.000196934 0)
(0.00259735 -0.000175621 0)
(0.00318716 -0.000153368 0)
(0.00370688 -0.000130566 0)
(0.00415479 -0.000107607 0)
(0.00453031 -8.48644e-05 0)
(0.00483394 -6.26874e-05 0)
(0.00506719 -4.13904e-05 0)
(0.0052325 -2.12471e-05 0)
(0.00533313 -2.48601e-06 0)
(0.00537303 1.47132e-05 0)
(0.00535672 3.02199e-05 0)
(0.00528914 4.39548e-05 0)
(0.00517554 5.58848e-05 0)
(0.0050213 6.60203e-05 0)
(0.00483184 7.44116e-05 0)
(0.00461247 8.11435e-05 0)
(0.00436834 8.63291e-05 0)
(0.0041043 9.0104e-05 0)
(0.00382484 9.26194e-05 0)
(0.00353407 9.40352e-05 0)
(0.00323569 9.45124e-05 0)
(0.00293294 9.42041e-05 0)
(0.00262871 9.32461e-05 0)
(0.00232553 9.17444e-05 0)
(0.00202572 8.97621e-05 0)
(0.00173151 8.73017e-05 0)
(0.00144524 8.42849e-05 0)
(0.0011696 8.05278e-05 0)
(0.00090792 7.57117e-05 0)
(0.000664507 6.93515e-05 0)
(0.000445027 6.07706e-05 0)
(0.000256801 4.91259e-05 0)
(0.000108721 3.36133e-05 0)
(1.0198e-05 1.41164e-05 0)
(-3.10227e-05 -6.91867e-06 0)
(-1.82635e-05 -1.83118e-05 0)
(6.42867e-06 -3.29823e-06 0)
(7.18551e-05 -7.1962e-05 0)
(0.000228446 -0.000140174 0)
(0.000450985 -0.000190539 0)
(0.000718488 -0.000221902 0)
(0.00101176 -0.00023658 0)
(0.00131311 -0.000237626 0)
(0.00160762 -0.000228044 0)
(0.00188339 -0.000210474 0)
(0.00213132 -0.000187141 0)
(0.00234471 -0.000159892 0)
(0.00251892 -0.00013023 0)
(0.00265105 -9.93442e-05 0)
(0.00273953 -6.81416e-05 0)
(0.00278384 -3.7271e-05 0)
(0.00278418 -7.1519e-06 0)
(0.00274119 2.19993e-05 0)
(0.00265574 5.01406e-05 0)
(0.00252869 7.73733e-05 0)
(0.00236075 0.000103911 0)
(0.00215232 0.00013005 0)
(0.00190344 0.000156136 0)
(0.00161372 0.000182537 0)
(0.00128231 0.000209622 0)
(0.00090795 0.000237733 0)
(0.000488991 0.000267171 0)
(2.34572e-05 0.000298186 0)
(-0.000490867 0.000330965 0)
(-0.00105636 0.000365633 0)
(-0.00167547 0.000402247 0)
(-0.00235063 0.000440804 0)
(-0.00308416 0.000481239 0)
(-0.00387819 0.000523429 0)
(-0.00473459 0.000567202 0)
(-0.00565487 0.000612332 0)
(-0.00664015 0.00065855 0)
(-0.00769104 0.000705539 0)
(-0.00880766 0.000752939 0)
(-0.00998947 0.000800349 0)
(-0.0112353 0.000847322 0)
(-0.0125434 0.000893376 0)
(-0.013911 0.000937987 0)
(-0.0153348 0.000980598 0)
(-0.0168105 0.00102062 0)
(-0.0183331 0.00105744 0)
(-0.0198966 0.00109043 0)
(-0.0214944 0.00111894 0)
(-0.0231187 0.00114231 0)
(-0.024761 0.00115991 0)
(-0.0264122 0.00117109 0)
(-0.0280622 0.00117525 0)
(-0.0297004 0.00117181 0)
(-0.0313153 0.00116023 0)
(-0.0328953 0.00114004 0)
(-0.0344279 0.0011108 0)
(-0.0359006 0.00107218 0)
(-0.0373006 0.00102391 0)
(-0.0386149 0.000965821 0)
(-0.0398307 0.00089783 0)
(-0.0409353 0.000819978 0)
(-0.0419163 0.000732411 0)
(-0.0427619 0.000635398 0)
(-0.0434608 0.000529334 0)
(-0.0440024 0.000414752 0)
(-0.0443774 0.000292367 0)
(-0.0445773 0.000162947 0)
(-0.0445948 2.69959e-05 0)
(-0.044424 -0.000113694 0)
(-0.0440603 -0.000258333 0)
(-0.0435011 -0.000405626 0)
(-0.0427455 -0.000554142 0)
(-0.0417941 -0.000702378 0)
(-0.0406498 -0.000848753 0)
(-0.0393171 -0.000991627 0)
(-0.0378027 -0.00112932 0)
(-0.0361153 -0.00126014 0)
(-0.0342656 -0.0013824 0)
(-0.0322661 -0.00149447 0)
(-0.0301312 -0.00159481 0)
(-0.0278771 -0.00168195 0)
(-0.0255215 -0.0017546 0)
(-0.0230837 -0.00181163 0)
(-0.0205838 -0.00185213 0)
(-0.0180432 -0.00187543 0)
(-0.0154836 -0.00188111 0)
(-0.0129272 -0.00186904 0)
(-0.0103963 -0.00183939 0)
(-0.00791252 -0.00179262 0)
(-0.00549717 -0.00172949 0)
(-0.00317032 -0.00165107 0)
(-0.000950786 -0.00155877 0)
(0.00114421 -0.00145399 0)
(0.00309949 -0.00133854 0)
(0.004902 -0.00121438 0)
(0.00654097 -0.00108358 0)
(0.00800814 -0.000948228 0)
(0.00929782 -0.000810437 0)
(0.0104069 -0.000672293 0)
(0.0113347 -0.000535788 0)
(0.0120832 -0.000402773 0)
(0.0126566 -0.000274927 0)
(0.0130611 -0.000153717 0)
(0.0133048 -4.03762e-05 0)
(0.0133974 6.41127e-05 0)
(0.01335 0.000159026 0)
(0.0131746 0.0002439 0)
(0.0128838 0.000318516 0)
(0.0124907 0.00038289 0)
(0.0120083 0.000437251 0)
(0.0114497 0.000482009 0)
(0.0108273 0.000517729 0)
(0.0101531 0.000545089 0)
(0.00943807 0.000564838 0)
(0.00869264 0.000577755 0)
(0.00792623 0.00058459 0)
(0.00714747 0.000586006 0)
(0.00636431 0.000582515 0)
(0.00558424 0.000574398 0)
(0.00481462 0.000561627 0)
(0.00406304 0.000543775 0)
(0.00333784 0.000519931 0)
(0.00264865 0.000488629 0)
(0.00200693 0.000447822 0)
(0.00142635 0.000394966 0)
(0.000922966 0.000327399 0)
(0.000514268 0.000243413 0)
(0.000216561 0.000144573 0)
(4.20143e-05 4.10817e-05 0)
(-6.6392e-06 -3.10881e-05 0)
(2.18484e-05 -5.87083e-05 0)
(0.000140231 -0.000228507 0)
(0.000382951 -0.000382485 0)
(0.000708613 -0.000497461 0)
(0.00108868 -0.000570281 0)
(0.00149889 -0.000604242 0)
(0.00191618 -0.000604981 0)
(0.0023204 -0.00057871 0)
(0.00269495 -0.000531347 0)
(0.00302667 -0.000468178 0)
(0.00330552 -0.000393762 0)
(0.00352422 -0.00031191 0)
(0.00367785 -0.00022571 0)
(0.00376337 -0.000137562 0)
(0.00377922 -4.92236e-05 0)
(0.00372489 3.81313e-05 0)
(0.00360059 0.000123846 0)
(0.00340683 0.000207719 0)
(0.00314424 0.000289925 0)
(0.00281322 0.000370938 0)
(0.00241386 0.000451448 0)
(0.00194575 0.000532281 0)
(0.00140792 0.00061433 0)
(0.000798849 0.000698483 0)
(0.000116449 0.000785568 0)
(-0.000641839 0.000876308 0)
(-0.00147897 0.000971285 0)
(-0.00239816 0.00107092 0)
(-0.00340279 0.00117544 0)
(-0.00449622 0.00128492 0)
(-0.0056817 0.00139923 0)
(-0.00696219 0.0015181 0)
(-0.00834027 0.00164106 0)
(-0.00981798 0.00176751 0)
(-0.0113967 0.0018967 0)
(-0.0130771 0.00202776 0)
(-0.014859 0.00215967 0)
(-0.0167412 0.0022913 0)
(-0.0187216 0.00242141 0)
(-0.0207968 0.00254865 0)
(-0.0229625 0.00267155 0)
(-0.025213 0.0027886 0)
(-0.0275414 0.00289818 0)
(-0.0299395 0.00299861 0)
(-0.0323979 0.0030882 0)
(-0.0349057 0.0031652 0)
(-0.0374511 0.00322791 0)
(-0.0400209 0.00327462 0)
(-0.0426007 0.00330368 0)
(-0.0451754 0.00331353 0)
(-0.0477286 0.0033027 0)
(-0.0502433 0.00326985 0)
(-0.0527018 0.00321381 0)
(-0.055086 0.00313357 0)
(-0.0573772 0.00302832 0)
(-0.0595568 0.0028975 0)
(-0.0616061 0.00274075 0)
(-0.0635067 0.00255801 0)
(-0.0652404 0.00234945 0)
(-0.0667897 0.00211557 0)
(-0.0681381 0.00185712 0)
(-0.0692697 0.00157518 0)
(-0.0701701 0.00127115 0)
(-0.070826 0.000946719 0)
(-0.0712259 0.000603991 0)
(-0.0713603 0.000245292 0)
(-0.0712205 -0.00012777 0)
(-0.0708001 -0.000510977 0)
(-0.0700957 -0.000901563 0)
(-0.0691057 -0.0012963 0)
(-0.0678306 -0.0016916 0)
(-0.0662737 -0.00208368 0)
(-0.0644406 -0.00246861 0)
(-0.0623395 -0.00284237 0)
(-0.0599813 -0.00320088 0)
(-0.0573791 -0.00354008 0)
(-0.054549 -0.00385597 0)
(-0.0515091 -0.00414467 0)
(-0.04828 -0.00440253 0)
(-0.0448843 -0.00462615 0)
(-0.0413468 -0.00481249 0)
(-0.0376939 -0.00495893 0)
(-0.0339533 -0.00506332 0)
(-0.0301542 -0.00512408 0)
(-0.0263262 -0.00514022 0)
(-0.0224998 -0.00511141 0)
(-0.0187052 -0.00503798 0)
(-0.0149724 -0.00492099 0)
(-0.0113308 -0.00476215 0)
(-0.00780827 -0.0045639 0)
(-0.0044314 -0.00432933 0)
(-0.00122467 -0.00406205 0)
(0.00178979 -0.00376618 0)
(0.00459249 -0.00344629 0)
(0.00716691 -0.00310741 0)
(0.00949977 -0.00275462 0)
(0.011581 -0.00239314 0)
(0.0134041 -0.00202817 0)
(0.0149658 -0.00166477 0)
(0.0162665 -0.00130774 0)
(0.0173095 -0.000961529 0)
(0.0181016 -0.000630115 0)
(0.018652 -0.000316963 0)
(0.0189726 -2.49538e-05 0)
(0.0190773 0.000243648 0)
(0.0189819 0.000487211 0)
(0.0187033 0.000704729 0)
(0.0182594 0.000895798 0)
(0.0176688 0.00106057 0)
(0.0169498 0.00119971 0)
(0.0161208 0.0013143 0)
(0.0151996 0.00140574 0)
(0.0142032 0.00147569 0)
(0.0131476 0.00152589 0)
(0.012048 0.00155806 0)
(0.0109184 0.00157374 0)
(0.00977219 0.00157411 0)
(0.008622 0.00155981 0)
(0.00748037 0.00153074 0)
(0.0063601 0.00148592 0)
(0.00527481 0.00142328 0)
(0.00423954 0.00133965 0)
(0.0032713 0.00123079 0)
(0.00238934 0.00109186 0)
(0.00161506 0.000918442 0)
(0.000970651 0.000708894 0)
(0.00047588 0.000468422 0)
(0.000149414 0.00021691 0)
(1.53615e-05 1.14579e-05 0)
(3.28056e-05 -0.000147431 0)
(0.000191577 -0.000451713 0)
(0.00050026 -0.000708599 0)
(0.000900827 -0.000897065 0)
(0.0013574 -0.00101468 0)
(0.00184188 -0.00106664 0)
(0.0023277 -0.00106151 0)
(0.00279142 -0.001009 0)
(0.00321342 -0.000918683 0)
(0.00357779 -0.000799366 0)
(0.00387205 -0.000658814 0)
(0.00408687 -0.000503638 0)
(0.00421556 -0.000339273 0)
(0.00425365 -0.000170001 0)
(0.00419839 9.9161e-07 0)
(0.00404833 0.000171536 0)
(0.00380283 0.000340377 0)
(0.00346173 0.000507058 0)
(0.00302497 0.000671795 0)
(0.00249235 0.000835334 0)
(0.00186328 0.000998812 0)
(0.00113667 0.00116361 0)
(0.000310835 0.00133123 0)
(-0.000616532 0.00150315 0)
(-0.0016483 0.00168075 0)
(-0.00278781 0.00186522 0)
(-0.00403879 0.00205745 0)
(-0.00540515 0.00225807 0)
(-0.00689084 0.00246735 0)
(-0.00849966 0.00268521 0)
(-0.0102351 0.00291125 0)
(-0.0121001 0.00314473 0)
(-0.014097 0.00338459 0)
(-0.0162271 0.00362951 0)
(-0.018491 0.00387785 0)
(-0.020888 0.00412775 0)
(-0.023416 0.00437708 0)
(-0.0260718 0.00462352 0)
(-0.0288506 0.00486453 0)
(-0.0317461 0.0050974 0)
(-0.0347504 0.00531925 0)
(-0.0378539 0.00552709 0)
(-0.0410454 0.00571782 0)
(-0.0443123 0.00588829 0)
(-0.04764 0.00603533 0)
(-0.0510127 0.00615579 0)
(-0.0544129 0.00624658 0)
(-0.0578222 0.00630474 0)
(-0.0612205 0.00632747 0)
(-0.0645869 0.00631218 0)
(-0.0678999 0.00625652 0)
(-0.0711369 0.00615845 0)
(-0.0742752 0.00601628 0)
(-0.0772916 0.00582867 0)
(-0.0801632 0.00559469 0)
(-0.0828671 0.00531385 0)
(-0.0853809 0.00498612 0)
(-0.0876829 0.00461194 0)
(-0.0897523 0.00419221 0)
(-0.0915693 0.00372838 0)
(-0.0931155 0.00322235 0)
(-0.0943739 0.00267655 0)
(-0.0953293 0.0020939 0)
(-0.0959682 0.00147776 0)
(-0.0962792 0.000831848 0)
(-0.0962541 0.000160508 0)
(-0.0958849 -0.000529718 0)
(-0.0951656 -0.00123554 0)
(-0.094096 -0.00195111 0)
(-0.092676 -0.00267034 0)
(-0.0909088 -0.00338699 0)
(-0.0888001 -0.00409457 0)
(-0.0863585 -0.00478641 0)
(-0.0835951 -0.00545573 0)
(-0.0805242 -0.00609574 0)
(-0.0771623 -0.00669967 0)
(-0.0735288 -0.00726091 0)
(-0.0696456 -0.00777309 0)
(-0.0655372 -0.00823018 0)
(-0.0612301 -0.00862661 0)
(-0.056753 -0.00895739 0)
(-0.0521364 -0.00921818 0)
(-0.0474126 -0.00940545 0)
(-0.042615 -0.00951653 0)
(-0.0377779 -0.00954973 0)
(-0.0329363 -0.0095044 0)
(-0.0281255 -0.00938097 0)
(-0.0233805 -0.00918103 0)
(-0.0187354 -0.00890728 0)
(-0.0142236 -0.00856355 0)
(-0.00987678 -0.00815477 0)
(-0.0057246 -0.00768682 0)
(-0.00179433 -0.00716652 0)
(0.00188934 -0.00660142 0)
(0.00530499 -0.00599973 0)
(0.00843475 -0.0053701 0)
(0.0112642 -0.00472143 0)
(0.0137828 -0.00406268 0)
(0.0159839 -0.00340268 0)
(0.0178648 -0.00274995 0)
(0.0194267 -0.00211248 0)
(0.0206746 -0.00149761 0)
(0.0216167 -0.000911863 0)
(0.0222648 -0.000360827 0)
(0.0226333 0.000150914 0)
(0.0227392 0.000619834 0)
(0.0226013 0.00104349 0)
(0.0222401 0.00142049 0)
(0.0216773 0.00175045 0)
(0.020935 0.0020339 0)
(0.0200356 0.00227216 0)
(0.0190013 0.00246722 0)
(0.0178538 0.00262153 0)
(0.0166138 0.00273778 0)
(0.0153015 0.00281871 0)
(0.013936 0.00286677 0)
(0.0125355 0.00288389 0)
(0.0111176 0.00287112 0)
(0.00969977 0.00282838 0)
(0.00829965 0.00275411 0)
(0.00693559 0.00264516 0)
(0.00562722 0.00249667 0)
(0.00439591 0.00230238 0)
(0.00326503 0.0020554 0)
(0.00225992 0.00174987 0)
(0.00140646 0.00138416 0)
(0.000728382 0.000966002 0)
(0.000254464 0.000521055 0)
(3.65004e-05 0.000114492 0)
(3.95342e-05 -0.000259065 0)
(0.00022493 -0.000721561 0)
(0.000577406 -0.00109109 0)
(0.00102507 -0.0013547 0)
(0.00152538 -0.00151393 0)
(0.00204677 -0.00157739 0)
(0.0025601 -0.00155725 0)
(0.00303974 -0.00146701 0)
(0.0034641 -0.00132006 0)
(0.00381549 -0.00112886 0)
(0.00407976 -0.000904573 0)
(0.00424601 -0.000656805 0)
(0.00430615 -0.000393533 0)
(0.0042544 -0.000121104 0)
(0.00408683 0.000155711 0)
(0.00380091 0.000433616 0)
(0.00339501 0.000710662 0)
(0.002868 0.000986075 0)
(0.00221893 0.00126007 0)
(0.00144671 0.00153366 0)
(0.000549883 0.00180842 0)
(-0.000473485 0.00208629 0)
(-0.00162592 0.00236937 0)
(-0.0029105 0.00265973 0)
(-0.00433082 0.00295926 0)
(-0.00589089 0.00326954 0)
(-0.00759492 0.0035917 0)
(-0.00944718 0.0039264 0)
(-0.0114518 0.00427379 0)
(-0.0136124 0.00463343 0)
(-0.0159322 0.00500438 0)
(-0.0184135 0.00538514 0)
(-0.0210574 0.00577375 0)
(-0.0238641 0.00616775 0)
(-0.0268322 0.00656425 0)
(-0.0299586 0.00696 0)
(-0.033239 0.00735133 0)
(-0.0366668 0.0077343 0)
(-0.0402338 0.00810465 0)
(-0.0439299 0.0084579 0)
(-0.0477429 0.00878937 0)
(-0.0516587 0.00909425 0)
(-0.0556615 0.00936766 0)
(-0.0597332 0.00960471 0)
(-0.0638546 0.00980056 0)
(-0.0680044 0.00995052 0)
(-0.07216 0.0100501 0)
(-0.0762979 0.0100951 0)
(-0.0803931 0.0100816 0)
(-0.0844201 0.0100062 0)
(-0.0883529 0.009866 0)
(-0.0921651 0.00965846 0)
(-0.0958302 0.00938175 0)
(-0.0993222 0.00903466 0)
(-0.102615 0.00861657 0)
(-0.105685 0.00812759 0)
(-0.108507 0.00756849 0)
(-0.111058 0.00694074 0)
(-0.113318 0.00624653 0)
(-0.115265 0.00548873 0)
(-0.116884 0.0046709 0)
(-0.118156 0.00379727 0)
(-0.119068 0.00287275 0)
(-0.119608 0.00190283 0)
(-0.119767 0.000893446 0)
(-0.119535 -0.000148666 0)
(-0.11891 -0.00121455 0)
(-0.117888 -0.00229839 0)
(-0.11647 -0.00339169 0)
(-0.114657 -0.00448568 0)
(-0.112456 -0.00557137 0)
(-0.109875 -0.00663953 0)
(-0.106923 -0.00768074 0)
(-0.103615 -0.00868547 0)
(-0.0999658 -0.00964417 0)
(-0.0959951 -0.0105474 0)
(-0.0917237 -0.011386 0)
(-0.0871754 -0.012151 0)
(-0.0823763 -0.0128341 0)
(-0.077355 -0.0134275 0)
(-0.0721418 -0.0139242 0)
(-0.0667694 -0.0143182 0)
(-0.0612717 -0.0146043 0)
(-0.0556844 -0.0147787 0)
(-0.0500441 -0.0148389 0)
(-0.0443883 -0.0147837 0)
(-0.0387547 -0.0146136 0)
(-0.0331813 -0.0143304 0)
(-0.0277055 -0.0139376 0)
(-0.0223638 -0.0134403 0)
(-0.0171915 -0.0128451 0)
(-0.0122221 -0.01216 0)
(-0.00748686 -0.0113943 0)
(-0.00301456 -0.0105587 0)
(0.00116919 -0.0096645 0)
(0.00504214 -0.00872396 0)
(0.00858569 -0.00774983 0)
(0.0117851 -0.00675507 0)
(0.0146299 -0.0057526 0)
(0.0171136 -0.00475505 0)
(0.019234 -0.00377446 0)
(0.0209931 -0.00282205 0)
(0.0223969 -0.00190802 0)
(0.0234551 -0.00104131 0)
(0.024181 -0.000229511 0)
(0.0245908 0.000521272 0)
(0.0247035 0.00120648 0)
(0.0245404 0.00182307 0)
(0.0241244 0.00236952 0)
(0.0234796 0.00284568 0)
(0.0226309 0.00325265 0)
(0.0216036 0.00359255 0)
(0.0204228 0.00386833 0)
(0.0191132 0.00408338 0)
(0.017699 0.00424125 0)
(0.0162035 0.00434523 0)
(0.0146495 0.00439794 0)
(0.0130591 0.00440087 0)
(0.0114542 0.00435398 0)
(0.00985674 0.00425532 0)
(0.00828939 0.00410081 0)
(0.00677573 0.00388421 0)
(0.00534083 0.00359755 0)
(0.00401154 0.00323213 0)
(0.0028167 0.00278056 0)
(0.00178611 0.00224032 0)
(0.000948545 0.00161898 0)
(0.000344545 0.000942087 0)
(5.3792e-05 0.000270984 0)
(4.30064e-05 -0.00038423 0)
(0.000242466 -0.00101969 0)
(0.000617051 -0.00150639 0)
(0.00108506 -0.00184265 0)
(0.0015985 -0.00203651 0)
(0.00212281 -0.00210162 0)
(0.00262681 -0.0020546 0)
(0.00308332 -0.0019131 0)
(0.00346953 -0.0016945 0)
(0.00376659 -0.00141506 0)
(0.00395927 -0.00108934 0)
(0.00403556 -0.000730007 0)
(0.00398624 -0.000347617 0)
(0.00380443 4.93625e-05 0)
(0.0034851 0.000454526 0)
(0.0030246 0.000863411 0)
(0.00242021 0.00127333 0)
(0.00166974 0.00168317 0)
(0.000771177 0.00209311 0)
(-0.000277609 0.00250439 0)
(-0.00147905 0.00291901 0)
(-0.00283602 0.00333942 0)
(-0.0043519 0.00376825 0)
(-0.00603051 0.00420807 0)
(-0.00787605 0.00466117 0)
(-0.00989295 0.00512936 0)
(-0.0120856 0.00561381 0)
(-0.0144584 0.00611503 0)
(-0.0170149 0.00663273 0)
(-0.0197582 0.00716584 0)
(-0.0226906 0.00771253 0)
(-0.0258128 0.00827019 0)
(-0.0291243 0.00883553 0)
(-0.0326229 0.00940458 0)
(-0.0363046 0.00997278 0)
(-0.0401634 0.010535 0)
(-0.0441914 0.0110857 0)
(-0.0483781 0.0116189 0)
(-0.0527113 0.0121282 0)
(-0.0571761 0.012607 0)
(-0.0617558 0.0130486 0)
(-0.0664314 0.0134462 0)
(-0.0711818 0.0137929 0)
(-0.0759844 0.014082 0)
(-0.0808145 0.014307 0)
(-0.0856464 0.0144617 0)
(-0.0904529 0.0145406 0)
(-0.0952062 0.0145382 0)
(-0.0998775 0.0144501 0)
(-0.104438 0.0142724 0)
(-0.108859 0.0140018 0)
(-0.113111 0.0136361 0)
(-0.117167 0.0131738 0)
(-0.120999 0.0126142 0)
(-0.12458 0.0119577 0)
(-0.127886 0.0112055 0)
(-0.130893 0.0103597 0)
(-0.13358 0.00942334 0)
(-0.135925 0.00840022 0)
(-0.13791 0.00729511 0)
(-0.13952 0.00611356 0)
(-0.140741 0.00486192 0)
(-0.141559 0.0035473 0)
(-0.141966 0.00217755 0)
(-0.141953 0.000761285 0)
(-0.141516 -0.000692399 0)
(-0.140652 -0.0021747 0)
(-0.13936 -0.00367427 0)
(-0.137642 -0.00518054 0)
(-0.135504 -0.00668243 0)
(-0.13295 -0.00816841 0)
(-0.129991 -0.00962667 0)
(-0.126639 -0.0110452 0)
(-0.122907 -0.0124118 0)
(-0.118812 -0.0137144 0)
(-0.114374 -0.0149411 0)
(-0.109615 -0.0160801 0)
(-0.104557 -0.0171201 0)
(-0.0992285 -0.0180505 0)
(-0.0936569 -0.0188612 0)
(-0.0878735 -0.0195433 0)
(-0.0819111 -0.0200888 0)
(-0.0758041 -0.020491 0)
(-0.0695888 -0.0207448 0)
(-0.0633027 -0.0208466 0)
(-0.0569842 -0.0207946 0)
(-0.0506727 -0.0205888 0)
(-0.0444075 -0.0202311 0)
(-0.038228 -0.0197257 0)
(-0.0321732 -0.0190783 0)
(-0.0262809 -0.0182972 0)
(-0.0205875 -0.017392 0)
(-0.0151275 -0.0163746 0)
(-0.00993322 -0.015258 0)
(-0.00503401 -0.0140569 0)
(-0.000456091 -0.012787 0)
(0.00377786 -0.0114647 0)
(0.00764899 -0.0101072 0)
(0.0111426 -0.00873142 0)
(0.0142482 -0.00735437 0)
(0.0169596 -0.00599239 0)
(0.0192753 -0.00466097 0)
(0.0211978 -0.00337439 0)
(0.022734 -0.00214548 0)
(0.0238945 -0.0009854 0)
(0.0246939 9.65594e-05 0)
(0.0251497 0.00109306 0)
(0.0252825 0.00199878 0)
(0.0251152 0.00281037 0)
(0.0246725 0.0035264 0)
(0.0239805 0.00414712 0)
(0.0230663 0.00467431 0)
(0.0219573 0.00511088 0)
(0.0206812 0.00546056 0)
(0.0192652 0.00572741 0)
(0.0177365 0.0059153 0)
(0.0161214 0.0060274 0)
(0.0144461 0.00606559 0)
(0.0127365 0.00602993 0)
(0.0110185 0.00591819 0)
(0.00931834 0.00572558 0)
(0.00766335 0.00544473 0)
(0.00608192 0.00506616 0)
(0.00460423 0.00457941 0)
(0.00326268 0.00397509 0)
(0.00209138 0.00324838 0)
(0.00112489 0.00240374 0)
(0.000415341 0.00146139 0)
(6.67463e-05 0.00047083 0)
(4.40554e-05 -0.000515012 0)
(0.000246736 -0.00132874 0)
(0.000623425 -0.00193126 0)
(0.00108667 -0.00233349 0)
(0.00158461 -0.0025517 0)
(0.00208031 -0.00260583 0)
(0.00254104 -0.00251774 0)
(0.00293864 -0.00230972 0)
(0.00324957 -0.00200331 0)
(0.00345432 -0.00161857 0)
(0.00353698 -0.00117349 0)
(0.00348478 -0.000683709 0)
(0.00328767 -0.00016233 0)
(0.00293783 0.000380112 0)
(0.00242922 0.000935615 0)
(0.00175713 0.00149857 0)
(0.000917717 0.00206558 0)
(-9.23284e-05 0.00263516 0)
(-0.00127615 0.00320747 0)
(-0.00263696 0.00378392 0)
(-0.00417822 0.00436687 0)
(-0.00590375 0.00495917 0)
(-0.0078177 0.00556389 0)
(-0.00992454 0.00618393 0)
(-0.0122289 0.00682176 0)
(-0.0147352 0.0074792 0)
(-0.0174479 0.0081572 0)
(-0.0203707 0.00885575 0)
(-0.0235064 0.00957383 0)
(-0.0268569 0.0103093 0)
(-0.0304225 0.0110591 0)
(-0.0342021 0.0118191 0)
(-0.0381925 0.0125841 0)
(-0.0423885 0.0133484 0)
(-0.0467827 0.0141052 0)
(-0.0513653 0.0148471 0)
(-0.0561241 0.0155664 0)
(-0.0610443 0.0162546 0)
(-0.0661088 0.016903 0)
(-0.0712981 0.0175028 0)
(-0.0765904 0.0180449 0)
(-0.0819617 0.0185205 0)
(-0.0873863 0.0189208 0)
(-0.0928367 0.0192375 0)
(-0.0982843 0.0194626 0)
(-0.103699 0.0195889 0)
(-0.109051 0.0196098 0)
(-0.114308 0.0195195 0)
(-0.119441 0.0193133 0)
(-0.124417 0.0189873 0)
(-0.129208 0.0185388 0)
(-0.133783 0.0179662 0)
(-0.138115 0.017269 0)
(-0.142177 0.0164476 0)
(-0.145943 0.015504 0)
(-0.14939 0.0144408 0)
(-0.152497 0.0132619 0)
(-0.155243 0.0119722 0)
(-0.15761 0.0105775 0)
(-0.159583 0.00908477 0)
(-0.161147 0.00750153 0)
(-0.162292 0.00583633 0)
(-0.163008 0.00409846 0)
(-0.163287 0.00229795 0)
(-0.163124 0.00044563 0)
(-0.162515 -0.00144706 0)
(-0.16146 -0.00336874 0)
(-0.159959 -0.00530635 0)
(-0.158015 -0.0072469 0)
(-0.155633 -0.00917694 0)
(-0.152821 -0.0110826 0)
(-0.149588 -0.0129498 0)
(-0.145945 -0.014764 0)
(-0.141908 -0.0165108 0)
(-0.137491 -0.0181758 0)
(-0.132713 -0.0197444 0)
(-0.127595 -0.0212027 0)
(-0.122161 -0.0225369 0)
(-0.116435 -0.0237342 0)
(-0.110446 -0.0247823 0)
(-0.104224 -0.0256701 0)
(-0.0978002 -0.0263877 0)
(-0.0912095 -0.0269268 0)
(-0.0844876 -0.0272804 0)
(-0.077672 -0.0274438 0)
(-0.0708016 -0.0274141 0)
(-0.0639162 -0.0271907 0)
(-0.0570563 -0.0267754 0)
(-0.0502628 -0.0261722 0)
(-0.0435761 -0.0253878 0)
(-0.0370364 -0.0244311 0)
(-0.0306826 -0.0233136 0)
(-0.024552 -0.0220487 0)
(-0.0186802 -0.0206523 0)
(-0.0130999 -0.0191417 0)
(-0.0078412 -0.0175358 0)
(-0.0029306 -0.0158549 0)
(0.00160892 -0.0141198 0)
(0.00575847 -0.0123518 0)
(0.00950338 -0.0105722 0)
(0.0128334 -0.00880174 0)
(0.0157429 -0.00706046 0)
(0.0182306 -0.00536699 0)
(0.0202998 -0.00373844 0)
(0.0219581 -0.00218995 0)
(0.0232173 -0.000734548 0)
(0.0240926 0.000617102 0)
(0.0246029 0.00185676 0)
(0.0247701 0.00297865 0)
(0.0246183 0.00397939 0)
(0.0241739 0.00485778 0)
(0.0234647 0.00561462 0)
(0.0225195 0.00625228 0)
(0.0213678 0.00677429 0)
(0.0200394 0.00718479 0)
(0.0185641 0.00748794 0)
(0.0169716 0.00768722 0)
(0.0152912 0.00778477 0)
(0.0135524 0.00778071 0)
(0.0117845 0.00767261 0)
(0.0100173 0.00745511 0)
(0.00828143 0.00711986 0)
(0.00660845 0.00665596 0)
(0.00503185 0.00605098 0)
(0.00358777 0.00529292 0)
(0.00231484 0.0043732 0)
(0.00125351 0.00329059 0)
(0.000466094 0.00205623 0)
(7.56329e-05 0.000702927 0)
(4.32828e-05 -0.000645019 0)
(0.000239941 -0.00163327 0)
(0.000600693 -0.00234406 0)
(0.00103592 -0.00280125 0)
(0.00149158 -0.00303028 0)
(0.00192912 -0.00305829 0)
(0.00231493 -0.00291302 0)
(0.00262035 -0.00262171 0)
(0.00282153 -0.00221027 0)
(0.00289869 -0.00170252 0)
(0.00283558 -0.00111983 0)
(0.00261897 -0.000480688 0)
(0.00223816 0.000199372 0)
(0.00168459 0.00090787 0)
(0.000951296 0.00163531 0)
(3.25595e-05 0.00237501 0)
(-0.00107654 0.00312289 0)
(-0.00238043 0.00387715 0)
(-0.0038834 0.00463787 0)
(-0.00558972 0.00540662 0)
(-0.00750385 0.00618597 0)
(-0.00963045 0.00697908 0)
(-0.0119743 0.00778925 0)
(-0.0145404 0.00861947 0)
(-0.0173332 0.00947213 0)
(-0.0203573 0.0103487 0)
(-0.0236163 0.0112496 0)
(-0.0271129 0.0121739 0)
(-0.0308485 0.0131194 0)
(-0.034823 0.0140825 0)
(-0.0390343 0.0150583 0)
(-0.0434785 0.0160408 0)
(-0.0481491 0.0170226 0)
(-0.0530372 0.0179955 0)
(-0.0581311 0.0189503 0)
(-0.0634168 0.0198771 0)
(-0.0688774 0.0207655 0)
(-0.0744932 0.0216044 0)
(-0.0802422 0.0223827 0)
(-0.0861 0.0230893 0)
(-0.0920401 0.0237129 0)
(-0.098034 0.0242428 0)
(-0.104052 0.0246685 0)
(-0.110062 0.0249805 0)
(-0.116033 0.0251699 0)
(-0.121932 0.0252286 0)
(-0.127727 0.02515 0)
(-0.133384 0.0249283 0)
(-0.138873 0.0245592 0)
(-0.144163 0.0240397 0)
(-0.149224 0.0233679 0)
(-0.154027 0.0225436 0)
(-0.158546 0.0215678 0)
(-0.162757 0.0204426 0)
(-0.166636 0.0191717 0)
(-0.170163 0.0177596 0)
(-0.173317 0.0162124 0)
(-0.176084 0.0145369 0)
(-0.178446 0.012741 0)
(-0.180392 0.0108335 0)
(-0.18191 0.00882422 0)
(-0.182991 0.00672359 0)
(-0.183627 0.00454291 0)
(-0.183813 0.00229415 0)
(-0.183546 -9.99009e-06 0)
(-0.182822 -0.00235599 0)
(-0.181642 -0.00473035 0)
(-0.180007 -0.00711845 0)
(-0.177919 -0.00950529 0)
(-0.175385 -0.0118754 0)
(-0.17241 -0.0142129 0)
(-0.169004 -0.0165017 0)
(-0.165176 -0.0187251 0)
(-0.160939 -0.0208665 0)
(-0.156309 -0.0229093 0)
(-0.151301 -0.0248367 0)
(-0.145936 -0.0266325 0)
(-0.140234 -0.0282806 0)
(-0.134219 -0.0297656 0)
(-0.127918 -0.0310733 0)
(-0.121359 -0.0321901 0)
(-0.114573 -0.033104 0)
(-0.107593 -0.0338047 0)
(-0.100455 -0.0342834 0)
(-0.0931944 -0.0345338 0)
(-0.0858512 -0.0345516 0)
(-0.0784654 -0.0343352 0)
(-0.0710782 -0.0338857 0)
(-0.0637315 -0.0332069 0)
(-0.0564675 -0.0323057 0)
(-0.0493281 -0.0311916 0)
(-0.0423549 -0.0298771 0)
(-0.0355878 -0.0283775 0)
(-0.0290654 -0.0267105 0)
(-0.0228239 -0.0248962 0)
(-0.016897 -0.0229565 0)
(-0.0113151 -0.020915 0)
(-0.00610524 -0.0187963 0)
(-0.00129045 -0.0166258 0)
(0.00311041 -0.0144293 0)
(0.00708289 -0.0122318 0)
(0.0106172 -0.0100581 0)
(0.013708 -0.00793129 0)
(0.0163549 -0.00587307 0)
(0.018562 -0.00390294 0)
(0.0203377 -0.00203804 0)
(0.0216946 -0.000292849 0)
(0.0226493 0.00132095 0)
(0.0232217 0.00279457 0)
(0.023435 0.00412207 0)
(0.0233146 0.00530019 0)
(0.0228884 0.00632813 0)
(0.0221857 0.00720712 0)
(0.0212372 0.00793996 0)
(0.0200744 0.00853042 0)
(0.018729 0.0089825 0)
(0.0172332 0.0092997 0)
(0.0156193 0.00948419 0)
(0.0139195 0.00953607 0)
(0.0121665 0.00945267 0)
(0.0103931 0.0092281 0)
(0.00863285 0.00885308 0)
(0.0069207 0.00831521 0)
(0.00529339 0.00759985 0)
(0.00379078 0.00669172 0)
(0.00245593 0.00557728 0)
(0.00133475 0.00424779 0)
(0.000497654 0.0027029 0)
(8.09039e-05 0.000956517 0)
(4.10738e-05 -0.000769005 0)
(0.000223718 -0.0019197 0)
(0.000552271 -0.00272512 0)
(0.000938019 -0.00322187 0)
(0.00132632 -0.00344501 0)
(0.00167796 -0.00342938 0)
(0.00195911 -0.00320901 0)
(0.00214115 -0.00281635 0)
(0.00220034 -0.00228168 0)
(0.002117 -0.00163263 0)
(0.00187479 -0.000893737 0)
(0.00146024 -8.62269e-05 0)
(0.000862217 0.000772139 0)
(7.1515e-05 0.00166709 0)
(-0.000919615 0.00258777 0)
(-0.00211784 0.00352655 0)
(-0.0035291 0.00447873 0)
(-0.00515892 0.00544219 0)
(-0.00701262 0.00641693 0)
(-0.00909549 0.00740457 0)
(-0.0114129 0.00840781 0)
(-0.01397 0.00942988 0)
(-0.0167723 0.0104741 0)
(-0.0198246 0.0115431 0)
(-0.0231314 0.0126391 0)
(-0.0266963 0.0137626 0)
(-0.030522 0.0149131 0)
(-0.0346094 0.0160884 0)
(-0.0389581 0.0172844 0)
(-0.0435651 0.0184957 0)
(-0.0484254 0.0197153 0)
(-0.0535315 0.0209345 0)
(-0.0588728 0.0221434 0)
(-0.0644362 0.0233311 0)
(-0.0702056 0.0244855 0)
(-0.0761619 0.025594 0)
(-0.0822834 0.0266433 0)
(-0.0885456 0.02762 0)
(-0.0949217 0.0285104 0)
(-0.101383 0.0293011 0)
(-0.107898 0.0299792 0)
(-0.114435 0.0305324 0)
(-0.120961 0.0309491 0)
(-0.127443 0.031219 0)
(-0.133845 0.0313328 0)
(-0.140134 0.0312826 0)
(-0.146278 0.031062 0)
(-0.152244 0.0306662 0)
(-0.158 0.030092 0)
(-0.163519 0.0293375 0)
(-0.168771 0.0284027 0)
(-0.173731 0.027289 0)
(-0.178375 0.0259992 0)
(-0.182682 0.0245376 0)
(-0.186631 0.0229097 0)
(-0.190205 0.0211222 0)
(-0.193387 0.0191831 0)
(-0.196164 0.0171012 0)
(-0.198523 0.0148863 0)
(-0.200454 0.012549 0)
(-0.201948 0.010101 0)
(-0.202998 0.0075543 0)
(-0.203598 0.00492192 0)
(-0.203743 0.00221742 0)
(-0.20343 -0.000544946 0)
(-0.202658 -0.00335034 0)
(-0.201426 -0.00618341 0)
(-0.199735 -0.00902809 0)
(-0.197588 -0.0118678 0)
(-0.194988 -0.0146854 0)
(-0.19194 -0.0174634 0)
(-0.188452 -0.0201838 0)
(-0.184531 -0.022828 0)
(-0.18019 -0.0253776 0)
(-0.175439 -0.0278137 0)
(-0.170295 -0.0301175 0)
(-0.164773 -0.0322703 0)
(-0.158893 -0.0342537 0)