/*--------------------------------*- C++ -*----------------------------------*\
| =========                 |                                                 |
| \\      /  F ield         | OpenFOAM: The Open Source CFD Toolbox           |
|  \\    /   O peration     | Version:  2112                                  |
|   \\  /    A nd           | Website:  www.openfoam.com                      |
|    \\/     M anipulation  |                                                 |
\*---------------------------------------------------------------------------*/
FoamFile
{
    version     2.0;
    format      ascii;
    arch        "LSB;label=32;scalar=64";
    class       volScalarField;
    location    "17";
    object      p;
}
// * * * * * * * * * * * * * * * * * * * * * * * * * * * * * * * * * * * * * //

dimensions      [0 2 -2 0 0 0 0];

internalField   nonuniform List<scalar> 
16641
(
2.2386e-09
4.68216e-06
6.38483e-06
3.94165e-06
-3.19981e-06
-1.50862e-05
-3.14409e-05
-5.18695e-05
-7.59704e-05
-0.000103379
-0.000133788
-0.000166951
-0.000202681
-0.000240842
-0.000281344
-0.000324128
-0.000369164
-0.000416437
-0.000465944
-0.000517687
-0.000571665
-0.000627876
-0.000686306
-0.000746931
-0.000809716
-0.000874609
-0.000941542
-0.00101043
-0.00108116
-0.00115361
-0.00122761
-0.00130299
-0.00137953
-0.00145698
-0.00153506
-0.00161344
-0.00169177
-0.00176963
-0.00184657
-0.00192209
-0.00199566
-0.00206668
-0.00213452
-0.00219851
-0.00225793
-0.00231206
-0.00236012
-0.00240134
-0.00243493
-0.00246011
-0.00247613
-0.00248226
-0.0024778
-0.00246215
-0.00243477
-0.00239522
-0.00234317
-0.00227843
-0.00220097
-0.0021109
-0.00200853
-0.00189436
-0.00176908
-0.0016336
-0.00148902
-0.00133668
-0.00117803
-0.00101486
-0.000849028
-0.000682584
-0.000517695
-0.000356635
-0.000201744
-5.53872e-05
8.00792e-05
0.000202358
0.000309249
0.0003987
0.000468846
0.000518053
0.00054495
0.000548472
0.000527876
0.000482769
0.000413114
0.00031924
0.000201835
6.19309e-05
-9.91218e-05
-0.000279668
-0.000477802
-0.000691403
-0.000918178
-0.00115572
-0.00140154
-0.00165315
-0.00190807
-0.00216392
-0.00241841
-0.00266943
-0.00291503
-0.00315348
-0.00338325
-0.00360306
-0.00381186
-0.00400882
-0.00419332
-0.00436497
-0.00452355
-0.00466901
-0.00480143
-0.00492102
-0.00502806
-0.00512292
-0.00520599
-0.00527765
-0.00533832
-0.00538835
-0.00542807
-0.00545779
-0.00547779
-0.00548839
-0.00548999
-0.00548323
-0.00546915
-0.00544953
-0.00542725
-0.0054066
-0.00539398
-4.84345e-06
-1.50564e-07
5.4581e-07
-2.74914e-06
-1.00689e-05
-2.15049e-05
-3.69293e-05
-5.60931e-05
-7.87147e-05
-0.000104521
-0.000133268
-0.000164747
-0.000198791
-0.000235271
-0.000274091
-0.000315187
-0.000358512
-0.000404038
-0.000451747
-0.000501624
-0.000553658
-0.000607835
-0.000664132
-0.000722521
-0.000782962
-0.0008454
-0.000909769
-0.000975985
-0.00104394
-0.00111352
-0.00118457
-0.00125692
-0.00133037
-0.00140468
-0.00147959
-0.0015548
-0.00162997
-0.00170471
-0.00177861
-0.0018512
-0.00192196
-0.00199036
-0.00205579
-0.00211763
-0.00217521
-0.00222783
-0.00227478
-0.00231532
-0.00234872
-0.00237423
-0.00239114
-0.00239876
-0.00239642
-0.00238356
-0.00235964
-0.00232425
-0.00227707
-0.00221792
-0.00214674
-0.00206365
-0.00196892
-0.001863
-0.00174656
-0.00162045
-0.00148571
-0.00134358
-0.00119552
-0.00104312
-0.000888201
-0.000732692
-0.000578664
-0.000428279
-0.000283767
-0.000147381
-2.13653e-05
9.20897e-05
0.000190889
0.000273078
0.00033688
0.00038074
0.000403359
0.000403724
0.000381136
0.000335228
0.000265974
0.000173698
5.90634e-05
-7.69369e-05
-0.000233003
-0.000407559
-0.000598779
-0.00080464
-0.00102296
-0.00125144
-0.00148774
-0.00172947
-0.00197429
-0.00221995
-0.00246428
-0.00270529
-0.00294114
-0.00317019
-0.00339101
-0.00360238
-0.00380332
-0.00399303
-0.00417094
-0.00433667
-0.00448999
-0.00463087
-0.00475936
-0.00487565
-0.00498001
-0.00507276
-0.00515429
-0.00522497
-0.00528519
-0.00533534
-0.00537579
-0.00540689
-0.00542901
-0.00544257
-0.00544808
-0.00544625
-0.00543809
-0.00542513
-0.00540956
-0.00539405
-0.00538137
-6.73827e-06
-1.02016e-06
-3.54381e-07
-3.90875e-06
-1.12585e-05
-2.24275e-05
-3.73101e-05
-5.57015e-05
-7.73742e-05
-0.000102104
-0.000129682
-0.000159932
-0.000192704
-0.000227877
-0.000265361
-0.000305088
-0.000347008
-0.000391088
-0.0004373
-0.000485626
-0.000536045
-0.000588539
-0.000643081
-0.000699641
-0.000758177
-0.000818638
-0.000880959
-0.00094506
-0.00101085
-0.0010782
-0.00114699
-0.00121704
-0.00128819
-0.0013602
-0.00143283
-0.0015058
-0.00157879
-0.00165145
-0.00172338
-0.00179413
-0.00186324
-0.00193017
-0.00199437
-0.00205523
-0.00211213
-0.00216439
-0.00221133
-0.00225223
-0.00228639
-0.00231308
-0.00233161
-0.00234129
-0.0023415
-0.00233163
-0.00231119
-0.00227973
-0.00223694
-0.00218261
-0.00211667
-0.0020392
-0.00195045
-0.00185083
-0.00174096
-0.00162163
-0.00149387
-0.00135882
-0.00121793
-0.00107273
-0.000924942
-0.000776465
-0.000629305
-0.000485568
-0.000347425
-0.000217078
-9.6719e-05
1.15103e-05
0.000105559
0.000183513
0.000243632
0.000284392
0.000304521
0.000303027
0.000279227
0.000232763
0.000163615
7.21037e-05
-4.11145e-05
-0.000175061
-0.000328456
-0.000499748
-0.000687151
-0.000888673
-0.00110218
-0.00132543
-0.00155612
-0.00179194
-0.00203061
-0.00226993
-0.00250782
-0.00274234
-0.00297172
-0.00319439
-0.00340898
-0.00361433
-0.0038095
-0.00399375
-0.00416654
-0.00432752
-0.0044765
-0.00461344
-0.00473842
-0.00485163
-0.00495336
-0.00504393
-0.00512372
-0.00519311
-0.00525251
-0.00530232
-0.00534292
-0.0053747
-0.00539805
-0.0054134
-0.00542125
-0.00542223
-0.00541718
-0.00540727
-0.0053941
-0.00537859
-0.00536062
-4.33279e-06
2.17534e-06
2.93972e-06
-7.41632e-07
-8.14215e-06
-1.91985e-05
-3.37782e-05
-5.16802e-05
-7.26981e-05
-9.66342e-05
-0.000123308
-0.000152562
-0.000184263
-0.000218306
-0.000254607
-0.000293101
-0.00033374
-0.00037649
-0.000421322
-0.000468214
-0.000517147
-0.000568096
-0.000621038
-0.000675941
-0.000732767
-0.000791467
-0.000851983
-0.000914243
-0.000978159
-0.00104363
-0.00111053
-0.00117871
-0.001248
-0.00131822
-0.00138912
-0.00146045
-0.00153192
-0.00160319
-0.00167389
-0.00174361
-0.0018119
-0.00187825
-0.00194214
-0.00200298
-0.00206016
-0.00211305
-0.00216095
-0.00220319
-0.00223905
-0.00226783
-0.00228883
-0.00230136
-0.00230478
-0.00229848
-0.00228195
-0.00225473
-0.00221646
-0.00216691
-0.00210598
-0.0020337
-0.00195029
-0.00185611
-0.00175174
-0.00163794
-0.00151571
-0.00138608
-0.00125051
-0.00111049
-0.000967702
-0.000824008
-0.000681386
-0.000541918
-0.000407752
-0.000281072
-0.000164057
-5.88384e-05
3.2541e-05
0.00010817
0.000166311
0.00020544
0.000224284
0.000221848
0.000197448
0.000150722
8.16493e-05
-9.45161e-06
-0.000121925
-0.000254793
-0.000406777
-0.000576325
-0.000761651
-0.000960773
-0.00117156
-0.00139177
-0.00161912
-0.00185132
-0.0020861
-0.00232131
-0.00255487
-0.0027849
-0.00300966
-0.00322762
-0.00343745
-0.00363806
-0.00382853
-0.00400818
-0.00417652
-0.00433323
-0.00447816
-0.00461131
-0.0047328
-0.00484284
-0.00494174
-0.00502985
-0.00510756
-0.00517529
-0.00523345
-0.00528247
-0.00532273
-0.00535462
-0.00537854
-0.00539487
-0.00540405
-0.00540655
-0.00540295
-0.00539409
-0.00538104
-0.00536322
-0.00533837
3.10502e-06
9.58536e-06
1.01028e-05
6.12797e-06
-1.47732e-06
-1.25837e-05
-2.70323e-05
-4.46191e-05
-6.51496e-05
-8.84467e-05
-0.000114351
-0.000142725
-0.000173454
-0.000206444
-0.000241623
-0.000278935
-0.000318335
-0.000359792
-0.00040328
-0.000448778
-0.000496266
-0.000545724
-0.000597129
-0.000650453
-0.000705663
-0.000762717
-0.000821566
-0.000882148
-0.000944388
-0.0010082
-0.00107347
-0.00114008
-0.00120787
-0.00127668
-0.00134629
-0.00141648
-0.00148697
-0.00155746
-0.0016276
-0.00169701
-0.00176525
-0.00183186
-0.00189632
-0.00195806
-0.0020165
-0.00207101
-0.0021209
-0.00216551
-0.00220411
-0.00223599
-0.00226045
-0.00227677
-0.00228429
-0.0022824
-0.00227051
-0.00224815
-0.00221492
-0.00217055
-0.00211487
-0.0020479
-0.00196979
-0.00188087
-0.00178166
-0.00167291
-0.00155566
-0.00143051
-0.00129929
-0.00116337
-0.00102439
-0.000884186
-0.000744735
-0.000608106
-0.000476449
-0.000351951
-0.000236799
-0.000133139
-4.30285e-05
3.16018e-05
8.89945e-05
0.000127605
0.000146138
0.000143582
0.000119233
7.27188e-05
4.00681e-06
-8.65897e-05
-0.000198416
-0.000330492
-0.00048153
-0.000649968
-0.000834006
-0.00103164
-0.00124074
-0.00145903
-0.00168422
-0.00191401
-0.00214613
-0.00237841
-0.00260881
-0.00283543
-0.00305656
-0.0032707
-0.00347657
-0.00367308
-0.00385938
-0.00403483
-0.00419898
-0.00435156
-0.00449248
-0.00462177
-0.00473961
-0.00484624
-0.00494202
-0.00502732
-0.00510259
-0.00516825
-0.00522475
-0.00527253
-0.00531199
-0.00534352
-0.00536748
-0.0053842
-0.00539403
-0.00539727
-0.00539427
-0.00538552
-0.00537168
-0.00535094
-0.00531927
1.57672e-05
2.13982e-05
2.12387e-05
1.67122e-05
8.68864e-06
-2.66182e-06
-1.71615e-05
-3.46061e-05
-5.48125e-05
-7.76205e-05
-0.000102891
-0.000130505
-0.000160366
-0.000192396
-0.000226535
-0.000262738
-0.000300969
-0.000341203
-0.000383418
-0.000427599
-0.00047373
-0.000521796
-0.000571778
-0.000623657
-0.000677407
-0.000732997
-0.00079039
-0.000849537
-0.000910382
-0.000972853
-0.00103686
-0.00110231
-0.00116907
-0.00123699
-0.0013059
-0.00137558
-0.00144581
-0.00151628
-0.0015867
-0.00165669
-0.00172586
-0.00179374
-0.00185984
-0.00192361
-0.00198447
-0.00204178
-0.00209488
-0.00214307
-0.00218562
-0.0022218
-0.00225086
-0.00227209
-0.00228476
-0.00228822
-0.00228184
-0.00226511
-0.00223756
-0.00219886
-0.00214882
-0.00208738
-0.00201464
-0.00193089
-0.00183661
-0.00173245
-0.00161913
-0.00149826
-0.00137065
-0.00123788
-0.00110165
-0.000963777
-0.000826242
-0.000691126
-0.000560593
-0.000436853
-0.000322122
-0.000218575
-0.000128307
-5.32871e-05
4.68773e-06
4.40327e-05
6.34144e-05
6.17844e-05
3.84073e-05
-7.11735e-06
-7.48427e-05
-0.000164469
-0.00027535
-0.000406502
-0.000556631
-0.000724158
-0.00090726
-0.00110391
-0.00131193
-0.00152903
-0.00175289
-0.00198115
-0.00221153
-0.00244185
-0.00267002
-0.00289415
-0.00311253
-0.00332367
-0.00352629
-0.00371934
-0.003902
-0.00407367
-0.00423395
-0.00438262
-0.00451963
-0.00464508
-0.00475918
-0.00486225
-0.00495467
-0.0050369
-0.00510938
-0.00517261
-0.00522706
-0.00527317
-0.00531138
-0.00534205
-0.00536553
-0.00538209
-0.00539197
-0.00539533
-0.00539229
-0.00538308
-0.00536801
-0.00534436
-0.00530671
3.35007e-05
3.75604e-05
3.6293e-05
3.09265e-05
2.22449e-05
1.0443e-05
-4.29173e-06
-2.1763e-05
-4.18006e-05
-6.42619e-05
-8.90276e-05
-0.000116
-0.000145101
-0.000176272
-0.000209467
-0.000244653
-0.000281808
-0.000320914
-0.000361961
-0.000404938
-0.000449839
-0.000496656
-0.000545381
-0.000596004
-0.000648511
-0.000702887
-0.000759108
-0.000817148
-0.000876967
-0.00093852
-0.00100175
-0.00106657
-0.00113289
-0.00120058
-0.00126951
-0.0013395
-0.00141033
-0.00148175
-0.00155346
-0.00162514
-0.00169639
-0.00176677
-0.00183581
-0.00190295
-0.0019676
-0.00202913
-0.00208686
-0.00214006
-0.00218798
-0.00222985
-0.00226488
-0.00229231
-0.00231136
-0.00232131
-0.0023215
-0.00231131
-0.00229026
-0.00225793
-0.00221406
-0.00215855
-0.00209143
-0.00201295
-0.00192354
-0.00182383
-0.00171459
-0.00159701
-0.00147228
-0.00134189
-0.0012075
-0.00107093
-0.000934185
-0.000799355
-0.000668637
-0.000544277
-0.00042853
-0.000323622
-0.000231698
-0.000154784
-9.47351e-05
-5.31934e-05
-3.15501e-05
-3.09081e-05
-5.20527e-05
-9.54286e-05
-0.000161125
-0.000248871
-0.000358036
-0.000487646
-0.000636403
-0.000802714
-0.000984732
-0.0011804
-0.00138749
-0.00160369
-0.0018266
-0.00205384
-0.00228307
-0.00251206
-0.00273868
-0.00296103
-0.00317736
-0.00338616
-0.00358617
-0.00377635
-0.00395589
-0.00412422
-0.00428097
-0.00442599
-0.00455926
-0.00468094
-0.00479132
-0.00489075
-0.00497968
-0.00505861
-0.00512806
-0.00518855
-0.00524059
-0.00528466
-0.0053212
-0.00535059
-0.00537312
-0.00538903
-0.00539847
-0.00540148
-0.00539798
-0.005388
-0.00537159
-0.00534538
-0.00530295
5.59872e-05
5.78531e-05
5.50734e-05
4.85747e-05
3.89931e-05
2.65338e-05
1.13882e-05
-6.2648e-06
-2.62742e-05
-4.85175e-05
-7.28976e-05
-9.93394e-05
-0.000127787
-0.000158201
-0.000190554
-0.000224829
-0.000261017
-0.000299115
-0.000339122
-0.000381041
-0.000424876
-0.000470631
-0.000518311
-0.000567921
-0.000619464
-0.000672942
-0.000728355
-0.000785697
-0.000844959
-0.000906119
-0.000969149
-0.001034
-0.00110061
-0.0011689
-0.00123875
-0.00131001
-0.0013825
-0.00145601
-0.00153025
-0.00160492
-0.00167964
-0.00175399
-0.00182747
-0.00189955
-0.00196962
-0.00203701
-0.00210103
-0.00216091
-0.00221586
-0.00226505
-0.00230764
-0.00234279
-0.00236968
-0.00238751
-0.00239553
-0.00239307
-0.00237956
-0.00235452
-0.00231762
-0.00226868
-0.00220768
-0.00213482
-0.00205046
-0.00195521
-0.00184985
-0.00173543
-0.0016132
-0.00148463
-0.00135137
-0.00121526
-0.00107832
-0.00094266
-0.000810523
-0.000684197
-0.000565989
-0.000458186
-0.000362999
-0.000282526
-0.000218696
-0.000173229
-0.000147594
-0.000142968
-0.000160207
-0.00019982
-0.000261955
-0.000346386
-0.000452519
-0.000579402
-0.000725747
-0.000889956
-0.00107017
-0.00126429
-0.00147006
-0.0016851
-0.00190698
-0.00213324
-0.00236148
-0.0025894
-0.00281484
-0.00303581
-0.00325055
-0.00345752
-0.00365541
-0.00384319
-0.00402006
-0.00418545
-0.00433903
-0.00448068
-0.00461044
-0.00472851
-0.00483523
-0.00493103
-0.00501642
-0.00509194
-0.00515818
-0.00521571
-0.00526508
-0.00530681
-0.00534135
-0.00536908
-0.00539029
-0.00540518
-0.00541383
-0.00541616
-0.00541197
-0.00540113
-0.00538352
-0.00535529
-0.00530938
8.28308e-05
8.19675e-05
7.73079e-05
6.9401e-05
5.86887e-05
4.53819e-05
2.96621e-05
1.16851e-05
-8.42246e-06
-3.0564e-05
-5.46681e-05
-8.06855e-05
-0.000108585
-0.000138349
-0.000169972
-0.000203457
-0.00023881
-0.000276044
-0.000315174
-0.000356218
-0.000399195
-0.000444124
-0.000491029
-0.000539934
-0.000590863
-0.000643843
-0.0006989
-0.000756059
-0.00081534
-0.000876758
-0.000940319
-0.00100601
-0.00107381
-0.00114367
-0.00121552
-0.00128923
-0.00136466
-0.00144162
-0.00151985
-0.00159907
-0.00167889
-0.00175891
-0.00183863
-0.00191748
-0.00199484
-0.00207002
-0.00214227
-0.00221076
-0.00227466
-0.00233307
-0.00238508
-0.00242977
-0.00246623
-0.00249358
-0.00251099
-0.00251771
-0.00251307
-0.00249653
-0.00246767
-0.00242624
-0.00237216
-0.00230555
-0.00222674
-0.00213627
-0.00203491
-0.00192366
-0.00180377
-0.00167666
-0.00154402
-0.00140768
-0.00126966
-0.00113214
-0.000997384
-0.000867726
-0.000745542
-0.000633185
-0.000532949
-0.000447017
-0.000377411
-0.000325948
-0.000294195
-0.000283429
-0.0002946
-0.000328311
-0.000384788
-0.00046388
-0.000565053
-0.000687399
-0.000829658
-0.000990248
-0.0011673
-0.0013587
-0.00156217
-0.00177526
-0.00199548
-0.00222031
-0.00244728
-0.002674
-0.00289826
-0.00311798
-0.00333134
-0.00353675
-0.00373286
-0.00391861
-0.00409318
-0.00425601
-0.00440678
-0.00454538
-0.0046719
-0.00478658
-0.00488982
-0.0049821
-0.00506399
-0.0051361
-0.00519906
-0.00525352
-0.00530006
-0.00533924
-0.00537154
-0.00539736
-0.00541699
-0.00543059
-0.00543821
-0.00543969
-0.00543473
-0.00542309
-0.00540453
-0.00537493
-0.00532682
0.000113592
0.000109525
0.000102661
9.30978e-05
8.10442e-05
6.67145e-05
5.02735e-05
3.18467e-05
1.1528e-05
-1.06171e-05
-3.4548e-05
-6.02449e-05
-8.77041e-05
-0.000116935
-0.000147954
-0.000180787
-0.00021546
-0.000252007
-0.000290461
-0.000330856
-0.000373233
-0.000417631
-0.000464098
-0.00051268
-0.000563431
-0.000616408
-0.00067167
-0.000729277
-0.000789288
-0.000851759
-0.000916735
-0.000984251
-0.00105432
-0.00112694
-0.00120208
-0.00127964
-0.00135952
-0.00144155
-0.0015255
-0.00161108
-0.00169793
-0.00178562
-0.00187364
-0.0019614
-0.00204824
-0.00213342
-0.00221613
-0.00229549
-0.00237057
-0.00244041
-0.002504
-0.00256034
-0.00260842
-0.00264726
-0.00267595
-0.00269362
-0.00269953
-0.00269302
-0.00267361
-0.00264097
-0.00259492
-0.00253554
-0.00246308
-0.00237803
-0.00228111
-0.0021733
-0.00205579
-0.00193002
-0.00179764
-0.00166051
-0.00152066
-0.00138028
-0.00124169
-0.00110728
-0.000979487
-0.000860747
-0.000753445
-0.000659864
-0.000582139
-0.000522204
-0.00048175
-0.00046218
-0.00046457
-0.000489642
-0.000537738
-0.000608811
-0.000702417
-0.000817725
-0.000953531
-0.00110829
-0.00128015
-0.00146701
-0.00166653
-0.00187626
-0.00209363
-0.00231606
-0.00254099
-0.00276596
-0.00298864
-0.0032069
-0.00341881
-0.00362271
-0.0038172
-0.00400115
-0.00417372
-0.00433431
-0.0044826
-0.00461849
-0.0047421
-0.00485369
-0.0049537
-0.00504267
-0.00512122
-0.00519002
-0.00524977
-0.00530115
-0.00534482
-0.00538137
-0.00541132
-0.0054351
-0.00545299
-0.00546516
-0.00547162
-0.0054722
-0.00546649
-0.00545421
-0.00543503
-0.0054047
-0.0053556
0.00014778
0.000140108
0.000130741
0.000119295
0.000105716
9.0209e-05
7.29195e-05
5.39325e-05
3.33024e-05
1.10573e-05
-1.2798e-05
-3.82776e-05
-6.54096e-05
-9.42322e-05
-0.00012479
-0.000157133
-0.000191313
-0.000227384
-0.000265402
-0.000305427
-0.00034752
-0.00039175
-0.00043819
-0.00048692
-0.000538027
-0.000591605
-0.000647753
-0.000706576
-0.000768177
-0.000832658
-0.000900115
-0.000970629
-0.00104426
-0.00112106
-0.00120101
-0.00128409
-0.0013702
-0.0014592
-0.00155087
-0.00164494
-0.00174103
-0.0018387
-0.00193742
-0.00203655
-0.00213538
-0.00223311
-0.00232885
-0.00242166
-0.00251051
-0.00259434
-0.00267204
-0.0027425
-0.00280462
-0.0028573
-0.00289951
-0.00293029
-0.00294879
-0.00295425
-0.00294608
-0.00292387
-0.00288736
-0.00283653
-0.00277157
-0.0026929
-0.0026012
-0.00249736
-0.00238257
-0.00225822
-0.00212594
-0.00198759
-0.00184522
-0.00170103
-0.00155738
-0.00141672
-0.00128156
-0.00115442
-0.00103777
-0.000934035
-0.000845467
-0.000774144
-0.000721907
-0.000690316
-0.000680606
-0.000693655
-0.000729961
-0.000789617
-0.00087231
-0.000977323
-0.00110355
-0.0012495
-0.00141339
-0.00159313
-0.00178638
-0.00199065
-0.00220335
-0.0024218
-0.00264339
-0.00286554
-0.00308583
-0.00330202
-0.00351209
-0.00371427
-0.00390707
-0.00408929
-0.00426001
-0.00441862
-0.00456474
-0.00469827
-0.00481931
-0.00492816
-0.00502528
-0.00511125
-0.00518673
-0.00525245
-0.00530916
-0.0053576
-0.00539848
-0.00543245
-0.00546007
-0.00548178
-0.00549791
-0.00550862
-0.00551393
-0.00551362
-0.0055073
-0.00549459
-0.00547516
-0.00544473
-0.00539571
0.000184889
0.00017323
0.000161097
0.000147572
0.000132303
0.000115488
9.72413e-05
7.75992e-05
5.6569e-05
3.41352e-05
1.02609e-05
-1.51068e-05
-4.20324e-05
-7.05869e-05
-0.000100846
-0.000132888
-0.000166792
-0.00020264
-0.000240513
-0.0002805
-0.000322693
-0.000367192
-0.000414104
-0.000463549
-0.000515656
-0.000570562
-0.000628418
-0.000689376
-0.000753594
-0.000821229
-0.00089243
-0.000967334
-0.00104606
-0.00112868
-0.00121525
-0.00130577
-0.00140018
-0.00149835
-0.00160008
-0.00170508
-0.00181297
-0.00192328
-0.00203543
-0.00214874
-0.00226244
-0.00237564
-0.00248737
-0.00259659
-0.00270217
-0.00280294
-0.00289767
-0.00298514
-0.00306411
-0.00313338
-0.00319179
-0.00323827
-0.00327182
-0.0032916
-0.0032969
-0.00328719
-0.00326212
-0.00322157
-0.00316564
-0.00309467
-0.00300928
-0.00291027
-0.00279878
-0.00267617
-0.00254402
-0.00240419
-0.00225871
-0.00210981
-0.00195988
-0.00181141
-0.00166699
-0.00152923
-0.00140072
-0.00128399
-0.00118147
-0.00109539
-0.00102778
-0.000980375
-0.000954616
-0.000951579
-0.000971956
-0.00101603
-0.00108367
-0.00117432
-0.00128699
-0.00142035
-0.00157265
-0.00174188
-0.00192574
-0.00212172
-0.00232719
-0.00253944
-0.00275574
-0.00297345
-0.00319002
-0.0034031
-0.00361053
-0.00381044
-0.00400121
-0.00418155
-0.00435045
-0.0045072
-0.00465139
-0.00478286
-0.0049017
-0.0050082
-0.00510282
-0.00518617
-0.00525896
-0.00532194
-0.00537592
-0.00542169
-0.00546001
-0.00549158
-0.005517
-0.00553676
-0.00555122
-0.00556056
-0.0055648
-0.00556375
-0.00555698
-0.00554411
-0.0055248
-0.00549485
-0.00544686
0.000224358
0.000208359
0.000193224
0.000177444
0.000160347
0.000142112
0.000122818
0.00010244
8.09318e-05
5.82263e-05
3.42388e-05
8.87204e-06
-1.79787e-05
-4.64221e-05
-7.65687e-05
-0.000108529
-0.000142414
-0.000178336
-0.00021641
-0.000256758
-0.000299507
-0.000344797
-0.000392778
-0.000443616
-0.000497489
-0.000554591
-0.000615126
-0.000679309
-0.000747358
-0.000819493
-0.000895924
-0.000976847
-0.00106243
-0.00115282
-0.00124809
-0.00134829
-0.00145338
-0.00156325
-0.0016777
-0.00179643
-0.00191903
-0.002045
-0.00217371
-0.0023044
-0.00243622
-0.00256821
-0.00269929
-0.00282829
-0.00295399
-0.00307507
-0.00319019
-0.00329798
-0.00339709
-0.00348615
-0.00356389
-0.00362909
-0.00368063
-0.00371753
-0.00373896
-0.00374426
-0.00373296
-0.00370483
-0.00365986
-0.00359829
-0.00352067
-0.00342765
-0.00332033
-0.00320002
-0.00306826
-0.00292684
-0.0027778
-0.00262337
-0.00246594
-0.00230807
-0.00215241
-0.00200166
-0.00185853
-0.00172571
-0.00160576
-0.00150114
-0.00141405
-0.00134648
-0.0013001
-0.00127622
-0.00127579
-0.00129934
-0.00134695
-0.00141829
-0.00151258
-0.00162862
-0.00176483
-0.00191929
-0.00208975
-0.00227376
-0.00246866
-0.0026717
-0.00288009
-0.00309108
-0.00330201
-0.00351039
-0.00371394
-0.00391063
-0.0040987
-0.00427673
-0.00444358
-0.00459845
-0.00474082
-0.00487047
-0.00498744
-0.00509198
-0.00518455
-0.00526574
-0.00533628
-0.00539697
-0.00544864
-0.00549212
-0.00552823
-0.0055577
-0.0055812
-0.00559926
-0.00561225
-0.00562042
-0.00562379
-0.00562219
-0.00561522
-0.0056025
-0.00558367
-0.00555472
-0.00550855
0.000265579
0.00024491
0.000226555
0.000208369
0.000189325
0.000169579
0.000149161
0.00012798
0.000105924
8.28659e-05
5.86682e-05
3.31834e-05
6.26128e-06
-2.22493e-05
-5.24975e-05
-8.4631e-05
-0.000118797
-0.000155144
-0.000193826
-0.000235004
-0.00027885
-0.000325548
-0.000375302
-0.000428332
-0.000484877
-0.000545193
-0.000609551
-0.000678235
-0.000751534
-0.000829737
-0.000913123
-0.00100195
-0.00109646
-0.00119683
-0.00130319
-0.00141563
-0.00153412
-0.00165857
-0.00178876
-0.00192438
-0.002065
-0.00221004
-0.00235882
-0.0025105
-0.00266413
-0.00281864
-0.00297285
-0.00312546
-0.00327509
-0.00342032
-0.00355964
-0.00369154
-0.00381451
-0.00392704
-0.00402771
-0.00411513
-0.00418805
-0.00424534
-0.004286
-0.00430925
-0.00431449
-0.00430133
-0.00426963
-0.00421955
-0.00415151
-0.00406592
-0.00396396
-0.0038468
-0.0037159
-0.003573
-0.00342011
-0.00325942
-0.00309337
-0.00292453
-0.00275561
-0.0025894
-0.00242876
-0.00227649
-0.00213537
-0.00200804
-0.00189696
-0.00180436
-0.00173219
-0.00168207
-0.00165523
-0.00165251
-0.00167428
-0.00172049
-0.00179062
-0.00188371
-0.00199836
-0.00213281
-0.00228494
-0.00245235
-0.00263243
-0.0028224
-0.00301944
-0.00322068
-0.00342337
-0.00362487
-0.00382273
-0.00401476
-0.00419905
-0.00437399
-0.0045383
-0.00469103
-0.00483154
-0.0049595
-0.00507485
-0.0051778
-0.00526874
-0.00534827
-0.00541709
-0.005476
-0.00552587
-0.00556756
-0.00560192
-0.00562974
-0.00565171
-0.00566841
-0.00568028
-0.00568756
-0.00569035
-0.00568848
-0.00568159
-0.00566933
-0.00565134
-0.00562383
-0.00558013
0.000307887
0.000282234
0.00026046
0.000239736
0.000218646
0.000197314
0.000175712
0.000153669
0.000130999
0.000107508
8.29977e-05
5.72636e-05
3.01047e-05
1.32326e-06
-2.92736e-05
-6.18758e-05
-9.66721e-05
-0.000133854
-0.00017362
-0.000216178
-0.000261751
-0.000310581
-0.000362932
-0.000419088
-0.000479359
-0.000544075
-0.000613584
-0.000688249
-0.000768438
-0.000854518
-0.000946843
-0.00104574
-0.00115151
-0.0012644
-0.00138458
-0.00151215
-0.00164712
-0.00178938
-0.00193873
-0.00209481
-0.00225713
-0.00242506
-0.00259784
-0.00277453
-0.00295409
-0.00313531
-0.00331687
-0.00349734
-0.0036752
-0.00384885
-0.00401665
-0.0041769
-0.00432793
-0.00446807
-0.00459571
-0.00470932
-0.00480745
-0.00488881
-0.00495225
-0.0049968
-0.00502172
-0.00502646
-0.00501074
-0.0049745
-0.00491789
-0.00484181
-0.00474674
-0.00463385
-0.00450455
-0.00436051
-0.00420366
-0.0040362
-0.00386052
-0.00367923
-0.00349509
-0.00331098
-0.00312985
-0.00295469
-0.00278846
-0.002634
-0.00249406
-0.00237116
-0.00226756
-0.00218521
-0.00212571
-0.00209025
-0.00207957
-0.00209396
-0.00213324
-0.00219675
-0.00228338
-0.00239157
-0.00251939
-0.00266458
-0.0028246
-0.0029967
-0.00317802
-0.00336565
-0.00355669
-0.00374839
-0.00393811
-0.00412349
-0.0043024
-0.00447306
-0.00463397
-0.00478401
-0.00492237
-0.00504858
-0.00516246
-0.0052641
-0.00535383
-0.00543218
-0.00549982
-0.00555755
-0.00560621
-0.0056467
-0.00567988
-0.00570658
-0.00572752
-0.00574334
-0.0057545
-0.0057613
-0.00576386
-0.00576206
-0.00575558
-0.00574409
-0.00572728
-0.0057016
-0.00566088
0.000350569
0.000319617
0.000294243
0.000270865
0.000247647
0.000224669
0.000201833
0.000178877
0.000155529
0.000131522
0.000106585
8.04537e-05
5.287e-05
2.35839e-05
-7.64669e-06
-4.10594e-05
-7.68912e-05
-0.000115383
-0.000156784
-0.00020136
-0.000249393
-0.000301193
-0.000357093
-0.000417456
-0.000482673
-0.000553157
-0.000629345
-0.000711689
-0.000800646
-0.000896667
-0.00100019
-0.00111162
-0.00123131
-0.00135957
-0.00149662
-0.00164258
-0.00179747
-0.00196118
-0.00213347
-0.00231396
-0.00250209
-0.00269715
-0.00289829
-0.00310445
-0.00331447
-0.00352701
-0.00374059
-0.00395363
-0.00416444
-0.00437125
-0.00457223
-0.00476551
-0.00494922
-0.00512151
-0.00528059
-0.00542472
-0.00555228
-0.00566178
-0.00575188
-0.00582145
-0.00586954
-0.00589543
-0.00589869
-0.00587907
-0.00583664
-0.00577188
-0.0056854
-0.00557817
-0.00545148
-0.00530688
-0.00514624
-0.00497169
-0.00478561
-0.00459059
-0.00438943
-0.00418508
-0.0039806
-0.00377912
-0.0035838
-0.00339772
-0.00322389
-0.00306514
-0.00292411
-0.00280311
-0.00270416
-0.00262886
-0.00257839
-0.00255348
-0.00255434
-0.00258071
-0.00263183
-0.00270647
-0.00280296
-0.00291922
-0.00305287
-0.00320124
-0.00336148
-0.00353065
-0.00370576
-0.0038839
-0.00406227
-0.00423831
-0.00440966
-0.0045743
-0.00473052
-0.00487695
-0.00501259
-0.00513677
-0.00524913
-0.00534963
-0.00543848
-0.0055161
-0.00558311
-0.00564025
-0.00568834
-0.00572828
-0.00576093
-0.00578714
-0.00580766
-0.00582315
-0.00583412
-0.00584091
-0.00584367
-0.00584235
-0.00583664
-0.00582626
-0.00581092
-0.0057874
-0.00575002
0.000392794
0.000356272
0.000327131
0.000301001
0.000275589
0.000250916
0.000226806
0.000202889
0.000178798
0.000154181
0.000128691
0.000101995
7.37706e-05
4.3711e-05
1.15185e-05
-2.30988e-05
-6.04323e-05
-0.00010078
-0.000144452
-0.00019178
-0.000243117
-0.00029885
-0.000359395
-0.000425204
-0.00049676
-0.000574574
-0.000659183
-0.000751137
-0.00085099
-0.000959287
-0.00107655
-0.00120327
-0.00133987
-0.0014867
-0.00164402
-0.00181199
-0.00199062
-0.00217979
-0.00237922
-0.00258847
-0.00280691
-0.00303375
-0.00326801
-0.00350852
-0.00375397
-0.00400285
-0.00425353
-0.00450425
-0.00475314
-0.00499821
-0.00523746
-0.0054688
-0.00569017
-0.0058995
-0.00609479
-0.00627409
-0.00643558
-0.00657755
-0.00669848
-0.00679701
-0.006872
-0.00692254
-0.00694799
-0.00694794
-0.0069223
-0.0068713
-0.00679543
-0.00669552
-0.00657271
-0.00642844
-0.00626447
-0.00608283
-0.00588586
-0.00567613
-0.00545644
-0.00522979
-0.00499933
-0.00476832
-0.00454009
-0.00431798
-0.00410525
-0.00390509
-0.00372048
-0.00355418
-0.00340864
-0.00328596
-0.00318781
-0.00311541
-0.00306951
-0.0030503
-0.0030575
-0.00309027
-0.0031473
-0.00322682
-0.00332667
-0.00344433
-0.00357703
-0.00372183
-0.00387569
-0.00403558
-0.00419853
-0.00436174
-0.00452263
-0.00467891
-0.0048286
-0.00497006
-0.00510202
-0.00522357
-0.00533414
-0.00543348
-0.00552164
-0.0055989
-0.00566578
-0.00572293
-0.00577112
-0.0058112
-0.00584403
-0.00587044
-0.00589121
-0.00590702
-0.0059184
-0.00592572
-0.00592918
-0.00592876
-0.0059242
-0.00591527
-0.0059017
-0.00588058
-0.00584679
0.000433703
0.000391338
0.000358278
0.000329312
0.000301653
0.000275249
0.000249828
0.000224901
0.000199996
0.000174666
0.000148478
0.000121023
9.19106e-05
6.07683e-05
2.7237e-05
-9.03634e-06
-4.84057e-05
-9.1235e-05
-0.000137906
-0.000188824
-0.000244427
-0.000305191
-0.000371628
-0.00044429
-0.000523766
-0.00061068
-0.000705675
-0.000809412
-0.000922552
-0.00104574
-0.00117959
-0.00132468
-0.00148148
-0.00165042
-0.00183179
-0.00202574
-0.0022323
-0.00245131
-0.00268246
-0.00292522
-0.00317888
-0.00344253
-0.00371507
-0.00399518
-0.00428138
-0.004572
-0.00486522
-0.00515906
-0.00545146
-0.00574022
-0.00602309
-0.0062978
-0.00656203
-0.00681349
-0.00704995
-0.00726925
-0.00746932
-0.00764824
-0.00780427
-0.00793583
-0.00804156
-0.00812035
-0.00817135
-0.00819397
-0.00818791
-0.0081532
-0.00809018
-0.00799948
-0.0078821
-0.00773933
-0.0075728
-0.00738444
-0.00717649
-0.00695147
-0.00671217
-0.00646159
-0.00620295
-0.00593961
-0.00567505
-0.00541284
-0.0051565
-0.00490955
-0.00467536
-0.00445712
-0.00425778
-0.00407995
-0.00392589
-0.00379739
-0.00369577
-0.00362183
-0.00357583
-0.00355747
-0.00356591
-0.00359978
-0.00365724
-0.00373603
-0.00383355
-0.00394693
-0.00407312
-0.004209
-0.00435144
-0.00449744
-0.00464416
-0.004789
-0.00492968
-0.00506424
-0.0051911
-0.00530905
-0.00541723
-0.00551515
-0.00560264
-0.00567979
-0.00574696
-0.00580466
-0.00585359
-0.00589452
-0.00592826
-0.00595563
-0.00597738
-0.0059942
-0.00600665
-0.00601511
-0.00601981
-0.00602076
-0.00601777
-0.00601062
-0.00599908
-0.00598055
-0.00595046
0.000472335
0.000423873
0.00038676
0.000354888
0.000324938
0.000296773
0.000270007
0.00024402
0.000218221
0.000192056
0.000165003
0.000136567
0.000106281
7.37018e-05
3.84012e-05
-4.31531e-08
-4.20566e-05
-8.80788e-05
-0.000138572
-0.000194032
-0.000254992
-0.000322028
-0.000395762
-0.000476864
-0.00056604
-0.000664035
-0.000771615
-0.000889562
-0.00101865
-0.00115963
-0.00131321
-0.00148005
-0.00166071
-0.00185563
-0.00206515
-0.00228943
-0.00252846
-0.00278208
-0.00304987
-0.00333124
-0.00362537
-0.00393122
-0.00424753
-0.00457281
-0.00490541
-0.00524344
-0.00558488
-0.00592753
-0.00626908
-0.00660711
-0.00693913
-0.0072626
-0.00757498
-0.00787371
-0.00815633
-0.00842043
-0.00866371
-0.00888402
-0.00907936
-0.00924796
-0.00938823
-0.00949885
-0.00957874
-0.00962712
-0.0096435
-0.0096277
-0.00957986
-0.00950044
-0.00939027
-0.00925046
-0.00908249
-0.00888817
-0.00866961
-0.00842924
-0.00816979
-0.00789424
-0.00760583
-0.00730799