/*--------------------------------*- C++ -*----------------------------------*\
| =========                 |                                                 |
| \\      /  F ield         | OpenFOAM: The Open Source CFD Toolbox           |
|  \\    /   O peration     | Version:  2112                                  |
|   \\  /    A nd           | Website:  www.openfoam.com                      |
|    \\/     M anipulation  |                                                 |
\*---------------------------------------------------------------------------*/
FoamFile
{
    version     2.0;
    format      ascii;
    arch        "LSB;label=32;scalar=64";
    class       surfaceScalarField;
    location    "17";
    object      phi;
}
// * * * * * * * * * * * * * * * * * * * * * * * * * * * * * * * * * * * * * //

dimensions      [0 3 -1 0 0 0 0];

oriented        oriented;

internalField   nonuniform List<scalar> 
33024
(
2.689e-09
-2.69068e-09
1.80509e-08
-1.53613e-08
4.24091e-08
-2.43584e-08
7.08472e-08
-2.8438e-08
9.9791e-08
-2.89441e-08
1.26874e-07
-2.7083e-08
1.50622e-07
-2.37485e-08
1.70197e-07
-1.95741e-08
1.85184e-07
-1.49877e-08
1.95446e-07
-1.0261e-08
2.01002e-07
-5.55611e-09
2.01959e-07
-9.57458e-10
1.98451e-07
3.50806e-09
1.90604e-07
7.84666e-09
1.78512e-07
1.20919e-08
1.62222e-07
1.62908e-08
1.41724e-07
2.04972e-08
1.16957e-07
2.4767e-08
8.7804e-08
2.91531e-08
5.41005e-08
3.37035e-08
1.56405e-08
3.84602e-08
-2.78173e-08
4.34581e-08
-7.65419e-08
4.87244e-08
-1.30822e-07
5.42802e-08
-1.90962e-07
6.01398e-08
-2.57273e-07
6.63112e-08
-3.3007e-07
7.27975e-08
-4.09668e-07
7.95976e-08
-4.96373e-07
8.6705e-08
-5.90482e-07
9.41088e-08
-6.92276e-07
1.01794e-07
-8.02017e-07
1.09741e-07
-9.19941e-07
1.17924e-07
-1.04625e-06
1.26312e-07
-1.18112e-06
1.34867e-07
-1.32466e-06
1.43544e-07
-1.47695e-06
1.52291e-07
-1.638e-06
1.61046e-07
-1.80774e-06
1.69742e-07
-1.98604e-06
1.78298e-07
-2.17267e-06
1.86628e-07
-2.3673e-06
1.94636e-07
-2.56952e-06
2.02217e-07
-2.77878e-06
2.09258e-07
-2.99442e-06
2.1564e-07
-3.21566e-06
2.21237e-07
-3.44157e-06
2.25918e-07
-3.67112e-06
2.2955e-07
-3.90312e-06
2.31996e-07
-4.13624e-06
2.33121e-07
-4.36903e-06
2.32792e-07
-4.59991e-06
2.30881e-07
-4.82718e-06
2.27267e-07
-5.04902e-06
2.21838e-07
-5.26351e-06
2.14495e-07
-5.46867e-06
2.05154e-07
-5.66242e-06
1.93751e-07
-5.84266e-06
1.80238e-07
-6.00725e-06
1.64594e-07
-6.15407e-06
1.46823e-07
-6.28103e-06
1.26955e-07
-6.38608e-06
1.0505e-07
-6.46728e-06
8.12013e-08
-6.52281e-06
5.55361e-08
-6.55102e-06
2.821e-08
-6.55047e-06
-5.52215e-10
-6.5198e-06
-3.06763e-08
-6.45807e-06
-6.17229e-08
-6.36458e-06
-9.34937e-08
-6.23891e-06
-1.25672e-07
-6.08098e-06
-1.57923e-07
-5.89109e-06
-1.89894e-07
-5.66987e-06
-2.21217e-07
-5.41836e-06
-2.51517e-07
-5.13795e-06
-2.80412e-07
-4.83042e-06
-3.07525e-07
-4.49793e-06
-3.32492e-07
-4.14296e-06
-3.54964e-07
-3.76835e-06
-3.74617e-07
-3.37719e-06
-3.91161e-07
-2.97284e-06
-4.04344e-07
-2.55888e-06
-4.13962e-07
-2.13902e-06
-4.19862e-07
-1.71707e-06
-4.21945e-07
-1.2969e-06
-4.20176e-07
-8.82318e-07
-4.14579e-07
-4.77076e-07
-4.05242e-07
-8.47603e-08
-3.92316e-07
2.91253e-07
-3.76013e-07
6.47843e-07
-3.5659e-07
9.82209e-07
-3.34366e-07
1.2919e-06
-3.09696e-07
1.57487e-06
-2.8297e-07
1.82948e-06
-2.54603e-07
2.0545e-06
-2.25025e-07
2.24917e-06
-1.94671e-07
2.41314e-06
-1.6397e-07
2.54648e-06
-1.33339e-07
2.64965e-06
-1.0317e-07
2.72348e-06
-7.38232e-08
2.7691e-06
-4.56228e-08
2.78795e-06
-1.88491e-08
2.78168e-06
6.26465e-09
2.75215e-06
2.9533e-08
2.70133e-06
5.08211e-08
2.63129e-06
7.00423e-08
2.54413e-06
8.71565e-08
2.44196e-06
1.02167e-07
2.32685e-06
1.15116e-07
2.20077e-06
1.26078e-07
2.06561e-06
1.35154e-07
1.92315e-06
1.42462e-07
1.77502e-06
1.48132e-07
1.62273e-06
1.52288e-07
1.46769e-06
1.55046e-07
1.3112e-06
1.56491e-07
1.15452e-06
1.56671e-07
9.98954e-07
1.55571e-07
8.45852e-07
1.53102e-07
6.96777e-07
1.49075e-07
5.53594e-07
1.43184e-07
4.18612e-07
1.34982e-07
2.94738e-07
1.23874e-07
1.85613e-07
1.09125e-07
9.56644e-08
8.99484e-08
2.9879e-08
6.57854e-08
-7.1419e-09
3.70207e-08
-1.41043e-08
6.96192e-09
-1.41047e-08
1.54195e-08
-1.81095e-08
5.46087e-08
-5.45513e-08
1.08879e-07
-7.86286e-08
1.70074e-07
-8.96329e-08
2.31454e-07
-9.03233e-08
2.87982e-07
-8.36118e-08
3.36176e-07
-7.19417e-08
3.73799e-07
-5.71978e-08
3.99549e-07
-4.07378e-08
4.12775e-07
-2.34862e-08
4.13245e-07
-6.02627e-09
4.00978e-07
1.13102e-08
3.76095e-07
2.83908e-08
3.38734e-07
4.52072e-08
2.8898e-07
6.1846e-08
2.26822e-07
7.84491e-08
1.52131e-07
9.51892e-08
6.46491e-08
1.12249e-07
-3.6004e-08
1.29806e-07
-1.50325e-07
1.48024e-07
-2.78911e-07
1.67047e-07
-4.22447e-07
1.86994e-07
-5.81679e-07
2.07957e-07
-7.57406e-07
2.30007e-07
-9.50454e-07
2.53188e-07
-1.16166e-06
2.77521e-07
-1.39187e-06
3.03009e-07
-1.64191e-06
3.29632e-07
-1.91256e-06
3.57354e-07
-2.20457e-06
3.86116e-07
-2.51862e-06
4.15845e-07
-2.85532e-06
4.46444e-07
-3.21519e-06
4.77795e-07
-3.59864e-06
5.09758e-07
-4.00594e-06
5.42167e-07
-4.43722e-06
5.74827e-07
-4.89245e-06
6.07517e-07
-5.37139e-06
6.39984e-07
-5.87359e-06
6.71945e-07
-6.39837e-06
7.03083e-07
-6.9448e-06
7.33055e-07
-7.51165e-06
7.61485e-07
-8.09741e-06
7.87971e-07
-8.70023e-06
8.12085e-07
-9.31797e-06
8.3338e-07
-9.94813e-06
8.51391e-07
-1.05879e-05
8.65643e-07
-1.1234e-05
8.75656e-07
-1.18829e-05
8.80952e-07
-1.25309e-05
8.81062e-07
-1.31736e-05
8.75534e-07
-1.38067e-05
8.63944e-07
-1.44253e-05
8.45901e-07
-1.50245e-05
8.21057e-07
-1.55991e-05
7.89118e-07
-1.61438e-05
7.49851e-07
-1.66532e-05
7.03093e-07
-1.71217e-05
6.48759e-07
-1.7544e-05
5.86852e-07
-1.79146e-05
5.17466e-07
-1.82284e-05
4.40793e-07
-1.84805e-05
3.57128e-07
-1.86662e-05
2.66877e-07
-1.87812e-05
1.70556e-07
-1.88218e-05
6.87931e-08
-1.87846e-05
-3.77078e-08
-1.86671e-05
-1.48229e-07
-1.84671e-05
-2.61671e-07
-1.81835e-05
-3.77085e-07
-1.78158e-05
-4.93382e-07
-1.73644e-05
-6.09402e-07
-1.68303e-05
-7.23934e-07
-1.62158e-05
-8.35724e-07
-1.55238e-05
-9.43501e-07
-1.47582e-05
-1.04599e-06
-1.39238e-05
-1.14194e-06
-1.30262e-05
-1.23015e-06
-1.20717e-05
-1.30946e-06
-1.10675e-05
-1.37881e-06
-1.00214e-05
-1.43726e-06
-8.94173e-06
-1.48399e-06
-7.83737e-06
-1.51832e-06
-6.71747e-06
-1.53976e-06
-5.59143e-06
-1.54798e-06
-4.46875e-06
-1.54286e-06
-3.35885e-06
-1.52447e-06
-2.27102e-06
-1.49308e-06
-1.21416e-06
-1.44917e-06
-1.96768e-07
-1.39341e-06
7.73289e-07
-1.32665e-06
1.68882e-06
-1.24989e-06
2.54344e-06
-1.16432e-06
3.33166e-06
-1.07119e-06
4.04896e-06
-9.71898e-07
4.69179e-06
-8.67861e-07
5.25767e-06
-7.60547e-07
5.74512e-06
-6.51417e-07
6.15368e-06
-5.41901e-07
6.48387e-06
-4.33364e-07
6.73713e-06
-3.27084e-07
6.91574e-06
-2.24225e-07
7.0227e-06
-1.25818e-07
7.06171e-06
-3.27461e-08
7.03698e-06
5.42638e-08
6.95315e-06
1.34652e-07
6.81518e-06
2.08017e-07
6.62821e-06
2.74121e-07
6.39751e-06
3.32873e-07
6.1283e-06
3.84319e-07
5.82576e-06
4.28623e-07
5.49487e-06
4.66043e-07
5.14043e-06
4.96905e-07
4.76699e-06
5.21574e-07
4.37886e-06
5.40413e-07
3.98016e-06
5.53748e-07
3.57483e-06
5.61819e-07
3.16677e-06
5.64735e-07
2.75992e-06
5.62413e-07
2.35849e-06
5.54531e-07
1.9671e-06
5.40469e-07
1.59102e-06
5.19267e-07
1.23639e-06
4.89606e-07
9.10435e-07
4.49832e-07
6.21457e-07
3.98103e-07
3.78642e-07
3.32764e-07
1.91186e-07
2.53242e-07
6.65036e-08
1.61703e-07
7.10568e-09
6.63603e-08
-6.99917e-09
2.46855e-08
-4.27953e-08
7.91577e-08
-1.09024e-07
1.50355e-07
-1.49826e-07
2.27895e-07
-1.67172e-07
3.03378e-07
-1.65807e-07
3.70375e-07
-1.50608e-07
4.24251e-07
-1.25818e-07
4.61867e-07
-9.48143e-08
4.81254e-07
-6.01241e-08
4.81289e-07
-2.35216e-08
4.61429e-07
1.38339e-08
4.21471e-07
5.12676e-08
3.61387e-07
8.84755e-08
2.81176e-07
1.25418e-07
1.80779e-07
1.62243e-07
6.00132e-08
1.99215e-07
-8.14636e-08
2.36666e-07
-2.44167e-07
2.74952e-07
-4.28786e-07
3.14425e-07
-6.36169e-07
3.55407e-07
-8.67305e-07
3.98183e-07
-1.1233e-06
4.42988e-07
-1.40535e-06
4.90005e-07
-1.7147e-06
5.39362e-07
-2.05265e-06
5.91138e-07
-2.42049e-06
6.45362e-07
-2.8195e-06
7.02014e-07
-3.2509e-06
7.61032e-07
-3.71585e-06
8.22307e-07
-4.21543e-06
8.85689e-07
-4.75056e-06
9.50983e-07
-5.32207e-06
1.01795e-06
-5.93056e-06
1.08629e-06
-6.57646e-06
1.15566e-06
-7.25997e-06
1.22568e-06
-7.98101e-06
1.29586e-06
-8.7392e-06
1.36571e-06
-9.53385e-06
1.43463e-06
-1.03639e-05
1.50198e-06
-1.12278e-05
1.56704e-06
-1.21238e-05
1.62905e-06
-1.30495e-05
1.68717e-06
-1.40021e-05
1.74054e-06
-1.49782e-05
1.78823e-06
-1.59741e-05
1.82929e-06
-1.69855e-05
1.86273e-06
-1.80074e-05
1.88757e-06
-1.90346e-05
1.90283e-06
-2.00612e-05
1.90753e-06
-2.10809e-05
1.90075e-06
-2.20869e-05
1.8816e-06
-2.30723e-05
1.84928e-06
-2.40294e-05
1.80306e-06
-2.49507e-05
1.74231e-06
-2.58281e-05
1.66655e-06
-2.66537e-05
1.5754e-06
-2.74192e-05
1.46867e-06
-2.81168e-05
1.34632e-06
-2.87384e-05
1.20848e-06
-2.92765e-05
1.0555e-06
-2.97236e-05
8.87892e-07
-3.00728e-05
7.06407e-07
-3.0318e-05
5.11991e-07
-3.04532e-05
3.05821e-07
-3.04737e-05
8.92919e-08
-3.03752e-05
-1.3627e-07
-3.01544e-05
-3.68969e-07
-2.98093e-05
-6.06826e-07
-2.93385e-05
-8.47808e-07
-2.87422e-05
-1.08971e-06
-2.80214e-05
-1.3302e-06
-2.71785e-05
-1.56688e-06
-2.62169e-05
-1.79726e-06
-2.51416e-05
-2.01886e-06
-2.39584e-05
-2.22919e-06
-2.26745e-05
-2.42582e-06
-2.12982e-05
-2.60642e-06
-1.98389e-05
-2.76878e-06
-1.83069e-05
-2.91087e-06
-1.67133e-05
-3.03085e-06
-1.50701e-05
-3.12715e-06
-1.33899e-05
-3.19849e-06
-1.16858e-05
-3.24389e-06
-9.97107e-06
-3.26272e-06
-8.25922e-06
-3.25472e-06
-6.56371e-06
-3.21998e-06
-4.89777e-06
-3.15902e-06
-3.27424e-06
-3.0727e-06
-1.70538e-06
-2.96227e-06
-2.02705e-07
-2.82933e-06
1.2232e-06
-2.6758e-06
2.56277e-06
-2.50389e-06
3.80763e-06
-2.31605e-06
4.95067e-06
-2.11494e-06
5.98615e-06
-1.90334e-06
6.90973e-06
-1.68412e-06
7.71848e-06
-1.46017e-06
8.41093e-06
-1.23435e-06
8.98698e-06
-1.00941e-06
9.44786e-06
-7.87967e-07
9.79606e-06
-5.72427e-07
1.00352e-05
-3.64964e-07
1.01699e-05
-1.67477e-07
1.02058e-05
1.84279e-08
1.0149e-05
1.91469e-07
1.00063e-05
3.5067e-07
9.78505e-06
4.95376e-07
9.49269e-06
6.25232e-07
9.13685e-06
7.40157e-07
8.72516e-06
8.40316e-07
8.26513e-06
9.26072e-07
7.7641e-06
9.97938e-07
7.22916e-06
1.05651e-06
6.66717e-06
1.10241e-06
6.08474e-06
1.13617e-06
5.48834e-06
1.15822e-06
4.88439e-06
1.16869e-06
4.27942e-06
1.16739e-06
3.68025e-06
1.1537e-06
3.09425e-06
1.12646e-06
2.52958e-06
1.08394e-06
1.99536e-06
1.02383e-06
1.50183e-06
9.43359e-07
1.0603e-06
8.39636e-07
6.82709e-07
7.1035e-07
3.80733e-07
5.55217e-07
1.64083e-07
3.78353e-07
3.7966e-08
1.92478e-07
3.09669e-08
2.89574e-08
-7.17523e-08
9.0235e-08
-1.70302e-07
1.67302e-07
-2.26893e-07
2.47985e-07
-2.47855e-07
3.2285e-07
-2.40671e-07
3.84746e-07
-2.12504e-07
4.28461e-07
-1.69532e-07
4.50373e-07
-1.16726e-07
4.48107e-07
-5.78574e-08
4.20205e-07
4.37985e-09
3.65844e-07
6.81949e-08
2.84581e-07
1.3253e-07
1.76164e-07
1.96894e-07
4.03707e-08
2.61211e-07
-1.23091e-07
3.25704e-07
-3.14661e-07
3.90785e-07
-5.3497e-07
4.56975e-07
-7.84852e-07
5.24834e-07
-1.06534e-06
5.94918e-07
-1.37768e-06
6.67739e-07
-1.72324e-06
7.43744e-07
-2.10355e-06
8.23298e-07
-2.52022e-06
9.06681e-07
-2.97494e-06
9.94081e-07
-3.4694e-06
1.0856e-06
-4.00528e-06
1.18125e-06
-4.58422e-06
1.28095e-06
-5.20776e-06
1.38457e-06
-5.87733e-06
1.49187e-06
-6.59419e-06
1.60255e-06
-7.35941e-06
1.71621e-06
-8.17384e-06
1.83238e-06
-9.03806e-06
1.9505e-06
-9.95232e-06
2.06993e-06
-1.09165e-05
2.1899e-06
-1.19303e-05
2.30958e-06
-1.29925e-05
2.428e-06
-1.4102e-05
2.5441e-06
-1.52568e-05
2.65674e-06
-1.64544e-05
2.76463e-06
-1.76918e-05
2.86644e-06
-1.89653e-05
2.96071e-06
-2.02707e-05
3.04595e-06
-2.16031e-05
3.12057e-06
-2.29567e-05
3.18297e-06
-2.43255e-05
3.23153e-06
-2.57026e-05
3.26462e-06
-2.70804e-05
3.28064e-06
-2.84509e-05
3.27806e-06
-2.98056e-05
3.25542e-06
-3.11353e-05
3.21136e-06
-3.24307e-05
3.14468e-06
-3.3682e-05
3.05432e-06
-3.48791e-05
2.93944e-06
-3.6012e-05
2.7994e-06
-3.70704e-05
2.63379e-06
-3.80442e-05
2.44249e-06
-3.89235e-05
2.22565e-06
-3.96987e-05
1.98371e-06
-4.03607e-05
1.71742e-06
-4.09006e-05
1.42786e-06
-4.13106e-05
1.1164e-06
-4.15834e-05
7.84766e-07
-4.17126e-05
4.3502e-07
-4.16931e-05
6.97786e-08
-4.152e-05
-3.0937e-07
-4.11904e-05
-6.98545e-07
-4.07024e-05
-1.09483e-06
-4.00553e-05
-1.49491e-06
-3.92498e-05
-1.89525e-06
-3.82878e-05
-2.29213e-06
-3.7173e-05
-2.68173e-06
-3.591e-05
-3.06019e-06
-3.45053e-05
-3.4236e-06
-3.29664e-05
-3.7681e-06
-3.13023e-05
-4.08993e-06
-2.95232e-05
-4.38547e-06
-2.76407e-05
-4.65132e-06
-2.56672e-05
-4.88434e-06
-2.36164e-05
-5.0817e-06
-2.15025e-05
-5.24098e-06
-1.93409e-05
-5.36016e-06
-1.7147e-05
-5.43772e-06
-1.49371e-05
-5.47265e-06
-1.27274e-05
-5.46448e-06
-1.0534e-05
-5.41332e-06
-8.37319e-06
-5.31986e-06
-6.26051e-06
-5.18538e-06
-4.21106e-06
-5.01172e-06
-2.23912e-06
-4.80126e-06
-3.57997e-07
-4.55692e-06
1.42017e-06
-4.28206e-06
3.08452e-06
-3.98041e-06
4.62565e-06
-3.65607e-06
6.03568e-06
-3.31337e-06
7.30836e-06
-2.9568e-06
8.43911e-06
-2.59093e-06
9.42506e-06
-2.22029e-06
1.0265e-05
-1.84934e-06
1.09593e-05
-1.48231e-06
1.15101e-05
-1.12318e-06
1.19207e-05
-7.7558e-07
1.2196e-05
-4.42739e-07
1.23418e-05
-1.27448e-07
1.23653e-05
1.67986e-07
1.22742e-05
4.41744e-07
1.20771e-05
6.92503e-07
1.17829e-05
9.19418e-07
1.1401e-05
1.12209e-06
1.09408e-05
1.30052e-06
1.04118e-05
1.45505e-06
9.8235e-06
1.58626e-06
9.18509e-06
1.69492e-06
8.50567e-06
1.78183e-06
7.79412e-06
1.84772e-06
7.05923e-06
1.89312e-06
6.30972e-06
1.91819e-06
5.55448e-06
1.92263e-06
4.80271e-06
1.90547e-06
4.06417e-06
1.86501e-06
3.34934e-06
1.79877e-06
2.66969e-06
1.70348e-06
2.03768e-06
1.57537e-06
1.46674e-06
1.41058e-06
9.70897e-07
1.2062e-06
5.64144e-07
9.6197e-07
2.59515e-07
6.82981e-07
6.81733e-08
3.83819e-07
9.91403e-08
2.93618e-08
-1.01114e-07
8.98079e-08
-2.30747e-07
1.62854e-07
-2.99939e-07
2.35171e-07
-3.20172e-07
2.9674e-07
-3.02241e-07
3.40102e-07
-2.55866e-07
3.59839e-07
-1.8927e-07
3.52152e-07
-1.09039e-07
3.1448e-07
-2.01855e-08
2.45175e-07
7.3685e-08
1.43202e-07
1.70168e-07
7.89396e-09
2.67838e-07
-1.61247e-07
3.66034e-07
-3.64709e-07
4.64673e-07
-6.0308e-07
5.64075e-07
-8.77121e-07
6.64826e-07
-1.18781e-06
7.6766e-07
-1.53634e-06
8.73368e-07
-1.92415e-06
9.8273e-07
-2.35287e-06
1.09646e-06
-2.82431e-06
1.21518e-06
-3.34039e-06
1.33938e-06
-3.90315e-06
1.46944e-06
-4.51464e-06
1.60557e-06
-5.17693e-06
1.74789e-06
-5.89203e-06
1.89635e-06
-6.66186e-06
2.05078e-06
-7.48819e-06
2.2109e-06
-8.37261e-06
2.37629e-06
-9.31647e-06
2.54641e-06
-1.03208e-05
2.72058e-06
-1.13865e-05
2.89801e-06
-1.25137e-05
3.07776e-06
-1.37025e-05
3.25874e-06
-1.49524e-05
3.43974e-06
-1.62622e-05
3.61937e-06
-1.76303e-05
3.79611e-06
-1.90544e-05
3.96827e-06
-2.05317e-05
4.13402e-06
-2.20585e-05
4.29142e-06
-2.36304e-05
4.43835e-06
-2.52423e-05
4.57264e-06
-2.68884e-05
4.69201e-06
-2.85619e-05
4.79411e-06
-3.02555e-05
4.87657e-06
-3.19611e-05
4.93704e-06
-3.36696e-05
4.97317e-06
-3.53717e-05
4.98273e-06
-3.70572e-05
4.96355e-06
-3.87154e-05
4.91367e-06
-4.03354e-05
4.83128e-06
-4.19055e-05
4.71483e-06
-4.34142e-05
4.56301e-06
-4.48496e-05
4.37485e-06
-4.61999e-05
4.14968e-06
-4.74533e-05
3.88722e-06
-4.85984e-05
3.58757e-06
-4.9624e-05
3.25122e-06
-5.05194e-05
2.87911e-06
-5.12745e-05
2.4726e-06
-5.18802e-05
2.03348e-06
-5.23277e-05
1.56398e-06
-5.26097e-05
1.06676e-06
-5.27195e-05
5.44743e-07
-5.26528e-05
3.08175e-09
-5.24036e-05
-5.58556e-07
-5.19703e-05
-1.13181e-06
-5.13513e-05
-1.71382e-06
-5.05466e-05
-2.29967e-06
-4.95575e-05
-2.88436e-06
-4.83869e-05
-3.46268e-06
-4.70393e-05
-4.02934e-06
-4.55205e-05
-4.57895e-06
-4.3838e-05
-5.10614e-06
-4.20005e-05
-5.60561e-06
-4.00182e-05
-6.07217e-06
-3.79028e-05
-6.50089e-06
-3.56671e-05
-6.88707e-06
-3.3325e-05
-7.22642e-06
-3.08916e-05
-7.51505e-06
-2.8383e-05
-7.7496e-06
-2.58159e-05
-7.92726e-06
-2.32077e-05
-8.04589e-06
-2.05764e-05
-8.10401e-06
-1.794e-05
-8.10089e-06
-1.53167e-05
-8.03655e-06
-1.27247e-05
-7.91183e-06
-1.01818e-05
-7.72833e-06
-7.70507e-06
-7.48843e-06
-5.31104e-06
-7.1953e-06
-3.01518e-06
-6.85278e-06
-8.31861e-07
-6.46538e-06
1.22591e-06
-6.03818e-06
3.1466e-06
-5.57675e-06
4.92027e-06
-5.08704e-06
6.53873e-06
-4.57526e-06
7.99559e-06
-4.04779e-06
9.28633e-06
-3.51103e-06
1.04083e-05
-2.97128e-06
1.13606e-05
-2.43465e-06
1.21443e-05
-1.9069e-06
1.27621e-05
-1.39337e-06
1.32183e-05
-8.98915e-07
1.35186e-05
-4.27767e-07
1.36701e-05
1.64547e-08
1.36811e-05
4.30824e-07
1.35605e-05
8.13072e-07
1.33183e-05
1.16162e-06
1.29649e-05
1.47551e-06
1.2511e-05
1.75438e-06
1.19677e-05
1.99835e-06
1.1346e-05
2.20792e-06
1.06571e-05
2.38388e-06
9.91179e-06
2.52712e-06
9.12106e-06
2.63845e-06
8.29571e-06
2.71847e-06
7.44657e-06
2.76733e-06
6.58463e-06
2.78457e-06
5.72117e-06
2.76892e-06
4.86801e-06
2.71817e-06
4.03762e-06
2.62915e-06
3.24335e-06
2.49775e-06
2.49948e-06
2.31924e-06
1.82123e-06
2.08883e-06
1.22461e-06
1.80282e-06
7.26256e-07
1.46032e-06
3.43339e-07
1.0659e-06
9.39988e-08
6.3316e-07
1.93139e-07
2.68754e-08
-1.27989e-07
8.00252e-08
-2.83898e-07
1.40381e-07
-3.60295e-07
1.94187e-07
-3.73978e-07
2.3129e-07
-3.39343e-07
2.44253e-07
-2.68829e-07
2.27735e-07
-1.72752e-07
1.77986e-07
-5.92904e-08
9.24476e-08
6.53534e-08
-3.05985e-08
1.96731e-07
-1.92317e-07
3.31887e-07
-3.93567e-07
4.69088e-07
-6.35094e-07
6.07561e-07
-9.17676e-07
7.47256e-07
-1.24223e-06
8.88633e-07
-1.60989e-06
1.03249e-06
-2.02203e-06
1.17979e-06
-2.48025e-06
1.33159e-06
-2.98641e-06
1.48889e-06
-3.54257e-06
1.65263e-06
-4.15097e-06
1.82357e-06
-4.81394e-06
2.00235e-06
-5.5339e-06
2.1894e-06
-6.31328e-06
2.38495e-06
-7.15446e-06
2.58907e-06
-8.05972e-06
2.80161e-06
-9.03119e-06
3.02225e-06
-1.00708e-05
3.25049e-06
-1.11801e-05
3.48565e-06
-1.23606e-05
3.72686e-06
-1.36131e-05
3.97307e-06
-1.49381e-05
4.22304e-06
-1.63357e-05
4.47533e-06
-1.78053e-05
4.72831e-06
-1.93457e-05
4.98014e-06
-2.09551e-05
5.22878e-06
-2.26309e-05
5.47196e-06
-2.43699e-05
5.70726e-06
-2.61679e-05
5.93204e-06
-2.802e-05
6.14348e-06
-2.99203e-05
6.33866e-06
-3.18622e-05
6.51449e-06
-3.3838e-05
6.66784e-06
-3.58394e-05
6.7955e-06
-3.78571e-05
6.89428e-06
-3.98811e-05
6.96104e-06
-4.19006e-05
6.99272e-06
-4.39043e-05
6.9864e-06
-4.58802e-05
6.93939e-06
-4.78157e-05
6.84923e-06
-4.96982e-05
6.71376e-06
-5.15146e-05
6.53118e-06
-5.32516e-05
6.30007e-06
-5.48962e-05
6.01944e-06
-5.64353e-05
5.68879e-06
-5.78562e-05
5.3081e-06
-5.91465e-05
4.87786e-06
-6.02944e-05
4.39911e-06
-6.12887e-05
3.87343e-06
-6.21191e-05
3.30297e-06
-6.2776e-05
2.69039e-06
-6.32509e-05
2.03893e-06
-6.35365e-05
1.35232e-06
-6.36266e-05
6.34857e-07
-6.35151e-05
-1.08427e-07
-6.32001e-05
-8.73517e-07
-6.26782e-05
-1.65371e-06
-6.19487e-05
-2.44337e-06
-6.1012e-05
-3.23631e-06
-5.98704e-05
-4.02605e-06
-5.85272e-05
-4.80588e-06
-5.69875e-05
-5.569e-06
-5.5258e-05
-6.30851e-06
-5.33465e-05
-7.01755e-06
-5.12628e-05
-7.68935e-06
-4.90177e-05
-8.31731e-06
-4.66234e-05
-8.89511e-06
-4.40937e-05
-9.41678e-06
-4.14434e-05
-9.87679e-06
-3.86883e-05
-1.02701e-05
-3.58454e-05
-1.05925e-05
-3.29325e-05
-1.08401e-05
-2.99682e-05
-1.10102e-05
-2.69715e-05
-1.11007e-05
-2.39618e-05
-1.11106e-05
-2.09587e-05
-1.10396e-05
-1.7982e-05
-1.08886e-05
-1.50508e-05
-1.06595e-05
-1.21843e-05
-1.0355e-05
-9.40049e-06
-9.97906e-06
-6.71693e-06
-9.53634e-06
-4.14987e-06
-9.03245e-06
-1.71431e-06
-8.47374e-06
5.76183e-07
-7.86725e-06
2.70969e-06
-7.22054e-06
4.67603e-06
-6.5416e-06
6.4669e-06
-5.83866e-06
8.07595e-06
-5.12008e-06
9.49881e-06
-4.39414e-06
1.07331e-05
-3.66895e-06
1.17785e-05
-2.95226e-06
1.26364e-05
-2.25134e-06
1.33104e-05
-1.57284e-06
1.38053e-05
-9.22719e-07
1.41279e-05
-3.06146e-07
1.42862e-05
2.72558e-07
1.42893e-05
8.09939e-07
1.41475e-05
1.3034e-06
1.38718e-05
1.7512e-06
1.34739e-05
2.15233e-06
1.29657e-05
2.5065e-06
1.23597e-05
2.81393e-06
1.16684e-05
3.07524e-06
1.09042e-05
3.29125e-06
1.00799e-05
3.46277e-06
9.20802e-06
3.59037e-06
8.30122e-06
3.67413e-06
7.37237e-06
3.71342e-06
6.43461e-06
3.70668e-06
5.50153e-06
3.65125e-06
4.58737e-06
3.54332e-06
3.70712e-06
3.378e-06
2.87671e-06
3.14965e-06
2.11308e-06
2.85246e-06
1.43437e-06
2.48153e-06
8.601e-07
2.03459e-06
4.1185e-07
1.51415e-06
1.14538e-07
9.30472e-07
3.07677e-07
2.21909e-08
-1.5018e-07
6.267e-08
-3.24376e-07
1.02821e-07
-4.00446e-07
1.29161e-07
-4.00318e-07
1.31849e-07
-3.42031e-07
1.03789e-07
-2.40769e-07
3.99612e-08
-1.08923e-07
-6.3138e-08
4.38087e-08
-2.07919e-07
2.10134e-07
-3.96053e-07
3.84866e-07
-6.28766e-07
5.64601e-07
-9.07071e-07
7.47392e-07
-1.23195e-06
9.32437e-07
-1.60448e-06
1.11979e-06
-2.02595e-06
1.3101e-06
-2.49788e-06
1.50442e-06
-3.02208e-06
1.70399e-06
-3.6006e-06
1.91011e-06
-4.23575e-06
2.12405e-06
-4.93005e-06
2.34692e-06
-5.68615e-06
2.57967e-06
-6.50681e-06
2.82301e-06
-7.39481e-06
3.0774e-06
-8.35291e-06
3.34305e-06
-9.38376e-06
3.61992e-06
-1.04899e-05
3.9077e-06
-1.16735e-05
4.20585e-06
-1.29365e-05
4.51356e-06
-1.42807e-05
4.8298e-06
-1.57071e-05
5.15326e-06
-1.72164e-05
5.4824e-06
-1.88088e-05
5.81542e-06
-2.04837e-05
6.15026e-06
-2.224e-05
6.4846e-06
-2.40757e-05
6.81584e-06
-2.5988e-05
7.14113e-06
-2.79734e-05
7.45736e-06
-3.00273e-05
7.76119e-06
-3.21444e-05
8.04904e-06
-3.4318e-05
8.31717e-06
-3.6541e-05
8.56165e-06
-3.8805e-05
8.77847e-06
-4.11007e-05
8.96354e-06
-4.3418e-05
9.11277e-06
-4.57458e-05
9.22212e-06
-4.80724e-05
9.28765e-06
-5.03853e-05
9.30564e-06
-5.26715e-05
9.27258e-06
-5.49174e-05
9.18527e-06
-5.71091e-05
9.0409e-06
-5.92324e-05
8.83709e-06
-6.12731e-05
8.57191e-06
-6.3217e-05
8.24399e-06
-6.50501e-05
7.85252e-06
-6.67586e-05
7.39728e-06
-6.83292e-05
6.87871e-06
-6.97492e-05
6.29785e-06
-7.10065e-05
5.65644e-06
-7.209e-05
4.95686e-06
-7.29891e-05
4.20212e-06
-7.36947e-05
3.39592e-06
-7.41983e-05
2.54255e-06
-7.44929e-05
1.64691e-06
-7.45725e-05
7.14508e-07
-7.44323e-05
-2.48622e-07
-7.40695e-05
-1.23638e-06
-7.34818e-05
-2.24139e-06
-7.26687e-05
-3.25642e-06
-7.16312e-05
-4.27382e-06
-7.03716e-05
-5.28562e-06
-6.88938e-05
-6.28368e-06
-6.72032e-05
-7.25968e-06
-6.53064e-05
-8.20527e-06
-6.32119e-05
-9.11209e-06
-6.09293e-05
-9.97194e-06
-5.84698e-05
-1.07768e-05
-5.5846e-05
-1.15189e-05
-5.30718e-05
-1.2191e-05
-5.01623e-05
-1.27863e-05
-4.71339e-05
-1.32986e-05
-4.40039e-05
-1.37224e-05
-4.07908e-05
-1.40533e-05
-3.75137e-05
-1.42873e-05
-3.41925e-05
-1.44219e-05
-3.08476e-05
-1.44555e-05
-2.74996e-05
-1.43875e-05
-2.41695e-05
-1.42187e-05
-2.08779e-05
-1.39511e-05
-1.76451e-05
-1.35877e-05
-1.44912e-05
-1.3133e-05
-1.14352e-05
-1.25924e-05
-8.49517e-06
-1.19725e-05
-5.68811e-06
-1.12808e-05
-3.02955e-06
-1.05258e-05
-5.33403e-07
-9.71669e-06
1.78812e-06
-8.86313e-06
3.92473e-06
-7.97527e-06
5.8681e-06
-7.06345e-06
7.61199e-06
-6.13804e-06
9.1523e-06
-5.20925e-06
1.0487e-05
-4.28696e-06
1.16162e-05
-3.38051e-06
1.25419e-05
-2.49858e-06
1.32682e-05
-1.64906e-06
1.3801e-05
-8.38891e-07
1.41476e-05
-7.40454e-08
1.43169e-05
6.40583e-07
1.43192e-05
1.30112e-06
1.41657e-05
1.90476e-06
1.38684e-05
2.44964e-06
1.34401e-05
2.93477e-06
1.28941e-05
3.3599e-06
1.22441e-05
3.72527e-06
1.15039e-05
4.03147e-06
1.06875e-05
4.27916e-06
9.80908e-06
4.46877e-06
8.88297e-06
4.60024e-06
7.92365e-06
4.67274e-06
6.94591e-06
4.68442e-06
5.96496e-06
4.63219e-06
4.99661e-06
4.51167e-06
4.05742e-06
4.3172e-06
3.1649e-06
4.04217e-06
2.33779e-06
3.67956e-06
1.59641e-06
3.22291e-06
9.63274e-07
2.66773e-06
4.64148e-07
2.01327e-06
1.29854e-07
1.26477e-06
4.3753e-07
1.57852e-08
-1.65965e-07
3.90948e-08
-3.47686e-07
5.25234e-08
-4.13874e-07
4.34581e-08
-3.91253e-07
2.80124e-09
-3.01375e-07
-7.58725e-08
-1.62095e-07
-1.97052e-07
1.22561e-08
-3.6381e-07
2.10567e-07
-5.78273e-07
4.24596e-07
-8.4197e-07
6.48563e-07
-1.15612e-06
8.78754e-07
-1.52186e-06
1.11313e-06
-1.9404e-06
1.35097e-06
-2.41312e-06
1.59251e-06
-2.94168e-06
1.83867e-06
-3.52806e-06
2.09079e-06
-4.17449e-06
2.35042e-06
-4.88353e-06
2.61915e-06
-5.65795e-06
2.89847e-06
-6.50072e-06
3.1897e-06
-7.41495e-06
3.4939e-06
-8.40377e-06
3.81183e-06
-9.47033e-06
4.14396e-06
-1.06177e-05
4.49039e-06
-1.18487e-05
4.85091e-06
-1.31659e-05
5.22498e-06
-1.45718e-05
5.61173e-06
-1.60682e-05
6.00996e-06
-1.76566e-05
6.41818e-06
-1.93379e-05
6.83452e-06
-2.11123e-05
7.25684e-06
-2.29795e-05
7.68265e-06
-2.49384e-05
8.10912e-06
-2.69869e-05
8.53309e-06
-2.91221e-05
8.95109e-06
-3.13403e-05
9.35933e-06
-3.36367e-05
9.7537e-06
-3.60053e-05
1.01298e-05
-3.84394e-05
1.04831e-05
-4.09311e-05
1.08088e-05
-4.34713e-05
1.11019e-05
-4.60501e-05
1.13573e-05
-4.86566e-05
1.15701e-05
-5.12791e-05
1.17352e-05
-5.39048e-05
1.18478e-05
-5.65204e-05
1.19033e-05
-5.9112e-05
1.18973e-05
-6.16652e-05
1.18257e-05
-6.41651e-05
1.16852e-05
-6.65967e-05
1.14725e-05
-6.8945e-05
1.11853e-05
-7.11948e-05
1.08217e-05
-7.33314e-05
1.03806e-05
-7.53403e-05
9.86136e-06
-7.72073e-05
9.26434e-06
-7.89191e-05
8.59052e-06
-8.04629e-05
7.84166e-06
-8.18268e-05
7.02028e-06
-8.29996e-05
6.12965e-06
-8.39712e-05
5.17377e-06
-8.47327e-05
4.15736e-06
-8.52759e-05
3.08581e-06
-8.55942e-05
1.96519e-06
-8.56819e-05
8.02203e-07
-8.55346e-05
-3.95908e-07
-8.51494e-05
-1.62161e-06
-8.45244e-05
-2.86634e-06
-8.36593e-05
-4.1215e-06
-8.25551e-05
-5.37804e-06
-8.12141e-05
-6.62662e-06
-7.96401e-05
-7.85766e-06
-7.78384e-05
-9.06142e-06
-7.58156e-05
-1.02281e-05
-7.35797e-05
-1.13479e-05
-7.11405e-05
-1.24112e-05
-6.85088e-05
-1.34084e-05
-6.56971e-05
-1.43306e-05
-6.27192e-05
-1.51689e-05
-5.95901e-05
-1.59154e-05
-5.63263e-05
-1.65624e-05
-5.29453e-05
-1.71035e-05
-4.94657e-05
-1.75328e-05
-4.59072e-05
-1.78458e-05
-4.22902e-05
-1.80389e-05
-3.86358e-05
-1.81099e-05
-3.49656e-05
-1.80577e-05
-3.13015e-05
-1.78829e-05
-2.76654e-05
-1.75872e-05
-2.40791e-05
-1.7174e-05
-2.05641e-05
-1.6648e-05
-1.71411e-05
-1.60154e-05
-1.38301e-05
-1.52834e-05
-1.065e-05
-1.44609e-05
-7.61824e-06
-1.35576e-05
-4.75088e-06
-1.2584e-05
-2.06219e-06
-1.15518e-05
4.35421e-07
-1.04729e-05
2.73159e-06
-9.35961e-06
4.81806e-06
-8.22451e-06
6.68879e-06
-7.07998e-06
8.33997e-06
-5.93814e-06
9.77003e-06
-4.81056e-06
1.09796e-05
-3.70812e-06
1.19713e-05
-2.64081e-06
1.275e-05
-1.61759e-06
1.33222e-05
-6.46289e-07
1.36964e-05
2.66478e-07
1.38821e-05
1.11534e-06
1.38907e-05
1.89615e-06
1.37344e-05
2.60594e-06
1.34264e-05
3.2428e-06
1.29806e-05
3.80573e-06
1.24114e-05
4.29442e-06
1.17339e-05
4.70903e-06
1.09631e-05
5.0499e-06
1.01147e-05
5.3172e-06
9.20428e-06
5.51065e-06
8.24786e-06
5.62916e-06
7.26171e-06
5.67057e-06
6.26255e-06
5.63136e-06
5.26767e-06
5.50655e-06
4.29514e-06
5.28973e-06
3.36409e-06
4.97322e-06
2.49506e-06
4.54859e-06
1.71058e-06
4.0074e-06
1.03597e-06
3.34233e-06
5.00708e-07
2.54853e-06
1.40341e-07
1.62513e-06
5.77871e-07
7.9696e-09
-1.73935e-07
1.02662e-08
-3.49982e-07
-8.73789e-09
-3.9487e-07
-6.02828e-08
-3.39708e-07
-1.52325e-07
-2.09332e-07
-2.90356e-07
-2.40652e-08
-4.78065e-07
1.99966e-07
-7.17944e-07
4.50446e-07
-1.01171e-06
7.18362e-07
-1.36067e-06
9.97518e-07
-1.76597e-06
1.28406e-06
-2.22885e-06
1.57601e-06
-2.75071e-06
1.87284e-06
-3.33329e-06
2.17508e-06
-3.97862e-06
2.48401e-06
-4.68913e-06
2.8013e-06
-5.46755e-06
3.12884e-06
-6.31691e-06
3.46851e-06
-7.24049e-06
3.82205e-06
-8.24173e-06
4.19093e-06
-9.32414e-06
4.57631e-06
-1.04913e-05
4.97895e-06
-1.17465e-05
5.39924e-06
-1.30933e-05
5.83711e-06
-1.45345e-05
6.29212e-06
-1.60729e-05
6.76337e-06
-1.77107e-05
7.24959e-06
-1.94498e-05
7.74908e-06
-2.12914e-05
8.25973e-06
-2.32359e-05
8.77904e-06
-2.52832e-05
9.30411e-06
-2.74321e-05
9.8316e-06
-2.96808e-05
1.03578e-05
-3.20264e-05
1.08786e-05
-3.44648e-05
1.13895e-05
-3.69911e-05
1.18857e-05
-3.95992e-05
1.23618e-05
-4.2282e-05
1.28126e-05
-4.50309e-05
1.32321e-05
-4.78367e-05
1.36146e-05
-5.06888e-05
1.39539e-05
-5.35756e-05
1.42441e-05
-5.64848e-05
1.44792e-05
-5.94029e-05
1.46534e-05
-6.2316e-05
1.4761e-05
-6.52095e-05
1.47967e-05
-6.8068e-05
1.47558e-05
-7.08762e-05
1.46339e-05
-7.36184e-05
1.44273e-05
-7.62787e-05
1.41329e-05
-7.88415e-05
1.37482e-05
-8.12914e-05
1.32716e-05
-8.36132e-05
1.27024e-05
-8.57924e-05
1.20405e-05
-8.78149e-05
1.12868e-05
-8.96673e-05
1.0443e-05
-9.13372e-05
9.51154e-06
-9.28128e-05
8.4959e-06
-9.40834e-05
7.40023e-06
-9.51392e-05
6.22953e-06
-9.59713e-05
4.98953e-06
-9.65722e-05
3.68672e-06
-9.69353e-05
2.32827e-06
-9.70551e-05
9.22017e-07
-9.69274e-05
-5.23635e-07
-9.65491e-05
-1.9999e-06
-9.59184e-05
-3.49704e-06
-9.50348e-05
-5.00518e-06
-9.38988e-05
-6.51398e-06
-9.25126e-05
-8.01279e-06
-9.08796e-05
-9.49068e-06
-8.90045e-05
-1.09365e-05
-8.68935e-05
-1.23392e-05
-8.4554e-05
-1.36873e-05
-8.19953e-05
-1.49699e-05
-7.92276e-05
-1.61761e-05
-7.6263e-05
-1.72952e-05
-7.31149e-05
-1.83171e-05
-6.97979e-05
-1.92323e-05
-6.63284e-05
-2.0032e-05
-6.27237e-05
-2.07082e-05
-5.90026e-05
-2.12539e-05
-5.5185e-05
-2.16635e-05
-5.12916e-05
-2.19323e-05
-4.73443e-05
-2.20572e-05
-4.33653e-05
-2.20367e-05
-3.93777e-05
-2.18705e-05
-3.54044e-05
-2.15604e-05
-3.14689e-05
-2.11096e-05
-2.75939e-05
-2.0523e-05
-2.38022e-05
-1.98071e-05
-2.01154e-05
-1.89702e-05
-1.65545e-05
-1.80218e-05
-1.3139e-05
-1.6973e-05
-9.88724e-06
-1.58358e-05
-6.81556e-06
-1.46235e-05
-3.93863e-06
-1.33498e-05
-1.26899e-06
-1.20292e-05
1.18296e-06
-1.06765e-05
3.40913e-06
-9.30615e-06
5.40376e-06
-7.93277e-06
7.16346e-06
-6.57026e-06
8.68718e-06
-5.23185e-06
9.97621e-06
-3.92983e-06
1.1034e-05
-2.67538e-06
1.18661e-05
-1.47841e-06
1.24801e-05
-3.4748e-07
1.28851e-05
7.10286e-07
1.30921e-05
1.68917e-06
1.31132e-05
2.58483e-06
1.29618e-05
3.39419e-06
1.26523e-05
4.11528e-06
1.21997e-05
4.74701e-06
1.16198e-05
5.28892e-06
1.09289e-05
5.74085e-06
1.01435e-05
6.10259e-06
9.28059e-06
6.37352e-06
8.35753e-06
6.55222e-06
7.39196e-06
6.63615e-06
6.40198e-06
6.62133e-06
5.40634e-06
6.50219e-06
4.42461e-06
6.27146e-06
3.47751e-06
5.92031e-06
2.58739e-06
5.43871e-06
1.77885e-06
4.81594e-06
1.07976e-06
4.04142e-06
5.2263e-07
3.10566e-06
1.46483e-07
2.00128e-06
7.24355e-07
-1.07711e-09
-1.72858e-07
-2.31357e-08
-3.27924e-07
-7.96532e-08
-3.38352e-07
-1.80064e-07
-2.39297e-07
-3.30822e-07
-5.8574e-08
-5.36175e-07
1.81288e-07
-7.98841e-07
4.62632e-07
-1.12055e-06
7.72158e-07
-1.50251e-06
1.10032e-06
-1.9457e-06
1.44072e-06
-2.4512e-06
1.78955e-06
-3.02027e-06
2.14508e-06
-3.65456e-06
2.50712e-06
-4.3561e-06
2.87662e-06
-5.12736e-06