/*--------------------------------*- C++ -*----------------------------------*\
| =========                 |                                                 |
| \\      /  F ield         | OpenFOAM: The Open Source CFD Toolbox           |
|  \\    /   O peration     | Version:  2112                                  |
|   \\  /    A nd           | Website:  www.openfoam.com                      |
|    \\/     M anipulation  |                                                 |
\*---------------------------------------------------------------------------*/
FoamFile
{
    version     2.0;
    format      ascii;
    arch        "LSB;label=32;scalar=64";
    class       volVectorField;
    location    "17";
    object      U;
}
// * * * * * * * * * * * * * * * * * * * * * * * * * * * * * * * * * * * * * //

dimensions      [0 1 -1 0 0 0 0];

internalField   nonuniform List<vector> 
16641
(
(-3.5102e-07 3.14756e-07 0)
(1.01256e-05 -6.28136e-06 0)
(3.73096e-05 -1.11859e-05 0)
(7.2527e-05 -1.3409e-05 0)
(0.000110293 -1.37748e-05 0)
(0.000146953 -1.30129e-05 0)
(0.000180078 -1.16162e-05 0)
(0.000208217 -9.90504e-06 0)
(0.000230609 -8.07872e-06 0)
(0.00024693 -6.25239e-06 0)
(0.00025713 -4.48812e-06 0)
(0.00026131 -2.81286e-06 0)
(0.000259639 -1.23046e-06 0)
(0.000252293 2.68873e-07 0)
(0.000239421 1.70411e-06 0)
(0.000221117 3.09884e-06 0)
(0.000197405 4.47814e-06 0)
(0.000168241 5.86715e-06 0)
(0.000133509 7.28911e-06 0)
(9.30257e-05 8.76437e-06 0)
(4.65504e-05 1.03108e-05 0)
(-6.20758e-06 1.1943e-05 0)
(-6.55794e-05 1.36725e-05 0)
(-0.000131927 1.55083e-05 0)
(-0.000205634 1.74575e-05 0)
(-0.0002871 1.95241e-05 0)
(-0.000376731 2.1711e-05 0)
(-0.000474934 2.40199e-05 0)
(-0.000582111 2.6451e-05 0)
(-0.000698652 2.90027e-05 0)
(-0.000824933 3.16728e-05 0)
(-0.000961305 3.44574e-05 0)
(-0.00110809 3.73507e-05 0)
(-0.00126558 4.03454e-05 0)
(-0.00143401 4.3432e-05 0)
(-0.00161356 4.65982e-05 0)
(-0.00180438 4.98286e-05 0)
(-0.00200651 5.31053e-05 0)
(-0.00221992 5.64068e-05 0)
(-0.00244448 5.97077e-05 0)
(-0.00267996 6.29788e-05 0)
(-0.00292601 6.61877e-05 0)
(-0.00318215 6.92976e-05 0)
(-0.00344776 7.22683e-05 0)
(-0.00372206 7.50553e-05 0)
(-0.00400413 7.76115e-05 0)
(-0.00429286 7.98869e-05 0)
(-0.004587 8.18285e-05 0)
(-0.0048851 8.33815e-05 0)
(-0.00518554 8.44897e-05 0)
(-0.00548653 8.50965e-05 0)
(-0.0057861 8.51458e-05 0)
(-0.00608215 8.45828e-05 0)
(-0.00637239 8.33548e-05 0)
(-0.00665442 8.14126e-05 0)
(-0.0069257 7.87121e-05 0)
(-0.00718361 7.52149e-05 0)
(-0.00742546 7.08901e-05 0)
(-0.0076485 6.57152e-05 0)
(-0.00784997 5.96773e-05 0)
(-0.00802715 5.27747e-05 0)
(-0.00817736 4.50176e-05 0)
(-0.00829802 3.64296e-05 0)
(-0.0083867 2.70502e-05 0)
(-0.00844114 1.69303e-05 0)
(-0.00845935 6.12425e-06 0)
(-0.0084395 -5.24147e-06 0)
(-0.00838012 -1.71174e-05 0)
(-0.00828013 -2.93821e-05 0)
(-0.0081388 -4.19062e-05 0)
(-0.00795582 -5.45523e-05 0)
(-0.00773131 -6.71731e-05 0)
(-0.00746587 -7.96128e-05 0)
(-0.00716058 -9.17099e-05 0)
(-0.006817 -0.000103299 0)
(-0.0064372 -0.000114215 0)
(-0.0060237 -0.000124297 0)
(-0.00557951 -0.000133389 0)
(-0.00510807 -0.000141346 0)
(-0.00461321 -0.000148038 0)
(-0.00409911 -0.000153352 0)
(-0.00357025 -0.000157195 0)
(-0.00303135 -0.000159498 0)
(-0.00248729 -0.000160218 0)
(-0.00194302 -0.000159338 0)
(-0.00140351 -0.000156872 0)
(-0.000873669 -0.000152859 0)
(-0.000358231 -0.000147371 0)
(0.000138287 -0.000140506 0)
(0.000611678 -0.000132378 0)
(0.00105812 -0.000123134 0)
(0.00147421 -0.000112933 0)
(0.00185704 -0.00010195 0)
(0.00220422 -9.03681e-05 0)
(0.0025139 -7.83745e-05 0)
(0.00278481 -6.61576e-05 0)
(0.00301621 -5.39007e-05 0)
(0.00320794 -4.17781e-05 0)
(0.00336034 -2.99513e-05 0)
(0.00347426 -1.85658e-05 0)
(0.00355097 -7.7484e-06 0)
(0.00359214 2.39466e-06 0)
(0.00359977 1.17789e-05 0)
(0.00357615 2.03424e-05 0)
(0.00352375 2.80447e-05 0)
(0.0034452 3.48666e-05 0)
(0.0033432 4.08088e-05 0)
(0.00322048 4.58899e-05 0)
(0.00307974 5.01442e-05 0)
(0.00292359 5.3619e-05 0)
(0.00275455 5.63714e-05 0)
(0.00257496 5.84655e-05 0)
(0.00238704 5.99682e-05 0)
(0.00219281 6.09451e-05 0)
(0.00199415 6.14553e-05 0)
(0.00179279 6.15462e-05 0)
(0.00159038 6.12461e-05 0)
(0.00138855 6.05568e-05 0)
(0.00118898 5.94432e-05 0)
(0.000993537 5.78224e-05 0)
(0.00080439 5.55487e-05 0)
(0.000624201 5.23971e-05 0)
(0.000456307 4.80439e-05 0)
(0.000304926 4.20526e-05 0)
(0.00017532 3.38916e-05 0)
(7.36874e-05 2.30739e-05 0)
(6.42526e-06 9.59334e-06 0)
(-2.14224e-05 -4.82373e-06 0)
(-1.25039e-05 -1.25211e-05 0)
(6.28532e-06 -1.01281e-05 0)
(3.89652e-05 -3.88653e-05 0)
(0.000101917 -5.87747e-05 0)
(0.000179021 -6.80697e-05 0)
(0.000259857 -6.92094e-05 0)
(0.000337169 -6.47289e-05 0)
(0.000405583 -5.66364e-05 0)
(0.000461479 -4.64139e-05 0)
(0.000502659 -3.5089e-05 0)
(0.000527941 -2.33345e-05 0)
(0.000536817 -1.15614e-05 0)
(0.000529196 1.24625e-08 0)
(0.000505203 1.13022e-05 0)
(0.000465031 2.23187e-05 0)
(0.00040884 3.31351e-05 0)
(0.000336687 4.3861e-05 0)
(0.000248487 5.46254e-05 0)
(0.000143992 6.55627e-05 0)
(2.27894e-05 7.68019e-05 0)
(-0.000115691 8.84611e-05 0)
(-0.000272161 0.000100643 0)
(-0.000447451 0.000113433 0)
(-0.00064249 0.0001269 0)
(-0.000858281 0.000141094 0)
(-0.00109588 0.00015605 0)
(-0.00135636 0.000171787 0)
(-0.00164082 0.000188313 0)
(-0.00195032 0.000205621 0)
(-0.00228592 0.000223694 0)
(-0.00264862 0.000242501 0)
(-0.00303933 0.000262003 0)
(-0.0034589 0.000282145 0)
(-0.00390805 0.00030286 0)
(-0.0043874 0.000324064 0)
(-0.00489738 0.00034566 0)
(-0.00543827 0.00036753 0)
(-0.00601013 0.000389537 0)
(-0.00661279 0.000411524 0)
(-0.00724583 0.000433313 0)
(-0.00790852 0.000454702 0)
(-0.00859982 0.000475469 0)
(-0.00931834 0.00049537 0)
(-0.0100623 0.000514139 0)
(-0.0108296 0.000531492 0)
(-0.0116177 0.000547128 0)
(-0.0124234 0.000560731 0)
(-0.0132435 0.000571975 0)
(-0.0140739 0.000580526 0)
(-0.0149104 0.000586047 0)
(-0.0157482 0.000588203 0)
(-0.0165821 0.000586668 0)
(-0.0174064 0.000581128 0)
(-0.0182153 0.000571289 0)
(-0.0190024 0.000556882 0)
(-0.0197612 0.000537672 0)
(-0.0204849 0.000513461 0)
(-0.0211664 0.000484098 0)
(-0.0217988 0.000449486 0)
(-0.022375 0.000409582 0)
(-0.0228881 0.000364411 0)
(-0.0233311 0.000314065 0)
(-0.0236976 0.000258709 0)
(-0.0239813 0.000198586 0)
(-0.0241764 0.000134024 0)
(-0.0242779 6.54167e-05 0)
(-0.024281 -6.81182e-06 0)
(-0.0241818 -8.19871e-05 0)
(-0.0239775 -0.00015954 0)
(-0.0236658 -0.000238766 0)
(-0.0232457 -0.000318894 0)
(-0.022717 -0.000399101 0)
(-0.0220808 -0.000478518 0)
(-0.0213392 -0.000556246 0)
(-0.0204954 -0.000631361 0)
(-0.0195539 -0.000702936 0)
(-0.0185203 -0.000770055 0)
(-0.0174013 -0.000831828 0)
(-0.0162045 -0.00088741 0)
(-0.0149389 -0.000936017 0)
(-0.013614 -0.000976946 0)
(-0.0122402 -0.00100959 0)
(-0.0108288 -0.00103345 0)
(-0.00939129 -0.00104816 0)
(-0.00793977 -0.00105348 0)
(-0.00648644 -0.00104933 0)
(-0.00504357 -0.00103575 0)
(-0.00362324 -0.00101296 0)
(-0.00223724 -0.000981331 0)
(-0.000896822 -0.000941356 0)
(0.000387415 -0.000893671 0)
(0.00160572 -0.000839033 0)
(0.00274932 -0.000778309 0)
(0.00381053 -0.000712442 0)
(0.00478288 -0.000642441 0)
(0.00566114 -0.000569352 0)
(0.00644143 -0.000494238 0)
(0.00712117 -0.000418152 0)
(0.00769915 -0.000342115 0)
(0.0081754 -0.000267094 0)
(0.00855122 -0.000193984 0)
(0.008829 -0.000123591 0)
(0.00901221 -5.6616e-05 0)
(0.00910519 6.34972e-06 0)
(0.00911307 6.48347e-05 0)
(0.00904159 0.000118488 0)
(0.00889698 0.000167076 0)
(0.0086858 0.000210481 0)
(0.00841478 0.000248693 0)
(0.00809073 0.000281795 0)
(0.00772037 0.000309952 0)
(0.00731027 0.000333396 0)
(0.00686676 0.000352403 0)
(0.00639586 0.00036727 0)
(0.00590331 0.000378295 0)
(0.00539452 0.000385743 0)
(0.00487467 0.000389812 0)
(0.00434877 0.000390603 0)
(0.00382185 0.000388072 0)
(0.00329911 0.000381988 0)
(0.00278617 0.000371892 0)
(0.00228935 0.000357043 0)
(0.00181597 0.000336392 0)
(0.00137461 0.00030857 0)
(0.000975298 0.000271956 0)
(0.000629524 0.000224937 0)
(0.000349496 0.000166619 0)
(0.000146302 9.83821e-05 0)
(2.78407e-05 2.74625e-05 0)
(-4.73517e-06 -2.14708e-05 0)
(1.14184e-05 -3.75869e-05 0)
(5.94039e-05 -0.000101974 0)
(0.000144026 -0.000143374 0)
(0.000243479 -0.000162036 0)
(0.000344512 -0.00016252 0)
(0.000438099 -0.000149716 0)
(0.000517269 -0.000127843 0)
(0.000577077 -0.000100226 0)
(0.000614324 -6.93093e-05 0)
(0.00062711 -3.67835e-05 0)
(0.000614442 -3.73548e-06 0)
(0.000575899 2.92142e-05 0)
(0.000511383 6.17906e-05 0)
(0.000420908 9.39701e-05 0)
(0.000304461 0.0001259 0)
(0.000161902 0.000157834 0)
(-7.10119e-06 0.000190084 0)
(-0.000203099 0.000222986 0)
(-0.000426872 0.000256865 0)
(-0.000679414 0.000292025 0)
(-0.000961921 0.000328729 0)
(-0.00127575 0.000367198 0)
(-0.00162239 0.000407605 0)
(-0.00200344 0.000450076 0)
(-0.00242054 0.00049469 0)
(-0.00287537 0.000541485 0)
(-0.00336958 0.000590458 0)
(-0.00390482 0.000641568 0)
(-0.00448261 0.000694734 0)
(-0.00510442 0.000749843 0)
(-0.00577153 0.000806741 0)
(-0.0064851 0.000865236 0)
(-0.00724604 0.000925094 0)
(-0.00805504 0.000986035 0)
(-0.00891251 0.00104773 0)
(-0.00981853 0.0011098 0)
(-0.0107728 0.00117181 0)
(-0.0117747 0.00123328 0)
(-0.012823 0.00129364 0)
(-0.0139162 0.00135229 0)
(-0.0150521 0.00140856 0)
(-0.0162279 0.00146175 0)
(-0.0174404 0.00151107 0)
(-0.0186856 0.00155571 0)
(-0.0199589 0.00159483 0)
(-0.0212551 0.00162755 0)
(-0.0225682 0.00165297 0)
(-0.0238917 0.00167019 0)
(-0.0252183 0.00167833 0)
(-0.0265402 0.0016765 0)
(-0.0278491 0.00166389 0)
(-0.0291358 0.00163971 0)
(-0.0303912 0.00160325 0)
(-0.0316052 0.00155389 0)
(-0.0327679 0.00149111 0)
(-0.0338689 0.00141452 0)
(-0.0348977 0.00132384 0)
(-0.035844 0.00121895 0)
(-0.0366973 0.00109992 0)
(-0.0374476 0.00096695 0)
(-0.0380852 0.000820453 0)
(-0.038601 0.000661025 0)
(-0.0389862 0.000489462 0)
(-0.0392332 0.000306779 0)
(-0.039335 0.000114152 0)
(-0.0392858 -8.72249e-05 0)
(-0.0390806 -0.000295565 0)
(-0.0387161 -0.000509156 0)
(-0.03819 -0.000726136 0)
(-0.0375015 -0.000944473 0)
(-0.0366514 -0.00116201 0)
(-0.0356418 -0.00137652 0)
(-0.0344765 -0.00158567 0)
(-0.033161 -0.00178713 0)
(-0.0317022 -0.00197857 0)
(-0.0301085 -0.00215769 0)
(-0.0283899 -0.00232229 0)
(-0.0265579 -0.00247026 0)
(-0.0246251 -0.00259967 0)
(-0.0226054 -0.00270881 0)
(-0.0205139 -0.00279616 0)
(-0.0183663 -0.00286052 0)
(-0.0161794 -0.00290096 0)
(-0.01397 -0.00291689 0)
(-0.0117557 -0.00290809 0)
(-0.00955376 -0.00287466 0)
(-0.00738156 -0.00281711 0)
(-0.00525593 -0.00273628 0)
(-0.00319312 -0.00263339 0)
(-0.0012085 -0.00250997 0)
(0.000683617 -0.00236787 0)
(0.00247018 -0.0022092 0)
(0.0041396 -0.00203629 0)
(0.00568186 -0.00185165 0)
(0.00708864 -0.0016579 0)
(0.00835343 -0.00145774 0)
(0.00947154 -0.00125386 0)
(0.0104401 -0.00104891 0)
(0.0112582 -0.000845418 0)
(0.0119265 -0.000645778 0)
(0.0124475 -0.000452171 0)
(0.0128251 -0.000266542 0)
(0.0130647 -9.05741e-05 0)
(0.0131729 7.43407e-05 0)
(0.0131573 0.000227105 0)
(0.0130265 0.000366925 0)
(0.0127895 0.000493298 0)
(0.0124558 0.000606002 0)
(0.0120353 0.000705064 0)
(0.0115379 0.000790736 0)
(0.0109732 0.000863446 0)
(0.0103511 0.000923752 0)
(0.00968064 0.000972286 0)
(0.00897096 0.00100969 0)
(0.00823071 0.00103652 0)
(0.00746831 0.00105319 0)
(0.00669201 0.0010599 0)
(0.00591011 0.00105645 0)
(0.00513116 0.00104227 0)
(0.00436425 0.00101622 0)
(0.00361933 0.000976593 0)
(0.00290747 0.000921067 0)
(0.00224116 0.000846801 0)
(0.00163436 0.000750731 0)
(0.00110234 0.000630291 0)
(0.000660589 0.000484953 0)
(0.000322592 0.000318955 0)
(0.000100618 0.000146498 0)
(1.01135e-05 6.91658e-06 0)
(1.38519e-05 -7.33827e-05 0)
(6.90163e-05 -0.00017945 0)
(0.000162555 -0.000242863 0)
(0.000268385 -0.000268668 0)
(0.000371354 -0.000264533 0)
(0.00046147 -0.000238118 0)
(0.000530978 -0.000196096 0)
(0.000574251 -0.000143831 0)
(0.000587522 -8.537e-05 0)
(0.000568419 -2.35877e-05 0)
(0.000515558 3.96212e-05 0)
(0.000428191 0.000103141 0)
(0.000305925 0.000166458 0)
(0.000148496 0.000229496 0)
(-4.44006e-05 0.000292486 0)
(-0.000273219 0.000355858 0)
(-0.000538641 0.000420153 0)
(-0.000841608 0.000485954 0)
(-0.00118333 0.000553836 0)
(-0.00156528 0.000624333 0)
(-0.00198915 0.00069791 0)
(-0.00245683 0.000774954 0)
(-0.00297035 0.000855762 0)
(-0.00353186 0.000940543 0)
(-0.00414354 0.00102942 0)
(-0.00480758 0.00112242 0)
(-0.00552613 0.00121951 0)
(-0.00630125 0.00132056 0)
(-0.00713488 0.00142537 0)
(-0.00802875 0.00153368 0)
(-0.00898439 0.00164513 0)
(-0.010003 0.00175929 0)
(-0.0110857 0.00187565 0)
(-0.0122328 0.00199359 0)
(-0.0134445 0.00211242 0)
(-0.0147205 0.00223133 0)
(-0.0160599 0.00234943 0)
(-0.0174612 0.00246569 0)
(-0.0189224 0.002579 0)
(-0.0204406 0.00268814 0)
(-0.0220122 0.00279178 0)
(-0.0236331 0.00288852 0)
(-0.025298 0.00297685 0)
(-0.027001 0.00305522 0)
(-0.0287354 0.00312202 0)
(-0.0304936 0.0031756 0)
(-0.032267 0.00321431 0)
(-0.0340464 0.0032365 0)
(-0.0358217 0.00324058 0)
(-0.0375823 0.00322502 0)
(-0.0393167 0.00318837 0)
(-0.0410131 0.00312933 0)
(-0.0426588 0.00304673 0)
(-0.0442413 0.00293961 0)
(-0.0457473 0.0028072 0)
(-0.0471639 0.00264897 0)
(-0.0484779 0.00246466 0)
(-0.0496762 0.00225429 0)
(-0.0507464 0.00201818 0)
(-0.0516762 0.00175696 0)
(-0.052454 0.00147161 0)
(-0.0530691 0.00116344 0)
(-0.0535116 0.000834095 0)
(-0.0537726 0.000485601 0)
(-0.0538449 0.000120291 0)
(-0.0537218 -0.000259566 0)
(-0.0533983 -0.000650655 0)
(-0.0528713 -0.00104982 0)
(-0.0521391 -0.00145365 0)
(-0.0512017 -0.00185848 0)
(-0.0500607 -0.00226049 0)
(-0.0487198 -0.00265569 0)
(-0.0471843 -0.00304003 0)
(-0.0454615 -0.00340943 0)
(-0.0435602 -0.00375985 0)
(-0.0414912 -0.00408731 0)
(-0.0392669 -0.00438801 0)
(-0.0369014 -0.00465837 0)
(-0.0344101 -0.00489506 0)
(-0.0318101 -0.00509514 0)
(-0.0291192 -0.00525603 0)
(-0.0263567 -0.00537563 0)
(-0.0235424 -0.00545236 0)
(-0.0206969 -0.00548518 0)
(-0.0178411 -0.00547363 0)
(-0.0149961 -0.00541788 0)
(-0.0121827 -0.00531869 0)
(-0.00942141 -0.00517747 0)
(-0.00673221 -0.00499622 0)
(-0.00413406 -0.0047775 0)
(-0.00164479 -0.00452441 0)
(0.00071911 -0.00424053 0)
(0.00294277 -0.00392984 0)
(0.00501309 -0.00359666 0)
(0.00691888 -0.00324552 0)
(0.008651 -0.00288113 0)
(0.0102025 -0.00250824 0)
(0.0115685 -0.00213155 0)
(0.0127463 -0.00175562 0)
(0.0137356 -0.00138481 0)
(0.0145379 -0.00102313 0)
(0.0151568 -0.000674247 0)
(0.0155975 -0.00034137 0)
(0.0158672 -2.72401e-05 0)
(0.0159741 0.000265911 0)
(0.0159279 0.000536375 0)
(0.0157393 0.000782957 0)
(0.0154195 0.00100496 0)
(0.0149804 0.00120214 0)
(0.0144343 0.00137466 0)
(0.0137932 0.00152304 0)
(0.0130696 0.00164801 0)
(0.0122754 0.0017505 0)
(0.0114225 0.00183145 0)
(0.0105225 0.0018917 0)
(0.00958674 0.00193186 0)
(0.00862646 0.00195216 0)
(0.007653 0.00195228 0)
(0.00667794 0.00193118 0)
(0.00571344 0.00188702 0)
(0.0047725 0.00181707 0)
(0.00386923 0.00171771 0)
(0.00301905 0.0015847 0)
(0.00223874 0.00141367 0)
(0.00154626 0.0012013 0)
(0.000959691 0.000947435 0)
(0.000495258 0.000658455 0)
(0.000172103 0.000352953 0)
(2.43916e-05 7.62605e-05 0)
(1.43273e-05 -0.000111885 0)
(6.97099e-05 -0.000260108 0)
(0.0001606 -0.000342619 0)
(0.000258735 -0.00037081 0)
(0.000347881 -0.000356353 0)
(0.000417555 -0.000310066 0)
(0.00045971 -0.000241211 0)
(0.000468487 -0.000157238 0)
(0.000439892 -6.38213e-05 0)
(0.000371313 3.49631e-05 0)
(0.000261105 0.000136397 0)
(0.000108245 0.000238866 0)
(-8.79659e-05 0.000341615 0)
(-0.000328121 0.00044453 0)
(-0.000612883 0.00054795 0)
(-0.000943106 0.000652511 0)
(-0.0013199 0.000759012 0)
(-0.00174467 0.000868319 0)
(-0.00221911 0.000981288 0)
(-0.00274522 0.00109871 0)
(-0.00332522 0.00122126 0)
(-0.00396153 0.00134952 0)
(-0.00465672 0.00148389 0)
(-0.00541344 0.00162465 0)
(-0.00623437 0.00177195 0)
(-0.00712216 0.00192578 0)
(-0.00807934 0.00208601 0)
(-0.00910833 0.00225237 0)
(-0.0102113 0.00242448 0)
(-0.0113901 0.0026018 0)
(-0.0126465 0.00278369 0)
(-0.0139814 0.00296936 0)
(-0.0153958 0.00315788 0)
(-0.0168898 0.00334818 0)
(-0.018463 0.00353902 0)
(-0.0201144 0.00372901 0)
(-0.0218423 0.00391659 0)
(-0.0236442 0.00410004 0)
(-0.0255167 0.00427749 0)
(-0.0274556 0.0044469 0)
(-0.0294558 0.00460609 0)
(-0.0315112 0.00475277 0)
(-0.0336146 0.00488452 0)
(-0.0357581 0.00499885 0)
(-0.0379324 0.00509324 0)
(-0.0401276 0.00516513 0)
(-0.0423326 0.00521197 0)
(-0.0445357 0.0052313 0)
(-0.046724 0.00522074 0)
(-0.0488842 0.00517805 0)
(-0.0510023 0.00510119 0)
(-0.0530636 0.00498834 0)
(-0.0550532 0.00483796 0)
(-0.056956 0.00464882 0)
(-0.0587565 0.00442004 0)
(-0.0604396 0.00415113 0)
(-0.0619903 0.003842 0)
(-0.0633938 0.00349303 0)
(-0.0646361 0.00310505 0)
(-0.0657038 0.00267934 0)
(-0.0665843 0.00221771 0)
(-0.0672661 0.00172243 0)
(-0.0677388 0.00119625 0)
(-0.0679933 0.000642337 0)
(-0.0680225 6.4384e-05 0)
(-0.0678197 -0.000532846 0)
(-0.0673802 -0.00114549 0)
(-0.0667016 -0.00176858 0)
(-0.065783 -0.00239684 0)
(-0.0646252 -0.00302474 0)
(-0.063231 -0.00364657 0)
(-0.0616051 -0.00425646 0)
(-0.0597541 -0.00484845 0)
(-0.0576867 -0.00541657 0)
(-0.0554132 -0.00595494 0)
(-0.052946 -0.00645779 0)
(-0.0502992 -0.00691961 0)
(-0.0474884 -0.0073352 0)
(-0.0445311 -0.00769978 0)
(-0.0414461 -0.00800904 0)
(-0.0382533 -0.00825926 0)
(-0.0349741 -0.00844737 0)
(-0.0316305 -0.008571 0)
(-0.0282454 -0.00862859 0)
(-0.0248419 -0.00861938 0)
(-0.0214438 -0.0085435 0)
(-0.0180743 -0.00840195 0)
(-0.0147568 -0.00819661 0)
(-0.0115138 -0.00793023 0)
(-0.00836707 -0.00760641 0)
(-0.00533734 -0.00722952 0)
(-0.00244391 -0.00680464 0)
(0.000295538 -0.00633747 0)
(0.0028651 -0.00583424 0)
(0.0052509 -0.00530156 0)
(0.00744121 -0.00474631 0)
(0.00942661 -0.00417553 0)
(0.0112 -0.00359623 0)
(0.0127569 -0.0030153 0)
(0.0140948 -0.00243934 0)
(0.0152141 -0.00187458 0)
(0.016117 -0.00132674 0)
(0.0168082 -0.000800937 0)
(0.0172942 -0.000301631 0)
(0.0175832 0.000167444 0)
(0.0176853 0.000603306 0)
(0.0176116 0.00100373 0)
(0.0173744 0.00136723 0)
(0.0169868 0.00169302 0)
(0.0164627 0.00198092 0)
(0.015816 0.0022313 0)
(0.015061 0.00244493 0)
(0.0142121 0.00262285 0)
(0.0132835 0.00276619 0)
(0.0122893 0.00287598 0)
(0.0112435 0.00295298 0)
(0.0101599 0.0029974 0)
(0.00905265 0.00300874 0)
(0.00793605 0.00298557 0)
(0.00682492 0.00292535 0)
(0.00573487 0.0028244 0)
(0.00468252 0.00267796 0)
(0.00368565 0.00248051 0)
(0.00276333 0.00222652 0)
(0.00193592 0.00191181 0)
(0.00122418 0.00153592 0)
(0.000647843 0.00110556 0)
(0.000234103 0.00063981 0)
(3.616e-05 0.000182082 0)
(1.34771e-05 -0.00014887 0)
(6.34672e-05 -0.000335166 0)
(0.000141651 -0.000431171 0)
(0.000219697 -0.00045515 0)
(0.00028114 -0.00042332 0)
(0.000315416 -0.000349947 0)
(0.000314561 -0.000246983 0)
(0.000272818 -0.000123964 0)
(0.000186232 1.18527e-05 0)
(5.21484e-05 0.000155247 0)
(-0.000131206 0.000302735 0)
(-0.000365066 0.000452252 0)
(-0.000650412 0.000602854 0)
(-0.000988188 0.000754436 0)
(-0.00137946 0.000907485 0)
(-0.00182554 0.00106288 0)
(-0.00232802 0.00122171 0)
(-0.00288883 0.00138516 0)
(-0.00351022 0.00155437 0)
(-0.00419472 0.00173041 0)
(-0.00494512 0.00191419 0)
(-0.00576438 0.00210642 0)
(-0.00665559 0.00230764 0)
(-0.00762189 0.00251816 0)
(-0.0086664 0.0027381 0)
(-0.00979214 0.00296735 0)
(-0.011002 0.00320564 0)
(-0.0122985 0.00345247 0)
(-0.0136841 0.00370715 0)
(-0.0151607 0.00396883 0)
(-0.0167297 0.00423641 0)
(-0.0183922 0.00450862 0)
(-0.0201483 0.00478397 0)
(-0.0219979 0.00506075 0)
(-0.0239399 0.00533703 0)
(-0.0259722 0.00561065 0)
(-0.0280922 0.00587921 0)
(-0.030296 0.0061401 0)
(-0.0325788 0.00639049 0)
(-0.0349349 0.00662734 0)
(-0.0373572 0.00684745 0)
(-0.0398377 0.00704744 0)
(-0.0423672 0.00722386 0)
(-0.0449354 0.00737315 0)
(-0.0475308 0.00749173 0)
(-0.0501411 0.00757606 0)
(-0.0527528 0.00762265 0)
(-0.0553516 0.00762817 0)
(-0.0579223 0.00758947 0)
(-0.0604492 0.00750366 0)
(-0.062916 0.00736815 0)
(-0.065306 0.00718073 0)
(-0.0676022 0.00693961 0)
(-0.0697876 0.00664347 0)
(-0.0718452 0.00629149 0)
(-0.0737584 0.00588342 0)
(-0.0755109 0.0054196 0)
(-0.0770872 0.00490096 0)
(-0.0784723 0.00432907 0)
(-0.0796524 0.00370614 0)
(-0.0806145 0.00303501 0)
(-0.081347 0.00231915 0)
(-0.0818397 0.00156264 0)
(-0.0820837 0.000770101 0)
(-0.0820712 -5.31925e-05 0)
(-0.0817971 -0.000900823 0)
(-0.0812577 -0.0017672 0)
(-0.0804505 -0.00264551 0)
(-0.0793753 -0.00352861 0)
(-0.0780338 -0.00440905 0)
(-0.0764297 -0.00527918 0)
(-0.0745683 -0.00613116 0)
(-0.0724573 -0.0069571 0)
(-0.0701061 -0.00774908 0)
(-0.0675259 -0.00849933 0)
(-0.0647301 -0.00920025 0)
(-0.0617336 -0.00984458 0)
(-0.0585532 -0.0104255 0)
(-0.0552072 -0.0109365 0)
(-0.0517154 -0.0113722 0)
(-0.0480993 -0.0117273 0)
(-0.0443811 -0.0119979 0)
(-0.0405844 -0.0121806 0)
(-0.0367335 -0.0122734 0)
(-0.0328532 -0.0122749 0)
(-0.0289688 -0.0121852 0)
(-0.0251057 -0.0120054 0)
(-0.021289 -0.0117378 0)
(-0.0175436 -0.0113858 0)
(-0.0138935 -0.0109538 0)
(-0.0103617 -0.0104474 0)
(-0.00697007 -0.00987331 0)
(-0.0037388 -0.00923876 0)
(-0.000686382 -0.00855194 0)
(0.00217068 -0.00782157 0)
(0.0048181 -0.0070568 0)
(0.00724393 -0.00626704 0)
(0.00943868 -0.00546179 0)
(0.0113954 -0.00465043 0)
(0.0131098 -0.00384208 0)
(0.0145801 -0.00304541 0)
(0.0158071 -0.00226849 0)
(0.0167939 -0.00151868 0)
(0.017546 -0.000802478 0)
(0.0180711 -0.000125471 0)
(0.0183786 0.000507736 0)
(0.0184796 0.00109354 0)
(0.0183868 0.00162934 0)
(0.0181139 0.00211347 0)
(0.0176756 0.00254512 0)
(0.0170873 0.00292425 0)
(0.0163647 0.0032514 0)
(0.0155239 0.00352754 0)
(0.014581 0.00375382 0)
(0.0135524 0.00393132 0)
(0.0124543 0.00406084 0)
(0.0113029 0.00414254 0)
(0.0101147 0.00417572 0)
(0.00890639 0.00415855 0)
(0.00769521 0.00408789 0)
(0.00649902 0.00395922 0)
(0.00533662 0.00376672 0)
(0.00422791 0.0035037 0)
(0.00319409 0.00316339 0)
(0.00225789 0.00274038 0)
(0.00144307 0.0022329 0)
(0.000773369 0.00164595 0)
(0.000284037 0.000995573 0)
(4.51609e-05 0.000317948 0)
(1.17066e-05 -0.000181095 0)
(5.18154e-05 -0.000397078 0)
(0.000108716 -0.000498202 0)
(0.000155812 -0.000509524 0)
(0.000177234 -0.000451992 0)
(0.000162754 -0.00034344 0)
(0.000104834 -0.000198534 0)
(-1.8976e-06 -2.88357e-05 0)
(-0.000161136 0.000156914 0)
(-0.000375409 0.000352461 0)
(-0.000646501 0.000553666 0)
(-0.00097579 0.000758119 0)
(-0.00136451 0.000964773 0)
(-0.00181396 0.00117361 0)
(-0.00232563 0.00138532 0)
(-0.00290134 0.00160108 0)
(-0.00354321 0.00182231 0)
(-0.00425375 0.00205052 0)
(-0.00503579 0.00228717 0)
(-0.00589245 0.0025336 0)
(-0.00682708 0.0027909 0)
(-0.00784319 0.00305996 0)
(-0.00894438 0.00334137 0)
(-0.0101342 0.00363543 0)
(-0.0114163 0.00394217 0)
(-0.0127938 0.00426133 0)
(-0.01427 0.00459238 0)
(-0.0158475 0.0049345 0)
(-0.0175287 0.00528662 0)
(-0.0193154 0.00564737 0)
(-0.0212088 0.00601511 0)
(-0.0232095 0.00638794 0)
(-0.0253172 0.00676364 0)
(-0.0275309 0.00713969 0)
(-0.0298485 0.00751328 0)
(-0.032267 0.00788131 0)
(-0.0347824 0.00824035 0)
(-0.0373893 0.00858671 0)
(-0.0400815 0.00891644 0)
(-0.0428513 0.00922533 0)
(-0.0456897 0.00950899 0)
(-0.0485866 0.00976286 0)
(-0.0515308 0.0099823 0)
(-0.0545096 0.0101626 0)
(-0.0575094 0.0102991 0)
(-0.0605155 0.0103872 0)
(-0.0635121 0.0104226 0)
(-0.0664828 0.010401 0)
(-0.0694104 0.0103187 0)
(-0.0722772 0.0101721 0)
(-0.075065 0.00995832 0)
(-0.0777554 0.0096749 0)
(-0.08033 0.00931997 0)
(-0.0827706 0.00889233 0)
(-0.0850592 0.00839145 0)
(-0.0871784 0.00781755 0)
(-0.0891113 0.00717158 0)
(-0.0908419 0.00645527 0)
(-0.0923551 0.00567115 0)
(-0.093637 0.00482252 0)
(-0.0946747 0.00391344 0)
(-0.095457 0.00294876 0)
(-0.0959739 0.00193403 0)
(-0.0962169 0.000875569 0)
(-0.096179 -0.000219708 0)
(-0.0958553 -0.00134462 0)
(-0.0952425 -0.00249073 0)
(-0.0943389 -0.0036495 0)
(-0.0931447 -0.004812 0)
(-0.091662 -0.00596889 0)
(-0.0898948 -0.00711059 0)
(-0.0878492 -0.00822733 0)
(-0.0855328 -0.00930926 0)
(-0.0829555 -0.0103466 0)
(-0.0801289 -0.0113296 0)
(-0.0770665 -0.0122489 0)
(-0.0737836 -0.0130954 0)
(-0.0702973 -0.0138605 0)
(-0.0666263 -0.0145365 0)
(-0.0627911 -0.015116 0)
(-0.0588132 -0.0155928 0)
(-0.054716 -0.0159615 0)
(-0.0505237 -0.016218 0)
(-0.0462615 -0.0163592 0)
(-0.0419554 -0.0163835 0)
(-0.037632 -0.0162905 0)
(-0.0333181 -0.0160813 0)
(-0.0290405 -0.0157583 0)
(-0.0248259 -0.0153254 0)
(-0.0207003 -0.014788 0)
(-0.016689 -0.0141527 0)
(-0.0128159 -0.0134273 0)
(-0.00910386 -0.0126209 0)
(-0.00557378 -0.0117435 0)
(-0.00224475 -0.0108059 0)
(0.00086632 -0.00981942 0)
(0.00374488 -0.008796 0)
(0.00637889 -0.00774766 0)
(0.00875894 -0.00668642 0)
(0.0108783 -0.00562406 0)
(0.0127331 -0.0045719 0)
(0.0143221 -0.00354062 0)
(0.0156466 -0.00254004 0)
(0.0167107 -0.00157903 0)
(0.0175208 -0.000665332 0)
(0.0180854 0.000194493 0)
(0.0184152 0.000995124 0)
(0.0185225 0.00173249 0)
(0.0184212 0.00240372 0)
(0.0181265 0.00300707 0)
(0.0176543 0.00354176 0)
(0.0170216 0.00400785 0)
(0.0162457 0.00440598 0)
(0.0153445 0.0047371 0)
(0.014336 0.00500221 0)
(0.0132382 0.00520198 0)
(0.0120697 0.00533646 0)
(0.0108488 0.00540473 0)
(0.00959456 0.00540457 0)
(0.00832618 0.00533229 0)
(0.00706364 0.00518259 0)
(0.00582776 0.00494869 0)
(0.00464042 0.00462269 0)
(0.00352495 0.00419638 0)
(0.00250659 0.00366259 0)
(0.00161222 0.00301717 0)
(0.00086975 0.00226161 0)
(0.000321648 0.0014063 0)
(5.16327e-05 0.000476945 0)
(9.26852e-06 -0.000206064 0)
(3.585e-05 -0.000439513 0)
(6.41466e-05 -0.000534685 0)
(7.07601e-05 -0.000523048 0)
(4.11677e-05 -0.000430208 0)
(-3.40992e-05 -0.000277525 0)
(-0.000161821 -8.22792e-05 0)
(-0.000346719 0.000142058 0)
(-0.000592029 0.000385414 0)
(-0.000900008 0.000640663 0)
(-0.00127235 0.000903167 0)
(-0.0017105 0.00117031 0)
(-0.00221594 0.00144107 0)
(-0.0027903 0.00171561 0)
(-0.00343555 0.00199492 0)
(-0.004154 0.00228051 0)
(-0.00494839 0.00257418 0)
(-0.0058218 0.00287779 0)
(-0.0067777 0.00319313 0)
(-0.00781981 0.00352176 0)
(-0.00895206 0.003865 0)
(-0.0101785 0.0042238 0)
(-0.0115032 0.00459877 0)
(-0.0129302 0.00499015 0)
(-0.0144633 0.0053978 0)
(-0.0161062 0.00582119 0)
(-0.0178619 0.00625946 0)
(-0.0197333 0.00671133 0)
(-0.0217226 0.00717521 0)
(-0.0238314 0.0076491 0)
(-0.0260603 0.00813067 0)
(-0.0284095 0.00861718 0)
(-0.0308778 0.00910554 0)
(-0.0334633 0.00959224 0)
(-0.036163 0.0100734 0)
(-0.0389723 0.0105448 0)
(-0.041886 0.0110019 0)
(-0.0448969 0.0114396 0)
(-0.0479971 0.0118528 0)
(-0.051177 0.0122359 0)
(-0.0544256 0.0125832 0)
(-0.0577307 0.012889 0)
(-0.061079 0.0131473 0)
(-0.0644557 0.0133523 0)
(-0.0678449 0.0134981 0)
(-0.0712301 0.0135793 0)
(-0.0745934 0.0135906 0)
(-0.0779165 0.0135272 0)
(-0.0811805 0.0133845 0)
(-0.0843662 0.0131589 0)
(-0.0874541 0.0128471 0)
(-0.0904247 0.0124466 0)
(-0.0932587 0.0119558 0)
(-0.0959371 0.0113737 0)
(-0.0984415 0.0107003 0)
(-0.100754 0.00993658 0)
(-0.102858 0.00908422 0)
(-0.104737 0.00814596 0)
(-0.106376 0.00712543 0)
(-0.107763 0.00602713 0)
(-0.108883 0.00485648 0)
(-0.109727 0.00361974 0)
(-0.110284 0.00232397 0)
(-0.110548 0.000977062 0)
(-0.11051 -0.000412445 0)
(-0.110168 -0.0018355 0)
(-0.109516 -0.0032821 0)
(-0.108555 -0.00474189 0)
(-0.107284 -0.00620407 0)
(-0.105706 -0.00765748 0)
(-0.103824 -0.00909065 0)
(-0.101645 -0.0104919 0)
(-0.0991758 -0.0118496 0)
(-0.0964261 -0.0131519 0)
(-0.0934074 -0.0143874 0)
(-0.090133 -0.0155447 0)
(-0.0866178 -0.016613 0)
(-0.0828789 -0.0175821 0)
(-0.0789349 -0.0184423 0)
(-0.0748062 -0.0191848 0)
(-0.0705145 -0.019802 0)
(-0.0660834 -0.0202872 0)
(-0.0615376 -0.0206351 0)
(-0.0569029 -0.0208416 0)
(-0.0522061 -0.0209044 0)
(-0.0474749 -0.0208226 0)
(-0.0427373 -0.020597 0)
(-0.0380218 -0.0202301 0)
(-0.0333565 -0.0197261 0)
(-0.0287694 -0.0190909 0)
(-0.0242879 -0.018332 0)
(-0.0199383 -0.0174586 0)
(-0.0157457 -0.016481 0)
(-0.0117336 -0.0154112 0)
(-0.00792379 -0.0142618 0)
(-0.00433579 -0.0130465 0)
(-0.000986886 -0.0117797 0)
(0.00210819 -0.0104759 0)
(0.00493739 -0.00914993 0)
(0.00749149 -0.00781631 0)
(0.00976411 -0.0064892 0)
(0.0117518 -0.00518204 0)
(0.0134539 -0.0039074 0)
(0.0148726 -0.00267675 0)
(0.0160128 -0.00150028 0)
(0.0168819 -0.000386814 0)
(0.0174894 0.000656279 0)
(0.0178472 0.00162313 0)
(0.0179689 0.00250933 0)
(0.0178696 0.00331185 0)
(0.0175657 0.00402889 0)
(0.0170749 0.0046597 0)
(0.0164155 0.00520434 0)
(0.0156065 0.00566333 0)
(0.0146674 0.00603736 0)
(0.013618 0.00632688 0)
(0.0124784 0.00653169 0)
(0.0112691 0.00665058 0)
(0.0100108 0.00668096 0)
(0.00872473 0.0066186 0)
(0.00743284 0.00645744 0)
(0.00615782 0.00618972 0)
(0.00492358 0.00580627 0)
(0.00375557 0.00529718 0)
(0.00268157 0.00465296 0)
(0.00173161 0.00386614 0)
(0.000937467 0.00293335 0)
(0.00034763 0.00185759 0)
(5.59104e-05 0.000652503 0)
(6.31161e-06 -0.000221787 0)
(1.63141e-05 -0.00045715 0)
(9.67588e-06 -0.000532786 0)
(-3.26236e-05 -0.000486086 0)
(-0.000123108 -0.000347062 0)
(-0.000270068 -0.000140415 0)
(-0.000479198 0.000114145 0)
(-0.000754332 0.000401437 0)
(-0.00109806 0.000710264 0)
(-0.00151222 0.00103284 0)
(-0.00199834 0.00136422 0)
(-0.00255789 0.00170177 0)
(-0.00319255 0.00204463 0)
(-0.0039043 0.00239327 0)
(-0.00469558 0.00274908 0)
(-0.00556926 0.00311398 0)
(-0.00652868 0.00349017 0)
(-0.00757758 0.0038799 0)
(-0.00872004 0.00428525 0)
(-0.00996041 0.00470803 0)
(-0.0113032 0.00514968 0)
(-0.012753 0.00561122 0)
(-0.0143144 0.00609319 0)
(-0.0159916 0.00659566 0)
(-0.0177889 0.00711824 0)
(-0.01971 0.00766004 0)
(-0.021758 0.00821969 0)
(-0.0239357 0.00879538 0)
(-0.0262449 0.00938482 0)
(-0.0286869 0.00998524 0)
(-0.0312618 0.0105934 0)
(-0.0339688 0.0112056 0)
(-0.0368061 0.0118178 0)
(-0.0397705 0.0124251 0)
(-0.0428576 0.0130226 0)
(-0.0460617 0.0136046 0)
(-0.0493756 0.0141653 0)
(-0.0527907 0.0146982 0)
(-0.056297 0.0151968 0)
(-0.0598831 0.0156542 0)
(-0.063536 0.0160632 0)
(-0.0672415 0.0164168 0)
(-0.0709841 0.0167077 0)
(-0.0747472 0.0169291 0)
(-0.078513 0.0170741 0)
(-0.0822631 0.0171362 0)
(-0.0859781 0.0171097 0)
(-0.0896382 0.0169889 0)
(-0.0932233 0.0167692 0)
(-0.096713 0.0164465 0)
(-0.100087 0.0160176 0)
(-0.103325 0.0154803 0)
(-0.106408 0.0148333 0)
(-0.109315 0.0140761 0)
(-0.11203 0.0132095 0)
(-0.114533 0.0122351 0)
(-0.116809 0.0111557 0)