/*--------------------------------*- C++ -*----------------------------------*\
| =========                 |                                                 |
| \\      /  F ield         | OpenFOAM: The Open Source CFD Toolbox           |
|  \\    /   O peration     | Version:  2112                                  |
|   \\  /    A nd           | Website:  www.openfoam.com                      |
|    \\/     M anipulation  |                                                 |
\*---------------------------------------------------------------------------*/
FoamFile
{
    version     2.0;
    format      ascii;
    arch        "LSB;label=32;scalar=64";
    class       volScalarField;
    location    "5";
    object      p;
}
// * * * * * * * * * * * * * * * * * * * * * * * * * * * * * * * * * * * * * //

dimensions      [0 2 -2 0 0 0 0];

internalField   nonuniform List<scalar> 
25600
(
-4.49603e-15
-1.27222e-14
-1.66917e-14
-1.88068e-14
-2.01953e-14
-2.11192e-14
-2.17487e-14
-2.23481e-14
-2.27565e-14
-2.30597e-14
-2.31935e-14
-2.34011e-14
-2.41018e-14
-2.46312e-14
-2.50633e-14
-2.56669e-14
-2.60166e-14
-2.60931e-14
-2.63162e-14
-2.67883e-14
-2.71836e-14
-2.74919e-14
-2.77376e-14
-2.78854e-14
-2.80078e-14
-2.82636e-14
-2.8641e-14
-2.86471e-14
-2.86136e-14
-2.87901e-14
-2.92366e-14
-2.93775e-14
-2.93129e-14
-2.93154e-14
-2.93381e-14
-2.94061e-14
-2.9527e-14
-2.93199e-14
-2.92823e-14
-2.95363e-14
-2.93716e-14
-2.93531e-14
-2.90715e-14
-2.86794e-14
-2.87634e-14
-2.84249e-14
-2.82758e-14
-2.81567e-14
-2.79873e-14
-2.7924e-14
-2.76286e-14
-2.77154e-14
-2.77135e-14
-2.77219e-14
-2.77978e-14
-2.72963e-14
-2.7193e-14
-2.70853e-14
-2.70892e-14
-2.72163e-14
-2.67321e-14
-2.70609e-14
-2.68633e-14
-2.68071e-14
-2.68837e-14
-2.62066e-14
-2.62777e-14
-2.64309e-14
-2.66189e-14
-2.67981e-14
-2.64426e-14
-2.63439e-14
-2.61532e-14
-2.6049e-14
-2.62173e-14
-2.57576e-14
-2.5704e-14
-2.62645e-14
-2.62243e-14
-2.63649e-14
-2.6059e-14
-2.58848e-14
-2.65487e-14
-2.68839e-14
-2.72245e-14
-2.73166e-14
-2.73789e-14
-2.76439e-14
-2.8064e-14
-2.84383e-14
-2.7914e-14
-2.76694e-14
-2.81527e-14
-2.88289e-14
-2.86782e-14
-2.83114e-14
-2.87608e-14
-2.89686e-14
-2.95284e-14
-2.96251e-14
-2.91959e-14
-2.97339e-14
-2.98146e-14
-3.05687e-14
-3.12593e-14
-3.16012e-14
-3.1821e-14
-3.27454e-14
-3.39248e-14
-3.46018e-14
-3.5187e-14
-3.4906e-14
-3.65864e-14
-3.79549e-14
-3.80274e-14
-3.83611e-14
-3.86256e-14
-3.99715e-14
-4.14273e-14
-4.16972e-14
-4.16156e-14
-4.19028e-14
-4.33089e-14
-4.5092e-14
-4.54841e-14
-4.51629e-14
-4.52226e-14
-4.65901e-14
-4.79137e-14
-4.76668e-14
-4.735e-14
-4.75621e-14
-4.86726e-14
-4.94539e-14
-4.92849e-14
-4.93882e-14
-4.93454e-14
-5.01432e-14
-5.1091e-14
-5.1071e-14
-5.09846e-14
-5.11935e-14
-5.21905e-14
-5.29806e-14
-5.31572e-14
-5.35731e-14
-5.36494e-14
-5.43955e-14
-5.48313e-14
-5.53137e-14
-5.62168e-14
-5.59087e-14
-5.66845e-14
-5.8132e-14
-5.90532e-14
-5.97918e-14
-5.98511e-14
-6.05277e-14
-6.18758e-14
-6.2914e-14
-6.37997e-14
-6.32379e-14
-6.42417e-14
-6.54138e-14
-6.48884e-14
-6.58163e-14
-6.59827e-14
-6.65918e-14
-6.82034e-14
-6.87418e-14
-6.93294e-14
-6.92093e-14
-7.02733e-14
-7.1427e-14
-7.17458e-14
-7.25179e-14
-7.31193e-14
-7.49405e-14
-7.50825e-14
-7.57408e-14
-7.70931e-14
-7.63934e-14
-7.76557e-14
-7.87808e-14
-7.90041e-14
-8.00269e-14
-7.92191e-14
-8.00233e-14
-8.10366e-14
-8.04485e-14
-8.16404e-14
-8.19884e-14
-8.22661e-14
-8.34543e-14
-8.30279e-14
-8.34793e-14
-8.34168e-14
-8.39858e-14
-8.50542e-14
-8.38567e-14
-8.41579e-14
-8.43511e-14
-8.5253e-14
-8.62294e-14
-8.48939e-14
-8.46481e-14
-8.52069e-14
-8.64838e-14
-8.68637e-14
-8.59189e-14
-8.57205e-14
-8.60201e-14
-8.78496e-14
-8.64425e-14
-8.48648e-14
-8.70286e-14
-8.58269e-14
-8.49633e-14
-8.4837e-14
-8.46033e-14
-8.66361e-14
-8.52987e-14
-8.3571e-14
-8.33083e-14
-8.31433e-14
-8.53401e-14
-8.37823e-14
-8.25065e-14
-8.26553e-14
-8.15791e-14
-8.26088e-14
-8.12832e-14
-8.09317e-14
-8.102e-14
-7.94153e-14
-8.04536e-14
-7.9894e-14
-7.9472e-14
-7.9135e-14
-7.74364e-14
-7.85612e-14
-7.743e-14
-7.70367e-14
-7.69995e-14
-7.47133e-14
-7.58676e-14
-7.59594e-14
-7.53974e-14
-7.41665e-14
-7.23604e-14
-7.38907e-14
-7.23093e-14
-7.06898e-14
-7.01587e-14
-6.89675e-14
-7.06845e-14
-6.8752e-14
-6.74664e-14
-6.72434e-14
-6.5145e-14
-6.59933e-14
-6.51502e-14
-6.43311e-14
-6.39609e-14
-6.27742e-14
-6.37787e-14
-6.248e-14
-6.12711e-14
-6.03408e-14
-5.88182e-14
-5.97314e-14
-5.87898e-14
-5.80257e-14
-5.71713e-14
-5.56707e-14
-5.63534e-14
-5.52976e-14
-5.41512e-14
-5.4058e-14
-5.21788e-14
-5.21934e-14
-5.12862e-14
-4.99066e-14
-4.9108e-14
-4.73536e-14
-4.76168e-14
-4.72907e-14
-4.57414e-14
-4.42516e-14
-4.34806e-14
-4.44488e-14
-4.34277e-14
-4.19709e-14
-4.12502e-14
-4.10104e-14
-4.15575e-14
-4.0282e-14
-3.89623e-14
-3.7645e-14
-3.73149e-14
-3.77791e-14
-3.64264e-14
-3.53013e-14
-3.31717e-14
-3.24324e-14
-3.30059e-14
-3.21087e-14
-3.17486e-14
-3.00224e-14
-2.9573e-14
-2.89949e-14
-2.74349e-14
-2.78407e-14
-2.62291e-14
-2.48246e-14
-2.43872e-14
-2.23055e-14
-2.10939e-14
-1.79025e-14
-1.29155e-14
-9.98145e-15
-1.39688e-14
-1.70567e-14
-1.89207e-14
-2.02491e-14
-2.11532e-14
-2.1795e-14
-2.23911e-14
-2.27432e-14
-2.30817e-14
-2.31939e-14
-2.34063e-14
-2.40907e-14
-2.45777e-14
-2.5062e-14
-2.56277e-14
-2.60307e-14
-2.60894e-14
-2.63623e-14
-2.67908e-14
-2.71469e-14
-2.74677e-14
-2.77646e-14
-2.79503e-14
-2.80675e-14
-2.82589e-14
-2.85033e-14
-2.86319e-14
-2.86739e-14
-2.88343e-14
-2.92027e-14
-2.93108e-14
-2.93074e-14
-2.93557e-14
-2.93696e-14
-2.94075e-14
-2.94907e-14
-2.93871e-14
-2.93651e-14
-2.94511e-14
-2.93811e-14
-2.93625e-14
-2.91117e-14
-2.87419e-14
-2.86508e-14
-2.84265e-14
-2.82776e-14
-2.8158e-14
-2.79561e-14
-2.79405e-14
-2.77635e-14
-2.75627e-14
-2.76573e-14
-2.77168e-14
-2.76294e-14
-2.7428e-14
-2.72151e-14
-2.7105e-14
-2.70877e-14
-2.71405e-14
-2.68579e-14
-2.70366e-14
-2.6859e-14
-2.68324e-14
-2.68253e-14
-2.62475e-14
-2.6269e-14
-2.64718e-14
-2.66094e-14
-2.67341e-14
-2.6449e-14
-2.64208e-14
-2.61839e-14
-2.61124e-14
-2.60545e-14
-2.58298e-14
-2.58638e-14
-2.61544e-14
-2.61841e-14
-2.62139e-14
-2.61654e-14
-2.61134e-14
-2.64955e-14
-2.68137e-14
-2.70555e-14
-2.7365e-14
-2.77251e-14
-2.77848e-14
-2.7826e-14
-2.81599e-14
-2.80121e-14
-2.79821e-14
-2.81586e-14
-2.85713e-14
-2.8704e-14
-2.8608e-14
-2.88471e-14
-2.89491e-14
-2.92286e-14
-2.94954e-14
-2.95921e-14
-2.97019e-14
-2.9803e-14
-3.0344e-14
-3.11644e-14
-3.17502e-14
-3.19351e-14
-3.26246e-14
-3.37589e-14
-3.46744e-14
-3.51126e-14
-3.52716e-14
-3.64295e-14
-3.75637e-14
-3.80514e-14
-3.85474e-14
-3.88062e-14
-3.98001e-14
-4.1256e-14
-4.17597e-14
-4.16436e-14
-4.21168e-14
-4.32777e-14
-4.48052e-14
-4.54561e-14
-4.53161e-14
-4.54105e-14
-4.65507e-14
-4.7653e-14
-4.76394e-14
-4.74949e-14
-4.77238e-14
-4.85035e-14
-4.9316e-14
-4.94045e-14
-4.93536e-14
-4.93636e-14
-5.01382e-14
-5.0994e-14
-5.11182e-14
-5.09941e-14
-5.12557e-14
-5.21392e-14
-5.29112e-14
-5.31989e-14
-5.34839e-14
-5.38168e-14
-5.45608e-14
-5.48091e-14
-5.50702e-14
-5.59733e-14
-5.62142e-14
-5.70122e-14
-5.80205e-14
-5.88431e-14
-5.96196e-14
-5.99715e-14
-6.07345e-14
-6.17756e-14
-6.28506e-14
-6.35533e-14
-6.34606e-14
-6.43953e-14
-6.52302e-14
-6.51034e-14
-6.55923e-14
-6.61131e-14
-6.68743e-14
-6.79384e-14
-6.86427e-14
-6.91779e-14
-6.94591e-14
-7.02687e-14
-7.14612e-14
-7.19696e-14
-7.22926e-14
-7.31301e-14
-7.45063e-14
-7.52557e-14
-7.61207e-14
-7.66709e-14
-7.66029e-14
-7.76825e-14
-7.88216e-14
-7.92017e-14
-7.95258e-14
-7.93891e-14
-8e-14
-8.08126e-14
-8.08997e-14
-8.14648e-14
-8.19881e-14
-8.25006e-14
-8.29443e-14
-8.32198e-14
-8.35739e-14
-8.37046e-14
-8.39258e-14
-8.43139e-14
-8.43016e-14
-8.42391e-14
-8.45773e-14
-8.51916e-14
-8.54596e-14
-8.52311e-14
-8.51136e-14
-8.53923e-14
-8.60549e-14
-8.63008e-14
-8.61637e-14
-8.63726e-14
-8.62654e-14
-8.70813e-14
-8.64375e-14
-8.55587e-14
-8.63039e-14
-8.55042e-14
-8.5566e-14
-8.5289e-14
-8.48298e-14
-8.57936e-14
-8.49381e-14
-8.41448e-14
-8.36958e-14
-8.33518e-14
-8.45546e-14
-8.36791e-14
-8.27187e-14
-8.26362e-14
-8.19355e-14
-8.23433e-14
-8.13618e-14
-8.10799e-14
-8.08828e-14
-7.97572e-14
-8.01087e-14
-7.97151e-14
-7.97439e-14
-7.92464e-14
-7.77804e-14
-7.81231e-14
-7.73962e-14
-7.71183e-14
-7.68814e-14
-7.5258e-14
-7.59748e-14
-7.5627e-14
-7.5056e-14
-7.42e-14
-7.28469e-14
-7.37018e-14
-7.22375e-14
-7.06982e-14
-7.00415e-14
-6.94431e-14
-7.04453e-14
-6.86394e-14
-6.73689e-14
-6.70535e-14
-6.56294e-14
-6.57799e-14
-6.4932e-14
-6.43803e-14
-6.39513e-14
-6.31394e-14
-6.35072e-14
-6.2079e-14
-6.13943e-14
-6.05931e-14
-5.9072e-14
-5.9527e-14
-5.85958e-14
-5.81246e-14
-5.72474e-14
-5.57874e-14
-5.62401e-14
-5.51457e-14
-5.44927e-14
-5.39017e-14
-5.21104e-14
-5.22028e-14
-5.10514e-14
-5.01327e-14
-4.92204e-14
-4.75436e-14
-4.77163e-14
-4.68963e-14
-4.5547e-14
-4.46038e-14
-4.37532e-14
-4.42289e-14
-4.3146e-14
-4.19713e-14
-4.17631e-14
-4.09956e-14
-4.10503e-14
-4.04837e-14
-3.87991e-14
-3.81668e-14
-3.73537e-14
-3.72398e-14
-3.64978e-14
-3.51271e-14
-3.35208e-14
-3.28309e-14
-3.30497e-14
-3.19339e-14
-3.12194e-14
-3.02766e-14
-2.95962e-14
-2.90825e-14
-2.76e-14
-2.7373e-14
-2.65145e-14
-2.50921e-14
-2.40444e-14
-2.24356e-14
-2.1117e-14
-1.83689e-14
-1.44014e-14
-1.31798e-14
-1.53395e-14
-1.76421e-14
-1.92244e-14
-2.03997e-14
-2.12546e-14
-2.1859e-14
-2.24112e-14
-2.27448e-14
-2.30316e-14
-2.32017e-14
-2.33955e-14
-2.40595e-14
-2.45434e-14
-2.50933e-14
-2.55961e-14
-2.5987e-14
-2.60809e-14
-2.63931e-14
-2.68114e-14
-2.71018e-14
-2.74683e-14
-2.78231e-14
-2.80325e-14
-2.80481e-14
-2.82179e-14
-2.84285e-14
-2.86e-14
-2.86855e-14
-2.89108e-14
-2.92075e-14
-2.92656e-14
-2.92336e-14
-2.93517e-14
-2.94661e-14
-2.94447e-14
-2.93986e-14
-2.94472e-14
-2.94219e-14
-2.93681e-14
-2.94258e-14
-2.93836e-14
-2.91312e-14
-2.87993e-14
-2.86064e-14
-2.83892e-14
-2.82395e-14
-2.81781e-14
-2.79222e-14
-2.79463e-14
-2.77622e-14
-2.75114e-14
-2.75879e-14
-2.77143e-14
-2.76566e-14
-2.74791e-14
-2.7198e-14
-2.70331e-14
-2.70727e-14
-2.71851e-14
-2.69704e-14
-2.69865e-14
-2.68474e-14
-2.68374e-14
-2.67742e-14
-2.62406e-14
-2.62879e-14
-2.64246e-14
-2.66148e-14
-2.67617e-14
-2.64992e-14
-2.64872e-14
-2.61705e-14
-2.61515e-14
-2.59144e-14
-2.59161e-14
-2.5975e-14
-2.60346e-14
-2.61416e-14
-2.61567e-14
-2.62502e-14
-2.62694e-14
-2.64618e-14
-2.67222e-14
-2.70052e-14
-2.74171e-14
-2.79038e-14
-2.79218e-14
-2.77475e-14
-2.79787e-14
-2.80552e-14
-2.81441e-14
-2.80997e-14
-2.85495e-14
-2.87138e-14
-2.87237e-14
-2.89093e-14
-2.88879e-14
-2.9162e-14
-2.94407e-14
-2.97086e-14
-2.9711e-14
-2.97774e-14
-3.01528e-14
-3.1072e-14
-3.18485e-14
-3.20004e-14
-3.26266e-14
-3.36711e-14
-3.46662e-14
-3.51191e-14
-3.55463e-14
-3.62483e-14
-3.72983e-14
-3.80091e-14
-3.86237e-14
-3.8947e-14
-3.97428e-14
-4.10695e-14
-4.17944e-14
-4.17523e-14
-4.23369e-14
-4.31966e-14
-4.45153e-14
-4.53982e-14
-4.54909e-14
-4.57565e-14
-4.65263e-14
-4.74572e-14
-4.75784e-14
-4.75691e-14
-4.79676e-14
-4.83491e-14
-4.91302e-14
-4.94251e-14
-4.93257e-14
-4.94128e-14
-5.01689e-14
-5.08683e-14
-5.11389e-14
-5.09768e-14
-5.13117e-14
-5.21059e-14
-5.28729e-14
-5.32031e-14
-5.35519e-14
-5.38957e-14
-5.44766e-14
-5.48039e-14
-5.49796e-14
-5.57995e-14
-5.64544e-14
-5.71782e-14
-5.7935e-14
-5.87481e-14
-5.94891e-14
-6.00768e-14
-6.09286e-14
-6.17357e-14
-6.27035e-14
-6.34868e-14
-6.36677e-14
-6.45542e-14
-6.51159e-14
-6.51808e-14
-6.55473e-14
-6.61101e-14
-6.69914e-14
-6.77648e-14
-6.85341e-14
-6.92874e-14
-6.95137e-14
-7.02875e-14
-7.14256e-14
-7.19431e-14
-7.24325e-14
-7.31328e-14
-7.40601e-14
-7.52487e-14
-7.62699e-14
-7.6622e-14
-7.6842e-14
-7.76635e-14
-7.87993e-14
-7.92701e-14
-7.92652e-14
-7.94353e-14
-8.00862e-14
-8.06558e-14
-8.10864e-14
-8.13619e-14
-8.20389e-14
-8.26037e-14
-8.27853e-14
-8.32088e-14
-8.36944e-14
-8.39261e-14
-8.38932e-14
-8.39552e-14
-8.4476e-14
-8.42896e-14
-8.46426e-14
-8.51297e-14
-8.51764e-14
-8.53086e-14
-8.53972e-14
-8.54001e-14
-8.58717e-14
-8.60168e-14
-8.63031e-14
-8.67154e-14
-8.64113e-14
-8.66528e-14
-8.64125e-14
-8.59616e-14
-8.59252e-14
-8.54156e-14
-8.59294e-14
-8.55856e-14
-8.50423e-14
-8.5225e-14
-8.47222e-14
-8.44639e-14
-8.3921e-14
-8.34641e-14
-8.40137e-14
-8.35527e-14
-8.29363e-14
-8.26859e-14
-8.21263e-14
-8.21086e-14
-8.14285e-14
-8.11259e-14
-8.08665e-14
-8.01076e-14
-8.00462e-14
-7.965e-14
-7.97019e-14
-7.92272e-14
-7.80221e-14
-7.80287e-14
-7.74724e-14
-7.70455e-14
-7.66944e-14
-7.57865e-14
-7.60742e-14
-7.53517e-14
-7.47788e-14
-7.4315e-14
-7.31729e-14
-7.3371e-14
-7.2137e-14
-7.08906e-14
-7.02088e-14
-6.97184e-14
-7.00082e-14
-6.86544e-14
-6.74521e-14
-6.69552e-14
-6.5865e-14
-6.53761e-14
-6.47039e-14
-6.463e-14
-6.4059e-14
-6.32925e-14
-6.31673e-14
-6.18882e-14
-6.14389e-14
-6.07479e-14
-5.92787e-14
-5.94889e-14
-5.8538e-14
-5.80035e-14
-5.73067e-14
-5.58903e-14
-5.61827e-14
-5.5125e-14
-5.45581e-14
-5.38934e-14
-5.20964e-14
-5.21334e-14
-5.09842e-14
-5.01694e-14
-4.93699e-14
-4.77613e-14
-4.77237e-14
-4.66793e-14
-4.54427e-14
-4.48756e-14
-4.38922e-14
-4.39351e-14
-4.30688e-14
-4.21919e-14
-4.19026e-14
-4.08457e-14
-4.09086e-14
-4.05245e-14
-3.88904e-14
-3.83545e-14
-3.7382e-14
-3.69338e-14
-3.63224e-14
-3.50616e-14
-3.38935e-14
-3.32073e-14
-3.30993e-14
-3.16939e-14
-3.0945e-14
-3.05266e-14
-2.9542e-14
-2.91846e-14
-2.76127e-14
-2.70697e-14
-2.68338e-14
-2.52383e-14
-2.40121e-14
-2.26803e-14
-2.12684e-14
-1.91257e-14
-1.59976e-14
-1.55891e-14
-1.66156e-14
-1.83602e-14
-1.95734e-14
-2.0678e-14
-2.1427e-14
-2.20107e-14
-2.24943e-14
-2.27262e-14
-2.30619e-14
-2.32065e-14
-2.32441e-14
-2.39842e-14
-2.45905e-14
-2.51095e-14
-2.5653e-14
-2.59245e-14
-2.60278e-14
-2.63955e-14
-2.68842e-14
-2.70297e-14
-2.74864e-14
-2.79366e-14
-2.80718e-14
-2.80434e-14
-2.81332e-14
-2.8424e-14
-2.85898e-14
-2.86814e-14
-2.89384e-14
-2.92647e-14
-2.93171e-14
-2.91863e-14
-2.92688e-14
-2.9471e-14
-2.95379e-14
-2.94749e-14
-2.93926e-14
-2.94364e-14
-2.94512e-14
-2.94515e-14
-2.94075e-14
-2.92088e-14
-2.88345e-14
-2.85632e-14
-2.83327e-14
-2.81914e-14
-2.82784e-14
-2.79334e-14
-2.79297e-14
-2.76544e-14
-2.73699e-14
-2.75964e-14
-2.7719e-14
-2.77034e-14
-2.74852e-14
-2.71996e-14
-2.70159e-14
-2.70552e-14
-2.72459e-14
-2.70201e-14
-2.69556e-14
-2.68726e-14
-2.68655e-14
-2.67715e-14
-2.6175e-14
-2.61431e-14
-2.64273e-14
-2.66085e-14
-2.68277e-14
-2.66062e-14
-2.6578e-14
-2.62194e-14
-2.62058e-14
-2.57807e-14
-2.59423e-14
-2.59015e-14
-2.60181e-14
-2.61222e-14
-2.60921e-14
-2.63108e-14
-2.63256e-14
-2.63322e-14
-2.67722e-14
-2.71533e-14
-2.74762e-14
-2.7878e-14
-2.79109e-14
-2.78388e-14
-2.79908e-14
-2.81383e-14
-2.82381e-14
-2.80372e-14
-2.85217e-14
-2.87706e-14
-2.87645e-14
-2.88661e-14
-2.8913e-14
-2.93094e-14
-2.94409e-14
-2.95738e-14
-2.96935e-14
-2.98453e-14
-2.99638e-14
-3.09363e-14
-3.17598e-14
-3.21056e-14
-3.27827e-14
-3.35234e-14
-3.44605e-14
-3.5247e-14
-3.56179e-14
-3.60885e-14
-3.71744e-14
-3.79489e-14
-3.85851e-14
-3.91835e-14
-3.97557e-14
-4.08913e-14
-4.16869e-14
-4.1835e-14
-4.25841e-14
-4.30104e-14
-4.42724e-14
-4.55497e-14
-4.55021e-14
-4.59539e-14
-4.66835e-14
-4.73677e-14
-4.76089e-14
-4.75692e-14
-4.81255e-14
-4.82457e-14
-4.90044e-14
-4.9274e-14
-4.94327e-14
-4.94018e-14
-5.01362e-14
-5.06339e-14
-5.11555e-14
-5.10521e-14
-5.14869e-14
-5.19333e-14
-5.27745e-14
-5.33163e-14
-5.35626e-14
-5.40115e-14
-5.43231e-14
-5.46806e-14
-5.50592e-14
-5.585e-14
-5.65204e-14
-5.70465e-14
-5.79117e-14
-5.88088e-14
-5.94672e-14
-6.00519e-14
-6.10649e-14
-6.16924e-14
-6.26385e-14
-6.35828e-14
-6.39064e-14
-6.46463e-14
-6.4962e-14
-6.51037e-14
-6.55051e-14
-6.60634e-14
-6.69884e-14
-6.78082e-14
-6.85766e-14
-6.93493e-14
-6.94456e-14
-7.03374e-14
-7.13081e-14
-7.16446e-14
-7.27056e-14
-7.32039e-14
-7.40215e-14
-7.51211e-14
-7.6193e-14
-7.68166e-14
-7.70036e-14
-7.74737e-14
-7.87317e-14
-7.93531e-14
-7.93129e-14
-7.93824e-14
-8.01921e-14
-8.06228e-14
-8.09699e-14
-8.1349e-14
-8.20854e-14
-8.26844e-14
-8.27044e-14
-8.30796e-14
-8.3888e-14
-8.39297e-14
-8.39196e-14
-8.40395e-14
-8.44147e-14
-8.41888e-14
-8.46498e-14
-8.50415e-14
-8.52223e-14
-8.53557e-14
-8.53473e-14
-8.53677e-14
-8.59332e-14
-8.61229e-14
-8.61637e-14
-8.66445e-14
-8.65179e-14
-8.65957e-14
-8.64554e-14
-8.61523e-14
-8.58853e-14
-8.55273e-14
-8.57842e-14
-8.56743e-14
-8.52622e-14
-8.50506e-14
-8.47295e-14
-8.44865e-14
-8.40356e-14
-8.35891e-14
-8.36589e-14
-8.35187e-14
-8.33685e-14
-8.27434e-14
-8.17815e-14
-8.17285e-14
-8.14844e-14
-8.12758e-14
-8.1121e-14
-8.05405e-14
-8.01728e-14
-7.94109e-14
-7.93659e-14
-7.92777e-14
-7.81834e-14
-7.78188e-14
-7.76337e-14
-7.72816e-14
-7.66656e-14
-7.59704e-14
-7.58923e-14
-7.52567e-14
-7.47855e-14
-7.44346e-14
-7.33791e-14
-7.32403e-14
-7.20773e-14
-7.0814e-14
-7.03873e-14
-6.99825e-14
-6.96464e-14
-6.87482e-14
-6.75557e-14
-6.69391e-14
-6.59918e-14
-6.49835e-14
-6.47178e-14
-6.48211e-14
-6.39501e-14
-6.31549e-14
-6.29604e-14
-6.2191e-14
-6.12919e-14
-6.06246e-14
-5.97236e-14
-5.94914e-14
-5.85537e-14
-5.77028e-14
-5.72287e-14
-5.62971e-14
-5.58752e-14
-5.51475e-14
-5.45873e-14
-5.37433e-14
-5.25844e-14
-5.19152e-14
-5.09731e-14
-5.01218e-14
-4.93382e-14
-4.82231e-14
-4.73327e-14
-4.6529e-14
-4.57221e-14
-4.50435e-14
-4.40005e-14
-4.34033e-14
-4.29846e-14
-4.26231e-14
-4.20461e-14
-4.09323e-14
-4.05168e-14
-4.03385e-14
-3.92679e-14
-3.84626e-14
-3.7378e-14
-3.6601e-14
-3.63088e-14
-3.52012e-14
-3.38325e-14
-3.34261e-14
-3.28556e-14
-3.18258e-14
-3.12117e-14
-3.05805e-14
-2.94759e-14
-2.905e-14
-2.74806e-14
-2.70765e-14
-2.70027e-14
-2.56638e-14
-2.42836e-14
-2.28947e-14
-2.14837e-14
-1.98682e-14
-1.76302e-14
-1.74591e-14
-1.79267e-14
-1.90969e-14
-2.00226e-14
-2.0942e-14
-2.15883e-14
-2.21666e-14
-2.24951e-14
-2.27555e-14
-2.31607e-14
-2.31039e-14
-2.31786e-14
-2.38975e-14
-2.45259e-14
-2.51715e-14
-2.55903e-14
-2.58941e-14
-2.59374e-14
-2.64652e-14
-2.69192e-14
-2.71178e-14
-2.75786e-14
-2.80056e-14
-2.80819e-14
-2.80665e-14
-2.80707e-14
-2.83994e-14
-2.85328e-14
-2.86434e-14
-2.90094e-14
-2.92667e-14
-2.92907e-14
-2.90832e-14
-2.93227e-14
-2.95128e-14
-2.96482e-14
-2.9513e-14
-2.94419e-14
-2.95467e-14
-2.96226e-14
-2.9511e-14
-2.94173e-14
-2.92009e-14
-2.87763e-14
-2.85085e-14
-2.83282e-14
-2.82968e-14
-2.83412e-14
-2.79388e-14
-2.78796e-14
-2.76562e-14
-2.74194e-14
-2.75514e-14
-2.7702e-14
-2.76333e-14
-2.74969e-14
-2.7241e-14
-2.71176e-14
-2.72319e-14
-2.72142e-14
-2.70762e-14
-2.68577e-14
-2.67619e-14
-2.68611e-14
-2.68532e-14
-2.62336e-14
-2.59186e-14
-2.62968e-14
-2.6647e-14
-2.69825e-14
-2.67124e-14
-2.65485e-14
-2.62395e-14
-2.62058e-14
-2.57647e-14
-2.58389e-14
-2.57555e-14
-2.61574e-14
-2.62185e-14
-2.59341e-14
-2.62177e-14
-2.63841e-14
-2.64156e-14
-2.67188e-14
-2.71733e-14
-2.76164e-14
-2.79253e-14
-2.78541e-14
-2.79731e-14
-2.81456e-14
-2.81758e-14
-2.83157e-14
-2.81377e-14
-2.85105e-14
-2.87531e-14
-2.87994e-14
-2.86524e-14
-2.89463e-14
-2.94867e-14
-2.94218e-14
-2.94071e-14
-2.98172e-14
-2.97095e-14
-2.99159e-14
-3.08519e-14
-3.16193e-14
-3.23062e-14
-3.29752e-14
-3.32652e-14
-3.42773e-14
-3.53016e-14
-3.55613e-14
-3.60462e-14
-3.70922e-14
-3.78945e-14
-3.86671e-14
-3.9303e-14
-3.97148e-14
-4.07689e-14
-4.15841e-14
-4.19995e-14
-4.26269e-14
-4.29279e-14
-4.41663e-14
-4.55781e-14
-4.5747e-14
-4.59906e-14
-4.67138e-14
-4.72719e-14
-4.77417e-14
-4.77953e-14
-4.79815e-14
-4.82193e-14
-4.89623e-14
-4.91785e-14
-4.94007e-14
-4.947e-14
-5.00722e-14
-5.04369e-14
-5.11835e-14
-5.11604e-14
-5.17575e-14
-5.1836e-14
-5.25598e-14
-5.33e-14
-5.36852e-14
-5.41205e-14
-5.42722e-14
-5.45734e-14
-5.49741e-14
-5.58358e-14
-5.65958e-14
-5.69341e-14
-5.78879e-14
-5.87407e-14
-5.95574e-14
-6.02031e-14
-6.10394e-14
-6.16167e-14
-6.25806e-14
-6.35246e-14
-6.42132e-14
-6.46219e-14
-6.48097e-14
-6.51295e-14
-6.5437e-14
-6.60426e-14
-6.69795e-14
-6.80273e-14
-6.86454e-14
-6.92141e-14
-6.94801e-14
-7.05172e-14
-7.10799e-14
-7.15545e-14
-7.27004e-14
-7.31427e-14
-7.42108e-14
-7.50722e-14
-7.5971e-14
-7.68515e-14
-7.71763e-14
-7.7487e-14
-7.86158e-14
-7.94724e-14
-7.93342e-14
-7.93657e-14
-8.01676e-14
-8.06535e-14
-8.08511e-14
-8.14167e-14
-8.20411e-14
-8.26928e-14
-8.27339e-14
-8.30112e-14
-8.40294e-14
-8.37985e-14
-8.38741e-14
-8.4153e-14
-8.43881e-14
-8.42396e-14
-8.46067e-14
-8.49611e-14
-8.51925e-14
-8.54328e-14
-8.52629e-14
-8.53311e-14
-8.58559e-14
-8.6279e-14
-8.61635e-14
-8.66116e-14
-8.66794e-14
-8.66458e-14
-8.64923e-14
-8.62541e-14
-8.59761e-14
-8.54165e-14
-8.55381e-14
-8.5814e-14
-8.54913e-14
-8.50012e-14
-8.47207e-14
-8.44745e-14
-8.41267e-14
-8.38164e-14
-8.35521e-14
-8.34808e-14
-8.36768e-14
-8.26972e-14
-8.15419e-14
-8.16355e-14
-8.15485e-14
-8.14619e-14
-8.13829e-14
-8.08005e-14
-8.03518e-14
-7.92196e-14
-7.89268e-14
-7.92094e-14
-7.8543e-14
-7.7786e-14
-7.77842e-14
-7.74317e-14
-7.65949e-14
-7.60585e-14
-7.56668e-14
-7.51707e-14
-7.48149e-14
-7.4287e-14
-7.36376e-14
-7.32224e-14
-7.20015e-14
-7.08919e-14
-7.04184e-14
-7.00822e-14
-6.93964e-14
-6.88073e-14
-6.7734e-14
-6.67025e-14
-6.60407e-14
-6.52334e-14
-6.47784e-14
-6.45126e-14
-6.37416e-14
-6.3198e-14
-6.28712e-14
-6.24436e-14
-6.11033e-14
-6.0544e-14
-6.01018e-14
-5.93102e-14
-5.85644e-14
-5.74783e-14
-5.71546e-14
-5.65493e-14
-5.55827e-14
-5.53047e-14
-5.45735e-14
-5.37184e-14
-5.30835e-14
-5.18319e-14
-5.11363e-14
-4.9962e-14
-4.91551e-14
-4.86414e-14
-4.70084e-14
-4.64449e-14
-4.58601e-14
-4.51292e-14
-4.40218e-14
-4.31312e-14
-4.32107e-14
-4.27638e-14
-4.19379e-14
-4.11017e-14
-4.03091e-14
-4.02724e-14
-3.96023e-14
-3.85187e-14
-3.74749e-14
-3.64216e-14
-3.63294e-14
-3.51762e-14
-3.37881e-14
-3.36367e-14
-3.26118e-14
-3.1985e-14
-3.15241e-14
-3.05408e-14
-2.95957e-14
-2.87619e-14
-2.77826e-14
-2.72444e-14
-2.67967e-14
-2.61244e-14
-2.47932e-14
-2.31301e-14
-2.19286e-14
-2.0491e-14
-1.88721e-14
-1.88589e-14
-1.89936e-14
-1.96899e-14
-2.05581e-14
-2.13338e-14
-2.17659e-14
-2.23084e-14
-2.24395e-14
-2.28797e-14
-2.30948e-14
-2.29658e-14
-2.32893e-14
-2.37181e-14
-2.46437e-14
-2.50822e-14
-2.54936e-14
-2.57862e-14
-2.59265e-14
-2.66609e-14
-2.68117e-14
-2.7209e-14
-2.77419e-14
-2.82219e-14
-2.81677e-14
-2.79964e-14
-2.79646e-14
-2.82963e-14
-2.85008e-14
-2.85935e-14
-2.89936e-14
-2.9299e-14
-2.91869e-14
-2.9098e-14
-2.92452e-14
-2.96241e-14
-2.95889e-14
-2.95308e-14
-2.95697e-14
-2.96085e-14
-2.97071e-14
-2.96181e-14
-2.9418e-14
-2.92348e-14
-2.87698e-14
-2.84686e-14
-2.82562e-14
-2.84019e-14
-2.83185e-14
-2.80061e-14
-2.78345e-14
-2.75756e-14
-2.74746e-14
-2.74684e-14
-2.76005e-14
-2.76177e-14
-2.75039e-14
-2.71373e-14
-2.71447e-14
-2.74033e-14
-2.73523e-14
-2.71523e-14
-2.66354e-14
-2.68309e-14
-2.69055e-14
-2.67581e-14
-2.62474e-14
-2.58683e-14
-2.60404e-14
-2.66736e-14
-2.71479e-14
-2.68006e-14
-2.65333e-14
-2.63284e-14
-2.61217e-14
-2.57274e-14
-2.56967e-14
-2.56317e-14
-2.61737e-14
-2.6297e-14
-2.59445e-14
-2.6206e-14
-2.62831e-14
-2.64082e-14
-2.65872e-14
-2.72806e-14
-2.77478e-14
-2.78695e-14
-2.79391e-14
-2.82714e-14
-2.83962e-14
-2.82798e-14
-2.84619e-14
-2.81266e-14
-2.84328e-14
-2.87713e-14
-2.88009e-14
-2.85855e-14
-2.8828e-14
-2.95481e-14
-2.94102e-14
-2.9109e-14
-2.97643e-14
-2.9678e-14
-3.01323e-14
-3.09699e-14
-3.1493e-14
-3.22117e-14
-3.29184e-14
-3.32028e-14
-3.41922e-14
-3.52772e-14
-3.56166e-14
-3.59855e-14
-3.70617e-14
-3.78539e-14
-3.87407e-14
-3.92009e-14
-3.97328e-14
-4.05564e-14
-4.16744e-14
-4.21944e-14
-4.26527e-14
-4.29533e-14
-4.40606e-14
-4.54963e-14
-4.59907e-14
-4.62366e-14
-4.65897e-14
-4.71595e-14
-4.7741e-14
-4.80214e-14
-4.80746e-14
-4.8072e-14
-4.89349e-14
-4.92929e-14
-4.938e-14
-4.93287e-14
-4.99991e-14
-5.05385e-14
-5.10517e-14
-5.12778e-14
-5.17705e-14
-5.18416e-14
-5.25279e-14
-5.34492e-14
-5.36695e-14
-5.40167e-14
-5.43351e-14
-5.46334e-14
-5.48492e-14
-5.5704e-14
-5.65274e-14
-5.70635e-14
-5.794e-14
-5.86873e-14
-5.95558e-14
-6.03053e-14
-6.10137e-14
-6.16438e-14
-6.25139e-14
-6.36596e-14
-6.44023e-14
-6.44444e-14
-6.46838e-14
-6.53002e-14
-6.56528e-14
-6.59723e-14
-6.67899e-14
-6.81957e-14
-6.87227e-14
-6.9331e-14
-6.949e-14
-7.02413e-14
-7.11285e-14
-7.15979e-14
-7.2758e-14
-7.31321e-14
-7.40704e-14
-7.50901e-14
-7.59064e-14
-7.67554e-14
-7.72864e-14
-7.75177e-14
-7.86274e-14
-7.91803e-14
-7.94325e-14
-7.95676e-14
-8.01104e-14
-8.05678e-14
-8.08825e-14
-8.15748e-14
-8.19901e-14
-8.25055e-14
-8.28119e-14
-8.30978e-14
-8.39106e-14
-8.38285e-14
-8.40186e-14
-8.42696e-14
-8.42745e-14
-8.41462e-14
-8.43403e-14
-8.49705e-14
-8.52289e-14
-8.53118e-14
-8.52578e-14
-8.53767e-14
-8.57821e-14
-8.6354e-14
-8.62953e-14
-8.68241e-14
-8.67242e-14
-8.66143e-14
-8.65449e-14
-8.6347e-14
-8.58434e-14
-8.5452e-14
-8.55923e-14
-8.59647e-14
-8.5503e-14
-8.48515e-14
-8.47205e-14
-8.45286e-14
-8.42084e-14
-8.39065e-14
-8.34646e-14
-8.33482e-14
-8.37953e-14
-8.28438e-14
-8.16595e-14
-8.15644e-14
-8.16887e-14
-8.16484e-14
-8.15146e-14
-8.08689e-14
-8.0283e-14
-7.92715e-14
-7.88178e-14
-7.90441e-14
-7.88825e-14
-7.80744e-14
-7.7915e-14
-7.72189e-14
-7.64744e-14
-7.61591e-14
-7.56269e-14
-7.50307e-14
-7.46058e-14
-7.43242e-14
-7.37898e-14
-7.30418e-14
-7.21516e-14
-7.12552e-14
-7.04659e-14
-6.98903e-14
-6.9249e-14
-6.87781e-14
-6.76162e-14
-6.6782e-14
-6.62044e-14
-6.54215e-14
-6.45684e-14
-6.43308e-14
-6.39208e-14
-6.33962e-14
-6.27412e-14
-6.22481e-14
-6.1195e-14
-6.05591e-14
-6.01461e-14
-5.92319e-14
-5.83927e-14
-5.76247e-14
-5.71103e-14
-5.64672e-14
-5.57764e-14
-5.52524e-14
-5.46451e-14
-5.38053e-14
-5.32277e-14
-5.20638e-14
-5.11002e-14
-4.98836e-14
-4.90505e-14
-4.87766e-14
-4.69473e-14
-4.62927e-14
-4.58461e-14
-4.51686e-14
-4.40712e-14
-4.32952e-14
-4.31008e-14
-4.24866e-14
-4.18874e-14
-4.13452e-14
-4.05319e-14
-4.02023e-14
-3.96267e-14
-3.86462e-14
-3.74089e-14
-3.6495e-14
-3.58637e-14
-3.51419e-14
-3.43336e-14
-3.35622e-14
-3.27238e-14
-3.20062e-14
-3.15507e-14
-3.067e-14
-2.96154e-14
-2.88224e-14
-2.78477e-14
-2.73399e-14
-2.70303e-14
-2.62929e-14
-2.52969e-14
-2.3648e-14
-2.22691e-14
-2.12034e-14
-1.99487e-14
-2.00665e-14
-1.97964e-14
-2.02257e-14
-2.10893e-14
-2.16814e-14
-2.19715e-14
-2.24744e-14
-2.24805e-14
-2.29847e-14
-2.30833e-14
-2.29838e-14
-2.327e-14
-2.37492e-14
-2.45559e-14
-2.49823e-14
-2.54033e-14
-2.55986e-14
-2.58944e-14
-2.67199e-14
-2.68345e-14
-2.75114e-14
-2.77659e-14
-2.82635e-14
-2.82841e-14
-2.79411e-14
-2.79077e-14
-2.83854e-14
-2.84731e-14
-2.86597e-14
-2.88729e-14
-2.90925e-14
-2.90563e-14
-2.9237e-14
-2.93131e-14
-2.9491e-14
-2.95468e-14
-2.96145e-14
-2.95709e-14
-2.96384e-14
-2.97987e-14
-2.97987e-14
-2.94547e-14
-2.93408e-14
-2.88486e-14
-2.83242e-14
-2.8155e-14
-2.84406e-14
-2.83541e-14
-2.78524e-14
-2.77739e-14
-2.75746e-14
-2.76559e-14
-2.7472e-14
-2.73759e-14
-2.75315e-14
-2.7529e-14
-2.71988e-14
-2.70992e-14
-2.75173e-14
-2.73768e-14
-2.71989e-14
-2.65285e-14
-2.69141e-14
-2.68453e-14
-2.67136e-14
-2.62932e-14
-2.57998e-14
-2.59954e-14
-2.65656e-14
-2.7085e-14
-2.67932e-14
-2.66528e-14
-2.64415e-14
-2.60195e-14
-2.56406e-14
-2.54988e-14
-2.57679e-14
-2.63394e-14
-2.62806e-14
-2.59247e-14
-2.61242e-14
-2.6257e-14
-2.63522e-14
-2.64398e-14
-2.74478e-14
-2.79173e-14
-2.7893e-14
-2.79997e-14
-2.85289e-14
-2.84043e-14
-2.83384e-14
-2.85746e-14
-2.82416e-14
-2.8506e-14
-2.87701e-14
-2.86698e-14
-2.8539e-14
-2.8711e-14
-2.95554e-14
-2.94674e-14
-2.88332e-14
-2.96527e-14
-2.96063e-14
-3.03623e-14
-3.10239e-14
-3.14132e-14
-3.19947e-14
-3.28932e-14
-3.32732e-14
-3.41234e-14
-3.52328e-14
-3.57175e-14
-3.58567e-14
-3.69749e-14
-3.78791e-14
-3.8647e-14
-3.90993e-14
-3.96531e-14
-4.02857e-14
-4.1705e-14
-4.25349e-14
-4.27271e-14
-4.2992e-14
-4.40284e-14
-4.5538e-14
-4.61487e-14
-4.65765e-14
-4.66249e-14
-4.69862e-14
-4.7674e-14
-4.81916e-14
-4.80563e-14
-4.80285e-14
-4.87202e-14
-4.94302e-14
-4.94982e-14
-4.93556e-14
-4.98257e-14
-5.06461e-14
-5.08597e-14
-5.13306e-14
-5.17798e-14
-5.19044e-14
-5.24538e-14
-5.34025e-14
-5.37495e-14
-5.39164e-14
-5.43498e-14
-5.45955e-14
-5.48674e-14
-5.55494e-14
-5.64679e-14
-5.71754e-14
-5.80005e-14
-5.88499e-14
-5.9598e-14
-6.03204e-14
-6.09301e-14
-6.17015e-14
-6.25185e-14
-6.37826e-14
-6.4593e-14
-6.43437e-14
-6.45299e-14
-6.55537e-14
-6.58623e-14
-6.60303e-14
-6.65698e-14
-6.82125e-14
-6.87822e-14
-6.95213e-14
-6.93941e-14
-7.0009e-14
-7.11805e-14
-7.17643e-14
-7.27682e-14
-7.3111e-14
-7.39085e-14
-7.50052e-14
-7.58796e-14
-7.66662e-14
-7.73183e-14
-7.74988e-14
-7.85977e-14
-7.90465e-14
-7.96676e-14
-7.97841e-14
-8.00229e-14
-8.04704e-14
-8.09031e-14
-8.16535e-14
-8.19151e-14
-8.24646e-14
-8.29443e-14
-8.31036e-14
-8.38238e-14
-8.39659e-14
-8.41894e-14
-8.42414e-14
-8.39645e-14
-8.4027e-14
-8.42333e-14
-8.5051e-14
-8.52625e-14
-8.51613e-14
-8.53916e-14
-8.52143e-14
-8.56725e-14
-8.6466e-14
-8.64882e-14
-8.70515e-14
-8.67978e-14
-8.65457e-14
-8.66012e-14
-8.63361e-14
-8.57667e-14
-8.53716e-14
-8.56877e-14
-8.61057e-14
-8.55585e-14
-8.48359e-14
-8.47624e-14
-8.44538e-14
-8.42793e-14
-8.40389e-14
-8.34876e-14
-8.32457e-14
-8.38855e-14
-8.2862e-14
-8.15815e-14
-8.16682e-14
-8.1925e-14
-8.18339e-14
-8.14138e-14
-8.08842e-14
-8.01653e-14
-7.93503e-14
-7.89825e-14
-7.89279e-14
-7.90717e-14
-7.85154e-14
-7.78775e-14
-7.69663e-14
-7.64068e-14
-7.63533e-14
-7.57246e-14
-7.48668e-14
-7.44025e-14
-7.44187e-14
-7.38922e-14
-7.29247e-14
-7.21873e-14
-7.1502e-14
-7.05712e-14
-6.96615e-14
-6.91941e-14
-6.87979e-14
-6.76275e-14
-6.68366e-14
-6.63992e-14
-6.54457e-14
-6.4317e-14
-6.42238e-14
-6.4144e-14
-6.3568e-14
-6.25381e-14
-6.20986e-14
-6.13759e-14
-6.05886e-14
-6.01924e-14
-5.91602e-14
-5.82149e-14
-5.78491e-14
-5.70156e-14
-5.62792e-14
-5.60434e-14
-5.52709e-14
-5.46929e-14
-5.3818e-14
-5.34286e-14
-5.21867e-14
-5.10747e-14
-4.98178e-14
-4.9066e-14
-4.8721e-14
-4.70457e-14
-4.59947e-14
-4.57642e-14
-4.51924e-14
-4.41939e-14
-4.34933e-14
-4.31507e-14
-4.24203e-14
-4.17358e-14
-4.12808e-14
-4.09002e-14
-4.02289e-14
-3.95519e-14
-3.8732e-14
-3.73195e-14
-3.65727e-14
-3.56354e-14
-3.51146e-14
-3.47903e-14
-3.35176e-14
-3.27371e-14
-3.20897e-14
-3.16665e-14
-3.0849e-14
-2.94447e-14
-2.89182e-14
-2.79815e-14
-2.73516e-14
-2.71619e-14
-2.65424e-14
-2.58836e-14
-2.42455e-14
-2.28252e-14
-2.2112e-14
-2.07563e-14
-2.09415e-14
-2.04396e-14
-2.07514e-14
-2.1449e-14
-2.19776e-14
-2.22536e-14
-2.25183e-14
-2.27913e-14
-2.29399e-14
-2.299e-14
-2.2991e-14
-2.34044e-14
-2.37427e-14
-2.44725e-14
-2.48179e-14
-2.51744e-14
-2.56201e-14