/*--------------------------------*- C++ -*----------------------------------*\
| =========                 |                                                 |
| \\      /  F ield         | OpenFOAM: The Open Source CFD Toolbox           |
|  \\    /   O peration     | Version:  2112                                  |
|   \\  /    A nd           | Website:  www.openfoam.com                      |
|    \\/     M anipulation  |                                                 |
\*---------------------------------------------------------------------------*/
FoamFile
{
    version     2.0;
    format      ascii;
    arch        "LSB;label=32;scalar=64";
    class       volScalarField;
    location    "5";
    object      p;
}
// * * * * * * * * * * * * * * * * * * * * * * * * * * * * * * * * * * * * * //

dimensions      [0 2 -2 0 0 0 0];

internalField   nonuniform List<scalar> 
50000
(
4.16762e-14
9.97157e-14
1.19431e-13
1.29745e-13
1.3722e-13
1.43153e-13
1.48162e-13
1.52437e-13
1.56087e-13
1.59358e-13
1.62346e-13
1.65061e-13
1.6752e-13
1.69838e-13
1.72071e-13
1.74286e-13
1.76422e-13
1.78382e-13
1.80221e-13
1.821e-13
1.83887e-13
1.85615e-13
1.87278e-13
1.88979e-13
1.90665e-13
1.92253e-13
1.9369e-13
1.95156e-13
1.96881e-13
1.98365e-13
1.9985e-13
2.01426e-13
2.02963e-13
2.0447e-13
2.06049e-13
2.07453e-13
2.08992e-13
2.10295e-13
2.1162e-13
2.13164e-13
2.14478e-13
2.15824e-13
2.17104e-13
2.1837e-13
2.19731e-13
2.20968e-13
2.2223e-13
2.23775e-13
2.25051e-13
2.26282e-13
2.27763e-13
2.29326e-13
2.30857e-13
2.32107e-13
2.33317e-13
2.348e-13
2.35929e-13
2.37335e-13
2.38914e-13
2.40132e-13
2.41515e-13
2.42831e-13
2.44179e-13
2.45436e-13
2.46911e-13
2.48268e-13
2.4976e-13
2.51179e-13
2.52484e-13
2.54107e-13
2.55596e-13
2.5693e-13
2.58289e-13
2.59951e-13
2.61459e-13
2.62658e-13
2.64271e-13
2.65883e-13
2.66987e-13
2.68076e-13
2.69498e-13
2.70921e-13
2.72212e-13
2.73624e-13
2.75056e-13
2.76238e-13
2.77781e-13
2.79426e-13
2.81015e-13
2.8261e-13
2.84045e-13
2.85651e-13
2.8729e-13
2.88871e-13
2.9056e-13
2.92423e-13
2.93682e-13
2.95095e-13
2.97139e-13
2.98894e-13
3.00325e-13
3.02168e-13
3.04222e-13
3.06091e-13
3.07857e-13
3.0977e-13
3.11513e-13
3.13116e-13
3.14603e-13
3.1616e-13
3.18115e-13
3.19885e-13
3.21178e-13
3.22307e-13
3.2392e-13
3.25666e-13
3.27003e-13
3.28111e-13
3.29581e-13
3.31219e-13
3.32619e-13
3.33658e-13
3.3481e-13
3.36379e-13
3.37904e-13
3.38961e-13
3.40325e-13
3.41863e-13
3.43053e-13
3.44319e-13
3.45497e-13
3.4663e-13
3.47645e-13
3.49242e-13
3.50494e-13
3.51231e-13
3.52416e-13
3.53684e-13
3.54503e-13
3.55682e-13
3.57274e-13
3.58234e-13
3.5877e-13
3.59637e-13
3.61093e-13
3.61975e-13
3.62518e-13
3.63986e-13
3.65118e-13
3.65678e-13
3.67003e-13
3.67839e-13
3.68434e-13
3.70008e-13
3.70809e-13
3.71434e-13
3.7258e-13
3.73095e-13
3.73664e-13
3.74163e-13
3.75104e-13
3.76091e-13
3.76873e-13
3.77718e-13
3.78758e-13
3.79689e-13
3.8042e-13
3.81668e-13
3.81847e-13
3.82578e-13
3.83898e-13
3.84084e-13
3.84544e-13
3.85724e-13
3.86358e-13
3.86803e-13
3.8735e-13
3.88439e-13
3.89214e-13
3.89421e-13
3.90382e-13
3.911e-13
3.91584e-13
3.92383e-13
3.9275e-13
3.9384e-13
3.9499e-13
3.95474e-13
3.96175e-13
3.9698e-13
3.97743e-13
3.98319e-13
3.98769e-13
3.98978e-13
3.99864e-13
4.00849e-13
4.01305e-13
4.02277e-13
4.0333e-13
4.03544e-13
4.03592e-13
4.04176e-13
4.03868e-13
4.04289e-13
4.04631e-13
4.05076e-13
4.06156e-13
4.06368e-13
4.06271e-13
4.06672e-13
4.06969e-13
4.07458e-13
4.08085e-13
4.07888e-13
4.08601e-13
4.08683e-13
4.0883e-13
4.08893e-13
4.08664e-13
4.08773e-13
4.09283e-13
4.09629e-13
4.09555e-13
4.09749e-13
4.09631e-13
4.09684e-13
4.0964e-13
4.09399e-13
4.09445e-13
4.09792e-13
4.10011e-13
4.10265e-13
4.09937e-13
4.0986e-13
4.10152e-13
4.09725e-13
4.0972e-13
4.09843e-13
4.10312e-13
4.1039e-13
4.10474e-13
4.10616e-13
4.10245e-13
4.09897e-13
4.10537e-13
4.10533e-13
4.10179e-13
4.10647e-13
4.10455e-13
4.10415e-13
4.10461e-13
4.10291e-13
4.10012e-13
4.10626e-13
4.1072e-13
4.10208e-13
4.10492e-13
4.10539e-13
4.10084e-13
4.10289e-13
4.09919e-13
4.09606e-13
4.10381e-13
4.09953e-13
4.10269e-13
4.10041e-13
4.09099e-13
4.10241e-13
4.0985e-13
4.08752e-13
4.10365e-13
4.10506e-13
4.09762e-13
4.10244e-13
4.09884e-13
4.10528e-13
4.103e-13
4.09646e-13
4.09919e-13
4.10511e-13
4.10483e-13
4.10256e-13
4.09749e-13
4.09384e-13
4.10005e-13
4.08943e-13
4.09382e-13
4.10022e-13
4.08856e-13
4.08954e-13
4.09772e-13
4.09061e-13
4.08923e-13
4.08857e-13
4.07491e-13
4.08143e-13
4.09337e-13
4.08324e-13
4.08269e-13
4.0826e-13
4.06869e-13
4.0737e-13
4.06917e-13
4.05529e-13
4.06691e-13
4.06723e-13
4.0541e-13
4.05894e-13
4.05402e-13
4.03957e-13
4.04156e-13
4.0449e-13
4.03205e-13
4.0282e-13
4.02941e-13
4.02147e-13
4.02101e-13
4.01658e-13
4.00834e-13
3.99956e-13
3.99661e-13
3.99897e-13
3.99954e-13
3.9929e-13
3.98208e-13
3.98452e-13
3.98108e-13
3.97161e-13
3.95939e-13
3.95763e-13
3.96751e-13
3.95664e-13
3.94719e-13
3.95105e-13
3.93725e-13
3.93073e-13
3.93793e-13
3.92045e-13
3.91934e-13
3.92872e-13
3.91877e-13
3.91592e-13
3.9148e-13
3.9064e-13
3.90045e-13
3.90363e-13
3.90598e-13
3.90664e-13
3.9002e-13
3.89121e-13
3.89282e-13
3.89123e-13
3.88018e-13
3.87133e-13
3.87297e-13
3.87445e-13
3.87516e-13
3.86629e-13
3.85296e-13
3.84947e-13
3.84012e-13
3.84142e-13
3.82919e-13
3.81443e-13
3.82055e-13
3.81188e-13
3.80022e-13
3.79084e-13
3.7794e-13
3.76097e-13
3.75908e-13
3.759e-13
3.74693e-13
3.73401e-13
3.71955e-13
3.71392e-13
3.70125e-13
3.69403e-13
3.67644e-13
3.66935e-13
3.66676e-13
3.65492e-13
3.64038e-13
3.63021e-13
3.62267e-13
3.60636e-13
3.60686e-13
3.59128e-13
3.58021e-13
3.5775e-13
3.56676e-13
3.55092e-13
3.54366e-13
3.53678e-13
3.51246e-13
3.50496e-13
3.50694e-13
3.49663e-13
3.48148e-13
3.466e-13
3.44737e-13
3.43301e-13
3.44061e-13
3.42889e-13
3.40986e-13
3.38638e-13
3.37716e-13
3.38256e-13
3.35902e-13
3.33391e-13
3.32207e-13
3.32479e-13
3.30257e-13
3.2867e-13
3.27949e-13
3.26568e-13
3.25938e-13
3.24017e-13
3.22039e-13
3.21253e-13
3.21286e-13
3.1928e-13
3.16309e-13
3.16329e-13
3.15313e-13
3.13197e-13
3.11544e-13
3.10172e-13
3.08673e-13
3.07788e-13
3.05882e-13
3.02845e-13
3.02589e-13
3.021e-13
2.99211e-13
2.96142e-13
2.9624e-13
2.94893e-13
2.93428e-13
2.92078e-13
2.88946e-13
2.88744e-13
2.8686e-13
2.84423e-13
2.81664e-13
2.80019e-13
2.78711e-13
2.7626e-13
2.74633e-13
2.71923e-13
2.70642e-13
2.68684e-13
2.67222e-13
2.64627e-13
2.62869e-13
2.61172e-13
2.58367e-13
2.56416e-13
2.54762e-13
2.54223e-13
2.50413e-13
2.48372e-13
2.46425e-13
2.44722e-13
2.44234e-13
2.40668e-13
2.37994e-13
2.36652e-13
2.35048e-13
2.32063e-13
2.30147e-13
2.2769e-13
2.25295e-13
2.23395e-13
2.20016e-13
2.177e-13
2.1531e-13
2.13592e-13
2.10063e-13
2.06745e-13
2.0413e-13
2.01788e-13
1.99084e-13
1.95074e-13
1.93168e-13
1.89355e-13
1.86016e-13
1.82624e-13
1.78265e-13
1.75938e-13
1.72347e-13
1.66957e-13
1.62261e-13
1.58681e-13
1.52911e-13
1.46971e-13
1.39798e-13
1.31107e-13
1.20887e-13
1.00312e-13
7.97772e-14
1.05505e-13
1.20538e-13
1.30195e-13
1.37477e-13
1.43305e-13
1.48282e-13
1.52535e-13
1.56174e-13
1.59419e-13
1.62378e-13
1.65087e-13
1.67531e-13
1.69844e-13
1.72088e-13
1.74303e-13
1.76427e-13
1.784e-13
1.80238e-13
1.82132e-13
1.83886e-13
1.85594e-13
1.8729e-13
1.88982e-13
1.90678e-13
1.9226e-13
1.93716e-13
1.95136e-13
1.96862e-13
1.9837e-13
1.99868e-13
2.01375e-13
2.0295e-13
2.04526e-13
2.0601e-13
2.07429e-13
2.09007e-13
2.1028e-13
2.11619e-13
2.1314e-13
2.14518e-13
2.15783e-13
2.17123e-13
2.18427e-13
2.19713e-13
2.2099e-13
2.22257e-13
2.2376e-13
2.25047e-13
2.26291e-13
2.27782e-13
2.29376e-13
2.30822e-13
2.32071e-13
2.33356e-13
2.34812e-13
2.35922e-13
2.37291e-13
2.38881e-13
2.40162e-13
2.41546e-13
2.42785e-13
2.44186e-13
2.45448e-13
2.4682e-13
2.48314e-13
2.49762e-13
2.51173e-13
2.52543e-13
2.54066e-13
2.55551e-13
2.56974e-13
2.58369e-13
2.59918e-13
2.61417e-13
2.62754e-13
2.64273e-13
2.65808e-13
2.67017e-13
2.68126e-13
2.69469e-13
2.70916e-13
2.72265e-13
2.73605e-13
2.74923e-13
2.76341e-13
2.77858e-13
2.79322e-13
2.81023e-13
2.82593e-13
2.84019e-13
2.85709e-13
2.8731e-13
2.88867e-13
2.90566e-13
2.92332e-13
2.93723e-13
2.95182e-13
2.97128e-13
2.98887e-13
3.00333e-13
3.02212e-13
3.04202e-13
3.06105e-13
3.07919e-13
3.0966e-13
3.11441e-13
3.13225e-13
3.14628e-13
3.16228e-13
3.18071e-13
3.1975e-13
3.21227e-13
3.22437e-13
3.2399e-13
3.25622e-13
3.26832e-13
3.28116e-13
3.29686e-13
3.31253e-13
3.32634e-13
3.33685e-13
3.34905e-13
3.36357e-13
3.37742e-13
3.39065e-13
3.40419e-13
3.41794e-13
3.43069e-13
3.4433e-13
3.45413e-13
3.46653e-13
3.47809e-13
3.49164e-13
3.5041e-13
3.51296e-13
3.52516e-13
3.53622e-13
3.54521e-13
3.55712e-13
3.57119e-13
3.58166e-13
3.58796e-13
3.59734e-13
3.61135e-13
3.62012e-13
3.62604e-13
3.63939e-13
3.65046e-13
3.65829e-13
3.66927e-13
3.67757e-13
3.68613e-13
3.69902e-13
3.70737e-13
3.71537e-13
3.72415e-13
3.73073e-13
3.73756e-13
3.74251e-13
3.75073e-13
3.76047e-13
3.76791e-13
3.77741e-13
3.78769e-13
3.79704e-13
3.80478e-13
3.81443e-13
3.81986e-13
3.82723e-13
3.83649e-13
3.84294e-13
3.84707e-13
3.85439e-13
3.86383e-13
3.86868e-13
3.87395e-13
3.88516e-13
3.8921e-13
3.89428e-13
3.90316e-13
3.91028e-13
3.91554e-13
3.92362e-13
3.92916e-13
3.9385e-13
3.94832e-13
3.9557e-13
3.96145e-13
3.96974e-13
3.97699e-13
3.98237e-13
3.98649e-13
3.99068e-13
4.00038e-13
4.00807e-13
4.01321e-13
4.02436e-13
4.03146e-13
4.03333e-13
4.03734e-13
4.04144e-13
4.03988e-13
4.04432e-13
4.04627e-13
4.04985e-13
4.06082e-13
4.06445e-13
4.06336e-13
4.06606e-13
4.07026e-13
4.07363e-13
4.07939e-13
4.08097e-13
4.08559e-13
4.08577e-13
4.08878e-13
4.08896e-13
4.08686e-13
4.08973e-13
4.09295e-13
4.09455e-13
4.0943e-13
4.09651e-13
4.09706e-13
4.09731e-13
4.09769e-13
4.09509e-13
4.09481e-13
4.09861e-13
4.09884e-13
4.09999e-13
4.10047e-13
4.09876e-13
4.10043e-13
4.09872e-13
4.09763e-13
4.10003e-13
4.1015e-13
4.10359e-13
4.10446e-13
4.1046e-13
4.10446e-13
4.10057e-13
4.10391e-13
4.10536e-13
4.10318e-13
4.10508e-13
4.10389e-13
4.10204e-13
4.10467e-13
4.1043e-13
4.10319e-13
4.10583e-13
4.1063e-13
4.10361e-13
4.10291e-13
4.10348e-13
4.10213e-13
4.10327e-13
4.09961e-13
4.09762e-13
4.10118e-13
4.10043e-13
4.10254e-13
4.10071e-13
4.09217e-13
4.09904e-13
4.09879e-13
4.09208e-13
4.10086e-13
4.10342e-13
4.09853e-13
4.10158e-13
4.10172e-13
4.10196e-13
4.10283e-13
4.10046e-13
4.1003e-13
4.10222e-13
4.10333e-13
4.1031e-13
4.09763e-13
4.0938e-13
4.09924e-13
4.09233e-13
4.09205e-13
4.09901e-13
4.08993e-13
4.09122e-13
4.0967e-13
4.09044e-13
4.08899e-13
4.0875e-13
4.07833e-13
4.08285e-13
4.08865e-13
4.08291e-13
4.0835e-13
4.08095e-13
4.07218e-13
4.07091e-13
4.06963e-13
4.06004e-13
4.06414e-13
4.06544e-13
4.05718e-13
4.05635e-13
4.0517e-13
4.04356e-13
4.04184e-13
4.0418e-13
4.03343e-13
4.02805e-13
4.02774e-13
4.02417e-13
4.01956e-13
4.01441e-13
4.01e-13
4.00187e-13
3.99686e-13
3.99877e-13
3.99643e-13
3.99037e-13
3.98586e-13
3.98453e-13
3.97916e-13
3.97161e-13
3.9632e-13
3.95899e-13
3.9629e-13
3.95706e-13
3.94896e-13
3.9477e-13
3.94011e-13
3.93357e-13
3.93219e-13
3.92457e-13
3.92153e-13
3.92287e-13
3.91976e-13
3.91818e-13
3.91059e-13
3.90756e-13
3.9059e-13
3.90268e-13
3.90461e-13
3.90492e-13
3.89746e-13
3.89273e-13
3.8952e-13
3.88718e-13
3.8812e-13
3.87679e-13
3.87206e-13
3.87303e-13
3.87278e-13
3.86443e-13
3.85635e-13
3.84949e-13
3.83941e-13
3.84088e-13
3.83006e-13
3.81728e-13
3.81738e-13
3.81152e-13
3.80066e-13
3.79016e-13
3.77948e-13
3.76507e-13
3.76121e-13
3.75623e-13
3.74384e-13
3.73326e-13
3.72289e-13
3.71385e-13
3.70156e-13
3.69178e-13
3.67861e-13
3.67221e-13
3.6652e-13
3.65256e-13
3.64007e-13
3.63116e-13
3.62318e-13
3.60581e-13
3.60421e-13
3.59645e-13
3.58027e-13
3.57406e-13
3.56836e-13
3.55282e-13
3.54141e-13
3.5349e-13
3.51472e-13
3.50904e-13
3.50686e-13
3.49098e-13
3.47851e-13
3.46771e-13
3.45064e-13
3.43649e-13
3.43707e-13
3.42484e-13
3.41191e-13
3.39212e-13
3.37545e-13
3.37759e-13
3.36209e-13
3.33636e-13
3.32163e-13
3.32149e-13
3.30281e-13
3.28832e-13
3.27985e-13
3.26719e-13
3.25735e-13
3.23863e-13
3.22422e-13
3.21422e-13
3.20772e-13
3.19146e-13
3.16916e-13
3.1605e-13
3.14983e-13
3.13524e-13
3.11567e-13
3.10239e-13
3.08831e-13
3.07594e-13
3.05772e-13
3.03281e-13
3.02269e-13
3.01795e-13
2.99556e-13
2.96461e-13
2.95987e-13
2.94852e-13
2.9337e-13
2.91808e-13
2.89538e-13
2.88526e-13
2.86804e-13
2.84245e-13
2.81791e-13
2.80176e-13
2.7847e-13
2.7634e-13
2.74489e-13
2.72092e-13
2.70776e-13
2.68951e-13
2.66795e-13
2.64744e-13
2.63051e-13
2.60944e-13
2.58521e-13
2.56582e-13
2.54711e-13
2.53821e-13
2.50812e-13
2.4816e-13
2.46642e-13
2.45123e-13
2.43437e-13
2.40588e-13
2.38678e-13
2.36715e-13
2.34399e-13
2.32302e-13
2.30208e-13
2.27702e-13
2.25248e-13
2.23128e-13
2.20317e-13
2.17819e-13
2.15632e-13
2.13276e-13
2.09685e-13
2.07124e-13
2.0455e-13
2.01431e-13
1.9878e-13
1.95701e-13
1.9299e-13
1.89315e-13
1.85999e-13
1.82407e-13
1.78968e-13
1.76005e-13
1.71705e-13
1.67002e-13
1.63018e-13
1.58544e-13
1.53003e-13
1.47129e-13
1.40122e-13
1.319e-13
1.2172e-13
1.06024e-13
9.8402e-14
1.11671e-13
1.23095e-13
1.31409e-13
1.38187e-13
1.43767e-13
1.48637e-13
1.52777e-13
1.56399e-13
1.59567e-13
1.62451e-13
1.65162e-13
1.67575e-13
1.69912e-13
1.72146e-13
1.74368e-13
1.76489e-13
1.78429e-13
1.80249e-13
1.82211e-13
1.83885e-13
1.85604e-13
1.8735e-13
1.8898e-13
1.90694e-13
1.92256e-13
1.93765e-13
1.95119e-13
1.96876e-13
1.98369e-13
1.99837e-13
2.01376e-13
2.02977e-13
2.04565e-13
2.05951e-13
2.0745e-13
2.09016e-13
2.10248e-13
2.11642e-13
2.1311e-13
2.14567e-13
2.15805e-13
2.17095e-13
2.18434e-13
2.19754e-13
2.21035e-13
2.22294e-13
2.23727e-13
2.25076e-13
2.26344e-13
2.27755e-13
2.29382e-13
2.30818e-13
2.32082e-13
2.33418e-13
2.34815e-13
2.35913e-13
2.37264e-13
2.38843e-13
2.40184e-13
2.41566e-13
2.42731e-13
2.44174e-13
2.45472e-13
2.46838e-13
2.48283e-13
2.49749e-13
2.51182e-13
2.52565e-13
2.541e-13
2.55537e-13
2.57016e-13
2.58435e-13
2.59903e-13
2.61371e-13
2.62786e-13
2.64294e-13
2.65747e-13
2.67058e-13
2.68181e-13
2.69462e-13
2.70963e-13
2.72283e-13
2.73577e-13
2.74833e-13
2.76338e-13
2.7785e-13
2.79306e-13
2.81072e-13
2.82554e-13
2.84008e-13
2.85748e-13
2.87392e-13
2.88844e-13
2.90596e-13
2.92214e-13
2.93717e-13
2.95328e-13
2.97138e-13
2.98832e-13
3.00328e-13
3.02201e-13
3.04197e-13
3.06111e-13
3.07909e-13
3.09637e-13
3.11418e-13
3.13253e-13
3.1469e-13
3.16314e-13
3.18049e-13
3.19668e-13
3.21272e-13
3.2261e-13
3.24045e-13
3.25459e-13
3.26716e-13
3.28214e-13
3.29711e-13
3.31254e-13
3.32666e-13
3.33739e-13
3.34974e-13
3.36286e-13
3.37696e-13
3.39141e-13
3.40401e-13
3.41763e-13
3.43214e-13
3.44377e-13
3.45394e-13
3.46624e-13
3.4787e-13
3.49108e-13
3.5035e-13
3.51357e-13
3.52581e-13
3.53563e-13
3.54546e-13
3.55807e-13
3.56977e-13
3.58077e-13
3.58855e-13
3.59893e-13
3.61137e-13
3.6197e-13
3.62686e-13
3.63935e-13
3.64916e-13
3.65902e-13
3.669e-13
3.67779e-13
3.68752e-13
3.69886e-13
3.70665e-13
3.7159e-13
3.72378e-13
3.73047e-13
3.73749e-13
3.74285e-13
3.75043e-13
3.76012e-13
3.76848e-13
3.77738e-13
3.78747e-13
3.79733e-13
3.80494e-13
3.81351e-13
3.81979e-13
3.82827e-13
3.83636e-13
3.84317e-13
3.84779e-13
3.85414e-13
3.863e-13
3.86842e-13
3.87508e-13
3.8856e-13
3.89205e-13
3.89492e-13
3.9024e-13
3.91005e-13
3.91428e-13
3.92289e-13
3.93119e-13
3.93916e-13
3.94711e-13
3.95591e-13
3.96197e-13
3.96915e-13
3.97637e-13
3.98132e-13
3.98578e-13
3.99181e-13
4.0006e-13
4.00885e-13
4.01428e-13
4.02386e-13
4.02991e-13
4.03277e-13
4.03773e-13
4.04139e-13
4.04201e-13
4.04536e-13
4.04565e-13
4.05029e-13
4.0598e-13
4.06394e-13
4.06363e-13
4.06594e-13
4.07067e-13
4.07413e-13
4.07806e-13
4.08135e-13
4.08577e-13
4.08489e-13
4.08812e-13
4.08936e-13
4.08822e-13
4.09095e-13
4.09221e-13
4.09329e-13
4.09409e-13
4.09552e-13
4.0982e-13
4.09789e-13
4.09773e-13
4.09771e-13
4.09582e-13
4.0971e-13
4.09763e-13
4.09913e-13
4.09982e-13
4.10007e-13
4.1004e-13
4.09962e-13
4.09807e-13
4.09955e-13
4.10091e-13
4.10472e-13
4.10356e-13
4.10283e-13
4.10561e-13
4.10159e-13
4.10436e-13
4.10428e-13
4.10413e-13
4.10564e-13
4.10294e-13
4.10053e-13
4.10483e-13
4.1049e-13
4.1053e-13
4.10542e-13
4.10427e-13
4.10558e-13
4.10294e-13
4.1021e-13
4.10243e-13
4.10428e-13
4.09979e-13
4.09834e-13
4.1006e-13
4.10065e-13
4.10102e-13
4.10003e-13
4.09397e-13
4.09619e-13
4.09877e-13
4.09597e-13
4.09976e-13
4.10205e-13
4.09757e-13
4.1019e-13
4.10449e-13
4.09889e-13
4.10187e-13
4.10468e-13
4.10124e-13
4.10087e-13
4.10206e-13
4.10247e-13
4.0974e-13
4.09414e-13
4.09847e-13
4.09372e-13
4.0918e-13
4.0983e-13
4.09142e-13
4.09115e-13
4.09622e-13
4.09107e-13
4.08751e-13
4.08708e-13
4.08193e-13
4.08302e-13
4.08646e-13
4.08229e-13
4.08282e-13
4.08074e-13
4.07406e-13
4.06881e-13
4.07017e-13
4.06435e-13
4.06263e-13
4.06436e-13
4.05797e-13
4.05413e-13
4.05093e-13
4.04621e-13
4.04149e-13
4.03978e-13
4.03539e-13
4.02812e-13
4.02669e-13
4.02466e-13
4.02018e-13
4.01332e-13
4.00956e-13
4.00365e-13
3.99724e-13
3.99809e-13
3.9941e-13
3.98998e-13
3.98776e-13
3.98562e-13
3.97841e-13
3.97028e-13
3.96537e-13
3.95999e-13
3.96077e-13
3.9568e-13
3.94956e-13
3.94673e-13
3.94227e-13
3.93298e-13
3.93061e-13
3.92736e-13
3.92128e-13
3.92132e-13
3.91969e-13
3.91754e-13
3.91038e-13
3.90713e-13
3.9072e-13
3.90472e-13
3.9039e-13
3.90215e-13
3.89759e-13
3.89334e-13
3.89466e-13
3.88693e-13
3.88146e-13
3.87911e-13
3.87345e-13
3.87151e-13
3.87001e-13
3.8632e-13
3.85985e-13
3.84997e-13
3.83811e-13
3.84017e-13
3.83156e-13
3.8194e-13
3.81598e-13
3.81041e-13
3.79981e-13
3.79086e-13
3.77991e-13
3.76842e-13
3.76244e-13
3.75397e-13
3.74271e-13
3.73339e-13
3.7232e-13
3.71401e-13
3.70304e-13
3.68884e-13
3.68119e-13
3.67447e-13
3.66332e-13
3.65002e-13
3.64091e-13
3.63173e-13
3.62243e-13
3.60721e-13
3.6023e-13
3.59747e-13
3.58187e-13
3.57304e-13
3.56795e-13
3.55483e-13
3.5407e-13
3.53185e-13
3.51824e-13
3.51149e-13
3.50431e-13
3.48966e-13
3.47651e-13
3.46707e-13
3.45448e-13
3.44078e-13
3.43346e-13
3.42189e-13
3.41118e-13
3.39578e-13
3.37879e-13
3.3729e-13
3.36091e-13
3.34076e-13
3.32235e-13
3.31742e-13
3.30487e-13
3.29012e-13
3.27908e-13
3.2679e-13
3.25439e-13
3.23876e-13
3.2276e-13
3.21539e-13
3.20394e-13
3.19009e-13
3.17237e-13
3.16002e-13
3.15018e-13
3.13548e-13
3.11402e-13
3.10452e-13
3.08976e-13
3.07314e-13
3.05828e-13
3.03673e-13
3.02095e-13
3.01423e-13
2.99616e-13
2.96875e-13
2.96001e-13
2.94873e-13
2.93164e-13
2.91576e-13
2.8999e-13
2.88361e-13
2.86641e-13
2.84179e-13
2.81975e-13
2.80343e-13
2.78352e-13
2.76236e-13
2.74267e-13
2.72463e-13
2.70901e-13
2.68815e-13
2.66604e-13
2.64865e-13
2.63137e-13
2.61037e-13
2.5868e-13
2.56511e-13
2.54843e-13
2.53367e-13
2.50924e-13
2.48295e-13
2.46892e-13
2.45243e-13
2.42854e-13
2.40552e-13
2.38942e-13
2.36981e-13
2.3422e-13
2.32247e-13
2.30127e-13
2.27891e-13
2.25368e-13
2.22968e-13
2.20421e-13
2.17847e-13
2.15818e-13
2.13116e-13
2.09593e-13
2.07384e-13
2.04985e-13
2.01215e-13
1.98396e-13
1.96161e-13
1.93115e-13
1.89282e-13
1.85876e-13
1.82544e-13
1.79477e-13
1.76104e-13
1.71492e-13
1.6708e-13
1.63471e-13
1.58887e-13
1.53454e-13
1.4736e-13
1.4103e-13
1.33478e-13
1.24034e-13
1.12178e-13
1.0996e-13
1.17697e-13
1.26209e-13
1.33158e-13
1.39335e-13
1.44545e-13
1.49137e-13
1.53146e-13
1.56695e-13
1.59789e-13
1.62744e-13
1.65374e-13
1.6765e-13
1.69967e-13
1.72246e-13
1.74447e-13
1.76616e-13
1.78527e-13
1.80239e-13
1.8224e-13
1.83952e-13
1.85693e-13
1.87402e-13
1.89009e-13
1.90761e-13
1.92301e-13
1.93684e-13
1.952e-13
1.96885e-13
1.98313e-13
1.99795e-13
2.01398e-13
2.02959e-13
2.04555e-13
2.06028e-13
2.07417e-13
2.08976e-13
2.10269e-13
2.11606e-13
2.13149e-13
2.14611e-13
2.15916e-13
2.17072e-13
2.18406e-13
2.19722e-13
2.21088e-13
2.22346e-13
2.23726e-13
2.25032e-13
2.26401e-13
2.27794e-13
2.29408e-13
2.30814e-13
2.32105e-13
2.33398e-13
2.34828e-13
2.35969e-13
2.37227e-13
2.38839e-13
2.40218e-13
2.41558e-13
2.42737e-13
2.44173e-13
2.45517e-13
2.46859e-13
2.48276e-13
2.49686e-13
2.51149e-13
2.52569e-13
2.54059e-13
2.55528e-13
2.57001e-13
2.58486e-13
2.59845e-13
2.6136e-13
2.6287e-13
2.64347e-13
2.65708e-13
2.67039e-13
2.68207e-13
2.69538e-13
2.70961e-13
2.72282e-13
2.73566e-13
2.74824e-13
2.76321e-13
2.7778e-13
2.79275e-13
2.81095e-13
2.82532e-13
2.84013e-13
2.85842e-13
2.87449e-13
2.88896e-13
2.90539e-13
2.92133e-13
2.93707e-13
2.95447e-13
2.97149e-13
2.98702e-13
3.00398e-13
3.02232e-13
3.04176e-13
3.06029e-13
3.07899e-13
3.09607e-13
3.11452e-13
3.13237e-13
3.1474e-13
3.16435e-13
3.18074e-13
3.19718e-13
3.21253e-13
3.22703e-13
3.24144e-13
3.253e-13
3.26628e-13
3.28261e-13
3.29762e-13
3.31212e-13
3.32633e-13
3.33779e-13
3.35064e-13
3.36289e-13
3.37725e-13
3.39178e-13
3.40359e-13
3.41799e-13
3.43293e-13
3.44352e-13
3.45444e-13
3.4664e-13
3.47864e-13
3.49045e-13
3.50319e-13
3.51518e-13
3.52589e-13
3.53481e-13
3.5453e-13
3.55871e-13
3.57005e-13
3.57981e-13
3.58936e-13
3.59996e-13
3.61017e-13
3.61883e-13
3.62813e-13
3.6394e-13
3.64723e-13
3.65919e-13
3.66999e-13
3.67827e-13
3.6881e-13
3.69878e-13
3.70645e-13
3.71586e-13
3.72336e-13
3.72983e-13
3.73728e-13
3.74276e-13
3.74984e-13
3.76006e-13
3.76959e-13
3.77671e-13
3.78741e-13
3.79727e-13
3.80479e-13
3.81358e-13
3.82022e-13
3.82849e-13
3.83762e-13
3.84262e-13
3.84745e-13
3.85489e-13
3.86161e-13
3.86784e-13
3.87617e-13
3.88571e-13
3.89195e-13
3.89633e-13
3.90199e-13
3.90987e-13
3.91261e-13
3.92163e-13
3.93274e-13
3.93979e-13
3.94702e-13
3.95591e-13
3.9626e-13
3.96824e-13
3.97555e-13
3.98056e-13
3.98521e-13
3.99296e-13
4.00043e-13
4.01014e-13
4.01603e-13
4.02191e-13
4.03009e-13
4.03367e-13
4.03724e-13
4.04073e-13
4.04369e-13
4.04518e-13
4.04594e-13
4.05144e-13
4.05759e-13
4.06264e-13
4.06395e-13
4.06661e-13
4.07018e-13
4.07451e-13
4.07798e-13
4.08156e-13
4.08485e-13
4.08419e-13
4.08681e-13
4.09057e-13
4.09094e-13
4.09125e-13
4.09076e-13
4.09236e-13
4.09426e-13
4.09561e-13
4.09851e-13
4.09722e-13
4.09837e-13
4.09972e-13
4.09625e-13
4.09525e-13
4.09734e-13
4.10002e-13
4.09866e-13
4.10111e-13
4.10059e-13
4.09963e-13
4.09993e-13
4.09777e-13
4.10021e-13
4.1056e-13
4.10257e-13
4.10244e-13
4.1052e-13
4.10243e-13
4.1048e-13
4.10306e-13
4.10475e-13
4.1062e-13
4.10256e-13
4.10142e-13
4.10443e-13
4.10341e-13
4.1057e-13
4.10577e-13
4.10304e-13
4.10647e-13
4.1048e-13
4.10211e-13
4.10139e-13
4.10312e-13
4.10118e-13
4.09968e-13
4.10028e-13
4.10016e-13
4.09888e-13
4.09823e-13
4.09581e-13
4.09531e-13
4.09809e-13
4.09836e-13
4.09935e-13
4.10006e-13
4.09785e-13
4.10231e-13
4.10448e-13
4.09958e-13
4.10181e-13
4.10494e-13
4.10146e-13
4.10213e-13
4.10146e-13
4.10057e-13
4.09858e-13
4.09511e-13
4.09591e-13
4.09402e-13
4.09363e-13
4.09686e-13
4.09387e-13
4.09074e-13
4.0944e-13
4.09172e-13
4.08704e-13
4.08726e-13
4.08456e-13
4.0817e-13
4.08628e-13
4.08405e-13
4.08109e-13
4.0807e-13
4.07394e-13
4.06803e-13
4.07037e-13
4.06736e-13
4.06124e-13
4.06365e-13
4.05915e-13
4.05257e-13
4.05145e-13
4.04664e-13
4.04083e-13
4.03943e-13
4.03612e-13
4.02811e-13
4.02713e-13
4.0236e-13
4.01903e-13
4.01372e-13
4.00905e-13
4.00442e-13
3.99784e-13
3.99664e-13
3.99336e-13
3.99162e-13
3.98799e-13
3.9846e-13
3.97828e-13
3.97082e-13
3.96667e-13
3.96031e-13
3.95938e-13
3.9564e-13
3.94981e-13
3.94678e-13
3.94144e-13
3.93217e-13
3.93208e-13
3.92803e-13
3.92086e-13
3.92352e-13
3.9187e-13
3.91405e-13
3.91225e-13
3.90669e-13
3.907e-13
3.907e-13
3.9026e-13
3.90098e-13
3.89981e-13
3.89262e-13
3.8919e-13
3.8897e-13
3.88181e-13
3.87834e-13
3.87417e-13
3.86966e-13
3.86928e-13
3.86507e-13
3.86001e-13
3.8499e-13
3.8391e-13
3.8391e-13
3.83175e-13
3.8215e-13
3.81702e-13
3.809e-13
3.79806e-13
3.79235e-13
3.7799e-13
3.7691e-13
3.76336e-13
3.7531e-13
3.74384e-13
3.73503e-13
3.72181e-13
3.71313e-13
3.70431e-13
3.68913e-13
3.68271e-13
3.67454e-13
3.66043e-13
3.6499e-13
3.64347e-13
3.63139e-13
3.62017e-13
3.60958e-13
3.6021e-13
3.59478e-13
3.58403e-13
3.57531e-13
3.5656e-13
3.55379e-13
3.54307e-13
3.53112e-13
3.52062e-13
3.51112e-13
3.50042e-13
3.49054e-13
3.47785e-13
3.46696e-13
3.45567e-13
3.44305e-13
3.4317e-13
3.42151e-13
3.4085e-13
3.39678e-13
3.38285e-13
3.37044e-13
3.35876e-13
3.34528e-13
3.32522e-13
3.31262e-13
3.30599e-13
3.29045e-13
3.27869e-13
3.26678e-13
3.25259e-13
3.2407e-13
3.22957e-13
3.21697e-13
3.20044e-13
3.1893e-13
3.17523e-13
3.16091e-13
3.14984e-13
3.13419e-13
3.11391e-13
3.10562e-13
3.09053e-13
3.07115e-13
3.05832e-13
3.04031e-13
3.0205e-13
3.00842e-13
2.99557e-13
2.97522e-13
2.96186e-13
2.94795e-13
2.92913e-13
2.91539e-13
2.90241e-13
2.88122e-13
2.86301e-13
2.8429e-13
2.82403e-13
2.80304e-13
2.78093e-13
2.76293e-13
2.74458e-13
2.72644e-13
2.70634e-13
2.68527e-13
2.66735e-13
2.6513e-13
2.63118e-13
2.60978e-13
2.5905e-13
2.56575e-13
2.54809e-13
2.52863e-13
2.50901e-13
2.48828e-13
2.47027e-13
2.44879e-13
2.42697e-13
2.4084e-13
2.38837e-13
2.36874e-13
2.34419e-13
2.32277e-13
2.30059e-13
2.2808e-13
2.25534e-13
2.23008e-13
2.20539e-13
2.1784e-13
2.15474e-13
2.13023e-13
2.10089e-13
2.07429e-13
2.05019e-13
2.01389e-13
1.98363e-13
1.96331e-13
1.93063e-13
1.89233e-13
1.86016e-13
1.83059e-13
1.7969e-13
1.76031e-13
1.71743e-13
1.67556e-13
1.63674e-13
1.59342e-13
1.54084e-13
1.48057e-13
1.42328e-13
1.35433e-13
1.27165e-13
1.18141e-13
1.1882e-13
1.2326e-13
1.29491e-13
1.35209e-13
1.40767e-13
1.45556e-13
1.49876e-13
1.53713e-13
1.57102e-13
1.60093e-13
1.63071e-13
1.65706e-13
1.67808e-13
1.70177e-13
1.72288e-13
1.7452e-13
1.768e-13
1.78515e-13
1.80287e-13
1.82327e-13
1.84082e-13
1.85816e-13
1.87533e-13
1.89038e-13
1.90828e-13
1.9238e-13
1.9365e-13
1.95293e-13
1.96954e-13
1.98319e-13
1.99759e-13
2.01325e-13
2.02888e-13
2.04608e-13
2.06019e-13
2.0739e-13
2.08937e-13
2.10347e-13
2.11671e-13
2.1324e-13
2.14641e-13
2.15964e-13
2.17072e-13
2.18411e-13
2.19721e-13
2.21123e-13
2.22393e-13
2.23763e-13
2.24981e-13
2.2632e-13
2.27826e-13
2.29471e-13
2.30908e-13
2.32144e-13
2.33329e-13
2.34803e-13
2.36009e-13
2.37228e-13
2.38864e-13
2.40217e-13
2.41542e-13
2.428e-13
2.44181e-13
2.45539e-13
2.46827e-13
2.4827e-13
2.49686e-13
2.51086e-13
2.52543e-13
2.54071e-13
2.55425e-13
2.57005e-13
2.5862e-13
2.59832e-13
2.61282e-13
2.63043e-13
2.64429e-13
2.65656e-13
2.67125e-13
2.68279e-13
2.69567e-13
2.70891e-13
2.72274e-13
2.73609e-13
2.74869e-13
2.76288e-13
2.77707e-13
2.79248e-13
2.81101e-13
2.82593e-13
2.84064e-13
2.85855e-13
2.87443e-13
2.88945e-13
2.90443e-13
2.92138e-13
2.93798e-13
2.95565e-13
2.9716e-13
2.98561e-13
3.00405e-13
3.02262e-13
3.04188e-13
3.06025e-13
3.07879e-13
3.09595e-13
3.11393e-13
3.13241e-13
3.14832e-13
3.16557e-13
3.18088e-13
3.19843e-13
3.21255e-13
3.22734e-13
3.24121e-13
3.25269e-13
3.26656e-13
3.28295e-13
3.29837e-13
3.31147e-13
3.32572e-13
3.33735e-13
3.35189e-13
3.36275e-13
3.37785e-13
3.3912e-13
3.40366e-13
3.41914e-13
3.43322e-13
3.44361e-13
3.45428e-13
3.4673e-13
3.48004e-13
3.48925e-13
3.50217e-13
3.51655e-13
3.52607e-13
3.53526e-13
3.54541e-13
3.55782e-13
3.57047e-13
3.58016e-13
3.59017e-13
3.59965e-13
3.60869e-13
3.61853e-13
3.63017e-13
3.63764e-13
3.64568e-13
3.66024e-13
3.6703e-13
3.67876e-13
3.68896e-13
3.69871e-13
3.70612e-13
3.71515e-13
3.72301e-13
3.7287e-13
3.73674e-13
3.74384e-13
3.75054e-13
3.75956e-13
3.76862e-13
3.77692e-13
3.78816e-13
3.79732e-13
3.80413e-13
3.81257e-13
3.82142e-13
3.82988e-13
3.8388e-13
3.84292e-13
3.84613e-13
3.85444e-13
3.86105e-13
3.86756e-13
3.87564e-13
3.88429e-13
3.89317e-13
3.89814e-13
3.90233e-13
3.90961e-13
3.91207e-13
3.92075e-13
3.93239e-13
3.93982e-13
3.94808e-13
3.95526e-13
3.96228e-13
3.96783e-13
3.97424e-13
3.97999e-13
3.98548e-13
3.99352e-13
4.00086e-13
4.01123e-13
4.0174e-13
4.02133e-13
4.02994e-13
4.03477e-13
4.03643e-13
4.03981e-13
4.04419e-13
4.0451e-13
4.04692e-13
4.05247e-13
4.05571e-13
4.06113e-13
4.06521e-13
4.06707e-13
4.06952e-13
4.07412e-13
4.07769e-13
4.08304e-13
4.08335e-13
4.0835e-13
4.08647e-13
4.0918e-13
4.09312e-13
4.09227e-13
4.08912e-13
4.09181e-13
4.09425e-13
4.09605e-13
4.09811e-13
4.09658e-13
4.10009e-13
4.09988e-13
4.0966e-13
4.0946e-13
4.09705e-13
4.10131e-13
4.09886e-13
4.10064e-13
4.09898e-13
4.10031e-13
4.10161e-13
4.09643e-13
4.09873e-13
4.10574e-13
4.10282e-13
4.10314e-13
4.10379e-13
4.1036e-13
4.10406e-13
4.10348e-13
4.10389e-13
4.10513e-13
4.10361e-13
4.10296e-13
4.10355e-13
4.10254e-13
4.10533e-13
4.10633e-13
4.10263e-13
4.10574e-13
4.10646e-13
4.10254e-13
4.10136e-13
4.10056e-13
4.10337e-13
4.10153e-13
4.09837e-13
4.10142e-13
4.09803e-13
4.09589e-13
4.09672e-13
4.09585e-13
4.0968e-13
4.09959e-13
4.09741e-13
4.09809e-13
4.1006e-13
4.1017e-13
4.10204e-13
4.10317e-13
4.10327e-13
4.10318e-13
4.10121e-13
4.10405e-13
4.1002e-13
4.09897e-13
4.10047e-13
4.09625e-13
4.09279e-13
4.0941e-13
4.09672e-13
4.09366e-13
4.09612e-13
4.09175e-13
4.09083e-13
4.09203e-13
4.08901e-13
4.08668e-13
4.08672e-13
4.08011e-13
4.08569e-13
4.08761e-13
4.07955e-13
4.07957e-13
4.07456e-13
4.06878e-13
4.0695e-13
4.06967e-13
4.05946e-13
4.06138e-13
4.06163e-13
4.0517e-13
4.05158e-13
4.04845e-13
4.0397e-13
4.03829e-13
4.03689e-13
4.02718e-13
4.02851e-13
4.02388e-13
4.01566e-13
4.01239e-13
4.00968e-13
4.00755e-13
3.99849e-13
3.99479e-13
3.99369e-13
3.99239e-13
3.98843e-13
3.98246e-13
3.97728e-13
3.97287e-13
3.96974e-13
3.96042e-13
3.95722e-13
3.95691e-13
3.95026e-13
3.94498e-13
3.94098e-13
3.93353e-13
3.93149e-13
3.92813e-13
3.92159e-13
3.92516e-13
3.9183e-13
3.91166e-13
3.9125e-13
3.90769e-13
3.90781e-13
3.90523e-13
3.90236e-13
3.90301e-13
3.89946e-13
3.89143e-13
3.89039e-13
3.89148e-13
3.88324e-13
3.87774e-13
3.87266e-13
3.86989e-13
3.8698e-13
3.86576e-13
3.85804e-13
3.85157e-13
3.8413e-13
3.83793e-13
3.83218e-13
3.82275e-13
3.81767e-13
3.80986e-13
3.79635e-13
3.79247e-13
3.78175e-13
3.76823e-13
3.76339e-13
3.75351e-13
3.74471e-13
3.73623e-13
3.72301e-13
3.71112e-13
3.70448e-13
3.69239e-13
3.68281e-13
3.67241e-13
3.65898e-13
3.65079e-13
3.644e-13
3.63063e-13
3.61775e-13
3.6114e-13
3.60395e-13
3.59159e-13
3.58408e-13
3.57911e-13
3.56466e-13
3.54944e-13
3.54589e-13
3.5335e-13
3.52083e-13
3.51e-13
3.4969e-13
3.49035e-13
3.48128e-13
3.4676e-13
3.45557e-13
3.44431e-13
3.431e-13
3.42181e-13
3.4062e-13
3.39814e-13
3.38409e-13
3.36882e-13
3.35948e-13
3.34827e-13
3.32791e-13
3.30991e-13
3.30538e-13
3.28788e-13
3.2792e-13
3.26625e-13
3.25122e-13
3.24248e-13
3.2331e-13
3.21749e-13
3.19645e-13
3.18998e-13
3.17961e-13
3.16158e-13
3.14555e-13
3.13468e-13
3.11815e-13
3.10415e-13
3.09041e-13
3.07096e-13
3.05749e-13
3.04349e-13
3.0183e-13
3.00316e-13
2.99673e-13
2.9826e-13
2.96258e-13
2.94561e-13
2.92785e-13
2.91706e-13
2.90381e-13
2.87845e-13
2.85991e-13
2.84501e-13
2.82888e-13
2.80021e-13
2.77771e-13
2.76624e-13
2.74938e-13