/*--------------------------------*- C++ -*----------------------------------*\
| =========                 |                                                 |
| \\      /  F ield         | OpenFOAM: The Open Source CFD Toolbox           |
|  \\    /   O peration     | Version:  2112                                  |
|   \\  /    A nd           | Website:  www.openfoam.com                      |
|    \\/     M anipulation  |                                                 |
\*---------------------------------------------------------------------------*/
FoamFile
{
    version     2.0;
    format      ascii;
    arch        "LSB;label=32;scalar=64";
    class       volScalarField;
    location    "5";
    object      p;
}
// * * * * * * * * * * * * * * * * * * * * * * * * * * * * * * * * * * * * * //

dimensions      [0 2 -2 0 0 0 0];

internalField   nonuniform List<scalar> 
25600
(
5.91883e-14
1.05275e-13
1.03438e-13
9.88825e-14
9.56584e-14
9.41297e-14
9.39884e-14
9.41391e-14
9.56943e-14
9.73435e-14
9.88279e-14
1.00495e-13
1.0223e-13
1.05624e-13
1.10057e-13
1.12549e-13
1.16062e-13
1.20162e-13
1.24003e-13
1.27256e-13
1.30722e-13
1.35142e-13
1.4005e-13
1.44433e-13
1.48264e-13
1.50684e-13
1.52045e-13
1.55245e-13
1.57845e-13
1.59312e-13
1.59716e-13
1.60336e-13
1.62526e-13
1.63843e-13
1.64779e-13
1.66276e-13
1.67196e-13
1.69422e-13
1.70777e-13
1.71018e-13
1.72643e-13
1.73533e-13
1.74494e-13
1.76398e-13
1.76881e-13
1.78658e-13
1.79354e-13
1.79617e-13
1.79403e-13
1.79122e-13
1.78758e-13
1.76815e-13
1.76733e-13
1.75428e-13
1.73025e-13
1.72666e-13
1.70126e-13
1.68587e-13
1.66666e-13
1.65147e-13
1.65587e-13
1.61832e-13
1.60353e-13
1.58051e-13
1.54512e-13
1.54785e-13
1.52225e-13
1.50485e-13
1.47751e-13
1.44926e-13
1.43873e-13
1.41216e-13
1.38758e-13
1.35396e-13
1.31519e-13
1.31461e-13
1.28297e-13
1.22773e-13
1.20516e-13
1.16275e-13
1.1453e-13
1.11739e-13
1.04254e-13
9.85171e-14
9.39189e-14
9.07402e-14
8.76431e-14
8.25131e-14
7.57538e-14
7.0382e-14
6.98473e-14
6.69036e-14
5.99675e-14
5.35145e-14
5.03541e-14
4.69339e-14
4.0832e-14
3.67867e-14
3.17498e-14
2.89799e-14
2.84669e-14
2.25475e-14
1.86932e-14
1.26661e-14
7.90484e-15
5.51189e-15
2.63187e-15
-4.19816e-15
-1.13734e-14
-1.47856e-14
-1.79458e-14
-1.84943e-14
-2.84563e-14
-3.64484e-14
-3.78709e-14
-3.90832e-14
-4.10131e-14
-4.84756e-14
-5.54655e-14
-5.64362e-14
-5.6456e-14
-5.8801e-14
-6.63561e-14
-7.38214e-14
-7.34708e-14
-7.14373e-14
-7.24895e-14
-8.0401e-14
-8.66757e-14
-8.57323e-14
-8.53381e-14
-8.6818e-14
-9.20163e-14
-9.48515e-14
-9.31726e-14
-9.3606e-14
-9.39318e-14
-9.79149e-14
-1.02882e-13
-1.02746e-13
-1.03241e-13
-1.05274e-13
-1.10983e-13
-1.13694e-13
-1.13122e-13
-1.14886e-13
-1.15001e-13
-1.18208e-13
-1.20223e-13
-1.22586e-13
-1.25485e-13
-1.23007e-13
-1.25685e-13
-1.31531e-13
-1.34233e-13
-1.35987e-13
-1.34623e-13
-1.35847e-13
-1.40454e-13
-1.42337e-13
-1.43269e-13
-1.39709e-13
-1.43504e-13
-1.48753e-13
-1.45801e-13
-1.49751e-13
-1.49401e-13
-1.49388e-13
-1.53666e-13
-1.53298e-13
-1.53734e-13
-1.5171e-13
-1.54709e-13
-1.55695e-13
-1.52941e-13
-1.53563e-13
-1.53929e-13
-1.59275e-13
-1.56191e-13
-1.55312e-13
-1.58053e-13
-1.52444e-13
-1.57102e-13
-1.59602e-13
-1.57976e-13
-1.60694e-13
-1.54389e-13
-1.56127e-13
-1.57967e-13
-1.52053e-13
-1.53959e-13
-1.51268e-13
-1.4973e-13
-1.54362e-13
-1.49986e-13
-1.48649e-13
-1.46237e-13
-1.47651e-13
-1.51737e-13
-1.4481e-13
-1.45194e-13
-1.43003e-13
-1.4462e-13
-1.46348e-13
-1.37631e-13
-1.34722e-13
-1.35641e-13
-1.39875e-13
-1.39181e-13
-1.32739e-13
-1.29181e-13
-1.29914e-13
-1.38279e-13
-1.29635e-13
-1.21268e-13
-1.31663e-13
-1.25403e-13
-1.19465e-13
-1.17083e-13
-1.15268e-13
-1.24965e-13
-1.16489e-13
-1.06957e-13
-1.04735e-13
-1.02348e-13
-1.11356e-13
-1.01879e-13
-9.50623e-14
-9.64471e-14
-9.20431e-14
-9.68791e-14
-8.89864e-14
-8.49343e-14
-8.43662e-14
-7.63352e-14
-8.05981e-14
-7.79715e-14
-7.51872e-14
-7.1319e-14
-6.07731e-14
-6.53485e-14
-5.84539e-14
-5.63431e-14
-5.45355e-14
-4.20047e-14
-4.73838e-14
-4.74442e-14
-4.48774e-14
-3.7768e-14
-2.84293e-14
-3.5143e-14
-2.70125e-14
-2.03866e-14
-1.9636e-14
-1.57463e-14
-2.46085e-14
-1.51912e-14
-9.95838e-15
-9.00966e-15
1.28609e-16
-5.73131e-15
-2.63739e-15
-1.11024e-16
6.06835e-16
4.27195e-15
-3.10997e-15
2.20069e-15
7.46446e-15
1.03076e-14
1.54566e-14
1.05934e-14
1.54954e-14
1.96127e-14
2.34518e-14
2.89422e-14
2.39331e-14
2.71891e-14
3.00505e-14
2.84903e-14
3.43233e-14
3.06836e-14
3.27521e-14
3.77946e-14
3.96761e-14
4.48757e-14
4.07039e-14
4.03006e-14
4.61416e-14
5.17061e-14
5.28716e-14
4.69908e-14
5.11109e-14
5.62166e-14
5.7741e-14
5.63896e-14
5.16652e-14
5.60621e-14
5.8579e-14
6.11571e-14
5.89713e-14
5.30763e-14
5.64794e-14
6.04864e-14
6.72843e-14
6.77618e-14
6.24987e-14
6.36559e-14
6.34815e-14
7.01925e-14
6.79974e-14
6.67365e-14
7.06738e-14
6.65698e-14
7.27291e-14
7.63079e-14
7.42519e-14
8.01719e-14
8.21738e-14
9.36843e-14
1.02887e-13
8.97205e-14
1.04247e-13
1.01625e-13
9.80257e-14
9.52925e-14
9.3796e-14
9.37821e-14
9.41097e-14
9.58884e-14
9.74422e-14
9.8712e-14
1.00384e-13
1.02348e-13
1.05611e-13
1.09873e-13
1.12775e-13
1.16076e-13
1.203e-13
1.23864e-13
1.27251e-13
1.31008e-13
1.35324e-13
1.40044e-13
1.44202e-13
1.47899e-13
1.50889e-13
1.52672e-13
1.55189e-13
1.57224e-13
1.59029e-13
1.59874e-13
1.60659e-13
1.62584e-13
1.63788e-13
1.64829e-13
1.66342e-13
1.6725e-13
1.69033e-13
1.70557e-13
1.71568e-13
1.72313e-13
1.73751e-13
1.74327e-13
1.76055e-13
1.77608e-13
1.78491e-13
1.79335e-13
1.79417e-13
1.79187e-13
1.78803e-13
1.77925e-13
1.77382e-13
1.76882e-13
1.75538e-13
1.73467e-13
1.71914e-13
1.69799e-13
1.68414e-13
1.66681e-13
1.65578e-13
1.64906e-13
1.61996e-13
1.60336e-13
1.58089e-13
1.54932e-13
1.548e-13
1.5212e-13
1.50484e-13
1.48049e-13
1.45405e-13
1.43909e-13
1.41069e-13
1.38617e-13
1.35093e-13
1.32078e-13
1.31116e-13
1.2745e-13
1.23224e-13
1.20612e-13
1.16811e-13
1.14174e-13
1.10576e-13
1.04436e-13
9.92792e-14
9.46446e-14
9.07282e-14
8.637e-14
8.21102e-14
7.70508e-14
7.17823e-14
6.96071e-14
6.52983e-14
5.98729e-14
5.49974e-14
5.04323e-14
4.53529e-14
4.05228e-14
3.70831e-14
3.33391e-14
2.9538e-14
2.63002e-14
2.24868e-14
1.86235e-14
1.37643e-14
8.34297e-15
4.91871e-15
2.10765e-15
-3.47738e-15
-1.03353e-14
-1.49852e-14
-1.77394e-14
-2.0387e-14
-2.75792e-14
-3.44675e-14
-3.82737e-14
-4.0142e-14
-4.20402e-14
-4.76058e-14
-5.46472e-14
-5.6723e-14
-5.68728e-14
-5.98173e-14
-6.64057e-14
-7.24055e-14
-7.29919e-14
-7.21194e-14
-7.35637e-14
-8.03319e-14
-8.51135e-14
-8.55138e-14
-8.62279e-14
-8.76371e-14
-9.12479e-14
-9.42271e-14
-9.38765e-14
-9.38664e-14
-9.43349e-14
-9.79222e-14
-1.02569e-13
-1.0296e-13
-1.03301e-13
-1.05618e-13
-1.11009e-13
-1.13482e-13
-1.13181e-13
-1.14609e-13
-1.15858e-13
-1.18925e-13
-1.20178e-13
-1.21497e-13
-1.24284e-13
-1.24597e-13
-1.2755e-13
-1.30944e-13
-1.3323e-13
-1.35135e-13
-1.35172e-13
-1.36589e-13
-1.39717e-13
-1.41773e-13
-1.41926e-13
-1.40842e-13
-1.44058e-13
-1.47765e-13
-1.46813e-13
-1.48642e-13
-1.4991e-13
-1.50478e-13
-1.51953e-13
-1.52532e-13
-1.52636e-13
-1.52974e-13
-1.54809e-13
-1.55912e-13
-1.54213e-13
-1.52587e-13
-1.54289e-13
-1.57319e-13
-1.56992e-13
-1.57139e-13
-1.55881e-13
-1.53598e-13
-1.57605e-13
-1.59791e-13
-1.58908e-13
-1.58178e-13
-1.55482e-13
-1.56222e-13
-1.56991e-13
-1.54591e-13
-1.53048e-13
-1.5122e-13
-1.50533e-13
-1.52099e-13
-1.50928e-13
-1.48937e-13
-1.4764e-13
-1.47257e-13
-1.47987e-13
-1.47253e-13
-1.45998e-13
-1.44357e-13
-1.44211e-13
-1.42612e-13
-1.39445e-13
-1.37178e-13
-1.36723e-13
-1.37466e-13
-1.36457e-13
-1.34277e-13
-1.32128e-13
-1.30856e-13
-1.34209e-13
-1.2956e-13
-1.24788e-13
-1.28001e-13
-1.238e-13
-1.22439e-13
-1.1931e-13
-1.16355e-13
-1.20725e-13
-1.14719e-13
-1.09816e-13
-1.06852e-13
-1.03394e-13
-1.07327e-13
-1.01245e-13
-9.61137e-14
-9.61618e-14
-9.37718e-14
-9.52611e-14
-8.91659e-14
-8.5394e-14
-8.35773e-14
-7.80913e-14
-7.8524e-14
-7.70366e-14
-7.6395e-14
-7.17301e-14
-6.227e-14
-6.33062e-14
-5.80693e-14
-5.65546e-14
-5.3745e-14
-4.48799e-14
-4.76852e-14
-4.56995e-14
-4.30963e-14
-3.80341e-14
-3.10878e-14
-3.4207e-14
-2.68491e-14
-2.06126e-14
-1.89334e-14
-1.82132e-14
-2.35196e-14
-1.46692e-14
-9.82212e-15
-7.99934e-15
-2.13528e-15
-4.41615e-15
-1.4681e-15
-5.25812e-16
7.4242e-16
2.54454e-15
-1.78782e-15
3.95807e-15
6.76726e-15
8.91796e-15
1.42046e-14
1.1926e-14
1.64053e-14
1.91174e-14
2.30201e-14
2.8268e-14
2.45939e-14
2.79303e-14
2.8208e-14
2.93438e-14
3.45947e-14
3.05604e-14
3.39252e-14
3.6918e-14
3.93655e-14
4.39744e-14
4.03048e-14
4.25085e-14
4.71388e-14
5.00887e-14
5.13909e-14
4.82111e-14
5.24783e-14
5.60555e-14
5.52661e-14
5.6523e-14
5.41106e-14
5.53195e-14
5.93601e-14
5.86265e-14
5.86642e-14
5.60672e-14
5.61386e-14
6.1572e-14
6.56084e-14
6.58528e-14
6.22623e-14
6.42383e-14
6.6201e-14
6.9133e-14
6.77327e-14
6.63234e-14
6.96963e-14
6.88992e-14
7.13529e-14
7.483e-14
7.58353e-14
7.92213e-14
8.18625e-14
9.10947e-14
1.00272e-13
9.41413e-14
1.01226e-13
9.99226e-14
9.72971e-14
9.50843e-14
9.33947e-14
9.38187e-14
9.42409e-14
9.60175e-14
9.77653e-14
9.8824e-14
1.00426e-13
1.02028e-13
1.05629e-13
1.09749e-13
1.12687e-13
1.1617e-13
1.20325e-13
1.23954e-13
1.27368e-13
1.31217e-13
1.35253e-13
1.40181e-13
1.44001e-13
1.47845e-13
1.50794e-13
1.52865e-13
1.55276e-13
1.56932e-13
1.58841e-13
1.599e-13
1.60967e-13
1.62727e-13
1.63891e-13
1.64756e-13
1.66156e-13
1.67342e-13
1.68773e-13
1.70442e-13
1.7207e-13
1.72334e-13
1.73596e-13
1.74452e-13
1.76069e-13
1.77608e-13
1.78536e-13
1.79425e-13
1.79361e-13
1.78845e-13
1.78547e-13
1.77557e-13
1.77651e-13
1.77025e-13
1.75695e-13
1.73544e-13
1.71501e-13
1.69437e-13
1.6837e-13
1.66654e-13
1.65636e-13
1.64589e-13
1.62196e-13
1.60435e-13
1.57948e-13
1.55396e-13
1.54739e-13
1.52084e-13
1.50689e-13
1.48418e-13
1.45801e-13
1.44053e-13
1.40721e-13
1.38425e-13
1.35127e-13
1.32562e-13
1.30822e-13
1.26615e-13
1.23466e-13
1.20912e-13
1.16982e-13
1.13865e-13
1.09901e-13
1.04681e-13
9.9955e-14
9.52356e-14
9.08616e-14
8.59331e-14
8.15495e-14
7.77096e-14
7.25167e-14
6.94338e-14
6.47222e-14
6.01388e-14
5.54776e-14
5.04532e-14
4.47339e-14
4.01469e-14
3.7422e-14
3.42085e-14
2.93654e-14
2.55691e-14
2.24613e-14
1.86943e-14
1.41077e-14
8.46319e-15
4.87355e-15
1.85676e-15
-2.86158e-15
-9.89546e-15
-1.49013e-14
-1.75898e-14
-2.16749e-14
-2.69715e-14
-3.27679e-14
-3.84137e-14
-4.07659e-14
-4.29604e-14
-4.75931e-14
-5.35053e-14
-5.70461e-14
-5.76891e-14
-6.0805e-14
-6.62199e-14
-7.07458e-14
-7.22851e-14
-7.23563e-14
-7.51649e-14
-8.04572e-14
-8.39675e-14
-8.48531e-14
-8.67519e-14
-8.8829e-14
-9.07894e-14
-9.32823e-14
-9.42228e-14
-9.44058e-14
-9.47618e-14
-9.82022e-14
-1.01796e-13
-1.0261e-13
-1.03401e-13
-1.06263e-13
-1.11243e-13
-1.13428e-13
-1.13165e-13
-1.15107e-13
-1.16395e-13
-1.19094e-13
-1.2003e-13
-1.21078e-13
-1.23426e-13
-1.25504e-13
-1.29009e-13
-1.30548e-13
-1.3268e-13
-1.3426e-13
-1.35389e-13
-1.37214e-13
-1.39582e-13
-1.41186e-13
-1.40891e-13
-1.41356e-13
-1.44569e-13
-1.47183e-13
-1.47079e-13
-1.47897e-13
-1.50018e-13
-1.5105e-13
-1.50881e-13
-1.51613e-13
-1.52702e-13
-1.53225e-13
-1.55131e-13
-1.56134e-13
-1.54218e-13
-1.53339e-13
-1.54786e-13
-1.55261e-13
-1.57174e-13
-1.58162e-13
-1.55339e-13
-1.54767e-13
-1.58204e-13
-1.59879e-13
-1.59095e-13
-1.56806e-13
-1.56106e-13
-1.56929e-13
-1.56629e-13
-1.55377e-13
-1.52952e-13
-1.51381e-13
-1.50451e-13
-1.51343e-13
-1.51453e-13
-1.49116e-13
-1.47953e-13
-1.46732e-13
-1.46687e-13
-1.48542e-13
-1.46823e-13
-1.44776e-13
-1.43848e-13
-1.40964e-13
-1.39939e-13
-1.3895e-13
-1.37308e-13
-1.36401e-13
-1.35344e-13
-1.34827e-13
-1.33645e-13
-1.31422e-13
-1.31952e-13
-1.29526e-13
-1.26708e-13
-1.26107e-13
-1.23313e-13
-1.23965e-13
-1.20696e-13
-1.17368e-13
-1.17984e-13
-1.1368e-13
-1.11353e-13
-1.08223e-13
-1.03982e-13
-1.04635e-13
-1.00829e-13
-9.67117e-14
-9.64504e-14
-9.44801e-14
-9.42649e-14
-8.91546e-14
-8.52772e-14
-8.32544e-14
-7.9606e-14
-7.78945e-14
-7.65717e-14
-7.62494e-14
-7.13343e-14
-6.32567e-14
-6.27604e-14
-5.82526e-14
-5.58759e-14
-5.28684e-14
-4.72483e-14
-4.82116e-14
-4.44388e-14
-4.18942e-14
-3.85795e-14
-3.28679e-14
-3.27745e-14
-2.66229e-14
-2.15643e-14
-1.95798e-14
-1.98493e-14
-2.13381e-14
-1.43365e-14
-1.03353e-14
-7.73109e-15
-3.30018e-15
-2.3508e-15
-2.34566e-16
-1.44475e-15
8.46502e-17
1.67364e-15
-4.68993e-16
5.31187e-15
5.90067e-15
8.19693e-15
1.29552e-14
1.21403e-14
1.66944e-14
1.96815e-14
2.28971e-14
2.74804e-14
2.49652e-14
2.84316e-14
2.78467e-14
2.96703e-14
3.43649e-14
3.03843e-14
3.46382e-14
3.71786e-14
3.85935e-14
4.29798e-14
4.07005e-14
4.37651e-14
4.76474e-14
4.87613e-14
5.05792e-14
4.93913e-14
5.29956e-14
5.50577e-14
5.45907e-14
5.73505e-14
5.51495e-14
5.53021e-14
5.92162e-14
5.74641e-14
5.85055e-14
5.77199e-14
5.67287e-14
6.19548e-14
6.40617e-14
6.40831e-14
6.22571e-14
6.52809e-14
6.75798e-14
6.83068e-14
6.80594e-14
6.57247e-14
6.92828e-14
7.06949e-14
7.02842e-14
7.43143e-14
7.65389e-14
7.84305e-14
8.17349e-14
8.9077e-14
9.62659e-14
9.18822e-14
9.80415e-14
9.83904e-14
9.72905e-14
9.46912e-14
9.32037e-14
9.38461e-14
9.4377e-14
9.60683e-14
9.74469e-14
9.9177e-14
1.00221e-13
1.02028e-13
1.06038e-13
1.10043e-13
1.12556e-13
1.16276e-13
1.20011e-13
1.23895e-13
1.26943e-13
1.31863e-13
1.35381e-13
1.40494e-13
1.44212e-13
1.47647e-13
1.50787e-13
1.529e-13
1.55477e-13
1.57082e-13
1.58917e-13
1.59977e-13
1.61054e-13
1.62648e-13
1.6405e-13
1.64887e-13
1.65821e-13
1.67374e-13
1.68977e-13
1.70504e-13
1.72088e-13
1.72217e-13
1.73478e-13
1.7462e-13
1.76112e-13
1.77596e-13
1.78828e-13
1.79236e-13
1.7961e-13
1.78718e-13
1.78165e-13
1.7772e-13
1.7732e-13
1.77367e-13
1.76026e-13
1.73529e-13
1.71584e-13
1.6917e-13
1.68179e-13
1.66064e-13
1.65397e-13
1.64606e-13
1.62097e-13
1.60637e-13
1.57943e-13
1.55355e-13
1.54656e-13
1.52633e-13
1.50702e-13
1.49042e-13
1.46183e-13
1.43907e-13
1.40603e-13
1.37945e-13
1.35101e-13
1.32918e-13
1.30926e-13
1.26489e-13
1.23218e-13
1.21075e-13
1.17214e-13
1.1326e-13
1.09707e-13
1.05752e-13
9.99429e-14
9.4963e-14
9.06226e-14
8.69467e-14
8.18783e-14
7.75742e-14
7.19758e-14
6.95323e-14
6.45468e-14
6.04895e-14
5.55853e-14
5.06847e-14
4.43225e-14
4.03273e-14
3.7961e-14
3.373e-14
2.92437e-14
2.54403e-14
2.22717e-14
1.87199e-14
1.45615e-14
9.05736e-15
5.26276e-15
1.41809e-15
-3.36615e-15
-9.36037e-15
-1.43197e-14
-1.76647e-14
-2.23915e-14
-2.67678e-14
-3.23107e-14
-3.78219e-14
-4.05282e-14
-4.39282e-14
-4.82335e-14
-5.25027e-14
-5.65365e-14
-5.86588e-14
-6.2163e-14
-6.55187e-14
-6.97637e-14
-7.24821e-14
-7.19065e-14
-7.63238e-14
-8.07857e-14
-8.29976e-14
-8.46264e-14
-8.74039e-14
-8.96234e-14
-9.05304e-14
-9.23538e-14
-9.38209e-14
-9.52463e-14
-9.56962e-14
-9.84024e-14
-1.00167e-13
-1.01868e-13
-1.0432e-13
-1.07355e-13
-1.11073e-13
-1.12825e-13
-1.13156e-13
-1.15748e-13
-1.17404e-13
-1.18633e-13
-1.19459e-13
-1.20577e-13
-1.23777e-13
-1.26147e-13
-1.2847e-13
-1.30172e-13
-1.32967e-13
-1.34322e-13
-1.35985e-13
-1.37417e-13
-1.38948e-13
-1.40907e-13
-1.40284e-13
-1.42161e-13
-1.45272e-13
-1.46108e-13
-1.46066e-13
-1.47792e-13
-1.50132e-13
-1.51164e-13
-1.51205e-13
-1.51101e-13
-1.52818e-13
-1.52994e-13
-1.55475e-13
-1.55747e-13
-1.53236e-13
-1.54526e-13
-1.55152e-13
-1.55125e-13
-1.56861e-13
-1.57894e-13
-1.56448e-13
-1.55562e-13
-1.57811e-13
-1.59591e-13
-1.59427e-13
-1.56977e-13
-1.5655e-13
-1.57589e-13
-1.56913e-13
-1.54783e-13
-1.53068e-13
-1.51534e-13
-1.50571e-13
-1.51267e-13
-1.51332e-13
-1.49836e-13
-1.47444e-13
-1.4649e-13
-1.47629e-13
-1.48446e-13
-1.47257e-13
-1.45276e-13
-1.43403e-13
-1.41067e-13
-1.40137e-13
-1.39207e-13
-1.37931e-13
-1.36616e-13
-1.35615e-13
-1.34195e-13
-1.33132e-13
-1.31894e-13
-1.31008e-13
-1.3004e-13
-1.27896e-13
-1.26191e-13
-1.23883e-13
-1.23032e-13
-1.20691e-13
-1.18273e-13
-1.17508e-13
-1.13857e-13
-1.11495e-13
-1.08361e-13
-1.04202e-13
-1.03524e-13
-1.00674e-13
-9.79572e-14
-9.67839e-14
-9.35223e-14
-9.28518e-14
-8.92609e-14
-8.5298e-14
-8.39634e-14
-8.14435e-14
-7.81554e-14
-7.55847e-14
-7.45614e-14
-7.17543e-14
-6.43096e-14
-6.13975e-14
-5.87439e-14
-5.69855e-14
-5.25774e-14
-4.7797e-14
-4.74682e-14
-4.39523e-14
-4.21936e-14
-3.89973e-14
-3.36225e-14
-3.21009e-14
-2.60659e-14
-2.16326e-14
-2.06973e-14
-2.12451e-14
-1.90836e-14
-1.47245e-14
-1.09591e-14
-7.65307e-15
-3.7822e-15
-7.86973e-16
-1.99485e-16
-1.92422e-15
3.16628e-16
2.28158e-15
2.94291e-16
4.3553e-15
6.42134e-15
8.48827e-15
1.09027e-14
1.21319e-14
1.65337e-14
2.06426e-14
2.38543e-14
2.55918e-14
2.61353e-14
2.85422e-14
2.81193e-14
3.04834e-14
3.18757e-14
3.17365e-14
3.46753e-14
3.72325e-14
3.9058e-14
4.08793e-14
4.21607e-14
4.42473e-14
4.64365e-14
4.82198e-14
4.99281e-14
5.16121e-14
5.35794e-14
5.3337e-14
5.40396e-14
5.74915e-14
5.69047e-14
5.58291e-14
5.77759e-14
5.72781e-14
5.82499e-14
5.89093e-14
5.66492e-14
6.15103e-14
6.4371e-14
6.3517e-14
6.39906e-14
6.52165e-14
6.65868e-14
6.82738e-14
6.8074e-14
6.66179e-14
6.95943e-14
7.0894e-14
7.0827e-14
7.35061e-14
7.54644e-14
7.81783e-14
8.24881e-14
8.80608e-14
9.22845e-14
9.16689e-14
9.59189e-14
9.70101e-14
9.71321e-14
9.45159e-14
9.32243e-14
9.41979e-14
9.47459e-14
9.60142e-14
9.74207e-14
9.97247e-14
9.99583e-14
1.01644e-13
1.06376e-13
1.10639e-13
1.12635e-13
1.15633e-13
1.1993e-13
1.2357e-13
1.273e-13
1.31647e-13
1.35417e-13
1.41094e-13
1.44818e-13
1.4768e-13
1.5092e-13
1.53159e-13
1.55963e-13
1.57117e-13
1.58665e-13
1.59883e-13
1.61111e-13
1.62739e-13
1.63469e-13
1.6505e-13
1.66158e-13
1.67454e-13
1.68649e-13
1.70517e-13
1.72413e-13
1.72502e-13
1.73402e-13
1.74194e-13
1.76118e-13
1.77926e-13
1.78515e-13
1.79298e-13
1.79733e-13
1.78463e-13
1.78326e-13
1.77567e-13
1.77542e-13
1.77945e-13
1.75843e-13
1.73548e-13
1.71481e-13
1.69283e-13
1.68405e-13
1.65711e-13
1.65218e-13
1.63953e-13
1.62082e-13
1.60862e-13
1.58225e-13
1.55471e-13
1.5432e-13
1.53296e-13
1.51268e-13
1.49543e-13
1.46416e-13
1.43605e-13
1.40585e-13
1.37723e-13
1.34942e-13
1.33093e-13
1.30826e-13
1.26952e-13
1.23062e-13
1.21017e-13
1.17655e-13
1.12865e-13
1.09622e-13
1.06145e-13
1.00149e-13
9.49779e-14
9.07643e-14
8.72422e-14
8.27904e-14
7.7332e-14
7.16515e-14
6.9658e-14
6.51081e-14
6.02943e-14
5.59014e-14
5.08931e-14
4.39618e-14
4.01598e-14
3.80802e-14
3.40675e-14
2.91865e-14
2.50669e-14
2.2241e-14
1.92368e-14
1.48542e-14
1.02138e-14
5.42754e-15
1.08206e-15
-3.66341e-15
-9.2899e-15
-1.37378e-14
-1.83141e-14
-2.28647e-14
-2.65375e-14
-3.16076e-14
-3.77178e-14
-4.07175e-14
-4.47503e-14
-4.81225e-14
-5.15543e-14
-5.60374e-14
-5.98528e-14
-6.22175e-14
-6.517e-14
-6.92144e-14
-7.24734e-14
-7.26434e-14
-7.69442e-14
-8.06717e-14
-8.22602e-14
-8.5754e-14
-8.81227e-14
-8.85384e-14
-9.0737e-14
-9.23494e-14
-9.36781e-14
-9.53999e-14
-9.62899e-14
-9.86239e-14
-9.94121e-14
-1.00938e-13
-1.04701e-13
-1.08306e-13
-1.10652e-13
-1.12154e-13
-1.13446e-13
-1.16299e-13
-1.18465e-13
-1.178e-13
-1.18749e-13
-1.19967e-13
-1.24347e-13
-1.26898e-13
-1.2812e-13
-1.29039e-13
-1.32933e-13
-1.3525e-13
-1.36779e-13
-1.37585e-13
-1.38215e-13
-1.40059e-13
-1.39514e-13
-1.42632e-13
-1.45091e-13
-1.457e-13
-1.46137e-13
-1.47018e-13
-1.50529e-13
-1.51398e-13
-1.51444e-13
-1.50722e-13
-1.52738e-13
-1.53432e-13
-1.55829e-13
-1.54337e-13
-1.52782e-13
-1.55214e-13
-1.55408e-13
-1.56166e-13
-1.57515e-13
-1.56892e-13
-1.569e-13
-1.56602e-13
-1.57154e-13
-1.59505e-13
-1.60258e-13
-1.57772e-13
-1.56433e-13
-1.58011e-13
-1.57205e-13
-1.54539e-13
-1.53154e-13
-1.518e-13
-1.51392e-13
-1.51546e-13
-1.50899e-13
-1.51068e-13
-1.46902e-13
-1.45811e-13
-1.48968e-13
-1.48366e-13
-1.47284e-13
-1.45717e-13
-1.43214e-13
-1.41004e-13
-1.40362e-13
-1.39608e-13
-1.38838e-13
-1.37141e-13
-1.35792e-13
-1.3421e-13
-1.32332e-13
-1.31859e-13
-1.30665e-13
-1.30263e-13
-1.28277e-13
-1.2669e-13
-1.24555e-13
-1.22518e-13
-1.20555e-13
-1.19064e-13
-1.1753e-13
-1.13531e-13
-1.10672e-13
-1.0887e-13
-1.05121e-13
-1.02511e-13
-1.00546e-13
-9.9006e-14
-9.63475e-14
-9.29972e-14
-9.24369e-14
-8.93736e-14
-8.56425e-14
-8.5254e-14
-8.26582e-14
-7.86283e-14
-7.4719e-14
-7.28857e-14
-7.18324e-14
-6.57064e-14
-6.11621e-14
-5.86774e-14
-5.71264e-14
-5.22828e-14
-4.84377e-14
-4.63986e-14
-4.39234e-14
-4.27262e-14
-3.88812e-14
-3.44982e-14
-3.19787e-14
-2.56899e-14
-2.21635e-14
-2.09717e-14
-2.12522e-14
-1.74889e-14
-1.50526e-14
-1.15221e-14
-6.56605e-15
-4.33873e-15
-1.38302e-15
-7.23628e-16
-7.72718e-16
8.38139e-16
2.02101e-15
5.34459e-16
3.36449e-15
7.53914e-15
8.3375e-15
8.85868e-15
1.29436e-14
1.66712e-14
2.16873e-14
2.41066e-14
2.402e-14
2.80301e-14
2.82725e-14
2.84253e-14
3.13158e-14
2.97778e-14
3.25414e-14
3.48433e-14
3.76971e-14
3.95498e-14
3.86396e-14
4.35243e-14
4.46913e-14
4.556e-14
4.75006e-14
4.95078e-14
5.35278e-14
5.33429e-14
5.27534e-14
5.4377e-14
5.66416e-14
5.83574e-14
5.64934e-14
5.66388e-14
5.68639e-14
5.84178e-14
5.98492e-14
5.61756e-14
6.0905e-14
6.5211e-14
6.30721e-14
6.57937e-14
6.55158e-14
6.61462e-14
6.79388e-14
6.77746e-14
6.9116e-14
6.91652e-14
7.03184e-14
7.23883e-14
7.23893e-14
7.52289e-14
7.82347e-14
8.2029e-14
8.79533e-14
9.03814e-14
9.11757e-14
9.38071e-14
9.57716e-14
9.74362e-14
9.43117e-14
9.33363e-14
9.4615e-14
9.563e-14
9.55283e-14
9.72931e-14
1.00031e-13
1.00166e-13
1.0181e-13
1.06025e-13
1.1069e-13
1.12742e-13
1.15736e-13
1.20088e-13
1.23485e-13
1.27509e-13
1.31688e-13
1.35188e-13
1.41182e-13
1.44791e-13
1.47917e-13
1.51493e-13
1.53606e-13
1.56264e-13
1.57443e-13
1.57862e-13
1.59247e-13
1.61668e-13
1.63183e-13
1.63343e-13
1.65651e-13
1.66405e-13
1.67299e-13
1.68613e-13
1.70325e-13
1.72658e-13
1.72309e-13
1.73294e-13
1.74531e-13
1.76125e-13
1.77623e-13
1.78085e-13
1.79137e-13
1.80551e-13
1.78582e-13
1.78613e-13
1.77736e-13
1.77295e-13
1.78005e-13
1.75713e-13
1.73595e-13
1.72022e-13
1.69445e-13
1.68972e-13
1.66242e-13
1.6457e-13
1.63144e-13
1.62232e-13
1.61222e-13
1.58315e-13
1.55877e-13
1.54087e-13
1.53335e-13
1.52161e-13
1.49605e-13
1.46574e-13
1.43701e-13
1.40583e-13
1.37942e-13
1.35173e-13
1.33244e-13
1.30581e-13
1.26953e-13
1.23417e-13
1.21778e-13
1.17438e-13
1.12574e-13
1.09524e-13
1.06458e-13
1.00567e-13
9.51314e-14
9.12141e-14
8.7242e-14
8.25873e-14
7.7036e-14
7.24417e-14
6.95685e-14
6.50743e-14
6.05859e-14
5.63553e-14
5.08446e-14
4.45224e-14
4.00646e-14
3.76228e-14
3.40084e-14
2.93737e-14
2.5577e-14
2.22138e-14
1.90304e-14
1.47793e-14
1.07768e-14
6.49941e-15
1.10769e-15
-3.96505e-15
-9.67177e-15
-1.4473e-14
-1.80454e-14
-2.27022e-14
-2.65346e-14
-3.1027e-14
-3.76746e-14
-4.15414e-14
-4.46752e-14
-4.76699e-14
-5.1169e-14
-5.60423e-14
-6.01873e-14
-6.18002e-14
-6.53661e-14
-6.92872e-14
-7.20983e-14
-7.36335e-14
-7.77516e-14
-7.98593e-14
-8.22311e-14
-8.67412e-14
-8.81028e-14
-8.85494e-14
-8.99528e-14
-9.21045e-14
-9.40224e-14
-9.52531e-14
-9.61692e-14
-9.91576e-14
-9.93512e-14
-1.00894e-13
-1.04324e-13
-1.08495e-13
-1.10822e-13
-1.12287e-13
-1.14016e-13
-1.16446e-13
-1.17494e-13
-1.17385e-13
-1.1844e-13
-1.20589e-13
-1.23889e-13
-1.2687e-13
-1.28742e-13
-1.28732e-13
-1.32212e-13
-1.35327e-13
-1.37741e-13
-1.37838e-13
-1.37767e-13
-1.39187e-13
-1.39453e-13
-1.43059e-13
-1.44066e-13
-1.45199e-13
-1.46431e-13
-1.47606e-13
-1.50224e-13
-1.50926e-13
-1.50895e-13
-1.50557e-13
-1.53528e-13
-1.53778e-13
-1.54719e-13
-1.54232e-13
-1.53289e-13
-1.55462e-13
-1.55627e-13
-1.56463e-13
-1.57629e-13
-1.56227e-13
-1.57807e-13
-1.57704e-13
-1.5711e-13
-1.59405e-13
-1.60636e-13
-1.59064e-13
-1.56696e-13
-1.57557e-13
-1.5743e-13
-1.54918e-13
-1.54022e-13
-1.51257e-13
-1.51449e-13
-1.51861e-13
-1.51115e-13
-1.5104e-13
-1.47354e-13
-1.46955e-13
-1.48699e-13
-1.48428e-13
-1.47207e-13
-1.45239e-13
-1.43609e-13
-1.41626e-13
-1.40454e-13
-1.40588e-13
-1.3951e-13
-1.37156e-13
-1.36107e-13
-1.3375e-13
-1.33235e-13
-1.31993e-13
-1.29609e-13
-1.30323e-13
-1.28679e-13
-1.26551e-13
-1.25207e-13
-1.23603e-13
-1.20467e-13
-1.19299e-13
-1.16747e-13
-1.1328e-13
-1.10058e-13
-1.08818e-13
-1.06518e-13
-1.01866e-13
-1.00139e-13
-9.95023e-14
-9.66978e-14
-9.37011e-14
-9.15225e-14
-8.92536e-14
-8.69251e-14
-8.52036e-14
-8.2753e-14
-7.89672e-14
-7.52471e-14
-7.2576e-14
-7.08677e-14
-6.69671e-14
-6.24815e-14
-5.88616e-14
-5.56795e-14
-5.13769e-14
-4.95351e-14
-4.6711e-14
-4.32835e-14
-4.24204e-14
-3.89846e-14
-3.44973e-14
-3.04608e-14
-2.61526e-14
-2.43583e-14
-2.19504e-14
-2.01343e-14
-1.65691e-14
-1.43941e-14
-1.06672e-14
-6.1654e-15
-5.09744e-15
-1.38875e-15
-4.97951e-16
4.92726e-16
7.11136e-16
6.08812e-16
1.25472e-15
3.58372e-15
6.993e-15
8.06635e-15
8.44438e-15
1.33342e-14
1.74039e-14
2.19312e-14
2.40513e-14
2.39815e-14
2.85026e-14
2.79201e-14
2.87686e-14
3.16691e-14
2.90674e-14
3.18019e-14
3.55968e-14
3.88584e-14
3.97295e-14
3.8024e-14
4.2908e-14
4.47958e-14
4.4588e-14
4.77351e-14
5.01366e-14
5.33954e-14
5.35567e-14
5.4114e-14
5.53012e-14
5.50507e-14
5.72397e-14
5.74995e-14
5.72417e-14
5.76958e-14
5.81549e-14
5.89397e-14
5.75706e-14
6.0719e-14
6.35629e-14
6.32144e-14
6.58223e-14
6.58737e-14
6.7088e-14
6.7878e-14
6.87071e-14
6.98895e-14
6.9595e-14
7.08687e-14
7.25826e-14
7.29234e-14
7.43874e-14
7.83922e-14
8.29645e-14
8.70778e-14
9.0146e-14
9.16644e-14
9.35174e-14
9.46148e-14
9.6962e-14
9.42535e-14
9.40802e-14
9.46533e-14
9.58611e-14
9.60125e-14
9.68075e-14
9.98452e-14
1.00661e-13
1.01372e-13
1.05743e-13
1.10552e-13
1.13163e-13
1.1604e-13
1.19655e-13
1.23954e-13
1.27687e-13
1.31155e-13
1.35442e-13
1.41262e-13
1.44474e-13
1.47784e-13
1.52543e-13
1.54721e-13
1.56544e-13
1.56975e-13
1.58435e-13
1.58504e-13
1.61226e-13
1.64304e-13
1.63714e-13
1.65643e-13
1.66735e-13
1.66802e-13
1.68935e-13
1.70411e-13
1.72239e-13
1.72997e-13
1.73099e-13
1.75262e-13
1.75788e-13
1.7655e-13
1.77496e-13
1.79086e-13
1.81084e-13
1.79404e-13
1.79064e-13
1.78383e-13
1.77373e-13
1.77349e-13
1.758e-13
1.742e-13
1.72601e-13
1.69866e-13
1.68802e-13
1.66504e-13
1.64266e-13
1.62343e-13
1.63011e-13
1.61599e-13
1.57733e-13
1.56281e-13
1.54137e-13
1.52939e-13
1.52598e-13
1.50114e-13
1.47009e-13
1.44575e-13
1.40564e-13
1.3777e-13
1.35104e-13
1.33801e-13
1.30375e-13
1.26862e-13
1.23941e-13
1.21731e-13
1.17011e-13
1.13266e-13
1.09444e-13
1.06316e-13
1.0065e-13
9.55186e-14
9.18144e-14
8.80364e-14
8.18607e-14
7.67257e-14
7.387e-14
6.96958e-14
6.52002e-14
6.03354e-14
5.62222e-14
5.14298e-14
4.46082e-14
4.02714e-14
3.69381e-14
3.31504e-14
2.94413e-14
2.65975e-14
2.33141e-14
1.82737e-14
1.38682e-14
1.09307e-14
8.25974e-15
1.65173e-15
-4.03142e-15
-1.1311e-14
-1.45569e-14
-1.75944e-14
-2.30595e-14
-2.61584e-14
-3.08568e-14
-3.76535e-14
-4.17009e-14
-4.48899e-14
-4.71574e-14
-5.10483e-14
-5.59173e-14
-5.95774e-14
-6.22141e-14
-6.54808e-14
-6.90997e-14
-7.20645e-14
-7.46256e-14
-7.84018e-14
-7.98684e-14
-8.20773e-14
-8.68489e-14
-8.86763e-14
-8.86159e-14
-8.88628e-14
-9.10925e-14
-9.47387e-14
-9.53847e-14
-9.65898e-14
-9.98167e-14
-9.86095e-14
-1.013e-13
-1.04007e-13
-1.07852e-13
-1.11047e-13
-1.12455e-13
-1.14246e-13
-1.16511e-13
-1.17033e-13
-1.17362e-13
-1.17719e-13
-1.21629e-13
-1.23626e-13
-1.26704e-13
-1.28634e-13
-1.28436e-13
-1.31967e-13
-1.3502e-13
-1.37769e-13
-1.38483e-13
-1.37781e-13
-1.38315e-13
-1.39933e-13
-1.43283e-13
-1.42552e-13
-1.44131e-13
-1.46384e-13
-1.49118e-13
-1.49496e-13
-1.50231e-13
-1.51378e-13
-1.50268e-13
-1.54521e-13
-1.54376e-13
-1.52767e-13
-1.54134e-13
-1.53082e-13
-1.55744e-13
-1.56293e-13
-1.56762e-13
-1.57581e-13
-1.55282e-13
-1.57938e-13
-1.57992e-13
-1.58117e-13
-1.60552e-13
-1.60881e-13
-1.60551e-13
-1.57245e-13
-1.56871e-13
-1.57212e-13
-1.55105e-13
-1.55153e-13
-1.51028e-13
-1.511e-13
-1.518e-13
-1.51027e-13
-1.51361e-13
-1.48517e-13
-1.48038e-13
-1.49025e-13
-1.47894e-13
-1.4743e-13
-1.45106e-13
-1.44385e-13
-1.42115e-13
-1.4051e-13
-1.41624e-13
-1.39647e-13
-1.37234e-13
-1.36866e-13
-1.33549e-13
-1.34334e-13
-1.31699e-13
-1.2878e-13
-1.29938e-13
-1.28906e-13
-1.269e-13
-1.25525e-13
-1.24343e-13
-1.21617e-13
-1.18852e-13
-1.15927e-13
-1.12533e-13
-1.0924e-13
-1.09562e-13
-1.07556e-13
-1.01862e-13
-9.99487e-14
-9.97203e-14
-9.6471e-14
-9.37299e-14
-9.13438e-14
-8.97088e-14
-8.76902e-14
-8.53828e-14
-8.24322e-14
-7.90429e-14
-7.60304e-14
-7.24041e-14
-7.00551e-14
-6.76784e-14
-6.37236e-14
-5.93321e-14
-5.48497e-14
-5.01672e-14
-5.01208e-14
-4.70943e-14
-4.31662e-14
-4.22563e-14
-3.90937e-14
-3.44555e-14
-2.8725e-14
-2.62722e-14
-2.64639e-14
-2.29959e-14
-1.96025e-14
-1.54015e-14
-1.42215e-14
-9.76756e-15
-5.53882e-15
-5.39433e-15
-1.97932e-15
3.87696e-16
1.01974e-15
3.75939e-16
-1.80256e-17
1.97575e-15
3.50866e-15
5.6983e-15
7.82412e-15
8.86743e-15
1.42881e-14
1.80418e-14
2.19575e-14
2.42418e-14
2.42654e-14
2.84099e-14
2.75253e-14
2.84446e-14
3.22342e-14
2.96308e-14
3.15122e-14
3.60022e-14
3.89596e-14
4.01251e-14
3.76159e-14
4.26598e-14
4.46902e-14
4.35853e-14
4.78168e-14
5.05042e-14
5.32092e-14
5.40889e-14
5.55334e-14
5.53436e-14
5.49256e-14
5.53898e-14
5.85077e-14
5.86842e-14
5.86791e-14
5.77568e-14
5.76576e-14
5.86628e-14
6.00596e-14
6.23348e-14
6.28831e-14
6.54096e-14
6.65738e-14
6.77485e-14
6.79442e-14
7.05727e-14
6.98995e-14
7.00198e-14
7.14308e-14
7.31572e-14
7.35361e-14
7.38753e-14
7.87074e-14
8.39537e-14
8.68325e-14
8.94986e-14
9.13097e-14
9.36381e-14
9.38388e-14
9.68771e-14
9.39713e-14
9.46929e-14
9.52505e-14
9.58348e-14
9.60046e-14
9.69063e-14
9.92814e-14
1.0082e-13
1.0181e-13
1.05746e-13
1.10156e-13
1.1343e-13
1.16479e-13
1.18978e-13
1.23893e-13
1.27609e-13
1.30778e-13
1.36041e-13
1.41725e-13
1.45051e-13
1.4802e-13
1.52991e-13
1.55577e-13
1.56119e-13
1.57107e-13
1.58881e-13
1.58395e-13
1.6087e-13
1.64784e-13
1.64347e-13
1.65237e-13
1.6574e-13
1.68022e-13
1.69822e-13
1.70188e-13
1.72173e-13
1.74119e-13
1.73919e-13
1.75275e-13
1.74743e-13
1.76582e-13
1.76866e-13
1.78986e-13
1.81172e-13
1.80055e-13
1.8033e-13
1.78429e-13
1.77369e-13
1.78196e-13
1.76711e-13
1.74982e-13
1.72283e-13
1.69966e-13
1.68632e-13
1.66439e-13
1.64287e-13
1.62986e-13
1.63092e-13
1.61437e-13
1.58301e-13
1.55894e-13
1.53947e-13
1.53159e-13
1.52424e-13
1.50683e-13
1.48065e-13
1.44353e-13
1.40455e-13
1.38489e-13
1.3528e-13
1.33999e-13
1.30876e-13
1.26923e-13
1.24028e-13
1.20958e-13
1.16544e-13
1.13608e-13
1.09797e-13
1.05284e-13
1.00253e-13
9.6405e-14
9.23799e-14
8.71962e-14
8.18729e-14
7.69961e-14
7.52412e-14
7.00565e-14
6.51465e-14
6.04966e-14
5.66892e-14
5.12876e-14
4.51215e-14
4.01774e-14
3.57144e-14
3.36593e-14
2.96677e-14
2.66673e-14
2.36626e-14
1.87114e-14
1.38578e-14
1.09662e-14
8.21475e-15
2.58264e-15
-4.47244e-15
-1.15925e-14
-1.53126e-14
-1.77635e-14
-2.18619e-14
-2.58825e-14