/*--------------------------------*- C++ -*----------------------------------*\
| =========                 |                                                 |
| \\      /  F ield         | OpenFOAM: The Open Source CFD Toolbox           |
|  \\    /   O peration     | Version:  2112                                  |
|   \\  /    A nd           | Website:  www.openfoam.com                      |
|    \\/     M anipulation  |                                                 |
\*---------------------------------------------------------------------------*/
FoamFile
{
    version     2.0;
    format      ascii;
    arch        "LSB;label=32;scalar=64";
    class       surfaceScalarField;
    location    "5";
    object      phi;
}
// * * * * * * * * * * * * * * * * * * * * * * * * * * * * * * * * * * * * * //

dimensions      [0 3 -1 0 0 0 0];

oriented        oriented;

internalField   nonuniform List<scalar> 
50800
(
2.34321e-05
6.99425e-19
2.34321e-05
1.36595e-19
2.34321e-05
6.42664e-20
2.34321e-05
2.63777e-20
2.34321e-05
3.13621e-20
2.34321e-05
1.3427e-20
2.34321e-05
1.37645e-21
2.34321e-05
1.21021e-20
2.34321e-05
1.41486e-21
2.34321e-05
-2.43979e-21
2.34321e-05
-1.0146e-20
2.34321e-05
-2.58805e-20
2.34321e-05
1.45929e-20
2.34321e-05
7.82548e-21
2.34321e-05
-4.44109e-21
2.34321e-05
2.51421e-20
2.34321e-05
2.26278e-20
2.34321e-05
-6.69179e-21
2.34321e-05
-1.47469e-20
2.34321e-05
-3.27153e-21
2.34321e-05
1.07445e-20
2.34321e-05
9.63251e-21
2.34321e-05
7.85452e-21
2.34321e-05
-5.61942e-21
2.34321e-05
-2.3025e-20
2.34321e-05
-8.93635e-21
2.34321e-05
2.71065e-20
2.34321e-05
8.57962e-21
2.34321e-05
-1.29688e-20
2.34321e-05
-5.53948e-21
2.34321e-05
1.05507e-20
2.34321e-05
3.30922e-20
2.34321e-05
3.71716e-21
2.34321e-05
-2.1248e-20
2.34321e-05
-8.84977e-21
2.34321e-05
-9.18401e-21
2.34321e-05
2.17355e-20
2.34321e-05
-1.11171e-20
2.34321e-05
-3.02448e-20
2.34321e-05
2.24883e-20
2.34321e-05
-3.27888e-21
2.34321e-05
1.53857e-20
2.34321e-05
5.04459e-21
2.34321e-05
-3.18822e-20
2.34321e-05
1.24917e-20
2.34321e-05
-8.6354e-21
2.34321e-05
1.89595e-20
2.34321e-05
1.58447e-20
2.34321e-05
-1.4489e-21
2.34321e-05
7.19838e-21
2.34321e-05
-2.08259e-20
2.34321e-05
1.76035e-20
2.34321e-05
-4.74831e-22
2.34321e-05
1.04779e-20
2.34321e-05
3.98889e-20
2.34321e-05
-2.15523e-20
2.34321e-05
-3.18591e-21
2.34321e-05
-8.48309e-21
2.34321e-05
1.15676e-21
2.34321e-05
3.46669e-20
2.34321e-05
-5.7422e-20
2.34321e-05
2.40183e-20
2.34321e-05
3.24054e-22
2.34321e-05
-6.05869e-21
2.34321e-05
4.11592e-20
2.34321e-05
-4.42983e-20
2.34321e-05
-7.1312e-21
2.34321e-05
-1.58816e-21
2.34321e-05
1.39506e-20
2.34321e-05
3.1175e-20
2.34321e-05
-2.18828e-20
2.34321e-05
-2.58332e-21
2.34321e-05
-1.74907e-20
2.34321e-05
-1.58268e-20
2.34321e-05
4.8981e-20
2.34321e-05
-3.54651e-20
2.34321e-05
-4.83456e-20
2.34321e-05
3.07876e-20
2.34321e-05
-4.85216e-21
2.34321e-05
4.4078e-20
2.34321e-05
-6.00329e-21
2.34321e-05
-6.53382e-20
2.34321e-05
4.82911e-21
2.34321e-05
9.91565e-21
2.34321e-05
1.13393e-20
2.34321e-05
-8.80573e-21
2.34321e-05
-2.28029e-20
2.34321e-05
-2.06224e-20
2.34321e-05
5.47146e-21
2.34321e-05
6.13267e-20
2.34321e-05
-1.61491e-20
2.34321e-05
-5.35349e-20
2.34321e-05
1.36531e-21
2.34321e-05
5.12726e-20
2.34321e-05
6.47259e-21
2.34321e-05
-6.77297e-20
2.34321e-05
-5.92212e-21
2.34321e-05
-2.62194e-20
2.34321e-05
3.46789e-20
2.34321e-05
3.75446e-20
2.34321e-05
-6.10658e-20
2.34321e-05
1.74754e-20
2.34321e-05
-4.42755e-20
2.34321e-05
9.67772e-21
2.34321e-05
3.28446e-20
2.34321e-05
1.57315e-20
2.34321e-05
-5.92457e-20
2.34321e-05
-3.19601e-20
2.34321e-05
4.66354e-20
2.34321e-05
3.80666e-20
2.34321e-05
4.9683e-20
2.34321e-05
-1.26752e-19
2.34321e-05
1.76214e-20
2.34321e-05
1.09942e-19
2.34321e-05
2.53596e-20
2.34321e-05
-2.36281e-22
2.34321e-05
-1.06932e-19
2.34321e-05
-2.19521e-20
2.34321e-05
1.01531e-19
2.34321e-05
4.99195e-20
2.34321e-05
-4.39295e-20
2.34321e-05
-1.05255e-19
2.34321e-05
-2.39742e-20
2.34321e-05
1.24443e-19
2.34321e-05
7.99741e-20
2.34321e-05
-4.10959e-20
2.34321e-05
-1.20644e-19
2.34321e-05
2.00021e-21
2.34321e-05
1.42802e-19
2.34321e-05
1.67338e-20
2.34321e-05
-3.76774e-20
2.34321e-05
-7.48678e-20
2.34321e-05
8.24453e-21
2.34321e-05
9.07841e-20
2.34321e-05
1.46873e-20
2.34321e-05
-3.503e-21
2.34321e-05
-7.22298e-20
2.34321e-05
3.31932e-21
2.34321e-05
9.8362e-20
2.34321e-05
2.33609e-20
2.34321e-05
-3.38022e-20
2.34321e-05
-6.98363e-20
2.34321e-05
1.28313e-20
2.34321e-05
4.49259e-20
2.34321e-05
-1.09156e-20
2.34321e-05
8.71339e-21
2.34321e-05
-5.42707e-20
2.34321e-05
1.75416e-20
2.34321e-05
-2.12435e-21
2.34321e-05
-1.58034e-20
2.34321e-05
7.21969e-20
2.34321e-05
-7.31676e-20
2.34321e-05
-6.79116e-20
2.34321e-05
4.43391e-20
2.34321e-05
3.20465e-20
2.34321e-05
4.11535e-20
2.34321e-05
-5.86518e-20
2.34321e-05
-7.12952e-20
2.34321e-05
1.75284e-20
2.34321e-05
3.06753e-20
2.34321e-05
9.6526e-20
2.34321e-05
-9.51407e-20
2.34321e-05
-2.46154e-20
2.34321e-05
1.01155e-19
2.34321e-05
-8.66285e-20
2.34321e-05
2.79618e-20
2.34321e-05
-3.03593e-20
2.34321e-05
-6.60585e-20
2.34321e-05
6.58945e-20
2.34321e-05
4.5354e-21
2.34321e-05
2.55086e-20
2.34321e-05
-9.46781e-20
2.34321e-05
-7.48162e-21
2.34321e-05
6.51993e-20
2.34321e-05
-3.74628e-21
2.34321e-05
-2.37341e-21
2.34321e-05
-7.5976e-20
2.34321e-05
9.0159e-20
2.34321e-05
-1.33917e-20
2.34321e-05
-7.94214e-21
2.34321e-05
1.20719e-19
2.34321e-05
-1.43718e-19
2.34321e-05
-7.29172e-21
2.34321e-05
7.50202e-20
2.34321e-05
-1.61456e-20
2.34321e-05
1.10621e-19
2.34321e-05
-9.38744e-20
2.34321e-05
-9.53553e-21
2.34321e-05
1.10329e-19
2.34321e-05
-8.79872e-20
2.34321e-05
3.51154e-20
2.34321e-05
-1.71213e-20
2.34321e-05
-5.84801e-20
2.34321e-05
9.06023e-20
2.34321e-05
-1.63327e-20
2.34321e-05
3.02265e-20
2.34321e-05
-5.2531e-20
2.34321e-05
-3.97249e-20
2.34321e-05
1.37257e-19
2.34321e-05
-6.83699e-20
2.34321e-05
4.92197e-21
2.34321e-05
-5.9433e-20
2.34321e-05
1.35424e-20
2.34321e-05
1.56294e-19
2.34321e-05
-4.63269e-20
2.34321e-05
-7.39758e-20
2.34321e-05
-6.66416e-20
2.34321e-05
5.78634e-20
2.34321e-05
7.73714e-20
2.34321e-05
-3.4047e-20
2.34321e-05
-4.64377e-20
2.34321e-05
-9.01198e-20
2.34321e-05
2.22188e-19
2.34321e-05
2.13395e-20
2.34321e-05
-2.24902e-19
2.34321e-05
1.67094e-19
2.34321e-05
-2.22058e-20
2.34321e-05
-5.39614e-20
2.34321e-05
-1.88216e-20
2.34321e-05
-1.40664e-19
2.34321e-05
2.21512e-19
2.34321e-05
4.49091e-20
2.34321e-05
-8.03871e-20
2.34321e-05
-3.49462e-20
2.34321e-05
-1.5857e-19
2.34321e-05
2.32271e-19
2.34321e-05
7.46557e-21
2.34321e-05
-7.85427e-20
2.34321e-05
5.58835e-20
2.34321e-05
-1.2995e-19
2.34321e-05
1.31167e-19
2.34321e-05
-5.46061e-20
2.34321e-05
-4.03906e-20
2.34321e-05
7.7232e-20
2.34321e-05
-1.74783e-19
2.34321e-05
5.93477e-20
2.34321e-05
-9.66885e-21
2.34321e-05
2.32285e-20
2.34321e-05
9.26138e-20
2.34321e-05
-1.86409e-19
2.34321e-05
9.61473e-20
2.34321e-05
-4.72149e-20
2.34321e-05
-6.08327e-21
2.34321e-05
1.22929e-19
2.34321e-05
-2.51823e-19
2.34321e-05
3.4917e-20
2.34321e-05
5.01576e-20
2.34321e-05
5.42303e-20
2.34321e-05
2.62434e-20
2.34321e-05
-1.86092e-19
2.34321e-05
2.06334e-19
2.34321e-05
1.19022e-20
2.34321e-05
-9.70854e-20
2.34321e-05
-1.05442e-20
2.34321e-05
-1.53003e-19
2.34321e-05
2.57971e-19
2.34321e-05
-2.40637e-21
2.34321e-05
-5.18648e-20
2.34321e-05
9.91086e-20
2.34321e-05
-1.95413e-19
2.34321e-05
9.07102e-20
2.34321e-05
2.26256e-20
2.34321e-05
-1.70899e-20
2.34321e-05
5.41893e-20
2.34321e-05
-1.20293e-19
2.34321e-05
1.59282e-19
2.34321e-05
1.9624e-20
2.34321e-05
-2.6267e-20
2.34321e-05
6.69591e-21
2.34321e-05
-1.58557e-19
2.34321e-05
9.4782e-20
2.34321e-05
-1.32225e-21
2.34321e-05
2.44479e-20
2.34321e-05
3.62592e-20
2.34321e-05
-1.36876e-19
2.34321e-05
1.06417e-19
2.34321e-05
2.44625e-20
2.34321e-05
-3.78829e-20
2.34321e-05
1.01803e-19
2.34321e-05
-1.33826e-19
2.34321e-05
4.54424e-20
2.34321e-05
3.17146e-20
2.34321e-05
-2.6509e-20
2.34321e-05
3.68297e-20
2.34321e-05
-1.53029e-19
2.34321e-05
2.01086e-20
2.34321e-05
9.98456e-20
2.34321e-05
-1.62626e-20
2.34321e-05
-9.03935e-20
2.34321e-05
-1.16609e-19
2.34321e-05
1.38184e-19
2.34321e-05
3.68164e-20
2.34321e-05
-4.71322e-20
2.34321e-05
-3.54921e-20
2.34321e-05
-4.26731e-20
2.34321e-05
1.23805e-19
2.34321e-05
1.89551e-20
2.34321e-05
-1.36582e-20
2.34321e-05
-8.90832e-20
2.34321e-05
-5.99572e-20
2.34321e-05
1.371e-19
2.34321e-05
2.35002e-20
2.34321e-05
5.26014e-20
2.34321e-05
-1.21027e-19
2.34321e-05
-1.14099e-19
2.34321e-05
8.40327e-20
2.34321e-05
5.99185e-21
2.34321e-05
8.94278e-20
2.34321e-05
-9.89051e-20
2.34321e-05
-9.07533e-22
2.34321e-05
6.51255e-20
2.34321e-05
-1.10007e-19
2.34321e-05
1.12358e-19
2.34321e-05
-9.44329e-21
2.34321e-05
-5.76738e-20
2.34321e-05
7.83989e-20
2.34321e-05
-5.66285e-20
2.34321e-05
1.24204e-19
2.34321e-05
6.83619e-20
4.55844e-20
6.91247e-05
5.16322e-19
6.91247e-05
1.80176e-19
6.91247e-05
9.54113e-20
6.91247e-05
8.29362e-20
6.91247e-05
7.72171e-20
6.91247e-05
3.63207e-20
6.91247e-05
-1.09144e-21
6.91247e-05
1.00148e-20
6.91247e-05
1.15615e-20
6.91247e-05
-3.61242e-20
6.91247e-05
-4.65253e-20
6.91247e-05
-4.0562e-20
6.91247e-05
2.29714e-20
6.91247e-05
2.95872e-20
6.91247e-05
2.19878e-20
6.91247e-05
6.92014e-20
6.91247e-05
3.70139e-20
6.91247e-05
-1.35214e-20
6.91247e-05
-2.66749e-20
6.91247e-05
4.84498e-21
6.91247e-05
3.50337e-20
6.91247e-05
2.34357e-20
6.91247e-05
1.23009e-20
6.91247e-05
-9.36851e-21
6.91247e-05
-5.96367e-20
6.91247e-05
-3.12386e-20
6.91247e-05
4.56782e-20
6.91247e-05
2.90759e-20
6.91247e-05
-7.93051e-21
6.91247e-05
-1.66383e-20
6.91247e-05
3.54783e-20
6.91247e-05
8.74825e-20
6.91247e-05
-4.24159e-21
6.91247e-05
-5.72451e-20
6.91247e-05
-2.18877e-20
6.91247e-05
-2.95172e-20
6.91247e-05
3.06004e-20
6.91247e-05
-1.78429e-20
6.91247e-05
-8.38883e-20
6.91247e-05
3.20228e-20
6.91247e-05
1.24929e-20
6.91247e-05
1.58164e-20
6.91247e-05
1.55255e-20
6.91247e-05
-5.7652e-20
6.91247e-05
-2.20156e-21
6.91247e-05
9.41027e-21
6.91247e-05
3.92857e-20
6.91247e-05
4.58364e-20
6.91247e-05
9.45542e-21
6.91247e-05
1.30681e-20
6.91247e-05
-3.79703e-20
6.91247e-05
4.51562e-20
6.91247e-05
1.73995e-20
6.91247e-05
3.47612e-20
6.91247e-05
1.20477e-19
6.91247e-05
-3.93956e-20
6.91247e-05
-1.50097e-20
6.91247e-05
-2.84702e-20
6.91247e-05
-4.50783e-21
6.91247e-05
5.82412e-20
6.91247e-05
-1.22972e-19
6.91247e-05
5.67453e-20
6.91247e-05
3.65058e-21
6.91247e-05
-3.64886e-20
6.91247e-05
8.94542e-20
6.91247e-05
-9.48286e-20
6.91247e-05
9.15745e-22
6.91247e-05
-2.81776e-20
6.91247e-05
1.23401e-20
6.91247e-05
1.05791e-19
6.91247e-05
-4.10481e-20
6.91247e-05
-3.91626e-20
6.91247e-05
-8.47173e-20
6.91247e-05
-1.45773e-20
6.91247e-05
1.24776e-19
6.91247e-05
-8.15234e-20
6.91247e-05
-1.17199e-19
6.91247e-05
4.66086e-20
6.91247e-05
-8.46151e-21
6.91247e-05
9.48973e-20
6.91247e-05
-1.80864e-20
6.91247e-05
-1.53944e-19
6.91247e-05
-7.38725e-21
6.91247e-05
3.34206e-21
6.91247e-05
2.81862e-20
6.91247e-05
-3.34786e-20
6.91247e-05
-3.12726e-20
6.91247e-05
-6.41617e-20
6.91247e-05
-1.32451e-20
6.91247e-05
1.59845e-19
6.91247e-05
-5.41623e-20
6.91247e-05
-1.22727e-19
6.91247e-05
7.45687e-22
6.91247e-05
9.80223e-20
6.91247e-05
5.50433e-21
6.91247e-05
-1.47301e-19
6.91247e-05
-5.4994e-20
6.91247e-05
-6.88843e-20
6.91247e-05
5.96685e-20
6.91247e-05
6.41657e-20
6.91247e-05
-9.36422e-20
6.91247e-05
2.08849e-20
6.91247e-05
-8.28274e-20
6.91247e-05
-2.32292e-20
6.91247e-05
8.88993e-20
6.91247e-05
8.22927e-20
6.91247e-05
-1.41571e-19
6.91247e-05
-1.06111e-19
6.91247e-05
1.27216e-19
6.91247e-05
1.52114e-19
6.91247e-05
9.58215e-20
6.91247e-05
-2.53616e-19
6.91247e-05
2.26253e-20
6.91247e-05
2.67916e-19
6.91247e-05
9.93993e-20
6.91247e-05
-8.98453e-22
6.91247e-05
-2.63279e-19
6.91247e-05
-1.04214e-19
6.91247e-05
2.64608e-19
6.91247e-05
1.58448e-19
6.91247e-05
-1.37629e-19
6.91247e-05
-2.5342e-19
6.91247e-05
-5.54739e-20
6.91247e-05
2.90027e-19
6.91247e-05
2.30943e-19
6.91247e-05
-7.65867e-20
6.91247e-05
-3.07366e-19
6.91247e-05
3.46129e-20
6.91247e-05
3.36858e-19
6.91247e-05
5.62565e-20
6.91247e-05
-8.66318e-20
6.91247e-05
-1.74984e-19
6.91247e-05
3.12603e-21
6.91247e-05
2.30939e-19
6.91247e-05
6.05362e-20
6.91247e-05
-1.08814e-20
6.91247e-05
-1.63668e-19
6.91247e-05
-1.94079e-20
6.91247e-05
2.67078e-19
6.91247e-05
9.24586e-20
6.91247e-05
-1.02274e-19
6.91247e-05
-1.86582e-19
6.91247e-05
2.29614e-20
6.91247e-05
1.09089e-19
6.91247e-05
-1.81829e-20
6.91247e-05
-8.04561e-21
6.91247e-05
-1.38347e-19
6.91247e-05
3.71528e-20
6.91247e-05
2.16779e-20
6.91247e-05
-3.52287e-20
6.91247e-05
1.23742e-19
6.91247e-05
-1.45093e-19
6.91247e-05
-1.60429e-19
6.91247e-05
8.24642e-20
6.91247e-05
9.40842e-20
6.91247e-05
9.74928e-20
6.91247e-05
-1.21141e-19
6.91247e-05
-1.89893e-19
6.91247e-05
1.7563e-20
6.91247e-05
9.01308e-20
6.91247e-05
2.12371e-19
6.91247e-05
-1.7696e-19
6.91247e-05
-5.66335e-20
6.91247e-05
1.94838e-19
6.91247e-05
-1.67605e-19
6.91247e-05
1.87733e-20
6.91247e-05
-6.82276e-20
6.91247e-05
-1.348e-19
6.91247e-05
1.14771e-19
6.91247e-05
4.34392e-20
6.91247e-05
-3.1922e-21
6.91247e-05
-2.09318e-19
6.91247e-05
-1.01993e-20
6.91247e-05
1.56335e-19
6.91247e-05
4.45628e-20
6.91247e-05
-5.09155e-20
6.91247e-05
-1.38222e-19
6.91247e-05
1.35734e-19
6.91247e-05
-3.82245e-20
6.91247e-05
8.50591e-20
6.91247e-05
2.05499e-19
6.91247e-05
-3.08876e-19
6.91247e-05
-3.85553e-20
6.91247e-05
1.89294e-19
6.91247e-05
4.48783e-20
6.91247e-05
1.93085e-19
6.91247e-05
-1.71376e-19
6.91247e-05
-1.69112e-20
6.91247e-05
2.12905e-19
6.91247e-05
-9.61941e-20
6.91247e-05
6.2222e-21
6.91247e-05
-4.00876e-20
6.91247e-05
-1.09234e-19
6.91247e-05
1.60263e-19
6.91247e-05
2.21236e-20
6.91247e-05
6.02971e-20
6.91247e-05
-8.0389e-20
6.91247e-05
-7.67546e-20
6.91247e-05
1.7985e-19
6.91247e-05
-5.25476e-20
6.91247e-05
6.76622e-21
6.91247e-05
-1.04384e-19
6.91247e-05
4.83563e-20
6.91247e-05
2.7426e-19
6.91247e-05
-4.41268e-20
6.91247e-05
-1.28964e-19
6.91247e-05
-1.8714e-19
6.91247e-05
8.37019e-20
6.91247e-05
1.07704e-19
6.91247e-05
-2.33398e-20
6.91247e-05
-6.08955e-20
6.91247e-05
-1.79561e-19
6.91247e-05
4.40332e-19
6.91247e-05
5.35852e-20
6.91247e-05
-4.11538e-19
6.91247e-05
2.7836e-19
6.91247e-05
-9.20412e-20
6.91247e-05
-5.63706e-20
6.91247e-05
-7.02836e-20
6.91247e-05
-3.08115e-19
6.91247e-05
4.5966e-19
6.91247e-05
9.66486e-20
6.91247e-05
-1.30226e-19
6.91247e-05
-8.73933e-20
6.91247e-05
-3.59925e-19
6.91247e-05
4.59976e-19
6.91247e-05
5.1103e-20
6.91247e-05
-1.4315e-19
6.91247e-05
7.34215e-20
6.91247e-05
-2.62108e-19
6.91247e-05
2.43704e-19
6.91247e-05
-9.28674e-20
6.91247e-05
-1.09407e-19
6.91247e-05
9.41841e-20
6.91247e-05
-3.6838e-19
6.91247e-05
8.02266e-20
6.91247e-05
-3.56429e-20
6.91247e-05
1.15593e-19
6.91247e-05
2.03037e-19
6.91247e-05
-4.28331e-19
6.91247e-05
1.47715e-19
6.91247e-05
-1.15148e-19
6.91247e-05
1.47231e-20
6.91247e-05
1.93211e-19
6.91247e-05
-5.66864e-19
6.91247e-05
7.23496e-20
6.91247e-05
1.06012e-19
6.91247e-05
1.21344e-19
6.91247e-05
6.37477e-20
6.91247e-05
-3.815e-19
6.91247e-05
4.77784e-19
6.91247e-05
4.35769e-20
6.91247e-05
-2.54064e-19
6.91247e-05
-1.22995e-19
6.91247e-05
-2.93394e-19
6.91247e-05
6.31844e-19
6.91247e-05
5.2871e-20
6.91247e-05
-9.08931e-20
6.91247e-05
1.75128e-19
6.91247e-05
-4.11993e-19
6.91247e-05
1.63638e-19
6.91247e-05
4.48975e-20
6.91247e-05
4.36898e-20
6.91247e-05
7.49691e-20
6.91247e-05
-2.3737e-19
6.91247e-05
3.75071e-19
6.91247e-05
4.75973e-20
6.91247e-05
-3.49105e-20
6.91247e-05
1.04066e-21
6.91247e-05
-3.89529e-19
6.91247e-05
2.0217e-19
6.91247e-05
1.31319e-20
6.91247e-05
8.56347e-20
6.91247e-05
6.42274e-20
6.91247e-05
-3.60351e-19
6.91247e-05
2.71557e-19
6.91247e-05
6.37653e-20
6.91247e-05
-1.3186e-20
6.91247e-05
2.0122e-19
6.91247e-05
-3.70458e-19
6.91247e-05
1.30204e-19
6.91247e-05
4.51957e-20
6.91247e-05
-2.06007e-20
6.91247e-05
6.91567e-20
6.91247e-05
-4.22503e-19
6.91247e-05
1.20653e-19
6.91247e-05
1.92503e-19
6.91247e-05
-7.8621e-20
6.91247e-05
-2.16038e-19
6.91247e-05
-2.79112e-19
6.91247e-05
2.90477e-19
6.91247e-05
8.1755e-20
6.91247e-05
-1.25222e-19
6.91247e-05
-7.94568e-21
6.91247e-05
-1.3336e-19
6.91247e-05
2.55582e-19
6.91247e-05
1.3605e-19
6.91247e-05
-1.10505e-19
6.91247e-05
-1.50575e-19
6.91247e-05
-1.82513e-19
6.91247e-05
2.7633e-19
6.91247e-05
1.74416e-19
6.91247e-05
4.51637e-20
6.91247e-05
-3.06391e-19
6.91247e-05
-2.95558e-19
6.91247e-05
2.3773e-19
6.91247e-05
6.13384e-20
6.91247e-05
1.32672e-19
6.91247e-05
-2.06113e-19
6.91247e-05
-1.86025e-20
6.91247e-05
1.5738e-19
6.91247e-05
-2.02644e-19
6.91247e-05
1.83176e-19
6.91247e-05
3.93716e-20
6.91247e-05
-1.15118e-19
6.91247e-05
1.23951e-19
6.91247e-05
-8.47725e-20
6.91247e-05
3.06792e-19
6.91247e-05
1.57126e-19
1.64727e-20
0.000113646
4.21724e-19
0.000113646
1.95865e-19
0.000113646
1.28036e-19
0.000113646
1.23635e-19
0.000113646
1.22702e-19
0.000113646
6.61663e-20
0.000113646
1.8347e-20
0.000113646
3.13248e-20
0.000113646
1.67184e-20
0.000113646
-3.20858e-20
0.000113646
-8.08764e-20
0.000113646
-8.47661e-20
0.000113646
3.03829e-20
0.000113646
6.92126e-20
0.000113646
3.73576e-20
0.000113646
1.34658e-19
0.000113646
6.14864e-20
0.000113646
-1.50116e-20
0.000113646
-1.25158e-20
0.000113646
2.60543e-20
0.000113646
5.25133e-20
0.000113646
5.50627e-20
0.000113646
2.25646e-20
0.000113646
-3.66642e-20
0.000113646
-8.15488e-20
0.000113646
-5.28464e-20
0.000113646
7.94003e-20
0.000113646
6.52662e-20
0.000113646
-5.54441e-21
0.000113646
-2.67107e-20
0.000113646
6.95683e-20
0.000113646
1.57209e-19
0.000113646
1.41495e-20
0.000113646
-1.09153e-19
0.000113646
-9.09263e-20
0.000113646
-5.74524e-20
0.000113646
8.08608e-20
0.000113646
-2.19468e-20
0.000113646
-1.33858e-19
0.000113646
4.13719e-20
0.000113646
3.01421e-20
0.000113646
1.75238e-20
0.000113646
3.65003e-20
0.000113646
-7.59322e-20
0.000113646
-3.62196e-20
0.000113646
2.77495e-20
0.000113646
6.70006e-20
0.000113646
1.11217e-19
0.000113646
2.94806e-20
0.000113646
2.73258e-20
0.000113646
-3.70099e-20
0.000113646
3.608e-20
0.000113646
7.53517e-20
0.000113646
6.45873e-20
0.000113646
1.62681e-19
0.000113646
-3.58712e-20
0.000113646
-1.10072e-20
0.000113646
-1.57523e-20
0.000113646
-2.14603e-20
0.000113646
5.71755e-20
0.000113646
-1.90256e-19
0.000113646
7.86306e-20
0.000113646
3.02064e-20
0.000113646
-3.63186e-20
0.000113646
1.10718e-19
0.000113646
-1.44647e-19
0.000113646
-1.43502e-20
0.000113646
-4.15328e-20
0.000113646
3.84788e-21
0.000113646
1.52926e-19
0.000113646
-7.07239e-20
0.000113646
-7.44841e-20
0.000113646
-1.2932e-19
0.000113646
8.73999e-21
0.000113646
1.55697e-19
0.000113646
-1.31935e-19
0.000113646
-1.76854e-19
0.000113646
4.99744e-20
0.000113646
-1.82298e-20
0.000113646
1.17235e-19
0.000113646
-4.3153e-20
0.000113646
-2.30672e-19
0.000113646
-6.62658e-20
0.000113646
1.75279e-20
0.000113646
6.16648e-20
0.000113646
-8.69353e-20
0.000113646
-5.15506e-20
0.000113646
-9.14503e-20
0.000113646
-5.63749e-20
0.000113646
2.10008e-19
0.000113646
-3.11124e-20
0.000113646
-1.43239e-19
0.000113646
-1.63508e-20
0.000113646
6.60244e-20
0.000113646
2.50823e-20
0.000113646
-2.13325e-19
0.000113646
-1.3551e-19
0.000113646
-7.28043e-20
0.000113646
3.80836e-20
0.000113646
6.89457e-20
0.000113646
-7.84523e-20
0.000113646
-1.51998e-20
0.000113646
-1.05828e-19
0.000113646
-6.4326e-20
0.000113646
1.49098e-19
0.000113646
1.28356e-19
0.000113646
-2.02431e-19
0.000113646
-1.8706e-19
0.000113646
1.85341e-19
0.000113646
2.7426e-19
0.000113646
1.386e-19
0.000113646
-3.57539e-19
0.000113646
3.09961e-20
0.000113646
3.90692e-19
0.000113646
2.39603e-19
0.000113646
2.19616e-20
0.000113646
-4.14734e-19
0.000113646
-2.07855e-19
0.000113646
4.25087e-19
0.000113646
2.84323e-19
0.000113646
-2.55344e-19
0.000113646
-4.2476e-19
0.000113646
-8.72837e-20
0.000113646
4.4479e-19
0.000113646
4.12706e-19
0.000113646
-1.31328e-19
0.000113646
-4.89715e-19
0.000113646
9.30409e-20
0.000113646
5.30131e-19
0.000113646
1.15224e-19
0.000113646
-1.42144e-19
0.000113646
-2.39073e-19
0.000113646
-3.3423e-20
0.000113646
3.64152e-19
0.000113646
1.36807e-19
0.000113646
-4.18581e-21
0.000113646
-2.72036e-19
0.000113646
-2.99695e-20
0.000113646
4.29289e-19
0.000113646
1.66199e-19
0.000113646
-1.82785e-19
0.000113646
-2.85061e-19
0.000113646
4.78951e-20
0.000113646
1.38846e-19
0.000113646
-1.36535e-20
0.000113646
-3.77156e-20
0.000113646
-2.39278e-19
0.000113646
6.2803e-20
0.000113646
4.84303e-20
0.000113646
-5.99159e-20
0.000113646
1.44634e-19
0.000113646
-2.04415e-19
0.000113646
-2.06392e-19
0.000113646
1.11821e-19
0.000113646
1.57871e-19
0.000113646
1.13573e-19
0.000113646
-2.48125e-19
0.000113646
-2.89961e-19
0.000113646
2.16142e-20
0.000113646
1.79242e-19
0.000113646
2.77543e-19
0.000113646
-2.50175e-19
0.000113646
-9.19162e-20
0.000113646
2.46302e-19
0.000113646
-2.16385e-19
0.000113646
-4.95104e-20
0.000113646
-1.00964e-19
0.000113646
-1.14787e-19
0.000113646
1.07995e-19
0.000113646
5.63965e-20
0.000113646
-6.45125e-20
0.000113646
-3.31297e-19
0.000113646
-1.72156e-20
0.000113646
3.13049e-19
0.000113646
1.03779e-19
0.000113646
-1.01201e-19
0.000113646
-1.75515e-19
0.000113646
1.08611e-19
0.000113646
-5.25188e-21
0.000113646
2.37987e-19
0.000113646
2.26633e-19
0.000113646
-4.53195e-19
0.000113646
-6.39102e-20
0.000113646
3.3241e-19
0.000113646
1.39488e-19
0.000113646
2.12162e-19
0.000113646
-1.80265e-19
0.000113646
1.18237e-20
0.000113646
2.6912e-19
0.000113646
-8.18508e-20
0.000113646
-4.84202e-20
0.000113646
-7.60815e-20
0.000113646
-1.42361e-19
0.000113646
1.51018e-19
0.000113646
1.29203e-19
0.000113646
8.44513e-20
0.000113646
-1.2123e-19
0.000113646
-1.08268e-19
0.000113646
1.85459e-19
0.000113646
1.58493e-20
0.000113646
-6.53443e-21
0.000113646
-1.14407e-19
0.000113646
1.06349e-19
0.000113646
3.20493e-19
0.000113646
-6.04211e-21
0.000113646
-1.57768e-19
0.000113646
-2.69985e-19
0.000113646
5.71146e-20
0.000113646
1.13732e-19
0.000113646
-4.20602e-20
0.000113646
-2.48155e-20
0.000113646
-2.55248e-19
0.000113646
5.90735e-19
0.000113646
1.15025e-19
0.000113646
-5.11509e-19
0.000113646
2.90366e-19
0.000113646
-1.90409e-19
0.000113646
-5.21658e-20
0.000113646
-1.20778e-19
0.000113646
-4.53428e-19
0.000113646
6.2373e-19
0.000113646
1.23787e-19
0.000113646
-8.32523e-20
0.000113646
-8.70175e-20
0.000113646
-5.21085e-19
0.000113646
5.81897e-19
0.000113646
1.14682e-19
0.000113646
-1.7325e-19
0.000113646
5.73348e-20
0.000113646
-4.2049e-19
0.000113646
3.35902e-19
0.000113646
-1.01454e-19
0.000113646
-2.21995e-19
0.000113646
5.29385e-20
0.000113646
-5.13738e-19
0.000113646
3.2143e-20
0.000113646
-1.23498e-19
0.000113646
2.78851e-19
0.000113646
2.96408e-19
0.000113646
-6.51565e-19
0.000113646
1.46562e-19
0.000113646
-2.06404e-19
0.000113646
4.59152e-20
0.000113646
2.4612e-19
0.000113646
-8.66882e-19
0.000113646
7.02643e-20
0.000113646
1.15298e-19
0.000113646
1.71461e-19
0.000113646
1.21967e-19
0.000113646
-4.90032e-19
0.000113646
7.2475e-19
0.000113646
9.87898e-20
0.000113646
-4.48574e-19
0.000113646
-2.83247e-19
0.000113646
-3.46832e-19
0.000113646
9.55992e-19
0.000113646
1.16535e-19
0.000113646
-6.28329e-20
0.000113646
2.69421e-19
0.000113646
-5.62462e-19
0.000113646
1.7228e-19
0.000113646
4.56103e-20
0.000113646
1.56793e-19
0.000113646
7.79596e-20
0.000113646
-3.26984e-19
0.000113646
5.97618e-19
0.000113646
5.42652e-20
0.000113646
-2.10022e-21
0.000113646
-2.5257e-20
0.000113646
-5.9285e-19
0.000113646
3.03981e-19
0.000113646
1.56714e-20
0.000113646
1.16361e-19
0.000113646
1.11168e-19
0.000113646
-5.24438e-19
0.000113646
4.32603e-19
0.000113646
7.42596e-20
0.000113646
6.20427e-20
0.000113646
2.28036e-19
0.000113646
-5.73281e-19
0.000113646
2.70922e-19
0.000113646
-8.7958e-21
0.000113646
-4.63644e-20
0.000113646
1.10846e-19
0.000113646
-6.78652e-19
0.000113646
1.97217e-19
0.000113646
2.3084e-19
0.000113646
-2.27297e-19
0.000113646
-3.03554e-19
0.000113646
-4.21014e-19
0.000113646
4.17843e-19
0.000113646
1.31339e-19
0.000113646
-1.72196e-19
0.000113646
5.18028e-20
0.000113646
-2.10767e-19
0.000113646
2.9101e-19
0.000113646
2.73851e-19
0.000113646
-1.9271e-19
0.000113646
-1.73252e-19
0.000113646
-3.22645e-19
0.000113646
3.43424e-19
0.000113646
3.62793e-19
0.000113646
5.97107e-21
0.000113646
-5.09144e-19
0.000113646
-4.46222e-19
0.000113646
3.73648e-19
0.000113646
1.34169e-19
0.000113646
1.31842e-19
0.000113646
-2.59143e-19
0.000113646
-1.0443e-19
0.000113646
3.13448e-19
0.000113646
-2.47944e-19
0.000113646
1.39908e-19
0.000113646
1.84065e-19
0.000113646
-1.49809e-19
0.000113646
1.07031e-19
0.000113646
-4.54086e-20
0.000113646
4.72571e-19
0.000113646
2.65955e-19
1.09153e-20
0.000156995
3.94775e-19
0.000156995
2.61089e-19
0.000156995
1.75491e-19
0.000156995
1.70889e-19
0.000156995
1.41634e-19
0.000156995
7.7993e-20
0.000156995
1.49515e-20
0.000156995
3.47878e-20
0.000156995
4.35911e-20
0.000156995
-3.56079e-20
0.000156995
-1.27998e-19
0.000156995
-7.785e-20
0.000156995
4.42402e-20
0.000156995
7.061e-20
0.000156995
5.65989e-20
0.000156995
1.38161e-19
0.000156995
1.30667e-19
0.000156995
2.58052e-20
0.000156995
4.75854e-20
0.000156995
3.77506e-20
0.000156995
1.26937e-19
0.000156995
1.13094e-19
0.000156995
1.86732e-20
0.000156995
-6.22029e-20
0.000156995
-1.16604e-19
0.000156995
-5.92328e-20
0.000156995
1.14775e-19
0.000156995
8.33178e-20
0.000156995
-1.08201e-20
0.000156995
-2.46574e-20
0.000156995
8.41258e-20
0.000156995
1.85816e-19
0.000156995
3.14667e-21
0.000156995
-1.08196e-19
0.000156995
-1.26295e-19
0.000156995
-7.84776e-20
0.000156995
7.35043e-20
0.000156995
6.6184e-21
0.000156995
-1.30358e-19
0.000156995
4.77667e-20
0.000156995
3.58648e-20
0.000156995
1.48929e-20
0.000156995
1.83176e-21
0.000156995
-1.33291e-19
0.000156995
-1.27194e-20
0.000156995
3.5457e-20
0.000156995
1.37586e-19
0.000156995
1.58004e-19
0.000156995
3.65453e-20
0.000156995
3.93327e-20
0.000156995
2.91132e-20
0.000156995
1.25611e-19
0.000156995
1.16641e-19
0.000156995
9.06402e-20
0.000156995
1.85837e-19
0.000156995
-2.16493e-20
0.000156995
-5.68972e-21
0.000156995
9.74923e-21
0.000156995
1.39409e-20
0.000156995
1.21657e-20
0.000156995
-2.68797e-19
0.000156995
1.02174e-19
0.000156995
2.85938e-20
0.000156995
-4.23285e-20
0.000156995
1.37677e-19
0.000156995
-1.30536e-19
0.000156995
-2.62103e-20
0.000156995
-1.01623e-19
0.000156995
-3.76134e-21
0.000156995
1.77477e-19
0.000156995
-9.443e-20
0.000156995
-1.48455e-19
0.000156995
-1.7153e-19
0.000156995
-1.67858e-20
0.000156995
1.77201e-19
0.000156995
-1.71438e-19
0.000156995
-1.8952e-19
0.000156995
5.10316e-20
0.000156995
-2.37421e-20
0.000156995
1.05328e-19
0.000156995
-8.18421e-20
0.000156995
-3.11384e-19
0.000156995
-8.37846e-20
0.000156995
1.53993e-20
0.000156995
3.87224e-20
0.000156995
-1.26124e-19
0.000156995
-9.25973e-20
0.000156995
-1.04765e-19
0.000156995
-1.00034e-19
0.000156995
2.47111e-19
0.000156995
-3.15931e-20
0.000156995
-1.7657e-19
0.000156995
-2.8564e-20
0.000156995
6.16203e-20
0.000156995
2.86983e-20
0.000156995
-2.94842e-19
0.000156995
-2.50959e-19
0.000156995
-1.2327e-19
0.000156995
2.3773e-20
0.000156995
8.12738e-20
0.000156995
-5.83964e-20
0.000156995
-6.08704e-21
0.000156995
-1.98688e-19
0.000156995
-6.87379e-20
0.000156995
1.93403e-19
0.000156995
1.69944e-19
0.000156995
-2.11497e-19
0.000156995
-2.10557e-19
0.000156995
1.97093e-19
0.000156995
3.93664e-19
0.000156995
2.17846e-19
0.000156995
-3.9546e-19
0.000156995
3.37476e-20
0.000156995
5.31119e-19
0.000156995
3.73391e-19
0.000156995
-6.95503e-21
0.000156995
-5.38444e-19
0.000156995
-2.47325e-19
0.000156995
5.47027e-19
0.000156995
3.38215e-19
0.000156995
-3.14263e-19
0.000156995
-5.45338e-19
0.000156995
-1.21177e-19
0.000156995
5.64674e-19
0.000156995
5.48612e-19
0.000156995
-1.0837e-19
0.000156995
-5.92944e-19
0.000156995
1.21428e-19
0.000156995
6.55587e-19
0.000156995
1.59503e-19
0.000156995
-1.16742e-19
0.000156995
-3.15943e-19
0.000156995
-6.26376e-20
0.000156995
4.32842e-19
0.000156995
2.41679e-19
0.000156995
9.66445e-21
0.000156995
-2.92131e-19
0.000156995
-2.08285e-20
0.000156995
5.1198e-19
0.000156995
2.03786e-19
0.000156995
-2.03853e-19
0.000156995
-3.11319e-19
0.000156995
7.09295e-20
0.000156995
1.29927e-19
0.000156995
-6.38656e-20
0.000156995
-3.66363e-20
0.000156995
-2.89515e-19
0.000156995
6.91519e-20
0.000156995
5.07043e-20
0.000156995
-1.41104e-19
0.000156995
1.54698e-19
0.000156995
-1.92524e-19
0.000156995
-2.413e-19
0.000156995
1.00995e-19
0.000156995
1.91269e-19
0.000156995
1.07581e-19
0.000156995
-3.02487e-19
0.000156995
-3.78282e-19
0.000156995
-2.18922e-21
0.000156995
2.28589e-19
0.000156995
2.49528e-19
0.000156995
-2.66112e-19
0.000156995
-8.83471e-20
0.000156995
2.17662e-19
0.000156995
-2.77748e-19
0.000156995
-7.36121e-20
0.000156995
-1.14276e-19
0.000156995
-1.2999e-19
0.000156995
1.48925e-19
0.000156995
6.40761e-20
0.000156995
-1.34752e-19
0.000156995
-5.24357e-19
0.000156995
8.85133e-20
0.000156995
5.24767e-19
0.000156995
1.02658e-19
0.000156995
-1.45445e-19
0.000156995
-2.46029e-19
0.000156995
8.24558e-20
0.000156995
2.54619e-20
0.000156995
3.87844e-19
0.000156995
2.62052e-19
0.000156995
-5.74676e-19
0.000156995
-3.78904e-20
0.000156995
4.28388e-19
0.000156995
2.48886e-19
0.000156995
1.94551e-19
0.000156995
-1.92182e-19
0.000156995
7.48814e-20
0.000156995
3.49469e-19
0.000156995
-1.10937e-19
0.000156995
-7.85559e-20
0.000156995
-1.16286e-19
0.000156995
-1.90283e-19
0.000156995
1.76459e-19
0.000156995
2.14497e-19
0.000156995
1.4594e-19
0.000156995
-1.85809e-19
0.000156995
-1.64086e-19
0.000156995
2.21713e-19
0.000156995
7.53941e-20
0.000156995
4.3544e-20
0.000156995
-1.02591e-19
0.000156995
1.54166e-19
0.000156995
3.11923e-19
0.000156995
4.6742e-20
0.000156995
-1.76218e-19
0.000156995
-3.65449e-19
0.000156995
-1.71807e-20
0.000156995
1.15417e-19
0.000156995
-5.19163e-21
0.000156995
1.92711e-20
0.000156995
-2.57833e-19
0.000156995
6.77015e-19
0.000156995
1.55421e-19
0.000156995
-5.80165e-19
0.000156995
2.94088e-19
0.000156995
-3.35287e-19
0.000156995
-9.40551e-20
0.000156995
-1.50634e-19
0.000156995
-5.55873e-19
0.000156995
7.23934e-19
0.000156995
1.59716e-19
0.000156995
1.77323e-20
0.000156995
-5.42988e-20
0.000156995
-6.51476e-19
0.000156995
6.3274e-19
0.000156995
1.28031e-19
0.000156995
-1.66982e-19
0.000156995
3.37401e-20
0.000156995
-5.1567e-19
0.000156995
4.35877e-19
0.000156995
-9.72339e-20
0.000156995
-3.74095e-19
0.000156995
-4.95745e-20