/*--------------------------------*- C++ -*----------------------------------*\
| =========                 |                                                 |
| \\      /  F ield         | OpenFOAM: The Open Source CFD Toolbox           |
|  \\    /   O peration     | Version:  2112                                  |
|   \\  /    A nd           | Website:  www.openfoam.com                      |
|    \\/     M anipulation  |                                                 |
\*---------------------------------------------------------------------------*/
FoamFile
{
    version     2.0;
    format      ascii;
    arch        "LSB;label=32;scalar=64";
    class       surfaceScalarField;
    location    "5";
    object      phi;
}
// * * * * * * * * * * * * * * * * * * * * * * * * * * * * * * * * * * * * * //

dimensions      [0 3 -1 0 0 0 0];

oriented        oriented;

internalField   nonuniform List<scalar> 
50800
(
2.34302e-05
-2.47952e-18
2.34302e-05
-4.20529e-19
2.34302e-05
-7.30915e-20
2.34302e-05
-3.65999e-20
2.34302e-05
-8.99794e-21
2.34302e-05
-5.50859e-21
2.34302e-05
-1.04351e-20
2.34302e-05
8.22839e-21
2.34302e-05
1.00257e-21
2.34302e-05
-1.76098e-21
2.34302e-05
8.72527e-21
2.34302e-05
7.50526e-21
2.34302e-05
3.12719e-20
2.34302e-05
1.44902e-20
2.34302e-05
-2.41257e-20
2.34302e-05
1.42896e-20
2.34302e-05
1.98382e-20
2.34302e-05
7.38043e-21
2.34302e-05
5.07705e-22
2.34302e-05
9.04225e-21
2.34302e-05
1.69671e-20
2.34302e-05
1.19944e-20
2.34302e-05
-1.23799e-20
2.34302e-05
-1.94556e-20
2.34302e-05
-2.18544e-20
2.34302e-05
-2.48608e-20
2.34302e-05
1.96391e-20
2.34302e-05
-1.99586e-20
2.34302e-05
-3.92045e-20
2.34302e-05
-2.82998e-20
2.34302e-05
2.30389e-21
2.34302e-05
3.7096e-20
2.34302e-05
8.51032e-22
2.34302e-05
-7.46727e-21
2.34302e-05
-4.17079e-21
2.34302e-05
-6.16099e-21
2.34302e-05
2.75033e-20
2.34302e-05
-1.26912e-20
2.34302e-05
-2.88447e-20
2.34302e-05
1.13918e-20
2.34302e-05
-4.45249e-21
2.34302e-05
4.1398e-21
2.34302e-05
1.34579e-20
2.34302e-05
-1.85587e-20
2.34302e-05
3.64752e-21
2.34302e-05
-1.15394e-20
2.34302e-05
-8.01307e-21
2.34302e-05
-8.49608e-21
2.34302e-05
-1.76472e-20
2.34302e-05
-1.78301e-20
2.34302e-05
-3.38023e-20
2.34302e-05
1.30998e-20
2.34302e-05
-1.98476e-20
2.34302e-05
-2.18894e-20
2.34302e-05
1.84521e-20
2.34302e-05
-4.02446e-20
2.34302e-05
3.91208e-21
2.34302e-05
-7.4641e-21
2.34302e-05
4.29882e-21
2.34302e-05
2.09207e-20
2.34302e-05
-6.17572e-20
2.34302e-05
3.10921e-20
2.34302e-05
-2.01292e-21
2.34302e-05
3.41881e-22
2.34302e-05
6.10445e-20
2.34302e-05
-3.02554e-20
2.34302e-05
1.89168e-20
2.34302e-05
6.31732e-21
2.34302e-05
1.25911e-20
2.34302e-05
2.9085e-20
2.34302e-05
-2.73003e-20
2.34302e-05
-4.64065e-21
2.34302e-05
-9.66561e-21
2.34302e-05
-5.4948e-21
2.34302e-05
5.09553e-20
2.34302e-05
-5.3512e-20
2.34302e-05
-4.55341e-20
2.34302e-05
3.15171e-20
2.34302e-05
-2.79818e-20
2.34302e-05
2.32799e-20
2.34302e-05
-2.81123e-20
2.34302e-05
-7.38709e-20
2.34302e-05
2.20691e-20
2.34302e-05
3.24925e-20
2.34302e-05
4.22713e-20
2.34302e-05
-2.51754e-21
2.34302e-05
-2.51066e-20
2.34302e-05
-7.24328e-21
2.34302e-05
3.51531e-20
2.34302e-05
7.53958e-20
2.34302e-05
-2.57378e-20
2.34302e-05
-5.62066e-20
2.34302e-05
1.53261e-20
2.34302e-05
4.87301e-20
2.34302e-05
4.00039e-21
2.34302e-05
-3.54278e-20
2.34302e-05
2.19729e-20
2.34302e-05
-1.05933e-20
2.34302e-05
2.08311e-20
2.34302e-05
2.07244e-20
2.34302e-05
-6.11494e-20
2.34302e-05
1.86753e-20
2.34302e-05
-4.01538e-20
2.34302e-05
2.02995e-20
2.34302e-05
3.88553e-20
2.34302e-05
1.17368e-20
2.34302e-05
-5.23653e-20
2.34302e-05
-3.68795e-21
2.34302e-05
7.74726e-20
2.34302e-05
3.65734e-20
2.34302e-05
2.79034e-20
2.34302e-05
-1.44617e-19
2.34302e-05
2.10455e-20
2.34302e-05
1.14234e-19
2.34302e-05
2.59617e-20
2.34302e-05
-1.78303e-20
2.34302e-05
-1.06543e-19
2.34302e-05
-5.11412e-21
2.34302e-05
9.81882e-20
2.34302e-05
2.37118e-20
2.34302e-05
-5.87229e-20
2.34302e-05
-1.09874e-19
2.34302e-05
7.73568e-21
2.34302e-05
1.51266e-19
2.34302e-05
5.86378e-20
2.34302e-05
-7.36247e-20
2.34302e-05
-1.1733e-19
2.34302e-05
2.76528e-20
2.34302e-05
1.31325e-19
2.34302e-05
7.68599e-21
2.34302e-05
-4.37395e-20
2.34302e-05
-7.69957e-20
2.34302e-05
2.52463e-20
2.34302e-05
8.54975e-20
2.34302e-05
-1.57909e-20
2.34302e-05
-2.59561e-20
2.34302e-05
-8.31195e-20
2.34302e-05
-1.39028e-20
2.34302e-05
7.48499e-20
2.34302e-05
-1.01223e-20
2.34302e-05
-4.35402e-20
2.34302e-05
-6.97757e-20
2.34302e-05
3.88213e-20
2.34302e-05
5.53896e-20
2.34302e-05
-2.83403e-20
2.34302e-05
-2.70376e-21
2.34302e-05
-5.67568e-20
2.34302e-05
1.61211e-20
2.34302e-05
-3.34924e-22
2.34302e-05
-1.24901e-20
2.34302e-05
6.76033e-20
2.34302e-05
-8.21836e-20
2.34302e-05
-6.43468e-20
2.34302e-05
4.37517e-20
2.34302e-05
3.38505e-20
2.34302e-05
5.02602e-20
2.34302e-05
-4.12151e-20
2.34302e-05
-4.96912e-20
2.34302e-05
4.26614e-20
2.34302e-05
3.72525e-20
2.34302e-05
7.17151e-20
2.34302e-05
-9.21273e-20
2.34302e-05
-2.23168e-20
2.34302e-05
1.18115e-19
2.34302e-05
-7.37412e-20
2.34302e-05
5.6109e-20
2.34302e-05
3.17348e-21
2.34302e-05
-2.88981e-20
2.34302e-05
8.35043e-20
2.34302e-05
1.17546e-20
2.34302e-05
2.96563e-20
2.34302e-05
-6.04302e-20
2.34302e-05
3.84435e-20
2.34302e-05
6.02856e-20
2.34302e-05
-3.60655e-20
2.34302e-05
-2.7762e-20
2.34302e-05
-8.03164e-20
2.34302e-05
9.34632e-20
2.34302e-05
-1.6783e-20
2.34302e-05
-2.17408e-20
2.34302e-05
8.58264e-20
2.34302e-05
-1.57125e-19
2.34302e-05
6.11825e-21
2.34302e-05
7.11837e-20
2.34302e-05
-2.2689e-20
2.34302e-05
1.03168e-19
2.34302e-05
-9.6094e-20
2.34302e-05
-1.4641e-20
2.34302e-05
9.97874e-20
2.34302e-05
-8.35445e-20
2.34302e-05
4.23252e-20
2.34302e-05
-2.24705e-20
2.34302e-05
-7.60845e-20
2.34302e-05
1.16563e-19
2.34302e-05
-1.21422e-20
2.34302e-05
1.827e-20
2.34302e-05
-5.78204e-20
2.34302e-05
-3.1941e-20
2.34302e-05
1.31218e-19
2.34302e-05
-8.14875e-20
2.34302e-05
7.16996e-21
2.34302e-05
-6.10089e-20
2.34302e-05
-1.1914e-21
2.34302e-05
1.35317e-19
2.34302e-05
-6.54432e-20
2.34302e-05
-8.1555e-20
2.34302e-05
-5.23527e-20
2.34302e-05
6.28072e-20
2.34302e-05
8.8519e-20
2.34302e-05
-1.72544e-20
2.34302e-05
-5.94035e-20
2.34302e-05
-9.17012e-20
2.34302e-05
2.15599e-19
2.34302e-05
7.20355e-21
2.34302e-05
-2.17382e-19
2.34302e-05
1.91493e-19
2.34302e-05
3.32792e-21
2.34302e-05
-4.81558e-20
2.34302e-05
-2.97683e-20
2.34302e-05
-1.39933e-19
2.34302e-05
2.41587e-19
2.34302e-05
3.83859e-20
2.34302e-05
-9.50308e-20
2.34302e-05
-3.55096e-20
2.34302e-05
-1.48851e-19
2.34302e-05
2.38147e-19
2.34302e-05
-1.3108e-21
2.34302e-05
-1.01178e-19
2.34302e-05
6.18457e-20
2.34302e-05
-8.85525e-20
2.34302e-05
1.76646e-19
2.34302e-05
-2.74785e-20
2.34302e-05
-3.72215e-20
2.34302e-05
7.63427e-20
2.34302e-05
-1.65226e-19
2.34302e-05
6.34408e-20
2.34302e-05
2.5402e-20
2.34302e-05
6.24031e-20
2.34302e-05
1.05223e-19
2.34302e-05
-1.88657e-19
2.34302e-05
1.12378e-19
2.34302e-05
-5.11088e-20
2.34302e-05
1.70893e-20
2.34302e-05
1.17952e-19
2.34302e-05
-2.5572e-19
2.34302e-05
3.64962e-20
2.34302e-05
6.19483e-20
2.34302e-05
7.90259e-20
2.34302e-05
2.3818e-20
2.34302e-05
-1.95217e-19
2.34302e-05
1.82308e-19
2.34302e-05
-2.62379e-20
2.34302e-05
-1.30533e-19
2.34302e-05
-2.06733e-20
2.34302e-05
-1.3285e-19
2.34302e-05
2.63057e-19
2.34302e-05
-2.77658e-20
2.34302e-05
-5.59344e-20
2.34302e-05
8.41071e-20
2.34302e-05
-1.80566e-19
2.34302e-05
9.90488e-20
2.34302e-05
1.76534e-20
2.34302e-05
-2.94861e-20
2.34302e-05
2.80996e-20
2.34302e-05
-1.14636e-19
2.34302e-05
1.72874e-19
2.34302e-05
1.30516e-20
2.34302e-05
-3.26378e-20
2.34302e-05
1.10827e-20
2.34302e-05
-1.37461e-19
2.34302e-05
1.17881e-19
2.34302e-05
5.17e-21
2.34302e-05
-2.97276e-21
2.34302e-05
-6.07501e-21
2.34302e-05
-1.49443e-19
2.34302e-05
1.01855e-19
2.34302e-05
2.56038e-21
2.34302e-05
-5.06282e-20
2.34302e-05
7.89881e-20
2.34302e-05
-1.2831e-19
2.34302e-05
6.09846e-20
2.34302e-05
4.53267e-20
2.34302e-05
-3.37712e-20
2.34302e-05
3.54485e-20
2.34302e-05
-1.17061e-19
2.34302e-05
6.39782e-20
2.34302e-05
1.03982e-19
2.34302e-05
-1.31182e-20
2.34302e-05
-9.4432e-20
2.34302e-05
-9.56094e-20
2.34302e-05
1.40728e-19
2.34302e-05
1.39181e-20
2.34302e-05
-6.53664e-20
2.34302e-05
-4.08895e-20
2.34302e-05
-3.26472e-20
2.34302e-05
1.38106e-19
2.34302e-05
-6.53194e-21
2.34302e-05
-2.64522e-20
2.34302e-05
-9.15535e-20
2.34302e-05
-2.94642e-20
2.34302e-05
1.46772e-19
2.34302e-05
4.0333e-20
2.34302e-05
4.67573e-20
2.34302e-05
-1.08183e-19
2.34302e-05
-9.18255e-20
2.34302e-05
8.8922e-20
2.34302e-05
9.48925e-21
2.34302e-05
6.3398e-20
2.34302e-05
-1.25645e-19
2.34302e-05
6.59091e-21
2.34302e-05
5.89244e-20
2.34302e-05
-1.02853e-19
2.34302e-05
1.0965e-19
2.34302e-05
-4.11244e-20
2.34302e-05
-9.06942e-20
2.34302e-05
4.45524e-20
2.34302e-05
-7.91304e-20
2.34302e-05
6.09255e-20
2.34302e-05
-6.87128e-20
-4.98772e-19
6.91191e-05
-1.59816e-18
6.91191e-05
-5.11724e-19
6.91191e-05
-1.93332e-19
6.91191e-05
-1.06399e-19
6.91191e-05
-5.81041e-20
6.91191e-05
-1.54705e-20
6.91191e-05
-3.87123e-20
6.91191e-05
9.2716e-21
6.91191e-05
2.7493e-20
6.91191e-05
-9.18678e-21
6.91191e-05
-1.74407e-21
6.91191e-05
2.34321e-20
6.91191e-05
1.08016e-19
6.91191e-05
2.88599e-20
6.91191e-05
-3.7718e-20
6.91191e-05
4.85761e-20
6.91191e-05
6.7072e-20
6.91191e-05
3.74675e-20
6.91191e-05
4.47211e-21
6.91191e-05
1.9258e-20
6.91191e-05
6.1495e-20
6.91191e-05
2.37673e-20
6.91191e-05
-4.86579e-20
6.91191e-05
-3.5733e-20
6.91191e-05
-5.95795e-20
6.91191e-05
-4.17031e-20
6.91191e-05
1.96215e-20
6.91191e-05
-7.20307e-20
6.91191e-05
-1.2094e-19
6.91191e-05
-9.46028e-20
6.91191e-05
4.6511e-21
6.91191e-05
9.52708e-20
6.91191e-05
1.35675e-20
6.91191e-05
-2.67115e-20
6.91191e-05
-9.15253e-21
6.91191e-05
1.3138e-21
6.91191e-05
5.07875e-20
6.91191e-05
-2.47352e-20
6.91191e-05
-7.76775e-20
6.91191e-05
8.85321e-21
6.91191e-05
-2.72748e-20
6.91191e-05
1.69072e-20
6.91191e-05
2.5424e-20
6.91191e-05
-5.29109e-20
6.91191e-05
7.48337e-21
6.91191e-05
-5.66221e-21
6.91191e-05
-2.38401e-20
6.91191e-05
-4.85972e-20
6.91191e-05
-5.90972e-20
6.91191e-05
-7.23916e-20
6.91191e-05
-8.83093e-20
6.91191e-05
-1.45833e-20
6.91191e-05
-4.70878e-20
6.91191e-05
-5.69132e-20
6.91191e-05
2.58513e-20
6.91191e-05
-9.20433e-20
6.91191e-05
-1.33185e-20
6.91191e-05
-2.34295e-20
6.91191e-05
-5.04388e-21
6.91191e-05
2.51328e-20
6.91191e-05
-1.47429e-19
6.91191e-05
7.77833e-20
6.91191e-05
-7.81911e-21
6.91191e-05
1.17876e-20
6.91191e-05
1.45098e-19
6.91191e-05
-3.82132e-20
6.91191e-05
6.13498e-20
6.91191e-05
2.90068e-20
6.91191e-05
3.59925e-20
6.91191e-05
8.74727e-20
6.91191e-05
-6.22659e-20
6.91191e-05
-3.884e-22
6.91191e-05
-3.57039e-20
6.91191e-05
-4.24412e-21
6.91191e-05
9.67056e-20
6.91191e-05
-1.30699e-19
6.91191e-05
-1.14339e-19
6.91191e-05
2.79252e-20
6.91191e-05
-7.65192e-20
6.91191e-05
3.05618e-20
6.91191e-05
-6.37965e-20
6.91191e-05
-1.68049e-19
6.91191e-05
3.22942e-20
6.91191e-05
9.09578e-20
6.91191e-05
8.21263e-20
6.91191e-05
-5.88566e-21
6.91191e-05
-1.66887e-21
6.91191e-05
8.69724e-21
6.91191e-05
6.6584e-20
6.91191e-05
2.04778e-19
6.91191e-05
-4.62827e-20
6.91191e-05
-1.24639e-19
6.91191e-05
2.64444e-20
6.91191e-05
9.18931e-20
6.91191e-05
2.91211e-20
6.91191e-05
-6.51258e-20
6.91191e-05
4.97016e-20
6.91191e-05
-5.97565e-21
6.91191e-05
1.33234e-20
6.91191e-05
3.41589e-20
6.91191e-05
-1.1528e-19
6.91191e-05
2.34547e-21
6.91191e-05
-7.88686e-20
6.91191e-05
4.43878e-20
6.91191e-05
1.15541e-19
6.91191e-05
6.62439e-20
6.91191e-05
-1.09042e-19
6.91191e-05
-5.53205e-20
6.91191e-05
2.37258e-19
6.91191e-05
1.7354e-19
6.91191e-05
4.6342e-21
6.91191e-05
-3.09537e-19
6.91191e-05
5.47975e-20
6.91191e-05
2.5644e-19
6.91191e-05
7.60627e-20
6.91191e-05
-4.15468e-20
6.91191e-05
-2.59273e-19
6.91191e-05
-6.5871e-20
6.91191e-05
2.48314e-19
6.91191e-05
9.71003e-20
6.91191e-05
-1.96116e-19
6.91191e-05
-2.73027e-19
6.91191e-05
1.11724e-20
6.91191e-05
3.46519e-19
6.91191e-05
1.86874e-19
6.91191e-05
-1.75619e-19
6.91191e-05
-3.08348e-19
6.91191e-05
9.34651e-20
6.91191e-05
3.37467e-19
6.91191e-05
1.13926e-20
6.91191e-05
-1.14118e-19
6.91191e-05
-1.80521e-19
6.91191e-05
5.1589e-20
6.91191e-05
2.06993e-19
6.91191e-05
-2.3472e-20
6.91191e-05
-8.86815e-20
6.91191e-05
-2.28686e-19
6.91191e-05
-6.94289e-20
6.91191e-05
1.8224e-19
6.91191e-05
-1.55422e-20
6.91191e-05
-1.34392e-19
6.91191e-05
-1.76805e-19
6.91191e-05
5.7751e-20
6.91191e-05
1.38489e-19
6.91191e-05
-3.60149e-20
6.91191e-05
-5.21135e-20
6.91191e-05
-1.59393e-19
6.91191e-05
7.66675e-20
6.91191e-05
1.03338e-20
6.91191e-05
-3.62535e-20
6.91191e-05
1.10897e-19
6.91191e-05
-1.88441e-19
6.91191e-05
-1.4215e-19
6.91191e-05
6.77895e-20
6.91191e-05
9.02204e-20
6.91191e-05
1.19683e-19
6.91191e-05
-7.3726e-20
6.91191e-05
-1.09463e-19
6.91191e-05
1.13882e-19
6.91191e-05
1.34852e-19
6.91191e-05
1.53287e-19
6.91191e-05
-1.95483e-19
6.91191e-05
-1.97385e-20
6.91191e-05
2.48686e-19
6.91191e-05
-1.25072e-19
6.91191e-05
7.39296e-20
6.91191e-05
6.31977e-20
6.91191e-05
1.36214e-21
6.91191e-05
1.97228e-19
6.91191e-05
9.00573e-20
6.91191e-05
3.57202e-20
6.91191e-05
-1.20468e-19
6.91191e-05
9.71898e-20
6.91191e-05
1.60683e-19
6.91191e-05
-4.49273e-20
6.91191e-05
-1.2554e-19
6.91191e-05
-1.6387e-19
6.91191e-05
1.26209e-19
6.91191e-05
-3.40354e-20
6.91191e-05
5.92064e-20
6.91191e-05
9.45089e-20
6.91191e-05
-3.59204e-19
6.91191e-05
-1.86782e-21
6.91191e-05
1.90236e-19
6.91191e-05
1.79943e-20
6.91191e-05
1.72233e-19
6.91191e-05
-1.98318e-19
6.91191e-05
-3.62812e-20
6.91191e-05
2.0028e-19
6.91191e-05
-1.27643e-19
6.91191e-05
3.92647e-20
6.91191e-05
-3.28186e-20
6.91191e-05
-1.27914e-19
6.91191e-05
1.96423e-19
6.91191e-05
5.99178e-20
6.91191e-05
3.14893e-20
6.91191e-05
-1.31881e-19
6.91191e-05
-7.70358e-20
6.91191e-05
1.97031e-19
6.91191e-05
-9.87273e-20
6.91191e-05
-2.12528e-20
6.91191e-05
-1.29361e-19
6.91191e-05
2.7677e-20
6.91191e-05
1.99228e-19
6.91191e-05
-1.10862e-19
6.91191e-05
-1.45918e-19
6.91191e-05
-1.52391e-19
6.91191e-05
1.20329e-19
6.91191e-05
1.49901e-19
6.91191e-05
-1.72413e-20
6.91191e-05
-6.65108e-20
6.91191e-05
-1.55715e-19
6.91191e-05
4.39565e-19
6.91191e-05
2.5068e-20
6.91191e-05
-3.99468e-19
6.91191e-05
3.43186e-19
6.91191e-05
-2.82473e-20
6.91191e-05
-3.98511e-20
6.91191e-05
-9.28047e-20
6.91191e-05
-2.96474e-19
6.91191e-05
5.06499e-19
6.91191e-05
7.00665e-20
6.91191e-05
-1.67965e-19
6.91191e-05
-8.85043e-20
6.91191e-05
-3.40168e-19
6.91191e-05
4.98322e-19
6.91191e-05
4.8644e-20
6.91191e-05
-1.98958e-19
6.91191e-05
1.16236e-19
6.91191e-05
-1.4545e-19
6.91191e-05
4.08848e-19
6.91191e-05
-1.14984e-20
6.91191e-05
-7.3176e-20
6.91191e-05
1.08768e-19
6.91191e-05
-3.50231e-19
6.91191e-05
1.26204e-19
6.91191e-05
6.2059e-20
6.91191e-05
2.28915e-19
6.91191e-05
2.40472e-19
6.91191e-05
-4.0361e-19
6.91191e-05
1.78281e-19
6.91191e-05
-1.01374e-19
6.91191e-05
7.0444e-20
6.91191e-05
2.11542e-19
6.91191e-05
-5.94828e-19
6.91191e-05
9.93162e-20
6.91191e-05
1.50877e-19
6.91191e-05
1.89667e-19
6.91191e-05
5.47675e-20
6.91191e-05
-4.19603e-19
6.91191e-05
4.04705e-19
6.91191e-05
-6.54491e-20
6.91191e-05
-3.53695e-19
6.91191e-05
-1.582e-19
6.91191e-05
-2.4796e-19
6.91191e-05
6.27232e-19
6.91191e-05
-3.11694e-20
6.91191e-05
-1.32709e-19
6.91191e-05
1.57205e-19
6.91191e-05
-3.8429e-19
6.91191e-05
1.99848e-19
6.91191e-05
3.31001e-20
6.91191e-05
-1.48016e-20
6.91191e-05
4.1624e-20
6.91191e-05
-2.19337e-19
6.91191e-05
4.19885e-19
6.91191e-05
-1.04525e-20
6.91191e-05
-4.20434e-20
6.91191e-05
-5.29111e-21
6.91191e-05
-3.18731e-19
6.91191e-05
2.89213e-19
6.91191e-05
2.26762e-20
6.91191e-05
1.55536e-20
6.91191e-05
-5.31636e-20
6.91191e-05
-3.95129e-19
6.91191e-05
2.59272e-19
6.91191e-05
-1.48564e-20
6.91191e-05
-6.99998e-20
6.91191e-05
1.3915e-19
6.91191e-05
-3.53612e-19
6.91191e-05
1.82826e-19
6.91191e-05
5.69351e-20
6.91191e-05
-1.77183e-20
6.91191e-05
1.01767e-19
6.91191e-05
-3.33471e-19
6.91191e-05
2.15059e-19
6.91191e-05
2.35276e-19
6.91191e-05
-6.17959e-20
6.91191e-05
-2.13149e-19
6.91191e-05
-2.34673e-19
6.91191e-05
3.186e-19
6.91191e-05
1.52813e-20
6.91191e-05
-1.7801e-19
6.91191e-05
-2.04205e-20
6.91191e-05
-1.14946e-19
6.91191e-05
2.67893e-19
6.91191e-05
1.06454e-19
6.91191e-05
-1.64079e-19
6.91191e-05
-1.44764e-19
6.91191e-05
-1.18016e-19
6.91191e-05
3.48154e-19
6.91191e-05
2.45235e-19
6.91191e-05
5.98599e-20
6.91191e-05
-2.68819e-19
6.91191e-05
-2.30507e-19
6.91191e-05
2.42943e-19
6.91191e-05
3.79899e-20
6.91191e-05
6.58938e-20
6.91191e-05
-2.67412e-19
6.91191e-05
-1.37939e-20
6.91191e-05
1.4551e-19
6.91191e-05
-2.01427e-19
6.91191e-05
1.46359e-19
6.91191e-05
-5.06003e-20
6.91191e-05
-2.18805e-19
6.91191e-05
8.80905e-21
6.91191e-05
-1.93086e-19
6.91191e-05
1.26278e-19
6.91191e-05
-2.08131e-19
-7.15913e-19
0.000113636
-1.11094e-18
0.000113636
-4.87768e-19
0.000113636
-2.7169e-19
0.000113636
-1.95026e-19
0.000113636
-8.84875e-20
0.000113636
-4.01839e-20
0.000113636
-4.28408e-20
0.000113636
2.57532e-20
0.000113636
5.97468e-20
0.000113636
3.86173e-20
0.000113636
1.39993e-21
0.000113636
6.52972e-20
0.000113636
1.56619e-19
0.000113636
3.36903e-20
0.000113636
-5.07632e-20
0.000113636
8.09176e-20
0.000113636
1.12803e-19
0.000113636
9.92099e-20
0.000113636
4.57825e-20
0.000113636
8.07784e-20
0.000113636
5.82062e-20
0.000113636
3.78896e-21
0.000113636
-7.85629e-20
0.000113636
-8.26419e-20
0.000113636
-9.13327e-20
0.000113636
-7.50795e-20
0.000113636
-1.98876e-20
0.000113636
-1.38184e-19
0.000113636
-2.36581e-19
0.000113636
-1.77651e-19
0.000113636
1.21869e-20
0.000113636
1.41105e-19
0.000113636
5.05832e-20
0.000113636
-3.75318e-20
0.000113636
-4.2005e-20
0.000113636
-5.7596e-21
0.000113636
6.59675e-20
0.000113636
-3.53511e-20
0.000113636
-1.29389e-19
0.000113636
-8.9244e-21
0.000113636
-1.3664e-20
0.000113636
1.67646e-20
0.000113636
1.74068e-20
0.000113636
-6.97001e-20
0.000113636
-2.25734e-20
0.000113636
-3.24073e-21
0.000113636
-1.93032e-20
0.000113636
-9.82285e-20
0.000113636
-1.52847e-19
0.000113636
-1.30621e-19
0.000113636
-1.65698e-19
0.000113636
-4.0022e-20
0.000113636
-8.65118e-20
0.000113636
-1.16207e-19
0.000113636
-2.98396e-21
0.000113636
-1.65771e-19
0.000113636
-5.8923e-20
0.000113636
-3.40589e-20
0.000113636
-1.71028e-21
0.000113636
3.68477e-20
0.000113636
-2.04398e-19
0.000113636
1.06002e-19
0.000113636
-2.94081e-21
0.000113636
3.44838e-20
0.000113636
2.17423e-19
0.000113636
-3.93945e-20
0.000113636
1.15489e-19
0.000113636
8.34864e-20
0.000113636
8.1638e-20
0.000113636
1.38557e-19
0.000113636
-8.60127e-20
0.000113636
-1.84894e-20
0.000113636
-4.40794e-20
0.000113636
3.5897e-20
0.000113636
1.05595e-19
0.000113636
-2.22281e-19
0.000113636
-1.92766e-19
0.000113636
-3.25567e-20
0.000113636
-1.32788e-19
0.000113636
1.54861e-20
0.000113636
-1.02732e-19
0.000113636
-2.36242e-19
0.000113636
6.42169e-21
0.000113636
1.90732e-19
0.000113636
1.73606e-19
0.000113636
1.11024e-20
0.000113636
6.60565e-21
0.000113636
4.09831e-20
0.000113636
9.04279e-20
0.000113636
3.1309e-19
0.000113636
-2.73125e-20
0.000113636
-1.13305e-19
0.000113636
3.74189e-20
0.000113636
1.01937e-19
0.000113636
5.63175e-20
0.000113636
-5.53593e-20
0.000113636
4.94903e-20
0.000113636
1.35416e-20
0.000113636
6.21149e-21
0.000113636
-1.51111e-20
0.000113636
-9.595e-20
0.000113636
-3.53003e-20
0.000113636
-9.75313e-20
0.000113636
3.2003e-20
0.000113636
1.72225e-19
0.000113636
1.46606e-19
0.000113636
-1.32237e-19
0.000113636
-5.67226e-20
0.000113636
3.83419e-19
0.000113636
3.40854e-19
0.000113636
-2.93373e-20
0.000113636
-4.29949e-19
0.000113636
7.88786e-20
0.000113636
4.03685e-19
0.000113636
1.6509e-19
0.000113636
-5.58452e-20
0.000113636
-4.42518e-19
0.000113636
-1.55092e-19
0.000113636
4.01385e-19
0.000113636
1.70041e-19
0.000113636
-3.67822e-19
0.000113636
-4.63599e-19
0.000113636
1.56962e-20
0.000113636
5.83266e-19
0.000113636
3.4593e-19
0.000113636
-2.56709e-19
0.000113636
-4.70879e-19
0.000113636
1.41995e-19
0.000113636
5.13286e-19
0.000113636
5.46604e-20
0.000113636
-1.88636e-19
0.000113636
-2.53432e-19
0.000113636
3.29601e-20
0.000113636
3.06068e-19
0.000113636
-9.14989e-21
0.000113636
-1.87658e-19
0.000113636
-3.72611e-19
0.000113636
-1.21307e-19
0.000113636
2.7999e-19
0.000113636
-6.71622e-21
0.000113636
-2.4139e-19
0.000113636
-3.18509e-19
0.000113636
8.19611e-20
0.000113636
1.68364e-19
0.000113636
-7.40484e-20
0.000113636
-9.65713e-20
0.000113636
-2.73801e-19
0.000113636
9.00419e-20
0.000113636
4.38744e-20
0.000113636
-1.11551e-19
0.000113636
1.43269e-19
0.000113636
-2.38666e-19
0.000113636
-2.24117e-19
0.000113636
6.2851e-20
0.000113636
1.6551e-19
0.000113636
1.85573e-19
0.000113636
-9.23323e-20
0.000113636
-1.33878e-19
0.000113636
1.65917e-19
0.000113636
2.64504e-19
0.000113636
2.12522e-19
0.000113636
-2.4054e-19
0.000113636
3.88622e-20
0.000113636
3.44548e-19
0.000113636
-1.46968e-19
0.000113636
1.26732e-19
0.000113636
1.57872e-19
0.000113636
1.59786e-19
0.000113636
2.89591e-19
0.000113636
1.30459e-19
0.000113636
5.28304e-20
0.000113636
-1.54652e-19
0.000113636
1.27082e-19
0.000113636
2.864e-19
0.000113636
-5.56291e-20
0.000113636
-2.33976e-19
0.000113636
-2.54651e-19
0.000113636
7.46296e-20
0.000113636
-2.98994e-20
0.000113636
1.56842e-19
0.000113636
8.41452e-20
0.000113636
-5.45848e-19
0.000113636
-4.72712e-20
0.000113636
2.98841e-19
0.000113636
1.0084e-19
0.000113636
1.80558e-19
0.000113636
-2.29598e-19
0.000113636
-3.6745e-20
0.000113636
2.50244e-19
0.000113636
-1.26312e-19
0.000113636
-3.17847e-20
0.000113636
-5.4119e-20
0.000113636
-1.1289e-19
0.000113636
2.10976e-19
0.000113636
1.75283e-19
0.000113636
7.46121e-20
0.000113636
-1.70501e-19
0.000113636
-1.15923e-19
0.000113636
1.80215e-19
0.000113636
-8.84435e-20
0.000113636
-8.21293e-20
0.000113636
-1.54459e-19
0.000113636
7.52363e-20
0.000113636
2.00998e-19
0.000113636
-1.34082e-19
0.000113636
-1.9787e-19
0.000113636
-2.20356e-19
0.000113636
1.29266e-19
0.000113636
1.56995e-19
0.000113636
1.44566e-21
0.000113636
-1.73777e-20
0.000113636
-2.10493e-19
0.000113636
5.61267e-19
0.000113636
8.51222e-20
0.000113636
-4.61778e-19
0.000113636
4.08741e-19
0.000113636
-7.93332e-20
0.000113636
1.18946e-20
0.000113636
-1.61529e-19
0.000113636
-4.3212e-19
0.000113636
6.97146e-19
0.000113636
7.24001e-20
0.000113636
-1.41699e-19
0.000113636
-1.33454e-19
0.000113636
-5.11694e-19
0.000113636
6.79702e-19
0.000113636
1.15674e-19
0.000113636
-2.38373e-19
0.000113636
1.50528e-19
0.000113636
-1.46779e-19
0.000113636
6.23253e-19
0.000113636
6.25203e-20
0.000113636
-1.42565e-19
0.000113636
1.1333e-19
0.000113636
-4.54381e-19
0.000113636
1.33439e-19
0.000113636
6.63629e-20
0.000113636
4.79103e-19
0.000113636
4.02699e-19
0.000113636
-5.68441e-19
0.000113636
2.16624e-19
0.000113636
-1.56085e-19
0.000113636
1.59086e-19
0.000113636
2.71456e-19
0.000113636
-8.92619e-19
0.000113636
1.27717e-19
0.000113636
1.78832e-19
0.000113636
2.6587e-19
0.000113636
1.07994e-19
0.000113636
-5.7422e-19
0.000113636
5.74029e-19
0.000113636
-1.51349e-19
0.000113636
-6.12642e-19
0.000113636
-3.3394e-19
0.000113636
-2.87606e-19
0.000113636
9.31666e-19
0.000113636
4.07006e-21
0.000113636
-1.52987e-19
0.000113636
2.00819e-19
0.000113636
-5.65435e-19
0.000113636
2.48035e-19
0.000113636
4.11517e-20
0.000113636
9.43435e-20
0.000113636
3.95686e-20
0.000113636
-3.15355e-19
0.000113636
6.35255e-19
0.000113636
-3.40162e-20
0.000113636
-7.29923e-20
0.000113636
-1.62474e-20
0.000113636
-4.96358e-19
0.000113636
4.32269e-19
0.000113636
2.7707e-20
0.000113636
2.43856e-20
0.000113636
-9.46225e-20
0.000113636
-6.13712e-19
0.000113636
4.04943e-19
0.000113636
-3.48599e-20
0.000113636
-3.82001e-20
0.000113636
1.31431e-19
0.000113636
-5.74849e-19
0.000113636
2.9409e-19
0.000113636
2.77248e-20
0.000113636
3.58854e-20
0.000113636
1.70423e-19
0.000113636
-5.40961e-19
0.000113636
4.07672e-19
0.000113636
3.58238e-19
0.000113636
-1.92608e-19
0.000113636
-3.04586e-19
0.000113636
-3.62369e-19
0.000113636
4.61834e-19
0.000113636
2.82088e-20
0.000113636
-2.63102e-19
0.000113636
1.94195e-20
0.000113636
-2.02945e-19
0.000113636
3.66525e-19
0.000113636
2.59626e-19
0.000113636
-2.91702e-19
0.000113636
-2.02247e-19
0.000113636
-1.93722e-19
0.000113636
5.23178e-19
0.000113636
4.90398e-19
0.000113636
4.00274e-20
0.000113636
-4.14025e-19
0.000113636
-3.43198e-19
0.000113636
3.96889e-19
0.000113636
3.64309e-20
0.000113636
-2.291e-20
0.000113636
-3.31645e-19
0.000113636
-7.70211e-20
0.000113636
2.57401e-19
0.000113636
-2.91843e-19
0.000113636
7.0852e-20
0.000113636
-7.35729e-21
0.000113636
-3.62136e-19
0.000113636
-4.62901e-20
0.000113636
-2.5797e-19
0.000113636
1.34634e-19
0.000113636
-2.766e-19
-8.02798e-19
0.000156982
-8.29449e-19
0.000156982
-4.94424e-19
0.000156982
-3.10651e-19
0.000156982
-2.11399e-19
0.000156982
-1.23155e-19
0.000156982
-6.58682e-20
0.000156982
-5.74616e-20
0.000156982
3.61602e-20
0.000156982
1.00831e-19
0.000156982
5.1005e-20
0.000156982
2.33527e-20
0.000156982
1.04622e-19
0.000156982
2.22174e-19
0.000156982
8.42682e-20
0.000156982
-3.92557e-20
0.000156982
1.0682e-19
0.000156982
2.10769e-19
0.000156982
1.56171e-19
0.000156982
9.95346e-20
0.000156982
5.26002e-20
0.000156982
1.3109e-19
0.000156982
1.59395e-20
0.000156982
-1.2023e-19
0.000156982
-1.52152e-19
0.000156982
-1.55343e-19
0.000156982
-1.23133e-19
0.000156982
-7.65374e-20
0.000156982
-2.15829e-19
0.000156982
-3.3075e-19
0.000156982
-2.59797e-19
0.000156982
2.28363e-20
0.000156982
1.9224e-19
0.000156982
5.60371e-20
0.000156982
-1.76732e-20
0.000156982
-6.05386e-20
0.000156982
-5.24805e-20
0.000156982
5.30494e-20
0.000156982
-1.31572e-20
0.000156982
-1.65451e-19
0.000156982
-4.9542e-20
0.000156982
-5.77427e-20
0.000156982
5.13754e-21
0.000156982
2.23996e-20
0.000156982
-1.11087e-19
0.000156982
-3.00602e-20
0.000156982
2.49356e-20
0.000156982
-4.35368e-20
0.000156982
-1.14606e-19
0.000156982
-2.3148e-19
0.000156982
-2.46993e-19
0.000156982
-2.25798e-19
0.000156982
-1.36601e-19
0.000156982
-1.48913e-19
0.000156982
-1.44872e-19
0.000156982
-4.5214e-20
0.000156982
-2.28584e-19
0.000156982
-1.25978e-19
0.000156982
-8.6576e-20
0.000156982
-5.24683e-20
0.000156982
1.22468e-20
0.000156982
-2.16011e-19
0.000156982
1.29678e-19
0.000156982
2.41368e-20
0.000156982
5.60289e-20
0.000156982
2.47065e-19
0.000156982
-1.45994e-20
0.000156982
1.8595e-19
0.000156982
1.11608e-19
0.000156982
1.62528e-19
0.000156982
1.75804e-19
0.000156982
-8.77917e-20
0.000156982
-3.78161e-20
0.000156982
-5.58191e-20
0.000156982
6.54901e-20
0.000156982
9.03382e-20
0.000156982
-2.8603e-19
0.000156982
-2.73604e-19
0.000156982
-1.31459e-19
0.000156982
-1.97521e-19
0.000156982
-1.50221e-20
0.000156982
-1.48225e-19
0.000156982
-2.92649e-19
0.000156982
4.52542e-20
0.000156982
2.83955e-19
0.000156982
2.4228e-19
0.000156982
-3.27061e-21
0.000156982
5.54274e-20
0.000156982
1.0032e-19
0.000156982
1.51562e-19
0.000156982
3.76371e-19
0.000156982
1.10297e-20
0.000156982
-1.65766e-19
0.000156982
7.53362e-20
0.000156982
1.56348e-19
0.000156982
1.27515e-19
0.000156982
-7.65158e-20
0.000156982
6.75553e-20
0.000156982
4.92929e-20
0.000156982
-5.69213e-20
0.000156982
-3.70119e-20
0.000156982
-9.15083e-20
0.000156982
-7.57919e-20
0.000156982
-1.45952e-19
0.000156982
6.1934e-20
0.000156982
2.0703e-19
0.000156982
2.20315e-19
0.000156982
-1.23538e-19
0.000156982
-4.23238e-20
0.000156982
5.25843e-19
0.000156982
4.77421e-19
0.000156982
3.82967e-20
0.000156982
-4.9479e-19
0.000156982
5.2176e-20
0.000156982
5.15671e-19
0.000156982
3.04592e-19
0.000156982
-1.055e-19
0.000156982
-5.52694e-19
0.000156982
-2.32843e-19
0.000156982
4.8658e-19
0.000156982
1.60762e-19
0.000156982
-5.05378e-19
0.000156982
-6.4977e-19
0.000156982
-1.15215e-22
0.000156982
7.50723e-19
0.000156982
4.93712e-19
0.000156982
-2.62518e-19
0.000156982
-5.55903e-19
0.000156982
2.15048e-19
0.000156982
6.56258e-19
0.000156982
1.05293e-19
0.000156982
-2.51602e-19
0.000156982
-3.67645e-19
0.000156982
2.54987e-20
0.000156982
3.84303e-19
0.000156982
3.11869e-20
0.000156982
-2.8858e-19
0.000156982
-5.20317e-19
0.000156982
-1.64111e-19
0.000156982
3.38769e-19
0.000156982
-2.75525e-20
0.000156982
-3.61123e-19
0.000156982
-4.33645e-19
0.000156982
4.60091e-20
0.000156982
1.75122e-19
0.000156982
-8.79587e-20
0.000156982
-1.65385e-19
0.000156982
-3.40901e-19
0.000156982
3.30065e-20
0.000156982
4.33731e-20
0.000156982
-1.41346e-19
0.000156982
1.68355e-19
0.000156982
-2.32531e-19
0.000156982
-2.6651e-19
0.000156982
-1.11039e-20
0.000156982
2.27804e-19
0.000156982
2.15942e-19
0.000156982
-1.24168e-19
0.000156982
-7.07709e-20
0.000156982
2.27423e-19
0.000156982
3.46804e-19
0.000156982
2.52839e-19
0.000156982
-2.41879e-19
0.000156982
1.01945e-19
0.000156982
4.37592e-19
0.000156982
-8.5595e-20
0.000156982
2.0165e-19
0.000156982
2.97043e-19
0.000156982
3.19376e-19
0.000156982
4.00718e-19
0.000156982
1.87043e-19
0.000156982
8.37136e-20
0.000156982
-2.64334e-19
0.000156982
2.42419e-19
0.000156982
4.24698e-19
0.000156982
-1.67837e-19
0.000156982
-2.9987e-19
0.000156982
-3.21177e-19
0.000156982
2.02957e-20
0.000156982
-8.0775e-21
0.000156982
2.37556e-19
0.000156982
5.69995e-20
0.000156982
-7.0405e-19
0.000156982
-9.75895e-20
0.000156982
3.91096e-19
0.000156982
2.1578e-19
0.000156982
1.7001e-19
0.000156982
-3.20729e-19
0.000156982
3.68927e-20
0.000156982
3.09117e-19
0.000156982
-1.49464e-19
0.000156982
-1.04227e-19
0.000156982
-5.35967e-20
0.000156982
-4.44466e-20
0.000156982
2.48723e-19
0.000156982
2.32709e-19
0.000156982
1.63894e-19
0.000156982
-2.13694e-19
0.000156982
-2.07704e-19
0.000156982
1.95689e-19
0.000156982
-8.45589e-20
0.000156982
-1.52613e-19
0.000156982
-1.88978e-19
0.000156982
8.89875e-20
0.000156982
1.75098e-19
0.000156982
-1.23897e-19
0.000156982
-2.50795e-19
0.000156982
-2.88081e-19
0.000156982
1.16418e-19
0.000156982
1.57679e-19
0.000156982
9.31485e-20
0.000156982
2.65873e-20
0.000156982
-2.48441e-19
0.000156982
6.50412e-19
0.000156982
1.01713e-19
0.000156982
-5.3291e-19
0.000156982
4.7455e-19
0.000156982
-9.62895e-20
0.000156982
4.83594e-20
0.000156982
-1.88915e-19
0.000156982
-5.13196e-19
0.000156982
8.00536e-19
0.000156982
4.57217e-20
0.000156982
-1.15869e-19
0.000156982
-8.52432e-20
0.000156982
-6.0747e-19
0.000156982
6.98417e-19
0.000156982
1.78674e-19
0.000156982
-1.66276e-19
0.000156982
1.85851e-19
0.000156982
-1.21545e-19
0.000156982
8.00081e-19
0.000156982
1.47248e-19
0.000156982
-2.00061e-19
0.000156982