/*--------------------------------*- C++ -*----------------------------------*\
| =========                 |                                                 |
| \\      /  F ield         | OpenFOAM: The Open Source CFD Toolbox           |
|  \\    /   O peration     | Version:  2112                                  |
|   \\  /    A nd           | Website:  www.openfoam.com                      |
|    \\/     M anipulation  |                                                 |
\*---------------------------------------------------------------------------*/
FoamFile
{
    version     2.0;
    format      ascii;
    arch        "LSB;label=32;scalar=64";
    class       surfaceScalarField;
    location    "5";
    object      phi;
}
// * * * * * * * * * * * * * * * * * * * * * * * * * * * * * * * * * * * * * //

dimensions      [0 3 -1 0 0 0 0];

oriented        oriented;

internalField   nonuniform List<scalar> 
99400
(
3.07031e-05
-1.25684e-17
3.07031e-05
-2.46755e-18
3.07031e-05
-6.98898e-19
3.07031e-05
-2.85138e-19
3.07031e-05
-1.47001e-19
3.07031e-05
-9.7498e-20
3.07031e-05
-7.35296e-20
3.07031e-05
-5.68029e-20
3.07031e-05
-5.47989e-20
3.07031e-05
-3.93009e-20
3.07031e-05
-4.51583e-20
3.07031e-05
-4.35945e-20
3.07031e-05
-2.63468e-20
3.07031e-05
-1.44933e-20
3.07031e-05
-8.40635e-21
3.07031e-05
-1.40046e-20
3.07031e-05
-2.95312e-20
3.07031e-05
-2.45267e-20
3.07031e-05
-1.0003e-20
3.07031e-05
-1.53185e-21
3.07031e-05
1.41616e-21
3.07031e-05
7.72173e-21
3.07031e-05
2.36229e-20
3.07031e-05
5.54304e-21
3.07031e-05
-3.60601e-20
3.07031e-05
-4.08044e-20
3.07031e-05
-1.10121e-20
3.07031e-05
3.04501e-20
3.07031e-05
-4.23075e-20
3.07031e-05
-1.34942e-20
3.07031e-05
1.55994e-21
3.07031e-05
-1.7127e-20
3.07031e-05
-9.49242e-21
3.07031e-05
-1.38017e-20
3.07031e-05
-2.94116e-20
3.07031e-05
-1.30966e-21
3.07031e-05
-3.5028e-20
3.07031e-05
-1.83246e-20
3.07031e-05
-4.5188e-22
3.07031e-05
-3.44232e-20
3.07031e-05
2.99476e-21
3.07031e-05
-2.64916e-20
3.07031e-05
5.64226e-21
3.07031e-05
3.56929e-20
3.07031e-05
-4.49244e-21
3.07031e-05
3.60901e-20
3.07031e-05
4.61499e-20
3.07031e-05
-4.48845e-20
3.07031e-05
-1.75448e-20
3.07031e-05
5.65681e-20
3.07031e-05
2.10223e-20
3.07031e-05
-2.90914e-21
3.07031e-05
-4.59503e-20
3.07031e-05
-2.38631e-20
3.07031e-05
4.50576e-20
3.07031e-05
-3.89171e-20
3.07031e-05
3.87931e-20
3.07031e-05
-1.82476e-20
3.07031e-05
-6.66601e-20
3.07031e-05
8.26275e-21
3.07031e-05
-6.11811e-21
3.07031e-05
-1.74075e-20
3.07031e-05
-1.51004e-20
3.07031e-05
4.01799e-20
3.07031e-05
-3.91309e-21
3.07031e-05
1.89957e-20
3.07031e-05
-4.05002e-20
3.07031e-05
-1.71979e-20
3.07031e-05
6.28226e-20
3.07031e-05
-5.36263e-21
3.07031e-05
-1.41137e-20
3.07031e-05
1.58464e-20
3.07031e-05
6.81528e-20
3.07031e-05
-3.42371e-20
3.07031e-05
-6.20932e-20
3.07031e-05
9.19259e-20
3.07031e-05
2.02292e-20
3.07031e-05
-8.01005e-20
3.07031e-05
-3.51943e-20
3.07031e-05
3.70538e-20
3.07031e-05
1.35999e-20
3.07031e-05
-3.23345e-20
3.07031e-05
2.4612e-20
3.07031e-05
2.20729e-20
3.07031e-05
-2.94227e-20
3.07031e-05
4.63081e-20
3.07031e-05
-4.30317e-21
3.07031e-05
-1.17897e-20
3.07031e-05
7.26983e-21
3.07031e-05
-7.73526e-21
3.07031e-05
2.90572e-20
3.07031e-05
1.66182e-20
3.07031e-05
1.4072e-21
3.07031e-05
9.92343e-21
3.07031e-05
2.92919e-20
3.07031e-05
-8.87581e-20
3.07031e-05
2.07373e-20
3.07031e-05
1.18447e-19
3.07031e-05
-4.67131e-20
3.07031e-05
-4.29769e-20
3.07031e-05
8.4938e-20
3.07031e-05
5.97673e-20
3.07031e-05
-2.34675e-20
3.07031e-05
-2.30364e-20
3.07031e-05
3.37068e-20
3.07031e-05
-2.89535e-20
3.07031e-05
-1.95816e-20
3.07031e-05
-3.08066e-20
3.07031e-05
2.67092e-20
3.07031e-05
6.9953e-20
3.07031e-05
-5.06487e-20
3.07031e-05
-9.7472e-20
3.07031e-05
-1.49943e-20
3.07031e-05
9.82015e-20
3.07031e-05
4.59974e-20
3.07031e-05
-9.14675e-20
3.07031e-05
-4.77996e-20
3.07031e-05
5.99424e-20
3.07031e-05
5.59041e-20
3.07031e-05
-1.478e-20
3.07031e-05
-3.9717e-20
3.07031e-05
1.04211e-20
3.07031e-05
6.48949e-20
3.07031e-05
2.82972e-21
3.07031e-05
-5.61367e-20
3.07031e-05
7.5396e-20
3.07031e-05
3.61072e-20
3.07031e-05
-4.50911e-20
3.07031e-05
1.35594e-20
3.07031e-05
1.23605e-20
3.07031e-05
1.62501e-20
3.07031e-05
-1.06432e-20
3.07031e-05
1.00179e-19
3.07031e-05
-5.15393e-20
3.07031e-05
-8.08249e-20
3.07031e-05
6.11187e-20
3.07031e-05
-1.27597e-20
3.07031e-05
-6.79472e-20
3.07031e-05
8.68958e-20
3.07031e-05
5.79066e-20
3.07031e-05
-1.38764e-19
3.07031e-05
-9.27532e-20
3.07031e-05
7.07648e-20
3.07031e-05
1.34861e-19
3.07031e-05
-8.60871e-20
3.07031e-05
-1.72315e-20
3.07031e-05
1.92453e-19
3.07031e-05
-3.7336e-20
3.07031e-05
-9.93683e-20
3.07031e-05
1.03393e-19
3.07031e-05
-7.14879e-20
3.07031e-05
-1.51918e-20
3.07031e-05
1.3637e-19
3.07031e-05
-1.44742e-19
3.07031e-05
-3.62976e-20
3.07031e-05
5.41168e-20
3.07031e-05
-1.25185e-19
3.07031e-05
-2.2146e-20
3.07031e-05
-6.3339e-21
3.07031e-05
1.07841e-19
3.07031e-05
3.13834e-20
3.07031e-05
-4.57611e-20
3.07031e-05
-1.07509e-21
3.07031e-05
1.10025e-20
3.07031e-05
-3.71156e-20
3.07031e-05
-1.81005e-20
3.07031e-05
6.05826e-20
3.07031e-05
-1.58277e-19
3.07031e-05
1.04525e-19
3.07031e-05
1.28012e-19
3.07031e-05
-1.57336e-19
3.07031e-05
3.84778e-20
3.07031e-05
1.26493e-19
3.07031e-05
-7.6794e-20
3.07031e-05
-5.10608e-20
3.07031e-05
4.99683e-20
3.07031e-05
1.23782e-19
3.07031e-05
-2.84834e-20
3.07031e-05
-8.56021e-20
3.07031e-05
1.29568e-19
3.07031e-05
-2.8916e-20
3.07031e-05
-7.53973e-20
3.07031e-05
2.8555e-20
3.07031e-05
-4.60088e-20
3.07031e-05
1.13169e-19
3.07031e-05
-8.10396e-21
3.07031e-05
-1.21456e-19
3.07031e-05
-7.04108e-22
3.07031e-05
2.67342e-21
3.07031e-05
-1.05067e-20
3.07031e-05
-7.13109e-20
3.07031e-05
-3.85052e-20
3.07031e-05
-1.51874e-20
3.07031e-05
1.42921e-19
3.07031e-05
3.61309e-20
3.07031e-05
-5.49189e-20
3.07031e-05
8.75612e-20
3.07031e-05
-1.97624e-20
3.07031e-05
-1.98174e-19
3.07031e-05
-4.90137e-20
3.07031e-05
7.58206e-20
3.07031e-05
-1.21667e-19
3.07031e-05
1.47445e-19
3.07031e-05
4.0354e-20
3.07031e-05
7.03717e-20
3.07031e-05
1.25446e-19
3.07031e-05
-1.67027e-19
3.07031e-05
-1.16183e-19
3.07031e-05
5.20899e-20
3.07031e-05
-2.6413e-21
3.07031e-05
4.4496e-20
3.07031e-05
2.60488e-20
3.07031e-05
-9.5155e-20
3.07031e-05
1.03042e-19
3.07031e-05
-1.04793e-19
3.07031e-05
-7.62668e-21
3.07031e-05
-6.87228e-20
3.07031e-05
-7.3885e-20
3.07031e-05
1.18766e-19
3.07031e-05
9.07432e-20
3.07031e-05
-3.52681e-20
3.07031e-05
-7.21498e-20
3.07031e-05
5.15779e-20
3.07031e-05
-6.23225e-20
3.07031e-05
4.27096e-20
3.07031e-05
-2.08615e-21
3.07031e-05
-2.46691e-20
3.07031e-05
6.67393e-20
3.07031e-05
9.52002e-20
3.07031e-05
-4.92207e-21
3.07031e-05
-1.71528e-20
3.07031e-05
-1.07172e-19
3.07031e-05
9.34069e-21
3.07031e-05
6.06288e-20
3.07031e-05
-9.91848e-20
3.07031e-05
9.92482e-20
3.07031e-05
5.23516e-20
3.07031e-05
5.85415e-20
3.07031e-05
-5.58044e-20
3.07031e-05
4.73448e-22
3.07031e-05
-1.50682e-20
3.07031e-05
-1.14352e-19
3.07031e-05
8.80845e-21
3.07031e-05
1.64349e-19
3.07031e-05
-6.52814e-20
3.07031e-05
-6.56367e-20
3.07031e-05
9.49857e-20
3.07031e-05
-1.00679e-19
3.07031e-05
1.38926e-20
3.07031e-05
1.45254e-20
3.07031e-05
-3.31257e-20
3.07031e-05
-3.25359e-21
3.07031e-05
1.55882e-19
3.07031e-05
-4.73691e-20
3.07031e-05
-8.90093e-20
3.07031e-05
1.06306e-19
3.07031e-05
-2.82728e-20
3.07031e-05
-9.31254e-20
3.07031e-05
7.35545e-20
3.07031e-05
-9.29971e-20
3.07031e-05
4.59607e-20
3.07031e-05
2.20764e-19
3.07031e-05
-1.77005e-19
3.07031e-05
8.10697e-20
3.07031e-05
-1.44234e-19
3.07031e-05
-1.39507e-19
3.07031e-05
3.25004e-19
3.07031e-05
-2.13857e-19
3.07031e-05
-1.18491e-19
3.07031e-05
4.49702e-19
3.07031e-05
-2.084e-19
3.07031e-05
-1.4812e-19
3.07031e-05
1.65595e-19
3.07031e-05
-1.23929e-19
3.07031e-05
1.45438e-19
3.07031e-05
-1.26732e-19
3.07031e-05
-6.57987e-20
3.07031e-05
1.24998e-19
3.07031e-05
8.31306e-20
3.07031e-05
-1.10613e-19
3.07031e-05
-9.93377e-20
3.07031e-05
-9.99796e-20
3.07031e-05
4.67388e-20
3.07031e-05
1.77755e-19
3.07031e-05
-2.41043e-19
3.07031e-05
2.44822e-19
3.07031e-05
3.86152e-20
3.07031e-05
-2.79439e-19
3.07031e-05
2.16591e-19
3.07031e-05
1.06165e-19
3.07031e-05
-2.6106e-19
3.07031e-05
7.24954e-20
3.07031e-05
4.7222e-20
3.07031e-05
-1.65736e-19
3.07031e-05
3.53e-19
3.07031e-05
7.62922e-20
3.07031e-05
-3.76789e-19
3.07031e-05
8.7059e-20
3.07031e-05
-2.96681e-20
3.07031e-05
-2.07017e-19
3.07031e-05
3.00807e-19
3.07031e-05
-1.20581e-19
3.07031e-05
-9.86206e-20
3.07031e-05
4.35197e-19
3.07031e-05
-1.70565e-19
3.07031e-05
-2.78085e-19
3.07031e-05
2.17519e-19
3.07031e-05
-1.63224e-19
3.07031e-05
-1.7478e-19
3.07031e-05
2.78274e-19
3.07031e-05
5.96897e-20
3.07031e-05
-2.62401e-19
3.07031e-05
1.15712e-19
3.07031e-05
7.9933e-20
3.07031e-05
-1.44241e-19
3.07031e-05
6.12221e-20
3.07031e-05
-1.03823e-19
3.07031e-05
-9.5639e-20
3.07031e-05
-1.84871e-20
3.07031e-05
1.47969e-19
3.07031e-05
1.56603e-19
3.07031e-05
-4.33975e-20
3.07031e-05
-1.60342e-19
3.07031e-05
-5.83479e-20
3.07031e-05
1.88229e-19
3.07031e-05
-1.27853e-19
3.07031e-05
-1.15892e-19
3.07031e-05
-3.85233e-20
3.07031e-05
2.10248e-19
3.07031e-05
2.07458e-19
3.07031e-05
-3.44442e-19
3.07031e-05
-6.52138e-22
3.07031e-05
1.88699e-19
3.07031e-05
-2.68844e-19
3.07031e-05
1.27042e-19
3.07031e-05
2.40007e-19
3.07031e-05
-3.26078e-19
3.07031e-05
2.84366e-19
3.07031e-05
1.69967e-19
3.07031e-05
-3.04549e-19
3.07031e-05
5.78263e-20
3.07031e-05
-3.17559e-20
3.07031e-05
-1.06817e-19
3.07031e-05
6.97518e-20
3.07031e-05
1.84585e-19
3.07031e-05
1.27525e-20
3.07031e-05
-5.59416e-20
3.07031e-05
-1.79832e-19
3.07031e-05
-5.69981e-20
3.07031e-05
1.57315e-19
3.07031e-05
-9.00243e-20
3.07031e-05
-1.74106e-19
3.07031e-05
7.41699e-20
3.07031e-05
2.17356e-19
3.07031e-05
4.60097e-20
3.07031e-05
-4.76803e-20
3.07031e-05
-2.15854e-19
3.07031e-05
-1.01553e-19
3.07031e-05
1.43722e-19
3.07031e-05
-4.6554e-20
3.07031e-05
1.84955e-19
3.07031e-05
-2.1786e-19
3.07031e-05
-2.97904e-20
3.07031e-05
3.59209e-19
3.07031e-05
-2.361e-19
3.07031e-05
-8.13767e-20
3.07031e-05
1.40047e-20
3.07031e-05
-4.59603e-20
3.07031e-05
-6.34718e-20
3.07031e-05
3.19833e-19
3.07031e-05
7.05088e-20
3.07031e-05
-1.90205e-19
3.07031e-05
-2.8011e-20
3.07031e-05
-7.30568e-21
3.07031e-05
1.54798e-19
3.07031e-05
-1.0459e-19
3.07031e-05
6.30304e-20
3.07031e-05
-1.21319e-19
3.07031e-05
2.10625e-19
3.07031e-05
5.44451e-20
3.07031e-05
-1.72182e-19
3.07031e-05
-5.16508e-20
3.07031e-05
7.36199e-20
3.07031e-05
5.77912e-20
3.07031e-05
-1.00033e-19
3.07031e-05
3.01848e-19
3.07031e-05
-2.41056e-19
3.07031e-05
4.78722e-20
3.07031e-05
1.50452e-19
3.07031e-05
-1.06851e-19
3.07031e-05
-1.14178e-19
3.07031e-05
8.49018e-20
3.07031e-05
-2.3793e-20
3.07031e-05
-2.33036e-19
3.07031e-05
3.35881e-19
3.07031e-05
1.74337e-19
3.07031e-05
-2.33786e-19
3.07031e-05
-1.321e-19
3.07031e-05
-5.03857e-20
3.07031e-05
-3.54006e-20
3.07031e-05
1.47222e-19
3.07031e-05
3.75751e-19
3.07031e-05
-3.11073e-19
3.07031e-05
-1.74921e-19
3.07031e-05
-1.01371e-19
3.07031e-05
2.85381e-19
3.07031e-05
2.821e-19
3.07031e-05
-5.13896e-19
3.07031e-05
-8.19922e-20
3.07031e-05
2.69702e-19
3.07031e-05
3.22086e-19
3.07031e-05
-3.69087e-19
3.07031e-05
6.4639e-20
3.07031e-05
1.53169e-19
3.07031e-05
-9.38347e-20
3.07031e-05
4.79298e-20
3.07031e-05
-2.46146e-19
3.07031e-05
2.87057e-20
3.07031e-05
2.64252e-19
3.07031e-05
1.28664e-19
3.07031e-05
-3.7513e-19
3.07031e-05
-1.41914e-19
3.07031e-05
4.88792e-19
3.07031e-05
-1.21338e-19
3.07031e-05
-2.08446e-19
3.07031e-05
2.18045e-20
3.07031e-05
1.00042e-19
3.07031e-05
2.91743e-20
3.07031e-05
6.25367e-20
3.07031e-05
-2.07971e-19
3.07031e-05
-1.63874e-19
3.07031e-05
5.03679e-19
3.07031e-05
-9.67225e-22
3.07031e-05
-4.75676e-19
3.07031e-05
-5.02113e-20
3.07031e-05
6.06417e-19
3.07031e-05
-1.44956e-19
3.07031e-05
-6.49447e-20
3.07031e-05
-2.34358e-20
3.07031e-05
-2.70355e-19
3.07031e-05
4.22179e-19
3.07031e-05
-2.95202e-19
3.07031e-05
-1.45232e-19
3.07031e-05
-6.29939e-20
3.07031e-05
1.9598e-19
3.07031e-05
9.8529e-20
3.07031e-05
-1.64931e-19
3.07031e-05
1.08774e-19
3.07031e-05
-1.45882e-19
3.07031e-05
2.51874e-19
3.07031e-05
-1.02218e-19
3.07031e-05
5.86476e-20
3.07031e-05
-1.43605e-19
3.07031e-05
1.5058e-19
3.07031e-05
-8.0134e-21
3.07031e-05
-1.41397e-19
3.07031e-05
1.72537e-19
3.07031e-05
8.80139e-20
3.07031e-05
1.6231e-19
3.07031e-05
-5.61613e-19
3.07031e-05
2.69263e-19
3.07031e-05
1.50746e-19
3.07031e-05
6.2907e-20
3.07031e-05
9.69084e-20
3.07031e-05
-4.96652e-19
3.07031e-05
1.48861e-19
3.07031e-05
1.9559e-19
3.07031e-05
-3.7425e-20
3.07031e-05
-1.93233e-19
3.07031e-05
1.51435e-19
3.07031e-05
-9.66939e-20
3.07031e-05
1.91904e-20
3.07031e-05
7.89863e-20
3.07031e-05
-2.22635e-19
3.07031e-05
1.77953e-19
3.07031e-05
6.77678e-21
3.07031e-05
6.7993e-20
3.07031e-05
-3.00274e-19
3.07031e-05
7.34998e-20
3.07031e-05
1.38304e-19
3.07031e-05
3.84857e-20
3.07031e-05
-1.93784e-20
3.07031e-05
-1.5262e-19
3.07031e-05
2.92929e-19
3.07031e-05
-3.15715e-19
3.07031e-05
7.70013e-20
3.07031e-05
2.90668e-20
3.07031e-05
-8.11044e-20
3.07031e-05
2.93147e-19
3.07031e-05
-2.3698e-19
3.07031e-05
-2.44736e-19
3.07031e-05
1.84965e-19
3.07031e-05
1.96376e-19
3.07031e-05
-3.27823e-19
3.07031e-05
-1.54558e-20
3.07031e-05
-1.2566e-19
3.07031e-05
-1.38072e-19
3.07031e-05
-9.8251e-20
3.07031e-05
-8.53391e-19
-2.34682e-18
9.0875e-05
-8e-18
9.0875e-05
-3.09399e-18
9.0875e-05
-1.38298e-18
9.0875e-05
-6.3566e-19
9.0875e-05
-3.32954e-19
9.0875e-05
-2.50732e-19
9.0875e-05
-1.97089e-19
9.0875e-05
-1.21116e-19
9.0875e-05
-1.33388e-19
9.0875e-05
-1.23745e-19
9.0875e-05
-1.08461e-19
9.0875e-05
-1.07548e-19
9.0875e-05
-8.70167e-20
9.0875e-05
-6.40755e-20
9.0875e-05
-3.71566e-20
9.0875e-05
-4.41993e-20
9.0875e-05
-7.28065e-20
9.0875e-05
-6.2892e-20
9.0875e-05
-7.58538e-22
9.0875e-05
-1.53355e-20
9.0875e-05
-4.61152e-21
9.0875e-05
2.05248e-20
9.0875e-05
3.55019e-20
9.0875e-05
1.25766e-20
9.0875e-05
-5.84527e-20
9.0875e-05
-9.84031e-20
9.0875e-05
-5.49009e-20
9.0875e-05
4.2164e-20
9.0875e-05
-9.77247e-20
9.0875e-05
-5.71528e-20
9.0875e-05
6.88813e-21
9.0875e-05
-3.92702e-20
9.0875e-05
-4.91666e-20
9.0875e-05
-8.7155e-20
9.0875e-05
-5.928e-20
9.0875e-05
-4.04506e-20
9.0875e-05
-1.21275e-19
9.0875e-05
-5.41399e-20
9.0875e-05
-1.9971e-20
9.0875e-05
-8.77815e-20
9.0875e-05
-2.89373e-20
9.0875e-05
-6.94096e-20
9.0875e-05
1.49412e-20
9.0875e-05
9.69717e-20
9.0875e-05
6.06843e-20
9.0875e-05
7.14476e-20
9.0875e-05
9.66926e-20
9.0875e-05
-7.19604e-20
9.0875e-05
-4.38005e-20
9.0875e-05
1.18491e-19
9.0875e-05
9.88091e-20
9.0875e-05
-9.56507e-21
9.0875e-05
-1.15832e-19
9.0875e-05
-4.94089e-20
9.0875e-05
4.40088e-20
9.0875e-05
-5.69774e-20
9.0875e-05
5.84159e-20
9.0875e-05
-7.96533e-20
9.0875e-05
-1.42994e-19
9.0875e-05
-2.80832e-20
9.0875e-05
-4.22796e-20
9.0875e-05
9.75642e-21
9.0875e-05
-3.17306e-20
9.0875e-05
4.81955e-20
9.0875e-05
9.88768e-21
9.0875e-05
5.78671e-20
9.0875e-05
-1.13315e-19
9.0875e-05
-7.00646e-20
9.0875e-05
1.42366e-19
9.0875e-05
2.56673e-20
9.0875e-05
2.44907e-20
9.0875e-05
4.66987e-20
9.0875e-05
1.47295e-19
9.0875e-05
-6.01003e-20
9.0875e-05
-1.63681e-19
9.0875e-05
1.98093e-19
9.0875e-05
9.54569e-20
9.0875e-05
-1.14354e-19
9.0875e-05
-1.18286e-19
9.0875e-05
3.2571e-20
9.0875e-05
3.71764e-20
9.0875e-05
-7.66453e-20
9.0875e-05
1.80116e-20
9.0875e-05
4.59237e-20
9.0875e-05
-2.84158e-21
9.0875e-05
9.161e-20
9.0875e-05
-2.31443e-20
9.0875e-05
1.38749e-20
9.0875e-05
-4.53018e-21
9.0875e-05
-9.00262e-21
9.0875e-05
8.0496e-20
9.0875e-05
3.41658e-20
9.0875e-05
8.1261e-22
9.0875e-05
7.15745e-20
9.0875e-05
3.23307e-20
9.0875e-05
-1.54127e-19
9.0875e-05
3.14345e-20
9.0875e-05
2.62754e-19
9.0875e-05
-7.04381e-20
9.0875e-05
-9.98529e-20
9.0875e-05
2.47808e-19
9.0875e-05
1.8438e-19
9.0875e-05
-2.87231e-20
9.0875e-05
-8.2976e-20
9.0875e-05
3.43923e-20
9.0875e-05
8.09319e-21
9.0875e-05
-6.54133e-20
9.0875e-05
-9.98199e-20
9.0875e-05
9.31083e-20
9.0875e-05
1.21836e-19
9.0875e-05
-1.36257e-19
9.0875e-05
-1.84955e-19
9.0875e-05
-7.65361e-20
9.0875e-05
2.29902e-19
9.0875e-05
1.42941e-19
9.0875e-05
-2.052e-19
9.0875e-05
-1.12332e-19
9.0875e-05
1.51838e-19
9.0875e-05
1.60752e-19
9.0875e-05
-7.44848e-21
9.0875e-05
-8.34429e-20
9.0875e-05
4.84653e-20
9.0875e-05
1.49922e-19
9.0875e-05
1.52863e-21
9.0875e-05
-7.72974e-20
9.0875e-05
1.64711e-19
9.0875e-05
7.29189e-20
9.0875e-05
-3.76385e-20
9.0875e-05
3.27441e-20
9.0875e-05
1.64326e-20
9.0875e-05
9.16628e-20
9.0875e-05
8.3745e-21
9.0875e-05
1.86457e-19
9.0875e-05
-8.94569e-20
9.0875e-05
-1.54912e-19
9.0875e-05
9.23411e-20
9.0875e-05
-8.05372e-20
9.0875e-05
-1.19972e-19
9.0875e-05
1.74406e-19
9.0875e-05
1.06877e-19
9.0875e-05
-3.0309e-19
9.0875e-05
-2.6278e-19
9.0875e-05
2.13146e-19
9.0875e-05
3.23756e-19
9.0875e-05
-1.83698e-19
9.0875e-05
7.80314e-21
9.0875e-05
4.81468e-19
9.0875e-05
-6.44153e-21
9.0875e-05
-1.96562e-19
9.0875e-05
1.5027e-19
9.0875e-05
-1.48361e-19
9.0875e-05
9.06266e-21
9.0875e-05
2.06354e-19
9.0875e-05
-3.46347e-19
9.0875e-05
-9.65834e-20
9.0875e-05
4.85524e-20
9.0875e-05
-2.5579e-19
9.0875e-05
-9.6894e-20
9.0875e-05
-4.44009e-20
9.0875e-05
2.72091e-19
9.0875e-05
1.10521e-19
9.0875e-05
-1.02506e-19
9.0875e-05
-3.91176e-20
9.0875e-05
-1.37812e-20
9.0875e-05
-6.90313e-20
9.0875e-05
-2.40072e-20
9.0875e-05
7.90454e-20
9.0875e-05
-2.67656e-19
9.0875e-05
2.22931e-19
9.0875e-05
2.74042e-19
9.0875e-05
-2.55508e-19
9.0875e-05
1.1324e-20
9.0875e-05
2.54402e-19
9.0875e-05
-6.47712e-20
9.0875e-05
-1.55708e-19
9.0875e-05
1.67969e-19
9.0875e-05
3.73268e-19
9.0875e-05
-7.86956e-20
9.0875e-05
-1.73448e-19
9.0875e-05
2.88855e-19
9.0875e-05
-2.02801e-20
9.0875e-05
-2.21924e-19
9.0875e-05
2.75823e-21
9.0875e-05
-7.38751e-20
9.0875e-05
1.91651e-19
9.0875e-05
-3.91551e-20
9.0875e-05
-2.89079e-19
9.0875e-05
-8.35757e-20
9.0875e-05
2.70451e-20
9.0875e-05
-3.61952e-20
9.0875e-05
-1.65431e-19
9.0875e-05
-1.16139e-19
9.0875e-05
3.58624e-20
9.0875e-05
3.36422e-19
9.0875e-05
2.94581e-20
9.0875e-05
-7.89755e-20
9.0875e-05
2.36362e-19
9.0875e-05
-1.63439e-19
9.0875e-05
-4.71827e-19
9.0875e-05
-9.40832e-20
9.0875e-05
1.05932e-19
9.0875e-05
-2.26196e-19
9.0875e-05
3.57129e-19
9.0875e-05
1.04139e-19
9.0875e-05
2.36526e-19
9.0875e-05
3.76467e-19
9.0875e-05
-4.17278e-19
9.0875e-05
-3.67964e-19
9.0875e-05
5.66272e-20
9.0875e-05
5.69691e-20
9.0875e-05
4.95155e-20
9.0875e-05
9.19702e-20
9.0875e-05
-1.09543e-19
9.0875e-05
1.25329e-19
9.0875e-05
-2.48916e-19
9.0875e-05
6.2022e-21
9.0875e-05
-2.53573e-19
9.0875e-05
-2.03198e-19
9.0875e-05
3.44554e-19
9.0875e-05
1.94283e-19
9.0875e-05
-7.71263e-20
9.0875e-05
-1.12669e-19
9.0875e-05
1.31734e-19
9.0875e-05
-1.41294e-19
9.0875e-05
4.77948e-20
9.0875e-05
2.30427e-20
9.0875e-05
-3.11141e-20
9.0875e-05
1.30099e-19
9.0875e-05
2.88107e-19
9.0875e-05
-4.04666e-20
9.0875e-05
-1.98049e-20
9.0875e-05
-1.98263e-19
9.0875e-05
-1.23187e-19
9.0875e-05
1.39703e-19
9.0875e-05
-1.29274e-19
9.0875e-05
1.78078e-19
9.0875e-05
1.97185e-19
9.0875e-05
7.41389e-20
9.0875e-05
-6.29981e-20
9.0875e-05
-5.52511e-20
9.0875e-05
-7.7932e-20
9.0875e-05
-1.97758e-19
9.0875e-05
-2.79455e-20
9.0875e-05
3.6819e-19
9.0875e-05
-8.43418e-20
9.0875e-05
-1.63506e-19
9.0875e-05
1.38356e-19
9.0875e-05
-1.81724e-19
9.0875e-05
-2.13409e-20
9.0875e-05
1.07875e-19
9.0875e-05
-9.00988e-20
9.0875e-05
-9.65215e-21
9.0875e-05
3.37317e-19
9.0875e-05
-2.04297e-20
9.0875e-05
-1.74638e-19
9.0875e-05
1.36436e-19
9.0875e-05
-2.65503e-20
9.0875e-05
-1.74529e-19
9.0875e-05
5.71461e-20
9.0875e-05
-2.44848e-19
9.0875e-05
2.04715e-19
9.0875e-05
5.27383e-19
9.0875e-05
-2.53465e-19
9.0875e-05
3.64268e-20
9.0875e-05
-4.0414e-19
9.0875e-05
-3.30346e-19
9.0875e-05
7.32969e-19
9.0875e-05
-3.62972e-19
9.0875e-05
-2.72962e-19
9.0875e-05
8.68716e-19
9.0875e-05
-3.3563e-19
9.0875e-05
-3.0142e-19
9.0875e-05
2.95748e-19
9.0875e-05
-2.14657e-19
9.0875e-05
1.29211e-19
9.0875e-05
-1.02983e-19
9.0875e-05
-1.51106e-19
9.0875e-05
1.60718e-19
9.0875e-05
1.81651e-19
9.0875e-05
-1.90433e-19
9.0875e-05
-2.9347e-19
9.0875e-05
-3.91942e-19
9.0875e-05
1.48294e-19
9.0875e-05
4.97491e-19
9.0875e-05
-4.83904e-19
9.0875e-05
4.71649e-19
9.0875e-05
1.79386e-19
9.0875e-05
-6.30801e-19
9.0875e-05
4.80164e-19
9.0875e-05
1.95357e-19
9.0875e-05
-5.90424e-19
9.0875e-05
1.81987e-19
9.0875e-05
1.44943e-19
9.0875e-05
-2.72535e-19
9.0875e-05
7.59205e-19
9.0875e-05
6.54247e-20
9.0875e-05
-7.63842e-19
9.0875e-05
1.10747e-19
9.0875e-05
-1.08274e-19
9.0875e-05
-3.54397e-19
9.0875e-05
5.11205e-19
9.0875e-05
-7.71549e-20
9.0875e-05
-2.05903e-19
9.0875e-05
8.41154e-19
9.0875e-05
-2.44457e-19
9.0875e-05
-6.84219e-19
9.0875e-05
2.56413e-19
9.0875e-05
-3.03949e-19
9.0875e-05
-3.10962e-19
9.0875e-05
4.65828e-19
9.0875e-05
1.83267e-19
9.0875e-05
-4.82472e-19
9.0875e-05
1.53904e-19
9.0875e-05
1.84306e-19
9.0875e-05
-3.07568e-19
9.0875e-05
-5.30141e-20
9.0875e-05
-2.45317e-19
9.0875e-05
-1.8861e-19
9.0875e-05
-8.10846e-20
9.0875e-05
3.74605e-19
9.0875e-05
4.33271e-19
9.0875e-05
-1.61365e-19
9.0875e-05
-3.62859e-19
9.0875e-05
-2.98821e-20
9.0875e-05
2.35127e-19
9.0875e-05
-2.62341e-19
9.0875e-05
-2.44353e-19
9.0875e-05
-3.66246e-20
9.0875e-05
4.48368e-19
9.0875e-05
4.28559e-19
9.0875e-05
-6.40478e-19
9.0875e-05
-8.24633e-20
9.0875e-05
2.89367e-19
9.0875e-05
-4.50327e-19
9.0875e-05
2.21361e-19
9.0875e-05
4.84422e-19
9.0875e-05
-4.06505e-19
9.0875e-05
5.21314e-19
9.0875e-05
3.1222e-19
9.0875e-05
-5.44882e-19
9.0875e-05
3.92409e-21
9.0875e-05
-2.25921e-19
9.0875e-05
-9.11025e-20
9.0875e-05
2.12132e-19
9.0875e-05
3.04739e-19
9.0875e-05
1.63362e-19
9.0875e-05
-1.93234e-19
9.0875e-05
-5.0456e-19
9.0875e-05
-4.89414e-20
9.0875e-05
3.30045e-19
9.0875e-05
-3.89158e-19
9.0875e-05
-2.47553e-19
9.0875e-05
1.93281e-19
9.0875e-05
3.72267e-19
9.0875e-05
2.35367e-19
9.0875e-05
-1.7316e-19
9.0875e-05
-5.36019e-19
9.0875e-05
-1.65878e-19
9.0875e-05
1.74465e-19
9.0875e-05
-2.32964e-20
9.0875e-05
4.68724e-19
9.0875e-05
-4.94485e-19
9.0875e-05
-4.34336e-20
9.0875e-05
7.46117e-19
9.0875e-05
-4.52891e-19
9.0875e-05
-2.7156e-19
9.0875e-05
-2.7356e-20
9.0875e-05
-4.21291e-20
9.0875e-05
-4.49873e-20
9.0875e-05
7.51048e-19
9.0875e-05
1.59172e-19
9.0875e-05
-4.17698e-19
9.0875e-05
-4.34912e-21
9.0875e-05
3.26736e-20
9.0875e-05
2.59492e-19
9.0875e-05
-1.82417e-19
9.0875e-05
4.26398e-20
9.0875e-05
-1.09446e-19
9.0875e-05
5.1635e-19
9.0875e-05
1.31088e-20
9.0875e-05
-3.78636e-19
9.0875e-05
-6.5752e-20
9.0875e-05
1.74372e-19
9.0875e-05
1.20927e-19
9.0875e-05
-2.06398e-19
9.0875e-05
7.53267e-19
9.0875e-05
-3.95253e-19
9.0875e-05
-9.91989e-20
9.0875e-05
4.06347e-19
9.0875e-05
-1.26529e-19
9.0875e-05
-4.17668e-19
9.0875e-05
1.31718e-19
9.0875e-05
-3.6085e-21
9.0875e-05
-4.95925e-19
9.0875e-05
8.55761e-19
9.0875e-05
3.47963e-19
9.0875e-05
-6.3645e-19
9.0875e-05
-2.08452e-19
9.0875e-05
-1.45966e-19
9.0875e-05
-1.25452e-19
9.0875e-05
4.15214e-19
9.0875e-05
7.82391e-19
9.0875e-05
-6.63507e-19
9.0875e-05
-3.32236e-19
9.0875e-05
-2.94492e-19
9.0875e-05
5.61941e-19
9.0875e-05
7.79512e-19
9.0875e-05
-1.07943e-18
9.0875e-05
-4.00086e-19
9.0875e-05
6.7385e-19
9.0875e-05
8.71166e-19
9.0875e-05
-8.04061e-19
9.0875e-05
1.31408e-19
9.0875e-05
3.13588e-19
9.0875e-05
-1.83234e-19
9.0875e-05
-1.61985e-20
9.0875e-05
-5.71875e-19
9.0875e-05
2.0495e-19
9.0875e-05
5.44911e-19
9.0875e-05
2.68881e-19
9.0875e-05
-7.54433e-19
9.0875e-05
-2.70232e-19
9.0875e-05
9.2272e-19
9.0875e-05
-1.12914e-19
9.0875e-05
-4.25331e-19
9.0875e-05
-1.05825e-19
9.0875e-05
3.31881e-19
9.0875e-05
1.13039e-19
9.0875e-05
6.36251e-20
9.0875e-05
-5.01608e-19
9.0875e-05
-3.2824e-19
9.0875e-05
1.04542e-18
9.0875e-05
1.89211e-19
9.0875e-05
-1.08936e-18
9.0875e-05
-2.88947e-19
9.0875e-05
1.46362e-18
9.0875e-05
-1.74206e-19
9.0875e-05
-2.38777e-19
9.0875e-05
-1.20688e-19
9.0875e-05
-4.71377e-19
9.0875e-05
6.73335e-19
9.0875e-05
-5.32876e-19
9.0875e-05
-4.22681e-19
9.0875e-05
-1.06519e-19
9.0875e-05
4.08277e-19
9.0875e-05
1.70228e-19
9.0875e-05
-2.20591e-19
9.0875e-05
1.75038e-19
9.0875e-05
-2.19103e-19
9.0875e-05
5.39899e-19
9.0875e-05
-1.64753e-19
9.0875e-05
-4.99022e-20
9.0875e-05
-4.63609e-20
9.0875e-05
2.90631e-19
9.0875e-05
-1.05877e-19
9.0875e-05
-1.732e-19
9.0875e-05
3.9802e-19
9.0875e-05
1.97936e-19
9.0875e-05
3.19458e-19
9.0875e-05
-1.11661e-18
9.0875e-05
4.07152e-19
9.0875e-05
6.86335e-19
9.0875e-05
1.02067e-19
9.0875e-05
-1.40069e-19
9.0875e-05
-8.23731e-19
9.0875e-05
3.66898e-19
9.0875e-05
1.65053e-19
9.0875e-05
-1.18612e-19
9.0875e-05
-1.33838e-19
9.0875e-05
1.60772e-19
9.0875e-05
-2.05614e-19
9.0875e-05
1.44901e-20
9.0875e-05
1.37257e-19
9.0875e-05
-3.47998e-19
9.0875e-05
3.06016e-19
9.0875e-05
1.35401e-19
9.0875e-05
-6.7723e-20
9.0875e-05
-6.46576e-19
9.0875e-05
3.75626e-19
9.0875e-05
2.11183e-19
9.0875e-05
-6.75356e-20
9.0875e-05
1.28496e-19
9.0875e-05
-1.5504e-19
9.0875e-05
3.29842e-19
9.0875e-05
-6.311e-19
9.0875e-05
1.64388e-19
9.0875e-05
9.79395e-20
9.0875e-05
5.0598e-20
9.0875e-05
4.19592e-19
9.0875e-05
-6.4968e-19
9.0875e-05
-3.00689e-19
9.0875e-05
5.4969e-19
9.0875e-05
1.81574e-19
9.0875e-05
-6.46059e-19
9.0875e-05
-8.79074e-20
9.0875e-05
-2.44087e-19
9.0875e-05
-2.65509e-19
9.0875e-05
-3.62107e-19
9.0875e-05
-1.57296e-18
-2.92665e-18
0.000149802
-5.55811e-18
0.000149802
-3.1354e-18
0.000149802
-1.72575e-18
0.000149802
-9.27325e-19
0.000149802
-5.30146e-19
0.000149802
-4.46751e-19
0.000149802
-3.20217e-19
0.000149802
-1.65411e-19
0.000149802
-2.04504e-19
0.000149802
-2.32972e-19
0.000149802
-2.68175e-19
0.000149802
-2.56682e-19
0.000149802
-2.17809e-19
0.000149802
-9.59133e-20
0.000149802
-8.11561e-20
0.000149802
-6.72274e-20
0.000149802
-7.47313e-20
0.000149802
-1.07791e-19
0.000149802
1.12669e-20
0.000149802
1.4174e-20
0.000149802
-4.90881e-20
0.000149802
-1.22287e-21
0.000149802
6.86946e-20
0.000149802
-1.69305e-20
0.000149802
-1.05651e-19
0.000149802
-1.66364e-19
0.000149802
-6.58397e-20
0.000149802
-2.48063e-21
0.000149802
-1.16531e-19
0.000149802
-1.11114e-19
0.000149802
-5.92607e-20
0.000149802
-4.77224e-20
0.000149802
-6.74969e-20
0.000149802
-1.48391e-19
0.000149802
-1.77605e-19
0.000149802
-5.62382e-20
0.000149802
-2.30743e-19
0.000149802
-1.30538e-19
0.000149802
-2.89317e-20
0.000149802
-2.05015e-19
0.000149802
-7.29187e-20
0.000149802
-1.12826e-19
0.000149802
1.80292e-20
0.000149802
1.57202e-19
0.000149802
1.94166e-19
0.000149802
1.66997e-19
0.000149802
1.1165e-19
0.000149802
-7.63884e-20
0.000149802
4.94988e-21
0.000149802
1.55285e-19
0.000149802
1.44417e-19
0.000149802
-2.39033e-20
0.000149802
-1.80336e-19
0.000149802
-7.78677e-20
0.000149802
8.759e-20
0.000149802
-6.19347e-20
0.000149802
5.46765e-21
0.000149802
-1.7978e-19
0.000149802
-1.99037e-19
0.000149802
-8.64563e-20
0.000149802
-8.71405e-20
0.000149802
7.1683e-22
0.000149802
-3.78196e-20
0.000149802
2.36173e-20
0.000149802
5.51112e-20
0.000149802
7.02486e-20
0.000149802
-1.33322e-19
0.000149802
-9.08234e-20
0.000149802
1.97024e-19
0.000149802
1.9056e-19
0.000149802
9.21365e-20
0.000149802
8.34155e-20
0.000149802
2.46931e-19
0.000149802
-4.74375e-20
0.000149802
-3.10812e-19
0.000149802
2.40101e-19
0.000149802
2.0179e-19
0.000149802
-9.71558e-20
0.000149802
-2.01416e-19
0.000149802
4.75042e-20
0.000149802
2.75186e-20
0.000149802
-9.54288e-20
0.000149802
-1.0863e-20
0.000149802
8.97458e-20
0.000149802
4.03488e-20
0.000149802
5.58898e-20
0.000149802
-3.00302e-20
0.000149802
6.90346e-20
0.000149802
-2.61622e-20
0.000149802
1.4064e-20
0.000149802
1.7216e-19
0.000149802
-2.80331e-20
0.000149802
7.75328e-20
0.000149802
1.51689e-19
0.000149802
5.28443e-20
0.000149802
-2.31029e-19
0.000149802
6.93805e-20
0.000149802
3.90659e-19
0.000149802
-9.86991e-20
0.000149802
-1.0581e-19
0.000149802
3.6929e-19
0.000149802
3.16329e-19
0.000149802
2.03914e-20
0.000149802
-1.51105e-19
0.000149802
-2.95287e-21
0.000149802
9.75921e-20
0.000149802
-1.7372e-19
0.000149802
-1.92003e-19
0.000149802
2.10064e-19
0.000149802
1.36923e-19
0.000149802
-2.47204e-19
0.000149802
-2.63438e-19
0.000149802
-4.92959e-20
0.000149802
3.4012e-19
0.000149802
2.17447e-19
0.000149802
-2.16145e-19
0.000149802
-1.93009e-19
0.000149802
2.00054e-19
0.000149802
2.11151e-19
0.000149802
3.95391e-20
0.000149802
-5.17815e-20
0.000149802
1.02653e-19
0.000149802
1.9477e-19
0.000149802
-3.85846e-20
0.000149802
-5.68161e-20
0.000149802
2.16857e-19
0.000149802
1.27336e-19
0.000149802
-3.2601e-21
0.000149802
9.32054e-20
0.000149802
1.25691e-19
0.000149802
1.9516e-19
0.000149802
1.46263e-20
0.000149802
1.88904e-19
0.000149802
-8.28945e-20
0.000149802
-1.62463e-19
0.000149802
7.7937e-20
0.000149802
-2.17946e-19
0.000149802
-1.36334e-19
0.000149802
2.90686e-19
0.000149802
8.32522e-20
0.000149802
-4.32374e-19
0.000149802
-4.29924e-19
0.000149802
3.54917e-19
0.000149802
5.75502e-19
0.000149802
-2.35889e-19
0.000149802
8.70428e-20
0.000149802
7.54649e-19
0.000149802
-2.788e-20
0.000149802
-2.3993e-19
0.000149802
1.31117e-19
0.000149802
-2.44958e-19
0.000149802
1.09307e-19
0.000149802
2.00257e-19
0.000149802
-4.93182e-19
0.000149802
-1.41895e-19
0.000149802
-1.1441e-20
0.000149802
-3.49112e-19
0.000149802
-2.55969e-19
0.000149802
-1.5066e-19
0.000149802
4.97573e-19
0.000149802
2.53859e-19
0.000149802
-1.07579e-19
0.000149802
-1.54646e-19
0.000149802
-6.66512e-20
0.000149802
-4.69396e-20
0.000149802
1.59502e-20
0.000149802
3.10104e-20
0.000149802
-3.09549e-19
0.000149802
3.25331e-19
0.000149802
3.83036e-19
0.000149802
-3.06361e-19
0.000149802
-7.47576e-21
0.000149802
3.66222e-19
0.000149802
-1.48461e-20
0.000149802
-1.91386e-19
0.000149802
3.23455e-19
0.000149802
5.89124e-19
0.000149802
-1.46435e-19
0.000149802
-2.26841e-19
0.000149802
4.29348e-19
0.000149802
8.91242e-21
0.000149802
-3.80296e-19
0.000149802
-4.05852e-21
0.000149802
-5.2344e-20
0.000149802
1.23244e-19
0.000149802
-8.43032e-20
0.000149802
-3.97044e-19
0.000149802
-2.83886e-19
0.000149802
7.06308e-20
0.000149802
-5.44872e-20
0.000149802
-2.96028e-19
0.000149802
-1.75626e-19
0.000149802
1.56929e-19
0.000149802
4.95523e-19
0.000149802
-1.56968e-20
0.000149802
-9.34728e-20
0.000149802
3.23912e-19
0.000149802
-3.15122e-19
0.000149802
-8.34109e-19
0.000149802
-1.68475e-19
0.000149802
1.03767e-19
0.000149802
-1.66863e-19
0.000149802
5.59087e-19
0.000149802
2.44954e-19
0.000149802
5.09606e-19
0.000149802
5.49383e-19
0.000149802
-6.37698e-19
0.000149802
-6.23052e-19
0.000149802
-1.04058e-20
0.000149802
1.13108e-19
0.000149802
1.02997e-19