/*--------------------------------*- C++ -*----------------------------------*\
| =========                 |                                                 |
| \\      /  F ield         | OpenFOAM: The Open Source CFD Toolbox           |
|  \\    /   O peration     | Version:  2112                                  |
|   \\  /    A nd           | Website:  www.openfoam.com                      |
|    \\/     M anipulation  |                                                 |
\*---------------------------------------------------------------------------*/
FoamFile
{
    version     2.0;
    format      ascii;
    arch        "LSB;label=32;scalar=64";
    class       volVectorField;
    location    "5";
    object      U;
}
// * * * * * * * * * * * * * * * * * * * * * * * * * * * * * * * * * * * * * //

dimensions      [0 1 -1 0 0 0 0];

internalField   nonuniform List<vector> 
25600
(
(0.0374883 -1.08938e-15 0)
(0.0374883 -2.17432e-16 0)
(0.0374883 -3.59914e-17 0)
(0.0374883 -1.69766e-17 0)
(0.0374883 -4.22516e-18 0)
(0.0374883 -3.2498e-18 0)
(0.0374883 -6.53606e-18 0)
(0.0374883 3.44774e-18 0)
(0.0374883 -4.84794e-18 0)
(0.0374883 -4.0087e-18 0)
(0.0374883 4.33135e-18 0)
(0.0374883 -2.89677e-18 0)
(0.0374883 1.02019e-17 0)
(0.0374883 4.22554e-18 0)
(0.0374883 -1.45352e-17 0)
(0.0374883 1.06719e-17 0)
(0.0374883 9.44081e-19 0)
(0.0374883 -4.20751e-18 0)
(0.0374883 -1.7979e-18 0)
(0.0374883 1.14909e-18 0)
(0.0374883 3.11021e-18 0)
(0.0374883 9.4291e-18 0)
(0.0374883 -1.51658e-18 0)
(0.0374883 -9.34772e-18 0)
(0.0374883 -1.21734e-17 0)
(0.0374883 -6.89762e-18 0)
(0.0374883 2.53291e-17 0)
(0.0374883 -2.55029e-18 0)
(0.0374883 -1.83258e-17 0)
(0.0374883 -5.70114e-18 0)
(0.0374883 4.97647e-18 0)
(0.0374883 1.25855e-17 0)
(0.0374883 -1.27326e-18 0)
(0.0374883 -4.7261e-18 0)
(0.0374883 -9.3308e-19 0)
(0.0374883 5.75266e-19 0)
(0.0374883 5.72528e-18 0)
(0.0374883 -6.8347e-18 0)
(0.0374883 -5.04198e-18 0)
(0.0374883 3.34101e-18 0)
(0.0374883 -2.37293e-19 0)
(0.0374883 1.29829e-17 0)
(0.0374883 -6.16154e-18 0)
(0.0374883 -1.58979e-17 0)
(0.0374883 1.93349e-17 0)
(0.0374883 -1.23952e-17 0)
(0.0374883 -3.51365e-19 0)
(0.0374883 -2.42155e-18 0)
(0.0374883 -1.26371e-18 0)
(0.0374883 -1.21073e-18 0)
(0.0374883 -2.582e-17 0)
(0.0374883 2.56083e-17 0)
(0.0374883 -7.08477e-18 0)
(0.0374883 -5.84025e-18 0)
(0.0374883 2.18356e-17 0)
(0.0374883 -2.96476e-17 0)
(0.0374883 2.75423e-18 0)
(0.0374883 -1.13855e-17 0)
(0.0374883 4.82282e-18 0)
(0.0374883 3.43789e-17 0)
(0.0374883 -3.60381e-17 0)
(0.0374883 7.68234e-18 0)
(0.0374883 -2.96716e-18 0)
(0.0374883 3.14253e-19 0)
(0.0374883 2.70161e-17 0)
(0.0374883 -2.19828e-17 0)
(0.0374883 3.69082e-18 0)
(0.0374883 -1.00809e-17 0)
(0.0374883 1.1818e-17 0)
(0.0374883 8.54602e-18 0)
(0.0374883 -9.09944e-18 0)
(0.0374883 -2.90551e-18 0)
(0.0374883 -3.91088e-19 0)
(0.0374883 -2.23874e-18 0)
(0.0374883 1.07481e-17 0)
(0.0374883 -1.01257e-17 0)
(0.0374883 -1.11381e-17 0)
(0.0374883 1.74109e-17 0)
(0.0374883 -1.25901e-17 0)
(0.0374883 2.70567e-17 0)
(0.0374883 -2.56675e-17 0)
(0.0374883 -3.70075e-17 0)
(0.0374883 2.81776e-17 0)
(0.0374883 5.05423e-18 0)
(0.0374883 2.66364e-17 0)
(0.0374883 -3.75944e-18 0)
(0.0374883 -4.16777e-17 0)
(0.0374883 -2.05999e-19 0)
(0.0374883 2.37167e-17 0)
(0.0374883 3.35135e-17 0)
(0.0374883 -6.72623e-18 0)
(0.0374883 -4.97132e-17 0)
(0.0374883 4.91115e-18 0)
(0.0374883 4.78925e-17 0)
(0.0374883 -1.76103e-18 0)
(0.0374883 -4.74971e-17 0)
(0.0374883 9.14919e-18 0)
(0.0374883 -3.85816e-18 0)
(0.0374883 4.10938e-17 0)
(0.0374883 2.35068e-17 0)
(0.0374883 -7.26176e-17 0)
(0.0374883 6.55675e-18 0)
(0.0374883 -8.05603e-18 0)
(0.0374883 4.04426e-17 0)
(0.0374883 9.35152e-18 0)
(0.0374883 -1.49996e-17 0)
(0.0374883 -3.49269e-17 0)
(0.0374883 1.80023e-17 0)
(0.0374883 3.48578e-17 0)
(0.0374883 -1.18925e-17 0)
(0.0374883 2.65564e-17 0)
(0.0374883 -9.06627e-17 0)
(0.0374883 2.10634e-17 0)
(0.0374883 5.9815e-17 0)
(0.0374883 5.95219e-18 0)
(0.0374883 -1.93835e-17 0)
(0.0374883 -6.06757e-17 0)
(0.0374883 3.73167e-17 0)
(0.0374883 4.04124e-17 0)
(0.0374883 1.01966e-17 0)
(0.0374883 -1.01567e-17 0)
(0.0374883 -5.83577e-17 0)
(0.0374883 9.16195e-19 0)
(0.0374883 6.60365e-17 0)
(0.0374883 1.15222e-17 0)
(0.0374883 -3.4754e-17 0)
(0.0374883 -4.10534e-17 0)
(0.0374883 6.90605e-18 0)
(0.0374883 6.38424e-17 0)
(0.0374883 -3.02446e-18 0)
(0.0374883 -2.75689e-17 0)
(0.0374883 -3.11799e-17 0)
(0.0374883 2.1654e-17 0)
(0.0374883 3.5092e-17 0)
(0.0374883 -2.44418e-17 0)
(0.0374883 -2.27204e-17 0)
(0.0374883 -1.25672e-17 0)
(0.0374883 3.64215e-17 0)
(0.0374883 1.91215e-17 0)
(0.0374883 -2.82822e-17 0)
(0.0374883 -2.92186e-17 0)
(0.0374883 -1.36144e-17 0)
(0.0374883 5.44419e-17 0)
(0.0374883 1.19158e-17 0)
(0.0374883 -5.15791e-17 0)
(0.0374883 4.30417e-17 0)
(0.0374883 -8.81004e-18 0)
(0.0374883 -3.45271e-17 0)
(0.0374883 -1.0172e-18 0)
(0.0374883 -9.1089e-18 0)
(0.0374883 5.35231e-17 0)
(0.0374883 -1.07538e-17 0)
(0.0374883 -4.41914e-17 0)
(0.0374883 9.38155e-18 0)
(0.0374883 1.92126e-17 0)
(0.0374883 2.87626e-17 0)
(0.0374883 -2.84838e-17 0)
(0.0374883 -2.92002e-17 0)
(0.0374883 2.80241e-17 0)
(0.0374883 6.55039e-18 0)
(0.0374883 5.03338e-17 0)
(0.0374883 -6.12108e-17 0)
(0.0374883 -4.55579e-17 0)
(0.0374883 6.81998e-17 0)
(0.0374883 -1.19352e-17 0)
(0.0374883 5.08021e-17 0)
(0.0374883 -4.01065e-17 0)
(0.0374883 -6.65042e-18 0)
(0.0374883 1.12467e-17 0)
(0.0374883 -4.77221e-17 0)
(0.0374883 8.77426e-17 0)
(0.0374883 -4.99897e-17 0)
(0.0374883 1.17298e-17 0)
(0.0374883 1.65852e-17 0)
(0.0374883 -4.71454e-17 0)
(0.0374883 7.49252e-17 0)
(0.0374883 -5.95222e-17 0)
(0.0374883 1.17188e-17 0)
(0.0374883 -5.95033e-18 0)
(0.0374883 -3.78425e-17 0)
(0.0374883 1.02147e-16 0)
(0.0374883 -7.51615e-17 0)
(0.0374883 2.93708e-18 0)
(0.0374883 1.71275e-17 0)
(0.0374883 -4.60998e-17 0)
(0.0374883 9.67079e-17 0)
(0.0374883 -5.84632e-17 0)
(0.0374883 -2.8951e-18 0)
(0.0374883 6.34172e-17 0)
(0.0374883 -9.46207e-17 0)
(0.0374883 5.0607e-17 0)
(0.0374883 -9.02862e-18 0)
(0.0374883 -5.82829e-17 0)
(0.0374883 1.00697e-16 0)
(0.0374883 -3.9754e-17 0)
(0.0374883 5.21864e-18 0)
(0.0374883 -4.79374e-17 0)
(0.0374883 -8.8452e-18 0)
(0.0374883 1.3818e-16 0)
(0.0374883 -9.0859e-17 0)
(0.0374883 6.16897e-18 0)
(0.0374883 -5.07811e-17 0)
(0.0374883 -3.3717e-18 0)
(0.0374883 1.36851e-16 0)
(0.0374883 -9.16387e-17 0)
(0.0374883 -4.71523e-17 0)
(0.0374883 -7.27679e-18 0)
(0.0374883 4.72544e-17 0)
(0.0374883 9.14741e-17 0)
(0.0374883 -3.80649e-17 0)
(0.0374883 -8.48625e-17 0)
(0.0374883 -6.36543e-17 0)
(0.0374883 1.60324e-16 0)
(0.0374883 9.57278e-19 0)
(0.0374883 -1.64668e-16 0)
(0.0374883 1.58319e-16 0)
(0.0374883 3.32395e-17 0)
(0.0374883 -7.98551e-17 0)
(0.0374883 -3.48544e-17 0)
(0.0374883 -7.63541e-17 0)
(0.0374883 1.67806e-16 0)
(0.0374883 3.9534e-17 0)
(0.0374883 -9.19482e-17 0)
(0.0374883 -3.83694e-17 0)
(0.0374883 -7.97281e-17 0)
(0.0374883 1.68554e-16 0)
(0.0374883 -5.6829e-18 0)
(0.0374883 -6.40802e-17 0)
(0.0374883 1.74298e-17 0)
(0.0374883 -1.02226e-16 0)
(0.0374883 1.62142e-16 0)
(0.0374883 -6.95254e-18 0)
(0.0374883 -9.49539e-17 0)
(0.0374883 5.71428e-17 0)
(0.0374883 -7.19621e-17 0)
(0.0374883 9.58954e-17 0)
(0.0374883 -1.14991e-18 0)
(0.0374883 -2.65343e-17 0)
(0.0374883 2.51317e-17 0)
(0.0374883 -1.25092e-16 0)
(0.0374883 1.52917e-16 0)
(0.0374883 -1.50529e-17 0)
(0.0374883 -3.98686e-17 0)
(0.0374883 6.78203e-17 0)
(0.0374883 -1.3492e-16 0)
(0.0374883 1.78464e-17 0)
(0.0374883 4.52699e-17 0)
(0.0374883 4.9313e-17 0)
(0.0374883 1.21118e-17 0)
(0.0374883 -1.23964e-16 0)
(0.0374883 8.23073e-17 0)
(0.0374883 -9.0264e-18 0)
(0.0374883 -2.87735e-17 0)
(0.0374883 4.4285e-17 0)
(0.0374883 -1.1087e-16 0)
(0.0374883 1.02828e-16 0)
(0.0374883 -1.68091e-17 0)
(0.0374883 -1.52047e-17 0)
(0.0374883 6.73396e-17 0)
(0.0374883 -1.1968e-16 0)
(0.0374883 5.64802e-17 0)
(0.0374883 -3.35915e-18 0)
(0.0374883 -2.23709e-18 0)
(0.0374883 5.39891e-17 0)
(0.0374883 -1.09002e-16 0)
(0.0374883 7.98772e-17 0)
(0.0374883 3.07808e-17 0)
(0.0374883 -4.49375e-17 0)
(0.0374883 1.46458e-17 0)
(0.0374883 -7.46605e-17 0)
(0.0374883 7.18415e-17 0)
(0.0374883 3.49725e-17 0)
(0.0374883 -8.19579e-17 0)
(0.0374883 4.3604e-17 0)
(0.0374883 -3.37154e-17 0)
(0.0374883 2.94211e-17 0)
(0.0374883 3.52212e-17 0)
(0.0374883 -8.91862e-17 0)
(0.0374883 5.78769e-17 0)
(0.0374883 -3.62668e-17 0)
(0.0374883 2.22484e-17 0)
(0.0374883 4.24729e-17 0)
(0.0374883 -9.07136e-17 0)
(0.0374883 5.92853e-17 0)
(0.0374883 -2.7047e-17 0)
(0.0374883 -2.00291e-17 0)
(0.0374883 9.3011e-17 0)
(0.0374883 -5.09818e-17 0)
(0.0374883 -9.43706e-18 0)
(0.0374883 -6.01682e-17 0)
(0.0374883 3.26017e-17 0)
(0.0374883 1.20705e-16 0)
(0.0374883 -1.26741e-17 0)
(0.0374883 -1.19396e-16 0)
(0.0374883 -2.09209e-17 0)
(0.0374883 6.51269e-17 0)
(0.0374883 2.32857e-18 0)
(0.0374883 7.10764e-17 0)
(0.0374883 -1.2795e-16 0)
(0.0374883 -1.36496e-17 0)
(0.0374883 5.85093e-17 0)
(0.0374883 9.75956e-18 0)
(0.0374883 4.75443e-17 0)
(0.0374883 -9.55608e-17 0)
(0.0374883 2.99972e-17 0)
(0.0374883 2.89931e-17 0)
(0.0374883 -4.88251e-17 0)
(0.0374883 8.63688e-17 0)
(0.0374883 -6.68943e-17 0)
(0.0374883 -3.41704e-18 0)
(0.0374883 2.19919e-17 0)
(0.0374883 -6.58123e-17 0)
(0.0374883 9.8318e-17 0)
(0.0374883 -4.53052e-17 0)
(0.0374883 -6.49243e-17 0)
(0.0374883 4.61158e-17 0)
(0.0374883 -2.07438e-17 0)
(0.0374883 4.6544e-17 0)
(0.0374883 -6.74693e-17 0)
(0.0374883 -2.72687e-16 0)
(0.110591 -1.74099e-15 0)
(0.110591 -4.29858e-16 0)
(0.110591 -1.17045e-16 0)
(0.110591 -5.99596e-17 0)
(0.110591 -2.00902e-17 0)
(0.110591 -1.0132e-17 0)
(0.110591 -1.96275e-17 0)
(0.110591 5.7705e-18 0)
(0.110591 1.1355e-17 0)
(0.110591 -2.37444e-18 0)
(0.110591 2.32524e-18 0)
(0.110591 9.23643e-18 0)
(0.110591 5.2249e-17 0)
(0.110591 1.81197e-17 0)
(0.110591 -2.89594e-17 0)
(0.110591 2.40344e-17 0)
(0.110591 2.90273e-17 0)
(0.110591 2.08342e-17 0)
(0.110591 -5.12478e-18 0)
(0.110591 9.93285e-18 0)
(0.110591 3.10397e-17 0)
(0.110591 1.94506e-17 0)
(0.110591 -2.17408e-17 0)
(0.110591 -2.68705e-17 0)
(0.110591 -3.72551e-17 0)
(0.110591 -2.18308e-17 0)
(0.110591 2.80956e-17 0)
(0.110591 -3.398e-17 0)
(0.110591 -6.33755e-17 0)
(0.110591 -4.69581e-17 0)
(0.110591 4.17281e-18 0)
(0.110591 5.30537e-17 0)
(0.110591 1.77055e-18 0)
(0.110591 -1.22105e-17 0)
(0.110591 -1.7572e-18 0)
(0.110591 -2.80272e-18 0)
(0.110591 3.8029e-17 0)
(0.110591 -2.37351e-17 0)
(0.110591 -4.74627e-17 0)
(0.110591 2.5715e-17 0)
(0.110591 -2.09825e-17 0)
(0.110591 6.2991e-18 0)
(0.110591 1.76114e-17 0)
(0.110591 -2.82885e-17 0)
(0.110591 1.73684e-17 0)
(0.110591 -1.46853e-17 0)
(0.110591 -1.55781e-17 0)
(0.110591 -1.82984e-17 0)
(0.110591 -2.77182e-17 0)
(0.110591 -3.42117e-17 0)
(0.110591 -5.47329e-17 0)
(0.110591 1.29682e-17 0)
(0.110591 -2.19096e-17 0)
(0.110591 -2.88556e-17 0)
(0.110591 2.46303e-17 0)
(0.110591 -5.65635e-17 0)
(0.110591 -1.40705e-18 0)
(0.110591 -6.90324e-18 0)
(0.110591 3.30156e-18 0)
(0.110591 1.61514e-17 0)
(0.110591 -8.37693e-17 0)
(0.110591 4.38913e-17 0)
(0.110591 -3.04265e-18 0)
(0.110591 5.58126e-18 0)
(0.110591 7.72797e-17 0)
(0.110591 -2.45597e-17 0)
(0.110591 2.32328e-17 0)
(0.110591 1.4992e-17 0)
(0.110591 1.23518e-17 0)
(0.110591 4.86685e-17 0)
(0.110591 -3.67053e-17 0)
(0.110591 -2.47804e-18 0)
(0.110591 -1.62185e-17 0)
(0.110591 -2.03686e-17 0)
(0.110591 8.26212e-17 0)
(0.110591 -8.27932e-17 0)
(0.110591 -7.67325e-17 0)
(0.110591 4.62344e-17 0)
(0.110591 -3.59762e-17 0)
(0.110591 2.88668e-17 0)
(0.110591 -2.7399e-17 0)
(0.110591 -1.14346e-16 0)
(0.110591 9.06688e-18 0)
(0.110591 6.29198e-17 0)
(0.110591 5.81761e-17 0)
(0.110591 -3.75035e-18 0)
(0.110591 -4.30318e-17 0)
(0.110591 -1.48265e-17 0)
(0.110591 7.20314e-17 0)
(0.110591 1.28436e-16 0)
(0.110591 -4.07039e-17 0)
(0.110591 -9.41944e-17 0)
(0.110591 9.19188e-18 0)
(0.110591 8.15576e-17 0)
(0.110591 1.09365e-17 0)
(0.110591 -6.13539e-17 0)
(0.110591 2.23613e-17 0)
(0.110591 -8.90761e-18 0)
(0.110591 3.87866e-17 0)
(0.110591 3.76518e-17 0)
(0.110591 -9.96627e-17 0)
(0.110591 2.11916e-17 0)
(0.110591 -6.06221e-17 0)
(0.110591 3.05913e-17 0)
(0.110591 6.82608e-17 0)
(0.110591 9.72963e-18 0)
(0.110591 -6.50905e-17 0)
(0.110591 -8.06992e-18 0)
(0.110591 1.22489e-16 0)
(0.110591 5.97969e-17 0)
(0.110591 2.3596e-17 0)
(0.110591 -1.90266e-16 0)
(0.110591 3.51095e-17 0)
(0.110591 1.65754e-16 0)
(0.110591 2.21454e-17 0)
(0.110591 -3.91217e-17 0)
(0.110591 -1.31054e-16 0)
(0.110591 -8.85324e-18 0)
(0.110591 1.23671e-16 0)
(0.110591 2.35759e-17 0)
(0.110591 -8.15273e-17 0)
(0.110591 -1.36578e-16 0)
(0.110591 4.92834e-18 0)
(0.110591 1.95845e-16 0)
(0.110591 8.5323e-17 0)
(0.110591 -1.06249e-16 0)
(0.110591 -1.528e-16 0)
(0.110591 4.34349e-17 0)
(0.110591 1.84201e-16 0)
(0.110591 8.54158e-18 0)
(0.110591 -6.74834e-17 0)
(0.110591 -9.7359e-17 0)
(0.110591 4.04404e-17 0)
(0.110591 1.05075e-16 0)
(0.110591 -2.22042e-17 0)
(0.110591 -1.6944e-17 0)
(0.110591 -1.27179e-16 0)
(0.110591 -5.20592e-17 0)
(0.110591 9.53928e-17 0)
(0.110591 -5.64324e-18 0)
(0.110591 -4.02248e-17 0)
(0.110591 -9.71309e-17 0)
(0.110591 1.26271e-17 0)
(0.110591 8.4351e-17 0)
(0.110591 3.02192e-18 0)
(0.110591 -2.29708e-17 0)
(0.110591 -1.05326e-16 0)
(0.110591 3.31563e-17 0)
(0.110591 -9.24798e-19 0)
(0.110591 2.50234e-17 0)
(0.110591 8.4769e-17 0)
(0.110591 -1.6609e-16 0)
(0.110591 -1.02482e-16 0)
(0.110591 7.62439e-17 0)
(0.110591 6.43844e-17 0)
(0.110591 6.64204e-17 0)
(0.110591 -5.57173e-17 0)
(0.110591 -6.62534e-17 0)
(0.110591 6.7966e-17 0)
(0.110591 6.25327e-17 0)
(0.110591 9.63479e-17 0)
(0.110591 -1.21544e-16 0)
(0.110591 -1.33997e-18 0)
(0.110591 1.48632e-16 0)
(0.110591 -1.42432e-16 0)
(0.110591 6.79795e-17 0)
(0.110591 2.63324e-17 0)
(0.110591 -7.19652e-17 0)
(0.110591 1.68208e-16 0)
(0.110591 7.62405e-17 0)
(0.110591 8.71575e-18 0)
(0.110591 -9.39268e-17 0)
(0.110591 5.31612e-17 0)
(0.110591 7.59357e-17 0)
(0.110591 -6.48204e-17 0)
(0.110591 -5.91143e-17 0)
(0.110591 -7.25517e-17 0)
(0.110591 1.70966e-16 0)
(0.110591 -5.02292e-17 0)
(0.110591 -5.04936e-17 0)
(0.110591 1.14653e-16 0)
(0.110591 -1.96751e-16 0)
(0.110591 8.06514e-20 0)
(0.110591 9.03449e-17 0)
(0.110591 -2.56272e-17 0)
(0.110591 1.42222e-16 0)
(0.110591 -1.26525e-16 0)
(0.110591 -6.853e-18 0)
(0.110591 1.29051e-16 0)
(0.110591 -1.27882e-16 0)
(0.110591 5.34104e-17 0)
(0.110591 -2.15746e-17 0)
(0.110591 -9.98243e-17 0)
(0.110591 1.64175e-16 0)
(0.110591 -7.0159e-18 0)
(0.110591 1.62854e-17 0)
(0.110591 -9.67434e-17 0)
(0.110591 -3.83772e-17 0)
(0.110591 1.99642e-16 0)
(0.110591 -1.12339e-16 0)
(0.110591 -8.70058e-18 0)
(0.110591 -9.39508e-17 0)
(0.110591 1.03285e-17 0)
(0.110591 1.98694e-16 0)
(0.110591 -7.85213e-17 0)
(0.110591 -1.44996e-16 0)
(0.110591 -1.08107e-16 0)
(0.110591 1.29648e-16 0)
(0.110591 1.39431e-16 0)
(0.110591 -4.1935e-17 0)
(0.110591 -9.88789e-17 0)
(0.110591 -1.09659e-16 0)
(0.110591 3.02744e-16 0)
(0.110591 1.31115e-17 0)
(0.110591 -2.86377e-16 0)
(0.110591 2.57879e-16 0)
(0.110591 2.84953e-17 0)
(0.110591 -8.63843e-17 0)
(0.110591 -7.36559e-17 0)
(0.110591 -1.69231e-16 0)
(0.110591 3.32155e-16 0)
(0.110591 7.2038e-17 0)
(0.110591 -1.43928e-16 0)
(0.110591 -7.52608e-17 0)
(0.110591 -1.88599e-16 0)
(0.110591 3.17834e-16 0)
(0.110591 2.02074e-17 0)
(0.110591 -1.27841e-16 0)
(0.110591 1.01191e-16 0)
(0.110591 -9.58944e-17 0)
(0.110591 1.64785e-16 0)
(0.110591 -4.51864e-17 0)
(0.110591 1.2948e-17 0)
(0.110591 9.09545e-17 0)
(0.110591 -2.30051e-16 0)
(0.110591 7.84727e-17 0)
(0.110591 7.01969e-17 0)
(0.110591 7.12146e-17 0)
(0.110591 1.16341e-16 0)
(0.110591 -2.16241e-16 0)
(0.110591 1.01007e-16 0)
(0.110591 -4.6049e-17 0)
(0.110591 4.18105e-17 0)
(0.110591 1.32856e-16 0)
(0.110591 -3.38361e-16 0)
(0.110591 4.02433e-17 0)
(0.110591 9.71242e-17 0)
(0.110591 1.23445e-16 0)
(0.110591 2.80941e-17 0)
(0.110591 -2.58297e-16 0)
(0.110591 2.13882e-16 0)
(0.110591 -3.13894e-17 0)
(0.110591 -1.6617e-16 0)
(0.110591 -3.14068e-17 0)
(0.110591 -1.6684e-16 0)
(0.110591 3.10493e-16 0)
(0.110591 -1.34752e-17 0)
(0.110591 -5.50853e-17 0)
(0.110591 1.03766e-16 0)
(0.110591 -2.37497e-16 0)
(0.110591 1.07093e-16 0)
(0.110591 5.1371e-17 0)
(0.110591 -4.00506e-17 0)
(0.110591 1.31718e-17 0)
(0.110591 -1.2707e-16 0)
(0.110591 2.20372e-16 0)
(0.110591 3.18858e-17 0)
(0.110591 -1.59932e-17 0)
(0.110591 -3.82902e-17 0)
(0.110591 -1.68232e-16 0)
(0.110591 1.6801e-16 0)
(0.110591 4.8266e-18 0)
(0.110591 4.23576e-17 0)
(0.110591 -6.87875e-17 0)
(0.110591 -2.14414e-16 0)
(0.110591 1.52429e-16 0)
(0.110591 -1.16824e-17 0)
(0.110591 -6.14862e-17 0)
(0.110591 9.66463e-17 0)
(0.110591 -1.51721e-16 0)
(0.110591 7.49172e-17 0)
(0.110591 6.28668e-17 0)
(0.110591 -7.52395e-18 0)
(0.110591 2.59555e-18 0)
(0.110591 -1.74182e-16 0)
(0.110591 9.59519e-17 0)
(0.110591 1.36911e-16 0)
(0.110591 5.95079e-17 0)
(0.110591 -1.77652e-16 0)
(0.110591 -1.3598e-16 0)
(0.110591 2.15229e-16 0)
(0.110591 -5.24163e-17 0)
(0.110591 -7.42175e-17 0)
(0.110591 -3.51707e-17 0)
(0.110591 -4.63118e-17 0)
(0.110591 2.35175e-16 0)
(0.110591 -4.41082e-17 0)
(0.110591 -7.61935e-17 0)
(0.110591 -9.83807e-17 0)
(0.110591 -4.2391e-17 0)
(0.110591 2.6261e-16 0)
(0.110591 2.5106e-17 0)
(0.110591 6.43295e-17 0)
(0.110591 -1.10525e-16 0)
(0.110591 -2.14863e-16 0)
(0.110591 1.03304e-16 0)
(0.110591 6.35602e-17 0)
(0.110591 9.70026e-17 0)
(0.110591 -1.59063e-16 0)
(0.110591 -5.21784e-18 0)
(0.110591 6.96551e-17 0)
(0.110591 -1.30603e-16 0)
(0.110591 1.32391e-16 0)
(0.110591 -5.24477e-17 0)
(0.110591 -1.30761e-16 0)
(0.110591 7.6005e-17 0)
(0.110591 -1.26224e-16 0)
(0.110591 4.06974e-17 0)
(0.110591 -1.03375e-16 0)
(0.110591 -5.42291e-16 0)
(0.181818 -1.27823e-15 0)
(0.181818 -4.31908e-16 0)
(0.181818 -1.9292e-16 0)
(0.181818 -1.24777e-16 0)
(0.181818 -6.46647e-17 0)
(0.181818 -2.11182e-17 0)
(0.181818 -3.64256e-17 0)
(0.181818 1.28031e-17 0)
(0.181818 3.35048e-17 0)
(0.181818 8.06496e-18 0)
(0.181818 -5.46459e-18 0)
(0.181818 3.83305e-17 0)
(0.181818 1.02794e-16 0)
(0.181818 1.92908e-17 0)
(0.181818 -3.94801e-17 0)
(0.181818 4.69346e-17 0)
(0.181818 8.00967e-17 0)
(0.181818 4.52487e-17 0)
(0.181818 2.04408e-17 0)
(0.181818 3.74433e-17 0)
(0.181818 5.57604e-17 0)
(0.181818 7.27567e-18 0)
(0.181818 -5.72539e-17 0)
(0.181818 -3.90282e-17 0)
(0.181818 -4.71536e-17 0)
(0.181818 -5.47487e-17 0)
(0.181818 -4.00777e-18 0)
(0.181818 -8.04389e-17 0)
(0.181818 -1.33348e-16 0)
(0.181818 -1.07923e-16 0)
(0.181818 -2.9776e-19 0)
(0.181818 1.04108e-16 0)
(0.181818 2.66749e-17 0)
(0.181818 -2.82454e-17 0)
(0.181818 -2.07685e-17 0)
(0.181818 2.89397e-18 0)
(0.181818 4.66378e-17 0)
(0.181818 -2.45486e-17 0)
(0.181818 -7.87622e-17 0)
(0.181818 -1.06144e-18 0)
(0.181818 -1.1258e-17 0)
(0.181818 1.09791e-17 0)
(0.181818 2.95359e-17 0)
(0.181818 -4.87394e-17 0)
(0.181818 -2.26558e-17 0)
(0.181818 4.7014e-18 0)
(0.181818 -1.33562e-17 0)
(0.181818 -6.33908e-17 0)
(0.181818 -7.51533e-17 0)
(0.181818 -7.75515e-17 0)
(0.181818 -8.83419e-17 0)
(0.181818 -2.88195e-17 0)
(0.181818 -5.8085e-17 0)
(0.181818 -6.46163e-17 0)
(0.181818 1.03295e-17 0)
(0.181818 -9.43718e-17 0)
(0.181818 -2.32455e-17 0)
(0.181818 -2.36018e-17 0)
(0.181818 1.71514e-18 0)
(0.181818 2.18466e-17 0)
(0.181818 -1.51956e-16 0)
(0.181818 8.87514e-17 0)
(0.181818 -9.3568e-18 0)
(0.181818 5.06732e-18 0)
(0.181818 1.68102e-16 0)
(0.181818 -3.81345e-17 0)
(0.181818 6.21934e-17 0)
(0.181818 4.13607e-17 0)
(0.181818 4.04764e-17 0)
(0.181818 9.00068e-17 0)
(0.181818 -5.30972e-17 0)
(0.181818 -8.18996e-18 0)
(0.181818 -3.54546e-17 0)
(0.181818 2.3639e-17 0)
(0.181818 7.33325e-17 0)
(0.181818 -1.35735e-16 0)
(0.181818 -1.24024e-16 0)
(0.181818 5.7518e-18 0)
(0.181818 -7.69273e-17 0)
(0.181818 9.84872e-18 0)
(0.181818 -6.57645e-17 0)
(0.181818 -1.54414e-16 0)
(0.181818 2.36772e-17 0)
(0.181818 9.75062e-17 0)
(0.181818 9.03492e-17 0)
(0.181818 6.75536e-18 0)
(0.181818 2.622e-17 0)
(0.181818 2.33229e-18 0)
(0.181818 3.80488e-17 0)
(0.181818 2.15112e-16 0)
(0.181818 -3.83212e-17 0)
(0.181818 -9.04196e-17 0)
(0.181818 3.98046e-17 0)
(0.181818 4.94935e-17 0)
(0.181818 2.9486e-17 0)
(0.181818 -2.428e-17 0)
(0.181818 4.22855e-17 0)
(0.181818 -4.70942e-18 0)
(0.181818 -2.59072e-18 0)
(0.181818 -1.79307e-18 0)
(0.181818 -6.44422e-17 0)
(0.181818 -1.24312e-17 0)
(0.181818 -6.17661e-17 0)
(0.181818 1.88908e-17 0)
(0.181818 9.80409e-17 0)
(0.181818 9.90201e-17 0)
(0.181818 -9.81932e-17 0)
(0.181818 -5.57355e-17 0)
(0.181818 2.39897e-16 0)
(0.181818 2.12364e-16 0)
(0.181818 -1.28639e-17 0)
(0.181818 -3.04073e-16 0)
(0.181818 5.57964e-17 0)
(0.181818 2.68486e-16 0)
(0.181818 8.83377e-17 0)
(0.181818 -3.79344e-17 0)
(0.181818 -2.79413e-16 0)
(0.181818 -1.01204e-16 0)
(0.181818 2.84077e-16 0)
(0.181818 1.09558e-16 0)
(0.181818 -2.38059e-16 0)
(0.181818 -2.90649e-16 0)
(0.181818 6.00452e-18 0)
(0.181818 3.81357e-16 0)
(0.181818 2.41484e-16 0)
(0.181818 -1.80966e-16 0)
(0.181818 -3.64573e-16 0)
(0.181818 1.06814e-16 0)
(0.181818 3.50412e-16 0)
(0.181818 3.1177e-17 0)
(0.181818 -1.02764e-16 0)
(0.181818 -2.11239e-16 0)
(0.181818 3.91604e-17 0)
(0.181818 2.34173e-16 0)
(0.181818 -2.4957e-17 0)
(0.181818 -1.2374e-16 0)
(0.181818 -2.26366e-16 0)
(0.181818 -6.76415e-17 0)
(0.181818 1.84971e-16 0)
(0.181818 -1.4586e-17 0)
(0.181818 -1.55517e-16 0)
(0.181818 -1.81054e-16 0)
(0.181818 6.41305e-17 0)
(0.181818 1.19815e-16 0)
(0.181818 -5.85221e-17 0)
(0.181818 -7.69322e-17 0)
(0.181818 -1.2928e-16 0)
(0.181818 8.80223e-17 0)
(0.181818 8.86076e-18 0)
(0.181818 -1.00842e-16 0)
(0.181818 1.14154e-16 0)
(0.181818 -1.25559e-16 0)
(0.181818 -1.63906e-16 0)
(0.181818 2.72372e-17 0)
(0.181818 8.8976e-17 0)
(0.181818 1.48504e-16 0)
(0.181818 -4.48838e-17 0)
(0.181818 -1.1692e-16 0)
(0.181818 8.75711e-17 0)
(0.181818 1.60966e-16 0)
(0.181818 1.51883e-16 0)
(0.181818 -1.69273e-16 0)
(0.181818 -2.42673e-17 0)
(0.181818 2.27877e-16 0)
(0.181818 -7.13463e-17 0)
(0.181818 5.68452e-17 0)
(0.181818 8.42306e-17 0)
(0.181818 7.47808e-17 0)
(0.181818 1.67673e-16 0)
(0.181818 8.24836e-17 0)
(0.181818 2.02676e-17 0)
(0.181818 -8.61739e-17 0)
(0.181818 9.88102e-17 0)
(0.181818 1.66154e-16 0)
(0.181818 -6.30237e-19 0)
(0.181818 -1.74704e-16 0)
(0.181818 -1.95456e-16 0)
(0.181818 8.14909e-17 0)
(0.181818 -1.23787e-18 0)
(0.181818 1.34462e-16 0)
(0.181818 3.60621e-17 0)
(0.181818 -3.8842e-16 0)
(0.181818 -2.92636e-17 0)
(0.181818 2.0793e-16 0)
(0.181818 7.67343e-17 0)
(0.181818 1.4295e-16 0)
(0.181818 -1.84629e-16 0)
(0.181818 -6.76507e-17 0)
(0.181818 1.92654e-16 0)
(0.181818 -6.6921e-17 0)
(0.181818 -5.47357e-18 0)
(0.181818 -3.59779e-17 0)
(0.181818 -7.81162e-17 0)
(0.181818 1.29102e-16 0)
(0.181818 9.70607e-17 0)
(0.181818 4.98917e-17 0)
(0.181818 -1.0764e-16 0)
(0.181818 -7.48333e-17 0)
(0.181818 1.10404e-16 0)
(0.181818 -5.08233e-17 0)
(0.181818 -3.55641e-17 0)
(0.181818 -8.87201e-17 0)
(0.181818 3.04729e-17 0)
(0.181818 1.11062e-16 0)
(0.181818 -7.28168e-17 0)
(0.181818 -1.08929e-16 0)
(0.181818 -1.22993e-16 0)
(0.181818 6.15345e-17 0)
(0.181818 9.44504e-17 0)
(0.181818 9.79352e-18 0)
(0.181818 -2.20931e-17 0)
(0.181818 -1.32521e-16 0)
(0.181818 3.88688e-16 0)
(0.181818 3.94071e-17 0)
(0.181818 -3.31645e-16 0)
(0.181818 2.9634e-16 0)
(0.181818 -7.50634e-17 0)
(0.181818 -3.25397e-18 0)
(0.181818 -8.88006e-17 0)
(0.181818 -3.05372e-16 0)
(0.181818 4.97337e-16 0)
(0.181818 5.19018e-17 0)
(0.181818 -1.27206e-16 0)
(0.181818 -7.78615e-17 0)
(0.181818 -3.53645e-16 0)
(0.181818 4.85558e-16 0)
(0.181818 5.98473e-17 0)
(0.181818 -1.62968e-16 0)
(0.181818 7.08259e-17 0)
(0.181818 -1.53433e-16 0)
(0.181818 4.63542e-16 0)
(0.181818 3.50932e-17 0)
(0.181818 -1.12466e-16 0)
(0.181818 9.71605e-17 0)
(0.181818 -3.16137e-16 0)
(0.181818 1.09962e-16 0)
(0.181818 4.35263e-18 0)
(0.181818 2.88976e-16 0)
(0.181818 3.09136e-16 0)
(0.181818 -4.15394e-16 0)
(0.181818 1.25881e-16 0)
(0.181818 -1.22344e-16 0)
(0.181818 1.36978e-16 0)
(0.181818 2.22433e-16 0)
(0.181818 -6.45681e-16 0)
(0.181818 8.18663e-17 0)
(0.181818 1.5199e-16 0)
(0.181818 2.02638e-16 0)
(0.181818 4.94677e-17 0)
(0.181818 -4.16009e-16 0)
(0.181818 4.64911e-16 0)
(0.181818 -7.99569e-17 0)
(0.181818 -4.40224e-16 0)
(0.181818 -2.43674e-16 0)
(0.181818 -2.14314e-16 0)
(0.181818 7.19102e-16 0)
(0.181818 -2.36783e-17 0)
(0.181818 -1.71848e-16 0)
(0.181818 1.33738e-16 0)
(0.181818 -3.65903e-16 0)
(0.181818 2.43218e-16 0)
(0.181818 3.2354e-17 0)
(0.181818 -6.64206e-18 0)
(0.181818 1.17732e-17 0)
(0.181818 -2.39381e-16 0)
(0.181818 4.65641e-16 0)
(0.181818 -1.60284e-18 0)
(0.181818 -8.95451e-17 0)
(0.181818 2.13139e-17 0)
(0.181818 -3.21233e-16 0)
(0.181818 2.7309e-16 0)
(0.181818 2.76767e-17 0)
(0.181818 -1.6149e-18 0)
(0.181818 -3.59593e-17 0)
(0.181818 -3.93131e-16 0)
(0.181818 2.35545e-16 0)
(0.181818 -8.9896e-18 0)
(0.181818 -2.92685e-17 0)
(0.181818 1.01784e-16 0)
(0.181818 -3.70689e-16 0)
(0.181818 1.77761e-16 0)
(0.181818 3.38251e-17 0)
(0.181818 1.19685e-17 0)
(0.181818 1.1883e-16 0)
(0.181818 -3.3376e-16 0)
(0.181818 2.40007e-16 0)
(0.181818 2.34392e-16 0)
(0.181818 -1.26349e-16 0)
(0.181818 -1.7597e-16 0)
(0.181818 -2.27255e-16 0)
(0.181818 2.68093e-16 0)
(0.181818 5.39221e-17 0)
(0.181818 -2.13669e-16 0)
(0.181818 4.401e-17 0)
(0.181818 -1.03299e-16 0)
(0.181818 1.40734e-16 0)
(0.181818 2.18653e-16 0)
(0.181818 -1.77276e-16 0)
(0.181818 -1.22567e-16 0)
(0.181818 -1.40799e-16 0)
(0.181818 2.73574e-16 0)
(0.181818 4.08234e-16 0)
(0.181818 3.37771e-17 0)
(0.181818 -3.6271e-16 0)
(0.181818 -1.79975e-16 0)
(0.181818 2.47463e-16 0)
(0.181818 3.59291e-17 0)
(0.181818 3.49381e-17 0)
(0.181818 -2.82656e-16 0)
(0.181818 5.81081e-18 0)
(0.181818 1.20951e-16 0)
(0.181818 -1.95246e-16 0)
(0.181818 1.28089e-16 0)
(0.181818 -6.12406e-17 0)
(0.181818 -1.86881e-16 0)
(0.181818 -4.01036e-17 0)
(0.181818 -1.92836e-16 0)
(0.181818 1.4457e-16 0)
(0.181818 -2.40474e-16 0)
(0.181818 -6.37066e-16 0)
(0.251172 -7.06801e-16 0)
(0.251172 -3.776e-16 0)
(0.251172 -2.41985e-16 0)
(0.251172 -1.66559e-16 0)
(0.251172 -8.69355e-17 0)
(0.251172 -4.18649e-17 0)
(0.251172 -4.03263e-17 0)
(0.251172 2.25326e-17 0)
(0.251172 6.1984e-17 0)
(0.251172 3.21062e-17 0)
(0.251172 9.02577e-18 0)
(0.251172 6.09823e-17 0)
(0.251172 1.64828e-16 0)
(0.251172 4.62108e-17 0)
(0.251172 -3.97822e-17 0)
(0.251172 7.66261e-17 0)
(0.251172 1.1919e-16 0)
(0.251172 9.92483e-17 0)
(0.251172 5.63755e-17 0)
(0.251172 5.98027e-17 0)
(0.251172 6.77029e-17 0)
(0.251172 6.06696e-18 0)
(0.251172 -7.12755e-17 0)
(0.251172 -9.40756e-17 0)
(0.251172 -1.07397e-16 0)
(0.251172 -6.67784e-17 0)
(0.251172 -3.54819e-17 0)
(0.251172 -1.44516e-16 0)
(0.251172 -2.32373e-16 0)
(0.251172 -1.63129e-16 0)
(0.251172 2.41917e-17 0)
(0.251172 1.16596e-16 0)
(0.251172 4.56812e-17 0)
(0.251172 -1.16747e-17 0)
(0.251172 -4.34219e-17 0)
(0.251172 -3.21511e-17 0)
(0.251172 5.53154e-17 0)
(0.251172 -7.86833e-18 0)
(0.251172 -1.219e-16 0)
(0.251172 -3.15889e-17 0)
(0.251172 -2.33182e-17 0)
(0.251172 1.58054e-17 0)
(0.251172 1.30748e-17 0)
(0.251172 -6.10346e-17 0)
(0.251172 -2.26913e-17 0)
(0.251172 1.11909e-17 0)
(0.251172 -2.94395e-17 0)
(0.251172 -8.41837e-17 0)
(0.251172 -1.6061e-16 0)
(0.251172 -1.46935e-16 0)
(0.251172 -1.56296e-16 0)
(0.251172 -6.34732e-17 0)
(0.251172 -8.14079e-17 0)
(0.251172 -1.04994e-16 0)
(0.251172 -1.79173e-17 0)
(0.251172 -1.55013e-16 0)
(0.251172 -7.78589e-17 0)
(0.251172 -4.42875e-17 0)
(0.251172 -2.31069e-17 0)
(0.251172 2.90483e-17 0)
(0.251172 -1.50784e-16 0)
(0.251172 7.15059e-17 0)
(0.251172 7.03242e-18 0)
(0.251172 4.66259e-17 0)
(0.251172 1.64035e-16 0)
(0.251172 -1.81308e-17 0)
(0.251172 1.33197e-16 0)
(0.251172 7.29174e-17 0)
(0.251172 9.94022e-17 0)
(0.251172 1.35482e-16 0)
(0.251172 -8.79767e-17 0)
(0.251172 -1.7874e-17 0)
(0.251172 -4.80797e-17 0)
(0.251172 3.53746e-17 0)
(0.251172 9.70731e-17 0)
(0.251172 -2.05697e-16 0)
(0.251172 -1.80585e-16 0)
(0.251172 -7.226e-17 0)
(0.251172 -1.34089e-16 0)
(0.251172 1.07554e-17 0)
(0.251172 -1.11133e-16 0)
(0.251172 -2.14209e-16 0)
(0.251172 2.38211e-17 0)
(0.251172 1.85351e-16 0)
(0.251172 1.59905e-16 0)
(0.251172 -6.8181e-18 0)
(0.251172 3.77639e-17 0)
(0.251172 7.086e-17 0)
(0.251172 9.0033e-17 0)
(0.251172 2.48054e-16 0)
(0.251172 7.54987e-20 0)
(0.251172 -9.78597e-17 0)
(0.251172 3.56356e-17 0)
(0.251172 9.93822e-17 0)
(0.251172 6.50379e-17 0)
(0.251172 -5.95439e-17 0)
(0.251172 5.8562e-17 0)
(0.251172 4.11996e-17 0)
(0.251172 -3.97547e-17 0)
(0.251172 -2.2759e-17 0)
(0.251172 -6.81709e-17 0)
(0.251172 -5.23433e-17 0)
(0.251172 -1.07521e-16 0)
(0.251172 3.97185e-17 0)
(0.251172 1.75668e-16 0)
(0.251172 1.5101e-16 0)
(0.251172 -1.20459e-16 0)
(0.251172 -6.80047e-17 0)
(0.251172 3.86954e-16 0)
(0.251172 3.46242e-16 0)
(0.251172 -2.49402e-17 0)
(0.251172 -3.75959e-16 0)
(0.251172 6.05666e-17 0)
(0.251172 3.41488e-16 0)
(0.251172 2.04493e-16 0)
(0.251172 -1.91412e-17 0)
(0.251172 -4.34468e-16 0)
(0.251172 -1.82459e-16 0)
(0.251172 3.57326e-16 0)
(0.251172 1.84913e-16 0)
(0.251172 -3.49449e-16 0)
(0.251172 -4.9201e-16 0)
(0.251172 4.1003e-17 0)
(0.251172 5.45261e-16 0)
(0.251172 2.85666e-16 0)
(0.251172 -1.84218e-16 0)
(0.251172 -3.91761e-16 0)
(0.251172 1.03848e-16 0)
(0.251172 4.72542e-16 0)
(0.251172 7.84118e-17 0)
(0.251172 -2.01125e-16 0)
(0.251172 -2.29901e-16 0)
(0.251172 1.93821e-17 0)
(0.251172 2.78502e-16 0)
(0.251172 3.43274e-17 0)
(0.251172 -2.0063e-16 0)
(0.251172 -3.89564e-16 0)
(0.251172 -1.24246e-16 0)
(0.251172 3.06218e-16 0)
(0.251172 8.6778e-18 0)
(0.251172 -2.64363e-16 0)
(0.251172 -3.44407e-16 0)
(0.251172 7.17468e-17 0)
(0.251172 1.62045e-16 0)
(0.251172 -5.3459e-17 0)
(0.251172 -8.21376e-17 0)
(0.251172 -3.20416e-16 0)
(0.251172 6.34059e-17 0)
(0.251172 6.90742e-17 0)
(0.251172 -7.86476e-17 0)
(0.251172 9.03372e-17 0)
(0.251172 -2.46719e-16 0)
(0.251172 -1.40868e-16 0)
(0.251172 5.53274e-17 0)
(0.251172 1.45969e-16 0)
(0.251172 1.479e-16 0)
(0.251172 -1.06846e-16 0)
(0.251172 -8.76834e-17 0)
(0.251172 1.87954e-16 0)
(0.251172 2.40969e-16 0)
(0.251172 1.73298e-16 0)
(0.251172 -2.30736e-16 0)
(0.251172 5.97966e-17 0)
(0.251172 3.50872e-16 0)
(0.251172 -1.04957e-16 0)
(0.251172 1.13714e-16 0)
(0.251172 1.75119e-16 0)
(0.251172 1.95813e-16 0)
(0.251172 2.58441e-16 0)
(0.251172 1.1927e-16 0)
(0.251172 5.84315e-17 0)
(0.251172 -1.32346e-16 0)
(0.251172 1.03068e-16 0)