/*--------------------------------*- C++ -*----------------------------------*\
| =========                 |                                                 |
| \\      /  F ield         | OpenFOAM: The Open Source CFD Toolbox           |
|  \\    /   O peration     | Version:  2112                                  |
|   \\  /    A nd           | Website:  www.openfoam.com                      |
|    \\/     M anipulation  |                                                 |
\*---------------------------------------------------------------------------*/
FoamFile
{
    version     2.0;
    format      ascii;
    arch        "LSB;label=32;scalar=64";
    class       volVectorField;
    location    "5";
    object      U;
}
// * * * * * * * * * * * * * * * * * * * * * * * * * * * * * * * * * * * * * //

dimensions      [0 1 -1 0 0 0 0];

internalField   nonuniform List<vector> 
50000
(
(0.0307031 -3.22064e-15 0)
(0.0307031 -6.48581e-16 0)
(0.0307031 -2.64545e-16 0)
(0.0307031 -1.07895e-16 0)
(0.0307031 -5.27267e-17 0)
(0.0307031 -3.27164e-17 0)
(0.0307031 -2.41215e-17 0)
(0.0307031 -2.0045e-17 0)
(0.0307031 -1.71337e-17 0)
(0.0307031 -7.42161e-18 0)
(0.0307031 -1.04465e-17 0)
(0.0307031 -1.15838e-17 0)
(0.0307031 -6.64855e-18 0)
(0.0307031 -3.0547e-18 0)
(0.0307031 -1.05448e-20 0)
(0.0307031 -6.72098e-18 0)
(0.0307031 -7.95334e-18 0)
(0.0307031 -1.97001e-18 0)
(0.0307031 -3.51088e-18 0)
(0.0307031 -3.3638e-18 0)
(0.0307031 3.34277e-18 0)
(0.0307031 1.31481e-19 0)
(0.0307031 6.70496e-19 0)
(0.0307031 1.34405e-18 0)
(0.0307031 -8.80023e-18 0)
(0.0307031 -6.32708e-18 0)
(0.0307031 -1.41258e-18 0)
(0.0307031 1.32545e-17 0)
(0.0307031 -1.17523e-17 0)
(0.0307031 -1.76805e-18 0)
(0.0307031 7.06539e-18 0)
(0.0307031 -1.29901e-17 0)
(0.0307031 -8.16416e-19 0)
(0.0307031 6.84565e-18 0)
(0.0307031 -6.01233e-18 0)
(0.0307031 3.45158e-18 0)
(0.0307031 -5.83666e-18 0)
(0.0307031 -2.41087e-18 0)
(0.0307031 1.26437e-18 0)
(0.0307031 -9.81575e-18 0)
(0.0307031 3.10619e-18 0)
(0.0307031 -8.33789e-18 0)
(0.0307031 1.27966e-17 0)
(0.0307031 9.46658e-18 0)
(0.0307031 -1.72874e-17 0)
(0.0307031 3.22421e-18 0)
(0.0307031 1.70177e-17 0)
(0.0307031 -1.15747e-17 0)
(0.0307031 -1.00692e-17 0)
(0.0307031 1.32099e-17 0)
(0.0307031 2.67878e-18 0)
(0.0307031 8.62653e-18 0)
(0.0307031 -1.44496e-17 0)
(0.0307031 -1.34726e-17 0)
(0.0307031 1.27858e-17 0)
(0.0307031 -7.42146e-18 0)
(0.0307031 2.00851e-17 0)
(0.0307031 -9.96926e-18 0)
(0.0307031 -2.0936e-17 0)
(0.0307031 1.06596e-17 0)
(0.0307031 7.09087e-18 0)
(0.0307031 -8.86223e-18 0)
(0.0307031 -1.46083e-18 0)
(0.0307031 1.50487e-17 0)
(0.0307031 -2.06022e-17 0)
(0.0307031 1.98044e-18 0)
(0.0307031 5.8701e-18 0)
(0.0307031 8.40985e-18 0)
(0.0307031 7.49922e-18 0)
(0.0307031 -1.22915e-17 0)
(0.0307031 -1.09048e-17 0)
(0.0307031 -1.97976e-19 0)
(0.0307031 2.81253e-17 0)
(0.0307031 -1.4532e-17 0)
(0.0307031 -1.69373e-17 0)
(0.0307031 3.23483e-17 0)
(0.0307031 2.95677e-18 0)
(0.0307031 -3.08813e-17 0)
(0.0307031 -8.44081e-18 0)
(0.0307031 1.4248e-17 0)
(0.0307031 5.11096e-18 0)
(0.0307031 -6.37784e-18 0)
(0.0307031 2.63203e-18 0)
(0.0307031 1.53432e-17 0)
(0.0307031 -2.10574e-17 0)
(0.0307031 1.46988e-17 0)
(0.0307031 1.71105e-17 0)
(0.0307031 -1.82952e-17 0)
(0.0307031 -1.14976e-18 0)
(0.0307031 -1.02216e-17 0)
(0.0307031 7.50307e-18 0)
(0.0307031 1.97605e-17 0)
(0.0307031 -1.33064e-17 0)
(0.0307031 5.17728e-19 0)
(0.0307031 1.51057e-17 0)
(0.0307031 -3.98061e-17 0)
(0.0307031 1.15236e-17 0)
(0.0307031 3.42309e-17 0)
(0.0307031 -1.82593e-17 0)
(0.0307031 -6.70124e-18 0)
(0.0307031 1.44359e-17 0)
(0.0307031 2.75935e-17 0)
(0.0307031 -2.47716e-17 0)
(0.0307031 -2.48171e-17 0)
(0.0307031 4.56173e-17 0)
(0.0307031 -2.0036e-17 0)
(0.0307031 -2.11249e-17 0)
(0.0307031 1.10422e-17 0)
(0.0307031 2.0687e-18 0)
(0.0307031 2.88928e-17 0)
(0.0307031 -2.62992e-17 0)
(0.0307031 -3.1043e-17 0)
(0.0307031 1.72764e-17 0)
(0.0307031 7.01847e-18 0)
(0.0307031 2.48788e-17 0)
(0.0307031 -9.02231e-18 0)
(0.0307031 -4.24561e-17 0)
(0.0307031 6.13824e-18 0)
(0.0307031 2.42861e-17 0)
(0.0307031 -1.93197e-18 0)
(0.0307031 -7.38134e-18 0)
(0.0307031 -9.54017e-19 0)
(0.0307031 2.78513e-17 0)
(0.0307031 1.54005e-18 0)
(0.0307031 -4.68768e-17 0)
(0.0307031 2.76775e-17 0)
(0.0307031 2.53262e-17 0)
(0.0307031 -2.63276e-17 0)
(0.0307031 -1.50925e-18 0)
(0.0307031 1.51776e-19 0)
(0.0307031 -1.59888e-17 0)
(0.0307031 -4.08503e-18 0)
(0.0307031 3.0987e-17 0)
(0.0307031 -3.04672e-18 0)
(0.0307031 -1.02226e-17 0)
(0.0307031 8.40867e-18 0)
(0.0307031 1.49836e-17 0)
(0.0307031 -2.89928e-17 0)
(0.0307031 1.18317e-17 0)
(0.0307031 2.93691e-17 0)
(0.0307031 -3.46885e-17 0)
(0.0307031 -3.31828e-17 0)
(0.0307031 8.19002e-18 0)
(0.0307031 3.76259e-17 0)
(0.0307031 -1.68023e-17 0)
(0.0307031 -3.28496e-18 0)
(0.0307031 4.76818e-17 0)
(0.0307031 -2.92108e-17 0)
(0.0307031 -3.23907e-17 0)
(0.0307031 3.46612e-17 0)
(0.0307031 -8.79275e-18 0)
(0.0307031 -2.36665e-19 0)
(0.0307031 3.60864e-17 0)
(0.0307031 -3.99982e-17 0)
(0.0307031 -7.96316e-21 0)
(0.0307031 2.7137e-17 0)
(0.0307031 -5.81072e-17 0)
(0.0307031 -2.20066e-17 0)
(0.0307031 3.88062e-17 0)
(0.0307031 5.72852e-17 0)
(0.0307031 -3.5211e-17 0)
(0.0307031 -6.5995e-18 0)
(0.0307031 2.00234e-18 0)
(0.0307031 -1.53967e-18 0)
(0.0307031 -5.49567e-18 0)
(0.0307031 -5.15369e-18 0)
(0.0307031 9.11746e-18 0)
(0.0307031 -5.94116e-17 0)
(0.0307031 7.35345e-17 0)
(0.0307031 1.50367e-17 0)
(0.0307031 -8.18756e-17 0)
(0.0307031 6.29335e-17 0)
(0.0307031 3.53042e-17 0)
(0.0307031 -6.66879e-17 0)
(0.0307031 1.32538e-17 0)
(0.0307031 4.56465e-18 0)
(0.0307031 1.47245e-17 0)
(0.0307031 -7.7294e-18 0)
(0.0307031 -1.31551e-17 0)
(0.0307031 4.02763e-17 0)
(0.0307031 -4.37092e-17 0)
(0.0307031 -1.04433e-17 0)
(0.0307031 3.1722e-17 0)
(0.0307031 -2.69391e-17 0)
(0.0307031 5.01564e-17 0)
(0.0307031 -2.08909e-18 0)
(0.0307031 -5.25164e-17 0)
(0.0307031 3.89223e-17 0)
(0.0307031 1.71235e-18 0)
(0.0307031 -2.09536e-17 0)
(0.0307031 -8.52065e-18 0)
(0.0307031 -1.28727e-18 0)
(0.0307031 -4.05382e-17 0)
(0.0307031 3.91264e-17 0)
(0.0307031 4.06629e-17 0)
(0.0307031 -3.09365e-17 0)
(0.0307031 1.37386e-17 0)
(0.0307031 3.85889e-17 0)
(0.0307031 -6.38467e-17 0)
(0.0307031 -4.16108e-17 0)
(0.0307031 5.00843e-17 0)
(0.0307031 -2.07161e-17 0)
(0.0307031 1.58515e-17 0)
(0.0307031 -1.56253e-18 0)
(0.0307031 5.04564e-17 0)
(0.0307031 -1.93264e-17 0)
(0.0307031 -6.48161e-17 0)
(0.0307031 2.41975e-17 0)
(0.0307031 9.94499e-18 0)
(0.0307031 1.37879e-18 0)
(0.0307031 4.61626e-17 0)
(0.0307031 -3.83556e-17 0)
(0.0307031 -5.25004e-17 0)
(0.0307031 9.66702e-17 0)
(0.0307031 -5.84781e-17 0)
(0.0307031 -3.70541e-17 0)
(0.0307031 3.14411e-17 0)
(0.0307031 -1.14542e-17 0)
(0.0307031 1.60687e-17 0)
(0.0307031 4.55909e-17 0)
(0.0307031 -3.19742e-18 0)
(0.0307031 -4.6205e-17 0)
(0.0307031 -3.09432e-17 0)
(0.0307031 -6.0099e-18 0)
(0.0307031 4.58462e-17 0)
(0.0307031 -4.39504e-17 0)
(0.0307031 3.49651e-17 0)
(0.0307031 4.11318e-17 0)
(0.0307031 -3.19894e-17 0)
(0.0307031 4.12913e-17 0)
(0.0307031 7.6651e-18 0)
(0.0307031 -8.91959e-17 0)
(0.0307031 3.9317e-17 0)
(0.0307031 7.90601e-18 0)
(0.0307031 -5.59837e-17 0)
(0.0307031 4.95348e-17 0)
(0.0307031 7.04265e-18 0)
(0.0307031 4.6698e-17 0)
(0.0307031 -4.43939e-17 0)
(0.0307031 -2.79205e-18 0)
(0.0307031 2.23762e-18 0)
(0.0307031 -4.8906e-17 0)
(0.0307031 3.41795e-17 0)
(0.0307031 6.00708e-17 0)
(0.0307031 -4.99601e-17 0)
(0.0307031 -7.90052e-18 0)
(0.0307031 5.20043e-17 0)
(0.0307031 -5.58116e-17 0)
(0.0307031 5.83515e-18 0)
(0.0307031 -2.97224e-17 0)
(0.0307031 -9.70548e-18 0)
(0.0307031 -4.62404e-18 0)
(0.0307031 9.70967e-17 0)
(0.0307031 -4.23039e-18 0)
(0.0307031 -4.96082e-17 0)
(0.0307031 5.03823e-17 0)
(0.0307031 -4.26715e-17 0)
(0.0307031 -4.77753e-17 0)
(0.0307031 5.30297e-17 0)
(0.0307031 -1.89128e-17 0)
(0.0307031 3.4988e-18 0)
(0.0307031 6.98191e-17 0)
(0.0307031 -1.06678e-16 0)
(0.0307031 5.53651e-17 0)
(0.0307031 -1.45602e-17 0)
(0.0307031 -2.59314e-17 0)
(0.0307031 4.8935e-17 0)
(0.0307031 -6.14269e-17 0)
(0.0307031 1.94264e-17 0)
(0.0307031 1.37078e-16 0)
(0.0307031 -1.12307e-16 0)
(0.0307031 -5.8074e-17 0)
(0.0307031 7.17723e-17 0)
(0.0307031 -5.90574e-17 0)
(0.0307031 9.22583e-17 0)
(0.0307031 -8.50021e-17 0)
(0.0307031 -9.80408e-18 0)
(0.0307031 8.19762e-17 0)
(0.0307031 7.20883e-18 0)
(0.0307031 -4.80246e-17 0)
(0.0307031 -3.15878e-18 0)
(0.0307031 -1.3451e-17 0)
(0.0307031 6.46673e-18 0)
(0.0307031 2.9565e-17 0)
(0.0307031 -8.34235e-17 0)
(0.0307031 1.12058e-16 0)
(0.0307031 -2.67226e-17 0)
(0.0307031 -8.9329e-17 0)
(0.0307031 7.34388e-17 0)
(0.0307031 5.75347e-17 0)
(0.0307031 -8.43139e-17 0)
(0.0307031 -2.87843e-17 0)
(0.0307031 5.71235e-17 0)
(0.0307031 -2.66226e-17 0)
(0.0307031 8.26447e-17 0)
(0.0307031 4.7544e-17 0)
(0.0307031 -1.69209e-16 0)
(0.0307031 1.92778e-17 0)
(0.0307031 3.88662e-17 0)
(0.0307031 -7.28255e-17 0)
(0.0307031 7.68767e-17 0)
(0.0307031 -4.44563e-17 0)
(0.0307031 1.96051e-17 0)
(0.0307031 1.32076e-16 0)
(0.0307031 -1.01179e-16 0)
(0.0307031 -8.23607e-17 0)
(0.0307031 1.15054e-16 0)
(0.0307031 -5.3308e-17 0)
(0.0307031 -6.62673e-17 0)
(0.0307031 6.94947e-17 0)
(0.0307031 5.56005e-17 0)
(0.0307031 -7.01512e-17 0)
(0.0307031 1.15553e-17 0)
(0.0307031 1.11874e-17 0)
(0.0307031 -5.69442e-17 0)
(0.0307031 8.40414e-17 0)
(0.0307031 -9.67447e-17 0)
(0.0307031 -4.65158e-18 0)
(0.0307031 7.96545e-17 0)
(0.0307031 1.16316e-17 0)
(0.0307031 2.06183e-17 0)
(0.0307031 -7.24574e-18 0)
(0.0307031 -9.39624e-17 0)
(0.0307031 -4.10739e-17 0)
(0.0307031 1.40666e-16 0)
(0.0307031 -1.07899e-16 0)
(0.0307031 -8.53906e-18 0)
(0.0307031 4.17057e-17 0)
(0.0307031 5.81064e-17 0)
(0.0307031 6.83262e-17 0)
(0.0307031 -1.67973e-16 0)
(0.0307031 3.45204e-19 0)
(0.0307031 1.13377e-16 0)
(0.0307031 -1.17716e-16 0)
(0.0307031 7.32116e-18 0)
(0.0307031 1.58609e-16 0)
(0.0307031 -1.61462e-16 0)
(0.0307031 6.80987e-17 0)
(0.0307031 1.05576e-16 0)
(0.0307031 -1.56535e-16 0)
(0.0307031 1.08261e-17 0)
(0.0307031 7.33208e-17 0)
(0.0307031 -8.74301e-17 0)
(0.0307031 8.76652e-18 0)
(0.0307031 1.3361e-16 0)
(0.0307031 -4.42651e-17 0)
(0.0307031 -4.42151e-17 0)
(0.0307031 -1.62333e-17 0)
(0.0307031 -4.38208e-17 0)
(0.0307031 2.32296e-17 0)
(0.0307031 6.19582e-17 0)
(0.0307031 -9.75833e-17 0)
(0.0307031 8.90987e-18 0)
(0.0307031 1.36044e-16 0)
(0.0307031 -3.52255e-17 0)
(0.0307031 -4.05814e-17 0)
(0.0307031 -6.17905e-17 0)
(0.0307031 -4.02053e-18 0)
(0.0307031 8.77155e-17 0)
(0.0307031 -9.84355e-17 0)
(0.0307031 8.38905e-17 0)
(0.0307031 8.74623e-18 0)
(0.0307031 -9.65723e-17 0)
(0.0307031 1.28124e-16 0)
(0.0307031 -6.94898e-17 0)
(0.0307031 -4.74098e-17 0)
(0.0307031 4.8704e-17 0)
(0.0307031 3.45385e-17 0)
(0.0307031 -9.86944e-17 0)
(0.0307031 7.12288e-17 0)
(0.0307031 8.26476e-17 0)
(0.0307031 -9.95576e-17 0)
(0.0307031 -3.36303e-17 0)
(0.0307031 6.35952e-19 0)
(0.0307031 5.82129e-17 0)
(0.0307031 -1.7297e-17 0)
(0.0307031 5.07752e-17 0)
(0.0307031 -9.32897e-17 0)
(0.0307031 6.52426e-17 0)
(0.0307031 7.7866e-17 0)
(0.0307031 -1.03305e-16 0)
(0.0307031 -3.91567e-17 0)
(0.0307031 5.14355e-17 0)
(0.0307031 7.69148e-18 0)
(0.0307031 -2.19096e-17 0)
(0.0307031 4.96267e-17 0)
(0.0307031 -1.13449e-16 0)
(0.0307031 1.1618e-16 0)
(0.0307031 2.30874e-17 0)
(0.0307031 -8.96736e-17 0)
(0.0307031 1.70915e-17 0)
(0.0307031 5.38464e-18 0)
(0.0307031 7.91919e-18 0)
(0.0307031 -2.96786e-17 0)
(0.0307031 4.21363e-17 0)
(0.0307031 9.52417e-17 0)
(0.0307031 -3.66001e-17 0)
(0.0307031 -1.66799e-16 0)
(0.0307031 6.45783e-18 0)
(0.0307031 7.62029e-17 0)
(0.0307031 4.41765e-18 0)
(0.0307031 1.24678e-16 0)
(0.0307031 -1.21653e-16 0)
(0.0307031 -8.27013e-17 0)
(0.0307031 6.46804e-17 0)
(0.0307031 9.72795e-17 0)
(0.0307031 -4.0127e-17 0)
(0.0307031 -1.44798e-16 0)
(0.0307031 7.05079e-17 0)
(0.0307031 2.58136e-17 0)
(0.0307031 1.38014e-16 0)
(0.0307031 -1.31213e-16 0)
(0.0307031 -7.66226e-17 0)
(0.0307031 9.7104e-17 0)
(0.0307031 -1.77496e-17 0)
(0.0307031 1.00184e-17 0)
(0.0307031 -2.77208e-17 0)
(0.0307031 9.66351e-18 0)
(0.0307031 1.95963e-17 0)
(0.0307031 9.98262e-17 0)
(0.0307031 -1.19034e-16 0)
(0.0307031 -1.00695e-16 0)
(0.0307031 2.22734e-16 0)
(0.0307031 -9.75834e-17 0)
(0.0307031 -1.09562e-16 0)
(0.0307031 7.93802e-17 0)
(0.0307031 2.21344e-17 0)
(0.0307031 -3.02345e-18 0)
(0.0307031 8.90986e-17 0)
(0.0307031 -1.04439e-16 0)
(0.0307031 -1.15927e-16 0)
(0.0307031 2.25783e-16 0)
(0.0307031 -6.7011e-17 0)
(0.0307031 -1.41125e-16 0)
(0.0307031 6.19481e-17 0)
(0.0307031 1.66849e-16 0)
(0.0307031 -1.08044e-16 0)
(0.0307031 -1.16832e-17 0)
(0.0307031 8.29978e-18 0)
(0.0307031 -1.14882e-16 0)
(0.0307031 2.12535e-16 0)
(0.0307031 -1.19999e-16 0)
(0.0307031 -1.93845e-17 0)
(0.0307031 -8.55535e-17 0)
(0.0307031 1.09718e-16 0)
(0.0307031 8.60862e-17 0)
(0.0307031 -1.83407e-16 0)
(0.0307031 1.02831e-16 0)
(0.0307031 -1.48535e-17 0)
(0.0307031 2.90562e-17 0)
(0.0307031 -2.78013e-17 0)
(0.0307031 8.77749e-17 0)
(0.0307031 -1.73407e-16 0)
(0.0307031 1.04068e-16 0)
(0.0307031 7.36335e-17 0)
(0.0307031 -1.87198e-16 0)
(0.0307031 1.02473e-16 0)
(0.0307031 9.39722e-17 0)
(0.0307031 -5.30708e-17 0)
(0.0307031 -1.57885e-16 0)
(0.0307031 1.98844e-16 0)
(0.0307031 -1.42186e-16 0)
(0.0307031 7.8405e-17 0)
(0.0307031 1.75653e-16 0)
(0.0307031 -2.97484e-16 0)
(0.0307031 2.99362e-17 0)
(0.0307031 1.73975e-16 0)
(0.0307031 -1.63344e-17 0)
(0.0307031 -1.78958e-16 0)
(0.0307031 1.03357e-16 0)
(0.0307031 -1.18129e-17 0)
(0.0307031 -2.39629e-18 0)
(0.0307031 1.09639e-17 0)
(0.0307031 -1.09032e-16 0)
(0.0307031 1.02675e-16 0)
(0.0307031 -4.98996e-19 0)
(0.0307031 8.36514e-17 0)
(0.0307031 -1.22809e-16 0)
(0.0307031 -5.60808e-17 0)
(0.0307031 8.74274e-17 0)
(0.0307031 6.50928e-17 0)
(0.0307031 -7.01014e-17 0)
(0.0307031 -9.32359e-17 0)
(0.0307031 1.91173e-16 0)
(0.0307031 -1.33032e-16 0)
(0.0307031 1.74562e-17 0)
(0.0307031 5.38218e-18 0)
(0.0307031 -9.53249e-17 0)
(0.0307031 1.85612e-16 0)
(0.0307031 -4.37814e-17 0)
(0.0307031 -1.8578e-16 0)
(0.0307031 2.86908e-17 0)
(0.0307031 1.68217e-16 0)
(0.0307031 -1.42533e-16 0)
(0.0307031 -1.38478e-17 0)
(0.0307031 -3.28243e-17 0)
(0.0307031 -5.99456e-17 0)
(0.0307031 -6.39176e-18 0)
(0.0307031 -3.58531e-16 0)
(0.0307031 -6.24214e-16 0)
(0.090875 -5.43258e-15 0)
(0.090875 -1.48322e-15 0)
(0.090875 -5.13286e-16 0)
(0.090875 -2.24153e-16 0)
(0.090875 -1.175e-16 0)
(0.090875 -8.37375e-17 0)
(0.090875 -6.35913e-17 0)
(0.090875 -4.26331e-17 0)
(0.090875 -4.64244e-17 0)
(0.090875 -3.47282e-17 0)
(0.090875 -3.65314e-17 0)
(0.090875 -3.7531e-17 0)
(0.090875 -1.99628e-17 0)
(0.090875 -1.62556e-17 0)
(0.090875 -1.02341e-17 0)
(0.090875 -1.5397e-17 0)
(0.090875 -2.92528e-17 0)
(0.090875 -2.10224e-17 0)
(0.090875 -4.44914e-18 0)
(0.090875 -3.86537e-20 0)
(0.090875 -1.43723e-18 0)
(0.090875 2.1032e-18 0)
(0.090875 1.67406e-17 0)
(0.090875 5.21951e-18 0)
(0.090875 -2.50821e-17 0)
(0.090875 -3.19497e-17 0)
(0.090875 -7.35483e-18 0)
(0.090875 1.60787e-17 0)
(0.090875 -4.00342e-17 0)
(0.090875 -1.01108e-17 0)
(0.090875 6.2589e-18 0)
(0.090875 -2.15516e-17 0)
(0.090875 -1.60898e-17 0)
(0.090875 -9.20005e-18 0)
(0.090875 -2.56949e-17 0)
(0.090875 -1.59028e-17 0)
(0.090875 -2.65413e-17 0)
(0.090875 -1.53037e-17 0)
(0.090875 -6.95026e-18 0)
(0.090875 -2.75993e-17 0)
(0.090875 3.67602e-18 0)
(0.090875 -3.4263e-17 0)
(0.090875 4.7444e-18 0)
(0.090875 4.18217e-17 0)
(0.090875 4.51685e-19 0)
(0.090875 3.14553e-17 0)
(0.090875 3.34751e-17 0)
(0.090875 -3.42677e-17 0)
(0.090875 -1.53645e-17 0)
(0.090875 3.93059e-17 0)
(0.090875 2.98348e-17 0)
(0.090875 6.24405e-18 0)
(0.090875 -4.42492e-17 0)
(0.090875 -2.38685e-17 0)
(0.090875 3.51174e-17 0)
(0.090875 -2.82717e-17 0)
(0.090875 1.72443e-17 0)
(0.090875 -1.52903e-17 0)
(0.090875 -5.22492e-17 0)
(0.090875 -1.72806e-19 0)
(0.090875 -5.58762e-18 0)
(0.090875 -1.35577e-17 0)
(0.090875 -5.57848e-18 0)
(0.090875 2.6423e-17 0)
(0.090875 -1.48196e-17 0)
(0.090875 3.30061e-17 0)
(0.090875 -4.38001e-17 0)
(0.090875 -2.73223e-17 0)
(0.090875 7.26205e-17 0)
(0.090875 -1.20549e-17 0)
(0.090875 -1.6841e-17 0)
(0.090875 2.26623e-17 0)
(0.090875 5.89235e-17 0)
(0.090875 -2.57678e-17 0)
(0.090875 -5.11928e-17 0)
(0.090875 8.2185e-17 0)
(0.090875 1.28841e-17 0)
(0.090875 -6.53277e-17 0)
(0.090875 -2.70736e-17 0)
(0.090875 3.36477e-17 0)
(0.090875 1.43184e-18 0)
(0.090875 -3.53956e-17 0)
(0.090875 3.38977e-17 0)
(0.090875 6.90311e-18 0)
(0.090875 -3.71734e-17 0)
(0.090875 6.5679e-17 0)
(0.090875 4.20275e-18 0)
(0.090875 -2.70328e-17 0)
(0.090875 7.15464e-18 0)
(0.090875 4.18814e-18 0)
(0.090875 1.82217e-17 0)
(0.090875 1.07138e-17 0)
(0.090875 5.42153e-18 0)
(0.090875 6.75874e-18 0)
(0.090875 1.2506e-17 0)
(0.090875 -5.68246e-17 0)
(0.090875 2.05838e-17 0)
(0.090875 8.6897e-17 0)
(0.090875 -3.09724e-17 0)
(0.090875 -2.64861e-17 0)
(0.090875 6.95116e-17 0)
(0.090875 4.99345e-17 0)
(0.090875 -5.4769e-18 0)
(0.090875 4.94652e-18 0)
(0.090875 1.23486e-17 0)
(0.090875 -4.00694e-17 0)
(0.090875 -1.6871e-17 0)
(0.090875 -1.18079e-17 0)
(0.090875 2.2085e-17 0)
(0.090875 5.21222e-17 0)
(0.090875 -3.63947e-17 0)
(0.090875 -9.9403e-17 0)
(0.090875 -2.24731e-17 0)
(0.090875 1.00512e-16 0)
(0.090875 3.45313e-17 0)
(0.090875 -6.84917e-17 0)
(0.090875 -4.22999e-17 0)
(0.090875 3.75456e-17 0)
(0.090875 6.20141e-17 0)
(0.090875 -1.03831e-18 0)
(0.090875 -2.68841e-17 0)
(0.090875 8.26382e-18 0)
(0.090875 5.54873e-17 0)
(0.090875 5.66738e-18 0)
(0.090875 -5.50678e-17 0)
(0.090875 6.62194e-17 0)
(0.090875 4.78998e-17 0)
(0.090875 -3.49917e-17 0)
(0.090875 -1.85213e-18 0)
(0.090875 7.93068e-18 0)
(0.090875 6.23027e-18 0)
(0.090875 5.45359e-18 0)
(0.090875 1.1396e-16 0)
(0.090875 -6.34565e-17 0)
(0.090875 -9.05862e-17 0)
(0.090875 6.38101e-17 0)
(0.090875 -5.40826e-18 0)
(0.090875 -4.98086e-17 0)
(0.090875 7.88771e-17 0)
(0.090875 2.34609e-17 0)
(0.090875 -1.28379e-16 0)
(0.090875 -6.94365e-17 0)
(0.090875 5.79064e-17 0)
(0.090875 1.04643e-16 0)
(0.090875 -5.43459e-17 0)
(0.090875 4.95468e-18 0)
(0.090875 1.54836e-16 0)
(0.090875 -2.63104e-17 0)
(0.090875 -6.54384e-17 0)
(0.090875 1.06039e-16 0)
(0.090875 -8.39907e-17 0)
(0.090875 -4.01711e-17 0)
(0.090875 1.35684e-16 0)
(0.090875 -1.35743e-16 0)
(0.090875 -4.68996e-17 0)
(0.090875 5.15978e-17 0)
(0.090875 -1.12994e-16 0)
(0.090875 -5.45688e-18 0)
(0.090875 -1.47179e-17 0)
(0.090875 7.49046e-17 0)
(0.090875 6.51715e-17 0)
(0.090875 -4.78881e-17 0)
(0.090875 -3.77027e-17 0)
(0.090875 1.9253e-17 0)
(0.090875 -2.42845e-17 0)
(0.090875 -1.23013e-17 0)
(0.090875 6.55692e-17 0)
(0.090875 -1.57051e-16 0)
(0.090875 7.84516e-17 0)
(0.090875 1.43106e-16 0)
(0.090875 -1.53268e-16 0)
(0.090875 4.03774e-17 0)
(0.090875 1.32614e-16 0)
(0.090875 -9.98298e-17 0)
(0.090875 -4.13962e-17 0)
(0.090875 7.07715e-17 0)
(0.090875 9.94733e-17 0)
(0.090875 -7.21054e-19 0)
(0.090875 -7.32322e-17 0)
(0.090875 8.07771e-17 0)
(0.090875 3.96959e-18 0)
(0.090875 -8.32682e-17 0)
(0.090875 1.02921e-17 0)
(0.090875 -1.38155e-17 0)
(0.090875 8.18475e-17 0)
(0.090875 -1.57948e-17 0)
(0.090875 -9.51782e-17 0)
(0.090875 -1.31614e-17 0)
(0.090875 -1.77825e-17 0)
(0.090875 1.86406e-17 0)
(0.090875 -6.81161e-17 0)
(0.090875 -4.74233e-17 0)
(0.090875 7.01314e-19 0)
(0.090875 1.10851e-16 0)
(0.090875 4.86742e-17 0)
(0.090875 -5.12692e-17 0)
(0.090875 5.8728e-17 0)
(0.090875 6.28389e-18 0)
(0.090875 -1.69112e-16 0)
(0.090875 -6.92784e-17 0)
(0.090875 6.6016e-17 0)
(0.090875 -1.08254e-16 0)
(0.090875 1.28589e-16 0)
(0.090875 7.14734e-17 0)
(0.090875 2.99089e-17 0)
(0.090875 1.06311e-16 0)
(0.090875 -1.07247e-16 0)
(0.090875 -1.06445e-16 0)
(0.090875 5.96876e-17 0)
(0.090875 -2.80861e-17 0)
(0.090875 1.24305e-17 0)
(0.090875 2.46985e-17 0)
(0.090875 -6.79866e-17 0)
(0.090875 6.93813e-17 0)
(0.090875 -6.59599e-17 0)
(0.090875 8.66259e-18 0)
(0.090875 -7.26793e-17 0)
(0.090875 -6.89326e-17 0)
(0.090875 8.61549e-17 0)
(0.090875 9.20857e-17 0)
(0.090875 -1.39846e-17 0)
(0.090875 -6.02845e-17 0)
(0.090875 4.16159e-17 0)
(0.090875 -7.17197e-17 0)
(0.090875 4.86564e-18 0)
(0.090875 4.81471e-17 0)
(0.090875 -1.9178e-17 0)
(0.090875 1.69313e-17 0)
(0.090875 1.18481e-16 0)
(0.090875 4.88457e-18 0)
(0.090875 -4.29862e-17 0)
(0.090875 -9.06747e-17 0)
(0.090875 2.0282e-17 0)
(0.090875 3.15755e-17 0)
(0.090875 -8.00731e-17 0)
(0.090875 8.56055e-17 0)
(0.090875 5.00466e-17 0)
(0.090875 7.0733e-17 0)
(0.090875 -5.25914e-17 0)
(0.090875 -2.43311e-17 0)
(0.090875 -1.06938e-17 0)
(0.090875 -8.66859e-17 0)
(0.090875 2.13545e-17 0)
(0.090875 1.36434e-16 0)
(0.090875 -6.85979e-17 0)
(0.090875 -3.68448e-17 0)
(0.090875 7.08593e-17 0)
(0.090875 -9.96512e-17 0)
(0.090875 5.04321e-18 0)
(0.090875 2.32283e-18 0)
(0.090875 -2.63408e-17 0)
(0.090875 3.90849e-17 0)
(0.090875 1.18004e-16 0)
(0.090875 -5.04065e-17 0)
(0.090875 -2.89482e-17 0)
(0.090875 6.9827e-17 0)
(0.090875 -4.99719e-17 0)
(0.090875 -8.2816e-17 0)
(0.090875 5.86399e-17 0)
(0.090875 -7.65094e-17 0)
(0.090875 5.21685e-17 0)
(0.090875 1.85572e-16 0)
(0.090875 -1.49632e-16 0)
(0.090875 5.18228e-17 0)
(0.090875 -1.03951e-16 0)
(0.090875 -9.30947e-17 0)
(0.090875 2.81984e-16 0)
(0.090875 -2.13615e-16 0)
(0.090875 -1.30148e-16 0)
(0.090875 3.94443e-16 0)
(0.090875 -1.67463e-16 0)
(0.090875 -1.19812e-16 0)
(0.090875 1.41789e-16 0)
(0.090875 -1.00355e-16 0)
(0.090875 1.00736e-16 0)
(0.090875 -9.54162e-17 0)
(0.090875 -4.4759e-17 0)
(0.090875 1.0118e-16 0)
(0.090875 9.45786e-17 0)
(0.090875 -1.34e-16 0)
(0.090875 -1.23415e-16 0)
(0.090875 -5.44024e-17 0)
(0.090875 4.71661e-17 0)
(0.090875 1.37238e-16 0)
(0.090875 -1.71152e-16 0)
(0.090875 2.04717e-16 0)
(0.090875 1.13113e-17 0)
(0.090875 -2.187e-16 0)
(0.090875 1.66746e-16 0)
(0.090875 1.07146e-16 0)
(0.090875 -2.06345e-16 0)
(0.090875 8.75735e-17 0)
(0.090875 6.2242e-18 0)
(0.090875 -1.67821e-16 0)
(0.090875 3.19113e-16 0)
(0.090875 7.39061e-17 0)
(0.090875 -3.27968e-16 0)
(0.090875 6.99308e-17 0)
(0.090875 -2.90797e-17 0)
(0.090875 -1.91341e-16 0)
(0.090875 3.10485e-16 0)
(0.090875 -1.3042e-16 0)
(0.090875 -1.13038e-16 0)
(0.090875 3.84839e-16 0)
(0.090875 -1.34946e-16 0)
(0.090875 -2.36639e-16 0)
(0.090875 1.92162e-16 0)
(0.090875 -1.54963e-16 0)
(0.090875 -1.76918e-16 0)
(0.090875 2.97504e-16 0)
(0.090875 2.19604e-17 0)
(0.090875 -2.58733e-16 0)
(0.090875 1.16116e-16 0)
(0.090875 6.06277e-17 0)
(0.090875 -1.20183e-16 0)
(0.090875 6.10384e-17 0)
(0.090875 -6.91798e-17 0)
(0.090875 -1.45386e-16 0)
(0.090875 -3.36112e-17 0)
(0.090875 1.82951e-16 0)
(0.090875 1.34379e-16 0)
(0.090875 -3.13768e-17 0)
(0.090875 -1.25716e-16 0)
(0.090875 -9.47253e-17 0)
(0.090875 1.41454e-16 0)
(0.090875 -4.25427e-17 0)
(0.090875 -1.58641e-16 0)
(0.090875 -5.53556e-17 0)
(0.090875 2.40972e-16 0)
(0.090875 1.69736e-16 0)
(0.090875 -2.93887e-16 0)
(0.090875 1.78401e-17 0)
(0.090875 1.23632e-16 0)
(0.090875 -2.48331e-16 0)
(0.090875 1.81057e-16 0)
(0.090875 1.86334e-16 0)
(0.090875 -3.25049e-16 0)
(0.090875 2.98009e-16 0)
(0.090875 1.42511e-16 0)
(0.090875 -3.1695e-16 0)
(0.090875 8.73997e-17 0)
(0.090875 -1.59389e-17 0)
(0.090875 -1.57313e-16 0)
(0.090875 1.04845e-16 0)
(0.090875 2.09161e-16 0)
(0.090875 -1.45635e-17 0)
(0.090875 -4.46857e-17 0)
(0.090875 -1.69144e-16 0)
(0.090875 -1.0858e-16 0)
(0.090875 1.79322e-16 0)
(0.090875 -6.4209e-17 0)
(0.090875 -2.11926e-16 0)
(0.090875 9.5454e-17 0)
(0.090875 2.27002e-16 0)
(0.090875 2.42021e-17 0)
(0.090875 -2.56669e-17 0)
(0.090875 -1.83334e-16 0)
(0.090875 -1.40637e-16 0)
(0.090875 1.07855e-16 0)
(0.090875 4.08668e-17 0)
(0.090875 1.00138e-16 0)
(0.090875 -2.30271e-16 0)
(0.090875 6.94104e-17 0)
(0.090875 2.90577e-16 0)
(0.090875 -2.46831e-16 0)
(0.090875 -2.86718e-17 0)
(0.090875 -3.00827e-18 0)
(0.090875 -1.20276e-16 0)
(0.090875 3.26282e-17 0)
(0.090875 3.27047e-16 0)
(0.090875 3.4657e-17 0)
(0.090875 -1.38903e-16 0)
(0.090875 -7.96542e-17 0)
(0.090875 -3.43762e-17 0)
(0.090875 2.04757e-16 0)
(0.090875 -9.36934e-17 0)
(0.090875 -4.89955e-18 0)
(0.090875 -5.07972e-17 0)
(0.090875 1.69809e-16 0)
(0.090875 3.0683e-17 0)
(0.090875 -8.57742e-17 0)
(0.090875 -4.79935e-17 0)
(0.090875 -7.57035e-18 0)
(0.090875 7.21386e-17 0)
(0.090875 -4.19836e-17 0)
(0.090875 2.07833e-16 0)
(0.090875 -1.84451e-16 0)
(0.090875 8.62365e-17 0)
(0.090875 1.04814e-16 0)
(0.090875 -1.13568e-16 0)
(0.090875 -6.78206e-17 0)
(0.090875 1.0416e-16 0)
(0.090875 -9.75252e-17 0)
(0.090875 -2.09219e-16 0)
(0.090875 3.05849e-16 0)
(0.090875 1.75071e-16 0)
(0.090875 -1.56628e-16 0)
(0.090875 -1.31035e-16 0)
(0.090875 -1.19301e-16 0)
(0.090875 -3.8223e-17 0)
(0.090875 1.81443e-16 0)
(0.090875 2.87479e-16 0)
(0.090875 -2.43749e-16 0)
(0.090875 -1.73867e-16 0)
(0.090875 -8.34694e-17 0)
(0.090875 3.13507e-16 0)
(0.090875 2.06895e-16 0)
(0.090875 -4.50508e-16 0)
(0.090875 -2.8697e-17 0)
(0.090875 2.49348e-16 0)
(0.090875 1.53856e-16 0)
(0.090875 -2.70973e-16 0)
(0.090875 1.09282e-16 0)
(0.090875 8.18033e-17 0)
(0.090875 -4.85273e-17 0)
(0.090875 7.47857e-17 0)
(0.090875 -2.36403e-16 0)
(0.090875 -3.24857e-17 0)
(0.090875 3.13442e-16 0)
(0.090875 6.17636e-17 0)
(0.090875 -3.60366e-16 0)
(0.090875 -6.48182e-17 0)
(0.090875 4.14295e-16 0)
(0.090875 -1.10497e-16 0)
(0.090875 -2.1545e-16 0)
(0.090875 4.66073e-17 0)
(0.090875 1.16492e-16 0)
(0.090875 1.60118e-17 0)
(0.090875 -3.39129e-18 0)
(0.090875 -1.16355e-16 0)
(0.090875 -9.50011e-17 0)
(0.090875 3.57012e-16 0)
(0.090875 -9.02969e-18 0)
(0.090875 -3.71835e-16 0)
(0.090875 -9.74144e-18 0)
(0.090875 4.71981e-16 0)
(0.090875 -1.26237e-16 0)
(0.090875 -6.94585e-17 0)
(0.090875 -1.43603e-17 0)
(0.090875 -2.03232e-16 0)
(0.090875 3.23528e-16 0)
(0.090875 -2.2042e-16 0)
(0.090875 -1.13791e-16 0)
(0.090875 -2.33995e-17 0)
(0.090875 9.84751e-17 0)
(0.090875 3.33361e-17 0)
(0.090875 -4.12292e-17 0)
(0.090875 4.76701e-17 0)
(0.090875 -1.41193e-16 0)
(0.090875 2.14281e-16 0)
(0.090875 -5.23813e-17 0)
(0.090875 8.95e-17 0)
(0.090875 -8.36398e-17 0)
(0.090875 6.30072e-17 0)
(0.090875 -3.94077e-17 0)
(0.090875 -4.59094e-17 0)
(0.090875 9.46248e-17 0)
(0.090875 6.72423e-17 0)
(0.090875 1.75634e-16 0)
(0.090875 -4.62793e-16 0)
(0.090875 1.86681e-16 0)
(0.090875 1.92779e-16 0)
(0.090875 1.1982e-17 0)
(0.090875 3.82257e-17 0)
(0.090875 -3.62434e-16 0)
(0.090875 9.91248e-17 0)
(0.090875 2.08061e-16 0)
(0.090875 -4.86756e-17 0)
(0.090875 -2.01478e-16 0)
(0.090875 1.38013e-16 0)
(0.090875 -4.83971e-17 0)
(0.090875 -9.86782e-18 0)
(0.090875 3.11966e-17 0)
(0.090875 -1.73418e-16 0)
(0.090875 1.58283e-16 0)
(0.090875 4.11826e-17 0)
(0.090875 6.21453e-17 0)
(0.090875 -2.55861e-16 0)
(0.090875 2.2702e-17 0)
(0.090875 1.32229e-16 0)
(0.090875 3.4625e-17 0)
(0.090875 -3.15343e-17 0)
(0.090875 -9.08527e-17 0)
(0.090875 2.31124e-16 0)
(0.090875 -2.63617e-16 0)
(0.090875 5.50637e-17 0)
(0.090875 3.89456e-17 0)
(0.090875 -8.19604e-17 0)
(0.090875 2.49634e-16 0)
(0.090875 -1.82661e-16 0)
(0.090875 -2.33157e-16 0)
(0.090875 1.62437e-16 0)
(0.090875 2.0721e-16 0)
(0.090875 -2.90404e-16 0)
(0.090875 -4.68055e-17 0)
(0.090875 -6.13472e-17 0)
(0.090875 -1.1505e-16 0)
(0.090875 -8.47178e-17 0)
(0.090875 -6.24067e-16 0)
(0.090875 -1.40142e-15 0)
(0.149802 -3.49953e-15 0)
(0.149802 -1.5832e-15 0)
(0.149802 -7.80085e-16 0)
(0.149802 -3.88554e-16 0)
(0.149802 -2.14762e-16 0)
(0.149802 -1.73341e-16 0)
(0.149802 -1.2804e-16 0)
(0.149802 -6.87338e-17 0)
(0.149802 -7.83543e-17 0)
(0.149802 -8.98327e-17 0)
(0.149802 -9.42878e-17 0)
(0.149802 -8.3588e-17 0)
(0.149802 -7.12983e-17 0)
(0.149802 -3.5826e-17 0)
(0.149802 -2.7753e-17 0)
(0.149802 -2.19823e-17 0)
(0.149802 -4.0138e-17 0)
(0.149802 -5.0802e-17 0)
(0.149802 6.07086e-18 0)
(0.149802 -3.78908e-18 0)
(0.149802 -1.73633e-17 0)
(0.149802 8.25612e-18 0)
(0.149802 2.97101e-17 0)
(0.149802 1.39277e-18 0)
(0.149802 -4.02513e-17 0)
(0.149802 -6.8918e-17 0)
(0.149802 -3.4635e-17 0)
(0.149802 1.34411e-17 0)
(0.149802 -5.27023e-17 0)
(0.149802 -4.25371e-17 0)
(0.149802 -1.14187e-17 0)
(0.149802 -1.05061e-17 0)
(0.149802 -2.19854e-17 0)
(0.149802 -7.28547e-17 0)
(0.149802 -5.33572e-17 0)
(0.149802 -1.20051e-17 0)
(0.149802 -8.87962e-17 0)
(0.149802 -4.58252e-17 0)
(0.149802 -3.25119e-18 0)
(0.149802 -7.02545e-17 0)
(0.149802 -3.28867e-17 0)
(0.149802 -3.67165e-17 0)
(0.149802 -1.80094e-18 0)
(0.149802 6.13563e-17 0)
(0.149802 6.96313e-17 0)
(0.149802 4.74841e-17 0)
(0.149802 6.1195e-17 0)
(0.149802 -4.28903e-17 0)
(0.149802 -8.73705e-18 0)
(0.149802 8.37963e-17 0)
(0.149802 5.12568e-17 0)
(0.149802 -2.88934e-17 0)
(0.149802 -6.39793e-17 0)
(0.149802 -2.07422e-17 0)
(0.149802 2.6005e-17 0)
(0.149802 -3.09399e-17 0)
(0.149802 3.0943e-17 0)
(0.149802 -6.43468e-17 0)
(0.149802 -9.1198e-17 0)
(0.149802 -2.61248e-17 0)
(0.149802 -3.19225e-17 0)
(0.149802 1.02109e-17 0)
(0.149802 -3.30351e-17 0)
(0.149802 2.36465e-17 0)
(0.149802 3.9259e-17 0)
(0.149802 1.43832e-17 0)
(0.149802 -6.40202e-17 0)
(0.149802 -3.39107e-17 0)
(0.149802 5.95813e-17 0)
(0.149802 5.42395e-17 0)
(0.149802 4.52527e-17 0)
(0.149802 3.2913e-17 0)
(0.149802 8.68115e-17 0)
(0.149802 -2.98212e-17 0)
(0.149802 -1.16309e-16 0)
(0.149802 1.01576e-16 0)
(0.149802 7.99757e-17 0)
(0.149802 -4.46931e-17 0)
(0.149802 -7.64913e-17 0)
(0.149802 -9.57548e-19 0)
(0.149802 2.32257e-17 0)
(0.149802 -2.54222e-17 0)
(0.149802 -1.63177e-17 0)
(0.149802 3.46317e-17 0)
(0.149802 2.78259e-17 0)
(0.149802 1.41518e-17 0)
(0.149802 -2.7128e-17 0)
(0.149802 5.61934e-17 0)
(0.149802 -8.56661e-18 0)
(0.149802 -1.7411e-17 0)
(0.149802 5.75115e-17 0)
(0.149802 8.02155e-18 0)
(0.149802 1.28711e-17 0)
(0.149802 6.0004e-17 0)
(0.149802 3.44624e-17 0)
(0.149802 -1.14672e-16 0)
(0.149802 6.55232e-18 0)
(0.149802 1.92862e-16 0)
(0.149802 -3.79126e-17 0)
(0.149802 -7.12633e-17 0)
(0.149802 1.74438e-16 0)
(0.149802 1.1279e-16 0)
(0.149802 -2.02883e-17 0)
(0.149802 -7.11816e-17 0)
(0.149802 9.05057e-18 0)
(0.149802 5.50711e-17 0)
(0.149802 -4.88017e-17 0)
(0.149802 -8.83799e-17 0)
(0.149802 7.71733e-17 0)
(0.149802 6.46967e-17 0)
(0.149802 -1.03695e-16 0)
(0.149802 -1.02347e-16 0)
(0.149802 -4.8851e-17 0)
(0.149802 1.5335e-16 0)
(0.149802 1.00207e-16 0)
(0.149802 -1.55947e-16 0)
(0.149802 -5.89134e-17 0)
(0.149802 1.32426e-16 0)
(0.149802 7.94568e-17 0)
(0.149802 -5.21966e-18 0)
(0.149802 -4.50666e-17 0)
(0.149802 5.03754e-17 0)
(0.149802 8.58685e-17 0)
(0.149802 -2.28192e-17 0)