/*--------------------------------*- C++ -*----------------------------------*\
| =========                 |                                                 |
| \\      /  F ield         | OpenFOAM: The Open Source CFD Toolbox           |
|  \\    /   O peration     | Version:  2112                                  |
|   \\  /    A nd           | Website:  www.openfoam.com                      |
|    \\/     M anipulation  |                                                 |
\*---------------------------------------------------------------------------*/
FoamFile
{
    version     2.0;
    format      ascii;
    arch        "LSB;label=32;scalar=64";
    class       volVectorField;
    location    "5";
    object      U;
}
// * * * * * * * * * * * * * * * * * * * * * * * * * * * * * * * * * * * * * //

dimensions      [0 1 -1 0 0 0 0];

internalField   nonuniform List<vector> 
25600
(
(0.0374914 2.37847e-16 0)
(0.0374914 2.36022e-17 0)
(0.0374914 4.79991e-17 0)
(0.0374914 1.69177e-17 0)
(0.0374914 1.5702e-17 0)
(0.0374914 1.00524e-17 0)
(0.0374914 1.25335e-18 0)
(0.0374914 4.42437e-18 0)
(0.0374914 1.36315e-18 0)
(0.0374914 4.74293e-20 0)
(0.0374914 3.42329e-18 0)
(0.0374914 -1.24796e-17 0)
(0.0374914 8.12233e-18 0)
(0.0374914 3.35332e-18 0)
(0.0374914 -7.5689e-18 0)
(0.0374914 1.12024e-17 0)
(0.0374914 6.04672e-18 0)
(0.0374914 -2.77099e-18 0)
(0.0374914 -5.58185e-18 0)
(0.0374914 -2.99985e-18 0)
(0.0374914 2.67808e-18 0)
(0.0374914 6.26271e-18 0)
(0.0374914 4.96031e-18 0)
(0.0374914 -5.17977e-18 0)
(0.0374914 -1.37275e-17 0)
(0.0374914 -1.62302e-18 0)
(0.0374914 2.49043e-17 0)
(0.0374914 -7.82579e-20 0)
(0.0374914 -1.63278e-17 0)
(0.0374914 -6.82819e-19 0)
(0.0374914 7.79464e-18 0)
(0.0374914 1.04319e-17 0)
(0.0374914 1.05097e-18 0)
(0.0374914 -9.16311e-18 0)
(0.0374914 -2.36294e-18 0)
(0.0374914 3.76841e-20 0)
(0.0374914 4.24829e-18 0)
(0.0374914 -4.36351e-18 0)
(0.0374914 -5.74278e-18 0)
(0.0374914 8.25068e-18 0)
(0.0374914 -1.87537e-18 0)
(0.0374914 1.66986e-17 0)
(0.0374914 -7.67721e-18 0)
(0.0374914 -1.97014e-17 0)
(0.0374914 2.2221e-17 0)
(0.0374914 -1.23103e-17 0)
(0.0374914 6.35462e-18 0)
(0.0374914 3.74859e-18 0)
(0.0374914 -2.02253e-18 0)
(0.0374914 3.1969e-18 0)
(0.0374914 -2.49744e-17 0)
(0.0374914 2.04919e-17 0)
(0.0374914 -1.33911e-18 0)
(0.0374914 8.08112e-19 0)
(0.0374914 2.70454e-17 0)
(0.0374914 -2.38895e-17 0)
(0.0374914 -9.86166e-19 0)
(0.0374914 -1.09802e-17 0)
(0.0374914 3.46768e-18 0)
(0.0374914 3.81808e-17 0)
(0.0374914 -3.48728e-17 0)
(0.0374914 5.61874e-18 0)
(0.0374914 -1.4369e-18 0)
(0.0374914 6.93113e-20 0)
(0.0374914 2.12176e-17 0)
(0.0374914 -2.277e-17 0)
(0.0374914 -1.56592e-18 0)
(0.0374914 -8.53559e-18 0)
(0.0374914 1.50166e-17 0)
(0.0374914 7.88619e-18 0)
(0.0374914 -5.73714e-18 0)
(0.0374914 8.71098e-19 0)
(0.0374914 -2.87262e-18 0)
(0.0374914 -3.17435e-18 0)
(0.0374914 7.58768e-18 0)
(0.0374914 -8.18748e-18 0)
(0.0374914 -1.38758e-17 0)
(0.0374914 1.28034e-17 0)
(0.0374914 -4.74048e-18 0)
(0.0374914 3.07155e-17 0)
(0.0374914 -1.92547e-17 0)
(0.0374914 -3.26972e-17 0)
(0.0374914 2.33105e-17 0)
(0.0374914 4.64677e-19 0)
(0.0374914 2.01318e-17 0)
(0.0374914 -2.2515e-18 0)
(0.0374914 -3.99316e-17 0)
(0.0374914 -2.75789e-18 0)
(0.0374914 1.67304e-17 0)
(0.0374914 3.09322e-17 0)
(0.0374914 -2.12936e-18 0)
(0.0374914 -4.77726e-17 0)
(0.0374914 -5.24305e-18 0)
(0.0374914 4.99015e-17 0)
(0.0374914 2.17322e-18 0)
(0.0374914 -5.11633e-17 0)
(0.0374914 4.16754e-18 0)
(0.0374914 -9.53621e-18 0)
(0.0374914 4.47097e-17 0)
(0.0374914 2.72117e-17 0)
(0.0374914 -7.1155e-17 0)
(0.0374914 5.47077e-18 0)
(0.0374914 -9.64879e-18 0)
(0.0374914 4.02778e-17 0)
(0.0374914 3.59123e-18 0)
(0.0374914 -1.15828e-17 0)
(0.0374914 -3.15254e-17 0)
(0.0374914 1.02196e-17 0)
(0.0374914 2.73157e-17 0)
(0.0374914 -1.06495e-17 0)
(0.0374914 3.11321e-17 0)
(0.0374914 -8.52923e-17 0)
(0.0374914 2.13438e-17 0)
(0.0374914 5.49088e-17 0)
(0.0374914 3.28902e-18 0)
(0.0374914 -1.42308e-17 0)
(0.0374914 -5.95868e-17 0)
(0.0374914 3.19984e-17 0)
(0.0374914 4.01204e-17 0)
(0.0374914 1.26379e-17 0)
(0.0374914 -8.68504e-18 0)
(0.0374914 -5.61694e-17 0)
(0.0374914 -8.03572e-18 0)
(0.0374914 5.96261e-17 0)
(0.0374914 1.66249e-17 0)
(0.0374914 -2.52955e-17 0)
(0.0374914 -4.0203e-17 0)
(0.0374914 1.39866e-20 0)
(0.0374914 6.64539e-17 0)
(0.0374914 -1.65191e-18 0)
(0.0374914 -2.39894e-17 0)
(0.0374914 -3.06118e-17 0)
(0.0374914 1.98207e-17 0)
(0.0374914 3.63407e-17 0)
(0.0374914 -1.98223e-17 0)
(0.0374914 -2.07505e-17 0)
(0.0374914 -1.4648e-17 0)
(0.0374914 4.16143e-17 0)
(0.0374914 2.29898e-17 0)
(0.0374914 -2.06642e-17 0)
(0.0374914 -2.77224e-17 0)
(0.0374914 -1.14622e-17 0)
(0.0374914 4.24368e-17 0)
(0.0374914 1.14984e-17 0)
(0.0374914 -4.54606e-17 0)
(0.0374914 4.46263e-17 0)
(0.0374914 -1.09874e-17 0)
(0.0374914 -3.40094e-17 0)
(0.0374914 -2.85678e-18 0)
(0.0374914 -1.03907e-17 0)
(0.0374914 5.45305e-17 0)
(0.0374914 -7.55964e-18 0)
(0.0374914 -4.76032e-17 0)
(0.0374914 6.21219e-18 0)
(0.0374914 2.08888e-17 0)
(0.0374914 2.83662e-17 0)
(0.0374914 -3.13155e-17 0)
(0.0374914 -3.30124e-17 0)
(0.0374914 2.2466e-17 0)
(0.0374914 4.1794e-18 0)
(0.0374914 6.28113e-17 0)
(0.0374914 -6.24404e-17 0)
(0.0374914 -4.09295e-17 0)
(0.0374914 6.41342e-17 0)
(0.0374914 -1.65302e-17 0)
(0.0374914 4.82991e-17 0)
(0.0374914 -4.4702e-17 0)
(0.0374914 -1.22026e-17 0)
(0.0374914 7.47631e-18 0)
(0.0374914 -4.55131e-17 0)
(0.0374914 8.85708e-17 0)
(0.0374914 -5.45372e-17 0)
(0.0374914 -2.03899e-18 0)
(0.0374914 1.41856e-17 0)
(0.0374914 -3.70579e-17 0)
(0.0374914 8.58863e-17 0)
(0.0374914 -6.14273e-17 0)
(0.0374914 7.8565e-18 0)
(0.0374914 -5.4356e-18 0)
(0.0374914 -3.62055e-17 0)
(0.0374914 1.08794e-16 0)
(0.0374914 -7.09106e-17 0)
(0.0374914 -5.35381e-19 0)
(0.0374914 1.87432e-17 0)
(0.0374914 -4.49572e-17 0)
(0.0374914 9.80649e-17 0)
(0.0374914 -6.05883e-17 0)
(0.0374914 -1.32299e-19 0)
(0.0374914 6.56634e-17 0)
(0.0374914 -9.52765e-17 0)
(0.0374914 4.50526e-17 0)
(0.0374914 -3.9634e-18 0)
(0.0374914 -4.89177e-17 0)
(0.0374914 9.2325e-17 0)
(0.0374914 -4.13918e-17 0)
(0.0374914 9.34743e-18 0)
(0.0374914 -4.82516e-17 0)
(0.0374914 -1.27296e-17 0)
(0.0374914 1.42812e-16 0)
(0.0374914 -8.87139e-17 0)
(0.0374914 1.32408e-18 0)
(0.0374914 -5.15259e-17 0)
(0.0374914 3.93276e-18 0)
(0.0374914 1.41953e-16 0)
(0.0374914 -8.91468e-17 0)
(0.0374914 -4.61846e-17 0)
(0.0374914 -1.34218e-17 0)
(0.0374914 4.90836e-17 0)
(0.0374914 8.85095e-17 0)
(0.0374914 -4.68148e-17 0)
(0.0374914 -7.55978e-17 0)
(0.0374914 -6.18098e-17 0)
(0.0374914 1.592e-16 0)
(0.0374914 5.6525e-18 0)
(0.0374914 -1.66495e-16 0)
(0.0374914 1.53008e-16 0)
(0.0374914 2.68293e-17 0)
(0.0374914 -8.03737e-17 0)
(0.0374914 -3.21918e-17 0)
(0.0374914 -7.50148e-17 0)
(0.0374914 1.61556e-16 0)
(0.0374914 4.06059e-17 0)
(0.0374914 -8.8154e-17 0)
(0.0374914 -3.6903e-17 0)
(0.0374914 -8.10557e-17 0)
(0.0374914 1.66562e-16 0)
(0.0374914 -2.70557e-18 0)
(0.0374914 -5.52787e-17 0)
(0.0374914 1.64024e-17 0)
(0.0374914 -1.09803e-16 0)
(0.0374914 1.54721e-16 0)
(0.0374914 -1.17017e-17 0)
(0.0374914 -9.17729e-17 0)
(0.0374914 6.00371e-17 0)
(0.0374914 -7.34714e-17 0)
(0.0374914 9.86183e-17 0)
(0.0374914 -8.48243e-18 0)
(0.0374914 -3.4067e-17 0)
(0.0374914 2.54149e-17 0)
(0.0374914 -1.23142e-16 0)
(0.0374914 1.4705e-16 0)
(0.0374914 -1.06915e-17 0)
(0.0374914 -4.65401e-17 0)
(0.0374914 7.25464e-17 0)
(0.0374914 -1.36065e-16 0)
(0.0374914 1.6966e-17 0)
(0.0374914 4.32304e-17 0)
(0.0374914 4.44547e-17 0)
(0.0374914 1.39522e-17 0)
(0.0374914 -1.2385e-16 0)
(0.0374914 8.823e-17 0)
(0.0374914 1.17091e-18 0)
(0.0374914 -2.35579e-17 0)
(0.0374914 4.35125e-17 0)
(0.0374914 -1.15346e-16 0)
(0.0374914 9.91967e-17 0)
(0.0374914 -8.71265e-18 0)
(0.0374914 -1.31842e-17 0)
(0.0374914 7.02693e-17 0)
(0.0374914 -1.28134e-16 0)
(0.0374914 5.65642e-17 0)
(0.0374914 -8.65697e-19 0)
(0.0374914 -4.88515e-19 0)
(0.0374914 5.99187e-17 0)
(0.0374914 -1.09035e-16 0)
(0.0374914 7.41449e-17 0)
(0.0374914 3.2031e-17 0)
(0.0374914 -4.48286e-17 0)
(0.0374914 1.37158e-17 0)
(0.0374914 -7.69559e-17 0)
(0.0374914 6.58577e-17 0)
(0.0374914 2.96363e-17 0)
(0.0374914 -7.59859e-17 0)
(0.0374914 5.88887e-17 0)
(0.0374914 -3.26227e-17 0)
(0.0374914 2.95092e-17 0)
(0.0374914 3.75609e-17 0)
(0.0374914 -8.75872e-17 0)
(0.0374914 6.80513e-17 0)
(0.0374914 -4.02842e-17 0)
(0.0374914 1.62766e-17 0)
(0.0374914 3.68761e-17 0)
(0.0374914 -8.60272e-17 0)
(0.0374914 6.16439e-17 0)
(0.0374914 -3.64059e-17 0)
(0.0374914 -3.16703e-17 0)
(0.0374914 9.44682e-17 0)
(0.0374914 -4.76502e-17 0)
(0.0374914 -1.03302e-17 0)
(0.0374914 -6.52232e-17 0)
(0.0374914 3.07978e-17 0)
(0.0374914 1.26552e-16 0)
(0.0374914 -7.68161e-18 0)
(0.0374914 -1.19923e-16 0)
(0.0374914 -2.15627e-17 0)
(0.0374914 5.8502e-17 0)
(0.0374914 1.21478e-17 0)
(0.0374914 7.69755e-17 0)
(0.0374914 -1.30241e-16 0)
(0.0374914 -1.91244e-17 0)
(0.0374914 6.0038e-17 0)
(0.0374914 5.44036e-18 0)
(0.0374914 5.24362e-17 0)
(0.0374914 -9.63073e-17 0)
(0.0374914 2.41128e-17 0)
(0.0374914 2.82544e-17 0)
(0.0374914 -5.03246e-17 0)
(0.0374914 9.13915e-17 0)
(0.0374914 -5.46576e-17 0)
(0.0374914 1.24922e-20 0)
(0.0374914 2.43736e-17 0)
(0.0374914 -7.0543e-17 0)
(0.0374914 9.91274e-17 0)
(0.0374914 -3.17664e-17 0)
(0.0374914 -5.19635e-17 0)
(0.0374914 6.17318e-17 0)
(0.0374914 -7.73694e-18 0)
(0.0374914 8.24035e-17 0)
(0.0374914 9.71203e-18 0)
(0.0374914 -3.18919e-17 0)
(0.1106 5.57135e-16 0)
(0.1106 1.345e-16 0)
(0.1106 5.66249e-17 0)
(0.1106 4.10429e-17 0)
(0.1106 4.43397e-17 0)
(0.1106 1.62537e-17 0)
(0.1106 -7.38257e-19 0)
(0.1106 1.0728e-17 0)
(0.1106 3.8373e-18 0)
(0.1106 -1.30367e-17 0)
(0.1106 -1.90578e-17 0)
(0.1106 -3.13826e-17 0)
(0.1106 1.4839e-17 0)
(0.1106 1.5185e-17 0)
(0.1106 3.53491e-18 0)
(0.1106 3.58266e-17 0)
(0.1106 2.37758e-17 0)
(0.1106 -7.7784e-18 0)
(0.1106 -2.42558e-17 0)
(0.1106 -1.10051e-18 0)
(0.1106 1.64911e-17 0)
(0.1106 1.55583e-17 0)
(0.1106 1.09595e-17 0)
(0.1106 -9.92628e-18 0)
(0.1106 -3.81587e-17 0)
(0.1106 -1.5562e-17 0)
(0.1106 3.78516e-17 0)
(0.1106 1.37137e-17 0)
(0.1106 -1.44644e-17 0)
(0.1106 -9.03477e-18 0)
(0.1106 1.64845e-17 0)
(0.1106 4.93722e-17 0)
(0.1106 -1.60576e-18 0)
(0.1106 -3.21869e-17 0)
(0.1106 -7.75065e-18 0)
(0.1106 -9.80991e-18 0)
(0.1106 2.79626e-17 0)
(0.1106 -2.14398e-17 0)
(0.1106 -5.20816e-17 0)
(0.1106 3.76454e-17 0)
(0.1106 -2.79067e-18 0)
(0.1106 8.71998e-18 0)
(0.1106 9.08919e-18 0)
(0.1106 -3.84113e-17 0)
(0.1106 1.72197e-17 0)
(0.1106 -7.609e-18 0)
(0.1106 2.09733e-17 0)
(0.1106 2.29544e-17 0)
(0.1106 1.99712e-18 0)
(0.1106 5.48164e-18 0)
(0.1106 -3.55704e-17 0)
(0.1106 3.26396e-17 0)
(0.1106 4.05072e-18 0)
(0.1106 1.75668e-17 0)
(0.1106 7.19547e-17 0)
(0.1106 -3.16474e-17 0)
(0.1106 -9.72828e-18 0)
(0.1106 -1.39192e-17 0)
(0.1106 -1.85221e-18 0)
(0.1106 3.7356e-17 0)
(0.1106 -7.06935e-17 0)
(0.1106 3.22404e-17 0)
(0.1106 2.21024e-18 0)
(0.1106 -1.23332e-17 0)
(0.1106 4.87081e-17 0)
(0.1106 -5.63966e-17 0)
(0.1106 -6.85706e-18 0)
(0.1106 -7.86866e-18 0)
(0.1106 1.15855e-17 0)
(0.1106 5.85102e-17 0)
(0.1106 -2.5931e-17 0)
(0.1106 -1.43769e-17 0)
(0.1106 -3.3109e-17 0)
(0.1106 -3.07257e-17 0)
(0.1106 8.83991e-17 0)
(0.1106 -5.41367e-17 0)
(0.1106 -8.18678e-17 0)
(0.1106 4.50561e-17 0)
(0.1106 -2.11192e-18 0)
(0.1106 6.3408e-17 0)
(0.1106 -1.93854e-18 0)
(0.1106 -1.02269e-16 0)
(0.1106 -8.87403e-18 0)
(0.1106 2.09602e-17 0)
(0.1106 2.67901e-17 0)
(0.1106 -1.41219e-17 0)
(0.1106 -5.01322e-17 0)
(0.1106 -4.40918e-17 0)
(0.1106 3.25681e-17 0)
(0.1106 1.04584e-16 0)
(0.1106 -3.6551e-17 0)
(0.1106 -8.48932e-17 0)
(0.1106 -1.17933e-18 0)
(0.1106 8.34435e-17 0)
(0.1106 4.43434e-18 0)
(0.1106 -1.06971e-16 0)
(0.1106 -2.3596e-17 0)
(0.1106 -3.58178e-17 0)
(0.1106 6.55702e-17 0)
(0.1106 5.24007e-17 0)
(0.1106 -9.61468e-17 0)
(0.1106 2.90046e-17 0)
(0.1106 -6.0645e-17 0)
(0.1106 2.46241e-18 0)
(0.1106 5.82489e-17 0)
(0.1106 1.69123e-17 0)
(0.1106 -8.16236e-17 0)
(0.1106 -3.5065e-17 0)
(0.1106 7.0586e-17 0)
(0.1106 5.46324e-17 0)
(0.1106 6.61407e-17 0)
(0.1106 -1.64318e-16 0)
(0.1106 1.95965e-17 0)
(0.1106 1.71723e-16 0)
(0.1106 2.86434e-17 0)
(0.1106 -1.53637e-17 0)
(0.1106 -1.33661e-16 0)
(0.1106 -3.62017e-17 0)
(0.1106 1.34684e-16 0)
(0.1106 5.82893e-17 0)
(0.1106 -5.57688e-17 0)
(0.1106 -1.31063e-16 0)
(0.1106 -3.33765e-17 0)
(0.1106 1.64416e-16 0)
(0.1106 1.10858e-16 0)
(0.1106 -5.28964e-17 0)
(0.1106 -1.52331e-16 0)
(0.1106 8.72042e-18 0)
(0.1106 1.91574e-16 0)
(0.1106 2.73839e-17 0)
(0.1106 -5.78e-17 0)
(0.1106 -9.41328e-17 0)
(0.1106 1.15294e-17 0)
(0.1106 1.15262e-16 0)
(0.1106 2.1739e-17 0)
(0.1106 2.02139e-17 0)
(0.1106 -1.00279e-16 0)
(0.1106 -3.02224e-17 0)
(0.1106 1.39369e-16 0)
(0.1106 5.02509e-17 0)
(0.1106 -2.69479e-17 0)
(0.1106 -1.05387e-16 0)
(0.1106 -1.65469e-17 0)
(0.1106 6.81798e-17 0)
(0.1106 1.97919e-17 0)
(0.1106 -3.53376e-18 0)
(0.1106 -9.99389e-17 0)
(0.1106 1.60214e-17 0)
(0.1106 4.12963e-18 0)
(0.1106 2.48168e-17 0)
(0.1106 9.32375e-17 0)
(0.1106 -1.46309e-16 0)
(0.1106 -1.09315e-16 0)
(0.1106 7.86722e-17 0)
(0.1106 6.35919e-17 0)
(0.1106 5.70517e-17 0)
(0.1106 -7.65978e-17 0)
(0.1106 -1.00972e-16 0)
(0.1106 2.11881e-17 0)
(0.1106 4.36934e-17 0)
(0.1106 1.35406e-16 0)
(0.1106 -1.14269e-16 0)
(0.1106 -1.12726e-17 0)
(0.1106 1.23639e-16 0)
(0.1106 -1.57884e-16 0)
(0.1106 3.70819e-17 0)
(0.1106 -3.32418e-17 0)
(0.1106 -1.37181e-16 0)
(0.1106 1.35287e-16 0)
(0.1106 5.87021e-17 0)
(0.1106 -3.03407e-18 0)
(0.1106 -1.42187e-16 0)
(0.1106 -8.63978e-18 0)
(0.1106 7.83745e-17 0)
(0.1106 -1.96845e-17 0)
(0.1106 -2.4261e-17 0)
(0.1106 -6.30532e-17 0)
(0.1106 1.73507e-16 0)
(0.1106 -5.03112e-17 0)
(0.1106 -3.94543e-17 0)
(0.1106 1.69544e-16 0)
(0.1106 -1.75299e-16 0)
(0.1106 -1.93679e-17 0)
(0.1106 8.82481e-17 0)
(0.1106 -1.29034e-17 0)
(0.1106 1.5272e-16 0)
(0.1106 -1.18467e-16 0)
(0.1106 -4.04317e-19 0)
(0.1106 1.40189e-16 0)
(0.1106 -1.20548e-16 0)
(0.1106 3.81251e-17 0)
(0.1106 -1.99367e-17 0)
(0.1106 -8.16149e-17 0)
(0.1106 1.39664e-16 0)
(0.1106 -2.50912e-17 0)
(0.1106 3.35697e-17 0)
(0.1106 -7.28584e-17 0)
(0.1106 -4.24401e-17 0)
(0.1106 1.92055e-16 0)
(0.1106 -9.34272e-17 0)
(0.1106 -5.10827e-18 0)
(0.1106 -8.46946e-17 0)
(0.1106 2.55425e-17 0)
(0.1106 2.36855e-16 0)
(0.1106 -4.79612e-17 0)
(0.1106 -1.38757e-16 0)
(0.1106 -1.29118e-16 0)
(0.1106 1.12568e-16 0)
(0.1106 1.22795e-16 0)
(0.1106 -4.43438e-17 0)
(0.1106 -9.65777e-17 0)
(0.1106 -1.1546e-16 0)
(0.1106 3.06875e-16 0)
(0.1106 2.83251e-17 0)
(0.1106 -2.94116e-16 0)
(0.1106 2.22079e-16 0)
(0.1106 -4.65032e-18 0)
(0.1106 -9.12466e-17 0)
(0.1106 -5.87879e-17 0)
(0.1106 -1.72828e-16 0)
(0.1106 3.04026e-16 0)
(0.1106 8.13806e-17 0)
(0.1106 -1.22487e-16 0)
(0.1106 -7.55364e-17 0)
(0.1106 -2.02762e-16 0)
(0.1106 3.06694e-16 0)
(0.1106 2.35428e-17 0)
(0.1106 -9.07867e-17 0)
(0.1106 8.34305e-17 0)
(0.1106 -1.51888e-16 0)
(0.1106 8.44804e-17 0)
(0.1106 -8.59713e-17 0)
(0.1106 1.64983e-18 0)
(0.1106 8.9912e-17 0)
(0.1106 -2.36375e-16 0)
(0.1106 6.30567e-17 0)
(0.1106 2.16778e-17 0)
(0.1106 8.65434e-18 0)
(0.1106 9.6048e-17 0)
(0.1106 -2.18394e-16 0)
(0.1106 8.91293e-17 0)
(0.1106 -4.90423e-17 0)
(0.1106 9.97119e-18 0)
(0.1106 1.27528e-16 0)
(0.1106 -3.20743e-16 0)
(0.1106 2.84469e-17 0)
(0.1106 7.58085e-17 0)
(0.1106 8.30154e-17 0)
(0.1106 3.36806e-17 0)
(0.1106 -2.38452e-16 0)
(0.1106 2.44105e-16 0)
(0.1106 2.21984e-17 0)
(0.1106 -1.12646e-16 0)
(0.1106 -1.6701e-17 0)
(0.1106 -1.95892e-16 0)
(0.1106 3.12348e-16 0)
(0.1106 2.81402e-17 0)
(0.1106 -4.03794e-17 0)
(0.1106 1.18091e-16 0)
(0.1106 -2.58669e-16 0)
(0.1106 8.57891e-17 0)
(0.1106 5.80902e-17 0)
(0.1106 -9.56315e-18 0)
(0.1106 4.12806e-17 0)
(0.1106 -1.40431e-16 0)
(0.1106 1.97905e-16 0)
(0.1106 5.82953e-17 0)
(0.1106 -1.67439e-17 0)
(0.1106 -3.67781e-17 0)
(0.1106 -2.04649e-16 0)
(0.1106 1.23628e-16 0)
(0.1106 2.01018e-19 0)
(0.1106 8.02918e-17 0)
(0.1106 -1.02162e-17 0)
(0.1106 -1.94539e-16 0)
(0.1106 1.5539e-16 0)
(0.1106 2.99088e-17 0)
(0.1106 -3.63812e-17 0)
(0.1106 1.26563e-16 0)
(0.1106 -1.59144e-16 0)
(0.1106 4.78897e-17 0)
(0.1106 5.34885e-17 0)
(0.1106 -1.62932e-18 0)
(0.1106 -8.55914e-18 0)
(0.1106 -2.22595e-16 0)
(0.1106 4.13955e-17 0)
(0.1106 1.23793e-16 0)
(0.1106 5.23337e-17 0)
(0.1106 -1.75929e-16 0)
(0.1106 -1.63874e-16 0)
(0.1106 2.03981e-16 0)
(0.1106 -1.70952e-17 0)
(0.1106 -4.29127e-17 0)
(0.1106 -2.9697e-17 0)
(0.1106 -6.04283e-17 0)
(0.1106 2.28577e-16 0)
(0.1106 -1.96122e-17 0)
(0.1106 -5.22e-17 0)
(0.1106 -1.00255e-16 0)
(0.1106 -8.06772e-17 0)
(0.1106 2.35179e-16 0)
(0.1106 -4.14414e-18 0)
(0.1106 6.22605e-17 0)
(0.1106 -1.27858e-16 0)
(0.1106 -2.47263e-16 0)
(0.1106 1.02674e-16 0)
(0.1106 6.86691e-17 0)
(0.1106 1.30856e-16 0)
(0.1106 -1.26179e-16 0)
(0.1106 -1.35916e-17 0)
(0.1106 7.5585e-17 0)
(0.1106 -1.39403e-16 0)
(0.1106 1.4384e-16 0)
(0.1106 -7.38296e-18 0)
(0.1106 -7.91389e-17 0)
(0.1106 1.31759e-16 0)
(0.1106 -8.05436e-17 0)
(0.1106 1.3368e-16 0)
(0.1106 9.79991e-17 0)
(0.1106 2.40454e-17 0)
(0.181833 3.44522e-16 0)
(0.181833 1.52294e-16 0)
(0.181833 8.77226e-17 0)
(0.181833 7.81405e-17 0)
(0.181833 7.9358e-17 0)
(0.181833 4.21681e-17 0)
(0.181833 5.79643e-18 0)
(0.181833 1.21898e-17 0)
(0.181833 1.08365e-17 0)
(0.181833 -2.75927e-17 0)
(0.181833 -5.69371e-17 0)
(0.181833 -4.74492e-17 0)
(0.181833 1.9911e-17 0)
(0.181833 3.87955e-17 0)
(0.181833 2.69517e-17 0)
(0.181833 8.09857e-17 0)
(0.181833 3.80906e-17 0)
(0.181833 -1.8055e-17 0)
(0.181833 -1.97895e-17 0)
(0.181833 1.23701e-17 0)
(0.181833 3.87919e-17 0)
(0.181833 2.22382e-17 0)
(0.181833 7.03758e-18 0)
(0.181833 -1.12064e-17 0)
(0.181833 -4.80687e-17 0)
(0.181833 -3.47935e-17 0)
(0.181833 3.75066e-17 0)
(0.181833 3.83297e-17 0)
(0.181833 4.55264e-18 0)
(0.181833 -2.49156e-17 0)
(0.181833 4.00265e-17 0)
(0.181833 1.02306e-16 0)
(0.181833 3.92061e-18 0)
(0.181833 -6.61636e-17 0)
(0.181833 -4.33622e-17 0)
(0.181833 -3.73493e-17 0)
(0.181833 4.37696e-17 0)
(0.181833 -1.77522e-17 0)
(0.181833 -8.46226e-17 0)
(0.181833 3.04219e-17 0)
(0.181833 1.67967e-17 0)
(0.181833 1.44023e-17 0)
(0.181833 2.70076e-17 0)
(0.181833 -5.40102e-17 0)
(0.181833 -3.17615e-17 0)
(0.181833 2.60917e-17 0)
(0.181833 4.3034e-17 0)
(0.181833 5.90591e-17 0)
(0.181833 1.82406e-17 0)
(0.181833 1.47824e-17 0)
(0.181833 -2.27461e-17 0)
(0.181833 1.95001e-17 0)
(0.181833 3.1605e-17 0)
(0.181833 4.00735e-17 0)
(0.181833 1.0524e-16 0)
(0.181833 -2.69923e-17 0)
(0.181833 -9.41742e-18 0)
(0.181833 -1.56408e-17 0)
(0.181833 -5.94941e-18 0)
(0.181833 4.3616e-17 0)
(0.181833 -1.30321e-16 0)
(0.181833 6.43804e-17 0)
(0.181833 7.72011e-18 0)
(0.181833 -4.399e-17 0)
(0.181833 1.0164e-16 0)
(0.181833 -9.74121e-17 0)
(0.181833 -1.35182e-17 0)
(0.181833 -2.29345e-17 0)
(0.181833 5.38725e-18 0)
(0.181833 1.02648e-16 0)
(0.181833 -3.76728e-17 0)
(0.181833 -4.39496e-17 0)
(0.181833 -8.94531e-17 0)
(0.181833 1.09119e-17 0)
(0.181833 1.08979e-16 0)
(0.181833 -8.57215e-17 0)
(0.181833 -1.26398e-16 0)
(0.181833 4.74275e-17 0)
(0.181833 -4.96299e-18 0)
(0.181833 7.64248e-17 0)
(0.181833 -2.41513e-17 0)
(0.181833 -1.45397e-16 0)
(0.181833 -1.72767e-17 0)
(0.181833 3.79074e-19 0)
(0.181833 2.57363e-17 0)
(0.181833 -3.99161e-17 0)
(0.181833 -3.87093e-18 0)
(0.181833 -7.56199e-17 0)
(0.181833 -4.91908e-17 0)
(0.181833 1.62918e-16 0)
(0.181833 -4.33665e-17 0)
(0.181833 -1.02874e-16 0)
(0.181833 1.21132e-17 0)
(0.181833 4.95591e-17 0)
(0.181833 9.33157e-18 0)
(0.181833 -1.16255e-16 0)
(0.181833 -7.70523e-17 0)
(0.181833 -6.14644e-17 0)
(0.181833 2.85178e-17 0)
(0.181833 4.99043e-17 0)
(0.181833 -5.00052e-17 0)
(0.181833 3.51618e-19 0)
(0.181833 -6.4429e-17 0)
(0.181833 -4.50267e-17 0)
(0.181833 7.92593e-17 0)
(0.181833 9.96849e-17 0)
(0.181833 -1.32248e-16 0)
(0.181833 -1.30235e-16 0)
(0.181833 1.17478e-16 0)
(0.181833 1.7691e-16 0)
(0.181833 8.9913e-17 0)
(0.181833 -2.52276e-16 0)
(0.181833 2.15103e-17 0)
(0.181833 2.62662e-16 0)
(0.181833 1.34451e-16 0)
(0.181833 1.03217e-17 0)
(0.181833 -2.71415e-16 0)
(0.181833 -1.36069e-16 0)
(0.181833 2.92053e-16 0)
(0.181833 1.80506e-16 0)
(0.181833 -1.73418e-16 0)
(0.181833 -2.73171e-16 0)
(0.181833 -6.2089e-17 0)
(0.181833 3.07822e-16 0)
(0.181833 2.85039e-16 0)
(0.181833 -8.94138e-17 0)
(0.181833 -3.74116e-16 0)
(0.181833 6.43725e-17 0)
(0.181833 3.57404e-16 0)
(0.181833 7.51082e-17 0)
(0.181833 -7.82807e-17 0)
(0.181833 -2.07592e-16 0)
(0.181833 -5.15077e-18 0)
(0.181833 2.68316e-16 0)
(0.181833 6.78759e-17 0)
(0.181833 -2.60303e-17 0)
(0.181833 -1.66745e-16 0)
(0.181833 -1.12058e-17 0)
(0.181833 2.75694e-16 0)
(0.181833 1.00759e-16 0)
(0.181833 -1.2584e-16 0)
(0.181833 -1.7605e-16 0)
(0.181833 3.45171e-17 0)
(0.181833 9.52995e-17 0)
(0.181833 -3.18324e-17 0)
(0.181833 -3.44975e-17 0)
(0.181833 -1.05711e-16 0)
(0.181833 6.4351e-17 0)
(0.181833 1.22799e-17 0)
(0.181833 -7.85987e-17 0)
(0.181833 1.19013e-16 0)
(0.181833 -9.43708e-17 0)
(0.181833 -1.66045e-16 0)
(0.181833 5.63184e-17 0)
(0.181833 9.01026e-17 0)
(0.181833 1.07782e-16 0)
(0.181833 -1.26889e-16 0)
(0.181833 -2.08829e-16 0)
(0.181833 -9.33233e-19 0)
(0.181833 1.14532e-16 0)
(0.181833 2.01983e-16 0)
(0.181833 -1.60961e-16 0)
(0.181833 -8.66347e-17 0)
(0.181833 1.74855e-16 0)
(0.181833 -1.14082e-16 0)
(0.181833 -2.58235e-17 0)
(0.181833 -6.50155e-17 0)
(0.181833 -7.73192e-17 0)
(0.181833 6.55683e-17 0)
(0.181833 3.30066e-17 0)
(0.181833 -3.99694e-17 0)
(0.181833 -1.86055e-16 0)
(0.181833 -1.63232e-18 0)
(0.181833 1.6833e-16 0)
(0.181833 9.27848e-17 0)
(0.181833 -9.07803e-17 0)
(0.181833 -1.49661e-16 0)
(0.181833 9.90466e-17 0)
(0.181833 -4.85406e-18 0)
(0.181833 1.75164e-16 0)
(0.181833 1.41059e-16 0)
(0.181833 -3.32255e-16 0)
(0.181833 -5.55053e-17 0)
(0.181833 2.20149e-16 0)
(0.181833 1.00009e-16 0)
(0.181833 1.64209e-16 0)
(0.181833 -1.54273e-16 0)
(0.181833 -3.62981e-17 0)
(0.181833 2.05396e-16 0)
(0.181833 -3.47966e-17 0)
(0.181833 -3.0112e-17 0)
(0.181833 -4.85875e-17 0)
(0.181833 -7.76956e-17 0)
(0.181833 8.85241e-17 0)
(0.181833 6.63852e-17 0)
(0.181833 6.67235e-17 0)
(0.181833 -7.03466e-17 0)
(0.181833 -7.66936e-17 0)
(0.181833 1.0308e-16 0)
(0.181833 1.35747e-17 0)
(0.181833 1.8397e-18 0)
(0.181833 -6.68725e-17 0)
(0.181833 4.5378e-17 0)
(0.181833 1.85203e-16 0)
(0.181833 6.50474e-18 0)
(0.181833 -8.61565e-17 0)
(0.181833 -1.55563e-16 0)
(0.181833 1.95378e-17 0)
(0.181833 5.87028e-17 0)
(0.181833 -9.55083e-18 0)
(0.181833 -1.4983e-17 0)
(0.181833 -1.64672e-16 0)
(0.181833 4.0382e-16 0)
(0.181833 6.54517e-17 0)
(0.181833 -3.56619e-16 0)
(0.181833 2.28159e-16 0)
(0.181833 -1.44894e-16 0)
(0.181833 -3.40872e-17 0)
(0.181833 -6.10742e-17 0)
(0.181833 -3.1492e-16 0)
(0.181833 4.46551e-16 0)
(0.181833 8.36581e-17 0)
(0.181833 -9.18764e-17 0)
(0.181833 -6.06333e-17 0)
(0.181833 -3.59613e-16 0)
(0.181833 4.23753e-16 0)
(0.181833 6.97509e-17 0)
(0.181833 -1.12456e-16 0)
(0.181833 2.48728e-17 0)
(0.181833 -3.10083e-16 0)
(0.181833 2.83115e-16 0)
(0.181833 -6.15369e-17 0)
(0.181833 -1.53017e-16 0)
(0.181833 7.80614e-17 0)
(0.181833 -3.44837e-16 0)
(0.181833 5.42971e-17 0)
(0.181833 -1.06651e-16 0)
(0.181833 1.70692e-16 0)
(0.181833 2.54175e-16 0)
(0.181833 -4.62359e-16 0)
(0.181833 8.72245e-17 0)
(0.181833 -1.38143e-16 0)
(0.181833 7.37869e-17 0)
(0.181833 2.07284e-16 0)
(0.181833 -6.25461e-16 0)
(0.181833 5.17995e-17 0)
(0.181833 1.0896e-16 0)
(0.181833 1.3903e-16 0)
(0.181833 5.76794e-17 0)
(0.181833 -3.69639e-16 0)
(0.181833 5.60903e-16 0)
(0.181833 5.46678e-17 0)
(0.181833 -3.46496e-16 0)
(0.181833 -2.11332e-16 0)
(0.181833 -2.52072e-16 0)
(0.181833 7.30421e-16 0)
(0.181833 5.44801e-17 0)
(0.181833 -1.24315e-16 0)
(0.181833 1.58428e-16 0)
(0.181833 -3.81296e-16 0)
(0.181833 2.01162e-16 0)
(0.181833 4.20785e-17 0)
(0.181833 4.55843e-17 0)
(0.181833 4.02397e-17 0)
(0.181833 -2.49152e-16 0)
(0.181833 4.29635e-16 0)
(0.181833 5.40396e-17 0)
(0.181833 -5.51174e-17 0)
(0.181833 1.51357e-17 0)
(0.181833 -3.87746e-16 0)
(0.181833 1.85932e-16 0)
(0.181833 1.66325e-17 0)
(0.181833 6.27828e-17 0)
(0.181833 9.71127e-17 0)
(0.181833 -3.48707e-16 0)
(0.181833 2.46711e-16 0)
(0.181833 6.40142e-17 0)
(0.181833 4.21943e-17 0)
(0.181833 1.63995e-16 0)
(0.181833 -3.81994e-16 0)
(0.181833 1.46642e-16 0)
(0.181833 1.16227e-17 0)
(0.181833 -1.79667e-17 0)
(0.181833 8.91767e-17 0)
(0.181833 -4.25744e-16 0)
(0.181833 1.16679e-16 0)
(0.181833 1.71213e-16 0)
(0.181833 -1.43096e-16 0)
(0.181833 -1.71279e-16 0)
(0.181833 -2.69982e-16 0)
(0.181833 2.38784e-16 0)
(0.181833 1.20111e-16 0)
(0.181833 -1.58557e-16 0)
(0.181833 6.50848e-17 0)
(0.181833 -1.09576e-16 0)
(0.181833 1.07544e-16 0)
(0.181833 2.32691e-16 0)
(0.181833 -1.21657e-16 0)
(0.181833 -1.12189e-16 0)
(0.181833 -2.14851e-16 0)
(0.181833 1.77688e-16 0)
(0.181833 3.32886e-16 0)
(0.181833 2.15941e-17 0)
(0.181833 -4.17108e-16 0)
(0.181833 -2.42211e-16 0)
(0.181833 2.38581e-16 0)
(0.181833 7.91817e-17 0)
(0.181833 1.20374e-16 0)
(0.181833 -2.28709e-16 0)
(0.181833 -6.81114e-18 0)
(0.181833 1.42417e-16 0)
(0.181833 -1.82348e-16 0)
(0.181833 1.68807e-16 0)
(0.181833 4.78719e-17 0)
(0.181833 -5.81004e-17 0)
(0.181833 6.4981e-17 0)
(0.181833 -7.18777e-17 0)
(0.181833 3.46326e-16 0)
(0.181833 1.24462e-16 0)
(0.181833 1.23243e-17 0)
(0.251192 3.26046e-16 0)
(0.251192 1.81923e-16 0)
(0.251192 1.18203e-16 0)
(0.251192 1.20285e-16 0)
(0.251192 1.03906e-16 0)
(0.251192 5.70261e-17 0)
(0.251192 1.3131e-17 0)
(0.251192 2.4126e-17 0)
(0.251192 2.36749e-17 0)
(0.251192 -2.84152e-17 0)
(0.251192 -8.46819e-17 0)
(0.251192 -6.47466e-17 0)
(0.251192 2.92409e-17 0)
(0.251192 5.36198e-17 0)
(0.251192 3.92117e-17 0)
(0.251192 1.1364e-16 0)
(0.251192 7.04748e-17 0)
(0.251192 -1.65402e-18 0)
(0.251192 8.78644e-18 0)
(0.251192 1.90045e-17 0)
(0.251192 6.68927e-17 0)
(0.251192 6.98083e-17 0)
(0.251192 1.89347e-17 0)
(0.251192 -4.35012e-17 0)
(0.251192 -8.21085e-17 0)
(0.251192 -4.26416e-17 0)
(0.251192 8.27755e-17 0)
(0.251192 5.55317e-17 0)
(0.251192 -1.32118e-17 0)
(0.251192 -9.18051e-18 0)
(0.251192 6.33719e-17 0)
(0.251192 1.26327e-16 0)
(0.251192 1.30813e-17 0)
(0.251192 -8.31316e-17 0)
(0.251192 -8.94388e-17 0)
(0.251192 -5.80714e-17 0)
(0.251192 6.4534e-17 0)
(0.251192 2.30176e-18 0)
(0.251192 -1.12938e-16 0)
(0.251192 2.59568e-17 0)
(0.251192 3.58746e-17 0)
(0.251192 1.33525e-17 0)
(0.251192 1.36665e-17 0)
(0.251192 -7.29672e-17 0)
(0.251192 -2.43274e-17 0)
(0.251192 2.52072e-17 0)
(0.251192 8.21836e-17 0)
(0.251192 1.06319e-16 0)
(0.251192 2.40293e-17 0)
(0.251192 2.54027e-17 0)
(0.251192 -1.01926e-17 0)
(0.251192 6.7354e-17 0)
(0.251192 8.1235e-17 0)
(0.251192 5.585e-17 0)
(0.251192 1.35367e-16 0)
(0.251192 -2.5938e-17 0)
(0.251192 -7.25e-18 0)
(0.251192 -4.01134e-18 0)
(0.251192 -6.47919e-18 0)
(0.251192 4.1513e-17 0)
(0.251192 -1.69055e-16 0)
(0.251192 4.77576e-17 0)
(0.251192 2.30733e-17 0)
(0.251192 -2.07863e-17 0)
(0.251192 8.07902e-17 0)
(0.251192 -1.1076e-16 0)
(0.251192 -6.73636e-19 0)
(0.251192 -6.41827e-17 0)
(0.251192 2.16285e-18 0)
(0.251192 1.51464e-16 0)
(0.251192 -8.0898e-17 0)
(0.251192 -8.79057e-17 0)
(0.251192 -1.27885e-16 0)
(0.251192 -5.74854e-18 0)
(0.251192 1.51901e-16 0)
(0.251192 -1.26291e-16 0)
(0.251192 -1.41793e-16 0)
(0.251192 3.42154e-17 0)
(0.251192 -1.47009e-17 0)
(0.251192 1.02838e-16 0)
(0.251192 -6.32228e-17 0)
(0.251192 -2.16456e-16 0)
(0.251192 -5.06911e-17 0)
(0.251192 4.03715e-18 0)
(0.251192 3.87123e-17 0)
(0.251192 -9.46635e-17 0)
(0.251192 -4.113e-17 0)
(0.251192 -5.6293e-17 0)
(0.251192 -6.44631e-17 0)
(0.251192 1.61845e-16 0)
(0.251192 -1.46369e-17 0)
(0.251192 -1.13589e-16 0)
(0.251192 -2.46152e-17 0)
(0.251192 5.03753e-17 0)
(0.251192 2.2086e-17 0)
(0.251192 -2.13028e-16 0)
(0.251192 -1.4393e-16 0)
(0.251192 -6.36104e-17 0)
(0.251192 1.03084e-17 0)
(0.251192 5.63553e-17 0)
(0.251192 -4.53639e-17 0)
(0.251192 -1.28861e-17 0)
(0.251192 -1.33101e-16 0)
(0.251192 -4.7818e-17 0)
(0.251192 1.6797e-16 0)
(0.251192 1.22998e-16 0)
(0.251192 -1.89522e-16 0)
(0.251192 -1.83072e-16 0)
(0.251192 1.73292e-16 0)
(0.251192 2.86839e-16 0)
(0.251192 1.12746e-16 0)
(0.251192 -3.12255e-16 0)
(0.251192 3.7626e-17 0)
(0.251192 3.46741e-16 0)
(0.251192 2.5509e-16 0)
(0.251192 5.23685e-17 0)
(0.251192 -4.13948e-16 0)
(0.251192 -2.10393e-16 0)
(0.251192 3.95116e-16 0)
(0.251192 2.93154e-16 0)
(0.251192 -2.30267e-16 0)
(0.251192 -4.27585e-16 0)
(0.251192 -5.15583e-17 0)
(0.251192 4.08801e-16 0)
(0.251192 3.41071e-16 0)
(0.251192 -7.77703e-17 0)
(0.251192 -4.14891e-16 0)
(0.251192 5.02503e-17 0)
(0.251192 4.78138e-16 0)
(0.251192 1.1802e-16 0)
(0.251192 -1.24591e-16 0)
(0.251192 -1.99766e-16 0)
(0.251192 -4.48222e-17 0)
(0.251192 3.20003e-16 0)
(0.251192 1.76008e-16 0)
(0.251192 -9.33902e-18 0)
(0.251192 -2.60269e-16 0)
(0.251192 -3.37539e-17 0)
(0.251192 4.34968e-16 0)
(0.251192 1.63229e-16 0)
(0.251192 -1.78523e-16 0)
(0.251192 -2.88966e-16 0)
(0.251192 6.57007e-17 0)
(0.251192 1.27954e-16 0)
(0.251192 -1.33071e-17 0)
(0.251192 -8.22516e-18 0)
(0.251192 -2.83302e-16 0)
(0.251192 6.02015e-17 0)
(0.251192 8.02795e-17 0)
(0.251192 -5.94996e-17 0)
(0.251192 8.36041e-17 0)
(0.251192 -2.15866e-16 0)
(0.251192 -1.24046e-16 0)
(0.251192 1.15624e-16 0)
(0.251192 1.31293e-16 0)
(0.251192 7.516e-17 0)
(0.251192 -2.36957e-16 0)
(0.251192 -2.65007e-16 0)
(0.251192 3.44827e-17 0)
(0.251192 1.62863e-16 0)
(0.251192 2.05517e-16 0)
(0.251192 -2.36351e-16 0)
(0.251192 -6.67521e-17 0)
(0.251192 2.24092e-16 0)
(0.251192 -1.99794e-16 0)
(0.251192 -5.95688e-17 0)
(0.251192 -8.64429e-17 0)
(0.251192 -9.00768e-17 0)
(0.251192 9.15959e-17 0)
(0.251192 4.29932e-17 0)
(0.251192 -7.78372e-17 0)
(0.251192 -3.10657e-16 0)
(0.251192 -2.15712e-17 0)
(0.251192 3.32115e-16 0)
(0.251192 1.23849e-16 0)
(0.251192 -1.1549e-16 0)
(0.251192 -1.54219e-16 0)
(0.251192 5.14797e-17 0)
(0.251192 1.91487e-17 0)
(0.251192 2.18555e-16 0)
(0.251192 1.73822e-16 0)
(0.251192 -3.78516e-16 0)
(0.251192 -6.83486e-18 0)
(0.251192 3.15968e-16 0)
(0.251192 1.25439e-16 0)
(0.251192 1.41902e-16 0)
(0.251192 -1.19033e-16 0)
(0.251192 3.29163e-17 0)
(0.251192 2.17786e-16 0)
(0.251192 -5.72018e-17 0)
(0.251192 -4.76825e-17 0)
(0.251192 -8.07951e-17 0)
(0.251192 -1.61858e-16 0)
(0.251192 1.50606e-16 0)
(0.251192 1.67905e-16 0)
(0.251192 5.77622e-17 0)
(0.251192 -1.12789e-16 0)
(0.251192 -1.05521e-16 0)
(0.251192 1.42744e-16 0)