/*--------------------------------*- C++ -*----------------------------------*\
| =========                 |                                                 |
| \\      /  F ield         | OpenFOAM: The Open Source CFD Toolbox           |
|  \\    /   O peration     | Version:  2112                                  |
|   \\  /    A nd           | Website:  www.openfoam.com                      |
|    \\/     M anipulation  |                                                 |
\*---------------------------------------------------------------------------*/
FoamFile
{
    version     2.0;
    format      ascii;
    arch        "LSB;label=32;scalar=64";
    class       volScalarField;
    location    "7";
    object      p;
}
// * * * * * * * * * * * * * * * * * * * * * * * * * * * * * * * * * * * * * //

dimensions      [0 2 -2 0 0 0 0];

internalField   nonuniform List<scalar> 
25600
(
6.34611e-15
-2.68583e-15
-2.05066e-14
-3.29505e-14
-4.27952e-14
-5.03904e-14
-5.67172e-14
-6.31903e-14
-6.87475e-14
-7.36294e-14
-7.78446e-14
-8.2409e-14
-8.70717e-14
-8.95005e-14
-9.14687e-14
-9.58017e-14
-9.89164e-14
-1.01745e-13
-1.04553e-13
-1.07488e-13
-1.09776e-13
-1.11281e-13
-1.12174e-13
-1.13071e-13
-1.14747e-13
-1.17687e-13
-1.19774e-13
-1.1982e-13
-1.19691e-13
-1.20887e-13
-1.23386e-13
-1.25538e-13
-1.26355e-13
-1.27564e-13
-1.30121e-13
-1.32365e-13
-1.34428e-13
-1.34955e-13
-1.36251e-13
-1.38654e-13
-1.39492e-13
-1.41421e-13
-1.42859e-13
-1.43573e-13
-1.45965e-13
-1.46818e-13
-1.47956e-13
-1.4951e-13
-1.51154e-13
-1.52782e-13
-1.54411e-13
-1.57875e-13
-1.59267e-13
-1.61991e-13
-1.65296e-13
-1.66387e-13
-1.70869e-13
-1.74096e-13
-1.77092e-13
-1.80009e-13
-1.80591e-13
-1.85231e-13
-1.86431e-13
-1.88528e-13
-1.91703e-13
-1.91032e-13
-1.92976e-13
-1.93956e-13
-1.94419e-13
-1.94819e-13
-1.93466e-13
-1.93349e-13
-1.93247e-13
-1.94126e-13
-1.96121e-13
-1.93548e-13
-1.93967e-13
-1.96671e-13
-1.95905e-13
-1.97263e-13
-1.9567e-13
-1.94453e-13
-1.9754e-13
-1.99652e-13
-2.00644e-13
-1.9965e-13
-1.99121e-13
-2.005e-13
-2.03733e-13
-2.05755e-13
-2.02473e-13
-2.01411e-13
-2.04612e-13
-2.05987e-13
-2.04058e-13
-2.01048e-13
-2.02191e-13
-2.0238e-13
-2.02497e-13
-2.00717e-13
-1.97289e-13
-1.98924e-13
-1.98087e-13
-1.9906e-13
-1.99051e-13
-1.96948e-13
-1.94504e-13
-1.95359e-13
-1.9681e-13
-1.94665e-13
-1.91795e-13
-1.86158e-13
-1.9026e-13
-1.92187e-13
-1.8702e-13
-1.81781e-13
-1.7786e-13
-1.79889e-13
-1.81179e-13
-1.76551e-13
-1.70827e-13
-1.67274e-13
-1.69684e-13
-1.72803e-13
-1.68031e-13
-1.61735e-13
-1.5866e-13
-1.6235e-13
-1.64591e-13
-1.58945e-13
-1.53681e-13
-1.51547e-13
-1.53999e-13
-1.54559e-13
-1.50226e-13
-1.48257e-13
-1.46051e-13
-1.47758e-13
-1.49982e-13
-1.47124e-13
-1.44825e-13
-1.44323e-13
-1.47831e-13
-1.4916e-13
-1.47261e-13
-1.47457e-13
-1.45951e-13
-1.48095e-13
-1.48998e-13
-1.49552e-13
-1.51261e-13
-1.47328e-13
-1.48537e-13
-1.52916e-13
-1.53865e-13
-1.52998e-13
-1.49045e-13
-1.47972e-13
-1.50852e-13
-1.50446e-13
-1.49045e-13
-1.42056e-13
-1.43012e-13
-1.46083e-13
-1.40383e-13
-1.41913e-13
-1.39512e-13
-1.37175e-13
-1.39184e-13
-1.3621e-13
-1.33323e-13
-1.2791e-13
-1.28619e-13
-1.27517e-13
-1.22466e-13
-1.19731e-13
-1.16782e-13
-1.18914e-13
-1.12264e-13
-1.09498e-13
-1.10732e-13
-1.02778e-13
-1.0532e-13
-1.06275e-13
-1.03128e-13
-1.05227e-13
-9.8166e-14
-9.91863e-14
-1.00852e-13
-9.45672e-14
-9.63686e-14
-9.3419e-14
-9.14326e-14
-9.55034e-14
-9.14169e-14
-9.02856e-14
-8.83103e-14
-8.99391e-14
-9.42267e-14
-8.76579e-14
-8.90949e-14
-8.81795e-14
-9.07799e-14
-9.42171e-14
-8.68524e-14
-8.55157e-14
-8.81728e-14
-9.41459e-14
-9.50852e-14
-9.07396e-14
-8.84617e-14
-8.97418e-14
-9.9538e-14
-9.20733e-14
-8.47625e-14
-9.64181e-14
-9.11293e-14
-8.65851e-14
-8.65541e-14
-8.64067e-14
-9.79228e-14
-9.18104e-14
-8.56476e-14
-8.68696e-14
-8.63783e-14
-9.79312e-14
-9.15082e-14
-8.73567e-14
-9.0937e-14
-8.91353e-14
-9.62259e-14
-9.0549e-14
-8.81774e-14
-8.89798e-14
-8.24995e-14
-8.88835e-14
-8.80506e-14
-8.75527e-14
-8.60951e-14
-7.83641e-14
-8.58296e-14
-8.29973e-14
-8.4213e-14
-8.52829e-14
-7.5536e-14
-8.44808e-14
-8.92033e-14
-9.01794e-14
-8.66403e-14
-8.09633e-14
-9.1951e-14
-8.79355e-14
-8.48111e-14
-8.77658e-14
-8.76473e-14
-1.00297e-13
-9.46602e-14
-9.26654e-14
-9.51573e-14
-8.88808e-14
-9.73275e-14
-9.63647e-14
-9.48447e-14
-9.4948e-14
-9.22346e-14
-1.00872e-13
-9.6828e-14
-9.33823e-14
-9.26152e-14
-8.99998e-14
-9.73139e-14
-9.53174e-14
-9.32803e-14
-9.16983e-14
-8.77782e-14
-9.42706e-14
-9.20781e-14
-8.92884e-14
-9.0767e-14
-8.51324e-14
-8.9191e-14
-8.84026e-14
-8.51206e-14
-8.50618e-14
-8.10472e-14
-8.61793e-14
-8.68456e-14
-8.12743e-14
-7.66867e-14
-7.57372e-14
-8.22417e-14
-7.82638e-14
-7.31505e-14
-7.13654e-14
-7.18762e-14
-7.65163e-14
-7.10583e-14
-6.71272e-14
-6.37611e-14
-6.48968e-14
-7.08074e-14
-6.65865e-14
-6.22673e-14
-5.3777e-14
-5.20954e-14
-5.64248e-14
-5.43282e-14
-5.33994e-14
-4.60052e-14
-4.7084e-14
-4.70292e-14
-4.19842e-14
-4.57551e-14
-4.00769e-14
-3.64874e-14
-3.83586e-14
-3.23032e-14
-2.94581e-14
-1.55398e-14
2.55068e-15
1.78037e-15
-7.61047e-15
-2.27063e-14
-3.38194e-14
-4.30947e-14
-5.07103e-14
-5.70033e-14
-6.31471e-14
-6.86633e-14
-7.36375e-14
-7.77241e-14
-8.24678e-14
-8.70001e-14
-8.94405e-14
-9.14695e-14
-9.56278e-14
-9.87792e-14
-1.01666e-13
-1.04746e-13
-1.07533e-13
-1.09406e-13
-1.1118e-13
-1.12356e-13
-1.13387e-13
-1.15192e-13
-1.17816e-13
-1.19136e-13
-1.20009e-13
-1.20357e-13
-1.21152e-13
-1.23353e-13
-1.2528e-13
-1.26265e-13
-1.27756e-13
-1.30199e-13
-1.32242e-13
-1.34321e-13
-1.35333e-13
-1.36434e-13
-1.3822e-13
-1.39496e-13
-1.41397e-13
-1.43119e-13
-1.43851e-13
-1.45247e-13
-1.47077e-13
-1.48206e-13
-1.49649e-13
-1.51169e-13
-1.52785e-13
-1.55306e-13
-1.57388e-13
-1.59088e-13
-1.61858e-13
-1.64774e-13
-1.67008e-13
-1.7106e-13
-1.74174e-13
-1.77099e-13
-1.7959e-13
-1.81238e-13
-1.85072e-13
-1.86429e-13
-1.88328e-13
-1.91399e-13
-1.91315e-13
-1.92967e-13
-1.94004e-13
-1.94201e-13
-1.94393e-13
-1.93549e-13
-1.93438e-13
-1.93247e-13
-1.94433e-13
-1.95788e-13
-1.93989e-13
-1.94829e-13
-1.96277e-13
-1.95772e-13
-1.96783e-13
-1.96188e-13
-1.9564e-13
-1.97228e-13
-1.99065e-13
-1.99829e-13
-1.99454e-13
-2.00535e-13
-2.0094e-13
-2.02209e-13
-2.04459e-13
-2.02816e-13
-2.02994e-13
-2.04726e-13
-2.04581e-13
-2.04093e-13
-2.02411e-13
-2.02348e-13
-2.02185e-13
-2.00986e-13
-2.00122e-13
-1.99226e-13
-1.9904e-13
-1.98368e-13
-1.97983e-13
-1.98608e-13
-1.9761e-13
-1.94899e-13
-1.94674e-13
-1.96064e-13
-1.94916e-13
-1.91538e-13
-1.88086e-13
-1.89611e-13
-1.90417e-13
-1.87136e-13
-1.82631e-13
-1.78819e-13
-1.78985e-13
-1.8026e-13
-1.76861e-13
-1.71274e-13
-1.68196e-13
-1.69761e-13
-1.71448e-13
-1.67504e-13
-1.62551e-13
-1.59602e-13
-1.6221e-13
-1.63263e-13
-1.58847e-13
-1.5435e-13
-1.52063e-13
-1.53108e-13
-1.53947e-13
-1.5086e-13
-1.48519e-13
-1.46501e-13
-1.47627e-13
-1.49672e-13
-1.47358e-13
-1.44952e-13
-1.4467e-13
-1.47605e-13
-1.48845e-13
-1.47321e-13
-1.47168e-13
-1.46729e-13
-1.48931e-13
-1.48909e-13
-1.48482e-13
-1.49946e-13
-1.48855e-13
-1.50356e-13
-1.52439e-13
-1.52832e-13
-1.52042e-13
-1.49548e-13
-1.48648e-13
-1.5039e-13
-1.50011e-13
-1.47699e-13
-1.43124e-13
-1.43558e-13
-1.45002e-13
-1.41398e-13
-1.4079e-13
-1.40033e-13
-1.38239e-13
-1.37655e-13
-1.35681e-13
-1.32131e-13
-1.28926e-13
-1.28708e-13
-1.27862e-13
-1.23683e-13
-1.18848e-13
-1.17175e-13
-1.16879e-13
-1.12767e-13
-1.11328e-13
-1.08537e-13
-1.03839e-13
-1.05527e-13
-1.06566e-13
-1.03969e-13
-1.02707e-13
-9.91832e-14
-9.92034e-14
-9.9891e-14
-9.70492e-14
-9.54444e-14
-9.337e-14
-9.21857e-14
-9.31232e-14
-9.22498e-14
-9.07136e-14
-8.9621e-14
-8.95074e-14
-9.05825e-14
-8.98322e-14
-8.98754e-14
-8.95268e-14
-9.03194e-14
-9.04523e-14
-8.86748e-14
-8.81362e-14
-8.90072e-14
-9.17743e-14
-9.2126e-14
-9.2254e-14
-9.16674e-14
-9.07764e-14
-9.55364e-14
-9.18896e-14
-8.81408e-14
-9.26556e-14
-8.94903e-14
-8.9435e-14
-8.87104e-14
-8.75221e-14
-9.37068e-14
-8.99199e-14
-8.84989e-14
-8.92178e-14
-8.73495e-14
-9.39476e-14
-9.08478e-14
-8.83238e-14
-9.06832e-14
-9.10618e-14
-9.4699e-14
-9.08941e-14
-8.85928e-14
-8.80958e-14
-8.42434e-14
-8.68873e-14
-8.70527e-14
-8.85571e-14
-8.63019e-14
-7.99261e-14
-8.36344e-14
-8.261e-14
-8.43876e-14
-8.45575e-14
-7.82399e-14
-8.48067e-14
-8.74239e-14
-8.84987e-14
-8.68622e-14
-8.34733e-14
-9.1095e-14
-8.78182e-14
-8.48754e-14
-8.715e-14
-9.00423e-14
-9.92306e-14
-9.41697e-14
-9.25465e-14
-9.41943e-14
-9.11733e-14
-9.62292e-14
-9.54034e-14
-9.54512e-14
-9.47754e-14
-9.41052e-14
-9.95143e-14
-9.48922e-14
-9.39391e-14
-9.38617e-14
-9.14285e-14
-9.61109e-14
-9.43757e-14
-9.38038e-14
-9.2307e-14
-8.84221e-14
-9.37335e-14
-9.14769e-14
-9.11261e-14
-8.99126e-14
-8.49223e-14
-8.92079e-14
-8.70014e-14
-8.59571e-14
-8.56418e-14
-8.20812e-14
-8.66203e-14
-8.47256e-14
-8.0396e-14
-7.82972e-14
-7.71278e-14
-8.11e-14
-7.682e-14
-7.34273e-14
-7.40685e-14
-7.16913e-14
-7.38909e-14
-7.18051e-14
-6.64631e-14
-6.6342e-14
-6.48598e-14
-6.79484e-14
-6.71031e-14
-6.12749e-14
-5.53415e-14
-5.39651e-14
-5.66676e-14
-5.36671e-14
-5.08274e-14
-4.71283e-14
-4.73817e-14
-4.74983e-14
-4.3117e-14
-4.33111e-14
-4.15369e-14
-3.81818e-14
-3.67972e-14
-3.31209e-14
-3.00616e-14
-1.82768e-14
-3.98325e-15
-6.43619e-15
-1.32455e-14
-2.57382e-14
-3.54436e-14
-4.41163e-14
-5.1374e-14
-5.71265e-14
-6.31574e-14
-6.87659e-14
-7.35776e-14
-7.7746e-14
-8.2796e-14
-8.68784e-14
-8.92846e-14
-9.12545e-14
-9.5558e-14
-9.85399e-14
-1.02085e-13
-1.04925e-13
-1.07697e-13
-1.09245e-13
-1.11174e-13
-1.12383e-13
-1.13564e-13
-1.15439e-13
-1.17987e-13
-1.19031e-13
-1.201e-13
-1.2092e-13
-1.21354e-13
-1.23273e-13
-1.24908e-13
-1.26116e-13
-1.27899e-13
-1.30122e-13
-1.32412e-13
-1.34247e-13
-1.35488e-13
-1.36693e-13
-1.37703e-13
-1.3935e-13
-1.41281e-13
-1.4318e-13
-1.4393e-13
-1.45185e-13
-1.47218e-13
-1.48198e-13
-1.49656e-13
-1.51025e-13
-1.53121e-13
-1.55856e-13
-1.57125e-13
-1.58916e-13
-1.61512e-13
-1.64123e-13
-1.67383e-13
-1.71331e-13
-1.74416e-13
-1.77336e-13
-1.79536e-13
-1.81419e-13
-1.84902e-13
-1.8637e-13
-1.88427e-13
-1.91196e-13
-1.91378e-13
-1.93038e-13
-1.93933e-13
-1.9404e-13
-1.93999e-13
-1.93508e-13
-1.93492e-13
-1.93381e-13
-1.94653e-13
-1.95316e-13
-1.94885e-13
-1.95827e-13
-1.95612e-13
-1.957e-13
-1.96744e-13
-1.96718e-13
-1.96188e-13
-1.96754e-13
-1.98562e-13
-1.99697e-13
-1.99209e-13
-2.00831e-13
-2.01392e-13
-2.01592e-13
-2.03546e-13
-2.03085e-13
-2.03855e-13
-2.0473e-13
-2.04062e-13
-2.0408e-13
-2.02951e-13
-2.02652e-13
-2.01822e-13
-2.00244e-13
-1.99994e-13
-2.00093e-13
-1.99097e-13
-1.9856e-13
-1.97556e-13
-1.98147e-13
-1.97797e-13
-1.95347e-13
-1.94505e-13
-1.95774e-13
-1.94887e-13
-1.91413e-13
-1.89363e-13
-1.88956e-13
-1.89078e-13
-1.87176e-13
-1.82954e-13
-1.79358e-13
-1.78996e-13
-1.79345e-13
-1.7685e-13
-1.72089e-13
-1.69277e-13
-1.69322e-13
-1.69933e-13
-1.66677e-13
-1.62925e-13
-1.61279e-13
-1.61969e-13
-1.61891e-13
-1.58549e-13
-1.54711e-13
-1.53058e-13
-1.52474e-13
-1.5291e-13
-1.51154e-13
-1.48788e-13
-1.46711e-13
-1.47965e-13
-1.49261e-13
-1.47168e-13
-1.45195e-13
-1.4548e-13
-1.47482e-13
-1.48384e-13
-1.47156e-13
-1.47768e-13
-1.47416e-13
-1.48728e-13
-1.48775e-13
-1.48085e-13
-1.48942e-13
-1.5013e-13
-1.51888e-13
-1.52038e-13
-1.52814e-13
-1.51079e-13
-1.4951e-13
-1.49453e-13
-1.50207e-13
-1.49587e-13
-1.46732e-13
-1.43803e-13
-1.44125e-13
-1.44128e-13
-1.4159e-13
-1.40169e-13
-1.40197e-13
-1.38867e-13
-1.36717e-13
-1.34952e-13
-1.31927e-13
-1.29125e-13
-1.28672e-13
-1.28238e-13
-1.23946e-13
-1.19497e-13
-1.17614e-13
-1.14925e-13
-1.12713e-13
-1.11516e-13
-1.08011e-13
-1.04853e-13
-1.05753e-13
-1.06291e-13
-1.0405e-13
-1.01104e-13
-9.99348e-14
-9.98591e-14
-9.93967e-14
-9.81035e-14
-9.50166e-14
-9.30714e-14
-9.19384e-14
-9.20263e-14
-9.25159e-14
-9.11378e-14
-9.01614e-14
-8.92713e-14
-8.88959e-14
-9.08329e-14
-9.03677e-14
-8.99822e-14
-9.02053e-14
-8.88522e-14
-8.93052e-14
-8.95683e-14
-8.9626e-14
-9.05787e-14
-9.07993e-14
-9.30235e-14
-9.3299e-14
-9.11518e-14
-9.31449e-14
-9.16015e-14
-8.98588e-14
-9.08123e-14
-8.905e-14
-9.0921e-14
-8.98831e-14
-8.8115e-14
-9.11183e-14
-8.87164e-14
-9.04806e-14
-9.07411e-14
-8.80722e-14
-9.10064e-14
-9.02008e-14
-8.90756e-14
-9.08438e-14
-9.20278e-14
-9.38879e-14
-9.10398e-14
-8.86692e-14
-8.75872e-14
-8.55928e-14
-8.62686e-14
-8.64673e-14
-8.83428e-14
-8.57824e-14
-8.08767e-14
-8.32149e-14
-8.26794e-14
-8.37643e-14
-8.36752e-14
-8.03929e-14
-8.49831e-14
-8.62077e-14
-8.72251e-14
-8.728e-14
-8.50605e-14
-8.96764e-14
-8.78277e-14
-8.58865e-14
-8.74673e-14
-9.16741e-14
-9.72796e-14
-9.38545e-14
-9.33117e-14
-9.40611e-14
-9.23948e-14
-9.44668e-14
-9.47098e-14
-9.68444e-14
-9.54786e-14
-9.48962e-14
-9.80621e-14
-9.36627e-14
-9.43274e-14
-9.45719e-14
-9.26222e-14
-9.58421e-14
-9.40267e-14
-9.33318e-14
-9.27457e-14
-8.94201e-14
-9.34316e-14
-9.12045e-14
-9.16007e-14
-8.96087e-14
-8.51078e-14
-8.92543e-14
-8.6209e-14
-8.56976e-14
-8.64733e-14
-8.30427e-14
-8.63336e-14
-8.35182e-14
-7.97807e-14
-7.99247e-14
-7.80089e-14
-7.98004e-14
-7.63701e-14
-7.4762e-14
-7.47303e-14
-7.09947e-14
-7.27583e-14
-7.19019e-14
-6.68967e-14
-6.73333e-14
-6.47897e-14
-6.60151e-14
-6.64756e-14
-6.09659e-14
-5.70959e-14
-5.5698e-14
-5.67418e-14
-5.28096e-14
-4.94854e-14
-4.81843e-14
-4.71657e-14
-4.83706e-14
-4.36658e-14
-4.19197e-14
-4.2806e-14
-3.89784e-14
-3.67086e-14
-3.44219e-14
-3.10561e-14
-2.17002e-14
-1.09473e-14
-1.52784e-14
-1.90009e-14
-2.89732e-14
-3.73752e-14
-4.54159e-14
-5.24213e-14
-5.79844e-14
-6.30285e-14
-6.9083e-14
-7.41435e-14
-7.77593e-14
-8.31116e-14
-8.69201e-14
-8.92304e-14
-9.09934e-14
-9.52572e-14
-9.86273e-14
-1.02533e-13
-1.0499e-13
-1.08245e-13
-1.09152e-13
-1.11214e-13
-1.12352e-13
-1.13675e-13
-1.15596e-13
-1.18229e-13
-1.18851e-13
-1.20466e-13
-1.2117e-13
-1.21543e-13
-1.2334e-13
-1.24899e-13
-1.2596e-13
-1.27717e-13
-1.30404e-13
-1.32903e-13
-1.34167e-13
-1.35264e-13
-1.36775e-13
-1.37343e-13
-1.38952e-13
-1.4124e-13
-1.43643e-13
-1.43724e-13
-1.45149e-13
-1.47121e-13
-1.48208e-13
-1.49716e-13
-1.51154e-13
-1.53562e-13
-1.55728e-13
-1.56724e-13
-1.58756e-13
-1.61176e-13
-1.63727e-13
-1.67749e-13
-1.71733e-13
-1.74707e-13
-1.77776e-13
-1.79814e-13
-1.81427e-13
-1.84708e-13
-1.8637e-13
-1.88345e-13
-1.91239e-13
-1.91141e-13
-1.92812e-13
-1.94138e-13
-1.94186e-13
-1.93603e-13
-1.93564e-13
-1.93471e-13
-1.93801e-13
-1.94624e-13
-1.94823e-13
-1.95541e-13
-1.96424e-13
-1.95546e-13
-1.95622e-13
-1.96692e-13
-1.97628e-13
-1.96344e-13
-1.9622e-13
-1.98436e-13
-1.99938e-13
-1.9946e-13
-1.99477e-13
-2.01029e-13
-2.02311e-13
-2.03789e-13
-2.02956e-13
-2.03854e-13
-2.04934e-13
-2.04033e-13
-2.04199e-13
-2.02565e-13
-2.027e-13
-2.01248e-13
-2.00327e-13
-2.0031e-13
-2.00116e-13
-1.99207e-13
-1.98736e-13
-1.97047e-13
-1.97464e-13
-1.97936e-13
-1.95997e-13
-1.95026e-13
-1.9532e-13
-1.94414e-13
-1.915e-13
-1.8994e-13
-1.88654e-13
-1.88988e-13
-1.87065e-13
-1.82254e-13
-1.80199e-13
-1.79755e-13
-1.78332e-13
-1.76255e-13
-1.73124e-13
-1.70239e-13
-1.68664e-13
-1.68837e-13
-1.66397e-13
-1.62902e-13
-1.62441e-13
-1.62362e-13
-1.60755e-13
-1.58352e-13
-1.55404e-13
-1.53652e-13
-1.51896e-13
-1.52046e-13
-1.50744e-13
-1.49107e-13
-1.47651e-13
-1.47952e-13
-1.48087e-13
-1.46831e-13
-1.45995e-13
-1.46573e-13
-1.4693e-13
-1.47995e-13
-1.46991e-13
-1.48418e-13
-1.48159e-13
-1.48401e-13
-1.48042e-13
-1.4792e-13
-1.48876e-13
-1.50752e-13
-1.51951e-13
-1.51808e-13
-1.5326e-13
-1.51356e-13
-1.49761e-13
-1.49075e-13
-1.49987e-13
-1.49375e-13
-1.46593e-13
-1.44776e-13
-1.44617e-13
-1.43025e-13
-1.40857e-13
-1.40165e-13
-1.40037e-13
-1.38791e-13
-1.36746e-13
-1.34747e-13
-1.32197e-13
-1.28403e-13
-1.29568e-13
-1.28039e-13
-1.22943e-13
-1.2058e-13
-1.17632e-13
-1.14876e-13
-1.1231e-13
-1.1117e-13
-1.08463e-13
-1.05173e-13
-1.05298e-13
-1.05223e-13
-1.04153e-13
-1.01094e-13
-9.98604e-14
-1.00477e-13
-9.96512e-14
-9.76753e-14
-9.47778e-14
-9.27975e-14
-9.18631e-14
-9.20101e-14
-9.18027e-14
-9.17093e-14
-8.97193e-14
-8.95471e-14
-8.91025e-14
-9.06301e-14
-9.03699e-14
-9.02866e-14
-8.99386e-14
-8.90452e-14
-8.98235e-14
-8.93945e-14
-8.95687e-14
-9.06934e-14
-9.08981e-14
-9.2551e-14
-9.29944e-14
-9.1147e-14
-9.25739e-14
-9.18419e-14
-9.04566e-14
-9.09234e-14
-8.96456e-14
-8.99953e-14
-8.93899e-14
-8.83986e-14
-9.05865e-14
-8.91436e-14
-9.1031e-14
-9.09866e-14
-8.84131e-14
-8.92416e-14
-8.99326e-14
-9.07772e-14
-9.1142e-14
-9.08488e-14
-9.27288e-14
-9.14314e-14
-8.88757e-14
-8.82955e-14
-8.73137e-14
-8.67358e-14
-8.52906e-14
-8.5903e-14
-8.63235e-14
-8.2353e-14
-8.21397e-14
-8.29491e-14
-8.43442e-14
-8.30658e-14
-8.13462e-14
-8.42129e-14
-8.54994e-14
-8.72336e-14
-8.73106e-14
-8.58042e-14
-8.90088e-14
-8.78011e-14
-8.6008e-14
-8.82223e-14
-9.31053e-14
-9.51335e-14
-9.43319e-14
-9.41198e-14
-9.44012e-14
-9.34871e-14
-9.33146e-14
-9.49497e-14
-9.73605e-14
-9.54066e-14
-9.42985e-14
-9.68745e-14
-9.47977e-14
-9.39656e-14
-9.38404e-14
-9.467e-14
-9.62104e-14
-9.42375e-14
-9.21322e-14
-9.1954e-14
-9.16985e-14
-9.26675e-14
-9.10837e-14
-9.18466e-14
-8.91045e-14
-8.70414e-14
-8.79941e-14
-8.62765e-14
-8.48983e-14
-8.58002e-14
-8.55533e-14
-8.43158e-14
-8.30363e-14
-8.17519e-14
-8.0756e-14
-7.83517e-14
-7.76313e-14
-7.60596e-14
-7.69035e-14
-7.53288e-14
-7.09152e-14
-7.11408e-14
-7.08826e-14
-6.87416e-14
-6.79999e-14
-6.48995e-14
-6.43694e-14
-6.61473e-14
-6.13693e-14
-5.7596e-14
-5.64379e-14
-5.49653e-14
-5.31027e-14
-5.08567e-14
-4.84103e-14
-4.72368e-14
-4.78591e-14
-4.36281e-14
-4.23684e-14
-4.31765e-14
-4.05795e-14
-3.82205e-14
-3.54582e-14
-3.20146e-14
-2.48814e-14
-1.77336e-14
-2.16545e-14
-2.46879e-14
-3.26544e-14
-3.97483e-14
-4.68359e-14
-5.36294e-14
-5.89535e-14
-6.36247e-14
-6.92912e-14
-7.36886e-14
-7.8121e-14
-8.36404e-14
-8.7402e-14
-8.92998e-14
-9.06843e-14
-9.46991e-14
-9.94757e-14
-1.03344e-13
-1.05721e-13
-1.07611e-13
-1.09509e-13
-1.11586e-13
-1.11994e-13
-1.13946e-13
-1.16106e-13
-1.17909e-13
-1.18873e-13
-1.20352e-13
-1.2141e-13
-1.22107e-13
-1.23717e-13
-1.24292e-13
-1.25801e-13
-1.279e-13
-1.30612e-13
-1.33131e-13
-1.34007e-13
-1.35171e-13
-1.36778e-13
-1.36909e-13
-1.38803e-13
-1.41535e-13
-1.43737e-13
-1.43584e-13
-1.44955e-13
-1.47348e-13
-1.48151e-13
-1.49573e-13
-1.51558e-13
-1.53439e-13
-1.55328e-13
-1.56633e-13
-1.58205e-13
-1.60886e-13
-1.63513e-13
-1.67952e-13
-1.72398e-13
-1.74786e-13
-1.78051e-13
-1.80519e-13
-1.8152e-13
-1.84321e-13
-1.86028e-13
-1.88746e-13
-1.91583e-13
-1.91622e-13
-1.92173e-13
-1.94072e-13
-1.94137e-13
-1.93947e-13
-1.94312e-13
-1.93399e-13
-1.93904e-13
-1.94393e-13
-1.94855e-13
-1.95318e-13
-1.96567e-13
-1.96131e-13
-1.95634e-13
-1.95974e-13
-1.98233e-13
-1.96679e-13
-1.96136e-13
-1.98482e-13
-2.00075e-13
-1.9973e-13
-1.99076e-13
-2.00684e-13
-2.02667e-13
-2.03795e-13
-2.031e-13
-2.0401e-13
-2.05162e-13
-2.03683e-13
-2.03753e-13
-2.02932e-13
-2.02304e-13
-2.00576e-13
-2.00179e-13
-2.00612e-13
-2.001e-13
-1.99501e-13
-1.98342e-13
-1.96923e-13
-1.96768e-13
-1.98108e-13
-1.97109e-13
-1.95295e-13
-1.94838e-13
-1.93934e-13
-1.9149e-13
-1.90419e-13
-1.89037e-13
-1.88792e-13
-1.87085e-13
-1.82286e-13
-1.80625e-13
-1.79955e-13
-1.77186e-13
-1.75477e-13
-1.74398e-13
-1.70772e-13
-1.67858e-13
-1.68138e-13
-1.66421e-13
-1.63435e-13
-1.62904e-13
-1.62158e-13
-1.59978e-13
-1.59105e-13
-1.55952e-13
-1.52794e-13
-1.51771e-13
-1.51864e-13
-1.50172e-13
-1.49199e-13
-1.48412e-13
-1.47885e-13
-1.4713e-13
-1.46812e-13
-1.46071e-13
-1.47398e-13
-1.46724e-13
-1.47024e-13
-1.47658e-13
-1.4915e-13
-1.48947e-13
-1.47438e-13
-1.47122e-13
-1.47894e-13
-1.49486e-13
-1.51602e-13
-1.51352e-13
-1.51824e-13
-1.5297e-13
-1.52014e-13
-1.50427e-13
-1.4883e-13
-1.49934e-13
-1.49052e-13
-1.46144e-13
-1.45627e-13
-1.44464e-13
-1.42612e-13
-1.4105e-13
-1.39525e-13
-1.3995e-13
-1.38538e-13
-1.36509e-13
-1.34597e-13
-1.32222e-13
-1.29117e-13
-1.29844e-13
-1.27046e-13
-1.22716e-13
-1.20736e-13
-1.17916e-13
-1.15275e-13
-1.12199e-13
-1.10492e-13
-1.08119e-13
-1.05511e-13
-1.04557e-13
-1.04065e-13
-1.04496e-13
-1.01804e-13
-1.00078e-13
-1.00228e-13
-9.99609e-14
-9.71802e-14
-9.42067e-14
-9.27607e-14
-9.27472e-14
-9.18885e-14
-9.13268e-14
-9.21155e-14
-8.92893e-14
-8.93479e-14
-8.99041e-14
-9.04912e-14
-8.98649e-14
-9.03399e-14
-9.008e-14
-8.90375e-14
-9.00403e-14
-8.86522e-14
-8.98223e-14
-9.08108e-14
-9.10468e-14
-9.27852e-14
-9.23606e-14
-9.15152e-14
-9.15669e-14
-9.17656e-14
-9.10655e-14
-9.09949e-14
-8.98297e-14
-8.89348e-14
-8.8955e-14
-8.90556e-14
-9.03622e-14
-8.91816e-14
-9.05593e-14
-9.1835e-14
-8.92707e-14
-8.82594e-14
-8.96861e-14
-9.14818e-14
-9.07654e-14
-9.03336e-14
-9.22839e-14
-9.1756e-14
-8.98222e-14
-8.88347e-14
-8.84565e-14
-8.75989e-14
-8.41412e-14
-8.3367e-14
-8.5822e-14
-8.37642e-14
-8.21743e-14
-8.29435e-14
-8.50788e-14
-8.28764e-14
-8.14955e-14
-8.29292e-14
-8.55607e-14
-8.75852e-14
-8.64013e-14
-8.70964e-14
-8.86247e-14
-8.77668e-14
-8.64596e-14
-8.87296e-14
-9.35332e-14
-9.38149e-14
-9.46258e-14
-9.49937e-14
-9.37055e-14
-9.46092e-14
-9.44182e-14
-9.54581e-14
-9.60675e-14
-9.4924e-14
-9.42864e-14
-9.67016e-14
-9.60529e-14
-9.28871e-14
-9.37441e-14
-9.64883e-14
-9.58699e-14
-9.45015e-14
-9.13952e-14
-9.15811e-14
-9.34698e-14
-9.15571e-14
-9.16267e-14
-9.17936e-14
-8.8754e-14
-8.89379e-14
-8.67838e-14
-8.62986e-14
-8.47968e-14
-8.5222e-14
-8.7733e-14
-8.32722e-14
-8.23893e-14
-8.26643e-14
-8.15907e-14
-7.86669e-14
-7.56531e-14
-7.65805e-14
-7.74557e-14
-7.51321e-14
-7.20718e-14
-6.9885e-14
-7.01812e-14
-6.9748e-14
-6.82117e-14
-6.52543e-14
-6.34126e-14
-6.61474e-14
-6.17392e-14
-5.7418e-14
-5.71437e-14
-5.34113e-14
-5.36324e-14
-5.18154e-14
-4.87781e-14
-4.80566e-14
-4.64142e-14
-4.43444e-14
-4.35729e-14
-4.24438e-14
-4.25161e-14
-3.96777e-14
-3.70022e-14
-3.40459e-14
-2.73535e-14
-2.2886e-14
-2.65034e-14
-2.96135e-14
-3.64841e-14
-4.24352e-14
-4.82373e-14
-5.51656e-14
-5.98608e-14
-6.38503e-14
-6.95277e-14
-7.40477e-14
-7.8124e-14
-8.40774e-14
-8.89994e-14
-8.96509e-14
-9.07591e-14
-9.4762e-14
-9.97182e-14
-1.03341e-13
-1.06321e-13
-1.07654e-13
-1.09421e-13
-1.11729e-13
-1.1274e-13
-1.13847e-13
-1.16192e-13
-1.17794e-13
-1.19088e-13
-1.20206e-13
-1.21219e-13
-1.22022e-13
-1.24277e-13
-1.24447e-13
-1.25754e-13
-1.27779e-13
-1.3056e-13
-1.33069e-13
-1.34444e-13
-1.35583e-13
-1.36491e-13
-1.36619e-13
-1.38625e-13
-1.42025e-13
-1.43389e-13
-1.4343e-13
-1.44548e-13
-1.47687e-13
-1.48184e-13
-1.48852e-13
-1.513e-13
-1.52927e-13
-1.55217e-13
-1.56802e-13
-1.58582e-13
-1.60658e-13
-1.63868e-13
-1.67661e-13
-1.72572e-13
-1.7422e-13
-1.77823e-13
-1.81235e-13
-1.83127e-13
-1.83971e-13
-1.85512e-13
-1.88494e-13
-1.91273e-13
-1.91963e-13
-1.92332e-13
-1.93948e-13
-1.94759e-13
-1.94568e-13
-1.94009e-13
-1.93163e-13
-1.9391e-13
-1.94885e-13
-1.94973e-13
-1.94943e-13
-1.96646e-13
-1.96303e-13
-1.95329e-13
-1.96286e-13
-1.98234e-13
-1.97208e-13
-1.96e-13
-1.98094e-13
-2.00218e-13
-1.99601e-13
-1.99585e-13
-2.01116e-13
-2.0229e-13
-2.03907e-13
-2.03495e-13
-2.04639e-13
-2.04367e-13
-2.03487e-13
-2.03347e-13
-2.02605e-13
-2.01842e-13
-2.00512e-13
-1.9946e-13
-2.00468e-13
-2.00201e-13
-1.99753e-13
-1.98356e-13
-1.96586e-13
-1.96586e-13
-1.97924e-13
-1.97703e-13
-1.95889e-13
-1.95352e-13
-1.93981e-13
-1.91149e-13
-1.90099e-13
-1.89344e-13
-1.88069e-13
-1.87289e-13
-1.83786e-13
-1.80638e-13
-1.78686e-13
-1.76307e-13
-1.75775e-13
-1.7511e-13
-1.70389e-13
-1.67739e-13
-1.68169e-13
-1.66038e-13
-1.63466e-13
-1.63853e-13
-1.61566e-13
-1.59157e-13
-1.59672e-13
-1.56408e-13
-1.52844e-13
-1.516e-13
-1.51519e-13
-1.50493e-13
-1.48837e-13
-1.48e-13
-1.47634e-13
-1.47233e-13
-1.46651e-13
-1.46163e-13
-1.46505e-13
-1.46986e-13
-1.47303e-13
-1.48511e-13
-1.49411e-13
-1.48378e-13
-1.4776e-13
-1.4707e-13
-1.48037e-13
-1.49357e-13
-1.51448e-13
-1.51789e-13
-1.52252e-13
-1.51869e-13
-1.52296e-13
-1.51108e-13
-1.49193e-13
-1.4968e-13
-1.48638e-13
-1.46203e-13
-1.45535e-13
-1.43904e-13
-1.42377e-13
-1.41122e-13
-1.39904e-13
-1.39749e-13
-1.38237e-13
-1.36095e-13
-1.34673e-13
-1.32997e-13
-1.29226e-13
-1.29401e-13
-1.2685e-13
-1.23085e-13
-1.20524e-13
-1.18063e-13
-1.1534e-13
-1.12166e-13
-1.09481e-13
-1.08744e-13
-1.06102e-13
-1.03688e-13
-1.03284e-13
-1.03687e-13
-1.02673e-13
-1.01071e-13
-9.98116e-14
-9.94689e-14
-9.73213e-14
-9.42728e-14
-9.18474e-14
-9.26221e-14
-9.23307e-14
-9.08882e-14
-9.19112e-14
-8.99414e-14
-8.99861e-14
-9.02388e-14
-8.98302e-14
-8.91187e-14
-8.98398e-14
-9.06068e-14
-8.9568e-14
-8.86669e-14
-8.89123e-14
-8.9853e-14
-9.07766e-14
-9.1737e-14
-9.30935e-14
-9.25713e-14
-9.14369e-14
-9.03302e-14
-9.16046e-14
-9.14109e-14
-9.01991e-14
-8.9661e-14
-8.96038e-14
-8.86114e-14
-8.89058e-14
-8.95153e-14
-8.91344e-14
-9.00052e-14
-9.18415e-14
-9.10204e-14
-8.81503e-14
-8.89692e-14
-9.05645e-14
-9.08819e-14
-9.11847e-14
-9.19279e-14
-9.18176e-14
-9.12396e-14
-8.90543e-14
-8.84092e-14
-8.75853e-14
-8.44478e-14
-8.2229e-14
-8.44229e-14
-8.4796e-14
-8.37831e-14
-8.22311e-14
-8.39461e-14
-8.24852e-14
-8.257e-14
-8.24904e-14
-8.522e-14
-8.77949e-14
-8.64507e-14
-8.64904e-14
-8.75549e-14
-8.78703e-14
-8.89548e-14
-8.98966e-14
-9.28894e-14
-9.26692e-14
-9.49827e-14
-9.49005e-14
-9.36077e-14
-9.56662e-14
-9.53107e-14
-9.52348e-14
-9.54407e-14
-9.51031e-14
-9.53047e-14
-9.58659e-14
-9.56958e-14
-9.31637e-14
-9.39949e-14
-9.68349e-14
-9.58513e-14
-9.45494e-14
-9.15686e-14
-9.15189e-14
-9.34332e-14
-9.17831e-14
-9.20987e-14
-9.15181e-14
-8.89165e-14
-8.91205e-14
-8.67403e-14
-8.59456e-14
-8.46432e-14
-8.48345e-14
-8.76653e-14
-8.42897e-14
-8.25564e-14
-8.23897e-14
-8.09797e-14
-7.83529e-14
-7.64141e-14
-7.601e-14
-7.67148e-14
-7.48956e-14
-7.32006e-14
-7.09878e-14
-6.96413e-14
-6.94233e-14
-6.80164e-14
-6.5203e-14
-6.3919e-14
-6.49447e-14
-6.18935e-14
-5.87608e-14
-5.68595e-14
-5.36921e-14
-5.36074e-14
-5.2045e-14
-4.9687e-14
-4.811e-14
-4.65105e-14
-4.43751e-14
-4.38664e-14
-4.34096e-14
-4.28726e-14
-4.12898e-14
-3.87492e-14
-3.49981e-14
-3.05908e-14
-2.72295e-14
-3.03931e-14
-3.38309e-14
-4.03856e-14
-4.49005e-14
-4.95753e-14
-5.60446e-14
-6.09088e-14
-6.47925e-14
-7.00486e-14
-7.44999e-14
-7.88728e-14
-8.40473e-14
-9.03529e-14
-8.98362e-14
-9.10235e-14
-9.56045e-14
-9.98624e-14
-1.04095e-13
-1.06735e-13
-1.08381e-13
-1.10001e-13
-1.11512e-13
-1.12885e-13
-1.13856e-13
-1.16004e-13
-1.17889e-13
-1.19184e-13
-1.20499e-13
-1.20964e-13
-1.2154e-13
-1.24688e-13
-1.2421e-13
-1.25581e-13
-1.28092e-13
-1.31076e-13
-1.33629e-13
-1.34728e-13
-1.3526e-13
-1.36771e-13
-1.36659e-13
-1.3751e-13
-1.42719e-13
-1.43754e-13
-1.43524e-13
-1.44556e-13
-1.47508e-13
-1.48024e-13
-1.48058e-13
-1.50096e-13
-1.52725e-13
-1.54911e-13
-1.56575e-13
-1.58595e-13
-1.6106e-13
-1.63758e-13
-1.67337e-13
-1.72328e-13
-1.74442e-13
-1.78268e-13
-1.81403e-13
-1.84123e-13
-1.8352e-13
-1.85629e-13
-1.89553e-13
-1.91123e-13
-1.92486e-13
-1.9299e-13
-1.94051e-13
-1.94913e-13
-1.94351e-13
-1.93545e-13
-1.93831e-13
-1.9361e-13
-1.94144e-13
-1.95242e-13
-1.94962e-13
-1.96927e-13
-1.96204e-13
-1.95819e-13
-1.96442e-13
-1.97845e-13
-1.97229e-13
-1.96006e-13
-1.97951e-13
-2.00911e-13
-1.99419e-13
-1.99374e-13
-2.01722e-13
-2.02435e-13
-2.03121e-13
-2.03976e-13
-2.05097e-13
-2.04404e-13
-2.04008e-13
-2.02707e-13
-2.02007e-13
-2.01563e-13
-2.00188e-13
-1.9856e-13
-2.00181e-13
-1.99929e-13
-1.99458e-13
-1.98687e-13
-1.97517e-13
-1.96716e-13
-1.97557e-13
-1.98238e-13
-1.95908e-13
-1.96635e-13
-1.94432e-13
-1.90259e-13
-1.90365e-13
-1.88995e-13
-1.87626e-13
-1.87275e-13
-1.84533e-13
-1.80589e-13
-1.78175e-13
-1.75607e-13
-1.75714e-13
-1.75287e-13
-1.70705e-13
-1.68006e-13
-1.68142e-13
-1.65551e-13
-1.6384e-13
-1.64497e-13
-1.61353e-13
-1.58369e-13
-1.59947e-13
-1.56616e-13
-1.53473e-13
-1.51018e-13
-1.50898e-13
-1.50768e-13
-1.49242e-13
-1.47295e-13
-1.47453e-13
-1.46889e-13
-1.46658e-13
-1.45586e-13
-1.4559e-13
-1.46617e-13
-1.47646e-13
-1.49523e-13
-1.49995e-13
-1.48431e-13
-1.47768e-13
-1.47227e-13
-1.48846e-13
-1.4877e-13
-1.50983e-13
-1.52285e-13
-1.52224e-13
-1.51423e-13
-1.51878e-13
-1.51828e-13
-1.49662e-13
-1.49962e-13
-1.4876e-13
-1.46051e-13
-1.45375e-13
-1.42493e-13
-1.42034e-13
-1.41734e-13
-1.40248e-13
-1.38759e-13
-1.37904e-13
-1.36344e-13
-1.34193e-13
-1.33892e-13
-1.29816e-13
-1.28358e-13
-1.26572e-13
-1.22746e-13
-1.20814e-13
-1.17973e-13
-1.15369e-13
-1.12647e-13
-1.07819e-13
-1.0861e-13
-1.07193e-13
-1.03611e-13
-1.02859e-13
-1.02796e-13
-1.03522e-13
-1.01395e-13
-9.84993e-14
-9.93336e-14
-9.77484e-14
-9.45029e-14
-9.13656e-14
-9.26198e-14
-9.16618e-14
-9.07204e-14
-9.21353e-14
-9.03525e-14
-9.10863e-14
-8.96696e-14
-8.89255e-14
-8.90192e-14
-8.98925e-14
-9.04164e-14
-9.00692e-14
-8.78595e-14
-8.97351e-14
-8.93534e-14
-9.10768e-14
-9.29074e-14
-9.25016e-14
-9.34808e-14
-9.14677e-14
-8.8991e-14
-9.07675e-14
-9.11645e-14
-9.01377e-14
-8.98263e-14
-8.95289e-14
-8.84718e-14
-8.88521e-14
-8.84757e-14
-8.86929e-14
-8.99498e-14
-9.19942e-14
-9.21873e-14
-8.8275e-14
-8.86775e-14
-9.07964e-14
-9.10266e-14
-9.14089e-14
-9.20958e-14
-9.13823e-14
-9.20173e-14
-8.85615e-14
-8.84669e-14
-8.7598e-14
-8.47e-14
-8.16792e-14
-8.26368e-14
-8.51148e-14
-8.55571e-14
-8.22705e-14
-8.24945e-14
-8.17675e-14
-8.38369e-14
-8.27866e-14
-8.46634e-14
-8.7665e-14
-8.64351e-14
-8.65639e-14
-8.66019e-14
-8.80781e-14
-9.10265e-14
-9.09782e-14
-9.22797e-14
-9.19556e-14
-9.45918e-14
-9.47432e-14
-9.37685e-14
-9.67305e-14
-9.62701e-14
-9.46041e-14
-9.55364e-14
-9.59922e-14
-9.60559e-14
-9.573e-14
-9.55644e-14
-9.34998e-14
-9.37526e-14
-9.655e-14
-9.52253e-14
-9.46761e-14
-9.22037e-14
-9.1047e-14
-9.35033e-14
-9.20073e-14
-9.28062e-14
-9.22864e-14
-8.85936e-14
-8.85372e-14
-8.68664e-14
-8.57899e-14
-8.50004e-14
-8.45236e-14
-8.80484e-14
-8.52138e-14
-8.23875e-14
-8.17228e-14
-7.9988e-14
-7.80221e-14
-7.72701e-14
-7.52257e-14
-7.62855e-14
-7.43992e-14
-7.36722e-14
-7.2668e-14
-6.93473e-14
-6.85628e-14
-6.75801e-14
-6.52585e-14
-6.48245e-14
-6.37625e-14
-6.26186e-14
-6.00397e-14
-5.56479e-14
-5.40571e-14
-5.3913e-14
-5.23774e-14
-5.0462e-14
-4.78294e-14
-4.6828e-14
-4.48931e-14
-4.4275e-14
-4.38766e-14
-4.35645e-14
-4.34756e-14
-4.0624e-14
-3.63577e-14
-3.27513e-14
-3.04535e-14
-3.43297e-14
-3.7118e-14
-4.40112e-14
-4.76658e-14
-5.14624e-14
-5.75303e-14
-6.14826e-14
-6.58433e-14
-7.10138e-14
-7.53113e-14
-7.96093e-14
-8.46564e-14
-9.13421e-14
-8.99034e-14
-9.19993e-14
-9.6111e-14
-9.98274e-14
-1.04683e-13