/*--------------------------------*- C++ -*----------------------------------*\
| =========                 |                                                 |
| \\      /  F ield         | OpenFOAM: The Open Source CFD Toolbox           |
|  \\    /   O peration     | Version:  2112                                  |
|   \\  /    A nd           | Website:  www.openfoam.com                      |
|    \\/     M anipulation  |                                                 |
\*---------------------------------------------------------------------------*/
FoamFile
{
    version     2.0;
    format      ascii;
    arch        "LSB;label=32;scalar=64";
    class       volScalarField;
    location    "7";
    object      p;
}
// * * * * * * * * * * * * * * * * * * * * * * * * * * * * * * * * * * * * * //

dimensions      [0 2 -2 0 0 0 0];

internalField   nonuniform List<scalar> 
50000
(
3.60036e-14
6.038e-14
6.64925e-14
6.96623e-14
7.18692e-14
7.32994e-14
7.43887e-14
7.5258e-14
7.58581e-14
7.64593e-14
7.69166e-14
7.72457e-14
7.75294e-14
7.76758e-14
7.77818e-14
7.79744e-14
7.80794e-14
7.7954e-14
7.77191e-14
7.74302e-14
7.70581e-14
7.67119e-14
7.63394e-14
7.60039e-14
7.56634e-14
7.52507e-14
7.4679e-14
7.39929e-14
7.34844e-14
7.27231e-14
7.19018e-14
7.12373e-14
7.04475e-14
6.95608e-14
6.8742e-14
6.77251e-14
6.68923e-14
6.60528e-14
6.52013e-14
6.44228e-14
6.35338e-14
6.2685e-14
6.16879e-14
6.06621e-14
5.96814e-14
5.85226e-14
5.74203e-14
5.65248e-14
5.53749e-14
5.41091e-14
5.31256e-14
5.21901e-14
5.12718e-14
5.01452e-14
4.91171e-14
4.83812e-14
4.73569e-14
4.65832e-14
4.57879e-14
4.46775e-14
4.38292e-14
4.28781e-14
4.17814e-14
4.06437e-14
3.97101e-14
3.86425e-14
3.77738e-14
3.67318e-14
3.56609e-14
3.48466e-14
3.38843e-14
3.27806e-14
3.17029e-14
3.08709e-14
2.99005e-14
2.87147e-14
2.79952e-14
2.72879e-14
2.61205e-14
2.49162e-14
2.39644e-14
2.30813e-14
2.20014e-14
2.11887e-14
2.03795e-14
1.92905e-14
1.8487e-14
1.77369e-14
1.68287e-14
1.59107e-14
1.49419e-14
1.4121e-14
1.3339e-14
1.25592e-14
1.18358e-14
1.12765e-14
1.02783e-14
9.34512e-15
9.01536e-15
8.38146e-15
7.45957e-15
6.90232e-15
6.61217e-15
6.15279e-15
5.61007e-15
5.3651e-15
5.12096e-15
4.75487e-15
4.28111e-15
3.98297e-15
4.22614e-15
4.30587e-15
3.93652e-15
3.45959e-15
3.51011e-15
3.64289e-15
3.30132e-15
2.68094e-15
2.39211e-15
2.3478e-15
2.18044e-15
1.79903e-15
1.45764e-15
1.49111e-15
1.45758e-15
9.88665e-16
8.89968e-16
8.98752e-16
6.03742e-16
4.72263e-16
4.67731e-16
4.40393e-16
2.92308e-16
7.13075e-16
7.20038e-16
3.29205e-16
4.44098e-16
7.04052e-16
5.23916e-16
6.85019e-16
1.32346e-15
1.29638e-15
7.47467e-16
6.57885e-16
1.33538e-15
1.42791e-15
1.31073e-15
2.20482e-15
2.64484e-15
2.47212e-15
3.15467e-15
3.35581e-15
3.37974e-15
4.34275e-15
4.51804e-15
4.6054e-15
5.23568e-15
5.29348e-15
5.40011e-15
5.4187e-15
6.00509e-15
6.68087e-15
7.16554e-15
7.61491e-15
8.16459e-15
8.54286e-15
8.92087e-15
9.9018e-15
9.96625e-15
1.06697e-14
1.21261e-14
1.24694e-14
1.31137e-14
1.44624e-14
1.52807e-14
1.59036e-14
1.66066e-14
1.78676e-14
1.89145e-14
1.95242e-14
2.09047e-14
2.21583e-14
2.31099e-14
2.42885e-14
2.49977e-14
2.6431e-14
2.78926e-14
2.87427e-14
2.98512e-14
3.11102e-14
3.22861e-14
3.31786e-14
3.38438e-14
3.42657e-14
3.53392e-14
3.65582e-14
3.74538e-14
3.88535e-14
4.04107e-14
4.11773e-14
4.18264e-14
4.29522e-14
4.30948e-14
4.39964e-14
4.50015e-14
4.60495e-14
4.77082e-14
4.86034e-14
4.92084e-14
5.0264e-14
5.13307e-14
5.25919e-14
5.38998e-14
5.46119e-14
5.62403e-14
5.72618e-14
5.8293e-14
5.9277e-14
5.99999e-14
6.11479e-14
6.27435e-14
6.40484e-14
6.49439e-14
6.62083e-14
6.70485e-14
6.80159e-14
6.88349e-14
6.94836e-14
7.03788e-14
7.15626e-14
7.25391e-14
7.34951e-14
7.39582e-14
7.45051e-14
7.54394e-14
7.55474e-14
7.6119e-14
7.67792e-14
7.76425e-14
7.81266e-14
7.86577e-14
7.93285e-14
7.93946e-14
7.94956e-14
8.05257e-14
8.09521e-14
8.10158e-14
8.18416e-14
8.21058e-14
8.24242e-14
8.27446e-14
8.28953e-14
8.28571e-14
8.36553e-14
8.40835e-14
8.39764e-14
8.45826e-14
8.50829e-14
8.51156e-14
8.57473e-14
8.56672e-14
8.56349e-14
8.67225e-14
8.67034e-14
8.76211e-14
8.78866e-14
8.72863e-14
8.85458e-14
8.83358e-14
8.73225e-14
8.91298e-14
8.9527e-14
8.92112e-14
8.99327e-14
8.98454e-14
9.07253e-14
9.07781e-14
9.05103e-14
9.10883e-14
9.21138e-14
9.27323e-14
9.32205e-14
9.3303e-14
9.36137e-14
9.49752e-14
9.46178e-14
9.56406e-14
9.67674e-14
9.62444e-14
9.69753e-14
9.82019e-14
9.78762e-14
9.80784e-14
9.86501e-14
9.78419e-14
9.90413e-14
1.00637e-13
1.00231e-13
1.00651e-13
1.01083e-13
1.00158e-13
1.0094e-13
1.00859e-13
9.98811e-14
1.01356e-13
1.01762e-13
1.00788e-13
1.01554e-13
1.01403e-13
1.00137e-13
1.00459e-13
1.01073e-13
1.00074e-13
9.98563e-14
1.00104e-13
9.94138e-14
9.94874e-14
9.92459e-14
9.87924e-14
9.82484e-14
9.82189e-14
9.86957e-14
9.89444e-14
9.84371e-14
9.7522e-14
9.79245e-14
9.77818e-14
9.71982e-14
9.62904e-14
9.62731e-14
9.72455e-14
9.61463e-14
9.52312e-14
9.55351e-14
9.42577e-14
9.36795e-14
9.44507e-14
9.27322e-14
9.27097e-14
9.37188e-14
9.27363e-14
9.25633e-14
9.24206e-14
9.14737e-14
9.07937e-14
9.1015e-14
9.11691e-14
9.14274e-14
9.0958e-14
9.01651e-14
9.03468e-14
9.03144e-14
8.93651e-14
8.87662e-14
8.91963e-14
8.9547e-14
8.98246e-14
8.91999e-14
8.82572e-14
8.83285e-14
8.79504e-14
8.85271e-14
8.80003e-14
8.73039e-14
8.86792e-14
8.86352e-14
8.84061e-14
8.8533e-14
8.8398e-14
8.74366e-14
8.8149e-14
8.9229e-14
8.9101e-14
8.8761e-14
8.83518e-14
8.88163e-14
8.85638e-14
8.88657e-14
8.81329e-14
8.85592e-14
8.94725e-14
8.94542e-14
8.90846e-14
8.90481e-14
8.9311e-14
8.85436e-14
8.94783e-14
8.88217e-14
8.87377e-14
8.95338e-14
8.95143e-14
8.90503e-14
8.9437e-14
8.97324e-14
8.8392e-14
8.87823e-14
9.01893e-14
9.05328e-14
9.01884e-14
8.98247e-14
8.92347e-14
8.91266e-14
9.12069e-14
9.14363e-14
9.08905e-14
8.99524e-14
9.0523e-14
9.26103e-14
9.17181e-14
9.08328e-14
9.11657e-14
9.31798e-14
9.26165e-14
9.24835e-14
9.31999e-14
9.33161e-14
9.41112e-14
9.34584e-14
9.27807e-14
9.33921e-14
9.48793e-14
9.43345e-14
9.2844e-14
9.43008e-14
9.4716e-14
9.39541e-14
9.36713e-14
9.38537e-14
9.39797e-14
9.47598e-14
9.44064e-14
9.28969e-14
9.42751e-14
9.52289e-14
9.38306e-14
9.23245e-14
9.39203e-14
9.39773e-14
9.39965e-14
9.42674e-14
9.27577e-14
9.41915e-14
9.408e-14
9.35978e-14
9.28433e-14
9.32172e-14
9.38499e-14
9.3201e-14
9.33668e-14
9.25174e-14
9.3083e-14
9.29798e-14
9.34327e-14
9.27351e-14
9.29269e-14
9.32393e-14
9.25932e-14
9.28004e-14
9.33324e-14
9.49015e-14
9.3125e-14
9.30872e-14
9.32006e-14
9.34949e-14
9.5014e-14
9.35612e-14
9.30107e-14
9.36912e-14
9.41084e-14
9.30308e-14
9.30197e-14
9.26486e-14
9.25943e-14
9.31123e-14
9.2182e-14
9.2319e-14
9.24052e-14
9.33463e-14
9.23879e-14
9.16103e-14
9.15881e-14
9.18465e-14
9.17803e-14
9.0534e-14
9.13235e-14
9.02385e-14
8.96132e-14
8.88959e-14
8.72233e-14
8.77662e-14
8.70689e-14
8.461e-14
8.29982e-14
8.27262e-14
8.05939e-14
7.86955e-14
7.58351e-14
7.21121e-14
6.84655e-14
6.07749e-14
5.25301e-14
6.23486e-14
6.70227e-14
6.98669e-14
7.1995e-14
7.33691e-14
7.4423e-14
7.52963e-14
7.58542e-14
7.64886e-14
7.69268e-14
7.72223e-14
7.75385e-14
7.76954e-14
7.77812e-14
7.79632e-14
7.80981e-14
7.79642e-14
7.77366e-14
7.74498e-14
7.70556e-14
7.66827e-14
7.63477e-14
7.59959e-14
7.567e-14
7.52886e-14
7.47004e-14
7.39947e-14
7.34553e-14
7.27401e-14
7.19264e-14
7.11842e-14
7.04448e-14
6.96091e-14
6.87112e-14
6.76742e-14
6.6881e-14
6.60325e-14
6.51817e-14
6.43859e-14
6.3559e-14
6.26456e-14
6.17134e-14
6.07136e-14
5.96536e-14
5.85539e-14
5.74312e-14
5.64996e-14
5.53776e-14
5.41106e-14
5.31336e-14
5.22242e-14
5.12228e-14
5.01025e-14
4.91592e-14
4.83775e-14
4.73615e-14
4.65539e-14
4.57483e-14
4.46846e-14
4.38883e-14
4.28406e-14
4.17812e-14
4.06621e-14
3.96294e-14
3.86604e-14
3.77661e-14
3.67052e-14
3.57287e-14
3.47944e-14
3.38324e-14
3.2821e-14
3.17972e-14
3.08525e-14
2.98442e-14
2.88324e-14
2.80115e-14
2.72067e-14
2.61332e-14
2.49676e-14
2.39463e-14
2.30616e-14
2.20244e-14
2.11731e-14
2.02527e-14
1.93984e-14
1.85512e-14
1.76418e-14
1.68416e-14
1.58864e-14
1.49285e-14
1.42002e-14
1.33622e-14
1.25349e-14
1.18318e-14
1.11591e-14
1.02971e-14
9.43426e-15
8.99423e-15
8.37625e-15
7.46499e-15
6.91619e-15
6.58005e-15
6.16026e-15
5.66733e-15
5.2202e-15
5.08052e-15
4.8459e-15
4.29273e-15
4.04092e-15
4.17068e-15
4.15268e-15
3.98312e-15
3.56086e-15
3.58485e-15
3.5898e-15
3.16694e-15
2.67489e-15
2.505e-15
2.35923e-15
2.19744e-15
1.82143e-15
1.53776e-15
1.48414e-15
1.28875e-15
1.0584e-15
9.78567e-16
8.47629e-16
6.0331e-16
4.59006e-16
3.96298e-16
4.43018e-16
4.67971e-16
6.62455e-16
6.30476e-16
3.8165e-16
5.05318e-16
6.34886e-16
5.72087e-16
7.11988e-16
1.18158e-15
1.23543e-15
7.42734e-16
7.34707e-16
1.36374e-15
1.42975e-15
1.36787e-15
2.14786e-15
2.57555e-15
2.60747e-15
3.07893e-15
3.26625e-15
3.55017e-15
4.2426e-15
4.46158e-15
4.6963e-15
5.08405e-15
5.29259e-15
5.50086e-15
5.50548e-15
5.99208e-15
6.62712e-15
7.11885e-15
7.63805e-15
8.19268e-15
8.5386e-15
8.95022e-15
9.66316e-15
1.01066e-14
1.07673e-14
1.18773e-14
1.26706e-14
1.3276e-14
1.41821e-14
1.52615e-14
1.59828e-14
1.664e-14
1.7936e-14
1.88844e-14
1.95241e-14
2.08167e-14
2.21117e-14
2.30966e-14
2.42703e-14
2.51522e-14
2.6435e-14
2.77332e-14
2.8826e-14
2.98027e-14
3.10939e-14
3.22326e-14
3.31257e-14
3.37464e-14
3.43782e-14
3.55147e-14
3.64998e-14
3.74659e-14
3.89958e-14
4.02025e-14
4.09515e-14
4.19632e-14
4.29393e-14
4.31962e-14
4.41015e-14
4.49917e-14
4.59414e-14
4.76173e-14
4.86699e-14
4.92563e-14
5.01718e-14
5.13998e-14
5.25161e-14
5.37275e-14
5.47834e-14
5.61919e-14
5.71784e-14
5.83484e-14
5.92882e-14
6.00417e-14
6.13431e-14
6.27663e-14
6.38518e-14
6.48124e-14
6.61207e-14
6.71364e-14
6.80954e-14
6.89561e-14
6.9583e-14
7.0431e-14
7.16533e-14
7.24236e-14
7.32264e-14
7.40611e-14
7.45161e-14
7.53407e-14
7.56972e-14
7.61671e-14
7.69274e-14
7.75022e-14
7.81113e-14
7.86098e-14
7.91691e-14
7.95853e-14
7.96954e-14
8.04137e-14
8.09533e-14
8.11531e-14
8.16919e-14
8.20437e-14
8.22126e-14
8.2756e-14
8.30548e-14
8.3116e-14
8.35941e-14
8.39881e-14
8.41197e-14
8.43695e-14
8.4871e-14
8.52519e-14
8.58093e-14
8.56852e-14
8.57791e-14
8.64493e-14
8.67479e-14
8.7623e-14
8.79445e-14
8.74117e-14
8.82298e-14
8.83761e-14
8.77688e-14
8.88603e-14
8.93373e-14
8.92772e-14
8.98129e-14
9.01321e-14
9.04113e-14
9.07739e-14
9.09059e-14
9.11918e-14
9.18138e-14
9.25971e-14
9.32924e-14
9.3299e-14
9.35967e-14
9.49223e-14
9.49271e-14
9.54568e-14
9.66253e-14
9.63914e-14
9.71537e-14
9.80812e-14
9.78617e-14
9.80138e-14
9.85489e-14
9.81751e-14
9.921e-14
1.00148e-13
1.00227e-13
1.00703e-13
1.00906e-13
1.00518e-13
1.00637e-13
1.00924e-13
1.00342e-13
1.0108e-13
1.01604e-13
1.01104e-13
1.01334e-13
1.01192e-13
1.00556e-13
1.00476e-13
1.00772e-13
1.00202e-13
9.98294e-14
9.99658e-14
9.96848e-14
9.93502e-14
9.90033e-14
9.89571e-14
9.84626e-14
9.82579e-14
9.86728e-14
9.86264e-14
9.82009e-14
9.78877e-14
9.79204e-14
9.76116e-14
9.7189e-14
9.66849e-14
9.64284e-14
9.67964e-14
9.61975e-14
9.53987e-14
9.51936e-14
9.45587e-14
9.39556e-14
9.3908e-14
9.31085e-14
9.29009e-14
9.3181e-14
9.2816e-14
9.27782e-14
9.20486e-14
9.15734e-14
9.13121e-14
9.09268e-14
9.10211e-14
9.12356e-14
9.0699e-14
9.0331e-14
9.0562e-14
8.98888e-14
8.94556e-14
8.92928e-14
8.91235e-14
8.93984e-14
8.95832e-14
8.90033e-14
8.85811e-14
8.83197e-14
8.78926e-14
8.8458e-14
8.80743e-14
8.75789e-14
8.8375e-14
8.85867e-14
8.84618e-14
8.84568e-14
8.8387e-14
8.78212e-14
8.83364e-14
8.89728e-14
8.87633e-14
8.86429e-14
8.86703e-14
8.87974e-14
8.85781e-14
8.86309e-14
8.83199e-14
8.8822e-14
8.93155e-14
8.9257e-14
8.90645e-14
8.91581e-14
8.93774e-14
8.8477e-14
8.9233e-14
8.93045e-14
8.8748e-14
8.91788e-14
8.96731e-14
8.92412e-14
8.9243e-14
8.95666e-14
8.86006e-14
8.92038e-14
9.01754e-14
8.99774e-14
8.98921e-14
8.99473e-14
8.95247e-14
8.94494e-14
9.08805e-14
9.10523e-14
9.10709e-14
9.04734e-14
9.03475e-14
9.21282e-14
9.19801e-14
9.10719e-14
9.10977e-14
9.28611e-14
9.26213e-14
9.2643e-14
9.32446e-14
9.34449e-14
9.39277e-14
9.33021e-14
9.31531e-14
9.35358e-14
9.43658e-14
9.42034e-14
9.34374e-14
9.40443e-14
9.44225e-14
9.42379e-14
9.36732e-14
9.39198e-14
9.41209e-14
9.45979e-14
9.4316e-14
9.3299e-14
9.39783e-14
9.48902e-14
9.41666e-14
9.26571e-14
9.36906e-14
9.39343e-14
9.39096e-14
9.39882e-14
9.33345e-14
9.39698e-14
9.40233e-14
9.34377e-14
9.29688e-14
9.33947e-14
9.36178e-14
9.32457e-14
9.31873e-14
9.26971e-14
9.32226e-14
9.32594e-14
9.3009e-14
9.28696e-14
9.30885e-14
9.29699e-14
9.27177e-14
9.29583e-14
9.33119e-14
9.45179e-14
9.3526e-14
9.28725e-14
9.3406e-14
9.38883e-14
9.42073e-14
9.34994e-14
9.37181e-14
9.37697e-14
9.34823e-14
9.32356e-14
9.30394e-14
9.26429e-14
9.25326e-14
9.28401e-14
9.24725e-14
9.24668e-14
9.27213e-14
9.30409e-14
9.20131e-14
9.19782e-14
9.19672e-14
9.14475e-14
9.14491e-14
9.11264e-14
9.11228e-14
9.02059e-14
8.95649e-14
8.86573e-14
8.78734e-14
8.7832e-14
8.64002e-14
8.45926e-14
8.36728e-14
8.25378e-14
8.05813e-14
7.87679e-14
7.60076e-14
7.26297e-14
6.86791e-14
6.27732e-14
5.9947e-14
6.44639e-14
6.77991e-14
7.01846e-14
7.22207e-14
7.3467e-14
7.44926e-14
7.5356e-14
7.58415e-14
7.65343e-14
7.694e-14
7.72703e-14
7.75525e-14
7.76948e-14
7.77765e-14
7.79685e-14
7.81535e-14
7.79954e-14
7.77765e-14
7.74926e-14
7.70327e-14
7.66503e-14
7.64018e-14
7.60131e-14
7.56567e-14
7.53134e-14
7.47258e-14
7.39731e-14
7.34607e-14
7.27716e-14
7.19189e-14
7.11745e-14
7.04912e-14
6.96007e-14
6.86742e-14
6.76598e-14
6.68767e-14
6.60253e-14
6.513e-14
6.43867e-14
6.36236e-14
6.26185e-14
6.168e-14
6.0755e-14
5.96408e-14
5.85775e-14
5.74445e-14
5.64667e-14
5.54297e-14
5.41673e-14
5.30693e-14
5.22093e-14
5.11731e-14
5.01052e-14
4.9166e-14
4.83429e-14
4.73744e-14
4.65037e-14
4.57331e-14
4.473e-14
4.39326e-14
4.28117e-14
4.17418e-14
4.06733e-14
3.95836e-14
3.86429e-14
3.77382e-14
3.66732e-14
3.57751e-14
3.47594e-14
3.38444e-14
3.28239e-14
3.18204e-14
3.08348e-14
2.98064e-14
2.89098e-14
2.80464e-14
2.71579e-14
2.61886e-14
2.49754e-14
2.39043e-14
2.30614e-14
2.20349e-14
2.11536e-14
2.01811e-14
1.94306e-14
1.85206e-14
1.76273e-14
1.68487e-14
1.58448e-14
1.49234e-14
1.42586e-14
1.34086e-14
1.25527e-14
1.18335e-14
1.1016e-14
1.03117e-14
9.56163e-15
9.02358e-15
8.30817e-15
7.45397e-15
6.84675e-15
6.53963e-15
6.15433e-15
5.65636e-15
5.15397e-15
5.05876e-15
4.86687e-15
4.30302e-15
4.05989e-15
4.13762e-15
4.11048e-15
3.98809e-15
3.72801e-15
3.6349e-15
3.4315e-15
3.11459e-15
2.73493e-15
2.5465e-15
2.32551e-15
2.21346e-15
1.88557e-15
1.60469e-15
1.45345e-15
1.24077e-15
1.09969e-15
9.25833e-16
8.33892e-16
6.45677e-16
4.79699e-16
4.16823e-16
4.174e-16
5.53334e-16
5.92722e-16
5.7427e-16
4.28245e-16
5.13846e-16
5.84791e-16
5.992e-16
7.54204e-16
1.05511e-15
1.22056e-15
7.85958e-16
7.63372e-16
1.33676e-15
1.39263e-15
1.44405e-15
2.16214e-15
2.45723e-15
2.66347e-15
3.01808e-15
3.23243e-15
3.63826e-15
4.17835e-15
4.43937e-15
4.71605e-15
5.01651e-15
5.32245e-15
5.53757e-15
5.50193e-15
5.98043e-15
6.58317e-15
7.17326e-15
7.68445e-15
8.17653e-15
8.54e-15
8.92679e-15
9.54145e-15
1.00708e-14
1.08372e-14
1.18074e-14
1.26523e-14
1.33459e-14
1.41431e-14
1.51499e-14
1.59852e-14
1.67916e-14
1.79285e-14
1.88814e-14
1.9599e-14
2.07339e-14
2.20718e-14
2.29792e-14
2.41764e-14
2.53579e-14
2.64691e-14
2.75922e-14
2.88562e-14
2.98211e-14
3.10327e-14
3.21983e-14
3.30844e-14
3.37152e-14
3.45047e-14
3.55326e-14
3.65286e-14
3.7536e-14
3.88821e-14
4.01029e-14
4.08625e-14
4.20057e-14
4.29389e-14
4.33667e-14
4.41065e-14
4.49309e-14
4.60232e-14
4.74808e-14
4.85692e-14
4.92605e-14
5.01425e-14
5.14162e-14
5.2535e-14
5.35888e-14
5.47812e-14
5.62092e-14
5.71401e-14
5.8318e-14
5.92924e-14
6.01792e-14
6.14556e-14
6.27157e-14
6.37034e-14
6.47983e-14
6.59909e-14
6.72401e-14
6.82159e-14
6.89721e-14
6.97688e-14
7.05987e-14
7.15273e-14
7.23122e-14
7.31318e-14
7.40194e-14
7.4673e-14
7.53384e-14
7.5759e-14
7.62618e-14
7.69347e-14
7.74114e-14
7.81676e-14
7.84943e-14
7.90432e-14
7.96938e-14
7.98128e-14
8.0476e-14
8.08718e-14
8.12839e-14
8.17354e-14
8.19441e-14
8.20621e-14
8.27791e-14
8.31217e-14
8.32985e-14
8.352e-14
8.38306e-14
8.42889e-14
8.4304e-14
8.47015e-14
8.52921e-14
8.58953e-14
8.57184e-14
8.58395e-14
8.6363e-14
8.67372e-14
8.74689e-14
8.79707e-14
8.76109e-14
8.79365e-14
8.8411e-14
8.81941e-14
8.86999e-14
8.91866e-14
8.91483e-14
8.97726e-14
9.03806e-14
9.00871e-14
9.07497e-14
9.13427e-14
9.12808e-14
9.15974e-14
9.24816e-14
9.32076e-14
9.32527e-14
9.36731e-14
9.48234e-14
9.51293e-14
9.5433e-14
9.6549e-14
9.64885e-14
9.71499e-14
9.80318e-14
9.79274e-14
9.7788e-14
9.85476e-14
9.85096e-14
9.92436e-14
9.99394e-14
1.00182e-13
1.00615e-13
1.00946e-13
1.00711e-13
1.00387e-13
1.00976e-13
1.00744e-13
1.00936e-13
1.01523e-13
1.0121e-13
1.01131e-13
1.01214e-13
1.00793e-13
1.00416e-13
1.00593e-13
1.00389e-13
9.98583e-14
9.98331e-14
9.9754e-14
9.94163e-14
9.88708e-14
9.88979e-14
9.86135e-14
9.83369e-14
9.85773e-14
9.84106e-14
9.82024e-14
9.79927e-14
9.80643e-14
9.7516e-14
9.707e-14
9.69385e-14
9.65188e-14
9.66235e-14
9.61503e-14
9.54315e-14
9.5078e-14
9.47825e-14
9.39117e-14
9.37184e-14
9.34415e-14
9.28665e-14
9.30362e-14
9.27444e-14
9.27232e-14
9.20224e-14
9.1546e-14
9.14709e-14
9.1169e-14
9.08825e-14
9.09295e-14
9.06977e-14
9.04088e-14
9.0464e-14
8.98904e-14
8.94656e-14
8.94381e-14
8.92545e-14
8.92215e-14
8.93462e-14
8.88725e-14
8.88914e-14
8.83926e-14
8.77754e-14
8.83394e-14
8.81617e-14
8.77481e-14
8.82461e-14
8.84684e-14
8.83323e-14
8.85191e-14
8.84445e-14
8.81396e-14
8.84354e-14
8.87168e-14
8.86209e-14
8.86363e-14
8.86703e-14
8.88488e-14
8.86619e-14
8.83608e-14
8.85332e-14
8.90412e-14
8.91359e-14
8.90497e-14
8.91744e-14
8.92695e-14
8.92842e-14
8.86105e-14
8.90464e-14
8.94081e-14
8.89085e-14
8.90244e-14
8.96024e-14
8.95004e-14
8.92063e-14
8.92777e-14
8.89271e-14
8.94162e-14
8.99732e-14
8.98371e-14
8.96495e-14
8.9803e-14
8.98609e-14
8.98439e-14
9.05486e-14
9.07398e-14
9.09834e-14
9.0806e-14
9.06132e-14
9.16788e-14
9.18266e-14
9.14558e-14
9.11143e-14
9.24121e-14
9.28861e-14
9.28027e-14
9.31721e-14
9.35151e-14
9.3718e-14
9.32553e-14
9.34722e-14
9.36407e-14
9.39669e-14
9.40952e-14
9.37815e-14
9.3995e-14
9.4472e-14
9.42485e-14
9.34948e-14
9.41268e-14
9.42435e-14
9.43286e-14
9.43941e-14
9.36102e-14
9.38128e-14
9.45305e-14
9.42426e-14
9.31101e-14
9.36827e-14
9.39673e-14
9.3658e-14
9.37266e-14
9.37838e-14
9.38183e-14
9.38437e-14
9.34084e-14
9.31059e-14
9.36036e-14
9.35309e-14
9.31164e-14
9.29467e-14
9.30547e-14
9.33454e-14
9.31172e-14
9.28629e-14
9.29621e-14
9.30876e-14
9.30186e-14
9.28565e-14
9.28733e-14
9.34781e-14
9.4149e-14
9.35943e-14
9.30123e-14
9.36536e-14
9.39797e-14
9.36489e-14
9.35028e-14
9.39725e-14
9.40062e-14
9.33742e-14
9.31196e-14
9.28829e-14
9.28006e-14
9.26298e-14
9.26148e-14
9.26106e-14
9.2485e-14
9.28902e-14
9.29227e-14
9.19115e-14
9.21519e-14
9.2363e-14
9.12315e-14
9.09976e-14
9.15247e-14
9.11202e-14
9.01568e-14
8.93783e-14
8.87478e-14
8.83212e-14
8.78684e-14
8.61173e-14
8.44962e-14
8.38616e-14
8.27071e-14
8.0733e-14
7.86051e-14
7.63599e-14
7.32721e-14
6.92055e-14
6.49423e-14
6.39489e-14
6.63871e-14
6.88652e-14
7.06789e-14
7.24086e-14
7.36735e-14
7.46471e-14
7.53666e-14
7.58668e-14
7.65775e-14
7.7034e-14
7.73761e-14
7.75654e-14
7.76773e-14
7.77777e-14
7.79849e-14
7.81998e-14
7.80313e-14
7.78388e-14
7.75447e-14
7.70177e-14
7.66362e-14
7.6471e-14
7.60675e-14
7.56529e-14
7.534e-14
7.47297e-14
7.39586e-14
7.34879e-14
7.28348e-14
7.19239e-14
7.11639e-14
7.04915e-14
6.96129e-14
6.87007e-14
6.76553e-14
6.67934e-14
6.59875e-14
6.50836e-14
6.43791e-14
6.36847e-14
6.26591e-14
6.16856e-14
6.0703e-14
5.97191e-14
5.85989e-14
5.74431e-14
5.64461e-14
5.54028e-14
5.41758e-14
5.30702e-14
5.21602e-14
5.11558e-14
5.00823e-14
4.90929e-14
4.83134e-14
4.74113e-14
4.64701e-14
4.56767e-14
4.47253e-14
4.38907e-14
4.28693e-14
4.17099e-14
4.06956e-14
3.9619e-14
3.86358e-14
3.76289e-14
3.66439e-14
3.57556e-14
3.47969e-14
3.38628e-14
3.28188e-14
3.18713e-14
3.08131e-14
2.97885e-14
2.89909e-14
2.81188e-14
2.7138e-14
2.6141e-14
2.4932e-14
2.38963e-14
2.29405e-14
2.20639e-14
2.11589e-14
2.02094e-14
1.9414e-14
1.84741e-14
1.76464e-14
1.68742e-14
1.57967e-14
1.49271e-14
1.42802e-14
1.34701e-14
1.26068e-14
1.17484e-14
1.0854e-14
1.03093e-14
9.75658e-15
8.96652e-15
8.20989e-15
7.52015e-15
6.86774e-15
6.49003e-15
6.10304e-15
5.55255e-15
5.09758e-15
5.02557e-15
4.78632e-15
4.33705e-15
4.15748e-15
4.1024e-15
4.1305e-15
3.95523e-15
3.8202e-15
3.66339e-15
3.26288e-15
3.11036e-15
2.81053e-15
2.52788e-15
2.23062e-15
2.13709e-15
1.92253e-15
1.73385e-15
1.46528e-15
1.29445e-15
1.07699e-15
8.0552e-16
8.34964e-16
6.98609e-16
4.80407e-16
4.51187e-16
4.73876e-16
6.05984e-16
5.14009e-16
5.71466e-16
4.92944e-16
4.39856e-16
5.47179e-16
6.05579e-16
7.8713e-16
1.10894e-15
1.17547e-15
8.05017e-16
7.64411e-16
1.25429e-15
1.36891e-15
1.54518e-15
2.15549e-15
2.30797e-15
2.67652e-15
3.05877e-15
3.316e-15
3.73385e-15
4.15082e-15
4.39486e-15
4.69652e-15
5.00631e-15
5.25896e-15
5.55882e-15
5.56593e-15
5.91433e-15
6.58422e-15
7.22452e-15
7.71787e-15
8.16324e-15
8.52626e-15
8.8149e-15
9.54021e-15
1.00691e-14
1.08921e-14
1.1867e-14
1.25582e-14
1.33379e-14
1.42672e-14
1.49708e-14
1.5893e-14
1.69005e-14
1.78414e-14
1.88878e-14
1.97144e-14
2.07012e-14
2.2024e-14
2.28816e-14
2.40448e-14
2.54708e-14
2.64956e-14
2.75574e-14
2.89242e-14
2.9854e-14
3.0945e-14
3.22042e-14
3.30244e-14
3.37013e-14
3.46195e-14
3.54655e-14
3.66281e-14
3.75877e-14
3.86288e-14
4.00501e-14
4.10114e-14
4.19608e-14
4.28989e-14
4.35279e-14
4.40976e-14
4.49323e-14
4.61527e-14
4.72624e-14
4.83531e-14
4.9311e-14
5.01969e-14
5.13552e-14
5.25627e-14
5.35636e-14
5.47459e-14
5.60846e-14
5.71269e-14
5.82543e-14
5.93379e-14
6.04021e-14
6.14988e-14
6.25968e-14
6.36774e-14
6.48296e-14
6.60047e-14
6.73444e-14
6.81899e-14
6.89661e-14
7.00158e-14
7.07344e-14
7.12655e-14
7.2268e-14
7.32492e-14
7.39135e-14
7.47359e-14
7.53715e-14
7.58176e-14
7.64319e-14
7.67879e-14
7.73793e-14
7.82255e-14
7.83658e-14
7.90153e-14
7.96568e-14
7.99075e-14
8.05901e-14
8.0752e-14
8.13584e-14
8.18626e-14
8.19389e-14
8.20547e-14
8.27749e-14
8.30548e-14
8.33513e-14
8.3497e-14
8.36039e-14
8.43165e-14
8.44379e-14
8.46207e-14
8.51861e-14
8.59022e-14
8.58621e-14
8.59422e-14
8.62793e-14
8.67378e-14
8.73076e-14
8.78261e-14
8.78757e-14
8.79302e-14
8.83704e-14
8.83617e-14
8.86453e-14
8.89841e-14
8.91234e-14
8.97829e-14
9.03731e-14
9.01427e-14
9.07466e-14
9.13732e-14
9.12335e-14
9.16507e-14
9.23536e-14
9.30218e-14
9.33464e-14
9.37416e-14
9.46136e-14
9.52257e-14
9.55939e-14
9.6442e-14
9.67465e-14
9.70595e-14
9.78153e-14
9.80038e-14
9.7774e-14
9.8572e-14
9.87952e-14
9.90752e-14
9.98846e-14
1.00315e-13
1.00412e-13
1.00981e-13
1.00787e-13
1.0038e-13
1.00967e-13
1.01014e-13
1.00819e-13
1.01478e-13
1.01349e-13
1.01006e-13
1.01344e-13
1.00889e-13
1.00332e-13
1.00462e-13
1.00579e-13
9.9872e-14
9.98292e-14
9.96862e-14
9.9314e-14
9.88909e-14
9.88119e-14
9.87334e-14
9.8433e-14
9.84524e-14
9.83259e-14
9.83185e-14
9.8008e-14
9.79997e-14
9.74647e-14
9.70691e-14
9.70865e-14
9.65809e-14
9.64886e-14
9.61454e-14
9.55092e-14
9.51139e-14
9.46801e-14
9.38358e-14
9.38515e-14
9.35073e-14
9.2792e-14
9.32217e-14
9.26454e-14
9.23975e-14
9.21864e-14
9.15223e-14
9.14392e-14
9.13569e-14
9.07984e-14
9.07645e-14
9.09454e-14
9.03451e-14
9.01451e-14
9.0207e-14
8.94667e-14
8.92809e-14
8.92646e-14
8.90546e-14
8.92134e-14
8.89635e-14
8.89171e-14
8.83974e-14
8.78877e-14
8.82505e-14
8.80855e-14
8.7928e-14
8.82808e-14
8.83358e-14
8.81664e-14
8.86838e-14
8.8401e-14
8.81894e-14
8.84437e-14
8.85721e-14
8.87552e-14
8.87653e-14
8.84534e-14
8.86804e-14
8.88416e-14
8.8331e-14
8.86478e-14
8.89983e-14
8.89429e-14
8.90695e-14
8.93556e-14
8.92982e-14
8.90913e-14
8.88564e-14
8.90235e-14
8.91743e-14
8.90208e-14
8.92143e-14
8.93238e-14
8.93953e-14
8.94977e-14
8.9248e-14
8.91768e-14
8.93297e-14
8.95209e-14
8.98631e-14
8.97933e-14
8.97034e-14
8.99965e-14
9.01116e-14
9.03533e-14
9.06194e-14
9.07025e-14
9.09016e-14
9.09905e-14
9.13263e-14
9.15137e-14
9.18216e-14
9.14397e-14
9.19855e-14
9.30095e-14
9.28742e-14
9.31375e-14
9.34764e-14
9.36029e-14
9.34394e-14
9.36374e-14
9.373e-14
9.36244e-14
9.40406e-14
9.40454e-14
9.41118e-14
9.44368e-14
9.41986e-14
9.3417e-14
9.41688e-14
9.43766e-14
9.40927e-14
9.438e-14
9.38878e-14
9.37822e-14
9.4029e-14
9.41843e-14
9.3791e-14
9.38188e-14
9.38182e-14
9.34052e-14
9.36981e-14
9.39486e-14
9.36207e-14
9.35789e-14
9.34384e-14
9.34643e-14
9.36817e-14
9.3258e-14
9.31742e-14
9.3094e-14
9.3215e-14
9.30787e-14
9.27969e-14
9.29881e-14
9.31766e-14
9.30262e-14
9.29532e-14
9.31708e-14
9.28979e-14
9.34529e-14
9.36703e-14
9.35681e-14
9.35665e-14
9.37637e-14
9.36399e-14
9.34341e-14
9.38179e-14
9.39473e-14
9.39046e-14
9.35329e-14
9.31085e-14
9.27158e-14
9.29206e-14
9.27918e-14
9.2608e-14
9.273e-14
9.23385e-14
9.25924e-14
9.2866e-14
9.23649e-14
9.22069e-14
9.23734e-14
9.12652e-14
9.08843e-14
9.16218e-14
9.09232e-14
9.00472e-14
8.95595e-14
8.91172e-14
8.83577e-14
8.76941e-14
8.62001e-14
8.47403e-14
8.38056e-14
8.27575e-14
8.08072e-14
7.85575e-14
7.68494e-14
7.39167e-14
7.01902e-14
6.69895e-14
6.68252e-14
6.82146e-14
6.98985e-14
7.12582e-14
7.2657e-14
7.39063e-14
7.48785e-14
7.54542e-14
7.58869e-14
7.66209e-14
7.71086e-14
7.75356e-14
7.76013e-14
7.76713e-14
7.78338e-14
7.80136e-14
7.83004e-14
7.81417e-14
7.78581e-14
7.7678e-14
7.71164e-14
7.66274e-14
7.6439e-14
7.61054e-14
7.5705e-14
7.5405e-14
7.47255e-14
7.39944e-14
7.3485e-14
7.28483e-14
7.19046e-14
7.11686e-14
7.05583e-14
6.95995e-14
6.87209e-14
6.76003e-14
6.68018e-14
6.602e-14
6.49871e-14
6.4397e-14
6.37485e-14
6.2715e-14
6.16712e-14
6.06555e-14
5.97693e-14
5.86323e-14
5.74323e-14
5.64583e-14
5.53826e-14
5.41058e-14
5.30986e-14
5.21129e-14
5.11516e-14
5.01099e-14
4.89956e-14
4.8254e-14
4.73138e-14
4.64958e-14
4.57314e-14
4.47261e-14
4.38474e-14
4.28274e-14
4.17142e-14
4.07645e-14
3.96046e-14
3.86691e-14
3.75789e-14
3.66025e-14
3.57408e-14
3.4772e-14
3.3751e-14
3.28511e-14
3.20029e-14
3.07361e-14
2.97402e-14
2.91475e-14
2.81284e-14
2.70926e-14
2.61413e-14
2.49626e-14
2.38786e-14
2.2845e-14
2.20148e-14
2.10529e-14
2.02614e-14
1.93998e-14
1.84404e-14
1.76554e-14
1.68656e-14
1.58945e-14
1.49387e-14
1.42132e-14
1.3407e-14
1.26702e-14
1.16661e-14
1.07668e-14
1.03196e-14
9.83117e-15
8.89025e-15
8.03955e-15
7.60114e-15
6.92222e-15
6.48194e-15
5.98406e-15
5.51477e-15
4.98001e-15
4.94311e-15
4.68972e-15
4.3745e-15
4.17368e-15
4.14449e-15
4.18676e-15
3.93816e-15
3.8404e-15
3.59683e-15
3.23931e-15
3.17126e-15
2.88299e-15
2.44312e-15
2.07649e-15
2.06174e-15
1.96864e-15
1.84987e-15
1.53199e-15
1.32094e-15
1.09253e-15
7.9652e-16
7.9336e-16
6.77063e-16
4.3001e-16
4.27837e-16
6.31982e-16
7.63678e-16
3.91671e-16
4.92567e-16
5.4651e-16
3.4451e-16
5.7449e-16
5.984e-16
7.75055e-16
1.30755e-15
1.17202e-15
7.95687e-16
8.18693e-16
1.12772e-15
1.32354e-15
1.69591e-15
2.02725e-15
2.17316e-15
2.74759e-15
3.08827e-15
3.37108e-15
3.81711e-15
4.17641e-15
4.39493e-15
4.65037e-15
4.97783e-15
5.24573e-15
5.49884e-15
5.66811e-15
5.89268e-15
6.54428e-15
7.14684e-15
7.71452e-15
8.15349e-15
8.46949e-15
8.71538e-15
9.44386e-15
1.00881e-14
1.10286e-14
1.18903e-14
1.25406e-14
1.32446e-14
1.4265e-14
1.49136e-14
1.57758e-14
1.67442e-14
1.77142e-14
1.8993e-14
1.9808e-14
2.07072e-14
2.19229e-14
2.28073e-14
2.3973e-14
2.5431e-14
2.65137e-14
2.77506e-14
2.89511e-14
2.98746e-14
3.09139e-14
3.21047e-14
3.30086e-14
3.37288e-14
3.46683e-14
3.55196e-14
3.66447e-14
3.75807e-14
3.85106e-14
3.9967e-14
4.12566e-14
4.18475e-14
4.27642e-14
4.36241e-14
4.40873e-14
4.50148e-14
4.63196e-14
4.70972e-14
4.81836e-14
4.93269e-14
5.01805e-14
5.13183e-14
5.24833e-14
5.35703e-14
5.48218e-14
5.58649e-14
5.71254e-14
5.82234e-14
5.94214e-14
6.05928e-14
6.14755e-14
6.25289e-14
6.3728e-14
6.48516e-14
6.60529e-14
6.73955e-14
6.81048e-14
6.90856e-14
6.99867e-14
7.08526e-14
7.1195e-14
7.22214e-14
7.34072e-14
7.40281e-14
7.45782e-14
7.51893e-14
7.59869e-14
7.65817e-14
7.66698e-14
7.7292e-14
7.82842e-14
7.8321e-14
7.89832e-14
7.96138e-14
8.00856e-14
8.05389e-14
8.07887e-14
8.13942e-14
8.18373e-14
8.21244e-14
8.2199e-14
8.27325e-14
8.2959e-14
8.32953e-14
8.35229e-14
8.35548e-14
8.41577e-14
8.45558e-14
8.46986e-14
8.50828e-14
8.56898e-14
8.60585e-14
8.61312e-14
8.61226e-14
8.68238e-14
8.72394e-14
8.75593e-14
8.80562e-14
8.80511e-14
8.82174e-14
8.85049e-14
8.84324e-14
8.87445e-14
8.9483e-14
8.96737e-14
9.00725e-14
9.04841e-14
9.08142e-14
9.11292e-14
9.12583e-14
9.17473e-14
9.21855e-14
9.28469e-14
9.35242e-14
9.3811e-14
9.42887e-14
9.53219e-14
9.58982e-14
9.61095e-14
9.69733e-14
9.71806e-14
9.74953e-14
9.81281e-14
9.79054e-14
9.85272e-14
9.90286e-14
9.88241e-14
9.9726e-14
1.00631e-13
1.00291e-13
1.00751e-13
1.00979e-13
1.00474e-13
1.00818e-13
1.01277e-13
1.00733e-13
1.01292e-13
1.01678e-13
1.00913e-13
1.01352e-13
1.00998e-13
1.00227e-13
1.00375e-13
1.00618e-13
9.98298e-14
9.99695e-14
9.96695e-14
9.89873e-14
9.88147e-14
9.88292e-14
9.89796e-14
9.85486e-14
9.82698e-14
9.84592e-14
9.84324e-14
9.79263e-14
9.77161e-14
9.73358e-14
9.72232e-14
9.74034e-14
9.65832e-14
9.62824e-14
9.62572e-14
9.55742e-14
9.4922e-14
9.45805e-14
9.39988e-14
9.37947e-14
9.35235e-14
9.27909e-14
9.3303e-14
9.26773e-14
9.21608e-14
9.21973e-14
9.16162e-14
9.15163e-14
9.12654e-14
9.07634e-14
9.08214e-14
9.09777e-14
9.03028e-14
8.99251e-14
9.01991e-14
8.96669e-14
8.92741e-14
8.90386e-14
8.90092e-14
8.92102e-14
8.89639e-14
8.86571e-14
8.85252e-14
8.81125e-14
8.81387e-14
8.80014e-14
8.80823e-14
8.82941e-14
8.82915e-14
8.79995e-14
8.86796e-14
8.8597e-14
8.80771e-14
8.83386e-14
8.8536e-14
8.89316e-14
8.88912e-14
8.85247e-14
8.8367e-14
8.89023e-14
8.86146e-14
8.8557e-14
8.87209e-14
8.89298e-14
8.92353e-14
8.93655e-14
8.93148e-14
8.88957e-14
8.9007e-14
8.91536e-14
8.89912e-14
8.89012e-14
8.95183e-14
8.91497e-14
8.9035e-14
8.98381e-14
8.95045e-14
8.91918e-14
8.92213e-14
8.91599e-14
8.9741e-14
9.00222e-14
8.97573e-14
9.00628e-14
9.01753e-14
9.02625e-14
9.05526e-14
9.04898e-14
9.10867e-14
9.10565e-14
9.10772e-14
9.15221e-14
9.19198e-14
9.16993e-14
9.18128e-14
9.2998e-14
9.27761e-14
9.31988e-14
9.34573e-14
9.35002e-14
9.35915e-14
9.38702e-14
9.37354e-14
9.3211e-14
9.40382e-14
9.4469e-14
9.43205e-14
9.39745e-14
9.42423e-14
9.3741e-14
9.40197e-14
9.43696e-14
9.41269e-14
9.43149e-14
9.41817e-14
9.37294e-14
9.35138e-14
9.42884e-14
9.44419e-14
9.3804e-14
9.35371e-14
9.32007e-14
9.38544e-14
9.40227e-14
9.33833e-14
9.32207e-14
9.35284e-14
9.3898e-14
9.34811e-14
9.30451e-14
9.34374e-14