/*--------------------------------*- C++ -*----------------------------------*\
| =========                 |                                                 |
| \\      /  F ield         | OpenFOAM: The Open Source CFD Toolbox           |
|  \\    /   O peration     | Version:  2112                                  |
|   \\  /    A nd           | Website:  www.openfoam.com                      |
|    \\/     M anipulation  |                                                 |
\*---------------------------------------------------------------------------*/
FoamFile
{
    version     2.0;
    format      ascii;
    arch        "LSB;label=32;scalar=64";
    class       volScalarField;
    location    "7";
    object      p;
}
// * * * * * * * * * * * * * * * * * * * * * * * * * * * * * * * * * * * * * //

dimensions      [0 2 -2 0 0 0 0];

internalField   nonuniform List<scalar> 
25600
(
-2.74225e-15
-3.79897e-15
-4.64335e-15
-5.4677e-15
-6.20374e-15
-6.92046e-15
-7.40846e-15
-8.00239e-15
-8.43784e-15
-8.83416e-15
-9.31982e-15
-9.72932e-15
-1.04424e-14
-1.10773e-14
-1.15662e-14
-1.21102e-14
-1.25469e-14
-1.28761e-14
-1.33739e-14
-1.40228e-14
-1.47118e-14
-1.52875e-14
-1.59897e-14
-1.66251e-14
-1.70176e-14
-1.75908e-14
-1.80541e-14
-1.81982e-14
-1.84873e-14
-1.90375e-14
-1.95855e-14
-1.99504e-14
-1.99498e-14
-2.00979e-14
-2.03839e-14
-2.05463e-14
-2.09565e-14
-2.09328e-14
-2.10774e-14
-2.15661e-14
-2.1626e-14
-2.18892e-14
-2.22881e-14
-2.26216e-14
-2.32766e-14
-2.35781e-14
-2.40949e-14
-2.45461e-14
-2.50472e-14
-2.55744e-14
-2.58886e-14
-2.67046e-14
-2.73595e-14
-2.80844e-14
-2.8993e-14
-2.92373e-14
-2.98844e-14
-3.05726e-14
-3.13555e-14
-3.22712e-14
-3.24946e-14
-3.36435e-14
-3.42908e-14
-3.50513e-14
-3.62639e-14
-3.66448e-14
-3.76654e-14
-3.86082e-14
-3.93869e-14
-3.99894e-14
-4.01235e-14
-4.05749e-14
-4.10433e-14
-4.16799e-14
-4.24936e-14
-4.24482e-14
-4.28423e-14
-4.3957e-14
-4.4453e-14
-4.50031e-14
-4.5023e-14
-4.51298e-14
-4.6062e-14
-4.65695e-14
-4.7104e-14
-4.72764e-14
-4.75517e-14
-4.82102e-14
-4.91115e-14
-5.01273e-14
-5.02805e-14
-5.05592e-14
-5.1559e-14
-5.2595e-14
-5.28884e-14
-5.30735e-14
-5.41624e-14
-5.50219e-14
-5.61387e-14
-5.68193e-14
-5.70285e-14
-5.81217e-14
-5.86891e-14
-5.9851e-14
-6.09083e-14
-6.13762e-14
-6.18038e-14
-6.29055e-14
-6.41109e-14
-6.46149e-14
-6.49736e-14
-6.46224e-14
-6.63028e-14
-6.75921e-14
-6.75788e-14
-6.77804e-14
-6.78833e-14
-6.8977e-14
-7.01831e-14
-7.01654e-14
-6.99214e-14
-6.99589e-14
-7.10234e-14
-7.24154e-14
-7.25421e-14
-7.2175e-14
-7.23548e-14
-7.38205e-14
-7.51485e-14
-7.50069e-14
-7.4637e-14
-7.4775e-14
-7.58965e-14
-7.66687e-14
-7.64218e-14
-7.64607e-14
-7.63343e-14
-7.69183e-14
-7.76492e-14
-7.71455e-14
-7.64964e-14
-7.6065e-14
-7.64058e-14
-7.64729e-14
-7.57926e-14
-7.52609e-14
-7.44042e-14
-7.43329e-14
-7.39156e-14
-7.34374e-14
-7.3043e-14
-7.14612e-14
-7.09756e-14
-7.11923e-14
-7.07112e-14
-7.00127e-14
-6.8731e-14
-6.82151e-14
-6.84187e-14
-6.8193e-14
-6.79695e-14
-6.63529e-14
-6.60597e-14
-6.63125e-14
-6.48593e-14
-6.49083e-14
-6.40361e-14
-6.34944e-14
-6.39658e-14
-6.33586e-14
-6.27959e-14
-6.1678e-14
-6.18419e-14
-6.20042e-14
-6.14723e-14
-6.13038e-14
-6.08518e-14
-6.14598e-14
-6.03505e-14
-5.98781e-14
-6.01258e-14
-5.82981e-14
-5.84197e-14
-5.84734e-14
-5.76984e-14
-5.79551e-14
-5.64711e-14
-5.6502e-14
-5.67682e-14
-5.52782e-14
-5.54391e-14
-5.47957e-14
-5.41544e-14
-5.46985e-14
-5.35222e-14
-5.30153e-14
-5.20482e-14
-5.17193e-14
-5.18832e-14
-4.99164e-14
-4.92523e-14
-4.82471e-14
-4.79003e-14
-4.75622e-14
-4.51052e-14
-4.36296e-14
-4.2834e-14
-4.29409e-14
-4.2129e-14
-4.02061e-14
-3.88513e-14
-3.80698e-14
-3.89068e-14
-3.64486e-14
-3.38857e-14
-3.49945e-14
-3.28726e-14
-3.09438e-14
-3.0027e-14
-2.89914e-14
-3.02804e-14
-2.8306e-14
-2.58926e-14
-2.49689e-14
-2.40791e-14
-2.55889e-14
-2.358e-14
-2.18799e-14
-2.15279e-14
-1.98528e-14
-2.02944e-14
-1.84067e-14
-1.75046e-14
-1.71131e-14
-1.49838e-14
-1.54545e-14
-1.45272e-14
-1.38265e-14
-1.33635e-14
-1.16176e-14
-1.2817e-14
-1.16927e-14
-1.1297e-14
-1.12116e-14
-8.82525e-15
-9.98998e-15
-1.01287e-14
-9.68987e-15
-8.71266e-15
-7.13362e-15
-8.80609e-15
-7.67015e-15
-6.52921e-15
-6.34962e-15
-5.6194e-15
-7.6799e-15
-6.23136e-15
-5.47956e-15
-5.62813e-15
-3.88547e-15
-5.18633e-15
-4.73375e-15
-4.27007e-15
-4.2921e-15
-3.2732e-15
-4.51107e-15
-3.61043e-15
-2.59791e-15
-2.03605e-15
-1.10374e-15
-2.40196e-15
-1.89891e-15
-1.58104e-15
-1.16772e-15
-1.07676e-16
-1.17874e-15
-4.58233e-16
4.79263e-16
1.61929e-16
1.64522e-15
1.06547e-15
1.24517e-15
2.03019e-15
2.1827e-15
3.26696e-15
2.18023e-15
1.49137e-15
1.99514e-15
2.51691e-15
2.29326e-15
4.86125e-16
6.81264e-16
1.36358e-15
1.33623e-15
7.98163e-16
-7.21254e-16
-4.89714e-16
-3.837e-16
-1.85812e-16
-1.00084e-15
-2.62132e-15
-2.35407e-15
-2.37559e-15
-1.44541e-15
-1.75753e-15
-3.48518e-15
-3.70681e-15
-4.3069e-15
-3.45205e-15
-4.14384e-15
-4.49885e-15
-3.97331e-15
-5.28493e-15
-4.63366e-15
-4.29393e-15
-5.07279e-15
-4.39298e-15
-4.90079e-15
-3.85024e-15
-2.66934e-15
-3.4331e-15
-4.06808e-15
-4.90878e-15
-5.55663e-15
-6.19541e-15
-6.96685e-15
-7.43653e-15
-8.02664e-15
-8.41967e-15
-8.83162e-15
-9.32087e-15
-9.78199e-15
-1.03987e-14
-1.10586e-14
-1.15982e-14
-1.20456e-14
-1.24914e-14
-1.28578e-14
-1.34056e-14
-1.40222e-14
-1.46433e-14
-1.52413e-14
-1.59946e-14
-1.67016e-14
-1.70993e-14
-1.76326e-14
-1.79072e-14
-1.81581e-14
-1.85687e-14
-1.90771e-14
-1.95341e-14
-1.98969e-14
-1.99471e-14
-2.01321e-14
-2.04149e-14
-2.05337e-14
-2.09515e-14
-2.10084e-14
-2.11136e-14
-2.14571e-14
-2.16597e-14
-2.18567e-14
-2.23015e-14
-2.27066e-14
-2.31775e-14
-2.36308e-14
-2.40582e-14
-2.45079e-14
-2.50259e-14
-2.55752e-14
-2.6036e-14
-2.65673e-14
-2.72933e-14
-2.80451e-14
-2.88478e-14
-2.93598e-14
-2.98993e-14
-3.06033e-14
-3.13232e-14
-3.21809e-14
-3.26116e-14
-3.36437e-14
-3.4282e-14
-3.50166e-14
-3.62194e-14
-3.67091e-14
-3.76925e-14
-3.86517e-14
-3.93804e-14
-3.99163e-14
-4.01433e-14
-4.06524e-14
-4.1051e-14
-4.17282e-14
-4.23492e-14
-4.25437e-14
-4.30081e-14
-4.38445e-14
-4.44579e-14
-4.48982e-14
-4.51023e-14
-4.53674e-14
-4.60544e-14
-4.64606e-14
-4.69599e-14
-4.73009e-14
-4.78529e-14
-4.83298e-14
-4.88655e-14
-4.98713e-14
-5.03463e-14
-5.08477e-14
-5.16035e-14
-5.23222e-14
-5.28631e-14
-5.33924e-14
-5.42094e-14
-5.49969e-14
-5.58015e-14
-5.67108e-14
-5.74299e-14
-5.80871e-14
-5.87361e-14
-5.96731e-14
-6.08316e-14
-6.15167e-14
-6.19012e-14
-6.27752e-14
-6.3971e-14
-6.46956e-14
-6.49296e-14
-6.49896e-14
-6.61752e-14
-6.71797e-14
-6.76074e-14
-6.79976e-14
-6.8125e-14
-6.8815e-14
-7.00095e-14
-7.01908e-14
-6.99672e-14
-7.02062e-14
-7.10238e-14
-7.20927e-14
-7.24509e-14
-7.23347e-14
-7.25378e-14
-7.38194e-14
-7.48688e-14
-7.49788e-14
-7.47978e-14
-7.48905e-14
-7.57423e-14
-7.65381e-14
-7.65479e-14
-7.64514e-14
-7.6417e-14
-7.6899e-14
-7.75603e-14
-7.72062e-14
-7.64746e-14
-7.61327e-14
-7.64068e-14
-7.64002e-14
-7.58366e-14
-7.51769e-14
-7.45698e-14
-7.45007e-14
-7.38867e-14
-7.32461e-14
-7.27891e-14
-7.1785e-14
-7.13014e-14
-7.10446e-14
-7.05295e-14
-6.98502e-14
-6.88708e-14
-6.83894e-14
-6.83259e-14
-6.81193e-14
-6.77126e-14
-6.66016e-14
-6.61381e-14
-6.61259e-14
-6.50776e-14
-6.4766e-14
-6.41749e-14
-6.37724e-14
-6.36784e-14
-6.32902e-14
-6.26319e-14
-6.19353e-14
-6.18521e-14
-6.20418e-14
-6.17156e-14
-6.1115e-14
-6.0885e-14
-6.10604e-14
-6.04989e-14
-6.02629e-14
-5.96498e-14
-5.85399e-14
-5.84628e-14
-5.84654e-14
-5.78467e-14
-5.74048e-14
-5.66748e-14
-5.64922e-14
-5.65492e-14
-5.57625e-14
-5.52597e-14
-5.48319e-14
-5.43055e-14
-5.42403e-14
-5.37122e-14
-5.30952e-14
-5.23459e-14
-5.16267e-14
-5.11473e-14
-5.03884e-14
-4.9328e-14
-4.85005e-14
-4.78286e-14
-4.67939e-14
-4.54311e-14
-4.41521e-14
-4.29963e-14
-4.24705e-14
-4.15354e-14
-4.05156e-14
-3.95047e-14
-3.82897e-14
-3.80975e-14
-3.64479e-14
-3.45913e-14
-3.42854e-14
-3.25598e-14
-3.15231e-14
-3.04578e-14
-2.91746e-14
-2.94372e-14
-2.79382e-14
-2.64412e-14
-2.53639e-14
-2.4258e-14
-2.48166e-14
-2.34433e-14
-2.21012e-14
-2.15065e-14
-2.02536e-14
-2.00025e-14
-1.84869e-14
-1.7613e-14
-1.69531e-14
-1.53221e-14
-1.51208e-14
-1.43456e-14
-1.40454e-14
-1.34407e-14
-1.19536e-14
-1.24274e-14
-1.16695e-14
-1.13812e-14
-1.10786e-14
-9.34526e-15
-1.00958e-14
-9.77628e-15
-9.30167e-15
-8.75712e-15
-7.64454e-15
-8.61662e-15
-7.57709e-15
-6.56126e-15
-6.21475e-15
-6.05616e-15
-7.4479e-15
-6.10542e-15
-5.44987e-15
-5.44206e-15
-4.36547e-15
-4.97294e-15
-4.50636e-15
-4.33848e-15
-4.29175e-15
-3.63541e-15
-4.2333e-15
-3.25902e-15
-2.72414e-15
-2.26837e-15
-1.36346e-15
-2.18945e-15
-1.72897e-15
-1.64722e-15
-1.21905e-15
-2.11717e-16
-1.05354e-15
-3.43916e-16
1.64906e-16
3.33376e-16
1.71168e-15
1.07598e-15
1.47498e-15
1.83576e-15
2.12505e-15
3.07235e-15
2.10036e-15
1.90786e-15
2.19302e-15
2.1862e-15
2.00765e-15
7.21782e-16
9.77582e-16
1.34289e-15
8.13199e-16
8.4227e-16
-2.14891e-16
-6.36916e-16
-2.48374e-16
-7.05269e-16
-9.98526e-16
-2.09408e-15
-2.42549e-15
-2.18497e-15
-1.79943e-15
-2.12688e-15
-3.55659e-15
-3.57967e-15
-3.76337e-15
-3.68537e-15
-4.18814e-15
-4.5591e-15
-4.13542e-15
-4.80393e-15
-4.91696e-15
-4.55428e-15
-4.70253e-15
-4.45268e-15
-4.89549e-15
-4.24841e-15
-3.23501e-15
-3.99092e-15
-4.46295e-15
-5.1098e-15
-5.60588e-15
-6.26151e-15
-6.97772e-15
-7.4486e-15
-8.00866e-15
-8.38428e-15
-8.83433e-15
-9.29963e-15
-9.76888e-15
-1.03987e-14
-1.10511e-14
-1.15924e-14
-1.2051e-14
-1.23951e-14
-1.27985e-14
-1.34022e-14
-1.39848e-14
-1.45333e-14
-1.52138e-14
-1.60564e-14
-1.67224e-14
-1.71905e-14
-1.76265e-14
-1.78336e-14
-1.81194e-14
-1.86247e-14
-1.91234e-14
-1.9588e-14
-1.97583e-14
-1.98991e-14
-2.01838e-14
-2.05138e-14
-2.05663e-14
-2.09223e-14
-2.10174e-14
-2.10915e-14
-2.13489e-14
-2.16637e-14
-2.18386e-14
-2.2293e-14
-2.27916e-14
-2.3166e-14
-2.35851e-14
-2.40506e-14
-2.44093e-14
-2.49857e-14
-2.55832e-14
-2.60441e-14
-2.6482e-14
-2.72511e-14
-2.80545e-14
-2.87561e-14
-2.93764e-14
-2.99684e-14
-3.06016e-14
-3.12796e-14
-3.21986e-14
-3.26711e-14
-3.35826e-14
-3.42664e-14
-3.50498e-14
-3.61452e-14
-3.67556e-14
-3.77585e-14
-3.86673e-14
-3.94026e-14
-3.99113e-14
-4.01969e-14
-4.06874e-14
-4.10888e-14
-4.17441e-14
-4.22202e-14
-4.26302e-14
-4.31757e-14
-4.37173e-14
-4.44295e-14
-4.48869e-14
-4.51278e-14
-4.55327e-14
-4.60788e-14
-4.64305e-14
-4.68625e-14
-4.72737e-14
-4.79805e-14
-4.84379e-14
-4.88262e-14
-4.96891e-14
-5.03892e-14
-5.09818e-14
-5.15688e-14
-5.22186e-14
-5.29576e-14
-5.34948e-14
-5.42987e-14
-5.49094e-14
-5.56586e-14
-5.66724e-14
-5.7593e-14
-5.81228e-14
-5.8735e-14
-5.96476e-14
-6.07595e-14
-6.15993e-14
-6.20171e-14
-6.27807e-14
-6.38424e-14
-6.467e-14
-6.49432e-14
-6.52503e-14
-6.60746e-14
-6.68787e-14
-6.76227e-14
-6.81303e-14
-6.83275e-14
-6.87857e-14
-6.97773e-14
-7.01943e-14
-7.01063e-14
-7.03718e-14
-7.09853e-14
-7.17945e-14
-7.23091e-14
-7.24478e-14
-7.28574e-14
-7.37628e-14
-7.46165e-14
-7.49145e-14
-7.49338e-14
-7.51003e-14
-7.5564e-14
-7.63134e-14
-7.66252e-14
-7.6564e-14
-7.64888e-14
-7.69167e-14
-7.74973e-14
-7.7226e-14
-7.64873e-14
-7.62084e-14
-7.64168e-14
-7.63285e-14
-7.5843e-14
-7.52822e-14
-7.47e-14
-7.44769e-14
-7.392e-14
-7.3167e-14
-7.25984e-14
-7.20268e-14
-7.1526e-14
-7.09223e-14
-7.04067e-14
-6.97125e-14
-6.88914e-14
-6.85073e-14
-6.83132e-14
-6.80538e-14
-6.75739e-14
-6.68163e-14
-6.62669e-14
-6.59817e-14
-6.5173e-14
-6.47158e-14
-6.42407e-14
-6.39472e-14
-6.34751e-14
-6.31374e-14
-6.26852e-14
-6.20154e-14
-6.1888e-14
-6.20373e-14
-6.17256e-14
-6.13036e-14
-6.09709e-14
-6.06365e-14
-6.05119e-14
-6.03884e-14
-5.95732e-14
-5.88036e-14
-5.84992e-14
-5.83401e-14
-5.77824e-14
-5.71054e-14
-5.67791e-14
-5.6553e-14
-5.64504e-14
-5.59455e-14
-5.51908e-14
-5.48178e-14
-5.4341e-14
-5.40492e-14
-5.37442e-14
-5.3181e-14
-5.24634e-14
-5.15803e-14
-5.09132e-14
-5.06232e-14
-4.94282e-14
-4.85962e-14
-4.77439e-14
-4.64405e-14
-4.55363e-14
-4.44285e-14
-4.30611e-14
-4.22548e-14
-4.1238e-14
-4.05604e-14
-3.98891e-14
-3.84263e-14
-3.7626e-14
-3.64983e-14
-3.49995e-14
-3.38824e-14
-3.24288e-14
-3.18257e-14
-3.07003e-14
-2.92946e-14
-2.88596e-14
-2.76851e-14
-2.67887e-14
-2.55374e-14
-2.4382e-14
-2.42957e-14
-2.33561e-14
-2.22754e-14
-2.1573e-14
-2.04584e-14
-1.97415e-14
-1.84623e-14
-1.76037e-14
-1.68597e-14
-1.56416e-14
-1.50175e-14
-1.4234e-14
-1.40039e-14
-1.33151e-14
-1.22265e-14
-1.24102e-14
-1.17377e-14
-1.13215e-14
-1.09146e-14
-9.81391e-15
-1.01533e-14
-9.47024e-15
-9.06229e-15
-8.8284e-15
-8.01965e-15
-8.26081e-15
-7.43164e-15
-6.70722e-15
-6.31672e-15
-6.37075e-15
-7.0759e-15
-5.98415e-15
-5.53942e-15
-5.34278e-15
-4.61488e-15
-4.61418e-15
-4.291e-15
-4.62622e-15
-4.42502e-15
-3.79181e-15
-3.91108e-15
-3.064e-15
-2.80224e-15
-2.42611e-15
-1.57016e-15
-2.0619e-15
-1.69076e-15
-1.55105e-15
-1.26522e-15
-3.88449e-16
-9.42622e-16
-2.52923e-16
1.88395e-17
4.1551e-16
1.69496e-15
1.0865e-15
1.67727e-15
1.84246e-15
2.00721e-15
2.92022e-15
2.16142e-15
2.13152e-15
2.35013e-15
1.89925e-15
1.86549e-15
9.601e-16
1.0904e-15
1.15746e-15
6.85602e-16
1.03042e-15
1.76267e-17
-7.15482e-16
-2.94238e-16
-8.87634e-16
-1.02256e-15
-1.71285e-15
-2.28902e-15
-2.15261e-15
-2.15881e-15
-2.46351e-15
-3.61694e-15
-3.37275e-15
-3.42173e-15
-3.90305e-15
-4.11324e-15
-4.72391e-15
-4.14471e-15
-4.41672e-15
-5.14943e-15
-4.6755e-15
-4.57169e-15
-4.54972e-15
-4.84925e-15
-4.54954e-15
-3.88694e-15
-4.39986e-15
-4.73458e-15
-5.17906e-15
-5.76314e-15
-6.40464e-15
-6.96129e-15
-7.44004e-15
-7.974e-15
-8.31972e-15
-8.95485e-15
-9.30283e-15
-9.65649e-15
-1.04049e-14
-1.10613e-14
-1.16162e-14
-1.20726e-14
-1.23196e-14
-1.26943e-14
-1.3352e-14
-1.39616e-14
-1.44045e-14
-1.52336e-14
-1.60494e-14
-1.67417e-14
-1.72571e-14
-1.75934e-14
-1.78295e-14
-1.81187e-14
-1.87187e-14
-1.91772e-14
-1.96167e-14
-1.97803e-14
-1.99057e-14
-2.01571e-14
-2.04274e-14
-2.06367e-14
-2.09052e-14
-2.09705e-14
-2.10869e-14
-2.13538e-14
-2.15619e-14
-2.17959e-14
-2.2359e-14
-2.29539e-14
-2.3132e-14
-2.34985e-14
-2.40163e-14
-2.44108e-14
-2.49547e-14
-2.55406e-14
-2.59691e-14
-2.63509e-14
-2.7321e-14
-2.80617e-14
-2.88451e-14
-2.94281e-14
-2.98301e-14
-3.05934e-14
-3.13572e-14
-3.2221e-14
-3.26564e-14
-3.36212e-14
-3.42682e-14
-3.50208e-14
-3.62037e-14
-3.6723e-14
-3.76251e-14
-3.86429e-14
-3.95185e-14
-3.99193e-14
-4.03271e-14
-4.0682e-14
-4.11667e-14
-4.17884e-14
-4.21689e-14
-4.26892e-14
-4.31376e-14
-4.37017e-14
-4.45506e-14
-4.48133e-14
-4.52181e-14
-4.56486e-14
-4.59783e-14
-4.64149e-14
-4.69641e-14
-4.72045e-14
-4.78959e-14
-4.84469e-14
-4.89799e-14
-4.96892e-14
-5.04116e-14
-5.10145e-14
-5.15242e-14
-5.22368e-14
-5.30158e-14
-5.34843e-14
-5.42623e-14
-5.484e-14
-5.57322e-14
-5.66541e-14
-5.75e-14
-5.82136e-14
-5.87822e-14
-5.96187e-14
-6.07393e-14
-6.16406e-14
-6.20457e-14
-6.29524e-14
-6.37169e-14
-6.45209e-14
-6.49752e-14
-6.53255e-14
-6.61008e-14
-6.67355e-14
-6.74957e-14
-6.81824e-14
-6.86255e-14
-6.89317e-14
-6.95001e-14
-6.99709e-14
-7.0289e-14
-7.05885e-14
-7.08575e-14
-7.15754e-14
-7.2281e-14
-7.24435e-14
-7.30436e-14
-7.37088e-14
-7.4573e-14
-7.49245e-14
-7.5036e-14
-7.51388e-14
-7.5443e-14
-7.61533e-14
-7.66451e-14
-7.67477e-14
-7.6639e-14
-7.69465e-14
-7.73282e-14
-7.71917e-14
-7.66535e-14
-7.64594e-14
-7.63016e-14
-7.62515e-14
-7.58998e-14
-7.54675e-14
-7.48678e-14
-7.43016e-14
-7.38171e-14
-7.32796e-14
-7.26185e-14
-7.20902e-14
-7.14086e-14
-7.08659e-14
-7.04588e-14
-6.95708e-14
-6.88309e-14
-6.85849e-14
-6.82678e-14
-6.79782e-14
-6.7684e-14
-6.7002e-14
-6.63748e-14
-6.58236e-14
-6.50878e-14
-6.4732e-14
-6.42174e-14
-6.39101e-14
-6.3634e-14
-6.31056e-14
-6.26573e-14
-6.18833e-14
-6.19745e-14
-6.20066e-14
-6.14672e-14
-6.15513e-14
-6.11271e-14
-6.06375e-14
-6.04441e-14
-6.02626e-14
-5.97608e-14
-5.89645e-14
-5.8389e-14
-5.81393e-14
-5.77804e-14
-5.70418e-14
-5.67662e-14
-5.66773e-14
-5.64943e-14
-5.58364e-14
-5.52231e-14
-5.48886e-14
-5.43071e-14
-5.39205e-14
-5.36195e-14
-5.33137e-14
-5.25357e-14
-5.14908e-14
-5.10654e-14
-5.06783e-14
-4.94569e-14
-4.86942e-14
-4.77082e-14
-4.65015e-14
-4.5585e-14
-4.43263e-14
-4.30216e-14
-4.22867e-14
-4.12854e-14
-4.04234e-14
-3.97226e-14
-3.85067e-14
-3.75673e-14
-3.66019e-14
-3.51572e-14
-3.38837e-14
-3.24891e-14
-3.16105e-14
-3.07289e-14
-2.92742e-14
-2.8661e-14
-2.76906e-14
-2.68541e-14
-2.55842e-14
-2.4527e-14
-2.39668e-14
-2.33084e-14
-2.26368e-14
-2.16025e-14
-2.01571e-14
-1.93682e-14
-1.8502e-14
-1.76319e-14
-1.69319e-14
-1.60087e-14
-1.51473e-14
-1.40517e-14
-1.33942e-14
-1.3262e-14
-1.24671e-14
-1.22175e-14
-1.1913e-14
-1.15705e-14
-1.08991e-14
-9.96206e-15
-9.98662e-15
-9.3088e-15
-9.10049e-15
-8.88499e-15
-8.11754e-15
-8.07929e-15
-7.34589e-15
-6.64304e-15
-6.45658e-15
-6.50299e-15
-6.70077e-15
-6.00508e-15
-5.59893e-15
-5.34232e-15
-4.82765e-15
-4.32503e-15
-4.38726e-15
-4.72829e-15
-4.38091e-15
-3.68956e-15
-3.73074e-15
-3.26069e-15
-2.60436e-15
-2.31865e-15
-1.90479e-15
-2.12106e-15
-1.69868e-15
-1.24318e-15
-1.19554e-15
-8.51102e-16
-6.1153e-16
-2.76691e-16
3.11038e-17
5.62743e-16
1.23229e-15
1.33355e-15
1.75686e-15
1.85581e-15
2.21509e-15
2.4972e-15
2.56102e-15
2.32424e-15
2.05783e-15
1.72774e-15
1.82952e-15
1.40914e-15
1.16481e-15
8.56034e-16
6.73147e-16
1.0063e-15
3.80218e-16
-5.65602e-16
-6.22059e-16
-8.7664e-16
-1.06402e-15
-1.38407e-15
-2.2846e-15
-2.28613e-15
-2.0693e-15
-2.66478e-15
-3.21524e-15
-3.40455e-15
-3.62241e-15
-3.89712e-15
-4.19658e-15
-4.63342e-15
-4.09555e-15
-4.34278e-15
-5.0502e-15
-4.98834e-15
-4.72729e-15
-4.51411e-15
-4.68082e-15
-4.78397e-15
-4.51783e-15
-4.69569e-15
-4.95424e-15
-5.51416e-15
-5.82344e-15
-6.45378e-15
-7.00695e-15
-7.36016e-15
-7.9162e-15
-8.33982e-15
-9.03536e-15
-9.26826e-15
-9.61224e-15
-1.03634e-14
-1.10381e-14
-1.17673e-14
-1.19985e-14
-1.22228e-14
-1.26388e-14
-1.33049e-14
-1.38325e-14
-1.43268e-14
-1.52788e-14
-1.61494e-14
-1.67289e-14
-1.71949e-14
-1.75516e-14
-1.78255e-14
-1.81686e-14
-1.88615e-14
-1.93199e-14
-1.96494e-14
-1.98218e-14
-1.9902e-14
-2.02033e-14
-2.04388e-14
-2.0639e-14
-2.07758e-14
-2.09769e-14
-2.11219e-14
-2.14144e-14
-2.14346e-14
-2.16985e-14
-2.24915e-14
-2.3089e-14
-2.3101e-14
-2.34287e-14
-2.40116e-14
-2.43934e-14
-2.48913e-14
-2.55315e-14
-2.59323e-14
-2.62325e-14
-2.72637e-14
-2.80318e-14
-2.88691e-14
-2.94717e-14
-2.98562e-14
-3.05574e-14
-3.13716e-14
-3.22255e-14
-3.27358e-14
-3.35341e-14
-3.44162e-14
-3.48739e-14
-3.61453e-14
-3.68755e-14
-3.73565e-14
-3.86052e-14
-3.9587e-14
-3.99778e-14
-4.05066e-14
-4.07189e-14
-4.13221e-14
-4.17407e-14
-4.2156e-14
-4.28317e-14
-4.30594e-14
-4.38067e-14
-4.45836e-14
-4.47599e-14
-4.53188e-14
-4.56534e-14
-4.61468e-14
-4.65419e-14
-4.68369e-14
-4.72619e-14
-4.7904e-14
-4.8433e-14
-4.89756e-14
-4.98445e-14
-5.03994e-14
-5.10179e-14
-5.13388e-14
-5.2233e-14
-5.30877e-14
-5.36454e-14
-5.41619e-14
-5.47711e-14
-5.59287e-14
-5.65866e-14
-5.74513e-14
-5.82836e-14
-5.88642e-14
-5.96103e-14
-6.07182e-14
-6.15424e-14
-6.21683e-14
-6.31193e-14
-6.352e-14
-6.44237e-14
-6.49294e-14
-6.53429e-14
-6.61816e-14
-6.65832e-14
-6.74066e-14
-6.82123e-14
-6.89199e-14
-6.90376e-14
-6.93677e-14
-6.98418e-14
-7.04449e-14
-7.062e-14
-7.08145e-14
-7.12997e-14
-7.22154e-14
-7.25406e-14
-7.3032e-14
-7.37295e-14
-7.44516e-14
-7.49712e-14
-7.5139e-14
-7.50147e-14
-7.53294e-14
-7.61909e-14
-7.66464e-14
-7.68357e-14
-7.68459e-14
-7.70905e-14
-7.70684e-14
-7.70962e-14
-7.68235e-14
-7.68128e-14
-7.63521e-14
-7.60956e-14
-7.59646e-14
-7.55905e-14
-7.5123e-14
-7.4265e-14
-7.36465e-14
-7.31305e-14
-7.26221e-14
-7.2142e-14
-7.13446e-14
-7.07303e-14
-7.03178e-14
-6.96796e-14
-6.88915e-14
-6.85143e-14
-6.82438e-14
-6.79012e-14
-6.76628e-14
-6.72322e-14
-6.64148e-14
-6.57669e-14
-6.50984e-14
-6.45536e-14
-6.42229e-14
-6.38946e-14
-6.36939e-14
-6.31598e-14
-6.25548e-14
-6.19523e-14
-6.19879e-14
-6.18059e-14
-6.15376e-14
-6.15492e-14
-6.10058e-14
-6.08501e-14
-6.04523e-14
-6.01922e-14
-5.98062e-14
-5.91202e-14
-5.82321e-14
-5.79999e-14
-5.78363e-14
-5.70399e-14
-5.67237e-14
-5.67214e-14
-5.66126e-14
-5.57366e-14
-5.52155e-14
-5.49014e-14
-5.42435e-14
-5.3806e-14
-5.35082e-14
-5.34021e-14
-5.25332e-14
-5.15107e-14
-5.12964e-14
-5.07457e-14
-4.95275e-14
-4.87954e-14
-4.76725e-14
-4.64388e-14
-4.55116e-14
-4.42344e-14
-4.2986e-14
-4.22857e-14
-4.13739e-14
-4.02757e-14
-3.9566e-14
-3.85502e-14
-3.7636e-14
-3.6675e-14
-3.52403e-14
-3.38376e-14
-3.24208e-14
-3.12897e-14
-3.0742e-14
-2.93898e-14
-2.85257e-14
-2.75509e-14
-2.67769e-14
-2.56695e-14
-2.47495e-14
-2.37283e-14
-2.31676e-14
-2.29409e-14
-2.1532e-14
-1.99678e-14
-1.92209e-14
-1.85248e-14
-1.76808e-14
-1.69397e-14
-1.6162e-14
-1.52295e-14
-1.38582e-14
-1.28741e-14
-1.31132e-14
-1.25296e-14
-1.22133e-14
-1.2058e-14
-1.16432e-14
-1.08023e-14
-1.00355e-14
-9.82508e-15
-9.3425e-15
-9.1017e-15
-8.7249e-15
-8.37405e-15
-7.99186e-15
-7.18954e-15
-6.80906e-15
-6.48412e-15
-6.48361e-15
-6.27813e-15
-6.17618e-15
-5.72649e-15
-5.14972e-15
-4.92022e-15
-4.53696e-15
-4.4504e-15
-4.47889e-15
-4.20698e-15
-3.64983e-15
-3.61395e-15
-3.44597e-15
-2.38178e-15
-2.31975e-15
-2.28896e-15
-1.93653e-15
-1.64908e-15
-1.13304e-15
-1.19321e-15
-1.07104e-15
-3.32856e-16
-3.68323e-16
8.12556e-17
7.14186e-16
9.23864e-16
1.3951e-15
1.68817e-15
1.91149e-15
2.42201e-15
2.1958e-15
2.88344e-15
2.47567e-15
1.83265e-15
1.6733e-15
1.70486e-15
1.78831e-15
1.16332e-15
6.90294e-16
8.33907e-16
9.41264e-16
6.30027e-16
-5.28664e-16
-9.12064e-16
-8.38837e-16
-1.16346e-15
-1.22442e-15
-2.18381e-15
-2.29457e-15
-2.03012e-15
-2.75271e-15
-2.80172e-15
-3.41473e-15
-3.84024e-15
-4.01547e-15
-4.32163e-15
-4.38129e-15
-4.16346e-15
-4.41736e-15
-4.81441e-15
-5.31977e-15
-4.84915e-15
-4.56089e-15
-4.60947e-15
-4.78053e-15
-4.77005e-15
-4.79454e-15
-4.91536e-15
-5.69575e-15
-6.02265e-15
-6.59441e-15
-7.06671e-15
-7.27428e-15
-7.83101e-15
-8.48886e-15
-9.00193e-15
-9.12809e-15
-9.81151e-15
-1.05222e-14
-1.11982e-14
-1.17116e-14
-1.19265e-14
-1.20471e-14
-1.24292e-14
-1.32889e-14
-1.37758e-14
-1.43918e-14
-1.52694e-14
-1.61697e-14
-1.68596e-14
-1.71021e-14
-1.74932e-14
-1.78441e-14
-1.81826e-14
-1.90505e-14
-1.94904e-14
-1.97928e-14
-1.98483e-14
-1.99726e-14
-2.02869e-14
-2.02914e-14
-2.05173e-14
-2.06714e-14
-2.10733e-14
-2.10311e-14
-2.14014e-14
-2.12937e-14
-2.17417e-14
-2.25006e-14
-2.30275e-14
-2.32334e-14
-2.33495e-14
-2.39646e-14
-2.43914e-14
-2.49349e-14
-2.54607e-14
-2.58224e-14
-2.63046e-14
-2.71706e-14
-2.79895e-14
-2.88347e-14
-2.95361e-14
-2.97088e-14
-3.04206e-14
-3.14862e-14
-3.22536e-14
-3.27549e-14
-3.34283e-14
-3.44832e-14
-3.47874e-14
-3.601e-14
-3.69874e-14
-3.73907e-14
-3.86046e-14
-3.95328e-14
-4.00553e-14
-4.05399e-14
-4.08069e-14
-4.14974e-14
-4.18129e-14
-4.21677e-14
-4.27382e-14
-4.29888e-14
-4.39527e-14
-4.46255e-14
-4.48609e-14
-4.53367e-14
-4.56729e-14
-4.62773e-14
-4.64716e-14
-4.68398e-14
-4.73382e-14
-4.77414e-14
-4.84055e-14
-4.90401e-14
-5.00947e-14
-5.04118e-14
-5.08778e-14
-5.12606e-14
-5.23076e-14
-5.31784e-14
-5.37157e-14
-5.41181e-14
-5.47622e-14
-5.59613e-14
-5.64459e-14
-5.73236e-14
-5.83059e-14
-5.90804e-14
-5.98192e-14
-6.0724e-14
-6.14404e-14
-6.21681e-14
-6.30446e-14
-6.35408e-14
-6.43916e-14
-6.47895e-14
-6.54022e-14
-6.61084e-14
-6.65424e-14
-6.74426e-14
-6.8464e-14
-6.90017e-14
-6.8967e-14
-6.9395e-14
-6.97724e-14
-7.06453e-14
-7.06275e-14
-7.06981e-14
-7.11768e-14
-7.19479e-14
-7.26073e-14
-7.3317e-14
-7.36085e-14
-7.4466e-14
-7.49622e-14
-7.50919e-14
-7.50078e-14
-7.53331e-14
-7.61045e-14
-7.67105e-14
-7.6856e-14
-7.69157e-14
-7.72341e-14
-7.71162e-14
-7.69973e-14
-7.68787e-14
-7.7039e-14
-7.64832e-14
-7.6109e-14
-7.60281e-14
-7.56948e-14
-7.50951e-14
-7.44063e-14
-7.37441e-14
-7.30132e-14
-7.23036e-14
-7.20138e-14
-7.14987e-14
-7.06499e-14
-7.014e-14
-6.95748e-14
-6.90332e-14
-6.85305e-14
-6.82215e-14
-6.7845e-14
-6.77594e-14
-6.73981e-14
-6.63018e-14
-6.56298e-14
-6.52812e-14
-6.45242e-14
-6.40382e-14
-6.37535e-14
-6.36913e-14
-6.31335e-14
-6.26708e-14
-6.17973e-14
-6.18487e-14
-6.1937e-14
-6.17497e-14
-6.14288e-14
-6.08644e-14
-6.07464e-14
-6.05313e-14
-6.00578e-14
-5.98506e-14
-5.93521e-14
-5.83792e-14
-5.79638e-14
-5.76595e-14
-5.70564e-14
-5.67691e-14
-5.65989e-14
-5.6475e-14
-5.58433e-14
-5.53631e-14
-5.47997e-14
-5.40637e-14
-5.38619e-14
-5.36404e-14
-5.32525e-14
-5.25571e-14
-5.17696e-14
-5.13043e-14
-5.08168e-14
-4.96664e-14
-4.87211e-14
-4.77591e-14
-4.64477e-14
-4.54285e-14
-4.42177e-14
-4.28463e-14
-4.22878e-14
-4.1351e-14
-4.02555e-14
-3.9472e-14
-3.85147e-14
-3.76754e-14
-3.66579e-14
-3.52347e-14
-3.37149e-14
-3.23404e-14
-3.12477e-14
-3.07416e-14
-2.94983e-14
-2.82296e-14
-2.7461e-14
-2.66442e-14
-2.56805e-14
-2.49436e-14
-2.35024e-14
-2.30843e-14
-2.30254e-14
-2.15402e-14
-1.99839e-14
-1.9082e-14
-1.83873e-14
-1.78137e-14
-1.67589e-14
-1.62266e-14
-1.50844e-14
-1.37708e-14
-1.2746e-14
-1.27963e-14
-1.25499e-14
-1.25781e-14
-1.20312e-14
-1.13456e-14
-1.0623e-14
-1.02249e-14
-9.70259e-15
-9.25859e-15
-8.88919e-15
-8.63974e-15
-8.43159e-15
-7.82766e-15
-7.23484e-15
-7.15561e-15
-6.52104e-15
-6.21193e-15
-6.07581e-15
-6.28229e-15
-5.65123e-15
-5.04731e-15
-5.00618e-15
-4.6084e-15
-4.39532e-15
-4.45844e-15
-4.24245e-15
-3.74267e-15
-3.36769e-15
-3.26076e-15
-2.63781e-15
-2.39388e-15
-2.22871e-15
-1.92661e-15
-1.59195e-15
-1.10138e-15
-1.15037e-15
-1.12486e-15
-4.74443e-16
-3.39568e-16
1.9223e-16
6.84533e-16
9.26886e-16
1.32368e-15
1.70428e-15
2.02183e-15
2.48551e-15
2.14139e-15
2.87043e-15
2.62024e-15
1.83589e-15
1.70075e-15
1.83601e-15
1.55394e-15
1.22045e-15
1.04528e-15
1.06371e-15
7.128e-16
2.9701e-16
-3.96538e-16
-8.73197e-16
-8.78404e-16
-1.07813e-15
-1.26531e-15
-1.64007e-15
-2.199e-15
-2.50807e-15
-2.76187e-15
-2.65362e-15
-3.35538e-15
-3.96033e-15
-4.07895e-15
-4.22882e-15
-4.4122e-15
-4.27326e-15
-4.48028e-15
-4.77181e-15
-5.09071e-15
-5.0319e-15
-4.72924e-15
-4.50252e-15
-4.89865e-15
-4.92433e-15
-4.94463e-15
-4.87085e-15
-5.73184e-15
-6.1492e-15
-6.67021e-15
-7.12662e-15
-7.32709e-15
-7.90972e-15
-8.45477e-15
-8.97552e-15
-9.03035e-15
-9.82371e-15
-1.07046e-14
-1.13271e-14
-1.16946e-14
-1.18003e-14
-1.18119e-14
-1.23529e-14
-1.32504e-14
-1.38698e-14
-1.44072e-14
-1.52689e-14
-1.61604e-14
-1.68537e-14
-1.72002e-14
-1.7407e-14
-1.78754e-14
-1.82406e-14
-1.92466e-14
-1.96041e-14
-1.99205e-14
-2.00069e-14
-1.98454e-14
-2.02357e-14
-2.0185e-14
-2.03475e-14
-2.08006e-14
-2.12116e-14
-2.09283e-14
-2.12259e-14
-2.10957e-14
-2.17503e-14
-2.25339e-14
-2.30823e-14
-2.34375e-14
-2.33339e-14
-2.38082e-14
-2.44213e-14
-2.48654e-14
-2.54678e-14
-2.57693e-14
-2.62788e-14
-2.70658e-14
-2.78068e-14
-2.88269e-14
-2.97391e-14
-2.97436e-14
-3.0266e-14
-3.1402e-14
-3.23191e-14
-3.27732e-14
-3.33062e-14
-3.46065e-14
-3.49003e-14
-3.59035e-14
-3.70714e-14
-3.747e-14
-3.8641e-14
-3.95088e-14
-4.00673e-14
-4.05412e-14
-4.09634e-14
-4.16245e-14
-4.18522e-14
-4.21819e-14
-4.27691e-14
-4.3115e-14
-4.40133e-14
-4.46061e-14
-4.48729e-14
-4.54389e-14
-4.56863e-14
-4.64307e-14
-4.63934e-14
-4.70169e-14
-4.73677e-14
-4.76611e-14
-4.82671e-14
-4.90604e-14
-5.0147e-14
-5.04983e-14
-5.07757e-14
-5.12482e-14
-5.25127e-14
-5.315e-14
-5.36214e-14
-5.40536e-14
-5.47385e-14
-5.58311e-14
-5.64302e-14
-5.73416e-14
-5.83755e-14
-5.92194e-14
-5.99066e-14
-6.07632e-14
-6.12913e-14
-6.20398e-14
-6.2977e-14
-6.36321e-14
-6.42717e-14
-6.47717e-14
-6.55055e-14
-6.60511e-14
-6.65464e-14
-6.75378e-14
-6.84179e-14
-6.90075e-14
-6.90107e-14
-6.94782e-14
-6.97186e-14
-7.06625e-14
-7.06751e-14
-7.08304e-14
-7.09311e-14
-7.17068e-14
-7.26586e-14
-7.36226e-14
-7.37252e-14
-7.43654e-14
-7.48702e-14
-7.50509e-14
-7.49651e-14
-7.54026e-14
-7.59294e-14
-7.65971e-14
-7.70693e-14
-7.70077e-14
-7.73062e-14
-7.72362e-14
-7.69298e-14
-7.69792e-14
-7.72499e-14
-7.64297e-14
-7.63977e-14
-7.60175e-14
-7.57481e-14
-7.5344e-14
-7.43453e-14
-7.38123e-14
-7.30382e-14
-7.20114e-14
-7.18651e-14
-7.16482e-14
-7.06977e-14
-7.00073e-14
-6.93382e-14
-6.9074e-14
-6.84801e-14
-6.82416e-14
-6.78024e-14
-6.7801e-14
-6.73937e-14
-6.61086e-14
-6.57155e-14
-6.54008e-14
-6.4622e-14
-6.39668e-14
-6.36107e-14
-6.36289e-14
-6.29599e-14
-6.27818e-14
-6.17123e-14
-6.16482e-14
-6.19789e-14
-6.18838e-14
-6.13702e-14
-6.07504e-14
-6.05574e-14
-6.05458e-14
-6.00058e-14
-5.99464e-14
-5.96157e-14
-5.85404e-14
-5.79617e-14
-5.73995e-14
-5.72617e-14
-5.69273e-14
-5.6605e-14
-5.62649e-14
-5.57416e-14
-5.54801e-14
-5.47793e-14
-5.39176e-14
-5.39932e-14
-5.36412e-14
-5.32559e-14
-5.25273e-14
-5.19666e-14
-5.13836e-14
-5.06239e-14
-4.98912e-14
-4.88011e-14
-4.78889e-14
-4.65576e-14
-4.51586e-14
-4.41212e-14
-4.25725e-14
-4.22875e-14
-4.14444e-14
-4.01084e-14
-3.94191e-14
-3.84949e-14
-3.76493e-14
-3.65073e-14
-3.52883e-14
-3.36463e-14
-3.21262e-14
-3.12129e-14
-3.07788e-14
-2.95393e-14
-2.80302e-14
-2.74162e-14
-2.64974e-14
-2.57164e-14
-2.49472e-14
-2.33467e-14
-2.31492e-14
-2.29956e-14
-2.14777e-14
-1.98754e-14
-1.90414e-14
-1.83223e-14
-1.80193e-14
-1.65448e-14
-1.61405e-14
-1.50125e-14
-1.36997e-14
-1.26775e-14
-1.25769e-14
-1.24633e-14
-1.27555e-14
-1.20184e-14
-1.1174e-14
-1.0444e-14
-1.0357e-14
-9.61678e-15
-9.16205e-15
-8.60464e-15
-8.70865e-15
-8.45369e-15
-7.72472e-15
-7.17851e-15
-7.35811e-15
-6.53656e-15
-5.90639e-15
-6.00858e-15
-6.33748e-15
-5.69544e-15
-4.98021e-15
-5.02136e-15
-4.60087e-15
-4.1971e-15
-4.41593e-15
-4.32897e-15
-3.83317e-15
-3.18474e-15
-3.11232e-15
-2.88185e-15
-2.37849e-15
-2.21677e-15
-1.91042e-15
-1.54747e-15
-1.2611e-15
-1.00512e-15
-1.09622e-15
-7.39548e-16
-4.49921e-16
3.4125e-16
7.99936e-16
9.62359e-16
1.39659e-15
1.83549e-15
2.04742e-15
2.5162e-15
2.22482e-15
2.71466e-15
2.78678e-15
1.99628e-15
1.64137e-15
1.96828e-15
1.35531e-15
1.24185e-15
1.37337e-15
1.16636e-15
5.8343e-16
5.77353e-17
-3.84557e-16
-7.92434e-16
-8.38106e-16
-1.10295e-15
-1.16553e-15
-1.31795e-15
-2.22913e-15
-2.76497e-15
-2.54018e-15
-2.63972e-15
-3.16633e-15
-3.90273e-15
-4.20325e-15
-4.09578e-15
-4.54998e-15
-4.30125e-15
-4.47132e-15
-4.75946e-15
-4.97788e-15
-5.08858e-15
-4.83921e-15
-4.4218e-15
-5.18723e-15
-5.00359e-15
-4.87081e-15
-4.82832e-15
-5.78625e-15
-6.14901e-15
-6.56789e-15
-7.16095e-15
-7.48532e-15
-8.03856e-15
-8.26937e-15
-8.70537e-15
-9.33835e-15
-9.82074e-15
-1.06544e-14
-1.13168e-14
-1.16188e-14
-1.17803e-14
-1.17292e-14
-1.24499e-14
-1.30501e-14
-1.39276e-14
-1.4359e-14
-1.51303e-14
-1.61368e-14
-1.67299e-14
-1.7227e-14
-1.76206e-14
-1.77633e-14