/*--------------------------------*- C++ -*----------------------------------*\
| =========                 |                                                 |
| \\      /  F ield         | OpenFOAM: The Open Source CFD Toolbox           |
|  \\    /   O peration     | Version:  2112                                  |
|   \\  /    A nd           | Website:  www.openfoam.com                      |
|    \\/     M anipulation  |                                                 |
\*---------------------------------------------------------------------------*/
FoamFile
{
    version     2.0;
    format      ascii;
    arch        "LSB;label=32;scalar=64";
    class       surfaceScalarField;
    location    "7";
    object      phi;
}
// * * * * * * * * * * * * * * * * * * * * * * * * * * * * * * * * * * * * * //

dimensions      [0 3 -1 0 0 0 0];

oriented        oriented;

internalField   nonuniform List<scalar> 
50800
(
2.34302e-05
5.57528e-19
2.34302e-05
9.77703e-20
2.34302e-05
1.78544e-20
2.34302e-05
-2.75437e-21
2.34302e-05
7.64891e-21
2.34302e-05
1.04287e-20
2.34302e-05
-4.83572e-21
2.34302e-05
3.84101e-21
2.34302e-05
-8.37967e-21
2.34302e-05
-1.42406e-20
2.34302e-05
-6.68992e-21
2.34302e-05
-1.38507e-20
2.34302e-05
3.5715e-21
2.34302e-05
1.34308e-20
2.34302e-05
7.65413e-21
2.34302e-05
2.86103e-20
2.34302e-05
1.50702e-20
2.34302e-05
-7.68997e-21
2.34302e-05
-6.89676e-21
2.34302e-05
-1.82659e-21
2.34302e-05
5.16781e-21
2.34302e-05
7.78467e-21
2.34302e-05
9.82204e-21
2.34302e-05
9.12697e-22
2.34302e-05
-1.84011e-20
2.34302e-05
1.62389e-21
2.34302e-05
3.14998e-20
2.34302e-05
6.94238e-21
2.34302e-05
-1.19141e-20
2.34302e-05
1.03336e-22
2.34302e-05
1.51244e-20
2.34302e-05
3.36208e-20
2.34302e-05
-8.99017e-24
2.34302e-05
-1.9847e-20
2.34302e-05
-7.9084e-21
2.34302e-05
-1.13093e-20
2.34302e-05
2.65753e-20
2.34302e-05
-1.10679e-20
2.34302e-05
-3.26393e-20
2.34302e-05
2.29514e-20
2.34302e-05
-2.49956e-21
2.34302e-05
-2.79987e-21
2.34302e-05
-4.06205e-22
2.34302e-05
-2.48304e-20
2.34302e-05
9.3487e-21
2.34302e-05
-9.8168e-21
2.34302e-05
1.31512e-20
2.34302e-05
1.12767e-20
2.34302e-05
5.58946e-21
2.34302e-05
2.93648e-21
2.34302e-05
-3.30535e-20
2.34302e-05
1.41238e-20
2.34302e-05
-6.57951e-21
2.34302e-05
5.17458e-21
2.34302e-05
5.06298e-20
2.34302e-05
-1.83756e-20
2.34302e-05
-1.87157e-21
2.34302e-05
-4.32408e-21
2.34302e-05
-6.05781e-21
2.34302e-05
3.4975e-20
2.34302e-05
-5.91671e-20
2.34302e-05
3.30498e-20
2.34302e-05
1.61346e-21
2.34302e-05
-1.38527e-20
2.34302e-05
4.47232e-20
2.34302e-05
-4.27407e-20
2.34302e-05
-3.22527e-21
2.34302e-05
7.12547e-22
2.34302e-05
2.15895e-20
2.34302e-05
3.49208e-20
2.34302e-05
-2.46377e-20
2.34302e-05
-7.55525e-21
2.34302e-05
-2.12225e-20
2.34302e-05
-8.08199e-21
2.34302e-05
5.6134e-20
2.34302e-05
-3.36043e-20
2.34302e-05
-5.65875e-20
2.34302e-05
2.82227e-20
2.34302e-05
9.19221e-22
2.34302e-05
3.77438e-20
2.34302e-05
-1.41321e-20
2.34302e-05
-5.79799e-20
2.34302e-05
1.59816e-20
2.34302e-05
2.16087e-21
2.34302e-05
1.99039e-20
2.34302e-05
-1.14676e-20
2.34302e-05
-3.10334e-20
2.34302e-05
-2.80202e-20
2.34302e-05
1.55055e-21
2.34302e-05
6.64632e-20
2.34302e-05
-1.92832e-20
2.34302e-05
-5.66104e-20
2.34302e-05
8.50879e-21
2.34302e-05
4.7436e-20
2.34302e-05
1.54916e-21
2.34302e-05
-6.15618e-20
2.34302e-05
-9.85941e-21
2.34302e-05
-1.51299e-20
2.34302e-05
3.34559e-20
2.34302e-05
3.84424e-20
2.34302e-05
-5.04918e-20
2.34302e-05
1.72115e-20
2.34302e-05
-4.40611e-20
2.34302e-05
1.1547e-20
2.34302e-05
4.04401e-20
2.34302e-05
1.87813e-20
2.34302e-05
-6.12468e-20
2.34302e-05
-2.50596e-20
2.34302e-05
5.23263e-20
2.34302e-05
3.71232e-20
2.34302e-05
5.27124e-20
2.34302e-05
-1.40113e-19
2.34302e-05
1.10649e-20
2.34302e-05
1.00084e-19
2.34302e-05
2.40739e-20
2.34302e-05
4.50467e-21
2.34302e-05
-9.60257e-20
2.34302e-05
-1.52894e-20
2.34302e-05
9.98791e-20
2.34302e-05
4.75906e-20
2.34302e-05
-3.99469e-20
2.34302e-05
-1.04455e-19
2.34302e-05
-2.50996e-20
2.34302e-05
1.15323e-19
2.34302e-05
6.31835e-20
2.34302e-05
-4.52811e-20
2.34302e-05
-1.26425e-19
2.34302e-05
6.28594e-21
2.34302e-05
1.34804e-19
2.34302e-05
2.39684e-20
2.34302e-05
-3.6723e-20
2.34302e-05
-8.21407e-20
2.34302e-05
9.16522e-21
2.34302e-05
9.39237e-20
2.34302e-05
1.0675e-20
2.34302e-05
-2.62029e-21
2.34302e-05
-6.29002e-20
2.34302e-05
7.04067e-23
2.34302e-05
1.00373e-19
2.34302e-05
2.69598e-20
2.34302e-05
-3.70378e-20
2.34302e-05
-6.57204e-20
2.34302e-05
2.60407e-20
2.34302e-05
5.10337e-20
2.34302e-05
-6.77633e-21
2.34302e-05
1.27434e-21
2.34302e-05
-5.27699e-20
2.34302e-05
2.2559e-20
2.34302e-05
2.77871e-21
2.34302e-05
-4.34642e-22
2.34302e-05
6.77232e-20
2.34302e-05
-8.05053e-20
2.34302e-05
-6.25285e-20
2.34302e-05
4.19944e-20
2.34302e-05
3.70238e-20
2.34302e-05
3.67751e-20
2.34302e-05
-6.54324e-20
2.34302e-05
-7.68721e-20
2.34302e-05
2.29795e-20
2.34302e-05
2.69974e-20
2.34302e-05
9.06618e-20
2.34302e-05
-8.74745e-20
2.34302e-05
-4.18555e-20
2.34302e-05
1.01546e-19
2.34302e-05
-9.22447e-20
2.34302e-05
4.20259e-20
2.34302e-05
-2.52414e-20
2.34302e-05
-6.6549e-20
2.34302e-05
6.27583e-20
2.34302e-05
4.74713e-21
2.34302e-05
8.38866e-21
2.34302e-05
-1.05911e-19
2.34302e-05
-3.31708e-21
2.34302e-05
5.87751e-20
2.34302e-05
-9.79915e-21
2.34302e-05
2.76799e-21
2.34302e-05
-7.20753e-20
2.34302e-05
9.18993e-20
2.34302e-05
-2.56688e-20
2.34302e-05
-9.13505e-21
2.34302e-05
1.15006e-19
2.34302e-05
-1.36359e-19
2.34302e-05
-7.06573e-21
2.34302e-05
7.1687e-20
2.34302e-05
-2.33499e-20
2.34302e-05
1.06513e-19
2.34302e-05
-7.92703e-20
2.34302e-05
-1.07363e-20
2.34302e-05
1.10615e-19
2.34302e-05
-8.20958e-20
2.34302e-05
3.33055e-20
2.34302e-05
-1.36437e-20
2.34302e-05
-7.78008e-20
2.34302e-05
9.88181e-20
2.34302e-05
-1.69888e-20
2.34302e-05
2.77704e-20
2.34302e-05
-4.26625e-20
2.34302e-05
-3.94256e-20
2.34302e-05
1.31085e-19
2.34302e-05
-5.94301e-20
2.34302e-05
1.21727e-20
2.34302e-05
-5.03668e-20
2.34302e-05
1.31574e-20
2.34302e-05
1.54263e-19
2.34302e-05
-5.15467e-20
2.34302e-05
-6.49021e-20
2.34302e-05
-6.82802e-20
2.34302e-05
5.20855e-20
2.34302e-05
7.10097e-20
2.34302e-05
-2.59195e-20
2.34302e-05
-4.64785e-20
2.34302e-05
-9.41682e-20
2.34302e-05
2.18092e-19
2.34302e-05
2.17178e-20
2.34302e-05
-2.28493e-19
2.34302e-05
1.67717e-19
2.34302e-05
-2.57508e-20
2.34302e-05
-6.98848e-20
2.34302e-05
-2.16846e-20
2.34302e-05
-1.46709e-19
2.34302e-05
2.2681e-19
2.34302e-05
5.05146e-20
2.34302e-05
-8.82881e-20
2.34302e-05
-3.54264e-20
2.34302e-05
-1.63679e-19
2.34302e-05
2.31672e-19
2.34302e-05
9.62869e-21
2.34302e-05
-7.84361e-20
2.34302e-05
5.69661e-20
2.34302e-05
-1.27051e-19
2.34302e-05
1.29975e-19
2.34302e-05
-4.49616e-20
2.34302e-05
-4.02322e-20
2.34302e-05
7.92759e-20
2.34302e-05
-1.79599e-19
2.34302e-05
5.36154e-20
2.34302e-05
-1.03363e-20
2.34302e-05
1.62595e-20
2.34302e-05
8.90178e-20
2.34302e-05
-1.85187e-19
2.34302e-05
1.06008e-19
2.34302e-05
-4.67909e-20
2.34302e-05
-6.01585e-22
2.34302e-05
1.2191e-19
2.34302e-05
-2.56871e-19
2.34302e-05
3.66427e-20
2.34302e-05
5.00657e-20
2.34302e-05
5.50538e-20
2.34302e-05
3.4232e-20
2.34302e-05
-1.78828e-19
2.34302e-05
1.95883e-19
2.34302e-05
2.28117e-22
2.34302e-05
-9.80671e-20
2.34302e-05
-1.21496e-20
2.34302e-05
-1.57807e-19
2.34302e-05
2.5834e-19
2.34302e-05
-8.06887e-21
2.34302e-05
-4.44629e-20
2.34302e-05
9.98306e-20
2.34302e-05
-1.93057e-19
2.34302e-05
9.35454e-20
2.34302e-05
1.74469e-20
2.34302e-05
-1.19938e-20
2.34302e-05
5.42637e-20
2.34302e-05
-1.26671e-19
2.34302e-05
1.48382e-19
2.34302e-05
1.86562e-20
2.34302e-05
-3.41112e-20
2.34302e-05
6.73513e-21
2.34302e-05
-1.52579e-19
2.34302e-05
1.02503e-19
2.34302e-05
1.18809e-20
2.34302e-05
1.79073e-20
2.34302e-05
3.28921e-20
2.34302e-05
-1.34492e-19
2.34302e-05
1.08837e-19
2.34302e-05
2.68399e-20
2.34302e-05
-4.70814e-20
2.34302e-05
1.02474e-19
2.34302e-05
-1.34774e-19
2.34302e-05
3.80343e-20
2.34302e-05
3.77798e-20
2.34302e-05
-2.88553e-20
2.34302e-05
3.23424e-20
2.34302e-05
-1.46475e-19
2.34302e-05
2.15394e-20
2.34302e-05
1.01842e-19
2.34302e-05
-1.27309e-20
2.34302e-05
-9.49927e-20
2.34302e-05
-1.12897e-19
2.34302e-05
1.45555e-19
2.34302e-05
4.2554e-20
2.34302e-05
-4.93152e-20
2.34302e-05
-4.36283e-20
2.34302e-05
-5.15454e-20
2.34302e-05
1.23925e-19
2.34302e-05
4.43806e-21
2.34302e-05
-9.36087e-21
2.34302e-05
-9.0255e-20
2.34302e-05
-6.04618e-20
2.34302e-05
1.36941e-19
2.34302e-05
2.74837e-20
2.34302e-05
5.3582e-20
2.34302e-05
-1.14273e-19
2.34302e-05
-1.15399e-19
2.34302e-05
7.88697e-20
2.34302e-05
9.83957e-21
2.34302e-05
9.34801e-20
2.34302e-05
-1.0444e-19
2.34302e-05
8.58776e-21
2.34302e-05
6.04995e-20
2.34302e-05
-1.14306e-19
2.34302e-05
1.09876e-19
2.34302e-05
-4.04963e-21
2.34302e-05
-5.78094e-20
2.34302e-05
6.65417e-20
2.34302e-05
-7.45144e-20
2.34302e-05
1.08352e-19
2.34302e-05
3.98136e-20
1.04607e-20
6.91192e-05
5.32116e-19
6.91192e-05
1.79849e-19
6.91192e-05
4.0176e-20
6.91192e-05
5.67594e-21
6.91192e-05
4.45512e-20
6.91192e-05
1.41576e-20
6.91192e-05
-1.48215e-20
6.91192e-05
-1.02754e-20
6.91192e-05
-1.8501e-20
6.91192e-05
-3.22385e-20
6.91192e-05
-3.87642e-20
6.91192e-05
-3.88457e-20
6.91192e-05
2.88919e-20
6.91192e-05
3.03511e-20
6.91192e-05
2.57676e-20
6.91192e-05
9.49257e-20
6.91192e-05
4.72654e-20
6.91192e-05
-1.46443e-20
6.91192e-05
-1.09732e-20
6.91192e-05
-3.88144e-22
6.91192e-05
2.76212e-20
6.91192e-05
2.16996e-20
6.91192e-05
3.09026e-20
6.91192e-05
-6.16348e-21
6.91192e-05
-3.15449e-20
6.91192e-05
-1.64748e-20
6.91192e-05
6.54097e-20
6.91192e-05
3.6247e-20
6.91192e-05
-2.25434e-21
6.91192e-05
-2.15877e-21
6.91192e-05
6.25556e-20
6.91192e-05
6.15782e-20
6.91192e-05
-8.60074e-21
6.91192e-05
-3.92758e-20
6.91192e-05
-2.4378e-20
6.91192e-05
-2.04384e-20
6.91192e-05
4.75417e-20
6.91192e-05
-2.76331e-20
6.91192e-05
-8.79004e-20
6.91192e-05
2.61188e-20
6.91192e-05
-6.13238e-21
6.91192e-05
-8.05185e-21
6.91192e-05
5.17865e-21
6.91192e-05
-5.38163e-20
6.91192e-05
-1.97821e-20
6.91192e-05
-1.44979e-20
6.91192e-05
4.51706e-20
6.91192e-05
2.85589e-20
6.91192e-05
2.07468e-20
6.91192e-05
5.45408e-21
6.91192e-05
-6.80876e-20
6.91192e-05
1.37406e-20
6.91192e-05
1.16449e-20
6.91192e-05
4.2924e-20
6.91192e-05
1.08742e-19
6.91192e-05
-3.00855e-20
6.91192e-05
6.8877e-21
6.91192e-05
-8.02706e-21
6.91192e-05
-1.49943e-20
6.91192e-05
6.0628e-20
6.91192e-05
-1.33165e-19
6.91192e-05
6.4128e-20
6.91192e-05
5.9911e-21
6.91192e-05
-2.16161e-20
6.91192e-05
8.73128e-20
6.91192e-05
-8.36328e-20
6.91192e-05
7.13301e-21
6.91192e-05
-4.23785e-21
6.91192e-05
3.72041e-20
6.91192e-05
9.7882e-20
6.91192e-05
-5.32808e-20
6.91192e-05
-4.48914e-20
6.91192e-05
-6.91616e-20
6.91192e-05
-6.18995e-23
6.91192e-05
1.30556e-19
6.91192e-05
-9.08426e-20
6.91192e-05
-1.22792e-19
6.91192e-05
3.02572e-20
6.91192e-05
-1.57683e-20
6.91192e-05
7.33165e-20
6.91192e-05
-4.11535e-20
6.91192e-05
-1.37779e-19
6.91192e-05
1.51095e-20
6.91192e-05
2.57551e-20
6.91192e-05
1.97945e-20
6.91192e-05
-4.80933e-20
6.91192e-05
-4.05954e-20
6.91192e-05
-7.32235e-20
6.91192e-05
-1.19457e-20
6.91192e-05
1.53933e-19
6.91192e-05
-4.19306e-20
6.91192e-05
-1.17101e-19
6.91192e-05
-1.96939e-21
6.91192e-05
7.51696e-20
6.91192e-05
3.60383e-20
6.91192e-05
-1.39811e-19
6.91192e-05
-2.90052e-20
6.91192e-05
-4.69449e-20
6.91192e-05
5.83658e-20
6.91192e-05
6.98425e-20
6.91192e-05
-6.09809e-20
6.91192e-05
3.38706e-20
6.91192e-05
-1.02122e-19
6.91192e-05
3.62673e-21
6.91192e-05
9.33506e-20
6.91192e-05
7.45552e-20
6.91192e-05
-1.17068e-19
6.91192e-05
-8.72239e-20
6.91192e-05
1.20596e-19
6.91192e-05
1.41054e-19
6.91192e-05
8.24201e-20
6.91192e-05
-2.8796e-19
6.91192e-05
1.1053e-20
6.91192e-05
2.3222e-19
6.91192e-05
1.03129e-19
6.91192e-05
7.10387e-21
6.91192e-05
-2.40137e-19
6.91192e-05
-9.12263e-20
6.91192e-05
2.54194e-19
6.91192e-05
1.6496e-19
6.91192e-05
-1.26312e-19
6.91192e-05
-2.80566e-19
6.91192e-05
-5.55489e-20
6.91192e-05
2.86143e-19
6.91192e-05
1.98801e-19
6.91192e-05
-1.0739e-19
6.91192e-05
-3.2386e-19
6.91192e-05
1.35804e-20
6.91192e-05
3.22344e-19
6.91192e-05
6.56385e-20
6.91192e-05
-7.73458e-20
6.91192e-05
-1.83511e-19
6.91192e-05
-2.00883e-21
6.91192e-05
2.22612e-19
6.91192e-05
5.99567e-20
6.91192e-05
7.89359e-21
6.91192e-05
-1.62409e-19
6.91192e-05
-2.82889e-20
6.91192e-05
2.72126e-19
6.91192e-05
8.94465e-20
6.91192e-05
-8.19795e-20
6.91192e-05
-1.71492e-19
6.91192e-05
4.40161e-20
6.91192e-05
1.26278e-19
6.91192e-05
-1.21235e-20
6.91192e-05
-2.07996e-20
6.91192e-05
-1.32722e-19
6.91192e-05
6.77437e-20
6.91192e-05
4.97129e-20
6.91192e-05
-2.40547e-20
6.91192e-05
1.14692e-19
6.91192e-05
-1.66174e-19
6.91192e-05
-1.3473e-19
6.91192e-05
7.91846e-20
6.91192e-05
7.99772e-20
6.91192e-05
7.85653e-20
6.91192e-05
-1.62882e-19
6.91192e-05
-2.05045e-19
6.91192e-05
2.96521e-20
6.91192e-05
1.04834e-19
6.91192e-05
1.91191e-19
6.91192e-05
-1.75988e-19
6.91192e-05
-6.45722e-20
6.91192e-05
1.85061e-19
6.91192e-05
-1.74142e-19
6.91192e-05
1.38312e-20
6.91192e-05
-3.62664e-20
6.91192e-05
-1.22512e-19
6.91192e-05
1.0615e-19
6.91192e-05
1.52462e-20
6.91192e-05
-4.57376e-20
6.91192e-05
-2.39913e-19
6.91192e-05
-1.4074e-20
6.91192e-05
1.47021e-19
6.91192e-05
4.03895e-20
6.91192e-05
-4.82102e-20
6.91192e-05
-1.25573e-19
6.91192e-05
1.36065e-19
6.91192e-05
-5.59336e-20
6.91192e-05
7.62735e-20
6.91192e-05
2.00522e-19
6.91192e-05
-2.95248e-19
6.91192e-05
-2.27824e-20
6.91192e-05
1.8437e-19
6.91192e-05
2.06573e-20
6.91192e-05
1.99572e-19
6.91192e-05
-1.38816e-19
6.91192e-05
-2.9884e-20
6.91192e-05
2.20995e-19
6.91192e-05
-1.04778e-19
6.91192e-05
1.20158e-20
6.91192e-05
-5.42962e-20
6.91192e-05
-1.31184e-19
6.91192e-05
1.48024e-19
6.91192e-05
1.81544e-20
6.91192e-05
5.17926e-20
6.91192e-05
-8.8272e-20
6.91192e-05
-6.08311e-20
6.91192e-05
2.00693e-19
6.91192e-05
-3.1849e-20
6.91192e-05
2.91499e-20
6.91192e-05
-9.1486e-20
6.91192e-05
4.71551e-20
6.91192e-05
2.50997e-19
6.91192e-05
-4.48915e-20
6.91192e-05
-1.41421e-19
6.91192e-05
-1.79542e-19
6.91192e-05
8.80777e-20
6.91192e-05
1.10601e-19
6.91192e-05
-5.74096e-20
6.91192e-05
-5.37512e-20
6.91192e-05
-1.77247e-19
6.91192e-05
4.31557e-19
6.91192e-05
6.63883e-20
6.91192e-05
-4.1825e-19
6.91192e-05
2.60652e-19
6.91192e-05
-1.20333e-19
6.91192e-05
-9.33124e-20
6.91192e-05
-8.61852e-20
6.91192e-05
-3.24544e-19
6.91192e-05
4.69633e-19
6.91192e-05
9.87184e-20
6.91192e-05
-1.26457e-19
6.91192e-05
-1.04961e-19
6.91192e-05
-3.59606e-19
6.91192e-05
4.6759e-19
6.91192e-05
7.78137e-20
6.91192e-05
-1.4705e-19
6.91192e-05
7.53307e-20
6.91192e-05
-2.59943e-19
6.91192e-05
2.44287e-19
6.91192e-05
-8.91082e-20
6.91192e-05
-9.83575e-20
6.91192e-05
9.19098e-20
6.91192e-05
-3.79877e-19
6.91192e-05
5.88573e-20
6.91192e-05
-5.29061e-20
6.91192e-05
1.18381e-19
6.91192e-05
1.90749e-19
6.91192e-05
-4.11985e-19
6.91192e-05
1.67575e-19
6.91192e-05
-1.14142e-19
6.91192e-05
3.21133e-20
6.91192e-05
2.06259e-19
6.91192e-05
-5.80594e-19
6.91192e-05
7.23818e-20
6.91192e-05
1.11307e-19
6.91192e-05
1.52921e-19
6.91192e-05
7.02666e-20
6.91192e-05
-3.69014e-19
6.91192e-05
4.45814e-19
6.91192e-05
1.96782e-20
6.91192e-05
-2.77045e-19
6.91192e-05
-1.34414e-19
6.91192e-05
-2.8504e-19
6.91192e-05
6.42511e-19
6.91192e-05
1.39424e-20
6.91192e-05
-9.90114e-20
6.91192e-05
1.73568e-19
6.91192e-05
-4.05879e-19
6.91192e-05
1.81687e-19
6.91192e-05
4.28246e-20
6.91192e-05
4.78306e-20
6.91192e-05
7.68707e-20
6.91192e-05
-2.55988e-19
6.91192e-05
3.6043e-19
6.91192e-05
2.19192e-20
6.91192e-05
-4.59256e-20
6.91192e-05
2.13775e-20
6.91192e-05
-3.73673e-19
6.91192e-05
2.08071e-19
6.91192e-05
3.65887e-20
6.91192e-05
8.87459e-20
6.91192e-05
7.23713e-20
6.91192e-05
-3.32135e-19
6.91192e-05
2.69309e-19
6.91192e-05
3.17708e-20
6.91192e-05
-8.36332e-21
6.91192e-05
1.85038e-19
6.91192e-05
-3.64249e-19
6.91192e-05
1.40694e-19
6.91192e-05
1.71621e-20
6.91192e-05
-1.75805e-20
6.91192e-05
7.83943e-20
6.91192e-05
-4.25685e-19
6.91192e-05
1.17405e-19
6.91192e-05
2.11899e-19
6.91192e-05
-8.60953e-20
6.91192e-05
-2.11727e-19
6.91192e-05
-2.76901e-19
6.91192e-05
3.26813e-19
6.91192e-05
9.32848e-20
6.91192e-05
-1.43792e-19
6.91192e-05
-3.2934e-20
6.91192e-05
-1.41694e-19
6.91192e-05
2.2948e-19
6.91192e-05
1.33414e-19
6.91192e-05
-1.32991e-19
6.91192e-05
-1.52074e-19
6.91192e-05
-1.70214e-19
6.91192e-05
2.59873e-19
6.91192e-05
1.98142e-19
6.91192e-05
6.34158e-20
6.91192e-05
-2.93255e-19
6.91192e-05
-2.86095e-19
6.91192e-05
2.20716e-19
6.91192e-05
5.85713e-20
6.91192e-05
1.31672e-19
6.91192e-05
-2.159e-19
6.91192e-05
-9.94543e-21
6.91192e-05
1.81941e-19
6.91192e-05
-2.07106e-19
6.91192e-05
1.75858e-19
6.91192e-05
3.36758e-20
6.91192e-05
-1.11198e-19
6.91192e-05
1.08451e-19
6.91192e-05
-1.10012e-19
6.91192e-05
2.67024e-19
6.91192e-05
9.19684e-20
5.01864e-21
0.000113637
5.24554e-19
0.000113637
1.92014e-19
0.000113637
4.32765e-20
0.000113637
6.99837e-20
0.000113637
7.98855e-20
0.000113637
1.71883e-20
0.000113637
-1.59922e-20
0.000113637
-2.04073e-20
0.000113637
-2.64118e-20
0.000113637
-1.38142e-20
0.000113637
-5.95029e-20
0.000113637
-6.68871e-20
0.000113637
5.2857e-20
0.000113637
5.90402e-20
0.000113637
5.77617e-20
0.000113637
1.57186e-19
0.000113637
9.55023e-20
0.000113637
1.06996e-21
0.000113637
1.39965e-20
0.000113637
2.02164e-20
0.000113637
6.08306e-20
0.000113637
6.51105e-20
0.000113637
2.52176e-20
0.000113637
-1.03667e-20
0.000113637
-5.76988e-20
0.000113637
-2.85013e-20
0.000113637
9.97746e-20
0.000113637
8.61566e-20
0.000113637
4.0823e-20
0.000113637
-4.95379e-22
0.000113637
8.45791e-20
0.000113637
1.4494e-19
0.000113637
7.11082e-21
0.000113637
-8.52426e-20
0.000113637
-1.09029e-19
0.000113637
-5.09767e-20
0.000113637
6.27652e-20
0.000113637
-1.01726e-20
0.000113637
-1.24562e-19
0.000113637
2.50221e-20
0.000113637
-1.7816e-20
0.000113637
-2.09402e-20
0.000113637
8.89665e-21
0.000113637
-6.72368e-20
0.000113637
-7.316e-20
0.000113637
-1.36503e-20
0.000113637
5.87785e-20
0.000113637
8.55292e-20
0.000113637
4.33933e-20
0.000113637
1.00098e-20
0.000113637
-6.44584e-20
0.000113637
6.30899e-22
0.000113637
6.92186e-20
0.000113637
6.25134e-20
0.000113637
1.86306e-19
0.000113637
5.62122e-21
0.000113637
-4.01894e-20
0.000113637
-1.6644e-20
0.000113637
2.36713e-21
0.000113637
5.79103e-20
0.000113637
-2.01705e-19
0.000113637
1.20981e-19
0.000113637
4.456e-20
0.000113637
-3.77592e-20
0.000113637
1.33163e-19
0.000113637
-1.34251e-19
0.000113637
-1.93421e-20
0.000113637
-2.66268e-20
0.000113637
5.9442e-20
0.000113637
1.34053e-19
0.000113637
-8.07591e-20
0.000113637
-9.47774e-20
0.000113637
-1.14555e-19
0.000113637
2.8022e-20
0.000113637
1.76501e-19
0.000113637
-1.36568e-19
0.000113637
-1.90246e-19
0.000113637
1.37723e-20
0.000113637
-1.87128e-20
0.000113637
6.44181e-20
0.000113637
-5.79288e-20
0.000113637
-1.9943e-19
0.000113637
-3.68395e-20
0.000113637
1.51507e-20
0.000113637
5.93391e-20
0.000113637
-1.05364e-19
0.000113637
-6.32176e-20
0.000113637
-9.21258e-20
0.000113637
-6.47133e-20
0.000113637
1.96713e-19
0.000113637
-2.40564e-20
0.000113637
-1.30393e-19
0.000113637
-2.55524e-20
0.000113637
6.48975e-20
0.000113637
3.45041e-20
0.000113637
-1.94785e-19
0.000113637
-8.92086e-20
0.000113637
-5.61683e-20
0.000113637
5.86435e-20
0.000113637
7.76979e-20
0.000113637
-4.63197e-20
0.000113637
1.7135e-20
0.000113637
-1.26558e-19
0.000113637
-3.15095e-20
0.000113637
1.61678e-19
0.000113637
1.53193e-19
0.000113637
-1.96268e-19
0.000113637
-1.6552e-19
0.000113637
1.8662e-19
0.000113637
2.70822e-19
0.000113637
9.6075e-20
0.000113637
-4.02366e-19
0.000113637
1.78928e-20
0.000113637
3.38484e-19
0.000113637
2.07443e-19
0.000113637
3.6525e-20
0.000113637
-3.87456e-19
0.000113637
-1.60682e-19
0.000113637
4.1259e-19
0.000113637
2.74852e-19
0.000113637
-2.31888e-19
0.000113637
-4.5563e-19
0.000113637
-7.50158e-20
0.000113637
4.61536e-19
0.000113637
3.54517e-19
0.000113637
-1.65377e-19
0.000113637
-5.22616e-19
0.000113637
1.66928e-20
0.000113637
5.42238e-19
0.000113637
1.23252e-19
0.000113637
-1.39014e-19
0.000113637
-2.65915e-19
0.000113637
-3.23402e-20
0.000113637
3.52037e-19
0.000113637
1.4901e-19
0.000113637
-1.30137e-20
0.000113637
-2.43264e-19
0.000113637
-3.19584e-20
0.000113637
4.28743e-19
0.000113637
1.54504e-19
0.000113637
-1.46305e-19
0.000113637
-2.41393e-19
0.000113637
8.7801e-20
0.000113637
1.82756e-19
0.000113637
-2.10988e-20
0.000113637
-1.42984e-20
0.000113637
-2.34345e-19
0.000113637
8.19648e-20
0.000113637
8.73666e-20
0.000113637
-4.33394e-20
0.000113637
1.30962e-19
0.000113637
-2.31245e-19
0.000113637
-1.84346e-19
0.000113637
1.14732e-19
0.000113637
1.44005e-19
0.000113637
5.60933e-20
0.000113637
-2.92153e-19
0.000113637
-3.08512e-19
0.000113637
2.79598e-20
0.000113637
1.73719e-19
0.000113637
2.81663e-19
0.000113637
-2.59447e-19
0.000113637
-9.34687e-20
0.000113637
2.4079e-19
0.000113637
-2.28604e-19
0.000113637
-3.79937e-20
0.000113637
-6.29081e-20
0.000113637
-1.2392e-19
0.000113637
1.19793e-19
0.000113637
1.10783e-20
0.000113637
-1.37005e-19
0.000113637
-4.06211e-19
0.000113637
-3.50386e-20
0.000113637
3.10987e-19
0.000113637
7.67024e-20
0.000113637
-1.23027e-19
0.000113637
-1.69187e-19
0.000113637
1.03401e-19
0.000113637
-2.40713e-20
0.000113637
2.20139e-19
0.000113637
2.3655e-19
0.000113637
-4.3922e-19
0.000113637
-2.70832e-20
0.000113637
3.19138e-19
0.000113637
1.4089e-19
0.000113637
2.19555e-19
0.000113637
-1.57318e-19
0.000113637
7.11659e-21
0.000113637
2.85044e-19
0.000113637
-9.06543e-20
0.000113637
-3.91316e-20
0.000113637
-6.4929e-20
0.000113637
-1.78745e-19
0.000113637
1.17909e-19
0.000113637
1.17859e-19
0.000113637
7.02761e-20
0.000113637
-8.41538e-20
0.000113637
-1.05219e-19
0.000113637
1.92854e-19
0.000113637
5.55609e-20
0.000113637
4.29279e-20
0.000113637
-8.44239e-20
0.000113637
1.15115e-19
0.000113637
2.98674e-19
0.000113637
-3.05883e-20
0.000113637
-1.76221e-19
0.000113637
-2.75491e-19
0.000113637
6.95781e-20
0.000113637
1.12287e-19
0.000113637
-4.39237e-20
0.000113637
-5.11066e-20
0.000113637
-2.50873e-19
0.000113637
5.84846e-19
0.000113637
1.15394e-19
0.000113637
-5.35409e-19
0.000113637
2.7643e-19
0.000113637
-2.44445e-19
0.000113637
-1.00172e-19
0.000113637
-1.42403e-19
0.000113637
-5.03543e-19
0.000113637
6.38334e-19
0.000113637
1.40043e-19
0.000113637
-8.58595e-20
0.000113637
-1.13506e-19
0.000113637
-5.22013e-19
0.000113637
5.90828e-19
0.000113637
1.36726e-19
0.000113637
-1.70772e-19
0.000113637
5.39174e-20
0.000113637
-4.08584e-19
0.000113637
3.50787e-19
0.000113637
-7.15439e-20
0.000113637
-2.12337e-19
0.000113637
4.6652e-20
0.000113637
-5.28512e-19
0.000113637
1.19919e-20
0.000113637
-1.2728e-19
0.000113637
2.20695e-19
0.000113637
2.92054e-19
0.000113637
-6.20635e-19
0.000113637
1.55294e-19
0.000113637
-1.88767e-19
0.000113637
6.65219e-20
0.000113637
2.73306e-19
0.000113637
-8.68605e-19
0.000113637
1.01679e-19
0.000113637
1.14041e-19
0.000113637
2.03696e-19
0.000113637
1.32503e-19
0.000113637
-5.15282e-19
0.000113637
6.83724e-19
0.000113637
8.11054e-20
0.000113637
-4.59463e-19
0.000113637
-3.00337e-19
0.000113637
-3.83984e-19
0.000113637
9.53512e-19
0.000113637
8.16914e-20
0.000113637
-8.83107e-20
0.000113637
2.65481e-19
0.000113637
-5.39556e-19
0.000113637
2.04828e-19
0.000113637
5.86089e-20
0.000113637
1.27544e-19
0.000113637
7.09981e-20
0.000113637
-3.46364e-19
0.000113637
5.63562e-19
0.000113637
4.15169e-23
0.000113637
-2.8808e-20
0.000113637
1.19079e-20
0.000113637
-5.86659e-19
0.000113637
3.59804e-19
0.000113637
4.48873e-20
0.000113637
1.21327e-19
0.000113637
1.27483e-19
0.000113637
-4.90329e-19
0.000113637
4.27101e-19
0.000113637
4.83255e-20
0.000113637
2.86604e-20
0.000113637
2.22726e-19
0.000113637
-5.82733e-19
0.000113637
2.58612e-19
0.000113637
-3.28379e-20
0.000113637
-1.51742e-20
0.000113637
9.97043e-20
0.000113637
-6.59602e-19
0.000113637
2.18584e-19
0.000113637
2.46145e-19
0.000113637
-1.99231e-19
0.000113637
-2.99874e-19
0.000113637
-4.38161e-19
0.000113637
4.65692e-19
0.000113637
1.59109e-19
0.000113637
-2.04766e-19
0.000113637
-2.3231e-21
0.000113637
-2.34028e-19
0.000113637
2.86548e-19
0.000113637
2.63601e-19
0.000113637
-2.25658e-19
0.000113637
-2.0034e-19
0.000113637
-2.98386e-19
0.000113637
3.49705e-19
0.000113637
3.89395e-19
0.000113637
2.44624e-20
0.000113637
-4.87855e-19
0.000113637
-4.17604e-19
0.000113637
3.27953e-19
0.000113637
1.09465e-19
0.000113637
1.23316e-19
0.000113637
-2.70844e-19
0.000113637
-5.52255e-20
0.000113637
3.40457e-19
0.000113637
-2.24641e-19
0.000113637
1.51431e-19
0.000113637
1.40722e-19
0.000113637
-1.55807e-19
0.000113637
1.1304e-19
0.000113637
-9.09208e-20
0.000113637
3.90555e-19
0.000113637
2.01703e-19
-2.72313e-21
0.000156983
5.1746e-19
0.000156983
2.2076e-19
0.000156983
1.43699e-19
0.000156983
8.82311e-20
0.000156983
9.33331e-20
0.000156983
5.49315e-20
0.000156983
-3.24314e-20
0.000156983
-2.41533e-20
0.000156983
-5.49427e-21
0.000156983
-3.55269e-20
0.000156983
-8.08916e-20
0.000156983
-5.02563e-20
0.000156983
6.11629e-20
0.000156983
8.97941e-20
0.000156983
1.19945e-19
0.000156983
1.80229e-19
0.000156983
1.37042e-19
0.000156983
6.67697e-20
0.000156983
7.22276e-20
0.000156983
3.15118e-20
0.000156983
1.08977e-19
0.000156983
1.13933e-19
0.000156983
8.70189e-20
0.000156983
-1.19784e-20
0.000156983
-1.09021e-19
0.000156983
-5.61093e-20
0.000156983
1.31389e-19
0.000156983
1.43974e-19
0.000156983
8.5002e-20
0.000156983
1.39338e-20
0.000156983
1.04579e-19
0.000156983
1.97221e-19
0.000156983
2.11887e-20
0.000156983
-8.87992e-20
0.000156983
-1.25358e-19
0.000156983
-9.51641e-20
0.000156983
3.51426e-20
0.000156983
1.2918e-20
0.000156983
-1.45579e-19
0.000156983
4.66026e-21
0.000156983
-2.57905e-20
0.000156983
-2.97608e-20
0.000156983
-1.3284e-20
0.000156983
-1.2629e-19
0.000156983
-7.35137e-20
0.000156983
-2.96319e-20
0.000156983
8.04697e-20
0.000156983
1.27011e-19
0.000156983
4.43357e-20
0.000156983
2.63534e-20
0.000156983
-1.50914e-20
0.000156983
4.21998e-20
0.000156983
8.45212e-20
0.000156983
8.04634e-20
0.000156983
2.22847e-19
0.000156983
2.30794e-20
0.000156983
-2.33943e-22
0.000156983
-2.90854e-20
0.000156983
-1.45794e-20
0.000156983
3.08373e-20
0.000156983
-2.51856e-19
0.000156983
1.36525e-19
0.000156983
1.29674e-19
0.000156983
-5.96199e-20
0.000156983
1.07624e-19
0.000156983
-1.11868e-19
0.000156983
-1.15275e-20
0.000156983
-5.15576e-20
0.000156983
2.87428e-20
0.000156983
1.37038e-19
0.000156983
-1.01381e-19
0.000156983
-1.44544e-19
0.000156983
-1.25123e-19
0.000156983
-2.20647e-21
0.000156983
1.69194e-19
0.000156983
-1.44309e-19
0.000156983
-2.05718e-19
0.000156983
6.4503e-21
0.000156983
-9.88979e-20
0.000156983
5.5319e-20
0.000156983
-6.13521e-20
0.000156983
-3.18786e-19
0.000156983
-3.02723e-20
0.000156983
7.08903e-20
0.000156983
1.54825e-20
0.000156983
-1.24628e-19
0.000156983
-9.30738e-20
0.000156983
-1.05211e-19
0.000156983
-1.63644e-19
0.000156983
2.43205e-19
0.000156983
-1.46559e-20
0.000156983
-1.76401e-19
0.000156983
-1.04017e-19
0.000156983
5.45962e-20
0.000156983
5.94622e-20
0.000156983
-2.1067e-19
0.000156983
-1.59392e-19
0.000156983
-8.94568e-20
0.000156983
6.9992e-20
0.000156983
8.14803e-20
0.000156983
-1.42721e-20
0.000156983
3.16472e-21
0.000156983
-1.40237e-19
0.000156983
-5.08895e-20
0.000156983
1.97965e-19
0.000156983
1.74891e-19
0.000156983
-2.12774e-19
0.000156983
-2.21709e-19
0.000156983
2.11698e-19
0.000156983
3.91889e-19
0.000156983
1.49348e-19
0.000156983
-4.41085e-19
0.000156983
-1.24773e-20
0.000156983
4.46315e-19
0.000156983
3.26498e-19
0.000156983
-2.73257e-20
0.000156983
-4.90104e-19
0.000156983
-1.97701e-19
0.000156983
5.63243e-19
0.000156983
3.62471e-19
0.000156983
-3.07731e-19
0.000156983
-5.70014e-19
0.000156983
-1.11365e-19
0.000156983
5.44883e-19
0.000156983
5.13546e-19
0.000156983
-1.89716e-19
0.000156983
-6.37189e-19
0.000156983
8.37262e-20
0.000156983
6.43569e-19
0.000156983
1.25097e-19
0.000156983
-1.64886e-19
0.000156983
-3.00973e-19
0.000156983
-8.00823e-20
0.000156983
4.35647e-19
0.000156983
2.17662e-19
0.000156983
2.09554e-21
0.000156983
-2.60044e-19
0.000156983
2.66434e-21
0.000156983
4.7848e-19
0.000156983
1.78393e-19
0.000156983
-1.70674e-19
0.000156983
-2.40551e-19
0.000156983
1.55899e-19
0.000156983
1.8938e-19
0.000156983
-3.59074e-20
0.000156983
-5.43452e-20
0.000156983
-2.60184e-19
0.000156983
8.8933e-20
0.000156983
8.70682e-20
0.000156983
-1.28474e-19
0.000156983
1.32417e-19
0.000156983
-2.19707e-19
0.000156983
-1.98844e-19
0.000156983
8.69015e-20
0.000156983
1.49465e-19
0.000156983
6.58526e-20
0.000156983
-3.69054e-19
0.000156983
-4.10976e-19
0.000156983
1.46544e-20
0.000156983
2.26211e-19
0.000156983
2.66137e-19
0.000156983
-2.84299e-19
0.000156983
-8.72556e-20
0.000156983
2.44374e-19
0.000156983
-2.86863e-19
0.000156983
-9.51042e-20
0.000156983
-7.20906e-20
0.000156983
-1.19131e-19
0.000156983
7.99518e-20
0.000156983
1.47589e-20
0.000156983
-2.04073e-19
0.000156983
-5.97969e-19
0.000156983
-2.99543e-21
0.000156983
4.87498e-19
0.000156983
9.10899e-20
0.000156983
-1.81817e-19
0.000156983
-2.84161e-19
0.000156983
6.39338e-20
0.000156983
1.02666e-20
0.000156983
4.22786e-19
0.000156983
2.79024e-19
0.000156983
-5.71144e-19
0.000156983
-4.56343e-20
0.000156983
4.46585e-19
0.000156983
2.66069e-19
0.000156983
2.28355e-19
0.000156983
-1.76837e-19
0.000156983
8.94307e-20
0.000156983
3.63979e-19
0.000156983
-1.09921e-19
0.000156983
-9.02133e-20
0.000156983
-1.03974e-19
0.000156983
-2.09417e-19
0.000156983
1.269e-19
0.000156983
1.87417e-19
0.000156983
1.13905e-19
0.000156983
-1.29527e-19
0.000156983
-1.12404e-19
0.000156983
2.508e-19
0.000156983
1.16987e-19
0.000156983
8.79419e-20
0.000156983
-7.18123e-20
0.000156983
1.40164e-19
0.000156983
2.68302e-19
0.000156983
4.8462e-21
0.000156983
-1.84232e-19
0.000156983
-3.68568e-19
0.000156983
-3.65039e-21
0.000156983
1.11424e-19
0.000156983
-1.51182e-20
0.000156983
-8.96221e-21
0.000156983
-2.68373e-19
0.000156983
6.65212e-19
0.000156983
1.34526e-19
0.000156983
-6.23163e-19
0.000156983
2.2436e-19
0.000156983
-3.68718e-19
0.000156983
-1.59477e-19
0.000156983
-2.03022e-19
0.000156983
-5.69943e-19
0.000156983
7.3293e-19
0.000156983
1.55977e-19
0.000156983
-1.28705e-20
0.000156983
-8.28144e-20
0.000156983
-6.72686e-19
0.000156983
6.05173e-19
0.000156983
1.52063e-19
0.000156983
-1.36308e-19
0.000156983
3.14832e-20
0.000156983
-4.90282e-19
0.000156983
4.30707e-19
0.000156983
-7.16208e-20
0.000156983
-3.55788e-19