/*--------------------------------*- C++ -*----------------------------------*\
| =========                 |                                                 |
| \\      /  F ield         | OpenFOAM: The Open Source CFD Toolbox           |
|  \\    /   O peration     | Version:  2112                                  |
|   \\  /    A nd           | Website:  www.openfoam.com                      |
|    \\/     M anipulation  |                                                 |
\*---------------------------------------------------------------------------*/
FoamFile
{
    version     2.0;
    format      ascii;
    arch        "LSB;label=32;scalar=64";
    class       surfaceScalarField;
    location    "7";
    object      phi;
}
// * * * * * * * * * * * * * * * * * * * * * * * * * * * * * * * * * * * * * //

dimensions      [0 3 -1 0 0 0 0];

oriented        oriented;

internalField   nonuniform List<scalar> 
50800
(
2.34302e-05
-3.79938e-19
2.34302e-05
-7.35666e-20
2.34302e-05
1.33996e-20
2.34302e-05
6.66345e-22
2.34302e-05
3.70631e-21
2.34302e-05
1.01661e-20
2.34302e-05
1.82551e-21
2.34302e-05
9.78588e-21
2.34302e-05
7.21461e-21
2.34302e-05
7.12274e-21
2.34302e-05
9.82204e-21
2.34302e-05
1.2502e-20
2.34302e-05
3.74196e-20
2.34302e-05
1.5086e-20
2.34302e-05
-2.18772e-20
2.34302e-05
1.64037e-20
2.34302e-05
1.66113e-20
2.34302e-05
6.99538e-21
2.34302e-05
5.41477e-21
2.34302e-05
1.36966e-20
2.34302e-05
1.85217e-20
2.34302e-05
9.93331e-21
2.34302e-05
-1.36034e-20
2.34302e-05
-2.1859e-20
2.34302e-05
-2.36887e-20
2.34302e-05
-1.03564e-21
2.34302e-05
2.18034e-20
2.34302e-05
-1.50835e-20
2.34302e-05
-4.12516e-20
2.34302e-05
-2.74711e-20
2.34302e-05
3.70162e-21
2.34302e-05
2.44351e-20
2.34302e-05
-4.19792e-21
2.34302e-05
-1.77808e-20
2.34302e-05
-6.81795e-21
2.34302e-05
-4.85094e-21
2.34302e-05
2.99575e-20
2.34302e-05
-1.15934e-20
2.34302e-05
-2.87684e-20
2.34302e-05
2.01028e-20
2.34302e-05
-1.50364e-20
2.34302e-05
1.87977e-20
2.34302e-05
1.45108e-20
2.34302e-05
-2.81026e-20
2.34302e-05
2.90279e-21
2.34302e-05
-1.32125e-20
2.34302e-05
2.3251e-21
2.34302e-05
-4.34106e-21
2.34302e-05
-2.01535e-20
2.34302e-05
-1.69621e-20
2.34302e-05
-2.63726e-20
2.34302e-05
1.53467e-20
2.34302e-05
-2.43844e-20
2.34302e-05
-1.63651e-20
2.34302e-05
1.68669e-20
2.34302e-05
-4.63877e-20
2.34302e-05
-1.43475e-22
2.34302e-05
-1.10946e-20
2.34302e-05
8.57888e-22
2.34302e-05
3.17125e-20
2.34302e-05
-5.01272e-20
2.34302e-05
4.01458e-20
2.34302e-05
3.96323e-21
2.34302e-05
2.03306e-21
2.34302e-05
6.14214e-20
2.34302e-05
-2.45416e-20
2.34302e-05
2.04509e-20
2.34302e-05
1.56935e-20
2.34302e-05
2.09977e-20
2.34302e-05
2.21219e-20
2.34302e-05
-1.99781e-20
2.34302e-05
-1.63796e-22
2.34302e-05
-2.06488e-20
2.34302e-05
-1.19126e-20
2.34302e-05
5.89555e-20
2.34302e-05
-4.88962e-20
2.34302e-05
-5.15237e-20
2.34302e-05
3.36855e-20
2.34302e-05
-2.60773e-20
2.34302e-05
2.81424e-20
2.34302e-05
-2.09598e-20
2.34302e-05
-6.97053e-20
2.34302e-05
1.04215e-20
2.34302e-05
2.89021e-20
2.34302e-05
4.155e-20
2.34302e-05
-4.96709e-21
2.34302e-05
-2.37751e-20
2.34302e-05
-6.24881e-21
2.34302e-05
2.64814e-20
2.34302e-05
7.70034e-20
2.34302e-05
-2.37216e-20
2.34302e-05
-5.90937e-20
2.34302e-05
1.95029e-20
2.34302e-05
5.22452e-20
2.34302e-05
2.51044e-20
2.34302e-05
-5.11568e-20
2.34302e-05
6.81342e-21
2.34302e-05
-6.01056e-21
2.34302e-05
3.0434e-20
2.34302e-05
2.09934e-20
2.34302e-05
-6.42567e-20
2.34302e-05
2.30264e-20
2.34302e-05
-3.62899e-20
2.34302e-05
1.38943e-20
2.34302e-05
3.59172e-20
2.34302e-05
2.39755e-20
2.34302e-05
-5.21884e-20
2.34302e-05
4.06616e-22
2.34302e-05
7.90813e-20
2.34302e-05
3.48449e-20
2.34302e-05
2.95619e-20
2.34302e-05
-1.41315e-19
2.34302e-05
2.66252e-20
2.34302e-05
1.19837e-19
2.34302e-05
1.77098e-20
2.34302e-05
-2.08572e-20
2.34302e-05
-1.00842e-19
2.34302e-05
4.50889e-21
2.34302e-05
1.005e-19
2.34302e-05
2.86535e-20
2.34302e-05
-5.70767e-20
2.34302e-05
-1.24701e-19
2.34302e-05
-7.57268e-21
2.34302e-05
1.45289e-19
2.34302e-05
4.67797e-20
2.34302e-05
-6.15126e-20
2.34302e-05
-1.23111e-19
2.34302e-05
2.56542e-20
2.34302e-05
1.3848e-19
2.34302e-05
1.28471e-20
2.34302e-05
-5.71488e-20
2.34302e-05
-8.28831e-20
2.34302e-05
2.35986e-20
2.34302e-05
8.95538e-20
2.34302e-05
-1.84819e-20
2.34302e-05
-3.13577e-20
2.34302e-05
-8.24548e-20
2.34302e-05
-1.5689e-20
2.34302e-05
7.46283e-20
2.34302e-05
-2.58943e-21
2.34302e-05
-3.95258e-20
2.34302e-05
-6.99552e-20
2.34302e-05
2.32913e-20
2.34302e-05
5.48073e-20
2.34302e-05
-2.23704e-20
2.34302e-05
-5.54259e-21
2.34302e-05
-5.93183e-20
2.34302e-05
2.68053e-20
2.34302e-05
3.72162e-21
2.34302e-05
-1.57118e-20
2.34302e-05
6.36532e-20
2.34302e-05
-8.20326e-20
2.34302e-05
-6.43692e-20
2.34302e-05
5.35909e-20
2.34302e-05
4.31265e-20
2.34302e-05
5.32839e-20
2.34302e-05
-4.43119e-20
2.34302e-05
-5.91742e-20
2.34302e-05
5.88216e-20
2.34302e-05
4.11272e-20
2.34302e-05
8.00281e-20
2.34302e-05
-9.84428e-20
2.34302e-05
-2.59734e-20
2.34302e-05
1.14023e-19
2.34302e-05
-7.72267e-20
2.34302e-05
5.89199e-20
2.34302e-05
1.62741e-20
2.34302e-05
-2.95043e-20
2.34302e-05
8.37383e-20
2.34302e-05
1.60037e-20
2.34302e-05
2.02202e-20
2.34302e-05
-8.2353e-20
2.34302e-05
3.62942e-20
2.34302e-05
7.26745e-20
2.34302e-05
-3.15063e-20
2.34302e-05
-2.4829e-20
2.34302e-05
-7.4613e-20
2.34302e-05
9.72168e-20
2.34302e-05
-3.472e-20
2.34302e-05
-2.24172e-20
2.34302e-05
9.13957e-20
2.34302e-05
-1.52792e-19
2.34302e-05
-3.37131e-21
2.34302e-05
7.09247e-20
2.34302e-05
-3.572e-20
2.34302e-05
1.01252e-19
2.34302e-05
-9.98901e-20
2.34302e-05
-1.70545e-20
2.34302e-05
1.01872e-19
2.34302e-05
-8.63872e-20
2.34302e-05
4.05951e-20
2.34302e-05
-1.70677e-20
2.34302e-05
-7.82665e-20
2.34302e-05
1.14257e-19
2.34302e-05
-1.46329e-20
2.34302e-05
2.25692e-20
2.34302e-05
-6.22219e-20
2.34302e-05
-3.51826e-20
2.34302e-05
1.32928e-19
2.34302e-05
-9.56974e-20
2.34302e-05
8.19309e-21
2.34302e-05
-6.12798e-20
2.34302e-05
4.61195e-21
2.34302e-05
1.42511e-19
2.34302e-05
-7.45672e-20
2.34302e-05
-7.99381e-20
2.34302e-05
-5.5756e-20
2.34302e-05
6.39437e-20
2.34302e-05
8.01797e-20
2.34302e-05
-1.87031e-20
2.34302e-05
-5.83415e-20
2.34302e-05
-9.43718e-20
2.34302e-05
2.2168e-19
2.34302e-05
1.52957e-20
2.34302e-05
-2.16184e-19
2.34302e-05
1.94581e-19
2.34302e-05
2.21101e-21
2.34302e-05
-5.83841e-20
2.34302e-05
-2.9248e-20
2.34302e-05
-1.38165e-19
2.34302e-05
2.32386e-19
2.34302e-05
2.42539e-20
2.34302e-05
-1.02614e-19
2.34302e-05
-1.55766e-20
2.34302e-05
-1.52394e-19
2.34302e-05
2.2932e-19
2.34302e-05
-7.32891e-21
2.34302e-05
-9.61564e-20
2.34302e-05
6.08879e-20
2.34302e-05
-8.1451e-20
2.34302e-05
1.80451e-19
2.34302e-05
-2.17607e-20
2.34302e-05
-3.72984e-20
2.34302e-05
7.103e-20
2.34302e-05
-1.64544e-19
2.34302e-05
7.03276e-20
2.34302e-05
2.01375e-20
2.34302e-05
5.76872e-20
2.34302e-05
1.00904e-19
2.34302e-05
-1.86072e-19
2.34302e-05
9.98538e-20
2.34302e-05
-4.66351e-20
2.34302e-05
2.52743e-20
2.34302e-05
1.35892e-19
2.34302e-05
-2.53907e-19
2.34302e-05
2.81689e-20
2.34302e-05
5.69664e-20
2.34302e-05
7.87324e-20
2.34302e-05
2.28407e-20
2.34302e-05
-1.98371e-19
2.34302e-05
1.84007e-19
2.34302e-05
-1.96838e-20
2.34302e-05
-1.32711e-19
2.34302e-05
-2.4765e-20
2.34302e-05
-1.36416e-19
2.34302e-05
2.66525e-19
2.34302e-05
-1.85848e-20
2.34302e-05
-5.13225e-20
2.34302e-05
9.02911e-20
2.34302e-05
-1.87792e-19
2.34302e-05
1.03917e-19
2.34302e-05
2.62809e-20
2.34302e-05
-2.07313e-20
2.34302e-05
2.67058e-20
2.34302e-05
-1.11108e-19
2.34302e-05
1.72759e-19
2.34302e-05
7.15837e-21
2.34302e-05
-4.21701e-20
2.34302e-05
2.80585e-21
2.34302e-05
-1.3319e-19
2.34302e-05
1.19801e-19
2.34302e-05
1.05985e-20
2.34302e-05
1.91253e-21
2.34302e-05
8.04084e-21
2.34302e-05
-1.45127e-19
2.34302e-05
1.0634e-19
2.34302e-05
9.76859e-21
2.34302e-05
-4.89907e-20
2.34302e-05
7.59975e-20
2.34302e-05
-1.27278e-19
2.34302e-05
5.51717e-20
2.34302e-05
3.34184e-20
2.34302e-05
-3.78249e-20
2.34302e-05
4.22631e-20
2.34302e-05
-1.18051e-19
2.34302e-05
5.44887e-20
2.34302e-05
1.07298e-19
2.34302e-05
-1.05096e-20
2.34302e-05
-8.96904e-20
2.34302e-05
-1.06741e-19
2.34302e-05
1.45872e-19
2.34302e-05
1.89082e-20
2.34302e-05
-5.92762e-20
2.34302e-05
-3.46927e-20
2.34302e-05
-4.41163e-20
2.34302e-05
1.38378e-19
2.34302e-05
-2.76006e-21
2.34302e-05
-2.29772e-20
2.34302e-05
-8.1977e-20
2.34302e-05
-4.42385e-20
2.34302e-05
1.55677e-19
2.34302e-05
4.17087e-20
2.34302e-05
5.81146e-20
2.34302e-05
-1.16789e-19
2.34302e-05
-9.81003e-20
2.34302e-05
8.8982e-20
2.34302e-05
4.46495e-21
2.34302e-05
6.90732e-20
2.34302e-05
-1.21015e-19
2.34302e-05
5.33315e-21
2.34302e-05
6.34799e-20
2.34302e-05
-1.11129e-19
2.34302e-05
1.00952e-19
2.34302e-05
-2.23147e-20
2.34302e-05
-7.86687e-20
2.34302e-05
5.41925e-20
2.34302e-05
-6.13999e-20
2.34302e-05
1.18306e-19
2.34302e-05
1.06984e-20
-1.63026e-19
6.9119e-05
-2.9888e-19
6.9119e-05
-1.18422e-19
6.9119e-05
-3.30192e-20
6.9119e-05
-1.01624e-20
6.9119e-05
1.25169e-20
6.9119e-05
2.21401e-20
6.9119e-05
-1.03831e-20
6.9119e-05
2.05935e-20
6.9119e-05
4.4357e-20
6.9119e-05
1.34688e-20
6.9119e-05
2.48764e-20
6.9119e-05
6.03044e-20
6.9119e-05
9.4891e-20
6.9119e-05
3.01058e-20
6.9119e-05
-4.48235e-20
6.9119e-05
4.66354e-20
6.9119e-05
5.11349e-20
6.9119e-05
6.09031e-20
6.9119e-05
2.76532e-20
6.9119e-05
4.28333e-20
6.9119e-05
6.39508e-20
6.9119e-05
3.68779e-21
6.9119e-05
-5.63504e-20
6.9119e-05
-4.96068e-20
6.9119e-05
-5.71809e-20
6.9119e-05
-1.49217e-20
6.9119e-05
2.84028e-20
6.9119e-05
-6.39988e-20
6.9119e-05
-1.08284e-19
6.9119e-05
-8.85412e-20
6.9119e-05
-1.11878e-20
6.9119e-05
5.49246e-20
6.9119e-05
-1.19675e-20
6.9119e-05
-4.49528e-20
6.9119e-05
-3.07699e-20
6.9119e-05
6.76171e-21
6.9119e-05
6.44536e-20
6.9119e-05
-2.27735e-20
6.9119e-05
-6.85312e-20
6.9119e-05
1.25939e-20
6.9119e-05
-2.25836e-20
6.9119e-05
1.49976e-20
6.9119e-05
2.77802e-20
6.9119e-05
-6.34228e-20
6.9119e-05
-2.15943e-21
6.9119e-05
-3.66253e-21
6.9119e-05
-1.90154e-20
6.9119e-05
-3.47614e-20
6.9119e-05
-6.83878e-20
6.9119e-05
-4.02669e-20
6.9119e-05
-7.00211e-20
6.9119e-05
-1.91182e-20
6.9119e-05
-5.19464e-20
6.9119e-05
-4.96018e-20
6.9119e-05
-2.9064e-21
6.9119e-05
-1.03591e-19
6.9119e-05
-1.71725e-20
6.9119e-05
-6.75418e-21
6.9119e-05
6.73053e-21
6.9119e-05
4.53594e-20
6.9119e-05
-1.21271e-19
6.9119e-05
9.61446e-20
6.9119e-05
5.51611e-21
6.9119e-05
2.68059e-20
6.9119e-05
1.52925e-19
6.9119e-05
-3.82897e-20
6.9119e-05
7.63928e-20
6.9119e-05
5.54837e-20
6.9119e-05
5.67402e-20
6.9119e-05
7.4875e-20
6.9119e-05
-4.72107e-20
6.9119e-05
-7.90795e-21
6.9119e-05
-4.73318e-20
6.9119e-05
-4.41128e-22
6.9119e-05
9.72179e-20
6.9119e-05
-1.11293e-19
6.9119e-05
-1.14257e-19
6.9119e-05
8.69656e-21
6.9119e-05
-5.62065e-20
6.9119e-05
3.99091e-20
6.9119e-05
-5.57149e-20
6.9119e-05
-1.74403e-19
6.9119e-05
7.64236e-21
6.9119e-05
8.08505e-20
6.9119e-05
1.10881e-19
6.9119e-05
-4.23725e-21
6.9119e-05
-1.31506e-20
6.9119e-05
-3.88818e-21
6.9119e-05
7.08275e-20
6.9119e-05
1.94725e-19
6.9119e-05
-4.99832e-20
6.9119e-05
-1.187e-19
6.9119e-05
4.69686e-20
6.9119e-05
9.62417e-20
6.9119e-05
4.64304e-20
6.9119e-05
-7.65171e-20
6.9119e-05
2.29642e-20
6.9119e-05
-8.23978e-21
6.9119e-05
4.03073e-20
6.9119e-05
2.44738e-20
6.9119e-05
-8.82617e-20
6.9119e-05
-5.43187e-22
6.9119e-05
-7.1211e-20
6.9119e-05
2.52865e-20
6.9119e-05
9.62754e-20
6.9119e-05
8.59391e-20
6.9119e-05
-8.42262e-20
6.9119e-05
-3.1405e-20
6.9119e-05
2.16306e-19
6.9119e-05
1.67502e-19
6.9119e-05
1.51671e-20
6.9119e-05
-3.14136e-19
6.9119e-05
4.5402e-20
6.9119e-05
2.68343e-19
6.9119e-05
9.16321e-20
6.9119e-05
-3.47593e-20
6.9119e-05
-2.53763e-19
6.9119e-05
-3.51489e-20
6.9119e-05
2.6597e-19
6.9119e-05
8.85613e-20
6.9119e-05
-1.90405e-19
6.9119e-05
-2.92474e-19
6.9119e-05
-3.85711e-20
6.9119e-05
3.25761e-19
6.9119e-05
1.64211e-19
6.9119e-05
-1.64218e-19
6.9119e-05
-3.0491e-19
6.9119e-05
6.99335e-20
6.9119e-05
3.11165e-19
6.9119e-05
3.68779e-20
6.9119e-05
-1.20534e-19
6.9119e-05
-1.85395e-19
6.9119e-05
5.2656e-20
6.9119e-05
2.02852e-19
6.9119e-05
-3.29853e-20
6.9119e-05
-1.13383e-19
6.9119e-05
-2.40265e-19
6.9119e-05
-6.08046e-20
6.9119e-05
1.97434e-19
6.9119e-05
-3.34887e-22
6.9119e-05
-1.19635e-19
6.9119e-05
-1.65227e-19
6.9119e-05
4.05546e-20
6.9119e-05
1.19549e-19
6.9119e-05
-4.42344e-20
6.9119e-05
-5.11365e-20
6.9119e-05
-1.48384e-19
6.9119e-05
7.51738e-20
6.9119e-05
2.85916e-20
6.9119e-05
-4.15008e-20
6.9119e-05
1.06316e-19
6.9119e-05
-1.63894e-19
6.9119e-05
-1.33059e-19
6.9119e-05
8.19226e-20
6.9119e-05
1.41106e-19
6.9119e-05
1.25611e-19
6.9119e-05
-9.27774e-20
6.9119e-05
-1.12959e-19
6.9119e-05
1.16146e-19
6.9119e-05
1.55428e-19
6.9119e-05
1.68202e-19
6.9119e-05
-1.95571e-19
6.9119e-05
-2.77701e-20
6.9119e-05
2.36183e-19
6.9119e-05
-1.28026e-19
6.9119e-05
9.42325e-20
6.9119e-05
9.58672e-20
6.9119e-05
9.19236e-21
6.9119e-05
1.86694e-19
6.9119e-05
7.76331e-20
6.9119e-05
2.1554e-21
6.9119e-05
-1.41408e-19
6.9119e-05
6.79313e-20
6.9119e-05
1.74985e-19
6.9119e-05
-2.34627e-20
6.9119e-05
-1.32004e-19
6.9119e-05
-1.49351e-19
6.9119e-05
1.42501e-19
6.9119e-05
-5.44154e-20
6.9119e-05
1.79466e-20
6.9119e-05
1.19859e-19
6.9119e-05
-3.51789e-19
6.9119e-05
-2.0629e-20
6.9119e-05
1.6317e-19
6.9119e-05
-4.04076e-21
6.9119e-05
1.4927e-19
6.9119e-05
-1.90208e-19
6.9119e-05
-3.60504e-20
6.9119e-05
1.9286e-19
6.9119e-05
-1.08993e-19
6.9119e-05
1.41866e-20
6.9119e-05
-5.62356e-20
6.9119e-05
-1.28488e-19
6.9119e-05
1.76816e-19
6.9119e-05
5.20447e-20
6.9119e-05
4.2318e-20
6.9119e-05
-1.24026e-19
6.9119e-05
-6.65064e-20
6.9119e-05
1.67057e-19
6.9119e-05
-1.04546e-19
6.9119e-05
-3.59197e-20
6.9119e-05
-1.24549e-19
6.9119e-05
5.40779e-20
6.9119e-05
2.16389e-19
6.9119e-05
-1.15409e-19
6.9119e-05
-1.85817e-19
6.9119e-05
-1.34595e-19
6.9119e-05
1.1838e-19
6.9119e-05
1.3763e-19
6.9119e-05
-7.45786e-21
6.9119e-05
-7.66897e-20
6.9119e-05
-1.93194e-19
6.9119e-05
4.35426e-19
6.9119e-05
3.283e-20
6.9119e-05
-3.83657e-19
6.9119e-05
3.6912e-19
6.9119e-05
-2.05455e-20
6.9119e-05
-4.87313e-20
6.9119e-05
-1.00525e-19
6.9119e-05
-3.22833e-19
6.9119e-05
5.01761e-19
6.9119e-05
4.53893e-20
6.9119e-05
-1.57737e-19
6.9119e-05
-7.31062e-20
6.9119e-05
-3.32691e-19
6.9119e-05
4.68881e-19
6.9119e-05
2.5764e-20
6.9119e-05
-1.85339e-19
6.9119e-05
1.11111e-19
6.9119e-05
-1.39826e-19
6.9119e-05
4.11375e-19
6.9119e-05
-4.58476e-21
6.9119e-05
-5.96513e-20
6.9119e-05
9.93249e-20
6.9119e-05
-3.59344e-19
6.9119e-05
1.38367e-19
6.9119e-05
5.1611e-20
6.9119e-05
2.41814e-19
6.9119e-05
2.47283e-19
6.9119e-05
-4.07793e-19
6.9119e-05
1.74968e-19
6.9119e-05
-8.79818e-20
6.9119e-05
1.00275e-19
6.9119e-05
2.34752e-19
6.9119e-05
-5.94275e-19
6.9119e-05
7.46295e-20
6.9119e-05
1.49166e-19
6.9119e-05
1.71367e-19
6.9119e-05
5.05921e-20
6.9119e-05
-4.27485e-19
6.9119e-05
4.14967e-19
6.9119e-05
-5.15306e-20
6.9119e-05
-3.44514e-19
6.9119e-05
-1.89429e-19
6.9119e-05
-2.42022e-19
6.9119e-05
6.43273e-19
6.9119e-05
-2.12513e-20
6.9119e-05
-1.2191e-19
6.9119e-05
1.6884e-19
6.9119e-05
-3.95394e-19
6.9119e-05
2.06908e-19
6.9119e-05
6.03125e-20
6.9119e-05
1.43326e-20
6.9119e-05
4.53617e-20
6.9119e-05
-2.24801e-19
6.9119e-05
4.17378e-19
6.9119e-05
1.03768e-20
6.9119e-05
-6.59153e-20
6.9119e-05
-1.04737e-20
6.9119e-05
-3.3025e-19
6.9119e-05
2.77232e-19
6.9119e-05
2.99436e-20
6.9119e-05
2.6635e-20
6.9119e-05
-1.5292e-20
6.9119e-05
-3.73587e-19
6.9119e-05
2.60201e-19
6.9119e-05
-4.34343e-21
6.9119e-05
-5.66225e-20
6.9119e-05
1.34128e-19
6.9119e-05
-3.63919e-19
6.9119e-05
1.7765e-19
6.9119e-05
4.72789e-20
6.9119e-05
-2.24499e-20
6.9119e-05
9.07312e-20
6.9119e-05
-3.51208e-19
6.9119e-05
2.11878e-19
6.9119e-05
2.2631e-19
6.9119e-05
-7.74031e-20
6.9119e-05
-1.89391e-19
6.9119e-05
-2.35388e-19
6.9119e-05
3.20877e-19
6.9119e-05
2.20565e-20
6.9119e-05
-1.67233e-19
6.9119e-05
-2.16434e-20
6.9119e-05
-1.1735e-19
6.9119e-05
2.68517e-19
6.9119e-05
1.12911e-19
6.9119e-05
-1.51159e-19
6.9119e-05
-1.33535e-19
6.9119e-05
-1.23307e-19
6.9119e-05
3.32801e-19
6.9119e-05
2.35034e-19
6.9119e-05
7.31249e-20
6.9119e-05
-2.72169e-19
6.9119e-05
-2.36092e-19
6.9119e-05
2.45272e-19
6.9119e-05
4.53796e-20
6.9119e-05
5.82214e-20
6.9119e-05
-2.58596e-19
6.9119e-05
-9.9711e-21
6.9119e-05
1.57724e-19
6.9119e-05
-2.26601e-19
6.9119e-05
1.62336e-19
6.9119e-05
-2.45844e-20
6.9119e-05
-2.00434e-19
6.9119e-05
4.9285e-20
6.9119e-05
-1.3018e-19
6.9119e-05
2.40286e-19
6.9119e-05
-1.38566e-20
-3.20772e-19
0.000113636
-3.15348e-19
0.000113636
-1.58675e-19
0.000113636
-9.23676e-20
0.000113636
-3.83439e-20
0.000113636
-1.39639e-20
0.000113636
3.40795e-20
0.000113636
4.38162e-20
0.000113636
3.39179e-20
0.000113636
8.55147e-20
0.000113636
7.36983e-20
0.000113636
4.25315e-20
0.000113636
1.01295e-19
0.000113636
1.66564e-19
0.000113636
6.50102e-20
0.000113636
-3.34109e-20
0.000113636
6.95434e-20
0.000113636
1.13168e-19
0.000113636
1.02777e-19
0.000113636
5.22373e-20
0.000113636
9.54086e-20
0.000113636
9.33379e-20
0.000113636
-3.29967e-21
0.000113636
-9.28991e-20
0.000113636
-8.10947e-20
0.000113636
-9.02782e-20
0.000113636
-3.5622e-20
0.000113636
-2.00835e-20
0.000113636
-1.12909e-19
0.000113636
-2.05175e-19
0.000113636
-1.59048e-19
0.000113636
-5.18054e-22
0.000113636
9.27931e-20
0.000113636
-1.72602e-20
0.000113636
-7.93801e-20
0.000113636
-3.26823e-20
0.000113636
3.20188e-21
0.000113636
7.21922e-20
0.000113636
-3.10471e-20
0.000113636
-1.17419e-19
0.000113636
-1.2734e-20
0.000113636
-2.63049e-20
0.000113636
2.06892e-20
0.000113636
4.75693e-20
0.000113636
-9.76443e-20
0.000113636
-4.22232e-20
0.000113636
-3.32176e-21
0.000113636
-2.10393e-20
0.000113636
-6.60567e-20
0.000113636
-1.14048e-19
0.000113636
-9.8019e-20
0.000113636
-1.62982e-19
0.000113636
-9.08527e-20
0.000113636
-7.61288e-20
0.000113636
-8.83005e-20
0.000113636
-2.07504e-20
0.000113636
-1.50735e-19
0.000113636
-5.26615e-20
0.000113636
-2.40116e-20
0.000113636
-2.60569e-21
0.000113636
6.92208e-20
0.000113636
-1.48405e-19
0.000113636
1.14447e-19
0.000113636
2.84979e-20
0.000113636
4.95783e-20
0.000113636
2.15868e-19
0.000113636
-4.51146e-20
0.000113636
1.64518e-19
0.000113636
1.29372e-19
0.000113636
1.28206e-19
0.000113636
1.32563e-19
0.000113636
-7.71677e-20
0.000113636
-2.24934e-20
0.000113636
-5.31704e-20
0.000113636
2.18528e-20
0.000113636
9.67362e-20
0.000113636
-1.97854e-19
0.000113636
-1.81798e-19
0.000113636
-4.35231e-20
0.000113636
-1.13146e-19
0.000113636
2.70066e-20
0.000113636
-9.69387e-20
0.000113636
-2.41339e-19
0.000113636
2.15798e-20
0.000113636
1.56454e-19
0.000113636
1.65174e-19
0.000113636
8.72768e-21
0.000113636
-2.11613e-20
0.000113636
3.18496e-20
0.000113636
1.27675e-19
0.000113636
2.93507e-19
0.000113636
-4.29358e-20
0.000113636
-1.40612e-19
0.000113636
6.36234e-20
0.000113636
1.08442e-19
0.000113636
8.39066e-20
0.000113636
-1.02459e-19
0.000113636
3.92988e-20
0.000113636
3.20644e-21
0.000113636
1.8141e-20
0.000113636
1.44588e-20
0.000113636
-8.19811e-20
0.000113636
-4.4009e-20
0.000113636
-9.03123e-20
0.000113636
1.91602e-20
0.000113636
1.76447e-19
0.000113636
1.90895e-19
0.000113636
-1.0573e-19
0.000113636
-6.80936e-20
0.000113636
3.39861e-19
0.000113636
3.34558e-19
0.000113636
-1.4738e-20
0.000113636
-4.50439e-19
0.000113636
6.20662e-20
0.000113636
4.25353e-19
0.000113636
2.26192e-19
0.000113636
-3.0875e-20
0.000113636
-3.95345e-19
0.000113636
-1.04613e-19
0.000113636
4.08167e-19
0.000113636
1.68183e-19
0.000113636
-3.60175e-19
0.000113636
-5.2049e-19
0.000113636
-3.41036e-20
0.000113636
5.23379e-19
0.000113636
2.97467e-19
0.000113636
-2.39338e-19
0.000113636
-4.77848e-19
0.000113636
1.3261e-19
0.000113636
4.82277e-19
0.000113636
5.75345e-20
0.000113636
-1.7351e-19
0.000113636
-2.5537e-19
0.000113636
2.90479e-20
0.000113636
3.10066e-19
0.000113636
-2.7991e-20
0.000113636
-2.32358e-19
0.000113636
-3.75432e-19
0.000113636
-1.29857e-19
0.000113636
2.96738e-19
0.000113636
1.41956e-20
0.000113636
-2.35777e-19
0.000113636
-3.16366e-19
0.000113636
6.31354e-20
0.000113636
1.80344e-19
0.000113636
-7.74286e-20
0.000113636
-9.95968e-20
0.000113636
-2.82249e-19
0.000113636
1.28603e-19
0.000113636
5.71195e-20
0.000113636
-1.00325e-19
0.000113636
1.25859e-19
0.000113636
-2.31497e-19
0.000113636
-1.84356e-19
0.000113636
8.9225e-20
0.000113636
1.9847e-19
0.000113636
2.11915e-19
0.000113636
-1.193e-19
0.000113636
-1.81456e-19
0.000113636
1.99192e-19
0.000113636
2.92531e-19
0.000113636
2.55969e-19
0.000113636
-2.38311e-19
0.000113636
1.0962e-20
0.000113636
3.38347e-19
0.000113636
-1.136e-19
0.000113636
1.59061e-19
0.000113636
1.78709e-19
0.000113636
1.57421e-19
0.000113636
2.50858e-19
0.000113636
1.11171e-19
0.000113636
2.53481e-20
0.000113636
-2.12586e-19
0.000113636
1.33148e-19
0.000113636
2.9565e-19
0.000113636
-4.99285e-20
0.000113636
-2.29978e-19
0.000113636
-2.46902e-19
0.000113636
8.13935e-20
0.000113636
-3.16916e-20
0.000113636
1.66958e-19
0.000113636
8.59604e-20
0.000113636
-5.42086e-19
0.000113636
-4.91627e-20
0.000113636
2.41474e-19
0.000113636
5.58011e-20
0.000113636
1.5058e-19
0.000113636
-2.56463e-19
0.000113636
-3.70607e-20
0.000113636
2.5419e-19
0.000113636
-1.14894e-19
0.000113636
-6.9063e-20
0.000113636
-8.372e-20
0.000113636
-1.13813e-19
0.000113636
2.27723e-19
0.000113636
1.5154e-19
0.000113636
5.97028e-20
0.000113636
-1.72772e-19
0.000113636
-8.92181e-20
0.000113636
1.24278e-19
0.000113636
-8.19889e-20
0.000113636
-9.41929e-20
0.000113636
-1.58341e-19
0.000113636
9.77811e-20
0.000113636
2.31687e-19
0.000113636
-1.22762e-19
0.000113636
-2.51548e-19
0.000113636
-2.47812e-19
0.000113636
1.30174e-19
0.000113636
1.49986e-19
0.000113636
6.1566e-21
0.000113636
-1.74757e-20
0.000113636
-2.8275e-19
0.000113636
5.75408e-19
0.000113636
9.44015e-20
0.000113636
-4.40034e-19
0.000113636
4.46503e-19
0.000113636
-6.57754e-20
0.000113636
2.17687e-20
0.000113636
-1.91336e-19
0.000113636
-4.82524e-19
0.000113636
6.72611e-19
0.000113636
7.12261e-20
0.000113636
-1.32361e-19
0.000113636
-1.24812e-19
0.000113636
-5.14224e-19
0.000113636
6.27376e-19
0.000113636
8.86088e-20
0.000113636
-2.15171e-19
0.000113636
1.53561e-19
0.000113636
-1.6996e-19
0.000113636
6.3139e-19
0.000113636
6.93131e-20
0.000113636
-1.22874e-19
0.000113636
1.19025e-19
0.000113636
-4.61336e-19
0.000113636
1.6036e-19
0.000113636
6.28788e-20
0.000113636
4.59206e-19
0.000113636
4.2406e-19
0.000113636
-5.38499e-19
0.000113636
2.20874e-19
0.000113636
-1.41716e-19
0.000113636
1.7033e-19
0.000113636
2.79664e-19
0.000113636
-8.56485e-19
0.000113636
1.27629e-19
0.000113636
1.61901e-19
0.000113636
2.3739e-19
0.000113636
8.51257e-20
0.000113636
-5.76361e-19
0.000113636
5.94377e-19
0.000113636
-1.06499e-19
0.000113636
-6.02175e-19
0.000113636
-3.72319e-19
0.000113636
-2.76951e-19
0.000113636
9.53164e-19
0.000113636
6.8337e-21
0.000113636
-1.5017e-19
0.000113636
2.17419e-19
0.000113636
-5.52322e-19
0.000113636
2.62038e-19
0.000113636
5.33602e-20
0.000113636
9.27713e-20
0.000113636
4.33999e-20
0.000113636
-3.06755e-19
0.000113636
6.22146e-19
0.000113636
2.28411e-21
0.000113636
-3.87449e-20
0.000113636
-4.79301e-20
0.000113636
-5.20801e-19
0.000113636
4.37708e-19
0.000113636
4.43098e-20
0.000113636
2.48461e-20
0.000113636
-5.58798e-20
0.000113636
-5.77744e-19
0.000113636
4.26356e-19
0.000113636
-4.10483e-20
0.000113636
-4.72509e-21
0.000113636
1.40986e-19
0.000113636
-6.177e-19
0.000113636
2.98227e-19
0.000113636
2.45421e-20
0.000113636
-2.06446e-20
0.000113636
1.37874e-19
0.000113636
-5.30181e-19
0.000113636
3.84636e-19
0.000113636
3.35566e-19
0.000113636
-1.74593e-19
0.000113636
-2.94097e-19
0.000113636
-3.6861e-19
0.000113636
4.74681e-19
0.000113636
4.16058e-20
0.000113636
-2.56382e-19
0.000113636
1.20837e-20
0.000113636
-2.03163e-19
0.000113636
3.78485e-19
0.000113636
2.29337e-19
0.000113636
-2.57809e-19
0.000113636
-1.41803e-19
0.000113636
-1.95077e-19
0.000113636
4.93839e-19
0.000113636
4.57457e-19
0.000113636
5.25798e-20
0.000113636
-3.93945e-19
0.000113636
-3.54098e-19
0.000113636
3.89246e-19
0.000113636
4.90397e-20
0.000113636
-1.3824e-20
0.000113636
-3.35059e-19
0.000113636
-8.60681e-20
0.000113636
2.73749e-19
0.000113636
-3.09385e-19
0.000113636
9.62842e-20
0.000113636
4.91045e-20
0.000113636
-3.1486e-19
0.000113636
-1.85071e-20
0.000113636
-1.78646e-19
0.000113636
3.09229e-19
0.000113636
-2.20195e-20
-4.49679e-19
0.000156982
-3.20897e-19
0.000156982
-2.14139e-19
0.000156982
-1.11869e-19
0.000156982
-4.36968e-20
0.000156982
-4.38497e-20
0.000156982
2.86004e-20
0.000156982
5.80987e-20
0.000156982
1.13089e-19
0.000156982
1.14589e-19
0.000156982
5.45312e-20
0.000156982
8.36701e-20
0.000156982
1.49686e-19
0.000156982
2.41333e-19
0.000156982
1.13277e-19
0.000156982
2.07775e-21
0.000156982
1.03869e-19
0.000156982
2.14106e-19
0.000156982
1.83203e-19
0.000156982
1.27602e-19
0.000156982
3.9683e-20
0.000156982
1.40174e-19
0.000156982
1.5944e-20
0.000156982
-1.40051e-19
0.000156982
-1.10698e-19
0.000156982
-1.09589e-19
0.000156982
-1.1883e-19
0.000156982
-5.23033e-20
0.000156982
-2.09011e-19
0.000156982
-3.05701e-19
0.000156982
-2.26644e-19
0.000156982
7.43858e-21
0.000156982
8.80948e-20
0.000156982
-1.94263e-20
0.000156982
-7.85494e-20
0.000156982
-6.19762e-20
0.000156982
-3.43205e-20
0.000156982
5.19753e-20
0.000156982
-4.63518e-20
0.000156982
-1.43961e-19
0.000156982
-3.64243e-20
0.000156982
-3.34208e-20
0.000156982
2.30542e-20
0.000156982
7.20369e-21
0.000156982
-1.40288e-19
0.000156982
-3.73007e-20
0.000156982
7.29769e-21
0.000156982
-3.27414e-20
0.000156982
-1.03886e-19
0.000156982
-1.96403e-19
0.000156982
-2.14451e-19
0.000156982
-2.61386e-19
0.000156982
-1.47247e-19
0.000156982
-1.5064e-19
0.000156982
-1.3015e-19
0.000156982
-4.49191e-20
0.000156982
-2.21834e-19
0.000156982
-9.70629e-20
0.000156982
-6.55921e-20
0.000156982
-4.02123e-20
0.000156982
7.68149e-20
0.000156982
-1.86695e-19
0.000156982
1.47969e-19
0.000156982
4.95764e-20
0.000156982
1.17223e-19
0.000156982
2.90421e-19
0.000156982
1.42684e-20
0.000156982
2.35682e-19
0.000156982
1.93504e-19
0.000156982
1.80527e-19
0.000156982
2.126e-19
0.000156982
-5.01213e-20
0.000156982
-3.45813e-20
0.000156982
-6.38608e-20
0.000156982
3.4585e-20
0.000156982
9.89172e-20
0.000156982
-3.16227e-19
0.000156982
-2.64233e-19
0.000156982
-9.92414e-20
0.000156982
-1.81865e-19
0.000156982
-2.82015e-20
0.000156982
-1.57781e-19
0.000156982
-3.06025e-19
0.000156982
4.25771e-20
0.000156982
2.74203e-19
0.000156982
2.32997e-19
0.000156982
7.52476e-21
0.000156982
3.3278e-20
0.000156982
1.18127e-19
0.000156982
1.47798e-19
0.000156982
3.46396e-19
0.000156982
2.11431e-20
0.000156982
-1.38226e-19
0.000156982
4.10587e-20
0.000156982
1.45295e-19
0.000156982
1.14786e-19
0.000156982
-7.57773e-20
0.000156982
2.61072e-20
0.000156982
1.26826e-20
0.000156982
-8.40656e-21
0.000156982
-5.92848e-21
0.000156982
-9.65431e-20
0.000156982
-5.42162e-20
0.000156982
-1.34318e-19
0.000156982
7.46312e-20
0.000156982
2.57207e-19
0.000156982
2.60519e-19
0.000156982
-8.44094e-20
0.000156982
-6.92366e-20
0.000156982
4.51756e-19
0.000156982
4.62502e-19
0.000156982
1.22558e-20
0.000156982
-5.12248e-19
0.000156982
6.68912e-20
0.000156982
5.42934e-19
0.000156982
3.61255e-19
0.000156982
-2.74993e-20
0.000156982
-4.89168e-19
0.000156982
-1.57789e-19
0.000156982
4.92093e-19
0.000156982
1.43156e-19
0.000156982
-5.11964e-19
0.000156982
-6.67393e-19
0.000156982
-9.15687e-20
0.000156982
6.78725e-19
0.000156982
4.59861e-19
0.000156982
-2.89943e-19
0.000156982
-5.87782e-19
0.000156982
1.81149e-19
0.000156982
6.22544e-19
0.000156982
7.77446e-20
0.000156982
-2.47844e-19
0.000156982
-3.44471e-19
0.000156982
1.92502e-20
0.000156982
3.77109e-19
0.000156982
-1.91723e-20
0.000156982
-3.09206e-19
0.000156982
-5.12629e-19
0.000156982
-1.88007e-19
0.000156982
3.30801e-19
0.000156982
2.81918e-20
0.000156982
-3.80324e-19
0.000156982
-4.47442e-19
0.000156982
3.84596e-20
0.000156982
1.43047e-19
0.000156982
-4.54604e-20
0.000156982
-1.53811e-19
0.000156982
-3.43143e-19
0.000156982
7.09164e-20
0.000156982
6.17987e-20
0.000156982
-1.06835e-19
0.000156982
1.72285e-19
0.000156982
-2.24536e-19
0.000156982
-2.74763e-19
0.000156982
7.1429e-20
0.000156982
2.38194e-19
0.000156982
2.2861e-19
0.000156982
-1.34168e-19
0.000156982
-1.27038e-19
0.000156982
2.80504e-19
0.000156982
3.98904e-19
0.000156982
3.02909e-19
0.000156982
-2.11088e-19
0.000156982
7.70625e-20
0.000156982
4.31464e-19
0.000156982
-3.77101e-20
0.000156982
2.35431e-19
0.000156982
3.05174e-19
0.000156982
3.0538e-19
0.000156982
3.5345e-19
0.000156982
1.58658e-19
0.000156982
3.41997e-20
0.000156982
-3.0516e-19
0.000156982
2.00774e-19
0.000156982
4.4734e-19
0.000156982
-1.53376e-19
0.000156982
-3.07141e-19
0.000156982
-2.72851e-19
0.000156982
-5.724e-21
0.000156982
-4.46595e-20
0.000156982
2.73723e-19
0.000156982
6.22468e-20
0.000156982
-7.09016e-19
0.000156982
-1.05147e-19
0.000156982
3.04186e-19
0.000156982
1.43756e-19
0.000156982
1.35237e-19
0.000156982
-3.02646e-19
0.000156982
3.38322e-21
0.000156982
3.30038e-19
0.000156982
-1.74266e-19
0.000156982
-1.6306e-19
0.000156982
-8.57047e-20
0.000156982
-4.74363e-20
0.000156982
2.482e-19
0.000156982
2.27419e-19
0.000156982
1.15715e-19
0.000156982
-2.15369e-19
0.000156982
-1.69511e-19
0.000156982
1.45781e-19
0.000156982
-6.69522e-20
0.000156982
-1.65103e-19
0.000156982
-1.95048e-19
0.000156982
1.27861e-19
0.000156982
2.0361e-19
0.000156982
-1.41491e-19
0.000156982
-3.44357e-19
0.000156982
-3.15505e-19
0.000156982
1.0159e-19
0.000156982
1.74252e-19
0.000156982
9.84158e-20
0.000156982
1.57743e-20
0.000156982
-2.65273e-19
0.000156982
5.94469e-19
0.000156982
1.05062e-19
0.000156982
-4.52856e-19
0.000156982
4.92974e-19
0.000156982
-9.73196e-20
0.000156982
4.091e-20
0.000156982
-2.13073e-19
0.000156982
-5.45071e-19
0.000156982
7.53952e-19
0.000156982
5.7473e-20
0.000156982
-1.01849e-19
0.000156982
-8.38948e-20
0.000156982
-6.26285e-19
0.000156982
6.84254e-19
0.000156982
1.44595e-19
0.000156982
-1.91003e-19
0.000156982
1.89848e-19
0.000156982
-1.28419e-19
0.000156982
7.91698e-19
0.000156982
1.49957e-19
0.000156982
-1.52434e-19
0.000156982
1.01778e-19
0.000156982
-5.01019e-19
0.000156982
2.02862e-19
0.000156982
9.02606e-20
0.000156982
6.18245e-19
0.000156982
5.57186e-19
0.000156982
-5.91829e-19
0.000156982
1.9276e-19
0.000156982
-1.82482e-19
0.000156982
2.90267e-19
0.000156982
3.23008e-19
0.000156982
-1.06847e-18
0.000156982
5.92523e-20
0.000156982