/*--------------------------------*- C++ -*----------------------------------*\
| =========                 |                                                 |
| \\      /  F ield         | OpenFOAM: The Open Source CFD Toolbox           |
|  \\    /   O peration     | Version:  2112                                  |
|   \\  /    A nd           | Website:  www.openfoam.com                      |
|    \\/     M anipulation  |                                                 |
\*---------------------------------------------------------------------------*/
FoamFile
{
    version     2.0;
    format      ascii;
    arch        "LSB;label=32;scalar=64";
    class       surfaceScalarField;
    location    "7";
    object      phi;
}
// * * * * * * * * * * * * * * * * * * * * * * * * * * * * * * * * * * * * * //

dimensions      [0 3 -1 0 0 0 0];

oriented        oriented;

internalField   nonuniform List<scalar> 
99400
(
3.018e-05
-1.15647e-17
3.018e-05
-2.13808e-18
3.018e-05
-4.87757e-19
3.018e-05
-1.65449e-19
3.018e-05
-7.40086e-20
3.018e-05
-4.45364e-20
3.018e-05
-2.33935e-20
3.018e-05
-1.09137e-20
3.018e-05
3.4883e-21
3.018e-05
-1.30907e-20
3.018e-05
-2.85851e-20
3.018e-05
-2.78465e-20
3.018e-05
-2.60407e-20
3.018e-05
-1.383e-20
3.018e-05
-2.29662e-21
3.018e-05
-1.47352e-20
3.018e-05
-4.46642e-20
3.018e-05
-2.35069e-20
3.018e-05
-1.16861e-20
3.018e-05
5.98419e-21
3.018e-05
2.36243e-21
3.018e-05
4.37851e-21
3.018e-05
2.03106e-20
3.018e-05
-3.83967e-21
3.018e-05
-2.69054e-20
3.018e-05
-4.494e-20
3.018e-05
-1.37845e-20
3.018e-05
2.63028e-20
3.018e-05
-2.97512e-20
3.018e-05
-8.85298e-21
3.018e-05
4.098e-21
3.018e-05
-2.83348e-20
3.018e-05
-1.89678e-20
3.018e-05
-1.75447e-20
3.018e-05
-3.83427e-20
3.018e-05
1.33481e-20
3.018e-05
-2.77155e-20
3.018e-05
-2.81916e-20
3.018e-05
-3.52869e-21
3.018e-05
-3.37643e-20
3.018e-05
3.65286e-21
3.018e-05
-3.3805e-20
3.018e-05
-1.27747e-20
3.018e-05
1.42605e-20
3.018e-05
-1.28004e-20
3.018e-05
2.20759e-20
3.018e-05
3.57439e-20
3.018e-05
-4.34573e-20
3.018e-05
-2.06989e-20
3.018e-05
4.59835e-20
3.018e-05
1.79259e-20
3.018e-05
1.56198e-21
3.018e-05
-3.24933e-20
3.018e-05
-1.20581e-21
3.018e-05
4.68884e-20
3.018e-05
-2.9605e-20
3.018e-05
2.61756e-20
3.018e-05
-1.21292e-20
3.018e-05
-5.5752e-20
3.018e-05
1.70419e-20
3.018e-05
-1.61139e-20
3.018e-05
-2.00111e-20
3.018e-05
-1.38895e-20
3.018e-05
2.53254e-20
3.018e-05
-8.78776e-21
3.018e-05
1.80787e-20
3.018e-05
-4.28608e-20
3.018e-05
-1.95667e-20
3.018e-05
5.04338e-20
3.018e-05
-3.29498e-21
3.018e-05
-1.28448e-20
3.018e-05
9.12724e-21
3.018e-05
6.30079e-20
3.018e-05
-2.61486e-20
3.018e-05
-4.66806e-20
3.018e-05
9.99915e-20
3.018e-05
3.16058e-20
3.018e-05
-6.55544e-20
3.018e-05
-2.36734e-20
3.018e-05
3.6507e-20
3.018e-05
6.24006e-21
3.018e-05
-3.82185e-20
3.018e-05
2.09051e-20
3.018e-05
7.0939e-21
3.018e-05
-3.56028e-20
3.018e-05
4.62839e-20
3.018e-05
4.85295e-21
3.018e-05
-2.45346e-20
3.018e-05
-7.66744e-21
3.018e-05
-8.00375e-21
3.018e-05
2.69936e-20
3.018e-05
2.04826e-20
3.018e-05
1.71316e-20
3.018e-05
1.19097e-20
3.018e-05
1.15352e-20
3.018e-05
-8.73408e-20
3.018e-05
1.26897e-20
3.018e-05
1.0229e-19
3.018e-05
-4.45903e-20
3.018e-05
-4.98968e-20
3.018e-05
6.02535e-20
3.018e-05
6.49399e-20
3.018e-05
-1.87724e-20
3.018e-05
-3.46816e-20
3.018e-05
3.04562e-20
3.018e-05
6.85187e-21
3.018e-05
-2.12506e-20
3.018e-05
-1.99523e-20
3.018e-05
3.96826e-20
3.018e-05
7.63143e-20
3.018e-05
-4.19618e-20
3.018e-05
-8.82601e-20
3.018e-05
-1.65562e-20
3.018e-05
1.05549e-19
3.018e-05
3.11951e-20
3.018e-05
-9.73323e-20
3.018e-05
-6.60047e-20
3.018e-05
7.07991e-20
3.018e-05
6.62753e-20
3.018e-05
-1.02247e-21
3.018e-05
-2.96234e-20
3.018e-05
1.04144e-20
3.018e-05
6.11839e-20
3.018e-05
-1.96436e-20
3.018e-05
-7.00733e-20
3.018e-05
6.75374e-20
3.018e-05
3.68761e-20
3.018e-05
-3.77819e-20
3.018e-05
2.84192e-20
3.018e-05
2.50932e-20
3.018e-05
1.48675e-20
3.018e-05
-8.12519e-22
3.018e-05
8.89835e-20
3.018e-05
-6.47236e-20
3.018e-05
-7.00444e-20
3.018e-05
6.96921e-20
3.018e-05
6.41118e-21
3.018e-05
-6.3725e-20
3.018e-05
7.16794e-20
3.018e-05
6.37231e-20
3.018e-05
-1.41817e-19
3.018e-05
-1.05037e-19
3.018e-05
8.58029e-20
3.018e-05
1.37497e-19
3.018e-05
-9.72248e-20
3.018e-05
-3.60044e-20
3.018e-05
1.76637e-19
3.018e-05
-5.48312e-20
3.018e-05
-1.13302e-19
3.018e-05
1.04857e-19
3.018e-05
-7.08696e-20
3.018e-05
-9.33331e-21
3.018e-05
1.29417e-19
3.018e-05
-1.52926e-19
3.018e-05
-3.50981e-20
3.018e-05
7.30724e-20
3.018e-05
-1.09641e-19
3.018e-05
-5.72543e-21
3.018e-05
1.23248e-20
3.018e-05
1.19381e-19
3.018e-05
4.87848e-20
3.018e-05
-2.41504e-20
3.018e-05
-1.33734e-20
3.018e-05
2.34289e-21
3.018e-05
-4.26882e-20
3.018e-05
-6.79912e-21
3.018e-05
7.85277e-20
3.018e-05
-1.37526e-19
3.018e-05
1.0891e-19
3.018e-05
1.29444e-19
3.018e-05
-1.58794e-19
3.018e-05
4.76913e-20
3.018e-05
1.21634e-19
3.018e-05
-9.22629e-20
3.018e-05
-5.84234e-20
3.018e-05
2.0843e-20
3.018e-05
1.15091e-19
3.018e-05
-1.60684e-20
3.018e-05
-6.34605e-20
3.018e-05
1.41219e-19
3.018e-05
-1.49237e-20
3.018e-05
-7.8281e-20
3.018e-05
1.04752e-20
3.018e-05
-6.63841e-20
3.018e-05
9.63132e-20
3.018e-05
-2.11428e-20
3.018e-05
-1.26733e-19
3.018e-05
-2.40001e-22
3.018e-05
-3.25334e-21
3.018e-05
-3.12667e-20
3.018e-05
-7.31978e-20
3.018e-05
-4.77797e-20
3.018e-05
-1.19433e-20
3.018e-05
1.54103e-19
3.018e-05
6.06611e-20
3.018e-05
-3.2788e-20
3.018e-05
8.64815e-20
3.018e-05
-9.40329e-21
3.018e-05
-1.8028e-19
3.018e-05
-5.47377e-20
3.018e-05
6.02752e-20
3.018e-05
-1.50358e-19
3.018e-05
1.29979e-19
3.018e-05
4.6677e-20
3.018e-05
4.45637e-20
3.018e-05
1.13118e-19
3.018e-05
-1.57511e-19
3.018e-05
-1.14467e-19
3.018e-05
4.09623e-20
3.018e-05
7.78635e-21
3.018e-05
3.80154e-20
3.018e-05
1.44027e-20
3.018e-05
-1.01595e-19
3.018e-05
1.07012e-19
3.018e-05
-9.24381e-20
3.018e-05
4.27581e-21
3.018e-05
-4.49583e-20
3.018e-05
-5.08343e-20
3.018e-05
1.33511e-19
3.018e-05
1.11837e-19
3.018e-05
-4.67599e-20
3.018e-05
-7.44768e-20
3.018e-05
5.04677e-20
3.018e-05
-6.90484e-20
3.018e-05
3.18833e-20
3.018e-05
-1.34808e-20
3.018e-05
-1.88803e-20
3.018e-05
7.66283e-20
3.018e-05
9.39938e-20
3.018e-05
-1.20741e-20
3.018e-05
-2.21839e-20
3.018e-05
-1.26131e-19
3.018e-05
-2.2869e-20
3.018e-05
4.53812e-20
3.018e-05
-9.8842e-20
3.018e-05
9.97493e-20
3.018e-05
3.51652e-20
3.018e-05
4.21685e-20
3.018e-05
-4.80166e-20
3.018e-05
7.6548e-21
3.018e-05
-4.23938e-21
3.018e-05
-1.09181e-19
3.018e-05
3.02773e-20
3.018e-05
1.79329e-19
3.018e-05
-5.14927e-20
3.018e-05
-4.99105e-20
3.018e-05
9.97718e-20
3.018e-05
-9.51018e-20
3.018e-05
4.93152e-21
3.018e-05
1.75279e-22
3.018e-05
-5.26868e-20
3.018e-05
-2.735e-20
3.018e-05
1.50581e-19
3.018e-05
-4.0406e-20
3.018e-05
-9.27135e-20
3.018e-05
9.5329e-20
3.018e-05
-2.99469e-20
3.018e-05
-9.33271e-20
3.018e-05
5.10571e-20
3.018e-05
-1.08753e-19
3.018e-05
4.83945e-20
3.018e-05
2.13612e-19
3.018e-05
-1.48039e-19
3.018e-05
9.1939e-20
3.018e-05
-1.71093e-19
3.018e-05
-1.56641e-19
3.018e-05
3.0459e-19
3.018e-05
-2.01343e-19
3.018e-05
-1.00139e-19
3.018e-05
4.73264e-19
3.018e-05
-2.02738e-19
3.018e-05
-1.49512e-19
3.018e-05
1.38334e-19
3.018e-05
-1.41275e-19
3.018e-05
1.38739e-19
3.018e-05
-1.15846e-19
3.018e-05
-4.94791e-20
3.018e-05
1.41273e-19
3.018e-05
1.08441e-19
3.018e-05
-7.08807e-20
3.018e-05
-8.29966e-20
3.018e-05
-9.78683e-20
3.018e-05
6.14104e-20
3.018e-05
1.93777e-19
3.018e-05
-2.40971e-19
3.018e-05
2.27124e-19
3.018e-05
3.3165e-20
3.018e-05
-2.71949e-19
3.018e-05
2.05462e-19
3.018e-05
7.55647e-20
3.018e-05
-2.7326e-19
3.018e-05
7.17091e-20
3.018e-05
6.4093e-20
3.018e-05
-1.72887e-19
3.018e-05
3.55301e-19
3.018e-05
7.66535e-20
3.018e-05
-3.54698e-19
3.018e-05
7.84446e-20
3.018e-05
-2.93843e-20
3.018e-05
-2.14906e-19
3.018e-05
2.70461e-19
3.018e-05
-1.22551e-19
3.018e-05
-1.01852e-19
3.018e-05
4.22923e-19
3.018e-05
-1.68422e-19
3.018e-05
-2.71093e-19
3.018e-05
2.29325e-19
3.018e-05
-1.47658e-19
3.018e-05
-1.6584e-19
3.018e-05
2.90043e-19
3.018e-05
8.08076e-20
3.018e-05
-2.58437e-19
3.018e-05
1.11682e-19
3.018e-05
6.94032e-20
3.018e-05
-1.49646e-19
3.018e-05
6.94484e-20
3.018e-05
-8.9646e-20
3.018e-05
-7.34734e-20
3.018e-05
-1.50024e-20
3.018e-05
1.48408e-19
3.018e-05
1.27351e-19
3.018e-05
-5.80087e-20
3.018e-05
-1.60203e-19
3.018e-05
-6.07962e-20
3.018e-05
2.07873e-19
3.018e-05
-8.34331e-20
3.018e-05
-9.76896e-20
3.018e-05
-4.30244e-20
3.018e-05
1.85981e-19
3.018e-05
1.81457e-19
3.018e-05
-3.37398e-19
3.018e-05
-2.15026e-22
3.018e-05
1.88751e-19
3.018e-05
-2.38622e-19
3.018e-05
1.31319e-19
3.018e-05
2.41267e-19
3.018e-05
-3.34755e-19
3.018e-05
2.82921e-19
3.018e-05
1.68326e-19
3.018e-05
-3.09802e-19
3.018e-05
6.3425e-20
3.018e-05
-4.12851e-20
3.018e-05
-1.27326e-19
3.018e-05
6.83055e-20
3.018e-05
1.73429e-19
3.018e-05
2.4371e-20
3.018e-05
-2.77913e-20
3.018e-05
-1.67789e-19
3.018e-05
-6.33059e-20
3.018e-05
1.496e-19
3.018e-05
-8.04554e-20
3.018e-05
-1.74835e-19
3.018e-05
7.58935e-20
3.018e-05
2.15534e-19
3.018e-05
2.32581e-20
3.018e-05
-5.06744e-20
3.018e-05
-2.00627e-19
3.018e-05
-9.32738e-20
3.018e-05
1.53162e-19
3.018e-05
-1.71299e-20
3.018e-05
1.98602e-19
3.018e-05
-1.81633e-19
3.018e-05
-1.20227e-20
3.018e-05
3.64518e-19
3.018e-05
-2.23903e-19
3.018e-05
-6.42527e-20
3.018e-05
1.20266e-20
3.018e-05
-5.09083e-20
3.018e-05
-7.85094e-20
3.018e-05
3.11392e-19
3.018e-05
7.40853e-20
3.018e-05
-2.08072e-19
3.018e-05
-4.97766e-20
3.018e-05
-2.9999e-20
3.018e-05
1.30246e-19
3.018e-05
-1.19385e-19
3.018e-05
6.39428e-20
3.018e-05
-1.31331e-19
3.018e-05
2.03635e-19
3.018e-05
5.10363e-20
3.018e-05
-1.82935e-19
3.018e-05
-6.92032e-20
3.018e-05
6.75448e-20
3.018e-05
4.07646e-20
3.018e-05
-1.13986e-19
3.018e-05
3.13984e-19
3.018e-05
-2.25984e-19
3.018e-05
6.22136e-20
3.018e-05
1.47779e-19
3.018e-05
-1.11416e-19
3.018e-05
-1.18333e-19
3.018e-05
9.08858e-20
3.018e-05
-2.18601e-20
3.018e-05
-2.16458e-19
3.018e-05
3.67394e-19
3.018e-05
2.04234e-19
3.018e-05
-2.15262e-19
3.018e-05
-1.47241e-19
3.018e-05
-5.93514e-20
3.018e-05
-4.42901e-20
3.018e-05
1.1496e-19
3.018e-05
3.75131e-19
3.018e-05
-2.93628e-19
3.018e-05
-1.75505e-19
3.018e-05
-9.66544e-20
3.018e-05
2.93012e-19
3.018e-05
2.73414e-19
3.018e-05
-5.24979e-19
3.018e-05
-9.42467e-20
3.018e-05
2.63227e-19
3.018e-05
3.35785e-19
3.018e-05
-3.9694e-19
3.018e-05
2.89534e-20
3.018e-05
1.24654e-19
3.018e-05
-9.52185e-20
3.018e-05
3.80017e-20
3.018e-05
-2.67158e-19
3.018e-05
3.84043e-20
3.018e-05
2.76426e-19
3.018e-05
1.40604e-19
3.018e-05
-3.71069e-19
3.018e-05
-1.43578e-19
3.018e-05
4.94946e-19
3.018e-05
-1.1502e-19
3.018e-05
-2.12044e-19
3.018e-05
3.67737e-20
3.018e-05
1.10062e-19
3.018e-05
4.23061e-20
3.018e-05
7.97895e-20
3.018e-05
-2.08081e-19
3.018e-05
-1.79633e-19
3.018e-05
4.86135e-19
3.018e-05
-3.85819e-20
3.018e-05
-4.67935e-19
3.018e-05
-3.35225e-20
3.018e-05
5.93707e-19
3.018e-05
-1.53454e-19
3.018e-05
-5.08637e-20
3.018e-05
-2.11649e-20
3.018e-05
-2.66899e-19
3.018e-05
4.50544e-19
3.018e-05
-2.48908e-19
3.018e-05
-9.46749e-20
3.018e-05
-5.18621e-20
3.018e-05
1.87276e-19
3.018e-05
6.75815e-20
3.018e-05
-1.87666e-19
3.018e-05
9.77822e-20
3.018e-05
-1.46492e-19
3.018e-05
2.40437e-19
3.018e-05
-7.43598e-20
3.018e-05
7.4283e-20
3.018e-05
-1.18152e-19
3.018e-05
1.58788e-19
3.018e-05
-2.59679e-21
3.018e-05
-1.37952e-19
3.018e-05
1.69052e-19
3.018e-05
8.37286e-20
3.018e-05
1.48499e-19
3.018e-05
-5.61644e-19
3.018e-05
2.73259e-19
3.018e-05
1.56051e-19
3.018e-05
5.7102e-20
3.018e-05
1.01176e-19
3.018e-05
-4.6668e-19
3.018e-05
1.43008e-19
3.018e-05
1.83063e-19
3.018e-05
-4.76564e-20
3.018e-05
-2.03647e-19
3.018e-05
1.51161e-19
3.018e-05
-8.01639e-20
3.018e-05
3.21895e-20
3.018e-05
9.60743e-20
3.018e-05
-1.92651e-19
3.018e-05
2.08839e-19
3.018e-05
2.92525e-20
3.018e-05
9.46709e-20
3.018e-05
-3.04827e-19
3.018e-05
7.4041e-20
3.018e-05
1.33042e-19
3.018e-05
2.21236e-20
3.018e-05
-3.62869e-20
3.018e-05
-1.58102e-19
3.018e-05
2.62995e-19
3.018e-05
-3.29651e-19
3.018e-05
5.19573e-20
3.018e-05
1.87438e-20
3.018e-05
-8.34589e-20
3.018e-05
3.06449e-19
3.018e-05
-2.41506e-19
3.018e-05
-2.38064e-19
3.018e-05
1.922e-19
3.018e-05
1.9634e-19
3.018e-05
-3.18193e-19
3.018e-05
1.78725e-20
3.018e-05
-1.07781e-19
3.018e-05
-9.87567e-20
3.018e-05
1.78356e-22
3.018e-05
-6.42086e-19
-2.04784e-18
8.93313e-05
-7.87102e-18
8.93313e-05
-2.84421e-18
8.93313e-05
-9.86741e-19
8.93313e-05
-3.51952e-19
8.93313e-05
-1.61716e-19
8.93313e-05
-9.08483e-20
8.93313e-05
-4.75161e-20
8.93313e-05
-9.84684e-21
8.93313e-05
1.00936e-20
8.93313e-05
-4.71571e-20
8.93313e-05
-6.06343e-20
8.93313e-05
-1.23766e-19
8.93313e-05
-7.55913e-20
8.93313e-05
-2.93388e-20
8.93313e-05
-1.62083e-20
8.93313e-05
-4.13351e-20
8.93313e-05
-9.16607e-20
8.93313e-05
-8.22924e-20
8.93313e-05
-1.36484e-20
8.93313e-05
-6.26072e-21
8.93313e-05
3.34653e-21
8.93313e-05
2.95528e-20
8.93313e-05
2.1854e-20
8.93313e-05
-3.45411e-20
8.93313e-05
-3.59089e-20
8.93313e-05
-9.25415e-20
8.93313e-05
-4.88e-20
8.93313e-05
5.83921e-20
8.93313e-05
-7.55496e-20
8.93313e-05
-4.49003e-20
8.93313e-05
-1.99452e-21
8.93313e-05
-5.95707e-20
8.93313e-05
-7.74086e-20
8.93313e-05
-8.06543e-20
8.93313e-05
-8.42865e-20
8.93313e-05
-2.01246e-20
8.93313e-05
-1.2356e-19
8.93313e-05
-1.00479e-19
8.93313e-05
-1.30955e-20
8.93313e-05
-1.10499e-19
8.93313e-05
-6.04554e-20
8.93313e-05
-6.7474e-20
8.93313e-05
-1.77992e-20
8.93313e-05
2.67184e-20
8.93313e-05
3.3951e-20
8.93313e-05
6.61224e-20
8.93313e-05
5.74574e-20
8.93313e-05
-7.8709e-20
8.93313e-05
-5.784e-20
8.93313e-05
8.58745e-20
8.93313e-05
8.55662e-20
8.93313e-05
-1.04599e-20
8.93313e-05
-6.11638e-20
8.93313e-05
-3.7549e-21
8.93313e-05
9.58265e-20
8.93313e-05
-2.45729e-20
8.93313e-05
4.83685e-20
8.93313e-05
-5.56692e-20
8.93313e-05
-1.34658e-19
8.93313e-05
-2.7326e-20
8.93313e-05
-5.18251e-20
8.93313e-05
-1.32999e-20
8.93313e-05
-3.36785e-20
8.93313e-05
2.9287e-20
8.93313e-05
2.61362e-20
8.93313e-05
1.46254e-20
8.93313e-05
-1.23825e-19
8.93313e-05
-7.4716e-20
8.93313e-05
9.92322e-20
8.93313e-05
4.5146e-20
8.93313e-05
1.89119e-21
8.93313e-05
5.01034e-20
8.93313e-05
1.60433e-19
8.93313e-05
-2.6713e-20
8.93313e-05
-1.26725e-19
8.93313e-05
2.31142e-19
8.93313e-05
1.4427e-19
8.93313e-05
-9.18763e-20
8.93313e-05
-1.10282e-19
8.93313e-05
4.94997e-20
8.93313e-05
3.60293e-20
8.93313e-05
-9.02773e-20
8.93313e-05
-2.20011e-21
8.93313e-05
-1.3557e-21
8.93313e-05
-3.62491e-20
8.93313e-05
7.91497e-20
8.93313e-05
-5.72828e-21
8.93313e-05
-3.66878e-21
8.93313e-05
-2.24242e-20
8.93313e-05
-1.76024e-20
8.93313e-05
8.51503e-20
8.93313e-05
5.06743e-20
8.93313e-05
5.95711e-20
8.93313e-05
3.71656e-20
8.93313e-05
-8.56028e-21
8.93313e-05
-1.76854e-19
8.93313e-05
-7.68734e-21
8.93313e-05
2.27806e-19
8.93313e-05
-1.06102e-19
8.93313e-05
-1.25348e-19
8.93313e-05
1.87164e-19
8.93313e-05
1.67101e-19
8.93313e-05
-2.34191e-20
8.93313e-05
-9.24589e-20
8.93313e-05
2.26134e-20
8.93313e-05
6.56006e-20
8.93313e-05
-3.48642e-20
8.93313e-05
-8.57278e-20
8.93313e-05
1.23659e-19
8.93313e-05
1.54512e-19
8.93313e-05
-1.15984e-19
8.93313e-05
-1.98888e-19
8.93313e-05
-6.04566e-20
8.93313e-05
2.11952e-19
8.93313e-05
1.16765e-19
8.93313e-05
-2.29375e-19
8.93313e-05
-1.43125e-19
8.93313e-05
1.87317e-19
8.93313e-05
1.87464e-19
8.93313e-05
2.0706e-20
8.93313e-05
-7.13275e-20
8.93313e-05
5.54185e-20
8.93313e-05
1.28712e-19
8.93313e-05
-5.35952e-20
8.93313e-05
-1.25409e-19
8.93313e-05
1.24073e-19
8.93313e-05
8.04975e-20
8.93313e-05
-1.90469e-20
8.93313e-05
9.26023e-20
8.93313e-05
4.15281e-20
8.93313e-05
8.16785e-20
8.93313e-05
-3.47913e-21
8.93313e-05
1.64702e-19
8.93313e-05
-8.60247e-20
8.93313e-05
-1.36985e-19
8.93313e-05
1.15066e-19
8.93313e-05
-5.11844e-20
8.93313e-05
-1.15401e-19
8.93313e-05
1.79242e-19
8.93313e-05
1.34156e-19
8.93313e-05
-3.27684e-19
8.93313e-05
-2.93602e-19
8.93313e-05
2.18395e-19
8.93313e-05
3.51454e-19
8.93313e-05
-2.23093e-19
8.93313e-05
-8.27204e-20
8.93313e-05
4.09269e-19
8.93313e-05
-8.38925e-20
8.93313e-05
-2.4637e-19
8.93313e-05
1.56783e-19
8.93313e-05
-1.22941e-19
8.93313e-05
1.98139e-20
8.93313e-05
2.06919e-19
8.93313e-05
-3.374e-19
8.93313e-05
-9.74132e-20
8.93313e-05
1.15801e-19
8.93313e-05
-1.89042e-19
8.93313e-05
-4.03238e-20
8.93313e-05
1.79812e-20
8.93313e-05
3.30202e-19
8.93313e-05
1.70828e-19
8.93313e-05
-4.8413e-20
8.93313e-05
-3.22929e-20
8.93313e-05
-5.96225e-20
8.93313e-05
-7.51929e-20
8.93313e-05
9.01823e-21
8.93313e-05
1.30037e-19
8.93313e-05
-2.31676e-19
8.93313e-05
2.38478e-19
8.93313e-05
2.40854e-19
8.93313e-05
-2.32792e-19
8.93313e-05
4.69432e-20
8.93313e-05
2.38913e-19
8.93313e-05
-1.11469e-19
8.93313e-05
-2.35287e-19
8.93313e-05
9.63619e-20
8.93313e-05
3.28549e-19
8.93313e-05
-3.91431e-20
8.93313e-05
-1.44113e-19
8.93313e-05
3.16517e-19
8.93313e-05
-4.81876e-21
8.93313e-05
-2.05339e-19
8.93313e-05
-4.1433e-20
8.93313e-05
-1.19954e-19
8.93313e-05
1.31188e-19
8.93313e-05
-6.76745e-20
8.93313e-05
-3.10811e-19
8.93313e-05
-1.00729e-19
8.93313e-05
3.28667e-22
8.93313e-05
-1.05267e-19
8.93313e-05
-1.9542e-19
8.93313e-05
-1.1732e-19
8.93313e-05
4.0587e-20
8.93313e-05
4.17215e-19
8.93313e-05
1.02028e-19
8.93313e-05
-3.27357e-20
8.93313e-05
2.61065e-19
8.93313e-05
-1.20494e-19
8.93313e-05
-4.81741e-19
8.93313e-05
-1.09936e-19
8.93313e-05
4.92219e-20
8.93313e-05
-3.05114e-19
8.93313e-05
3.15666e-19
8.93313e-05
1.04921e-19
8.93313e-05
1.59605e-19
8.93313e-05
3.00568e-19
8.93313e-05
-3.98415e-19
8.93313e-05
-3.49732e-19
8.93313e-05
3.07759e-20
8.93313e-05
5.8409e-20
8.93313e-05
5.451e-20
8.93313e-05
8.1865e-20
8.93313e-05
-1.50966e-19
8.93313e-05
1.18958e-19
8.93313e-05
-2.30623e-19
8.93313e-05
4.05213e-20
8.93313e-05
-1.83453e-19
8.93313e-05
-1.0657e-19
8.93313e-05
4.0995e-19
8.93313e-05
2.46363e-19
8.93313e-05
-1.00918e-19
8.93313e-05
-1.37756e-19
8.93313e-05
1.18903e-19
8.93313e-05
-1.32667e-19
8.93313e-05
3.95118e-20
8.93313e-05
-2.42996e-21
8.93313e-05
-3.42895e-20
8.93313e-05
1.741e-19
8.93313e-05
2.64461e-19
8.93313e-05
-4.62188e-20
8.93313e-05
-4.46251e-20
8.93313e-05
-2.53802e-19
8.93313e-05
-2.05753e-19
8.93313e-05
1.04379e-19
8.93313e-05
-1.20552e-19
8.93313e-05
1.82424e-19
8.93313e-05
1.34817e-19
8.93313e-05
8.14483e-22
8.93313e-05
-3.43951e-20
8.93313e-05
7.42465e-21
8.93313e-05
-4.16319e-20
8.93313e-05
-1.95436e-19
8.93313e-05
2.44755e-20
8.93313e-05
4.47625e-19
8.93313e-05
-2.88366e-20
8.93313e-05
-1.19576e-19
8.93313e-05
1.4481e-19
8.93313e-05
-1.77148e-19
8.93313e-05
-4.94529e-20
8.93313e-05
5.93328e-20
8.93313e-05
-1.40224e-19
8.93313e-05
-5.0158e-20
8.93313e-05
2.9408e-19
8.93313e-05
-2.52992e-20
8.93313e-05
-2.20994e-19
8.93313e-05
1.17916e-19
8.93313e-05
-3.50551e-20
8.93313e-05
-1.98829e-19
8.93313e-05
1.8756e-20
8.93313e-05
-2.63421e-19
8.93313e-05
1.66024e-19
8.93313e-05
5.0721e-19
8.93313e-05
-2.0199e-19
8.93313e-05
4.60825e-20
8.93313e-05
-4.41782e-19
8.93313e-05
-3.89365e-19
8.93313e-05
7.09323e-19
8.93313e-05
-3.12876e-19
8.93313e-05
-2.22004e-19
8.93313e-05
9.02878e-19
8.93313e-05
-3.11756e-19
8.93313e-05
-3.48955e-19
8.93313e-05
2.2931e-19
8.93313e-05
-2.46745e-19
8.93313e-05
1.37216e-19
8.93313e-05
-5.35968e-20
8.93313e-05
-1.32359e-19
8.93313e-05
2.09591e-19
8.93313e-05
2.53042e-19
8.93313e-05
-6.4188e-20
8.93313e-05
-2.26202e-19
8.93313e-05
-3.49527e-19
8.93313e-05
1.83037e-19
8.93313e-05
5.14138e-19
8.93313e-05
-4.50624e-19
8.93313e-05
4.34763e-19
8.93313e-05
1.45268e-19
8.93313e-05
-6.405e-19
8.93313e-05
4.7144e-19
8.93313e-05
1.35982e-19
8.93313e-05
-6.20749e-19
8.93313e-05
1.55523e-19
8.93313e-05
1.90602e-19
8.93313e-05
-3.1756e-19
8.93313e-05
7.67291e-19
8.93313e-05
9.73031e-20
8.93313e-05
-7.24982e-19
8.93313e-05
1.00033e-19
8.93313e-05
-1.46319e-19
8.93313e-05
-4.1397e-19
8.93313e-05
4.39215e-19
8.93313e-05
-8.95581e-20
8.93313e-05
-2.03879e-19
8.93313e-05
8.14518e-19
8.93313e-05
-2.51201e-19
8.93313e-05
-6.59847e-19
8.93313e-05
3.05896e-19
8.93313e-05
-2.23888e-19
8.93313e-05
-2.94693e-19
8.93313e-05
5.29215e-19
8.93313e-05
2.38113e-19
8.93313e-05
-4.7596e-19
8.93313e-05
1.32568e-19
8.93313e-05
1.48798e-19
8.93313e-05
-2.75127e-19
8.93313e-05
-2.05682e-20
8.93313e-05
-2.03433e-19
8.93313e-05
-1.6671e-19
8.93313e-05
-7.57253e-20
8.93313e-05
3.65795e-19
8.93313e-05
3.64743e-19
8.93313e-05
-1.91061e-19
8.93313e-05
-3.74401e-19
8.93313e-05
-2.76421e-20
8.93313e-05
3.37912e-19
8.93313e-05
-1.71816e-19
8.93313e-05
-1.60725e-19
8.93313e-05
-5.95039e-20
8.93313e-05
3.69545e-19
8.93313e-05
3.86096e-19
8.93313e-05
-6.30704e-19
8.93313e-05
-5.64667e-20
8.93313e-05
3.23539e-19
8.93313e-05
-3.84099e-19
8.93313e-05
2.34292e-19
8.93313e-05
4.78721e-19
8.93313e-05
-4.06402e-19
8.93313e-05
4.82936e-19
8.93313e-05
2.88636e-19
8.93313e-05
-5.32008e-19
8.93313e-05
1.76743e-20
8.93313e-05
-2.58541e-19
8.93313e-05
-1.05999e-19
8.93313e-05
1.73232e-19
8.93313e-05
2.51077e-19
8.93313e-05
1.70241e-19
8.93313e-05
-1.16586e-19
8.93313e-05
-4.80333e-19
8.93313e-05
-5.27554e-20
8.93313e-05
3.11206e-19
8.93313e-05
-3.63571e-19
8.93313e-05
-2.75671e-19
8.93313e-05
1.83214e-19
8.93313e-05
3.82821e-19
8.93313e-05
2.00774e-19
8.93313e-05
-1.66827e-19
8.93313e-05
-5.29524e-19
8.93313e-05
-1.46975e-19
8.93313e-05
2.12256e-19
8.93313e-05
2.57954e-20
8.93313e-05
5.26638e-19
8.93313e-05
-4.02827e-19
8.93313e-05
2.5414e-20
8.93313e-05
7.77754e-19
8.93313e-05
-4.16343e-19
8.93313e-05
-2.34625e-19
8.93313e-05
4.34672e-21
8.93313e-05
-7.12995e-20
8.93313e-05
-1.18432e-19
8.93313e-05
6.96566e-19
8.93313e-05
1.54587e-19
8.93313e-05
-4.24171e-19
8.93313e-05
-8.4055e-20
8.93313e-05
-8.49694e-20
8.93313e-05
1.80573e-19
8.93313e-05
-2.47702e-19
8.93313e-05
6.51013e-20
8.93313e-05
-1.62353e-19
8.93313e-05
4.89098e-19
8.93313e-05
-2.57796e-20
8.93313e-05
-4.18066e-19
8.93313e-05
-9.7842e-20
8.93313e-05
1.6189e-19
8.93313e-05
6.4398e-20
8.93313e-05
-2.19019e-19
8.93313e-05
7.93679e-19
8.93313e-05
-3.42865e-19
8.93313e-05
-1.02201e-19
8.93313e-05
3.90098e-19
8.93313e-05
-1.34142e-19
8.93313e-05
-4.10986e-19
8.93313e-05
1.20122e-19
8.93313e-05
3.28386e-20
8.93313e-05
-4.28677e-19
8.93313e-05
9.30321e-19
8.93313e-05
4.39867e-19
8.93313e-05
-5.98709e-19
8.93313e-05
-2.37429e-19
8.93313e-05
-1.62824e-19
8.93313e-05
-1.83977e-19
8.93313e-05
3.14459e-19
8.93313e-05
7.82357e-19
8.93313e-05
-6.17895e-19
8.93313e-05
-3.09073e-19
8.93313e-05
-2.90392e-19
8.93313e-05
5.33035e-19
8.93313e-05
7.57097e-19
8.93313e-05
-1.11728e-18
8.93313e-05
-4.47804e-19
8.93313e-05
6.57672e-19
8.93313e-05
8.98201e-19
8.93313e-05
-8.52767e-19
8.93313e-05
-1.35193e-20
8.93313e-05
2.43948e-19
8.93313e-05
-1.98207e-19
8.93313e-05
-6.13097e-20
8.93313e-05
-6.31743e-19
8.93313e-05
2.51591e-19
8.93313e-05
5.72703e-19
8.93313e-05
2.76258e-19
8.93313e-05
-7.43026e-19
8.93313e-05
-2.71601e-19
8.93313e-05
9.29256e-19
8.93313e-05
-7.08615e-20
8.93313e-05
-4.18279e-19
8.93313e-05
-8.90961e-20
8.93313e-05
3.4686e-19
8.93313e-05
1.44406e-19
8.93313e-05
1.22705e-19
8.93313e-05
-4.79674e-19
8.93313e-05
-3.70424e-19
8.93313e-05
9.88225e-19
8.93313e-05
1.18667e-19
8.93313e-05
-1.102e-18
8.93313e-05
-2.50173e-19
8.93313e-05
1.43565e-18
8.93313e-05
-1.57592e-19
8.93313e-05
-2.42836e-19
8.93313e-05
-1.02521e-19
8.93313e-05
-4.29317e-19
8.93313e-05
7.3686e-19
8.93313e-05
-4.08732e-19
8.93313e-05
-2.92069e-19
8.93313e-05
-7.14042e-20
8.93313e-05
4.14629e-19
8.93313e-05
9.54611e-20
8.93313e-05
-2.97594e-19
8.93313e-05
1.11651e-19
8.93313e-05
-2.46526e-19
8.93313e-05
5.41729e-19
8.93313e-05
-9.71112e-20
8.93313e-05
1.77338e-20
8.93313e-05
7.32324e-21
8.93313e-05
3.64969e-19
8.93313e-05
-7.57002e-20
8.93313e-05
-2.0414e-19
8.93313e-05
3.70374e-19
8.93313e-05
1.92735e-19
8.93313e-05
2.92697e-19
8.93313e-05
-1.14635e-18
8.93313e-05
4.58296e-19
8.93313e-05
6.92978e-19
8.93313e-05
1.01069e-19
8.93313e-05
-1.09297e-19
8.93313e-05
-7.91076e-19
8.93313e-05
3.7189e-19
8.93313e-05
1.69952e-19
8.93313e-05
-1.1002e-19
8.93313e-05
-1.76187e-19
8.93313e-05
1.66782e-19
8.93313e-05
-1.79262e-19
8.93313e-05
3.40948e-20
8.93313e-05
1.79758e-19
8.93313e-05
-2.36058e-19
8.93313e-05
3.70073e-19
8.93313e-05
2.26684e-19
8.93313e-05
1.50432e-20
8.93313e-05
-6.63296e-19
8.93313e-05
3.70173e-19
8.93313e-05
2.33524e-19
8.93313e-05
-1.28399e-19
8.93313e-05
2.93978e-20
8.93313e-05
-2.00336e-19
8.93313e-05
2.43342e-19
8.93313e-05
-6.43831e-19
8.93313e-05
9.80548e-20
8.93313e-05
5.764e-20
8.93313e-05
1.52635e-20
8.93313e-05
4.29675e-19
8.93313e-05
-6.41835e-19
8.93313e-05
-3.13651e-19
8.93313e-05
5.39349e-19
8.93313e-05
1.91429e-19
8.93313e-05
-6.38546e-19
8.93313e-05
-1.96877e-20
8.93313e-05
-1.75111e-19
8.93313e-05
-1.7896e-19
8.93313e-05
-1.50797e-19
8.93313e-05
-1.19803e-18
-2.66141e-18
0.000147271
-5.73038e-18
0.000147271
-2.83325e-18
0.000147271
-1.34506e-18
0.000147271
-5.59488e-19
0.000147271
-1.88038e-19
0.000147271
-1.76456e-19
0.000147271
-1.03128e-19
0.000147271
3.99021e-20
0.000147271
-2.55526e-20
0.000147271
-1.06455e-19
0.000147271
-1.4975e-19
0.000147271
-2.16426e-19
0.000147271
-1.57254e-19
0.000147271
-6.06755e-20
0.000147271
-6.69662e-20
0.000147271
-8.44924e-20
0.000147271
-8.98432e-20
0.000147271
-1.29042e-19
0.000147271
-2.49541e-20
0.000147271
1.56393e-20
0.000147271
-8.31292e-21
0.000147271
2.92934e-20
0.000147271
1.46003e-20
0.000147271
-8.53495e-20
0.000147271
-4.68586e-20
0.000147271
-1.4659e-19
0.000147271
-8.38717e-20
0.000147271
6.3389e-20
0.000147271
-1.03312e-19
0.000147271
-1.40625e-19
0.000147271
-6.5928e-20
0.000147271
-7.01987e-20
0.000147271
-9.78217e-20
0.000147271
-1.89975e-19
0.000147271
-2.10151e-19
0.000147271
-7.63027e-20
0.000147271
-2.22502e-19
0.000147271
-1.64271e-19
0.000147271
-9.56746e-20
0.000147271
-1.92288e-19
0.000147271
-1.0983e-19
0.000147271
-1.43207e-19
0.000147271
-6.49951e-20
0.000147271
6.89952e-20
0.000147271
6.55674e-20
0.000147271
1.17274e-19
0.000147271
6.55318e-20
0.000147271
-1.00395e-19
0.000147271
6.01785e-21
0.000147271
1.28536e-19
0.000147271
1.09277e-19
0.000147271
1.41593e-20
0.000147271
-1.4407e-19
0.000147271
1.3087e-20
0.000147271
1.72537e-19
0.000147271
-7.46223e-22
0.000147271
5.13177e-21
0.000147271
-1.56286e-19
0.000147271
-1.54606e-19
0.000147271
-5.15683e-20
0.000147271
-8.27571e-20
0.000147271
-6.28051e-20
0.000147271
-6.36656e-20
0.000147271
-7.34752e-21
0.000147271
3.69242e-20
0.000147271
1.17877e-20
0.000147271
-1.68005e-19
0.000147271
-1.57019e-19
0.000147271
1.83181e-19
0.000147271
1.35178e-19
0.000147271
6.42926e-20
0.000147271
5.47724e-20
0.000147271
2.35627e-19
0.000147271
3.08454e-21
0.000147271
-2.12529e-19
0.000147271
3.21665e-19
0.000147271
2.79836e-19
0.000147271
-6.86213e-20
0.000147271
-1.60158e-19
0.000147271
6.65435e-20
0.000147271
4.40454e-20
0.000147271
-7.452e-20
0.000147271
-6.98444e-20
0.000147271
-1.45344e-21
0.000147271
-5.19358e-20
0.000147271
4.93231e-20
0.000147271
-3.87473e-20
0.000147271
1.91736e-20
0.000147271
-5.53279e-20
0.000147271
5.90655e-22
0.000147271
1.66283e-19
0.000147271
6.18919e-20
0.000147271
1.14292e-19
0.000147271
8.85775e-20
0.000147271
-1.17181e-20
0.000147271
-2.21958e-19
0.000147271
-1.16097e-20
0.000147271
2.65107e-19
0.000147271
-1.14065e-19
0.000147271
-1.749e-19
0.000147271
2.4918e-19
0.000147271
2.26838e-19
0.000147271
9.27737e-21
0.000147271
-1.99617e-19
0.000147271
5.85956e-20
0.000147271
1.55993e-19
0.000147271
-8.23869e-20
0.000147271
-1.31962e-19
0.000147271
2.20797e-19
0.000147271
1.35637e-19
0.000147271
-1.86694e-19
0.000147271
-2.35773e-19
0.000147271
-7.17172e-20
0.000147271
2.9663e-19
0.000147271
2.09445e-19
0.000147271
-2.67514e-19
0.000147271
-2.27648e-19
0.000147271
2.38506e-19
0.000147271
3.032e-19
0.000147271
1.0841e-19
0.000147271
-4.00025e-21
0.000147271
1.12246e-19
0.000147271
1.4729e-19
0.000147271
-1.01603e-19
0.000147271
-1.33347e-19
0.000147271
1.67742e-19
0.000147271
1.40959e-19
0.000147271
4.96187e-20
0.000147271
1.46271e-19
0.000147271
1.37784e-19
0.000147271
1.87664e-19
0.000147271
-2.77845e-20
0.000147271
1.41069e-19
0.000147271
-5.67496e-20
0.000147271
-1.51824e-19
0.000147271
1.40553e-19
0.000147271
-1.68049e-19
0.000147271
-1.46648e-19
0.000147271
3.01728e-19
0.000147271
1.05869e-19
0.000147271
-4.73836e-19
0.000147271
-4.39531e-19
0.000147271
3.78935e-19
0.000147271
5.68475e-19
0.000147271
-3.7077e-19
0.000147271
-9.24121e-20
0.000147271
6.09419e-19
0.000147271
-1.34664e-19
0.000147271
-3.36758e-19
0.000147271
1.27125e-19
0.000147271
-1.78277e-19
0.000147271
9.05149e-20
0.000147271
1.38398e-19
0.000147271
-4.90345e-19
0.000147271
-9.68045e-20
0.000147271
1.02285e-19
0.000147271
-2.40426e-19
0.000147271
-1.04678e-19
0.000147271
-1.70732e-20
0.000147271
5.73702e-19
0.000147271
3.71349e-19
0.000147271
-3.60808e-20
0.000147271
-1.14264e-19
0.000147271
-1.58271e-19
0.000147271
-3.42202e-20
0.000147271
5.61823e-20
0.000147271
1.17048e-19
0.000147271
-2.53538e-19
0.000147271
3.4039e-19
0.000147271
2.8976e-19
0.000147271
-2.80997e-19
0.000147271
4.55411e-20
0.000147271
3.0569e-19
0.000147271
-1.49066e-19
0.000147271
-3.21819e-19
0.000147271
2.12574e-19
0.000147271
5.11443e-19
0.000147271
-7.13418e-20
0.000147271
-1.60367e-19
0.000147271
5.00997e-19
0.000147271
5.11725e-21
0.000147271
-3.82497e-19
0.000147271
-1.05378e-19
0.000147271
-1.76822e-19
0.000147271
3.62854e-20
0.000147271
-1.49358e-19
0.000147271
-4.36651e-19
0.000147271
-3.44813e-19
0.000147271
-3.49889e-20
0.000147271
-1.67616e-19
0.000147271
-3.41049e-19
0.000147271
-1.45502e-19
0.000147271
2.2119e-19
0.000147271
6.47897e-19
0.000147271
1.23993e-19
0.000147271
-3.85888e-20
0.000147271
3.85927e-19
0.000147271
-2.88644e-19
0.000147271
-7.6594e-19
0.000147271
-2.43123e-19
0.000147271
-1.51659e-20
0.000147271
-3.26986e-19
0.000147271
4.1966e-19
0.000147271
1.15607e-19
0.000147271
3.82067e-19
0.000147271
4.65026e-19
0.000147271
-6.30891e-19
0.000147271
-6.22795e-19
0.000147271
-8.91317e-20
0.000147271
8.36253e-20
0.000147271
1.11022e-19
0.000147271
1.19888e-19
0.000147271
-1.39779e-19
0.000147271
8.13534e-20
0.000147271
-4.15297e-19
0.000147271
9.867e-20
0.000147271
-3.07305e-19
0.000147271
-2.01289e-19
0.000147271
6.86884e-19
0.000147271
3.54805e-19
0.000147271
-1.16231e-19
0.000147271
-1.38982e-19
0.000147271
1.52611e-19
0.000147271
-1.52878e-19
0.000147271
4.8269e-21
0.000147271
-2.36944e-20
0.000147271
5.16152e-20
0.000147271
1.92195e-19
0.000147271
3.97184e-19
0.000147271
1.29561e-20
0.000147271
-2.79561e-20