/*--------------------------------*- C++ -*----------------------------------*\
| =========                 |                                                 |
| \\      /  F ield         | OpenFOAM: The Open Source CFD Toolbox           |
|  \\    /   O peration     | Version:  2112                                  |
|   \\  /    A nd           | Website:  www.openfoam.com                      |
|    \\/     M anipulation  |                                                 |
\*---------------------------------------------------------------------------*/
FoamFile
{
    version     2.0;
    format      ascii;
    arch        "LSB;label=32;scalar=64";
    class       volVectorField;
    location    "7";
    object      U;
}
// * * * * * * * * * * * * * * * * * * * * * * * * * * * * * * * * * * * * * //

dimensions      [0 1 -1 0 0 0 0];

internalField   nonuniform List<vector> 
25600
(
(0.0374883 -3.20972e-16 0)
(0.0374883 -9.22297e-17 0)
(0.0374883 1.9597e-17 0)
(0.0374883 9.04913e-18 0)
(0.0374883 9.68681e-18 0)
(0.0374883 5.33149e-18 0)
(0.0374883 9.5189e-19 0)
(0.0374883 5.03045e-18 0)
(0.0374883 -3.70172e-19 0)
(0.0374883 -9.3234e-19 0)
(0.0374883 8.19208e-18 0)
(0.0374883 2.29453e-19 0)
(0.0374883 1.29917e-17 0)
(0.0374883 3.37485e-18 0)
(0.0374883 -1.13495e-17 0)
(0.0374883 1.32681e-17 0)
(0.0374883 7.94782e-20 0)
(0.0374883 -2.62401e-18 0)
(0.0374883 -1.88784e-18 0)
(0.0374883 4.66976e-18 0)
(0.0374883 4.79073e-18 0)
(0.0374883 1.10409e-17 0)
(0.0374883 -2.8293e-18 0)
(0.0374883 -1.21031e-17 0)
(0.0374883 -1.43083e-17 0)
(0.0374883 1.88742e-18 0)
(0.0374883 2.74315e-17 0)
(0.0374883 -9.63393e-19 0)
(0.0374883 -2.24238e-17 0)
(0.0374883 -6.83812e-18 0)
(0.0374883 7.56649e-18 0)
(0.0374883 7.87834e-18 0)
(0.0374883 -1.08769e-18 0)
(0.0374883 -8.11151e-18 0)
(0.0374883 -1.82288e-18 0)
(0.0374883 -1.63161e-19 0)
(0.0374883 7.1286e-18 0)
(0.0374883 -8.55091e-18 0)
(0.0374883 -4.90678e-18 0)
(0.0374883 7.49937e-18 0)
(0.0374883 -4.67231e-18 0)
(0.0374883 1.72853e-17 0)
(0.0374883 -4.97013e-18 0)
(0.0374883 -1.76004e-17 0)
(0.0374883 1.88718e-17 0)
(0.0374883 -1.09651e-17 0)
(0.0374883 3.59616e-18 0)
(0.0374883 -1.50249e-18 0)
(0.0374883 -4.47293e-18 0)
(0.0374883 -1.72427e-18 0)
(0.0374883 -2.33597e-17 0)
(0.0374883 2.61955e-17 0)
(0.0374883 -6.16363e-18 0)
(0.0374883 -3.37708e-18 0)
(0.0374883 2.10936e-17 0)
(0.0374883 -2.97582e-17 0)
(0.0374883 -9.38074e-19 0)
(0.0374883 -1.19534e-17 0)
(0.0374883 2.98429e-18 0)
(0.0374883 4.1417e-17 0)
(0.0374883 -3.29953e-17 0)
(0.0374883 9.96263e-18 0)
(0.0374883 -1.52032e-18 0)
(0.0374883 1.4489e-18 0)
(0.0374883 2.45607e-17 0)
(0.0374883 -1.86386e-17 0)
(0.0374883 4.13246e-18 0)
(0.0374883 -7.08736e-18 0)
(0.0374883 1.07016e-17 0)
(0.0374883 7.80761e-18 0)
(0.0374883 -1.02062e-17 0)
(0.0374883 2.33728e-18 0)
(0.0374883 -7.07693e-18 0)
(0.0374883 -4.59305e-18 0)
(0.0374883 1.36094e-17 0)
(0.0374883 -7.17322e-18 0)
(0.0374883 -1.57972e-17 0)
(0.0374883 1.80787e-17 0)
(0.0374883 -9.1839e-18 0)
(0.0374883 2.60824e-17 0)
(0.0374883 -2.25637e-17 0)
(0.0374883 -3.07369e-17 0)
(0.0374883 2.27745e-17 0)
(0.0374883 1.32656e-18 0)
(0.0374883 3.14156e-17 0)
(0.0374883 -2.8758e-18 0)
(0.0374883 -4.5771e-17 0)
(0.0374883 -3.14999e-19 0)
(0.0374883 1.95948e-17 0)
(0.0374883 3.47973e-17 0)
(0.0374883 -4.26194e-18 0)
(0.0374883 -5.00918e-17 0)
(0.0374883 4.05207e-18 0)
(0.0374883 4.79194e-17 0)
(0.0374883 9.70009e-18 0)
(0.0374883 -5.20105e-17 0)
(0.0374883 3.5894e-18 0)
(0.0374883 -5.26607e-18 0)
(0.0374883 4.39435e-17 0)
(0.0374883 2.22432e-17 0)
(0.0374883 -7.0033e-17 0)
(0.0374883 8.88948e-18 0)
(0.0374883 -7.84752e-18 0)
(0.0374883 3.97063e-17 0)
(0.0374883 5.4166e-18 0)
(0.0374883 -1.02328e-17 0)
(0.0374883 -3.0254e-17 0)
(0.0374883 1.83344e-17 0)
(0.0374883 3.54316e-17 0)
(0.0374883 -1.09488e-17 0)
(0.0374883 2.53815e-17 0)
(0.0374883 -8.86326e-17 0)
(0.0374883 2.48043e-17 0)
(0.0374883 6.07801e-17 0)
(0.0374883 1.16759e-18 0)
(0.0374883 -2.27842e-17 0)
(0.0374883 -5.84546e-17 0)
(0.0374883 3.81162e-17 0)
(0.0374883 4.06024e-17 0)
(0.0374883 1.31307e-17 0)
(0.0374883 -1.12228e-17 0)
(0.0374883 -6.22665e-17 0)
(0.0374883 -3.43265e-18 0)
(0.0374883 6.44671e-17 0)
(0.0374883 6.01847e-18 0)
(0.0374883 -3.00722e-17 0)
(0.0374883 -4.26121e-17 0)
(0.0374883 7.10371e-18 0)
(0.0374883 6.51348e-17 0)
(0.0374883 -2.11899e-18 0)
(0.0374883 -3.04488e-17 0)
(0.0374883 -3.24188e-17 0)
(0.0374883 2.5535e-17 0)
(0.0374883 3.69355e-17 0)
(0.0374883 -2.54905e-17 0)
(0.0374883 -2.69806e-17 0)
(0.0374883 -1.43803e-17 0)
(0.0374883 3.58166e-17 0)
(0.0374883 2.00482e-17 0)
(0.0374883 -2.44112e-17 0)
(0.0374883 -2.9114e-17 0)
(0.0374883 -1.08765e-17 0)
(0.0374883 4.61333e-17 0)
(0.0374883 1.27261e-17 0)
(0.0374883 -4.79379e-17 0)
(0.0374883 4.2952e-17 0)
(0.0374883 -9.3929e-18 0)
(0.0374883 -3.28049e-17 0)
(0.0374883 -2.36434e-18 0)
(0.0374883 -1.00554e-17 0)
(0.0374883 5.3415e-17 0)
(0.0374883 -1.14155e-17 0)
(0.0374883 -4.61655e-17 0)
(0.0374883 1.14568e-17 0)
(0.0374883 2.39472e-17 0)
(0.0374883 3.06595e-17 0)
(0.0374883 -2.5609e-17 0)
(0.0374883 -3.4616e-17 0)
(0.0374883 3.30902e-17 0)
(0.0374883 7.42399e-18 0)
(0.0374883 5.27472e-17 0)
(0.0374883 -6.19817e-17 0)
(0.0374883 -4.37985e-17 0)
(0.0374883 6.40244e-17 0)
(0.0374883 -1.74778e-17 0)
(0.0374883 5.23092e-17 0)
(0.0374883 -3.56663e-17 0)
(0.0374883 -5.86134e-18 0)
(0.0374883 1.05562e-17 0)
(0.0374883 -4.50522e-17 0)
(0.0374883 8.57889e-17 0)
(0.0374883 -5.55007e-17 0)
(0.0374883 9.46877e-18 0)
(0.0374883 1.94958e-17 0)
(0.0374883 -4.17189e-17 0)
(0.0374883 7.85579e-17 0)
(0.0374883 -6.02163e-17 0)
(0.0374883 1.09299e-17 0)
(0.0374883 -1.21692e-17 0)
(0.0374883 -3.88013e-17 0)
(0.0374883 1.01906e-16 0)
(0.0374883 -7.14041e-17 0)
(0.0374883 1.62036e-18 0)
(0.0374883 1.65094e-17 0)
(0.0374883 -5.16069e-17 0)
(0.0374883 9.55988e-17 0)
(0.0374883 -6.01754e-17 0)
(0.0374883 -3.76417e-18 0)
(0.0374883 6.47067e-17 0)
(0.0374883 -9.60089e-17 0)
(0.0374883 5.01868e-17 0)
(0.0374883 -4.71851e-18 0)
(0.0374883 -5.9322e-17 0)
(0.0374883 1.0101e-16 0)
(0.0374883 -4.14784e-17 0)
(0.0374883 7.63803e-18 0)
(0.0374883 -4.82203e-17 0)
(0.0374883 -1.11756e-17 0)
(0.0374883 1.40034e-16 0)
(0.0374883 -1.00285e-16 0)
(0.0374883 8.52556e-18 0)
(0.0374883 -5.14441e-17 0)
(0.0374883 -1.2127e-18 0)
(0.0374883 1.39521e-16 0)
(0.0374883 -9.26366e-17 0)
(0.0374883 -4.45395e-17 0)
(0.0374883 -7.38358e-18 0)
(0.0374883 4.89381e-17 0)
(0.0374883 8.745e-17 0)
(0.0374883 -4.24673e-17 0)
(0.0374883 -8.25683e-17 0)
(0.0374883 -6.26211e-17 0)
(0.0374883 1.61943e-16 0)
(0.0374883 5.5152e-18 0)
(0.0374883 -1.65035e-16 0)
(0.0374883 1.59409e-16 0)
(0.0374883 3.33012e-17 0)
(0.0374883 -8.30126e-17 0)
(0.0374883 -3.66795e-17 0)
(0.0374883 -7.56928e-17 0)
(0.0374883 1.6411e-16 0)
(0.0374883 3.47621e-17 0)
(0.0374883 -9.40341e-17 0)
(0.0374883 -2.78347e-17 0)
(0.0374883 -8.14201e-17 0)
(0.0374883 1.64096e-16 0)
(0.0374883 -8.40271e-18 0)
(0.0374883 -6.14792e-17 0)
(0.0374883 1.63287e-17 0)
(0.0374883 -9.90592e-17 0)
(0.0374883 1.66534e-16 0)
(0.0374883 -4.89915e-18 0)
(0.0374883 -9.36914e-17 0)
(0.0374883 5.46424e-17 0)
(0.0374883 -7.20271e-17 0)
(0.0374883 9.59232e-17 0)
(0.0374883 -3.57637e-18 0)
(0.0374883 -2.98211e-17 0)
(0.0374883 2.50047e-17 0)
(0.0374883 -1.27125e-16 0)
(0.0374883 1.48787e-16 0)
(0.0374883 -1.27781e-17 0)
(0.0374883 -3.70429e-17 0)
(0.0374883 7.5853e-17 0)
(0.0374883 -1.34924e-16 0)
(0.0374883 1.49579e-17 0)
(0.0374883 4.02961e-17 0)
(0.0374883 5.30362e-17 0)
(0.0374883 1.10581e-17 0)
(0.0374883 -1.2687e-16 0)
(0.0374883 8.2423e-17 0)
(0.0374883 -3.2209e-18 0)
(0.0374883 -2.71856e-17 0)
(0.0374883 4.21998e-17 0)
(0.0374883 -1.13733e-16 0)
(0.0374883 1.03376e-16 0)
(0.0374883 -1.21119e-17 0)
(0.0374883 -1.04205e-17 0)
(0.0374883 6.71772e-17 0)
(0.0374883 -1.235e-16 0)
(0.0374883 5.90445e-17 0)
(0.0374883 -1.68861e-18 0)
(0.0374883 8.61081e-19 0)
(0.0374883 5.40188e-17 0)
(0.0374883 -1.09491e-16 0)
(0.0374883 7.70891e-17 0)
(0.0374883 2.88434e-17 0)
(0.0374883 -4.8348e-17 0)
(0.0374883 9.19113e-18 0)
(0.0374883 -7.06123e-17 0)
(0.0374883 7.29516e-17 0)
(0.0374883 3.67027e-17 0)
(0.0374883 -8.13336e-17 0)
(0.0374883 4.82248e-17 0)
(0.0374883 -3.37068e-17 0)
(0.0374883 3.17138e-17 0)
(0.0374883 3.70715e-17 0)
(0.0374883 -8.7652e-17 0)
(0.0374883 5.6099e-17 0)
(0.0374883 -3.60104e-17 0)
(0.0374883 2.11504e-17 0)
(0.0374883 3.64211e-17 0)
(0.0374883 -9.0956e-17 0)
(0.0374883 6.13191e-17 0)
(0.0374883 -2.77425e-17 0)
(0.0374883 -2.4273e-17 0)
(0.0374883 9.33159e-17 0)
(0.0374883 -4.77613e-17 0)
(0.0374883 -9.76666e-18 0)
(0.0374883 -6.28497e-17 0)
(0.0374883 3.56822e-17 0)
(0.0374883 1.21951e-16 0)
(0.0374883 -1.04507e-17 0)
(0.0374883 -1.18671e-16 0)
(0.0374883 -2.44111e-17 0)
(0.0374883 6.52727e-17 0)
(0.0374883 4.81433e-18 0)
(0.0374883 7.48715e-17 0)
(0.0374883 -1.25153e-16 0)
(0.0374883 -2.05891e-17 0)
(0.0374883 6.27993e-17 0)
(0.0374883 1.05549e-17 0)
(0.0374883 5.09969e-17 0)
(0.0374883 -9.59926e-17 0)
(0.0374883 2.91046e-17 0)
(0.0374883 2.75699e-17 0)
(0.0374883 -4.89908e-17 0)
(0.0374883 8.77233e-17 0)
(0.0374883 -6.58221e-17 0)
(0.0374883 -1.30748e-18 0)
(0.0374883 2.759e-17 0)
(0.0374883 -6.72797e-17 0)
(0.0374883 9.4338e-17 0)
(0.0374883 -3.34945e-17 0)
(0.0374883 -5.77659e-17 0)
(0.0374883 5.30683e-17 0)
(0.0374883 -6.84385e-18 0)
(0.0374883 8.03961e-17 0)
(0.0374883 -2.08132e-17 0)
(0.0374883 -1.47423e-16 0)
(0.11059 -2.05185e-16 0)
(0.11059 -8.34448e-17 0)
(0.11059 -1.31427e-17 0)
(0.11059 -3.8288e-18 0)
(0.11059 8.61539e-18 0)
(0.11059 1.37626e-17 0)
(0.11059 -6.54461e-18 0)
(0.11059 1.26665e-17 0)
(0.11059 1.78407e-17 0)
(0.11059 1.06917e-17 0)
(0.11059 1.30391e-17 0)
(0.11059 2.4823e-17 0)
(0.11059 4.71512e-17 0)
(0.11059 1.97129e-17 0)
(0.11059 -2.90052e-17 0)
(0.11059 1.88665e-17 0)
(0.11059 2.63549e-17 0)
(0.11059 2.66661e-17 0)
(0.11059 6.84006e-18 0)
(0.11059 1.94588e-17 0)
(0.11059 3.59582e-17 0)
(0.11059 9.26679e-18 0)
(0.11059 -2.56956e-17 0)
(0.11059 -3.18347e-17 0)
(0.11059 -3.65534e-17 0)
(0.11059 -4.79421e-18 0)
(0.11059 3.2256e-17 0)
(0.11059 -2.89048e-17 0)
(0.11059 -5.80478e-17 0)
(0.11059 -4.32734e-17 0)
(0.11059 -1.63368e-18 0)
(0.11059 3.29798e-17 0)
(0.11059 -5.71514e-18 0)
(0.11059 -2.48934e-17 0)
(0.11059 -1.43044e-17 0)
(0.11059 1.55417e-18 0)
(0.11059 4.3253e-17 0)
(0.11059 -2.24012e-17 0)
(0.11059 -4.23049e-17 0)
(0.11059 3.03314e-17 0)
(0.11059 -2.31078e-17 0)
(0.11059 1.11581e-17 0)
(0.11059 1.84778e-17 0)
(0.11059 -3.72217e-17 0)
(0.11059 1.47871e-17 0)
(0.11059 -1.75702e-17 0)
(0.11059 -1.05354e-17 0)
(0.11059 -1.12694e-17 0)
(0.11059 -3.14694e-17 0)
(0.11059 -1.77357e-17 0)
(0.11059 -4.34732e-17 0)
(0.11059 1.28394e-17 0)
(0.11059 -2.94745e-17 0)
(0.11059 -2.55242e-17 0)
(0.11059 1.2599e-17 0)
(0.11059 -6.17371e-17 0)
(0.11059 -1.05299e-18 0)
(0.11059 -3.64926e-18 0)
(0.11059 3.95706e-18 0)
(0.11059 2.62069e-17 0)
(0.11059 -7.03322e-17 0)
(0.11059 5.66299e-17 0)
(0.11059 6.8205e-18 0)
(0.11059 1.24988e-17 0)
(0.11059 8.19724e-17 0)
(0.11059 -3.09152e-17 0)
(0.11059 3.04449e-17 0)
(0.11059 2.8272e-17 0)
(0.11059 2.85772e-17 0)
(0.11059 3.60823e-17 0)
(0.11059 -2.61884e-17 0)
(0.11059 -4.9012e-18 0)
(0.11059 -2.27696e-17 0)
(0.11059 -2.2779e-17 0)
(0.11059 8.35857e-17 0)
(0.11059 -6.79355e-17 0)
(0.11059 -7.8813e-17 0)
(0.11059 3.67775e-17 0)
(0.11059 -2.89866e-17 0)
(0.11059 3.86936e-17 0)
(0.11059 -2.02794e-17 0)
(0.11059 -1.17507e-16 0)
(0.11059 -4.70305e-18 0)
(0.11059 5.74635e-17 0)
(0.11059 6.65992e-17 0)
(0.11059 -2.68716e-18 0)
(0.11059 -4.52887e-17 0)
(0.11059 -1.71696e-17 0)
(0.11059 7.20701e-17 0)
(0.11059 1.21457e-16 0)
(0.11059 -4.1651e-17 0)
(0.11059 -9.06403e-17 0)
(0.11059 2.20321e-17 0)
(0.11059 8.30401e-17 0)
(0.11059 2.90109e-17 0)
(0.11059 -7.49484e-17 0)
(0.11059 7.6663e-18 0)
(0.11059 -4.77476e-18 0)
(0.11059 5.11427e-17 0)
(0.11059 3.33536e-17 0)
(0.11059 -9.43875e-17 0)
(0.11059 2.47437e-17 0)
(0.11059 -5.72849e-17 0)
(0.11059 1.8059e-17 0)
(0.11059 5.93395e-17 0)
(0.11059 2.49379e-17 0)
(0.11059 -5.96493e-17 0)
(0.11059 7.63938e-18 0)
(0.11059 1.15885e-16 0)
(0.11059 5.53105e-17 0)
(0.11059 2.96794e-17 0)
(0.11059 -1.8838e-16 0)
(0.11059 2.96342e-17 0)
(0.11059 1.74146e-16 0)
(0.11059 2.27561e-17 0)
(0.11059 -3.912e-17 0)
(0.11059 -1.30001e-16 0)
(0.11059 7.9779e-18 0)
(0.11059 1.36634e-16 0)
(0.11059 1.98582e-17 0)
(0.11059 -7.89024e-17 0)
(0.11059 -1.50636e-16 0)
(0.11059 -2.22315e-17 0)
(0.11059 1.88653e-16 0)
(0.11059 7.10067e-17 0)
(0.11059 -9.39352e-17 0)
(0.11059 -1.53226e-16 0)
(0.11059 3.42459e-17 0)
(0.11059 1.79157e-16 0)
(0.11059 1.93882e-17 0)
(0.11059 -8.05911e-17 0)
(0.11059 -9.78398e-17 0)
(0.11059 3.47022e-17 0)
(0.11059 1.06919e-16 0)
(0.11059 -2.39389e-17 0)
(0.11059 -2.75542e-17 0)
(0.11059 -1.3114e-16 0)
(0.11059 -4.73645e-17 0)
(0.11059 1.02175e-16 0)
(0.11059 5.87347e-18 0)
(0.11059 -3.35176e-17 0)
(0.11059 -9.62118e-17 0)
(0.11059 -2.51132e-18 0)
(0.11059 7.70362e-17 0)
(0.11059 5.39352e-18 0)
(0.11059 -2.45079e-17 0)
(0.11059 -1.0165e-16 0)
(0.11059 3.46596e-17 0)
(0.11059 8.7371e-18 0)
(0.11059 2.05498e-17 0)
(0.11059 8.0134e-17 0)
(0.11059 -1.5373e-16 0)
(0.11059 -9.64583e-17 0)
(0.11059 8.52095e-17 0)
(0.11059 8.81816e-17 0)
(0.11059 7.14881e-17 0)
(0.11059 -6.74202e-17 0)
(0.11059 -6.9453e-17 0)
(0.11059 7.64352e-17 0)
(0.11059 6.6779e-17 0)
(0.11059 1.08383e-16 0)
(0.11059 -1.24566e-16 0)
(0.11059 -7.05594e-18 0)
(0.11059 1.43243e-16 0)
(0.11059 -1.44497e-16 0)
(0.11059 7.44853e-17 0)
(0.11059 4.32068e-17 0)
(0.11059 -7.11866e-17 0)
(0.11059 1.65594e-16 0)
(0.11059 7.5276e-17 0)
(0.11059 -7.36247e-18 0)
(0.11059 -1.14871e-16 0)
(0.11059 4.45694e-17 0)
(0.11059 9.1355e-17 0)
(0.11059 -5.50613e-17 0)
(0.11059 -6.39965e-17 0)
(0.11059 -6.48229e-17 0)
(0.11059 1.82938e-16 0)
(0.11059 -6.63319e-17 0)
(0.11059 -6.99137e-17 0)
(0.11059 1.25181e-16 0)
(0.11059 -1.93417e-16 0)
(0.11059 -1.09219e-17 0)
(0.11059 7.777e-17 0)
(0.11059 -3.94599e-17 0)
(0.11059 1.34767e-16 0)
(0.11059 -1.24737e-16 0)
(0.11059 -8.36796e-18 0)
(0.11059 1.27524e-16 0)
(0.11059 -1.22122e-16 0)
(0.11059 4.40852e-17 0)
(0.11059 -2.77354e-17 0)
(0.11059 -1.04334e-16 0)
(0.11059 1.56347e-16 0)
(0.11059 -1.1079e-17 0)
(0.11059 2.12287e-17 0)
(0.11059 -9.42138e-17 0)
(0.11059 -3.28526e-17 0)
(0.11059 1.8725e-16 0)
(0.11059 -1.2151e-16 0)
(0.11059 -1.63136e-17 0)
(0.11059 -9.3091e-17 0)
(0.11059 2.51971e-17 0)
(0.11059 2.0982e-16 0)
(0.11059 -8.91514e-17 0)
(0.11059 -1.59556e-16 0)
(0.11059 -1.02376e-16 0)
(0.11059 1.24847e-16 0)
(0.11059 1.34494e-16 0)
(0.11059 -3.32215e-17 0)
(0.11059 -1.07205e-16 0)
(0.11059 -1.23087e-16 0)
(0.11059 3.04223e-16 0)
(0.11059 2.00444e-17 0)
(0.11059 -2.82781e-16 0)
(0.11059 2.66986e-16 0)
(0.11059 2.94826e-17 0)
(0.11059 -9.59571e-17 0)
(0.11059 -7.33237e-17 0)
(0.11059 -1.77774e-16 0)
(0.11059 3.23891e-16 0)
(0.11059 5.50968e-17 0)
(0.11059 -1.43314e-16 0)
(0.11059 -5.96621e-17 0)
(0.11059 -1.86148e-16 0)
(0.11059 3.00494e-16 0)
(0.11059 8.53278e-18 0)
(0.11059 -1.1506e-16 0)
(0.11059 9.57638e-17 0)
(0.11059 -8.9508e-17 0)
(0.11059 1.67124e-16 0)
(0.11059 -4.09307e-17 0)
(0.11059 1.74871e-17 0)
(0.11059 8.4275e-17 0)
(0.11059 -2.31916e-16 0)
(0.11059 8.66087e-17 0)
(0.11059 6.43243e-17 0)
(0.11059 7.36545e-17 0)
(0.11059 1.14643e-16 0)
(0.11059 -2.13168e-16 0)
(0.11059 9.40276e-17 0)
(0.11059 -4.33168e-17 0)
(0.11059 5.44092e-17 0)
(0.11059 1.50988e-16 0)
(0.11059 -3.33334e-16 0)
(0.11059 2.03146e-17 0)
(0.11059 9.64629e-17 0)
(0.11059 1.13627e-16 0)
(0.11059 2.61886e-17 0)
(0.11059 -2.58417e-16 0)
(0.11059 2.13182e-16 0)
(0.11059 -2.3228e-17 0)
(0.11059 -1.63134e-16 0)
(0.11059 -4.70114e-17 0)
(0.11059 -1.66698e-16 0)
(0.11059 3.20192e-16 0)
(0.11059 -4.35422e-18 0)
(0.11059 -4.75707e-17 0)
(0.11059 1.14891e-16 0)
(0.11059 -2.44745e-16 0)
(0.11059 1.10573e-16 0)
(0.11059 6.7812e-17 0)
(0.11059 -2.60038e-17 0)
(0.11059 1.34328e-17 0)
(0.11059 -1.28163e-16 0)
(0.11059 2.21187e-16 0)
(0.11059 3.47575e-17 0)
(0.11059 -3.34999e-17 0)
(0.11059 -4.08174e-17 0)
(0.11059 -1.7383e-16 0)
(0.11059 1.63741e-16 0)
(0.11059 1.23127e-17 0)
(0.11059 4.99927e-17 0)
(0.11059 -5.02609e-17 0)
(0.11059 -2.0145e-16 0)
(0.11059 1.53821e-16 0)
(0.11059 -2.28445e-18 0)
(0.11059 -5.71246e-17 0)
(0.11059 9.42522e-17 0)
(0.11059 -1.53445e-16 0)
(0.11059 6.76664e-17 0)
(0.11059 5.72512e-17 0)
(0.11059 -1.22244e-17 0)
(0.11059 2.19613e-18 0)
(0.11059 -1.81014e-16 0)
(0.11059 8.54348e-17 0)
(0.11059 1.38905e-16 0)
(0.11059 5.35602e-17 0)
(0.11059 -1.62467e-16 0)
(0.11059 -1.45807e-16 0)
(0.11059 2.14699e-16 0)
(0.11059 -4.10803e-17 0)
(0.11059 -6.31279e-17 0)
(0.11059 -3.62773e-17 0)
(0.11059 -5.53684e-17 0)
(0.11059 2.40093e-16 0)
(0.11059 -3.90587e-17 0)
(0.11059 -7.21576e-17 0)
(0.11059 -9.23488e-17 0)
(0.11059 -5.02774e-17 0)
(0.11059 2.61054e-16 0)
(0.11059 1.86715e-17 0)
(0.11059 7.68533e-17 0)
(0.11059 -1.14714e-16 0)
(0.11059 -2.22853e-16 0)
(0.11059 1.06434e-16 0)
(0.11059 6.29635e-17 0)
(0.11059 9.94951e-17 0)
(0.11059 -1.49603e-16 0)
(0.11059 -8.13742e-18 0)
(0.11059 7.5324e-17 0)
(0.11059 -1.45137e-16 0)
(0.11059 1.36416e-16 0)
(0.11059 -3.29515e-17 0)
(0.11059 -1.20632e-16 0)
(0.11059 9.7944e-17 0)
(0.11059 -9.35674e-17 0)
(0.11059 1.08913e-16 0)
(0.11059 9.77006e-18 0)
(0.11059 -2.0745e-16 0)
(0.181818 -3.58518e-16 0)
(0.181818 -1.1595e-16 0)
(0.181818 -5.38069e-17 0)
(0.181818 -2.3391e-17 0)
(0.181818 5.99049e-19 0)
(0.181818 2.19592e-17 0)
(0.181818 1.09177e-17 0)
(0.181818 1.661e-17 0)
(0.181818 5.38525e-17 0)
(0.181818 2.75385e-17 0)
(0.181818 2.28104e-17 0)
(0.181818 6.58446e-17 0)
(0.181818 1.09645e-16 0)
(0.181818 3.30891e-17 0)
(0.181818 -3.8343e-17 0)
(0.181818 4.79208e-17 0)
(0.181818 6.59094e-17 0)
(0.181818 5.94826e-17 0)
(0.181818 3.43103e-17 0)
(0.181818 5.60676e-17 0)
(0.181818 6.42741e-17 0)
(0.181818 -4.61286e-18 0)
(0.181818 -6.29255e-17 0)
(0.181818 -4.60772e-17 0)
(0.181818 -5.24589e-17 0)
(0.181818 -1.8411e-17 0)
(0.181818 -1.80406e-18 0)
(0.181818 -6.42308e-17 0)
(0.181818 -1.20532e-16 0)
(0.181818 -9.75254e-17 0)
(0.181818 -1.17653e-17 0)
(0.181818 6.73033e-17 0)
(0.181818 -1.20713e-17 0)
(0.181818 -5.37094e-17 0)
(0.181818 -2.27496e-17 0)
(0.181818 1.03099e-17 0)
(0.181818 5.92956e-17 0)
(0.181818 -1.84013e-17 0)
(0.181818 -7.38488e-17 0)
(0.181818 -3.55956e-18 0)
(0.181818 -1.56704e-17 0)
(0.181818 1.64591e-17 0)
(0.181818 4.09607e-17 0)
(0.181818 -6.59406e-17 0)
(0.181818 -3.35956e-17 0)
(0.181818 8.40235e-18 0)
(0.181818 -1.27159e-17 0)
(0.181818 -3.96517e-17 0)
(0.181818 -6.81235e-17 0)
(0.181818 -5.2158e-17 0)
(0.181818 -7.681e-17 0)
(0.181818 -5.22804e-17 0)
(0.181818 -5.36222e-17 0)
(0.181818 -4.86037e-17 0)
(0.181818 -8.56756e-18 0)
(0.181818 -9.83435e-17 0)
(0.181818 -2.4534e-17 0)
(0.181818 -9.26621e-18 0)
(0.181818 6.23812e-18 0)
(0.181818 4.48886e-17 0)
(0.181818 -1.16565e-16 0)
(0.181818 9.69234e-17 0)
(0.181818 4.49465e-18 0)
(0.181818 1.95418e-17 0)
(0.181818 1.65957e-16 0)
(0.181818 -3.24819e-17 0)
(0.181818 8.2665e-17 0)
(0.181818 7.10333e-17 0)
(0.181818 6.74391e-17 0)
(0.181818 8.2455e-17 0)
(0.181818 -4.35312e-17 0)
(0.181818 -8.83822e-18 0)
(0.181818 -4.94859e-17 0)
(0.181818 1.8389e-17 0)
(0.181818 7.44798e-17 0)
(0.181818 -1.27242e-16 0)
(0.181818 -1.1756e-16 0)
(0.181818 -2.03386e-18 0)
(0.181818 -6.13963e-17 0)
(0.181818 1.39355e-17 0)
(0.181818 -5.95447e-17 0)
(0.181818 -1.55939e-16 0)
(0.181818 1.89801e-17 0)
(0.181818 7.95787e-17 0)
(0.181818 1.03479e-16 0)
(0.181818 8.5119e-18 0)
(0.181818 1.12679e-17 0)
(0.181818 -9.53645e-18 0)
(0.181818 5.19076e-17 0)
(0.181818 2.09122e-16 0)
(0.181818 -4.61902e-17 0)
(0.181818 -1.02378e-16 0)
(0.181818 6.10946e-17 0)
(0.181818 6.06718e-17 0)
(0.181818 4.89712e-17 0)
(0.181818 -4.8872e-17 0)
(0.181818 1.98148e-17 0)
(0.181818 -1.00159e-17 0)
(0.181818 1.47289e-17 0)
(0.181818 5.35751e-18 0)
(0.181818 -4.07182e-17 0)
(0.181818 -2.28738e-17 0)
(0.181818 -5.54907e-17 0)
(0.181818 4.20659e-18 0)
(0.181818 9.02701e-17 0)
(0.181818 1.23043e-16 0)
(0.181818 -7.02428e-17 0)
(0.181818 -5.40716e-17 0)
(0.181818 2.14771e-16 0)
(0.181818 2.08257e-16 0)
(0.181818 -3.09797e-18 0)
(0.181818 -3.15293e-16 0)
(0.181818 5.14004e-17 0)
(0.181818 2.75064e-16 0)
(0.181818 1.22454e-16 0)
(0.181818 -2.8383e-17 0)
(0.181818 -2.58743e-16 0)
(0.181818 -6.81371e-17 0)
(0.181818 2.86499e-16 0)
(0.181818 1.14288e-16 0)
(0.181818 -2.29717e-16 0)
(0.181818 -3.23022e-16 0)
(0.181818 -3.36967e-17 0)
(0.181818 3.46695e-16 0)
(0.181818 2.12888e-16 0)
(0.181818 -1.68121e-16 0)
(0.181818 -3.66084e-16 0)
(0.181818 9.54652e-17 0)
(0.181818 3.26252e-16 0)
(0.181818 4.76561e-17 0)
(0.181818 -9.66697e-17 0)
(0.181818 -2.20878e-16 0)
(0.181818 4.47821e-17 0)
(0.181818 2.32105e-16 0)
(0.181818 -3.79708e-17 0)
(0.181818 -1.53007e-16 0)
(0.181818 -2.2994e-16 0)
(0.181818 -6.9408e-17 0)
(0.181818 1.96998e-16 0)
(0.181818 1.59029e-19 0)
(0.181818 -1.46638e-16 0)
(0.181818 -1.71473e-16 0)
(0.181818 5.42631e-17 0)
(0.181818 1.1951e-16 0)
(0.181818 -7.01715e-17 0)
(0.181818 -7.85668e-17 0)
(0.181818 -1.31343e-16 0)
(0.181818 1.07839e-16 0)
(0.181818 2.30946e-17 0)
(0.181818 -9.77576e-17 0)
(0.181818 1.04919e-16 0)
(0.181818 -1.1779e-16 0)
(0.181818 -1.46919e-16 0)
(0.181818 4.77449e-17 0)
(0.181818 1.25878e-16 0)
(0.181818 1.60185e-16 0)
(0.181818 -6.13435e-17 0)
(0.181818 -1.42205e-16 0)
(0.181818 1.01512e-16 0)
(0.181818 1.86366e-16 0)
(0.181818 1.72168e-16 0)
(0.181818 -1.7156e-16 0)
(0.181818 -3.92734e-17 0)
(0.181818 2.23507e-16 0)
(0.181818 -6.3693e-17 0)
(0.181818 7.9083e-17 0)
(0.181818 1.11775e-16 0)
(0.181818 7.92094e-17 0)
(0.181818 1.43572e-16 0)
(0.181818 6.66892e-17 0)
(0.181818 -3.20302e-18 0)
(0.181818 -1.13884e-16 0)
(0.181818 8.92119e-17 0)
(0.181818 1.73514e-16 0)
(0.181818 1.07524e-17 0)
(0.181818 -1.75131e-16 0)
(0.181818 -1.855e-16 0)
(0.181818 9.11596e-17 0)
(0.181818 -1.58314e-17 0)
(0.181818 1.24121e-16 0)
(0.181818 4.98593e-17 0)
(0.181818 -3.85128e-16 0)
(0.181818 -3.94064e-17 0)
(0.181818 1.78413e-16 0)
(0.181818 5.21017e-17 0)
(0.181818 1.20222e-16 0)
(0.181818 -1.93428e-16 0)
(0.181818 -6.50236e-17 0)
(0.181818 1.87848e-16 0)
(0.181818 -5.38041e-17 0)
(0.181818 -2.95769e-17 0)
(0.181818 -5.57595e-17 0)
(0.181818 -7.21397e-17 0)
(0.181818 1.2142e-16 0)
(0.181818 8.42325e-17 0)
(0.181818 5.03833e-17 0)
(0.181818 -1.0927e-16 0)
(0.181818 -6.58707e-17 0)
(0.181818 7.79535e-17 0)
(0.181818 -4.61106e-17 0)
(0.181818 -4.6496e-17 0)
(0.181818 -8.81385e-17 0)
(0.181818 4.95315e-17 0)
(0.181818 1.26841e-16 0)
(0.181818 -6.81946e-17 0)
(0.181818 -1.4865e-16 0)
(0.181818 -1.23752e-16 0)
(0.181818 6.82995e-17 0)
(0.181818 8.02265e-17 0)
(0.181818 9.58692e-18 0)
(0.181818 -2.47959e-17 0)
(0.181818 -1.79285e-16 0)
(0.181818 3.9776e-16 0)
(0.181818 4.74755e-17 0)
(0.181818 -3.17486e-16 0)
(0.181818 3.24495e-16 0)
(0.181818 -6.62458e-17 0)
(0.181818 -7.84724e-18 0)
(0.181818 -1.03996e-16 0)
(0.181818 -3.33636e-16 0)
(0.181818 4.89541e-16 0)
(0.181818 4.00316e-17 0)
(0.181818 -1.23192e-16 0)
(0.181818 -6.79736e-17 0)
(0.181818 -3.48839e-16 0)
(0.181818 4.52613e-16 0)
(0.181818 4.22473e-17 0)
(0.181818 -1.52789e-16 0)
(0.181818 7.4524e-17 0)
(0.181818 -1.63793e-16 0)
(0.181818 4.64836e-16 0)
(0.181818 4.46256e-17 0)
(0.181818 -9.99371e-17 0)
(0.181818 9.49556e-17 0)
(0.181818 -3.24798e-16 0)
(0.181818 1.26907e-16 0)
(0.181818 -6.27094e-18 0)
(0.181818 2.88959e-16 0)
(0.181818 3.25268e-16 0)
(0.181818 -4.12152e-16 0)
(0.181818 1.24874e-16 0)
(0.181818 -1.03597e-16 0)
(0.181818 1.56523e-16 0)
(0.181818 2.35345e-16 0)
(0.181818 -6.34653e-16 0)
(0.181818 7.87617e-17 0)
(0.181818 1.41646e-16 0)
(0.181818 1.82102e-16 0)
(0.181818 4.00531e-17 0)
(0.181818 -4.23621e-16 0)
(0.181818 4.8402e-16 0)
(0.181818 -6.30887e-17 0)
(0.181818 -4.33487e-16 0)
(0.181818 -2.69578e-16 0)
(0.181818 -2.06426e-16 0)
(0.181818 7.26662e-16 0)
(0.181818 -1.44458e-17 0)
(0.181818 -1.68507e-16 0)
(0.181818 1.46627e-16 0)
(0.181818 -3.64332e-16 0)
(0.181818 2.51308e-16 0)
(0.181818 4.56757e-17 0)
(0.181818 8.65809e-18 0)
(0.181818 1.79718e-17 0)
(0.181818 -2.3972e-16 0)
(0.181818 4.55868e-16 0)
(0.181818 2.3413e-17 0)
(0.181818 -8.682e-17 0)
(0.181818 2.6696e-18 0)
(0.181818 -3.27556e-16 0)
(0.181818 2.71621e-16 0)
(0.181818 3.43878e-17 0)
(0.181818 -5.26663e-19 0)
(0.181818 -5.38809e-19 0)
(0.181818 -3.72754e-16 0)
(0.181818 2.44392e-16 0)
(0.181818 -8.55783e-18 0)
(0.181818 -6.23997e-18 0)
(0.181818 1.0208e-16 0)
(0.181818 -3.94797e-16 0)
(0.181818 1.82422e-16 0)
(0.181818 2.46794e-17 0)
(0.181818 -9.02552e-18 0)
(0.181818 9.92963e-17 0)
(0.181818 -3.41295e-16 0)
(0.181818 2.2886e-16 0)
(0.181818 2.1907e-16 0)
(0.181818 -1.2051e-16 0)
(0.181818 -1.60751e-16 0)
(0.181818 -2.30707e-16 0)
(0.181818 2.80317e-16 0)
(0.181818 5.43201e-17 0)
(0.181818 -2.10386e-16 0)
(0.181818 5.08996e-17 0)
(0.181818 -1.04413e-16 0)
(0.181818 1.40199e-16 0)
(0.181818 2.08762e-16 0)
(0.181818 -1.61617e-16 0)
(0.181818 -9.02201e-17 0)
(0.181818 -1.41896e-16 0)
(0.181818 2.55689e-16 0)
(0.181818 3.93461e-16 0)
(0.181818 4.09619e-17 0)
(0.181818 -3.57228e-16 0)
(0.181818 -1.76282e-16 0)
(0.181818 2.43695e-16 0)
(0.181818 4.40301e-17 0)
(0.181818 3.05352e-17 0)
(0.181818 -2.83403e-16 0)
(0.181818 1.28744e-17 0)
(0.181818 1.32443e-16 0)
(0.181818 -2.17855e-16 0)
(0.181818 1.43841e-16 0)
(0.181818 -2.49043e-17 0)
(0.181818 -1.57732e-16 0)
(0.181818 -1.52154e-17 0)
(0.181818 -1.34259e-16 0)
(0.181818 2.64692e-16 0)
(0.181818 -5.39275e-17 0)
(0.181818 -3.15047e-16 0)
(0.251172 -2.22063e-16 0)
(0.251172 -1.40539e-16 0)
(0.251172 -8.78364e-17 0)
(0.251172 -3.41448e-17 0)
(0.251172 -2.67389e-17 0)
(0.251172 2.9058e-17 0)
(0.251172 4.41444e-17 0)
(0.251172 5.71127e-17 0)
(0.251172 7.57901e-17 0)
(0.251172 5.05358e-17 0)
(0.251172 5.35407e-17 0)
(0.251172 1.00725e-16 0)
(0.251172 1.64148e-16 0)
(0.251172 7.14044e-17 0)
(0.251172 -1.5543e-17 0)
(0.251172 6.28363e-17 0)
(0.251172 1.25572e-16 0)
(0.251172 1.1436e-16 0)
(0.251172 6.85431e-17 0)
(0.251172 5.83819e-17 0)
(0.251172 9.34496e-17 0)
(0.251172 6.17563e-18 0)
(0.251172 -9.17062e-17 0)
(0.251172 -7.83008e-17 0)
(0.251172 -8.08569e-17 0)
(0.251172 -5.30736e-17 0)
(0.251172 -2.41489e-17 0)
(0.251172 -1.34991e-16 0)
(0.251172 -2.00442e-16 0)
(0.251172 -1.48182e-16 0)
(0.251172 1.41011e-17 0)
(0.251172 5.72978e-17 0)
(0.251172 -1.54233e-17 0)
(0.251172 -5.58642e-17 0)
(0.251172 -3.9404e-17 0)
(0.251172 -2.02585e-17 0)
(0.251172 5.43114e-17 0)
(0.251172 -1.77254e-17 0)
(0.251172 -1.10981e-16 0)
(0.251172 -2.25538e-17 0)
(0.251172 -1.42035e-17 0)
(0.251172 2.38329e-17 0)
(0.251172 1.63463e-17 0)
(0.251172 -8.29982e-17 0)
(0.251172 -3.85071e-17 0)
(0.251172 1.1541e-18 0)
(0.251172 -2.34843e-17 0)
(0.251172 -7.20012e-17 0)
(0.251172 -1.14985e-16 0)
(0.251172 -1.20554e-16 0)
(0.251172 -1.73273e-16 0)
(0.251172 -8.36763e-17 0)
(0.251172 -7.84999e-17 0)
(0.251172 -9.12083e-17 0)
(0.251172 -2.59516e-17 0)
(0.251172 -1.46391e-16 0)
(0.251172 -5.76745e-17 0)
(0.251172 -3.57251e-17 0)
(0.251172 -1.95029e-17 0)
(0.251172 6.86706e-17 0)
(0.251172 -1.13447e-16 0)
(0.251172 8.1855e-17 0)
(0.251172 3.13335e-17 0)
(0.251172 7.48865e-17 0)
(0.251172 1.80505e-16 0)
(0.251172 -1.40409e-17 0)
(0.251172 1.7762e-16 0)
(0.251172 1.2144e-16 0)
(0.251172 1.26424e-16 0)
(0.251172 1.48274e-16 0)
(0.251172 -6.63342e-17 0)
(0.251172 -2.63022e-17 0)
(0.251172 -5.023e-17 0)
(0.251172 1.82286e-17 0)
(0.251172 9.34435e-17 0)
(0.251172 -2.04709e-16 0)
(0.251172 -1.74589e-16 0)
(0.251172 -6.56948e-17 0)
(0.251172 -1.17841e-16 0)
(0.251172 1.31217e-17 0)
(0.251172 -1.12086e-16 0)
(0.251172 -2.1717e-16 0)
(0.251172 2.91037e-17 0)
(0.251172 1.64353e-16 0)
(0.251172 1.48875e-16 0)
(0.251172 -5.48971e-18 0)
(0.251172 1.90878e-17 0)
(0.251172 8.02524e-17 0)
(0.251172 1.10782e-16 0)
(0.251172 2.26297e-16 0)
(0.251172 -5.8082e-18 0)
(0.251172 -9.81504e-17 0)
(0.251172 3.66153e-17 0)
(0.251172 9.287e-17 0)
(0.251172 6.92179e-17 0)
(0.251172 -7.46114e-17 0)
(0.251172 3.85485e-17 0)
(0.251172 1.92274e-17 0)
(0.251172 -1.2081e-17 0)
(0.251172 6.11877e-18 0)
(0.251172 -7.05952e-17 0)
(0.251172 -4.52312e-17 0)
(0.251172 -1.01293e-16 0)
(0.251172 3.72328e-17 0)
(0.251172 1.97076e-16 0)
(0.251172 1.84355e-16 0)
(0.251172 -9.40557e-17 0)
(0.251172 -7.7749e-17 0)
(0.251172 3.32006e-16 0)
(0.251172 3.38399e-16 0)
(0.251172 -2.73976e-17 0)
(0.251172 -3.9106e-16 0)
(0.251172 5.58865e-17 0)
(0.251172 3.7197e-16 0)
(0.251172 2.46517e-16 0)
(0.251172 2.19872e-17 0)
(0.251172 -3.90798e-16 0)
(0.251172 -1.32473e-16 0)
(0.251172 3.6586e-16 0)
(0.251172 1.66101e-16 0)
(0.251172 -3.46044e-16 0)
(0.251172 -5.19768e-16 0)
(0.251172 -1.68892e-17 0)
(0.251172 4.90009e-16 0)
(0.251172 2.5632e-16 0)
(0.251172 -1.90784e-16 0)
(0.251172 -4.02857e-16 0)
(0.251172 8.57715e-17 0)
(0.251172 4.47813e-16 0)
(0.251172 6.55868e-17 0)
(0.251172 -1.91889e-16 0)
(0.251172 -2.13551e-16 0)
(0.251172 1.09812e-17 0)
(0.251172 2.77512e-16 0)
(0.251172 7.12172e-18 0)
(0.251172 -2.25567e-16 0)
(0.251172 -3.92864e-16 0)
(0.251172 -1.31422e-16 0)
(0.251172 3.03133e-16 0)
(0.251172 3.41303e-17 0)
(0.251172 -2.61944e-16 0)
(0.251172 -3.48834e-16 0)
(0.251172 6.53258e-17 0)
(0.251172 1.54097e-16 0)
(0.251172 -3.41467e-17 0)
(0.251172 -8.06239e-17 0)
(0.251172 -3.22069e-16 0)
(0.251172 8.7166e-17 0)
(0.251172 7.87422e-17 0)
(0.251172 -6.52276e-17 0)
(0.251172 8.91524e-17 0)
(0.251172 -2.31931e-16 0)
(0.251172 -1.25605e-16 0)
(0.251172 9.72437e-17 0)
(0.251172 1.60172e-16 0)
(0.251172 1.58161e-16 0)
(0.251172 -1.25077e-16 0)
(0.251172 -1.1727e-16 0)
(0.251172 2.21566e-16 0)
(0.251172 2.73778e-16 0)
(0.251172 2.0937e-16 0)
(0.251172 -2.19989e-16 0)
(0.251172 4.16801e-17 0)
(0.251172 3.40085e-16 0)
(0.251172 -7.17505e-17 0)
(0.251172 1.44828e-16 0)
(0.251172 1.83589e-16 0)
(0.251172 1.85889e-16 0)
(0.251172 2.2609e-16 0)
(0.251172 1.00194e-16 0)
(0.251172 2.66626e-17 0)
(0.251172 -1.68715e-16 0)
(0.251172 8.63442e-17 0)
(0.251172 2.93241e-16 0)
(0.251172 -3.91225e-17 0)
(0.251172 -2.26133e-16 0)
(0.251172 -1.94432e-16 0)
(0.251172 3.1056e-18 0)
(0.251172 -1.78061e-17 0)
(0.251172 1.49612e-16 0)
(0.251172 4.307e-17 0)
(0.251172 -4.6477e-16 0)
(0.251172 -2.81907e-17 0)
(0.251172 2.24541e-16 0)
(0.251172 4.22809e-17 0)
(0.251172 9.92165e-17 0)
(0.251172 -1.89714e-16 0)