/*--------------------------------*- C++ -*----------------------------------*\
| =========                 |                                                 |
| \\      /  F ield         | OpenFOAM: The Open Source CFD Toolbox           |
|  \\    /   O peration     | Version:  2112                                  |
|   \\  /    A nd           | Website:  www.openfoam.com                      |
|    \\/     M anipulation  |                                                 |
\*---------------------------------------------------------------------------*/
FoamFile
{
    version     2.0;
    format      ascii;
    arch        "LSB;label=32;scalar=64";
    class       volVectorField;
    location    "7";
    object      U;
}
// * * * * * * * * * * * * * * * * * * * * * * * * * * * * * * * * * * * * * //

dimensions      [0 1 -1 0 0 0 0];

internalField   nonuniform List<vector> 
50000
(
(0.03018 -2.81768e-15 0)
(0.03018 -5.62699e-16 0)
(0.03018 -6.84379e-17 0)
(0.03018 -2.57657e-17 0)
(0.03018 -1.32282e-17 0)
(0.03018 -8.79144e-18 0)
(0.03018 -5.43362e-18 0)
(0.03018 -4.1311e-18 0)
(0.03018 1.56885e-18 0)
(0.03018 3.51782e-19 0)
(0.03018 -4.73246e-18 0)
(0.03018 -4.50028e-18 0)
(0.03018 -3.90693e-18 0)
(0.03018 -1.2696e-18 0)
(0.03018 2.32224e-18 0)
(0.03018 -4.41915e-18 0)
(0.03018 -1.07948e-17 0)
(0.03018 -1.95753e-18 0)
(0.03018 -2.26076e-18 0)
(0.03018 -6.06662e-19 0)
(0.03018 4.85127e-18 0)
(0.03018 7.68852e-19 0)
(0.03018 3.88005e-19 0)
(0.03018 -3.92802e-19 0)
(0.03018 -5.10526e-18 0)
(0.03018 -7.11799e-18 0)
(0.03018 -2.55816e-18 0)
(0.03018 1.09792e-17 0)
(0.03018 -1.01657e-17 0)
(0.03018 -1.27687e-19 0)
(0.03018 7.51543e-18 0)
(0.03018 -1.48656e-17 0)
(0.03018 -4.05766e-18 0)
(0.03018 7.06535e-18 0)
(0.03018 -7.45647e-18 0)
(0.03018 6.89202e-18 0)
(0.03018 -2.80886e-18 0)
(0.03018 -3.26919e-18 0)
(0.03018 9.57555e-19 0)
(0.03018 -9.98438e-18 0)
(0.03018 2.2698e-18 0)
(0.03018 -8.77418e-18 0)
(0.03018 1.02902e-17 0)
(0.03018 6.12553e-18 0)
(0.03018 -1.74053e-17 0)
(0.03018 1.23575e-18 0)
(0.03018 1.46417e-17 0)
(0.03018 -1.11298e-17 0)
(0.03018 -9.9143e-18 0)
(0.03018 1.01898e-17 0)
(0.03018 3.02229e-18 0)
(0.03018 1.04997e-17 0)
(0.03018 -1.33488e-17 0)
(0.03018 -8.32986e-18 0)
(0.03018 1.48274e-17 0)
(0.03018 -5.81659e-18 0)
(0.03018 1.52996e-17 0)
(0.03018 -8.33044e-18 0)
(0.03018 -1.81066e-17 0)
(0.03018 1.29122e-17 0)
(0.03018 3.12463e-18 0)
(0.03018 -1.02238e-17 0)
(0.03018 -5.83739e-20 0)
(0.03018 1.15369e-17 0)
(0.03018 -1.98338e-17 0)
(0.03018 2.80357e-18 0)
(0.03018 5.84387e-18 0)
(0.03018 9.71945e-18 0)
(0.03018 3.98016e-18 0)
(0.03018 -1.05292e-17 0)
(0.03018 -1.11707e-17 0)
(0.03018 -1.0077e-18 0)
(0.03018 2.77861e-17 0)
(0.03018 -1.27423e-17 0)
(0.03018 -1.58149e-17 0)
(0.03018 3.19501e-17 0)
(0.03018 4.36681e-18 0)
(0.03018 -2.88851e-17 0)
(0.03018 -6.36186e-18 0)
(0.03018 1.4092e-17 0)
(0.03018 3.55271e-18 0)
(0.03018 -7.99761e-18 0)
(0.03018 3.65368e-18 0)
(0.03018 1.30061e-17 0)
(0.03018 -2.11194e-17 0)
(0.03018 1.50756e-17 0)
(0.03018 1.93299e-17 0)
(0.03018 -2.06406e-17 0)
(0.03018 -4.11738e-18 0)
(0.03018 -1.06517e-17 0)
(0.03018 8.57284e-18 0)
(0.03018 2.00301e-17 0)
(0.03018 -1.11636e-17 0)
(0.03018 8.45627e-19 0)
(0.03018 1.35418e-17 0)
(0.03018 -3.906e-17 0)
(0.03018 1.0679e-17 0)
(0.03018 3.18835e-17 0)
(0.03018 -1.63561e-17 0)
(0.03018 -7.4672e-18 0)
(0.03018 9.97128e-18 0)
(0.03018 3.04337e-17 0)
(0.03018 -2.29038e-17 0)
(0.03018 -2.53108e-17 0)
(0.03018 4.32382e-17 0)
(0.03018 -1.15507e-17 0)
(0.03018 -2.34315e-17 0)
(0.03018 1.29482e-17 0)
(0.03018 7.31834e-18 0)
(0.03018 2.92385e-17 0)
(0.03018 -2.46419e-17 0)
(0.03018 -2.7975e-17 0)
(0.03018 1.61549e-17 0)
(0.03018 9.78288e-18 0)
(0.03018 2.15356e-17 0)
(0.03018 -9.75232e-18 0)
(0.03018 -4.54547e-17 0)
(0.03018 7.84223e-18 0)
(0.03018 2.5616e-17 0)
(0.03018 -5.65647e-19 0)
(0.03018 -5.72915e-18 0)
(0.03018 -6.43656e-19 0)
(0.03018 2.66997e-17 0)
(0.03018 -2.83897e-18 0)
(0.03018 -4.70979e-17 0)
(0.03018 2.81682e-17 0)
(0.03018 2.53174e-17 0)
(0.03018 -2.52603e-17 0)
(0.03018 1.53088e-18 0)
(0.03018 2.27832e-18 0)
(0.03018 -1.62043e-17 0)
(0.03018 -3.82805e-19 0)
(0.03018 2.98388e-17 0)
(0.03018 -6.5616e-18 0)
(0.03018 -8.14707e-18 0)
(0.03018 1.01217e-17 0)
(0.03018 1.81361e-17 0)
(0.03018 -2.8449e-17 0)
(0.03018 1.05103e-17 0)
(0.03018 2.9595e-17 0)
(0.03018 -3.56023e-17 0)
(0.03018 -3.45394e-17 0)
(0.03018 1.15786e-17 0)
(0.03018 3.81085e-17 0)
(0.03018 -1.75813e-17 0)
(0.03018 -4.23282e-18 0)
(0.03018 4.86705e-17 0)
(0.03018 -3.15357e-17 0)
(0.03018 -3.61381e-17 0)
(0.03018 3.67792e-17 0)
(0.03018 -8.68489e-18 0)
(0.03018 2.61714e-18 0)
(0.03018 3.45366e-17 0)
(0.03018 -4.24028e-17 0)
(0.03018 -9.22502e-20 0)
(0.03018 2.84759e-17 0)
(0.03018 -5.51001e-17 0)
(0.03018 -2.08759e-17 0)
(0.03018 3.93959e-17 0)
(0.03018 5.77152e-17 0)
(0.03018 -3.26256e-17 0)
(0.03018 -2.91142e-18 0)
(0.03018 -1.96652e-18 0)
(0.03018 -2.17351e-18 0)
(0.03018 -7.3455e-18 0)
(0.03018 -2.32097e-18 0)
(0.03018 1.31168e-17 0)
(0.03018 -5.52899e-17 0)
(0.03018 7.5111e-17 0)
(0.03018 1.77111e-17 0)
(0.03018 -8.00481e-17 0)
(0.03018 6.38537e-17 0)
(0.03018 3.34366e-17 0)
(0.03018 -6.71632e-17 0)
(0.03018 1.34068e-17 0)
(0.03018 7.20615e-19 0)
(0.03018 1.50322e-17 0)
(0.03018 -6.06337e-18 0)
(0.03018 -9.7264e-18 0)
(0.03018 4.33203e-17 0)
(0.03018 -4.07147e-17 0)
(0.03018 -9.86804e-18 0)
(0.03018 2.85009e-17 0)
(0.03018 -2.92275e-17 0)
(0.03018 4.82709e-17 0)
(0.03018 -3.48211e-18 0)
(0.03018 -5.32754e-17 0)
(0.03018 4.05478e-17 0)
(0.03018 3.61227e-18 0)
(0.03018 -2.47638e-17 0)
(0.03018 -8.43446e-18 0)
(0.03018 -4.3929e-18 0)
(0.03018 -4.08872e-17 0)
(0.03018 3.85971e-17 0)
(0.03018 4.18633e-17 0)
(0.03018 -2.64316e-17 0)
(0.03018 1.33599e-17 0)
(0.03018 4.01681e-17 0)
(0.03018 -5.86044e-17 0)
(0.03018 -4.04527e-17 0)
(0.03018 4.80528e-17 0)
(0.03018 -2.57394e-17 0)
(0.03018 1.33662e-17 0)
(0.03018 3.18846e-18 0)
(0.03018 4.5606e-17 0)
(0.03018 -2.0009e-17 0)
(0.03018 -6.20732e-17 0)
(0.03018 2.47368e-17 0)
(0.03018 8.13006e-18 0)
(0.03018 5.46021e-18 0)
(0.03018 4.42255e-17 0)
(0.03018 -3.75669e-17 0)
(0.03018 -5.28814e-17 0)
(0.03018 9.62772e-17 0)
(0.03018 -5.55362e-17 0)
(0.03018 -3.61751e-17 0)
(0.03018 3.45746e-17 0)
(0.03018 -8.60052e-18 0)
(0.03018 1.65629e-17 0)
(0.03018 4.91027e-17 0)
(0.03018 -7.11739e-18 0)
(0.03018 -4.54903e-17 0)
(0.03018 -2.84565e-17 0)
(0.03018 -5.82733e-18 0)
(0.03018 4.19039e-17 0)
(0.03018 -4.7342e-17 0)
(0.03018 3.51538e-17 0)
(0.03018 4.44419e-17 0)
(0.03018 -3.20941e-17 0)
(0.03018 3.81059e-17 0)
(0.03018 6.59435e-18 0)
(0.03018 -9.02862e-17 0)
(0.03018 3.19866e-17 0)
(0.03018 5.90906e-18 0)
(0.03018 -5.50435e-17 0)
(0.03018 5.09846e-17 0)
(0.03018 3.41088e-18 0)
(0.03018 4.26007e-17 0)
(0.03018 -4.11204e-17 0)
(0.03018 -1.69718e-18 0)
(0.03018 2.52302e-18 0)
(0.03018 -4.94179e-17 0)
(0.03018 3.60001e-17 0)
(0.03018 6.1359e-17 0)
(0.03018 -5.00496e-17 0)
(0.03018 -5.67413e-18 0)
(0.03018 5.14503e-17 0)
(0.03018 -5.41725e-17 0)
(0.03018 3.51299e-18 0)
(0.03018 -3.07172e-17 0)
(0.03018 -1.15377e-17 0)
(0.03018 -8.64232e-18 0)
(0.03018 9.69473e-17 0)
(0.03018 -1.91962e-18 0)
(0.03018 -4.84429e-17 0)
(0.03018 4.71742e-17 0)
(0.03018 -4.01651e-17 0)
(0.03018 -4.58933e-17 0)
(0.03018 4.74809e-17 0)
(0.03018 -2.24722e-17 0)
(0.03018 4.4335e-18 0)
(0.03018 6.79257e-17 0)
(0.03018 -9.85167e-17 0)
(0.03018 5.72503e-17 0)
(0.03018 -2.1012e-17 0)
(0.03018 -3.08337e-17 0)
(0.03018 4.33081e-17 0)
(0.03018 -5.85572e-17 0)
(0.03018 2.01906e-17 0)
(0.03018 1.4109e-16 0)
(0.03018 -1.09612e-16 0)
(0.03018 -5.59309e-17 0)
(0.03018 6.84355e-17 0)
(0.03018 -6.18864e-17 0)
(0.03018 8.96718e-17 0)
(0.03018 -8.30457e-17 0)
(0.03018 -8.92927e-18 0)
(0.03018 8.22758e-17 0)
(0.03018 1.11654e-17 0)
(0.03018 -3.96191e-17 0)
(0.03018 -2.54936e-18 0)
(0.03018 -1.28985e-17 0)
(0.03018 9.09691e-18 0)
(0.03018 3.2108e-17 0)
(0.03018 -8.24191e-17 0)
(0.03018 1.05085e-16 0)
(0.03018 -2.59749e-17 0)
(0.03018 -8.62064e-17 0)
(0.03018 7.17726e-17 0)
(0.03018 5.07692e-17 0)
(0.03018 -8.59731e-17 0)
(0.03018 -2.62681e-17 0)
(0.03018 6.05064e-17 0)
(0.03018 -2.82451e-17 0)
(0.03018 8.31488e-17 0)
(0.03018 4.39606e-17 0)
(0.03018 -1.6345e-16 0)
(0.03018 1.82776e-17 0)
(0.03018 3.97298e-17 0)
(0.03018 -7.41518e-17 0)
(0.03018 7.1678e-17 0)
(0.03018 -4.35809e-17 0)
(0.03018 1.89615e-17 0)
(0.03018 1.30926e-16 0)
(0.03018 -9.9977e-17 0)
(0.03018 -8.06176e-17 0)
(0.03018 1.13264e-16 0)
(0.03018 -5.20321e-17 0)
(0.03018 -6.53351e-17 0)
(0.03018 7.02865e-17 0)
(0.03018 5.92367e-17 0)
(0.03018 -6.9883e-17 0)
(0.03018 1.20512e-17 0)
(0.03018 7.94092e-18 0)
(0.03018 -5.83799e-17 0)
(0.03018 8.34356e-17 0)
(0.03018 -9.17089e-17 0)
(0.03018 5.33523e-19 0)
(0.03018 7.772e-17 0)
(0.03018 1.33584e-17 0)
(0.03018 1.60512e-17 0)
(0.03018 -8.21269e-18 0)
(0.03018 -9.24667e-17 0)
(0.03018 -4.31789e-17 0)
(0.03018 1.4089e-16 0)
(0.03018 -9.95357e-17 0)
(0.03018 -5.67848e-18 0)
(0.03018 3.86205e-17 0)
(0.03018 5.48337e-17 0)
(0.03018 6.27396e-17 0)
(0.03018 -1.65384e-16 0)
(0.03018 5.93292e-19 0)
(0.03018 1.10786e-16 0)
(0.03018 -1.11006e-16 0)
(0.03018 7.05509e-18 0)
(0.03018 1.59122e-16 0)
(0.03018 -1.6193e-16 0)
(0.03018 6.799e-17 0)
(0.03018 1.03898e-16 0)
(0.03018 -1.57218e-16 0)
(0.03018 1.20224e-17 0)
(0.03018 7.02902e-17 0)
(0.03018 -8.90951e-17 0)
(0.03018 9.1574e-18 0)
(0.03018 1.30624e-16 0)
(0.03018 -3.95593e-17 0)
(0.03018 -3.83019e-17 0)
(0.03018 -1.41219e-17 0)
(0.03018 -4.33862e-17 0)
(0.03018 2.06423e-17 0)
(0.03018 6.26315e-17 0)
(0.03018 -9.82938e-17 0)
(0.03018 1.17235e-17 0)
(0.03018 1.36261e-16 0)
(0.03018 -3.98447e-17 0)
(0.03018 -4.01625e-17 0)
(0.03018 -5.87028e-17 0)
(0.03018 -4.13167e-18 0)
(0.03018 8.79985e-17 0)
(0.03018 -8.95045e-17 0)
(0.03018 8.28121e-17 0)
(0.03018 1.43064e-17 0)
(0.03018 -9.14244e-17 0)
(0.03018 1.26947e-16 0)
(0.03018 -6.79274e-17 0)
(0.03018 -4.35725e-17 0)
(0.03018 4.76384e-17 0)
(0.03018 3.46819e-17 0)
(0.03018 -1.00457e-16 0)
(0.03018 7.03002e-17 0)
(0.03018 8.31001e-17 0)
(0.03018 -1.02813e-16 0)
(0.03018 -3.41871e-17 0)
(0.03018 -8.72937e-19 0)
(0.03018 5.6283e-17 0)
(0.03018 -2.02991e-17 0)
(0.03018 5.14428e-17 0)
(0.03018 -9.47809e-17 0)
(0.03018 6.4999e-17 0)
(0.03018 7.66863e-17 0)
(0.03018 -1.03684e-16 0)
(0.03018 -4.13243e-17 0)
(0.03018 4.99453e-17 0)
(0.03018 4.03731e-18 0)
(0.03018 -2.58573e-17 0)
(0.03018 5.1402e-17 0)
(0.03018 -1.0825e-16 0)
(0.03018 1.18174e-16 0)
(0.03018 2.44457e-17 0)
(0.03018 -8.99647e-17 0)
(0.03018 1.57227e-17 0)
(0.03018 6.4592e-18 0)
(0.03018 6.19493e-18 0)
(0.03018 -2.88979e-17 0)
(0.03018 4.74754e-17 0)
(0.03018 9.7353e-17 0)
(0.03018 -3.34965e-17 0)
(0.03018 -1.67981e-16 0)
(0.03018 7.47486e-18 0)
(0.03018 7.64823e-17 0)
(0.03018 5.49744e-20 0)
(0.03018 1.26668e-16 0)
(0.03018 -1.18871e-16 0)
(0.03018 -8.40256e-17 0)
(0.03018 6.29771e-17 0)
(0.03018 1.01252e-16 0)
(0.03018 -3.79425e-17 0)
(0.03018 -1.45916e-16 0)
(0.03018 6.77984e-17 0)
(0.03018 2.5535e-17 0)
(0.03018 1.4055e-16 0)
(0.03018 -1.35245e-16 0)
(0.03018 -8.04293e-17 0)
(0.03018 9.21358e-17 0)
(0.03018 -1.52398e-17 0)
(0.03018 9.02401e-18 0)
(0.03018 -3.31653e-17 0)
(0.03018 1.08283e-17 0)
(0.03018 2.1808e-17 0)
(0.03018 1.00489e-16 0)
(0.03018 -1.16336e-16 0)
(0.03018 -9.94623e-17 0)
(0.03018 2.20769e-16 0)
(0.03018 -9.56763e-17 0)
(0.03018 -1.0937e-16 0)
(0.03018 8.03813e-17 0)
(0.03018 2.42463e-17 0)
(0.03018 -9.76609e-19 0)
(0.03018 9.09521e-17 0)
(0.03018 -1.03808e-16 0)
(0.03018 -1.17141e-16 0)
(0.03018 2.21736e-16 0)
(0.03018 -7.31428e-17 0)
(0.03018 -1.37429e-16 0)
(0.03018 6.38383e-17 0)
(0.03018 1.62369e-16 0)
(0.03018 -1.10543e-16 0)
(0.03018 -5.48739e-18 0)
(0.03018 8.04588e-18 0)
(0.03018 -1.14251e-16 0)
(0.03018 2.14809e-16 0)
(0.03018 -1.13342e-16 0)
(0.03018 -1.11414e-17 0)
(0.03018 -8.46247e-17 0)
(0.03018 1.06895e-16 0)
(0.03018 8.0875e-17 0)
(0.03018 -1.85429e-16 0)
(0.03018 1.01539e-16 0)
(0.03018 -1.42968e-17 0)
(0.03018 2.79434e-17 0)
(0.03018 -2.31264e-17 0)
(0.03018 8.7615e-17 0)
(0.03018 -1.69682e-16 0)
(0.03018 1.02538e-16 0)
(0.03018 7.60031e-17 0)
(0.03018 -1.83236e-16 0)
(0.03018 1.00961e-16 0)
(0.03018 9.20198e-17 0)
(0.03018 -5.45611e-17 0)
(0.03018 -1.57522e-16 0)
(0.03018 1.96295e-16 0)
(0.03018 -1.38844e-16 0)
(0.03018 7.55474e-17 0)
(0.03018 1.73216e-16 0)
(0.03018 -2.87561e-16 0)
(0.03018 2.75336e-17 0)
(0.03018 1.69591e-16 0)
(0.03018 -1.71909e-17 0)
(0.03018 -1.77785e-16 0)
(0.03018 1.0264e-16 0)
(0.03018 -9.86173e-18 0)
(0.03018 8.57978e-19 0)
(0.03018 1.46159e-17 0)
(0.03018 -1.0263e-16 0)
(0.03018 1.06418e-16 0)
(0.03018 1.48235e-18 0)
(0.03018 8.77328e-17 0)
(0.03018 -1.24391e-16 0)
(0.03018 -5.29861e-17 0)
(0.03018 8.6779e-17 0)
(0.03018 6.23917e-17 0)
(0.03018 -6.96378e-17 0)
(0.03018 -8.83872e-17 0)
(0.03018 1.85094e-16 0)
(0.03018 -1.30479e-16 0)
(0.03018 1.54471e-17 0)
(0.03018 6.9086e-18 0)
(0.03018 -9.12388e-17 0)
(0.03018 1.8805e-16 0)
(0.03018 -4.35443e-17 0)
(0.03018 -1.76475e-16 0)
(0.03018 3.7935e-17 0)
(0.03018 1.75182e-16 0)
(0.03018 -1.32576e-16 0)
(0.03018 4.75434e-18 0)
(0.03018 -1.19894e-17 0)
(0.03018 -2.1585e-17 0)
(0.03018 7.08117e-17 0)
(0.03018 -1.6528e-16 0)
(0.03018 -5.4627e-16 0)
(0.0893313 -5.2569e-15 0)
(0.0893313 -1.34993e-15 0)
(0.0893313 -3.97701e-16 0)
(0.0893313 -1.34243e-16 0)
(0.0893313 -6.1395e-17 0)
(0.0893313 -3.41612e-17 0)
(0.0893313 -1.70708e-17 0)
(0.0893313 -5.45952e-18 0)
(0.0893313 2.55454e-18 0)
(0.0893313 -1.14712e-17 0)
(0.0893313 -2.16891e-17 0)
(0.0893313 -3.86609e-17 0)
(0.0893313 -1.97246e-17 0)
(0.0893313 -7.12058e-18 0)
(0.0893313 -3.33309e-18 0)
(0.0893313 -1.6253e-17 0)
(0.0893313 -3.64372e-17 0)
(0.0893313 -2.25062e-17 0)
(0.0893313 -9.8323e-18 0)
(0.0893313 4.75597e-18 0)
(0.0893313 1.47995e-19 0)
(0.0893313 1.55852e-18 0)
(0.0893313 1.34791e-17 0)
(0.0893313 -9.4445e-18 0)
(0.0893313 -1.78351e-17 0)
(0.0893313 -3.17336e-17 0)
(0.0893313 -7.55399e-18 0)
(0.0893313 1.86231e-17 0)
(0.0893313 -3.06388e-17 0)
(0.0893313 -6.94897e-18 0)
(0.0893313 5.96548e-18 0)
(0.0893313 -2.94869e-17 0)
(0.0893313 -2.34778e-17 0)
(0.0893313 -7.43083e-18 0)
(0.0893313 -3.47451e-17 0)
(0.0893313 -5.38315e-18 0)
(0.0893313 -2.5088e-17 0)
(0.0893313 -3.01731e-17 0)
(0.0893313 -4.40873e-18 0)
(0.0893313 -3.14154e-17 0)
(0.0893313 -2.7255e-18 0)
(0.0893313 -3.49362e-17 0)
(0.0893313 -7.8406e-18 0)
(0.0893313 1.973e-17 0)
(0.0893313 -5.86609e-18 0)
(0.0893313 2.6343e-17 0)
(0.0893313 2.23301e-17 0)
(0.0893313 -3.45452e-17 0)
(0.0893313 -1.96236e-17 0)
(0.0893313 2.84175e-17 0)
(0.0893313 2.65714e-17 0)
(0.0893313 7.26036e-18 0)
(0.0893313 -2.74e-17 0)
(0.0893313 -7.29181e-18 0)
(0.0893313 4.60245e-17 0)
(0.0893313 -2.00431e-17 0)
(0.0893313 1.12875e-17 0)
(0.0893313 -7.32428e-18 0)
(0.0893313 -4.73458e-17 0)
(0.0893313 1.63882e-18 0)
(0.0893313 -9.67187e-18 0)
(0.0893313 -1.74297e-17 0)
(0.0893313 -6.23444e-18 0)
(0.0893313 1.81201e-17 0)
(0.0893313 -1.09462e-17 0)
(0.0893313 2.28624e-17 0)
(0.0893313 -4.58897e-17 0)
(0.0893313 -2.89392e-17 0)
(0.0893313 5.95148e-17 0)
(0.0893313 -5.37924e-18 0)
(0.0893313 -2.12956e-17 0)
(0.0893313 2.19895e-17 0)
(0.0893313 5.95323e-17 0)
(0.0893313 -1.65527e-17 0)
(0.0893313 -3.89116e-17 0)
(0.0893313 9.10243e-17 0)
(0.0893313 2.75834e-17 0)
(0.0893313 -5.62912e-17 0)
(0.0893313 -2.18629e-17 0)
(0.0893313 3.76782e-17 0)
(0.0893313 7.60124e-19 0)
(0.0893313 -3.98407e-17 0)
(0.0893313 2.77298e-17 0)
(0.0893313 -7.61639e-18 0)
(0.0893313 -4.49826e-17 0)
(0.0893313 6.326e-17 0)
(0.0893313 1.10376e-17 0)
(0.0893313 -3.54225e-17 0)
(0.0893313 -1.20008e-18 0)
(0.0893313 3.07486e-18 0)
(0.0893313 2.03154e-17 0)
(0.0893313 1.58085e-17 0)
(0.0893313 2.45105e-17 0)
(0.0893313 -1.65276e-19 0)
(0.0893313 -2.331e-18 0)
(0.0893313 -6.10761e-17 0)
(0.0893313 9.32677e-18 0)
(0.0893313 7.62189e-17 0)
(0.0893313 -3.84355e-17 0)
(0.0893313 -3.24531e-17 0)
(0.0893313 4.99922e-17 0)
(0.0893313 5.019e-17 0)
(0.0893313 -1.37931e-18 0)
(0.0893313 -4.65733e-18 0)
(0.0893313 8.50203e-18 0)
(0.0893313 -1.62011e-17 0)
(0.0893313 -8.32824e-18 0)
(0.0893313 -7.5574e-18 0)
(0.0893313 3.42887e-17 0)
(0.0893313 6.19936e-17 0)
(0.0893313 -2.90565e-17 0)
(0.0893313 -1.00294e-16 0)
(0.0893313 -1.75947e-17 0)
(0.0893313 9.88373e-17 0)
(0.0893313 2.45062e-17 0)
(0.0893313 -7.47437e-17 0)
(0.0893313 -5.64042e-17 0)
(0.0893313 4.77712e-17 0)
(0.0893313 6.94689e-17 0)
(0.0893313 8.81775e-18 0)
(0.0893313 -2.0529e-17 0)
(0.0893313 8.37208e-18 0)
(0.0893313 5.04663e-17 0)
(0.0893313 -1.50288e-17 0)
(0.0893313 -7.06961e-17 0)
(0.0893313 5.5071e-17 0)
(0.0893313 5.02283e-17 0)
(0.0893313 -2.7579e-17 0)
(0.0893313 1.77703e-17 0)
(0.0893313 1.83425e-17 0)
(0.0893313 4.31576e-18 0)
(0.0893313 5.42772e-18 0)
(0.0893313 1.04375e-16 0)
(0.0893313 -6.5977e-17 0)
(0.0893313 -8.32824e-17 0)
(0.0893313 7.04001e-17 0)
(0.0893313 6.59183e-18 0)
(0.0893313 -4.6833e-17 0)
(0.0893313 7.44562e-17 0)
(0.0893313 3.17435e-17 0)
(0.0893313 -1.34143e-16 0)
(0.0893313 -8.2547e-17 0)
(0.0893313 6.38795e-17 0)
(0.0893313 1.13976e-16 0)
(0.0893313 -6.42544e-17 0)
(0.0893313 -2.079e-17 0)
(0.0893313 1.35922e-16 0)
(0.0893313 -4.64814e-17 0)
(0.0893313 -7.93876e-17 0)
(0.0893313 1.05296e-16 0)
(0.0893313 -7.78972e-17 0)
(0.0893313 -3.59882e-17 0)
(0.0893313 1.32706e-16 0)
(0.0893313 -1.36104e-16 0)
(0.0893313 -4.69754e-17 0)
(0.0893313 7.05578e-17 0)
(0.0893313 -9.44439e-17 0)
(0.0893313 9.96679e-18 0)
(0.0893313 1.60202e-18 0)
(0.0893313 9.07207e-17 0)
(0.0893313 8.35094e-17 0)
(0.0893313 -2.88802e-17 0)
(0.0893313 -3.88793e-17 0)
(0.0893313 4.16366e-18 0)
(0.0893313 -2.72352e-17 0)
(0.0893313 -2.7879e-18 0)
(0.0893313 8.12086e-17 0)
(0.0893313 -1.41847e-16 0)
(0.0893313 8.4719e-17 0)
(0.0893313 1.35266e-16 0)
(0.0893313 -1.47907e-16 0)
(0.0893313 5.0893e-17 0)
(0.0893313 1.29937e-16 0)
(0.0893313 -1.12378e-16 0)
(0.0893313 -6.05233e-17 0)
(0.0893313 4.60928e-17 0)
(0.0893313 8.7685e-17 0)
(0.0893313 1.25421e-17 0)
(0.0893313 -6.21385e-17 0)
(0.0893313 8.91992e-17 0)
(0.0893313 1.18484e-17 0)
(0.0893313 -7.76934e-17 0)
(0.0893313 -3.02864e-18 0)
(0.0893313 -2.91886e-17 0)
(0.0893313 6.30781e-17 0)
(0.0893313 -2.33093e-17 0)
(0.0893313 -9.95436e-17 0)
(0.0893313 -1.79264e-17 0)
(0.0893313 -2.4274e-17 0)
(0.0893313 -2.74362e-18 0)
(0.0893313 -7.63137e-17 0)
(0.0893313 -5.16566e-17 0)
(0.0893313 -5.65394e-20 0)
(0.0893313 1.31534e-16 0)
(0.0893313 7.38014e-17 0)
(0.0893313 -3.23343e-17 0)
(0.0893313 6.39101e-17 0)
(0.0893313 1.70573e-17 0)
(0.0893313 -1.66978e-16 0)
(0.0893313 -7.37714e-17 0)
(0.0893313 4.87947e-17 0)
(0.0893313 -1.30808e-16 0)
(0.0893313 1.1738e-16 0)
(0.0893313 7.60698e-17 0)
(0.0893313 6.20314e-18 0)
(0.0893313 8.46598e-17 0)
(0.0893313 -9.95292e-17 0)
(0.0893313 -1.01211e-16 0)
(0.0893313 4.963e-17 0)
(0.0893313 -2.28127e-17 0)
(0.0893313 1.30887e-17 0)
(0.0893313 1.85265e-17 0)
(0.0893313 -7.95374e-17 0)
(0.0893313 6.96395e-17 0)
(0.0893313 -5.79484e-17 0)
(0.0893313 1.82247e-17 0)
(0.0893313 -5.24507e-17 0)
(0.0893313 -4.16468e-17 0)
(0.0893313 1.0655e-16 0)
(0.0893313 1.08986e-16 0)
(0.0893313 -2.32651e-17 0)
(0.0893313 -6.63253e-17 0)
(0.0893313 3.72433e-17 0)
(0.0893313 -7.14984e-17 0)
(0.0893313 -3.78671e-20 0)
(0.0893313 3.79366e-17 0)
(0.0893313 -1.70191e-17 0)
(0.0893313 3.19975e-17 0)
(0.0893313 1.13369e-16 0)
(0.0893313 2.08503e-18 0)
(0.0893313 -4.85119e-17 0)
(0.0893313 -1.07307e-16 0)
(0.0893313 -9.31523e-18 0)
(0.0893313 1.84951e-17 0)
(0.0893313 -7.87154e-17 0)
(0.0893313 8.73098e-17 0)
(0.0893313 3.18529e-17 0)
(0.0893313 4.77922e-17 0)
(0.0893313 -4.03717e-17 0)
(0.0893313 -7.31163e-18 0)
(0.0893313 -1.76763e-18 0)
(0.0893313 -8.87479e-17 0)
(0.0893313 3.92643e-17 0)
(0.0893313 1.60075e-16 0)
(0.0893313 -5.18284e-17 0)
(0.0893313 -2.39981e-17 0)
(0.0893313 7.3175e-17 0)
(0.0893313 -9.78013e-17 0)
(0.0893313 -3.976e-18 0)
(0.0893313 -1.15077e-17 0)
(0.0893313 -4.32302e-17 0)
(0.0893313 2.29659e-17 0)
(0.0893313 1.06493e-16 0)
(0.0893313 -4.69206e-17 0)
(0.0893313 -4.23954e-17 0)
(0.0893313 6.34372e-17 0)
(0.0893313 -5.04975e-17 0)
(0.0893313 -8.56391e-17 0)
(0.0893313 4.50989e-17 0)
(0.0893313 -8.43715e-17 0)
(0.0893313 4.43162e-17 0)
(0.0893313 1.81245e-16 0)
(0.0893313 -1.28331e-16 0)
(0.0893313 5.67693e-17 0)
(0.0893313 -1.23352e-16 0)
(0.0893313 -1.13187e-16 0)
(0.0893313 2.67955e-16 0)
(0.0893313 -1.97971e-16 0)
(0.0893313 -1.12488e-16 0)
(0.0893313 4.08835e-16 0)
(0.0893313 -1.57484e-16 0)
(0.0893313 -1.29602e-16 0)
(0.0893313 1.17255e-16 0)
(0.0893313 -1.14217e-16 0)
(0.0893313 9.98256e-17 0)
(0.0893313 -8.04862e-17 0)
(0.0893313 -3.72872e-17 0)
(0.0893313 1.14544e-16 0)
(0.0893313 1.16008e-16 0)
(0.0893313 -9.25272e-17 0)
(0.0893313 -1.03627e-16 0)
(0.0893313 -4.82959e-17 0)
(0.0893313 5.73827e-17 0)
(0.0893313 1.43825e-16 0)
(0.0893313 -1.63527e-16 0)
(0.0893313 1.89981e-16 0)
(0.0893313 2.2399e-18 0)
(0.0893313 -2.18695e-16 0)
(0.0893313 1.64368e-16 0)
(0.0893313 8.27779e-17 0)
(0.0893313 -2.18493e-16 0)
(0.0893313 8.11998e-17 0)
(0.0893313 2.49191e-17 0)
(0.0893313 -1.79828e-16 0)
(0.0893313 3.22511e-16 0)
(0.0893313 8.15475e-17 0)
(0.0893313 -3.13254e-16 0)
(0.0893313 6.53877e-17 0)
(0.0893313 -3.56543e-17 0)
(0.0893313 -2.05362e-16 0)
(0.0893313 2.82369e-16 0)
(0.0893313 -1.32901e-16 0)
(0.0893313 -1.10589e-16 0)
(0.0893313 3.75157e-16 0)
(0.0893313 -1.34308e-16 0)
(0.0893313 -2.3041e-16 0)
(0.0893313 2.0487e-16 0)
(0.0893313 -1.3278e-16 0)
(0.0893313 -1.74193e-16 0)
(0.0893313 3.13386e-16 0)
(0.0893313 4.10721e-17 0)
(0.0893313 -2.5506e-16 0)
(0.0893313 1.08045e-16 0)
(0.0893313 4.93998e-17 0)
(0.0893313 -1.14803e-16 0)
(0.0893313 6.83646e-17 0)
(0.0893313 -5.82689e-17 0)
(0.0893313 -1.31234e-16 0)
(0.0893313 -2.79475e-17 0)
(0.0893313 1.81262e-16 0)
(0.0893313 1.10455e-16 0)
(0.0893313 -4.45354e-17 0)
(0.0893313 -1.28955e-16 0)
(0.0893313 -9.54935e-17 0)
(0.0893313 1.69204e-16 0)
(0.0893313 -1.14427e-17 0)
(0.0893313 -1.34072e-16 0)
(0.0893313 -6.15292e-17 0)
(0.0893313 2.15716e-16 0)
(0.0893313 1.5369e-16 0)
(0.0893313 -2.90585e-16 0)
(0.0893313 2.23607e-17 0)
(0.0893313 1.29704e-16 0)
(0.0893313 -2.23125e-16 0)
(0.0893313 1.84146e-16 0)
(0.0893313 1.86217e-16 0)
(0.0893313 -3.25477e-16 0)
(0.0893313 2.85712e-16 0)
(0.0893313 1.36774e-16 0)
(0.0893313 -3.11515e-16 0)
(0.0893313 9.25323e-17 0)
(0.0893313 -2.71926e-17 0)
(0.0893313 -1.63809e-16 0)
(0.0893313 9.52823e-17 0)
(0.0893313 1.90522e-16 0)
(0.0893313 -7.65831e-18 0)
(0.0893313 -1.70457e-17 0)
(0.0893313 -1.60589e-16 0)
(0.0893313 -1.09913e-16 0)
(0.0893313 1.72846e-16 0)
(0.0893313 -5.53447e-17 0)
(0.0893313 -2.17596e-16 0)
(0.0893313 9.4099e-17 0)
(0.0893313 2.29912e-16 0)
(0.0893313 1.18834e-17 0)
(0.0893313 -2.61344e-17 0)
(0.0893313 -1.79493e-16 0)
(0.0893313 -1.33887e-16 0)
(0.0893313 1.20072e-16 0)
(0.0893313 5.89966e-17 0)
(0.0893313 1.16319e-16 0)
(0.0893313 -1.98379e-16 0)
(0.0893313 8.66683e-17 0)
(0.0893313 2.98717e-16 0)
(0.0893313 -2.34121e-16 0)
(0.0893313 -1.64346e-17 0)
(0.0893313 5.03275e-18 0)
(0.0893313 -1.26155e-16 0)
(0.0893313 1.16717e-17 0)
(0.0893313 3.1135e-16 0)
(0.0893313 3.59532e-17 0)
(0.0893313 -1.46003e-16 0)
(0.0893313 -1.03226e-16 0)
(0.0893313 -6.3413e-17 0)
(0.0893313 1.8142e-16 0)
(0.0893313 -1.11903e-16 0)
(0.0893313 2.59438e-18 0)
(0.0893313 -6.7933e-17 0)
(0.0893313 1.6058e-16 0)
(0.0893313 2.23759e-17 0)
(0.0893313 -9.7431e-17 0)
(0.0893313 -5.83503e-17 0)
(0.0893313 -1.02471e-17 0)
(0.0893313 5.38817e-17 0)
(0.0893313 -5.14093e-17 0)
(0.0893313 2.19484e-16 0)
(0.0893313 -1.67237e-16 0)
(0.0893313 8.89481e-17 0)
(0.0893313 9.98185e-17 0)
(0.0893313 -1.16159e-16 0)
(0.0893313 -6.79262e-17 0)
(0.0893313 1.02158e-16 0)
(0.0893313 -8.86512e-17 0)
(0.0893313 -1.91013e-16 0)
(0.0893313 3.3245e-16 0)
(0.0893313 2.07836e-16 0)
(0.0893313 -1.45949e-16 0)
(0.0893313 -1.44128e-16 0)
(0.0893313 -1.21887e-16 0)
(0.0893313 -5.30649e-17 0)
(0.0893313 1.49693e-16 0)
(0.0893313 2.88902e-16 0)
(0.0893313 -2.27288e-16 0)
(0.0893313 -1.6798e-16 0)
(0.0893313 -8.09762e-17 0)
(0.0893313 3.08828e-16 0)
(0.0893313 2.03584e-16 0)
(0.0893313 -4.61175e-16 0)
(0.0893313 -4.4674e-17 0)
(0.0893313 2.44289e-16 0)
(0.0893313 1.70782e-16 0)
(0.0893313 -2.8825e-16 0)
(0.0893313 6.3451e-17 0)
(0.0893313 5.85552e-17 0)
(0.0893313 -4.97384e-17 0)
(0.0893313 5.96836e-17 0)
(0.0893313 -2.56654e-16 0)
(0.0893313 -1.74518e-17 0)
(0.0893313 3.20755e-16 0)
(0.0893313 6.83487e-17 0)
(0.0893313 -3.55637e-16 0)
(0.0893313 -6.84189e-17 0)
(0.0893313 4.14753e-16 0)
(0.0893313 -9.6715e-17 0)
(0.0893313 -2.14168e-16 0)
(0.0893313 5.30788e-17 0)
(0.0893313 1.20788e-16 0)
(0.0893313 2.76633e-17 0)
(0.0893313 1.48849e-17 0)
(0.0893313 -1.12109e-16 0)
(0.0893313 -1.09091e-16 0)
(0.0893313 3.41749e-16 0)
(0.0893313 -3.56429e-17 0)
(0.0893313 -3.75757e-16 0)
(0.0893313 2.50937e-18 0)
(0.0893313 4.62102e-16 0)
(0.0893313 -1.23586e-16 0)
(0.0893313 -6.63514e-17 0)
(0.0893313 -9.98326e-18 0)
(0.0893313 -1.96751e-16 0)
(0.0893313 3.44047e-16 0)
(0.0893313 -1.7984e-16 0)
(0.0893313 -7.17371e-17 0)
(0.0893313 -1.28844e-17 0)
(0.0893313 1.00288e-16 0)
(0.0893313 8.1395e-18 0)
(0.0893313 -6.54977e-17 0)
(0.0893313 3.30182e-17 0)
(0.0893313 -1.47023e-16 0)
(0.0893313 2.11023e-16 0)
(0.0893313 -2.8307e-17 0)
(0.0893313 1.05838e-16 0)
(0.0893313 -6.6139e-17 0)
(0.0893313 8.34546e-17 0)
(0.0893313 -3.02322e-17 0)
(0.0893313 -5.29895e-17 0)
(0.0893313 8.83446e-17 0)
(0.0893313 6.5365e-17 0)
(0.0893313 1.64986e-16 0)
(0.0893313 -4.68461e-16 0)
(0.0893313 2.00073e-16 0)
(0.0893313 1.94029e-16 0)
(0.0893313 6.54666e-18 0)
(0.0893313 4.47377e-17 0)
(0.0893313 -3.46934e-16 0)
(0.0893313 9.69183e-17 0)
(0.0893313 2.03291e-16 0)
(0.0893313 -4.88601e-17 0)
(0.0893313 -2.14166e-16 0)
(0.0893313 1.3733e-16 0)
(0.0893313 -3.83671e-17 0)
(0.0893313 -8.34877e-19 0)
(0.0893313 4.49753e-17 0)
(0.0893313 -1.37894e-16 0)
(0.0893313 1.7974e-16 0)
(0.0893313 6.75385e-17 0)
(0.0893313 8.69922e-17 0)
(0.0893313 -2.60943e-16 0)
(0.0893313 2.22995e-17 0)
(0.0893313 1.34981e-16 0)
(0.0893313 1.58654e-17 0)
(0.0893313 -5.6681e-17 0)
(0.0893313 -1.01096e-16 0)
(0.0893313 2.03422e-16 0)
(0.0893313 -2.67868e-16 0)
(0.0893313 3.62379e-17 0)
(0.0893313 2.80642e-17 0)
(0.0893313 -8.83833e-17 0)
(0.0893313 2.54691e-16 0)
(0.0893313 -1.83504e-16 0)
(0.0893313 -2.33014e-16 0)
(0.0893313 1.65851e-16 0)
(0.0893313 2.10502e-16 0)
(0.0893313 -2.82595e-16 0)
(0.0893313 -2.20685e-17 0)
(0.0893313 -4.24396e-17 0)
(0.0893313 -8.81715e-17 0)
(0.0893313 -1.77832e-17 0)
(0.0893313 -5.1407e-16 0)
(0.0893313 -1.27547e-15 0)
(0.147271 -3.55142e-15 0)
(0.147271 -1.45862e-15 0)
(0.147271 -5.91316e-16 0)
(0.147271 -2.26305e-16 0)
(0.147271 -8.64332e-17 0)
(0.147271 -6.6159e-17 0)
(0.147271 -3.69619e-17 0)
(0.147271 1.0545e-17 0)
(0.147271 3.82838e-18 0)
(0.147271 -3.95701e-17 0)
(0.147271 -5.41234e-17 0)
(0.147271 -8.11996e-17 0)
(0.147271 -5.55254e-17 0)
(0.147271 -1.98506e-17 0)
(0.147271 -1.77975e-17 0)
(0.147271 -2.25421e-17 0)
(0.147271 -4.68146e-17 0)
(0.147271 -6.11859e-17 0)
(0.147271 -5.51659e-18 0)
(0.147271 -1.55398e-18 0)
(0.147271 -5.03035e-18 0)
(0.147271 1.89456e-17 0)
(0.147271 1.30502e-17 0)
(0.147271 -2.8534e-17 0)
(0.147271 -2.0416e-17 0)
(0.147271 -6.39247e-17 0)
(0.147271 -3.76184e-17 0)
(0.147271 3.4551e-17 0)
(0.147271 -4.29687e-17 0)
(0.147271 -4.44571e-17 0)
(0.147271 -1.67641e-17 0)
(0.147271 -2.10174e-17 0)
(0.147271 -3.67919e-17 0)
(0.147271 -8.26691e-17 0)
(0.147271 -6.49768e-17 0)
(0.147271 -1.09775e-17 0)
(0.147271 -8.71501e-17 0)
(0.147271 -6.44142e-17 0)
(0.147271 -1.6308e-17 0)
(0.147271 -7.27408e-17 0)
(0.147271 -4.88797e-17 0)
(0.147271 -4.2613e-17 0)
(0.147271 -2.81957e-17 0)
(0.147271 2.02754e-17 0)
(0.147271 3.08774e-17 0)
(0.147271 3.85751e-17 0)
(0.147271 4.11556e-17 0)
(0.147271 -5.05331e-17 0)
(0.147271 -1.30854e-17 0)
(0.147271 6.91351e-17 0)
(0.147271 3.78587e-17 0)
(0.147271 -2.12371e-17 0)
(0.147271 -4.116e-17 0)
(0.147271 1.49342e-17 0)
(0.147271 5.93077e-17 0)
(0.147271 -8.59305e-18 0)
(0.147271 2.63656e-17 0)
(0.147271 -5.34745e-17 0)
(0.147271 -7.84597e-17 0)
(0.147271 -1.64082e-17 0)
(0.147271 -3.14916e-17 0)
(0.147271 -1.10215e-17 0)
(0.147271 -3.72707e-17 0)
(0.147271 9.55002e-18 0)
(0.147271 3.80712e-17 0)
(0.147271 -9.20932e-18 0)
(0.147271 -7.40552e-17 0)
(0.147271 -5.09567e-17 0)
(0.147271 4.53063e-17 0)
(0.147271 4.34951e-17 0)
(0.147271 3.12299e-17 0)
(0.147271 2.75227e-17 0)
(0.147271 8.74723e-17 0)
(0.147271 -8.90523e-18 0)
(0.147271 -8.50278e-17 0)
(0.147271 1.30037e-16 0)
(0.147271 1.10774e-16 0)
(0.147271 -3.17205e-17 0)
(0.147271 -6.53355e-17 0)
(0.147271 1.00089e-17 0)
(0.147271 2.66756e-17 0)
(0.147271 -2.30665e-17 0)
(0.147271 -3.51019e-17 0)
(0.147271 7.54375e-19 0)
(0.147271 -1.50945e-18 0)
(0.147271 1.14412e-17 0)
(0.147271 -2.54538e-17 0)
(0.147271 3.92972e-17 0)
(0.147271 -2.09653e-17 0)
(0.147271 -2.38292e-17 0)
(0.147271 5.66895e-17 0)
(0.147271 3.60184e-17 0)
(0.147271 3.97381e-17 0)
(0.147271 3.90464e-17 0)
(0.147271 8.64615e-18 0)
(0.147271 -1.1683e-16 0)
(0.147271 -2.022e-17 0)
(0.147271 1.50486e-16 0)
(0.147271 -4.9082e-17 0)
(0.147271 -9.51286e-17 0)
(0.147271 1.30214e-16 0)
(0.147271 8.74369e-17 0)
(0.147271 -2.12349e-17 0)
(0.147271 -8.5236e-17 0)
(0.147271 2.004e-17 0)
(0.147271 8.73054e-17 0)
(0.147271 -1.79278e-17 0)
(0.147271 -6.96697e-17 0)
(0.147271 8.5288e-17 0)
(0.147271 7.45186e-17 0)
(0.147271 -8.47658e-17 0)
(0.147271 -9.81105e-17 0)
(0.147271 -4.80737e-17 0)
(0.147271 1.39284e-16 0)
(0.147271 9.10826e-17 0)
(0.147271 -1.74351e-16 0)
(0.147271 -7.52712e-17 0)
(0.147271 1.49214e-16 0)
(0.147271 1.09462e-16 0)
(0.147271 1.77114e-17 0)
(0.147271 -3.38236e-17 0)
(0.147271 5.36091e-17 0)
(0.147271 6.62752e-17 0)
(0.147271 -5.25812e-17 0)
(0.147271 -4.93723e-17 0)
(0.147271 8.167e-17 0)
(0.147271 1.49859e-17 0)
(0.147271 1.09185e-17 0)
(0.147271 9.00011e-17 0)
(0.147271 3.11263e-17 0)
(0.147271 8.62355e-17 0)
(0.147271 -2.32594e-17 0)
(0.147271 4.96163e-17 0)
(0.147271 -1.95607e-17 0)
(0.147271 -5.36486e-17 0)
(0.147271 4.06868e-17 0)
(0.147271 -4.99679e-17 0)
(0.147271 -7.6282e-17 0)
(0.147271 1.03296e-16 0)
(0.147271 1.12612e-16 0)
(0.147271 -2.18183e-16 0)
(0.147271 -2.04129e-16 0)
(0.147271 1.65621e-16 0)
(0.147271 2.35228e-16 0)
(0.147271 -1.54521e-16 0)