/*--------------------------------*- C++ -*----------------------------------*\
| =========                 |                                                 |
| \\      /  F ield         | OpenFOAM: The Open Source CFD Toolbox           |
|  \\    /   O peration     | Version:  2112                                  |
|   \\  /    A nd           | Website:  www.openfoam.com                      |
|    \\/     M anipulation  |                                                 |
\*---------------------------------------------------------------------------*/
FoamFile
{
    version     2.0;
    format      ascii;
    arch        "LSB;label=32;scalar=64";
    class       volVectorField;
    location    "7";
    object      U;
}
// * * * * * * * * * * * * * * * * * * * * * * * * * * * * * * * * * * * * * //

dimensions      [0 1 -1 0 0 0 0];

internalField   nonuniform List<vector> 
25600
(
(0.0374884 1.93096e-16 0)
(0.0374884 2.53346e-17 0)
(0.0374884 -1.85546e-17 0)
(0.0374884 -9.09368e-18 0)
(0.0374884 3.1459e-18 0)
(0.0374884 1.88898e-18 0)
(0.0374884 -5.64364e-18 0)
(0.0374884 2.38714e-18 0)
(0.0374884 -1.62827e-18 0)
(0.0374884 -5.3158e-18 0)
(0.0374884 2.49469e-18 0)
(0.0374884 -8.70293e-18 0)
(0.0374884 2.61081e-18 0)
(0.0374884 5.99227e-18 0)
(0.0374884 -2.68319e-18 0)
(0.0374884 9.86512e-18 0)
(0.0374884 1.20265e-18 0)
(0.0374884 -5.83892e-18 0)
(0.0374884 -3.43646e-18 0)
(0.0374884 -1.0674e-18 0)
(0.0374884 5.55727e-20 0)
(0.0374884 4.615e-18 0)
(0.0374884 5.08902e-18 0)
(0.0374884 -3.0548e-18 0)
(0.0374884 -1.46969e-17 0)
(0.0374884 1.39815e-18 0)
(0.0374884 2.50735e-17 0)
(0.0374884 -3.46854e-19 0)
(0.0374884 -1.80319e-17 0)
(0.0374884 -1.17612e-18 0)
(0.0374884 9.44281e-18 0)
(0.0374884 1.06669e-17 0)
(0.0374884 -1.46751e-18 0)
(0.0374884 -9.84203e-18 0)
(0.0374884 1.40021e-18 0)
(0.0374884 -1.82593e-18 0)
(0.0374884 4.22336e-18 0)
(0.0374884 -2.01502e-18 0)
(0.0374884 -1.03099e-17 0)
(0.0374884 8.42045e-18 0)
(0.0374884 -2.65551e-19 0)
(0.0374884 8.51558e-18 0)
(0.0374884 -8.37078e-18 0)
(0.0374884 -1.54255e-17 0)
(0.0374884 2.33062e-17 0)
(0.0374884 -1.18552e-17 0)
(0.0374884 3.05357e-18 0)
(0.0374884 2.55998e-18 0)
(0.0374884 -4.77905e-19 0)
(0.0374884 2.62445e-18 0)
(0.0374884 -2.82467e-17 0)
(0.0374884 1.97902e-17 0)
(0.0374884 -9.90257e-19 0)
(0.0374884 -8.18877e-20 0)
(0.0374884 2.85888e-17 0)
(0.0374884 -2.53547e-17 0)
(0.0374884 -1.14673e-18 0)
(0.0374884 -1.12432e-17 0)
(0.0374884 6.95677e-19 0)
(0.0374884 4.01858e-17 0)
(0.0374884 -3.55883e-17 0)
(0.0374884 8.30815e-18 0)
(0.0374884 -9.63722e-19 0)
(0.0374884 -3.45257e-18 0)
(0.0374884 2.31513e-17 0)
(0.0374884 -2.19255e-17 0)
(0.0374884 -8.20177e-19 0)
(0.0374884 -1.14439e-17 0)
(0.0374884 1.69135e-17 0)
(0.0374884 1.20617e-17 0)
(0.0374884 -8.16055e-18 0)
(0.0374884 -1.7189e-18 0)
(0.0374884 -1.83138e-18 0)
(0.0374884 -1.30541e-18 0)
(0.0374884 8.69109e-18 0)
(0.0374884 -5.01474e-18 0)
(0.0374884 -1.8584e-17 0)
(0.0374884 1.33364e-17 0)
(0.0374884 -8.98513e-19 0)
(0.0374884 2.89346e-17 0)
(0.0374884 -2.41099e-17 0)
(0.0374884 -2.91319e-17 0)
(0.0374884 2.71609e-17 0)
(0.0374884 -1.58163e-18 0)
(0.0374884 2.29033e-17 0)
(0.0374884 -4.23211e-18 0)
(0.0374884 -4.2501e-17 0)
(0.0374884 -4.12042e-18 0)
(0.0374884 1.48308e-17 0)
(0.0374884 3.41196e-17 0)
(0.0374884 -3.07373e-18 0)
(0.0374884 -4.91509e-17 0)
(0.0374884 -2.02364e-19 0)
(0.0374884 4.92905e-17 0)
(0.0374884 2.47092e-18 0)
(0.0374884 -5.19495e-17 0)
(0.0374884 6.14573e-19 0)
(0.0374884 -4.22884e-18 0)
(0.0374884 4.27365e-17 0)
(0.0374884 2.67687e-17 0)
(0.0374884 -6.65768e-17 0)
(0.0374884 3.5908e-18 0)
(0.0374884 -1.07968e-17 0)
(0.0374884 4.19671e-17 0)
(0.0374884 8.36208e-18 0)
(0.0374884 -1.14972e-17 0)
(0.0374884 -3.09517e-17 0)
(0.0374884 1.11942e-17 0)
(0.0374884 3.05823e-17 0)
(0.0374884 -1.02458e-17 0)
(0.0374884 3.26925e-17 0)
(0.0374884 -8.83773e-17 0)
(0.0374884 1.9539e-17 0)
(0.0374884 5.50667e-17 0)
(0.0374884 3.56406e-18 0)
(0.0374884 -1.2783e-17 0)
(0.0374884 -5.74871e-17 0)
(0.0374884 3.07749e-17 0)
(0.0374884 4.10133e-17 0)
(0.0374884 1.38212e-17 0)
(0.0374884 -8.55794e-18 0)
(0.0374884 -5.72779e-17 0)
(0.0374884 -8.30892e-18 0)
(0.0374884 5.55445e-17 0)
(0.0374884 1.26166e-17 0)
(0.0374884 -2.61931e-17 0)
(0.0374884 -4.32733e-17 0)
(0.0374884 2.80105e-18 0)
(0.0374884 6.46161e-17 0)
(0.0374884 3.03049e-18 0)
(0.0374884 -2.64918e-17 0)
(0.0374884 -3.21922e-17 0)
(0.0374884 1.84922e-17 0)
(0.0374884 3.51345e-17 0)
(0.0374884 -1.89489e-17 0)
(0.0374884 -1.90264e-17 0)
(0.0374884 -1.19432e-17 0)
(0.0374884 4.07175e-17 0)
(0.0374884 2.54763e-17 0)
(0.0374884 -1.59969e-17 0)
(0.0374884 -3.15382e-17 0)
(0.0374884 -1.2466e-17 0)
(0.0374884 4.76701e-17 0)
(0.0374884 1.09603e-17 0)
(0.0374884 -4.24081e-17 0)
(0.0374884 4.37246e-17 0)
(0.0374884 -9.41966e-18 0)
(0.0374884 -3.27523e-17 0)
(0.0374884 -2.25438e-18 0)
(0.0374884 -3.59473e-18 0)
(0.0374884 5.25868e-17 0)
(0.0374884 -1.12417e-17 0)
(0.0374884 -4.39964e-17 0)
(0.0374884 6.63075e-18 0)
(0.0374884 2.28889e-17 0)
(0.0374884 2.58084e-17 0)
(0.0374884 -3.2468e-17 0)
(0.0374884 -3.32056e-17 0)
(0.0374884 2.29631e-17 0)
(0.0374884 3.50956e-18 0)
(0.0374884 5.8574e-17 0)
(0.0374884 -5.85853e-17 0)
(0.0374884 -4.76839e-17 0)
(0.0374884 6.34577e-17 0)
(0.0374884 -1.99455e-17 0)
(0.0374884 5.31456e-17 0)
(0.0374884 -4.10994e-17 0)
(0.0374884 -1.28578e-17 0)
(0.0374884 6.7413e-18 0)
(0.0374884 -4.62749e-17 0)
(0.0374884 8.13024e-17 0)
(0.0374884 -6.05402e-17 0)
(0.0374884 2.05427e-18 0)
(0.0374884 1.37345e-17 0)
(0.0374884 -3.87837e-17 0)
(0.0374884 8.64644e-17 0)
(0.0374884 -5.93285e-17 0)
(0.0374884 7.53696e-18 0)
(0.0374884 -8.89243e-18 0)
(0.0374884 -3.56247e-17 0)
(0.0374884 1.06341e-16 0)
(0.0374884 -6.83784e-17 0)
(0.0374884 -2.48135e-18 0)
(0.0374884 1.67191e-17 0)
(0.0374884 -4.74225e-17 0)
(0.0374884 9.60635e-17 0)
(0.0374884 -5.49856e-17 0)
(0.0374884 -2.80505e-18 0)
(0.0374884 6.51048e-17 0)
(0.0374884 -9.45493e-17 0)
(0.0374884 4.63099e-17 0)
(0.0374884 -1.93813e-18 0)
(0.0374884 -5.63532e-17 0)
(0.0374884 9.58234e-17 0)
(0.0374884 -4.09068e-17 0)
(0.0374884 8.73507e-18 0)
(0.0374884 -4.21671e-17 0)
(0.0374884 -1.18082e-17 0)
(0.0374884 1.3568e-16 0)
(0.0374884 -8.70266e-17 0)
(0.0374884 4.39645e-18 0)
(0.0374884 -4.60486e-17 0)
(0.0374884 4.60677e-18 0)
(0.0374884 1.40984e-16 0)
(0.0374884 -8.82433e-17 0)
(0.0374884 -4.20869e-17 0)
(0.0374884 -1.31363e-17 0)
(0.0374884 4.37682e-17 0)
(0.0374884 8.4909e-17 0)
(0.0374884 -4.11616e-17 0)
(0.0374884 -7.53108e-17 0)
(0.0374884 -6.51644e-17 0)
(0.0374884 1.60348e-16 0)
(0.0374884 5.99626e-18 0)
(0.0374884 -1.68253e-16 0)
(0.0374884 1.54828e-16 0)
(0.0374884 2.64152e-17 0)
(0.0374884 -8.4177e-17 0)
(0.0374884 -3.25742e-17 0)
(0.0374884 -7.87501e-17 0)
(0.0374884 1.64278e-16 0)
(0.0374884 4.34622e-17 0)
(0.0374884 -9.1722e-17 0)
(0.0374884 -3.58782e-17 0)
(0.0374884 -8.44685e-17 0)
(0.0374884 1.66292e-16 0)
(0.0374884 -1.40924e-18 0)
(0.0374884 -5.73127e-17 0)
(0.0374884 1.85297e-17 0)
(0.0374884 -1.09266e-16 0)
(0.0374884 1.53253e-16 0)
(0.0374884 -8.71766e-18 0)
(0.0374884 -9.40226e-17 0)
(0.0374884 5.9816e-17 0)
(0.0374884 -7.73689e-17 0)
(0.0374884 9.42384e-17 0)
(0.0374884 -6.58643e-18 0)
(0.0374884 -3.76042e-17 0)
(0.0374884 2.3573e-17 0)
(0.0374884 -1.24055e-16 0)
(0.0374884 1.49698e-16 0)
(0.0374884 -9.51952e-18 0)
(0.0374884 -4.49665e-17 0)
(0.0374884 7.04879e-17 0)
(0.0374884 -1.37098e-16 0)
(0.0374884 1.73128e-17 0)
(0.0374884 4.27227e-17 0)
(0.0374884 4.2102e-17 0)
(0.0374884 1.55471e-17 0)
(0.0374884 -1.2127e-16 0)
(0.0374884 8.38552e-17 0)
(0.0374884 -4.60662e-18 0)
(0.0374884 -1.92738e-17 0)
(0.0374884 4.43745e-17 0)
(0.0374884 -1.18286e-16 0)
(0.0374884 1.02013e-16 0)
(0.0374884 -1.03064e-17 0)
(0.0374884 -1.25689e-17 0)
(0.0374884 6.97726e-17 0)
(0.0374884 -1.25527e-16 0)
(0.0374884 5.61388e-17 0)
(0.0374884 -4.74501e-18 0)
(0.0374884 3.17441e-18 0)
(0.0374884 6.4027e-17 0)
(0.0374884 -1.12069e-16 0)
(0.0374884 7.10293e-17 0)
(0.0374884 3.34856e-17 0)
(0.0374884 -4.83244e-17 0)
(0.0374884 1.04221e-17 0)
(0.0374884 -7.57585e-17 0)
(0.0374884 6.72085e-17 0)
(0.0374884 3.50787e-17 0)
(0.0374884 -7.97133e-17 0)
(0.0374884 5.32908e-17 0)
(0.0374884 -3.26974e-17 0)
(0.0374884 3.22291e-17 0)
(0.0374884 4.10428e-17 0)
(0.0374884 -9.06388e-17 0)
(0.0374884 6.60333e-17 0)
(0.0374884 -3.88967e-17 0)
(0.0374884 1.3327e-17 0)
(0.0374884 4.08923e-17 0)
(0.0374884 -8.54376e-17 0)
(0.0374884 5.74022e-17 0)
(0.0374884 -3.45955e-17 0)
(0.0374884 -3.02181e-17 0)
(0.0374884 9.56614e-17 0)
(0.0374884 -4.93153e-17 0)
(0.0374884 -1.10776e-17 0)
(0.0374884 -6.3135e-17 0)
(0.0374884 3.37292e-17 0)
(0.0374884 1.27625e-16 0)
(0.0374884 -6.24642e-18 0)
(0.0374884 -1.226e-16 0)
(0.0374884 -2.6682e-17 0)
(0.0374884 6.12449e-17 0)
(0.0374884 9.09126e-18 0)
(0.0374884 7.70767e-17 0)
(0.0374884 -1.28236e-16 0)
(0.0374884 -2.15023e-17 0)
(0.0374884 5.86057e-17 0)
(0.0374884 6.69587e-18 0)
(0.0374884 5.20011e-17 0)
(0.0374884 -9.46054e-17 0)
(0.0374884 2.27053e-17 0)
(0.0374884 2.74427e-17 0)
(0.0374884 -4.87228e-17 0)
(0.0374884 9.33068e-17 0)
(0.0374884 -6.04113e-17 0)
(0.0374884 -5.71789e-19 0)
(0.0374884 2.1477e-17 0)
(0.0374884 -7.26622e-17 0)
(0.0374884 9.48851e-17 0)
(0.0374884 -3.37628e-17 0)
(0.0374884 -5.46971e-17 0)
(0.0374884 4.99577e-17 0)
(0.0374884 -2.14043e-17 0)
(0.0374884 6.13025e-17 0)
(0.0374884 -4.60583e-17 0)
(0.0374884 -3.39729e-17 0)
(0.110591 4.85789e-16 0)
(0.110591 1.20292e-16 0)
(0.110591 2.41206e-17 0)
(0.110591 -3.99108e-18 0)
(0.110591 2.01263e-17 0)
(0.110591 8.6585e-18 0)
(0.110591 -6.38334e-18 0)
(0.110591 -2.61789e-18 0)
(0.110591 -1.13049e-17 0)
(0.110591 -1.65678e-17 0)
(0.110591 -1.4921e-17 0)
(0.110591 -2.5009e-17 0)
(0.110591 1.1835e-17 0)
(0.110591 1.79803e-17 0)
(0.110591 1.00726e-17 0)
(0.110591 4.88533e-17 0)
(0.110591 2.2466e-17 0)
(0.110591 -9.81315e-18 0)
(0.110591 -1.38733e-17 0)
(0.110591 -5.24783e-18 0)
(0.110591 9.02827e-18 0)
(0.110591 1.52594e-17 0)
(0.110591 1.73442e-17 0)
(0.110591 -8.47203e-18 0)
(0.110591 -2.39034e-17 0)
(0.110591 -6.28689e-18 0)
(0.110591 4.83295e-17 0)
(0.110591 1.51666e-17 0)
(0.110591 -1.11396e-17 0)
(0.110591 -1.09991e-18 0)
(0.110591 3.14281e-17 0)
(0.110591 3.72016e-17 0)
(0.110591 -3.49974e-18 0)
(0.110591 -2.1238e-17 0)
(0.110591 -1.04786e-17 0)
(0.110591 -9.76276e-18 0)
(0.110591 3.6146e-17 0)
(0.110591 -2.89859e-17 0)
(0.110591 -5.18333e-17 0)
(0.110591 3.89909e-17 0)
(0.110591 -9.76556e-18 0)
(0.110591 -8.1687e-18 0)
(0.110591 3.39547e-18 0)
(0.110591 -3.26081e-17 0)
(0.110591 1.2293e-17 0)
(0.110591 -1.87153e-17 0)
(0.110591 2.26626e-17 0)
(0.110591 1.27524e-17 0)
(0.110591 9.42046e-18 0)
(0.110591 2.19764e-18 0)
(0.110591 -5.41165e-17 0)
(0.110591 2.09073e-17 0)
(0.110591 -7.57289e-19 0)
(0.110591 1.63085e-17 0)
(0.110591 7.38796e-17 0)
(0.110591 -2.64749e-17 0)
(0.110591 9.16305e-19 0)
(0.110591 -1.81818e-18 0)
(0.110591 -9.80744e-18 0)
(0.110591 3.73343e-17 0)
(0.110591 -7.653e-17 0)
(0.110591 3.79905e-17 0)
(0.110591 2.92417e-18 0)
(0.110591 -9.64206e-18 0)
(0.110591 4.97492e-17 0)
(0.110591 -5.43384e-17 0)
(0.110591 -3.54917e-18 0)
(0.110591 3.64283e-18 0)
(0.110591 2.36739e-17 0)
(0.110591 5.91907e-17 0)
(0.110591 -3.02947e-17 0)
(0.110591 -2.05683e-17 0)
(0.110591 -3.19694e-17 0)
(0.110591 -2.03675e-17 0)
(0.110591 9.74978e-17 0)
(0.110591 -5.82579e-17 0)
(0.110591 -8.68765e-17 0)
(0.110591 4.05269e-17 0)
(0.110591 -1.1783e-18 0)
(0.110591 5.22896e-17 0)
(0.110591 -1.11302e-17 0)
(0.110591 -9.41853e-17 0)
(0.110591 2.44137e-18 0)
(0.110591 2.36885e-17 0)
(0.110591 2.84984e-17 0)
(0.110591 -2.26595e-17 0)
(0.110591 -5.58423e-17 0)
(0.110591 -5.19389e-17 0)
(0.110591 3.35365e-17 0)
(0.110591 1.05108e-16 0)
(0.110591 -3.5043e-17 0)
(0.110591 -8.70382e-17 0)
(0.110591 4.86346e-19 0)
(0.110591 7.30242e-17 0)
(0.110591 1.47052e-17 0)
(0.110591 -1.0112e-16 0)
(0.110591 -1.71061e-17 0)
(0.110591 -2.37555e-17 0)
(0.110591 6.30726e-17 0)
(0.110591 5.31894e-17 0)
(0.110591 -7.85975e-17 0)
(0.110591 3.43731e-17 0)
(0.110591 -6.94573e-17 0)
(0.110591 1.19197e-17 0)
(0.110591 6.36317e-17 0)
(0.110591 2.06843e-17 0)
(0.110591 -7.50775e-17 0)
(0.110591 -2.30295e-17 0)
(0.110591 6.91522e-17 0)
(0.110591 4.96205e-17 0)
(0.110591 6.28962e-17 0)
(0.110591 -1.83432e-16 0)
(0.110591 1.20962e-17 0)
(0.110591 1.57084e-16 0)
(0.110591 2.91411e-17 0)
(0.110591 -9.98403e-18 0)
(0.110591 -1.22197e-16 0)
(0.110591 -2.52569e-17 0)
(0.110591 1.28219e-16 0)
(0.110591 5.80159e-17 0)
(0.110591 -4.93351e-17 0)
(0.110591 -1.4089e-16 0)
(0.110591 -3.61606e-17 0)
(0.110591 1.57873e-16 0)
(0.110591 9.16898e-17 0)
(0.110591 -6.67142e-17 0)
(0.110591 -1.5868e-16 0)
(0.110591 3.30207e-18 0)
(0.110591 1.78905e-16 0)
(0.110591 3.46831e-17 0)
(0.110591 -5.14814e-17 0)
(0.110591 -9.96428e-17 0)
(0.110591 8.45598e-18 0)
(0.110591 1.16407e-16 0)
(0.110591 1.90966e-17 0)
(0.110591 2.86985e-17 0)
(0.110591 -9.61433e-17 0)
(0.110591 -3.36596e-17 0)
(0.110591 1.44836e-16 0)
(0.110591 4.87682e-17 0)
(0.110591 -2.08931e-17 0)
(0.110591 -9.7405e-17 0)
(0.110591 -5.6672e-18 0)
(0.110591 7.76441e-17 0)
(0.110591 2.21786e-17 0)
(0.110591 -1.12379e-17 0)
(0.110591 -9.51739e-17 0)
(0.110591 3.05481e-17 0)
(0.110591 1.58991e-17 0)
(0.110591 3.51277e-17 0)
(0.110591 8.66405e-17 0)
(0.110591 -1.57534e-16 0)
(0.110591 -9.85489e-17 0)
(0.110591 7.7351e-17 0)
(0.110591 6.17294e-17 0)
(0.110591 4.91697e-17 0)
(0.110591 -9.7457e-17 0)
(0.110591 -1.10284e-16 0)
(0.110591 2.94761e-17 0)
(0.110591 4.80481e-17 0)
(0.110591 1.23373e-16 0)
(0.110591 -1.09492e-16 0)
(0.110591 -2.16361e-17 0)
(0.110591 1.2156e-16 0)
(0.110591 -1.62087e-16 0)
(0.110591 4.11105e-17 0)
(0.110591 -2.11067e-17 0)
(0.110591 -1.32123e-16 0)
(0.110591 1.30495e-16 0)
(0.110591 5.06125e-17 0)
(0.110591 -2.63176e-17 0)
(0.110591 -1.55528e-16 0)
(0.110591 -5.52178e-18 0)
(0.110591 7.19063e-17 0)
(0.110591 -2.61432e-17 0)
(0.110591 -1.92403e-17 0)
(0.110591 -5.47508e-17 0)
(0.110591 1.75167e-16 0)
(0.110591 -6.26204e-17 0)
(0.110591 -4.31841e-17 0)
(0.110591 1.67287e-16 0)
(0.110591 -1.69588e-16 0)
(0.110591 -1.52257e-17 0)
(0.110591 8.54529e-17 0)
(0.110591 -2.6567e-17 0)
(0.110591 1.53456e-16 0)
(0.110591 -1.01251e-16 0)
(0.110591 -4.4938e-18 0)
(0.110591 1.45644e-16 0)
(0.110591 -1.19106e-16 0)
(0.110591 3.90606e-17 0)
(0.110591 -2.81968e-17 0)
(0.110591 -9.93041e-17 0)
(0.110591 1.40596e-16 0)
(0.110591 -2.42557e-17 0)
(0.110591 2.93326e-17 0)
(0.110591 -7.30883e-17 0)
(0.110591 -3.86102e-17 0)
(0.110591 1.98824e-16 0)
(0.110591 -8.02141e-17 0)
(0.110591 1.07923e-17 0)
(0.110591 -7.86001e-17 0)
(0.110591 2.43151e-17 0)
(0.110591 2.26852e-16 0)
(0.110591 -5.08961e-17 0)
(0.110591 -1.38959e-16 0)
(0.110591 -1.25816e-16 0)
(0.110591 1.13483e-16 0)
(0.110591 1.20266e-16 0)
(0.110591 -5.92353e-17 0)
(0.110591 -9.27728e-17 0)
(0.110591 -1.17078e-16 0)
(0.110591 3.03948e-16 0)
(0.110591 3.46108e-17 0)
(0.110591 -2.97054e-16 0)
(0.110591 2.1473e-16 0)
(0.110591 -1.69321e-17 0)
(0.110591 -1.13331e-16 0)
(0.110591 -6.47273e-17 0)
(0.110591 -1.80644e-16 0)
(0.110591 3.08243e-16 0)
(0.110591 8.53095e-17 0)
(0.110591 -1.25136e-16 0)
(0.110591 -8.17626e-17 0)
(0.110591 -2.02395e-16 0)
(0.110591 3.0676e-16 0)
(0.110591 3.56394e-17 0)
(0.110591 -9.2821e-17 0)
(0.110591 8.44285e-17 0)
(0.110591 -1.5229e-16 0)
(0.110591 8.45757e-17 0)
(0.110591 -8.14675e-17 0)
(0.110591 5.70757e-18 0)
(0.110591 9.01348e-17 0)
(0.110591 -2.43485e-16 0)
(0.110591 5.25954e-17 0)
(0.110591 1.4989e-17 0)
(0.110591 1.13133e-17 0)
(0.110591 8.87672e-17 0)
(0.110591 -2.11277e-16 0)
(0.110591 1.00413e-16 0)
(0.110591 -5.13478e-17 0)
(0.110591 1.86145e-17 0)
(0.110591 1.3337e-16 0)
(0.110591 -3.28714e-16 0)
(0.110591 2.7097e-17 0)
(0.110591 7.56357e-17 0)
(0.110591 9.92755e-17 0)
(0.110591 3.9031e-17 0)
(0.110591 -2.28377e-16 0)
(0.110591 2.27876e-16 0)
(0.110591 6.80669e-18 0)
(0.110591 -1.27125e-16 0)
(0.110591 -2.16683e-17 0)
(0.110591 -1.9103e-16 0)
(0.110591 3.15427e-16 0)
(0.110591 1.10379e-17 0)
(0.110591 -3.98008e-17 0)
(0.110591 1.17912e-16 0)
(0.110591 -2.55662e-16 0)
(0.110591 9.4971e-17 0)
(0.110591 5.62887e-17 0)
(0.110591 -3.62905e-18 0)
(0.110591 4.00643e-17 0)
(0.110591 -1.48327e-16 0)
(0.110591 1.86196e-16 0)
(0.110591 4.69959e-17 0)
(0.110591 -2.34869e-17 0)
(0.110591 -3.09052e-17 0)
(0.110591 -1.98195e-16 0)
(0.110591 1.28487e-16 0)
(0.110591 1.39916e-17 0)
(0.110591 8.05674e-17 0)
(0.110591 -5.2723e-18 0)
(0.110591 -1.83721e-16 0)
(0.110591 1.55467e-16 0)
(0.110591 1.80263e-17 0)
(0.110591 -3.66274e-17 0)
(0.110591 1.23846e-16 0)
(0.110591 -1.60122e-16 0)
(0.110591 4.86513e-17 0)
(0.110591 4.65557e-17 0)
(0.110591 -3.43039e-18 0)
(0.110591 -6.03857e-18 0)
(0.110591 -2.20344e-16 0)
(0.110591 4.00232e-17 0)
(0.110591 1.2969e-16 0)
(0.110591 5.21239e-17 0)
(0.110591 -1.76577e-16 0)
(0.110591 -1.61747e-16 0)
(0.110591 2.21363e-16 0)
(0.110591 -7.99029e-18 0)
(0.110591 -5.49145e-17 0)
(0.110591 -4.44686e-17 0)
(0.110591 -6.7681e-17 0)
(0.110591 2.1703e-16 0)
(0.110591 -2.5995e-17 0)
(0.110591 -5.6394e-17 0)
(0.110591 -1.03987e-16 0)
(0.110591 -7.2896e-17 0)
(0.110591 2.27847e-16 0)
(0.110591 5.64709e-18 0)
(0.110591 6.95943e-17 0)
(0.110591 -1.19611e-16 0)
(0.110591 -2.46586e-16 0)
(0.110591 9.09327e-17 0)
(0.110591 6.77914e-17 0)
(0.110591 1.32425e-16 0)
(0.110591 -1.30626e-16 0)
(0.110591 -3.8237e-18 0)
(0.110591 8.24815e-17 0)
(0.110591 -1.42868e-16 0)
(0.110591 1.37849e-16 0)
(0.110591 -5.7974e-18 0)
(0.110591 -7.77568e-17 0)
(0.110591 1.21285e-16 0)
(0.110591 -9.80976e-17 0)
(0.110591 1.12544e-16 0)
(0.110591 7.11375e-17 0)
(0.110591 6.1741e-18 0)
(0.181819 4.24753e-16 0)
(0.181819 1.48235e-16 0)
(0.181819 3.41422e-17 0)
(0.181819 2.64216e-17 0)
(0.181819 4.68763e-17 0)
(0.181819 1.34978e-17 0)
(0.181819 -1.65418e-17 0)
(0.181819 -1.17942e-17 0)
(0.181819 -1.86007e-17 0)
(0.181819 -2.24443e-17 0)
(0.181819 -4.27357e-17 0)
(0.181819 -4.07108e-17 0)
(0.181819 2.94799e-17 0)
(0.181819 3.22296e-17 0)
(0.181819 3.63978e-17 0)
(0.181819 9.90644e-17 0)
(0.181819 5.95982e-17 0)
(0.181819 -1.29601e-17 0)
(0.181819 -4.07244e-18 0)
(0.181819 7.90643e-18 0)
(0.181819 4.01227e-17 0)
(0.181819 2.37676e-17 0)
(0.181819 1.68457e-17 0)
(0.181819 1.00793e-18 0)
(0.181819 -2.8519e-17 0)
(0.181819 -1.83125e-17 0)
(0.181819 5.46572e-17 0)
(0.181819 4.90269e-17 0)
(0.181819 1.51921e-17 0)
(0.181819 -5.16744e-18 0)
(0.181819 5.46782e-17 0)
(0.181819 9.05685e-17 0)
(0.181819 -2.07724e-19 0)
(0.181819 -5.47203e-17 0)
(0.181819 -5.33541e-17 0)
(0.181819 -2.58994e-17 0)
(0.181819 4.516e-17 0)
(0.181819 -1.61771e-17 0)
(0.181819 -8.12136e-17 0)
(0.181819 1.83152e-17 0)
(0.181819 -8.40813e-18 0)
(0.181819 -1.19515e-17 0)
(0.181819 1.61314e-17 0)
(0.181819 -4.65261e-17 0)
(0.181819 -5.70714e-17 0)
(0.181819 -4.78233e-19 0)
(0.181819 4.63288e-17 0)
(0.181819 4.59643e-17 0)
(0.181819 2.83737e-17 0)
(0.181819 1.59551e-18 0)
(0.181819 -4.79255e-17 0)
(0.181819 -8.63284e-18 0)
(0.181819 2.77612e-17 0)
(0.181819 4.66069e-17 0)
(0.181819 1.10331e-16 0)
(0.181819 -8.01632e-18 0)
(0.181819 -1.40648e-17 0)
(0.181819 -8.94174e-18 0)
(0.181819 -1.15804e-19 0)
(0.181819 4.68427e-17 0)
(0.181819 -1.38981e-16 0)
(0.181819 8.41306e-17 0)
(0.181819 1.01456e-17 0)
(0.181819 -3.93991e-17 0)
(0.181819 1.09092e-16 0)
(0.181819 -8.34122e-17 0)
(0.181819 -1.63556e-17 0)
(0.181819 -9.20014e-18 0)
(0.181819 4.10031e-17 0)
(0.181819 9.15365e-17 0)
(0.181819 -4.88617e-17 0)
(0.181819 -5.29803e-17 0)
(0.181819 -7.48029e-17 0)
(0.181819 2.56184e-17 0)
(0.181819 1.17636e-16 0)
(0.181819 -8.97551e-17 0)
(0.181819 -1.34822e-16 0)
(0.181819 2.41336e-17 0)
(0.181819 -4.63507e-18 0)
(0.181819 4.70451e-17 0)
(0.181819 -4.05437e-17 0)
(0.181819 -1.2411e-16 0)
(0.181819 2.23546e-18 0)
(0.181819 1.06086e-17 0)
(0.181819 2.12021e-17 0)
(0.181819 -5.15281e-17 0)
(0.181819 -1.66515e-17 0)
(0.181819 -7.89953e-17 0)
(0.181819 -5.26456e-17 0)
(0.181819 1.53816e-16 0)
(0.181819 -3.30196e-17 0)
(0.181819 -9.42608e-17 0)
(0.181819 6.99213e-18 0)
(0.181819 3.96166e-17 0)
(0.181819 2.71587e-17 0)
(0.181819 -1.12628e-16 0)
(0.181819 -4.75761e-17 0)
(0.181819 -4.5075e-17 0)
(0.181819 3.60256e-17 0)
(0.181819 5.66066e-17 0)
(0.181819 -2.24045e-17 0)
(0.181819 1.7116e-17 0)
(0.181819 -8.26905e-17 0)
(0.181819 -2.38558e-17 0)
(0.181819 8.85109e-17 0)
(0.181819 1.02125e-16 0)
(0.181819 -1.20474e-16 0)
(0.181819 -1.11734e-16 0)
(0.181819 1.19415e-16 0)
(0.181819 1.72869e-16 0)
(0.181819 6.61401e-17 0)
(0.181819 -2.85955e-16 0)
(0.181819 1.67934e-17 0)
(0.181819 2.22159e-16 0)
(0.181819 1.23472e-16 0)
(0.181819 2.07787e-17 0)
(0.181819 -2.47072e-16 0)
(0.181819 -1.14966e-16 0)
(0.181819 2.81498e-16 0)
(0.181819 1.7981e-16 0)
(0.181819 -1.58618e-16 0)
(0.181819 -2.9518e-16 0)
(0.181819 -5.96686e-17 0)
(0.181819 3.13374e-16 0)
(0.181819 2.47735e-16 0)
(0.181819 -1.14413e-16 0)
(0.181819 -3.95093e-16 0)
(0.181819 2.45243e-17 0)
(0.181819 3.60112e-16 0)
(0.181819 8.29948e-17 0)
(0.181819 -7.18072e-17 0)
(0.181819 -2.24069e-16 0)
(0.181819 -3.80479e-18 0)
(0.181819 2.58136e-16 0)
(0.181819 7.36322e-17 0)
(0.181819 -2.1053e-17 0)
(0.181819 -1.5529e-16 0)
(0.181819 -1.60988e-17 0)
(0.181819 2.74841e-16 0)
(0.181819 9.43085e-17 0)
(0.181819 -9.8788e-17 0)
(0.181819 -1.56516e-16 0)
(0.181819 6.02305e-17 0)
(0.181819 1.19736e-16 0)
(0.181819 -3.05114e-17 0)
(0.181819 -3.61461e-17 0)
(0.181819 -1.06033e-16 0)
(0.181819 8.42005e-17 0)
(0.181819 4.16295e-17 0)
(0.181819 -6.50517e-17 0)
(0.181819 1.13863e-16 0)
(0.181819 -1.17357e-16 0)
(0.181819 -1.45207e-16 0)
(0.181819 5.30184e-17 0)
(0.181819 7.85123e-17 0)
(0.181819 8.06083e-17 0)
(0.181819 -1.60248e-16 0)
(0.181819 -2.20688e-16 0)
(0.181819 5.69852e-18 0)
(0.181819 1.18064e-16 0)
(0.181819 1.98205e-16 0)
(0.181819 -1.67867e-16 0)
(0.181819 -9.035e-17 0)
(0.181819 1.66414e-16 0)
(0.181819 -1.23584e-16 0)
(0.181819 -2.55001e-17 0)
(0.181819 -3.67003e-17 0)
(0.181819 -7.59959e-17 0)
(0.181819 7.08071e-17 0)
(0.181819 2.02112e-18 0)
(0.181819 -8.21008e-17 0)
(0.181819 -2.32666e-16 0)
(0.181819 -1.29084e-17 0)
(0.181819 1.63774e-16 0)
(0.181819 8.54863e-17 0)
(0.181819 -9.60596e-17 0)
(0.181819 -1.41607e-16 0)
(0.181819 9.61051e-17 0)
(0.181819 -1.98955e-17 0)
(0.181819 1.61385e-16 0)
(0.181819 1.39997e-16 0)
(0.181819 -3.18532e-16 0)
(0.181819 -3.38534e-17 0)
(0.181819 2.14704e-16 0)
(0.181819 9.02311e-17 0)
(0.181819 1.68167e-16 0)
(0.181819 -1.27619e-16 0)
(0.181819 -4.65755e-17 0)
(0.181819 2.119e-16 0)
(0.181819 -4.36641e-17 0)
(0.181819 -2.56987e-17 0)
(0.181819 -4.41239e-17 0)
(0.181819 -1.01074e-16 0)
(0.181819 6.79584e-17 0)
(0.181819 5.48995e-17 0)
(0.181819 5.94357e-17 0)
(0.181819 -5.71013e-17 0)
(0.181819 -6.78062e-17 0)
(0.181819 1.11395e-16 0)
(0.181819 3.74008e-17 0)
(0.181819 2.70366e-17 0)
(0.181819 -4.6983e-17 0)
(0.181819 5.18956e-17 0)
(0.181819 1.7074e-16 0)
(0.181819 -3.91125e-18 0)
(0.181819 -1.02149e-16 0)
(0.181819 -1.55866e-16 0)
(0.181819 2.62458e-17 0)
(0.181819 5.99869e-17 0)
(0.181819 -2.46032e-17 0)
(0.181819 -2.44369e-17 0)
(0.181819 -1.59374e-16 0)
(0.181819 3.95071e-16 0)
(0.181819 7.09752e-17 0)
(0.181819 -3.69398e-16 0)
(0.181819 2.16528e-16 0)
(0.181819 -1.73476e-16 0)
(0.181819 -6.72403e-17 0)
(0.181819 -7.71272e-17 0)
(0.181819 -3.43657e-16 0)
(0.181819 4.5867e-16 0)
(0.181819 8.94013e-17 0)
(0.181819 -8.79455e-17 0)
(0.181819 -7.85823e-17 0)
(0.181819 -3.62935e-16 0)
(0.181819 4.34239e-16 0)
(0.181819 8.7677e-17 0)
(0.181819 -1.12656e-16 0)
(0.181819 2.42707e-17 0)
(0.181819 -3.0586e-16 0)
(0.181819 2.89392e-16 0)
(0.181819 -4.32172e-17 0)
(0.181819 -1.44875e-16 0)
(0.181819 7.26667e-17 0)
(0.181819 -3.56447e-16 0)
(0.181819 3.83526e-17 0)
(0.181819 -1.15933e-16 0)
(0.181819 1.43605e-16 0)
(0.181819 2.48774e-16 0)
(0.181819 -4.41272e-16 0)
(0.181819 9.94208e-17 0)
(0.181819 -1.30321e-16 0)
(0.181819 8.89963e-17 0)
(0.181819 2.16949e-16 0)
(0.181819 -6.32543e-16 0)
(0.181819 6.59509e-17 0)
(0.181819 1.15401e-16 0)
(0.181819 1.63033e-16 0)
(0.181819 6.41437e-17 0)
(0.181819 -3.76292e-16 0)
(0.181819 5.2787e-16 0)
(0.181819 3.64354e-17 0)
(0.181819 -3.57032e-16 0)
(0.181819 -2.20954e-16 0)
(0.181819 -2.6489e-16 0)
(0.181819 7.30915e-16 0)
(0.181819 2.61338e-17 0)
(0.181819 -1.36654e-16 0)
(0.181819 1.58341e-16 0)
(0.181819 -3.70201e-16 0)
(0.181819 2.20821e-16 0)
(0.181819 4.55495e-17 0)
(0.181819 3.48212e-17 0)
(0.181819 4.22748e-17 0)
(0.181819 -2.67634e-16 0)
(0.181819 4.12281e-16 0)
(0.181819 2.14126e-17 0)
(0.181819 -7.53826e-17 0)
(0.181819 4.22697e-17 0)
(0.181819 -3.77763e-16 0)
(0.181819 2.12271e-16 0)
(0.181819 3.66287e-17 0)
(0.181819 6.06477e-17 0)
(0.181819 1.04214e-16 0)
(0.181819 -3.21832e-16 0)
(0.181819 2.47036e-16 0)
(0.181819 3.94843e-17 0)
(0.181819 2.73972e-17 0)
(0.181819 1.56149e-16 0)
(0.181819 -3.80013e-16 0)
(0.181819 1.46224e-16 0)
(0.181819 -8.36055e-18 0)
(0.181819 -7.33148e-19 0)
(0.181819 8.62867e-17 0)
(0.181819 -4.2218e-16 0)
(0.181819 1.21429e-16 0)
(0.181819 1.87853e-16 0)
(0.181819 -1.38513e-16 0)
(0.181819 -1.71904e-16 0)
(0.181819 -2.75175e-16 0)
(0.181819 2.73751e-16 0)
(0.181819 1.35041e-16 0)
(0.181819 -1.78922e-16 0)
(0.181819 3.30366e-17 0)
(0.181819 -1.18629e-16 0)
(0.181819 9.67137e-17 0)
(0.181819 2.24761e-16 0)
(0.181819 -1.45006e-16 0)
(0.181819 -1.2104e-16 0)
(0.181819 -2.00053e-16 0)
(0.181819 1.73965e-16 0)
(0.181819 3.53761e-16 0)
(0.181819 3.43803e-17 0)
(0.181819 -4.06613e-16 0)
(0.181819 -2.22605e-16 0)
(0.181819 2.11173e-16 0)
(0.181819 6.61873e-17 0)
(0.181819 1.1848e-16 0)
(0.181819 -2.41101e-16 0)
(0.181819 1.92323e-17 0)
(0.181819 1.65343e-16 0)
(0.181819 -1.79521e-16 0)
(0.181819 1.69175e-16 0)
(0.181819 2.84174e-17 0)
(0.181819 -5.8489e-17 0)
(0.181819 5.72276e-17 0)
(0.181819 -1.00067e-16 0)
(0.181819 3.02578e-16 0)
(0.181819 7.63589e-17 0)
(0.181819 1.52406e-18 0)
(0.251172 4.49949e-16 0)
(0.251172 1.6949e-16 0)
(0.251172 7.4645e-17 0)
(0.251172 6.53939e-17 0)
(0.251172 6.6635e-17 0)
(0.251172 2.56488e-17 0)
(0.251172 -1.66951e-17 0)
(0.251172 -2.15292e-17 0)
(0.251172 -1.37409e-17 0)
(0.251172 -1.72486e-17 0)
(0.251172 -6.03738e-17 0)
(0.251172 -4.73411e-17 0)
(0.251172 4.69887e-17 0)
(0.251172 5.76312e-17 0)
(0.251172 6.82149e-17 0)
(0.251172 1.36755e-16 0)
(0.251172 8.96999e-17 0)
(0.251172 2.33339e-17 0)
(0.251172 3.13375e-17 0)
(0.251172 1.56235e-17 0)
(0.251172 6.12258e-17 0)
(0.251172 7.48464e-17 0)
(0.251172 4.33333e-17 0)
(0.251172 -1.43733e-17 0)
(0.251172 -7.6298e-17 0)
(0.251172 -2.86106e-17 0)
(0.251172 9.72677e-17 0)
(0.251172 8.69872e-17 0)
(0.251172 5.00053e-17 0)
(0.251172 1.65606e-17 0)
(0.251172 8.11618e-17 0)
(0.251172 1.23191e-16 0)
(0.251172 7.62333e-18 0)
(0.251172 -6.78888e-17 0)
(0.251172 -9.24838e-17 0)
(0.251172 -6.36803e-17 0)
(0.251172 4.14796e-17 0)
(0.251172 1.17542e-17 0)
(0.251172 -1.12278e-16 0)
(0.251172 9.49279e-18 0)
(0.251172 -1.08162e-17 0)
(0.251172 -1.87134e-17 0)
(0.251172 -6.20275e-18 0)
(0.251172 -6.98646e-17 0)
(0.251172 -5.88564e-17 0)
(0.251172 -1.40231e-17 0)
(0.251172 5.31912e-17 0)
(0.251172 8.15107e-17 0)
(0.251172 3.7247e-17 0)
(0.251172 1.97496e-17 0)
(0.251172 -4.16586e-17 0)
(0.251172 1.56941e-17 0)
(0.251172 5.89137e-17 0)
(0.251172 5.18518e-17 0)
(0.251172 1.59239e-16 0)
(0.251172 1.37939e-17 0)
(0.251172 -1.45602e-17 0)
(0.251172 -1.98687e-17 0)
(0.251172 -1.33261e-17 0)
(0.251172 4.50185e-17 0)
(0.251172 -1.68464e-16 0)
(0.251172 8.20806e-17 0)
(0.251172 7.46117e-17 0)
(0.251172 -2.69869e-17 0)
(0.251172 7.83528e-17 0)
(0.251172 -1.05123e-16 0)
(0.251172 1.81137e-18 0)
(0.251172 -3.18582e-17 0)
(0.251172 3.83541e-17 0)
(0.251172 1.26817e-16 0)
(0.251172 -8.55537e-17 0)
(0.251172 -9.27045e-17 0)
(0.251172 -1.05732e-16 0)
(0.251172 9.54326e-18 0)
(0.251172 1.59535e-16 0)
(0.251172 -1.18431e-16 0)
(0.251172 -1.51498e-16 0)
(0.251172 1.07291e-19 0)
(0.251172 -4.62938e-17 0)
(0.251172 6.25278e-17 0)
(0.251172 -6.15593e-17 0)
(0.251172 -2.03043e-16 0)
(0.251172 -1.46055e-17 0)
(0.251172 2.59581e-17 0)
(0.251172 2.42573e-17 0)
(0.251172 -9.88475e-17 0)
(0.251172 -4.73692e-17 0)
(0.251172 -6.01076e-17 0)
(0.251172 -9.50265e-17 0)
(0.251172 1.536e-16 0)
(0.251172 -8.65229e-18 0)
(0.251172 -1.02371e-16 0)
(0.251172 -5.78933e-17 0)
(0.251172 4.59241e-17 0)
(0.251172 3.29251e-17 0)
(0.251172 -1.63791e-16 0)
(0.251172 -8.88284e-17 0)
(0.251172 -4.5427e-17 0)
(0.251172 4.26815e-17 0)
(0.251172 5.81681e-17 0)
(0.251172 -1.79501e-17 0)
(0.251172 2.94247e-18 0)
(0.251172 -1.22649e-16 0)
(0.251172 -2.90282e-17 0)
(0.251172 1.72276e-16 0)
(0.251172 1.34609e-16 0)
(0.251172 -1.80099e-16 0)
(0.251172 -1.77533e-16 0)
(0.251172 1.75273e-16 0)
(0.251172 2.82034e-16 0)
(0.251172 7.25162e-17 0)
(0.251172 -3.43684e-16 0)
(0.251172 9.5524e-18 0)
(0.251172 2.98114e-16 0)
(0.251172 2.26953e-16 0)
(0.251172 4.51348e-17 0)
(0.251172 -3.85743e-16 0)
(0.251172 -1.67888e-16 0)
(0.251172 3.96891e-16 0)
(0.251172 2.98147e-16 0)
(0.251172 -2.21786e-16 0)
(0.251172 -4.56335e-16 0)
(0.251172 -3.79599e-17 0)
(0.251172 4.07038e-16 0)
(0.251172 3.0132e-16 0)
(0.251172 -1.23879e-16 0)
(0.251172 -4.49545e-16 0)
(0.251172 7.06355e-18 0)
(0.251172 4.79079e-16 0)
(0.251172 1.11058e-16 0)
(0.251172 -1.43266e-16 0)
(0.251172 -2.05801e-16 0)
(0.251172 -5.35762e-17 0)
(0.251172 3.203e-16 0)
(0.251172 1.71818e-16 0)
(0.251172 -1.69477e-17 0)
(0.251172 -2.35277e-16 0)
(0.251172 -2.54232e-17 0)
(0.251172 4.18382e-16 0)
(0.251172 1.50933e-16 0)
(0.251172 -1.51285e-16 0)
(0.251172 -2.4457e-16 0)
(0.251172 1.15665e-16 0)
(0.251172 1.68013e-16 0)
(0.251172 -7.42287e-18 0)
(0.251172 -2.50364e-18 0)
(0.251172 -2.67609e-16 0)
(0.251172 7.70702e-17 0)
(0.251172 1.07985e-16 0)
(0.251172 -5.31283e-17 0)
(0.251172 6.85595e-17 0)
(0.251172 -2.35263e-16 0)
(0.251172 -1.00555e-16 0)
(0.251172 1.16434e-16 0)
(0.251172 1.07606e-16 0)
(0.251172 3.36256e-17 0)
(0.251172 -2.82372e-16 0)
(0.251172 -2.83675e-16 0)
(0.251172 4.69473e-17 0)
(0.251172 1.57841e-16 0)
(0.251172 2.08456e-16 0)
(0.251172 -2.40438e-16 0)
(0.251172 -6.73823e-17 0)
(0.251172 2.32952e-16 0)
(0.251172 -2.0969e-16 0)
(0.251172 -6.20848e-17 0)
(0.251172 -5.1678e-17 0)
(0.251172 -9.80142e-17 0)
(0.251172 6.90928e-17 0)
(0.251172 6.50719e-18 0)
(0.251172 -1.39861e-16 0)
(0.251172 -3.6435e-16 0)
(0.251172 -5.9246e-17 0)