# Probe 0 (2 0 0.05)
# Probe 1 (2 0.05 0.05)
# Probe 2 (2 0.1 0.05)
# Probe 3 (2 0.2 0.05)
# Probe 4 (2 0.4 0.05)
# Probe 5 (2 0.6 0.05)
# Probe 6 (2 0.8 0.05)
# Probe 7 (2 0.9 0.05)
# Probe 8 (2 0.95 0.05)
# Probe 9 (2 1 0.05)
#       Probe             0             1             2             3             4             5             6             7             8             9
#        Time
        0.005   1.42969e-13   1.46876e-13   1.49945e-13   1.47095e-13   1.47619e-13   1.46493e-13   1.41952e-13   1.31991e-13   1.32573e-13   1.09682e-13
         0.01   7.18057e-14   6.73214e-14   6.06283e-14   7.61539e-14   7.70115e-14   4.65042e-14   3.26746e-14   2.67845e-14   1.11628e-14  -1.34334e-14
        0.015   1.41703e-13   1.45655e-13   1.43117e-13   1.43048e-13   1.43265e-13   1.52139e-13   1.61747e-13   1.62343e-13   1.62334e-13   1.49178e-13
         0.02  -4.20951e-13  -4.18995e-13  -4.19563e-13  -4.23927e-13  -4.29957e-13  -4.31189e-13  -4.33021e-13  -4.33741e-13  -4.36562e-13  -4.46692e-13
        0.025  -9.61616e-14  -9.49707e-14  -9.64871e-14  -9.73924e-14  -9.99633e-14  -9.78939e-14  -9.17667e-14  -9.03364e-14   -9.0698e-14  -9.81777e-14
         0.03  -9.08263e-14  -8.95891e-14  -9.06024e-14  -9.14395e-14   -8.8123e-14  -8.49407e-14  -8.57475e-14  -8.54499e-14  -8.73494e-14  -9.51091e-14
        0.035   3.96242e-14   4.04128e-14   4.00791e-14   3.89299e-14   3.69019e-14   3.80677e-14    4.1285e-14   4.17046e-14   4.09947e-14    3.5104e-14
         0.04   8.92582e-14   9.00884e-14   8.98178e-14   8.97014e-14   8.77475e-14   9.08541e-14   8.98917e-14   8.98522e-14   8.83771e-14   8.33139e-14
        0.045   -1.1354e-13  -1.13103e-13  -1.12439e-13  -1.13235e-13  -1.08715e-13  -1.05525e-13  -1.03349e-13  -1.01895e-13  -1.02861e-13  -1.07894e-13
         0.05  -5.01664e-14  -4.94277e-14  -4.92505e-14   -5.0556e-14  -5.01988e-14  -4.78944e-14  -4.73061e-14   -4.7248e-14  -4.84437e-14  -5.41073e-14
        0.055   8.08119e-15   8.54768e-15   9.00638e-15   1.05974e-14   8.82482e-15    6.0355e-15   6.85194e-16   3.37323e-16  -9.90648e-16  -5.99007e-15
         0.06   1.27228e-13    1.2782e-13   1.27435e-13   1.26581e-13   1.27167e-13    1.3149e-13   1.34391e-13   1.33868e-13   1.33649e-13   1.28598e-13
        0.065   3.27739e-14   3.38067e-14   3.36205e-14   3.21722e-14   2.95809e-14   2.62915e-14   2.22621e-14   2.06759e-14   2.06032e-14   1.53344e-14
         0.07  -1.97736e-13  -1.97527e-13  -1.96326e-13  -1.95027e-13  -1.93257e-13  -1.89494e-13  -1.85162e-13  -1.84672e-13  -1.85545e-13  -1.90126e-13
        0.075   3.52655e-13   3.53817e-13   3.53491e-13   3.51347e-13   3.50152e-13   3.44966e-13   3.42491e-13   3.43148e-13   3.43042e-13   3.38546e-13
         0.08  -8.93207e-14  -8.88022e-14  -8.84214e-14  -8.96019e-14  -8.74306e-14  -8.54639e-14  -8.26242e-14  -8.14828e-14   -8.2644e-14  -8.65465e-14
        0.085  -1.21133e-13  -1.19957e-13  -1.19201e-13  -1.18138e-13  -1.16686e-13   -1.1669e-13  -1.16313e-13  -1.14819e-13  -1.15344e-13   -1.1968e-13
         0.09  -3.88639e-14  -3.81159e-14  -3.79802e-14  -4.02072e-14  -3.96043e-14  -4.40808e-14  -4.57747e-14  -4.59573e-14  -4.63442e-14  -5.01368e-14
        0.095   1.58522e-13   1.59318e-13   1.59913e-13   1.59772e-13    1.6173e-13   1.65534e-13   1.67783e-13    1.6737e-13   1.66623e-13   1.63212e-13
          0.1   2.15076e-14   2.22867e-14   2.19309e-14   2.32743e-14    2.2487e-14   1.63527e-14   1.57386e-14   1.63062e-14   1.53348e-14   1.11738e-14
        0.105   1.90473e-13   1.91382e-13   1.91482e-13    1.9048e-13   1.89554e-13   1.89822e-13   1.87877e-13   1.87831e-13   1.85877e-13   1.81736e-13
         0.11  -2.14323e-13  -2.13814e-13  -2.14407e-13  -2.15173e-13  -2.13974e-13  -2.15633e-13  -2.14891e-13  -2.13654e-13  -2.13599e-13  -2.17286e-13
        0.115   7.22944e-14     7.304e-14   7.30794e-14   7.55226e-14   7.83705e-14   8.01259e-14   8.14722e-14   7.98907e-14   7.89723e-14   7.52838e-14
         0.12  -4.48569e-14  -4.44103e-14  -4.51446e-14  -4.67899e-14  -4.80855e-14  -5.25706e-14  -5.44536e-14  -5.35407e-14  -5.43515e-14  -5.82514e-14
        0.125   1.15982e-13   1.16633e-13   1.16752e-13   1.17736e-13   1.18375e-13   1.19081e-13   1.21108e-13   1.21857e-13   1.22553e-13   1.19157e-13
         0.13  -2.21882e-13  -2.21141e-13  -2.22341e-13   -2.2039e-13  -2.17939e-13     -2.17e-13  -2.16199e-13  -2.15064e-13  -2.15907e-13  -2.18929e-13
        0.135   1.29478e-13   1.31003e-13   1.31109e-13   1.28953e-13   1.30654e-13   1.31979e-13   1.34075e-13   1.34161e-13    1.3255e-13   1.29311e-13
         0.14  -2.50982e-13   -2.5069e-13  -2.49613e-13  -2.48912e-13  -2.49527e-13  -2.57927e-13  -2.64209e-13  -2.65966e-13  -2.66703e-13  -2.70172e-13
        0.145  -3.80024e-14  -3.72065e-14   -3.7286e-14  -3.79217e-14  -3.46785e-14  -3.09178e-14  -2.70295e-14  -2.57572e-14  -2.64106e-14    -2.923e-14
         0.15  -3.22046e-15  -2.90723e-15  -2.86495e-15  -4.22943e-15   -5.6853e-15  -6.52238e-15  -7.19576e-15  -9.57235e-15  -1.02276e-14  -1.34621e-14
        0.155   8.95523e-14   9.04714e-14   9.08743e-14   9.19524e-14   9.53948e-14   9.56104e-14   9.61182e-14   9.41849e-14   9.29882e-14   9.01627e-14
         0.16  -6.41367e-14  -6.37477e-14  -6.41458e-14  -6.52304e-14  -6.41208e-14  -6.51937e-14  -6.42796e-14  -6.61699e-14  -6.65628e-14  -6.98179e-14
        0.165   2.22074e-13   2.22705e-13   2.22505e-13    2.2514e-13   2.26413e-13   2.27373e-13   2.28446e-13   2.28468e-13   2.28221e-13   2.25029e-13
         0.17   3.92456e-15   4.28522e-15   3.98285e-15   5.48333e-15   4.20453e-15   2.01126e-15   1.26332e-15   1.29936e-16  -1.03387e-15  -3.80331e-15
        0.175     -9.96e-15   -9.9047e-15  -8.98786e-15  -7.21982e-15  -5.25107e-15  -5.91816e-15  -5.73648e-15   -3.7437e-15  -3.53864e-15  -6.21671e-15
         0.18   1.69173e-14   1.76369e-14   1.75094e-14    1.5712e-14   1.64459e-14   1.82815e-14   1.79445e-14   1.60801e-14   1.53497e-14   1.22286e-14
        0.185  -3.06486e-14  -3.01169e-14  -2.87205e-14  -2.90653e-14  -2.43418e-14  -2.65105e-14  -2.74647e-14  -2.74269e-14  -2.80802e-14  -3.03944e-14
         0.19   4.05059e-14   4.08232e-14   4.04897e-14    3.8076e-14   3.41618e-14   3.39586e-14   3.73482e-14   3.63804e-14   3.60874e-14   3.30768e-14
        0.195   1.49355e-13   1.50091e-13   1.50518e-13   1.54023e-13   1.61619e-13   1.63746e-13    1.6476e-13   1.64291e-13   1.63803e-13   1.60838e-13
          0.2   -6.3692e-14  -6.32271e-14  -6.32663e-14  -6.42153e-14  -7.18818e-14  -7.91319e-14  -8.30949e-14  -8.36201e-14  -8.32365e-14  -8.62893e-14
        0.205   5.95318e-14    6.0063e-14   6.07925e-14   6.14825e-14   6.64096e-14   7.00442e-14   7.52789e-14   7.70829e-14   7.67095e-14   7.42827e-14
         0.21  -9.97821e-14  -9.92894e-14  -9.88064e-14  -1.00274e-13  -1.04679e-13  -1.10561e-13    -1.131e-13  -1.12921e-13  -1.13083e-13  -1.16514e-13
        0.215   1.07401e-13   1.08271e-13   1.08002e-13   1.07798e-13   1.08595e-13   1.09807e-13   1.10752e-13   1.10045e-13   1.09477e-13   1.06386e-13
         0.22  -1.20549e-13   -1.2012e-13  -1.19917e-13  -1.18143e-13  -1.18017e-13  -1.18306e-13  -1.18094e-13  -1.17908e-13  -1.18223e-13  -1.20683e-13
        0.225   1.40923e-13   1.41563e-13   1.41851e-13   1.40807e-13   1.42168e-13   1.40354e-13   1.39649e-13   1.38414e-13   1.36966e-13   1.34764e-13
         0.23  -1.22864e-13  -1.22541e-13  -1.22032e-13  -1.20539e-13  -1.19046e-13  -1.17495e-13  -1.12916e-13   -1.1135e-13    -1.105e-13  -1.12837e-13
        0.235   4.37401e-14   4.41178e-14   4.38511e-14   4.30447e-14   4.17407e-14   3.79433e-14    3.2302e-14   3.08198e-14   3.10722e-14   2.84064e-14
         0.24  -5.60763e-14  -5.55878e-14  -5.49658e-14   -5.3877e-14  -5.23594e-14  -4.83171e-14  -4.68575e-14  -4.63224e-14  -4.71122e-14  -5.00015e-14
        0.245   6.22709e-14   6.29928e-14   6.29305e-14   6.17833e-14   5.99677e-14   5.45833e-14   5.29606e-14   5.20767e-14   5.23215e-14    4.9959e-14
         0.25   1.31207e-14   1.36047e-14   1.37115e-14   1.45179e-14   1.66125e-14   2.05827e-14   2.67458e-14    2.4828e-14   2.47078e-14   2.18705e-14
        0.255  -1.33378e-13  -1.32762e-13  -1.32728e-13  -1.34194e-13  -1.38421e-13  -1.39553e-13  -1.44258e-13  -1.44649e-13  -1.45332e-13  -1.47438e-13
         0.26   6.10417e-14   6.15754e-14   6.11479e-14   6.16289e-14   6.51262e-14    6.7924e-14    7.2651e-14   7.13895e-14   7.12849e-14   6.81619e-14
        0.265  -1.22892e-13  -1.22377e-13   -1.2181e-13  -1.22972e-13  -1.24419e-13  -1.23678e-13  -1.24569e-13  -1.23149e-13  -1.24306e-13  -1.26351e-13
         0.27   5.42167e-14   5.48649e-14   5.51518e-14    5.5381e-14   5.45912e-14   5.65596e-14   5.78171e-14   5.64289e-14   5.58472e-14   5.29616e-14
        0.275   1.00192e-14   1.07601e-14   1.05315e-14   1.26305e-14   1.29202e-14   1.04282e-14     1.049e-14   1.03506e-14   1.01366e-14   7.97077e-15
         0.28  -1.35477e-14  -1.35079e-14  -1.40641e-14  -1.72691e-14  -1.75741e-14  -1.99239e-14   -1.6174e-14  -1.68281e-14  -1.78507e-14  -2.01806e-14
        0.285   1.12497e-13   1.12904e-13   1.13213e-13   1.14175e-13   1.14754e-13   1.14475e-13   1.12796e-13   1.12856e-13   1.12844e-13   1.11055e-13
         0.29   3.38225e-14   3.42178e-14   3.46594e-14   3.40709e-14   3.47088e-14   4.19593e-14   4.56098e-14   4.47003e-14   4.43328e-14   4.20306e-14
        0.295   2.31723e-14   2.36754e-14    2.3757e-14   2.57997e-14   2.37589e-14   1.90939e-14    1.7768e-14   1.73364e-14   1.63682e-14   1.42547e-14
          0.3   4.17748e-14   4.22804e-14   4.27757e-14    4.3444e-14   4.30418e-14    4.5073e-14   4.63853e-14    4.5739e-14   4.50551e-14   4.24837e-14
        0.305  -7.76219e-14  -7.70184e-14   -7.6936e-14  -7.74035e-14   -8.2636e-14  -8.64621e-14  -8.72333e-14  -8.73425e-14  -8.86636e-14  -9.09569e-14
         0.31   1.83465e-13   1.83992e-13   1.84232e-13    1.8185e-13    1.8514e-13   1.91818e-13   1.95252e-13   1.95534e-13    1.9482e-13   1.92411e-13
        0.315  -1.31324e-13  -1.31033e-13  -1.30796e-13  -1.30492e-13  -1.30814e-13  -1.30796e-13  -1.33021e-13  -1.32387e-13  -1.32518e-13  -1.35043e-13
         0.32   3.39669e-13   3.40384e-13   3.39594e-13   3.39483e-13   3.41202e-13   3.44183e-13   3.47438e-13   3.48146e-13   3.47495e-13   3.44629e-13
        0.325  -1.17955e-13  -1.17593e-13  -1.17098e-13  -1.17394e-13  -1.23764e-13   -1.2702e-13   -1.3324e-13  -1.33212e-13   -1.3333e-13   -1.3585e-13
         0.33   1.44711e-13   1.44757e-13   1.45359e-13   1.45454e-13   1.48383e-13   1.53212e-13   1.56663e-13   1.58223e-13   1.57744e-13   1.55705e-13
        0.335  -2.01127e-13   -2.0088e-13  -2.00526e-13  -2.01214e-13  -2.05883e-13  -2.10231e-13  -2.14155e-13  -2.14152e-13  -2.14149e-13  -2.16308e-13
         0.34   9.63901e-14   9.68632e-14   9.71057e-14   9.72864e-14   1.02609e-13   1.09095e-13   1.12911e-13   1.12098e-13     1.113e-13   1.09304e-13
        0.345  -1.06838e-13  -1.06673e-13  -1.06483e-13  -1.07122e-13   -1.0821e-13  -1.08559e-13  -1.10249e-13  -1.09545e-13  -1.09639e-13  -1.12076e-13
         0.35   1.68895e-13   1.69582e-13   1.70263e-13   1.69451e-13    1.6972e-13    1.7228e-13   1.72937e-13   1.72764e-13    1.7174e-13    1.6944e-13
        0.355  -1.88622e-14  -1.87569e-14  -1.84308e-14  -1.87755e-14  -1.88347e-14  -2.07973e-14  -1.93216e-14  -2.03102e-14  -2.00254e-14  -2.19187e-14
         0.36  -9.26938e-14  -9.18636e-14  -9.14423e-14  -8.99989e-14  -9.06999e-14  -9.17363e-14  -9.44291e-14  -9.30412e-14  -9.40479e-14  -9.59146e-14
        0.365   1.83248e-13   1.83409e-13   1.84116e-13   1.82733e-13   1.84471e-13   1.87484e-13   1.91177e-13   1.91358e-13   1.90361e-13   1.88038e-13
         0.37  -7.18739e-14  -7.14183e-14  -7.11022e-14  -7.41531e-14  -7.49473e-14  -7.80606e-14  -7.98302e-14  -8.12506e-14  -8.12185e-14  -8.26771e-14
        0.375  -5.35728e-14  -5.30319e-14  -5.23073e-14  -5.14136e-14   -4.9168e-14   -4.4996e-14  -4.30974e-14  -4.24781e-14  -4.29406e-14  -4.50605e-14
         0.38  -4.82551e-14  -4.80679e-14  -4.82796e-14  -4.75752e-14  -4.71075e-14  -4.94513e-14  -4.85576e-14  -4.88685e-14  -4.93622e-14  -5.15898e-14
        0.385   4.80695e-14   4.84869e-14   4.86223e-14   4.73507e-14   4.62125e-14   4.47541e-14   4.35946e-14   4.44697e-14   4.37579e-14   4.20427e-14
         0.39  -4.11831e-15  -3.78417e-15  -4.41578e-15  -2.76291e-15   3.18171e-15   5.31183e-15   1.12438e-14   1.12611e-14   1.10857e-14   9.06562e-15
        0.395   1.16622e-13   1.17015e-13   1.16768e-13    1.1475e-13   1.10814e-13   1.07647e-13   1.03372e-13   1.02519e-13   1.01973e-13   9.97902e-14
          0.4  -1.19073e-14   -1.1644e-14  -1.11989e-14  -9.87041e-15  -3.97377e-15  -2.60105e-15    2.0348e-15   1.85933e-15   2.37148e-15   2.95213e-16
        0.405  -1.15704e-13  -1.15193e-13  -1.13926e-13  -1.16507e-13  -1.19678e-13  -1.22623e-13  -1.27001e-13  -1.28466e-13  -1.29198e-13  -1.31137e-13
         0.41   6.97787e-14   7.03943e-14   7.05828e-14   6.93368e-14   6.77465e-14   6.76236e-14   6.99789e-14   7.12907e-14    7.0536e-14   6.84114e-14
        0.415  -1.78648e-13  -1.78273e-13   -1.7909e-13  -1.79103e-13  -1.76311e-13  -1.75351e-13  -1.76422e-13  -1.75723e-13  -1.75409e-13  -1.77306e-13
         0.42   2.40942e-13   2.41398e-13   2.41537e-13   2.42326e-13   2.44092e-13   2.43214e-13   2.41902e-13   2.40515e-13   2.40172e-13   2.38428e-13
        0.425  -3.09535e-13  -3.09077e-13  -3.08872e-13  -3.09199e-13   -3.0847e-13  -3.09203e-13  -3.11413e-13  -3.11901e-13  -3.12685e-13  -3.14671e-13
         0.43   4.27764e-13   4.28392e-13   4.28549e-13   4.28389e-13   4.25778e-13   4.26675e-13   4.29502e-13   4.29706e-13   4.29822e-13    4.2819e-13
        0.435  -1.19741e-13  -1.19289e-13  -1.19311e-13  -1.18125e-13  -1.15931e-13  -1.19617e-13  -1.23208e-13  -1.22675e-13  -1.23371e-13  -1.25381e-13
         0.44   1.50129e-13   1.50319e-13   1.50431e-13   1.50337e-13   1.50668e-13   1.52288e-13   1.56129e-13   1.56337e-13   1.56435e-13    1.5445e-13
        0.445  -2.16694e-13  -2.16399e-13  -2.16639e-13  -2.17787e-13   -2.1719e-13  -2.15022e-13  -2.14463e-13   -2.1458e-13  -2.15154e-13  -2.17115e-13
         0.45     9.472e-14   9.50409e-14   9.56288e-14    9.5571e-14   9.67518e-14   9.60192e-14   9.58809e-14   9.44031e-14   9.39925e-14   9.23555e-14
        0.455   5.04248e-14   5.08285e-14   5.09262e-14   5.12664e-14   4.88692e-14   4.89622e-14   4.78039e-14   4.83492e-14   4.83283e-14   4.61628e-14
         0.46  -8.40164e-14  -8.35977e-14  -8.38873e-14  -8.42327e-14  -8.01268e-14  -7.71952e-14  -7.61678e-14  -7.61397e-14  -7.67826e-14  -7.84211e-14
        0.465   1.82897e-14   1.86813e-14   1.89784e-14   1.86893e-14   1.92827e-14   1.26222e-14   9.18862e-15   9.48308e-15   8.46637e-15   6.46258e-15
         0.47  -1.68026e-14  -1.61495e-14  -1.58324e-14  -1.55264e-14  -1.35024e-14  -9.80169e-15  -9.19444e-15  -6.91113e-15  -7.11116e-15  -9.08267e-15
        0.475   -9.4591e-14  -9.42309e-14  -9.46751e-14  -9.55896e-14  -9.70749e-14  -9.93826e-14  -1.01174e-13  -1.01548e-13  -1.03031e-13  -1.04957e-13
         0.48   2.90417e-14   2.96834e-14   2.97696e-14   2.89693e-14   3.41133e-14   3.58027e-14   3.60869e-14    3.6273e-14   3.55253e-14   3.35766e-14
        0.485   3.20797e-13   3.21159e-13   3.22005e-13   3.21657e-13   3.20618e-13    3.1996e-13   3.21599e-13   3.21614e-13    3.1975e-13   3.17663e-13
         0.49  -7.45553e-14  -7.41664e-14  -7.43434e-14  -7.39794e-14  -7.28392e-14  -7.05195e-14  -7.16563e-14   -7.2715e-14   -7.3249e-14  -7.47066e-14
        0.495   4.07059e-14    4.1056e-14   4.13836e-14   4.06479e-14   3.93943e-14   3.88667e-14   3.78539e-14   3.81093e-14   3.80728e-14   3.61889e-14
          0.5  -4.62612e-14  -4.58643e-14  -4.58203e-14  -4.49895e-14  -4.01104e-14   -3.9977e-14   -4.2702e-14   -4.2766e-14  -4.25422e-14  -4.45363e-14
        0.505   1.85559e-14   1.90348e-14    1.9461e-14   1.90763e-14   1.70525e-14    1.9133e-14   1.84641e-14   1.97922e-14    1.8789e-14   1.67458e-14
         0.51    7.9972e-14   8.03171e-14   8.08567e-14   7.85533e-14   7.75188e-14   7.60332e-14   7.34197e-14   7.33993e-14   7.29849e-14   7.12055e-14
        0.515   5.90837e-14   5.93764e-14   5.98024e-14   5.95477e-14   6.41235e-14   6.73212e-14   6.87456e-14   6.95435e-14   6.94699e-14   6.74279e-14
         0.52   -3.5452e-14  -3.51781e-14  -3.45941e-14  -3.55188e-14  -3.30943e-14  -3.21136e-14   -3.3577e-14  -3.28578e-14  -3.36589e-14  -3.55684e-14
        0.525   9.03004e-14   9.05727e-14    9.1432e-14   9.08378e-14   8.85148e-14    9.1531e-14   9.25897e-14   9.39334e-14   9.31542e-14   9.13684e-14
         0.53      1.39e-13   1.39356e-13   1.39054e-13   1.37823e-13    1.3967e-13   1.37802e-13   1.35177e-13   1.34552e-13   1.34546e-13   1.32555e-13
        0.535   8.79986e-14   8.83566e-14   8.82819e-14   8.70286e-14   8.42111e-14   8.31731e-14   8.12677e-14   8.21153e-14   8.11312e-14   7.93973e-14
         0.54   1.95691e-14   2.01336e-14   2.01492e-14   1.95381e-14   2.41295e-14   2.51151e-14   2.35518e-14   2.35457e-14   2.24643e-14   2.07173e-14
        0.545   1.37328e-14   1.40873e-14   1.37816e-14   1.30476e-14   9.39047e-15   9.04759e-15   8.44613e-15    8.6691e-15   8.33934e-15    6.5173e-15
         0.55   1.43419e-13   1.43823e-13   1.43943e-13    1.4398e-13   1.46721e-13    1.4739e-13   1.48458e-13   1.50188e-13   1.49691e-13   1.47948e-13
        0.555  -4.50191e-14  -4.46245e-14  -4.51761e-14  -4.47666e-14  -4.33566e-14  -4.03261e-14  -4.04044e-14  -4.05491e-14  -4.11052e-14  -4.29709e-14
         0.56  -4.23638e-15   -3.7673e-15  -3.45874e-15  -4.52078e-15  -3.11501e-15  -1.86915e-15  -2.72388e-15  -3.32156e-15   -3.5535e-15  -5.54352e-15
        0.565  -5.44456e-14  -5.40307e-14  -5.43099e-14  -5.50599e-14  -5.51243e-14  -5.64917e-14  -5.65599e-14  -5.84392e-14  -5.84903e-14  -6.04232e-14
         0.57   4.97357e-14   5.00819e-14   5.01052e-14   4.97617e-14   4.61156e-14   4.78078e-14   4.67687e-14   4.89347e-14   4.85738e-14   4.71379e-14
        0.575   7.25263e-14   7.28805e-14    7.3045e-14   7.11815e-14   6.91905e-14    7.0416e-14   6.91898e-14   6.83614e-14   6.75632e-14    6.5734e-14
         0.58  -1.67864e-13  -1.67478e-13  -1.67472e-13  -1.67771e-13  -1.63134e-13  -1.58258e-13  -1.55935e-13  -1.54763e-13  -1.55108e-13  -1.57051e-13
        0.585   6.90156e-14   6.93247e-14    6.9699e-14   6.91301e-14   6.41195e-14   5.78704e-14   5.20357e-14   5.02058e-14   4.96907e-14   4.79027e-14
         0.59   6.72641e-15   7.00913e-15   7.11803e-15   7.76219e-15   1.14647e-14    1.5374e-14   1.82886e-14   2.17592e-14   2.12039e-14    1.9544e-14
        0.595  -5.32231e-15  -4.99087e-15   -5.0237e-15  -5.00884e-15  -3.57506e-15  -2.89019e-15  -3.93736e-15  -4.52556e-15  -5.20314e-15  -7.15805e-15
          0.6  -1.82311e-13  -1.82202e-13  -1.82239e-13  -1.83477e-13  -1.84504e-13   -1.8044e-13  -1.77071e-13  -1.74014e-13  -1.73711e-13  -1.75575e-13
        0.605   1.86986e-13   1.87244e-13   1.88174e-13    1.8791e-13   1.90835e-13   1.91766e-13   1.89196e-13   1.88965e-13   1.87713e-13   1.85803e-13
         0.61  -1.12478e-13    -1.121e-13  -1.12191e-13  -1.11654e-13  -1.11928e-13  -1.10217e-13  -1.09317e-13  -1.09498e-13   -1.0952e-13  -1.11224e-13
        0.615    8.5045e-14   8.54094e-14   8.51564e-14   8.51769e-14   8.50468e-14   8.24492e-14   7.80877e-14   7.75584e-14   7.62764e-14   7.46296e-14
         0.62  -6.14818e-14  -6.11584e-14  -6.11276e-14  -6.03137e-14  -5.44535e-14  -5.01528e-14  -4.46094e-14  -4.37128e-14  -4.44235e-14  -4.62572e-14
        0.625   2.99566e-14    3.0124e-14   3.04584e-14   2.95031e-14   2.56234e-14   2.40147e-14   1.64235e-14   1.64216e-14   1.59202e-14   1.42676e-14
         0.63  -3.39791e-13   -3.3976e-13  -3.38573e-13  -3.38058e-13  -3.32672e-13  -3.30273e-13  -3.28466e-13  -3.27418e-13  -3.27209e-13  -3.28989e-13
        0.635   2.40977e-13   2.41273e-13   2.42008e-13   2.40906e-13   2.34003e-13   2.31351e-13   2.26248e-13   2.24505e-13   2.23909e-13   2.21843e-13
         0.64  -1.10625e-13  -1.10435e-13  -1.10053e-13  -1.11015e-13  -1.10704e-13  -1.10229e-13  -1.10964e-13  -1.10278e-13   -1.1088e-13  -1.12491e-13
        0.645   2.76081e-14   2.78418e-14    2.8125e-14   2.83788e-14   2.90351e-14   2.88203e-14   2.86072e-14   2.86925e-14   2.83316e-14   2.67245e-14
         0.65  -4.84757e-14   -4.8002e-14  -4.83106e-14  -4.82955e-14  -4.80059e-14  -4.79056e-14  -4.92515e-14  -4.88213e-14  -4.92757e-14  -5.06012e-14
        0.655   2.06829e-14   2.10405e-14    2.0859e-14   1.87376e-14    1.8224e-14   2.24143e-14     2.308e-14   2.39261e-14   2.32883e-14   2.14267e-14
         0.66  -8.71091e-14  -8.68418e-14  -8.60947e-14  -8.46241e-14  -8.26088e-14  -8.28012e-14  -8.48051e-14  -8.65431e-14  -8.85344e-14  -9.02359e-14
        0.665   2.13367e-13   2.13687e-13   2.14128e-13   2.12424e-13   2.11523e-13   2.11144e-13   2.11345e-13   2.10401e-13   2.09959e-13   2.08635e-13
         0.67  -3.67883e-13  -3.67574e-13   -3.6782e-13  -3.68173e-13  -3.69071e-13  -3.63581e-13  -3.62776e-13   -3.6165e-13  -3.62042e-13  -3.63952e-13
        0.675   3.12011e-13   3.12395e-13   3.12899e-13   3.10956e-13   3.08433e-13   3.04145e-13   3.00322e-13   2.99862e-13   2.98872e-13   2.97118e-13
         0.68  -1.00124e-13  -9.96324e-14  -9.90267e-14   -9.7279e-14  -9.45545e-14  -9.04706e-14  -9.04898e-14  -8.91419e-14  -8.96666e-14  -9.14363e-14
        0.685   2.13026e-14   2.13825e-14   2.13653e-14   1.78233e-14    1.6796e-14   1.88612e-14   1.85052e-14   1.74887e-14   1.68483e-14   1.52127e-14
         0.69   -5.0203e-14    -4.988e-14  -4.92335e-14  -4.78044e-14   -4.8445e-14  -4.80432e-14  -4.79218e-14  -4.93796e-14  -5.00704e-14  -5.15935e-14
        0.695  -6.45799e-14  -6.45806e-14  -6.48634e-14  -6.72895e-14  -6.66995e-14  -6.64492e-14  -7.10968e-14  -7.00643e-14  -7.05888e-14  -7.19973e-14
          0.7  -2.27808e-14  -2.23699e-14  -2.22857e-14  -2.35164e-14  -2.31442e-14  -2.22762e-14  -2.40212e-14  -2.20624e-14  -2.32542e-14  -2.48296e-14
        0.705  -1.62774e-13   -1.6258e-13  -1.62954e-13  -1.63278e-13  -1.66678e-13  -1.64229e-13  -1.62666e-13  -1.62492e-13  -1.63092e-13  -1.64739e-13
         0.71  -3.88066e-14  -3.88712e-14   -3.8432e-14  -3.70836e-14  -3.42866e-14  -3.58372e-14  -3.74992e-14  -3.83943e-14  -3.91376e-14  -4.05888e-14
        0.715  -7.20154e-14  -7.17778e-14  -7.14587e-14  -7.19578e-14  -7.29627e-14  -7.14001e-14  -7.38261e-14    -7.293e-14  -7.32324e-14  -7.50221e-14
         0.72     9.011e-14    9.0292e-14   9.02363e-14   9.00429e-14   8.87789e-14   9.38789e-14   9.63754e-14   9.67013e-14   9.59604e-14   9.41074e-14
        0.725  -3.71094e-14  -3.68187e-14  -3.66092e-14  -3.55837e-14  -3.64821e-14  -3.93037e-14  -4.49756e-14   -4.5392e-14  -4.61198e-14  -4.78758e-14
         0.73   4.50103e-15   4.59299e-15   5.05652e-15   4.70234e-15   3.70274e-15   3.58263e-15   6.89331e-15   7.24094e-15   7.02019e-15   5.11101e-15
        0.735   1.62488e-14   1.65808e-14    1.7751e-14   1.77437e-14   1.49164e-14   1.82984e-14   1.65752e-14   1.65235e-14   1.52405e-14   1.34041e-14
         0.74  -3.35133e-13   -3.3519e-13  -3.35123e-13  -3.35823e-13  -3.35217e-13  -3.30776e-13  -3.30458e-13  -3.31045e-13  -3.29994e-13  -3.31659e-13
        0.745    2.6629e-13   2.66489e-13   2.67263e-13   2.66391e-13   2.64487e-13    2.6341e-13   2.62364e-13   2.61663e-13   2.60876e-13   2.58978e-13
         0.75  -1.84395e-13  -1.84377e-13  -1.83802e-13  -1.83711e-13  -1.83217e-13  -1.77483e-13  -1.75638e-13  -1.74287e-13  -1.74449e-13     -1.76e-13
        0.755   1.89625e-13   1.89685e-13   1.89962e-13   1.89341e-13   1.88557e-13   1.87077e-13   1.84048e-13   1.81832e-13   1.82015e-13   1.80142e-13
         0.76   3.49138e-15    3.7436e-15   4.31455e-15    5.9449e-15    5.2359e-15   9.44934e-15   1.28387e-14   1.46898e-14   1.42822e-14   1.23659e-14
        0.765  -1.73354e-13  -1.73031e-13  -1.73397e-13  -1.74304e-13  -1.74752e-13  -1.76188e-13  -1.82676e-13  -1.82715e-13  -1.82913e-13  -1.84819e-13
         0.77   4.95423e-14   4.96857e-14   4.95912e-14   4.91957e-14   5.04878e-14   5.15172e-14   5.15895e-14   5.23948e-14   5.21769e-14   5.07307e-14
        0.775  -1.93983e-13  -1.93927e-13  -1.93688e-13  -1.93261e-13  -1.93489e-13  -1.91272e-13  -1.91086e-13   -1.9015e-13  -1.90391e-13  -1.91768e-13
         0.78   3.95254e-13     3.957e-13   3.95985e-13   3.97322e-13   3.95846e-13   3.94178e-13   3.94025e-13    3.9209e-13   3.91544e-13   3.89913e-13
        0.785  -2.81999e-13  -2.81866e-13  -2.82407e-13  -2.84197e-13   -2.8775e-13  -2.85152e-13  -2.85006e-13  -2.84235e-13  -2.84573e-13  -2.86213e-13
         0.79    3.1375e-13   3.14083e-13   3.14891e-13    3.1605e-13   3.17816e-13    3.1246e-13   3.07389e-13   3.07307e-13    3.0654e-13   3.05078e-13
        0.795  -1.92068e-13  -1.91866e-13  -1.91445e-13  -1.90399e-13  -1.90843e-13   -1.8748e-13   -1.8551e-13  -1.84833e-13  -1.85205e-13  -1.86621e-13
          0.8   3.21709e-13   3.22178e-13   3.22583e-13    3.2359e-13   3.21401e-13   3.22199e-13   3.22836e-13   3.22924e-13   3.22633e-13   3.21389e-13
        0.805   -2.2552e-13  -2.25238e-13  -2.25769e-13  -2.26277e-13  -2.27686e-13  -2.30105e-13   -2.3146e-13  -2.30926e-13  -2.31288e-13  -2.32727e-13
         0.81   3.27556e-13   3.27846e-13   3.28037e-13   3.28108e-13   3.32699e-13   3.35803e-13   3.36966e-13   3.35585e-13   3.34909e-13   3.33246e-13
        0.815  -2.64126e-13   -2.6376e-13  -2.63884e-13  -2.64487e-13  -2.71138e-13  -2.75493e-13  -2.76614e-13   -2.7657e-13   -2.7649e-13  -2.77999e-13
         0.82   2.83549e-13   2.83928e-13   2.84375e-13     2.856e-13   2.87489e-13   2.89286e-13   2.91558e-13   2.91451e-13   2.91454e-13   2.89664e-13
        0.825  -2.24901e-13  -2.24571e-13  -2.24576e-13  -2.25428e-13  -2.25822e-13  -2.26328e-13  -2.29578e-13  -2.30064e-13   -2.2953e-13  -2.31073e-13
         0.83   1.30156e-13   1.30588e-13   1.31085e-13   1.32335e-13   1.30263e-13   1.30793e-13   1.29894e-13   1.30875e-13   1.30708e-13   1.29251e-13
        0.835  -3.03134e-14  -3.00028e-14  -3.02825e-14  -2.94609e-14  -3.22494e-14  -3.43726e-14  -3.53428e-14   -3.7376e-14  -3.76494e-14  -3.91072e-14
         0.84   1.75339e-13   1.75758e-13   1.76302e-13   1.76449e-13   1.77441e-13   1.79919e-13   1.82404e-13   1.83503e-13   1.83204e-13   1.81607e-13
        0.845  -5.96489e-14  -5.93983e-14   -5.9391e-14  -5.84869e-14  -5.91287e-14  -6.04512e-14   -6.2037e-14   -6.1806e-14  -6.23515e-14  -6.38448e-14
         0.85   1.78335e-13   1.78845e-13   1.79062e-13   1.78634e-13   1.75828e-13   1.76424e-13   1.75789e-13   1.75974e-13   1.75767e-13   1.74057e-13
        0.855  -1.69423e-13  -1.69219e-13  -1.69037e-13  -1.67699e-13  -1.68121e-13   -1.6395e-13  -1.63272e-13  -1.62813e-13    -1.628e-13  -1.64407e-13
         0.86   3.22566e-13   3.22829e-13   3.23142e-13   3.23885e-13   3.23956e-13   3.21995e-13   3.21682e-13   3.23109e-13   3.21888e-13   3.20343e-13
        0.865  -1.24772e-13  -1.24469e-13  -1.24687e-13  -1.24755e-13   -1.2189e-13  -1.17761e-13  -1.14483e-13  -1.14161e-13  -1.14171e-13  -1.15801e-13
         0.87   5.01556e-14   5.05146e-14   5.04265e-14   5.04374e-14   4.56391e-14   4.09254e-14   3.71498e-14   3.59635e-14   3.50911e-14   3.34322e-14
        0.875   9.73908e-14   9.77299e-14   9.85529e-14   9.92658e-14   1.01129e-13   1.02327e-13   1.04711e-13   1.06606e-13   1.05753e-13   1.04198e-13
         0.88  -9.52588e-14  -9.50951e-14  -9.55737e-14  -9.68338e-14  -1.00334e-13  -1.00476e-13  -1.06929e-13  -1.06898e-13  -1.06042e-13  -1.07541e-13
        0.885   7.98362e-15   8.24169e-15   8.38816e-15   8.73384e-15    1.3614e-14   1.77051e-14   2.03223e-14   2.13696e-14   2.10809e-14   1.96494e-14
         0.89   3.60973e-15    3.9745e-15   3.30613e-15   3.43671e-15   4.47851e-15   3.43585e-15   3.52219e-15   3.25106e-15   2.79362e-15   1.24747e-15
        0.895   6.18505e-14   6.20652e-14   6.23777e-14   6.27086e-14   6.36724e-14   6.63271e-14   6.26101e-14   6.26604e-14   6.20486e-14   6.07155e-14
          0.9   6.14535e-14   6.18574e-14   6.16804e-14    6.0897e-14   5.89438e-14   5.58629e-14   5.55432e-14   5.68625e-14   5.60611e-14   5.47261e-14
        0.905  -2.65728e-14  -2.64689e-14  -2.66027e-14  -2.59089e-14  -2.50934e-14  -2.29634e-14  -2.10619e-14  -2.15792e-14  -2.19304e-14  -2.33206e-14
         0.91  -3.45161e-15  -3.02629e-15   -3.2678e-15  -3.37411e-15  -8.26568e-16  -7.67589e-16  -5.11335e-15   -4.6031e-15  -4.95042e-15  -6.37599e-15
        0.915  -1.07752e-13  -1.07397e-13  -1.07938e-13  -1.05817e-13  -1.08079e-13  -1.05955e-13  -1.03852e-13  -1.02589e-13  -1.03038e-13  -1.04564e-13
         0.92   1.09819e-13   1.10277e-13   1.10437e-13    1.1016e-13   1.07857e-13   1.04304e-13   1.01237e-13   1.02874e-13   1.02518e-13   1.00849e-13
        0.925  -2.06493e-13  -2.06171e-13  -2.06466e-13    -2.066e-13  -2.03555e-13  -1.98481e-13  -1.97206e-13  -1.97181e-13  -1.97896e-13  -1.99502e-13
         0.93   2.02078e-13   2.02506e-13   2.02673e-13   2.02487e-13   2.01185e-13    2.0204e-13    1.9967e-13   1.98962e-13   1.98365e-13   1.97006e-13
        0.935  -1.34605e-13  -1.34212e-13  -1.33897e-13  -1.32411e-13  -1.31171e-13  -1.32614e-13  -1.33405e-13  -1.31636e-13  -1.32024e-13  -1.33383e-13
         0.94  -3.70354e-14  -3.67971e-14  -3.67847e-14  -3.88598e-14  -3.63885e-14  -3.65824e-14  -3.73248e-14  -3.78666e-14  -3.87543e-14  -4.00918e-14
        0.945   -7.9742e-14  -7.94036e-14  -7.89049e-14  -7.89735e-14  -8.24385e-14  -8.38567e-14  -8.61439e-14  -8.55058e-14  -8.59578e-14  -8.75384e-14
         0.95   8.70046e-14   8.71387e-14   8.78377e-14     8.866e-14   9.10192e-14   9.56768e-14   9.59182e-14   9.68549e-14   9.63171e-14   9.47698e-14
        0.955  -2.35106e-13  -2.34932e-13  -2.35245e-13  -2.35214e-13  -2.37608e-13  -2.40305e-13  -2.43682e-13  -2.44121e-13  -2.44649e-13  -2.45948e-13
         0.96   2.05777e-13   2.06044e-13   2.06557e-13   2.07419e-13   2.08953e-13   2.14326e-13   2.14878e-13   2.15062e-13   2.14637e-13   2.13093e-13