# Probe 0 (2 0 0.05)
# Probe 1 (2 0.05 0.05)
# Probe 2 (2 0.1 0.05)
# Probe 3 (2 0.2 0.05)
# Probe 4 (2 0.4 0.05)
# Probe 5 (2 0.6 0.05)  # Not Found
# Probe 6 (2 0.8 0.05)  # Not Found
# Probe 7 (2 0.9 0.05)  # Not Found
# Probe 8 (2 0.95 0.05)  # Not Found
# Probe 9 (2 1 0.05)  # Not Found
#       Probe             0             1             2             3             4             5             6             7             8             9
#        Time
        0.005  -6.57437e-14  -6.47137e-14  -6.40145e-14  -6.32584e-14   -7.9703e-14       -1e+300       -1e+300       -1e+300       -1e+300       -1e+300
         0.01   1.69571e-13   1.66547e-13   1.67789e-13   1.69219e-13   1.65589e-13       -1e+300       -1e+300       -1e+300       -1e+300       -1e+300
        0.015  -9.35514e-15  -8.51794e-15  -8.94321e-15  -1.06599e-14  -8.11627e-15       -1e+300       -1e+300       -1e+300       -1e+300       -1e+300
         0.02   3.18989e-14   3.20328e-14   3.13747e-14   3.36717e-14   3.21306e-14       -1e+300       -1e+300       -1e+300       -1e+300       -1e+300
        0.025    6.7434e-15    6.9638e-15   7.91159e-15   5.94088e-15   6.42039e-15       -1e+300       -1e+300       -1e+300       -1e+300       -1e+300
         0.03    4.6649e-14   4.82469e-14   4.82359e-14   5.20607e-14   5.36257e-14       -1e+300       -1e+300       -1e+300       -1e+300       -1e+300
        0.035  -1.84754e-13  -1.84934e-13  -1.85488e-13  -1.86118e-13  -1.87281e-13       -1e+300       -1e+300       -1e+300       -1e+300       -1e+300
         0.04     8.154e-14   8.13122e-14   8.26425e-14   8.64455e-14   8.27794e-14       -1e+300       -1e+300       -1e+300       -1e+300       -1e+300
        0.045   -6.0082e-14  -5.91305e-14  -5.80437e-14  -5.81654e-14  -5.59466e-14       -1e+300       -1e+300       -1e+300       -1e+300       -1e+300
         0.05   7.01511e-14   7.13845e-14   7.06327e-14   7.30207e-14   7.25281e-14       -1e+300       -1e+300       -1e+300       -1e+300       -1e+300
        0.055  -2.25465e-13  -2.24965e-13  -2.25587e-13  -2.24772e-13  -2.24849e-13       -1e+300       -1e+300       -1e+300       -1e+300       -1e+300
         0.06   1.06993e-13   1.07765e-13   1.07829e-13   1.10726e-13   1.12638e-13       -1e+300       -1e+300       -1e+300       -1e+300       -1e+300
        0.065   2.20107e-14   2.25318e-14   2.23212e-14   2.52307e-14   2.28907e-14       -1e+300       -1e+300       -1e+300       -1e+300       -1e+300
         0.07   6.88627e-14   6.92142e-14   6.96929e-14   6.72375e-14   6.43293e-14       -1e+300       -1e+300       -1e+300       -1e+300       -1e+300
        0.075  -3.13199e-13  -3.12586e-13   -3.1133e-13  -3.08717e-13  -3.04811e-13       -1e+300       -1e+300       -1e+300       -1e+300       -1e+300
         0.08   4.79966e-14   4.88492e-14     4.923e-14   4.98516e-14   5.33114e-14       -1e+300       -1e+300       -1e+300       -1e+300       -1e+300
        0.085  -2.25175e-13  -2.23248e-13  -2.24151e-13  -2.25729e-13  -2.28573e-13       -1e+300       -1e+300       -1e+300       -1e+300       -1e+300
         0.09   3.65204e-13   3.66353e-13   3.66367e-13   3.68819e-13    3.7113e-13       -1e+300       -1e+300       -1e+300       -1e+300       -1e+300
        0.095   3.01971e-13   3.03268e-13   3.02711e-13   3.02626e-13   3.02472e-13       -1e+300       -1e+300       -1e+300       -1e+300       -1e+300
          0.1  -1.32278e-13  -1.32039e-13  -1.31769e-13  -1.33404e-13    -1.354e-13       -1e+300       -1e+300       -1e+300       -1e+300       -1e+300
        0.105   1.41192e-13   1.42208e-13   1.42299e-13   1.42136e-13   1.44174e-13       -1e+300       -1e+300       -1e+300       -1e+300       -1e+300
         0.11   4.26453e-14   4.36203e-14   4.45821e-14   4.53486e-14   4.26238e-14       -1e+300       -1e+300       -1e+300       -1e+300       -1e+300
        0.115  -1.19256e-13  -1.18664e-13  -1.19666e-13  -1.19883e-13  -1.17704e-13       -1e+300       -1e+300       -1e+300       -1e+300       -1e+300
         0.12    1.5105e-13   1.51488e-13   1.51825e-13   1.50936e-13   1.48145e-13       -1e+300       -1e+300       -1e+300       -1e+300       -1e+300
        0.125  -1.75447e-13  -1.75088e-13  -1.73945e-13  -1.70282e-13  -1.67807e-13       -1e+300       -1e+300       -1e+300       -1e+300       -1e+300
         0.13   1.42768e-13   1.43309e-13   1.42955e-13   1.43907e-13   1.40342e-13       -1e+300       -1e+300       -1e+300       -1e+300       -1e+300
        0.135  -1.34732e-13  -1.33344e-13  -1.32755e-13  -1.35441e-13  -1.30325e-13       -1e+300       -1e+300       -1e+300       -1e+300       -1e+300
         0.14   4.07718e-14   4.14706e-14    4.1619e-14   4.08501e-14    4.2023e-14       -1e+300       -1e+300       -1e+300       -1e+300       -1e+300
        0.145  -4.34797e-14  -4.36094e-14  -4.30065e-14  -4.15542e-14  -4.01952e-14       -1e+300       -1e+300       -1e+300       -1e+300       -1e+300
         0.15   5.33993e-14   5.36202e-14   5.61571e-14   5.57786e-14   5.17013e-14       -1e+300       -1e+300       -1e+300       -1e+300       -1e+300
        0.155   2.40272e-14   2.40648e-14   2.47148e-14   2.31436e-14   2.76834e-14       -1e+300       -1e+300       -1e+300       -1e+300       -1e+300
         0.16   2.76104e-14   2.80316e-14   2.90391e-14   3.05493e-14    2.9641e-14       -1e+300       -1e+300       -1e+300       -1e+300       -1e+300
        0.165  -9.02397e-15  -8.44965e-15  -6.98369e-15  -5.78503e-15  -3.16326e-15       -1e+300       -1e+300       -1e+300       -1e+300       -1e+300
         0.17  -8.43789e-14    -8.389e-14  -8.32705e-14   -8.4167e-14  -8.97414e-14       -1e+300       -1e+300       -1e+300       -1e+300       -1e+300
        0.175  -1.68628e-13  -1.67691e-13  -1.67496e-13  -1.65829e-13  -1.63879e-13       -1e+300       -1e+300       -1e+300       -1e+300       -1e+300
         0.18   9.46261e-14     9.605e-14   9.64393e-14   9.89696e-14   9.60221e-14       -1e+300       -1e+300       -1e+300       -1e+300       -1e+300
        0.185   1.55883e-13   1.56286e-13   1.56664e-13   1.56436e-13   1.60619e-13       -1e+300       -1e+300       -1e+300       -1e+300       -1e+300
         0.19  -4.91498e-14  -4.82137e-14  -4.66565e-14  -4.32672e-14  -4.56449e-14       -1e+300       -1e+300       -1e+300       -1e+300       -1e+300
        0.195   1.87185e-13    1.8805e-13   1.87884e-13   1.88159e-13   1.84334e-13       -1e+300       -1e+300       -1e+300       -1e+300       -1e+300
          0.2  -1.18111e-13  -1.17601e-13  -1.16181e-13  -1.13083e-13  -1.14224e-13       -1e+300       -1e+300       -1e+300       -1e+300       -1e+300
        0.205  -1.55944e-13  -1.55468e-13  -1.54282e-13  -1.54147e-13  -1.56734e-13       -1e+300       -1e+300       -1e+300       -1e+300       -1e+300
         0.21   1.50539e-13   1.51356e-13    1.5272e-13   1.52097e-13   1.51178e-13       -1e+300       -1e+300       -1e+300       -1e+300       -1e+300
        0.215  -2.07382e-13  -2.06927e-13  -2.05859e-13   -2.0813e-13  -2.05362e-13       -1e+300       -1e+300       -1e+300       -1e+300       -1e+300
         0.22   -6.5793e-14   -6.5464e-14  -6.44604e-14  -6.59604e-14  -6.74351e-14       -1e+300       -1e+300       -1e+300       -1e+300       -1e+300
        0.225  -8.25659e-14  -8.17906e-14  -8.11506e-14  -7.95704e-14  -7.70413e-14       -1e+300       -1e+300       -1e+300       -1e+300       -1e+300
         0.23   3.38739e-14   3.50935e-14   3.52576e-14   3.53627e-14   3.17511e-14       -1e+300       -1e+300       -1e+300       -1e+300       -1e+300
        0.235  -3.46867e-14  -3.38528e-14  -3.32987e-14  -3.32798e-14  -3.39576e-14       -1e+300       -1e+300       -1e+300       -1e+300       -1e+300
         0.24   1.47707e-15   3.04695e-15    2.1654e-15    1.5476e-15  -2.07568e-15       -1e+300       -1e+300       -1e+300       -1e+300       -1e+300
        0.245  -7.95215e-14   -7.9011e-14  -7.79259e-14  -7.77782e-14  -7.82182e-14       -1e+300       -1e+300       -1e+300       -1e+300       -1e+300
         0.25   9.57768e-14   9.64265e-14   9.76863e-14   9.77138e-14   9.94911e-14       -1e+300       -1e+300       -1e+300       -1e+300       -1e+300
        0.255   1.21209e-13   1.21957e-13    1.2203e-13   1.23516e-13   1.21517e-13       -1e+300       -1e+300       -1e+300       -1e+300       -1e+300
         0.26  -1.43085e-13  -1.41901e-13  -1.42054e-13  -1.43165e-13  -1.41435e-13       -1e+300       -1e+300       -1e+300       -1e+300       -1e+300
        0.265   3.08257e-14   3.16383e-14   3.12728e-14    3.1718e-14   2.94886e-14       -1e+300       -1e+300       -1e+300       -1e+300       -1e+300
         0.27   2.01566e-13   2.02132e-13   2.01686e-13   2.03985e-13   2.03806e-13       -1e+300       -1e+300       -1e+300       -1e+300       -1e+300
        0.275   1.12007e-14   1.24623e-14   1.41546e-14   1.16777e-14   1.14045e-14       -1e+300       -1e+300       -1e+300       -1e+300       -1e+300
         0.28   2.34507e-13   2.35542e-13   2.36483e-13   2.37199e-13   2.38179e-13       -1e+300       -1e+300       -1e+300       -1e+300       -1e+300
        0.285   1.04486e-13   1.05471e-13    1.0599e-13    1.0113e-13   9.51601e-14       -1e+300       -1e+300       -1e+300       -1e+300       -1e+300
         0.29  -1.45336e-14  -1.33141e-14  -1.30458e-14  -9.07398e-15  -1.31032e-15       -1e+300       -1e+300       -1e+300       -1e+300       -1e+300
        0.295  -9.65681e-14  -9.58931e-14  -9.50248e-14   -9.4903e-14  -9.98843e-14       -1e+300       -1e+300       -1e+300       -1e+300       -1e+300
          0.3   3.00212e-13      3.01e-13   3.00625e-13   3.00708e-13   2.99138e-13       -1e+300       -1e+300       -1e+300       -1e+300       -1e+300
        0.305  -1.37945e-13  -1.37193e-13  -1.36492e-13  -1.35165e-13  -1.33824e-13       -1e+300       -1e+300       -1e+300       -1e+300       -1e+300
         0.31    8.1698e-15   9.12828e-15   8.38512e-15   7.36311e-15   4.65804e-15       -1e+300       -1e+300       -1e+300       -1e+300       -1e+300
        0.315   2.14428e-13   2.15042e-13   2.15254e-13   2.14701e-13   2.08135e-13       -1e+300       -1e+300       -1e+300       -1e+300       -1e+300
         0.32  -2.15418e-14  -2.11493e-14  -1.97578e-14   -1.8099e-14  -1.62917e-14       -1e+300       -1e+300       -1e+300       -1e+300       -1e+300
        0.325  -8.29779e-14  -8.25686e-14  -8.23984e-14  -8.22713e-14  -8.35256e-14       -1e+300       -1e+300       -1e+300       -1e+300       -1e+300
         0.33   2.26819e-13   2.27788e-13   2.27825e-13   2.28169e-13   2.26031e-13       -1e+300       -1e+300       -1e+300       -1e+300       -1e+300
        0.335  -3.67508e-13  -3.66916e-13  -3.67991e-13   -3.6857e-13  -3.65594e-13       -1e+300       -1e+300       -1e+300       -1e+300       -1e+300
         0.34   1.86825e-13   1.87879e-13   1.89059e-13    1.8962e-13   1.89107e-13       -1e+300       -1e+300       -1e+300       -1e+300       -1e+300
        0.345  -5.42134e-14   -5.3047e-14  -5.23596e-14   -5.4746e-14  -5.85161e-14       -1e+300       -1e+300       -1e+300       -1e+300       -1e+300
         0.35   1.57856e-13   1.58117e-13   1.58501e-13   1.59641e-13   1.61598e-13       -1e+300       -1e+300       -1e+300       -1e+300       -1e+300
        0.355   -1.6038e-14  -1.54065e-14  -1.45728e-14  -1.40949e-14  -1.57886e-14       -1e+300       -1e+300       -1e+300       -1e+300       -1e+300
         0.36   1.51945e-13   1.52734e-13   1.51516e-13   1.51597e-13   1.52871e-13       -1e+300       -1e+300       -1e+300       -1e+300       -1e+300
        0.365  -7.79593e-14   -7.7405e-14  -7.76974e-14   -7.8386e-14  -7.58504e-14       -1e+300       -1e+300       -1e+300       -1e+300       -1e+300
         0.37  -1.91131e-14  -1.86631e-14  -1.85105e-14  -1.90878e-14  -2.57551e-14       -1e+300       -1e+300       -1e+300       -1e+300       -1e+300
        0.375  -5.98565e-15  -5.38411e-15  -4.72405e-15  -4.36022e-15   1.67602e-15       -1e+300       -1e+300       -1e+300       -1e+300       -1e+300
         0.38   5.84989e-14   5.92197e-14   5.78274e-14   5.87206e-14   5.79929e-14       -1e+300       -1e+300       -1e+300       -1e+300       -1e+300
        0.385   -2.8195e-14  -2.73164e-14  -2.63156e-14  -2.60354e-14  -2.68445e-14       -1e+300       -1e+300       -1e+300       -1e+300       -1e+300
         0.39   1.51662e-13   1.51932e-13   1.51784e-13   1.48887e-13   1.50241e-13       -1e+300       -1e+300       -1e+300       -1e+300       -1e+300
        0.395  -1.99729e-13  -1.99277e-13  -1.99006e-13  -1.97611e-13   -2.0082e-13       -1e+300       -1e+300       -1e+300       -1e+300       -1e+300
          0.4   1.12864e-13   1.13709e-13    1.1291e-13   1.14118e-13   1.13215e-13       -1e+300       -1e+300       -1e+300       -1e+300       -1e+300
        0.405   2.14361e-13   2.14954e-13   2.14779e-13   2.15735e-13   2.13113e-13       -1e+300       -1e+300       -1e+300       -1e+300       -1e+300
         0.41  -3.41601e-13  -3.40724e-13  -3.38882e-13  -3.36979e-13  -3.39169e-13       -1e+300       -1e+300       -1e+300       -1e+300       -1e+300
        0.415    1.3112e-13    1.3203e-13   1.31679e-13   1.30359e-13   1.29488e-13       -1e+300       -1e+300       -1e+300       -1e+300       -1e+300
         0.42  -6.44798e-14  -6.41596e-14   -6.4733e-14  -6.42282e-14  -6.13813e-14       -1e+300       -1e+300       -1e+300       -1e+300       -1e+300
        0.425   2.17767e-14    2.2032e-14   2.22119e-14   2.62144e-14   2.32358e-14       -1e+300       -1e+300       -1e+300       -1e+300       -1e+300
         0.43   -2.8598e-13  -2.85165e-13  -2.85755e-13  -2.84396e-13  -2.85282e-13       -1e+300       -1e+300       -1e+300       -1e+300       -1e+300
        0.435   2.89948e-14    2.9301e-14   2.86614e-14   2.64713e-14   2.53107e-14       -1e+300       -1e+300       -1e+300       -1e+300       -1e+300
         0.44  -8.72103e-14  -8.66515e-14  -8.47936e-14  -8.32119e-14  -8.47078e-14       -1e+300       -1e+300       -1e+300       -1e+300       -1e+300
        0.445   1.63848e-13   1.63904e-13   1.63159e-13   1.63367e-13   1.64815e-13       -1e+300       -1e+300       -1e+300       -1e+300       -1e+300
         0.45  -3.87637e-14   -3.8507e-14  -3.99989e-14  -3.91858e-14  -4.10893e-14       -1e+300       -1e+300       -1e+300       -1e+300       -1e+300
        0.455   9.23464e-14    9.3037e-14   9.38522e-14     9.632e-14   9.99869e-14       -1e+300       -1e+300       -1e+300       -1e+300       -1e+300
         0.46  -1.79421e-13  -1.79373e-13  -1.80125e-13  -1.82684e-13   -1.8617e-13       -1e+300       -1e+300       -1e+300       -1e+300       -1e+300
        0.465   1.17145e-14   1.21373e-14   1.29451e-14   1.19061e-14   1.18654e-14       -1e+300       -1e+300       -1e+300       -1e+300       -1e+300
         0.47     -1.65e-13  -1.64882e-13  -1.65322e-13  -1.65373e-13  -1.66778e-13       -1e+300       -1e+300       -1e+300       -1e+300       -1e+300
        0.475   1.58393e-13   1.58645e-13   1.59611e-13   1.62574e-13   1.65933e-13       -1e+300       -1e+300       -1e+300       -1e+300       -1e+300
         0.48  -4.40393e-14  -4.36553e-14  -4.32437e-14  -4.28964e-14  -4.55377e-14       -1e+300       -1e+300       -1e+300       -1e+300       -1e+300
        0.485   1.58349e-13    1.5869e-13   1.56956e-13   1.58136e-13   1.56667e-13       -1e+300       -1e+300       -1e+300       -1e+300       -1e+300
         0.49   7.77571e-14   7.82959e-14   7.84976e-14   8.08686e-14     8.427e-14       -1e+300       -1e+300       -1e+300       -1e+300       -1e+300
        0.495   3.71147e-14   3.79211e-14   3.76574e-14   3.76824e-14   3.18841e-14       -1e+300       -1e+300       -1e+300       -1e+300       -1e+300
          0.5  -8.88433e-14   -8.8232e-14  -8.82431e-14  -8.76067e-14  -8.76167e-14       -1e+300       -1e+300       -1e+300       -1e+300       -1e+300
        0.505   5.30178e-14   5.32824e-14   5.31988e-14   5.47671e-14   4.92903e-14       -1e+300       -1e+300       -1e+300       -1e+300       -1e+300
         0.51  -1.88295e-15  -1.08219e-15  -2.80867e-16   2.04618e-15   5.10349e-15       -1e+300       -1e+300       -1e+300       -1e+300       -1e+300
        0.515     2.981e-14   3.04861e-14   3.00952e-14   2.91905e-14    3.0652e-14       -1e+300       -1e+300       -1e+300       -1e+300       -1e+300
         0.52  -1.14609e-13  -1.14266e-13  -1.13822e-13  -1.11614e-13  -1.13495e-13       -1e+300       -1e+300       -1e+300       -1e+300       -1e+300
        0.525   1.58391e-13   1.59048e-13   1.59342e-13   1.56101e-13   1.53005e-13       -1e+300       -1e+300       -1e+300       -1e+300       -1e+300
         0.53  -6.58601e-14  -6.50213e-14  -6.49675e-14   -6.6668e-14  -6.78157e-14       -1e+300       -1e+300       -1e+300       -1e+300       -1e+300
        0.535  -4.44438e-14   -4.4176e-14  -4.37485e-14  -4.31232e-14  -4.42091e-14       -1e+300       -1e+300       -1e+300       -1e+300       -1e+300
         0.54   2.22293e-13   2.23077e-13    2.2255e-13   2.24288e-13   2.22298e-13       -1e+300       -1e+300       -1e+300       -1e+300       -1e+300
        0.545  -1.92873e-13  -1.92967e-13  -1.93354e-13  -1.91593e-13  -1.90583e-13       -1e+300       -1e+300       -1e+300       -1e+300       -1e+300
         0.55   8.01511e-14   8.08352e-14   8.05339e-14   8.19591e-14   8.31178e-14       -1e+300       -1e+300       -1e+300       -1e+300       -1e+300
        0.555  -2.52754e-14  -2.45807e-14  -2.54408e-14  -2.43779e-14  -2.76756e-14       -1e+300       -1e+300       -1e+300       -1e+300       -1e+300
         0.56  -4.98976e-14  -4.91119e-14   -4.9954e-14  -4.99801e-14   -5.3563e-14       -1e+300       -1e+300       -1e+300       -1e+300       -1e+300
        0.565  -1.09875e-14  -1.05161e-14  -9.55677e-15  -8.35675e-15  -5.99076e-15       -1e+300       -1e+300       -1e+300       -1e+300       -1e+300
         0.57    8.6632e-14   8.66515e-14   8.41779e-14   8.34026e-14   8.30163e-14       -1e+300       -1e+300       -1e+300       -1e+300       -1e+300
        0.575    -1.146e-13  -1.13717e-13   -1.1364e-13  -1.12569e-13  -1.07523e-13       -1e+300       -1e+300       -1e+300       -1e+300       -1e+300
         0.58  -3.54168e-14  -3.54393e-14  -3.54566e-14  -3.39684e-14  -2.98404e-14       -1e+300       -1e+300       -1e+300       -1e+300       -1e+300
        0.585   3.48801e-14   3.51377e-14   3.36813e-14   3.41547e-14   3.49292e-14       -1e+300       -1e+300       -1e+300       -1e+300       -1e+300
         0.59  -1.07744e-13  -1.07539e-13  -1.07113e-13  -1.05143e-13  -1.01186e-13       -1e+300       -1e+300       -1e+300       -1e+300       -1e+300
        0.595   6.30014e-14   6.29134e-14    6.3182e-14   6.05839e-14    5.9576e-14       -1e+300       -1e+300       -1e+300       -1e+300       -1e+300
          0.6  -1.90531e-13  -1.90241e-13  -1.90106e-13  -1.89194e-13  -1.83244e-13       -1e+300       -1e+300       -1e+300       -1e+300       -1e+300
        0.605   6.05819e-14    6.1394e-14   6.14426e-14   5.79054e-14   5.67739e-14       -1e+300       -1e+300       -1e+300       -1e+300       -1e+300
         0.61   6.09866e-14   6.19415e-14   6.07405e-14   6.29093e-14   6.85598e-14       -1e+300       -1e+300       -1e+300       -1e+300       -1e+300
        0.615   4.59732e-14   4.65613e-14   4.44553e-14   4.73166e-14   4.32151e-14       -1e+300       -1e+300       -1e+300       -1e+300       -1e+300
         0.62  -7.23396e-14  -7.18128e-14  -7.31481e-14  -7.38636e-14  -7.19436e-14       -1e+300       -1e+300       -1e+300       -1e+300       -1e+300
        0.625   2.19382e-13   2.20031e-13   2.18983e-13   2.19132e-13   2.25381e-13       -1e+300       -1e+300       -1e+300       -1e+300       -1e+300
         0.63  -2.39809e-13  -2.39849e-13  -2.39047e-13  -2.39559e-13  -2.38733e-13       -1e+300       -1e+300       -1e+300       -1e+300       -1e+300
        0.635   2.84775e-14   2.90608e-14   2.92468e-14   2.83434e-14   2.62452e-14       -1e+300       -1e+300       -1e+300       -1e+300       -1e+300
         0.64   7.44982e-14   7.49216e-14   7.51195e-14   7.43808e-14   7.68442e-14       -1e+300       -1e+300       -1e+300       -1e+300       -1e+300
        0.645   1.25938e-14   1.24083e-14   1.26028e-14   1.21504e-14    5.4747e-15       -1e+300       -1e+300       -1e+300       -1e+300       -1e+300
         0.65  -8.95462e-14  -8.89293e-14    -8.768e-14  -8.83174e-14   -8.4306e-14       -1e+300       -1e+300       -1e+300       -1e+300       -1e+300
        0.655  -1.08378e-14  -1.08854e-14  -1.18418e-14  -1.23926e-14  -1.21927e-14       -1e+300       -1e+300       -1e+300       -1e+300       -1e+300
         0.66   2.72899e-13   2.72399e-13   2.73229e-13   2.74832e-13   2.77168e-13       -1e+300       -1e+300       -1e+300       -1e+300       -1e+300
        0.665  -1.95128e-13  -1.94446e-13  -1.94194e-13  -1.92902e-13  -1.90367e-13       -1e+300       -1e+300       -1e+300       -1e+300       -1e+300
         0.67   2.00325e-13   2.01181e-13   2.02017e-13   1.99645e-13   1.98766e-13       -1e+300       -1e+300       -1e+300       -1e+300       -1e+300
        0.675   2.74813e-14    2.7535e-14   2.76002e-14   3.06144e-14   3.78196e-14       -1e+300       -1e+300       -1e+300       -1e+300       -1e+300
         0.68  -1.80561e-13  -1.80577e-13  -1.80213e-13  -1.81497e-13  -1.84137e-13       -1e+300       -1e+300       -1e+300       -1e+300       -1e+300
        0.685  -1.08673e-13  -1.08339e-13  -1.08115e-13  -1.07958e-13  -1.07437e-13       -1e+300       -1e+300       -1e+300       -1e+300       -1e+300
         0.69   6.21845e-14   6.27205e-14   6.23654e-14   6.42342e-14   6.47197e-14       -1e+300       -1e+300       -1e+300       -1e+300       -1e+300
        0.695   1.27483e-13   1.27758e-13   1.27794e-13   1.24689e-13   1.20514e-13       -1e+300       -1e+300       -1e+300       -1e+300       -1e+300
          0.7  -1.85294e-13  -1.85082e-13  -1.85258e-13  -1.83859e-13  -1.84119e-13       -1e+300       -1e+300       -1e+300       -1e+300       -1e+300
        0.705   6.49787e-14   6.54467e-14   6.59457e-14   6.71583e-14   7.25513e-14       -1e+300       -1e+300       -1e+300       -1e+300       -1e+300
         0.71   1.56904e-13   1.57172e-13   1.57263e-13   1.55878e-13   1.56185e-13       -1e+300       -1e+300       -1e+300       -1e+300       -1e+300
        0.715  -8.07184e-14   -8.0298e-14  -7.86074e-14  -7.66484e-14  -7.42072e-14       -1e+300       -1e+300       -1e+300       -1e+300       -1e+300
         0.72    1.0846e-13   1.08789e-13    1.0816e-13   1.06498e-13   1.02404e-13       -1e+300       -1e+300       -1e+300       -1e+300       -1e+300
        0.725    2.4056e-15    3.0064e-15   4.44351e-15   6.06318e-15   7.79846e-15       -1e+300       -1e+300       -1e+300       -1e+300       -1e+300
         0.73   -1.0179e-13  -1.01122e-13  -1.00708e-13  -1.05467e-13  -1.06897e-13       -1e+300       -1e+300       -1e+300       -1e+300       -1e+300
        0.735    1.1133e-14   1.18568e-14   1.25288e-14    1.1099e-14   1.16881e-14       -1e+300       -1e+300       -1e+300       -1e+300       -1e+300
         0.74   3.87057e-14   3.86593e-14   3.88397e-14   3.96809e-14   3.85995e-14       -1e+300       -1e+300       -1e+300       -1e+300       -1e+300
        0.745    9.9522e-14   9.99009e-14   1.00987e-13   1.00066e-13   9.71182e-14       -1e+300       -1e+300       -1e+300       -1e+300       -1e+300
         0.75   4.56231e-14   4.61449e-14   4.60873e-14   4.53561e-14    4.9914e-14       -1e+300       -1e+300       -1e+300       -1e+300       -1e+300
        0.755  -2.71932e-13  -2.71734e-13  -2.72177e-13  -2.71976e-13  -2.68893e-13       -1e+300       -1e+300       -1e+300       -1e+300       -1e+300
         0.76   2.03554e-14   2.06048e-14   1.96874e-14   2.17845e-14   1.66209e-14       -1e+300       -1e+300       -1e+300       -1e+300       -1e+300
        0.765  -4.31337e-14  -4.25029e-14  -4.21724e-14  -4.29731e-14   -4.2271e-14       -1e+300       -1e+300       -1e+300       -1e+300       -1e+300
         0.77  -3.12339e-14  -3.02928e-14  -2.95061e-14  -2.99885e-14  -3.04107e-14       -1e+300       -1e+300       -1e+300       -1e+300       -1e+300
        0.775  -7.96844e-14  -7.91661e-14  -7.90683e-14  -7.81257e-14  -7.80559e-14       -1e+300       -1e+300       -1e+300       -1e+300       -1e+300
         0.78   8.47551e-14    8.5241e-14   8.52406e-14   8.02924e-14   7.92604e-14       -1e+300       -1e+300       -1e+300       -1e+300       -1e+300
        0.785   -1.8311e-14  -1.78356e-14  -1.76521e-14  -1.81083e-14  -1.69891e-14       -1e+300       -1e+300       -1e+300       -1e+300       -1e+300
         0.79   6.56647e-14   6.60547e-14   6.62858e-14   6.86596e-14   7.11971e-14       -1e+300       -1e+300       -1e+300       -1e+300       -1e+300
        0.795   4.51483e-14   4.57546e-14   4.61473e-14   4.49183e-14   4.45063e-14       -1e+300       -1e+300       -1e+300       -1e+300       -1e+300
          0.8   1.05012e-14   1.07419e-14   1.05989e-14   9.68288e-15   1.08333e-14       -1e+300       -1e+300       -1e+300       -1e+300       -1e+300
        0.805   1.54404e-13   1.55124e-13   1.55506e-13   1.52537e-13   1.50492e-13       -1e+300       -1e+300       -1e+300       -1e+300       -1e+300
         0.81  -2.94205e-13  -2.93806e-13  -2.93704e-13  -2.94735e-13    -2.916e-13       -1e+300       -1e+300       -1e+300       -1e+300       -1e+300
        0.815   5.07588e-14   5.10375e-14   5.05337e-14   4.88136e-14   4.78449e-14       -1e+300       -1e+300       -1e+300       -1e+300       -1e+300
         0.82  -2.31341e-14  -2.26707e-14  -2.19822e-14   -2.1313e-14  -1.30255e-14       -1e+300       -1e+300       -1e+300       -1e+300       -1e+300
        0.825    2.5167e-13   2.51994e-13   2.50273e-13   2.48826e-13    2.4459e-13       -1e+300       -1e+300       -1e+300       -1e+300       -1e+300
         0.83  -6.53747e-14  -6.50651e-14  -6.40981e-14  -6.13439e-14  -5.45908e-14       -1e+300       -1e+300       -1e+300       -1e+300       -1e+300
        0.835  -3.28149e-14  -3.24171e-14   -3.2145e-14  -3.66574e-14  -4.19853e-14       -1e+300       -1e+300       -1e+300       -1e+300       -1e+300
         0.84  -1.07682e-13  -1.07336e-13  -1.06845e-13  -1.07386e-13  -1.06678e-13       -1e+300       -1e+300       -1e+300       -1e+300       -1e+300
        0.845  -1.19535e-13  -1.19148e-13  -1.19187e-13  -1.20797e-13  -1.19392e-13       -1e+300       -1e+300       -1e+300       -1e+300       -1e+300
         0.85   1.40468e-13   1.40933e-13   1.41359e-13   1.40693e-13   1.44971e-13       -1e+300       -1e+300       -1e+300       -1e+300       -1e+300
        0.855  -2.51208e-14  -2.46526e-14  -2.41269e-14   -2.5344e-14  -3.37876e-14       -1e+300       -1e+300       -1e+300       -1e+300       -1e+300
         0.86   7.47097e-14   7.52282e-14   7.58388e-14   7.63664e-14   8.12167e-14       -1e+300       -1e+300       -1e+300       -1e+300       -1e+300
        0.865   3.40624e-16   9.14241e-16   9.10429e-16  -1.01475e-15   5.79175e-16       -1e+300       -1e+300       -1e+300       -1e+300       -1e+300
         0.87  -6.30765e-14  -6.24806e-14  -6.40423e-14  -6.44151e-14  -6.51188e-14       -1e+300       -1e+300       -1e+300       -1e+300       -1e+300
        0.875   9.11096e-14   9.17706e-14   9.15988e-14   9.22956e-14   9.48188e-14       -1e+300       -1e+300       -1e+300       -1e+300       -1e+300
         0.88   1.07928e-13   1.08585e-13   1.08617e-13   1.06701e-13   1.05745e-13       -1e+300       -1e+300       -1e+300       -1e+300       -1e+300
        0.885   1.30683e-13   1.31702e-13   1.30368e-13   1.30326e-13   1.33083e-13       -1e+300       -1e+300       -1e+300       -1e+300       -1e+300
         0.89  -1.73273e-13  -1.72634e-13  -1.73185e-13  -1.76433e-13  -1.69994e-13       -1e+300       -1e+300       -1e+300       -1e+300       -1e+300
        0.895  -7.64364e-14    -7.598e-14  -7.68391e-14  -7.85594e-14  -8.05808e-14       -1e+300       -1e+300       -1e+300       -1e+300       -1e+300
          0.9   1.62326e-13   1.63086e-13   1.63091e-13   1.61834e-13   1.64397e-13       -1e+300       -1e+300       -1e+300       -1e+300       -1e+300
        0.905   1.45214e-13   1.45694e-13   1.45769e-13   1.46865e-13   1.47455e-13       -1e+300       -1e+300       -1e+300       -1e+300       -1e+300
         0.91  -1.10081e-13  -1.09489e-13  -1.09985e-13  -1.09631e-13  -1.07917e-13       -1e+300       -1e+300       -1e+300       -1e+300       -1e+300
        0.915  -1.85537e-13  -1.85355e-13  -1.86819e-13  -1.86021e-13  -1.83841e-13       -1e+300       -1e+300       -1e+300       -1e+300       -1e+300
         0.92   2.76631e-13   2.77307e-13   2.77507e-13   2.76344e-13   2.76193e-13       -1e+300       -1e+300       -1e+300       -1e+300       -1e+300
        0.925  -6.14274e-14   -6.0773e-14  -6.11375e-14  -6.12957e-14   -6.4029e-14       -1e+300       -1e+300       -1e+300       -1e+300       -1e+300
         0.93   9.52697e-14   9.59387e-14   9.56494e-14     9.253e-14   9.21142e-14       -1e+300       -1e+300       -1e+300       -1e+300       -1e+300
        0.935  -2.53025e-13  -2.53444e-13  -2.53357e-13  -2.53434e-13  -2.50018e-13       -1e+300       -1e+300       -1e+300       -1e+300       -1e+300
         0.94   9.40456e-14    9.5143e-14   9.36637e-14    9.0318e-14   9.18521e-14       -1e+300       -1e+300       -1e+300       -1e+300       -1e+300
        0.945  -1.25323e-13   -1.2483e-13  -1.24974e-13  -1.25613e-13  -1.23679e-13       -1e+300       -1e+300       -1e+300       -1e+300       -1e+300
         0.95   4.24535e-14   4.28595e-14    4.2077e-14   4.34931e-14   4.70924e-14       -1e+300       -1e+300       -1e+300       -1e+300       -1e+300
        0.955  -1.21354e-14   -1.1728e-14  -1.20944e-14  -1.38873e-14   -1.9062e-14       -1e+300       -1e+300       -1e+300       -1e+300       -1e+300