# Probe 0 (5 0.5 0.05)
#       Probe             0
#        Time
        0.005    1.7873e-13
         0.01  -1.23955e-13
        0.015  -1.27517e-13
         0.02   2.72799e-13
        0.025  -4.09184e-13
         0.03   3.99239e-13
        0.035   2.08109e-13
         0.04  -4.08124e-13
        0.045   1.11604e-13
         0.05   1.45543e-13
        0.055   1.22113e-13
         0.06   1.37989e-13
        0.065  -2.43093e-13
         0.07   1.97078e-13
        0.075  -1.22721e-15
         0.08    1.6067e-13
        0.085   3.11869e-13
         0.09   2.67797e-13
        0.095  -4.17559e-13
          0.1   5.44284e-13
        0.105   4.31542e-14
         0.11    7.0752e-14
        0.115   1.11306e-13
         0.12  -2.42248e-13
        0.125    7.3613e-14
         0.13   3.61059e-14
        0.135  -7.50083e-14
         0.14  -2.72084e-13
        0.145    2.0245e-13
         0.15  -6.10327e-14
        0.155   2.38797e-13
         0.16   -3.3243e-13
        0.165   6.07467e-13
         0.17  -6.67587e-13
        0.175   2.95726e-13
         0.18  -1.42086e-13
        0.185   -7.3383e-14
         0.19  -2.90257e-13
        0.195   4.60167e-13
          0.2    -2.391e-13
        0.205   4.83229e-13
         0.21   1.49614e-14
        0.215  -7.84396e-14
         0.22    4.4599e-13
        0.225  -1.23045e-13
         0.23  -4.54044e-14
        0.235  -1.29489e-13
         0.24  -1.48451e-13
        0.245   4.27734e-13
         0.25   -3.2867e-13
        0.255   2.56681e-13
         0.26   6.04659e-14
        0.265   5.45951e-14
         0.27  -4.35402e-13
        0.275   5.03749e-14
         0.28   5.52916e-15
        0.285   1.88783e-13
         0.29  -5.49107e-14
        0.295   2.54715e-14
          0.3  -1.94655e-13
        0.305   2.41729e-13
         0.31  -4.68382e-13
        0.315   2.34209e-13
         0.32  -3.23285e-13
        0.325   2.04523e-13
         0.33  -3.79746e-13
        0.335   5.15807e-13
         0.34  -7.20357e-14
        0.345   1.53271e-13
         0.35   5.54656e-14
        0.355   4.06858e-14
         0.36  -1.41546e-13
        0.365   7.04405e-14
         0.37   8.35015e-14
        0.375  -2.98764e-14
         0.38  -1.24116e-13
        0.385    4.0886e-13
         0.39  -9.17547e-14
        0.395   2.44414e-13
          0.4  -9.35029e-14
        0.405   1.80518e-13
         0.41   6.34266e-14
        0.415   7.99418e-14
         0.42  -1.27949e-13
        0.425  -6.42186e-14
         0.43  -3.60521e-13
        0.435   2.78401e-13
         0.44    2.1539e-13
        0.445  -9.71682e-14
         0.45   3.74985e-14
        0.455  -1.89174e-13
         0.46    1.6444e-13
        0.465  -6.49618e-14
         0.47  -1.81316e-13
        0.475    4.0202e-14
         0.48  -1.23648e-13
        0.485   1.66489e-13
         0.49   2.65838e-13
        0.495  -4.01609e-13
          0.5   3.26032e-13
        0.505  -2.20736e-13
         0.51  -2.72071e-13
        0.515   1.95825e-13
         0.52  -5.16695e-14
        0.525   2.11515e-13
         0.53   9.73497e-14
        0.535   8.42248e-14
         0.54   -2.2187e-13
        0.545   4.17822e-13
         0.55  -3.81245e-13
        0.555   3.66626e-13
         0.56  -6.03303e-13
        0.565   2.87397e-13
         0.57   -2.4528e-13
        0.575    4.4401e-13
         0.58  -5.08493e-13
        0.585   5.33166e-13
         0.59   1.05346e-13
        0.595   1.56066e-13
          0.6   -1.4712e-13
        0.605  -4.36215e-14
         0.61   2.07827e-13
        0.615   1.49285e-15
         0.62  -7.45421e-14
        0.625  -1.26101e-13
         0.63   3.74948e-13
        0.635   5.32232e-15
         0.64  -6.99253e-14
        0.645   3.24995e-13
         0.65  -2.65265e-13
        0.655   4.36902e-13
         0.66  -1.70544e-13
        0.665   1.18189e-13
         0.67   1.63408e-13
        0.675  -9.07024e-14
         0.68   6.79297e-14
        0.685   1.50561e-13
         0.69  -9.63243e-14
        0.695  -1.38128e-15
          0.7  -7.62791e-15
        0.705  -7.33285e-14
         0.71   3.26716e-13
        0.715   1.81968e-14
         0.72   -3.7713e-14
        0.725  -9.25326e-14
         0.73   1.26345e-13
        0.735  -2.50557e-13
         0.74   4.48783e-13
        0.745  -8.67202e-14
         0.75   1.11102e-13
        0.755  -4.51198e-13
         0.76   4.30051e-13
        0.765   -2.5708e-13
         0.77   1.94981e-13
        0.775  -1.84145e-14
         0.78    4.5796e-14
        0.785   2.07717e-13
         0.79  -5.47023e-13
        0.795   3.31078e-14
          0.8   3.89437e-13
        0.805  -4.81991e-14
         0.81   2.47318e-13
        0.815  -2.20953e-13
         0.82   2.89924e-13
        0.825  -2.29451e-13
         0.83   3.18678e-13
        0.835  -1.99189e-13
         0.84   2.84332e-13
        0.845  -1.41069e-13
         0.85   8.34861e-14
        0.855  -8.64855e-14
         0.86   1.10193e-13
        0.865  -2.80282e-13
         0.87   1.69331e-13
        0.875  -3.38048e-13
         0.88   2.11212e-13
        0.885   1.49502e-13
         0.89  -7.86837e-14
        0.895  -2.35829e-13
          0.9  -9.74578e-14
        0.905  -1.81668e-14
         0.91  -1.40281e-13
        0.915   3.05545e-13
         0.92  -5.21839e-13
        0.925   2.77768e-13
         0.93   8.84332e-14
        0.935  -2.41527e-13
         0.94  -1.53596e-14
        0.945  -3.12951e-14
         0.95   3.10408e-14
        0.955    1.5826e-13
         0.96  -3.62477e-14
        0.965  -1.93074e-14
         0.97    2.2323e-13
        0.975   1.66176e-14
         0.98   8.68974e-14
        0.985  -2.94512e-13
         0.99  -7.85943e-14
        0.995   5.22449e-14
            1  -1.75962e-13
        1.005   1.48972e-13
         1.01   1.96505e-13
        1.015   1.81897e-14
         1.02   7.48644e-14
        1.025  -1.77754e-13
         1.03  -3.69537e-14
        1.035   4.85708e-14
         1.04  -1.83728e-14
        1.045  -3.56564e-14
         1.05   -2.7375e-14
        1.055  -4.27971e-14
         1.06   2.95995e-13
        1.065  -9.65472e-14
         1.07   9.85346e-14
        1.075   8.89849e-15
         1.08  -1.25982e-14
        1.085   6.21957e-16
         1.09   6.04583e-15
        1.095  -3.08042e-14
          1.1   2.65677e-13
        1.105  -1.06496e-13
         1.11   6.60281e-15
        1.115   8.23968e-14
         1.12  -1.93529e-13
        1.125   7.85549e-14
         1.13   1.56518e-13
        1.135  -1.21724e-13
         1.14   -1.3488e-13
        1.145    1.1879e-13
         1.15  -8.08972e-15
        1.155  -1.01534e-13
         1.16  -2.27119e-13
        1.165  -1.84563e-13
         1.17   1.83859e-13
        1.175   5.68938e-14
         1.18  -1.62206e-13
        1.185   3.58813e-14
         1.19  -1.66996e-14
        1.195  -7.77851e-14
          1.2  -2.82225e-13
        1.205   7.62886e-14
         1.21  -1.93731e-13
        1.215  -3.34964e-14
         1.22     1.547e-13
        1.225    -2.404e-13
         1.23   1.44379e-13
        1.235  -2.15848e-13
         1.24   3.35173e-13
        1.245   -1.1977e-13
         1.25   8.71288e-14
        1.255   3.61762e-13
         1.26  -4.43649e-13
        1.265   1.62738e-13
         1.27  -4.55434e-13
        1.275   2.63128e-13
         1.28  -3.69019e-14
        1.285     2.881e-13
         1.29  -7.74749e-14
        1.295  -2.05879e-15
          1.3   1.33909e-13
        1.305   3.01394e-15
         1.31   1.14376e-13
        1.315  -3.13036e-13
         1.32   2.24629e-13
        1.325  -2.76016e-13
         1.33   1.94881e-13
        1.335  -1.62861e-13
         1.34   4.69343e-13
        1.345  -4.43837e-13
         1.35   2.18957e-13
        1.355  -3.21878e-13
         1.36  -5.99024e-14
        1.365   9.26195e-14
         1.37  -3.79112e-14
        1.375   1.06567e-14
         1.38  -2.78392e-14
        1.385  -8.63337e-14
         1.39   -3.1285e-14
        1.395  -2.98952e-13
          1.4   1.92504e-13
        1.405  -1.53321e-13
         1.41   7.27551e-14
        1.415  -8.27654e-15
         1.42   5.83316e-14
        1.425  -1.05308e-14
         1.43  -9.45362e-14
        1.435   1.95145e-13
         1.44   4.70345e-14
        1.445  -6.93635e-14
         1.45  -1.79429e-13
        1.455   2.84243e-13
         1.46  -2.32757e-14
        1.465  -2.28457e-13
         1.47   1.21095e-13
        1.475  -7.81936e-14
         1.48   2.30446e-14
        1.485   1.06075e-13
         1.49    8.8857e-15
        1.495    -1.613e-14
          1.5     2.579e-13
        1.505   7.77743e-14
         1.51   1.64657e-14
        1.515     7.847e-15
         1.52   -2.8685e-13
        1.525   4.79844e-14
         1.53  -5.24982e-14
        1.535  -2.32882e-14
         1.54  -2.19281e-13
        1.545   4.24871e-13
         1.55  -4.71984e-13
        1.555   2.62203e-13
         1.56   -3.6446e-13
        1.565   3.24596e-13
         1.57   2.10826e-14
        1.575  -1.20431e-13
         1.58  -6.17899e-14
        1.585  -1.24555e-13
         1.59   2.23325e-14
        1.595  -1.98653e-13
          1.6   4.29923e-13
        1.605  -4.89995e-13
         1.61   5.66299e-13
        1.615  -2.66403e-13
         1.62   1.99981e-13
        1.625  -5.24351e-13
         1.63   4.20206e-13
        1.635  -8.12419e-14
         1.64   2.05439e-13
        1.645   -1.7224e-13
         1.65   2.35846e-13
        1.655  -4.81041e-13
         1.66     3.295e-13
        1.665  -3.82011e-13
         1.67   3.63371e-13
        1.675    1.2675e-14
         1.68   2.26134e-14
        1.685  -1.05564e-13
         1.69   1.40075e-13
        1.695  -2.77376e-13
          1.7   1.94446e-13
        1.705  -3.00922e-13
         1.71  -5.98704e-14
        1.715   3.78408e-13
         1.72   2.80625e-14
        1.725  -7.64797e-14
         1.73   -1.3559e-13
        1.735  -2.66725e-14
         1.74   1.60023e-13
        1.745  -1.35224e-13
         1.75  -1.56411e-14
        1.755   1.67095e-13
         1.76  -2.53201e-13
        1.765  -7.37815e-14
         1.77   1.46817e-13
        1.775   -1.3815e-13
         1.78   1.67691e-13
        1.785  -1.08142e-13
         1.79  -1.91568e-15
        1.795  -1.31916e-14
          1.8  -1.01625e-13
        1.805   4.96857e-13
         1.81  -4.20314e-13
        1.815   3.77266e-13
         1.82  -1.28054e-15
        1.825    -2.677e-13
         1.83   4.25091e-13
        1.835    -3.603e-13
         1.84   4.59141e-13
        1.845  -4.76979e-13
         1.85   3.38133e-13
        1.855  -1.77104e-13
         1.86  -2.99317e-14
        1.865  -6.52747e-14
         1.87   1.81425e-13
        1.875  -2.90282e-13
         1.88   2.44723e-13
        1.885   6.08091e-14
         1.89   7.48894e-14
        1.895  -2.76751e-13
          1.9  -1.62916e-13
        1.905   3.81406e-13
         1.91  -9.67533e-14
        1.915   6.97375e-14
         1.92  -3.18784e-13
        1.925   1.94855e-13
         1.93   3.85164e-14
        1.935  -2.36497e-13
         1.94   4.48207e-13
        1.945  -2.77892e-13
         1.95   2.99517e-14
        1.955    5.7944e-14
         1.96  -1.16153e-13
        1.965   2.31106e-13
         1.97  -2.06824e-13
        1.975   1.80166e-14
         1.98   1.62162e-13
        1.985  -3.76698e-13
         1.99   1.95369e-13
        1.995  -3.39344e-13
            2   1.12786e-14
        2.005   1.73078e-13
         2.01  -4.01509e-13
        2.015   3.05352e-13
         2.02  -1.28146e-13
        2.025   7.84634e-14
         2.03   1.48933e-13
        2.035   2.91494e-14
         2.04  -2.65664e-13
        2.045   3.48159e-13
         2.05  -1.61038e-13
        2.055  -1.93265e-13
         2.06   1.05028e-13
        2.065   1.05804e-13
         2.07  -1.37043e-13
        2.075   5.18917e-15
         2.08   1.82651e-13
        2.085   1.50304e-13
         2.09  -2.48641e-13
        2.095   2.50387e-13
          2.1   6.21205e-14
        2.105  -1.12033e-13
         2.11   3.89389e-13
        2.115  -2.61656e-13
         2.12   3.75485e-13
        2.125   -1.8056e-13
         2.13  -2.56759e-13
        2.135   1.50229e-13
         2.14   2.19074e-13
        2.145  -4.71476e-13
         2.15   3.83708e-13
        2.155  -8.49596e-14
         2.16  -1.49039e-14
        2.165   4.61573e-14
         2.17  -2.79017e-13
        2.175  -1.71525e-13
         2.18   1.87693e-13
        2.185   1.61314e-13
         2.19  -8.76473e-14
        2.195   1.03061e-13
          2.2  -3.67731e-13
        2.205   1.20424e-13
         2.21   2.66653e-14
        2.215  -1.43685e-13
         2.22  -3.80434e-14
        2.225    2.1329e-13
         2.23   4.14902e-15
        2.235  -3.44295e-13
         2.24   3.23165e-13
        2.245   2.07311e-13
         2.25  -2.83391e-13
        2.255    2.2301e-13
         2.26  -9.39527e-14
        2.265  -3.79279e-13
         2.27    2.7876e-13
        2.275   -2.8487e-13
         2.28   -1.3193e-13
        2.285    2.0021e-13
         2.29   8.51431e-14
        2.295   3.80926e-14
          2.3  -4.63118e-14
        2.305   2.12448e-13
         2.31   -2.2606e-13
        2.315   2.40626e-14
         2.32  -1.14922e-14
        2.325  -9.03192e-14
         2.33   1.85114e-13
        2.335   -8.2533e-15
         2.34   9.55288e-14
        2.345   1.96231e-14
         2.35   -1.8425e-13
        2.355   3.01315e-13
         2.36  -1.43907e-13
        2.365   1.05645e-13
         2.37  -2.09691e-13
        2.375   -1.1153e-13
         2.38   3.14866e-13
        2.385  -1.33019e-13
         2.39   1.63809e-13
        2.395  -1.47109e-13
          2.4    1.9731e-13
        2.405    3.4635e-15
         2.41   8.76399e-14
        2.415  -2.42831e-13
         2.42  -8.13473e-14
        2.425   4.77207e-14
         2.43   8.79449e-14
        2.435   1.66083e-13
         2.44   2.12158e-14
        2.445  -5.21601e-15
         2.45  -1.77511e-13
        2.455  -4.44733e-14
         2.46   2.52144e-13
        2.465  -2.53677e-13
         2.47   1.74432e-13
        2.475    -2.535e-13
         2.48   3.39648e-13
        2.485  -2.89107e-13
         2.49   3.18068e-13
        2.495  -4.88854e-13
          2.5    1.5618e-13
        2.505   1.19185e-13
         2.51   1.16509e-13
        2.515  -1.30456e-13
         2.52  -1.57062e-14
        2.525   1.94566e-13
         2.53  -1.01286e-13
        2.535   7.72374e-14
         2.54  -2.07158e-13
        2.545   3.89382e-13
         2.55   -3.3449e-13
        2.555   1.44142e-13
         2.56  -3.31553e-13
        2.565   5.67247e-14
         2.57  -1.69214e-13
        2.575   3.97449e-13
         2.58  -2.32354e-13
        2.585   1.50363e-13
         2.59  -2.19529e-13
        2.595   1.88155e-14
          2.6    3.5635e-14
        2.605  -7.86341e-14
         2.61   1.64356e-13
        2.615   6.19465e-14
         2.62  -1.32686e-14
        2.625   1.83774e-13
         2.63  -1.01447e-13
        2.635   1.78889e-13
         2.64  -3.36628e-13
        2.645   3.79746e-13
         2.65  -2.39216e-13
        2.655   7.40994e-14
         2.66  -3.15314e-13
        2.665   3.31701e-13
         2.67  -6.57592e-14
        2.675  -5.27083e-15
         2.68  -6.74494e-14
        2.685  -2.61352e-14
         2.69  -5.53789e-14
        2.695   8.33074e-14
          2.7  -1.38993e-14
        2.705   1.24262e-13
         2.71    8.6072e-14
        2.715   1.85742e-13
         2.72  -5.96947e-14
        2.725  -8.69735e-14
         2.73   3.88982e-14
        2.735  -8.84053e-14
         2.74   3.01581e-14
        2.745   1.18867e-13
         2.75   -1.8569e-13
        2.755   8.32458e-14
         2.76   9.04702e-14
        2.765  -9.73958e-14
         2.77   1.97236e-13
        2.775  -1.62482e-13
         2.78   1.35863e-13
        2.785   1.24817e-13
         2.79  -3.04758e-13
        2.795    1.8783e-13
          2.8   1.75813e-13
        2.805  -3.14258e-13
         2.81   2.16164e-13
        2.815  -2.06559e-13
         2.82    1.4142e-13
        2.825  -2.65689e-13
         2.83   6.54441e-14
        2.835   1.29244e-13
         2.84  -6.88146e-14
        2.845   1.61301e-13
         2.85  -2.07749e-13
        2.855   1.43584e-13
         2.86   1.21003e-14
        2.865   1.26251e-14
         2.87  -1.44138e-13
        2.875   9.17775e-14
         2.88  -2.23736e-13
        2.885   2.91721e-13
         2.89  -3.06458e-13
        2.895   3.39702e-13
          2.9   4.01361e-14
        2.905  -2.26449e-13
         2.91    4.9105e-13
        2.915  -4.61881e-13
         2.92   1.40252e-13
        2.925   2.09813e-13
         2.93  -3.11299e-13
        2.935   8.70865e-14
         2.94  -3.62243e-14
        2.945   2.72234e-13
         2.95  -4.53423e-13
        2.955   4.00848e-13
         2.96   1.99338e-13
        2.965   1.59458e-14
         2.97   2.59633e-13
        2.975  -2.08215e-13
         2.98   2.66205e-13
        2.985  -4.71713e-13
         2.99   3.58919e-13
        2.995   1.89529e-15
            3  -1.56997e-13
        3.005   1.39925e-13
         3.01  -1.90443e-13
        3.015   3.93863e-13
         3.02  -3.27817e-13
        3.025   3.03549e-13
         3.03   7.49046e-15
        3.035   5.53098e-14
         3.04  -1.92325e-13
        3.045   1.33949e-13
         3.05  -3.77661e-13
        3.055   3.67388e-13
         3.06   1.41646e-13
        3.065  -1.75859e-13
         3.07   -6.2156e-14
        3.075   2.66043e-14
         3.08  -8.75084e-14
        3.085  -5.05645e-14
         3.09   3.86298e-13
        3.095  -4.01148e-13
          3.1   2.07365e-13
        3.105  -1.04077e-13
         3.11   1.10476e-13
        3.115  -7.89997e-14
         3.12    3.4723e-13
        3.125  -5.99585e-13
         3.13   2.37352e-13
        3.135  -2.12589e-13
         3.14   2.44127e-13
        3.145    -6.801e-14
         3.15   3.31938e-13
        3.155   -3.5345e-13
         3.16   3.11305e-13
        3.165   1.41196e-13
         3.17  -3.43727e-13
        3.175   3.18912e-13
         3.18  -3.40895e-13
        3.185   3.14275e-13
         3.19   1.72133e-13
        3.195  -2.13292e-13
          3.2   1.63978e-13
        3.205  -4.46622e-13
         3.21   3.43238e-13
        3.215  -1.03729e-13
         3.22   2.61084e-13
        3.225  -1.41309e-13
         3.23  -1.49295e-13
        3.235    4.3288e-13
         3.24   6.81812e-16
        3.245   3.61708e-14
         3.25  -1.94825e-13
        3.255   4.02379e-13
         3.26  -1.04321e-13
        3.265   3.14891e-13
         3.27  -3.69763e-13
        3.275   3.41742e-13
         3.28  -1.11742e-13
        3.285  -7.61799e-14
         3.29   2.94583e-13
        3.295  -6.72249e-14
          3.3  -3.49568e-14
        3.305   1.28677e-13
         3.31  -1.54393e-13
        3.315   2.62271e-13
         3.32   -3.2833e-13
        3.325   2.49559e-13
         3.33   1.78699e-13
        3.335  -1.56103e-13
         3.34  -2.00578e-15
        3.345   2.51097e-13
         3.35  -9.98953e-14
        3.355   1.88785e-13
         3.36  -2.14822e-13
        3.365   1.62095e-13
         3.37   1.65976e-15
        3.375  -3.86615e-14
         3.38   3.74234e-14
        3.385  -1.09171e-13
         3.39   2.75614e-15
        3.395   2.24896e-13
          3.4  -1.82574e-13
        3.405   4.13154e-13
         3.41  -2.45681e-13
        3.415   4.25261e-13
         3.42  -8.71275e-14
        3.425  -1.18262e-13
         3.43   6.99458e-14
        3.435   2.75372e-13
         3.44  -4.57643e-13
        3.445   7.57386e-14
         3.45  -2.17978e-14
        3.455   9.80716e-14
         3.46  -1.48801e-13
        3.465  -1.35979e-13
         3.47   1.12161e-13
        3.475   2.29827e-13
         3.48  -2.71882e-13
        3.485   1.24968e-13
         3.49  -1.21674e-13
        3.495    1.3979e-13
          3.5   1.39907e-13
        3.505  -1.10125e-13
         3.51    1.0765e-13
        3.515  -2.70672e-13
         3.52    2.3748e-13
        3.525   2.67189e-13
         3.53   9.03263e-15
        3.535  -1.60747e-13
         3.54  -1.35987e-13
        3.545   3.60219e-13
         3.55  -1.88144e-13
        3.555  -7.51961e-14
         3.56   9.75874e-14
        3.565  -9.62015e-14
         3.57   2.16492e-14
        3.575   7.73491e-14
         3.58    1.8101e-13
        3.585  -1.80301e-13
         3.59   -1.1346e-13
        3.595   1.86334e-13
          3.6  -5.67954e-14
        3.605   8.33785e-14
         3.61   3.06964e-14
        3.615   1.92473e-13
         3.62  -1.01052e-13
        3.625   5.43949e-13
         3.63  -6.50146e-13
        3.635   4.29358e-13
         3.64   1.58752e-13
        3.645   1.05478e-13
         3.65  -2.29199e-13
        3.655   4.71617e-14
         3.66  -3.85253e-14
        3.665   1.66877e-13
         3.67  -1.67465e-13
        3.675   1.93292e-13
         3.68  -2.59845e-14
        3.685    5.7133e-14
         3.69   3.32334e-13
        3.695  -2.01825e-13
          3.7   9.40092e-15
        3.705  -8.08347e-14
         3.71  -1.21486e-13
        3.715   3.10243e-13
         3.72  -3.90843e-13
        3.725   3.90093e-13
         3.73  -1.66131e-13
        3.735  -1.43376e-14
         3.74    2.0077e-13
        3.745  -1.09266e-13
         3.75  -2.18811e-13
        3.755   4.02621e-13
         3.76   1.55214e-13
        3.765  -4.65838e-14
         3.77  -1.70759e-13
        3.775  -1.29204e-13
         3.78   3.23415e-13
        3.785   -1.1305e-13
         3.79   1.59293e-13
        3.795  -6.18139e-14
          3.8  -6.60578e-14
        3.805  -2.48326e-13
         3.81    1.4893e-13
        3.815  -4.03008e-14
         3.82   5.26059e-14
        3.825  -1.86507e-13
         3.83   1.68007e-13
        3.835  -1.50219e-13
         3.84   4.51679e-15
        3.845  -7.18117e-15
         3.85   4.72839e-14
        3.855  -1.81228e-13
         3.86   2.49617e-13
        3.865  -3.47197e-13
         3.87    2.8963e-13
        3.875  -3.62097e-13
         3.88   1.93144e-13
        3.885  -1.27844e-13
         3.89   2.61066e-13
        3.895  -2.31398e-13
          3.9   7.34465e-14
        3.905   1.30953e-13
         3.91   9.11671e-15
        3.915   1.20851e-13
         3.92  -1.23025e-13
        3.925  -7.75015e-14
         3.93   1.26355e-13
        3.935  -1.77024e-14
         3.94  -1.89135e-13
        3.945   2.62577e-13
         3.95  -1.50407e-13
        3.955  -3.17447e-13
         3.96    2.4751e-13
        3.965  -2.66284e-13
         3.97   2.30198e-13
        3.975  -1.82165e-13
         3.98   3.53848e-13
        3.985   -2.9671e-13
         3.99   7.09526e-13
        3.995   -1.5769e-13
            4   1.28776e-13
        4.005  -3.36362e-13
         4.01   1.57505e-13
        4.015  -2.50778e-13
         4.02   2.35135e-13
        4.025   6.17744e-14
         4.03  -1.91814e-13
        4.035   3.67109e-13
         4.04  -5.14374e-13
        4.045   7.41005e-13
         4.05   -6.9626e-13
        4.055    5.1414e-13
         4.06  -1.88641e-13
        4.065   2.03862e-13
         4.07   -1.0046e-13
        4.075   1.85709e-13
         4.08  -1.17906e-13
        4.085   2.55219e-13
         4.09  -3.56163e-13
        4.095   2.92418e-13
          4.1  -4.51937e-13
        4.105   5.51379e-14
         4.11   1.25834e-13
        4.115  -2.10586e-14
         4.12  -2.91208e-13
        4.125   2.15846e-13
         4.13  -1.81356e-14
        4.135  -8.52791e-14
         4.14   9.62988e-14
        4.145   2.60491e-14
         4.15     3.563e-14
        4.155  -1.05454e-13
         4.16   5.83388e-14
        4.165  -9.54702e-14
         4.17   1.31207e-14
        4.175   3.08155e-13
         4.18  -1.87475e-13
        4.185   2.91789e-13
         4.19  -1.28602e-13
        4.195  -3.93237e-14
          4.2   6.55371e-14
        4.205   1.37752e-13
         4.21  -6.60596e-14
        4.215  -6.29935e-14
         4.22   1.42478e-13
        4.225   1.04678e-13
         4.23  -3.96933e-13
        4.235   2.95581e-13
         4.24   -4.7801e-14
        4.245   6.19216e-14
         4.25    1.3591e-13
        4.255  -1.94996e-13
         4.26   1.19475e-13
        4.265  -2.50827e-13
         4.27   1.84487e-13
        4.275  -1.15156e-13
         4.28  -1.38782e-13
        4.285   1.73817e-13
         4.29  -1.06381e-13
        4.295   1.54092e-14
          4.3   4.22134e-14
        4.305   4.34227e-14
         4.31  -5.27429e-14
        4.315  -1.73125e-13
         4.32   2.66012e-13
        4.325     2.176e-13
         4.33  -2.82002e-13
        4.335   3.97038e-13
         4.34  -5.29812e-13
        4.345   2.84694e-13
         4.35   3.57339e-14
        4.355  -2.45465e-14
         4.36   1.77699e-13
        4.365   4.80773e-15
         4.37  -5.49306e-14
        4.375   3.31817e-13
         4.38   4.77447e-14
        4.385   1.94724e-13
         4.39  -1.96686e-13
        4.395   2.90909e-13
          4.4  -2.30894e-13
        4.405   3.95199e-13
         4.41  -3.17885e-13
        4.415   9.44057e-14
         4.42   2.10628e-13
        4.425  -2.28412e-13
         4.43  -7.86094e-15
        4.435   4.23261e-14
         4.44  -1.99805e-13
        4.445   1.30254e-13
         4.45  -2.34432e-13
        4.455   2.45662e-13
         4.46  -4.76892e-13
        4.465   3.77711e-13
         4.47  -3.25681e-13
        4.475   2.77901e-13
         4.48  -3.01543e-13
        4.485   2.62416e-13
         4.49  -1.95214e-13
        4.495   2.44092e-13
          4.5  -1.27492e-13
        4.505   2.44118e-13
         4.51  -2.84538e-13
        4.515    3.6519e-13
         4.52  -4.12491e-13
        4.525   5.40968e-14
         4.53    2.3157e-13
        4.535  -3.42228e-14
         4.54   8.50281e-14
        4.545   9.17339e-14
         4.55  -3.91927e-13
        4.555   1.72224e-13
         4.56  -3.92535e-13
        4.565   1.00794e-13
         4.57  -7.70736e-14
        4.575  -1.62176e-13
         4.58   5.19198e-14
        4.585  -1.87507e-13
         4.59  -3.83189e-15
        4.595   -1.1382e-13
          4.6   3.47971e-14
        4.605   1.48678e-13
         4.61   1.99393e-13
        4.615  -3.34667e-14
         4.62    2.4294e-13
        4.625  -1.88441e-13
         4.63   4.47617e-13
        4.635  -3.69047e-13
         4.64    1.0666e-13
        4.645  -3.42601e-14
         4.65  -8.61334e-15
        4.655  -1.03867e-13
         4.66   4.94653e-13
        4.665  -5.08989e-13
         4.67   1.70447e-13
        4.675   2.81755e-13
         4.68  -1.62315e-13
        4.685   3.78028e-13
         4.69   -1.4813e-13
        4.695   2.31585e-13
          4.7  -1.06889e-13
        4.705  -3.84261e-14
         4.71  -1.02556e-13
        4.715   1.27243e-13
         4.72  -2.28915e-13
        4.725   2.13314e-13
         4.73  -3.64795e-14
        4.735   4.72397e-14
         4.74   3.01554e-13
        4.745  -3.04457e-13
         4.75   7.99153e-14
        4.755   -3.5199e-14
         4.76  -6.61897e-14
        4.765  -9.06515e-15
         4.77  -1.50405e-13
        4.775   1.95714e-13
         4.78   -1.6064e-13
        4.785   2.25224e-13
         4.79  -7.26102e-14
        4.795  -2.48375e-13
          4.8   2.08418e-13
        4.805  -1.02625e-13
         4.81    2.7263e-13
        4.815  -2.68362e-13
         4.82   2.15483e-13
        4.825   1.11781e-13
         4.83  -2.13605e-13
        4.835   2.46388e-13
         4.84   1.85151e-13
        4.845   -3.1894e-13
         4.85   2.19087e-13
        4.855  -1.53689e-13
         4.86  -1.34661e-13
        4.865   2.59532e-13
         4.87  -5.25423e-13
        4.875   1.64668e-13
         4.88   2.77359e-13
        4.885  -9.09171e-14
         4.89  -6.05915e-14
        4.895  -1.01192e-13
          4.9   1.71286e-13
        4.905  -2.38441e-13
         4.91  -5.55733e-14
        4.915   6.58264e-14
         4.92   5.33452e-14
        4.925   1.54974e-13
         4.93  -2.44422e-13
        4.935   3.69167e-13
         4.94  -1.78791e-13
        4.945   2.56585e-13
         4.95   9.12961e-14
        4.955   -4.6244e-13
         4.96   1.59202e-13
        4.965  -2.76558e-14
         4.97   2.01212e-14
        4.975   1.62138e-13
         4.98  -6.74614e-14
        4.985    2.4114e-14
         4.99  -2.05079e-13
        4.995  -1.71449e-13
            5   4.04774e-13
        5.005  -4.28124e-13
         5.01   4.77234e-13
        5.015  -3.43977e-13
         5.02   1.79013e-13
        5.025  -2.00929e-13
         5.03   1.86343e-13
        5.035   8.27416e-14
         5.04  -3.01797e-13
        5.045   5.04513e-14
         5.05  -1.16109e-15
        5.055  -2.25158e-13
         5.06  -1.40824e-13
        5.065   8.70296e-14
         5.07  -2.42443e-14
        5.075  -3.80171e-14
         5.08  -6.07269e-14
        5.085  -3.95486e-14
         5.09  -7.51171e-14
        5.095  -2.33241e-13
          5.1   3.21721e-13
        5.105  -2.23638e-13
         5.11   3.08485e-13
        5.115  -3.65794e-13
         5.12   3.13213e-13
        5.125  -1.72464e-13
         5.13   4.65064e-14
        5.135   1.85732e-14
         5.14  -2.62477e-14
        5.145   2.04991e-13
         5.15  -3.08626e-13
        5.155   6.48565e-14
         5.16   3.63201e-13
        5.165  -2.07427e-13
         5.17   2.53956e-13
        5.175  -3.34139e-13
         5.18   1.58408e-13
        5.185   1.86664e-14
         5.19   1.83025e-13
        5.195  -7.95466e-14
          5.2  -3.93656e-14
        5.205   1.32261e-13
         5.21   3.66344e-15
        5.215  -2.11082e-13
         5.22   3.70832e-13
        5.225  -3.47606e-13
         5.23   4.55111e-13
        5.235   -4.8713e-13
         5.24    5.3681e-13
        5.245  -3.00851e-13
         5.25   2.99144e-14
        5.255   1.70067e-13
         5.26  -3.84453e-13
        5.265   5.16307e-13
         5.27   -2.2983e-13
        5.275   1.56853e-13
         5.28  -2.23266e-13
        5.285   2.19703e-13
         5.29    -2.375e-13
        5.295  -7.85661e-14
          5.3   2.35326e-13
        5.305  -2.52751e-13
         5.31  -9.66869e-15
        5.315   3.23934e-13
         5.32  -8.96274e-14
        5.325   5.02572e-14
         5.33  -1.54519e-14
        5.335  -4.83817e-14
         5.34   6.65592e-14
        5.345   -1.2587e-13