# Probe 0 (2 0 0.05)
# Probe 1 (2 0.05 0.05)
# Probe 2 (2 0.1 0.05)
# Probe 3 (2 0.2 0.05)
# Probe 4 (2 0.4 0.05)
# Probe 5 (2 0.6 0.05)  # Not Found
# Probe 6 (2 0.8 0.05)  # Not Found
# Probe 7 (2 0.9 0.05)  # Not Found
# Probe 8 (2 0.95 0.05)  # Not Found
# Probe 9 (2 1 0.05)  # Not Found
#       Probe             0             1             2             3             4             5             6             7             8             9
#        Time
        0.005   4.67538e-14     4.063e-14   4.15091e-14   2.64634e-14  -3.91875e-14       -1e+300       -1e+300       -1e+300       -1e+300       -1e+300
         0.01    1.1849e-13   1.16304e-13   1.11876e-13   1.04133e-13   1.44861e-13       -1e+300       -1e+300       -1e+300       -1e+300       -1e+300
        0.015   -1.0948e-13  -1.06015e-13  -1.11024e-13  -1.02247e-13  -7.96916e-14       -1e+300       -1e+300       -1e+300       -1e+300       -1e+300
         0.02  -1.08272e-14  -1.43626e-15  -6.28619e-15  -4.15114e-15  -5.11891e-15       -1e+300       -1e+300       -1e+300       -1e+300       -1e+300
        0.025   3.42841e-13   3.49819e-13   3.43729e-13   3.30461e-13   3.32038e-13       -1e+300       -1e+300       -1e+300       -1e+300       -1e+300
         0.03  -4.41683e-13  -4.33407e-13  -4.37454e-13  -4.29923e-13  -4.38859e-13       -1e+300       -1e+300       -1e+300       -1e+300       -1e+300
        0.035   6.34402e-13   6.42419e-13   6.43977e-13   6.35571e-13   6.18251e-13       -1e+300       -1e+300       -1e+300       -1e+300       -1e+300
         0.04  -4.11666e-13  -4.08272e-13  -4.10537e-13  -4.27089e-13  -4.46632e-13       -1e+300       -1e+300       -1e+300       -1e+300       -1e+300
        0.045   3.77659e-13   3.83513e-13   3.86277e-13   3.81993e-13   3.81122e-13       -1e+300       -1e+300       -1e+300       -1e+300       -1e+300
         0.05   5.36707e-13   5.44447e-13   5.43071e-13   5.46646e-13   5.34128e-13       -1e+300       -1e+300       -1e+300       -1e+300       -1e+300
        0.055  -6.28966e-13  -6.22609e-13  -6.21967e-13   -6.3078e-13  -6.15904e-13       -1e+300       -1e+300       -1e+300       -1e+300       -1e+300
         0.06  -1.12348e-14  -3.44165e-15  -1.45034e-14  -1.99792e-14  -1.68992e-14       -1e+300       -1e+300       -1e+300       -1e+300       -1e+300
        0.065   5.16884e-13   5.21888e-13   5.14107e-13   5.07085e-13   5.13789e-13       -1e+300       -1e+300       -1e+300       -1e+300       -1e+300
         0.07  -2.94804e-13  -2.90195e-13  -2.97325e-13  -3.07159e-13  -3.16864e-13       -1e+300       -1e+300       -1e+300       -1e+300       -1e+300
        0.075   4.32074e-13   4.39152e-13   4.44293e-13   4.46318e-13   4.58753e-13       -1e+300       -1e+300       -1e+300       -1e+300       -1e+300
         0.08   2.04891e-13   2.05002e-13   2.04113e-13   1.91305e-13   1.86388e-13       -1e+300       -1e+300       -1e+300       -1e+300       -1e+300
        0.085   3.22751e-13   3.29624e-13   3.24352e-13   3.18479e-13   3.11952e-13       -1e+300       -1e+300       -1e+300       -1e+300       -1e+300
         0.09  -2.61642e-13  -2.55485e-13  -2.63977e-13  -2.67235e-13  -2.74309e-13       -1e+300       -1e+300       -1e+300       -1e+300       -1e+300
        0.095   4.32056e-13   4.35908e-13   4.37994e-13   4.48009e-13   4.43968e-13       -1e+300       -1e+300       -1e+300       -1e+300       -1e+300
          0.1  -2.25497e-13  -2.22773e-13  -2.24989e-13  -2.32325e-13  -2.16805e-13       -1e+300       -1e+300       -1e+300       -1e+300       -1e+300
        0.105    3.1111e-13   3.17034e-13   3.12821e-13   3.07635e-13   3.01622e-13       -1e+300       -1e+300       -1e+300       -1e+300       -1e+300
         0.11   1.58454e-13   1.64284e-13   1.63307e-13    1.6727e-13   1.74293e-13       -1e+300       -1e+300       -1e+300       -1e+300       -1e+300
        0.115   3.93581e-13   3.97581e-13   3.90536e-13     3.897e-13   3.75228e-13       -1e+300       -1e+300       -1e+300       -1e+300       -1e+300
         0.12  -5.99376e-13  -5.92565e-13   -5.8568e-13  -5.98927e-13  -5.96849e-13       -1e+300       -1e+300       -1e+300       -1e+300       -1e+300
        0.125  -4.13088e-13  -4.09179e-13  -4.08625e-13  -4.17121e-13  -4.16772e-13       -1e+300       -1e+300       -1e+300       -1e+300       -1e+300
         0.13   6.08626e-13   6.13075e-13   6.09144e-13   6.02426e-13   5.98099e-13       -1e+300       -1e+300       -1e+300       -1e+300       -1e+300
        0.135  -8.12793e-13  -8.09881e-13  -8.05871e-13  -8.05686e-13  -8.09776e-13       -1e+300       -1e+300       -1e+300       -1e+300       -1e+300
         0.14  -2.33564e-13  -2.29045e-13  -2.35745e-13   -2.4663e-13  -2.42467e-13       -1e+300       -1e+300       -1e+300       -1e+300       -1e+300
        0.145    4.0101e-13   4.05149e-13   4.07118e-13    4.1823e-13   4.04394e-13       -1e+300       -1e+300       -1e+300       -1e+300       -1e+300
         0.15   1.38411e-13   1.40812e-13   1.36585e-13   1.37255e-13   1.57147e-13       -1e+300       -1e+300       -1e+300       -1e+300       -1e+300
        0.155   6.58036e-14   7.13691e-14   6.39625e-14   5.29746e-14   2.86501e-14       -1e+300       -1e+300       -1e+300       -1e+300       -1e+300
         0.16  -2.77363e-13  -2.72129e-13  -2.69143e-13  -2.76117e-13  -2.75667e-13       -1e+300       -1e+300       -1e+300       -1e+300       -1e+300
        0.165  -4.81061e-14  -4.33653e-14  -4.50022e-14  -5.08814e-14  -4.60999e-14       -1e+300       -1e+300       -1e+300       -1e+300       -1e+300
         0.17  -7.96076e-13  -7.92557e-13   -7.9324e-13  -7.86348e-13  -7.75551e-13       -1e+300       -1e+300       -1e+300       -1e+300       -1e+300
        0.175   1.03621e-13   1.08667e-13   1.09559e-13   9.44421e-14   1.03009e-13       -1e+300       -1e+300       -1e+300       -1e+300       -1e+300
         0.18  -1.11648e-12  -1.11243e-12  -1.11157e-12  -1.12966e-12  -1.14108e-12       -1e+300       -1e+300       -1e+300       -1e+300       -1e+300
        0.185  -4.42346e-13  -4.37861e-13  -4.44325e-13  -4.47901e-13  -4.59255e-13       -1e+300       -1e+300       -1e+300       -1e+300       -1e+300
         0.19  -4.32568e-14  -3.94017e-14  -4.38425e-14   -4.9691e-14  -3.05821e-14       -1e+300       -1e+300       -1e+300       -1e+300       -1e+300
        0.195  -1.40741e-12   -1.4032e-12  -1.39906e-12  -1.41163e-12  -1.41933e-12       -1e+300       -1e+300       -1e+300       -1e+300       -1e+300
          0.2   3.89678e-13    3.9252e-13   3.91025e-13   3.86212e-13   3.94281e-13       -1e+300       -1e+300       -1e+300       -1e+300       -1e+300
        0.205   9.16579e-14   9.57111e-14   9.44422e-14   8.71052e-14   8.98094e-14       -1e+300       -1e+300       -1e+300       -1e+300       -1e+300
         0.21  -2.28053e-13  -2.24776e-13  -2.21279e-13  -2.29096e-13  -2.25257e-13       -1e+300       -1e+300       -1e+300       -1e+300       -1e+300
        0.215  -6.31218e-13  -6.27459e-13  -6.32145e-13  -6.40982e-13   -6.5665e-13       -1e+300       -1e+300       -1e+300       -1e+300       -1e+300
         0.22   6.36486e-13   6.39355e-13    6.4036e-13   6.37669e-13   6.45514e-13       -1e+300       -1e+300       -1e+300       -1e+300       -1e+300
        0.225  -7.31307e-13  -7.28057e-13  -7.29866e-13  -7.37723e-13  -7.48719e-13       -1e+300       -1e+300       -1e+300       -1e+300       -1e+300
         0.23   1.31545e-12   1.32159e-12   1.32295e-12   1.31285e-12   1.32961e-12       -1e+300       -1e+300       -1e+300       -1e+300       -1e+300
        0.235  -8.99381e-13  -8.95206e-13  -8.96001e-13  -8.96042e-13  -8.91084e-13       -1e+300       -1e+300       -1e+300       -1e+300       -1e+300
         0.24   8.87882e-13   8.90384e-13   8.87564e-13   8.75537e-13   8.77633e-13       -1e+300       -1e+300       -1e+300       -1e+300       -1e+300
        0.245  -7.40393e-13  -7.34183e-13  -7.40612e-13  -7.55494e-13  -7.59539e-13       -1e+300       -1e+300       -1e+300       -1e+300       -1e+300
         0.25   2.09084e-13   2.14339e-13   2.09359e-13   1.99967e-13   1.82231e-13       -1e+300       -1e+300       -1e+300       -1e+300       -1e+300
        0.255   9.38447e-14    9.9228e-14   9.66574e-14   9.41431e-14   1.05057e-13       -1e+300       -1e+300       -1e+300       -1e+300       -1e+300
         0.26  -1.16659e-13  -1.10809e-13  -1.13987e-13  -1.30905e-13  -1.40893e-13       -1e+300       -1e+300       -1e+300       -1e+300       -1e+300
        0.265  -3.59578e-13  -3.57765e-13  -3.56429e-13  -3.60349e-13  -3.52999e-13       -1e+300       -1e+300       -1e+300       -1e+300       -1e+300
         0.27  -1.33328e-14  -9.02383e-15  -8.22375e-15  -1.14043e-14  -1.15944e-14       -1e+300       -1e+300       -1e+300       -1e+300       -1e+300
        0.275  -5.83627e-13   -5.7877e-13  -5.84104e-13  -5.92319e-13  -5.85164e-13       -1e+300       -1e+300       -1e+300       -1e+300       -1e+300
         0.28   2.16228e-14   2.73862e-14   2.82563e-14   2.36059e-14   2.09393e-14       -1e+300       -1e+300       -1e+300       -1e+300       -1e+300
        0.285   -1.3562e-12  -1.35091e-12   -1.3553e-12  -1.35859e-12  -1.35242e-12       -1e+300       -1e+300       -1e+300       -1e+300       -1e+300
         0.29   2.07727e-13   2.13001e-13   2.10396e-13   2.05375e-13    1.9854e-13       -1e+300       -1e+300       -1e+300       -1e+300       -1e+300
        0.295  -4.26233e-13  -4.21407e-13  -4.28726e-13  -4.34383e-13  -4.25427e-13       -1e+300       -1e+300       -1e+300       -1e+300       -1e+300
          0.3   4.26982e-13   4.28412e-13   4.27721e-13   4.19638e-13   4.00875e-13       -1e+300       -1e+300       -1e+300       -1e+300       -1e+300
        0.305   2.35564e-14   2.89654e-14   2.68076e-14   1.29368e-14   2.65064e-14       -1e+300       -1e+300       -1e+300       -1e+300       -1e+300
         0.31  -5.57115e-13  -5.52907e-13  -5.55385e-13  -5.61531e-13  -5.57073e-13       -1e+300       -1e+300       -1e+300       -1e+300       -1e+300
        0.315   3.21208e-13   3.24064e-13   3.18646e-13    3.1099e-13   3.24293e-13       -1e+300       -1e+300       -1e+300       -1e+300       -1e+300
         0.32  -5.49849e-13   -5.4499e-13  -5.46833e-13  -5.54739e-13  -5.50744e-13       -1e+300       -1e+300       -1e+300       -1e+300       -1e+300
        0.325   1.29347e-13   1.33109e-13   1.28336e-13   1.25355e-13   1.15755e-13       -1e+300       -1e+300       -1e+300       -1e+300       -1e+300
         0.33   3.18595e-13   3.24461e-13   3.24372e-13   3.24918e-13    3.3521e-13       -1e+300       -1e+300       -1e+300       -1e+300       -1e+300
        0.335  -3.89251e-13  -3.85742e-13  -3.92835e-13  -3.95542e-13  -4.07329e-13       -1e+300       -1e+300       -1e+300       -1e+300       -1e+300
         0.34  -5.32147e-13  -5.28545e-13  -5.28326e-13   -5.3838e-13  -5.38782e-13       -1e+300       -1e+300       -1e+300       -1e+300       -1e+300
        0.345   5.80443e-13   5.85883e-13   5.86018e-13    5.8539e-13   5.70394e-13       -1e+300       -1e+300       -1e+300       -1e+300       -1e+300
         0.35  -1.44649e-13  -1.39698e-13  -1.36171e-13  -1.57045e-13  -1.47509e-13       -1e+300       -1e+300       -1e+300       -1e+300       -1e+300
        0.355   -7.4915e-13  -7.44339e-13  -7.51145e-13  -7.56076e-13  -7.67411e-13       -1e+300       -1e+300       -1e+300       -1e+300       -1e+300
         0.36   1.33937e-13   1.39819e-13    1.3543e-13   1.33352e-13   1.37283e-13       -1e+300       -1e+300       -1e+300       -1e+300       -1e+300
        0.365   4.41115e-14   4.88837e-14   4.51362e-14   3.38722e-14   4.44474e-14       -1e+300       -1e+300       -1e+300       -1e+300       -1e+300
         0.37   2.80023e-13   2.84573e-13   2.73399e-13   2.75087e-13   2.72618e-13       -1e+300       -1e+300       -1e+300       -1e+300       -1e+300
        0.375  -7.74801e-13  -7.70705e-13  -7.75962e-13  -7.79084e-13  -7.81389e-13       -1e+300       -1e+300       -1e+300       -1e+300       -1e+300
         0.38   1.01437e-12   1.02055e-12   1.01364e-12   1.02472e-12   1.02678e-12       -1e+300       -1e+300       -1e+300       -1e+300       -1e+300
        0.385  -2.09948e-14   -1.6853e-14  -1.97004e-14  -2.64427e-14  -2.38558e-14       -1e+300       -1e+300       -1e+300       -1e+300       -1e+300
         0.39  -4.29975e-13  -4.27747e-13  -4.33108e-13  -4.32317e-13  -4.22445e-13       -1e+300       -1e+300       -1e+300       -1e+300       -1e+300
        0.395   1.17223e-12   1.17373e-12   1.16894e-12   1.16827e-12   1.13656e-12       -1e+300       -1e+300       -1e+300       -1e+300       -1e+300
          0.4  -2.10824e-13  -2.06205e-13   -2.0771e-13  -2.06701e-13  -1.98153e-13       -1e+300       -1e+300       -1e+300       -1e+300       -1e+300
        0.405   3.85578e-13   3.89968e-13    3.8649e-13   3.97695e-13   3.97125e-13       -1e+300       -1e+300       -1e+300       -1e+300       -1e+300
         0.41   7.34528e-14   7.66872e-14   7.52772e-14   6.65353e-14   5.22723e-14       -1e+300       -1e+300       -1e+300       -1e+300       -1e+300
        0.415   3.09441e-13   3.13853e-13    3.0904e-13   3.10611e-13   2.82344e-13       -1e+300       -1e+300       -1e+300       -1e+300       -1e+300
         0.42  -6.65687e-13  -6.60161e-13  -6.58891e-13  -6.61557e-13  -6.44302e-13       -1e+300       -1e+300       -1e+300       -1e+300       -1e+300
        0.425     6.075e-13   6.12783e-13   6.10475e-13   5.98759e-13   5.91401e-13       -1e+300       -1e+300       -1e+300       -1e+300       -1e+300
         0.43  -2.29508e-13  -2.24918e-13  -2.24147e-13  -2.23275e-13  -2.15361e-13       -1e+300       -1e+300       -1e+300       -1e+300       -1e+300
        0.435   1.12703e-12   1.13109e-12   1.12754e-12   1.13317e-12   1.13101e-12       -1e+300       -1e+300       -1e+300       -1e+300       -1e+300
         0.44   6.76634e-13   6.81831e-13   6.79421e-13   6.71755e-13   6.68468e-13       -1e+300       -1e+300       -1e+300       -1e+300       -1e+300
        0.445   2.51603e-13   2.56172e-13   2.54069e-13   2.46371e-13   2.45139e-13       -1e+300       -1e+300       -1e+300       -1e+300       -1e+300
         0.45  -2.27956e-13  -2.22624e-13  -2.25364e-13  -2.38838e-13  -2.36557e-13       -1e+300       -1e+300       -1e+300       -1e+300       -1e+300
        0.455  -6.79842e-14  -6.38258e-14  -6.71928e-14   -7.7937e-14  -8.10872e-14       -1e+300       -1e+300       -1e+300       -1e+300       -1e+300
         0.46   8.17797e-14   8.87055e-14   9.27799e-14   9.47247e-14    8.2474e-14       -1e+300       -1e+300       -1e+300       -1e+300       -1e+300
        0.465  -2.72624e-13  -2.68397e-13   -2.7335e-13  -2.83001e-13  -2.71417e-13       -1e+300       -1e+300       -1e+300       -1e+300       -1e+300
         0.47    1.0077e-12   1.01153e-12   1.00998e-12   1.01576e-12   1.02657e-12       -1e+300       -1e+300       -1e+300       -1e+300       -1e+300
        0.475  -6.60899e-13  -6.56399e-13   -6.6067e-13  -6.79979e-13  -6.69729e-13       -1e+300       -1e+300       -1e+300       -1e+300       -1e+300
         0.48    1.0704e-12     1.078e-12   1.07497e-12   1.06679e-12   1.06461e-12       -1e+300       -1e+300       -1e+300       -1e+300       -1e+300
        0.485   1.57923e-13    1.6059e-13   1.59681e-13   1.63444e-13   1.69413e-13       -1e+300       -1e+300       -1e+300       -1e+300       -1e+300
         0.49   1.05713e-13    1.1083e-13   1.05844e-13   9.55897e-14   1.09599e-13       -1e+300       -1e+300       -1e+300       -1e+300       -1e+300
        0.495  -1.34459e-13  -1.29254e-13  -1.31439e-13   -1.3948e-13  -1.52569e-13       -1e+300       -1e+300       -1e+300       -1e+300       -1e+300
          0.5   3.30381e-13   3.34975e-13   3.35028e-13   3.35657e-13   3.42671e-13       -1e+300       -1e+300       -1e+300       -1e+300       -1e+300
        0.505   3.94234e-13   3.99626e-13   3.96996e-13   3.88206e-13   3.88378e-13       -1e+300       -1e+300       -1e+300       -1e+300       -1e+300
         0.51  -6.86684e-14  -6.46733e-14  -6.95316e-14  -7.34038e-14  -7.29226e-14       -1e+300       -1e+300       -1e+300       -1e+300       -1e+300
        0.515  -1.01875e-14  -5.95021e-15  -7.39497e-15  -1.02936e-14   5.89161e-15       -1e+300       -1e+300       -1e+300       -1e+300       -1e+300
         0.52   1.12094e-13    1.1614e-13   1.13315e-13   1.11383e-13   9.72353e-14       -1e+300       -1e+300       -1e+300       -1e+300       -1e+300
        0.525   2.40506e-13   2.45297e-13   2.41935e-13   2.36305e-13   2.35152e-13       -1e+300       -1e+300       -1e+300       -1e+300       -1e+300
         0.53   4.57353e-13   4.62457e-13   4.54248e-13   4.56817e-13   4.65003e-13       -1e+300       -1e+300       -1e+300       -1e+300       -1e+300
        0.535  -2.88073e-13  -2.83536e-13  -2.92846e-13   -2.9396e-13  -2.92749e-13       -1e+300       -1e+300       -1e+300       -1e+300       -1e+300
         0.54    1.4335e-13   1.49024e-13   1.41766e-13   1.28735e-13   1.43407e-13       -1e+300       -1e+300       -1e+300       -1e+300       -1e+300
        0.545   4.22408e-13   4.27726e-13   4.23098e-13   4.09504e-13   4.00929e-13       -1e+300       -1e+300       -1e+300       -1e+300       -1e+300
         0.55  -1.24158e-13  -1.19564e-13  -1.22445e-13  -1.17269e-13  -1.03108e-13       -1e+300       -1e+300       -1e+300       -1e+300       -1e+300
        0.555   2.12238e-14   2.74892e-14   2.15556e-14   2.19252e-14    4.3938e-14       -1e+300       -1e+300       -1e+300       -1e+300       -1e+300
         0.56  -6.78107e-13  -6.72271e-13  -6.75213e-13  -6.82397e-13  -7.03187e-13       -1e+300       -1e+300       -1e+300       -1e+300       -1e+300
        0.565   3.38769e-14   3.90317e-14   3.75291e-14   3.36685e-14   2.75315e-14       -1e+300       -1e+300       -1e+300       -1e+300       -1e+300
         0.57  -6.21569e-13  -6.16565e-13   -6.2031e-13  -6.24983e-13  -6.19419e-13       -1e+300       -1e+300       -1e+300       -1e+300       -1e+300
        0.575   4.99673e-13   5.05788e-13   5.03681e-13   5.02577e-13   4.87464e-13       -1e+300       -1e+300       -1e+300       -1e+300       -1e+300
         0.58   9.44102e-14   1.01013e-13   9.73456e-14   8.16614e-14   8.23496e-14       -1e+300       -1e+300       -1e+300       -1e+300       -1e+300
        0.585  -2.50557e-13   -2.4559e-13  -2.55709e-13  -2.50349e-13  -2.40232e-13       -1e+300       -1e+300       -1e+300       -1e+300       -1e+300
         0.59   5.07685e-13   5.13134e-13   5.14032e-13   5.07576e-13   4.99667e-13       -1e+300       -1e+300       -1e+300       -1e+300       -1e+300
        0.595   3.45755e-13   3.50488e-13   3.44117e-13    3.4686e-13   3.39078e-13       -1e+300       -1e+300       -1e+300       -1e+300       -1e+300
          0.6   2.94063e-13   3.01335e-13     2.956e-13   2.85839e-13   2.73131e-13       -1e+300       -1e+300       -1e+300       -1e+300       -1e+300
        0.605  -6.67483e-13   -6.6165e-13  -6.64211e-13  -6.63575e-13  -6.50873e-13       -1e+300       -1e+300       -1e+300       -1e+300       -1e+300
         0.61   5.27362e-13   5.33435e-13   5.29197e-13   5.18142e-13   5.23771e-13       -1e+300       -1e+300       -1e+300       -1e+300       -1e+300
        0.615  -4.79538e-13  -4.75618e-13  -4.76156e-13  -4.79116e-13  -4.85283e-13       -1e+300       -1e+300       -1e+300       -1e+300       -1e+300
         0.62   6.96847e-13   7.01915e-13   7.00634e-13   6.96157e-13   7.07503e-13       -1e+300       -1e+300       -1e+300       -1e+300       -1e+300
        0.625   1.48035e-13   1.50833e-13   1.41564e-13   1.41111e-13   1.47657e-13       -1e+300       -1e+300       -1e+300       -1e+300       -1e+300
         0.63  -2.69948e-13  -2.66969e-13  -2.69638e-13  -2.71796e-13  -2.73953e-13       -1e+300       -1e+300       -1e+300       -1e+300       -1e+300
        0.635  -3.05509e-13  -3.01985e-13  -3.08623e-13  -3.13953e-13  -3.22351e-13       -1e+300       -1e+300       -1e+300       -1e+300       -1e+300
         0.64   2.54875e-13   2.61326e-13   2.57811e-13   2.55868e-13   2.52893e-13       -1e+300       -1e+300       -1e+300       -1e+300       -1e+300
        0.645  -5.00429e-13  -4.93944e-13  -5.00044e-13  -5.00521e-13  -5.04961e-13       -1e+300       -1e+300       -1e+300       -1e+300       -1e+300
         0.65   5.98206e-13   6.03008e-13   5.99236e-13   6.02189e-13   5.90618e-13       -1e+300       -1e+300       -1e+300       -1e+300       -1e+300
        0.655  -9.22134e-13  -9.17036e-13  -9.24731e-13  -9.24119e-13  -9.14262e-13       -1e+300       -1e+300       -1e+300       -1e+300       -1e+300
         0.66  -1.57009e-13  -1.53624e-13  -1.59232e-13  -1.63507e-13  -1.53489e-13       -1e+300       -1e+300       -1e+300       -1e+300       -1e+300
        0.665    8.0727e-14   8.66139e-14   8.32795e-14   8.44196e-14   6.64507e-14       -1e+300       -1e+300       -1e+300       -1e+300       -1e+300
         0.67   7.36124e-14   8.02578e-14   7.65942e-14   7.66495e-14   6.83125e-14       -1e+300       -1e+300       -1e+300       -1e+300       -1e+300
        0.675   2.49887e-14   2.77627e-14   2.10875e-14   1.31734e-14   1.92973e-14       -1e+300       -1e+300       -1e+300       -1e+300       -1e+300
         0.68  -4.15843e-13  -4.10618e-13  -4.08471e-13  -4.09365e-13  -3.98309e-13       -1e+300       -1e+300       -1e+300       -1e+300       -1e+300
        0.685   2.44879e-13   2.51103e-13   2.44785e-13    2.3469e-13    2.0497e-13       -1e+300       -1e+300       -1e+300       -1e+300       -1e+300
         0.69   6.76599e-13   6.79844e-13   6.78585e-13   6.84627e-13   6.92234e-13       -1e+300       -1e+300       -1e+300       -1e+300       -1e+300
        0.695   1.01906e-13   1.07719e-13   1.00315e-13   8.57425e-14   9.41565e-14       -1e+300       -1e+300       -1e+300       -1e+300       -1e+300
          0.7    2.5433e-13   2.57849e-13   2.53486e-13   2.61498e-13    2.6568e-13       -1e+300       -1e+300       -1e+300       -1e+300       -1e+300
        0.705  -5.12063e-13  -5.07433e-13   -5.1475e-13   -5.2373e-13  -5.17508e-13       -1e+300       -1e+300       -1e+300       -1e+300       -1e+300
         0.71  -1.10886e-13  -1.07052e-13  -1.12348e-13  -1.19043e-13  -9.88788e-14       -1e+300       -1e+300       -1e+300       -1e+300       -1e+300
        0.715  -3.13935e-13  -3.09444e-13   -3.1652e-13  -3.23325e-13  -3.19637e-13       -1e+300       -1e+300       -1e+300       -1e+300       -1e+300
         0.72    4.8305e-13   4.86522e-13   4.86077e-13   4.87323e-13   4.91408e-13       -1e+300       -1e+300       -1e+300       -1e+300       -1e+300
        0.725  -3.30559e-13  -3.26867e-13  -3.29321e-13  -3.39687e-13  -3.36261e-13       -1e+300       -1e+300       -1e+300       -1e+300       -1e+300
         0.73  -7.51128e-13  -7.45803e-13  -7.51479e-13   -7.6162e-13  -7.68157e-13       -1e+300       -1e+300       -1e+300       -1e+300       -1e+300
        0.735  -1.53011e-13  -1.48042e-13  -1.52244e-13   -1.6028e-13   -1.3835e-13       -1e+300       -1e+300       -1e+300       -1e+300       -1e+300
         0.74    2.5361e-13   2.58647e-13   2.52901e-13    2.4917e-13   2.41485e-13       -1e+300       -1e+300       -1e+300       -1e+300       -1e+300
        0.745   1.02206e-12   1.02875e-12   1.02276e-12   1.01871e-12   1.02295e-12       -1e+300       -1e+300       -1e+300       -1e+300       -1e+300
         0.75  -1.69003e-13  -1.63683e-13  -1.65063e-13   -1.7742e-13  -1.92401e-13       -1e+300       -1e+300       -1e+300       -1e+300       -1e+300
        0.755   2.90349e-13   2.94625e-13   2.92694e-13   2.96683e-13   3.19049e-13       -1e+300       -1e+300       -1e+300       -1e+300       -1e+300
         0.76   5.48024e-14   5.66194e-14    5.4508e-14   4.88118e-14   3.76083e-14       -1e+300       -1e+300       -1e+300       -1e+300       -1e+300
        0.765   2.97028e-13   3.02922e-13   2.98352e-13   2.95283e-13   2.86063e-13       -1e+300       -1e+300       -1e+300       -1e+300       -1e+300
         0.77   3.85106e-13   3.88744e-13   3.86648e-13   3.81865e-13     3.914e-13       -1e+300       -1e+300       -1e+300       -1e+300       -1e+300
        0.775   2.38327e-13   2.42743e-13    2.3578e-13   2.26118e-13   2.15675e-13       -1e+300       -1e+300       -1e+300       -1e+300       -1e+300
         0.78   4.73197e-13   4.78505e-13   4.75536e-13   4.74771e-13   4.91604e-13       -1e+300       -1e+300       -1e+300       -1e+300       -1e+300
        0.785  -3.90358e-13  -3.83439e-13  -3.86805e-13  -3.90245e-13  -3.98916e-13       -1e+300       -1e+300       -1e+300       -1e+300       -1e+300
         0.79   6.45776e-13   6.47898e-13   6.46086e-13   6.45597e-13   6.46741e-13       -1e+300       -1e+300       -1e+300       -1e+300       -1e+300
        0.795   7.23405e-14   7.71569e-14   6.98905e-14   5.59472e-14   6.76252e-14       -1e+300       -1e+300       -1e+300       -1e+300       -1e+300
          0.8  -1.58069e-13  -1.54194e-13  -1.57849e-13  -1.63629e-13  -1.51749e-13       -1e+300       -1e+300       -1e+300       -1e+300       -1e+300
        0.805  -7.74957e-13  -7.71206e-13  -7.74338e-13  -7.68097e-13  -7.74577e-13       -1e+300       -1e+300       -1e+300       -1e+300       -1e+300
         0.81   2.62947e-13   2.65988e-13   2.59061e-13   2.51789e-13   2.46139e-13       -1e+300       -1e+300       -1e+300       -1e+300       -1e+300
        0.815   1.14885e-13   1.19768e-13   1.16689e-13   1.23108e-13   1.35176e-13       -1e+300       -1e+300       -1e+300       -1e+300       -1e+300
         0.82    9.2486e-13   9.27037e-13   9.20714e-13    9.1324e-13   9.17132e-13       -1e+300       -1e+300       -1e+300       -1e+300       -1e+300
        0.825  -1.74981e-13  -1.69855e-13  -1.73649e-13  -1.73074e-13   -1.6296e-13       -1e+300       -1e+300       -1e+300       -1e+300       -1e+300
         0.83   3.90364e-13   3.92844e-13   3.85937e-13   3.71302e-13   3.82466e-13       -1e+300       -1e+300       -1e+300       -1e+300       -1e+300
        0.835   1.94944e-13   1.99501e-13   1.98128e-13   1.96604e-13   2.05114e-13       -1e+300       -1e+300       -1e+300       -1e+300       -1e+300
         0.84  -1.34105e-12  -1.33789e-12   -1.3384e-12  -1.33652e-12  -1.33148e-12       -1e+300       -1e+300       -1e+300       -1e+300       -1e+300
        0.845   3.86419e-13   3.90862e-13   3.86463e-13   3.81423e-13   3.95466e-13       -1e+300       -1e+300       -1e+300       -1e+300       -1e+300
         0.85  -2.76802e-13  -2.72676e-13  -2.73153e-13  -2.81656e-13  -2.84942e-13       -1e+300       -1e+300       -1e+300       -1e+300       -1e+300
        0.855   6.89927e-13   6.95271e-13   6.93974e-13   6.70687e-13   6.73247e-13       -1e+300       -1e+300       -1e+300       -1e+300       -1e+300
         0.86   -3.7257e-13  -3.66223e-13   -3.6837e-13  -3.74231e-13  -3.68602e-13       -1e+300       -1e+300       -1e+300       -1e+300       -1e+300
        0.865   6.10571e-14   6.51417e-14   5.81525e-14   4.96181e-14   3.98816e-14       -1e+300       -1e+300       -1e+300       -1e+300       -1e+300
         0.87  -2.54976e-13  -2.49698e-13  -2.56697e-13  -2.43174e-13  -2.29249e-13       -1e+300       -1e+300       -1e+300       -1e+300       -1e+300
        0.875   1.11772e-12   1.12145e-12   1.11291e-12   1.10566e-12   1.11169e-12       -1e+300       -1e+300       -1e+300       -1e+300       -1e+300
         0.88   6.17592e-13   6.22528e-13   6.20177e-13   6.19573e-13    6.2047e-13       -1e+300       -1e+300       -1e+300       -1e+300       -1e+300
        0.885  -2.20875e-13  -2.16926e-13  -2.21586e-13  -2.20698e-13  -2.05122e-13       -1e+300       -1e+300       -1e+300       -1e+300       -1e+300
         0.89   7.99561e-13   8.03371e-13   8.03007e-13    7.8783e-13    7.8306e-13       -1e+300       -1e+300       -1e+300       -1e+300       -1e+300
        0.895   4.43786e-14    4.8559e-14    4.8389e-14   4.52481e-14   6.27799e-14       -1e+300       -1e+300       -1e+300       -1e+300       -1e+300
          0.9   4.77677e-13   4.81596e-13   4.72848e-13   4.73843e-13   4.65014e-13       -1e+300       -1e+300       -1e+300       -1e+300       -1e+300
        0.905   3.10564e-13   3.15058e-13   3.08748e-13   3.03576e-13   3.08062e-13       -1e+300       -1e+300       -1e+300       -1e+300       -1e+300
         0.91    3.5908e-13   3.62922e-13   3.58547e-13   3.61186e-13   3.64121e-13       -1e+300       -1e+300       -1e+300       -1e+300       -1e+300
        0.915  -8.42808e-13  -8.38072e-13  -8.43829e-13  -8.58095e-13  -8.47605e-13       -1e+300       -1e+300       -1e+300       -1e+300       -1e+300
         0.92   3.97942e-13   4.02935e-13   3.97941e-13   3.84438e-13   3.90238e-13       -1e+300       -1e+300       -1e+300       -1e+300       -1e+300
        0.925  -9.78725e-14  -9.34585e-14  -9.88001e-14  -1.03531e-13  -9.67211e-14       -1e+300       -1e+300       -1e+300       -1e+300       -1e+300
         0.93   9.55782e-13   9.62055e-13   9.61509e-13   9.59582e-13   9.53434e-13       -1e+300       -1e+300       -1e+300       -1e+300       -1e+300
        0.935  -6.47346e-13   -6.4509e-13  -6.49135e-13  -6.52475e-13  -6.52545e-13       -1e+300       -1e+300       -1e+300       -1e+300       -1e+300
         0.94  -5.79917e-14   -5.5016e-14  -5.50457e-14  -5.34182e-14  -6.16142e-14       -1e+300       -1e+300       -1e+300       -1e+300       -1e+300
        0.945  -4.15991e-13  -4.11956e-13  -4.14282e-13  -4.10521e-13  -3.98085e-13       -1e+300       -1e+300       -1e+300       -1e+300       -1e+300
         0.95  -2.00983e-13   -1.9881e-13  -2.05746e-13  -2.05628e-13  -2.08487e-13       -1e+300       -1e+300       -1e+300       -1e+300       -1e+300
        0.955   6.45232e-13   6.49641e-13    6.4832e-13   6.47999e-13   6.45528e-13       -1e+300       -1e+300       -1e+300       -1e+300       -1e+300