# Probe 0 (5 0.5 0.05)
#       Probe             0
#        Time
        0.005             (1.01015 -4.38917e-17 0)
         0.01             (1.01742 3.93336e-16 0)
        0.015             (1.02289 5.08748e-16 0)
         0.02             (1.02738 2.64426e-16 0)
        0.025             (1.03125 1.05597e-16 0)
         0.03             (1.03472 7.60411e-17 0)
        0.035             (1.03789 -1.41191e-16 0)
         0.04             (1.04082 -9.23228e-17 0)
        0.045             (1.04358 -1.93944e-16 0)
         0.05             (1.04619 -2.35976e-16 0)
        0.055             (1.04867 -1.06742e-16 0)
         0.06             (1.05104 -1.58257e-16 0)
        0.065             (1.05332 -1.8179e-16 0)
         0.07             (1.05551 -1.61715e-16 0)
        0.075             (1.05763 -2.52513e-16 0)
         0.08             (1.05969 -2.63661e-16 0)
        0.085             (1.06168 -3.02039e-16 0)
         0.09             (1.06362 -2.74958e-16 0)
        0.095             (1.06552 -2.87303e-16 0)
          0.1             (1.06736 -3.60536e-16 0)
        0.105             (1.06917 -3.33722e-16 0)
         0.11             (1.07093 -3.74792e-16 0)
        0.115             (1.07266 -3.73763e-16 0)
         0.12             (1.07435 -3.30863e-16 0)
        0.125             (1.07602 -3.11147e-16 0)
         0.13             (1.07765 -2.92243e-16 0)
        0.135             (1.07925 -3.56408e-16 0)
         0.14             (1.08083 -3.58771e-16 0)
        0.145             (1.08238 -4.37879e-16 0)
         0.15             (1.08391 -4.43036e-16 0)
        0.155             (1.08542 -4.94177e-16 0)
         0.16             (1.08691 -5.48666e-16 0)
        0.165             (1.08837 -6.72591e-16 0)
         0.17             (1.08982 -6.35539e-16 0)
        0.175             (1.09125 -5.75133e-16 0)
         0.18             (1.09265 -5.93416e-16 0)
        0.185             (1.09405 -6.70742e-16 0)
         0.19             (1.09542 -7.1726e-16 0)
        0.195             (1.09678 -7.36951e-16 0)
          0.2             (1.09813 -7.18164e-16 0)
        0.205             (1.09946 -7.80664e-16 0)
         0.21             (1.10078 -7.25634e-16 0)
        0.215             (1.10208 -7.1941e-16 0)
         0.22             (1.10337 -7.11561e-16 0)
        0.225             (1.10465 -7.71282e-16 0)
         0.23             (1.10592 -6.93602e-16 0)
        0.235             (1.10717 -6.75344e-16 0)
         0.24             (1.10842 -6.0233e-16 0)
        0.245             (1.10965 -6.4675e-16 0)
         0.25             (1.11087 -6.513e-16 0)
        0.255             (1.11208 -5.80739e-16 0)
         0.26             (1.11329 -5.94378e-16 0)
        0.265             (1.11448 -5.55621e-16 0)
         0.27             (1.11566 -5.88575e-16 0)
        0.275             (1.11683 -5.28129e-16 0)
         0.28             (1.118 -5.09896e-16 0)
        0.285             (1.11916 -5.46721e-16 0)
         0.29             (1.1203 -6.00085e-16 0)
        0.295             (1.12144 -4.99594e-16 0)
          0.3             (1.12257 -5.47638e-16 0)
        0.305             (1.1237 -4.81067e-16 0)
         0.31             (1.12482 -4.98983e-16 0)
        0.315             (1.12592 -5.68915e-16 0)
         0.32             (1.12703 -5.97189e-16 0)
        0.325             (1.12812 -5.3084e-16 0)
         0.33             (1.12921 -5.08489e-16 0)
        0.335             (1.13029 -5.58095e-16 0)
         0.34             (1.13137 -6.78024e-16 0)
        0.345             (1.13243 -6.77124e-16 0)
         0.35             (1.1335 -6.77933e-16 0)
        0.355             (1.13455 -6.47094e-16 0)
         0.36             (1.1356 -7.03153e-16 0)
        0.365             (1.13665 -7.48177e-16 0)
         0.37             (1.13769 -7.22972e-16 0)
        0.375             (1.13872 -7.44412e-16 0)
         0.38             (1.13975 -7.00665e-16 0)
        0.385             (1.14077 -7.24953e-16 0)
         0.39             (1.14179 -7.47702e-16 0)
        0.395             (1.1428 -6.60815e-16 0)
          0.4             (1.14381 -6.9388e-16 0)
        0.405             (1.14481 -6.41197e-16 0)
         0.41             (1.1458 -6.58534e-16 0)
        0.415             (1.1468 -5.03834e-16 0)
         0.42             (1.14778 -6.57347e-16 0)
        0.425             (1.14877 -5.15408e-16 0)
         0.43             (1.14975 -4.71203e-16 0)
        0.435             (1.15072 -4.64015e-16 0)
         0.44             (1.15169 -4.44445e-16 0)
        0.445             (1.15265 -4.13582e-16 0)
         0.45             (1.15362 -4.76002e-16 0)
        0.455             (1.15457 -5.12605e-16 0)
         0.46             (1.15552 -3.29322e-16 0)
        0.465             (1.15647 -3.99478e-16 0)
         0.47             (1.15742 -3.34549e-16 0)
        0.475             (1.15836 -2.99028e-16 0)
         0.48             (1.1593 -3.43927e-16 0)
        0.485             (1.16023 -3.01449e-16 0)
         0.49             (1.16116 -2.70594e-16 0)
        0.495             (1.16209 -3.06157e-16 0)
          0.5             (1.16301 -2.56688e-16 0)
        0.505             (1.16393 -2.46041e-16 0)
         0.51             (1.16484 -2.68427e-16 0)
        0.515             (1.16576 -2.58665e-16 0)
         0.52             (1.16667 -2.25769e-16 0)
        0.525             (1.16757 -2.08453e-16 0)
         0.53             (1.16847 -2.603e-16 0)
        0.535             (1.16937 -2.35556e-16 0)
         0.54             (1.17027 -1.54715e-16 0)
        0.545             (1.17116 -2.33638e-16 0)
         0.55             (1.17205 -2.70954e-16 0)
        0.555             (1.17294 -2.26488e-16 0)
         0.56             (1.17382 -2.64397e-16 0)
        0.565             (1.1747 -3.23045e-16 0)
         0.57             (1.17558 -2.65806e-16 0)
        0.575             (1.17646 -2.42519e-16 0)
         0.58             (1.17733 -2.65771e-16 0)
        0.585             (1.1782 -2.67812e-16 0)
         0.59             (1.17906 -1.88e-16 0)
        0.595             (1.17993 -2.25565e-16 0)
          0.6             (1.18079 -2.81704e-16 0)
        0.605             (1.18165 -2.64924e-16 0)
         0.61             (1.1825 -3.37747e-16 0)
        0.615             (1.18336 -3.4948e-16 0)
         0.62             (1.18421 -2.76253e-16 0)
        0.625             (1.18506 -3.48306e-16 0)
         0.63             (1.1859 -3.12638e-16 0)
        0.635             (1.18675 -2.11964e-16 0)
         0.64             (1.18759 -2.79369e-16 0)
        0.645             (1.18843 -3.4353e-16 0)
         0.65             (1.18926 -3.61943e-16 0)
        0.655             (1.1901 -3.53853e-16 0)
         0.66             (1.19093 -3.38027e-16 0)
        0.665             (1.19176 -3.42663e-16 0)
         0.67             (1.19258 -4.23363e-16 0)
        0.675             (1.19341 -4.96979e-16 0)
         0.68             (1.19423 -5.70766e-16 0)
        0.685             (1.19505 -4.07009e-16 0)
         0.69             (1.19587 -4.15347e-16 0)
        0.695             (1.19669 -4.76737e-16 0)
          0.7             (1.1975 -4.05593e-16 0)
        0.705             (1.19831 -5.1725e-16 0)
         0.71             (1.19912 -5.08871e-16 0)
        0.715             (1.19993 -4.53882e-16 0)
         0.72             (1.20073 -5.15486e-16 0)
        0.725             (1.20154 -5.54502e-16 0)
         0.73             (1.20234 -5.06002e-16 0)
        0.735             (1.20314 -5.59904e-16 0)
         0.74             (1.20393 -6.38329e-16 0)
        0.745             (1.20473 -5.96094e-16 0)
         0.75             (1.20552 -6.7208e-16 0)
        0.755             (1.20632 -8.10067e-16 0)
         0.76             (1.20711 -8.51612e-16 0)
        0.765             (1.20789 -8.83469e-16 0)
         0.77             (1.20868 -8.40968e-16 0)
        0.775             (1.20946 -8.59099e-16 0)
         0.78             (1.21025 -8.95523e-16 0)
        0.785             (1.21103 -9.58813e-16 0)
         0.79             (1.2118 -1.01135e-15 0)
        0.795             (1.21258 -1.02783e-15 0)
          0.8             (1.21336 -1.03956e-15 0)
        0.805             (1.21413 -9.93401e-16 0)
         0.81             (1.2149 -9.90048e-16 0)
        0.815             (1.21567 -1.0239e-15 0)
         0.82             (1.21644 -9.81503e-16 0)
        0.825             (1.21721 -9.41016e-16 0)
         0.83             (1.21797 -9.70245e-16 0)
        0.835             (1.21873 -9.85772e-16 0)
         0.84             (1.21949 -9.19482e-16 0)
        0.845             (1.22025 -8.91268e-16 0)
         0.85             (1.22101 -8.4289e-16 0)
        0.855             (1.22177 -8.92222e-16 0)
         0.86             (1.22252 -8.43633e-16 0)
        0.865             (1.22327 -8.76398e-16 0)
         0.87             (1.22403 -8.86185e-16 0)
        0.875             (1.22478 -1.02424e-15 0)
         0.88             (1.22552 -9.46019e-16 0)
        0.885             (1.22627 -1.06167e-15 0)
         0.89             (1.22702 -9.46553e-16 0)
        0.895             (1.22776 -9.75994e-16 0)
          0.9             (1.2285 -1.0112e-15 0)
        0.905             (1.22924 -1.07396e-15 0)
         0.91             (1.22998 -1.12267e-15 0)
        0.915             (1.23072 -1.03336e-15 0)
         0.92             (1.23145 -9.34414e-16 0)
        0.925             (1.23219 -8.89943e-16 0)
         0.93             (1.23292 -8.9038e-16 0)
        0.935             (1.23365 -8.89674e-16 0)
         0.94             (1.23438 -9.86252e-16 0)
        0.945             (1.23511 -9.83606e-16 0)
         0.95             (1.23583 -9.56729e-16 0)
        0.955             (1.23656 -8.53117e-16 0)
         0.96             (1.23728 -7.56747e-16 0)
        0.965             (1.238 -7.16716e-16 0)
         0.97             (1.23872 -5.81089e-16 0)
        0.975             (1.23944 -5.78497e-16 0)
         0.98             (1.24016 -6.25609e-16 0)
        0.985             (1.24088 -5.92548e-16 0)
         0.99             (1.24159 -5.95385e-16 0)
        0.995             (1.2423 -5.98574e-16 0)
            1             (1.24302 -6.05366e-16 0)
        1.005             (1.24373 -7.08491e-16 0)
         1.01             (1.24444 -6.62189e-16 0)
        1.015             (1.24514 -7.24964e-16 0)
         1.02             (1.24585 -6.29923e-16 0)
        1.025             (1.24655 -6.75638e-16 0)
         1.03             (1.24726 -6.32386e-16 0)
        1.035             (1.24796 -7.2702e-16 0)
         1.04             (1.24866 -6.96004e-16 0)
        1.045             (1.24936 -6.10381e-16 0)
         1.05             (1.25006 -5.21789e-16 0)
        1.055             (1.25075 -6.64616e-16 0)
         1.06             (1.25145 -7.42906e-16 0)
        1.065             (1.25214 -6.98042e-16 0)
         1.07             (1.25283 -6.8964e-16 0)
        1.075             (1.25352 -6.54882e-16 0)
         1.08             (1.25421 -6.32788e-16 0)
        1.085             (1.2549 -6.32078e-16 0)
         1.09             (1.25559 -6.73201e-16 0)
        1.095             (1.25627 -7.62298e-16 0)
          1.1             (1.25695 -7.69837e-16 0)
        1.105             (1.25764 -6.25327e-16 0)
         1.11             (1.25832 -5.19964e-16 0)
        1.115             (1.259 -3.78447e-16 0)
         1.12             (1.25967 -3.68967e-16 0)
        1.125             (1.26035 -4.62102e-16 0)
         1.13             (1.26103 -4.99832e-16 0)
        1.135             (1.2617 -4.40552e-16 0)
         1.14             (1.26237 -4.55361e-16 0)
        1.145             (1.26304 -4.22039e-16 0)
         1.15             (1.26371 -2.85725e-16 0)
        1.155             (1.26438 -1.34915e-16 0)
         1.16             (1.26505 -1.09057e-16 0)
        1.165             (1.26572 -1.795e-16 0)
         1.17             (1.26638 -1.29275e-16 0)
        1.175             (1.26704 -2.34782e-16 0)
         1.18             (1.2677 -2.21859e-16 0)
        1.185             (1.26836 -2.40933e-16 0)
         1.19             (1.26902 -2.14558e-16 0)
        1.195             (1.26968 -3.08525e-16 0)
          1.2             (1.27034 -2.55379e-16 0)
        1.205             (1.27099 -2.53902e-16 0)
         1.21             (1.27165 -1.95467e-16 0)
        1.215             (1.2723 -1.42945e-16 0)
         1.22             (1.27295 -2.38596e-16 0)
        1.225             (1.2736 -2.18044e-16 0)
         1.23             (1.27425 -1.83727e-16 0)
        1.235             (1.27489 -2.12679e-16 0)
         1.24             (1.27554 -1.76976e-16 0)
        1.245             (1.27618 -2.2606e-16 0)
         1.25             (1.27683 -2.1033e-16 0)
        1.255             (1.27747 -2.38213e-16 0)
         1.26             (1.27811 -2.41729e-16 0)
        1.265             (1.27875 -2.26088e-16 0)
         1.27             (1.27938 -2.97162e-16 0)
        1.275             (1.28002 -3.2601e-16 0)
         1.28             (1.28065 -3.28742e-16 0)
        1.285             (1.28129 -2.98726e-16 0)
         1.29             (1.28192 -2.65043e-16 0)
        1.295             (1.28255 -3.72299e-16 0)
          1.3             (1.28318 -3.20191e-16 0)
        1.305             (1.28381 -3.73863e-16 0)
         1.31             (1.28443 -2.83849e-16 0)
        1.315             (1.28506 -4.1994e-16 0)
         1.32             (1.28568 -3.63695e-16 0)
        1.325             (1.28631 -5.03167e-16 0)
         1.33             (1.28693 -4.64304e-16 0)
        1.335             (1.28755 -4.27435e-16 0)
         1.34             (1.28817 -3.68096e-16 0)
        1.345             (1.28878 -5.01387e-16 0)
         1.35             (1.2894 -4.32968e-16 0)
        1.355             (1.29001 -4.76915e-16 0)
         1.36             (1.29063 -5.32463e-16 0)
        1.365             (1.29124 -5.62352e-16 0)
         1.37             (1.29185 -5.49588e-16 0)
        1.375             (1.29246 -4.83296e-16 0)
         1.38             (1.29307 -5.45293e-16 0)
        1.385             (1.29367 -5.83523e-16 0)
         1.39             (1.29428 -5.78024e-16 0)
        1.395             (1.29488 -5.65371e-16 0)
          1.4             (1.29548 -6.79679e-16 0)
        1.405             (1.29609 -7.21873e-16 0)
         1.41             (1.29669 -7.06503e-16 0)
        1.415             (1.29728 -7.75537e-16 0)
         1.42             (1.29788 -7.15432e-16 0)
        1.425             (1.29848 -8.50261e-16 0)
         1.43             (1.29907 -9.48425e-16 0)
        1.435             (1.29966 -9.14715e-16 0)
         1.44             (1.30026 -9.25169e-16 0)
        1.445             (1.30085 -9.54712e-16 0)
         1.45             (1.30144 -9.3359e-16 0)
        1.455             (1.30202 -9.72585e-16 0)
         1.46             (1.30261 -1.02541e-15 0)
        1.465             (1.3032 -1.10328e-15 0)
         1.47             (1.30378 -1.24414e-15 0)
        1.475             (1.30436 -1.21282e-15 0)
         1.48             (1.30494 -1.34273e-15 0)
        1.485             (1.30552 -1.36126e-15 0)
         1.49             (1.3061 -1.30294e-15 0)
        1.495             (1.30668 -1.33907e-15 0)
          1.5             (1.30725 -1.40124e-15 0)
        1.505             (1.30783 -1.48763e-15 0)
         1.51             (1.3084 -1.40309e-15 0)
        1.515             (1.30897 -1.35205e-15 0)
         1.52             (1.30954 -1.3809e-15 0)
        1.525             (1.31011 -1.42291e-15 0)
         1.53             (1.31068 -1.45831e-15 0)
        1.535             (1.31125 -1.46266e-15 0)
         1.54             (1.31181 -1.57961e-15 0)
        1.545             (1.31238 -1.61582e-15 0)
         1.55             (1.31294 -1.58707e-15 0)
        1.555             (1.3135 -1.56422e-15 0)
         1.56             (1.31406 -1.62861e-15 0)
        1.565             (1.31462 -1.61799e-15 0)
         1.57             (1.31517 -1.62745e-15 0)
        1.575             (1.31573 -1.62673e-15 0)
         1.58             (1.31628 -1.68056e-15 0)
        1.585             (1.31684 -1.53275e-15 0)
         1.59             (1.31739 -1.47192e-15 0)
        1.595             (1.31794 -1.54086e-15 0)
          1.6             (1.31849 -1.52139e-15 0)
        1.605             (1.31904 -1.70544e-15 0)
         1.61             (1.31958 -1.60797e-15 0)
        1.615             (1.32013 -1.56654e-15 0)
         1.62             (1.32067 -1.62465e-15 0)
        1.625             (1.32121 -1.66487e-15 0)
         1.63             (1.32176 -1.7187e-15 0)
        1.635             (1.3223 -1.66748e-15 0)
         1.64             (1.32283 -1.78377e-15 0)
        1.645             (1.32337 -1.70112e-15 0)
         1.65             (1.32391 -1.73842e-15 0)
        1.655             (1.32444 -1.68085e-15 0)
         1.66             (1.32497 -1.69224e-15 0)
        1.665             (1.32551 -1.61885e-15 0)
         1.67             (1.32604 -1.65333e-15 0)
        1.675             (1.32657 -1.62618e-15 0)
         1.68             (1.32709 -1.59437e-15 0)
        1.685             (1.32762 -1.69491e-15 0)
         1.69             (1.32815 -1.70305e-15 0)
        1.695             (1.32867 -1.73452e-15 0)
          1.7             (1.32919 -1.7861e-15 0)
        1.705             (1.32971 -1.75652e-15 0)
         1.71             (1.33023 -1.75395e-15 0)
        1.715             (1.33075 -1.7099e-15 0)
         1.72             (1.33127 -1.8124e-15 0)
        1.725             (1.33179 -1.65626e-15 0)
         1.73             (1.3323 -1.65608e-15 0)
        1.735             (1.33282 -1.64087e-15 0)
         1.74             (1.33333 -1.70748e-15 0)
        1.745             (1.33384 -1.70002e-15 0)
         1.75             (1.33435 -1.69694e-15 0)
        1.755             (1.33486 -1.62441e-15 0)
         1.76             (1.33536 -1.58511e-15 0)
        1.765             (1.33587 -1.56894e-15 0)
         1.77             (1.33637 -1.58223e-15 0)
        1.775             (1.33688 -1.54526e-15 0)
         1.78             (1.33738 -1.48322e-15 0)
        1.785             (1.33788 -1.481e-15 0)
         1.79             (1.33838 -1.47386e-15 0)
        1.795             (1.33888 -1.52436e-15 0)
          1.8             (1.33937 -1.51843e-15 0)
        1.805             (1.33987 -1.59326e-15 0)
         1.81             (1.34036 -1.61282e-15 0)
        1.815             (1.34085 -1.47179e-15 0)
         1.82             (1.34135 -1.61912e-15 0)
        1.825             (1.34184 -1.5723e-15 0)
         1.83             (1.34233 -1.45433e-15 0)
        1.835             (1.34281 -1.40725e-15 0)
         1.84             (1.3433 -1.55958e-15 0)
        1.845             (1.34378 -1.57568e-15 0)
         1.85             (1.34427 -1.51784e-15 0)
        1.855             (1.34475 -1.63989e-15 0)
         1.86             (1.34523 -1.48082e-15 0)
        1.865             (1.34571 -1.50584e-15 0)
         1.87             (1.34619 -1.55579e-15 0)
        1.875             (1.34667 -1.6094e-15 0)
         1.88             (1.34714 -1.78187e-15 0)
        1.885             (1.34762 -1.8182e-15 0)
         1.89             (1.34809 -1.71091e-15 0)
        1.895             (1.34856 -1.60237e-15 0)
          1.9             (1.34904 -1.4655e-15 0)
        1.905             (1.34951 -1.48153e-15 0)
         1.91             (1.34997 -1.45586e-15 0)
        1.915             (1.35044 -1.36097e-15 0)
         1.92             (1.35091 -1.34912e-15 0)
        1.925             (1.35137 -1.37288e-15 0)
         1.93             (1.35184 -1.22496e-15 0)
        1.935             (1.3523 -1.33472e-15 0)
         1.94             (1.35276 -1.37826e-15 0)
        1.945             (1.35322 -1.35008e-15 0)
         1.95             (1.35368 -1.34545e-15 0)
        1.955             (1.35413 -1.35334e-15 0)
         1.96             (1.35459 -1.437e-15 0)
        1.965             (1.35504 -1.3776e-15 0)
         1.97             (1.3555 -1.42024e-15 0)
        1.975             (1.35595 -1.34355e-15 0)
         1.98             (1.3564 -1.3877e-15 0)
        1.985             (1.35685 -1.33139e-15 0)
         1.99             (1.3573 -1.41176e-15 0)
        1.995             (1.35775 -1.52026e-15 0)
            2             (1.35819 -1.57143e-15 0)
        2.005             (1.35864 -1.63447e-15 0)
         2.01             (1.35908 -1.60877e-15 0)
        2.015             (1.35952 -1.63913e-15 0)
         2.02             (1.35996 -1.61238e-15 0)
        2.025             (1.3604 -1.58159e-15 0)
         2.03             (1.36084 -1.62268e-15 0)
        2.035             (1.36128 -1.82899e-15 0)
         2.04             (1.36172 -1.84347e-15 0)
        2.045             (1.36215 -1.88626e-15 0)
         2.05             (1.36259 -1.84945e-15 0)
        2.055             (1.36302 -1.88012e-15 0)
         2.06             (1.36345 -1.92629e-15 0)
        2.065             (1.36388 -1.89275e-15 0)
         2.07             (1.36431 -1.97395e-15 0)
        2.075             (1.36474 -2.04258e-15 0)
         2.08             (1.36516 -1.97953e-15 0)
        2.085             (1.36559 -2.00126e-15 0)
         2.09             (1.36601 -2.05756e-15 0)
        2.095             (1.36644 -2.00758e-15 0)
          2.1             (1.36686 -1.99343e-15 0)
        2.105             (1.36728 -2.05368e-15 0)
         2.11             (1.3677 -2.03857e-15 0)
        2.115             (1.36812 -1.89414e-15 0)
         2.12             (1.36853 -1.96777e-15 0)
        2.125             (1.36895 -2.01677e-15 0)
         2.13             (1.36936 -1.92725e-15 0)
        2.135             (1.36978 -2.02417e-15 0)
         2.14             (1.37019 -2.06289e-15 0)
        2.145             (1.3706 -2.04532e-15 0)
         2.15             (1.37101 -2.00621e-15 0)
        2.155             (1.37142 -2.0064e-15 0)
         2.16             (1.37183 -1.94859e-15 0)
        2.165             (1.37223 -1.92487e-15 0)
         2.17             (1.37264 -1.86483e-15 0)
        2.175             (1.37304 -1.93262e-15 0)
         2.18             (1.37345 -2.00331e-15 0)
        2.185             (1.37385 -2.02493e-15 0)
         2.19             (1.37425 -1.99853e-15 0)
        2.195             (1.37465 -1.97436e-15 0)
          2.2             (1.37505 -1.9471e-15 0)
        2.205             (1.37544 -1.89128e-15 0)
         2.21             (1.37584 -1.87839e-15 0)
        2.215             (1.37624 -1.91436e-15 0)
         2.22             (1.37663 -1.90582e-15 0)
        2.225             (1.37702 -1.82881e-15 0)
         2.23             (1.37741 -1.80684e-15 0)
        2.235             (1.3778 -1.79995e-15 0)
         2.24             (1.37819 -1.7971e-15 0)
        2.245             (1.37858 -1.81368e-15 0)
         2.25             (1.37897 -1.87207e-15 0)
        2.255             (1.37935 -1.79593e-15 0)
         2.26             (1.37974 -1.85429e-15 0)
        2.265             (1.38012 -1.79267e-15 0)
         2.27             (1.3805 -1.85826e-15 0)
        2.275             (1.38089 -1.96158e-15 0)
         2.28             (1.38127 -1.91862e-15 0)
        2.285             (1.38165 -1.94923e-15 0)
         2.29             (1.38202 -1.951e-15 0)
        2.295             (1.3824 -1.9384e-15 0)
          2.3             (1.38278 -1.89519e-15 0)
        2.305             (1.38315 -1.86867e-15 0)
         2.31             (1.38352 -1.80779e-15 0)
        2.315             (1.3839 -1.75293e-15 0)
         2.32             (1.38427 -1.74358e-15 0)
        2.325             (1.38464 -1.82799e-15 0)
         2.33             (1.38501 -1.80706e-15 0)
        2.335             (1.38538 -1.85967e-15 0)
         2.34             (1.38574 -1.83784e-15 0)
        2.345             (1.38611 -1.85866e-15 0)
         2.35             (1.38647 -1.83534e-15 0)
        2.355             (1.38684 -1.75931e-15 0)
         2.36             (1.3872 -1.69742e-15 0)
        2.365             (1.38756 -1.76268e-15 0)
         2.37             (1.38792 -1.78604e-15 0)
        2.375             (1.38828 -1.70646e-15 0)
         2.38             (1.38864 -1.72817e-15 0)
        2.385             (1.389 -1.66625e-15 0)
         2.39             (1.38935 -1.70948e-15 0)
        2.395             (1.38971 -1.70499e-15 0)
          2.4             (1.39006 -1.77592e-15 0)
        2.405             (1.39042 -1.78152e-15 0)
         2.41             (1.39077 -1.89725e-15 0)
        2.415             (1.39112 -1.87752e-15 0)
         2.42             (1.39147 -1.90754e-15 0)
        2.425             (1.39182 -1.95992e-15 0)
         2.43             (1.39217 -1.96701e-15 0)
        2.435             (1.39251 -1.88107e-15 0)
         2.44             (1.39286 -1.89886e-15 0)
        2.445             (1.3932 -1.8247e-15 0)
         2.45             (1.39355 -1.87832e-15 0)
        2.455             (1.39389 -1.83541e-15 0)
         2.46             (1.39423 -1.85715e-15 0)
        2.465             (1.39457 -1.96389e-15 0)
         2.47             (1.39491 -1.98245e-15 0)
        2.475             (1.39525 -1.9482e-15 0)
         2.48             (1.39559 -1.95736e-15 0)
        2.485             (1.39592 -1.97091e-15 0)
         2.49             (1.39626 -1.97344e-15 0)
        2.495             (1.39659 -2.05214e-15 0)
          2.5             (1.39693 -1.94194e-15 0)
        2.505             (1.39726 -1.88214e-15 0)
         2.51             (1.39759 -1.8613e-15 0)
        2.515             (1.39792 -1.85721e-15 0)
         2.52             (1.39825 -1.88609e-15 0)
        2.525             (1.39858 -1.91321e-15 0)
         2.53             (1.39891 -2.08328e-15 0)
        2.535             (1.39923 -2.16728e-15 0)
         2.54             (1.39956 -2.12822e-15 0)
        2.545             (1.39988 -2.08624e-15 0)
         2.55             (1.40021 -2.16857e-15 0)
        2.555             (1.40053 -2.23446e-15 0)
         2.56             (1.40085 -2.28599e-15 0)
        2.565             (1.40117 -2.32378e-15 0)
         2.57             (1.40149 -2.25232e-15 0)
        2.575             (1.40181 -2.29604e-15 0)
         2.58             (1.40212 -2.14266e-15 0)
        2.585             (1.40244 -2.23063e-15 0)
         2.59             (1.40276 -2.11499e-15 0)
        2.595             (1.40307 -2.09477e-15 0)
          2.6             (1.40339 -2.17292e-15 0)
        2.605             (1.4037 -2.07289e-15 0)
         2.61             (1.40401 -2.16218e-15 0)
        2.615             (1.40432 -2.32566e-15 0)
         2.62             (1.40463 -2.17385e-15 0)
        2.625             (1.40494 -2.29671e-15 0)
         2.63             (1.40525 -2.30416e-15 0)
        2.635             (1.40555 -2.24121e-15 0)
         2.64             (1.40586 -2.2674e-15 0)
        2.645             (1.40617 -2.34409e-15 0)
         2.65             (1.40647 -2.31545e-15 0)
        2.655             (1.40677 -2.32031e-15 0)
         2.66             (1.40708 -2.29475e-15 0)
        2.665             (1.40738 -2.26744e-15 0)
         2.67             (1.40768 -2.38016e-15 0)
        2.675             (1.40798 -2.41685e-15 0)
         2.68             (1.40827 -2.45096e-15 0)
        2.685             (1.40857 -2.31237e-15 0)
         2.69             (1.40887 -2.39476e-15 0)
        2.695             (1.40917 -2.42325e-15 0)
          2.7             (1.40946 -2.44676e-15 0)
        2.705             (1.40975 -2.41856e-15 0)
         2.71             (1.41005 -2.447e-15 0)
        2.715             (1.41034 -2.34582e-15 0)
         2.72             (1.41063 -2.36324e-15 0)
        2.725             (1.41092 -2.36938e-15 0)
         2.73             (1.41121 -2.28354e-15 0)
        2.735             (1.4115 -2.25725e-15 0)
         2.74             (1.41179 -2.22283e-15 0)
        2.745             (1.41207 -2.24662e-15 0)
         2.75             (1.41236 -2.12751e-15 0)
        2.755             (1.41264 -2.21804e-15 0)
         2.76             (1.41293 -2.16503e-15 0)
        2.765             (1.41321 -2.22219e-15 0)
         2.77             (1.41349 -2.16143e-15 0)
        2.775             (1.41377 -2.11918e-15 0)
         2.78             (1.41406 -2.12694e-15 0)
        2.785             (1.41433 -2.05561e-15 0)
         2.79             (1.41461 -2.03233e-15 0)
        2.795             (1.41489 -2.0739e-15 0)
          2.8             (1.41517 -2.09531e-15 0)
        2.805             (1.41544 -2.12521e-15 0)
         2.81             (1.41572 -2.05663e-15 0)
        2.815             (1.41599 -2.00688e-15 0)
         2.82             (1.41627 -1.96694e-15 0)
        2.825             (1.41654 -1.97244e-15 0)
         2.83             (1.41681 -1.9701e-15 0)
        2.835             (1.41708 -1.88957e-15 0)
         2.84             (1.41735 -1.97031e-15 0)
        2.845             (1.41762 -1.95015e-15 0)
         2.85             (1.41789 -2.04669e-15 0)
        2.855             (1.41816 -2.06934e-15 0)
         2.86             (1.41843 -2.07495e-15 0)
        2.865             (1.41869 -2.09761e-15 0)
         2.87             (1.41896 -2.06261e-15 0)
        2.875             (1.41922 -2.08988e-15 0)
         2.88             (1.41949 -1.95366e-15 0)
        2.885             (1.41975 -1.9367e-15 0)
         2.89             (1.42001 -1.96968e-15 0)
        2.895             (1.42027 -1.98279e-15 0)
          2.9             (1.42053 -1.92894e-15 0)
        2.905             (1.42079 -1.88427e-15 0)
         2.91             (1.42105 -1.859e-15 0)
        2.915             (1.42131 -1.86539e-15 0)
         2.92             (1.42156 -1.87057e-15 0)
        2.925             (1.42182 -1.72991e-15 0)
         2.93             (1.42207 -1.68195e-15 0)
        2.935             (1.42233 -1.73905e-15 0)
         2.94             (1.42258 -1.75308e-15 0)
        2.945             (1.42284 -1.7062e-15 0)