# Probe 0 (2 0 0.05)
# Probe 1 (2 0.05 0.05)
# Probe 2 (2 0.1 0.05)
# Probe 3 (2 0.2 0.05)
# Probe 4 (2 0.4 0.05)
# Probe 5 (2 0.6 0.05)
# Probe 6 (2 0.8 0.05)
# Probe 7 (2 0.9 0.05)
# Probe 8 (2 0.95 0.05)
# Probe 9 (2 1 0.05)
#       Probe             0             1             2             3             4             5             6             7             8             9
#        Time
        0.005             (0.690418 5.2923e-17 0)             (1.00912 -6.40632e-16 0)             (1.00912 -1.66324e-16 0)             (1.00912 -3.70337e-17 0)             (1.00912 -5.71876e-16 0)             (1.00912 2.41199e-16 0)             (1.00912 7.39711e-17 0)             (1.00912 5.9902e-16 0)             (1.00912 6.32375e-16 0)             (0.690418 8.70757e-16 0)
         0.01             (0.509054 -2.44275e-16 0)             (1.01393 1.10597e-15 0)             (1.01625 -1.52305e-16 0)             (1.01625 -5.89468e-16 0)             (1.01625 7.30787e-16 0)             (1.01625 -3.48303e-16 0)             (1.01625 8.9528e-16 0)             (1.01625 2.72025e-16 0)             (1.01607 6.89368e-16 0)             (0.509054 2.92076e-15 0)
        0.015             (0.40245 1.1144e-16 0)             (1.01304 6.21056e-16 0)             (1.02181 -3.00694e-16 0)             (1.02181 -5.20515e-16 0)             (1.02181 3.98706e-16 0)             (1.02181 -3.96813e-16 0)             (1.02181 6.82637e-16 0)             (1.02181 5.74005e-16 0)             (1.02053 9.92876e-16 0)             (0.40245 2.05564e-15 0)
         0.02             (0.336112 1.38857e-16 0)             (1.00724 3.71965e-16 0)             (1.0264 -2.25274e-16 0)             (1.02641 -2.37886e-16 0)             (1.02641 2.47538e-16 0)             (1.02641 -1.67462e-16 0)             (1.02641 5.88042e-16 0)             (1.02641 6.80863e-16 0)             (1.0226 1.1544e-15 0)             (0.336112 1.71726e-15 0)
        0.025             (0.292312 1.24047e-16 0)             (0.997582 2.58748e-16 0)             (1.03034 -1.07858e-16 0)             (1.03038 -1.15599e-16 0)             (1.03038 2.75912e-16 0)             (1.03038 -1.29077e-16 0)             (1.03038 4.87255e-16 0)             (1.03038 6.28878e-16 0)             (1.02238 1.18928e-15 0)             (0.292312 1.44029e-15 0)
         0.03             (0.261694 9.22989e-17 0)             (0.985142 2.30577e-16 0)             (1.03378 -5.24343e-17 0)             (1.03392 -1.07698e-16 0)             (1.03392 8.63967e-17 0)             (1.03392 -2.43644e-17 0)             (1.03392 3.58656e-16 0)             (1.0339 6.33027e-16 0)             (1.02008 1.29272e-15 0)             (0.261694 1.30978e-15 0)
        0.035             (0.239159 6.66404e-17 0)             (0.970841 1.99868e-16 0)             (1.03682 4.13789e-17 0)             (1.03714 -2.08605e-17 0)             (1.03714 1.43847e-16 0)             (1.03714 4.46385e-18 0)             (1.03714 3.36781e-16 0)             (1.03708 5.83843e-16 0)             (1.01596 1.20585e-15 0)             (0.239159 1.18838e-15 0)
         0.04             (0.221827 4.30966e-17 0)             (0.955414 2.12027e-16 0)             (1.03948 8.30454e-17 0)             (1.04011 3.97428e-17 0)             (1.04011 1.48902e-16 0)             (1.04011 -4.23594e-17 0)             (1.04011 3.2464e-16 0)             (1.03997 4.97431e-16 0)             (1.01031 1.22908e-15 0)             (0.221827 1.12819e-15 0)
        0.045             (0.208007 5.00535e-17 0)             (0.939417 2.7594e-16 0)             (1.04179 -1.00231e-18 0)             (1.0429 4.5952e-17 0)             (1.0429 6.20755e-17 0)             (1.0429 8.62734e-18 0)             (1.0429 2.62624e-16 0)             (1.04262 4.83682e-16 0)             (1.00343 1.22528e-15 0)             (0.208007 1.05151e-15 0)
         0.05             (0.196661 4.53947e-17 0)             (0.923252 2.79562e-16 0)             (1.04374 5.55135e-17 0)             (1.04552 1.13562e-16 0)             (1.04552 1.3839e-16 0)             (1.04552 -3.8636e-17 0)             (1.04552 2.66023e-16 0)             (1.04504 4.74422e-16 0)             (0.995594 1.24269e-15 0)             (0.196661 9.9259e-16 0)
        0.055             (0.187129 3.44129e-17 0)             (0.907199 2.72112e-16 0)             (1.04534 7.70832e-17 0)             (1.04802 1.80752e-16 0)             (1.04802 2.11953e-16 0)             (1.04802 5.56404e-17 0)             (1.04802 3.8773e-16 0)             (1.04723 5.76538e-16 0)             (0.987035 1.21294e-15 0)             (0.187129 9.44331e-16 0)
         0.06             (0.178969 2.71298e-17 0)             (0.891448 3.22702e-16 0)             (1.04658 1.23957e-16 0)             (1.0504 1.9729e-16 0)             (1.0504 1.11727e-16 0)             (1.0504 1.02926e-16 0)             (1.0504 3.26378e-16 0)             (1.0492 5.61717e-16 0)             (0.977956 1.09528e-15 0)             (0.178969 9.23255e-16 0)
        0.065             (0.171878 3.60851e-17 0)             (0.87612 2.54249e-16 0)             (1.04746 1.24724e-16 0)             (1.05269 1.71768e-16 0)             (1.05269 1.49339e-16 0)             (1.05269 1.2696e-16 0)             (1.05269 3.77545e-16 0)             (1.05095 6.0452e-16 0)             (0.968526 1.02808e-15 0)             (0.171878 8.83964e-16 0)
         0.07             (0.16564 5.43223e-17 0)             (0.86129 2.40986e-16 0)             (1.04801 4.5094e-17 0)             (1.05489 1.28482e-16 0)             (1.05489 9.57031e-17 0)             (1.05489 2.74507e-17 0)             (1.05489 2.67358e-16 0)             (1.05246 5.29268e-16 0)             (0.958881 1.07651e-15 0)             (0.16564 8.64175e-16 0)
        0.075             (0.160094 3.02362e-17 0)             (0.846997 2.91959e-16 0)             (1.04822 3.78521e-17 0)             (1.05702 6.96672e-17 0)             (1.05702 1.77646e-16 0)             (1.05702 3.51381e-17 0)             (1.05702 2.40796e-16 0)             (1.05376 4.57172e-16 0)             (0.949128 1.02743e-15 0)             (0.160094 8.34969e-16 0)
         0.08             (0.15512 2.27065e-17 0)             (0.83326 3.06373e-16 0)             (1.04811 3.96193e-17 0)             (1.05908 1.14731e-16 0)             (1.05908 8.19257e-17 0)             (1.05908 4.62051e-17 0)             (1.05908 2.75339e-16 0)             (1.05483 4.75599e-16 0)             (0.939353 9.63482e-16 0)             (0.15512 8.15223e-16 0)
        0.085             (0.150627 2.16215e-17 0)             (0.820077 3.17089e-16 0)             (1.04769 3.69605e-18 0)             (1.06108 -3.73159e-17 0)             (1.06108 1.72439e-16 0)             (1.06108 5.26849e-17 0)             (1.06108 2.46001e-16 0)             (1.05568 4.45501e-16 0)             (0.929621 9.37205e-16 0)             (0.150627 7.90765e-16 0)
         0.09             (0.14654 3.09089e-17 0)             (0.807441 3.06257e-16 0)             (1.04699 -2.32572e-17 0)             (1.06302 5.54374e-17 0)             (1.06302 1.48442e-16 0)             (1.06302 9.07595e-17 0)             (1.06302 2.62257e-16 0)             (1.05631 3.96002e-16 0)             (0.919984 9.1849e-16 0)             (0.14654 7.61664e-16 0)
        0.095             (0.142803 3.086e-17 0)             (0.795334 2.92115e-16 0)             (1.04601 -7.35034e-18 0)             (1.06491 1.03046e-16 0)             (1.06492 1.32657e-16 0)             (1.06492 7.06022e-17 0)             (1.06492 3.04615e-16 0)             (1.05672 3.57521e-16 0)             (0.910479 9.02527e-16 0)             (0.142803 7.48467e-16 0)
          0.1             (0.139367 2.8224e-17 0)             (0.783738 2.9898e-16 0)             (1.04479 -7.47177e-17 0)             (1.06676 1.70494e-16 0)             (1.06677 2.52992e-16 0)             (1.06677 5.16926e-17 0)             (1.06676 2.70813e-16 0)             (1.05693 3.3998e-16 0)             (0.901134 9.03935e-16 0)             (0.139367 7.36663e-16 0)
        0.105             (0.136195 3.44367e-17 0)             (0.772628 2.89962e-16 0)             (1.04333 -9.65538e-17 0)             (1.06856 1.58824e-16 0)             (1.06857 1.90673e-16 0)             (1.06857 9.79494e-17 0)             (1.06857 2.90559e-16 0)             (1.05695 4.62719e-16 0)             (0.891969 9.1925e-16 0)             (0.136195 7.28657e-16 0)
         0.11             (0.133254 3.06728e-17 0)             (0.761982 3.081e-16 0)             (1.04166 -1.212e-17 0)             (1.07032 1.04059e-16 0)             (1.07034 2.56916e-16 0)             (1.07034 2.22932e-17 0)             (1.07033 3.70436e-16 0)             (1.05677 4.75902e-16 0)             (0.882999 8.1707e-16 0)             (0.133254 7.10837e-16 0)
        0.115             (0.130518 3.38585e-17 0)             (0.751776 3.03107e-16 0)             (1.0398 -1.02545e-16 0)             (1.07204 1.01826e-16 0)             (1.07206 2.00054e-16 0)             (1.07206 8.10702e-17 0)             (1.07206 3.51328e-16 0)             (1.05641 5.28567e-16 0)             (0.874232 7.45956e-16 0)             (0.130518 7.00481e-16 0)
         0.12             (0.127963 2.3528e-17 0)             (0.741986 3.46966e-16 0)             (1.03776 -2.56473e-17 0)             (1.07373 2.65214e-17 0)             (1.07376 2.56945e-16 0)             (1.07376 3.97131e-17 0)             (1.07375 3.15129e-16 0)             (1.05588 5.92325e-16 0)             (0.865674 7.55764e-16 0)             (0.127963 6.71892e-16 0)
        0.125             (0.125572 2.19663e-17 0)             (0.73259 3.35335e-16 0)             (1.03556 -1.26096e-16 0)             (1.07538 2.41143e-17 0)             (1.07542 3.06435e-16 0)             (1.07542 8.22346e-18 0)             (1.07541 2.99233e-16 0)             (1.05519 5.05887e-16 0)             (0.857327 6.81607e-16 0)             (0.125572 6.71673e-16 0)
         0.13             (0.123326 2.98866e-17 0)             (0.723566 4.31173e-16 0)             (1.03322 -7.122e-17 0)             (1.077 6.49358e-17 0)             (1.07705 2.76539e-16 0)             (1.07705 -6.46152e-17 0)             (1.07703 3.22721e-16 0)             (1.05434 4.71212e-16 0)             (0.849191 6.83495e-16 0)             (0.123326 6.58745e-16 0)
        0.135             (0.121212 3.15866e-17 0)             (0.714894 3.55144e-16 0)             (1.03075 2.37239e-17 0)             (1.07858 1.10556e-16 0)             (1.07866 2.06787e-16 0)             (1.07866 2.90009e-17 0)             (1.07863 2.51936e-16 0)             (1.05335 5.40978e-16 0)             (0.841264 6.84287e-16 0)             (0.121212 6.30247e-16 0)
         0.14             (0.119218 4.19912e-17 0)             (0.706554 3.96682e-16 0)             (1.02816 -1.24245e-17 0)             (1.08014 -7.8819e-18 0)             (1.08023 3.21105e-16 0)             (1.08023 1.54862e-16 0)             (1.0802 2.6224e-16 0)             (1.05223 5.53494e-16 0)             (0.833545 6.67e-16 0)             (0.119218 6.26205e-16 0)
        0.145             (0.117333 3.43453e-17 0)             (0.698527 3.67733e-16 0)             (1.02547 4.59533e-17 0)             (1.08166 -4.90104e-17 0)             (1.08179 2.92004e-16 0)             (1.08179 2.28822e-17 0)             (1.08174 1.8514e-16 0)             (1.05098 5.39107e-16 0)             (0.826029 6.46555e-16 0)             (0.117333 6.04312e-16 0)
         0.15             (0.115546 3.17724e-17 0)             (0.690797 3.93361e-16 0)             (1.02269 9.29554e-17 0)             (1.08316 1.25929e-16 0)             (1.08331 3.27937e-16 0)             (1.08331 6.73083e-17 0)             (1.08325 1.38577e-16 0)             (1.04962 4.92044e-16 0)             (0.818711 6.02844e-16 0)             (0.115546 6.08289e-16 0)
        0.155             (0.113851 2.68464e-17 0)             (0.683347 3.69794e-16 0)             (1.01984 2.07343e-17 0)             (1.08462 2.2614e-17 0)             (1.08482 3.00209e-16 0)             (1.08482 6.55723e-17 0)             (1.08474 1.82659e-16 0)             (1.04815 5.60216e-16 0)             (0.811587 6.34685e-16 0)             (0.113851 5.91111e-16 0)
         0.16             (0.112239 3.22947e-17 0)             (0.676162 4.19267e-16 0)             (1.01691 4.01959e-17 0)             (1.08606 -7.12369e-17 0)             (1.0863 2.81187e-16 0)             (1.0863 8.97784e-17 0)             (1.0862 1.88747e-16 0)             (1.04659 5.68744e-16 0)             (0.804651 6.15933e-16 0)             (0.112239 5.87119e-16 0)
        0.165             (0.110704 3.39632e-17 0)             (0.669228 4.66543e-16 0)             (1.01393 -1.07208e-17 0)             (1.08747 -1.59225e-16 0)             (1.08777 2.76716e-16 0)             (1.08777 4.94504e-17 0)             (1.08764 2.24937e-16 0)             (1.04493 4.82067e-16 0)             (0.797898 5.86005e-16 0)             (0.110704 5.81608e-16 0)
         0.17             (0.10924 4.24952e-17 0)             (0.662531 4.28844e-16 0)             (1.01089 -2.30622e-17 0)             (1.08886 -1.09144e-16 0)             (1.08921 3.06326e-16 0)             (1.08921 4.82567e-17 0)             (1.08906 2.08548e-16 0)             (1.04318 4.86431e-16 0)             (0.791322 5.99323e-16 0)             (0.10924 5.73513e-16 0)
        0.175             (0.107841 5.29484e-17 0)             (0.65606 4.45478e-16 0)             (1.00782 -3.64402e-17 0)             (1.09022 -1.36804e-16 0)             (1.09064 3.12627e-16 0)             (1.09064 7.15239e-17 0)             (1.09045 1.19173e-16 0)             (1.04136 4.85654e-16 0)             (0.784918 5.81597e-16 0)             (0.107841 5.75127e-16 0)
         0.18             (0.106504 4.98776e-17 0)             (0.649802 4.05795e-16 0)             (1.0047 -2.34835e-17 0)             (1.09154 -7.06247e-17 0)             (1.09204 2.83696e-16 0)             (1.09204 1.1093e-16 0)             (1.09182 1.38745e-16 0)             (1.03948 4.45192e-16 0)             (0.77868 6.03157e-16 0)             (0.106504 5.66382e-16 0)
        0.185             (0.105223 3.77475e-17 0)             (0.643747 3.47555e-16 0)             (1.00156 -5.90863e-17 0)             (1.09285 -3.50949e-17 0)             (1.09343 1.98173e-16 0)             (1.09343 1.7197e-16 0)             (1.09317 1.06122e-16 0)             (1.03752 4.94692e-16 0)             (0.772602 6.43284e-16 0)             (0.105223 5.52842e-16 0)
         0.19             (0.103995 4.88511e-17 0)             (0.637885 4.07861e-16 0)             (0.99839 -8.73558e-17 0)             (1.09412 5.13861e-17 0)             (1.09481 2.11913e-16 0)             (1.09481 1.49839e-16 0)             (1.09449 9.15771e-17 0)             (1.03551 4.2046e-16 0)             (0.766679 6.13175e-16 0)             (0.103995 5.43141e-16 0)
        0.195             (0.102816 4.70156e-17 0)             (0.632206 4.10793e-16 0)             (0.995205 -9.27102e-17 0)             (1.09537 -8.86705e-17 0)             (1.09616 1.53492e-16 0)             (1.09616 1.04079e-16 0)             (1.0958 1.02073e-16 0)             (1.03345 4.30117e-16 0)             (0.760906 6.40689e-16 0)             (0.102816 5.40627e-16 0)
          0.2             (0.101683 3.69743e-17 0)             (0.626701 4.19953e-16 0)             (0.992006 -4.72845e-17 0)             (1.0966 -9.46894e-17 0)             (1.09751 2.53927e-16 0)             (1.09751 1.09934e-16 0)             (1.09708 8.25786e-17 0)             (1.03134 3.98132e-16 0)             (0.755277 6.20829e-16 0)             (0.101683 5.45861e-16 0)
        0.205             (0.100594 3.07218e-17 0)             (0.621362 3.9701e-16 0)             (0.988799 3.44838e-17 0)             (1.09779 -1.5253e-16 0)             (1.09884 2.24694e-16 0)             (1.09884 1.1626e-16 0)             (1.09834 7.33833e-17 0)             (1.02919 3.36663e-16 0)             (0.749787 6.19265e-16 0)             (0.100594 5.34549e-16 0)
         0.21             (0.0995446 3.45683e-17 0)             (0.616181 3.82388e-16 0)             (0.985586 -6.40423e-18 0)             (1.09896 -6.53467e-17 0)             (1.10015 3.00012e-16 0)             (1.10015 1.13046e-16 0)             (1.09957 1.10269e-16 0)             (1.027 3.94062e-16 0)             (0.744432 6.12871e-16 0)             (0.0995446 5.27394e-16 0)
        0.215             (0.0985338 2.43666e-17 0)             (0.611152 3.89986e-16 0)             (0.982372 2.49901e-18 0)             (1.1001 -2.25318e-17 0)             (1.10145 2.7246e-16 0)             (1.10145 9.0763e-17 0)             (1.10079 1.39728e-16 0)             (1.02477 4.34631e-16 0)             (0.739207 6.21804e-16 0)             (0.0985338 5.23696e-16 0)
         0.22             (0.0975589 3.26398e-17 0)             (0.606266 3.95532e-16 0)             (0.979159 4.14194e-17 0)             (1.10122 4.71286e-18 0)             (1.10274 3.24917e-16 0)             (1.10274 9.52187e-17 0)             (1.10198 4.25321e-17 0)             (1.02252 3.66963e-16 0)             (0.734108 5.53026e-16 0)             (0.0975589 5.09767e-16 0)
        0.225             (0.0966178 3.56558e-17 0)             (0.601517 3.89967e-16 0)             (0.975952 8.14281e-17 0)             (1.10231 1.72602e-17 0)             (1.10402 3.02278e-16 0)             (1.10402 1.20416e-16 0)             (1.10316 1.41247e-16 0)             (1.02024 3.66783e-16 0)             (0.729129 5.33854e-16 0)             (0.0966178 5.16707e-16 0)
         0.23             (0.0957086 4.03649e-17 0)             (0.5969 4.15463e-16 0)             (0.972751 1.34495e-17 0)             (1.10337 4.30905e-17 0)             (1.10528 3.24391e-16 0)             (1.10528 4.00871e-17 0)             (1.10431 -1.03638e-16 0)             (1.01794 3.79146e-16 0)             (0.724267 4.8209e-16 0)             (0.0957086 5.11268e-16 0)
        0.235             (0.0948296 3.65174e-17 0)             (0.592409 4.0658e-16 0)             (0.96956 8.76382e-17 0)             (1.10441 -2.0946e-17 0)             (1.10653 4.31382e-16 0)             (1.10653 7.64731e-18 0)             (1.10544 -6.40271e-17 0)             (1.01561 3.82999e-16 0)             (0.719518 4.52004e-16 0)             (0.0948296 5.04695e-16 0)
         0.24             (0.0939792 2.85933e-17 0)             (0.588038 4.46776e-16 0)             (0.966381 2.47297e-17 0)             (1.10542 -6.95627e-17 0)             (1.10777 3.67901e-16 0)             (1.10777 -9.82561e-17 0)             (1.10654 -1.81053e-17 0)             (1.01327 4.09532e-16 0)             (0.714877 5.27438e-16 0)             (0.0939792 5.11345e-16 0)
        0.245             (0.0931558 3.50211e-17 0)             (0.583782 4.27641e-16 0)             (0.963215 6.17348e-18 0)             (1.10641 4.16534e-17 0)             (1.109 3.82067e-16 0)             (1.109 -1.00595e-17 0)             (1.10763 4.73158e-17 0)             (1.01092 2.83678e-16 0)             (0.710342 4.8486e-16 0)             (0.0931558 4.97485e-16 0)
         0.25             (0.0923581 3.20038e-17 0)             (0.579636 3.94701e-16 0)             (0.960065 4.57645e-17 0)             (1.10737 6.55329e-17 0)             (1.11022 3.58473e-16 0)             (1.11022 -5.8199e-17 0)             (1.1087 2.30505e-18 0)             (1.00856 2.99704e-16 0)             (0.705908 4.97279e-16 0)             (0.0923581 5.059e-16 0)
        0.255             (0.0915848 3.78055e-17 0)             (0.575596 4.10661e-16 0)             (0.956932 3.40558e-17 0)             (1.1083 8.66209e-17 0)             (1.11143 3.22924e-16 0)             (1.11143 -5.47699e-17 0)             (1.10974 1.13898e-16 0)             (1.00618 2.81156e-16 0)             (0.701573 4.74917e-16 0)             (0.0915848 4.87779e-16 0)
         0.26             (0.0908346 3.77794e-17 0)             (0.571658 3.95666e-16 0)             (0.953816 7.10535e-17 0)             (1.10921 -5.57358e-17 0)             (1.11263 3.0513e-16 0)             (1.11263 -1.33904e-16 0)             (1.11077 1.90226e-17 0)             (1.0038 2.52708e-16 0)             (0.697332 5.17053e-16 0)             (0.0908346 4.91773e-16 0)
        0.265             (0.0901066 2.79275e-17 0)             (0.567818 3.34441e-16 0)             (0.95072 6.98494e-17 0)             (1.11009 -4.7143e-19 0)             (1.11382 3.61203e-16 0)             (1.11382 -4.93605e-18 0)             (1.11177 -2.15295e-17 0)             (1.00141 2.07784e-16 0)             (0.693183 4.81793e-16 0)             (0.0901066 4.80725e-16 0)
         0.27             (0.0893995 2.94602e-17 0)             (0.564071 3.50995e-16 0)             (0.947644 1.04596e-16 0)             (1.11094 2.07522e-17 0)             (1.115 3.41811e-16 0)             (1.115 -8.1864e-17 0)             (1.11275 1.98777e-17 0)             (0.999022 2.64158e-16 0)             (0.689123 4.37759e-16 0)             (0.0893995 4.83449e-16 0)
        0.275             (0.0887124 2.97641e-17 0)             (0.560414 2.96468e-16 0)             (0.94459 1.63151e-16 0)             (1.11177 -1.15962e-16 0)             (1.11617 3.2097e-16 0)             (1.11617 -3.36571e-17 0)             (1.11371 4.30425e-17 0)             (0.996629 2.42371e-16 0)             (0.685149 4.4024e-16 0)             (0.0887124 4.7326e-16 0)
         0.28             (0.0880445 3.57958e-17 0)             (0.556843 4.08162e-16 0)             (0.941558 2.20152e-16 0)             (1.11258 1.56209e-18 0)             (1.11733 2.85962e-16 0)             (1.11733 -1.87356e-16 0)             (1.11465 2.68695e-17 0)             (0.994237 2.89425e-16 0)             (0.681258 4.76566e-16 0)             (0.0880445 4.71402e-16 0)
        0.285             (0.0873948 2.65349e-17 0)             (0.553356 4.05613e-16 0)             (0.938548 2.47205e-16 0)             (1.11336 8.49917e-17 0)             (1.11848 2.09392e-16 0)             (1.11848 -8.03615e-17 0)             (1.11557 2.20944e-18 0)             (0.991845 3.51472e-16 0)             (0.677447 4.09596e-16 0)             (0.0873948 4.79986e-16 0)
         0.29             (0.0867626 3.89689e-17 0)             (0.54995 3.91718e-16 0)             (0.935562 2.20794e-16 0)             (1.11411 7.74774e-17 0)             (1.11963 7.0855e-17 0)             (1.11963 -1.25629e-16 0)             (1.11647 9.92718e-19 0)             (0.989456 2.89965e-16 0)             (0.673714 4.14163e-16 0)             (0.0867626 4.67392e-16 0)
        0.295             (0.086147 3.69813e-17 0)             (0.54662 3.95256e-16 0)             (0.932599 1.62447e-16 0)             (1.11484 -2.12513e-17 0)             (1.12077 3.69938e-18 0)             (1.12077 -1.69407e-16 0)             (1.11734 7.86467e-18 0)             (0.987071 3.30882e-16 0)             (0.670056 4.00523e-16 0)             (0.086147 4.67516e-16 0)
          0.3             (0.0855474 3.57439e-17 0)             (0.543365 4.00173e-16 0)             (0.929661 1.6783e-16 0)             (1.11555 -2.08521e-17 0)             (1.1219 -2.24445e-17 0)             (1.1219 -1.13495e-16 0)             (1.1182 4.37024e-17 0)             (0.984691 3.47271e-16 0)             (0.666471 3.97445e-16 0)             (0.0855474 4.69069e-16 0)
        0.305             (0.0849631 2.47242e-17 0)             (0.540182 4.00551e-16 0)             (0.926747 2.53653e-16 0)             (1.11623 -2.0007e-17 0)             (1.12302 1.20492e-16 0)             (1.12302 -2.25951e-16 0)             (1.11903 5.44297e-18 0)             (0.982317 2.95747e-16 0)             (0.662958 4.31548e-16 0)             (0.0849631 4.62626e-16 0)
         0.31             (0.0843935 2.87902e-17 0)             (0.537069 4.24179e-16 0)             (0.923859 3.65502e-16 0)             (1.11689 -2.72444e-17 0)             (1.12413 -3.60883e-17 0)             (1.12413 -2.22533e-16 0)             (1.11985 1.11154e-16 0)             (0.979949 4.15306e-16 0)             (0.659512 4.47966e-16 0)             (0.0843935 4.53583e-16 0)
        0.315             (0.083838 2.39884e-17 0)             (0.534022 4.47166e-16 0)             (0.920996 2.67988e-16 0)             (1.11752 2.69677e-17 0)             (1.12524 -5.5345e-17 0)             (1.12524 -2.35722e-16 0)             (1.12065 6.65154e-17 0)             (0.977589 4.26746e-16 0)             (0.656134 4.18938e-16 0)             (0.083838 4.57248e-16 0)
         0.32             (0.083296 1.64061e-17 0)             (0.531039 4.57687e-16 0)             (0.918158 2.78509e-16 0)             (1.11814 -4.38441e-17 0)             (1.12633 3.00301e-17 0)             (1.12633 -2.53943e-16 0)             (1.12142 1.08885e-16 0)             (0.975238 4.34894e-16 0)             (0.65282 4.55017e-16 0)             (0.083296 4.6715e-16 0)
        0.325             (0.082767 2.58082e-17 0)             (0.52812 4.62742e-16 0)             (0.915345 2.89738e-16 0)             (1.11872 -6.34462e-17 0)             (1.12743 1.27063e-16 0)             (1.12743 -8.59912e-17 0)             (1.12218 2.37777e-16 0)             (0.972896 3.86033e-16 0)             (0.649568 4.0861e-16 0)             (0.082767 4.66728e-16 0)
         0.33             (0.0822505 3.56558e-17 0)             (0.52526 4.37572e-16 0)             (0.912559 1.7078e-16 0)             (1.11929 -7.81141e-17 0)             (1.12851 1.89245e-17 0)             (1.12851 -1.48175e-16 0)             (1.12291 1.74345e-16 0)             (0.970564 4.08499e-16 0)             (0.646377 4.20541e-16 0)             (0.0822505 4.55959e-16 0)
        0.335             (0.081746 3.222e-17 0)             (0.522459 3.82904e-16 0)             (0.909798 2.70064e-16 0)             (1.11983 5.98126e-17 0)             (1.12959 2.01539e-16 0)             (1.12959 -2.46504e-16 0)             (1.12363 7.63317e-17 0)             (0.968242 3.99049e-16 0)             (0.643246 3.75245e-16 0)             (0.081746 4.63365e-16 0)
         0.34             (0.081253 3.59543e-17 0)             (0.519714 4.12537e-16 0)             (0.907062 2.57009e-16 0)             (1.12035 -6.26344e-17 0)             (1.13066 1.52979e-16 0)             (1.13066 -3.7312e-16 0)             (1.12432 1.8478e-16 0)             (0.965931 4.81546e-16 0)             (0.640171 3.73387e-16 0)             (0.081253 4.50582e-16 0)
        0.345             (0.0807712 4.20139e-17 0)             (0.517024 4.18369e-16 0)             (0.904353 2.70608e-16 0)             (1.12085 -8.09062e-17 0)             (1.13173 1.10954e-16 0)             (1.13173 -2.96347e-16 0)             (1.125 1.61999e-16 0)             (0.963632 4.95413e-16 0)             (0.637152 3.96293e-16 0)             (0.0807712 4.45286e-16 0)
         0.35             (0.0803 3.45177e-17 0)             (0.514387 4.38984e-16 0)             (0.901669 2.56181e-16 0)             (1.12133 -6.72614e-17 0)             (1.13279 1.89744e-16 0)             (1.13279 -3.37227e-16 0)             (1.12566 1.97867e-16 0)             (0.961345 5.70559e-16 0)             (0.634188 4.23869e-16 0)             (0.0803 4.52735e-16 0)
        0.355             (0.0798393 3.95058e-17 0)             (0.511801 4.65332e-16 0)             (0.899011 2.45554e-16 0)             (1.12179 -1.1137e-16 0)             (1.13384 1.44322e-16 0)             (1.13384 -2.87135e-16 0)             (1.1263 1.8021e-16 0)             (0.95907 5.14005e-16 0)             (0.631276 4.01553e-16 0)             (0.0798393 4.44318e-16 0)
         0.36             (0.0793884 3.69473e-17 0)             (0.509265 4.6233e-16 0)             (0.896378 2.52168e-16 0)             (1.12222 -1.64627e-16 0)             (1.13489 2.92842e-16 0)             (1.13489 -3.37233e-16 0)             (1.12692 2.13711e-16 0)             (0.956808 4.98826e-16 0)             (0.628415 4.48555e-16 0)             (0.0793884 4.33593e-16 0)
        0.365             (0.0789473 3.58943e-17 0)             (0.506777 4.18742e-16 0)             (0.893771 2.7764e-16 0)             (1.12264 -2.04576e-16 0)             (1.13593 2.25405e-16 0)             (1.13593 -2.871e-16 0)             (1.12752 2.29008e-16 0)             (0.954559 5.33968e-16 0)             (0.625603 4.77312e-16 0)             (0.0789473 4.37344e-16 0)
         0.37             (0.0785154 3.35984e-17 0)             (0.504336 4.17923e-16 0)             (0.891189 2.93479e-16 0)             (1.12303 -2.45446e-16 0)             (1.13696 2.85986e-16 0)             (1.13696 -1.40319e-16 0)             (1.12811 2.1042e-16 0)             (0.952323 5.91119e-16 0)             (0.62284 4.24493e-16 0)             (0.0785154 4.27544e-16 0)
        0.375             (0.0780924 2.84649e-17 0)             (0.501939 3.97108e-16 0)             (0.888632 2.73542e-16 0)             (1.12341 -9.13859e-17 0)             (1.13799 1.70095e-16 0)             (1.13799 -3.12691e-16 0)             (1.12867 1.88331e-16 0)             (0.950101 5.97454e-16 0)             (0.620124 4.77187e-16 0)             (0.0780924 4.17422e-16 0)
         0.38             (0.0776782 2.70919e-17 0)             (0.499587 3.86959e-16 0)             (0.8861 2.55402e-16 0)             (1.12376 -2.28455e-16 0)             (1.13902 2.24492e-16 0)             (1.13902 -2.62618e-16 0)             (1.12922 2.55814e-16 0)             (0.947893 5.97507e-16 0)             (0.617454 4.89214e-16 0)             (0.0776782 4.25909e-16 0)
        0.385             (0.0772723 2.47974e-17 0)             (0.497277 3.85463e-16 0)             (0.883593 2.2604e-16 0)             (1.1241 -1.95086e-16 0)             (1.14004 2.51826e-16 0)             (1.14004 -1.72801e-16 0)             (1.12975 1.85555e-16 0)             (0.945699 5.13699e-16 0)             (0.614828 4.57468e-16 0)             (0.0772723 4.14838e-16 0)
         0.39             (0.0768746 3.34991e-17 0)             (0.495009 4.32109e-16 0)             (0.881111 2.21084e-16 0)             (1.12441 -2.15931e-16 0)             (1.14105 2.18272e-16 0)             (1.14105 -1.69978e-16 0)             (1.13026 1.48247e-16 0)             (0.943519 5.72532e-16 0)             (0.612246 4.58781e-16 0)             (0.0768746 4.30212e-16 0)