# Probe 0 (2 0 0.05)
# Probe 1 (2 0.05 0.05)
# Probe 2 (2 0.1 0.05)
# Probe 3 (2 0.2 0.05)
# Probe 4 (2 0.4 0.05)
# Probe 5 (2 0.6 0.05)  # Not Found
# Probe 6 (2 0.8 0.05)  # Not Found
# Probe 7 (2 0.9 0.05)  # Not Found
# Probe 8 (2 0.95 0.05)  # Not Found
# Probe 9 (2 1 0.05)  # Not Found
#       Probe             0             1             2             3             4             5             6             7             8             9
#        Time
        0.005             (0.356251 -2.69024e-17 0)             (1.02372 -3.59678e-17 0)             (1.02372 5.10145e-17 0)             (1.02372 1.61323e-16 0)             (1.02372 4.19565e-16 0)             (-1e+300 -1e+300 -1e+300)             (-1e+300 -1e+300 -1e+300)             (-1e+300 -1e+300 -1e+300)             (-1e+300 -1e+300 -1e+300)             (-1e+300 -1e+300 -1e+300)
         0.01             (0.22755 1.65636e-17 0)             (1.03824 7.83755e-18 0)             (1.03824 1.14962e-16 0)             (1.03824 1.79956e-16 0)             (1.03824 6.91385e-16 0)             (-1e+300 -1e+300 -1e+300)             (-1e+300 -1e+300 -1e+300)             (-1e+300 -1e+300 -1e+300)             (-1e+300 -1e+300 -1e+300)             (-1e+300 -1e+300 -1e+300)
        0.015             (0.18198 3.95045e-17 0)             (1.04788 7.86713e-17 0)             (1.04894 1.29421e-16 0)             (1.04894 1.91599e-16 0)             (1.04894 4.66123e-16 0)             (-1e+300 -1e+300 -1e+300)             (-1e+300 -1e+300 -1e+300)             (-1e+300 -1e+300 -1e+300)             (-1e+300 -1e+300 -1e+300)             (-1e+300 -1e+300 -1e+300)
         0.02             (0.156918 -3.97942e-17 0)             (1.05128 3.20506e-17 0)             (1.05787 1.8172e-16 0)             (1.05787 5.5082e-17 0)             (1.05787 5.91419e-16 0)             (-1e+300 -1e+300 -1e+300)             (-1e+300 -1e+300 -1e+300)             (-1e+300 -1e+300 -1e+300)             (-1e+300 -1e+300 -1e+300)             (-1e+300 -1e+300 -1e+300)
        0.025             (0.140531 -1.5132e-17 0)             (1.04873 1.1146e-16 0)             (1.06574 2.07692e-16 0)             (1.06574 8.43043e-17 0)             (1.06574 6.52863e-16 0)             (-1e+300 -1e+300 -1e+300)             (-1e+300 -1e+300 -1e+300)             (-1e+300 -1e+300 -1e+300)             (-1e+300 -1e+300 -1e+300)             (-1e+300 -1e+300 -1e+300)
         0.03             (0.128752 -1.98177e-17 0)             (1.04174 -4.01913e-17 0)             (1.07288 2.70172e-16 0)             (1.07288 5.3169e-17 0)             (1.07288 6.96655e-16 0)             (-1e+300 -1e+300 -1e+300)             (-1e+300 -1e+300 -1e+300)             (-1e+300 -1e+300 -1e+300)             (-1e+300 -1e+300 -1e+300)             (-1e+300 -1e+300 -1e+300)
        0.035             (0.119766 -5.40401e-18 0)             (1.0318 6.17566e-17 0)             (1.07945 2.49504e-16 0)             (1.07947 2.22428e-16 0)             (1.07947 6.20279e-16 0)             (-1e+300 -1e+300 -1e+300)             (-1e+300 -1e+300 -1e+300)             (-1e+300 -1e+300 -1e+300)             (-1e+300 -1e+300 -1e+300)             (-1e+300 -1e+300 -1e+300)
         0.04             (0.112624 -1.47356e-18 0)             (1.02005 6.48901e-18 0)             (1.08556 2.90893e-16 0)             (1.08564 3.61713e-16 0)             (1.08562 5.92378e-16 0)             (-1e+300 -1e+300 -1e+300)             (-1e+300 -1e+300 -1e+300)             (-1e+300 -1e+300 -1e+300)             (-1e+300 -1e+300 -1e+300)             (-1e+300 -1e+300 -1e+300)
        0.045             (0.106773 -6.30696e-18 0)             (1.00731 2.45253e-17 0)             (1.09122 3.38188e-16 0)             (1.09147 3.26879e-16 0)             (1.09138 5.58102e-16 0)             (-1e+300 -1e+300 -1e+300)             (-1e+300 -1e+300 -1e+300)             (-1e+300 -1e+300 -1e+300)             (-1e+300 -1e+300 -1e+300)             (-1e+300 -1e+300 -1e+300)
         0.05             (0.101867 1.97527e-18 0)             (0.9941 3.91495e-17 0)             (1.09646 3.0679e-16 0)             (1.09701 3.21547e-16 0)             (1.09679 6.00885e-16 0)             (-1e+300 -1e+300 -1e+300)             (-1e+300 -1e+300 -1e+300)             (-1e+300 -1e+300 -1e+300)             (-1e+300 -1e+300 -1e+300)             (-1e+300 -1e+300 -1e+300)
        0.055             (0.0976795 2.22296e-18 0)             (0.980781 3.52019e-17 0)             (1.10127 3.07254e-16 0)             (1.10231 3.21208e-16 0)             (1.10185 5.37211e-16 0)             (-1e+300 -1e+300 -1e+300)             (-1e+300 -1e+300 -1e+300)             (-1e+300 -1e+300 -1e+300)             (-1e+300 -1e+300 -1e+300)             (-1e+300 -1e+300 -1e+300)
         0.06             (0.0940507 -9.63154e-18 0)             (0.967582 1.02222e-16 0)             (1.10564 4.11169e-16 0)             (1.10741 2.64738e-16 0)             (1.10656 5.95989e-16 0)             (-1e+300 -1e+300 -1e+300)             (-1e+300 -1e+300 -1e+300)             (-1e+300 -1e+300 -1e+300)             (-1e+300 -1e+300 -1e+300)             (-1e+300 -1e+300 -1e+300)
        0.065             (0.0908678 -3.5647e-18 0)             (0.954646 1.56203e-16 0)             (1.10958 4.39296e-16 0)             (1.11232 3.32726e-16 0)             (1.11092 5.68823e-16 0)             (-1e+300 -1e+300 -1e+300)             (-1e+300 -1e+300 -1e+300)             (-1e+300 -1e+300 -1e+300)             (-1e+300 -1e+300 -1e+300)             (-1e+300 -1e+300 -1e+300)
         0.07             (0.0880471 8.28657e-19 0)             (0.942064 1.84594e-16 0)             (1.11308 5.04145e-16 0)             (1.11708 4.62297e-16 0)             (1.11494 6.42563e-16 0)             (-1e+300 -1e+300 -1e+300)             (-1e+300 -1e+300 -1e+300)             (-1e+300 -1e+300 -1e+300)             (-1e+300 -1e+300 -1e+300)             (-1e+300 -1e+300 -1e+300)
        0.075             (0.0855254 -1.44831e-18 0)             (0.929886 1.2373e-16 0)             (1.11616 4.5367e-16 0)             (1.12169 3.4861e-16 0)             (1.1186 4.91988e-16 0)             (-1e+300 -1e+300 -1e+300)             (-1e+300 -1e+300 -1e+300)             (-1e+300 -1e+300 -1e+300)             (-1e+300 -1e+300 -1e+300)             (-1e+300 -1e+300 -1e+300)
         0.08             (0.0832541 7.3932e-18 0)             (0.918138 1.84545e-16 0)             (1.11883 5.22512e-16 0)             (1.12618 4.17534e-16 0)             (1.12192 6.29975e-16 0)             (-1e+300 -1e+300 -1e+300)             (-1e+300 -1e+300 -1e+300)             (-1e+300 -1e+300 -1e+300)             (-1e+300 -1e+300 -1e+300)             (-1e+300 -1e+300 -1e+300)
        0.085             (0.0811947 4.23316e-18 0)             (0.90683 1.34015e-16 0)             (1.12111 5.79537e-16 0)             (1.13055 4.61947e-16 0)             (1.12491 6.59412e-16 0)             (-1e+300 -1e+300 -1e+300)             (-1e+300 -1e+300 -1e+300)             (-1e+300 -1e+300 -1e+300)             (-1e+300 -1e+300 -1e+300)             (-1e+300 -1e+300 -1e+300)
         0.09             (0.0793166 -4.74791e-18 0)             (0.89596 1.66047e-16 0)             (1.12302 6.67543e-16 0)             (1.13482 5.56049e-16 0)             (1.12757 6.69985e-16 0)             (-1e+300 -1e+300 -1e+300)             (-1e+300 -1e+300 -1e+300)             (-1e+300 -1e+300 -1e+300)             (-1e+300 -1e+300 -1e+300)             (-1e+300 -1e+300 -1e+300)
        0.095             (0.0775952 5.38244e-18 0)             (0.885522 2.11382e-16 0)             (1.12459 6.38295e-16 0)             (1.13899 5.74936e-16 0)             (1.12992 7.40408e-16 0)             (-1e+300 -1e+300 -1e+300)             (-1e+300 -1e+300 -1e+300)             (-1e+300 -1e+300 -1e+300)             (-1e+300 -1e+300 -1e+300)             (-1e+300 -1e+300 -1e+300)
          0.1             (0.07601 -2.43571e-18 0)             (0.875501 2.66464e-16 0)             (1.12583 7.24202e-16 0)             (1.14307 6.00726e-16 0)             (1.13198 6.85745e-16 0)             (-1e+300 -1e+300 -1e+300)             (-1e+300 -1e+300 -1e+300)             (-1e+300 -1e+300 -1e+300)             (-1e+300 -1e+300 -1e+300)             (-1e+300 -1e+300 -1e+300)
        0.105             (0.0745444 5.11215e-18 0)             (0.865882 2.62799e-16 0)             (1.12678 6.74192e-16 0)             (1.14708 5.51061e-16 0)             (1.13375 7.56528e-16 0)             (-1e+300 -1e+300 -1e+300)             (-1e+300 -1e+300 -1e+300)             (-1e+300 -1e+300 -1e+300)             (-1e+300 -1e+300 -1e+300)             (-1e+300 -1e+300 -1e+300)
         0.11             (0.0731842 2.38592e-18 0)             (0.856649 2.98983e-16 0)             (1.12745 6.6019e-16 0)             (1.151 5.8232e-16 0)             (1.13526 6.67176e-16 0)             (-1e+300 -1e+300 -1e+300)             (-1e+300 -1e+300 -1e+300)             (-1e+300 -1e+300 -1e+300)             (-1e+300 -1e+300 -1e+300)             (-1e+300 -1e+300 -1e+300)
        0.115             (0.0719178 1.9071e-18 0)             (0.847783 3.0549e-16 0)             (1.12786 6.66564e-16 0)             (1.15486 6.09957e-16 0)             (1.13653 6.13807e-16 0)             (-1e+300 -1e+300 -1e+300)             (-1e+300 -1e+300 -1e+300)             (-1e+300 -1e+300 -1e+300)             (-1e+300 -1e+300 -1e+300)             (-1e+300 -1e+300 -1e+300)
         0.12             (0.0707349 6.42002e-18 0)             (0.839268 2.39686e-16 0)             (1.12804 6.75651e-16 0)             (1.15865 6.10711e-16 0)             (1.13756 5.95854e-16 0)             (-1e+300 -1e+300 -1e+300)             (-1e+300 -1e+300 -1e+300)             (-1e+300 -1e+300 -1e+300)             (-1e+300 -1e+300 -1e+300)             (-1e+300 -1e+300 -1e+300)
        0.125             (0.069627 1.36943e-18 0)             (0.831086 3.0114e-16 0)             (1.12801 6.88629e-16 0)             (1.16238 5.93393e-16 0)             (1.13837 5.27801e-16 0)             (-1e+300 -1e+300 -1e+300)             (-1e+300 -1e+300 -1e+300)             (-1e+300 -1e+300 -1e+300)             (-1e+300 -1e+300 -1e+300)             (-1e+300 -1e+300 -1e+300)
         0.13             (0.0685867 3.70198e-18 0)             (0.82322 2.83799e-16 0)             (1.12778 6.71101e-16 0)             (1.16605 7.13908e-16 0)             (1.13898 5.84521e-16 0)             (-1e+300 -1e+300 -1e+300)             (-1e+300 -1e+300 -1e+300)             (-1e+300 -1e+300 -1e+300)             (-1e+300 -1e+300 -1e+300)             (-1e+300 -1e+300 -1e+300)
        0.135             (0.0676075 3.16578e-18 0)             (0.815654 3.33753e-16 0)             (1.12738 7.44448e-16 0)             (1.16966 6.94558e-16 0)             (1.13941 5.20755e-16 0)             (-1e+300 -1e+300 -1e+300)             (-1e+300 -1e+300 -1e+300)             (-1e+300 -1e+300 -1e+300)             (-1e+300 -1e+300 -1e+300)             (-1e+300 -1e+300 -1e+300)
         0.14             (0.0666838 2.2698e-18 0)             (0.808372 3.89467e-16 0)             (1.12681 7.45544e-16 0)             (1.17323 6.57412e-16 0)             (1.13967 5.11344e-16 0)             (-1e+300 -1e+300 -1e+300)             (-1e+300 -1e+300 -1e+300)             (-1e+300 -1e+300 -1e+300)             (-1e+300 -1e+300 -1e+300)             (-1e+300 -1e+300 -1e+300)
        0.145             (0.0658108 2.69334e-18 0)             (0.801359 3.87795e-16 0)             (1.12611 7.38421e-16 0)             (1.17674 6.03164e-16 0)             (1.13977 5.65995e-16 0)             (-1e+300 -1e+300 -1e+300)             (-1e+300 -1e+300 -1e+300)             (-1e+300 -1e+300 -1e+300)             (-1e+300 -1e+300 -1e+300)             (-1e+300 -1e+300 -1e+300)
         0.15             (0.064984 -1.79009e-19 0)             (0.794603 4.37035e-16 0)             (1.12527 7.55354e-16 0)             (1.1802 6.64115e-16 0)             (1.13972 5.67164e-16 0)             (-1e+300 -1e+300 -1e+300)             (-1e+300 -1e+300 -1e+300)             (-1e+300 -1e+300 -1e+300)             (-1e+300 -1e+300 -1e+300)             (-1e+300 -1e+300 -1e+300)
        0.155             (0.0641997 6.49637e-18 0)             (0.788089 3.92914e-16 0)             (1.12431 6.95388e-16 0)             (1.18361 7.82574e-16 0)             (1.13953 5.37606e-16 0)             (-1e+300 -1e+300 -1e+300)             (-1e+300 -1e+300 -1e+300)             (-1e+300 -1e+300 -1e+300)             (-1e+300 -1e+300 -1e+300)             (-1e+300 -1e+300 -1e+300)
         0.16             (0.0634545 -2.28515e-18 0)             (0.781805 4.38318e-16 0)             (1.12325 7.82094e-16 0)             (1.18698 7.88946e-16 0)             (1.13923 5.92867e-16 0)             (-1e+300 -1e+300 -1e+300)             (-1e+300 -1e+300 -1e+300)             (-1e+300 -1e+300 -1e+300)             (-1e+300 -1e+300 -1e+300)             (-1e+300 -1e+300 -1e+300)
        0.165             (0.0627453 7.82022e-19 0)             (0.77574 3.45641e-16 0)             (1.1221 8.42341e-16 0)             (1.1903 7.82896e-16 0)             (1.13881 5.28449e-16 0)             (-1e+300 -1e+300 -1e+300)             (-1e+300 -1e+300 -1e+300)             (-1e+300 -1e+300 -1e+300)             (-1e+300 -1e+300 -1e+300)             (-1e+300 -1e+300 -1e+300)
         0.17             (0.0620694 1.51405e-19 0)             (0.769882 4.62537e-16 0)             (1.12086 7.17454e-16 0)             (1.19358 7.90933e-16 0)             (1.13829 5.15908e-16 0)             (-1e+300 -1e+300 -1e+300)             (-1e+300 -1e+300 -1e+300)             (-1e+300 -1e+300 -1e+300)             (-1e+300 -1e+300 -1e+300)             (-1e+300 -1e+300 -1e+300)
        0.175             (0.0614244 5.04548e-18 0)             (0.764222 3.68103e-16 0)             (1.11954 7.73427e-16 0)             (1.19682 8.84498e-16 0)             (1.13767 5.69582e-16 0)             (-1e+300 -1e+300 -1e+300)             (-1e+300 -1e+300 -1e+300)             (-1e+300 -1e+300 -1e+300)             (-1e+300 -1e+300 -1e+300)             (-1e+300 -1e+300 -1e+300)
         0.18             (0.060808 3.12939e-18 0)             (0.75875 4.69723e-16 0)             (1.11816 7.63248e-16 0)             (1.20001 9.24097e-16 0)             (1.13697 4.00407e-16 0)             (-1e+300 -1e+300 -1e+300)             (-1e+300 -1e+300 -1e+300)             (-1e+300 -1e+300 -1e+300)             (-1e+300 -1e+300 -1e+300)             (-1e+300 -1e+300 -1e+300)
        0.185             (0.0602184 1.99785e-18 0)             (0.753457 3.43382e-16 0)             (1.11671 7.5861e-16 0)             (1.20317 9.19493e-16 0)             (1.13619 4.8951e-16 0)             (-1e+300 -1e+300 -1e+300)             (-1e+300 -1e+300 -1e+300)             (-1e+300 -1e+300 -1e+300)             (-1e+300 -1e+300 -1e+300)             (-1e+300 -1e+300 -1e+300)
         0.19             (0.0596537 2.788e-18 0)             (0.748333 3.97065e-16 0)             (1.11522 8.0229e-16 0)             (1.20628 9.74848e-16 0)             (1.13533 4.29597e-16 0)             (-1e+300 -1e+300 -1e+300)             (-1e+300 -1e+300 -1e+300)             (-1e+300 -1e+300 -1e+300)             (-1e+300 -1e+300 -1e+300)             (-1e+300 -1e+300 -1e+300)
        0.195             (0.0591122 1.19124e-17 0)             (0.743372 4.07333e-16 0)             (1.11367 7.79882e-16 0)             (1.20936 9.10924e-16 0)             (1.13442 3.81053e-16 0)             (-1e+300 -1e+300 -1e+300)             (-1e+300 -1e+300 -1e+300)             (-1e+300 -1e+300 -1e+300)             (-1e+300 -1e+300 -1e+300)             (-1e+300 -1e+300 -1e+300)
          0.2             (0.0585925 6.4576e-19 0)             (0.738566 4.04289e-16 0)             (1.11209 8.70776e-16 0)             (1.21239 1.01028e-15 0)             (1.13344 4.14476e-16 0)             (-1e+300 -1e+300 -1e+300)             (-1e+300 -1e+300 -1e+300)             (-1e+300 -1e+300 -1e+300)             (-1e+300 -1e+300 -1e+300)             (-1e+300 -1e+300 -1e+300)
        0.205             (0.0580933 1.01426e-17 0)             (0.733907 3.17841e-16 0)             (1.11047 9.03354e-16 0)             (1.21539 1.11362e-15 0)             (1.13241 3.08533e-16 0)             (-1e+300 -1e+300 -1e+300)             (-1e+300 -1e+300 -1e+300)             (-1e+300 -1e+300 -1e+300)             (-1e+300 -1e+300 -1e+300)             (-1e+300 -1e+300 -1e+300)
         0.21             (0.0576132 9.32231e-18 0)             (0.729389 3.04563e-16 0)             (1.10883 9.25118e-16 0)             (1.21835 1.05719e-15 0)             (1.13134 3.89588e-16 0)             (-1e+300 -1e+300 -1e+300)             (-1e+300 -1e+300 -1e+300)             (-1e+300 -1e+300 -1e+300)             (-1e+300 -1e+300 -1e+300)             (-1e+300 -1e+300 -1e+300)
        0.215             (0.0571512 5.84045e-18 0)             (0.725006 3.75504e-16 0)             (1.10715 9.4301e-16 0)             (1.22127 1.11614e-15 0)             (1.13022 3.22103e-16 0)             (-1e+300 -1e+300 -1e+300)             (-1e+300 -1e+300 -1e+300)             (-1e+300 -1e+300 -1e+300)             (-1e+300 -1e+300 -1e+300)             (-1e+300 -1e+300 -1e+300)
         0.22             (0.0567062 7.26531e-18 0)             (0.720751 3.46819e-16 0)             (1.10546 9.08402e-16 0)             (1.22415 1.11493e-15 0)             (1.12906 3.29924e-16 0)             (-1e+300 -1e+300 -1e+300)             (-1e+300 -1e+300 -1e+300)             (-1e+300 -1e+300 -1e+300)             (-1e+300 -1e+300 -1e+300)             (-1e+300 -1e+300 -1e+300)
        0.225             (0.0562772 6.6914e-18 0)             (0.71662 3.40838e-16 0)             (1.10375 9.62238e-16 0)             (1.227 1.23335e-15 0)             (1.12787 2.67572e-16 0)             (-1e+300 -1e+300 -1e+300)             (-1e+300 -1e+300 -1e+300)             (-1e+300 -1e+300 -1e+300)             (-1e+300 -1e+300 -1e+300)             (-1e+300 -1e+300 -1e+300)
         0.23             (0.0558634 5.33905e-18 0)             (0.712606 3.16708e-16 0)             (1.10202 9.14519e-16 0)             (1.22981 1.26426e-15 0)             (1.12665 3.52346e-16 0)             (-1e+300 -1e+300 -1e+300)             (-1e+300 -1e+300 -1e+300)             (-1e+300 -1e+300 -1e+300)             (-1e+300 -1e+300 -1e+300)             (-1e+300 -1e+300 -1e+300)
        0.235             (0.0554639 4.37621e-18 0)             (0.708706 3.18125e-16 0)             (1.10028 8.88662e-16 0)             (1.23258 1.12499e-15 0)             (1.1254 2.60985e-16 0)             (-1e+300 -1e+300 -1e+300)             (-1e+300 -1e+300 -1e+300)             (-1e+300 -1e+300 -1e+300)             (-1e+300 -1e+300 -1e+300)             (-1e+300 -1e+300 -1e+300)
         0.24             (0.0550779 6.95507e-18 0)             (0.704914 3.74809e-16 0)             (1.09853 9.98418e-16 0)             (1.23531 1.19208e-15 0)             (1.12413 2.51102e-16 0)             (-1e+300 -1e+300 -1e+300)             (-1e+300 -1e+300 -1e+300)             (-1e+300 -1e+300 -1e+300)             (-1e+300 -1e+300 -1e+300)             (-1e+300 -1e+300 -1e+300)
        0.245             (0.0547048 5.8751e-18 0)             (0.701226 3.72801e-16 0)             (1.09678 1.03073e-15 0)             (1.23802 1.18963e-15 0)             (1.12284 2.16223e-16 0)             (-1e+300 -1e+300 -1e+300)             (-1e+300 -1e+300 -1e+300)             (-1e+300 -1e+300 -1e+300)             (-1e+300 -1e+300 -1e+300)             (-1e+300 -1e+300 -1e+300)
         0.25             (0.0543439 4.51203e-19 0)             (0.697637 3.68988e-16 0)             (1.09502 9.82089e-16 0)             (1.24068 1.31018e-15 0)             (1.12153 1.82408e-16 0)             (-1e+300 -1e+300 -1e+300)             (-1e+300 -1e+300 -1e+300)             (-1e+300 -1e+300 -1e+300)             (-1e+300 -1e+300 -1e+300)             (-1e+300 -1e+300 -1e+300)
        0.255             (0.0539946 8.08697e-18 0)             (0.694145 3.12908e-16 0)             (1.09326 1.10357e-15 0)             (1.24331 1.38072e-15 0)             (1.1202 1.9613e-16 0)             (-1e+300 -1e+300 -1e+300)             (-1e+300 -1e+300 -1e+300)             (-1e+300 -1e+300 -1e+300)             (-1e+300 -1e+300 -1e+300)             (-1e+300 -1e+300 -1e+300)
         0.26             (0.0536564 1.77476e-18 0)             (0.690744 3.57686e-16 0)             (1.0915 1.03407e-15 0)             (1.24591 1.46263e-15 0)             (1.11886 1.21017e-16 0)             (-1e+300 -1e+300 -1e+300)             (-1e+300 -1e+300 -1e+300)             (-1e+300 -1e+300 -1e+300)             (-1e+300 -1e+300 -1e+300)             (-1e+300 -1e+300 -1e+300)
        0.265             (0.0533286 6.74689e-18 0)             (0.687432 3.25072e-16 0)             (1.08974 9.40745e-16 0)             (1.24847 1.54181e-15 0)             (1.11752 1.53691e-16 0)             (-1e+300 -1e+300 -1e+300)             (-1e+300 -1e+300 -1e+300)             (-1e+300 -1e+300 -1e+300)             (-1e+300 -1e+300 -1e+300)             (-1e+300 -1e+300 -1e+300)
         0.27             (0.0530108 5.3976e-18 0)             (0.684204 3.50435e-16 0)             (1.08799 9.03773e-16 0)             (1.25099 1.52853e-15 0)             (1.11616 8.14449e-17 0)             (-1e+300 -1e+300 -1e+300)             (-1e+300 -1e+300 -1e+300)             (-1e+300 -1e+300 -1e+300)             (-1e+300 -1e+300 -1e+300)             (-1e+300 -1e+300 -1e+300)
        0.275             (0.0527026 9.05012e-18 0)             (0.681059 3.03103e-16 0)             (1.08624 1.06179e-15 0)             (1.25348 1.47303e-15 0)             (1.11479 7.86854e-17 0)             (-1e+300 -1e+300 -1e+300)             (-1e+300 -1e+300 -1e+300)             (-1e+300 -1e+300 -1e+300)             (-1e+300 -1e+300 -1e+300)             (-1e+300 -1e+300 -1e+300)
         0.28             (0.0524035 5.02207e-18 0)             (0.677993 3.46849e-16 0)             (1.0845 1.05668e-15 0)             (1.25594 1.67459e-15 0)             (1.11342 2.53293e-16 0)             (-1e+300 -1e+300 -1e+300)             (-1e+300 -1e+300 -1e+300)             (-1e+300 -1e+300 -1e+300)             (-1e+300 -1e+300 -1e+300)             (-1e+300 -1e+300 -1e+300)
        0.285             (0.052113 5.35428e-18 0)             (0.675002 3.41504e-16 0)             (1.08276 1.04083e-15 0)             (1.25837 1.65745e-15 0)             (1.11205 2.50085e-16 0)             (-1e+300 -1e+300 -1e+300)             (-1e+300 -1e+300 -1e+300)             (-1e+300 -1e+300 -1e+300)             (-1e+300 -1e+300 -1e+300)             (-1e+300 -1e+300 -1e+300)
         0.29             (0.0518309 7.40231e-18 0)             (0.672085 3.3709e-16 0)             (1.08103 8.96421e-16 0)             (1.26076 1.63576e-15 0)             (1.11067 2.21386e-16 0)             (-1e+300 -1e+300 -1e+300)             (-1e+300 -1e+300 -1e+300)             (-1e+300 -1e+300 -1e+300)             (-1e+300 -1e+300 -1e+300)             (-1e+300 -1e+300 -1e+300)
        0.295             (0.0515567 3.64215e-18 0)             (0.669238 3.97956e-16 0)             (1.07931 9.761e-16 0)             (1.26312 1.6286e-15 0)             (1.10929 5.71448e-17 0)             (-1e+300 -1e+300 -1e+300)             (-1e+300 -1e+300 -1e+300)             (-1e+300 -1e+300 -1e+300)             (-1e+300 -1e+300 -1e+300)             (-1e+300 -1e+300 -1e+300)
          0.3             (0.0512902 6.6838e-18 0)             (0.66646 4.00403e-16 0)             (1.0776 1.0731e-15 0)             (1.26544 1.80061e-15 0)             (1.10791 1.14412e-16 0)             (-1e+300 -1e+300 -1e+300)             (-1e+300 -1e+300 -1e+300)             (-1e+300 -1e+300 -1e+300)             (-1e+300 -1e+300 -1e+300)             (-1e+300 -1e+300 -1e+300)
        0.305             (0.0510309 6.1043e-18 0)             (0.663747 4.06884e-16 0)             (1.07591 1.03937e-15 0)             (1.26774 1.67216e-15 0)             (1.10654 1.44234e-16 0)             (-1e+300 -1e+300 -1e+300)             (-1e+300 -1e+300 -1e+300)             (-1e+300 -1e+300 -1e+300)             (-1e+300 -1e+300 -1e+300)             (-1e+300 -1e+300 -1e+300)
         0.31             (0.0507786 5.0282e-18 0)             (0.661097 4.78995e-16 0)             (1.07422 1.12521e-15 0)             (1.27 1.77909e-15 0)             (1.10516 1.91216e-16 0)             (-1e+300 -1e+300 -1e+300)             (-1e+300 -1e+300 -1e+300)             (-1e+300 -1e+300 -1e+300)             (-1e+300 -1e+300 -1e+300)             (-1e+300 -1e+300 -1e+300)
        0.315             (0.0505331 7.76002e-18 0)             (0.658509 4.90822e-16 0)             (1.07255 1.16879e-15 0)             (1.27223 1.72602e-15 0)             (1.10379 1.20099e-16 0)             (-1e+300 -1e+300 -1e+300)             (-1e+300 -1e+300 -1e+300)             (-1e+300 -1e+300 -1e+300)             (-1e+300 -1e+300 -1e+300)             (-1e+300 -1e+300 -1e+300)
         0.32             (0.050294 5.86129e-18 0)             (0.655981 5.0301e-16 0)             (1.07089 1.15206e-15 0)             (1.27443 1.59113e-15 0)             (1.10242 2.34333e-16 0)             (-1e+300 -1e+300 -1e+300)             (-1e+300 -1e+300 -1e+300)             (-1e+300 -1e+300 -1e+300)             (-1e+300 -1e+300 -1e+300)             (-1e+300 -1e+300 -1e+300)
        0.325             (0.0500611 2.00597e-20 0)             (0.653509 5.70567e-16 0)             (1.06924 1.14283e-15 0)             (1.2766 1.75947e-15 0)             (1.10106 2.16215e-16 0)             (-1e+300 -1e+300 -1e+300)             (-1e+300 -1e+300 -1e+300)             (-1e+300 -1e+300 -1e+300)             (-1e+300 -1e+300 -1e+300)             (-1e+300 -1e+300 -1e+300)
         0.33             (0.0498342 5.22911e-19 0)             (0.651093 4.97232e-16 0)             (1.0676 1.23027e-15 0)             (1.27874 1.71647e-15 0)             (1.09971 2.72728e-16 0)             (-1e+300 -1e+300 -1e+300)             (-1e+300 -1e+300 -1e+300)             (-1e+300 -1e+300 -1e+300)             (-1e+300 -1e+300 -1e+300)             (-1e+300 -1e+300 -1e+300)
        0.335             (0.049613 8.04803e-18 0)             (0.648731 5.569e-16 0)             (1.06598 1.27851e-15 0)             (1.28085 1.67806e-15 0)             (1.09836 2.84384e-16 0)             (-1e+300 -1e+300 -1e+300)             (-1e+300 -1e+300 -1e+300)             (-1e+300 -1e+300 -1e+300)             (-1e+300 -1e+300 -1e+300)             (-1e+300 -1e+300 -1e+300)
         0.34             (0.0493973 2.94254e-18 0)             (0.646421 5.26385e-16 0)             (1.06438 1.35507e-15 0)             (1.28293 1.72637e-15 0)             (1.09701 2.35498e-16 0)             (-1e+300 -1e+300 -1e+300)             (-1e+300 -1e+300 -1e+300)             (-1e+300 -1e+300 -1e+300)             (-1e+300 -1e+300 -1e+300)             (-1e+300 -1e+300 -1e+300)
        0.345             (0.0491869 8.90301e-18 0)             (0.644161 5.61557e-16 0)             (1.06279 1.32963e-15 0)             (1.28498 1.67077e-15 0)             (1.09568 1.65789e-16 0)             (-1e+300 -1e+300 -1e+300)             (-1e+300 -1e+300 -1e+300)             (-1e+300 -1e+300 -1e+300)             (-1e+300 -1e+300 -1e+300)             (-1e+300 -1e+300 -1e+300)
         0.35             (0.0489816 4.29854e-18 0)             (0.64195 5.43507e-16 0)             (1.06121 1.33808e-15 0)             (1.28701 1.71058e-15 0)             (1.09435 1.92455e-16 0)             (-1e+300 -1e+300 -1e+300)             (-1e+300 -1e+300 -1e+300)             (-1e+300 -1e+300 -1e+300)             (-1e+300 -1e+300 -1e+300)             (-1e+300 -1e+300 -1e+300)
        0.355             (0.0487813 7.99263e-18 0)             (0.639786 5.81907e-16 0)             (1.05965 1.34207e-15 0)             (1.289 1.8429e-15 0)             (1.09303 1.69361e-16 0)             (-1e+300 -1e+300 -1e+300)             (-1e+300 -1e+300 -1e+300)             (-1e+300 -1e+300 -1e+300)             (-1e+300 -1e+300 -1e+300)             (-1e+300 -1e+300 -1e+300)
         0.36             (0.0485858 7.32969e-18 0)             (0.637668 4.98459e-16 0)             (1.0581 1.31161e-15 0)             (1.29097 1.82074e-15 0)             (1.09172 1.04016e-16 0)             (-1e+300 -1e+300 -1e+300)             (-1e+300 -1e+300 -1e+300)             (-1e+300 -1e+300 -1e+300)             (-1e+300 -1e+300 -1e+300)             (-1e+300 -1e+300 -1e+300)
        0.365             (0.0483948 7.95372e-18 0)             (0.635595 4.61189e-16 0)             (1.05657 1.37552e-15 0)             (1.29291 1.8567e-15 0)             (1.09042 2.3096e-16 0)             (-1e+300 -1e+300 -1e+300)             (-1e+300 -1e+300 -1e+300)             (-1e+300 -1e+300 -1e+300)             (-1e+300 -1e+300 -1e+300)             (-1e+300 -1e+300 -1e+300)
         0.37             (0.0482083 4.75155e-18 0)             (0.633564 5.36187e-16 0)             (1.05506 1.44425e-15 0)             (1.29482 1.70095e-15 0)             (1.08912 2.46207e-16 0)             (-1e+300 -1e+300 -1e+300)             (-1e+300 -1e+300 -1e+300)             (-1e+300 -1e+300 -1e+300)             (-1e+300 -1e+300 -1e+300)             (-1e+300 -1e+300 -1e+300)
        0.375             (0.048026 7.48202e-18 0)             (0.631576 6.01364e-16 0)             (1.05356 1.49998e-15 0)             (1.2967 1.85428e-15 0)             (1.08784 2.51964e-16 0)             (-1e+300 -1e+300 -1e+300)             (-1e+300 -1e+300 -1e+300)             (-1e+300 -1e+300 -1e+300)             (-1e+300 -1e+300 -1e+300)             (-1e+300 -1e+300 -1e+300)
         0.38             (0.0478479 4.88728e-18 0)             (0.629628 5.96131e-16 0)             (1.05207 1.46874e-15 0)             (1.29856 1.88606e-15 0)             (1.08657 2.78252e-16 0)             (-1e+300 -1e+300 -1e+300)             (-1e+300 -1e+300 -1e+300)             (-1e+300 -1e+300 -1e+300)             (-1e+300 -1e+300 -1e+300)             (-1e+300 -1e+300 -1e+300)