# Probe 0 (2 0 0.05)
# Probe 1 (2 0.05 0.05)
# Probe 2 (2 0.1 0.05)
# Probe 3 (2 0.2 0.05)
# Probe 4 (2 0.4 0.05)
# Probe 5 (2 0.6 0.05)  # Not Found
# Probe 6 (2 0.8 0.05)  # Not Found
# Probe 7 (2 0.9 0.05)  # Not Found
# Probe 8 (2 0.95 0.05)  # Not Found
# Probe 9 (2 1 0.05)  # Not Found
#       Probe             0             1             2             3             4             5             6             7             8             9
#        Time
        0.005             (0.468553 1.69467e-17 0)             (1.01837 -1.07144e-16 0)             (1.01837 -5.20823e-17 0)             (1.01837 -1.07793e-16 0)             (1.01837 2.45604e-16 0)             (-1e+300 -1e+300 -1e+300)             (-1e+300 -1e+300 -1e+300)             (-1e+300 -1e+300 -1e+300)             (-1e+300 -1e+300 -1e+300)             (-1e+300 -1e+300 -1e+300)
         0.01             (0.295723 -1.41159e-17 0)             (1.03043 -1.11495e-16 0)             (1.03043 -1.5487e-16 0)             (1.03043 3.31436e-16 0)             (1.03043 4.34644e-16 0)             (-1e+300 -1e+300 -1e+300)             (-1e+300 -1e+300 -1e+300)             (-1e+300 -1e+300 -1e+300)             (-1e+300 -1e+300 -1e+300)             (-1e+300 -1e+300 -1e+300)
        0.015             (0.228148 5.25478e-17 0)             (1.03907 3.03704e-17 0)             (1.03928 -1.63001e-16 0)             (1.03928 2.04074e-16 0)             (1.03928 5.13875e-16 0)             (-1e+300 -1e+300 -1e+300)             (-1e+300 -1e+300 -1e+300)             (-1e+300 -1e+300 -1e+300)             (-1e+300 -1e+300 -1e+300)             (-1e+300 -1e+300 -1e+300)
         0.02             (0.193257 1.74698e-17 0)             (1.04506 -2.25718e-17 0)             (1.04659 -4.09547e-17 0)             (1.04659 6.62389e-17 0)             (1.04659 4.54589e-16 0)             (-1e+300 -1e+300 -1e+300)             (-1e+300 -1e+300 -1e+300)             (-1e+300 -1e+300 -1e+300)             (-1e+300 -1e+300 -1e+300)             (-1e+300 -1e+300 -1e+300)
        0.025             (0.171453 -1.63901e-17 0)             (1.04836 1.57823e-16 0)             (1.05298 -1.22946e-16 0)             (1.05298 1.88667e-17 0)             (1.05298 4.18795e-16 0)             (-1e+300 -1e+300 -1e+300)             (-1e+300 -1e+300 -1e+300)             (-1e+300 -1e+300 -1e+300)             (-1e+300 -1e+300 -1e+300)             (-1e+300 -1e+300 -1e+300)
         0.03             (0.156159 -9.45967e-18 0)             (1.04903 8.87828e-17 0)             (1.05875 -1.18028e-16 0)             (1.05875 -1.53821e-16 0)             (1.05875 4.48698e-16 0)             (-1e+300 -1e+300 -1e+300)             (-1e+300 -1e+300 -1e+300)             (-1e+300 -1e+300 -1e+300)             (-1e+300 -1e+300 -1e+300)             (-1e+300 -1e+300 -1e+300)
        0.035             (0.144645 -1.16601e-17 0)             (1.04736 1.73584e-16 0)             (1.06406 -9.7397e-17 0)             (1.06407 -1.70821e-16 0)             (1.06407 5.204e-16 0)             (-1e+300 -1e+300 -1e+300)             (-1e+300 -1e+300 -1e+300)             (-1e+300 -1e+300 -1e+300)             (-1e+300 -1e+300 -1e+300)             (-1e+300 -1e+300 -1e+300)
         0.04             (0.135563 -1.4183e-17 0)             (1.04373 2.02147e-16 0)             (1.06902 -8.54772e-17 0)             (1.06903 -2.1239e-16 0)             (1.06902 4.88178e-16 0)             (-1e+300 -1e+300 -1e+300)             (-1e+300 -1e+300 -1e+300)             (-1e+300 -1e+300 -1e+300)             (-1e+300 -1e+300 -1e+300)             (-1e+300 -1e+300 -1e+300)
        0.045             (0.128161 -5.12015e-18 0)             (1.03855 2.34748e-16 0)             (1.07368 -1.54744e-16 0)             (1.0737 -2.63436e-16 0)             (1.0737 4.58881e-16 0)             (-1e+300 -1e+300 -1e+300)             (-1e+300 -1e+300 -1e+300)             (-1e+300 -1e+300 -1e+300)             (-1e+300 -1e+300 -1e+300)             (-1e+300 -1e+300 -1e+300)
         0.05             (0.121977 -7.28135e-18 0)             (1.03218 1.89796e-16 0)             (1.07809 -1.00128e-16 0)             (1.07814 -3.11797e-16 0)             (1.07812 5.25464e-16 0)             (-1e+300 -1e+300 -1e+300)             (-1e+300 -1e+300 -1e+300)             (-1e+300 -1e+300 -1e+300)             (-1e+300 -1e+300 -1e+300)             (-1e+300 -1e+300 -1e+300)
        0.055             (0.11671 -8.43622e-19 0)             (1.02492 1.78475e-16 0)             (1.08228 -1.40123e-16 0)             (1.08238 -3.6605e-16 0)             (1.08234 6.22317e-16 0)             (-1e+300 -1e+300 -1e+300)             (-1e+300 -1e+300 -1e+300)             (-1e+300 -1e+300 -1e+300)             (-1e+300 -1e+300 -1e+300)             (-1e+300 -1e+300 -1e+300)
         0.06             (0.112155 -6.67229e-18 0)             (1.01705 2.25934e-16 0)             (1.08625 -5.86632e-17 0)             (1.08644 -2.36092e-16 0)             (1.08637 5.69783e-16 0)             (-1e+300 -1e+300 -1e+300)             (-1e+300 -1e+300 -1e+300)             (-1e+300 -1e+300 -1e+300)             (-1e+300 -1e+300 -1e+300)             (-1e+300 -1e+300 -1e+300)
        0.065             (0.108165 -3.59175e-18 0)             (1.00874 1.36756e-16 0)             (1.09002 -6.06902e-17 0)             (1.09036 -2.45601e-16 0)             (1.09022 5.52753e-16 0)             (-1e+300 -1e+300 -1e+300)             (-1e+300 -1e+300 -1e+300)             (-1e+300 -1e+300 -1e+300)             (-1e+300 -1e+300 -1e+300)             (-1e+300 -1e+300 -1e+300)
         0.07             (0.104633 -3.52103e-18 0)             (1.00017 1.92318e-16 0)             (1.0936 -4.61229e-18 0)             (1.09414 -1.79746e-16 0)             (1.09391 5.6881e-16 0)             (-1e+300 -1e+300 -1e+300)             (-1e+300 -1e+300 -1e+300)             (-1e+300 -1e+300 -1e+300)             (-1e+300 -1e+300 -1e+300)             (-1e+300 -1e+300 -1e+300)
        0.075             (0.101477 -6.779e-18 0)             (0.99146 2.13807e-16 0)             (1.09698 -2.56572e-17 0)             (1.09781 -2.91268e-16 0)             (1.09743 5.35427e-16 0)             (-1e+300 -1e+300 -1e+300)             (-1e+300 -1e+300 -1e+300)             (-1e+300 -1e+300 -1e+300)             (-1e+300 -1e+300 -1e+300)             (-1e+300 -1e+300 -1e+300)
         0.08             (0.0986366 6.14321e-19 0)             (0.982694 9.31551e-17 0)             (1.10016 -1.00171e-16 0)             (1.10137 -3.57338e-16 0)             (1.10079 5.443e-16 0)             (-1e+300 -1e+300 -1e+300)             (-1e+300 -1e+300 -1e+300)             (-1e+300 -1e+300 -1e+300)             (-1e+300 -1e+300 -1e+300)             (-1e+300 -1e+300 -1e+300)
        0.085             (0.0960618 8.58836e-18 0)             (0.973945 1.11133e-16 0)             (1.10315 -4.38745e-17 0)             (1.10483 -3.46422e-16 0)             (1.104 5.82224e-16 0)             (-1e+300 -1e+300 -1e+300)             (-1e+300 -1e+300 -1e+300)             (-1e+300 -1e+300 -1e+300)             (-1e+300 -1e+300 -1e+300)             (-1e+300 -1e+300 -1e+300)
         0.09             (0.0937143 -1.64659e-19 0)             (0.965267 1.2547e-16 0)             (1.10594 -1.43454e-16 0)             (1.10821 -2.8728e-16 0)             (1.10705 6.08764e-16 0)             (-1e+300 -1e+300 -1e+300)             (-1e+300 -1e+300 -1e+300)             (-1e+300 -1e+300 -1e+300)             (-1e+300 -1e+300 -1e+300)             (-1e+300 -1e+300 -1e+300)
        0.095             (0.0915627 -1.13973e-18 0)             (0.9567 2.5364e-17 0)             (1.10854 -1.56437e-16 0)             (1.11151 -1.90729e-16 0)             (1.10994 5.01606e-16 0)             (-1e+300 -1e+300 -1e+300)             (-1e+300 -1e+300 -1e+300)             (-1e+300 -1e+300 -1e+300)             (-1e+300 -1e+300 -1e+300)             (-1e+300 -1e+300 -1e+300)
          0.1             (0.0895816 5.21441e-18 0)             (0.948271 1.39034e-16 0)             (1.11095 -2.08563e-16 0)             (1.11473 -2.3689e-16 0)             (1.11267 4.71089e-16 0)             (-1e+300 -1e+300 -1e+300)             (-1e+300 -1e+300 -1e+300)             (-1e+300 -1e+300 -1e+300)             (-1e+300 -1e+300 -1e+300)             (-1e+300 -1e+300 -1e+300)
        0.105             (0.0877496 6.23501e-18 0)             (0.940001 1.6227e-16 0)             (1.11317 -1.7746e-16 0)             (1.11789 -1.75961e-16 0)             (1.11525 3.89785e-16 0)             (-1e+300 -1e+300 -1e+300)             (-1e+300 -1e+300 -1e+300)             (-1e+300 -1e+300 -1e+300)             (-1e+300 -1e+300 -1e+300)             (-1e+300 -1e+300 -1e+300)
         0.11             (0.0860493 7.425e-18 0)             (0.931905 1.55324e-16 0)             (1.1152 -1.68428e-16 0)             (1.12098 -1.66518e-16 0)             (1.11768 4.32309e-16 0)             (-1e+300 -1e+300 -1e+300)             (-1e+300 -1e+300 -1e+300)             (-1e+300 -1e+300 -1e+300)             (-1e+300 -1e+300 -1e+300)             (-1e+300 -1e+300 -1e+300)
        0.115             (0.0844657 -1.41937e-18 0)             (0.923991 2.00578e-16 0)             (1.11706 -1.68097e-16 0)             (1.12402 -1.65951e-16 0)             (1.11995 4.25619e-16 0)             (-1e+300 -1e+300 -1e+300)             (-1e+300 -1e+300 -1e+300)             (-1e+300 -1e+300 -1e+300)             (-1e+300 -1e+300 -1e+300)             (-1e+300 -1e+300 -1e+300)
         0.12             (0.0829862 4.42719e-18 0)             (0.916265 1.70514e-16 0)             (1.11874 -1.839e-16 0)             (1.127 -1.75311e-16 0)             (1.12208 3.95838e-16 0)             (-1e+300 -1e+300 -1e+300)             (-1e+300 -1e+300 -1e+300)             (-1e+300 -1e+300 -1e+300)             (-1e+300 -1e+300 -1e+300)             (-1e+300 -1e+300 -1e+300)
        0.125             (0.0816001 -1.81218e-18 0)             (0.90873 2.09583e-16 0)             (1.12025 -2.94109e-16 0)             (1.12994 -2.20225e-16 0)             (1.12405 4.09447e-16 0)             (-1e+300 -1e+300 -1e+300)             (-1e+300 -1e+300 -1e+300)             (-1e+300 -1e+300 -1e+300)             (-1e+300 -1e+300 -1e+300)             (-1e+300 -1e+300 -1e+300)
         0.13             (0.080298 2.15191e-18 0)             (0.901386 1.98307e-16 0)             (1.12159 -2.80784e-16 0)             (1.13282 -1.64624e-16 0)             (1.12589 3.96773e-16 0)             (-1e+300 -1e+300 -1e+300)             (-1e+300 -1e+300 -1e+300)             (-1e+300 -1e+300 -1e+300)             (-1e+300 -1e+300 -1e+300)             (-1e+300 -1e+300 -1e+300)
        0.135             (0.079072 -4.69077e-18 0)             (0.894232 1.78916e-16 0)             (1.12278 -3.42662e-16 0)             (1.13566 -1.24996e-16 0)             (1.12758 3.43234e-16 0)             (-1e+300 -1e+300 -1e+300)             (-1e+300 -1e+300 -1e+300)             (-1e+300 -1e+300 -1e+300)             (-1e+300 -1e+300 -1e+300)             (-1e+300 -1e+300 -1e+300)
         0.14             (0.077915 9.74736e-19 0)             (0.887266 1.63179e-16 0)             (1.12382 -3.1162e-16 0)             (1.13846 -1.98798e-16 0)             (1.12914 3.16144e-16 0)             (-1e+300 -1e+300 -1e+300)             (-1e+300 -1e+300 -1e+300)             (-1e+300 -1e+300 -1e+300)             (-1e+300 -1e+300 -1e+300)             (-1e+300 -1e+300 -1e+300)
        0.145             (0.0768209 2.26855e-18 0)             (0.880485 2.7242e-16 0)             (1.12471 -3.45737e-16 0)             (1.14121 -2.06225e-16 0)             (1.13057 3.07226e-16 0)             (-1e+300 -1e+300 -1e+300)             (-1e+300 -1e+300 -1e+300)             (-1e+300 -1e+300 -1e+300)             (-1e+300 -1e+300 -1e+300)             (-1e+300 -1e+300 -1e+300)
         0.15             (0.0757843 -4.09768e-20 0)             (0.873884 2.2583e-16 0)             (1.12547 -4.60841e-16 0)             (1.14393 -3.977e-17 0)             (1.13187 3.73465e-16 0)             (-1e+300 -1e+300 -1e+300)             (-1e+300 -1e+300 -1e+300)             (-1e+300 -1e+300 -1e+300)             (-1e+300 -1e+300 -1e+300)             (-1e+300 -1e+300 -1e+300)
        0.155             (0.0748003 -5.21831e-18 0)             (0.86746 2.49879e-16 0)             (1.1261 -4.31759e-16 0)             (1.14662 4.68277e-17 0)             (1.13304 2.71956e-16 0)             (-1e+300 -1e+300 -1e+300)             (-1e+300 -1e+300 -1e+300)             (-1e+300 -1e+300 -1e+300)             (-1e+300 -1e+300 -1e+300)             (-1e+300 -1e+300 -1e+300)
         0.16             (0.0738649 3.82144e-18 0)             (0.861207 2.47524e-16 0)             (1.1266 -4.59142e-16 0)             (1.14926 1.48877e-16 0)             (1.1341 2.07361e-16 0)             (-1e+300 -1e+300 -1e+300)             (-1e+300 -1e+300 -1e+300)             (-1e+300 -1e+300 -1e+300)             (-1e+300 -1e+300 -1e+300)             (-1e+300 -1e+300 -1e+300)
        0.165             (0.0729741 4.52021e-18 0)             (0.855121 1.72784e-16 0)             (1.12699 -4.07707e-16 0)             (1.15188 1.95563e-16 0)             (1.13505 2.45197e-16 0)             (-1e+300 -1e+300 -1e+300)             (-1e+300 -1e+300 -1e+300)             (-1e+300 -1e+300 -1e+300)             (-1e+300 -1e+300 -1e+300)             (-1e+300 -1e+300 -1e+300)
         0.17             (0.0721247 3.33141e-18 0)             (0.849197 1.34746e-16 0)             (1.12727 -3.17176e-16 0)             (1.15447 1.2291e-16 0)             (1.13589 2.57091e-16 0)             (-1e+300 -1e+300 -1e+300)             (-1e+300 -1e+300 -1e+300)             (-1e+300 -1e+300 -1e+300)             (-1e+300 -1e+300 -1e+300)             (-1e+300 -1e+300 -1e+300)
        0.175             (0.0713135 -1.15105e-18 0)             (0.843429 1.08288e-16 0)             (1.12744 -4.28762e-16 0)             (1.15702 1.42925e-16 0)             (1.13662 2.03107e-16 0)             (-1e+300 -1e+300 -1e+300)             (-1e+300 -1e+300 -1e+300)             (-1e+300 -1e+300 -1e+300)             (-1e+300 -1e+300 -1e+300)             (-1e+300 -1e+300 -1e+300)
         0.18             (0.0705379 5.49097e-18 0)             (0.837813 9.918e-17 0)             (1.12751 -3.79594e-16 0)             (1.15955 1.83892e-17 0)             (1.13726 1.34456e-16 0)             (-1e+300 -1e+300 -1e+300)             (-1e+300 -1e+300 -1e+300)             (-1e+300 -1e+300 -1e+300)             (-1e+300 -1e+300 -1e+300)             (-1e+300 -1e+300 -1e+300)
        0.185             (0.0697955 1.16444e-18 0)             (0.832343 7.27499e-17 0)             (1.12749 -4.06939e-16 0)             (1.16204 9.36638e-18 0)             (1.1378 8.66872e-17 0)             (-1e+300 -1e+300 -1e+300)             (-1e+300 -1e+300 -1e+300)             (-1e+300 -1e+300 -1e+300)             (-1e+300 -1e+300 -1e+300)             (-1e+300 -1e+300 -1e+300)
         0.19             (0.0690838 1.81763e-18 0)             (0.827016 4.39149e-17 0)             (1.12738 -3.40558e-16 0)             (1.16451 -1.9135e-16 0)             (1.13825 1.99312e-16 0)             (-1e+300 -1e+300 -1e+300)             (-1e+300 -1e+300 -1e+300)             (-1e+300 -1e+300 -1e+300)             (-1e+300 -1e+300 -1e+300)             (-1e+300 -1e+300 -1e+300)
        0.195             (0.0684011 -4.34452e-19 0)             (0.821825 8.48535e-17 0)             (1.1272 -3.70662e-16 0)             (1.16696 -2.20397e-16 0)             (1.13862 2.26796e-16 0)             (-1e+300 -1e+300 -1e+300)             (-1e+300 -1e+300 -1e+300)             (-1e+300 -1e+300 -1e+300)             (-1e+300 -1e+300 -1e+300)             (-1e+300 -1e+300 -1e+300)
          0.2             (0.0677453 -6.88177e-18 0)             (0.816766 8.00419e-17 0)             (1.12693 -3.745e-16 0)             (1.16938 -1.92325e-16 0)             (1.1389 1.74178e-16 0)             (-1e+300 -1e+300 -1e+300)             (-1e+300 -1e+300 -1e+300)             (-1e+300 -1e+300 -1e+300)             (-1e+300 -1e+300 -1e+300)             (-1e+300 -1e+300 -1e+300)
        0.205             (0.0671148 -3.11261e-18 0)             (0.811835 2.46866e-17 0)             (1.12659 -2.57487e-16 0)             (1.17178 -2.73943e-16 0)             (1.13911 2.00991e-16 0)             (-1e+300 -1e+300 -1e+300)             (-1e+300 -1e+300 -1e+300)             (-1e+300 -1e+300 -1e+300)             (-1e+300 -1e+300 -1e+300)             (-1e+300 -1e+300 -1e+300)
         0.21             (0.0665081 -5.21983e-18 0)             (0.807027 6.82799e-17 0)             (1.12619 -2.25046e-16 0)             (1.17415 -2.51246e-16 0)             (1.13924 2.23766e-16 0)             (-1e+300 -1e+300 -1e+300)             (-1e+300 -1e+300 -1e+300)             (-1e+300 -1e+300 -1e+300)             (-1e+300 -1e+300 -1e+300)             (-1e+300 -1e+300 -1e+300)
        0.215             (0.0659237 -4.0564e-18 0)             (0.802338 5.89745e-17 0)             (1.12572 -1.20679e-16 0)             (1.1765 -1.99304e-16 0)             (1.13931 1.76968e-16 0)             (-1e+300 -1e+300 -1e+300)             (-1e+300 -1e+300 -1e+300)             (-1e+300 -1e+300 -1e+300)             (-1e+300 -1e+300 -1e+300)             (-1e+300 -1e+300 -1e+300)
         0.22             (0.0653604 3.79631e-18 0)             (0.797765 4.41146e-17 0)             (1.12519 -1.6824e-16 0)             (1.17883 -2.55133e-16 0)             (1.13931 1.38114e-16 0)             (-1e+300 -1e+300 -1e+300)             (-1e+300 -1e+300 -1e+300)             (-1e+300 -1e+300 -1e+300)             (-1e+300 -1e+300 -1e+300)             (-1e+300 -1e+300 -1e+300)
        0.225             (0.0648169 3.23881e-18 0)             (0.793302 2.94944e-17 0)             (1.12461 -1.9785e-16 0)             (1.18113 -1.97929e-16 0)             (1.13925 7.97368e-17 0)             (-1e+300 -1e+300 -1e+300)             (-1e+300 -1e+300 -1e+300)             (-1e+300 -1e+300 -1e+300)             (-1e+300 -1e+300 -1e+300)             (-1e+300 -1e+300 -1e+300)
         0.23             (0.0642922 2.75036e-18 0)             (0.788947 7.0592e-17 0)             (1.12397 -1.01554e-16 0)             (1.18342 -2.78126e-16 0)             (1.13912 5.76927e-17 0)             (-1e+300 -1e+300 -1e+300)             (-1e+300 -1e+300 -1e+300)             (-1e+300 -1e+300 -1e+300)             (-1e+300 -1e+300 -1e+300)             (-1e+300 -1e+300 -1e+300)
        0.235             (0.0637853 5.67852e-18 0)             (0.784695 3.71406e-17 0)             (1.12329 -1.31352e-16 0)             (1.18568 -2.67264e-16 0)             (1.13895 1.66341e-17 0)             (-1e+300 -1e+300 -1e+300)             (-1e+300 -1e+300 -1e+300)             (-1e+300 -1e+300 -1e+300)             (-1e+300 -1e+300 -1e+300)             (-1e+300 -1e+300 -1e+300)
         0.24             (0.0632951 1.03809e-18 0)             (0.780543 1.0601e-16 0)             (1.12256 -1.16686e-16 0)             (1.18792 -1.79012e-16 0)             (1.13872 -5.42822e-17 0)             (-1e+300 -1e+300 -1e+300)             (-1e+300 -1e+300 -1e+300)             (-1e+300 -1e+300 -1e+300)             (-1e+300 -1e+300 -1e+300)             (-1e+300 -1e+300 -1e+300)
        0.245             (0.0628208 1.41947e-18 0)             (0.776488 9.43539e-17 0)             (1.12179 -1.51998e-16 0)             (1.19015 -3.00954e-16 0)             (1.13844 -9.55741e-17 0)             (-1e+300 -1e+300 -1e+300)             (-1e+300 -1e+300 -1e+300)             (-1e+300 -1e+300 -1e+300)             (-1e+300 -1e+300 -1e+300)             (-1e+300 -1e+300 -1e+300)
         0.25             (0.0623617 2.12378e-18 0)             (0.772526 1.07378e-16 0)             (1.12099 -2.01753e-16 0)             (1.19235 -2.99879e-16 0)             (1.13811 -4.50581e-17 0)             (-1e+300 -1e+300 -1e+300)             (-1e+300 -1e+300 -1e+300)             (-1e+300 -1e+300 -1e+300)             (-1e+300 -1e+300 -1e+300)             (-1e+300 -1e+300 -1e+300)
        0.255             (0.0619169 4.16895e-18 0)             (0.768655 1.04795e-16 0)             (1.12014 -2.72069e-16 0)             (1.19454 -2.66723e-16 0)             (1.13775 -4.94859e-17 0)             (-1e+300 -1e+300 -1e+300)             (-1e+300 -1e+300 -1e+300)             (-1e+300 -1e+300 -1e+300)             (-1e+300 -1e+300 -1e+300)             (-1e+300 -1e+300 -1e+300)
         0.26             (0.0614857 9.2604e-19 0)             (0.764871 8.75741e-17 0)             (1.11927 -3.11968e-16 0)             (1.1967 -3.10491e-16 0)             (1.13734 -6.00162e-17 0)             (-1e+300 -1e+300 -1e+300)             (-1e+300 -1e+300 -1e+300)             (-1e+300 -1e+300 -1e+300)             (-1e+300 -1e+300 -1e+300)             (-1e+300 -1e+300 -1e+300)
        0.265             (0.0610675 1.65432e-18 0)             (0.761172 3.68558e-17 0)             (1.11836 -2.57675e-16 0)             (1.19885 -3.6296e-16 0)             (1.13689 -9.1397e-17 0)             (-1e+300 -1e+300 -1e+300)             (-1e+300 -1e+300 -1e+300)             (-1e+300 -1e+300 -1e+300)             (-1e+300 -1e+300 -1e+300)             (-1e+300 -1e+300 -1e+300)
         0.27             (0.0606617 1.93731e-18 0)             (0.757554 9.34328e-17 0)             (1.11743 -2.74152e-16 0)             (1.20098 -3.8562e-16 0)             (1.1364 -1.63979e-16 0)             (-1e+300 -1e+300 -1e+300)             (-1e+300 -1e+300 -1e+300)             (-1e+300 -1e+300 -1e+300)             (-1e+300 -1e+300 -1e+300)             (-1e+300 -1e+300 -1e+300)
        0.275             (0.0602677 3.61606e-18 0)             (0.754016 1.02537e-16 0)             (1.11647 -2.28603e-16 0)             (1.20309 -3.67843e-16 0)             (1.13588 -1.1459e-16 0)             (-1e+300 -1e+300 -1e+300)             (-1e+300 -1e+300 -1e+300)             (-1e+300 -1e+300 -1e+300)             (-1e+300 -1e+300 -1e+300)             (-1e+300 -1e+300 -1e+300)
         0.28             (0.059885 -2.14265e-18 0)             (0.750554 6.14794e-17 0)             (1.11548 -2.66928e-16 0)             (1.20518 -3.6577e-16 0)             (1.13533 -1.81404e-16 0)             (-1e+300 -1e+300 -1e+300)             (-1e+300 -1e+300 -1e+300)             (-1e+300 -1e+300 -1e+300)             (-1e+300 -1e+300 -1e+300)             (-1e+300 -1e+300 -1e+300)
        0.285             (0.059513 9.01455e-19 0)             (0.747166 9.43435e-17 0)             (1.11447 -1.46852e-16 0)             (1.20725 -1.99276e-16 0)             (1.13475 -1.38396e-16 0)             (-1e+300 -1e+300 -1e+300)             (-1e+300 -1e+300 -1e+300)             (-1e+300 -1e+300 -1e+300)             (-1e+300 -1e+300 -1e+300)             (-1e+300 -1e+300 -1e+300)
         0.29             (0.0591513 2.55831e-19 0)             (0.74385 1.35853e-16 0)             (1.11345 -2.59458e-16 0)             (1.20931 -3.6924e-16 0)             (1.13413 -1.53229e-16 0)             (-1e+300 -1e+300 -1e+300)             (-1e+300 -1e+300 -1e+300)             (-1e+300 -1e+300 -1e+300)             (-1e+300 -1e+300 -1e+300)             (-1e+300 -1e+300 -1e+300)
        0.295             (0.0587994 -4.29288e-20 0)             (0.740604 9.13122e-17 0)             (1.1124 -2.37314e-16 0)             (1.21134 -3.11092e-16 0)             (1.1335 -7.3368e-17 0)             (-1e+300 -1e+300 -1e+300)             (-1e+300 -1e+300 -1e+300)             (-1e+300 -1e+300 -1e+300)             (-1e+300 -1e+300 -1e+300)             (-1e+300 -1e+300 -1e+300)
          0.3             (0.058457 -3.77648e-18 0)             (0.737425 9.70546e-17 0)             (1.11134 -2.30549e-16 0)             (1.21336 -2.35431e-16 0)             (1.13284 -2.93818e-17 0)             (-1e+300 -1e+300 -1e+300)             (-1e+300 -1e+300 -1e+300)             (-1e+300 -1e+300 -1e+300)             (-1e+300 -1e+300 -1e+300)             (-1e+300 -1e+300 -1e+300)
        0.305             (0.0581236 -3.71492e-18 0)             (0.734311 1.26526e-16 0)             (1.11026 -1.49667e-16 0)             (1.21537 -3.24283e-16 0)             (1.13215 4.34719e-17 0)             (-1e+300 -1e+300 -1e+300)             (-1e+300 -1e+300 -1e+300)             (-1e+300 -1e+300 -1e+300)             (-1e+300 -1e+300 -1e+300)             (-1e+300 -1e+300 -1e+300)
         0.31             (0.0577989 3.05302e-18 0)             (0.731261 1.02753e-16 0)             (1.10917 -2.88222e-16 0)             (1.21735 -2.10812e-16 0)             (1.13144 3.56377e-17 0)             (-1e+300 -1e+300 -1e+300)             (-1e+300 -1e+300 -1e+300)             (-1e+300 -1e+300 -1e+300)             (-1e+300 -1e+300 -1e+300)             (-1e+300 -1e+300 -1e+300)
        0.315             (0.0574824 -5.05494e-19 0)             (0.728273 1.17405e-16 0)             (1.10807 -2.52876e-16 0)             (1.21932 -2.0521e-16 0)             (1.13072 1.33872e-16 0)             (-1e+300 -1e+300 -1e+300)             (-1e+300 -1e+300 -1e+300)             (-1e+300 -1e+300 -1e+300)             (-1e+300 -1e+300 -1e+300)             (-1e+300 -1e+300 -1e+300)
         0.32             (0.057174 -2.36958e-18 0)             (0.725344 1.51745e-16 0)             (1.10695 -2.9816e-16 0)             (1.22127 -2.88757e-16 0)             (1.12997 1.33413e-16 0)             (-1e+300 -1e+300 -1e+300)             (-1e+300 -1e+300 -1e+300)             (-1e+300 -1e+300 -1e+300)             (-1e+300 -1e+300 -1e+300)             (-1e+300 -1e+300 -1e+300)
        0.325             (0.0568732 -4.52342e-18 0)             (0.722473 6.22287e-17 0)             (1.10583 -2.9126e-16 0)             (1.22321 -2.49853e-16 0)             (1.12921 2.11108e-16 0)             (-1e+300 -1e+300 -1e+300)             (-1e+300 -1e+300 -1e+300)             (-1e+300 -1e+300 -1e+300)             (-1e+300 -1e+300 -1e+300)             (-1e+300 -1e+300 -1e+300)
         0.33             (0.0565798 4.66002e-18 0)             (0.719658 7.90874e-17 0)             (1.10469 -2.86989e-16 0)             (1.22513 -2.8387e-16 0)             (1.12843 1.8936e-16 0)             (-1e+300 -1e+300 -1e+300)             (-1e+300 -1e+300 -1e+300)             (-1e+300 -1e+300 -1e+300)             (-1e+300 -1e+300 -1e+300)             (-1e+300 -1e+300 -1e+300)
        0.335             (0.0562935 2.78387e-18 0)             (0.716898 4.53081e-17 0)             (1.10355 -1.40888e-16 0)             (1.22703 -3.20398e-16 0)             (1.12764 1.7968e-16 0)             (-1e+300 -1e+300 -1e+300)             (-1e+300 -1e+300 -1e+300)             (-1e+300 -1e+300 -1e+300)             (-1e+300 -1e+300 -1e+300)             (-1e+300 -1e+300 -1e+300)
         0.34             (0.056014 -1.4274e-19 0)             (0.714191 6.66773e-17 0)             (1.1024 -3.0695e-16 0)             (1.22891 -3.02415e-16 0)             (1.12683 2.53379e-16 0)             (-1e+300 -1e+300 -1e+300)             (-1e+300 -1e+300 -1e+300)             (-1e+300 -1e+300 -1e+300)             (-1e+300 -1e+300 -1e+300)             (-1e+300 -1e+300 -1e+300)
        0.345             (0.055741 4.07651e-18 0)             (0.711536 -2.3201e-17 0)             (1.10125 -2.20079e-16 0)             (1.23078 -2.9793e-16 0)             (1.12601 3.28015e-16 0)             (-1e+300 -1e+300 -1e+300)             (-1e+300 -1e+300 -1e+300)             (-1e+300 -1e+300 -1e+300)             (-1e+300 -1e+300 -1e+300)             (-1e+300 -1e+300 -1e+300)
         0.35             (0.0554745 2.80611e-18 0)             (0.70893 4.1623e-17 0)             (1.10009 -2.31219e-16 0)             (1.23263 -3.94831e-16 0)             (1.12518 3.12444e-16 0)             (-1e+300 -1e+300 -1e+300)             (-1e+300 -1e+300 -1e+300)             (-1e+300 -1e+300 -1e+300)             (-1e+300 -1e+300 -1e+300)             (-1e+300 -1e+300 -1e+300)
        0.355             (0.055214 2.76755e-18 0)             (0.706373 7.65018e-17 0)             (1.09892 -2.61489e-16 0)             (1.23447 -3.57571e-16 0)             (1.12433 3.24633e-16 0)             (-1e+300 -1e+300 -1e+300)             (-1e+300 -1e+300 -1e+300)             (-1e+300 -1e+300 -1e+300)             (-1e+300 -1e+300 -1e+300)             (-1e+300 -1e+300 -1e+300)
         0.36             (0.0549594 6.52082e-19 0)             (0.703864 1.14258e-16 0)             (1.09776 -2.36203e-16 0)             (1.23629 -4.47206e-16 0)             (1.12348 3.26529e-16 0)             (-1e+300 -1e+300 -1e+300)             (-1e+300 -1e+300 -1e+300)             (-1e+300 -1e+300 -1e+300)             (-1e+300 -1e+300 -1e+300)             (-1e+300 -1e+300 -1e+300)
        0.365             (0.0547105 3.62305e-18 0)             (0.701401 8.23009e-17 0)             (1.09659 -2.39104e-16 0)             (1.23809 -4.41149e-16 0)             (1.12262 3.7125e-16 0)             (-1e+300 -1e+300 -1e+300)             (-1e+300 -1e+300 -1e+300)             (-1e+300 -1e+300 -1e+300)             (-1e+300 -1e+300 -1e+300)             (-1e+300 -1e+300 -1e+300)
         0.37             (0.0544671 3.06517e-18 0)             (0.698982 7.85878e-17 0)             (1.09542 -2.36969e-16 0)             (1.23988 -4.69296e-16 0)             (1.12175 2.77169e-16 0)             (-1e+300 -1e+300 -1e+300)             (-1e+300 -1e+300 -1e+300)             (-1e+300 -1e+300 -1e+300)             (-1e+300 -1e+300 -1e+300)             (-1e+300 -1e+300 -1e+300)
        0.375             (0.0542289 -1.24242e-18 0)             (0.696607 9.57163e-17 0)             (1.09424 -2.50523e-16 0)             (1.24165 -4.32679e-16 0)             (1.12087 4.30359e-16 0)             (-1e+300 -1e+300 -1e+300)             (-1e+300 -1e+300 -1e+300)             (-1e+300 -1e+300 -1e+300)             (-1e+300 -1e+300 -1e+300)             (-1e+300 -1e+300 -1e+300)
         0.38             (0.053996 3.1227e-18 0)             (0.694275 1.07688e-16 0)             (1.09307 -2.81612e-16 0)             (1.24341 -3.69495e-16 0)             (1.11999 4.98124e-16 0)             (-1e+300 -1e+300 -1e+300)             (-1e+300 -1e+300 -1e+300)             (-1e+300 -1e+300 -1e+300)             (-1e+300 -1e+300 -1e+300)             (-1e+300 -1e+300 -1e+300)