/*--------------------------------*- C++ -*----------------------------------*\
| =========                 |                                                 |
| \\      /  F ield         | OpenFOAM: The Open Source CFD Toolbox           |
|  \\    /   O peration     | Version:  2112                                  |
|   \\  /    A nd           | Website:  www.openfoam.com                      |
|    \\/     M anipulation  |                                                 |
\*---------------------------------------------------------------------------*/
FoamFile
{
    version     2.0;
    format      ascii;
    arch        "LSB;label=32;scalar=64";
    class       volScalarField;
    location    "11";
    object      p;
}
// * * * * * * * * * * * * * * * * * * * * * * * * * * * * * * * * * * * * * //

dimensions      [0 2 -2 0 0 0 0];

internalField   nonuniform List<scalar> 
16641
(
-2.20529e-08
-8.36153e-08
-3.9202e-06
-1.10788e-05
-2.07177e-05
-3.2108e-05
-4.46079e-05
-5.77269e-05
-7.10208e-05
-8.42331e-05
-9.71603e-05
-0.000109675
-0.000121705
-0.000133223
-0.000144228
-0.000154739
-0.000164783
-0.000174393
-0.000183601
-0.000192434
-0.000200909
-0.000209037
-0.000216815
-0.000224233
-0.000231265
-0.000237878
-0.000244028
-0.00024966
-0.000254711
-0.00025911
-0.000262779
-0.000265632
-0.000267578
-0.000268522
-0.000268364
-0.000266999
-0.00026432
-0.000260218
-0.000254583
-0.000247305
-0.000238273
-0.000227381
-0.000214522
-0.000199597
-0.000182511
-0.000163176
-0.000141514
-0.000117458
-9.09539e-05
-6.19618e-05
-3.04594e-05
3.55656e-06
4.0068e-05
7.9033e-05
0.000120385
0.000164033
0.000209853
0.000257693
0.00030737
0.000358668
0.000411339
0.000465103
0.000519644
0.000574619
0.000629651
0.000684338
0.000738252
0.000790942
0.000841942
0.000890771
0.000936944
0.000979971
0.00101937
0.00105467
0.00108543
0.0011112
0.00113161
0.00114631
0.00115497
0.00115736
0.00115328
0.00114258
0.00112521
0.00110116
0.0010705
0.00103337
0.000989976
0.000940578
0.000885512
0.000825166
0.000759976
0.000690425
0.000617029
0.000540335
0.000460907
0.000379324
0.000296167
0.000212016
0.000127435
4.2976e-05
-4.08374e-05
-0.000123508
-0.000204573
-0.000283607
-0.000360219
-0.000434063
-0.000504827
-0.000572241
-0.00063607
-0.000696114
-0.000752206
-0.000804205
-0.000851994
-0.000895479
-0.000934576
-0.000969221
-0.000999358
-0.00102494
-0.00104593
-0.00106233
-0.00107413
-0.0010814
-0.00108429
-0.00108305
-0.00107817
-0.00107046
-0.00106123
-0.0010523
-0.0010467
-2.30648e-07
-2.8424e-07
-3.6629e-06
-9.76363e-06
-1.79017e-05
-2.75879e-05
-3.83406e-05
-4.97549e-05
-6.14967e-05
-7.33138e-05
-8.50209e-05
-9.64886e-05
-0.000107634
-0.000118411
-0.0001288
-0.000138798
-0.000148416
-0.000157666
-0.000166565
-0.000175125
-0.000183353
-0.000191248
-0.000198804
-0.000206002
-0.000212814
-0.000219205
-0.00022513
-0.000230534
-0.000235356
-0.000239527
-0.000242971
-0.000245606
-0.000247344
-0.000248093
-0.000247758
-0.000246237
-0.000243431
-0.000239235
-0.000233544
-0.000226252
-0.000217259
-0.000206461
-0.000193761
-0.000179066
-0.000162287
-0.000143346
-0.000122171
-9.87017e-05
-7.28917e-05
-4.47086e-05
-1.41363e-05
1.88229e-05
5.41459e-05
9.17867e-05
0.000131676
0.00017372
0.000217796
0.000263752
0.000311409
0.000360557
0.000410951
0.000462324
0.000514369
0.000566756
0.000619123
0.000671086
0.000722234
0.000772139
0.000820355
0.000866427
0.000909893
0.000950288
0.000987158
0.00102006
0.00104856
0.00107227
0.00109081
0.00110385
0.00111111
0.00111236
0.00110741
0.00109614
0.00107849
0.00105447
0.00102415
0.000987651
0.000945185
0.00089701
0.000843442
0.000784855
0.000721667
0.000654338
0.000583359
0.000509253
0.000432556
0.00035382
0.000273598
0.000192439
0.000110881
2.94496e-05
-5.13581e-05
-0.000131068
-0.000209241
-0.000285469
-0.000359381
-0.000430644
-0.00049896
-0.00056407
-0.000625749
-0.000683804
-0.000738076
-0.00078843
-0.000834756
-0.000876968
-0.000914995
-0.000948786
-0.000978302
-0.00100352
-0.00102444
-0.00104108
-0.0010535
-0.00106181
-0.00106619
-0.00106695
-0.00106454
-0.00105967
-0.00105333
-0.00104672
-0.0010411
3.3029e-06
2.80746e-06
-5.85388e-07
-6.28092e-06
-1.37248e-05
-2.25035e-05
-3.22457e-05
-4.26206e-05
-5.33493e-05
-6.42143e-05
-7.50507e-05
-8.57394e-05
-9.62015e-05
-0.000106386
-0.000116264
-0.000125827
-0.000135072
-0.000144005
-0.000152633
-0.000160957
-0.000168977
-0.000176688
-0.000184076
-0.000191119
-0.000197787
-0.000204044
-0.00020984
-0.000215123
-0.000219833
-0.000223899
-0.000227247
-0.000229799
-0.000231467
-0.000232163
-0.000231793
-0.000230261
-0.000227467
-0.000223312
-0.000217694
-0.000210513
-0.00020167
-0.000191066
-0.000178609
-0.00016421
-0.000147785
-0.000129259
-0.000108565
-8.56479e-05
-6.04647e-05
-3.29861e-05
-3.19967e-06
2.8889e-05
6.32547e-05
9.9851e-05
0.000138608
0.000179432
0.0002222
0.000266764
0.000312948
0.000360545
0.00040932
0.000459008
0.000509313
0.000559913
0.000610457
0.000660571
0.000709858
0.000757901
0.00080427
0.000848522
0.000890211
0.000928887
0.000964109
0.000995449
0.00102249
0.00104486
0.00106218
0.00107415
0.00108049
0.00108097
0.00107543
0.00106375
0.00104586
0.00102179
0.000991606
0.000955436
0.00091348
0.000865996
0.000813295
0.000755742
0.000693746
0.000627756
0.000558252
0.000485742
0.000410749
0.000333808
0.000255456
0.000176228
9.66449e-05
1.72133e-05
-6.15835e-05
-0.000139289
-0.000215477
-0.000289757
-0.000361768
-0.000431191
-0.00049774
-0.000561164
-0.000621251
-0.000677817
-0.000730709
-0.000779804
-0.000825002
-0.000866224
-0.000903412
-0.000936525
-0.000965541
-0.000990453
-0.00101127
-0.00102804
-0.00104084
-0.00104977
-0.00105504
-0.0010569
-0.00105574
-0.00105211
-0.00104676
-0.00104012
-0.00103215
1.03363e-05
8.70585e-06
4.79228e-06
-9.838e-07
-8.22326e-06
-1.65802e-05
-2.57497e-05
-3.54614e-05
-4.54897e-05
-5.56533e-05
-6.58134e-05
-7.58701e-05
-8.57531e-05
-9.54164e-05
-0.000104835
-0.000113994
-0.000122889
-0.000131522
-0.000139891
-0.000147995
-0.00015583
-0.000163384
-0.000170639
-0.00017757
-0.000184146
-0.000190327
-0.000196063
-0.000201303
-0.000205982
-0.000210034
-0.000213385
-0.000215955
-0.00021766
-0.000218413
-0.000218122
-0.000216692
-0.000214027
-0.000210028
-0.000204598
-0.000197638
-0.000189051
-0.000178742
-0.000166622
-0.000152603
-0.000136605
-0.000118554
-9.83877e-05
-7.60519e-05
-5.15054e-05
-2.47203e-05
4.31439e-06
3.55923e-05
6.90883e-05
0.000104757
0.000142529
0.000182311
0.000223985
0.000267406
0.000312401
0.000358767
0.000406277
0.000454666
0.00050365
0.000552912
0.00060211
0.000650877
0.000698823
0.00074554
0.000790608
0.00083359
0.00087405
0.000911547
0.000945646
0.000975927
0.00100198
0.00102344
0.00103994
0.00105117
0.00105688
0.00105682
0.00105085
0.00103884
0.00102074
0.000996569
0.000966394
0.000930352
0.000888641
0.000841516
0.000789288
0.000732319
0.000671015
0.000605822
0.000537215
0.000465696
0.000391781
0.000316
0.00023888
0.000160947
8.27141e-05
4.6761e-06
-7.26928e-05
-0.000148948
-0.000223674
-0.00029649
-0.00036705
-0.00043504
-0.00050019
-0.000562261
-0.000621047
-0.000676378
-0.000728112
-0.000776135
-0.000820359
-0.000860717
-0.000897161
-0.000929665
-0.000958215
-0.000982818
-0.00100349
-0.00102029
-0.00103328
-0.00104258
-0.00104833
-0.00105076
-0.00105013
-0.00104687
-0.00104149
-0.0010338
-0.00102285
2.01728e-05
1.67977e-05
1.19794e-05
5.78314e-06
-1.57189e-06
-9.80065e-06
-1.86534e-05
-2.79217e-05
-3.743e-05
-4.70362e-05
-5.66327e-05
-6.61401e-05
-7.55028e-05
-8.46867e-05
-9.36706e-05
-0.000102443
-0.000111001
-0.000119342
-0.000127464
-0.000135361
-0.000143026
-0.000150444
-0.000157594
-0.000164449
-0.000170975
-0.000177128
-0.000182861
-0.000188119
-0.000192838
-0.000196951
-0.000200384
-0.000203059
-0.000204893
-0.000205797
-0.000205684
-0.000204458
-0.000202025
-0.000198288
-0.000193151
-0.000186518
-0.000178292
-0.000168381
-0.000156696
-0.000143152
-0.00012767
-0.000110177
-9.06118e-05
-6.89205e-05
-4.50627e-05
-1.90105e-05
9.24757e-06
3.97061e-05
7.23416e-05
0.00010711
0.000143945
0.000182757
0.00022343
0.000265823
0.000309769
0.000355069
0.0004015
0.000448805
0.000496704
0.000544886
0.000593014
0.000640728
0.000687644
0.000733359
0.000777456
0.000819507
0.000859076
0.000895728
0.000929033
0.000958571
0.000983939
0.00100476
0.00102069
0.00103141
0.00103666
0.00103622
0.00102991
0.00101764
0.000999348
0.000975046
0.000944809
0.000908775
0.000867143
0.000820169
0.000768167
0.0007115
0.000650574
0.000585834
0.000517758
0.000446847
0.000373617
0.000298593
0.000222303
0.000145268
6.79954e-05
-9.02481e-06
-8.53256e-05
-0.000160469
-0.000234049
-0.000305692
-0.000375062
-0.00044186
-0.000505822
-0.000566721
-0.000624364
-0.000678593
-0.000729278
-0.000776316
-0.000819633
-0.000859174
-0.000894906
-0.000926809
-0.000954885
-0.000979146
-0.00099962
-0.00101635
-0.00102941
-0.00103889
-0.0010449
-0.00104758
-0.00104713
-0.00104381
-0.00103799
-0.00102897
-0.00101504
3.21162e-05
2.66244e-05
2.05743e-05
1.36863e-05
5.95064e-06
-2.39521e-06
-1.1155e-05
-2.01762e-05
-2.93307e-05
-3.85186e-05
-4.7663e-05
-5.67089e-05
-6.56209e-05
-7.43774e-05
-8.29666e-05
-9.13844e-05
-9.96299e-05
-0.000107701
-0.000115597
-0.000123312
-0.000130833
-0.000138146
-0.000145228
-0.000152049
-0.000158571
-0.000164753
-0.000170544
-0.000175887
-0.00018072
-0.000184973
-0.000188575
-0.000191445
-0.000193501
-0.000194657
-0.000194823
-0.000193906
-0.000191813
-0.000188447
-0.000183713
-0.000177516
-0.00016976
-0.000160353
-0.000149206
-0.000136236
-0.000121362
-0.000104513
-8.56256e-05
-6.4646e-05
-4.15326e-05
-1.62565e-05
1.11961e-05
4.08225e-05
7.26022e-05
0.000106494
0.000142436
0.000180342
0.000220101
0.000261577
0.000304607
0.000348999
0.000394532
0.000440958
0.000487998
0.000535348
0.000582675
0.000629621
0.000675807
0.000720834
0.000764284
0.000805731
0.00084474
0.000880877
0.000913708
0.000942815
0.000967792
0.000988259
0.00100387
0.0010143
0.00101929
0.00101862
0.00101211
0.000999657
0.000981206
0.000956769
0.000926423
0.000890306
0.000848618
0.000801621
0.00074963
0.000693013
0.000632181
0.000567584
0.000499704
0.000429046
0.000356131
0.000281487
0.000205644
0.000129124
5.24341e-05
-2.39358e-05
-9.95229e-05
-0.000173891
-0.000246642
-0.000317409
-0.000385863
-0.000451713
-0.000514708
-0.000574631
-0.000631303
-0.000684576
-0.000734334
-0.000780488
-0.000822976
-0.000861758
-0.000896811
-0.000928131
-0.000955725
-0.000979614
-0.00099983
-0.00101641
-0.00102942
-0.00103892
-0.00104499
-0.00104771
-0.00104717
-0.00104355
-0.00103708
-0.00102668
-0.00101009
4.55271e-05
3.76631e-05
3.01689e-05
2.23755e-05
1.40491e-05
5.38421e-06
-3.46906e-06
-1.24102e-05
-2.13596e-05
-3.02551e-05
-3.90525e-05
-4.7725e-05
-5.62578e-05
-6.46448e-05
-7.28879e-05
-8.09912e-05
-8.89588e-05
-9.67937e-05
-0.000104496
-0.00011206
-0.000119474
-0.000126721
-0.000133778
-0.000140612
-0.000147187
-0.000153457
-0.000159371
-0.000164872
-0.000169896
-0.000174374
-0.000178231
-0.00018139
-0.000183767
-0.000185277
-0.000185828
-0.000185329
-0.000183687
-0.000180806
-0.000176589
-0.000170941
-0.000163768
-0.000154977
-0.000144478
-0.000132185
-0.00011802
-0.000101908
-8.37843e-05
-6.35931e-05
-4.12902e-05
-1.6844e-05
9.76289e-06
3.85321e-05
6.94473e-05
0.000102472
0.000137549
0.000174597
0.000213512
0.000254163
0.000296393
0.000340014
0.000384811
0.000430539
0.000476925
0.000523669
0.00057044
0.000616882
0.000662617
0.000707246
0.000750352
0.000791504
0.000830268
0.000866202
0.000898872
0.000927849
0.000952725
0.000973113
0.000988657
0.000999037
0.00100398
0.00100325
0.000996673
0.000984143
0.000965601
0.000941058
0.000910589
0.000874334
0.000832497
0.000785343
0.000733193
0.00067642
0.000615444
0.000550722
0.000482746
0.000412028
0.000339098
0.000264491
0.000188744
0.000112386
3.59281e-05
-4.01371e-05
-0.000115346
-0.000189263
-0.000261492
-0.000331669
-0.000399474
-0.000464623
-0.000526873
-0.00058602
-0.000641895
-0.000694364
-0.000743324
-0.000788701
-0.000830445
-0.000868531
-0.000902948
-0.000933704
-0.000960816
-0.00098431
-0.00100422
-0.00102058
-0.00103344
-0.00104284
-0.00104881
-0.0010514
-0.00105062
-0.00104657
-0.00103938
-0.0010277
-0.00100886
5.98242e-05
4.94352e-05
4.03434e-05
3.14895e-05
2.24123e-05
1.32735e-05
4.18206e-06
-4.81453e-06
-1.368e-05
-2.23898e-05
-3.09342e-05
-3.93135e-05
-4.75352e-05
-5.56126e-05
-6.35612e-05
-7.1395e-05
-7.91268e-05
-8.67651e-05
-9.43126e-05
-0.000101766
-0.000109114
-0.000116342
-0.000123423
-0.000130325
-0.00013701
-0.000143433
-0.00014954
-0.000155274
-0.000160569
-0.000165357
-0.000169562
-0.000173106
-0.000175905
-0.000177872
-0.000178918
-0.00017895
-0.000177874
-0.000175594
-0.000172013
-0.000167035
-0.000160565
-0.000152508
-0.000142774
-0.000131274
-0.000117928
-0.000102658
-8.53978e-05
-6.6087e-05
-4.46776e-05
-2.11336e-05
4.56735e-06
3.24324e-05
6.24507e-05
9.45916e-05
0.000128804
0.000165015
0.000203125
0.00024301
0.000284519
0.000327472
0.000371656
0.000416833
0.000462732
0.000509056
0.000555478
0.000601643
0.000647169
0.000691657
0.000734687
0.000775825
0.000814628
0.00085065
0.000883447
0.000912583
0.000937638
0.000958217
0.000973953
0.000984515
0.000989618
0.000989024
0.000982552
0.00097008
0.000951549
0.000926967
0.000896407
0.00086001
0.000817983
0.000770593
0.00071817
0.000661094
0.000599795
0.00053474
0.000466432
0.000395398
0.000322175
0.000247316
0.000171366
9.48622e-05
1.83272e-05
-5.77413e-05
-0.000132873
-0.000206633
-0.00027862
-0.000348477
-0.000415883
-0.000480562
-0.000542279
-0.00060084
-0.000656089
-0.000707902
-0.000756192
-0.000800897
-0.000841984
-0.000879439
-0.000913267
-0.000943485
-0.000970119
-0.000993203
-0.00101277
-0.00102886
-0.0010415
-0.0010507
-0.0010565
-0.00105886
-0.00105776
-0.00105322
-0.00104534
-0.00103255
-0.0010119
7.44643e-05
6.14681e-05
5.06817e-05
4.06576e-05
3.0714e-05
2.09865e-05
1.1544e-05
2.38649e-06
-6.49258e-06
-1.51073e-05
-2.348e-05
-3.16384e-05
-3.96148e-05
-4.74416e-05
-5.51487e-05
-6.2763e-05
-7.03064e-05
-7.77936e-05
-8.52316e-05
-9.26209e-05
-9.99532e-05
-0.000107211
-0.000114371
-0.000121401
-0.00012826
-0.000134903
-0.000141277
-0.000147322
-0.000152973
-0.000158159
-0.000162805
-0.000166833
-0.000170157
-0.00017269
-0.000174343
-0.000175022
-0.000174633
-0.000173077
-0.000170258
-0.000166077
-0.000160438
-0.000153245
-0.000144404
-0.000133824
-0.000121422
-0.000107117
-9.08364e-05
-7.2517e-05
-5.21055e-05
-2.95593e-05
-4.8496e-06
2.20369e-05
5.10963e-05
8.23057e-05
0.000115622
0.000150979
0.000188286
0.000227426
0.000268255
0.000310598
0.000354248
0.00039898
0.000444519
0.00049057
0.000536809
0.000582881
0.000628403
0.000672971
0.000716162
0.000757534
0.000796638
0.000833017
0.000866216
0.000895788
0.0009213
0.000942342
0.000958535
0.000969533
0.000975039
0.000974801
0.000968629
0.00095639
0.000938019
0.000913515
0.000882951
0.000846465
0.000804266
0.000756626
0.00070388
0.000646418
0.00058468
0.000519147
0.000450336
0.000378787
0.000305056
0.000229707
0.000153302
7.63924e-05
-4.87273e-07
-7.68291e-05
-0.000152154
-0.00022602
-0.000298024
-0.000367805
-0.000435045
-0.000499473
-0.00056086
-0.00061902
-0.000673808
-0.000725113
-0.000772861
-0.000817003
-0.000857522
-0.000894417
-0.000927707
-0.00095742
-0.000983593
-0.00100627
-0.00102548
-0.00104126
-0.00105363
-0.00106259
-0.00106815
-0.00107024
-0.00106879
-0.00106379
-0.00105529
-0.0010416
-0.00101954
8.89696e-05
7.33181e-05
6.07734e-05
4.95061e-05
3.86167e-05
2.82155e-05
1.83381e-05
8.9385e-06
-3.32754e-08
-8.62756e-06
-1.68982e-05
-2.49021e-05
-3.26951e-05
-4.03285e-05
-4.78491e-05
-5.52967e-05
-6.27026e-05
-7.00889e-05
-7.7469e-05
-8.4847e-05
-9.22163e-05
-9.95619e-05
-0.000106861
-0.000114081
-0.000121182
-0.000128118
-0.000134835
-0.000141273
-0.000147365
-0.000153042
-0.000158227
-0.000162841
-0.000166798
-0.00017001
-0.000172388
-0.000173836
-0.000174259
-0.000173558
-0.000171635
-0.000168389
-0.000163721
-0.000157533
-0.000149728
-0.000140213
-0.000128898
-0.000115699
-0.000100538
-8.33459e-05
-6.40631e-05
-4.26398e-05
-1.90393e-05
6.75974e-06
3.47617e-05
6.49527e-05
9.72987e-05
0.000131743
0.000168203
0.000206572
0.000246711
0.000288457
0.000331617
0.000375948
0.000421201
0.000467078
0.000513253
0.000559373
0.000605053
0.000649886
0.00069344
0.000735269
0.000774912
0.0008119
0.000845766
0.000876048
0.000902296
0.000924086
0.000941019
0.000952734
0.000958914
0.000959295
0.00095367
0.000941892
0.000923886
0.000899643
0.000869227
0.000832776
0.000790497
0.000742666
0.000689623
0.000631766
0.000569548
0.000503464
0.000434045
0.00036185
0.000287452
0.000211434
0.000134376
5.68473e-05
-2.06019e-05
-9.74493e-05
-0.000173203
-0.000247412
-0.000319665
-0.000389597
-0.000456891
-0.000521275
-0.000582526
-0.000640465
-0.000694956
-0.000745899
-0.000793233
-0.000836926
-0.000876972
-0.000913384
-0.000946196
-0.000975448
-0.00100119
-0.00102346
-0.00104232
-0.00105778
-0.00106986
-0.00107857
-0.00108386
-0.00108567
-0.00108389
-0.00107848
-0.00106947
-0.00105507
-0.00103197
0.000102888
8.45564e-05
7.02165e-05
5.76603e-05
4.57709e-05
3.46384e-05
2.4266e-05
1.45617e-05
5.43532e-06
-3.19901e-06
-1.14282e-05
-1.93368e-05
-2.70033e-05
-3.44995e-05
-4.18889e-05
-4.9224e-05
-5.65461e-05
-6.38863e-05
-7.1264e-05
-7.86868e-05
-8.61517e-05
-9.36464e-05
-0.000101149
-0.000108627
-0.000116041
-0.000123346
-0.000130486
-0.000137402
-0.000144027
-0.000150291
-0.000156116
-0.000161422
-0.000166123
-0.000170133
-0.000173359
-0.000175706
-0.000177076
-0.00017737
-0.000176487
-0.000174326
-0.000170784
-0.000165759
-0.000159153
-0.000150867
-0.000140806
-0.000128882
-0.00011501
-9.9114e-05
-8.11264e-05
-6.0989e-05
-3.86568e-05
-1.40987e-05
1.26998e-05
4.17354e-05
7.29849e-05
0.000106402
0.000141916
0.000179428
0.000218811
0.000259911
0.00030254
0.000346472
0.000391454
0.000437194
0.000483369
0.000529625
0.000575578
0.000620814
0.000664899
0.000707374
0.000747769
0.000785604
0.000820393
0.000851659
0.000878936
0.000901776
0.000919762
0.00093251
0.000939685
0.000941001
0.000936231
0.000925213
0.000907854
0.000884133
0.000854106
0.000817901
0.000775725
0.000727852
0.000674627
0.000616456
0.000553803
0.000487177
0.000417127
0.000344228
0.000269076
0.000192274
0.000114424
3.61159e-05
-4.20807e-05
-0.000119624
-0.000196007
-0.000270764
-0.000343474
-0.000413766
-0.000481315
-0.000545852
-0.000607154
-0.000665046
-0.000719402
-0.000770133
-0.000817187
-0.000860548
-0.000900222
-0.000936239
-0.000968644
-0.000997492
-0.00102284
-0.00104475
-0.00106326
-0.00107841
-0.00109022
-0.00109866
-0.00110371
-0.00110526
-0.00110319
-0.00109745
-0.00108804
-0.00107312
-0.0010493
0.000115785
9.47681e-05
7.86153e-05
6.4742e-05
5.18205e-05
3.992e-05
2.90101e-05
1.8956e-05
9.62782e-06
9.03274e-07
-7.33606e-06
-1.52012e-05
-2.27945e-05
-3.02081e-05
-3.75207e-05
-4.4798e-05
-5.20927e-05
-5.94443e-05
-6.68777e-05
-7.44055e-05
-8.20289e-05
-8.97378e-05
-9.75113e-05
-0.000105319
-0.000113122
-0.000120875
-0.000128523
-0.000136006
-0.000143257
-0.000150207
-0.000156777
-0.000162887
-0.000168452
-0.000173384
-0.000177589
-0.000180973
-0.000183436
-0.000184878
-0.000185196
-0.000184285
-0.000182043
-0.000178363
-0.000173142
-0.000166277
-0.000157669
-0.000147223
-0.000134847
-0.000120457
-0.000103976
-8.53376e-05
-6.44861e-05
-4.13794e-05
-1.59908e-05
1.16883e-05
4.1647e-05
7.3852e-05
0.000108245
0.00014474
0.000183225
0.000223553
0.000265547
0.000308992
0.000353642
0.00039921
0.000445377
0.000491792
0.000538071
0.000583798
0.000628532
0.000671807
0.000713141
0.000752041
0.000788004
0.000820535
0.000849146
0.000873367
0.000892757
0.000906908
0.000915457
0.000918096
0.000914572
0.0009047
0.000888367
0.000865534
0.000836241
0.000800606
0.000758826
0.000711173
0.000657994
0.0005997
0.000536763
0.000469707
0.000399096
0.000325528
0.000249618
0.000171994
9.3281e-05
1.4095e-05
-6.49719e-05
-0.000143355
-0.000220527
-0.000296005
-0.000369354
-0.000440189
-0.000508181
-0.000573055
-0.000634586
-0.000692605
-0.000746988
-0.000797656
-0.000844569
-0.000887721
-0.000927135
-0.000962854
-0.000994936
-0.00102345
-0.00104847
-0.00107006
-0.00108827
-0.00110314
-0.00111469
-0.0011229
-0.00112773
-0.00112907
-0.00112677
-0.00112078
-0.00111109
-0.00109583
-0.00107155
0.000127244
0.000103546
8.55742e-05
7.0373e-05
5.64028e-05
4.37116e-05
3.22377e-05
2.18027e-05
1.22362e-05
3.38093e-06
-4.91156e-06
-1.27799e-05
-2.03499e-05
-2.77321e-05
-3.50211e-05
-4.22965e-05
-4.96215e-05
-5.70431e-05
-6.45931e-05
-7.22895e-05
-8.01373e-05
-8.81285e-05
-9.62443e-05
-0.000104456
-0.000112727
-0.000121011
-0.000129254
-0.000137396
-0.000145373
-0.000153113
-0.000160539
-0.000167572
-0.000174126
-0.000180113
-0.00018544
-0.000190011
-0.000193726
-0.000196485
-0.000198182
-0.000198712
-0.000197967
-0.000195841
-0.000192224
-0.00018701
-0.000180093
-0.000171372
-0.000160748
-0.000148128
-0.000133425
-0.000116561
-9.74713e-05
-7.60994e-05
-5.24053e-05
-2.63666e-05
2.02041e-06
3.27379e-05
6.57428e-05
0.000100965
0.000138307
0.000177637
0.000218792
0.000261567
0.00030573
0.000350995
0.000397057
0.000443572
0.000490157
0.000536395
0.000581841
0.000626023
0.000668449
0.00070861
0.00074599
0.000780071
0.000810344
0.000836313
0.000857508
0.000873494
0.000883877
0.000888317
0.000886532
0.000878307
0.000863501
0.000842051
0.000813973
0.000779369
0.000738421
0.000691393
0.000638627
0.000580537
0.000517601
0.000450353
0.000379374
0.000305281
0.000228713
0.000150322
7.07607e-05
-9.32739e-06
-8.93221e-05
-0.000168632
-0.000246707
-0.000323039
-0.000397175
-0.000468715
-0.000537318
-0.0006027
-0.000664632
-0.000722945
-0.000777518
-0.000828278
-0.000875194
-0.000918273
-0.000957549
-0.00099308
-0.00102494
-0.00105321
-0.00107797
-0.0010993
-0.00111727
-0.00113191
-0.00114326
-0.00115128
-0.00115594
-0.00115712
-0.00115468
-0.00114853
-0.00113868
-0.00112324
-0.00109874
0.000136855
0.000110485
9.07009e-05
7.41716e-05
5.91468e-05
4.56552e-05
3.36025e-05
2.27652e-05
1.29333e-05
3.91581e-06
-4.4669e-06
-1.23805e-05
-1.99725e-05
-2.73722e-05
-3.46904e-05
-4.20195e-05
-4.94324e-05
-5.69842e-05
-6.4714e-05
-7.26448e-05
-8.07848e-05
-8.91293e-05
-9.76621e-05
-0.000106357
-0.000115177
-0.000124078
-0.000133007
-0.000141907
-0.000150713
-0.000159353
-0.000167754
-0.000175836
-0.000183514
-0.000190701
-0.000197305
-0.000203229
-0.000208375
-0.00021264
-0.00021592
-0.000218107
-0.000219092
-0.000218764
-0.000217012
-0.000213723
-0.000208788
-0.000202097
-0.000193543
-0.000183025
-0.000170446
-0.000155716
-0.000138755
-0.000119495
-9.78797e-05
-7.38706e-05
-4.74467e-05
-1.86079e-05
1.2622e-05
4.6192e-05
8.20218e-05
0.000119999
0.000159982
0.000201787
0.000245169
0.00028989
0.000335641
0.000382091
0.000428865
0.000475549
0.000521697
0.000566833
0.000610457
0.000652048
0.000691074
0.000726998
0.000759284
0.000787409
0.000810873
0.000829206
0.000841978
0.000848811
0.000849386
0.00084345
0.000830824
0.000811414
0.000785204
0.000752266
0.000712765
0.000666945
0.000615137
0.000557752
0.000495268
0.000428227
0.000357224
0.000282891
0.000205894
0.00012691
4.66214e-05
-3.42992e-05
-0.000115198
-0.000195453
-0.000274483
-0.000351754
-0.000426789
-0.000499165
-0.000568524
-0.00063457
-0.000697067
-0.000755838
-0.000810764
-0.000861775
-0.000908848
-0.000951998
-0.000991272
-0.00102674
-0.00105849
-0.00108662
-0.00111122
-0.00113238
-0.00115018
-0.00116467
-0.00117587
-0.00118378
-0.00118834
-0.00118944
-0.00118693
-0.00118073
-0.00117083
-0.00115535
-0.00113082
0.000144211
0.000115187
9.3601e-05
7.57508e-05
5.96758e-05
4.53833e-05
3.27446e-05
2.1492e-05
1.13761e-05
2.17076e-06
-6.33445e-06
-1.43304e-05
-2.19865e-05
-2.94508e-05
-3.68497e-05
-4.4287e-05
-5.18456e-05
-5.95894e-05
-6.75637e-05
-7.57959e-05
-8.42982e-05
-9.30697e-05
-0.000102097
-0.000111355
-0.000120809
-0.000130418
-0.000140131
-0.000149891
-0.000159635
-0.000169294
-0.000178797
-0.000188064
-0.000197014
-0.000205561
-0.000213613
-0.000221077
-0.000227855
-0.000233845
-0.000238943
-0.000243041
-0.000246028
-0.000247791
-0.000248217
-0.000247188
-0.00024459
-0.000240306
-0.000234222
-0.000226226
-0.000216211
-0.000204075
-0.000189723
-0.000173071
-0.000154046
-0.00013259
-0.000108661
-8.22382e-05
-5.33222e-05
-2.19411e-05
1.18484e-05
4.79583e-05
8.6269e-05
0.000126616
0.000168773
0.000212575
0.000257673
0.000303761
0.000350484
0.000397437
0.00044418
0.000490237
0.000535105
0.000578254
0.000619137
0.000657196
0.000691872
0.000722611
0.000748878
0.000770163
0.000785995
0.000795949
0.00079966
0.000796827
0.000787226
0.000770713
0.000747232
0.000716819
0.000679599
0.000635795
0.000585715
0.000529755
0.000468388
0.000402158
0.000331665
0.000257561
0.000180531
0.000101278
2.05183e-05
-6.10428e-05
-0.000142716
-0.000223843
-0.000303808
-0.000382042
-0.000458034
-0.000531339
-0.000601572
-0.000668419
-0.00073163
-0.00079102
-0.000846463
-0.000897891
-0.000945283
-0.000988662
-0.00102808
-0.00106363
-0.0010954
-0.00112351
-0.00114806
-0.00116916
-0.00118689
-0.00120132
-0.00121247
-0.00122034
-0.00122489
-0.001226
-0.00122352
-0.00121736
-0.00120752
-0.00119214
-0.00116776
0.000148907
0.000117248
9.38767e-05
7.47203e-05
5.76064e-05
4.25181e-05
2.92932e-05
1.76192e-05
7.2058e-06
-2.20855e-06
-1.08634e-05
-1.89751e-05
-2.67352e-05
-3.43097e-05
-4.18389e-05
-4.94384e-05
-5.72014e-05
-6.51995e-05
-7.34834e-05
-8.20855e-05
-9.10226e-05
-0.000100297
-0.000109898
-0.000119803
-0.000129982
-0.000140395
-0.000150993
-0.000161722
-0.000172522
-0.000183328
-0.00019407
-0.000204674
-0.000215059
-0.000225144
-0.00023484
-0.000244058
-0.0002527
-0.000260668
-0.00026786
-0.000274168
-0.000279482
-0.000283688
-0.00028667
-0.00028831
-0.000288487
-0.00028708
-0.000283965
-0.000279023
-0.000272134
-0.000263182
-0.000252058
-0.00023866
-0.000222896
-0.000204684
-0.000183959
-0.000160674
-0.000134802
-0.000106342
-7.53205e-05
-4.17954e-05
-5.86005e-06
3.23675e-05
7.2739e-05
0.000114963
0.000158866
0.000204125
0.000250397
0.0002973
0.000344406
0.000391247
0.000437323
0.000482098
0.000525015
0.000565499
0.000602963
0.000636824
0.000666506
0.000691457
0.000711154
0.000725119
0.000732928
0.000734221
0.000728713
0.000716201
0.000696573
0.000669808
0.000635986
0.000595286
0.000547982
0.000494444
0.000435127
0.000370569
0.00030137
0.000228192
0.000151738
7.27399e-05
-8.058e-06
-8.99118e-05
-0.000172093
-0.000253901
-0.000334678
-0.000413815
-0.000490761
-0.000565034
-0.000636221
-0.000703979
-0.000768039
-0.000828198
-0.000884323
-0.000936338
-0.000984222
-0.001028
-0.00106774
-0.00110353
-0.00113548
-0.00116371
-0.00118835
-0.00120952
-0.0012273
-0.00124177
-0.00125298
-0.00126092
-0.00126555
-0.00126677
-0.00126442
-0.00125841
-0.00124875
-0.00123358
-0.00120949
0.000150537
0.000116266
9.11294e-05
7.06851e-05
5.25471e-05
3.66739e-05
2.28681e-05
1.07705e-05
4.9733e-08
-9.59e-06
-1.84182e-05
-2.6677e-05
-3.45792e-05
-4.23071e-05
-5.00153e-05
-5.78314e-05
-6.58577e-05
-7.41724e-05
-8.2832e-05
-9.18743e-05
-0.000101321
-0.000111176
-0.000121434
-0.000132075
-0.000143073
-0.00015439
-0.000165981
-0.000177797
-0.000189782
-0.000201874
-0.000214009
-0.000226116
-0.000238122
-0.000249948
-0.000261513
-0.000272729
-0.000283507
-0.000293751
-0.000303363
-0.000312239
-0.00032027
-0.000327345
-0.000333348
-0.000338159
-0.000341653
-0.000343705
-0.000344186
-0.000342965
-0.000339913
-0.000334899
-0.000327798
-0.000318486
-0.000306851
-0.000292784
-0.000276192
-0.000256996
-0.000235136
-0.000210573
-0.000183296
-0.000153323
-0.000120705
-8.55242e-05
-4.78962e-05
-8.01862e-06
3.39453e-05
7.76895e-05
0.000122913
0.000169264
0.00021634
0.000263691
0.000310827
0.000357216
0.000402294
0.000445471
0.000486137
0.000523676
0.00055747
0.000586917
0.000611437
0.000630486
0.000643572
0.000650258
0.000650184
0.000643071
0.000628729
0.000607065
0.000578093
0.00054193
0.000498798
0.000449023
0.000393029
0.00033133
0.00026452
0.000193262
0.000118271
4.03005e-05
-3.98726e-05
-0.000121466
-0.000203707
-0.000285849
-0.000367183
-0.000447051
-0.000524855
-0.000600067
-0.000672232
-0.000740974
-0.000805991
-0.000867058
-0.000924022
-0.000976797
-0.00102535
-0.00106972
-0.00110996
-0.00114617
-0.00117847
-0.001207
-0.0012319
-0.00125328
-0.00127126
-0.00128592
-0.00129731
-0.00130544
-0.00131028
-0.00131172
-0.00130961
-0.00130386
-0.00129447
-0.00127963
-0.00125597
0.000148689
0.000111834
8.49561e-05
6.32444e-05
4.41013e-05
2.74584e-05
1.30798e-05
5.59342e-07
-1.04749e-05
-2.03538e-05
-2.93775e-05
-3.78131e-05
-4.58932e-05
-5.3817e-05
-6.17531e-05
-6.984e-05
-7.8188e-05
-8.68821e-05
-9.59852e-05
-0.00010554
-0.000115572
-0.00012609
-0.000137091
-0.000148562
-0.000160479
-0.000172808
-0.000185511
-0.000198542
-0.000211852
-0.000225386
-0.000239085
-0.000252886
-0.000266723
-0.000280525
-0.000294217
-0.00030772
-0.000320953
-0.000333827
-0.000346249
-0.000358122
-0.000369344
-0.000379806
-0.000389396
-0.000397994
-0.000405476
-0.000411712
-0.00041657
-0.00041991
-0.00042159
-0.000421467
-0.000419397
-0.000415234
-0.00040884
-0.000400077
-0.000388816
-0.000374941
-0.00035835
-0.000338959
-0.000316707
-0.000291558
-0.000263511
-0.000232595
-0.000198869
-0.000162432
-0.000123506
-8.22373e-05
-3.89124e-05
6.1576e-06
5.26073e-05
0.000100019
0.000147924
0.000195802
0.000243092
0.000289193
0.000333475
0.00037529
0.000413976
0.000448874
0.000479339
0.000504752
0.000524534
0.000538161
0.000545176
0.0005452
0.000537947
0.000523228
0.000500965
0.000471188
0.000434045
0.000389797
0.000338815
0.000281573
0.00021864
0.000150668
7.83746e-05
2.53197e-06
-7.60559e-05
-0.000156568
-0.000238184
-0.000320105
-0.000401563
-0.000481843
-0.000560286
-0.000636308
-0.000709402
-0.000779141
-0.000845185
-0.000907273
-0.000965224
-0.00101893
-0.00106835
-0.0011135
-0.00115444
-0.00119128
-0.00122414
-0.00125317
-0.0012785
-0.00130027
-0.00131862
-0.00133363
-0.00134536
-0.00135383
-0.00135901
-0.0013608
-0.00135905
-0.00135368
-0.00134467
-0.00133026
-0.00130714
0.000142953
0.000103543
7.49492e-05
5.19945e-05
3.18682e-05
1.44718e-05
-4.6951e-07
-1.34092e-05
-2.47612e-05
-3.48923e-05
-4.41323e-05
-5.27725e-05
-6.10656e-05
-6.9228e-05
-7.74409e-05
-8.58524e-05
-9.4581e-05
-0.000103719
-0.000113335
-0.000123476
-0.000134173
-0.000145439
-0.000157276
-0.000169676
-0.000182618
-0.000196078
-0.000210021
-0.00022441
-0.000239203
-0.000254354