/*--------------------------------*- C++ -*----------------------------------*\
| =========                 |                                                 |
| \\      /  F ield         | OpenFOAM: The Open Source CFD Toolbox           |
|  \\    /   O peration     | Version:  2112                                  |
|   \\  /    A nd           | Website:  www.openfoam.com                      |
|    \\/     M anipulation  |                                                 |
\*---------------------------------------------------------------------------*/
FoamFile
{
    version     2.0;
    format      ascii;
    arch        "LSB;label=32;scalar=64";
    class       surfaceScalarField;
    location    "11";
    object      phi;
}
// * * * * * * * * * * * * * * * * * * * * * * * * * * * * * * * * * * * * * //

dimensions      [0 3 -1 0 0 0 0];

oriented        oriented;

internalField   nonuniform List<scalar> 
33024
(
5.07197e-09
-5.05801e-09
1.41179e-08
-9.04556e-09
2.1709e-08
-7.59148e-09
2.4945e-08
-3.23624e-09
2.25867e-08
2.35825e-09
1.43385e-08
8.24798e-09
4.24469e-10
1.3914e-08
-1.86287e-08
1.90531e-08
-4.22443e-08
2.36158e-08
-6.97794e-08
2.75347e-08
-1.00609e-07
3.083e-08
-1.34166e-07
3.35558e-08
-1.69946e-07
3.57805e-08
-2.07524e-07
3.75785e-08
-2.46548e-07
3.90238e-08
-2.86736e-07
4.0188e-08
-3.27873e-07
4.11362e-08
-3.69798e-07
4.19255e-08
-4.12404e-07
4.26052e-08
-4.5562e-07
4.32162e-08
-4.9941e-07
4.37908e-08
-5.43765e-07
4.43546e-08
-5.88691e-07
4.49264e-08
-6.3421e-07
4.55187e-08
-6.8035e-07
4.61393e-08
-7.27141e-07
4.67918e-08
-7.74617e-07
4.74759e-08
-8.22806e-07
4.81889e-08
-8.71733e-07
4.8926e-08
-9.21413e-07
4.96803e-08
-9.71857e-07
5.04436e-08
-1.02306e-06
5.12064e-08
-1.07502e-06
5.19584e-08
-1.12771e-06
5.26882e-08
-1.18109e-06
5.33835e-08
-1.23512e-06
5.40316e-08
-1.28974e-06
5.46184e-08
-1.34487e-06
5.51289e-08
-1.40042e-06
5.55471e-08
-1.45628e-06
5.5856e-08
-1.51231e-06
5.60379e-08
-1.56839e-06
5.60734e-08
-1.62433e-06
5.59423e-08
-1.67995e-06
5.56237e-08
-1.73505e-06
5.50955e-08
-1.78938e-06
5.43354e-08
-1.8427e-06
5.33207e-08
-1.89473e-06
5.20285e-08
-1.94517e-06
5.04362e-08
-1.99369e-06
4.85215e-08
-2.03995e-06
4.62636e-08
-2.0836e-06
4.36432e-08
-2.12424e-06
4.06428e-08
-2.16149e-06
3.72473e-08
-2.19493e-06
3.34447e-08
-2.22416e-06
2.92263e-08
-2.24875e-06
2.4588e-08
-2.26828e-06
1.95298e-08
-2.28233e-06
1.40568e-08
-2.29051e-06
8.17931e-09
-2.29243e-06
1.91451e-09
-2.28771e-06
-4.71659e-09
-2.27603e-06
-1.16837e-08
-2.25708e-06
-1.89514e-08
-2.2306e-06
-2.64778e-08
-2.19638e-06
-3.4214e-08
-2.15428e-06
-4.21051e-08
-2.10419e-06
-5.00901e-08
-2.04609e-06
-5.81028e-08
-1.98001e-06
-6.60717e-08
-1.90609e-06
-7.39215e-08
-1.82452e-06
-8.15742e-08
-1.73557e-06
-8.89493e-08
-1.6396e-06
-9.59659e-08
-1.53706e-06
-1.02544e-07
-1.42846e-06
-1.08604e-07
-1.31439e-06
-1.14071e-07
-1.19551e-06
-1.18875e-07
-1.07256e-06
-1.22951e-07
-9.46316e-07
-1.26243e-07
-8.17615e-07
-1.28701e-07
-6.87328e-07
-1.30287e-07
-5.56353e-07
-1.30974e-07
-4.25608e-07
-1.30745e-07
-2.96012e-07
-1.29595e-07
-1.6848e-07
-1.27533e-07
-4.39034e-08
-1.24576e-07
7.68559e-08
-1.20759e-07
1.92979e-07
-1.16123e-07
3.03702e-07
-1.10723e-07
4.08323e-07
-1.04621e-07
5.06212e-07
-9.7889e-08
5.96817e-07
-9.06052e-08
6.79669e-07
-8.2853e-08
7.54389e-07
-7.47196e-08
8.20683e-07
-6.6294e-08
8.78348e-07
-5.76653e-08
9.2727e-07
-4.89218e-08
9.67418e-07
-4.01483e-08
9.98844e-07
-3.14259e-08
1.02167e-06
-2.28297e-08
1.0361e-06
-1.44285e-08
1.04239e-06
-6.28374e-09
1.04084e-06
1.55125e-09
1.0318e-06
9.03038e-09
1.01569e-06
1.61168e-08
9.92908e-07
2.27805e-08
9.63909e-07
2.8999e-08
9.29152e-07
3.47561e-08
8.89112e-07
4.00402e-08
8.44269e-07
4.48432e-08
7.9511e-07
4.91588e-08
7.4213e-07
5.29795e-08
6.85835e-07
5.62948e-08
6.26748e-07
5.9087e-08
5.6542e-07
6.13282e-08
5.02445e-07
6.29758e-08
4.38477e-07
6.39677e-08
3.7426e-07
6.42169e-08
3.10655e-07
6.36048e-08
2.48682e-07
6.19739e-08
1.8956e-07
5.9122e-08
1.34763e-07
5.47966e-08
8.60659e-08
4.86974e-08
4.55583e-08
4.05076e-08
1.55556e-08
3.00025e-08
-1.78955e-09
1.73448e-08
-5.77688e-09
3.98729e-09
-5.77688e-09
9.08118e-09
-1.41388e-08
2.1286e-08
-2.12509e-08
2.79649e-08
-1.42702e-08
2.39669e-08
7.61747e-10
6.64067e-09
1.96842e-08
-2.49761e-08
3.98646e-08
-7.06869e-08
5.96242e-08
-1.29628e-07
7.79936e-08
-2.00506e-07
9.44933e-08
-2.81894e-07
1.08923e-07
-3.72343e-07
1.21278e-07
-4.70468e-07
1.3168e-07
-5.75009e-07
1.40322e-07
-6.84865e-07
1.47433e-07
-7.99095e-07
1.53254e-07
-9.16927e-07
1.58021e-07
-1.03775e-06
1.61956e-07
-1.16108e-06
1.65259e-07
-1.28658e-06
1.68104e-07
-1.414e-06
1.70636e-07
-1.54319e-06
1.72977e-07
-1.67405e-06
1.7522e-07
-1.80656e-06
1.77436e-07
-1.94072e-06
1.79675e-07
-2.07655e-06
1.81969e-07
-2.21409e-06
1.84334e-07
-2.35339e-06
1.86773e-07
-2.49448e-06
1.89279e-07
-2.63739e-06
1.91837e-07
-2.78213e-06
1.94423e-07
-2.9287e-06
1.97009e-07
-3.07705e-06
1.99562e-07
-3.22714e-06
2.02045e-07
-3.37887e-06
2.04416e-07
-3.53212e-06
2.06631e-07
-3.68673e-06
2.08642e-07
-3.84251e-06
2.10398e-07
-3.99922e-06
2.11845e-07
-4.1566e-06
2.12923e-07
-4.31431e-06
2.1357e-07
-4.472e-06
2.1372e-07
-4.62923e-06
2.13304e-07
-4.78553e-06
2.12247e-07
-4.94038e-06
2.10474e-07
-5.09319e-06
2.07906e-07
-5.24332e-06
2.04461e-07
-5.39006e-06
2.0006e-07
-5.53265e-06
1.94621e-07
-5.67028e-06
1.88064e-07
-5.80207e-06
1.80311e-07
-5.92709e-06
1.71291e-07
-6.04439e-06
1.60938e-07
-6.15294e-06
1.49192e-07
-6.25169e-06
1.36004e-07
-6.33959e-06
1.21336e-07
-6.41552e-06
1.05164e-07
-6.47841e-06
8.7478e-08
-6.52717e-06
6.82844e-08
-6.56072e-06
4.76089e-08
-6.57804e-06
2.54956e-08
-6.57814e-06
2.0177e-09
-6.5601e-06
-2.27541e-08
-6.52309e-06
-4.86932e-08
-6.46637e-06
-7.56716e-08
-6.38932e-06
-1.03533e-07
-6.29144e-06
-1.32097e-07
-6.17238e-06
-1.61164e-07
-6.03195e-06
-1.90514e-07
-5.87015e-06
-2.19906e-07
-5.68714e-06
-2.49087e-07
-5.48327e-06
-2.77788e-07
-5.25911e-06
-3.05731e-07
-5.01543e-06
-3.32634e-07
-4.75319e-06
-3.5821e-07
-4.47355e-06
-3.82178e-07
-4.17789e-06
-4.04261e-07
-3.86777e-06
-4.24196e-07
-3.54491e-06
-4.41737e-07
-3.2112e-06
-4.56658e-07
-2.86868e-06
-4.6876e-07
-2.51951e-06
-4.77873e-07
-2.16594e-06
-4.83863e-07
-1.81028e-06
-4.86629e-07
-1.45492e-06
-4.86112e-07
-1.10222e-06
-4.82293e-07
-7.54554e-07
-4.75196e-07
-4.14245e-07
-4.64885e-07
-8.35377e-08
-4.51467e-07
2.35425e-07
-4.35086e-07
5.40628e-07
-4.15925e-07
8.30206e-07
-3.942e-07
1.10247e-06
-3.70155e-07
1.35593e-06
-3.4406e-07
1.58928e-06
-3.16204e-07
1.80145e-06
-2.86889e-07
1.99158e-06
-2.56428e-07
2.15905e-06
-2.25135e-07
2.30345e-06
-1.93322e-07
2.42459e-06
-1.61291e-07
2.5225e-06
-1.29333e-07
2.59739e-06
-9.77208e-08
2.64967e-06
-6.67075e-08
2.67991e-06
-3.65212e-08
2.68882e-06
-7.36427e-09
2.67727e-06
2.05865e-08
2.6462e-06
4.71825e-08
2.59668e-06
7.23005e-08
2.52984e-06
9.58411e-08
2.44687e-06
1.17726e-07
2.34902e-06
1.37893e-07
2.23757e-06
1.56292e-07
2.11385e-06
1.72877e-07
1.97923e-06
1.87599e-07
1.83513e-06
2.00397e-07
1.68303e-06
2.11184e-07
1.52451e-06
2.19843e-07
1.36128e-06
2.26206e-07
1.19521e-06
2.30042e-07
1.02838e-06
2.31044e-07
8.63178e-07
2.28809e-07
7.02319e-07
2.22834e-07
5.4894e-07
2.12501e-07
4.06637e-07
1.97099e-07
2.79461e-07
1.75874e-07
1.71792e-07
1.48176e-07
8.79716e-08
1.13823e-07
3.15324e-08
7.37838e-08
3.96569e-09
3.15537e-08
-1.81102e-09
7.80587e-09
-2.1945e-08
1.44491e-08
-2.78944e-08
1.03265e-08
-1.01476e-08
-1.03206e-08
2.14087e-08
-5.07059e-08
6.00695e-08
-1.1202e-07
1.01178e-07
-1.94059e-07
1.41664e-07
-2.9571e-07
1.79643e-07
-4.15296e-07
2.1408e-07
-5.50872e-07
2.44499e-07
-7.00415e-07
2.70821e-07
-8.61956e-07
2.93222e-07
-1.03367e-06
3.12039e-07
-1.21393e-06
3.27694e-07
-1.40133e-06
3.40651e-07
-1.59468e-06
3.51371e-07
-1.79302e-06
3.60295e-07
-1.99559e-06
3.67825e-07
-2.2018e-06
3.74315e-07
-2.41123e-06
3.80067e-07
-2.62358e-06
3.85331e-07
-2.83867e-06
3.90304e-07
-3.05637e-06
3.95138e-07
-3.27664e-06
3.99942e-07
-3.49945e-06
4.04787e-07
-3.72483e-06
4.0971e-07
-3.95278e-06
4.14724e-07
-4.18332e-06
4.19817e-07
-4.41644e-06
4.2496e-07
-4.65213e-06
4.30109e-07
-4.89032e-06
4.35205e-07
-5.13094e-06
4.40181e-07
-5.37385e-06
4.44959e-07
-5.61889e-06
4.49456e-07
-5.86584e-06
4.53577e-07
-6.11442e-06
4.57224e-07
-6.36431e-06
4.60287e-07
-6.61512e-06
4.62651e-07
-6.86639e-06
4.64193e-07
-7.1176e-06
4.64782e-07
-7.36816e-06
4.64278e-07
-7.61739e-06
4.62535e-07
-7.86454e-06
4.59399e-07
-8.10878e-06
4.5471e-07
-8.34918e-06
4.48306e-07
-8.58473e-06
4.40017e-07
-8.81435e-06
4.29677e-07
-9.03684e-06
4.17117e-07
-9.25095e-06
4.02175e-07
-9.45534e-06
3.84694e-07
-9.64857e-06
3.64528e-07
-9.82918e-06
3.41544e-07
-9.99562e-06
3.15627e-07
-1.01463e-05
2.8668e-07
-1.02796e-05
2.54634e-07
-1.03939e-05
2.19447e-07
-1.04875e-05
1.81107e-07
-1.05589e-05
1.3964e-07
-1.06064e-05
9.51078e-08
-1.06285e-05
4.76151e-08
-1.06238e-05
-2.68255e-09
-1.05909e-05
-5.56151e-08
-1.05287e-05
-1.10922e-07
-1.0436e-05
-1.68324e-07
-1.03121e-05
-2.27489e-07
-1.01561e-05
-2.88041e-07
-9.96774e-06
-3.49557e-07
-9.74668e-06
-4.1158e-07
-9.49297e-06
-4.73611e-07
-9.20693e-06
-5.35124e-07
-8.88915e-06
-5.95568e-07
-8.54051e-06
-6.54371e-07
-8.1622e-06
-7.10952e-07
-7.75568e-06
-7.64729e-07
-7.32273e-06
-8.15124e-07
-6.86542e-06
-8.61576e-07
-6.38606e-06
-9.03548e-07
-5.88726e-06
-9.40539e-07
-5.37183e-06
-9.7209e-07
-4.8428e-06
-9.97794e-07
-4.30336e-06
-1.01731e-06
-3.75688e-06
-1.03035e-06
-3.2068e-06
-1.03671e-06
-2.65664e-06
-1.03627e-06
-2.10995e-06
-1.02898e-06
-1.57026e-06
-1.01489e-06
-1.04104e-06
-9.94106e-07
-5.25659e-07
-9.66847e-07
-2.73501e-08
-9.33396e-07
4.50837e-07
-8.94112e-07
9.0606e-07
-8.49423e-07
1.33573e-06
-7.9982e-07
1.73751e-06
-7.45843e-07
2.10938e-06
-6.88075e-07
2.44962e-06
-6.27129e-07
2.75683e-06
-5.63638e-07
3.02994e-06
-4.98245e-07
3.26821e-06
-4.31589e-07
3.47121e-06
-3.64296e-07
3.63885e-06
-2.96971e-07
3.77132e-06
-2.30185e-07
3.86908e-06
-1.64471e-07
3.93287e-06
-1.00316e-07
3.96367e-06
-3.81591e-08
3.96264e-06
2.16148e-08
3.93115e-06
7.86714e-08
3.87072e-06
1.32729e-07
3.78301e-06
1.83553e-07
3.66979e-06
2.30948e-07
3.53293e-06
2.74755e-07
3.37438e-06
3.14835e-07
3.1962e-06
3.51059e-07
3.00051e-06
3.83292e-07
2.78953e-06
4.11374e-07
2.56561e-06
4.35104e-07
2.33125e-06
4.5421e-07
2.08912e-06
4.68333e-07
1.84216e-06
4.76996e-07
1.59363e-06
4.79582e-07
1.34712e-06
4.75316e-07
1.1067e-06
4.63249e-07
8.76929e-07
4.42276e-07
6.62849e-07
4.1118e-07
4.69956e-07
3.68767e-07
3.03979e-07
3.14153e-07
1.70461e-07
2.4734e-07
7.40483e-08
1.70197e-07
1.7397e-08
8.82051e-08
1.55859e-08
3.39383e-09
-2.53387e-08
-1.22536e-09
-2.32755e-08
-2.28641e-08
1.14908e-08
-6.70783e-08
6.56228e-08
-1.36866e-07
1.29857e-07
-2.33265e-07
1.97577e-07
-3.55887e-07
2.64285e-07
-5.03356e-07
3.27114e-07
-6.73677e-07
3.844e-07
-8.64521e-07
4.35342e-07
-1.07345e-06
4.79747e-07
-1.29806e-06
5.17833e-07
-1.5361e-06
5.50084e-07
-1.78555e-06
5.77141e-07
-2.04462e-06
5.99717e-07
-2.31178e-06
6.1854e-07
-2.5858e-06
6.34308e-07
-2.86564e-06
6.47669e-07
-3.15052e-06
6.59196e-07
-3.43984e-06
6.69382e-07
-3.73314e-06
6.78638e-07
-4.03013e-06
6.87293e-07
-4.3306e-06
6.95602e-07
-4.6344e-06
7.03749e-07
-4.94147e-06
7.11857e-07
-5.25176e-06
7.19995e-07
-5.56522e-06
7.28189e-07
-5.88183e-06
7.36425e-07
-6.20153e-06
7.44659e-07
-6.52425e-06
7.52822e-07
-6.84986e-06
7.6082e-07
-7.17822e-06
7.68544e-07
-7.50913e-06
7.75868e-07
-7.84233e-06
7.82651e-07
-8.17749e-06
7.8874e-07
-8.51423e-06
7.93968e-07
-8.8521e-06
7.98154e-07
-9.19056e-06
8.01107e-07
-9.52898e-06
8.02618e-07
-9.86667e-06
8.02469e-07
-1.02028e-05
8.00427e-07
-1.05365e-05
7.96245e-07
-1.08668e-05
7.89669e-07
-1.11925e-05
7.80432e-07
-1.15125e-05
7.68261e-07
-1.18253e-05
7.52879e-07
-1.21297e-05
7.34008e-07
-1.24239e-05
7.11372e-07
-1.27065e-05
6.84705e-07
-1.29755e-05
6.53751e-07
-1.32293e-05
6.18274e-07
-1.34658e-05
5.7806e-07
-1.36831e-05
5.32928e-07
-1.38791e-05
4.82728e-07
-1.40518e-05
4.27355e-07
-1.41991e-05
3.66753e-07
-1.4319e-05
3.00917e-07
-1.44092e-05
2.29901e-07
-1.44679e-05
1.53825e-07
-1.44932e-05
7.28763e-08
-1.44832e-05
-1.26827e-08
-1.44363e-05
-1.02534e-07
-1.43509e-05
-1.96254e-07
-1.42259e-05
-2.93364e-07
-1.40601e-05
-3.93303e-07
-1.38527e-05
-4.95442e-07
-1.36032e-05
-5.99079e-07
-1.33113e-05
-7.03451e-07
-1.29772e-05
-8.07738e-07
-1.26012e-05
-9.1107e-07
-1.21843e-05
-1.01254e-06
-1.17274e-05
-1.11121e-06
-1.12322e-05
-1.20614e-06
-1.07006e-05
-1.29637e-06
-1.01348e-05
-1.38095e-06
-9.53736e-06
-1.45897e-06
-8.91134e-06
-1.52957e-06
-8.25997e-06
-1.59191e-06
-7.5868e-06
-1.64525e-06
-6.89566e-06
-1.68893e-06
-6.19059e-06
-1.72238e-06
-5.47579e-06
-1.74514e-06
-4.75563e-06
-1.75687e-06
-4.03456e-06
-1.75734e-06
-3.31706e-06
-1.74648e-06
-2.6076e-06
-1.72434e-06
-1.91061e-06
-1.6911e-06
-1.23038e-06
-1.64708e-06
-5.71046e-07
-1.59273e-06
6.34497e-08
-1.52861e-06
6.69435e-07
-1.45541e-06
1.24352e-06
-1.37391e-06
1.78265e-06
-1.28497e-06
2.28411e-06
-1.18954e-06
2.74558e-06
-1.0886e-06
3.16512e-06
-9.83187e-07
3.54123e-06
-8.74348e-07
3.87277e-06
-7.63132e-07
4.15905e-06
-6.50573e-07
4.39975e-06
-5.3767e-07
4.59494e-06
-4.2538e-07
4.74507e-06
-3.146e-07
4.85091e-06
-2.06156e-07
4.91355e-06
-1.00802e-07
4.93437e-06
7.96423e-10
4.915e-06
9.80457e-08
4.85728e-06
1.90443e-07
4.76328e-06
2.77554e-07
4.63522e-06
3.59014e-07
4.47546e-06
4.34508e-07
4.28654e-06
5.0376e-07
4.07109e-06
5.6651e-07
3.83189e-06
6.22489e-07
3.57187e-06
6.71395e-07
3.29412e-06
7.12857e-07
3.00192e-06
7.46405e-07
2.69882e-06
7.71436e-07
2.38864e-06
7.87176e-07
2.07557e-06
7.9265e-07
1.76423e-06
7.86664e-07
1.45968e-06
7.67797e-07
1.16752e-06
7.34437e-07
8.9382e-07
6.84876e-07
6.45082e-07
6.17506e-07
4.28017e-07
5.31217e-07
2.49259e-07
4.26098e-07
1.14937e-07
3.04518e-07
3.02958e-08
1.72846e-07
4.58815e-08
-2.6707e-09
-2.26679e-08
-2.2231e-08
-3.71555e-09
-6.61774e-08
5.54372e-08
-1.39063e-07
1.38508e-07
-2.43198e-07
2.33992e-07
-3.79131e-07
3.3351e-07
-5.46076e-07
4.31231e-07
-7.42309e-07
5.23347e-07
-9.65498e-07
6.07589e-07
-1.21298e-06
6.82825e-07
-1.48198e-06
7.48743e-07
-1.76975e-06
8.05607e-07
-2.07373e-06
8.54059e-07
-2.39156e-06
8.9497e-07
-2.72116e-06
9.29324e-07
-3.06076e-06
9.58138e-07
-3.40885e-06
9.82399e-07
-3.76421e-06
1.00303e-06
-4.12585e-06
1.02084e-06
-4.49301e-06
1.03654e-06
-4.86511e-06
1.05074e-06
-5.24172e-06
1.0639e-06
-5.62253e-06
1.07641e-06
-6.00732e-06
1.08854e-06
-6.39594e-06
1.10047e-06
-6.78825e-06
1.11231e-06
-7.18418e-06
1.12411e-06
-7.5836e-06
1.13585e-06
-7.98642e-06
1.14747e-06
-8.39248e-06
1.15888e-06
-8.80161e-06
1.16995e-06
-9.21359e-06
1.18052e-06
-9.62813e-06
1.19041e-06
-1.00449e-05
1.19941e-06
-1.04635e-05
1.2073e-06
-1.08833e-05
1.21384e-06
-1.13039e-05
1.21877e-06
-1.17246e-05
1.22179e-06
-1.21446e-05
1.2226e-06
-1.2563e-05
1.22089e-06
-1.29789e-05
1.21629e-06
-1.33911e-05
1.20847e-06
-1.37985e-05
1.19702e-06
-1.41996e-05
1.18157e-06
-1.4593e-05
1.16171e-06
-1.49772e-05
1.13703e-06
-1.53503e-05
1.10714e-06
-1.57106e-05
1.07161e-06
-1.60559e-05
1.03008e-06
-1.63843e-05
9.82159e-07
-1.66936e-05
9.27521e-07
-1.69814e-05
8.65857e-07
-1.72454e-05
7.96911e-07
-1.74831e-05
7.20477e-07
-1.76922e-05
6.36416e-07
-1.78701e-05
5.44658e-07
-1.80144e-05
4.45213e-07
-1.81227e-05
3.38179e-07
-1.81926e-05
2.23747e-07
-1.82219e-05
1.0221e-07
-1.82086e-05
-2.60363e-08
-1.81506e-05
-1.60499e-07
-1.80463e-05
-3.00555e-07
-1.78942e-05
-4.45487e-07
-1.7693e-05
-5.94466e-07
-1.74419e-05
-7.46562e-07
-1.71402e-05
-9.00746e-07
-1.67878e-05
-1.0559e-06
-1.63847e-05
-1.21083e-06
-1.59315e-05
-1.36426e-06
-1.54292e-05
-1.51488e-06
-1.4879e-05
-1.66134e-06
-1.42829e-05
-1.80225e-06
-1.36431e-05
-1.93624e-06
-1.29621e-05
-2.06194e-06
-1.2243e-05
-2.17803e-06
-1.14893e-05
-2.28325e-06
-1.07048e-05
-2.37641e-06
-9.89367e-06
-2.45643e-06
-9.06027e-06
-2.52233e-06
-8.20935e-06
-2.5733e-06
-7.34583e-06
-2.60866e-06
-6.47481e-06
-2.62789e-06
-5.60148e-06
-2.63067e-06
-4.73111e-06
-2.61685e-06
-3.86896e-06
-2.58649e-06
-3.02025e-06
-2.53981e-06
-2.19006e-06
-2.47727e-06
-1.38333e-06
-2.39946e-06
-6.04747e-07
-2.30719e-06
1.41254e-07
-2.20141e-06
8.50573e-07
-2.08322e-06
1.51947e-06
-1.95387e-06
2.1446e-06
-1.81467e-06
2.72306e-06
-1.66706e-06
3.25238e-06
-1.51251e-06
3.73058e-06
-1.35254e-06
4.15612e-06
-1.18868e-06
4.52798e-06
-1.02243e-06
4.84557e-06
-8.55262e-07
5.10878e-06
-6.88589e-07
5.31793e-06
-5.23744e-07
5.47374e-06
-3.61968e-07
5.57733e-06
-2.04396e-07
5.63018e-06
-5.20536e-08
5.63408e-06
9.4148e-08
5.59111e-06
2.33413e-07
5.50362e-06
3.65049e-07
5.37417e-06
4.88459e-07
5.20556e-06
6.03121e-07
5.00075e-06
7.08569e-07
4.7629e-06
8.04361e-07
4.49534e-06
8.90049e-07
4.20159e-06
9.6514e-07
3.88539e-06
1.02906e-06
3.55071e-06
1.08109e-06
3.2018e-06
1.12035e-06
2.84323e-06
1.14574e-06
2.47998e-06
1.15591e-06
2.11743e-06
1.14921e-06
1.76146e-06
1.12377e-06
1.41844e-06
1.07745e-06
1.09525e-06
1.00807e-06
7.99173e-07
9.1358e-07
5.37842e-07
7.92549e-07
3.19071e-07
6.44869e-07
1.50797e-07
4.72793e-07
4.12357e-08
2.82408e-07
8.71172e-08
-9.57251e-09
-1.30956e-08
-4.64144e-08
3.31262e-08
-1.15917e-07
1.24939e-07
-2.21165e-07
2.43756e-07
-3.63416e-07
3.76242e-07
-5.42434e-07
5.12528e-07
-7.56841e-07
6.45637e-07
-1.00444e-06
7.70947e-07
-1.28251e-06
8.85661e-07
-1.58805e-06
9.88363e-07
-1.91797e-06
1.07866e-06
-2.26923e-06
1.15687e-06
-2.639e-06
1.22383e-06
-3.02468e-06
1.28064e-06
-3.42395e-06
1.32859e-06
-3.83481e-06
1.369e-06
-4.25558e-06
1.40316e-06
-4.68484e-06
1.43229e-06
-5.12146e-06
1.45745e-06
-5.56452e-06
1.47961e-06
-6.01333e-06
1.49955e-06
-6.46734e-06
1.51791e-06
-6.92614e-06
1.53521e-06
-7.38942e-06
1.55182e-06
-7.85695e-06
1.56799e-06
-8.32852e-06
1.58388e-06
-8.80396e-06
1.59956e-06
-9.28312e-06
1.61501e-06
-9.76581e-06
1.63016e-06
-1.02518e-05
1.6449e-06
-1.07409e-05
1.65905e-06
-1.12328e-05
1.6724e-06
-1.17271e-05
1.68472e-06
-1.22234e-05
1.69574e-06
-1.27213e-05
1.70515e-06
-1.322e-05
1.71262e-06
-1.37191e-05
1.7178e-06
-1.42176e-05
1.7203e-06
-1.47147e-05
1.7197e-06
-1.52094e-05
1.71556e-06
-1.57005e-05
1.70741e-06
-1.61868e-05
1.69476e-06
-1.66668e-05
1.67709e-06
-1.71391e-05
1.65387e-06
-1.7602e-05
1.62454e-06
-1.80535e-05
1.58855e-06
-1.84917e-05
1.54535e-06
-1.89145e-05
1.49439e-06
-1.93196e-05
1.43515e-06
-1.97045e-05
1.36714e-06
-2.00669e-05
1.2899e-06
-2.04041e-05
1.20302e-06
-2.07133e-05
1.10617e-06
-2.09919e-05
9.99084e-07
-2.12371e-05
8.81581e-07
-2.1446e-05
7.53585e-07
-2.1616e-05
6.15127e-07
-2.17441e-05
4.66358e-07
-2.18279e-05
3.07556e-07
-2.18649e-05
1.39133e-07
-2.18525e-05
-3.83549e-08
-2.17888e-05
-2.24224e-07
-2.16718e-05
-4.17619e-07
-2.14997e-05
-6.17553e-07
-2.12713e-05
-8.22898e-07
-2.09854e-05
-1.03239e-06
-2.06416e-05
-1.24462e-06
-2.02394e-05
-1.4581e-06
-1.9779e-05
-1.67119e-06
-1.92611e-05
-1.8822e-06
-1.86866e-05
-2.08934e-06
-1.80571e-05
-2.29081e-06
-1.73746e-05
-2.48474e-06
-1.66416e-05
-2.66928e-06
-1.58609e-05
-2.84261e-06
-1.5036e-05
-3.00296e-06
-1.41706e-05
-3.14861e-06
-1.32691e-05
-3.27797e-06
-1.23359e-05
-3.38958e-06
-1.13761e-05
-3.48213e-06
-1.03949e-05
-3.55449e-06
-9.39786e-06
-3.60574e-06
-8.39059e-06
-3.63516e-06
-7.37897e-06
-3.64228e-06
-6.36894e-06
-3.62688e-06
-5.36644e-06
-3.58899e-06
-4.37738e-06
-3.52887e-06
-3.40756e-06
-3.44709e-06
-2.46262e-06
-3.3444e-06
-1.54796e-06
-3.22185e-06
-6.68696e-07
-3.08067e-06
1.70383e-07
-2.9223e-06
9.64887e-07
-2.74837e-06
1.71085e-06
-2.56064e-06
2.40479e-06
-2.36099e-06
3.04369e-06
-2.15141e-06
3.62507e-06
-1.93393e-06
4.14698e-06
-1.71059e-06
4.60799e-06
-1.48344e-06
5.00722e-06
-1.25449e-06
5.34428e-06
-1.02566e-06
5.61933e-06
-7.98789e-07
5.83297e-06
-5.75603e-07
5.98626e-06
-3.5769e-07
6.0807e-06
-1.46496e-07
6.11817e-06
5.66789e-08
6.1009e-06
2.50685e-07
6.03144e-06
4.34508e-07
5.91264e-06
6.07261e-07
5.7476e-06
7.6816e-07
5.53968e-06
9.16493e-07
5.29245e-06
1.05159e-06
5.00972e-06
1.17278e-06
4.69553e-06
1.27933e-06
4.35415e-06
1.37043e-06
3.99014e-06
1.44509e-06
3.60836e-06
1.50213e-06
3.21401e-06
1.54009e-06
2.81269e-06
1.55723e-06
2.41044e-06
1.55146e-06
2.01378e-06
1.52043e-06
1.62973e-06
1.4615e-06
1.26583e-06
1.37197e-06
9.30123e-07
1.24928e-06
6.3117e-07
1.0915e-06
3.78068e-07
8.9797e-07
1.80662e-07
6.70199e-07
5.00463e-08
4.13023e-07
1.37164e-07
-1.68985e-08
3.80288e-09
-7.24394e-08
8.86668e-08
-1.69646e-07
2.22146e-07
-3.09863e-07
3.83973e-07
-4.93018e-07
5.59397e-07
-7.17866e-07
7.37376e-07
-9.82259e-07
9.1003e-07
-1.28341e-06
1.0721e-06
-1.61812e-06
1.22038e-06
-1.98302e-06
1.35326e-06
-2.37469e-06
1.47033e-06
-2.78984e-06
1.57203e-06
-3.22539e-06
1.65938e-06
-3.67852e-06
1.73378e-06
-4.14674e-06
1.79681e-06
-4.62786e-06
1.85013e-06
-5.12004e-06
1.89534e-06
-5.62173e-06
1.93397e-06
-6.13165e-06
1.96737e-06
-6.64878e-06
1.99674e-06
-7.1723e-06
2.02307e-06
-7.70157e-06
2.04719e-06
-8.23609e-06
2.06974e-06
-8.77547e-06
2.0912e-06
-9.31938e-06
2.11191e-06
-9.86756e-06
2.13207e-06
-1.04198e-05
2.15177e-06
-1.09758e-05
2.17102e-06
-1.15354e-05
2.18974e-06
-1.20983e-05
2.20778e-06
-1.26641e-05
2.22493e-06
-1.32327e-05
2.24093e-06
-1.38034e-05
2.25549e-06
-1.4376e-05
2.26827e-06
-1.49497e-05
2.27888e-06
-1.5524e-05
2.28689e-06
-1.6098e-05
2.29187e-06
-1.6671e-05
2.29329e-06
-1.7242e-05
2.29064e-06
-1.78097e-05
2.28333e-06
-1.83731e-05
2.27076e-06
-1.89306e-05
2.25228e-06
-1.94807e-05
2.22722e-06
-2.00218e-05
2.19489e-06
-2.05518e-05
2.15458e-06
-2.10688e-05
2.10557e-06
-2.15706e-05
2.04714e-06
-2.20548e-05
1.97859e-06
-2.25189e-05
1.89924e-06
-2.29602e-05
1.80846e-06
-2.3376e-05
1.70567e-06
-2.37633e-05
1.59034e-06
-2.41192e-05
1.46206e-06
-2.44406e-05
1.3205e-06
-2.47245e-05
1.16543e-06
-2.49677e-05
9.96779e-07
-2.51671e-05
8.14591e-07
-2.53198e-05
6.19079e-07
-2.54229e-05
4.10616e-07
-2.54735e-05
1.89749e-07
-2.54691e-05
-4.27927e-08
-2.54072e-05
-2.86122e-07
-2.52857e-05
-5.39124e-07
-2.51027e-05
-8.00523e-07
-2.48567e-05
-1.06886e-06
-2.45466e-05
-1.34252e-06
-2.41715e-05
-1.61969e-06
-2.37312e-05
-1.89844e-06
-2.32257e-05
-2.17671e-06
-2.26556e-05
-2.4523e-06
-2.2022e-05
-2.72296e-06
-2.13264e-05
-2.98636e-06
-2.0571e-05
-3.24012e-06
-1.97584e-05
-3.48189e-06
-1.88917e-05
-3.70933e-06
-1.79745e-05
-3.92015e-06
-1.70109e-05
-4.11219e-06
-1.60055e-05
-4.2834e-06
-1.49632e-05
-4.43187e-06
-1.38894e-05
-4.55593e-06
-1.27898e-05
-4.65409e-06
-1.16704e-05
-4.72514e-06
-1.05374e-05
-4.76814e-06
-9.39728e-06
-4.78243e-06
-8.25649e-06
-4.76767e-06
-7.12164e-06
-4.72384e-06
-5.99928e-06
-4.65124e-06
-4.89587e-06
-4.55049e-06
-3.81773e-06
-4.42254e-06
-2.77095e-06
-4.26864e-06
-1.76132e-06
-4.0903e-06
-7.94292e-07
-3.88933e-06
1.25077e-07
-3.66774e-06
9.92196e-07
-3.42775e-06
1.80296e-06
-3.17176e-06
2.55381e-06
-2.90226e-06
3.24174e-06
-2.62185e-06
3.8643e-06
-2.33315e-06
4.41966e-06
-2.0388e-06
4.90656e-06
-1.74139e-06
5.32432e-06
-1.44342e-06
5.67284e-06
-1.14731e-06
5.95255e-06
-8.55317e-07
6.16442e-06
-5.69558e-07
6.30989e-06
-2.91967e-07
6.39086e-06
-2.42959e-08
6.40966e-06
2.31886e-07
6.36899e-06
4.75182e-07
6.27189e-06
7.04357e-07
6.12175e-06
9.18305e-07
5.92222e-06
1.11602e-06
5.67725e-06
1.29656e-06
5.39105e-06
1.45898e-06
5.0681e-06
1.60228e-06
4.71316e-06
1.72538e-06
4.33127e-06
1.82698e-06
3.92782e-06
1.90558e-06
3.50854e-06
1.95937e-06
3.07958e-06
1.98619e-06
2.64753e-06
1.98352e-06
2.21945e-06
1.94851e-06
1.80295e-06
1.878e-06
1.4062e-06
1.76871e-06
1.03801e-06
1.61748e-06
7.07865e-07
1.42164e-06
4.2619e-07
1.17965e-06
2.04667e-07
8.91723e-07
5.69289e-08
5.60761e-07
1.94093e-07
-2.4422e-08
2.82246e-08
-9.94915e-08
1.63737e-07
-2.25795e-07
3.48449e-07
-4.02769e-07
5.60947e-07
-6.28832e-07
7.85459e-07
-9.01558e-07
1.0101e-06
-1.21788e-06
1.22636e-06
-1.57431e-06
1.42853e-06
-1.96711e-06
1.61317e-06
-2.39245e-06
1.77861e-06
-2.84661e-06
1.92448e-06
-3.326e-06
2.05142e-06
-3.82733e-06
2.1607e-06
-4.34758e-06
2.25403e-06
-4.88409e-06
2.33333e-06
-5.43456e-06
2.40059e-06
-5.99699e-06
2.45777e-06
-6.56972e-06
2.5067e-06
-7.15137e-06
2.54902e-06
-7.74081e-06
2.58618e-06
-8.33715e-06
2.6194e-06
-8.93965e-06
2.64969e-06
-9.54773e-06
2.67782e-06
-1.01609e-05
2.7044e-06
-1.07789e-05
2.72983e-06
-1.14012e-05
2.7544e-06
-1.20276e-05
2.77821e-06
-1.26579e-05
2.80129e-06
-1.32917e-05
2.82355e-06
-1.39288e-05
2.84482e-06
-1.45687e-05
2.86487e-06
-1.52112e-05
2.88338e-06
-1.58557e-05
2.90001e-06
-1.65017e-05
2.91433e-06
-1.71487e-05
2.92589e-06
-1.7796e-05
2.93416e-06
-1.84427e-05
2.93859e-06
-1.9088e-05
2.93856e-06
-1.97308e-05
2.93339e-06
-2.03698e-05
2.92238e-06
-2.10038e-05
2.90477e-06
-2.16313e-05
2.87975e-06
-2.22506e-05
2.84648e-06
-2.28597e-05
2.80409e-06
-2.34568e-05
2.75168e-06
-2.40396e-05
2.68836e-06
-2.46057e-05
2.61324e-06
-2.51526e-05
2.52543e-06
-2.56774e-05
2.42408e-06
-2.61774e-05
2.30841e-06
-2.66494e-05
2.1777e-06
-2.70904e-05
2.0313e-06
-2.7497e-05
1.86869e-06
-2.7866e-05
1.68947e-06
-2.81939e-05
1.49337e-06
-2.84774e-05
1.2803e-06
-2.87132e-05
1.05033e-06
-2.88978e-05
8.03729e-07
-2.90282e-05
5.40972e-07
-2.91012e-05
2.62745e-07
-2.91139e-05
-3.00267e-08
-2.90638e-05
-3.36284e-07
-2.89483e-05
-6.54596e-07
-2.87654e-05
-9.83399e-07
-2.85134e-05
-1.32089e-06
-2.81909e-05
-1.66506e-06
-2.77968e-05
-2.0137e-06
-2.73309e-05
-2.36441e-06
-2.67929e-05
-2.71464e-06
-2.61835e-05
-3.06171e-06
-2.55037e-05
-3.40282e-06
-2.47549e-05
-3.73511e-06
-2.39394e-05
-4.05565e-06
-2.30598e-05
-4.36153e-06
-2.21192e-05
-4.64985e-06
-2.11216e-05
-4.91781e-06
-2.00711e-05
-5.16269e-06
-1.89725e-05
-5.38193e-06
-1.78312e-05
-5.57319e-06
-1.66528e-05
-5.73433e-06
-1.54434e-05
-5.86348e-06
-1.42095e-05
-5.9591e-06
-1.29577e-05
-6.01994e-06
-1.16949e-05
-6.04514e-06
-1.04284e-05
-6.0342e-06
-9.16523e-06
-5.98702e-06
-7.9126e-06
-5.90387e-06
-6.67765e-06
-5.78545e-06
-5.46736e-06
-5.63283e-06
-4.28853e-06
-5.44747e-06
-3.14765e-06
-5.23118e-06
-2.05087e-06
-4.98611e-06
-1.00394e-06
-4.71467e-06
-1.21115e-08
-4.41958e-06
9.19866e-07
-4.10373e-06
1.78781e-06
-3.7702e-06
2.58813e-06
-3.42217e-06
3.31788e-06
-3.0629e-06
3.97473e-06
-2.69565e-06
4.55701e-06
-2.32367e-06
5.06369e-06
-1.9501e-06
5.49437e-06
-1.57798e-06
5.84926e-06
-1.21021e-06
6.12916e-06
-8.49462e-07
6.33543e-06
-4.9824e-07
6.46995e-06
-1.58816e-07
6.53508e-06
1.66757e-07
6.53363e-06
4.76638e-07
6.4688e-06
7.69182e-07
6.3442e-06
1.04291e-06
6.16375e-06
1.29647e-06
5.93172e-06
1.52859e-06
5.65268e-06
1.73802e-06
5.3315e-06
1.92347e-06
4.97335e-06
2.08352e-06
4.58374e-06
2.2166e-06
4.16849e-06
2.32083e-06
3.73383e-06
2.39403e-06
3.28637e-06
2.43364e-06
2.8332e-06
2.43669e-06
2.38191e-06
2.3998e-06
1.94064e-06
2.31927e-06
1.51821e-06
2.19115e-06
1.12414e-06
2.01154e-06
7.68926e-07
1.77686e-06
4.64228e-07
1.48434e-06
2.23397e-07
1.13255e-06
6.21734e-08
7.21985e-07
2.56266e-07
-3.20371e-08
6.02617e-08
-1.27097e-07
2.58797e-07
-2.83362e-07
5.04714e-07
-4.98275e-07
7.7586e-07
-7.68629e-07
1.05581e-06
-1.0907e-06
1.33217e-06
-1.46038e-06
1.59604e-06
-1.87339e-06
1.84153e-06
-2.32536e-06
2.06513e-06
-2.81199e-06
2.26524e-06
-3.32917e-06
2.44166e-06
-3.87305e-06
2.5953e-06
-4.44008e-06
2.72774e-06
-5.02711e-06
2.84105e-06
-5.6313e-06
2.93752e-06
-6.25023e-06
3.01952e-06
-6.8818e-06
3.08935e-06
-7.52426e-06
3.14916e-06
-8.17615e-06
3.20091e-06
-8.83627e-06
3.2463e-06
-9.50363e-06
3.28676e-06
-1.01774e-05
3.3235e-06
-1.08571e-05
3.35744e-06
-1.1542e-05
3.38931e-06
-1.22317e-05
3.4196e-06
-1.2926e-05
3.44864e-06
-1.36244e-05
3.4766e-06
-1.43266e-05
3.50351e-06
-1.50323e-05
3.52929e-06
-1.57413e-05
3.55376e-06
-1.6453e-05
3.57664e-06
-1.71672e-05
3.5976e-06
-1.78835e-05
3.61622e-06
-1.86011e-05
3.63201e-06
-1.93197e-05
3.64443e-06
-2.00384e-05
3.65288e-06
-2.07565e-05
3.65666e-06
-2.1473e-05
3.65505e-06
-2.21868e-05
3.64723e-06
-2.28968e-05
3.63235e-06
-2.36015e-05
3.60947e-06
-2.42993e-05
3.57761e-06
-2.49886e-05
3.53575e-06
-2.56673e-05
3.48281e-06
-2.63334e-05
3.41772e-06
-2.69844e-05
3.33937e-06
-2.76178e-05
3.24666e-06
-2.82309e-05
3.13852e-06
-2.88207e-05
3.01392e-06
-2.93842e-05
2.87188e-06
-2.9918e-05
2.71153e-06
-3.04188e-05
2.53209e-06
-3.0883e-05
2.33292e-06
-3.13071e-05
2.11353e-06
-3.16873e-05
1.8736e-06
-3.202e-05
1.61301e-06
-3.23015e-05
1.33185e-06
-3.25283e-05
1.03044e-06
-3.26966e-05
7.09343e-07
-3.28033e-05
3.6938e-07
-3.2845e-05
1.1751e-08
-3.28188e-05
-3.62476e-07
-3.27221e-05
-7.51385e-07
-3.25523e-05
-1.15319e-06
-3.23074e-05
-1.56573e-06
-3.19859e-05
-1.98658e-06
-3.15865e-05
-2.41309e-06
-3.11085e-05
-2.84241e-06
-3.05517e-05
-3.27148e-06
-2.99163e-05
-3.69707e-06
-2.92033e-05
-4.11584e-06
-2.84141e-05
-4.52433e-06
-2.75507e-05
-4.91905e-06
-2.66157e-05
-5.29646e-06
-2.56125e-05
-5.6531e-06
-2.45448e-05
-5.98553e-06
-2.3417e-05
-6.29049e-06
-2.2234e-05
-6.56486e-06
-2.10015e-05
-6.80575e-06
-1.97253e-05
-7.01053e-06
-1.84119e-05
-7.17689e-06
-1.70681e-05
-7.30289e-06
-1.57011e-05
-7.38694e-06
-1.43184e-05
-7.42789e-06
-1.29275e-05
-7.42504e-06
-1.15364e-05
-7.37816e-06
-1.01528e-05
-7.28746e-06
-8.78456e-06
-7.15368e-06
-7.43941e-06
-6.97798e-06
-6.12486e-06
-6.76202e-06
-4.84817e-06
-6.50787e-06
-3.61624e-06
-6.21803e-06
-2.43557e-06
-5.89535e-06
-1.31215e-06
-5.543e-06
-2.51453e-07
-5.16443e-06
7.41667e-07
-4.76332e-06
1.66299e-06
-4.34349e-06
2.50895e-06
-3.90887e-06
3.27671e-06
-3.46341e-06
3.96411e-06
-3.01106e-06
4.5697e-06
-2.55569e-06
5.09274e-06
-2.10102e-06
5.53316e-06
-1.65063e-06
5.89158e-06
-1.20787e-06
6.1692e-06
-7.75861e-07
6.36784e-06
-3.57463e-07
6.48988e-06
4.47167e-08
6.5382e-06
4.28326e-07
6.51613e-06
7.91249e-07
6.42747e-06
1.13157e-06
6.27638e-06
1.44755e-06
6.06742e-06
1.73754e-06
5.80549e-06
1.99995e-06
5.49581e-06
2.23314e-06
5.14395e-06
2.43538e-06
4.75583e-06
2.60472e-06
4.3377e-06
2.73896e-06
3.89621e-06
2.83552e-06
3.43845e-06
2.8914e-06
2.97197e-06
2.90318e-06
2.50485e-06
2.86693e-06
2.04579e-06
2.77832e-06
1.60422e-06
2.63272e-06
1.19043e-06
2.42532e-06
8.15842e-07
2.15145e-06
4.93285e-07
1.8069e-06
2.37549e-07
1.38829e-06
6.60568e-08
8.93478e-07
3.22323e-07
-3.96767e-08
9.9938e-08
-1.5497e-07
3.7409e-07
-3.41702e-07
6.91446e-07
-5.95293e-07
1.02945e-06
-9.10841e-07
1.37136e-06
-1.28323e-06
1.70456e-06
-1.70726e-06
2.02007e-06
-2.17775e-06
2.31202e-06
-2.68964e-06
2.57702e-06
-3.23811e-06
2.81371e-06
-3.81865e-06
3.02221e-06
-4.42711e-06
3.20375e-06
-5.0597e-06
3.36034e-06
-5.71309e-06