/*--------------------------------*- C++ -*----------------------------------*\
| =========                 |                                                 |
| \\      /  F ield         | OpenFOAM: The Open Source CFD Toolbox           |
|  \\    /   O peration     | Version:  2112                                  |
|   \\  /    A nd           | Website:  www.openfoam.com                      |
|    \\/     M anipulation  |                                                 |
\*---------------------------------------------------------------------------*/
FoamFile
{
    version     2.0;
    format      ascii;
    arch        "LSB;label=32;scalar=64";
    class       volVectorField;
    location    "11";
    object      U;
}
// * * * * * * * * * * * * * * * * * * * * * * * * * * * * * * * * * * * * * //

dimensions      [0 1 -1 0 0 0 0];

internalField   nonuniform List<vector> 
16641
(
(2.89369e-06 -2.96049e-06 0)
(1.22093e-05 -5.64963e-06 0)
(2.38696e-05 -5.29238e-06 0)
(3.15037e-05 -3.41917e-06 0)
(3.22994e-05 -9.85687e-07 0)
(2.54868e-05 1.52824e-06 0)
(1.11457e-05 3.87412e-06 0)
(-1.02609e-05 5.92383e-06 0)
(-3.79885e-05 7.70002e-06 0)
(-7.11588e-05 9.18027e-06 0)
(-0.000108972 1.0385e-05 0)
(-0.000150655 1.13488e-05 0)
(-0.000195514 1.21084e-05 0)
(-0.000242947 1.26997e-05 0)
(-0.000292452 1.31567e-05 0)
(-0.00034362 1.3511e-05 0)
(-0.000396134 1.37904e-05 0)
(-0.000449753 1.40184e-05 0)
(-0.000504306 1.42148e-05 0)
(-0.000559681 1.43958e-05 0)
(-0.000615811 1.45735e-05 0)
(-0.000672669 1.47573e-05 0)
(-0.000730255 1.4954e-05 0)
(-0.000788588 1.51677e-05 0)
(-0.000847701 1.5401e-05 0)
(-0.000907635 1.56544e-05 0)
(-0.000968431 1.5927e-05 0)
(-0.00103013 1.62175e-05 0)
(-0.00109277 1.65235e-05 0)
(-0.00115637 1.68422e-05 0)
(-0.00122095 1.717e-05 0)
(-0.00128651 1.75032e-05 0)
(-0.00135306 1.78377e-05 0)
(-0.00142057 1.81689e-05 0)
(-0.001489 1.84922e-05 0)
(-0.0015583 1.8803e-05 0)
(-0.0016284 1.90958e-05 0)
(-0.00169922 1.93648e-05 0)
(-0.00177064 1.96039e-05 0)
(-0.00184253 1.98067e-05 0)
(-0.00191474 1.99665e-05 0)
(-0.0019871 2.00759e-05 0)
(-0.00205941 2.0127e-05 0)
(-0.00213143 2.01116e-05 0)
(-0.00220291 2.0021e-05 0)
(-0.00227357 1.98465e-05 0)
(-0.00234309 1.9579e-05 0)
(-0.00241113 1.92094e-05 0)
(-0.00247731 1.87284e-05 0)
(-0.00254124 1.81268e-05 0)
(-0.00260248 1.73958e-05 0)
(-0.00266058 1.65274e-05 0)
(-0.00271506 1.5514e-05 0)
(-0.00276542 1.43487e-05 0)
(-0.00281114 1.30258e-05 0)
(-0.00285169 1.15409e-05 0)
(-0.00288652 9.89132e-06 0)
(-0.0029151 8.07596e-06 0)
(-0.00293688 6.09556e-06 0)
(-0.00295134 3.95311e-06 0)
(-0.00295796 1.65409e-06 0)
(-0.00295626 -7.95195e-07 0)
(-0.00294577 -3.38321e-06 0)
(-0.00292609 -6.09691e-06 0)
(-0.00289685 -8.92072e-06 0)
(-0.00285776 -1.18362e-05 0)
(-0.00280856 -1.48222e-05 0)
(-0.00274911 -1.7855e-05 0)
(-0.00267932 -2.09087e-05 0)
(-0.0025992 -2.3955e-05 0)
(-0.00250886 -2.69637e-05 0)
(-0.00240849 -2.99035e-05 0)
(-0.00229841 -3.27419e-05 0)
(-0.00217902 -3.54459e-05 0)
(-0.00205083 -3.7983e-05 0)
(-0.00191448 -4.03208e-05 0)
(-0.00177067 -4.24284e-05 0)
(-0.00162021 -4.42767e-05 0)
(-0.00146401 -4.58394e-05 0)
(-0.00130304 -4.70929e-05 0)
(-0.00113835 -4.80174e-05 0)
(-0.000971043 -4.85971e-05 0)
(-0.000802262 -4.8821e-05 0)
(-0.000633182 -4.86825e-05 0)
(-0.000464992 -4.81802e-05 0)
(-0.000298878 -4.73177e-05 0)
(-0.000136008 -4.61039e-05 0)
(2.2483e-05 -4.45529e-05 0)
(0.000175507 -4.26828e-05 0)
(0.000322042 -4.05169e-05 0)
(0.000461138 -3.8082e-05 0)
(0.000591936 -3.54082e-05 0)
(0.00071367 -3.25281e-05 0)
(0.000825681 -2.94768e-05 0)
(0.00092742 -2.62902e-05 0)
(0.00101845 -2.30048e-05 0)
(0.00109846 -1.96569e-05 0)
(0.00116724 -1.6282e-05 0)
(0.00122469 -1.29141e-05 0)
(0.00127084 -9.58501e-06 0)
(0.00130579 -6.32394e-06 0)
(0.00132977 -3.15707e-06 0)
(0.00134305 -1.07331e-07 0)
(0.00134601 2.80587e-06 0)
(0.00133908 5.56674e-06 0)
(0.00132274 8.1631e-06 0)
(0.00129753 1.0586e-05 0)
(0.00126399 1.28299e-05 0)
(0.00122273 1.48917e-05 0)
(0.00117435 1.67704e-05 0)
(0.00111945 1.84667e-05 0)
(0.00105867 1.9982e-05 0)
(0.000992638 2.13175e-05 0)
(0.000921996 2.24731e-05 0)
(0.000847407 2.34459e-05 0)
(0.00076956 2.42282e-05 0)
(0.000689189 2.48061e-05 0)
(0.000607092 2.5157e-05 0)
(0.000524166 2.5246e-05 0)
(0.000441435 2.50222e-05 0)
(0.000360103 2.44136e-05 0)
(0.000281604 2.33204e-05 0)
(0.000207667 2.16077e-05 0)
(0.000140388 1.90971e-05 0)
(8.22881e-05 1.55711e-05 0)
(3.62542e-05 1.08257e-05 0)
(5.17195e-06 4.8552e-06 0)
(-8.41928e-06 -1.56418e-06 0)
(-5.27509e-06 -5.27153e-06 0)
(5.60213e-06 -1.22029e-05 0)
(2.01313e-05 -2.0111e-05 0)
(3.42192e-05 -1.6124e-05 0)
(3.72838e-05 -5.6032e-06 0)
(2.40861e-05 7.91475e-06 0)
(-7.38607e-06 2.22567e-05 0)
(-5.7434e-05 3.61616e-05 0)
(-0.000125265 4.89156e-05 0)
(-0.000209416 6.02702e-05 0)
(-0.000308071 7.00883e-05 0)
(-0.000419342 7.83964e-05 0)
(-0.000541382 8.53097e-05 0)
(-0.000672469 9.09856e-05 0)
(-0.000811075 9.55993e-05 0)
(-0.000955878 9.93306e-05 0)
(-0.00110578 0.000102352 0)
(-0.00125988 0.000104824 0)
(-0.00141749 0.000106887 0)
(-0.00157808 0.000108663 0)
(-0.00174128 0.000110254 0)
(-0.00190684 0.000111741 0)
(-0.00207459 0.000113189 0)
(-0.00224448 0.000114646 0)
(-0.00241648 0.000116143 0)
(-0.00259061 0.000117701 0)
(-0.00276693 0.00011933 0)
(-0.00294548 0.000121031 0)
(-0.00312632 0.000122796 0)
(-0.0033095 0.000124614 0)
(-0.00349504 0.000126469 0)
(-0.00368294 0.00012834 0)
(-0.00387318 0.000130205 0)
(-0.0040657 0.000132036 0)
(-0.00426041 0.000133807 0)
(-0.00445717 0.000135485 0)
(-0.00465579 0.00013704 0)
(-0.00485606 0.000138436 0)
(-0.0050577 0.000139635 0)
(-0.00526039 0.000140598 0)
(-0.00546373 0.000141282 0)
(-0.00566729 0.000141642 0)
(-0.00587055 0.000141629 0)
(-0.00607294 0.000141195 0)
(-0.00627381 0.000140286 0)
(-0.00647245 0.000138848 0)
(-0.00666805 0.000136825 0)
(-0.00685976 0.000134161 0)
(-0.00704663 0.0001308 0)
(-0.00722764 0.000126684 0)
(-0.00740169 0.00012176 0)
(-0.00756764 0.000115976 0)
(-0.00772424 0.000109285 0)
(-0.00787024 0.000101645 0)
(-0.00800428 9.30174e-05 0)
(-0.008125 8.33749e-05 0)
(-0.00823101 7.26972e-05 0)
(-0.0083209 6.09746e-05 0)
(-0.00839324 4.82085e-05 0)
(-0.00844665 3.44131e-05 0)
(-0.00847977 1.96155e-05 0)
(-0.0084913 3.85841e-06 0)
(-0.00848001 -1.28009e-05 0)
(-0.00844474 -3.02886e-05 0)
(-0.00838449 -4.85156e-05 0)
(-0.00829838 -6.7376e-05 0)
(-0.00818567 -8.67479e-05 0)
(-0.00804582 -0.000106494 0)
(-0.00787848 -0.000126462 0)
(-0.00768352 -0.000146487 0)
(-0.00746103 -0.000166393 0)
(-0.00721134 -0.000185992 0)
(-0.00693506 -0.00020509 0)
(-0.00663303 -0.00022349 0)
(-0.00630637 -0.000240991 0)
(-0.00595646 -0.000257394 0)
(-0.00558494 -0.000272506 0)
(-0.0051937 -0.000286141 0)
(-0.00478487 -0.000298124 0)
(-0.00436077 -0.000308298 0)
(-0.00392396 -0.000316521 0)
(-0.00347713 -0.000322674 0)
(-0.00302315 -0.000326663 0)
(-0.00256497 -0.000328417 0)
(-0.00210563 -0.000327897 0)
(-0.00164819 -0.000325091 0)
(-0.00119573 -0.000320016 0)
(-0.000751274 -0.000312721 0)
(-0.000317785 -0.000303284 0)
(0.000101901 -0.00029181 0)
(0.000505094 -0.000278429 0)
(0.000889284 -0.000263296 0)
(0.00125217 -0.000246588 0)
(0.0015917 -0.000228497 0)
(0.00190607 -0.000209226 0)
(0.00219374 -0.000188991 0)
(0.00245346 -0.000168012 0)
(0.00268429 -0.000146509 0)
(0.00288554 -0.0001247 0)
(0.00305686 -0.000102796 0)
(0.00319811 -8.09982e-05 0)
(0.00330948 -5.94933e-05 0)
(0.00339136 -3.84535e-05 0)
(0.00344439 -1.8033e-05 0)
(0.00346941 1.63307e-06 0)
(0.00346743 2.04293e-05 0)
(0.00343963 3.82594e-05 0)
(0.00338732 5.50467e-05 0)
(0.0033119 7.07312e-05 0)
(0.0032149 8.52688e-05 0)
(0.00309787 9.86265e-05 0)
(0.00296246 0.00011078 0)
(0.00281035 0.000121708 0)
(0.00264329 0.000131388 0)
(0.00246305 0.000139788 0)
(0.00227152 0.000146859 0)
(0.00207066 0.000152527 0)
(0.00186257 0.000156682 0)
(0.00164954 0.000159166 0)
(0.00143412 0.000159763 0)
(0.00121916 0.000158179 0)
(0.00100794 0.000154035 0)
(0.00080422 0.00014685 0)
(0.000612333 0.000136043 0)
(0.000437233 0.000120951 0)
(0.000284447 0.00010093 0)
(0.000159747 7.56394e-05 0)
(6.83464e-05 4.56865e-05 0)
(1.41836e-05 1.41992e-05 0)
(-1.59304e-06 -8.4383e-06 0)
(5.4558e-06 -2.40886e-05 0)
(1.64342e-05 -3.42558e-05 0)
(2.02928e-05 -2.02097e-05 0)
(5.84225e-06 7.82227e-06 0)
(-3.2855e-05 4.29021e-05 0)
(-9.83235e-05 8.03284e-05 0)
(-0.000191007 0.000117117 0)
(-0.000309934 0.000151477 0)
(-0.000453208 0.000182477 0)
(-0.000618416 0.000209707 0)
(-0.000802949 0.000233126 0)
(-0.0010042 0.000252932 0)
(-0.0012197 0.000269461 0)
(-0.00144721 0.000283122 0)
(-0.00168476 0.000294353 0)
(-0.00193068 0.000303589 0)
(-0.0021836 0.000311238 0)
(-0.00244239 0.000317672 0)
(-0.00270622 0.000323214 0)
(-0.00297442 0.000328138 0)
(-0.00324655 0.000332671 0)
(-0.0035223 0.000336991 0)
(-0.00380148 0.000341232 0)
(-0.00408398 0.000345489 0)
(-0.00436977 0.000349826 0)
(-0.00465886 0.000354272 0)
(-0.00495125 0.000358838 0)
(-0.00524698 0.000363511 0)
(-0.00554605 0.000368261 0)
(-0.00584844 0.000373048 0)
(-0.00615412 0.000377818 0)
(-0.00646299 0.000382509 0)
(-0.00677492 0.000387052 0)
(-0.00708972 0.000391369 0)
(-0.00740713 0.000395377 0)
(-0.00772684 0.000398986 0)
(-0.00804847 0.000402099 0)
(-0.00837155 0.000404612 0)
(-0.00869555 0.000406415 0)
(-0.00901983 0.000407391 0)
(-0.00934367 0.000407414 0)
(-0.00966626 0.000406353 0)
(-0.00998668 0.000404071 0)
(-0.0103039 0.000400423 0)
(-0.0106168 0.000395261 0)
(-0.0109241 0.000388436 0)
(-0.0112245 0.000379794 0)
(-0.0115165 0.000369183 0)
(-0.0117986 0.000356456 0)
(-0.0120689 0.000341468 0)
(-0.0123258 0.000324085 0)
(-0.0125675 0.000304185 0)
(-0.0127918 0.00028166 0)
(-0.0129968 0.000256418 0)
(-0.0131805 0.000228392 0)
(-0.0133407 0.000197539 0)
(-0.0134753 0.000163844 0)
(-0.0135823 0.000127322 0)
(-0.0136594 8.80259e-05 0)
(-0.0137048 4.60416e-05 0)
(-0.0137164 1.4963e-06 0)
(-0.0136926 -4.54372e-05 0)
(-0.0136316 -9.45518e-05 0)
(-0.013532 -0.000145594 0)
(-0.0133926 -0.000198268 0)
(-0.0132122 -0.000252236 0)
(-0.0129902 -0.000307119 0)
(-0.0127261 -0.000362504 0)
(-0.0124199 -0.000417941 0)
(-0.0120716 -0.000472953 0)
(-0.0116819 -0.000527039 0)
(-0.0112517 -0.000579681 0)
(-0.0107824 -0.000630349 0)
(-0.0102757 -0.000678511 0)
(-0.00973361 -0.00072364 0)
(-0.0091587 -0.000765223 0)
(-0.00855377 -0.000802771 0)
(-0.00792201 -0.000835823 0)
(-0.00726691 -0.000863961 0)
(-0.00659225 -0.000886814 0)
(-0.00590205 -0.000904066 0)
(-0.00520057 -0.000915464 0)
(-0.00449219 -0.000920823 0)
(-0.00378142 -0.00092003 0)
(-0.00307284 -0.000913049 0)
(-0.00237102 -0.00089992 0)
(-0.0016805 -0.000880762 0)
(-0.00100569 -0.000855769 0)
(-0.000350863 -0.000825209 0)
(0.000279909 -0.000789417 0)
(0.000882819 -0.000748791 0)
(0.00145435 -0.000703786 0)
(0.00199133 -0.000654899 0)
(0.00249094 -0.000602668 0)
(0.00295075 -0.000547655 0)
(0.00336875 -0.00049044 0)
(0.00374335 -0.000431609 0)
(0.00407339 -0.000371744 0)
(0.0043581 -0.000311412 0)
(0.00459716 -0.000251159 0)
(0.00479063 -0.000191498 0)
(0.00493895 -0.000132905 0)
(0.00504289 -7.58131e-05 0)
(0.00510357 -2.06074e-05 0)
(0.00512238 3.23753e-05 0)
(0.00510096 8.28465e-05 0)
(0.00504117 0.000130567 0)
(0.00494508 0.000175342 0)
(0.00481491 0.000217013 0)
(0.004653 0.000255454 0)
(0.00446183 0.000290559 0)
(0.00424398 0.000322229 0)
(0.00400214 0.000350361 0)
(0.00373912 0.000374828 0)
(0.00345784 0.000395461 0)
(0.00316142 0.000412028 0)
(0.00285319 0.000424207 0)
(0.00253675 0.000431565 0)
(0.00221607 0.000433529 0)
(0.00189555 0.000429365 0)
(0.00158013 0.000418158 0)
(0.00127534 0.000398816 0)
(0.000987394 0.000370106 0)
(0.000723124 0.000330773 0)
(0.000489897 0.000279823 0)
(0.000295091 0.000217147 0)
(0.000145119 0.000144641 0)
(4.58707e-05 6.8395e-05 0)
(4.84819e-06 5.13402e-06 0)
(3.66783e-06 -3.20001e-05 0)
(5.64803e-06 -3.71334e-05 0)
(-9.12655e-06 -5.51847e-06 0)
(-5.02435e-05 4.77409e-05 0)
(-0.000123151 0.000112248 0)
(-0.00023026 0.000180693 0)
(-0.000371825 0.000248184 0)
(-0.000546581 0.000311656 0)
(-0.000752253 0.000369375 0)
(-0.000985968 0.000420525 0)
(-0.00124459 0.000464936 0)
(-0.00152497 0.000502866 0)
(-0.00182406 0.000534839 0)
(-0.00213911 0.000561539 0)
(-0.00246762 0.000583714 0)
(-0.00280749 0.000602121 0)
(-0.00315692 0.000617486 0)
(-0.00351444 0.000630473 0)
(-0.00387892 0.000641671 0)
(-0.00424944 0.000651583 0)
(-0.00462535 0.000660625 0)
(-0.00500618 0.000669132 0)
(-0.00539159 0.000677358 0)
(-0.00578138 0.000685486 0)
(-0.00617542 0.000693639 0)
(-0.00657363 0.000701883 0)
(-0.00697596 0.000710241 0)
(-0.00738238 0.000718697 0)
(-0.00779282 0.000727202 0)
(-0.00820721 0.000735683 0)
(-0.00862542 0.000744046 0)
(-0.0090473 0.000752177 0)
(-0.0094726 0.000759948 0)
(-0.00990104 0.000767218 0)
(-0.0103322 0.000773829 0)
(-0.0107658 0.000779615 0)
(-0.0112011 0.000784394 0)
(-0.0116375 0.000787971 0)
(-0.0120743 0.000790139 0)
(-0.0125106 0.000790678 0)
(-0.0129455 0.000789353 0)
(-0.0133779 0.000785918 0)
(-0.0138065 0.000780116 0)
(-0.01423 0.000771678 0)
(-0.0146468 0.00076033 0)
(-0.0150554 0.000745792 0)
(-0.015454 0.000727783 0)
(-0.0158406 0.000706023 0)
(-0.0162132 0.000680241 0)
(-0.0165695 0.000650177 0)
(-0.0169073 0.000615588 0)
(-0.0172241 0.000576256 0)
(-0.0175175 0.000531989 0)
(-0.0177848 0.000482634 0)
(-0.0180233 0.000428077 0)
(-0.0182304 0.000368252 0)
(-0.0184033 0.000303148 0)
(-0.0185394 0.00023281 0)
(-0.0186361 0.000157352 0)
(-0.0186909 7.69537e-05 0)
(-0.0187013 -8.13304e-06 0)
(-0.0186651 -9.75774e-05 0)
(-0.0185802 -0.000190976 0)
(-0.0184449 -0.000287846 0)
(-0.0182576 -0.000387626 0)
(-0.0180171 -0.000489683 0)
(-0.0177225 -0.000593312 0)
(-0.0173733 -0.00069774 0)
(-0.0169694 -0.000802138 0)
(-0.0165112 -0.000905626 0)
(-0.0159995 -0.00100728 0)
(-0.0154355 -0.00110615 0)
(-0.0148208 -0.00120128 0)
(-0.0141579 -0.00129168 0)
(-0.0134492 -0.00137641 0)
(-0.0126981 -0.00145452 0)
(-0.011908 -0.00152512 0)
(-0.011083 -0.00158739 0)
(-0.0102275 -0.00164056 0)
(-0.00934629 -0.00168395 0)
(-0.00844442 -0.00171698 0)
(-0.00752724 -0.0017392 0)
(-0.00660031 -0.00175026 0)
(-0.0056693 -0.00174994 0)
(-0.00474 -0.00173817 0)
(-0.0038182 -0.001715 0)
(-0.00290966 -0.00168065 0)
(-0.00202001 -0.00163543 0)
(-0.00115471 -0.00157982 0)
(-0.00031898 -0.00151442 0)
(0.000482256 -0.00143993 0)
(0.00124443 -0.00135715 0)
(0.00196337 -0.00126698 0)
(0.00263536 -0.00117038 0)
(0.00325713 -0.00106838 0)
(0.00382595 -0.000962011 0)
(0.00433957 -0.000852356 0)
(0.0047963 -0.000740476 0)
(0.00519497 -0.000627418 0)
(0.00553492 -0.000514193 0)
(0.005816 -0.00040176 0)
(0.00603855 -0.000291018 0)
(0.00620336 -0.000182789 0)
(0.00631165 -7.78179e-05 0)
(0.00636502 2.32388e-05 0)
(0.0063654 0.000119809 0)
(0.00631506 0.000211404 0)
(0.00621653 0.000297613 0)
(0.00607257 0.000378092 0)
(0.00588615 0.000452555 0)
(0.00566044 0.00052075 0)
(0.00539875 0.000582441 0)
(0.00510459 0.000637384 0)
(0.00478164 0.000685295 0)
(0.00443376 0.000725818 0)
(0.00406505 0.000758492 0)
(0.00367991 0.000782707 0)
(0.00328307 0.00079767 0)
(0.00287967 0.000802367 0)
(0.00247538 0.000795535 0)
(0.00207643 0.000775653 0)
(0.00168969 0.000740969 0)
(0.0013227 0.000689596 0)
(0.000983621 0.00061973 0)
(0.000681084 0.000530109 0)
(0.00042371 0.000420868 0)
(0.000219194 0.000294927 0)
(7.64248e-05 0.000160329 0)
(1.09129e-05 3.63852e-05 0)
(1.14851e-06 -3.2843e-05 0)
(-9.13045e-06 -2.24806e-05 0)
(-4.82875e-05 3.55378e-05 0)
(-0.00012266 0.000121887 0)
(-0.000236398 0.00022305 0)
(-0.000391294 0.000329281 0)
(-0.000587068 0.000433865 0)
(-0.00082198 0.000532466 0)
(-0.00109332 0.000622533 0)
(-0.00139778 0.000702808 0)
(-0.00173179 0.000772961 0)
(-0.00209176 0.000833298 0)
(-0.00247423 0.000884542 0)
(-0.00287601 0.000927662 0)
(-0.00329422 0.000963746 0)
(-0.00372638 0.000993913 0)
(-0.00417038 0.00101924 0)
(-0.00462446 0.00104074 0)
(-0.0050872 0.00105929 0)
(-0.00555749 0.00107567 0)
(-0.00603448 0.00109052 0)
(-0.00651752 0.00110435 0)
(-0.00700614 0.00111757 0)
(-0.00750002 0.00113047 0)
(-0.00799891 0.00114324 0)
(-0.00850265 0.001156 0)
(-0.0090111 0.00116879 0)
(-0.00952413 0.00118159 0)
(-0.0100416 0.00119433 0)
(-0.0105634 0.00120691 0)
(-0.0110893 0.00121919 0)
(-0.011619 0.00123099 0)
(-0.0121522 0.00124212 0)
(-0.0126885 0.00125235 0)
(-0.0132274 0.00126145 0)
(-0.0137684 0.00126916 0)
(-0.0143107 0.00127518 0)
(-0.0148536 0.00127923 0)
(-0.0153961 0.00128096 0)
(-0.0159371 0.00128004 0)
(-0.0164756 0.0012761 0)
(-0.0170101 0.00126875 0)
(-0.0175391 0.00125759 0)
(-0.018061 0.0012422 0)
(-0.018574 0.00122215 0)
(-0.0190761 0.00119701 0)
(-0.0195651 0.00116633 0)
(-0.0200388 0.0011297 0)
(-0.0204945 0.00108668 0)
(-0.0209298 0.00103689 0)
(-0.0213418 0.000979947 0)
(-0.0217276 0.000915533 0)
(-0.0220843 0.00084336 0)
(-0.0224087 0.000763204 0)
(-0.0226977 0.000674906 0)
(-0.0229481 0.000578381 0)
(-0.0231566 0.000473633 0)
(-0.0233203 0.000360755 0)
(-0.023436 0.000239943 0)
(-0.0235007 0.000111499 0)
(-0.0235116 -2.41619e-05 0)
(-0.0234662 -0.000166513 0)
(-0.0233621 -0.000314903 0)
(-0.0231971 -0.000468567 0)
(-0.0229696 -0.000626622 0)
(-0.0226781 -0.000788074 0)
(-0.0223216 -0.00095182 0)
(-0.0218998 -0.00111666 0)
(-0.0214123 -0.00128131 0)
(-0.0208598 -0.00144442 0)
(-0.0202431 -0.00160455 0)
(-0.0195637 -0.00176024 0)
(-0.0188238 -0.00191002 0)
(-0.0180258 -0.0020524 0)
(-0.0171729 -0.0021859 0)
(-0.0162689 -0.00230909 0)
(-0.0153178 -0.00242062 0)
(-0.0143244 -0.0025192 0)
(-0.0132938 -0.00260367 0)
(-0.0122316 -0.00267299 0)
(-0.0111437 -0.00272627 0)
(-0.0100363 -0.00276278 0)
(-0.00891592 -0.002782 0)
(-0.00778915 -0.00278357 0)
(-0.00666279 -0.00276735 0)
(-0.00554366 -0.00273341 0)
(-0.00443851 -0.00268204 0)
(-0.00335403 -0.00261371 0)
(-0.00229668 -0.00252912 0)
(-0.0012727 -0.00242913 0)
(-0.00028798 -0.0023148 0)
(0.000651957 -0.00218733 0)
(0.00154204 -0.00204807 0)
(0.00237769 -0.00189847 0)
(0.00315487 -0.00174009 0)
(0.00387011 -0.00157451 0)
(0.00452053 -0.00140338 0)
(0.00510387 -0.00122834 0)
(0.00561846 -0.00105101 0)
(0.00606328 -0.000872952 0)
(0.00643788 -0.000695681 0)
(0.00674239 -0.000520612 0)
(0.0069775 -0.000349055 0)
(0.00714442 -0.000182206 0)
(0.00724481 -2.11364e-05 0)
(0.0072808 0.00013321 0)
(0.0072549 0.000280011 0)
(0.00716998 0.000418562 0)
(0.0070292 0.00054826 0)
(0.00683604 0.000668584 0)
(0.0065942 0.000779073 0)
(0.00630765 0.000879288 0)
(0.00598057 0.000968783 0)
(0.00561737 0.00104706 0)
(0.00522272 0.00111351 0)
(0.00480159 0.0011674 0)
(0.00435926 0.00120777 0)
(0.00390141 0.00123341 0)
(0.00343418 0.00124284 0)
(0.00296423 0.00123424 0)
(0.00249882 0.00120545 0)
(0.00204585 0.00115409 0)
(0.00161387 0.00107763 0)
(0.00121204 0.000973754 0)
(0.000850096 0.000840858 0)
(0.000537879 0.000679045 0)
(0.000284656 0.000491509 0)
(0.000102782 0.000286633 0)
(1.58355e-05 8.30235e-05 0)
(-1.69041e-06 -2.51528e-05 0)
(-2.60918e-05 1.33352e-05 0)
(-9.33862e-05 0.000107885 0)
(-0.000205671 0.000235801 0)
(-0.000365162 0.000380935 0)
(-0.00057264 0.000531418 0)
(-0.000826988 0.000678918 0)
(-0.00112579 0.000817949 0)
(-0.00146577 0.000945209 0)
(-0.00184319 0.00105903 0)
(-0.00225404 0.00115894 0)
(-0.00269435 0.00124531 0)
(-0.00316029 0.00131908 0)
(-0.00364834 0.00138151 0)
(-0.00415533 0.00143407 0)
(-0.00467846 0.00147825 0)
(-0.00521536 0.00151552 0)
(-0.00576404 0.00154725 0)
(-0.00632286 0.00157466 0)
(-0.00689051 0.00159881 0)
(-0.00746597 0.0016206 0)
(-0.00804844 0.00164074 0)
(-0.00863732 0.0016598 0)
(-0.00923216 0.0016782 0)
(-0.0098326 0.00169622 0)
(-0.0104384 0.00171401 0)
(-0.0110493 0.00173167 0)
(-0.011665 0.00174916 0)
(-0.0122855 0.00176641 0)
(-0.0129104 0.00178327 0)
(-0.0135394 0.00179956 0)
(-0.0141722 0.00181503 0)
(-0.0148085 0.00182941 0)
(-0.0154476 0.0018424 0)
(-0.016089 0.00185367 0)
(-0.016732 0.00186284 0)
(-0.0173758 0.00186952 0)
(-0.0180195 0.00187328 0)
(-0.018662 0.00187365 0)
(-0.019302 0.00187014 0)
(-0.0199382 0.00186224 0)
(-0.0205691 0.0018494 0)
(-0.0211929 0.00183104 0)
(-0.0218077 0.00180657 0)
(-0.0224114 0.00177539 0)
(-0.0230018 0.00173687 0)
(-0.0235763 0.00169042 0)
(-0.0241323 0.00163542 0)
(-0.024667 0.00157128 0)
(-0.0251774 0.00149746 0)
(-0.0256603 0.00141344 0)
(-0.0261123 0.00131877 0)
(-0.0265302 0.00121308 0)
(-0.0269102 0.00109605 0)
(-0.0272489 0.000967484 0)
(-0.0275427 0.000827287 0)
(-0.0277879 0.000675484 0)
(-0.0279811 0.00051223 0)
(-0.0281186 0.000337826 0)
(-0.0281973 0.000152721 0)
(-0.0282139 -4.24805e-05 0)
(-0.0281655 -0.000247015 0)
(-0.0280494 -0.000459947 0)
(-0.0278634 -0.000680184 0)
(-0.0276055 -0.000906474 0)
(-0.027274 -0.00113741 0)
(-0.026868 -0.00137143 0)
(-0.0263868 -0.00160687 0)
(-0.0258303 -0.00184191 0)
(-0.0251991 -0.00207465 0)
(-0.0244941 -0.00230311 0)
(-0.023717 -0.00252525 0)
(-0.02287 -0.00273901 0)
(-0.0219561 -0.00294231 0)
(-0.0209788 -0.00313312 0)
(-0.019942 -0.00330944 0)
(-0.0188505 -0.00346938 0)
(-0.0177094 -0.00361115 0)
(-0.0165245 -0.00373314 0)
(-0.015302 -0.00383388 0)
(-0.0140483 -0.00391212 0)
(-0.0127706 -0.00396684 0)
(-0.0114759 -0.00399728 0)
(-0.0101719 -0.00400291 0)
(-0.00886602 -0.00398351 0)
(-0.00756605 -0.00393914 0)
(-0.00627963 -0.00387013 0)
(-0.00501433 -0.00377713 0)
(-0.00377754 -0.00366103 0)
(-0.00257641 -0.003523 0)
(-0.00141775 -0.00336446 0)
(-0.00030795 -0.00318706 0)
(0.000747052 -0.00299261 0)
(0.00174186 -0.00278311 0)
(0.00267164 -0.0025607 0)
(0.0035322 -0.00232758 0)
(0.00432001 -0.00208602 0)
(0.00503218 -0.00183833 0)
(0.00566655 -0.00158676 0)
(0.00622162 -0.00133355 0)
(0.00669658 -0.00108082 0)
(0.00709129 -0.000830602 0)
(0.00740623 -0.000584786 0)
(0.0076425 -0.000345107 0)
(0.00780177 -0.000113139 0)
(0.0078862 0.000109715 0)
(0.00789847 0.000322218 0)
(0.00784167 0.000523291 0)
(0.0077193 0.000711995 0)
(0.00753519 0.000887505 0)
(0.00729353 0.00104908 0)
(0.00699877 0.00119601 0)
(0.0066557 0.0013276 0)
(0.00626935 0.00144307 0)
(0.0058451 0.00154152 0)
(0.00538862 0.00162188 0)
(0.00490597 0.00168281 0)
(0.00440363 0.00172268 0)
(0.00388856 0.00173949 0)
(0.00336824 0.00173084 0)
(0.00285076 0.00169399 0)
(0.00234486 0.00162589 0)
(0.00185992 0.00152339 0)
(0.001406 0.00138355 0)
(0.000993888 0.00120428 0)
(0.000634753 0.000985187 0)
(0.000339627 0.000728898 0)
(0.000124326 0.000442711 0)
(1.96136e-05 0.000142411 0)
(-4.63204e-06 -8.19786e-06 0)
(-4.42083e-05 7.25874e-05 0)
(-0.000142042 0.000214864 0)
(-0.000295416 0.000393442 0)
(-0.00050422 0.000590072 0)
(-0.000767911 0.00079116 0)
(-0.00108428 0.000987042 0)
(-0.00145003 0.00117128 0)
(-0.00186123 0.00133996 0)
(-0.00231357 0.00149109 0)
(-0.00280264 0.00162412 0)
(-0.00332407 0.00173954 0)
(-0.00387373 0.00183852 0)
(-0.00444778 0.00192267 0)
(-0.00504281 0.00199383 0)
(-0.00565578 0.00205391 0)
(-0.00628411 0.00210478 0)
(-0.00692561 0.00214819 0)
(-0.00757846 0.00218571 0)
(-0.00824121 0.00221873 0)
(-0.00891266 0.00224839 0)
(-0.0095919 0.00227564 0)
(-0.0102782 0.00230122 0)
(-0.010971 0.00232568 0)
(-0.0116698 0.00234939 0)
(-0.0123743 0.00237259 0)
(-0.0130841 0.00239538 0)
(-0.013799 0.00241775 0)
(-0.0145186 0.0024396 0)
(-0.0152427 0.00246076 0)
(-0.0159709 0.00248098 0)
(-0.0167027 0.00249997 0)
(-0.0174377 0.00251738 0)
(-0.0181753 0.00253281 0)
(-0.0189148 0.00254582 0)
(-0.0196555 0.00255593 0)
(-0.0203964 0.00256262 0)
(-0.0211366 0.00256531 0)
(-0.0218748 0.0025634 0)
(-0.0226096 0.00255624 0)
(-0.0233396 0.00254313 0)
(-0.024063 0.00252334 0)
(-0.024778 0.00249612 0)
(-0.0254824 0.00246067 0)
(-0.0261738 0.00241619 0)
(-0.0268499 0.00236186 0)
(-0.0275077 0.00229687 0)
(-0.0281445 0.00222043 0)
(-0.028757 0.00213175 0)
(-0.0293418 0.00203012 0)
(-0.0298955 0.00191487 0)
(-0.0304145 0.00178541 0)
(-0.0308948 0.00164126 0)
(-0.0313326 0.00148202 0)
(-0.031724 0.00130745 0)
(-0.032065 0.00111745 0)
(-0.0323514 0.000912062 0)
(-0.0325796 0.000691522 0)
(-0.0327454 0.000456248 0)
(-0.0328454 0.000206856 0)
(-0.032876 -5.58317e-05 0)
(-0.0328339 -0.000330799 0)
(-0.0327163 -0.000616788 0)
(-0.0325204 -0.000912345 0)
(-0.0322442 -0.00121581 0)
(-0.0318858 -0.00152532 0)
(-0.031444 -0.00183883 0)
(-0.0309181 -0.00215412 0)
(-0.0303079 -0.00246883 0)
(-0.0296139 -0.00278046 0)
(-0.0288371 -0.00308641 0)
(-0.0279792 -0.00338402 0)
(-0.0270426 -0.00367058 0)
(-0.0260303 -0.00394339 0)
(-0.0249461 -0.00419977 0)
(-0.0237942 -0.00443712 0)
(-0.0225797 -0.00465296 0)
(-0.0213082 -0.00484494 0)
(-0.0199858 -0.00501093 0)
(-0.0186191 -0.00514899 0)
(-0.0172154 -0.00525746 0)
(-0.0157822 -0.00533498 0)
(-0.0143274 -0.00538049 0)
(-0.0128592 -0.00539328 0)
(-0.0113859 -0.00537298 0)
(-0.00991603 -0.00531963 0)
(-0.00845805 -0.0052336 0)
(-0.00702039 -0.00511564 0)
(-0.00561132 -0.00496688 0)
(-0.00423884 -0.00478877 0)
(-0.00291065 -0.00458312 0)
(-0.00163402 -0.004352 0)
(-0.000415747 -0.00409775 0)
(0.000737937 -0.00382295 0)
(0.00182141 -0.00353033 0)
(0.00282972 -0.00322278 0)
(0.00375861 -0.00290327 0)
(0.00460458 -0.0025748 0)
(0.00536485 -0.00224037 0)
(0.00603743 -0.00190292 0)
(0.00662107 -0.0015653 0)
(0.00711528 -0.00123022 0)
(0.00752028 -0.000900246 0)
(0.00783698 -0.000577729 0)
(0.00806694 -0.000264835 0)
(0.00821233 3.64898e-05 0)
(0.00827589 0.000324511 0)
(0.00826087 0.000597694 0)
(0.00817099 0.000854689 0)
(0.0080104 0.00109429 0)
(0.00778364 0.00131542 0)
(0.00749563 0.00151703 0)
(0.00715164 0.00169811 0)
(0.00675726 0.00185756 0)
(0.00631844 0.00199415 0)
(0.00584151 0.00210642 0)
(0.00533319 0.00219265 0)
(0.00480062 0.00225073 0)
(0.00425146 0.00227814 0)
(0.0036939 0.00227194 0)
(0.00313675 0.00222875 0)
(0.00258946 0.00214485 0)
(0.00206218 0.00201641 0)
(0.00156584 0.00183977 0)
(0.00111231 0.00161205 0)
(0.000714123 0.00133192 0)
(0.000384145 0.00100065 0)
(0.000141349 0.000623394 0)
(2.24355e-05 0.000211888 0)
(-7.5908e-06 1.83953e-05 0)
(-6.2907e-05 0.000156626 0)
(-0.000192763 0.000358676 0)
(-0.000389342 0.000597567 0)
(-0.00064996 0.000853489 0)
(-0.00097253 0.00111155 0)
(-0.00135354 0.00136108 0)
(-0.00178864 0.00159495 0)
(-0.00227311 0.00180881 0)
(-0.00280204 0.0020005 0)
(-0.0033705 0.00216949 0)
(-0.00397375 0.00231644 0)
(-0.00460733 0.00244283 0)
(-0.00526716 0.00255063 0)
(-0.00594958 0.0026421 0)
(-0.00665137 0.00271959 0)
(-0.00736978 0.00278538 0)
(-0.00810245 0.00284163 0)
(-0.00884742 0.00289029 0)
(-0.00960311 0.00293304 0)
(-0.0103682 0.00297131 0)
(-0.0111417 0.00300629 0)
(-0.0119227 0.0030389 0)
(-0.0127105 0.00306982 0)
(-0.0135047 0.00309953 0)
(-0.0143048 0.00312835 0)
(-0.0151103 0.00315641 0)
(-0.015921 0.00318371 0)
(-0.0167364 0.00321016 0)
(-0.0175562 0.00323554 0)
(-0.01838 0.00325956 0)
(-0.0192073 0.00328187 0)
(-0.0200376 0.00330203 0)
(-0.0208702 0.00331957 0)
(-0.0217044 0.00333392 0)
(-0.0225394 0.00334451 0)
(-0.0233744 0.00335065 0)
(-0.024208 0.00335164 0)
(-0.0250391 0.00334671 0)
(-0.0258663 0.00333502 0)
(-0.0266879 0.0033157 0)
(-0.0275021 0.00328782 0)
(-0.0283068 0.00325041 0)
(-0.0290997 0.00320246 0)
(-0.0298785 0.00314295 0)
(-0.0306403 0.00307084 0)
(-0.0313821 0.0029851 0)
(-0.0321008 0.0028847 0)
(-0.0327929 0.00276868 0)
(-0.0334549 0.00263613 0)
(-0.0340828 0.00248619 0)
(-0.0346727 0.00231814 0)
(-0.0352204 0.00213136 0)
(-0.0357218 0.00192539 0)
(-0.0361724 0.00169992 0)
(-0.0365678 0.00145483 0)
(-0.0369038 0.00119021 0)
(-0.037176 0.000906365 0)
(-0.0373802 0.000603842 0)
(-0.0375123 0.000283438 0)
(-0.0375685 -5.37969e-05 0)
(-0.0375452 -0.000406574 0)
(-0.0374391 -0.000773289 0)
(-0.0372472 -0.0011521 0)
(-0.0369672 -0.00154092 0)
(-0.036597 -0.00193739 0)
(-0.036135 -0.00233895 0)
(-0.0355804 -0.00274281 0)
(-0.0349328 -0.003146 0)
(-0.0341925 -0.00354538 0)
(-0.0333606 -0.0039377 0)
(-0.0324385 -0.00431963 0)
(-0.0314288 -0.00468776 0)
(-0.0303345 -0.00503871 0)
(-0.0291593 -0.00536911 0)
(-0.0279079 -0.00567569 0)
(-0.0265854 -0.00595533 0)
(-0.0251977 -0.00620506 0)
(-0.0237512 -0.00642217 0)
(-0.0222531 -0.0066042 0)
(-0.020711 -0.00674902 0)
(-0.019133 -0.00685485 0)
(-0.0175275 -0.00692032 0)
(-0.0159034 -0.00694445 0)
(-0.0142697 -0.00692671 0)
(-0.0126358 -0.00686703 0)
(-0.0110108 -0.00676582 0)
(-0.00940404 -0.00662391 0)
(-0.00782466 -0.00644263 0)
(-0.00628155 -0.00622372 0)
(-0.00478331 -0.00596933 0)
(-0.00333811 -0.005682 0)
(-0.00195365 -0.0053646 0)
(-0.00063703 -0.00502031 0)
(0.000605264 -0.00465251 0)
(0.00176746 -0.0042648 0)
(0.00284456 -0.0038609 0)
(0.00383232 -0.00344457 0)
(0.00472733 -0.00301962 0)
(0.00552702 -0.00258977 0)
(0.00622964 -0.00215867 0)
(0.00683429 -0.00172981 0)
(0.00734083 -0.00130647 0)
(0.00774994 -0.000891755 0)
(0.00806302 -0.00048848 0)
(0.00828217 -9.92252e-05 0)
(0.00841012 0.000273693 0)
(0.00845024 0.000628208 0)
(0.0084064 0.00096248 0)
(0.00828302 0.00127486 0)
(0.00808495 0.00156384 0)
(0.00781749 0.00182802 0)
(0.00748634 0.00206598 0)
(0.00709759 0.00227626 0)
(0.0066577 0.00245727 0)
(0.00617357 0.00260714 0)
(0.0056525 0.00272371 0)
(0.00510224 0.00280441 0)
(0.00453106 0.00284621 0)
(0.0039478 0.00284555 0)
(0.00336188 0.00279844 0)
(0.00278345 0.00270046 0)
(0.0022234 0.00254698 0)
(0.00169353 0.00233348 0)
(0.00120679 0.002056 0)
(0.000777117 0.00171183 0)
(0.0004191 0.00130031 0)
(0.000154436 0.000823717 0)
(2.45019e-05 0.000289126 0)
(-1.0542e-05 5.47901e-05 0)
(-8.18878e-05 0.000266245 0)
(-0.000244636 0.000540719 0)
(-0.000485776 0.000850037 0)
(-0.000799904 0.00117332 0)
(-0.00118323 0.00149481 0)
(-0.00163077 0.00180319 0)
(-0.00213701 0.0020909 0)
(-0.00269632 0.0023534 0)
(-0.00330307 0.00258851 0)
(-0.00395182 0.00279587 0)
(-0.0046374 0.00297641 0)
(-0.00535503 0.00313197 0)
(-0.00610036 0.00326495 0)
(-0.00686954 0.00337807 0)
(-0.00765919 0.00347414 0)
(-0.00846638 0.00355587 0)
(-0.00928866 0.00362586 0)
(-0.0101239 0.0036864 0)
(-0.0109705 0.00373953 0)
(-0.011827 0.00378697 0)
(-0.0126923 0.00383012 0)
(-0.0135655 0.00387011 0)
(-0.0144458 0.00390776 0)
(-0.0153326 0.00394368 0)
(-0.0162254 0.00397824 0)
(-0.0171237 0.00401162 0)
(-0.0180272 0.00404387 0)
(-0.0189354 0.00407486 0)
(-0.019848 0.00410436 0)
(-0.0207645 0.00413206 0)
(-0.0216844 0.00415752 0)
(-0.0226072 0.00418026 0)
(-0.0235322 0.00419968 0)
(-0.0244588 0.00421514 0)
(-0.0253861 0.00422591 0)