/*--------------------------------*- C++ -*----------------------------------*\
| =========                 |                                                 |
| \\      /  F ield         | OpenFOAM: The Open Source CFD Toolbox           |
|  \\    /   O peration     | Version:  2112                                  |
|   \\  /    A nd           | Website:  www.openfoam.com                      |
|    \\/     M anipulation  |                                                 |
\*---------------------------------------------------------------------------*/
FoamFile
{
    version     2.0;
    format      ascii;
    arch        "LSB;label=32;scalar=64";
    class       volScalarField;
    location    "2";
    object      p;
}
// * * * * * * * * * * * * * * * * * * * * * * * * * * * * * * * * * * * * * //

dimensions      [0 2 -2 0 0 0 0];

internalField   nonuniform List<scalar> 
25600
(
-5.4512e-14
-8.32217e-14
-6.35312e-14
-4.63926e-14
-3.59884e-14
-2.81399e-14
-2.26308e-14
-1.91252e-14
-1.67342e-14
-1.48611e-14
-1.35835e-14
-1.25738e-14
-1.22885e-14
-1.10885e-14
-9.51874e-15
-1.0038e-14
-1.01397e-14
-9.54426e-15
-8.88769e-15
-8.7668e-15
-8.95057e-15
-8.50893e-15
-7.61237e-15
-7.08275e-15
-6.63361e-15
-7.81944e-15
-1.04241e-14
-1.1453e-14
-1.27691e-14
-1.58822e-14
-2.05824e-14
-2.47431e-14
-2.68676e-14
-2.98745e-14
-3.37015e-14
-3.81414e-14
-4.28662e-14
-4.59706e-14
-4.99165e-14
-5.51483e-14
-5.84741e-14
-6.27201e-14
-6.65777e-14
-6.95013e-14
-7.40087e-14
-7.72937e-14
-8.03851e-14
-8.39697e-14
-8.7518e-14
-9.12231e-14
-9.52247e-14
-1.00922e-13
-1.04668e-13
-1.08491e-13
-1.13588e-13
-1.16005e-13
-1.21296e-13
-1.2559e-13
-1.30125e-13
-1.35044e-13
-1.37842e-13
-1.44606e-13
-1.4799e-13
-1.52288e-13
-1.57732e-13
-1.59897e-13
-1.64528e-13
-1.67667e-13
-1.70902e-13
-1.75044e-13
-1.77114e-13
-1.79732e-13
-1.82415e-13
-1.85925e-13
-1.90636e-13
-1.91266e-13
-1.9498e-13
-2.00717e-13
-2.0333e-13
-2.08148e-13
-2.09984e-13
-2.12472e-13
-2.19708e-13
-2.25334e-13
-2.29085e-13
-2.31043e-13
-2.3344e-13
-2.37917e-13
-2.43698e-13
-2.47939e-13
-2.47424e-13
-2.49253e-13
-2.55436e-13
-2.60539e-13
-2.61449e-13
-2.62622e-13
-2.67797e-13
-2.71145e-13
-2.75493e-13
-2.77983e-13
-2.78288e-13
-2.83541e-13
-2.86459e-13
-2.9158e-13
-2.96343e-13
-2.99342e-13
-3.01452e-13
-3.07454e-13
-3.13893e-13
-3.16889e-13
-3.19369e-13
-3.18675e-13
-3.28323e-13
-3.35163e-13
-3.34865e-13
-3.34814e-13
-3.35534e-13
-3.41963e-13
-3.47884e-13
-3.47298e-13
-3.45288e-13
-3.45695e-13
-3.51652e-13
-3.57341e-13
-3.5502e-13
-3.50854e-13
-3.50538e-13
-3.57344e-13
-3.62849e-13
-3.60962e-13
-3.59304e-13
-3.60107e-13
-3.65006e-13
-3.67874e-13
-3.65868e-13
-3.65938e-13
-3.66361e-13
-3.70707e-13
-3.75195e-13
-3.74524e-13
-3.74679e-13
-3.75433e-13
-3.79927e-13
-3.82097e-13
-3.81075e-13
-3.81879e-13
-3.81119e-13
-3.84265e-13
-3.86122e-13
-3.87188e-13
-3.89233e-13
-3.85916e-13
-3.87341e-13
-3.92379e-13
-3.93786e-13
-3.93444e-13
-3.89508e-13
-3.88528e-13
-3.91559e-13
-3.91462e-13
-3.90654e-13
-3.84665e-13
-3.85945e-13
-3.88883e-13
-3.83634e-13
-3.85596e-13
-3.8373e-13
-3.82699e-13
-3.85259e-13
-3.82241e-13
-3.79468e-13
-3.74187e-13
-3.74465e-13
-3.73049e-13
-3.66559e-13
-3.62538e-13
-3.58494e-13
-3.60147e-13
-3.52923e-13
-3.47922e-13
-3.46328e-13
-3.36136e-13
-3.3613e-13
-3.34187e-13
-3.28329e-13
-3.27383e-13
-3.17254e-13
-3.15112e-13
-3.13891e-13
-3.04434e-13
-3.03604e-13
-2.98086e-13
-2.92982e-13
-2.93429e-13
-2.8483e-13
-2.79689e-13
-2.74055e-13
-2.72884e-13
-2.74399e-13
-2.64732e-13
-2.62755e-13
-2.58598e-13
-2.58726e-13
-2.59369e-13
-2.49071e-13
-2.43719e-13
-2.42569e-13
-2.4516e-13
-2.43028e-13
-2.34997e-13
-2.29911e-13
-2.29142e-13
-2.35742e-13
-2.25218e-13
-2.15487e-13
-2.24448e-13
-2.16881e-13
-2.09641e-13
-2.07055e-13
-2.04198e-13
-2.12024e-13
-2.02039e-13
-1.91515e-13
-1.88587e-13
-1.84906e-13
-1.93691e-13
-1.83861e-13
-1.76529e-13
-1.76546e-13
-1.70432e-13
-1.73506e-13
-1.63641e-13
-1.58016e-13
-1.55736e-13
-1.45624e-13
-1.48726e-13
-1.4476e-13
-1.40751e-13
-1.35902e-13
-1.24241e-13
-1.27728e-13
-1.20679e-13
-1.18583e-13
-1.16036e-13
-1.02238e-13
-1.07046e-13
-1.07483e-13
-1.04537e-13
-9.69524e-14
-8.70781e-14
-9.42266e-14
-8.71962e-14
-8.10927e-14
-8.11374e-14
-7.82287e-14
-8.71277e-14
-7.76901e-14
-7.30376e-14
-7.2796e-14
-6.34212e-14
-6.90238e-14
-6.51832e-14
-6.08699e-14
-5.92487e-14
-5.42086e-14
-6.00436e-14
-5.36769e-14
-4.7375e-14
-4.37643e-14
-3.78309e-14
-4.29904e-14
-3.86742e-14
-3.43594e-14
-3.06564e-14
-2.51824e-14
-2.99279e-14
-2.56142e-14
-2.06873e-14
-2.06848e-14
-1.37843e-14
-1.70255e-14
-1.59314e-14
-1.25622e-14
-1.2309e-14
-7.66808e-15
-1.22564e-14
-1.26858e-14
-6.63801e-15
-1.99357e-15
-1.79062e-15
-8.96917e-15
-5.48217e-15
-7.74934e-16
1.24159e-15
1.03512e-15
-3.28254e-15
2.20933e-15
5.82439e-15
9.49467e-15
8.47816e-15
2.93786e-15
7.9452e-15
1.24054e-14
2.01705e-14
2.12898e-14
1.53733e-14
1.5432e-14
1.33261e-14
1.75784e-14
1.29009e-14
8.46921e-15
8.6422e-15
-4.59653e-16
-6.88974e-16
-4.31588e-15
-1.58004e-14
-2.25812e-14
-3.82943e-14
-5.35302e-14
-7.41988e-14
-7.11444e-14
-7.58655e-14
-5.89164e-14
-4.44284e-14
-3.47882e-14
-2.75712e-14
-2.20166e-14
-1.85169e-14
-1.63456e-14
-1.44896e-14
-1.34218e-14
-1.26091e-14
-1.19939e-14
-1.07734e-14
-9.60062e-15
-9.77001e-15
-9.91988e-15
-9.44563e-15
-9.09171e-15
-8.68325e-15
-8.57617e-15
-8.36964e-15
-7.6661e-15
-7.37899e-15
-6.99438e-15
-7.72389e-15
-9.86172e-15
-1.15928e-14
-1.32918e-14
-1.61463e-14
-2.04871e-14
-2.43149e-14
-2.69083e-14
-3.0001e-14
-3.36413e-14
-3.8133e-14
-4.26562e-14
-4.63323e-14
-5.02602e-14
-5.46917e-14
-5.86764e-14
-6.26946e-14
-6.66428e-14
-6.98142e-14
-7.33673e-14
-7.75894e-14
-8.04343e-14
-8.41395e-14
-8.76271e-14
-9.12268e-14
-9.61604e-14
-1.00497e-13
-1.04604e-13
-1.08477e-13
-1.13074e-13
-1.1684e-13
-1.21551e-13
-1.25861e-13
-1.30206e-13
-1.34407e-13
-1.38576e-13
-1.44444e-13
-1.47871e-13
-1.52279e-13
-1.57255e-13
-1.60125e-13
-1.64618e-13
-1.67781e-13
-1.70352e-13
-1.74703e-13
-1.77239e-13
-1.79809e-13
-1.8254e-13
-1.8613e-13
-1.90077e-13
-1.91631e-13
-1.95828e-13
-2.00192e-13
-2.0336e-13
-2.07717e-13
-2.10556e-13
-2.13642e-13
-2.19413e-13
-2.24933e-13
-2.28135e-13
-2.30864e-13
-2.34808e-13
-2.38531e-13
-2.42306e-13
-2.46587e-13
-2.47701e-13
-2.50833e-13
-2.55465e-13
-2.58964e-13
-2.61413e-13
-2.64041e-13
-2.67892e-13
-2.70902e-13
-2.74084e-13
-2.77598e-13
-2.80315e-13
-2.83521e-13
-2.86493e-13
-2.90645e-13
-2.95915e-13
-3.00009e-13
-3.01946e-13
-3.06631e-13
-3.13229e-13
-3.17242e-13
-3.19067e-13
-3.20556e-13
-3.27752e-13
-3.33296e-13
-3.35037e-13
-3.35748e-13
-3.36751e-13
-3.41056e-13
-3.47228e-13
-3.47702e-13
-3.45597e-13
-3.46922e-13
-3.51718e-13
-3.55873e-13
-3.54602e-13
-3.51598e-13
-3.51384e-13
-3.57107e-13
-3.61357e-13
-3.60757e-13
-3.60244e-13
-3.60879e-13
-3.64139e-13
-3.67185e-13
-3.66538e-13
-3.66194e-13
-3.66797e-13
-3.70717e-13
-3.74831e-13
-3.74798e-13
-3.74741e-13
-3.75719e-13
-3.79896e-13
-3.81849e-13
-3.81305e-13
-3.81478e-13
-3.82003e-13
-3.85001e-13
-3.86128e-13
-3.86244e-13
-3.87992e-13
-3.87615e-13
-3.88868e-13
-3.91795e-13
-3.92985e-13
-3.92516e-13
-3.9006e-13
-3.8928e-13
-3.91096e-13
-3.90982e-13
-3.89196e-13
-3.85849e-13
-3.86417e-13
-3.87789e-13
-3.84682e-13
-3.84241e-13
-3.84155e-13
-3.83954e-13
-3.83806e-13
-3.81574e-13
-3.78387e-13
-3.75402e-13
-3.74486e-13
-3.73351e-13
-3.67972e-13
-3.61461e-13
-3.58716e-13
-3.58167e-13
-3.53643e-13
-3.49811e-13
-3.44045e-13
-3.37274e-13
-3.36602e-13
-3.3434e-13
-3.29209e-13
-3.24738e-13
-3.18178e-13
-3.15134e-13
-3.12891e-13
-3.06973e-13
-3.02615e-13
-2.98102e-13
-2.93812e-13
-2.91055e-13
-2.85796e-13
-2.79974e-13
-2.75343e-13
-2.72197e-13
-2.7066e-13
-2.67121e-13
-2.63449e-13
-2.59908e-13
-2.58209e-13
-2.55698e-13
-2.5097e-13
-2.46363e-13
-2.43435e-13
-2.42728e-13
-2.40157e-13
-2.36542e-13
-2.32996e-13
-2.30285e-13
-2.31778e-13
-2.25022e-13
-2.18981e-13
-2.20597e-13
-2.15155e-13
-2.12488e-13
-2.0932e-13
-2.05276e-13
-2.07734e-13
-2.00161e-13
-1.9436e-13
-1.90641e-13
-1.86125e-13
-1.89652e-13
-1.82983e-13
-1.77715e-13
-1.76241e-13
-1.72206e-13
-1.72008e-13
-1.63828e-13
-1.58228e-13
-1.5487e-13
-1.47388e-13
-1.46893e-13
-1.43663e-13
-1.41715e-13
-1.36214e-13
-1.25781e-13
-1.25589e-13
-1.20341e-13
-1.18891e-13
-1.15267e-13
-1.04947e-13
-1.07455e-13
-1.0562e-13
-1.02796e-13
-9.71374e-14
-8.94662e-14
-9.33055e-14
-8.697e-14
-8.1226e-14
-8.04639e-14
-8.07251e-14
-8.6161e-14
-7.71366e-14
-7.28488e-14
-7.18217e-14
-6.57733e-14
-6.79332e-14
-6.42201e-14
-6.1223e-14
-5.89494e-14
-5.60424e-14
-5.88165e-14
-5.19107e-14
-4.8083e-14
-4.50152e-14
-3.90348e-14
-4.16463e-14
-3.79028e-14
-3.48139e-14
-3.10086e-14
-2.58113e-14
-2.94062e-14
-2.50741e-14
-2.22858e-14
-1.96427e-14
-1.35402e-14
-1.67903e-14
-1.44073e-14
-1.34746e-14
-1.29409e-14
-8.5658e-15
-1.26904e-14
-1.05016e-14
-5.62983e-15
-3.60663e-15
-3.09038e-15
-7.79495e-15
-4.10734e-15
-1.24127e-15
-1.3771e-15
1.13058e-15
-7.61447e-16
1.42441e-15
6.56262e-15
6.89899e-15
8.36414e-15
5.90406e-15
7.65614e-15
1.34708e-14
1.84701e-14
1.95727e-14
1.52814e-14
1.60805e-14
1.59643e-14
1.67281e-14
1.29987e-14
8.23721e-15
7.83322e-15
2.24636e-15
-1.7538e-15
-5.17784e-15
-1.32585e-14
-2.19639e-14
-3.59528e-14
-4.97591e-14
-6.81437e-14
-6.31849e-14
-6.57245e-14
-5.40288e-14
-4.19454e-14
-3.352e-14
-2.64456e-14
-2.12031e-14
-1.78454e-14
-1.59419e-14
-1.41383e-14
-1.31044e-14
-1.25391e-14
-1.18795e-14
-1.06619e-14
-9.31771e-15
-9.42921e-15
-9.79849e-15
-9.25805e-15
-9.22885e-15
-8.66785e-15
-8.13899e-15
-8.13072e-15
-7.7808e-15
-7.46462e-15
-7.28905e-15
-7.90197e-15
-9.40747e-15
-1.144e-14
-1.36043e-14
-1.65638e-14
-2.06161e-14
-2.38384e-14
-2.65482e-14
-2.99181e-14
-3.38217e-14
-3.8042e-14
-4.28659e-14
-4.65733e-14
-5.04309e-14
-5.4262e-14
-5.86173e-14
-6.2734e-14
-6.6634e-14
-6.99017e-14
-7.35386e-14
-7.76326e-14
-8.03258e-14
-8.40875e-14
-8.76901e-14
-9.15651e-14
-9.67822e-14
-1.00419e-13
-1.0453e-13
-1.08354e-13
-1.12889e-13
-1.17159e-13
-1.21736e-13
-1.26091e-13
-1.30579e-13
-1.3451e-13
-1.38698e-13
-1.4442e-13
-1.47947e-13
-1.52281e-13
-1.57031e-13
-1.60124e-13
-1.64664e-13
-1.6773e-13
-1.70297e-13
-1.74495e-13
-1.77025e-13
-1.79949e-13
-1.82725e-13
-1.86183e-13
-1.89643e-13
-1.92219e-13
-1.96521e-13
-1.99906e-13
-2.03044e-13
-2.07615e-13
-2.1056e-13
-2.14417e-13
-2.19471e-13
-2.24647e-13
-2.27791e-13
-2.3042e-13
-2.34938e-13
-2.39174e-13
-2.41815e-13
-2.45665e-13
-2.47952e-13
-2.51735e-13
-2.55163e-13
-2.58307e-13
-2.61255e-13
-2.64328e-13
-2.68356e-13
-2.70635e-13
-2.73337e-13
-2.77547e-13
-2.81256e-13
-2.83409e-13
-2.8657e-13
-2.9028e-13
-2.95542e-13
-3.00305e-13
-3.02221e-13
-3.06453e-13
-3.12687e-13
-3.17437e-13
-3.18665e-13
-3.21979e-13
-3.27399e-13
-3.32077e-13
-3.34781e-13
-3.36447e-13
-3.37693e-13
-3.40995e-13
-3.46525e-13
-3.47995e-13
-3.46298e-13
-3.47961e-13
-3.51867e-13
-3.54593e-13
-3.53765e-13
-3.51854e-13
-3.52712e-13
-3.57177e-13
-3.60146e-13
-3.60342e-13
-3.60667e-13
-3.62091e-13
-3.63697e-13
-3.66407e-13
-3.66703e-13
-3.66582e-13
-3.67366e-13
-3.70912e-13
-3.74253e-13
-3.74625e-13
-3.74854e-13
-3.76236e-13
-3.80111e-13
-3.81628e-13
-3.81299e-13
-3.8178e-13
-3.82534e-13
-3.8486e-13
-3.86273e-13
-3.85806e-13
-3.87325e-13
-3.88636e-13
-3.90137e-13
-3.9168e-13
-3.92861e-13
-3.91557e-13
-3.90296e-13
-3.89753e-13
-3.9078e-13
-3.90552e-13
-3.88351e-13
-3.86495e-13
-3.86948e-13
-3.87091e-13
-3.84887e-13
-3.83669e-13
-3.83866e-13
-3.84857e-13
-3.8304e-13
-3.80923e-13
-3.78431e-13
-3.75635e-13
-3.74607e-13
-3.73656e-13
-3.67987e-13
-3.62196e-13
-3.59151e-13
-3.5626e-13
-3.53766e-13
-3.50496e-13
-3.43462e-13
-3.38248e-13
-3.36868e-13
-3.34166e-13
-3.2938e-13
-3.23319e-13
-3.18672e-13
-3.15518e-13
-3.12427e-13
-3.07933e-13
-3.02394e-13
-2.98072e-13
-2.93969e-13
-2.90167e-13
-2.86276e-13
-2.80173e-13
-2.755e-13
-2.71567e-13
-2.69166e-13
-2.68307e-13
-2.63854e-13
-2.60375e-13
-2.57822e-13
-2.54117e-13
-2.51624e-13
-2.47961e-13
-2.44064e-13
-2.4158e-13
-2.38747e-13
-2.37025e-13
-2.34186e-13
-2.30692e-13
-2.29639e-13
-2.24992e-13
-2.20719e-13
-2.18654e-13
-2.14327e-13
-2.1392e-13
-2.1062e-13
-2.06026e-13
-2.05003e-13
-1.98907e-13
-1.95934e-13
-1.91989e-13
-1.86812e-13
-1.86931e-13
-1.82282e-13
-1.78404e-13
-1.7657e-13
-1.73004e-13
-1.71119e-13
-1.63934e-13
-1.57959e-13
-1.54366e-13
-1.48547e-13
-1.46371e-13
-1.42978e-13
-1.4175e-13
-1.35712e-13
-1.26798e-13
-1.25138e-13
-1.20149e-13
-1.18485e-13
-1.14585e-13
-1.07074e-13
-1.07802e-13
-1.04113e-13
-1.0137e-13
-9.7618e-14
-9.09358e-14
-9.16528e-14
-8.66435e-14
-8.19855e-14
-8.11842e-14
-8.23195e-14
-8.42722e-14
-7.6927e-14
-7.32421e-14
-7.16023e-14
-6.71358e-14
-6.61055e-14
-6.33566e-14
-6.22712e-14
-5.94435e-14
-5.69689e-14
-5.7353e-14
-5.06545e-14
-4.84171e-14
-4.56082e-14
-4.00592e-14
-4.13717e-14
-3.76079e-14
-3.42414e-14
-3.13713e-14
-2.66827e-14
-2.91649e-14
-2.47538e-14
-2.28407e-14
-1.90108e-14
-1.36368e-14
-1.68581e-14
-1.31502e-14
-1.31783e-14
-1.38397e-14
-9.66553e-15
-1.25027e-14
-9.28124e-15
-4.81745e-15
-4.86354e-15
-3.67333e-15
-6.75321e-15
-3.91598e-15
-2.73001e-15
-2.2145e-15
1.99526e-15
2.26694e-17
1.3174e-15
6.28276e-15
5.85276e-15
8.17537e-15
7.79836e-15
8.38496e-15
1.39652e-14
1.68102e-14
1.80219e-14
1.54721e-14
1.71295e-14
1.76966e-14
1.61276e-14
1.33642e-14
7.76389e-15
7.84118e-15
4.22034e-15
-2.29181e-15
-4.90758e-15
-1.1739e-14
-2.13024e-14
-3.31876e-14
-4.54113e-14
-5.91596e-14
-5.05284e-14
-5.61222e-14
-4.861e-14
-3.87489e-14
-3.15656e-14
-2.51295e-14
-2.03601e-14
-1.74136e-14
-1.56014e-14
-1.38514e-14
-1.23087e-14
-1.26116e-14
-1.17523e-14
-1.04004e-14
-9.21655e-15
-8.78806e-15
-9.55214e-15
-8.93851e-15
-9.33136e-15
-8.87445e-15
-7.89107e-15
-8.02717e-15
-7.68146e-15
-7.16968e-15
-7.24667e-15
-8.24273e-15
-9.14737e-15
-1.09933e-14
-1.36581e-14
-1.6936e-14
-2.07566e-14
-2.36559e-14
-2.64242e-14
-2.9458e-14
-3.36515e-14
-3.82869e-14
-4.33386e-14
-4.61109e-14
-5.06061e-14
-5.43084e-14
-5.86164e-14
-6.27019e-14
-6.69405e-14
-7.00665e-14
-7.34378e-14
-7.74527e-14
-8.04927e-14
-8.40196e-14
-8.76279e-14
-9.14471e-14
-9.69344e-14
-1.00846e-13
-1.04251e-13
-1.08438e-13
-1.13044e-13
-1.17336e-13
-1.22185e-13
-1.26254e-13
-1.3141e-13
-1.34834e-13
-1.38398e-13
-1.44068e-13
-1.48162e-13
-1.52614e-13
-1.56853e-13
-1.59807e-13
-1.64418e-13
-1.67971e-13
-1.69991e-13
-1.74438e-13
-1.77234e-13
-1.80375e-13
-1.82983e-13
-1.85948e-13
-1.88964e-13
-1.92654e-13
-1.96582e-13
-2.0014e-13
-2.02999e-13
-2.0742e-13
-2.11134e-13
-2.14672e-13
-2.18952e-13
-2.24956e-13
-2.27935e-13
-2.30156e-13
-2.33841e-13
-2.38694e-13
-2.4248e-13
-2.46063e-13
-2.48125e-13
-2.51468e-13
-2.55062e-13
-2.57878e-13
-2.61049e-13
-2.64333e-13
-2.6819e-13
-2.70493e-13
-2.73688e-13
-2.77947e-13
-2.81379e-13
-2.83299e-13
-2.86601e-13
-2.90059e-13
-2.94869e-13
-3.00119e-13
-3.03016e-13
-3.0734e-13
-3.12193e-13
-3.1666e-13
-3.18816e-13
-3.22868e-13
-3.27336e-13
-3.3198e-13
-3.34522e-13
-3.36183e-13
-3.39046e-13
-3.41725e-13
-3.45613e-13
-3.47163e-13
-3.47222e-13
-3.49482e-13
-3.51344e-13
-3.53766e-13
-3.5376e-13
-3.51574e-13
-3.53666e-13
-3.57656e-13
-3.58975e-13
-3.59923e-13
-3.61498e-13
-3.62905e-13
-3.63326e-13
-3.65279e-13
-3.66354e-13
-3.67255e-13
-3.68512e-13
-3.71136e-13
-3.7286e-13
-3.74278e-13
-3.75852e-13
-3.77823e-13
-3.79612e-13
-3.81199e-13
-3.81652e-13
-3.81767e-13
-3.83089e-13
-3.84173e-13
-3.85903e-13
-3.8588e-13
-3.87666e-13
-3.89187e-13
-3.89747e-13
-3.91621e-13
-3.93417e-13
-3.91371e-13
-3.90997e-13
-3.89812e-13
-3.90109e-13
-3.89939e-13
-3.88148e-13
-3.87388e-13
-3.87721e-13
-3.85946e-13
-3.84073e-13
-3.83466e-13
-3.83537e-13
-3.85116e-13
-3.83372e-13
-3.80797e-13
-3.78737e-13
-3.75214e-13
-3.75559e-13
-3.73321e-13
-3.66784e-13
-3.63655e-13
-3.59745e-13
-3.5604e-13
-3.53269e-13
-3.50095e-13
-3.44091e-13
-3.38545e-13
-3.36421e-13
-3.33493e-13
-3.29468e-13
-3.23266e-13
-3.18693e-13
-3.16163e-13
-3.12492e-13
-3.07412e-13
-3.02597e-13
-2.9777e-13
-2.94234e-13
-2.89966e-13
-2.8603e-13
-2.80567e-13
-2.75157e-13
-2.71086e-13
-2.69604e-13
-2.68028e-13
-2.6422e-13
-2.60424e-13
-2.57615e-13
-2.54127e-13
-2.51844e-13
-2.47982e-13
-2.44208e-13
-2.41681e-13
-2.38641e-13
-2.36306e-13
-2.33423e-13
-2.3113e-13
-2.2885e-13
-2.25257e-13
-2.21349e-13
-2.1872e-13
-2.14655e-13
-2.13051e-13
-2.10278e-13
-2.06989e-13
-2.0447e-13
-1.98979e-13
-1.959e-13
-1.92209e-13
-1.87285e-13
-1.85593e-13
-1.82004e-13
-1.79689e-13
-1.76973e-13
-1.71652e-13
-1.70079e-13
-1.64043e-13
-1.57745e-13
-1.54771e-13
-1.49751e-13
-1.46495e-13
-1.41909e-13
-1.39748e-13
-1.3624e-13
-1.27821e-13
-1.23502e-13
-1.20514e-13
-1.1936e-13
-1.14247e-13
-1.08027e-13
-1.06751e-13
-1.03523e-13
-1.01473e-13
-9.78188e-14
-9.11543e-14
-9.04467e-14
-8.66294e-14
-8.21896e-14
-8.18409e-14
-8.36489e-14
-8.22534e-14
-7.74336e-14
-7.3772e-14
-7.18011e-14
-6.82133e-14
-6.42389e-14
-6.35598e-14
-6.26915e-14
-5.90932e-14
-5.67717e-14
-5.60922e-14
-5.13201e-14
-4.78424e-14
-4.50514e-14
-4.17232e-14
-4.11505e-14
-3.79839e-14
-3.34384e-14
-3.06829e-14
-2.89146e-14
-2.82235e-14
-2.45933e-14
-2.26432e-14
-1.84494e-14
-1.55666e-14
-1.52133e-14
-1.29318e-14
-1.24877e-14
-1.32285e-14
-1.19348e-14
-1.08719e-14
-8.65621e-15
-6.53462e-15
-5.42962e-15
-3.78392e-15
-4.34476e-15
-3.813e-15
-5.24781e-15
-3.10107e-15
2.01768e-15
1.50716e-15
1.92033e-15
4.35725e-15
5.7099e-15
8.35797e-15
9.24278e-15
8.28811e-15
1.35525e-14
1.70418e-14
1.73791e-14
1.75557e-14
1.7011e-14
1.66017e-14
1.6214e-14
1.34081e-14
8.62393e-15
8.72354e-15
4.94672e-15
-1.52695e-15
-5.08278e-15
-1.14036e-14
-1.98073e-14
-2.94355e-14
-4.03746e-14
-4.98413e-14
-4.26353e-14
-4.82428e-14
-4.36172e-14
-3.52086e-14
-2.97411e-14
-2.3681e-14
-1.95326e-14
-1.63984e-14
-1.51411e-14
-1.30193e-14
-1.14438e-14
-1.25529e-14
-1.15655e-14
-1.00673e-14
-8.84332e-15
-8.27395e-15
-9.27092e-15
-8.71577e-15
-9.57981e-15
-9.14089e-15
-8.12039e-15
-7.98267e-15
-6.94285e-15
-6.85977e-15
-7.67062e-15
-7.73205e-15
-9.18383e-15
-1.08113e-14
-1.35208e-14
-1.69003e-14
-2.05926e-14
-2.34038e-14
-2.62162e-14
-2.97814e-14
-3.33573e-14
-3.85496e-14
-4.33358e-14
-4.63372e-14
-5.066e-14
-5.45019e-14
-5.8774e-14
-6.34324e-14
-6.68555e-14
-6.98234e-14
-7.3105e-14
-7.7794e-14
-8.0709e-14
-8.37839e-14
-8.76564e-14
-9.1389e-14
-9.69901e-14
-1.01122e-13
-1.04482e-13
-1.09016e-13
-1.12861e-13
-1.17897e-13
-1.22478e-13
-1.26435e-13
-1.32239e-13
-1.35135e-13
-1.38481e-13
-1.43701e-13
-1.4799e-13
-1.52774e-13
-1.56981e-13
-1.60557e-13
-1.63541e-13
-1.67342e-13
-1.70038e-13
-1.74846e-13
-1.78115e-13
-1.809e-13
-1.82803e-13
-1.85763e-13
-1.88203e-13
-1.92385e-13
-1.96488e-13
-2.00991e-13
-2.02943e-13
-2.07014e-13
-2.11522e-13
-2.14629e-13
-2.18813e-13
-2.25077e-13
-2.28088e-13
-2.30261e-13
-2.33348e-13
-2.37789e-13
-2.43049e-13
-2.45922e-13
-2.48338e-13
-2.5126e-13
-2.54982e-13
-2.56852e-13
-2.60712e-13
-2.64819e-13
-2.68564e-13
-2.70301e-13
-2.74336e-13
-2.78233e-13
-2.80954e-13
-2.83155e-13
-2.86319e-13
-2.90312e-13
-2.94612e-13
-2.99636e-13
-3.03747e-13
-3.08079e-13
-3.1166e-13
-3.16089e-13
-3.19126e-13
-3.23688e-13
-3.27775e-13
-3.31852e-13
-3.34799e-13
-3.36771e-13
-3.39965e-13
-3.42409e-13
-3.44422e-13
-3.46689e-13
-3.48226e-13
-3.49917e-13
-3.51406e-13
-3.52762e-13
-3.53728e-13
-3.52222e-13
-3.54026e-13
-3.57149e-13
-3.5801e-13
-3.60828e-13
-3.62174e-13
-3.62043e-13
-3.63354e-13
-3.64826e-13
-3.66077e-13
-3.67974e-13
-3.69654e-13
-3.71139e-13
-3.7191e-13
-3.73966e-13
-3.76476e-13
-3.79041e-13
-3.7926e-13
-3.80723e-13
-3.817e-13
-3.81647e-13
-3.83615e-13
-3.83546e-13
-3.85437e-13
-3.86435e-13
-3.88e-13
-3.8946e-13
-3.8961e-13
-3.9113e-13
-3.93391e-13
-3.92543e-13
-3.91597e-13
-3.90039e-13
-3.891e-13
-3.89168e-13
-3.88113e-13
-3.88524e-13
-3.87215e-13
-3.85491e-13
-3.84371e-13
-3.82935e-13
-3.83318e-13
-3.84656e-13
-3.84157e-13
-3.81061e-13
-3.78564e-13
-3.75437e-13
-3.76065e-13
-3.72034e-13
-3.66546e-13
-3.64455e-13
-3.59588e-13
-3.56427e-13
-3.53727e-13
-3.49443e-13
-3.44238e-13
-3.39313e-13
-3.35825e-13
-3.32855e-13
-3.29377e-13
-3.23856e-13
-3.1816e-13
-3.15463e-13
-3.12834e-13
-3.07148e-13
-3.02512e-13
-2.98338e-13
-2.94712e-13
-2.9005e-13
-2.85311e-13
-2.81146e-13
-2.74131e-13
-2.7062e-13
-2.70276e-13
-2.67879e-13
-2.64563e-13
-2.60548e-13
-2.57508e-13
-2.54268e-13
-2.51848e-13
-2.47895e-13
-2.44234e-13
-2.41499e-13
-2.38515e-13
-2.3632e-13
-2.32466e-13
-2.30763e-13
-2.28762e-13
-2.25699e-13
-2.21674e-13
-2.18941e-13
-2.15209e-13
-2.12035e-13
-2.10022e-13
-2.07646e-13
-2.04707e-13
-1.98551e-13
-1.95317e-13
-1.92815e-13
-1.88233e-13
-1.8489e-13
-1.81884e-13
-1.80319e-13
-1.76641e-13
-1.70963e-13
-1.69548e-13
-1.63993e-13
-1.58297e-13
-1.55343e-13
-1.50254e-13
-1.46335e-13
-1.40817e-13
-1.37976e-13
-1.36143e-13
-1.28795e-13
-1.23102e-13
-1.20696e-13
-1.19783e-13
-1.13531e-13
-1.0849e-13
-1.05708e-13
-1.03406e-13
-1.01644e-13
-9.67554e-14
-9.22788e-14
-8.9918e-14
-8.6304e-14
-8.25208e-14
-8.23726e-14
-8.36228e-14
-8.10619e-14
-7.78905e-14
-7.47377e-14
-7.13361e-14
-6.9127e-14
-6.49625e-14
-6.40648e-14
-6.14794e-14
-5.85485e-14
-5.6967e-14
-5.51942e-14
-5.18074e-14
-4.66297e-14
-4.46797e-14
-4.35192e-14
-4.03944e-14
-3.78994e-14
-3.28251e-14
-3.05918e-14
-3.12147e-14
-2.69352e-14
-2.46572e-14
-2.24409e-14
-1.79092e-14
-1.69532e-14
-1.39675e-14
-1.30495e-14
-1.2054e-14
-1.24385e-14
-1.3556e-14
-9.48449e-15
-8.6592e-15
-7.632e-15
-5.85995e-15
-4.67657e-15
-2.6492e-15
-4.26886e-15
-5.57803e-15
-3.26239e-15
3.47461e-16
3.04249e-15
2.31386e-15
2.82275e-15
6.007e-15
7.81931e-15
1.036e-14
8.0096e-15
1.34166e-14
1.77715e-14
1.67639e-14
1.92544e-14
1.72373e-14
1.62666e-14
1.61375e-14
1.34451e-14
1.0403e-14
8.38175e-15
5.03285e-15
5.50512e-16
-5.52566e-15
-1.11283e-14
-1.76714e-14
-2.59233e-14
-3.50428e-14
-4.17963e-14
-3.67758e-14
-4.16903e-14
-3.85831e-14
-3.14138e-14
-2.66532e-14
-2.18907e-14
-1.8371e-14
-1.54016e-14
-1.46804e-14
-1.24579e-14
-1.07424e-14
-1.23591e-14
-1.18366e-14
-9.90216e-15
-8.79684e-15
-8.10462e-15
-8.34172e-15
-8.66974e-15
-1.00083e-14
-8.38822e-15
-8.09567e-15
-8.07738e-15
-6.35074e-15
-6.48823e-15
-7.53271e-15
-7.62194e-15
-9.09614e-15
-1.06583e-14
-1.27958e-14
-1.67716e-14
-2.07216e-14
-2.28591e-14
-2.59563e-14
-3.03434e-14
-3.27224e-14
-3.8223e-14
-4.35629e-14
-4.70308e-14
-5.11719e-14
-5.44752e-14
-5.92507e-14
-6.37448e-14
-6.67018e-14
-6.93924e-14
-7.26834e-14
-7.84291e-14
-8.13743e-14
-8.35356e-14
-8.74639e-14
-9.13789e-14
-9.70885e-14
-1.01447e-13
-1.04974e-13
-1.09694e-13
-1.13415e-13
-1.18039e-13
-1.22449e-13
-1.26356e-13
-1.32316e-13
-1.35801e-13
-1.39514e-13
-1.43056e-13
-1.48049e-13
-1.52778e-13
-1.5701e-13
-1.61025e-13
-1.63789e-13
-1.66216e-13
-1.70156e-13
-1.75431e-13
-1.78288e-13
-1.81488e-13
-1.83292e-13
-1.85561e-13
-1.87814e-13
-1.9187e-13
-1.96522e-13
-2.00619e-13
-2.02325e-13
-2.0735e-13
-2.11675e-13
-2.14473e-13
-2.18937e-13
-2.25031e-13
-2.27702e-13
-2.30175e-13
-2.33491e-13
-2.38455e-13
-2.43408e-13
-2.45069e-13
-2.47923e-13
-2.51241e-13
-2.54987e-13
-2.56713e-13
-2.60327e-13
-2.64499e-13
-2.68504e-13
-2.71263e-13
-2.74543e-13
-2.78116e-13
-2.80985e-13
-2.82916e-13
-2.86241e-13
-2.9089e-13
-2.94808e-13
-2.99117e-13
-3.04003e-13
-3.07865e-13
-3.11812e-13
-3.16161e-13
-3.18929e-13
-3.23883e-13
-3.28425e-13
-3.31818e-13
-3.35561e-13
-3.3779e-13
-3.40493e-13
-3.41778e-13
-3.44142e-13
-3.4694e-13
-3.48942e-13
-3.503e-13
-3.51203e-13
-3.52718e-13
-3.52609e-13
-3.52542e-13
-3.55712e-13
-3.56761e-13
-3.5772e-13
-3.61055e-13
-3.62056e-13
-3.62202e-13
-3.63036e-13
-3.64053e-13
-3.66641e-13
-3.68096e-13
-3.70277e-13
-3.71589e-13
-3.72153e-13
-3.74387e-13
-3.76239e-13
-3.78571e-13
-3.79506e-13
-3.80634e-13
-3.82067e-13
-3.8229e-13
-3.82882e-13
-3.83451e-13
-3.85696e-13
-3.87003e-13
-3.87137e-13
-3.89343e-13
-3.91048e-13
-3.91719e-13
-3.92984e-13
-3.92973e-13
-3.91049e-13
-3.90073e-13
-3.89057e-13
-3.88325e-13
-3.88185e-13
-3.88713e-13
-3.86685e-13
-3.85549e-13
-3.85335e-13
-3.83343e-13
-3.82548e-13
-3.84337e-13
-3.83895e-13
-3.81543e-13
-3.79866e-13
-3.75728e-13
-3.74996e-13
-3.71888e-13
-3.66852e-13
-3.64551e-13
-3.59647e-13
-3.56167e-13
-3.53893e-13
-3.48885e-13
-3.44681e-13
-3.40187e-13
-3.35987e-13
-3.32759e-13
-3.28298e-13
-3.24302e-13
-3.1871e-13
-3.14521e-13
-3.11889e-13
-3.07479e-13
-3.02787e-13
-2.97435e-13
-2.94704e-13
-2.90518e-13
-2.85399e-13
-2.81065e-13
-2.74566e-13
-2.71493e-13
-2.7023e-13
-2.67821e-13
-2.64148e-13
-2.60042e-13
-2.57884e-13
-2.54868e-13
-2.51194e-13
-2.48044e-13
-2.44221e-13
-2.40699e-13
-2.3937e-13
-2.36728e-13
-2.32348e-13
-2.29763e-13
-2.27831e-13
-2.26288e-13
-2.22091e-13
-2.17896e-13
-2.15578e-13
-2.12739e-13
-2.09877e-13
-2.07915e-13
-2.04432e-13
-1.98264e-13
-1.94878e-13
-1.93241e-13
-1.89939e-13
-1.84454e-13
-1.81454e-13
-1.80273e-13
-1.77032e-13
-1.71405e-13
-1.68915e-13
-1.635e-13
-1.59586e-13
-1.55488e-13
-1.4976e-13
-1.45277e-13
-1.4078e-13
-1.38061e-13
-1.34958e-13
-1.29298e-13
-1.24068e-13
-1.20488e-13
-1.18297e-13
-1.13031e-13
-1.09686e-13
-1.05275e-13
-1.02709e-13
-1.01399e-13
-9.62048e-14
-9.16911e-14
-8.84069e-14
-8.64789e-14
-8.47017e-14
-8.36366e-14
-8.30568e-14
-8.0001e-14
-7.77586e-14
-7.50353e-14
-7.11427e-14
-6.97358e-14
-6.54345e-14
-6.3371e-14
-6.11108e-14
-5.87753e-14
-5.7585e-14
-5.41599e-14
-5.10131e-14
-4.64953e-14
-4.46176e-14
-4.358e-14
-4.09676e-14
-3.72977e-14
-3.27979e-14
-3.1358e-14
-3.11351e-14
-2.70857e-14
-2.44493e-14
-2.24091e-14
-1.78725e-14
-1.6758e-14
-1.38405e-14
-1.2728e-14
-1.15686e-14
-1.17342e-14
-1.35891e-14
-9.95456e-15
-8.71935e-15
-8.7629e-15
-6.07053e-15
-4.18115e-15
-3.69711e-15
-4.25218e-15
-5.04033e-15
-3.06055e-15
-7.19581e-16
1.68227e-15
2.87718e-15
3.12499e-15
5.94597e-15
7.58131e-15
9.53575e-15
9.98411e-15
1.3482e-14
1.69623e-14
1.70547e-14
1.88808e-14
1.81017e-14
1.67731e-14
1.60406e-14
1.4161e-14
1.09511e-14
8.77109e-15
5.73245e-15
9.32401e-16
-4.34592e-15
-1.03129e-14
-1.62005e-14
-2.27222e-14
-3.02124e-14
-3.47692e-14
-3.15718e-14
-3.48642e-14
-3.39022e-14
-2.83406e-14
-2.35405e-14
-1.94447e-14
-1.63532e-14
-1.43819e-14
-1.35247e-14
-1.19974e-14
-1.0945e-14
-1.19663e-14
-1.18972e-14
-1.00341e-14
-8.40697e-15
-7.05819e-15
-7.5351e-15
-9.20056e-15
-9.83487e-15
-8.22649e-15
-8.29558e-15
-8.21687e-15
-6.10059e-15
-6.89044e-15
-7.57933e-15
-6.79859e-15
-8.48296e-15
-1.03995e-14
-1.1863e-14
-1.56381e-14
-2.04285e-14
-2.28029e-14
-2.53006e-14
-3.03663e-14
-3.29051e-14
-3.76791e-14
-4.36245e-14
-4.78266e-14
-5.1538e-14
-5.42282e-14
-5.91919e-14
-6.39637e-14
-6.69267e-14
-6.95905e-14
-7.25347e-14
-7.8526e-14
-8.22264e-14
-8.3652e-14
-8.6987e-14
-9.17255e-14
-9.74685e-14
-1.01659e-13
-1.05342e-13
-1.09955e-13
-1.13802e-13
-1.1815e-13
-1.23051e-13
-1.26789e-13
-1.32306e-13
-1.36062e-13
-1.40332e-13
-1.42112e-13
-1.47494e-13
-1.53243e-13
-1.57547e-13
-1.6169e-13
-1.64735e-13
-1.65815e-13
-1.69638e-13
-1.75264e-13
-1.78332e-13
-1.8185e-13
-1.83439e-13
-1.85215e-13
-1.87915e-13
-1.92073e-13
-1.96273e-13
-2.00446e-13
-2.0252e-13
-2.07148e-13
-2.10993e-13
-2.14122e-13
-2.19754e-13
-2.24836e-13
-2.28039e-13
-2.30463e-13
-2.32891e-13
-2.39192e-13
-2.43928e-13
-2.4454e-13
-2.47746e-13
-2.50947e-13
-2.54821e-13
-2.56652e-13
-2.60031e-13
-2.6448e-13
-2.67749e-13
-2.71924e-13
-2.75403e-13
-2.78428e-13
-2.80659e-13
-2.82772e-13
-2.86225e-13
-2.91542e-13
-2.95294e-13
-2.9821e-13
-3.03984e-13
-3.07019e-13
-3.12772e-13
-3.17197e-13
-3.18145e-13
-3.24124e-13
-3.29041e-13
-3.31769e-13
-3.36223e-13
-3.38829e-13
-3.40974e-13
-3.41578e-13
-3.4364e-13
-3.45922e-13
-3.49828e-13
-3.50812e-13
-3.51653e-13
-3.52798e-13
-3.52385e-13
-3.53149e-13
-3.56965e-13
-3.57082e-13
-3.57204e-13
-3.60697e-13
-3.61984e-13
-3.62346e-13
-3.62611e-13
-3.63669e-13
-3.6678e-13
-3.68506e-13
-3.70803e-13
-3.71835e-13
-3.72553e-13
-3.75041e-13
-3.75805e-13
-3.7754e-13
-3.79491e-13
-3.81085e-13
-3.82558e-13
-3.82383e-13
-3.82184e-13
-3.83165e-13
-3.85551e-13
-3.88395e-13
-3.87439e-13
-3.89737e-13
-3.91807e-13
-3.92312e-13
-3.93078e-13
-3.92599e-13
-3.91583e-13
-3.89867e-13
-3.88733e-13
-3.87727e-13
-3.88695e-13
-3.88071e-13
-3.85974e-13
-3.85752e-13
-3.86223e-13
-3.83954e-13
-3.82814e-13
-3.84394e-13
-3.83464e-13
-3.81245e-13
-3.81572e-13
-3.76434e-13
-3.73948e-13
-3.71586e-13
-3.66353e-13
-3.65186e-13
-3.60493e-13
-3.56103e-13
-3.53076e-13
-3.48192e-13
-3.44889e-13
-3.40435e-13
-3.36697e-13
-3.32419e-13
-3.27801e-13
-3.25081e-13
-3.18217e-13
-3.12785e-13
-3.11286e-13
-3.07726e-13
-3.03717e-13
-2.96811e-13
-2.94151e-13
-2.90759e-13
-2.8531e-13
-2.81397e-13
-2.75495e-13
-2.71997e-13
-2.70092e-13
-2.66974e-13
-2.64152e-13
-2.59906e-13
-2.58589e-13
-2.55632e-13
-2.50147e-13
-2.48069e-13
-2.43231e-13
-2.40005e-13
-2.39163e-13
-2.37005e-13
-2.33589e-13
-2.29109e-13
-2.26301e-13
-2.2642e-13
-2.22254e-13
-2.17663e-13
-2.15973e-13
-2.12976e-13
-2.10047e-13
-2.06788e-13
-2.04891e-13
-1.98086e-13
-1.94567e-13
-1.94144e-13
-1.90891e-13
-1.84641e-13
-1.81633e-13
-1.80065e-13
-1.77547e-13
-1.72017e-13
-1.6883e-13
-1.62998e-13
-1.60183e-13
-1.553e-13
-1.48979e-13
-1.44866e-13
-1.4126e-13
-1.38109e-13
-1.33093e-13
-1.29688e-13
-1.2505e-13
-1.2005e-13
-1.1691e-13
-1.12392e-13
-1.10497e-13
-1.05575e-13
-1.02256e-13
-1.00481e-13
-9.59352e-14
-9.12351e-14
-8.74113e-14
-8.65119e-14
-8.66625e-14
-8.49608e-14
-8.24705e-14
-7.85179e-14
-7.78021e-14
-7.54602e-14
-7.09684e-14
-7.08256e-14
-6.63482e-14
-6.23692e-14
-6.03602e-14
-5.91581e-14
-5.8137e-14
-5.29677e-14
-5.03022e-14
-4.65181e-14
-4.47634e-14
-4.33482e-14
-4.08898e-14
-3.7284e-14
-3.37997e-14
-3.16597e-14
-3.13662e-14
-2.74546e-14
-2.4589e-14
-2.17911e-14
-1.7464e-14
-1.68647e-14
-1.36637e-14
-1.22541e-14
-1.15225e-14
-1.09279e-14
-1.30289e-14
-1.01892e-14
-9.3936e-15
-9.08404e-15
-5.7541e-15
-3.75985e-15
-4.38316e-15
-4.41858e-15
-4.42039e-15
-3.14466e-15
-1.4239e-15
-3.68784e-16
2.94506e-15
4.11999e-15
6.02642e-15
7.544e-15
8.15499e-15
1.16732e-14
1.38686e-14
1.6189e-14
1.76635e-14
1.82636e-14
1.87755e-14
1.7823e-14
1.55838e-14
1.52636e-14
1.08613e-14
9.00848e-15
6.28057e-15
1.38469e-15
-3.13007e-15
-9.81905e-15
-1.3872e-14
-1.93261e-14
-2.56665e-14
-3.02226e-14
-2.77253e-14
-2.90695e-14
-2.92747e-14
-2.53309e-14
-2.04582e-14
-1.68866e-14
-1.45933e-14
-1.27506e-14
-1.28466e-14
-1.13196e-14
-1.06218e-14
-1.16116e-14
-1.18817e-14
-9.82848e-15
-8.06574e-15
-5.9135e-15
-7.19665e-15
-9.5489e-15
-9.6662e-15
-7.67779e-15
-8.815e-15
-7.8501e-15
-5.50729e-15
-6.29813e-15
-6.62376e-15
-7.12206e-15
-7.04232e-15