/*--------------------------------*- C++ -*----------------------------------*\
| =========                 |                                                 |
| \\      /  F ield         | OpenFOAM: The Open Source CFD Toolbox           |
|  \\    /   O peration     | Version:  2112                                  |
|   \\  /    A nd           | Website:  www.openfoam.com                      |
|    \\/     M anipulation  |                                                 |
\*---------------------------------------------------------------------------*/
FoamFile
{
    version     2.0;
    format      ascii;
    arch        "LSB;label=32;scalar=64";
    class       volScalarField;
    location    "2";
    object      p;
}
// * * * * * * * * * * * * * * * * * * * * * * * * * * * * * * * * * * * * * //

dimensions      [0 2 -2 0 0 0 0];

internalField   nonuniform List<scalar> 
50000
(
-1.97593e-14
-2.91445e-14
-3.74404e-14
-4.36005e-14
-4.79583e-14
-5.13242e-14
-5.40397e-14
-5.63678e-14
-5.84638e-14
-6.02213e-14
-6.17459e-14
-6.31661e-14
-6.43927e-14
-6.55947e-14
-6.66933e-14
-6.76261e-14
-6.85566e-14
-6.94776e-14
-7.03726e-14
-7.12582e-14
-7.19874e-14
-7.26298e-14
-7.33011e-14
-7.38289e-14
-7.41042e-14
-7.45729e-14
-7.50928e-14
-7.55723e-14
-7.56903e-14
-7.59275e-14
-7.61129e-14
-7.60204e-14
-7.61086e-14
-7.62624e-14
-7.64462e-14
-7.65214e-14
-7.639e-14
-7.64514e-14
-7.66125e-14
-7.65967e-14
-7.68453e-14
-7.6843e-14
-7.69364e-14
-7.70407e-14
-7.70842e-14
-7.73324e-14
-7.74227e-14
-7.72883e-14
-7.75783e-14
-7.79791e-14
-7.80152e-14
-7.81231e-14
-7.83199e-14
-7.87753e-14
-7.91601e-14
-7.92341e-14
-7.95827e-14
-7.95851e-14
-7.95851e-14
-7.99609e-14
-8.01452e-14
-8.02459e-14
-8.04909e-14
-8.07659e-14
-8.08698e-14
-8.10024e-14
-8.09674e-14
-8.10724e-14
-8.13311e-14
-8.14268e-14
-8.17328e-14
-8.22525e-14
-8.27339e-14
-8.29055e-14
-8.32635e-14
-8.40717e-14
-8.42617e-14
-8.43542e-14
-8.49877e-14
-8.55442e-14
-8.5697e-14
-8.57259e-14
-8.60198e-14
-8.60436e-14
-8.60054e-14
-8.64599e-14
-8.66278e-14
-8.68406e-14
-8.71113e-14
-8.73213e-14
-8.76744e-14
-8.79459e-14
-8.79737e-14
-8.79647e-14
-8.78992e-14
-8.76008e-14
-8.78664e-14
-8.80095e-14
-8.74316e-14
-8.72351e-14
-8.75431e-14
-8.76145e-14
-8.73949e-14
-8.72968e-14
-8.73101e-14
-8.71333e-14
-8.70857e-14
-8.72108e-14
-8.7414e-14
-8.72833e-14
-8.65954e-14
-8.626e-14
-8.62653e-14
-8.64489e-14
-8.60115e-14
-8.53455e-14
-8.53196e-14
-8.57748e-14
-8.57106e-14
-8.5277e-14
-8.49497e-14
-8.48509e-14
-8.45231e-14
-8.39191e-14
-8.33581e-14
-8.33187e-14
-8.27753e-14
-8.21385e-14
-8.18359e-14
-8.13336e-14
-8.0735e-14
-8.01552e-14
-7.98816e-14
-7.88718e-14
-7.81471e-14
-7.79582e-14
-7.72972e-14
-7.65753e-14
-7.63515e-14
-7.56837e-14
-7.4539e-14
-7.40958e-14
-7.41881e-14
-7.38438e-14
-7.27696e-14
-7.23113e-14
-7.21534e-14
-7.10691e-14
-7.04003e-14
-7.05122e-14
-6.96362e-14
-6.91738e-14
-6.8867e-14
-6.74581e-14
-6.68699e-14
-6.64447e-14
-6.5333e-14
-6.50102e-14
-6.44967e-14
-6.41554e-14
-6.31979e-14
-6.21286e-14
-6.14421e-14
-6.07976e-14
-6.00508e-14
-5.92642e-14
-5.85694e-14
-5.72598e-14
-5.69796e-14
-5.61843e-14
-5.47449e-14
-5.44508e-14
-5.37902e-14
-5.2285e-14
-5.15647e-14
-5.11172e-14
-5.05281e-14
-4.93766e-14
-4.83825e-14
-4.79574e-14
-4.66624e-14
-4.55088e-14
-4.47471e-14
-4.38251e-14
-4.3234e-14
-4.18362e-14
-4.03663e-14
-3.9575e-14
-3.84919e-14
-3.73059e-14
-3.62383e-14
-3.53282e-14
-3.45187e-14
-3.4027e-14
-3.265e-14
-3.12007e-14
-3.01588e-14
-2.85092e-14
-2.67741e-14
-2.59252e-14
-2.52713e-14
-2.38518e-14
-2.35426e-14
-2.23608e-14
-2.13045e-14
-2.02803e-14
-1.83852e-14
-1.75367e-14
-1.71423e-14
-1.62172e-14
-1.53919e-14
-1.44555e-14
-1.33631e-14
-1.29276e-14
-1.15391e-14
-1.08344e-14
-1.0057e-14
-9.52316e-15
-9.41543e-15
-8.73661e-15
-7.4853e-15
-6.56827e-15
-6.20513e-15
-5.53423e-15
-5.37166e-15
-5.01551e-15
-4.71764e-15
-4.45646e-15
-4.03313e-15
-3.21498e-15
-2.56252e-15
-1.86493e-15
-1.70412e-15
-1.23016e-15
-3.21579e-16
-2.45898e-16
4.43123e-16
1.12901e-15
2.15769e-15
2.84074e-15
3.5417e-15
4.45409e-15
4.59082e-15
4.81265e-15
6.21668e-15
7.07561e-15
7.4189e-15
8.59016e-15
9.15787e-15
9.70314e-15
1.01998e-14
1.06423e-14
1.08542e-14
1.21374e-14
1.29839e-14
1.30563e-14
1.39375e-14
1.44071e-14
1.4222e-14
1.49467e-14
1.50667e-14
1.52861e-14
1.68156e-14
1.70525e-14
1.81177e-14
1.84312e-14
1.78845e-14
1.95511e-14
1.95339e-14
1.85217e-14
2.05693e-14
2.10119e-14
2.05425e-14
2.14738e-14
2.13967e-14
2.22971e-14
2.23355e-14
2.19479e-14
2.24985e-14
2.34193e-14
2.37532e-14
2.39531e-14
2.36697e-14
2.36588e-14
2.48404e-14
2.39476e-14
2.44679e-14
2.52356e-14
2.40541e-14
2.41707e-14
2.50475e-14
2.436e-14
2.40992e-14
2.40939e-14
2.27496e-14
2.35819e-14
2.48644e-14
2.37164e-14
2.3756e-14
2.38979e-14
2.25334e-14
2.31958e-14
2.28559e-14
2.1469e-14
2.28089e-14
2.29654e-14
2.17035e-14
2.24347e-14
2.20523e-14
2.05488e-14
2.08496e-14
2.13946e-14
2.00798e-14
1.98547e-14
2.01625e-14
1.93215e-14
1.94435e-14
1.91712e-14
1.85153e-14
1.79195e-14
1.79186e-14
1.85627e-14
1.88442e-14
1.816e-14
1.72004e-14
1.79388e-14
1.78982e-14
1.71021e-14
1.60482e-14
1.63365e-14
1.78609e-14
1.68476e-14
1.60085e-14
1.66958e-14
1.52592e-14
1.47262e-14
1.59575e-14
1.42242e-14
1.4332e-14
1.54982e-14
1.45073e-14
1.44894e-14
1.45846e-14
1.38456e-14
1.32099e-14
1.35717e-14
1.3932e-14
1.43226e-14
1.38977e-14
1.28172e-14
1.30836e-14
1.30982e-14
1.21916e-14
1.15838e-14
1.20404e-14
1.24808e-14
1.28313e-14
1.22964e-14
1.14027e-14
1.16696e-14
1.1073e-14
1.14697e-14
1.06292e-14
9.44611e-15
1.07048e-14
1.02355e-14
9.53071e-15
9.29207e-15
8.89876e-15
7.53489e-15
8.02913e-15
8.94334e-15
8.6058e-15
8.1661e-15
7.50169e-15
7.79446e-15
7.34867e-15
7.63068e-15
6.62542e-15
6.97558e-15
7.76508e-15
7.50586e-15
6.76529e-15
6.4489e-15
6.53277e-15
5.37329e-15
6.03574e-15
4.96026e-15
4.46357e-15
4.82619e-15
4.29206e-15
3.25471e-15
3.14174e-15
3.0785e-15
1.06109e-15
9.69756e-16
2.06833e-15
1.7393e-15
7.52741e-16
-3.31542e-16
-1.86222e-15
-3.01169e-15
-1.65374e-15
-2.40717e-15
-3.80476e-15
-5.68626e-15
-5.84535e-15
-4.29986e-15
-6.04805e-15
-7.95456e-15
-8.35544e-15
-6.94133e-15
-8.46057e-15
-9.26803e-15
-9.0625e-15
-9.70758e-15
-9.48226e-15
-1.07763e-14
-1.20155e-14
-1.16589e-14
-1.03242e-14
-1.15669e-14
-1.37013e-14
-1.23399e-14
-1.21411e-14
-1.30391e-14
-1.34797e-14
-1.34775e-14
-1.36536e-14
-1.28696e-14
-1.33963e-14
-1.52544e-14
-1.38109e-14
-1.28498e-14
-1.47715e-14
-1.6911e-14
-1.52653e-14
-1.54046e-14
-1.56492e-14
-1.57018e-14
-1.79089e-14
-1.6644e-14
-1.71942e-14
-1.818e-14
-1.96397e-14
-1.98281e-14
-1.96328e-14
-2.08715e-14
-2.1203e-14
-2.26818e-14
-2.27108e-14
-2.35034e-14
-2.37345e-14
-2.53001e-14
-2.57917e-14
-2.62345e-14
-2.78707e-14
-2.83953e-14
-2.86137e-14
-2.76291e-14
-3.03298e-14
-3.10615e-14
-3.14372e-14
-3.16733e-14
-3.07774e-14
-3.33661e-14
-3.47495e-14
-3.45288e-14
-3.4597e-14
-3.62647e-14
-3.67534e-14
-3.78469e-14
-3.86885e-14
-3.88355e-14
-4.05479e-14
-4.11297e-14
-4.16981e-14
-4.12418e-14
-4.27856e-14
-4.40935e-14
-4.44611e-14
-4.45459e-14
-4.51005e-14
-4.69814e-14
-4.62037e-14
-4.73367e-14
-4.78525e-14
-4.82437e-14
-4.94387e-14
-4.7908e-14
-4.74853e-14
-4.86581e-14
-4.87279e-14
-4.68747e-14
-4.66296e-14
-4.52664e-14
-4.35403e-14
-4.08801e-14
-3.50334e-14
-2.82093e-14
-2.59307e-14
-3.14683e-14
-3.86072e-14
-4.41315e-14
-4.82118e-14
-5.14652e-14
-5.41173e-14
-5.64108e-14
-5.8545e-14
-6.02742e-14
-6.17763e-14
-6.32078e-14
-6.44109e-14
-6.55995e-14
-6.67315e-14
-6.76586e-14
-6.85779e-14
-6.94928e-14
-7.03836e-14
-7.12327e-14
-7.19797e-14
-7.26322e-14
-7.33e-14
-7.3833e-14
-7.40827e-14
-7.4552e-14
-7.51063e-14
-7.55922e-14
-7.57267e-14
-7.59227e-14
-7.6104e-14
-7.60688e-14
-7.60977e-14
-7.61897e-14
-7.64936e-14
-7.65634e-14
-7.63592e-14
-7.6441e-14
-7.6644e-14
-7.66158e-14
-7.68273e-14
-7.69056e-14
-7.68986e-14
-7.69928e-14
-7.71406e-14
-7.73434e-14
-7.73887e-14
-7.72886e-14
-7.75858e-14
-7.79638e-14
-7.80183e-14
-7.8067e-14
-7.83658e-14
-7.88059e-14
-7.90794e-14
-7.92428e-14
-7.9594e-14
-7.9609e-14
-7.96112e-14
-7.99198e-14
-8.00921e-14
-8.02796e-14
-8.04949e-14
-8.07195e-14
-8.09618e-14
-8.09338e-14
-8.09489e-14
-8.10739e-14
-8.12808e-14
-8.14981e-14
-8.18044e-14
-8.22004e-14
-8.26205e-14
-8.29509e-14
-8.32989e-14
-8.3948e-14
-8.42644e-14
-8.4451e-14
-8.49771e-14
-8.55228e-14
-8.5736e-14
-8.57491e-14
-8.59531e-14
-8.60839e-14
-8.6147e-14
-8.63099e-14
-8.65297e-14
-8.69601e-14
-8.70884e-14
-8.73107e-14
-8.76971e-14
-8.78741e-14
-8.79865e-14
-8.79901e-14
-8.7931e-14
-8.77158e-14
-8.78153e-14
-8.7929e-14
-8.74699e-14
-8.72161e-14
-8.754e-14
-8.75778e-14
-8.74372e-14
-8.72781e-14
-8.7232e-14
-8.72987e-14
-8.71365e-14
-8.71054e-14
-8.74067e-14
-8.71876e-14
-8.66423e-14
-8.64654e-14
-8.62517e-14
-8.63385e-14
-8.59587e-14
-8.54186e-14
-8.54902e-14
-8.57948e-14
-8.56108e-14
-8.52469e-14
-8.4947e-14
-8.48739e-14
-8.44115e-14
-8.39223e-14
-8.35543e-14
-8.32243e-14
-8.26545e-14
-8.21995e-14
-8.18541e-14
-8.13577e-14
-8.08432e-14
-8.01069e-14
-7.96949e-14
-7.89966e-14
-7.82668e-14
-7.78858e-14
-7.71853e-14
-7.66701e-14
-7.63315e-14
-7.564e-14
-7.46789e-14
-7.41276e-14
-7.41771e-14
-7.37304e-14
-7.2714e-14
-7.23014e-14
-7.20346e-14
-7.11323e-14
-7.04804e-14
-7.03534e-14
-6.97403e-14
-6.92621e-14
-6.85933e-14
-6.75592e-14
-6.69559e-14
-6.63635e-14
-6.55232e-14
-6.50416e-14
-6.44005e-14
-6.40514e-14
-6.32129e-14
-6.21818e-14
-6.15029e-14
-6.07734e-14
-6.00673e-14
-5.92616e-14
-5.8527e-14
-5.75551e-14
-5.68462e-14
-5.60456e-14
-5.5023e-14
-5.42403e-14
-5.35722e-14
-5.25838e-14
-5.15476e-14
-5.10743e-14
-5.04954e-14
-4.92928e-14
-4.84317e-14
-4.79411e-14
-4.67647e-14
-4.55507e-14
-4.47426e-14
-4.38495e-14
-4.30193e-14
-4.18383e-14
-4.0529e-14
-3.94494e-14
-3.85037e-14
-3.73244e-14
-3.62908e-14
-3.54242e-14
-3.46686e-14
-3.39045e-14
-3.2408e-14
-3.12518e-14
-3.015e-14
-2.83311e-14
-2.70109e-14
-2.61662e-14
-2.51272e-14
-2.38801e-14
-2.34088e-14
-2.22075e-14
-2.13103e-14
-2.03817e-14
-1.84684e-14
-1.74606e-14
-1.70753e-14
-1.62908e-14
-1.53058e-14
-1.45527e-14
-1.35339e-14
-1.26803e-14
-1.15748e-14
-1.09454e-14
-9.98944e-15
-9.51746e-15
-9.384e-15
-8.51905e-15
-7.43957e-15
-6.78685e-15
-6.36175e-15
-5.64427e-15
-5.31722e-15
-4.95405e-15
-4.62906e-15
-4.31905e-15
-3.98347e-15
-3.11761e-15
-2.72988e-15
-2.20337e-15
-1.57701e-15
-1.21369e-15
-4.5812e-16
-7.2376e-17
5.01486e-16
1.3243e-15
1.97262e-15
2.83752e-15
3.49542e-15
4.24953e-15
4.79179e-15
4.99914e-15
6.08705e-15
7.06861e-15
7.56661e-15
8.41468e-15
9.10649e-15
9.50034e-15
1.02067e-14
1.0801e-14
1.1143e-14
1.20602e-14
1.28656e-14
1.32163e-14
1.37564e-14
1.41959e-14
1.43601e-14
1.49811e-14
1.51188e-14
1.54523e-14
1.64887e-14
1.716e-14
1.81384e-14
1.84669e-14
1.80101e-14
1.9167e-14
1.95687e-14
1.90622e-14
2.02368e-14
2.07714e-14
2.06545e-14
2.13699e-14
2.17459e-14
2.1906e-14
2.23616e-14
2.24369e-14
2.26452e-14
2.30813e-14
2.35875e-14
2.40301e-14
2.3692e-14
2.36435e-14
2.4751e-14
2.43103e-14
2.4264e-14
2.50755e-14
2.42207e-14
2.43579e-14
2.49172e-14
2.43583e-14
2.4013e-14
2.39564e-14
2.31804e-14
2.37912e-14
2.43064e-14
2.37101e-14
2.38255e-14
2.3681e-14
2.29502e-14
2.2866e-14
2.29219e-14
2.20471e-14
2.24728e-14
2.27743e-14
2.20711e-14
2.21845e-14
2.17819e-14
2.10197e-14
2.08469e-14
2.10155e-14
2.02366e-14
1.98495e-14
2.00222e-14
1.96572e-14
1.92914e-14
1.89435e-14
1.87146e-14
1.81704e-14
1.7957e-14
1.85548e-14
1.84982e-14
1.78695e-14
1.76252e-14
1.7931e-14
1.76969e-14
1.70879e-14
1.65057e-14
1.65131e-14
1.7346e-14
1.68791e-14
1.62087e-14
1.63163e-14
1.55681e-14
1.50122e-14
1.52838e-14
1.46964e-14
1.46117e-14
1.48427e-14
1.46136e-14
1.47228e-14
1.41299e-14
1.39919e-14
1.38685e-14
1.34683e-14
1.37855e-14
1.4121e-14
1.36119e-14
1.30082e-14
1.33223e-14
1.26359e-14
1.23194e-14
1.22365e-14
1.19463e-14
1.23232e-14
1.2539e-14
1.20555e-14
1.17428e-14
1.16815e-14
1.10223e-14
1.13705e-14
1.07096e-14
9.78478e-15
1.0367e-14
1.01996e-14
9.58499e-15
9.19794e-15
8.91634e-15
8.00195e-15
8.2587e-15
8.58783e-15
8.19644e-15
8.06957e-15
7.89119e-15
7.78889e-15
7.36433e-15
7.35777e-15
6.84608e-15
7.33814e-15
7.5964e-15
7.25061e-15
6.72647e-15
6.53855e-15
6.55578e-15
5.3292e-15
5.71404e-15
5.54576e-15
4.48432e-15
4.42336e-15
4.48825e-15
3.47448e-15
2.89153e-15
2.86143e-15
1.32772e-15
1.45181e-15
2.06986e-15
1.08838e-15
4.38971e-16
-1.43523e-16
-1.48631e-15
-2.61327e-15
-2.01802e-15
-2.88298e-15
-3.57776e-15
-5.04581e-15
-6.03987e-15
-4.84907e-15
-5.75052e-15
-7.7006e-15
-8.4566e-15
-7.31619e-15
-8.49396e-15
-9.07528e-15
-8.98962e-15
-9.54536e-15
-9.72953e-15
-1.09989e-14
-1.15643e-14
-1.14593e-14
-1.09511e-14
-1.17592e-14
-1.29876e-14
-1.26936e-14
-1.25107e-14
-1.27051e-14
-1.34381e-14
-1.3433e-14
-1.35002e-14
-1.30993e-14
-1.35291e-14
-1.47753e-14
-1.41655e-14
-1.3227e-14
-1.43712e-14
-1.65378e-14
-1.55654e-14
-1.54711e-14
-1.57096e-14
-1.60038e-14
-1.7225e-14
-1.68982e-14
-1.7242e-14
-1.83475e-14
-1.94514e-14
-1.96174e-14
-1.99089e-14
-2.08186e-14
-2.13897e-14
-2.24467e-14
-2.25803e-14
-2.31945e-14
-2.42674e-14
-2.51695e-14
-2.56251e-14
-2.64921e-14
-2.77331e-14
-2.81976e-14
-2.86693e-14
-2.81279e-14
-2.98922e-14
-3.13479e-14
-3.11765e-14
-3.11656e-14
-3.17292e-14
-3.34522e-14
-3.39354e-14
-3.4451e-14
-3.53354e-14
-3.59943e-14
-3.67267e-14
-3.78427e-14
-3.8728e-14
-3.91712e-14
-4.02057e-14
-4.10073e-14
-4.13381e-14
-4.16177e-14
-4.3225e-14
-4.36823e-14
-4.40154e-14
-4.49704e-14
-4.5493e-14
-4.62898e-14
-4.64628e-14
-4.73642e-14
-4.79382e-14
-4.85682e-14
-4.87012e-14
-4.78737e-14
-4.83205e-14
-4.87368e-14
-4.80149e-14
-4.71917e-14
-4.67903e-14
-4.5452e-14
-4.37368e-14
-4.10352e-14
-3.65443e-14
-3.0571e-14
-3.14361e-14
-3.45028e-14
-3.98276e-14
-4.47335e-14
-4.8506e-14
-5.16521e-14
-5.4239e-14
-5.64705e-14
-5.85977e-14
-6.03151e-14
-6.18258e-14
-6.32377e-14
-6.4417e-14
-6.56258e-14
-6.67606e-14
-6.76708e-14
-6.85589e-14
-6.95201e-14
-7.04173e-14
-7.12104e-14
-7.19833e-14
-7.2653e-14
-7.32265e-14
-7.38339e-14
-7.41246e-14
-7.451e-14
-7.51267e-14
-7.56103e-14
-7.57493e-14
-7.59475e-14
-7.61665e-14
-7.60613e-14
-7.60375e-14
-7.61567e-14
-7.65647e-14
-7.65931e-14
-7.63273e-14
-7.64543e-14
-7.65976e-14
-7.66297e-14
-7.6815e-14
-7.69533e-14
-7.69621e-14
-7.69377e-14
-7.71134e-14
-7.7353e-14
-7.73817e-14
-7.73092e-14
-7.75574e-14
-7.78644e-14
-7.80754e-14
-7.80455e-14
-7.83963e-14
-7.88121e-14
-7.902e-14
-7.92294e-14
-7.95634e-14
-7.96299e-14
-7.96508e-14
-7.98385e-14
-8.0062e-14
-8.03163e-14
-8.0556e-14
-8.06579e-14
-8.09856e-14
-8.091e-14
-8.09222e-14
-8.10746e-14
-8.12541e-14
-8.15001e-14
-8.18171e-14
-8.21772e-14
-8.25439e-14
-8.29583e-14
-8.3325e-14
-8.38422e-14
-8.42807e-14
-8.45026e-14
-8.49717e-14
-8.55608e-14
-8.57997e-14
-8.57433e-14
-8.58861e-14
-8.61323e-14
-8.62024e-14
-8.62688e-14
-8.65082e-14
-8.69538e-14
-8.70287e-14
-8.7349e-14
-8.77711e-14
-8.78227e-14
-8.79559e-14
-8.79646e-14
-8.79879e-14
-8.78923e-14
-8.78007e-14
-8.77897e-14
-8.74919e-14
-8.72642e-14
-8.7486e-14
-8.75817e-14
-8.74884e-14
-8.72528e-14
-8.72768e-14
-8.73284e-14
-8.71648e-14
-8.71015e-14
-8.73402e-14
-8.71323e-14
-8.66985e-14
-8.65796e-14
-8.62694e-14
-8.61696e-14
-8.59488e-14
-8.56036e-14
-8.55599e-14
-8.56654e-14
-8.55746e-14
-8.52291e-14
-8.50451e-14
-8.48642e-14
-8.43094e-14
-8.39745e-14
-8.36028e-14
-8.31691e-14
-8.2663e-14
-8.22193e-14
-8.18192e-14
-8.13481e-14
-8.08251e-14
-8.01194e-14
-7.96474e-14
-7.90944e-14
-7.83398e-14
-7.78088e-14
-7.71323e-14
-7.6764e-14
-7.63754e-14
-7.55092e-14
-7.48244e-14
-7.41456e-14
-7.40613e-14
-7.36119e-14
-7.27344e-14
-7.23937e-14
-7.18624e-14
-7.10869e-14
-7.05858e-14
-7.02896e-14
-6.98363e-14
-6.92618e-14
-6.84181e-14
-6.75848e-14
-6.70214e-14
-6.6357e-14
-6.56321e-14
-6.50324e-14
-6.43927e-14
-6.40207e-14
-6.32752e-14
-6.22702e-14
-6.14051e-14
-6.07008e-14
-6.01382e-14
-5.92913e-14
-5.85497e-14
-5.77321e-14
-5.68255e-14
-5.59661e-14
-5.51263e-14
-5.42326e-14
-5.344e-14
-5.26153e-14
-5.16269e-14
-5.11014e-14
-5.03276e-14
-4.92736e-14
-4.84634e-14
-4.78981e-14
-4.68794e-14
-4.56127e-14
-4.48533e-14
-4.39016e-14
-4.27765e-14
-4.17973e-14
-4.07289e-14
-3.93694e-14
-3.84329e-14
-3.73374e-14
-3.63446e-14
-3.55966e-14
-3.47076e-14
-3.37417e-14
-3.23365e-14
-3.12204e-14
-3.00657e-14
-2.84427e-14
-2.71499e-14
-2.61726e-14
-2.5102e-14
-2.39111e-14
-2.31769e-14
-2.21436e-14
-2.13744e-14
-2.03038e-14
-1.85563e-14
-1.75453e-14
-1.70143e-14
-1.62796e-14
-1.52731e-14
-1.44985e-14
-1.36736e-14
-1.26507e-14
-1.14961e-14
-1.09943e-14
-1.00907e-14
-9.47192e-15
-9.203e-15
-8.3595e-15
-7.51058e-15
-6.969e-15
-6.35147e-15
-5.77173e-15
-5.24277e-15
-4.85698e-15
-4.70383e-15
-4.07609e-15
-3.82379e-15
-3.25207e-15
-2.9306e-15
-2.33801e-15
-1.67595e-15
-1.08475e-15
-4.73231e-16
7.6295e-18
5.51738e-16
1.31865e-15
1.92541e-15
2.95475e-15
3.34622e-15
4.03323e-15
4.88352e-15
5.18389e-15
6.13222e-15
6.88373e-15
7.68407e-15
8.44023e-15
9.03892e-15
9.40303e-15
1.02017e-14
1.08374e-14
1.13889e-14
1.19763e-14
1.25828e-14
1.34442e-14
1.38306e-14
1.40075e-14
1.43629e-14
1.50489e-14
1.51621e-14
1.55488e-14
1.63864e-14
1.71574e-14
1.79995e-14
1.84453e-14
1.82252e-14
1.8836e-14
1.95813e-14
1.95737e-14
2.00768e-14
2.05337e-14
2.0535e-14
2.1395e-14
2.20761e-14
2.15458e-14
2.23274e-14
2.29611e-14
2.28239e-14
2.289e-14
2.34074e-14
2.39409e-14
2.37189e-14
2.37076e-14
2.47043e-14
2.44776e-14
2.42221e-14
2.49858e-14
2.43439e-14
2.43683e-14
2.49356e-14
2.44699e-14
2.37728e-14
2.39097e-14
2.36106e-14
2.38408e-14
2.4022e-14
2.3662e-14
2.37266e-14
2.37185e-14
2.3186e-14
2.25452e-14
2.29888e-14
2.25647e-14
2.23166e-14
2.26471e-14
2.21435e-14
2.19989e-14
2.17786e-14
2.12917e-14
2.06986e-14
2.07962e-14
2.04571e-14
1.98739e-14
1.98838e-14
1.97433e-14
1.94241e-14
1.88213e-14
1.86537e-14
1.83581e-14
1.8043e-14
1.85025e-14
1.82355e-14
1.78117e-14
1.77734e-14
1.8084e-14
1.76022e-14
1.6919e-14
1.67446e-14
1.6633e-14
1.71743e-14
1.68077e-14
1.62485e-14
1.62368e-14
1.57864e-14
1.48813e-14
1.51159e-14
1.50597e-14
1.45969e-14
1.46327e-14
1.45838e-14
1.46354e-14
1.40969e-14
1.40124e-14
1.41183e-14
1.37374e-14
1.36424e-14
1.37798e-14
1.36615e-14
1.30767e-14
1.32183e-14
1.26418e-14
1.23006e-14
1.25117e-14
1.21249e-14
1.20667e-14
1.22505e-14
1.19142e-14
1.21203e-14
1.17506e-14
1.09112e-14
1.12291e-14
1.0825e-14
1.0019e-14
1.02515e-14
1.00599e-14
9.45527e-15
9.24316e-15
8.97894e-15
8.37646e-15
8.40889e-15
8.23867e-15
7.96996e-15
8.05633e-15
7.94087e-15
7.80126e-15
7.48103e-15
7.09815e-15
7.14588e-15
7.60692e-15
7.38407e-15
7.0141e-15
6.85133e-15
6.59679e-15
6.45591e-15
5.53511e-15
5.45896e-15
5.719e-15
4.68701e-15
4.19965e-15
4.42308e-15
3.75973e-15
2.83168e-15
2.48094e-15
1.77517e-15
1.66588e-15
1.88702e-15
9.79435e-16
1.81272e-16
-2.19826e-16
-9.98224e-16
-2.15658e-15
-2.41349e-15
-3.17722e-15
-3.74171e-15
-4.64567e-15
-5.68505e-15
-5.34087e-15
-5.93704e-15
-7.26745e-15
-8.44487e-15
-7.81666e-15
-8.29176e-15
-8.91099e-15
-9.05746e-15
-9.47857e-15
-9.99831e-15
-1.10629e-14
-1.11845e-14
-1.13374e-14
-1.14126e-14
-1.19218e-14
-1.2672e-14
-1.27875e-14
-1.2487e-14
-1.27295e-14
-1.36806e-14
-1.3244e-14
-1.33788e-14
-1.33565e-14
-1.34382e-14
-1.43601e-14
-1.44012e-14
-1.36361e-14
-1.42917e-14
-1.60462e-14
-1.55537e-14
-1.54626e-14
-1.59492e-14
-1.62588e-14
-1.6682e-14
-1.71036e-14
-1.74053e-14
-1.83431e-14
-1.93035e-14
-1.94057e-14
-1.99905e-14
-2.08806e-14
-2.16887e-14
-2.20037e-14
-2.24416e-14
-2.33625e-14
-2.44639e-14
-2.50314e-14
-2.5526e-14
-2.646e-14
-2.76101e-14
-2.83149e-14
-2.8495e-14
-2.85863e-14
-2.98486e-14
-3.12238e-14
-3.08886e-14
-3.09885e-14
-3.23981e-14
-3.34959e-14
-3.36482e-14
-3.41562e-14
-3.55169e-14
-3.60552e-14
-3.68201e-14
-3.76451e-14
-3.86403e-14
-3.94856e-14
-4.00465e-14
-4.09528e-14
-4.12044e-14
-4.18515e-14
-4.33434e-14
-4.34281e-14
-4.35228e-14
-4.52155e-14
-4.60068e-14
-4.58443e-14
-4.64167e-14
-4.75156e-14
-4.8172e-14
-4.84987e-14
-4.82048e-14
-4.78965e-14
-4.87464e-14
-4.8881e-14
-4.78346e-14
-4.70927e-14
-4.68057e-14
-4.59584e-14
-4.38391e-14
-4.12972e-14
-3.79996e-14
-3.3635e-14
-3.57471e-14
-3.7386e-14
-4.12789e-14
-4.54927e-14
-4.88967e-14
-5.19194e-14
-5.44669e-14
-5.65756e-14
-5.86102e-14
-6.03126e-14
-6.18856e-14
-6.32511e-14
-6.43841e-14
-6.5727e-14
-6.67467e-14
-6.76376e-14
-6.85404e-14
-6.9564e-14
-7.04657e-14
-7.12394e-14
-7.19119e-14
-7.25684e-14
-7.31928e-14
-7.383e-14
-7.4191e-14
-7.45652e-14
-7.51371e-14
-7.55684e-14
-7.57028e-14
-7.60295e-14
-7.62869e-14
-7.60255e-14
-7.59906e-14
-7.6194e-14
-7.65888e-14
-7.66036e-14
-7.63139e-14
-7.64404e-14
-7.65382e-14
-7.65594e-14
-7.6831e-14
-7.69671e-14
-7.70246e-14
-7.69792e-14
-7.70772e-14
-7.73372e-14
-7.73991e-14
-7.73623e-14
-7.7478e-14
-7.77979e-14
-7.80406e-14
-7.80532e-14
-7.84538e-14
-7.88254e-14
-7.90112e-14
-7.92566e-14
-7.95177e-14
-7.96055e-14
-7.97005e-14
-7.98384e-14
-8.00521e-14
-8.02415e-14
-8.0592e-14
-8.07194e-14
-8.08962e-14
-8.09032e-14
-8.09395e-14
-8.10679e-14
-8.11731e-14
-8.14566e-14
-8.18255e-14
-8.21647e-14
-8.25105e-14
-8.28717e-14
-8.3324e-14
-8.37878e-14
-8.42254e-14
-8.45608e-14
-8.50665e-14
-8.55702e-14
-8.57701e-14
-8.57774e-14
-8.59241e-14
-8.61323e-14
-8.61331e-14
-8.63601e-14
-8.65948e-14
-8.68113e-14
-8.69521e-14
-8.73762e-14
-8.77923e-14
-8.78465e-14
-8.7974e-14
-8.79551e-14
-8.80843e-14
-8.81061e-14
-8.77967e-14
-8.7608e-14
-8.74624e-14
-8.73946e-14
-8.74207e-14
-8.75119e-14
-8.75625e-14
-8.73599e-14
-8.73085e-14
-8.72762e-14
-8.71769e-14
-8.72077e-14
-8.73223e-14
-8.70617e-14
-8.67506e-14
-8.64942e-14
-8.63273e-14
-8.61723e-14
-8.59296e-14
-8.57749e-14
-8.55355e-14
-8.55267e-14
-8.55823e-14
-8.53233e-14
-8.51327e-14
-8.48002e-14
-8.42477e-14
-8.39822e-14
-8.35263e-14
-8.32098e-14
-8.2727e-14
-8.21675e-14
-8.17402e-14
-8.13869e-14
-8.07436e-14
-8.01664e-14
-7.972e-14
-7.91525e-14
-7.83411e-14
-7.76929e-14
-7.72019e-14
-7.68208e-14
-7.63559e-14
-7.54666e-14
-7.48506e-14
-7.42127e-14
-7.38987e-14
-7.34354e-14
-7.28918e-14
-7.24425e-14
-7.16539e-14
-7.10373e-14
-7.07376e-14
-7.03e-14
-6.98145e-14
-6.92017e-14
-6.83157e-14
-6.76126e-14
-6.70661e-14
-6.64186e-14
-6.56646e-14
-6.50469e-14
-6.43833e-14
-6.39002e-14
-6.34265e-14
-6.2392e-14
-6.13281e-14
-6.07717e-14
-6.00993e-14
-5.92838e-14
-5.86774e-14
-5.7712e-14
-5.67653e-14
-5.59126e-14
-5.51188e-14
-5.43198e-14
-5.34674e-14
-5.24752e-14
-5.18164e-14
-5.12007e-14
-5.0224e-14
-4.93466e-14
-4.8438e-14
-4.77908e-14
-4.69639e-14
-4.56348e-14
-4.49004e-14
-4.40116e-14
-4.26597e-14
-4.18137e-14
-4.07523e-14
-3.9327e-14
-3.83744e-14
-3.73941e-14
-3.64247e-14
-3.57241e-14
-3.4719e-14
-3.35245e-14
-3.23566e-14
-3.11861e-14
-2.99889e-14
-2.8649e-14
-2.71982e-14
-2.60102e-14
-2.51242e-14
-2.39632e-14
-2.29953e-14
-2.21416e-14
-2.13019e-14
-2.01142e-14
-1.874e-14
-1.77302e-14
-1.70162e-14
-1.61836e-14
-1.52563e-14
-1.44343e-14
-1.36606e-14
-1.2712e-14
-1.15856e-14
-1.09926e-14
-1.01809e-14
-9.36225e-15
-8.87175e-15
-8.34812e-15
-7.6563e-15
-6.9981e-15
-6.30366e-15
-5.79708e-15
-5.12079e-15
-4.9429e-15
-4.65969e-15
-3.9085e-15
-3.71697e-15
-3.48082e-15
-2.94677e-15
-2.35058e-15
-1.81718e-15
-1.02156e-15
-5.14299e-16
1.16695e-16
7.26389e-16
1.14966e-15
1.94081e-15
3.01937e-15
3.20053e-15
3.93588e-15
4.83224e-15
5.34604e-15
6.19605e-15
6.74238e-15
7.67564e-15
8.56484e-15
9.09429e-15
9.3676e-15
1.00997e-14
1.07464e-14
1.14944e-14
1.20255e-14
1.24234e-14
1.35125e-14
1.40158e-14
1.399e-14
1.42509e-14
1.49579e-14
1.53034e-14
1.56749e-14
1.6356e-14
1.71202e-14
1.78067e-14
1.83325e-14
1.85495e-14
1.87933e-14
1.95047e-14
1.98125e-14
1.99586e-14
2.02606e-14
2.05392e-14
2.1427e-14
2.21127e-14
2.16927e-14
2.22707e-14
2.29846e-14
2.28897e-14
2.30423e-14
2.33168e-14
2.36842e-14
2.38396e-14
2.38438e-14
2.44624e-14
2.46019e-14
2.44805e-14
2.48143e-14
2.45831e-14
2.42792e-14
2.48101e-14
2.45304e-14
2.37095e-14
2.39463e-14
2.39251e-14
2.37313e-14
2.38692e-14
2.38129e-14
2.35792e-14
2.37286e-14
2.32501e-14
2.24669e-14
2.29757e-14
2.28678e-14
2.22727e-14
2.25416e-14
2.22414e-14
2.18659e-14
2.18879e-14
2.1384e-14
2.05242e-14
2.07315e-14
2.0552e-14
1.98629e-14
1.98718e-14
1.97336e-14
1.92733e-14
1.88855e-14
1.86198e-14
1.85498e-14
1.81409e-14
1.82974e-14
1.81017e-14
1.79257e-14
1.77679e-14
1.80458e-14
1.76207e-14
1.6932e-14
1.68058e-14
1.66565e-14
1.70691e-14
1.68925e-14
1.62749e-14
1.6238e-14
1.57089e-14
1.47935e-14
1.52715e-14
1.51471e-14
1.45544e-14
1.48319e-14
1.45474e-14
1.42583e-14
1.4309e-14
1.3951e-14
1.40523e-14
1.40411e-14
1.3588e-14
1.36706e-14
1.37989e-14
1.2919e-14
1.29801e-14
1.29571e-14
1.23088e-14
1.23343e-14
1.21697e-14
1.18566e-14
1.21284e-14
1.21137e-14
1.22191e-14
1.17397e-14
1.10384e-14
1.10608e-14
1.07193e-14
1.01697e-14
1.0338e-14
9.93026e-15
9.26254e-15
9.39073e-15
8.99963e-15
8.42579e-15
8.3843e-15
7.97733e-15
8.12484e-15
8.18864e-15
7.72418e-15
7.63554e-15
7.66453e-15
7.14584e-15
7.39897e-15
7.52866e-15
7.05012e-15
7.03883e-15
7.11328e-15
6.57848e-15
6.21255e-15
5.86392e-15
5.46152e-15
5.44899e-15
4.92037e-15
4.43546e-15
4.05429e-15
3.62942e-15
3.19175e-15
2.43226e-15
2.0184e-15
1.66449e-15
1.3316e-15
1.10765e-15
4.22118e-16
-2.8226e-16
-7.86114e-16
-1.78901e-15
-2.61539e-15
-3.21391e-15
-4.0639e-15
-4.54214e-15
-5.19654e-15
-5.76993e-15
-6.28437e-15
-6.8166e-15
-8.03453e-15
-8.33437e-15
-8.23587e-15
-8.95946e-15
-9.14573e-15
-9.56312e-15
-1.01652e-14
-1.08936e-14
-1.09975e-14
-1.12758e-14
-1.17613e-14
-1.20416e-14
-1.24114e-14
-1.26508e-14
-1.26073e-14
-1.29174e-14
-1.37015e-14
-1.3174e-14
-1.32497e-14
-1.35424e-14
-1.34872e-14
-1.3979e-14
-1.44388e-14
-1.42741e-14
-1.43151e-14
-1.52837e-14
-1.53382e-14
-1.56019e-14
-1.62359e-14
-1.62557e-14
-1.64216e-14
-1.73959e-14
-1.77754e-14
-1.82496e-14
-1.88092e-14
-1.93809e-14
-2.02771e-14
-2.07414e-14
-2.14122e-14
-2.18794e-14
-2.27411e-14
-2.37619e-14
-2.42132e-14
-2.47218e-14
-2.56174e-14
-2.65179e-14
-2.73467e-14
-2.8262e-14
-2.85305e-14
-2.91014e-14
-2.98142e-14
-3.06077e-14
-3.07673e-14
-3.13e-14
-3.2483e-14
-3.31661e-14
-3.37777e-14
-3.42631e-14
-3.52768e-14
-3.6118e-14
-3.69167e-14
-3.74337e-14
-3.85042e-14
-3.95265e-14
-3.99392e-14
-4.09629e-14
-4.16132e-14
-4.19881e-14
-4.28409e-14
-4.33616e-14
-4.35277e-14
-4.51204e-14
-4.60709e-14
-4.57375e-14
-4.66317e-14
-4.77331e-14
-4.81222e-14
-4.80453e-14
-4.81361e-14
-4.82448e-14
-4.87289e-14
-4.86941e-14
-4.79954e-14
-4.72035e-14
-4.69077e-14
-4.63073e-14
-4.40354e-14
-4.177e-14
-3.93791e-14
-3.65235e-14
-3.84785e-14
-3.97882e-14
-4.27854e-14
-4.631e-14
-4.94242e-14
-5.22452e-14
-5.46893e-14
-5.6719e-14
-5.86979e-14
-6.03228e-14
-6.19454e-14
-6.31921e-14
-6.43591e-14
-6.58521e-14
-6.67822e-14
-6.7597e-14
-6.85522e-14
-6.95137e-14
-7.0542e-14
-7.12333e-14
-7.18777e-14
-7.25524e-14
-7.31123e-14
-7.38792e-14
-7.4183e-14
-7.45701e-14
-7.51323e-14
-7.55108e-14
-7.57138e-14
-7.6132e-14
-7.6321e-14
-7.6033e-14
-7.59872e-14
-7.61372e-14
-7.66064e-14
-7.65595e-14
-7.63706e-14
-7.64269e-14
-7.64648e-14
-7.64019e-14
-7.68427e-14
-7.70387e-14
-7.7037e-14
-7.70703e-14
-7.70251e-14
-7.72698e-14
-7.74566e-14
-7.73373e-14
-7.74761e-14
-7.77825e-14
-7.79467e-14
-7.80569e-14
-7.84518e-14
-7.88352e-14
-7.90206e-14
-7.92227e-14
-7.9482e-14
-7.96101e-14
-7.97123e-14
-7.98673e-14
-8.01012e-14
-8.02294e-14
-8.05612e-14
-8.07486e-14
-8.09119e-14
-8.08326e-14
-8.09511e-14
-8.11034e-14
-8.10295e-14
-8.1408e-14
-8.18703e-14
-8.21817e-14
-8.23977e-14
-8.28282e-14
-8.34508e-14
-8.36534e-14
-8.41153e-14
-8.46219e-14
-8.5116e-14
-8.5474e-14
-8.58522e-14
-8.59471e-14
-8.59742e-14
-8.61752e-14
-8.6037e-14
-8.62796e-14
-8.66418e-14
-8.68039e-14
-8.69906e-14
-8.72821e-14
-8.77673e-14
-8.78588e-14
-8.80281e-14
-8.80556e-14
-8.82934e-14
-8.82321e-14
-8.77739e-14
-8.75116e-14
-8.74646e-14
-8.75388e-14
-8.73593e-14
-8.74256e-14
-8.75625e-14
-8.73592e-14
-8.72618e-14
-8.72812e-14
-8.73105e-14
-8.72948e-14
-8.72972e-14
-8.69854e-14
-8.67699e-14
-8.63875e-14
-8.63444e-14
-8.6278e-14
-8.59444e-14
-8.57968e-14
-8.5501e-14
-8.54961e-14
-8.549e-14
-8.5485e-14
-8.52256e-14
-8.48141e-14
-8.41409e-14
-8.39344e-14
-8.35062e-14
-8.32862e-14
-8.27032e-14
-8.20641e-14
-8.17987e-14
-8.14407e-14
-8.07058e-14
-8.01342e-14
-7.96771e-14
-7.92452e-14
-7.83682e-14
-7.75796e-14
-7.73196e-14
-7.6702e-14
-7.63672e-14
-7.55288e-14
-7.48357e-14
-7.4227e-14
-7.38513e-14
-7.33098e-14
-7.30911e-14
-7.23715e-14
-7.13483e-14
-7.1156e-14
-7.0851e-14
-7.02478e-14
-6.97976e-14
-6.91343e-14
-6.81915e-14
-6.76541e-14
-6.7128e-14
-6.63599e-14
-6.57526e-14
-6.51699e-14
-6.44192e-14
-6.37945e-14
-6.33792e-14
-6.25358e-14
-6.15356e-14
-6.07448e-14
-5.99943e-14
-5.92807e-14
-5.88053e-14
-5.77143e-14
-5.67084e-14
-5.58053e-14
-5.51397e-14
-5.43446e-14
-5.35955e-14
-5.24174e-14
-5.18871e-14
-5.11854e-14
-5.03245e-14
-4.94564e-14
-4.84285e-14
-4.76041e-14
-4.69762e-14
-4.57263e-14
-4.48403e-14
-4.41018e-14
-4.27483e-14
-4.18442e-14
-4.05516e-14
-3.93547e-14
-3.83487e-14
-3.73792e-14
-3.66735e-14
-3.58205e-14
-3.46202e-14
-3.34556e-14
-3.24567e-14
-3.11374e-14
-2.99531e-14
-2.86627e-14
-2.72427e-14
-2.58875e-14
-2.51379e-14
-2.40038e-14
-2.29725e-14
-2.20819e-14
-2.11587e-14
-1.99379e-14
-1.88282e-14
-1.78429e-14
-1.69323e-14
-1.62804e-14
-1.53597e-14
-1.44757e-14
-1.35986e-14
-1.2547e-14
-1.17443e-14
-1.10064e-14
-1.02413e-14
-9.25968e-15
-8.66315e-15
-8.38772e-15
-7.7346e-15
-6.87049e-15
-6.3038e-15
-5.8029e-15
-5.05272e-15
-5.02019e-15
-4.50796e-15
-3.98806e-15
-3.55012e-15
-3.61702e-15
-2.89427e-15
-2.27544e-15
-1.85098e-15
-1.11967e-15
-7.39968e-16
1.90725e-16
8.84196e-16
1.023e-15
1.9121e-15
2.95237e-15
3.13309e-15
4.06019e-15
4.74602e-15
5.5081e-15
6.1971e-15
6.71712e-15
7.64757e-15
8.51523e-15
9.25451e-15
9.4273e-15
9.94524e-15
1.06355e-14
1.15384e-14
1.21198e-14
1.24754e-14
1.34305e-14
1.41099e-14
1.39265e-14
1.42665e-14
1.47206e-14
1.55259e-14
1.59267e-14
1.62122e-14
1.71772e-14
1.77642e-14
1.817e-14
1.88119e-14
1.89105e-14
1.93646e-14
1.98963e-14
1.9721e-14
1.99583e-14
2.08343e-14
2.14654e-14
2.18951e-14
2.20959e-14
2.2352e-14
2.26704e-14
2.30039e-14
2.32207e-14
2.31464e-14
2.35072e-14
2.41495e-14
2.40588e-14
2.41416e-14
2.4715e-14
2.48074e-14
2.45891e-14
2.4747e-14
2.437e-14
2.45049e-14
2.44771e-14
2.38984e-14
2.4005e-14
2.41555e-14
2.3507e-14
2.36917e-14
2.42242e-14
2.33855e-14
2.35801e-14
2.3452e-14
2.25973e-14
2.29265e-14
2.30799e-14
2.21762e-14
2.22812e-14
2.25419e-14
2.16959e-14
2.19099e-14
2.1611e-14
2.03943e-14
2.05869e-14
2.06091e-14
1.96952e-14
1.99412e-14
1.98851e-14
1.89938e-14