/*--------------------------------*- C++ -*----------------------------------*\
| =========                 |                                                 |
| \\      /  F ield         | OpenFOAM: The Open Source CFD Toolbox           |
|  \\    /   O peration     | Version:  2112                                  |
|   \\  /    A nd           | Website:  www.openfoam.com                      |
|    \\/     M anipulation  |                                                 |
\*---------------------------------------------------------------------------*/
FoamFile
{
    version     2.0;
    format      ascii;
    arch        "LSB;label=32;scalar=64";
    class       volScalarField;
    location    "2";
    object      p;
}
// * * * * * * * * * * * * * * * * * * * * * * * * * * * * * * * * * * * * * //

dimensions      [0 2 -2 0 0 0 0];

internalField   nonuniform List<scalar> 
25600
(
-1.58613e-14
-3.76251e-14
-5.12921e-14
-6.02037e-14
-6.67392e-14
-7.17933e-14
-7.59753e-14
-7.95802e-14
-8.27702e-14
-8.54684e-14
-8.78152e-14
-8.99324e-14
-9.23098e-14
-9.44724e-14
-9.64701e-14
-9.86139e-14
-1.0053e-13
-1.01978e-13
-1.03553e-13
-1.05119e-13
-1.06609e-13
-1.07973e-13
-1.0935e-13
-1.10508e-13
-1.11744e-13
-1.13387e-13
-1.14816e-13
-1.15851e-13
-1.16939e-13
-1.18248e-13
-1.19587e-13
-1.20566e-13
-1.2122e-13
-1.21926e-13
-1.22794e-13
-1.2357e-13
-1.24455e-13
-1.24927e-13
-1.25536e-13
-1.26518e-13
-1.27098e-13
-1.27798e-13
-1.28652e-13
-1.2945e-13
-1.30578e-13
-1.31255e-13
-1.32099e-13
-1.32904e-13
-1.33607e-13
-1.3427e-13
-1.34631e-13
-1.35596e-13
-1.36357e-13
-1.37056e-13
-1.37976e-13
-1.38237e-13
-1.39014e-13
-1.39607e-13
-1.4031e-13
-1.41186e-13
-1.41328e-13
-1.42428e-13
-1.42918e-13
-1.43612e-13
-1.44552e-13
-1.44696e-13
-1.45624e-13
-1.4628e-13
-1.4695e-13
-1.47667e-13
-1.47843e-13
-1.48412e-13
-1.48945e-13
-1.49604e-13
-1.50508e-13
-1.50509e-13
-1.50818e-13
-1.5181e-13
-1.52254e-13
-1.5286e-13
-1.52819e-13
-1.52754e-13
-1.53542e-13
-1.53949e-13
-1.5424e-13
-1.54371e-13
-1.54546e-13
-1.54907e-13
-1.55501e-13
-1.56142e-13
-1.55797e-13
-1.55734e-13
-1.56488e-13
-1.57334e-13
-1.5735e-13
-1.57129e-13
-1.57824e-13
-1.582e-13
-1.58739e-13
-1.5878e-13
-1.58251e-13
-1.58803e-13
-1.5877e-13
-1.59119e-13
-1.59241e-13
-1.58933e-13
-1.58455e-13
-1.5868e-13
-1.59164e-13
-1.5896e-13
-1.58758e-13
-1.57805e-13
-1.58771e-13
-1.59469e-13
-1.58839e-13
-1.5837e-13
-1.57876e-13
-1.58262e-13
-1.58841e-13
-1.58373e-13
-1.57573e-13
-1.57028e-13
-1.57734e-13
-1.58611e-13
-1.58156e-13
-1.57132e-13
-1.56501e-13
-1.57314e-13
-1.58e-13
-1.57173e-13
-1.56464e-13
-1.56156e-13
-1.56705e-13
-1.56852e-13
-1.558e-13
-1.55249e-13
-1.54511e-13
-1.54495e-13
-1.54604e-13
-1.53571e-13
-1.52503e-13
-1.51652e-13
-1.5161e-13
-1.51308e-13
-1.50188e-13
-1.49497e-13
-1.48578e-13
-1.48384e-13
-1.47757e-13
-1.4708e-13
-1.46895e-13
-1.45412e-13
-1.44877e-13
-1.45254e-13
-1.44923e-13
-1.44351e-13
-1.4318e-13
-1.4259e-13
-1.42697e-13
-1.42246e-13
-1.41992e-13
-1.40292e-13
-1.40064e-13
-1.40296e-13
-1.38981e-13
-1.39222e-13
-1.38564e-13
-1.38112e-13
-1.38648e-13
-1.38015e-13
-1.37453e-13
-1.36263e-13
-1.36435e-13
-1.36608e-13
-1.35893e-13
-1.35643e-13
-1.35113e-13
-1.35555e-13
-1.34261e-13
-1.33639e-13
-1.33908e-13
-1.31965e-13
-1.32022e-13
-1.31919e-13
-1.30955e-13
-1.31024e-13
-1.29206e-13
-1.28958e-13
-1.2885e-13
-1.26878e-13
-1.26708e-13
-1.25702e-13
-1.24655e-13
-1.24831e-13
-1.23262e-13
-1.22334e-13
-1.20981e-13
-1.20322e-13
-1.20256e-13
-1.18148e-13
-1.17566e-13
-1.16623e-13
-1.16719e-13
-1.17005e-13
-1.14966e-13
-1.13767e-13
-1.13325e-13
-1.13621e-13
-1.13115e-13
-1.11539e-13
-1.10741e-13
-1.10646e-13
-1.12264e-13
-1.10378e-13
-1.08324e-13
-1.10148e-13
-1.08662e-13
-1.07509e-13
-1.07136e-13
-1.06608e-13
-1.08533e-13
-1.07006e-13
-1.05252e-13
-1.04838e-13
-1.04169e-13
-1.06056e-13
-1.04484e-13
-1.0311e-13
-1.02927e-13
-1.016e-13
-1.02314e-13
-1.00541e-13
-9.95094e-14
-9.90934e-14
-9.69279e-14
-9.7351e-14
-9.64563e-14
-9.56824e-14
-9.49505e-14
-9.27979e-14
-9.35246e-14
-9.19277e-14
-9.10643e-14
-9.04449e-14
-8.77118e-14
-8.86856e-14
-8.88287e-14
-8.83332e-14
-8.72498e-14
-8.57211e-14
-8.74946e-14
-8.64854e-14
-8.53908e-14
-8.53097e-14
-8.45323e-14
-8.66697e-14
-8.53515e-14
-8.47971e-14
-8.5335e-14
-8.38612e-14
-8.5503e-14
-8.51568e-14
-8.48352e-14
-8.49964e-14
-8.42619e-14
-8.56932e-14
-8.50144e-14
-8.44601e-14
-8.42787e-14
-8.34979e-14
-8.49744e-14
-8.46912e-14
-8.45434e-14
-8.4114e-14
-8.30867e-14
-8.41346e-14
-8.3377e-14
-8.25754e-14
-8.29965e-14
-8.16281e-14
-8.21918e-14
-8.20624e-14
-8.14366e-14
-8.12188e-14
-8.01055e-14
-8.11168e-14
-8.16104e-14
-8.0679e-14
-7.97603e-14
-7.97498e-14
-8.12648e-14
-8.08336e-14
-7.98301e-14
-7.94743e-14
-7.96199e-14
-8.05129e-14
-7.95486e-14
-7.87398e-14
-7.78895e-14
-7.81073e-14
-7.90874e-14
-7.79822e-14
-7.7143e-14
-7.53355e-14
-7.47614e-14
-7.55721e-14
-7.4987e-14
-7.47562e-14
-7.29386e-14
-7.25727e-14
-7.19067e-14
-7.02252e-14
-7.00052e-14
-6.75212e-14
-6.5154e-14
-6.3348e-14
-5.92604e-14
-5.54294e-14
-4.77768e-14
-3.53929e-14
-2.98623e-14
-4.14571e-14
-5.27363e-14
-6.08096e-14
-6.70507e-14
-7.19972e-14
-7.61537e-14
-7.96882e-14
-8.28666e-14
-8.55552e-14
-8.78333e-14
-8.99762e-14
-9.23151e-14
-9.44659e-14
-9.64796e-14
-9.85614e-14
-1.00497e-13
-1.02018e-13
-1.03606e-13
-1.0512e-13
-1.06574e-13
-1.0794e-13
-1.09342e-13
-1.1057e-13
-1.11832e-13
-1.13371e-13
-1.14666e-13
-1.15825e-13
-1.16997e-13
-1.183e-13
-1.19578e-13
-1.20466e-13
-1.21217e-13
-1.21978e-13
-1.22851e-13
-1.2358e-13
-1.24445e-13
-1.25043e-13
-1.25567e-13
-1.26392e-13
-1.27123e-13
-1.27761e-13
-1.2869e-13
-1.29517e-13
-1.30472e-13
-1.31292e-13
-1.32136e-13
-1.32907e-13
-1.33587e-13
-1.34285e-13
-1.34732e-13
-1.35465e-13
-1.36289e-13
-1.37013e-13
-1.37845e-13
-1.38319e-13
-1.39035e-13
-1.39616e-13
-1.40297e-13
-1.41078e-13
-1.41444e-13
-1.42423e-13
-1.42914e-13
-1.43608e-13
-1.44489e-13
-1.44753e-13
-1.45665e-13
-1.46328e-13
-1.46848e-13
-1.47607e-13
-1.47866e-13
-1.48504e-13
-1.48968e-13
-1.4964e-13
-1.50413e-13
-1.50617e-13
-1.50983e-13
-1.51682e-13
-1.5222e-13
-1.52737e-13
-1.52924e-13
-1.53007e-13
-1.53516e-13
-1.53863e-13
-1.54088e-13
-1.54376e-13
-1.54881e-13
-1.55007e-13
-1.55236e-13
-1.55905e-13
-1.55879e-13
-1.56024e-13
-1.56512e-13
-1.57063e-13
-1.57349e-13
-1.57423e-13
-1.57933e-13
-1.58213e-13
-1.58431e-13
-1.58665e-13
-1.5865e-13
-1.58823e-13
-1.58828e-13
-1.5892e-13
-1.59182e-13
-1.59086e-13
-1.58593e-13
-1.58547e-13
-1.59015e-13
-1.59041e-13
-1.58701e-13
-1.58194e-13
-1.58634e-13
-1.59056e-13
-1.58857e-13
-1.58588e-13
-1.58096e-13
-1.58073e-13
-1.58659e-13
-1.58425e-13
-1.57638e-13
-1.57238e-13
-1.57735e-13
-1.58297e-13
-1.58076e-13
-1.57307e-13
-1.56693e-13
-1.57277e-13
-1.57708e-13
-1.57106e-13
-1.56633e-13
-1.56306e-13
-1.56547e-13
-1.56726e-13
-1.55895e-13
-1.5526e-13
-1.54545e-13
-1.54484e-13
-1.54528e-13
-1.53622e-13
-1.52505e-13
-1.51702e-13
-1.51554e-13
-1.51239e-13
-1.50224e-13
-1.49395e-13
-1.48744e-13
-1.48563e-13
-1.47726e-13
-1.46835e-13
-1.46638e-13
-1.45729e-13
-1.45204e-13
-1.45149e-13
-1.44713e-13
-1.44174e-13
-1.43351e-13
-1.42786e-13
-1.42595e-13
-1.4215e-13
-1.41792e-13
-1.40525e-13
-1.40173e-13
-1.40085e-13
-1.39206e-13
-1.39015e-13
-1.38729e-13
-1.38369e-13
-1.38394e-13
-1.37933e-13
-1.37274e-13
-1.36522e-13
-1.36476e-13
-1.36644e-13
-1.36129e-13
-1.35456e-13
-1.35133e-13
-1.35178e-13
-1.34399e-13
-1.34011e-13
-1.3347e-13
-1.32202e-13
-1.3206e-13
-1.31937e-13
-1.31099e-13
-1.30497e-13
-1.29415e-13
-1.28961e-13
-1.28641e-13
-1.27346e-13
-1.26533e-13
-1.25728e-13
-1.24862e-13
-1.24364e-13
-1.23464e-13
-1.22417e-13
-1.21263e-13
-1.20233e-13
-1.19475e-13
-1.18573e-13
-1.17649e-13
-1.16861e-13
-1.16599e-13
-1.16239e-13
-1.15306e-13
-1.14263e-13
-1.13498e-13
-1.1313e-13
-1.12497e-13
-1.11828e-13
-1.11352e-13
-1.10864e-13
-1.11498e-13
-1.10354e-13
-1.09055e-13
-1.09467e-13
-1.08368e-13
-1.08166e-13
-1.0758e-13
-1.06802e-13
-1.0768e-13
-1.06585e-13
-1.05828e-13
-1.05261e-13
-1.04383e-13
-1.05205e-13
-1.04392e-13
-1.03396e-13
-1.02892e-13
-1.01985e-13
-1.0205e-13
-1.00636e-13
-9.96392e-14
-9.8967e-14
-9.72741e-14
-9.69549e-14
-9.62752e-14
-9.59667e-14
-9.50536e-14
-9.31222e-14
-9.311e-14
-9.19002e-14
-9.11223e-14
-9.02592e-14
-8.82634e-14
-8.87914e-14
-8.84827e-14
-8.79662e-14
-8.72904e-14
-8.6252e-14
-8.72814e-14
-8.64218e-14
-8.54001e-14
-8.51599e-14
-8.49931e-14
-8.64389e-14
-8.52188e-14
-8.47014e-14
-8.51432e-14
-8.43291e-14
-8.5295e-14
-8.49619e-14
-8.49207e-14
-8.4969e-14
-8.46463e-14
-8.54164e-14
-8.46396e-14
-8.46057e-14
-8.45204e-14
-8.37443e-14
-8.47399e-14
-8.45059e-14
-8.4685e-14
-8.41914e-14
-8.31834e-14
-8.40257e-14
-8.32397e-14
-8.29009e-14
-8.2825e-14
-8.15709e-14
-8.21515e-14
-8.18065e-14
-8.16693e-14
-8.13375e-14
-8.02616e-14
-8.12442e-14
-8.12225e-14
-8.04933e-14
-8.00689e-14
-8.00406e-14
-8.10162e-14
-8.05602e-14
-7.98444e-14
-7.99769e-14
-7.9642e-14
-8.00324e-14
-7.97534e-14
-7.85794e-14
-7.84313e-14
-7.81139e-14
-7.85443e-14
-7.81062e-14
-7.69389e-14
-7.57071e-14
-7.51589e-14
-7.56836e-14
-7.48883e-14
-7.42155e-14
-7.31757e-14
-7.2626e-14
-7.19942e-14
-7.04481e-14
-6.95856e-14
-6.78915e-14
-6.55341e-14
-6.31601e-14
-5.96247e-14
-5.59473e-14
-4.93005e-14
-3.94733e-14
-3.94312e-14
-4.60181e-14
-5.47981e-14
-6.18796e-14
-6.75843e-14
-7.2384e-14
-7.6491e-14
-7.98899e-14
-8.29899e-14
-8.57184e-14
-8.79243e-14
-9.00269e-14
-9.23662e-14
-9.44064e-14
-9.65221e-14
-9.85606e-14
-1.00431e-13
-1.02088e-13
-1.0367e-13
-1.05142e-13
-1.06551e-13
-1.07883e-13
-1.09426e-13
-1.10619e-13
-1.11876e-13
-1.1335e-13
-1.14594e-13
-1.15779e-13
-1.17021e-13
-1.18402e-13
-1.19618e-13
-1.20449e-13
-1.21187e-13
-1.21987e-13
-1.22941e-13
-1.23672e-13
-1.24456e-13
-1.25077e-13
-1.25588e-13
-1.26257e-13
-1.27136e-13
-1.27755e-13
-1.28684e-13
-1.29577e-13
-1.30491e-13
-1.31251e-13
-1.32162e-13
-1.32911e-13
-1.33556e-13
-1.34363e-13
-1.34767e-13
-1.3532e-13
-1.36257e-13
-1.36921e-13
-1.37763e-13
-1.38389e-13
-1.39046e-13
-1.3958e-13
-1.40307e-13
-1.41059e-13
-1.41533e-13
-1.42406e-13
-1.42916e-13
-1.43642e-13
-1.44404e-13
-1.44765e-13
-1.45706e-13
-1.46301e-13
-1.46798e-13
-1.47547e-13
-1.47917e-13
-1.48569e-13
-1.49003e-13
-1.49668e-13
-1.50318e-13
-1.50767e-13
-1.51144e-13
-1.51555e-13
-1.52123e-13
-1.52641e-13
-1.5295e-13
-1.53232e-13
-1.53504e-13
-1.5376e-13
-1.54073e-13
-1.54378e-13
-1.55022e-13
-1.5512e-13
-1.55109e-13
-1.55718e-13
-1.55941e-13
-1.56195e-13
-1.56487e-13
-1.56983e-13
-1.57324e-13
-1.57581e-13
-1.57982e-13
-1.58214e-13
-1.58342e-13
-1.58593e-13
-1.58743e-13
-1.58886e-13
-1.58891e-13
-1.58867e-13
-1.59122e-13
-1.59195e-13
-1.58661e-13
-1.58496e-13
-1.58925e-13
-1.59029e-13
-1.58683e-13
-1.58523e-13
-1.58565e-13
-1.58722e-13
-1.58865e-13
-1.58649e-13
-1.58288e-13
-1.58022e-13
-1.58484e-13
-1.58456e-13
-1.57748e-13
-1.57452e-13
-1.57654e-13
-1.58016e-13
-1.57984e-13
-1.57476e-13
-1.56984e-13
-1.57246e-13
-1.57396e-13
-1.57015e-13
-1.56749e-13
-1.56593e-13
-1.56449e-13
-1.56473e-13
-1.55946e-13
-1.55295e-13
-1.54595e-13
-1.5452e-13
-1.54504e-13
-1.53641e-13
-1.52481e-13
-1.51756e-13
-1.51497e-13
-1.51141e-13
-1.50197e-13
-1.49467e-13
-1.48789e-13
-1.48506e-13
-1.4775e-13
-1.46776e-13
-1.46441e-13
-1.45886e-13
-1.45466e-13
-1.45014e-13
-1.44725e-13
-1.43976e-13
-1.43423e-13
-1.42983e-13
-1.42543e-13
-1.42044e-13
-1.4165e-13
-1.40739e-13
-1.40245e-13
-1.39888e-13
-1.39389e-13
-1.38935e-13
-1.38752e-13
-1.38545e-13
-1.38222e-13
-1.37775e-13
-1.37267e-13
-1.36633e-13
-1.36527e-13
-1.36675e-13
-1.36181e-13
-1.3564e-13
-1.35186e-13
-1.34806e-13
-1.34415e-13
-1.34175e-13
-1.33354e-13
-1.32397e-13
-1.3207e-13
-1.31906e-13
-1.31122e-13
-1.30193e-13
-1.29593e-13
-1.29019e-13
-1.28549e-13
-1.27485e-13
-1.26468e-13
-1.25774e-13
-1.24952e-13
-1.24131e-13
-1.23601e-13
-1.2249e-13
-1.2142e-13
-1.20121e-13
-1.19115e-13
-1.18687e-13
-1.17646e-13
-1.16931e-13
-1.16503e-13
-1.15889e-13
-1.15431e-13
-1.1459e-13
-1.13545e-13
-1.12912e-13
-1.1221e-13
-1.11893e-13
-1.11648e-13
-1.10991e-13
-1.11042e-13
-1.10311e-13
-1.0952e-13
-1.09129e-13
-1.08299e-13
-1.0851e-13
-1.07826e-13
-1.0692e-13
-1.07084e-13
-1.06367e-13
-1.06216e-13
-1.0554e-13
-1.045e-13
-1.04621e-13
-1.04308e-13
-1.03627e-13
-1.03037e-13
-1.02184e-13
-1.01839e-13
-1.00717e-13
-9.96424e-14
-9.89021e-14
-9.75994e-14
-9.68444e-14
-9.61838e-14
-9.6e-14
-9.49958e-14
-9.33996e-14
-9.30232e-14
-9.19749e-14
-9.10261e-14
-9.00951e-14
-8.87397e-14
-8.88845e-14
-8.81794e-14
-8.76516e-14
-8.73238e-14
-8.65883e-14
-8.69426e-14
-8.63095e-14
-8.55191e-14
-8.52513e-14
-8.53024e-14
-8.59679e-14
-8.51181e-14
-8.48028e-14
-8.50958e-14
-8.45689e-14
-8.49072e-14
-8.48096e-14
-8.51743e-14
-8.51407e-14
-8.48232e-14
-8.50465e-14
-8.43613e-14
-8.46941e-14
-8.46365e-14
-8.40278e-14
-8.46344e-14
-8.44681e-14
-8.46225e-14
-8.42813e-14
-8.33923e-14
-8.39403e-14
-8.31314e-14
-8.29758e-14
-8.27201e-14
-8.15939e-14
-8.21088e-14
-8.1724e-14
-8.1644e-14
-8.14784e-14
-8.04616e-14
-8.11752e-14
-8.10266e-14
-8.03825e-14
-8.04096e-14
-8.0177e-14
-8.07797e-14
-8.04632e-14
-8.00722e-14
-8.01415e-14
-7.94926e-14
-7.98679e-14
-7.9807e-14
-7.86083e-14
-7.86374e-14
-7.81678e-14
-7.8197e-14
-7.79798e-14
-7.69409e-14
-7.60978e-14
-7.5544e-14
-7.57867e-14
-7.47048e-14
-7.39566e-14
-7.34459e-14
-7.25769e-14
-7.21844e-14
-7.05735e-14
-6.92929e-14
-6.82561e-14
-6.58555e-14
-6.33108e-14
-6.02381e-14
-5.68266e-14
-5.13841e-14
-4.42185e-14
-4.67825e-14
-5.04771e-14
-5.72762e-14
-6.31886e-14
-6.83791e-14
-7.28979e-14
-7.69271e-14
-8.02358e-14
-8.3121e-14
-8.59847e-14
-8.81075e-14
-9.01017e-14
-9.243e-14
-9.43962e-14
-9.65874e-14
-9.85917e-14
-1.00383e-13
-1.0218e-13
-1.03668e-13
-1.05213e-13
-1.06499e-13
-1.07956e-13
-1.09426e-13
-1.1062e-13
-1.11899e-13
-1.13295e-13
-1.14631e-13
-1.15755e-13
-1.17072e-13
-1.18431e-13
-1.19759e-13
-1.20543e-13
-1.21101e-13
-1.21842e-13
-1.22993e-13
-1.23747e-13
-1.24523e-13
-1.25075e-13
-1.25589e-13
-1.26315e-13
-1.27044e-13
-1.27746e-13
-1.28662e-13
-1.29586e-13
-1.30519e-13
-1.3122e-13
-1.32145e-13
-1.32956e-13
-1.33527e-13
-1.34402e-13
-1.34714e-13
-1.35255e-13
-1.36153e-13
-1.36856e-13
-1.37799e-13
-1.38446e-13
-1.39078e-13
-1.39613e-13
-1.40264e-13
-1.41072e-13
-1.41633e-13
-1.42424e-13
-1.42931e-13
-1.43687e-13
-1.44367e-13
-1.44771e-13
-1.45601e-13
-1.46195e-13
-1.46793e-13
-1.47547e-13
-1.48037e-13
-1.48611e-13
-1.49057e-13
-1.49647e-13
-1.50278e-13
-1.50863e-13
-1.51141e-13
-1.51556e-13
-1.52097e-13
-1.52548e-13
-1.5306e-13
-1.53318e-13
-1.53376e-13
-1.53726e-13
-1.54144e-13
-1.54457e-13
-1.54914e-13
-1.55056e-13
-1.55216e-13
-1.55668e-13
-1.5597e-13
-1.56291e-13
-1.56472e-13
-1.56947e-13
-1.57305e-13
-1.57651e-13
-1.57908e-13
-1.58184e-13
-1.58533e-13
-1.58592e-13
-1.58621e-13
-1.58944e-13
-1.58985e-13
-1.58834e-13
-1.59064e-13
-1.59183e-13
-1.58728e-13
-1.58726e-13
-1.58754e-13
-1.5882e-13
-1.58837e-13
-1.58669e-13
-1.58469e-13
-1.58557e-13
-1.58762e-13
-1.58625e-13
-1.58475e-13
-1.58119e-13
-1.58327e-13
-1.58305e-13
-1.57878e-13
-1.5781e-13
-1.5739e-13
-1.57814e-13
-1.58078e-13
-1.57513e-13
-1.57138e-13
-1.57265e-13
-1.57264e-13
-1.56885e-13
-1.56874e-13
-1.56794e-13
-1.56373e-13
-1.5632e-13
-1.55958e-13
-1.55439e-13
-1.54681e-13
-1.54611e-13
-1.5432e-13
-1.53565e-13
-1.5254e-13
-1.51993e-13
-1.51248e-13
-1.50984e-13
-1.50146e-13
-1.49579e-13
-1.49012e-13
-1.48326e-13
-1.47638e-13
-1.46841e-13
-1.46508e-13
-1.45906e-13
-1.45322e-13
-1.44973e-13
-1.44887e-13
-1.439e-13
-1.43491e-13
-1.4315e-13
-1.42447e-13
-1.41875e-13
-1.41637e-13
-1.40962e-13
-1.40292e-13
-1.39713e-13
-1.39328e-13
-1.38822e-13
-1.38675e-13
-1.38596e-13
-1.38322e-13
-1.37798e-13
-1.3732e-13
-1.36488e-13
-1.36601e-13
-1.36606e-13
-1.36047e-13
-1.35851e-13
-1.35387e-13
-1.34864e-13
-1.34379e-13
-1.34054e-13
-1.33507e-13
-1.32488e-13
-1.32005e-13
-1.31691e-13
-1.31201e-13
-1.30251e-13
-1.29565e-13
-1.29113e-13
-1.28575e-13
-1.27433e-13
-1.26449e-13
-1.25764e-13
-1.24957e-13
-1.24167e-13
-1.23484e-13
-1.22661e-13
-1.21333e-13
-1.19974e-13
-1.19212e-13
-1.18555e-13
-1.17637e-13
-1.16887e-13
-1.16315e-13
-1.15914e-13
-1.15524e-13
-1.14652e-13
-1.13601e-13
-1.12876e-13
-1.12237e-13
-1.11734e-13
-1.11468e-13
-1.11079e-13
-1.10925e-13
-1.10435e-13
-1.09669e-13
-1.09157e-13
-1.08444e-13
-1.08323e-13
-1.07801e-13
-1.07134e-13
-1.06915e-13
-1.06365e-13
-1.06311e-13
-1.05639e-13
-1.0461e-13
-1.04279e-13
-1.04221e-13
-1.04145e-13
-1.03161e-13
-1.01893e-13
-1.01609e-13
-1.00788e-13
-9.96888e-14
-9.90304e-14
-9.80308e-14
-9.69349e-14
-9.6104e-14
-9.55419e-14
-9.49669e-14
-9.37745e-14
-9.27314e-14
-9.21433e-14
-9.12223e-14
-8.99879e-14
-8.88402e-14
-8.87111e-14
-8.80415e-14
-8.77032e-14
-8.72941e-14
-8.67427e-14
-8.66715e-14
-8.62497e-14
-8.55773e-14
-8.53788e-14
-8.55211e-14
-8.55792e-14
-8.50952e-14
-8.4873e-14
-8.51266e-14
-8.47916e-14
-8.45487e-14
-8.49009e-14
-8.52549e-14
-8.51244e-14
-8.47523e-14
-8.48626e-14
-8.4511e-14
-8.44931e-14
-8.45824e-14
-8.44681e-14
-8.46153e-14
-8.44231e-14
-8.44522e-14
-8.42348e-14
-8.39642e-14
-8.37141e-14
-8.31139e-14
-8.28375e-14
-8.25643e-14
-8.20746e-14
-8.18573e-14
-8.17646e-14
-8.16042e-14
-8.14339e-14
-8.08996e-14
-8.07398e-14
-8.09472e-14
-8.07183e-14
-8.06782e-14
-8.02419e-14
-8.03434e-14
-8.03439e-14
-8.04765e-14
-8.03833e-14
-7.94939e-14
-7.95496e-14
-7.97199e-14
-7.89198e-14
-7.8621e-14
-7.82887e-14
-7.78923e-14
-7.79363e-14
-7.70765e-14
-7.61366e-14
-7.58629e-14
-7.54354e-14
-7.49039e-14
-7.42536e-14
-7.34886e-14
-7.26845e-14
-7.21043e-14
-7.06448e-14
-6.93915e-14
-6.83716e-14
-6.64918e-14
-6.39718e-14
-6.08782e-14
-5.78762e-14
-5.36834e-14
-4.88815e-14
-5.20023e-14
-5.46266e-14
-5.98786e-14
-6.46679e-14
-6.9381e-14
-7.3676e-14
-7.73541e-14
-8.05634e-14
-8.35048e-14
-8.61218e-14
-8.82003e-14
-9.0253e-14
-9.24396e-14
-9.45646e-14
-9.66881e-14
-9.85583e-14
-1.00362e-13
-1.02211e-13
-1.03792e-13
-1.05348e-13
-1.06485e-13
-1.08065e-13
-1.0939e-13
-1.10653e-13
-1.11913e-13
-1.13285e-13
-1.14688e-13
-1.15845e-13
-1.17155e-13
-1.18574e-13
-1.1973e-13
-1.20523e-13
-1.21151e-13
-1.21747e-13
-1.22933e-13
-1.23778e-13
-1.24546e-13
-1.251e-13
-1.25613e-13
-1.26402e-13
-1.27013e-13
-1.27698e-13
-1.28632e-13
-1.29589e-13
-1.3038e-13
-1.31218e-13
-1.32265e-13
-1.32906e-13
-1.33587e-13
-1.3425e-13
-1.34713e-13
-1.35258e-13
-1.36036e-13
-1.36868e-13
-1.37642e-13
-1.3844e-13
-1.39226e-13
-1.39619e-13
-1.40393e-13
-1.40995e-13
-1.41651e-13
-1.42322e-13
-1.42974e-13
-1.43579e-13
-1.44398e-13
-1.44808e-13
-1.45525e-13
-1.46151e-13
-1.46797e-13
-1.47539e-13
-1.48183e-13
-1.48527e-13
-1.49182e-13
-1.4968e-13
-1.50318e-13
-1.50983e-13
-1.5117e-13
-1.51593e-13
-1.52145e-13
-1.52439e-13
-1.53149e-13
-1.53317e-13
-1.53418e-13
-1.53651e-13
-1.54139e-13
-1.54471e-13
-1.54976e-13
-1.55059e-13
-1.55298e-13
-1.55708e-13
-1.55952e-13
-1.56234e-13
-1.56436e-13
-1.56837e-13
-1.57331e-13
-1.57636e-13
-1.57797e-13
-1.58128e-13
-1.58718e-13
-1.58712e-13
-1.58606e-13
-1.5903e-13
-1.58899e-13
-1.58888e-13
-1.59044e-13
-1.59109e-13
-1.58825e-13
-1.58809e-13
-1.58808e-13
-1.5867e-13
-1.58794e-13
-1.5863e-13
-1.58531e-13
-1.5852e-13
-1.58658e-13
-1.58697e-13
-1.58541e-13
-1.58164e-13
-1.58132e-13
-1.58223e-13
-1.58027e-13
-1.57953e-13
-1.57409e-13
-1.5768e-13
-1.58091e-13
-1.57562e-13
-1.57022e-13
-1.57215e-13
-1.57229e-13
-1.57049e-13
-1.57051e-13
-1.56617e-13
-1.56269e-13
-1.56341e-13
-1.56032e-13
-1.55467e-13
-1.5479e-13
-1.54668e-13
-1.54194e-13
-1.53488e-13
-1.52574e-13
-1.52103e-13
-1.51157e-13
-1.50666e-13
-1.50128e-13
-1.49755e-13
-1.49114e-13
-1.48154e-13
-1.47627e-13
-1.46886e-13
-1.46573e-13
-1.4585e-13
-1.45164e-13
-1.44948e-13
-1.44766e-13
-1.44128e-13
-1.43668e-13
-1.43147e-13
-1.42399e-13
-1.41773e-13
-1.41518e-13
-1.40983e-13
-1.4028e-13
-1.39697e-13
-1.39366e-13
-1.38768e-13
-1.38642e-13
-1.38523e-13
-1.38492e-13
-1.37951e-13
-1.37171e-13
-1.36494e-13
-1.36645e-13
-1.3638e-13
-1.36006e-13
-1.36018e-13
-1.35405e-13
-1.35095e-13
-1.34456e-13
-1.33868e-13
-1.33629e-13
-1.32752e-13
-1.31979e-13
-1.31543e-13
-1.31223e-13
-1.30272e-13
-1.29651e-13
-1.29192e-13
-1.28527e-13
-1.27386e-13
-1.2647e-13
-1.25601e-13
-1.24977e-13
-1.24135e-13
-1.23467e-13
-1.22854e-13
-1.2121e-13
-1.20033e-13
-1.19283e-13
-1.18529e-13
-1.17519e-13
-1.16814e-13
-1.16145e-13
-1.15887e-13
-1.1569e-13
-1.14562e-13
-1.13659e-13
-1.12726e-13
-1.12346e-13
-1.11677e-13
-1.11353e-13
-1.1113e-13
-1.10917e-13
-1.10557e-13
-1.09781e-13
-1.09302e-13
-1.08415e-13
-1.07935e-13
-1.08002e-13
-1.07396e-13
-1.06766e-13
-1.06406e-13
-1.06226e-13
-1.05665e-13
-1.0478e-13
-1.04213e-13
-1.0424e-13
-1.04421e-13
-1.03213e-13
-1.01728e-13
-1.01433e-13
-1.00819e-13
-9.98456e-14
-9.92212e-14
-9.81452e-14
-9.71969e-14
-9.60063e-14
-9.50671e-14
-9.49523e-14
-9.39165e-14
-9.27142e-14
-9.23727e-14
-9.12696e-14
-8.9893e-14
-8.8889e-14
-8.86473e-14
-8.80342e-14
-8.7541e-14
-8.71111e-14
-8.69272e-14
-8.65131e-14
-8.61882e-14
-8.56223e-14
-8.53729e-14
-8.56265e-14
-8.52273e-14
-8.51905e-14
-8.49091e-14
-8.49393e-14
-8.48754e-14
-8.47795e-14
-8.50599e-14
-8.49584e-14
-8.4974e-14
-8.47277e-14
-8.4745e-14
-8.48302e-14
-8.42728e-14
-8.45797e-14
-8.47883e-14
-8.43358e-14
-8.43888e-14
-8.43182e-14
-8.43998e-14
-8.44251e-14
-8.33328e-14
-8.30543e-14
-8.27721e-14
-8.23856e-14
-8.2367e-14
-8.176e-14
-8.19471e-14
-8.15247e-14
-8.13275e-14
-8.12209e-14
-8.05177e-14
-8.0939e-14
-8.11641e-14
-8.07741e-14
-8.02686e-14
-7.99975e-14
-8.04992e-14
-8.05981e-14
-8.03054e-14
-7.97283e-14
-7.92466e-14
-7.96758e-14
-7.91495e-14
-7.87136e-14
-7.83755e-14
-7.77663e-14
-7.78157e-14
-7.70126e-14
-7.60896e-14
-7.60906e-14
-7.53257e-14
-7.51088e-14
-7.4666e-14
-7.35374e-14
-7.28256e-14
-7.20212e-14
-7.09421e-14
-6.97583e-14
-6.83792e-14
-6.72609e-14
-6.47554e-14
-6.18566e-14
-5.91404e-14
-5.57813e-14
-5.28688e-14
-5.61216e-14
-5.82918e-14
-6.23179e-14
-6.63429e-14
-7.05252e-14
-7.46435e-14
-7.78484e-14
-8.09244e-14
-8.3902e-14
-8.63979e-14
-8.82987e-14
-9.05858e-14
-9.25521e-14
-9.48159e-14
-9.67528e-14
-9.85789e-14
-1.00398e-13
-1.0216e-13
-1.04045e-13
-1.05449e-13
-1.06478e-13
-1.08277e-13
-1.09445e-13
-1.10703e-13
-1.11951e-13
-1.13193e-13
-1.14778e-13
-1.15859e-13
-1.17281e-13
-1.18713e-13
-1.19654e-13
-1.20452e-13
-1.21336e-13
-1.21721e-13
-1.22932e-13
-1.23619e-13
-1.24528e-13
-1.25184e-13
-1.25627e-13
-1.26433e-13
-1.2705e-13
-1.27793e-13
-1.28602e-13
-1.2944e-13
-1.30379e-13
-1.31121e-13
-1.32324e-13
-1.33025e-13
-1.33574e-13
-1.34091e-13
-1.34643e-13
-1.35281e-13
-1.35935e-13
-1.36854e-13
-1.37639e-13
-1.38547e-13
-1.39251e-13
-1.39472e-13
-1.40487e-13
-1.4094e-13
-1.41539e-13
-1.42351e-13
-1.43022e-13
-1.43505e-13
-1.44291e-13
-1.44838e-13
-1.45568e-13
-1.46055e-13
-1.46644e-13
-1.47799e-13
-1.48201e-13
-1.48512e-13
-1.49372e-13
-1.49718e-13
-1.50385e-13
-1.50958e-13
-1.51223e-13
-1.51634e-13
-1.52125e-13
-1.52385e-13
-1.53042e-13
-1.53368e-13
-1.53457e-13
-1.53615e-13
-1.54193e-13
-1.54344e-13
-1.5491e-13
-1.55326e-13
-1.55436e-13
-1.55727e-13
-1.55892e-13
-1.56191e-13
-1.5654e-13
-1.56834e-13
-1.57281e-13
-1.57604e-13
-1.57775e-13
-1.58111e-13
-1.58884e-13
-1.58792e-13
-1.58434e-13
-1.5891e-13
-1.58861e-13
-1.59072e-13
-1.59093e-13
-1.59086e-13
-1.58904e-13
-1.58755e-13
-1.58902e-13
-1.58625e-13
-1.58703e-13
-1.58585e-13
-1.58402e-13
-1.5846e-13
-1.58812e-13
-1.58938e-13
-1.58573e-13
-1.57979e-13
-1.57994e-13
-1.5821e-13
-1.58264e-13
-1.58044e-13
-1.57529e-13
-1.57602e-13
-1.57918e-13
-1.57461e-13
-1.57039e-13
-1.57054e-13
-1.57235e-13
-1.57224e-13
-1.57175e-13
-1.56649e-13
-1.56203e-13
-1.56457e-13
-1.56138e-13
-1.55429e-13
-1.54862e-13
-1.54728e-13
-1.54155e-13
-1.53373e-13
-1.52515e-13
-1.52042e-13
-1.51171e-13
-1.50605e-13
-1.50197e-13
-1.49927e-13
-1.48855e-13
-1.47999e-13
-1.47747e-13
-1.46903e-13
-1.4647e-13
-1.45875e-13
-1.45241e-13
-1.44889e-13
-1.44667e-13
-1.44168e-13
-1.43786e-13
-1.4321e-13
-1.42573e-13
-1.41523e-13
-1.41564e-13
-1.40911e-13
-1.39921e-13
-1.39565e-13
-1.39623e-13
-1.38988e-13
-1.38467e-13
-1.38561e-13
-1.38591e-13
-1.37962e-13
-1.37183e-13
-1.36435e-13
-1.36354e-13
-1.36511e-13
-1.36224e-13
-1.36133e-13
-1.35345e-13
-1.35086e-13
-1.34583e-13
-1.33738e-13
-1.33632e-13
-1.32958e-13
-1.32093e-13
-1.31555e-13
-1.31072e-13
-1.30425e-13
-1.29735e-13
-1.29146e-13
-1.28426e-13
-1.27454e-13
-1.26525e-13
-1.25431e-13
-1.24701e-13
-1.24299e-13
-1.23433e-13
-1.22852e-13
-1.21347e-13
-1.20142e-13
-1.19217e-13
-1.18539e-13
-1.17509e-13
-1.16566e-13
-1.15981e-13
-1.16086e-13
-1.15563e-13
-1.14511e-13
-1.13516e-13
-1.12691e-13
-1.124e-13
-1.11651e-13
-1.11609e-13
-1.11068e-13
-1.10846e-13
-1.10588e-13
-1.09881e-13
-1.09261e-13
-1.0831e-13
-1.07976e-13
-1.08088e-13
-1.07578e-13
-1.06662e-13
-1.06499e-13
-1.0629e-13
-1.0573e-13
-1.04879e-13
-1.04068e-13
-1.04292e-13
-1.04591e-13
-1.03233e-13
-1.0183e-13
-1.01261e-13
-1.00827e-13
-1.00108e-13
-9.92821e-14
-9.81949e-14
-9.72412e-14
-9.60191e-14
-9.50291e-14
-9.47799e-14
-9.39903e-14
-9.31802e-14
-9.23678e-14
-9.10085e-14
-8.97289e-14
-8.91004e-14
-8.88486e-14
-8.78422e-14
-8.73008e-14
-8.70585e-14
-8.67803e-14
-8.62888e-14
-8.62548e-14
-8.59447e-14
-8.54894e-14
-8.53641e-14
-8.48934e-14
-8.51762e-14
-8.48755e-14
-8.48783e-14
-8.50588e-14
-8.48684e-14
-8.49277e-14
-8.48263e-14
-8.49658e-14
-8.49665e-14
-8.45041e-14
-8.47414e-14
-8.4361e-14
-8.46335e-14
-8.4679e-14
-8.42927e-14
-8.43655e-14
-8.4403e-14
-8.45128e-14
-8.44903e-14
-8.33099e-14
-8.2982e-14
-8.26318e-14
-8.23165e-14
-8.24487e-14
-8.19167e-14
-8.1906e-14
-8.13886e-14
-8.12128e-14
-8.1295e-14
-8.05586e-14
-8.10371e-14
-8.13526e-14
-8.08213e-14
-8.0151e-14
-8.00745e-14
-8.04676e-14
-8.05963e-14
-8.0222e-14
-7.99327e-14
-7.95003e-14
-7.95241e-14
-7.9266e-14
-7.88328e-14
-7.83387e-14
-7.78145e-14
-7.73923e-14
-7.69321e-14
-7.64228e-14
-7.61211e-14
-7.55175e-14
-7.51887e-14
-7.47395e-14
-7.3695e-14
-7.30222e-14
-7.22252e-14
-7.11173e-14
-7.0133e-14
-6.88888e-14
-6.76125e-14
-6.54723e-14
-6.30028e-14
-6.05599e-14
-5.80184e-14
-5.62308e-14
-5.94432e-14
-6.1226e-14
-6.45977e-14
-6.80946e-14
-7.18516e-14
-7.55133e-14
-7.85046e-14
-8.1371e-14
-8.4413e-14
-8.65685e-14
-8.86049e-14
-9.08383e-14
-9.29827e-14
-9.49374e-14
-9.67712e-14
-9.85864e-14
-1.00326e-13
-1.02211e-13
-1.04251e-13
-1.05541e-13
-1.06704e-13
-1.08368e-13
-1.09597e-13
-1.10634e-13
-1.11893e-13
-1.13154e-13
-1.14586e-13
-1.161e-13
-1.17372e-13
-1.18793e-13
-1.19578e-13
-1.20417e-13
-1.21337e-13
-1.2181e-13
-1.22913e-13
-1.2349e-13
-1.24413e-13
-1.25184e-13
-1.25722e-13
-1.26481e-13
-1.27114e-13
-1.27731e-13
-1.28662e-13
-1.2941e-13
-1.3037e-13
-1.30999e-13
-1.32257e-13
-1.33094e-13
-1.33485e-13
-1.34094e-13
-1.34499e-13
-1.35515e-13
-1.35881e-13
-1.36912e-13
-1.37665e-13
-1.38506e-13
-1.39172e-13
-1.39588e-13
-1.40415e-13
-1.41043e-13
-1.41505e-13
-1.42236e-13
-1.43289e-13
-1.43407e-13
-1.44183e-13
-1.44998e-13
-1.45745e-13
-1.46025e-13
-1.46525e-13
-1.47927e-13
-1.48178e-13
-1.48602e-13
-1.49582e-13
-1.49872e-13
-1.50399e-13
-1.51005e-13
-1.51322e-13
-1.51824e-13
-1.51956e-13
-1.5238e-13
-1.52942e-13
-1.53363e-13
-1.53489e-13
-1.53534e-13
-1.54073e-13
-1.54312e-13
-1.54967e-13
-1.55411e-13
-1.55708e-13
-1.5563e-13
-1.55811e-13
-1.56318e-13
-1.56529e-13
-1.56967e-13
-1.57422e-13
-1.57377e-13
-1.57711e-13
-1.58149e-13
-1.58953e-13
-1.58976e-13
-1.58356e-13
-1.58805e-13
-1.58775e-13
-1.59248e-13
-1.59254e-13
-1.59103e-13
-1.58822e-13
-1.5875e-13
-1.58954e-13
-1.58525e-13
-1.58666e-13
-1.58577e-13
-1.58193e-13
-1.58589e-13
-1.58869e-13
-1.58818e-13
-1.58542e-13
-1.57988e-13
-1.57826e-13
-1.58106e-13
-1.58489e-13
-1.58107e-13
-1.57478e-13
-1.57655e-13
-1.57777e-13
-1.57353e-13
-1.57169e-13
-1.57059e-13
-1.56972e-13
-1.57346e-13
-1.57281e-13
-1.56661e-13
-1.5613e-13
-1.56405e-13
-1.56168e-13
-1.55457e-13
-1.55138e-13
-1.54715e-13
-1.5402e-13
-1.53313e-13
-1.52528e-13
-1.51919e-13
-1.51384e-13
-1.50543e-13
-1.50114e-13
-1.49886e-13
-1.4879e-13
-1.47929e-13
-1.47561e-13
-1.46897e-13
-1.46435e-13
-1.45922e-13
-1.4532e-13
-1.44852e-13
-1.44665e-13
-1.44209e-13
-1.43721e-13
-1.4316e-13
-1.4259e-13
-1.4154e-13
-1.41535e-13
-1.40735e-13
-1.39742e-13
-1.3951e-13
-1.39844e-13
-1.39042e-13
-1.38573e-13
-1.38383e-13
-1.38526e-13
-1.38014e-13
-1.37314e-13
-1.36283e-13
-1.36158e-13
-1.36548e-13
-1.3644e-13
-1.36171e-13
-1.35361e-13
-1.34949e-13
-1.34719e-13
-1.3388e-13
-1.33691e-13
-1.33027e-13
-1.32153e-13
-1.31626e-13
-1.30942e-13
-1.30735e-13
-1.29918e-13
-1.29185e-13
-1.28382e-13
-1.27483e-13
-1.2668e-13
-1.2522e-13
-1.24435e-13
-1.24304e-13
-1.2343e-13
-1.2275e-13
-1.21505e-13
-1.20177e-13
-1.19244e-13
-1.18384e-13
-1.17602e-13
-1.16437e-13
-1.16144e-13
-1.15995e-13
-1.15398e-13
-1.14502e-13
-1.13204e-13
-1.12528e-13
-1.12432e-13
-1.11872e-13
-1.11786e-13
-1.1104e-13
-1.10696e-13
-1.10634e-13
-1.09784e-13
-1.09051e-13
-1.08278e-13
-1.08134e-13
-1.08266e-13
-1.07631e-13
-1.06967e-13
-1.06443e-13
-1.06324e-13
-1.05775e-13
-1.04833e-13
-1.04158e-13
-1.04226e-13
-1.04545e-13
-1.03258e-13
-1.01876e-13
-1.01167e-13
-1.00925e-13
-1.00345e-13
-9.93507e-14
-9.83565e-14
-9.74042e-14
-9.61038e-14
-9.50729e-14
-9.45961e-14
-9.42114e-14
-9.33551e-14
-9.21832e-14
-9.07597e-14
-8.95821e-14
-8.94231e-14
-8.89489e-14
-8.75228e-14
-8.71145e-14
-8.69964e-14
-8.67846e-14
-8.59694e-14
-8.62812e-14
-8.61966e-14
-8.57694e-14
-8.50938e-14
-8.46767e-14
-8.51076e-14
-8.48497e-14
-8.48609e-14
-8.52537e-14
-8.5044e-14
-8.47009e-14
-8.4745e-14
-8.5108e-14
-8.49426e-14
-8.43631e-14
-8.46661e-14
-8.4641e-14
-8.46026e-14
-8.46161e-14
-8.44088e-14
-8.43443e-14
-8.45933e-14
-8.45615e-14
-8.43e-14
-8.36661e-14
-8.31137e-14
-8.2418e-14
-8.21341e-14
-8.23526e-14
-8.20518e-14
-8.18964e-14
-8.12901e-14
-8.11233e-14
-8.13369e-14
-8.09177e-14
-8.1065e-14
-8.14141e-14
-8.07733e-14
-7.99803e-14
-8.0325e-14
-8.05755e-14
-8.06532e-14
-8.02678e-14
-7.98147e-14
-7.98742e-14
-7.94493e-14
-7.92518e-14
-7.87617e-14
-7.83992e-14
-7.79466e-14
-7.69905e-14
-7.68657e-14
-7.67649e-14
-7.61358e-14
-7.58099e-14
-7.51859e-14
-7.48359e-14
-7.38534e-14
-7.31653e-14
-7.26215e-14
-7.12437e-14
-7.0508e-14
-6.934e-14
-6.79814e-14
-6.63587e-14
-6.43445e-14
-6.20835e-14
-6.03803e-14
-5.91732e-14
-6.23865e-14
-6.37311e-14
-6.6891e-14
-6.96176e-14
-7.30543e-14
-7.63916e-14
-7.91956e-14
-8.21263e-14
-8.48212e-14
-8.66867e-14
-8.90764e-14
-9.10676e-14
-9.32044e-14
-9.49425e-14
-9.6925e-14
-9.89429e-14
-1.00503e-13