/*--------------------------------*- C++ -*----------------------------------*\
| =========                 |                                                 |
| \\      /  F ield         | OpenFOAM: The Open Source CFD Toolbox           |
|  \\    /   O peration     | Version:  2112                                  |
|   \\  /    A nd           | Website:  www.openfoam.com                      |
|    \\/     M anipulation  |                                                 |
\*---------------------------------------------------------------------------*/
FoamFile
{
    version     2.0;
    format      ascii;
    arch        "LSB;label=32;scalar=64";
    class       surfaceScalarField;
    location    "2";
    object      phi;
}
// * * * * * * * * * * * * * * * * * * * * * * * * * * * * * * * * * * * * * //

dimensions      [0 3 -1 0 0 0 0];

oriented        oriented;

internalField   nonuniform List<scalar> 
50800
(
2.3859e-05
2.27839e-18
2.3859e-05
4.507e-19
2.3859e-05
1.93221e-19
2.3859e-05
7.79137e-20
2.3859e-05
5.74184e-20
2.3859e-05
3.64017e-20
2.3859e-05
2.29416e-20
2.3859e-05
2.23132e-20
2.3859e-05
2.24414e-20
2.3859e-05
1.60265e-20
2.3859e-05
3.08666e-22
2.3859e-05
-1.86429e-20
2.3859e-05
9.79552e-21
2.3859e-05
1.43043e-20
2.3859e-05
1.04782e-22
2.3859e-05
3.07198e-20
2.3859e-05
2.1354e-20
2.3859e-05
7.78005e-21
2.3859e-05
-6.42125e-21
2.3859e-05
-6.62961e-21
2.3859e-05
1.24617e-20
2.3859e-05
1.63721e-20
2.3859e-05
6.64622e-21
2.3859e-05
-7.01273e-21
2.3859e-05
-2.19234e-20
2.3859e-05
-3.73268e-22
2.3859e-05
3.48568e-20
2.3859e-05
1.11787e-20
2.3859e-05
-1.3503e-20
2.3859e-05
5.41066e-21
2.3859e-05
1.98532e-20
2.3859e-05
2.83262e-20
2.3859e-05
-2.33538e-21
2.3859e-05
-2.43569e-20
2.3859e-05
-5.96757e-21
2.3859e-05
-1.51079e-20
2.3859e-05
1.88188e-20
2.3859e-05
-6.25822e-21
2.3859e-05
-3.0547e-20
2.3859e-05
1.83682e-20
2.3859e-05
-5.52527e-21
2.3859e-05
3.1387e-21
2.3859e-05
5.96492e-21
2.3859e-05
-3.20246e-20
2.3859e-05
1.04455e-20
2.3859e-05
-1.10116e-20
2.3859e-05
1.87055e-20
2.3859e-05
1.81916e-20
2.3859e-05
5.24697e-21
2.3859e-05
1.03667e-20
2.3859e-05
-3.43243e-20
2.3859e-05
2.96434e-20
2.3859e-05
-5.63167e-22
2.3859e-05
6.88181e-21
2.3859e-05
5.37353e-20
2.3859e-05
-2.35275e-20
2.3859e-05
4.99869e-21
2.3859e-05
-8.36592e-21
2.3859e-05
5.62344e-21
2.3859e-05
3.68729e-20
2.3859e-05
-6.06404e-20
2.3859e-05
3.46384e-20
2.3859e-05
7.98486e-22
2.3859e-05
-1.11975e-20
2.3859e-05
3.63465e-20
2.3859e-05
-4.25546e-20
2.3859e-05
1.2385e-20
2.3859e-05
2.75185e-21
2.3859e-05
1.24662e-21
2.3859e-05
3.14418e-20
2.3859e-05
-2.12747e-20
2.3859e-05
-5.15246e-21
2.3859e-05
-2.6084e-20
2.3859e-05
-1.4587e-20
2.3859e-05
6.15531e-20
2.3859e-05
-3.09843e-20
2.3859e-05
-5.82912e-20
2.3859e-05
2.83865e-20
2.3859e-05
-5.65756e-22
2.3859e-05
4.30093e-20
2.3859e-05
-1.24216e-20
2.3859e-05
-6.60352e-20
2.3859e-05
7.22438e-21
2.3859e-05
8.68715e-21
2.3859e-05
2.08577e-20
2.3859e-05
-8.7939e-21
2.3859e-05
-2.20449e-20
2.3859e-05
-2.41994e-20
2.3859e-05
4.64776e-21
2.3859e-05
7.21292e-20
2.3859e-05
-2.30845e-20
2.3859e-05
-6.09546e-20
2.3859e-05
2.5464e-21
2.3859e-05
5.14182e-20
2.3859e-05
6.70994e-22
2.3859e-05
-6.88892e-20
2.3859e-05
-2.39135e-21
2.3859e-05
-1.76343e-20
2.3859e-05
2.95472e-20
2.3859e-05
3.27494e-20
2.3859e-05
-6.28961e-20
2.3859e-05
2.67404e-20
2.3859e-05
-3.77735e-20
2.3859e-05
3.58045e-21
2.3859e-05
3.31452e-20
2.3859e-05
1.45712e-20
2.3859e-05
-6.59995e-20
2.3859e-05
-3.20923e-20
2.3859e-05
5.16702e-20
2.3859e-05
3.04422e-20
2.3859e-05
5.11907e-20
2.3859e-05
-1.38386e-19
2.3859e-05
8.82658e-21
2.3859e-05
1.01294e-19
2.3859e-05
2.98796e-20
2.3859e-05
1.167e-21
2.3859e-05
-9.77688e-20
2.3859e-05
-1.89688e-20
2.3859e-05
9.52355e-20
2.3859e-05
5.23685e-20
2.3859e-05
-3.87089e-20
2.3859e-05
-1.18042e-19
2.3859e-05
-2.81952e-20
2.3859e-05
1.25187e-19
2.3859e-05
7.34267e-20
2.3859e-05
-3.49376e-20
2.3859e-05
-1.23428e-19
2.3859e-05
2.36299e-21
2.3859e-05
1.26683e-19
2.3859e-05
8.13507e-21
2.3859e-05
-2.84601e-20
2.3859e-05
-7.29804e-20
2.3859e-05
1.83119e-20
2.3859e-05
1.02197e-19
2.3859e-05
7.58678e-21
2.3859e-05
-1.59715e-21
2.3859e-05
-6.34369e-20
2.3859e-05
4.44094e-21
2.3859e-05
9.95152e-20
2.3859e-05
2.53385e-20
2.3859e-05
-3.35868e-20
2.3859e-05
-7.7584e-20
2.3859e-05
2.20073e-20
2.3859e-05
5.76614e-20
2.3859e-05
-1.28012e-20
2.3859e-05
2.33661e-22
2.3859e-05
-5.68005e-20
2.3859e-05
2.65337e-20
2.3859e-05
9.07763e-21
2.3859e-05
-8.91492e-21
2.3859e-05
7.27936e-20
2.3859e-05
-8.05438e-20
2.3859e-05
-7.20644e-20
2.3859e-05
4.9189e-20
2.3859e-05
3.81435e-20
2.3859e-05
3.7502e-20
2.3859e-05
-5.70312e-20
2.3859e-05
-7.24527e-20
2.3859e-05
2.20872e-20
2.3859e-05
1.13052e-20
2.3859e-05
9.65022e-20
2.3859e-05
-9.76649e-20
2.3859e-05
-3.79325e-20
2.3859e-05
9.42824e-20
2.3859e-05
-9.12932e-20
2.3859e-05
3.42243e-20
2.3859e-05
-1.95713e-20
2.3859e-05
-6.19741e-20
2.3859e-05
7.36303e-20
2.3859e-05
1.03035e-20
2.3859e-05
8.37252e-21
2.3859e-05
-1.13014e-19
2.3859e-05
-3.40873e-21
2.3859e-05
7.10045e-20
2.3859e-05
-7.68167e-21
2.3859e-05
2.61698e-21
2.3859e-05
-6.80464e-20
2.3859e-05
9.95247e-20
2.3859e-05
-3.40586e-20
2.3859e-05
-2.02715e-20
2.3859e-05
1.21162e-19
2.3859e-05
-1.38631e-19
2.3859e-05
-2.83823e-21
2.3859e-05
7.65274e-20
2.3859e-05
-2.34148e-20
2.3859e-05
1.19944e-19
2.3859e-05
-9.1939e-20
2.3859e-05
-1.65231e-20
2.3859e-05
1.1549e-19
2.3859e-05
-8.55523e-20
2.3859e-05
3.47271e-20
2.3859e-05
-2.18512e-20
2.3859e-05
-7.95234e-20
2.3859e-05
1.10111e-19
2.3859e-05
-1.2294e-20
2.3859e-05
3.29666e-20
2.3859e-05
-5.20189e-20
2.3859e-05
-5.07724e-20
2.3859e-05
1.27054e-19
2.3859e-05
-6.96278e-20
2.3859e-05
1.30877e-20
2.3859e-05
-6.09822e-20
2.3859e-05
1.52812e-21
2.3859e-05
1.70435e-19
2.3859e-05
-3.15341e-20
2.3859e-05
-6.50622e-20
2.3859e-05
-6.75082e-20
2.3859e-05
5.35292e-20
2.3859e-05
7.24956e-20
2.3859e-05
-2.86916e-20
2.3859e-05
-5.91965e-20
2.3859e-05
-9.50885e-20
2.3859e-05
2.31029e-19
2.3859e-05
1.10244e-20
2.3859e-05
-2.41266e-19
2.3859e-05
1.64573e-19
2.3859e-05
-3.21608e-20
2.3859e-05
-5.9285e-20
2.3859e-05
-2.68597e-20
2.3859e-05
-1.49122e-19
2.3859e-05
2.28621e-19
2.3859e-05
4.42058e-20
2.3859e-05
-6.78776e-20
2.3859e-05
-1.54705e-20
2.3859e-05
-1.57255e-19
2.3859e-05
2.15377e-19
2.3859e-05
1.13127e-20
2.3859e-05
-6.45061e-20
2.3859e-05
5.22092e-20
2.3859e-05
-1.27043e-19
2.3859e-05
1.47365e-19
2.3859e-05
-4.39687e-20
2.3859e-05
-5.18165e-20
2.3859e-05
8.32045e-20
2.3859e-05
-1.75697e-19
2.3859e-05
4.9961e-20
2.3859e-05
-5.51317e-21
2.3859e-05
3.19639e-20
2.3859e-05
9.86909e-20
2.3859e-05
-1.8217e-19
2.3859e-05
1.12778e-19
2.3859e-05
-4.7016e-20
2.3859e-05
-9.66242e-22
2.3859e-05
1.0659e-19
2.3859e-05
-2.63977e-19
2.3859e-05
2.09589e-20
2.3859e-05
3.92968e-20
2.3859e-05
4.71468e-20
2.3859e-05
2.37031e-20
2.3859e-05
-1.94694e-19
2.3859e-05
1.91324e-19
2.3859e-05
1.7449e-20
2.3859e-05
-9.02834e-20
2.3859e-05
-1.22805e-20
2.3859e-05
-1.66855e-19
2.3859e-05
2.55901e-19
2.3859e-05
-7.74008e-21
2.3859e-05
-5.32222e-20
2.3859e-05
1.1211e-19
2.3859e-05
-1.92962e-19
2.3859e-05
1.07634e-19
2.3859e-05
2.25988e-20
2.3859e-05
-2.20288e-20
2.3859e-05
4.4249e-20
2.3859e-05
-1.29296e-19
2.3859e-05
1.47089e-19
2.3859e-05
1.80319e-20
2.3859e-05
-2.37858e-20
2.3859e-05
1.04033e-20
2.3859e-05
-1.67356e-19
2.3859e-05
9.3833e-20
2.3859e-05
1.75405e-20
2.3859e-05
4.3342e-20
2.3859e-05
3.40477e-20
2.3859e-05
-1.38713e-19
2.3859e-05
1.02691e-19
2.3859e-05
2.23395e-20
2.3859e-05
-4.90059e-20
2.3859e-05
1.0536e-19
2.3859e-05
-1.32193e-19
2.3859e-05
3.16191e-20
2.3859e-05
3.61968e-20
2.3859e-05
-2.5387e-20
2.3859e-05
3.74644e-20
2.3859e-05
-1.54527e-19
2.3859e-05
3.37862e-20
2.3859e-05
1.12445e-19
2.3859e-05
-7.36179e-21
2.3859e-05
-9.90277e-20
2.3859e-05
-1.10248e-19
2.3859e-05
1.42993e-19
2.3859e-05
5.32144e-20
2.3859e-05
-3.97145e-20
2.3859e-05
-3.30403e-20
2.3859e-05
-4.76448e-20
2.3859e-05
1.21998e-19
2.3859e-05
3.06851e-21
2.3859e-05
-1.84327e-20
2.3859e-05
-8.59949e-20
2.3859e-05
-5.51103e-20
2.3859e-05
1.35792e-19
2.3859e-05
2.51347e-20
2.3859e-05
5.09469e-20
2.3859e-05
-1.17249e-19
2.3859e-05
-1.17389e-19
2.3859e-05
8.73973e-20
2.3859e-05
1.09348e-20
2.3859e-05
9.9502e-20
2.3859e-05
-1.0011e-19
2.3859e-05
6.91221e-21
2.3859e-05
7.00394e-20
2.3859e-05
-9.71645e-20
2.3859e-05
1.33778e-19
2.3859e-05
1.44414e-21
2.3859e-05
-4.25429e-20
2.3859e-05
1.00697e-19
2.3859e-05
-3.20327e-20
2.3859e-05
1.87901e-19
2.3859e-05
1.98908e-19
3.76239e-19
7.03774e-05
1.32485e-18
7.03774e-05
5.80688e-19
7.03774e-05
3.0478e-19
7.03774e-05
1.82269e-19
7.03774e-05
1.15486e-19
7.03774e-05
8.99025e-20
7.03774e-05
6.09923e-20
7.03774e-05
4.39182e-20
7.03774e-05
3.58699e-20
7.03774e-05
2.91332e-20
7.03774e-05
-1.67895e-21
7.03774e-05
-2.95784e-20
7.03774e-05
2.58563e-20
7.03774e-05
2.0358e-20
7.03774e-05
2.50465e-20
7.03774e-05
9.25631e-20
7.03774e-05
5.82348e-20
7.03774e-05
1.80888e-20
7.03774e-05
2.1496e-21
7.03774e-05
3.61194e-21
7.03774e-05
3.87018e-20
7.03774e-05
3.14718e-20
7.03774e-05
3.56692e-20
7.03774e-05
-1.58819e-20
7.03774e-05
-5.23653e-20
7.03774e-05
-2.42987e-21
7.03774e-05
7.14474e-20
7.03774e-05
3.43301e-20
7.03774e-05
4.4113e-21
7.03774e-05
1.24159e-20
7.03774e-05
4.84837e-20
7.03774e-05
9.54929e-20
7.03774e-05
-1.21501e-21
7.03774e-05
-6.35743e-20
7.03774e-05
-3.37994e-20
7.03774e-05
-3.32093e-20
7.03774e-05
4.08781e-20
7.03774e-05
-2.55404e-20
7.03774e-05
-7.94059e-20
7.03774e-05
1.98545e-20
7.03774e-05
-2.79557e-21
7.03774e-05
2.15767e-21
7.03774e-05
1.40736e-20
7.03774e-05
-6.12585e-20
7.03774e-05
-8.64331e-22
7.03774e-05
-7.1067e-21
7.03774e-05
3.91041e-20
7.03774e-05
4.66128e-20
7.03774e-05
2.18366e-20
7.03774e-05
3.14303e-20
7.03774e-05
-3.63353e-20
7.03774e-05
3.46726e-20
7.03774e-05
3.21694e-20
7.03774e-05
2.53049e-20
7.03774e-05
1.15721e-19
7.03774e-05
-1.06005e-20
7.03774e-05
1.25732e-20
7.03774e-05
-4.2416e-21
7.03774e-05
1.84398e-20
7.03774e-05
5.63399e-20
7.03774e-05
-1.34228e-19
7.03774e-05
8.21549e-20
7.03774e-05
1.4293e-20
7.03774e-05
-2.55812e-20
7.03774e-05
7.76986e-20
7.03774e-05
-9.42633e-20
7.03774e-05
2.3581e-20
7.03774e-05
-8.46776e-21
7.03774e-05
1.87235e-20
7.03774e-05
8.48241e-20
7.03774e-05
-4.4884e-20
7.03774e-05
-5.17187e-20
7.03774e-05
-7.53008e-20
7.03774e-05
-1.17601e-20
7.03774e-05
1.22121e-19
7.03774e-05
-8.16528e-20
7.03774e-05
-1.34336e-19
7.03774e-05
3.68479e-20
7.03774e-05
-1.95538e-20
7.03774e-05
7.52858e-20
7.03774e-05
-3.96811e-20
7.03774e-05
-1.48247e-19
7.03774e-05
-9.55195e-21
7.03774e-05
2.59819e-21
7.03774e-05
4.54643e-20
7.03774e-05
-2.52854e-20
7.03774e-05
-2.90539e-20
7.03774e-05
-5.27651e-20
7.03774e-05
-1.42579e-20
7.03774e-05
1.54076e-19
7.03774e-05
-6.05596e-20
7.03774e-05
-1.22132e-19
7.03774e-05
1.40902e-21
7.03774e-05
8.06499e-20
7.03774e-05
-1.03849e-21
7.03774e-05
-1.40376e-19
7.03774e-05
-5.83139e-20
7.03774e-05
-4.75465e-20
7.03774e-05
4.25684e-20
7.03774e-05
4.505e-20
7.03774e-05
-1.03272e-19
7.03774e-05
2.77651e-20
7.03774e-05
-8.79838e-20
7.03774e-05
-1.10917e-20
7.03774e-05
7.65596e-20
7.03774e-05
6.94927e-20
7.03774e-05
-1.60345e-19
7.03774e-05
-1.26366e-19
7.03774e-05
1.30614e-19
7.03774e-05
1.33682e-19
7.03774e-05
6.56027e-20
7.03774e-05
-2.72693e-19
7.03774e-05
1.29798e-20
7.03774e-05
2.34807e-19
7.03774e-05
1.16275e-19
7.03774e-05
-8.49958e-21
7.03774e-05
-2.39012e-19
7.03774e-05
-8.96593e-20
7.03774e-05
2.68089e-19
7.03774e-05
1.65985e-19
7.03774e-05
-1.45036e-19
7.03774e-05
-2.80186e-19
7.03774e-05
-7.14115e-20
7.03774e-05
3.0588e-19
7.03774e-05
2.32581e-19
7.03774e-05
-8.06314e-20
7.03774e-05
-3.15687e-19
7.03774e-05
2.85691e-20
7.03774e-05
2.98071e-19
7.03774e-05
4.61901e-20
7.03774e-05
-6.7894e-20
7.03774e-05
-1.51151e-19
7.03774e-05
3.83617e-20
7.03774e-05
2.36648e-19
7.03774e-05
6.27033e-20
7.03774e-05
-6.43046e-21
7.03774e-05
-1.5379e-19
7.03774e-05
-8.3467e-21
7.03774e-05
2.84482e-19
7.03774e-05
9.10838e-20
7.03774e-05
-9.97549e-20
7.03774e-05
-1.90892e-19
7.03774e-05
3.89827e-20
7.03774e-05
1.22059e-19
7.03774e-05
-3.05358e-20
7.03774e-05
-1.84656e-20
7.03774e-05
-1.55641e-19
7.03774e-05
6.30036e-20
7.03774e-05
6.42978e-20
7.03774e-05
-1.15898e-20
7.03774e-05
1.23647e-19
7.03774e-05
-1.86451e-19
7.03774e-05
-1.48973e-19
7.03774e-05
6.83241e-20
7.03774e-05
1.24628e-19
7.03774e-05
7.46028e-20
7.03774e-05
-1.42051e-19
7.03774e-05
-1.84232e-19
7.03774e-05
2.09363e-20
7.03774e-05
6.95362e-20
7.03774e-05
1.74626e-19
7.03774e-05
-1.95091e-19
7.03774e-05
-8.77212e-20
7.03774e-05
1.65591e-19
7.03774e-05
-1.56343e-19
7.03774e-05
1.62068e-20
7.03774e-05
-4.21044e-20
7.03774e-05
-1.04612e-19
7.03774e-05
1.24555e-19
7.03774e-05
3.52853e-20
7.03774e-05
-5.9329e-20
7.03774e-05
-2.4491e-19
7.03774e-05
-1.75056e-20
7.03774e-05
1.83727e-19
7.03774e-05
5.89772e-20
7.03774e-05
-4.66901e-20
7.03774e-05
-1.26243e-19
7.03774e-05
1.45888e-19
7.03774e-05
-6.1987e-20
7.03774e-05
6.00067e-20
7.03774e-05
1.8171e-19
7.03774e-05
-3.15492e-19
7.03774e-05
-2.03916e-20
7.03774e-05
2.08976e-19
7.03774e-05
4.33376e-20
7.03774e-05
2.02417e-19
7.03774e-05
-1.55999e-19
7.03774e-05
-4.78798e-20
7.03774e-05
2.30758e-19
7.03774e-05
-1.06396e-19
7.03774e-05
3.54896e-21
7.03774e-05
-5.87443e-20
7.03774e-05
-1.40812e-19
7.03774e-05
1.56138e-19
7.03774e-05
6.4776e-20
7.03774e-05
6.45021e-20
7.03774e-05
-8.35451e-20
7.03774e-05
-1.02675e-19
7.03774e-05
1.69763e-19
7.03774e-05
-5.84653e-20
7.03774e-05
9.5191e-21
7.03774e-05
-1.03174e-19
7.03774e-05
4.83554e-20
7.03774e-05
2.79463e-19
7.03774e-05
-3.10432e-21
7.03774e-05
-1.02096e-19
7.03774e-05
-1.76957e-19
7.03774e-05
8.88388e-20
7.03774e-05
1.16171e-19
7.03774e-05
-4.55323e-20
7.03774e-05
-7.39267e-20
7.03774e-05
-1.8348e-19
7.03774e-05
4.46103e-19
7.03774e-05
3.11471e-20
7.03774e-05
-4.49751e-19
7.03774e-05
2.44808e-19
7.03774e-05
-1.28589e-19
7.03774e-05
-9.65371e-20
7.03774e-05
-9.8525e-20
7.03774e-05
-3.28805e-19
7.03774e-05
4.80006e-19
7.03774e-05
1.21865e-19
7.03774e-05
-8.01456e-20
7.03774e-05
-4.17534e-20
7.03774e-05
-3.54296e-19
7.03774e-05
4.46809e-19
7.03774e-05
5.94047e-20
7.03774e-05
-1.31801e-19
7.03774e-05
9.79786e-20
7.03774e-05
-2.61549e-19
7.03774e-05
2.76467e-19
7.03774e-05
-7.27844e-20
7.03774e-05
-1.27533e-19
7.03774e-05
8.8397e-20
7.03774e-05
-3.74893e-19
7.03774e-05
7.36798e-20
7.03774e-05
-3.30617e-20
7.03774e-05
1.5e-19
7.03774e-05
2.17832e-19
7.03774e-05
-3.98407e-19
7.03774e-05
1.73832e-19
7.03774e-05
-1.12804e-19
7.03774e-05
3.08352e-20
7.03774e-05
1.9099e-19
7.03774e-05
-6.16994e-19
7.03774e-05
4.49535e-20
7.03774e-05
7.51327e-20
7.03774e-05
9.496e-20
7.03774e-05
3.01218e-20
7.03774e-05
-4.18032e-19
7.03774e-05
4.47082e-19
7.03774e-05
5.04968e-20
7.03774e-05
-2.47832e-19
7.03774e-05
-1.30745e-19
7.03774e-05
-3.10777e-19
7.03774e-05
6.1161e-19
7.03774e-05
2.51513e-20
7.03774e-05
-7.722e-20
7.03774e-05
2.24151e-19
7.03774e-05
-4.00572e-19
7.03774e-05
1.9622e-19
7.03774e-05
5.00386e-20
7.03774e-05
1.2658e-20
7.03774e-05
7.05359e-20
7.03774e-05
-2.68824e-19
7.03774e-05
3.45584e-19
7.03774e-05
1.24916e-20
7.03774e-05
-3.40799e-20
7.03774e-05
1.06437e-20
7.03774e-05
-3.7889e-19
7.03774e-05
2.00054e-19
7.03774e-05
5.83931e-20
7.03774e-05
1.24021e-19
7.03774e-05
7.40226e-20
7.03774e-05
-3.47304e-19
7.03774e-05
2.50208e-19
7.03774e-05
2.58056e-20
7.03774e-05
-2.85095e-20
7.03774e-05
1.83142e-19
7.03774e-05
-3.6519e-19
7.03774e-05
1.2794e-19
7.03774e-05
5.58027e-20
7.03774e-05
-3.43451e-20
7.03774e-05
6.92547e-20
7.03774e-05
-4.14952e-19
7.03774e-05
1.2722e-19
7.03774e-05
2.316e-19
7.03774e-05
-5.72016e-20
7.03774e-05
-1.89092e-19
7.03774e-05
-2.69644e-19
7.03774e-05
3.31081e-19
7.03774e-05
1.07056e-19
7.03774e-05
-1.01698e-19
7.03774e-05
1.15353e-20
7.03774e-05
-1.605e-19
7.03774e-05
2.23405e-19
7.03774e-05
1.09881e-19
7.03774e-05
-1.49004e-19
7.03774e-05
-1.47028e-19
7.03774e-05
-1.65087e-19
7.03774e-05
2.62753e-19
7.03774e-05
1.77893e-19
7.03774e-05
5.57813e-20
7.03774e-05
-3.01369e-19
7.03774e-05
-2.91985e-19
7.03774e-05
2.37541e-19
7.03774e-05
5.32711e-20
7.03774e-05
1.5207e-19
7.03774e-05
-1.9614e-19
7.03774e-05
2.56264e-21
7.03774e-05
2.08338e-19
7.03774e-05
-1.70007e-19
7.03774e-05
2.05179e-19
7.03774e-05
4.96009e-20
7.03774e-05
-8.1729e-20
7.03774e-05
1.51626e-19
7.03774e-05
-3.6914e-20
7.03774e-05
4.07662e-19
7.03774e-05
3.47122e-19
4.37013e-19
0.000115687
8.84793e-19
0.000115687
5.62388e-19
0.000115687
3.7517e-19
0.000115687
2.41846e-19
0.000115687
1.80924e-19
0.000115687
1.33318e-19
0.000115687
9.5345e-20
0.000115687
7.93755e-20
0.000115687
3.79165e-20
0.000115687
5.6411e-20
0.000115687
6.99226e-22
0.000115687
-2.91211e-20
0.000115687
4.3529e-20
0.000115687
4.90872e-20
0.000115687
5.53811e-20
0.000115687
1.5886e-19
0.000115687
1.05641e-19
0.000115687
4.81146e-20
0.000115687
2.16523e-20
0.000115687
3.62371e-20
0.000115687
6.67288e-20
0.000115687
9.58136e-20
0.000115687
2.73275e-20
0.000115687
-3.27855e-20
0.000115687
-8.37886e-20
0.000115687
-1.84593e-20
0.000115687
1.2187e-19
0.000115687
8.05936e-20
0.000115687
3.80869e-20
0.000115687
6.84552e-21
0.000115687
1.0024e-19
0.000115687
1.64284e-19
0.000115687
2.57467e-21
0.000115687
-1.28781e-19
0.000115687
-1.00715e-19
0.000115687
-8.96268e-20
0.000115687
5.30544e-20
0.000115687
-1.23069e-20
0.000115687
-1.26268e-19
0.000115687
3.67351e-20
0.000115687
-8.59668e-21
0.000115687
7.01939e-21
0.000115687
1.42942e-20
0.000115687
-9.53004e-20
0.000115687
-4.04429e-20
0.000115687
8.14658e-21
0.000115687
5.64563e-20
0.000115687
1.02193e-19
0.000115687
3.71937e-20
0.000115687
4.24675e-20
0.000115687
-2.75801e-20
0.000115687
6.47947e-20
0.000115687
6.27501e-20
0.000115687
6.2266e-20
0.000115687
1.96511e-19
0.000115687
2.84637e-20
0.000115687
3.69029e-20
0.000115687
2.05844e-20
0.000115687
1.02732e-21
0.000115687
6.60054e-20
0.000115687
-1.92049e-19
0.000115687
1.1249e-19
0.000115687
5.5355e-20
0.000115687
-2.10985e-20
0.000115687
1.11819e-19
0.000115687
-1.26747e-19
0.000115687
1.69116e-20
0.000115687
-2.76227e-20
0.000115687
2.72175e-20
0.000115687
1.43752e-19
0.000115687
-8.58932e-20
0.000115687
-1.07109e-19
0.000115687
-1.27363e-19
0.000115687
-6.23141e-21
0.000115687
1.52214e-19
0.000115687
-1.49936e-19
0.000115687
-1.9398e-19
0.000115687
1.47052e-20
0.000115687
-3.36035e-20
0.000115687
9.77248e-20
0.000115687
-4.63184e-20
0.000115687
-2.30469e-19
0.000115687
-6.94197e-20
0.000115687
-7.30381e-22
0.000115687
5.11155e-20
0.000115687
-4.68829e-20
0.000115687
-4.21633e-20
0.000115687
-7.49951e-20
0.000115687
-4.00102e-20
0.000115687
1.81904e-19
0.000115687
-5.48174e-20
0.000115687
-1.37716e-19
0.000115687
-1.79097e-20
0.000115687
4.43098e-20
0.000115687
-1.12084e-21
0.000115687
-2.01197e-19
0.000115687
-1.2735e-19
0.000115687
-8.86731e-20
0.000115687
2.56468e-20
0.000115687
4.30674e-20
0.000115687
-8.60797e-20
0.000115687
-4.0916e-21
0.000115687
-1.32219e-19
0.000115687
-6.99533e-20
0.000115687
1.32084e-19
0.000115687
1.16181e-19
0.000115687
-2.35974e-19
0.000115687
-1.96571e-19
0.000115687
1.73987e-19
0.000115687
2.4067e-19
0.000115687
9.30289e-20
0.000115687
-3.94369e-19
0.000115687
-9.81016e-21
0.000115687
3.54851e-19
0.000115687
2.26821e-19
0.000115687
2.28633e-20
0.000115687
-3.93791e-19
0.000115687
-1.63656e-19
0.000115687
4.34453e-19
0.000115687
2.91835e-19
0.000115687
-2.69366e-19
0.000115687
-4.2605e-19
0.000115687
-1.23696e-19
0.000115687
4.71333e-19
0.000115687
4.12876e-19
0.000115687
-1.23444e-19
0.000115687
-5.04084e-19
0.000115687
5.33986e-20
0.000115687
5.13139e-19
0.000115687
7.97999e-20
0.000115687
-1.01113e-19
0.000115687
-2.03577e-19
0.000115687
2.06996e-20
0.000115687
3.92874e-19
0.000115687
1.68471e-19
0.000115687
-2.42888e-21
0.000115687
-2.41951e-19
0.000115687
4.98621e-21
0.000115687
4.37867e-19
0.000115687
1.57609e-19
0.000115687
-1.80568e-19
0.000115687
-2.72429e-19
0.000115687
5.9877e-20
0.000115687
1.60618e-19
0.000115687
-5.97746e-20
0.000115687
-2.67521e-20
0.000115687
-2.15943e-19
0.000115687
9.59916e-20
0.000115687
1.00018e-19
0.000115687
-3.82849e-20
0.000115687
1.56138e-19
0.000115687
-2.55251e-19
0.000115687
-2.20242e-19
0.000115687
9.37958e-20
0.000115687
1.79203e-19
0.000115687
9.0276e-20
0.000115687
-2.33394e-19
0.000115687
-2.78378e-19
0.000115687
1.82178e-20
0.000115687
1.17619e-19
0.000115687
2.13912e-19
0.000115687
-2.85707e-19
0.000115687
-1.26339e-19
0.000115687
2.18785e-19
0.000115687
-2.29948e-19
0.000115687
-6.22845e-20
0.000115687
-7.45846e-20
0.000115687
-7.29572e-20
0.000115687
1.28992e-19
0.000115687
4.74238e-20
0.000115687
-1.16195e-19
0.000115687
-4.25176e-19
0.000115687
-4.3828e-20
0.000115687
3.43712e-19
0.000115687
1.23829e-19
0.000115687
-1.23849e-19
0.000115687
-1.54536e-19
0.000115687
1.0189e-19
0.000115687
-3.22282e-20
0.000115687
1.8204e-19
0.000115687
2.10966e-19
0.000115687
-4.65391e-19
0.000115687
-2.07305e-20
0.000115687
3.27861e-19
0.000115687
1.49683e-19
0.000115687
2.3319e-19
0.000115687
-2.03213e-19
0.000115687
-1.9682e-20
0.000115687
2.98069e-19
0.000115687
-6.44827e-20
0.000115687
-6.19191e-20
0.000115687
-1.16984e-19
0.000115687
-2.08971e-19
0.000115687
1.84529e-19
0.000115687
1.61882e-19
0.000115687
1.09898e-19
0.000115687
-1.11715e-19
0.000115687
-1.52615e-19
0.000115687
1.64286e-19
0.000115687
9.6659e-21
0.000115687
3.39023e-20
0.000115687
-1.22532e-19
0.000115687
9.67286e-20
0.000115687
3.41098e-19
0.000115687
5.2374e-20
0.000115687
-8.61006e-20
0.000115687
-2.43814e-19
0.000115687
4.70769e-20
0.000115687
1.12222e-19
0.000115687
-4.32373e-20
0.000115687
-5.4168e-20
0.000115687
-2.56073e-19
0.000115687
5.88656e-19
0.000115687
1.01707e-19
0.000115687
-6.04083e-19
0.000115687
2.16631e-19
0.000115687
-2.68115e-19
0.000115687
-1.0884e-19
0.000115687
-1.72125e-19
0.000115687
-4.42113e-19
0.000115687
6.69512e-19
0.000115687
1.58157e-19
0.000115687
-1.17231e-20
0.000115687
-3.36627e-20
0.000115687
-5.1566e-19
0.000115687
5.91412e-19
0.000115687
1.10237e-19
0.000115687
-1.40257e-19
0.000115687
9.09694e-20
0.000115687
-4.02826e-19
0.000115687
3.89019e-19
0.000115687
-7.84106e-20
0.000115687
-2.3594e-19
0.000115687
4.51142e-20
0.000115687
-5.10788e-19
0.000115687
3.58313e-20
0.000115687
-9.08147e-20
0.000115687
2.73591e-19
0.000115687
3.19619e-19
0.000115687
-5.62222e-19
0.000115687
1.68418e-19
0.000115687
-1.91419e-19
0.000115687
5.73326e-20
0.000115687
2.16583e-19
0.000115687
-9.38138e-19
0.000115687
3.21011e-20
0.000115687
5.27591e-20
0.000115687
1.30009e-19
0.000115687
5.93233e-20
0.000115687
-5.67557e-19
0.000115687
6.42178e-19
0.000115687
1.18134e-19
0.000115687
-3.82235e-19
0.000115687
-2.81813e-19
0.000115687
-3.83086e-19
0.000115687
9.40283e-19
0.000115687
7.97344e-20
0.000115687
-5.27423e-20
0.000115687
3.35686e-19
0.000115687
-5.22945e-19
0.000115687
2.18192e-19
0.000115687
4.46508e-20
0.000115687
8.41005e-20
0.000115687
4.42081e-20
0.000115687
-3.83082e-19
0.000115687
5.62321e-19
0.000115687
-4.8771e-21
0.000115687
-2.3496e-20
0.000115687
1.97889e-20
0.000115687
-5.87628e-19
0.000115687
3.32602e-19
0.000115687
6.67804e-20
0.000115687
1.77248e-19
0.000115687
1.21773e-19
0.000115687
-5.10128e-19
0.000115687
4.12804e-19
0.000115687
3.02194e-20
0.000115687
-3.31978e-21
0.000115687
2.16571e-19
0.000115687
-5.93624e-19
0.000115687
2.46678e-19
0.000115687
2.86452e-21
0.000115687
-4.15803e-20
0.000115687
1.24862e-19
0.000115687
-6.6527e-19
0.000115687
2.38196e-19
0.000115687
3.08105e-19
0.000115687
-1.47657e-19
0.000115687
-2.42216e-19
0.000115687
-4.10269e-19
0.000115687
4.86302e-19
0.000115687
1.71079e-19
0.000115687
-1.22238e-19
0.000115687
9.54837e-20
0.000115687
-2.86255e-19
0.000115687
2.57861e-19
0.000115687
2.56686e-19
0.000115687
-2.55937e-19
0.000115687
-2.05861e-19
0.000115687
-2.87894e-19
0.000115687
3.38546e-19
0.000115687
3.44078e-19
0.000115687
-1.1163e-20
0.000115687
-4.93404e-19
0.000115687
-4.16505e-19
0.000115687
3.47321e-19
0.000115687
1.26201e-19
0.000115687
1.4105e-19
0.000115687
-2.39597e-19
0.000115687
-1.29542e-20
0.000115687
3.75313e-19
0.000115687
-1.79539e-19
0.000115687
1.86837e-19
0.000115687
1.67998e-19
0.000115687
-1.04621e-19
0.000115687
1.75734e-19
0.000115687
-9.9566e-21
0.000115687
5.74203e-19
0.000115687
4.76675e-19
3.73046e-19
0.000159778
6.35711e-19
0.000159778
5.51626e-19
0.000159778
3.98865e-19
0.000159778
3.00419e-19
0.000159778
2.56326e-19
0.000159778
2.05709e-19
0.000159778
9.25325e-20
0.000159778
1.0754e-19
0.000159778
1.13816e-19
0.000159778
-9.02923e-22
0.000159778
-3.00235e-20
0.000159778
-2.08253e-21
0.000159778
6.38531e-20
0.000159778
1.19712e-19
0.000159778
8.08747e-20
0.000159778
1.82712e-19
0.000159778
1.77866e-19
0.000159778
9.45005e-20
0.000159778
1.04514e-19
0.000159778
8.66111e-20
0.000159778
1.39969e-19
0.000159778
1.51998e-19
0.000159778
4.36308e-20
0.000159778
-3.20293e-20
0.000159778
-1.09916e-19
0.000159778
-9.5827e-21
0.000159778
1.57191e-19
0.000159778
1.45416e-19
0.000159778
6.40208e-20
0.000159778
3.59589e-20
0.000159778
9.28481e-20
0.000159778
1.98451e-19
0.000159778
5.00583e-20
0.000159778
-1.40179e-19
0.000159778
-1.81019e-19
0.000159778
-1.45979e-19
0.000159778
2.93323e-20
0.000159778
1.81181e-21
0.000159778
-1.4797e-19
0.000159778
1.37155e-20
0.000159778
6.81542e-21
0.000159778
1.23617e-20
0.000159778
-5.85203e-21
0.000159778
-1.34021e-19
0.000159778
-6.07291e-20
0.000159778
6.34939e-21
0.000159778
1.11413e-19
0.000159778
1.3319e-19
0.000159778
8.33482e-20
0.000159778
1.58608e-20
0.000159778
2.80285e-20
0.000159778
1.25716e-19
0.000159778
1.22289e-19
0.000159778
1.33099e-19
0.000159778
2.1592e-19
0.000159778
4.14774e-20
0.000159778
9.4768e-20
0.000159778
2.81707e-20
0.000159778
3.46643e-20
0.000159778
1.79448e-20
0.000159778
-2.88074e-19
0.000159778
1.29524e-19
0.000159778
9.72793e-20
0.000159778
-3.89192e-20
0.000159778
1.43149e-19
0.000159778
-1.32362e-19
0.000159778
4.32686e-20
0.000159778
-2.55908e-20
0.000159778
1.66007e-20
0.000159778
1.51332e-19
0.000159778
-1.1195e-19
0.000159778
-1.98981e-19
0.000159778
-1.58305e-19
0.000159778
-7.52485e-21
0.000159778
1.55784e-19
0.000159778
-1.75666e-19
0.000159778
-1.98714e-19
0.000159778
-3.43002e-20
0.000159778
-8.2318e-20
0.000159778
8.2743e-20
0.000159778
-4.01687e-20
0.000159778
-3.19962e-19
0.000159778
-1.02191e-19
0.000159778
-1.20957e-20
0.000159778
5.0285e-20
0.000159778
-9.82684e-20
0.000159778
-3.4153e-20
0.000159778
-7.06e-20
0.000159778
-1.00477e-19
0.000159778
2.13713e-19
0.000159778
-4.85183e-20
0.000159778
-2.12678e-19
0.000159778
-7.55171e-20
0.000159778
-1.45292e-21
0.000159778
2.34312e-20
0.000159778
-3.0328e-19
0.000159778
-2.0859e-19
0.000159778
-1.46771e-19
0.000159778
-1.84117e-20
0.000159778
8.29451e-20
0.000159778
-4.63733e-20
0.000159778
-2.36929e-20
0.000159778
-2.0999e-19
0.000159778
-1.11869e-19
0.000159778
1.55305e-19
0.000159778
1.39797e-19
0.000159778
-2.82003e-19
0.000159778
-2.99339e-19
0.000159778
2.55122e-19
0.000159778
3.59857e-19
0.000159778
1.01948e-19
0.000159778
-4.78387e-19
0.000159778
-1.28699e-20
0.000159778
4.9585e-19
0.000159778
3.48064e-19
0.000159778
-4.67823e-21
0.000159778
-5.12196e-19
0.000159778
-2.00415e-19
0.000159778
5.45509e-19
0.000159778
3.67725e-19
0.000159778
-3.42668e-19
0.000159778
-5.71509e-19
0.000159778
-1.13063e-19
0.000159778
5.85011e-19
0.000159778
5.59644e-19
0.000159778
-1.37954e-19
0.000159778
-6.43806e-19
0.000159778
9.36674e-20
0.000159778
6.68484e-19
0.000159778
1.64098e-19
0.000159778
-1.01663e-19
0.000159778
-2.84154e-19
0.000159778
-1.26498e-20
0.000159778
4.96794e-19
0.000159778
2.83427e-19
0.000159778
2.13664e-20
0.000159778
-2.64431e-19
0.000159778
7.61301e-21
0.000159778
5.25657e-19
0.000159778
2.15056e-19
0.000159778
-2.04363e-19
0.000159778
-3.38542e-19
0.000159778
1.01936e-19
0.000159778
1.32358e-19
0.000159778
-8.24323e-20
0.000159778
-2.73907e-20
0.000159778
-2.64974e-19
0.000159778
9.26274e-20
0.000159778
1.42613e-19
0.000159778
-6.66051e-20
0.000159778
1.67345e-19
0.000159778
-2.67331e-19
0.000159778
-2.65147e-19
0.000159778
5.59606e-20
0.000159778
1.46298e-19
0.000159778
1.37126e-19
0.000159778
-2.86005e-19
0.000159778
-3.72384e-19
0.000159778
-3.70951e-21
0.000159778
1.83721e-19
0.000159778
1.85677e-19
0.000159778
-3.80747e-19
0.000159778
-1.29844e-19
0.000159778
2.17855e-19
0.000159778
-3.05597e-19
0.000159778
-7.53373e-20
0.000159778
-7.64239e-20
0.000159778
-8.48368e-20
0.000159778
1.47383e-19
0.000159778
5.67576e-20
0.000159778
-2.10226e-19
0.000159778
-6.33e-19
0.000159778
2.40255e-20
0.000159778
5.3227e-19
0.000159778
8.18437e-20
0.000159778
-1.23673e-19
0.000159778
-2.46517e-19
0.000159778
3.87167e-20
0.000159778
-1.8016e-20
0.000159778
3.36926e-19
0.000159778
2.81454e-19
0.000159778
-5.52351e-19
0.000159778
-2.55346e-20
0.000159778
4.47272e-19
0.000159778
2.35767e-19
0.000159778
1.8783e-19
0.000159778
-2.10321e-19
0.000159778
8.18389e-20
0.000159778
3.67535e-19
0.000159778
-7.59872e-20
0.000159778
-1.03589e-19
0.000159778
-1.84886e-19
0.000159778
-2.44018e-19
0.000159778
1.64968e-19
0.000159778
2.78554e-19
0.000159778
2.06159e-19
0.000159778
-1.5425e-19
0.000159778
-1.51787e-19
0.000159778
1.79623e-19
0.000159778
9.25645e-20
0.000159778
4.19734e-20
0.000159778
-1.02347e-19
0.000159778
1.34819e-19
0.000159778
3.57537e-19
0.000159778
1.32152e-19
0.000159778
-1.09941e-19
0.000159778
-3.04187e-19
0.000159778
-4.08213e-20
0.000159778
1.06735e-19
0.000159778
2.38536e-21
0.000159778
-8.43184e-21
0.000159778
-2.64116e-19
0.000159778
6.69878e-19
0.000159778
1.27491e-19
0.000159778
-7.1159e-19
0.000159778
1.81329e-19
0.000159778
-4.34417e-19
0.000159778
-2.10411e-19
0.000159778
-1.59846e-19
0.000159778
-5.17941e-19
0.000159778
7.65469e-19
0.000159778
2.1417e-19
0.000159778
8.65358e-20
0.000159778
1.74762e-20
0.000159778
-6.38624e-19
0.000159778
6.61329e-19
0.000159778
1.70219e-19
0.000159778
-1.47834e-19
0.000159778
7.34844e-20
0.000159778
-4.80376e-19
0.000159778
4.10944e-19
0.000159778
-7.49459e-20
0.000159778
-3.67555e-19
0.000159778
-3.04558e-20
0.000159778
-6.50505e-19
0.000159778
3.28807e-20
0.000159778
-1.97637e-19
0.000159778
3.52487e-19
0.000159778
4.90667e-19
0.000159778
-7.05658e-19
0.000159778
9.31811e-20
0.000159778
-2.65362e-19
0.000159778
6.53777e-20
0.000159778
2.13252e-19
0.000159778
-1.14798e-18
0.000159778
-3.62345e-20
0.000159778
-2.54424e-20
0.000159778
9.78347e-20
0.000159778
5.56269e-20