/*--------------------------------*- C++ -*----------------------------------*\
| =========                 |                                                 |
| \\      /  F ield         | OpenFOAM: The Open Source CFD Toolbox           |
|  \\    /   O peration     | Version:  2112                                  |
|   \\  /    A nd           | Website:  www.openfoam.com                      |
|    \\/     M anipulation  |                                                 |
\*---------------------------------------------------------------------------*/
FoamFile
{
    version     2.0;
    format      ascii;
    arch        "LSB;label=32;scalar=64";
    class       surfaceScalarField;
    location    "2";
    object      phi;
}
// * * * * * * * * * * * * * * * * * * * * * * * * * * * * * * * * * * * * * //

dimensions      [0 3 -1 0 0 0 0];

oriented        oriented;

internalField   nonuniform List<scalar> 
99400
(
3.56496e-05
5.1803e-18
3.56496e-05
9.93506e-19
3.56496e-05
4.04218e-19
3.56496e-05
2.24843e-19
3.56496e-05
1.44392e-19
3.56496e-05
8.62255e-20
3.56496e-05
6.91128e-20
3.56496e-05
4.82073e-20
3.56496e-05
5.10921e-20
3.56496e-05
2.79623e-20
3.56496e-05
2.70982e-21
3.56496e-05
-9.50437e-21
3.56496e-05
-1.80959e-20
3.56496e-05
-1.77005e-20
3.56496e-05
8.29483e-21
3.56496e-05
-6.56769e-21
3.56496e-05
-2.62354e-20
3.56496e-05
-4.42256e-21
3.56496e-05
8.621e-22
3.56496e-05
7.44597e-21
3.56496e-05
2.14384e-20
3.56496e-05
1.0927e-20
3.56496e-05
6.04741e-20
3.56496e-05
4.32874e-20
3.56496e-05
-1.08031e-20
3.56496e-05
-2.49913e-20
3.56496e-05
3.67931e-21
3.56496e-05
2.60923e-20
3.56496e-05
-1.76217e-20
3.56496e-05
1.82641e-20
3.56496e-05
3.20398e-20
3.56496e-05
-2.32039e-20
3.56496e-05
-1.95144e-20
3.56496e-05
-2.72439e-21
3.56496e-05
3.09716e-21
3.56496e-05
3.23284e-20
3.56496e-05
-3.78494e-20
3.56496e-05
-3.61725e-20
3.56496e-05
2.52217e-21
3.56496e-05
-3.75762e-20
3.56496e-05
2.9578e-20
3.56496e-05
-2.22505e-20
3.56496e-05
-7.76931e-21
3.56496e-05
1.23124e-20
3.56496e-05
-2.53943e-20
3.56496e-05
2.79071e-20
3.56496e-05
2.04324e-20
3.56496e-05
-7.24591e-20
3.56496e-05
-1.68564e-20
3.56496e-05
3.99275e-20
3.56496e-05
2.58871e-22
3.56496e-05
-1.48694e-20
3.56496e-05
-3.02733e-20
3.56496e-05
-3.61277e-22
3.56496e-05
5.53569e-20
3.56496e-05
-1.81928e-20
3.56496e-05
5.18146e-20
3.56496e-05
-2.01195e-20
3.56496e-05
-5.44863e-20
3.56496e-05
2.41743e-20
3.56496e-05
7.61079e-21
3.56496e-05
-1.31209e-20
3.56496e-05
4.04981e-21
3.56496e-05
4.26556e-20
3.56496e-05
1.09526e-20
3.56496e-05
3.55596e-20
3.56496e-05
-3.30581e-20
3.56496e-05
-2.75274e-20
3.56496e-05
4.19306e-20
3.56496e-05
-3.94493e-20
3.56496e-05
-3.29826e-20
3.56496e-05
1.02657e-20
3.56496e-05
6.20431e-20
3.56496e-05
-4.40579e-20
3.56496e-05
-7.47998e-20
3.56496e-05
1.23951e-19
3.56496e-05
4.95305e-20
3.56496e-05
-7.62909e-20
3.56496e-05
-2.0101e-20
3.56496e-05
5.70326e-20
3.56496e-05
1.12532e-20
3.56496e-05
-4.44146e-20
3.56496e-05
1.77858e-20
3.56496e-05
5.62923e-21
3.56496e-05
-7.18988e-20
3.56496e-05
5.31631e-20
3.56496e-05
9.47098e-21
3.56496e-05
-5.26471e-21
3.56496e-05
3.26255e-20
3.56496e-05
7.31541e-21
3.56496e-05
4.80771e-20
3.56496e-05
4.24818e-20
3.56496e-05
2.36758e-20
3.56496e-05
5.14406e-21
3.56496e-05
3.47183e-20
3.56496e-05
-9.87057e-20
3.56496e-05
4.35518e-21
3.56496e-05
1.19763e-19
3.56496e-05
-7.53338e-20
3.56496e-05
-9.32941e-20
3.56496e-05
6.21655e-20
3.56496e-05
6.71043e-20
3.56496e-05
-2.45849e-20
3.56496e-05
-3.047e-20
3.56496e-05
2.40694e-20
3.56496e-05
-3.20785e-20
3.56496e-05
-4.28037e-20
3.56496e-05
-7.10239e-21
3.56496e-05
8.45654e-20
3.56496e-05
9.80849e-20
3.56496e-05
-6.59179e-20
3.56496e-05
-1.19066e-19
3.56496e-05
-5.68723e-20
3.56496e-05
8.3557e-20
3.56496e-05
3.43408e-20
3.56496e-05
-1.3273e-19
3.56496e-05
-9.1166e-20
3.56496e-05
8.10921e-20
3.56496e-05
7.42431e-20
3.56496e-05
-2.32218e-20
3.56496e-05
-4.10891e-20
3.56496e-05
2.75806e-20
3.56496e-05
6.57771e-20
3.56496e-05
-2.424e-20
3.56496e-05
-6.09752e-20
3.56496e-05
1.0681e-19
3.56496e-05
3.55912e-20
3.56496e-05
-4.39308e-20
3.56496e-05
6.55867e-20
3.56496e-05
2.90785e-20
3.56496e-05
5.07936e-21
3.56496e-05
-4.14007e-20
3.56496e-05
1.07589e-19
3.56496e-05
-6.65754e-20
3.56496e-05
-1.23242e-19
3.56496e-05
3.61361e-20
3.56496e-05
-8.0151e-21
3.56496e-05
-7.23944e-20
3.56496e-05
9.45895e-20
3.56496e-05
7.04469e-20
3.56496e-05
-1.51856e-19
3.56496e-05
-8.93414e-20
3.56496e-05
1.21004e-19
3.56496e-05
1.81548e-19
3.56496e-05
-8.30883e-20
3.56496e-05
-2.73127e-20
3.56496e-05
1.79085e-19
3.56496e-05
-5.13257e-20
3.56496e-05
-1.25183e-19
3.56496e-05
1.44025e-19
3.56496e-05
-3.7603e-20
3.56496e-05
2.65144e-20
3.56496e-05
1.81504e-19
3.56496e-05
-1.49154e-19
3.56496e-05
-2.83559e-20
3.56496e-05
7.59505e-20
3.56496e-05
-1.46258e-19
3.56496e-05
-3.00941e-20
3.56496e-05
-1.5649e-20
3.56496e-05
1.2377e-19
3.56496e-05
4.40533e-20
3.56496e-05
-5.51328e-20
3.56496e-05
-2.41373e-20
3.56496e-05
2.50996e-21
3.56496e-05
-2.34756e-20
3.56496e-05
-2.86806e-20
3.56496e-05
4.91115e-20
3.56496e-05
-2.08768e-19
3.56496e-05
9.42562e-20
3.56496e-05
1.33093e-19
3.56496e-05
-1.85432e-19
3.56496e-05
8.07478e-20
3.56496e-05
1.44552e-19
3.56496e-05
-1.25571e-19
3.56496e-05
-7.90065e-20
3.56496e-05
5.35287e-20
3.56496e-05
1.25671e-19
3.56496e-05
-3.46444e-20
3.56496e-05
-7.20537e-20
3.56496e-05
1.6717e-19
3.56496e-05
-6.07611e-21
3.56496e-05
-8.30587e-20
3.56496e-05
7.79374e-21
3.56496e-05
-5.71896e-20
3.56496e-05
1.27554e-19
3.56496e-05
2.00992e-20
3.56496e-05
-1.15894e-19
3.56496e-05
3.32987e-20
3.56496e-05
2.29156e-20
3.56496e-05
-3.99644e-21
3.56496e-05
-6.17473e-20
3.56496e-05
-2.27027e-20
3.56496e-05
-1.78255e-21
3.56496e-05
1.82121e-19
3.56496e-05
5.40118e-20
3.56496e-05
-3.02624e-20
3.56496e-05
1.16237e-19
3.56496e-05
-2.61187e-20
3.56496e-05
-1.95755e-19
3.56496e-05
-4.48296e-20
3.56496e-05
8.99268e-20
3.56496e-05
-1.61922e-19
3.56496e-05
1.60644e-19
3.56496e-05
2.2467e-20
3.56496e-05
5.80765e-20
3.56496e-05
1.40146e-19
3.56496e-05
-1.96779e-19
3.56496e-05
-1.29376e-19
3.56496e-05
5.50231e-20
3.56496e-05
-2.2996e-21
3.56496e-05
4.39804e-20
3.56496e-05
2.77421e-20
3.56496e-05
-8.6833e-20
3.56496e-05
1.40855e-19
3.56496e-05
-1.09602e-19
3.56496e-05
-1.71069e-22
3.56496e-05
-6.2794e-20
3.56496e-05
-8.61727e-20
3.56496e-05
1.33233e-19
3.56496e-05
1.46911e-19
3.56496e-05
-5.74934e-20
3.56496e-05
-9.7788e-20
3.56496e-05
4.83066e-20
3.56496e-05
-1.13974e-19
3.56496e-05
1.08217e-20
3.56496e-05
-3.91791e-20
3.56496e-05
-1.68878e-20
3.56496e-05
6.21742e-20
3.56496e-05
1.10432e-19
3.56496e-05
-1.50634e-20
3.56496e-05
-2.3002e-20
3.56496e-05
-1.03007e-19
3.56496e-05
1.49142e-20
3.56496e-05
5.98406e-20
3.56496e-05
-1.096e-19
3.56496e-05
1.09968e-19
3.56496e-05
4.7149e-20
3.56496e-05
6.50436e-20
3.56496e-05
-5.17488e-20
3.56496e-05
1.62736e-21
3.56496e-05
5.66886e-21
3.56496e-05
-1.31501e-19
3.56496e-05
7.73651e-21
3.56496e-05
1.88788e-19
3.56496e-05
-8.3435e-20
3.56496e-05
-7.39827e-20
3.56496e-05
1.15928e-19
3.56496e-05
-1.09079e-19
3.56496e-05
-2.03968e-21
3.56496e-05
9.13255e-21
3.56496e-05
-1.84783e-20
3.56496e-05
-2.77351e-20
3.56496e-05
1.58381e-19
3.56496e-05
-7.35947e-20
3.56496e-05
-1.38127e-19
3.56496e-05
1.07406e-19
3.56496e-05
-5.09627e-20
3.56496e-05
-1.06957e-19
3.56496e-05
8.94792e-20
3.56496e-05
-1.02397e-19
3.56496e-05
6.32342e-20
3.56496e-05
2.6819e-19
3.56496e-05
-1.85281e-19
3.56496e-05
8.88555e-20
3.56496e-05
-1.83523e-19
3.56496e-05
-1.66302e-19
3.56496e-05
3.57066e-19
3.56496e-05
-2.615e-19
3.56496e-05
-1.51435e-19
3.56496e-05
4.95004e-19
3.56496e-05
-2.27219e-19
3.56496e-05
-1.57453e-19
3.56496e-05
1.74769e-19
3.56496e-05
-1.52659e-19
3.56496e-05
1.56634e-19
3.56496e-05
-1.2581e-19
3.56496e-05
-5.22691e-20
3.56496e-05
1.59821e-19
3.56496e-05
9.46494e-20
3.56496e-05
-9.40195e-20
3.56496e-05
-1.00272e-19
3.56496e-05
-1.25248e-19
3.56496e-05
7.22035e-20
3.56496e-05
2.3716e-19
3.56496e-05
-2.90224e-19
3.56496e-05
2.43661e-19
3.56496e-05
1.57068e-20
3.56496e-05
-3.33043e-19
3.56496e-05
2.26418e-19
3.56496e-05
1.16556e-19
3.56496e-05
-3.11626e-19
3.56496e-05
3.20147e-20
3.56496e-05
5.03403e-20
3.56496e-05
-1.69169e-19
3.56496e-05
4.14713e-19
3.56496e-05
1.01917e-19
3.56496e-05
-3.76804e-19
3.56496e-05
1.35057e-19
3.56496e-05
-1.10209e-20
3.56496e-05
-2.52146e-19
3.56496e-05
3.40128e-19
3.56496e-05
-1.2501e-19
3.56496e-05
-1.22283e-19
3.56496e-05
4.5795e-19
3.56496e-05
-1.88886e-19
3.56496e-05
-2.71261e-19
3.56496e-05
2.89624e-19
3.56496e-05
-1.89335e-19
3.56496e-05
-2.10341e-19
3.56496e-05
2.99562e-19
3.56496e-05
5.60718e-20
3.56496e-05
-3.11364e-19
3.56496e-05
1.5326e-19
3.56496e-05
1.16219e-19
3.56496e-05
-1.65425e-19
3.56496e-05
1.2143e-19
3.56496e-05
-7.65085e-20
3.56496e-05
-8.23025e-20
3.56496e-05
1.22338e-20
3.56496e-05
1.76059e-19
3.56496e-05
1.53508e-19
3.56496e-05
-6.00802e-20
3.56496e-05
-1.89423e-19
3.56496e-05
-4.53716e-20
3.56496e-05
2.56013e-19
3.56496e-05
-1.25034e-19
3.56496e-05
-1.63541e-19
3.56496e-05
-2.34425e-20
3.56496e-05
2.7787e-19
3.56496e-05
2.47897e-19
3.56496e-05
-4.13653e-19
3.56496e-05
-1.80427e-20
3.56496e-05
1.92969e-19
3.56496e-05
-3.35389e-19
3.56496e-05
1.43145e-19
3.56496e-05
2.82355e-19
3.56496e-05
-4.18593e-19
3.56496e-05
2.96134e-19
3.56496e-05
1.97855e-19
3.56496e-05
-3.24842e-19
3.56496e-05
8.16685e-20
3.56496e-05
-2.35916e-20
3.56496e-05
-1.43599e-19
3.56496e-05
6.35907e-20
3.56496e-05
2.19444e-19
3.56496e-05
5.40706e-20
3.56496e-05
-2.43533e-20
3.56496e-05
-1.96112e-19
3.56496e-05
-9.34752e-20
3.56496e-05
1.902e-19
3.56496e-05
-7.70959e-20
3.56496e-05
-1.65054e-19
3.56496e-05
1.01688e-19
3.56496e-05
2.32303e-19
3.56496e-05
3.91727e-20
3.56496e-05
-2.17201e-20
3.56496e-05
-2.02458e-19
3.56496e-05
-1.20716e-19
3.56496e-05
1.59719e-19
3.56496e-05
-1.05612e-19
3.56496e-05
1.51299e-19
3.56496e-05
-2.34455e-19
3.56496e-05
-1.08083e-20
3.56496e-05
4.3882e-19
3.56496e-05
-2.51961e-19
3.56496e-05
-5.52907e-20
3.56496e-05
5.59314e-20
3.56496e-05
-2.08361e-20
3.56496e-05
-9.501e-20
3.56496e-05
3.58654e-19
3.56496e-05
7.88378e-20
3.56496e-05
-2.35768e-19
3.56496e-05
-4.99457e-20
3.56496e-05
-3.39803e-20
3.56496e-05
1.61555e-19
3.56496e-05
-1.34904e-19
3.56496e-05
7.97159e-20
3.56496e-05
-1.50906e-19
3.56496e-05
2.58746e-19
3.56496e-05
7.38213e-20
3.56496e-05
-1.90206e-19
3.56496e-05
-8.44174e-20
3.56496e-05
5.2115e-20
3.56496e-05
2.96113e-20
3.56496e-05
-1.67242e-19
3.56496e-05
3.07932e-19
3.56496e-05
-2.66414e-19
3.56496e-05
5.26176e-20
3.56496e-05
1.45882e-19
3.56496e-05
-1.22181e-19
3.56496e-05
-1.06734e-19
3.56496e-05
1.31469e-19
3.56496e-05
-2.93613e-20
3.56496e-05
-2.86071e-19
3.56496e-05
3.64832e-19
3.56496e-05
2.30146e-19
3.56496e-05
-2.44979e-19
3.56496e-05
-1.61419e-19
3.56496e-05
-6.98707e-20
3.56496e-05
-4.73573e-20
3.56496e-05
1.43075e-19
3.56496e-05
4.65117e-19
3.56496e-05
-3.27469e-19
3.56496e-05
-1.66981e-19
3.56496e-05
-8.46494e-20
3.56496e-05
3.46318e-19
3.56496e-05
3.31145e-19
3.56496e-05
-6.1791e-19
3.56496e-05
-1.16036e-19
3.56496e-05
2.85953e-19
3.56496e-05
3.68287e-19
3.56496e-05
-4.69956e-19
3.56496e-05
5.7931e-20
3.56496e-05
1.53076e-19
3.56496e-05
-1.31539e-19
3.56496e-05
5.87988e-20
3.56496e-05
-2.80429e-19
3.56496e-05
5.24304e-20
3.56496e-05
3.28019e-19
3.56496e-05
1.56689e-19
3.56496e-05
-4.24046e-19
3.56496e-05
-1.48835e-19
3.56496e-05
5.68529e-19
3.56496e-05
-1.12467e-19
3.56496e-05
-2.35229e-19
3.56496e-05
2.80172e-20
3.56496e-05
9.44763e-20
3.56496e-05
5.83172e-20
3.56496e-05
1.00848e-19
3.56496e-05
-2.68243e-19
3.56496e-05
-2.15899e-19
3.56496e-05
5.4409e-19
3.56496e-05
-5.06273e-20
3.56496e-05
-5.53458e-19
3.56496e-05
-6.72327e-20
3.56496e-05
6.96474e-19
3.56496e-05
-1.75818e-19
3.56496e-05
-6.3795e-20
3.56496e-05
-4.35225e-20
3.56496e-05
-3.04285e-19
3.56496e-05
5.39256e-19
3.56496e-05
-2.7344e-19
3.56496e-05
-1.14135e-19
3.56496e-05
-6.34005e-20
3.56496e-05
2.30757e-19
3.56496e-05
1.16199e-19
3.56496e-05
-2.11681e-19
3.56496e-05
1.16365e-19
3.56496e-05
-1.72078e-19
3.56496e-05
2.60558e-19
3.56496e-05
-1.1685e-19
3.56496e-05
5.78193e-20
3.56496e-05
-1.55204e-19
3.56496e-05
1.58623e-19
3.56496e-05
-9.10782e-21
3.56496e-05
-1.62713e-19
3.56496e-05
2.1626e-19
3.56496e-05
8.88165e-20
3.56496e-05
1.63579e-19
3.56496e-05
-6.7385e-19
3.56496e-05
2.9421e-19
3.56496e-05
1.88206e-19
3.56496e-05
6.69057e-20
3.56496e-05
7.58051e-20
3.56496e-05
-5.74281e-19
3.56496e-05
1.77339e-19
3.56496e-05
2.40692e-19
3.56496e-05
-3.30433e-20
3.56496e-05
-2.26724e-19
3.56496e-05
1.74951e-19
3.56496e-05
-1.0242e-19
3.56496e-05
2.96709e-20
3.56496e-05
1.17363e-19
3.56496e-05
-2.1685e-19
3.56496e-05
2.11203e-19
3.56496e-05
1.47708e-20
3.56496e-05
1.13482e-19
3.56496e-05
-3.51231e-19
3.56496e-05
6.88754e-20
3.56496e-05
1.60019e-19
3.56496e-05
3.24936e-20
3.56496e-05
-4.94973e-20
3.56496e-05
-1.61217e-19
3.56496e-05
3.50098e-19
3.56496e-05
-3.43097e-19
3.56496e-05
1.03546e-19
3.56496e-05
6.55292e-20
3.56496e-05
-5.27388e-20
3.56496e-05
3.96871e-19
3.56496e-05
-2.29475e-19
3.56496e-05
-2.67024e-19
3.56496e-05
2.22257e-19
3.56496e-05
2.62897e-19
3.56496e-05
-2.8848e-19
3.56496e-05
1.28751e-19
3.56496e-05
5.3318e-20
3.56496e-05
1.25584e-19
3.56496e-05
4.11667e-19
3.56496e-05
2.1761e-19
1.15654e-18
0.000105466
2.44402e-18
0.000105466
1.18111e-18
0.000105466
5.69556e-19
0.000105466
4.15649e-19
0.000105466
2.89165e-19
0.000105466
1.91565e-19
0.000105466
1.66035e-19
0.000105466
1.29957e-19
0.000105466
7.78468e-20
0.000105466
1.94703e-20
0.000105466
6.6095e-21
0.000105466
-5.26545e-20
0.000105466
-9.94376e-20
0.000105466
-5.95233e-20
0.000105466
-1.60046e-20
0.000105466
-4.0207e-20
0.000105466
-7.22318e-20
0.000105466
-3.18335e-20
0.000105466
2.26008e-20
0.000105466
2.81326e-20
0.000105466
4.80534e-20
0.000105466
6.70686e-20
0.000105466
1.22968e-19
0.000105466
1.14474e-19
0.000105466
4.82334e-20
0.000105466
-5.85429e-20
0.000105466
-4.11537e-20
0.000105466
3.35296e-20
0.000105466
-3.27643e-20
0.000105466
4.03508e-20
0.000105466
7.46324e-20
0.000105466
-4.17604e-20
0.000105466
-5.21233e-20
0.000105466
-2.58219e-20
0.000105466
1.80346e-20
0.000105466
6.09575e-20
0.000105466
-1.11958e-19
0.000105466
-7.19039e-20
0.000105466
-5.642e-20
0.000105466
-1.00239e-19
0.000105466
2.10755e-20
0.000105466
-3.30167e-20
0.000105466
6.03758e-22
0.000105466
1.78646e-21
0.000105466
-2.39542e-20
0.000105466
3.54891e-20
0.000105466
4.30541e-20
0.000105466
-1.38886e-19
0.000105466
-6.01579e-20
0.000105466
5.68845e-20
0.000105466
2.89756e-20
0.000105466
-6.39796e-20
0.000105466
-5.13981e-20
0.000105466
4.44413e-20
0.000105466
1.15135e-19
0.000105466
-1.73096e-20
0.000105466
6.89808e-20
0.000105466
-7.02268e-20
0.000105466
-9.12748e-20
0.000105466
1.20974e-20
0.000105466
1.74827e-20
0.000105466
3.76179e-20
0.000105466
2.76587e-20
0.000105466
7.41673e-20
0.000105466
9.42991e-20
0.000105466
8.9505e-20
0.000105466
-1.01032e-19
0.000105466
-8.97703e-20
0.000105466
4.62307e-20
0.000105466
-6.23831e-20
0.000105466
-6.23848e-20
0.000105466
3.04556e-20
0.000105466
1.40365e-19
0.000105466
-9.19975e-20
0.000105466
-1.68218e-19
0.000105466
2.71631e-19
0.000105466
1.78148e-19
0.000105466
-1.07053e-19
0.000105466
-7.42429e-20
0.000105466
6.89126e-20
0.000105466
3.80359e-20
0.000105466
-9.31738e-20
0.000105466
-1.88306e-20
0.000105466
-3.03861e-20
0.000105466
-1.02935e-19
0.000105466
1.09238e-19
0.000105466
1.82692e-20
0.000105466
5.47837e-20
0.000105466
8.87535e-20
0.000105466
7.23438e-20
0.000105466
1.67981e-19
0.000105466
1.00158e-19
0.000105466
5.788e-20
0.000105466
1.7195e-20
0.000105466
1.66348e-20
0.000105466
-1.78239e-19
0.000105466
-8.6549e-21
0.000105466
2.47922e-19
0.000105466
-1.69975e-19
0.000105466
-2.20958e-19
0.000105466
1.66082e-19
0.000105466
1.5408e-19
0.000105466
-3.50678e-20
0.000105466
-1.01399e-19
0.000105466
2.3686e-20
0.000105466
-2.97217e-20
0.000105466
-8.89269e-20
0.000105466
-3.88354e-20
0.000105466
2.03928e-19
0.000105466
2.14443e-19
0.000105466
-1.57537e-19
0.000105466
-2.92414e-19
0.000105466
-2.15076e-19
0.000105466
1.42794e-19
0.000105466
7.77492e-20
0.000105466
-3.23037e-19
0.000105466
-2.00919e-19
0.000105466
1.70777e-19
0.000105466
1.69377e-19
0.000105466
-5.99018e-20
0.000105466
-8.05585e-20
0.000105466
5.25835e-20
0.000105466
1.34068e-19
0.000105466
-5.28226e-20
0.000105466
-8.75405e-20
0.000105466
2.45972e-19
0.000105466
8.75531e-20
0.000105466
-1.46387e-20
0.000105466
1.5967e-19
0.000105466
5.24131e-20
0.000105466
5.47971e-20
0.000105466
-4.19878e-20
0.000105466
1.86775e-19
0.000105466
-1.49398e-19
0.000105466
-2.88533e-19
0.000105466
6.23212e-21
0.000105466
-9.29202e-20
0.000105466
-1.30374e-19
0.000105466
2.07266e-19
0.000105466
1.20774e-19
0.000105466
-2.87183e-19
0.000105466
-2.16507e-19
0.000105466
3.35314e-19
0.000105466
4.91828e-19
0.000105466
-1.70885e-19
0.000105466
-3.37148e-20
0.000105466
4.2919e-19
0.000105466
-7.00427e-20
0.000105466
-2.56329e-19
0.000105466
2.47314e-19
0.000105466
-2.71425e-20
0.000105466
1.51751e-19
0.000105466
3.77237e-19
0.000105466
-3.05191e-19
0.000105466
-7.48766e-20
0.000105466
6.25025e-20
0.000105466
-2.88248e-19
0.000105466
-1.45777e-19
0.000105466
-8.49002e-20
0.000105466
3.10556e-19
0.000105466
1.62946e-19
0.000105466
-9.89773e-20
0.000105466
-6.46827e-20
0.000105466
-6.65472e-20
0.000105466
-7.71541e-20
0.000105466
-6.31485e-20
0.000105466
2.28093e-20
0.000105466
-3.97814e-19
0.000105466
1.18937e-19
0.000105466
2.66768e-19
0.000105466
-2.39555e-19
0.000105466
7.84272e-20
0.000105466
2.99856e-19
0.000105466
-1.31447e-19
0.000105466
-2.59226e-19
0.000105466
1.16397e-19
0.000105466
3.54249e-19
0.000105466
-9.88881e-20
0.000105466
-1.56803e-19
0.000105466
4.08445e-19
0.000105466
3.19777e-20
0.000105466
-1.90791e-19
0.000105466
-1.94945e-20
0.000105466
-1.05529e-19
0.000105466
2.36804e-19
0.000105466
4.22264e-20
0.000105466
-2.17324e-19
0.000105466
2.14822e-21
0.000105466
1.12043e-19
0.000105466
-3.57751e-20
0.000105466
-1.59991e-19
0.000105466
-4.13055e-20
0.000105466
6.15124e-20
0.000105466
4.52042e-19
0.000105466
9.47886e-20
0.000105466
1.45931e-20
0.000105466
3.47199e-19
0.000105466
-1.54442e-19
0.000105466
-4.99289e-19
0.000105466
-8.4313e-20
0.000105466
1.00393e-19
0.000105466
-3.05168e-19
0.000105466
3.79441e-19
0.000105466
8.04345e-20
0.000105466
1.95587e-19
0.000105466
3.80804e-19
0.000105466
-5.00708e-19
0.000105466
-3.98047e-19
0.000105466
4.43812e-20
0.000105466
5.20382e-20
0.000105466
6.13947e-20
0.000105466
1.09452e-19
0.000105466
-9.83756e-20
0.000105466
2.26214e-19
0.000105466
-2.55319e-19
0.000105466
4.05179e-20
0.000105466
-2.16606e-19
0.000105466
-2.16095e-19
0.000105466
3.9384e-19
0.000105466
2.74747e-19
0.000105466
-1.06552e-19
0.000105466
-1.8092e-19
0.000105466
9.577e-20
0.000105466
-2.42866e-19
0.000105466
-5.86437e-20
0.000105466
-1.10392e-19
0.000105466
-6.45616e-20
0.000105466
1.64163e-19
0.000105466
3.23458e-19
0.000105466
-6.53611e-20
0.000105466
-3.8934e-20
0.000105466
-2.04532e-19
0.000105466
-1.34792e-19
0.000105466
1.58898e-19
0.000105466
-1.35001e-19
0.000105466
2.21842e-19
0.000105466
2.07368e-19
0.000105466
7.78903e-20
0.000105466
-6.37943e-20
0.000105466
-2.17005e-20
0.000105466
-1.12713e-20
0.000105466
-2.25493e-19
0.000105466
-6.42061e-20
0.000105466
3.74857e-19
0.000105466
-9.49698e-20
0.000105466
-1.5932e-19
0.000105466
1.68953e-19
0.000105466
-2.17515e-19
0.000105466
-5.30045e-20
0.000105466
1.16661e-19
0.000105466
-4.23295e-20
0.000105466
-5.15361e-20
0.000105466
2.45376e-19
0.000105466
-1.43878e-19
0.000105466
-3.27967e-19
0.000105466
1.1902e-19
0.000105466
-4.64275e-20
0.000105466
-1.75659e-19
0.000105466
7.6269e-20
0.000105466
-2.57336e-19
0.000105466
2.31091e-19
0.000105466
6.20824e-19
0.000105466
-2.4731e-19
0.000105466
7.19998e-20
0.000105466
-4.87169e-19
0.000105466
-4.26905e-19
0.000105466
7.79052e-19
0.000105466
-4.43684e-19
0.000105466
-3.725e-19
0.000105466
9.30623e-19
0.000105466
-3.70486e-19
0.000105466
-3.41124e-19
0.000105466
3.04692e-19
0.000105466
-2.53264e-19
0.000105466
1.46632e-19
0.000105466
-6.66154e-20
0.000105466
-9.34925e-20
0.000105466
2.64458e-19
0.000105466
2.09948e-19
0.000105466
-1.26678e-19
0.000105466
-2.78923e-19
0.000105466
-4.29604e-19
0.000105466
1.99373e-19
0.000105466
6.08941e-19
0.000105466
-6.10256e-19
0.000105466
4.6649e-19
0.000105466
1.3702e-19
0.000105466
-7.84565e-19
0.000105466
5.30835e-19
0.000105466
1.88062e-19
0.000105466
-7.62745e-19
0.000105466
7.86572e-20
0.000105466
1.48208e-19
0.000105466
-2.95408e-19
0.000105466
9.28739e-19
0.000105466
1.89387e-19
0.000105466
-7.24758e-19
0.000105466
2.30714e-19
0.000105466
-8.40697e-20
0.000105466
-4.78983e-19
0.000105466
5.67504e-19
0.000105466
-2.73436e-20
0.000105466
-2.52054e-19
0.000105466
9.00285e-19
0.000105466
-2.84611e-19
0.000105466
-6.44247e-19
0.000105466
4.30072e-19
0.000105466
-3.22132e-19
0.000105466
-4.0503e-19
0.000105466
4.98646e-19
0.000105466
1.88127e-19
0.000105466
-6.02645e-19
0.000105466
2.24131e-19
0.000105466
2.94693e-19
0.000105466
-2.47026e-19
0.000105466
6.75864e-20
0.000105466
-1.66959e-19
0.000105466
-1.11631e-19
0.000105466
-7.11085e-21
0.000105466
4.3682e-19
0.000105466
4.40528e-19
0.000105466
-1.91458e-19
0.000105466
-4.11679e-19
0.000105466
3.81054e-20
0.000105466
4.04474e-19
0.000105466
-2.73646e-19
0.000105466
-3.12708e-19
0.000105466
-4.81803e-21
0.000105466
6.12502e-19
0.000105466
5.35338e-19
0.000105466
-7.90204e-19
0.000105466
-1.43787e-19
0.000105466
2.90166e-19
0.000105466
-5.92278e-19
0.000105466
2.08265e-19
0.000105466
5.32077e-19
0.000105466
-6.09282e-19
0.000105466
5.02044e-19
0.000105466
3.96385e-19
0.000105466
-5.04545e-19
0.000105466
2.17575e-20
0.000105466
-2.67166e-19
0.000105466
-1.18099e-19
0.000105466
2.13592e-19
0.000105466
3.80764e-19
0.000105466
2.70546e-19
0.000105466
-8.78601e-20
0.000105466
-5.54453e-19
0.000105466
-8.47937e-20
0.000105466
3.90746e-19
0.000105466
-3.97387e-19
0.000105466
-1.92237e-19
0.000105466
2.99569e-19
0.000105466
4.17986e-19
0.000105466
2.61236e-19
0.000105466
-7.61972e-20
0.000105466
-5.42388e-19
0.000105466
-2.22508e-19
0.000105466
1.20962e-19
0.000105466
-1.52532e-19
0.000105466
4.17017e-19
0.000105466
-5.59916e-19
0.000105466
1.94753e-20
0.000105466
9.25075e-19
0.000105466
-4.48223e-19
0.000105466
-1.84254e-19
0.000105466
8.46683e-20
0.000105466
3.61968e-20
0.000105466
-1.04516e-19
0.000105466
8.08777e-19
0.000105466
1.45678e-19
0.000105466
-5.19173e-19
0.000105466
-6.27055e-20
0.000105466
-3.44856e-20
0.000105466
2.441e-19
0.000105466
-2.36842e-19
0.000105466
5.36665e-20
0.000105466
-2.03355e-19
0.000105466
5.91579e-19
0.000105466
7.14782e-20
0.000105466
-4.05541e-19
0.000105466
-1.47076e-19
0.000105466
1.0725e-19
0.000105466
-1.34278e-20
0.000105466
-4.18552e-19
0.000105466
7.66066e-19
0.000105466
-4.32923e-19
0.000105466
-1.86727e-19
0.000105466
4.00934e-19
0.000105466
-8.07536e-20
0.000105466
-4.02406e-19
0.000105466
1.89465e-19
0.000105466
-1.08877e-22
0.000105466
-6.07909e-19
0.000105466
9.03177e-19
0.000105466
5.10638e-19
0.000105466
-6.79792e-19
0.000105466
-2.82864e-19
0.000105466
-1.50393e-19
0.000105466
-1.73997e-19
0.000105466
4.00647e-19
0.000105466
9.92609e-19
0.000105466
-6.38477e-19
0.000105466
-2.90289e-19
0.000105466
-2.18294e-19
0.000105466
6.61256e-19
0.000105466
8.90564e-19
0.000105466
-1.29806e-18
0.000105466
-5.48434e-19
0.000105466
6.94142e-19
0.000105466
9.42764e-19
0.000105466
-1.02769e-18
0.000105466
5.2658e-20
0.000105466
2.94388e-19
0.000105466
-2.36236e-19
0.000105466
2.84721e-21
0.000105466
-6.98296e-19
0.000105466
2.63011e-19
0.000105466
6.78247e-19
0.000105466
3.43631e-19
0.000105466
-8.41634e-19
0.000105466
-2.94249e-19
0.000105466
1.11404e-18
0.000105466
-7.27067e-20
0.000105466
-4.75379e-19
0.000105466
-1.13445e-19
0.000105466
3.6332e-19
0.000105466
1.773e-19
0.000105466
1.25538e-19
0.000105466
-6.9068e-19
0.000105466
-4.97851e-19
0.000105466
1.08329e-18
0.000105466
1.25608e-19
0.000105466
-1.29872e-18
0.000105466
-3.4313e-19
0.000105466
1.67525e-18
0.000105466
-2.06742e-19
0.000105466
-2.67618e-19
0.000105466
-1.44395e-19
0.000105466
-5.09562e-19
0.000105466
9.12109e-19
0.000105466
-4.32551e-19
0.000105466
-3.49943e-19
0.000105466
-8.12683e-20
0.000105466
5.7028e-19
0.000105466
2.2618e-19
0.000105466
-3.23043e-19
0.000105466
1.1112e-19
0.000105466
-2.63145e-19
0.000105466
5.76784e-19
0.000105466
-2.41674e-19
0.000105466
-9.44293e-20
0.000105466
-7.73957e-20
0.000105466
2.95e-19
0.000105466
-1.67224e-19
0.000105466
-1.81386e-19
0.000105466
4.91431e-19
0.000105466
2.03953e-19
0.000105466
2.84129e-19
0.000105466
-1.4099e-18
0.000105466
4.26687e-19
0.000105466
7.70873e-19
0.000105466
1.20758e-19
0.000105466
-2.1476e-19
0.000105466
-9.91086e-19
0.000105466
4.5714e-19
0.000105466
2.50243e-19
0.000105466
-1.13063e-19
0.000105466
-1.50954e-19
0.000105466
1.94287e-19
0.000105466
-2.56657e-19
0.000105466
5.10623e-20
0.000105466
2.6834e-19
0.000105466
-2.68881e-19
0.000105466
3.34859e-19
0.000105466
1.38363e-19
0.000105466
2.28694e-20
0.000105466
-7.41026e-19
0.000105466
3.86659e-19
0.000105466
2.27115e-19
0.000105466
-1.54298e-19
0.000105466
7.05104e-20
0.000105466
-1.56522e-19
0.000105466
3.99786e-19
0.000105466
-6.81022e-19
0.000105466
2.91446e-19
0.000105466
1.77488e-19
0.000105466
1.05028e-19
0.000105466
5.94799e-19
0.000105466
-6.43351e-19
0.000105466
-3.50339e-19
0.000105466
6.05487e-19
0.000105466
2.65297e-19
0.000105466
-5.69327e-19
0.000105466
2.3682e-19
0.000105466
1.30427e-19
0.000105466
2.97429e-19
0.000105466
6.40976e-19
0.000105466
3.00881e-19
1.43866e-18
0.000173703
1.19416e-18
0.000173703
9.89377e-19
0.000173703
5.88934e-19
0.000173703
5.01892e-19
0.000173703
3.90108e-19
0.000173703
2.53603e-19
0.000173703
2.56256e-19
0.000173703
2.27816e-19
0.000173703
6.89422e-20
0.000173703
-4.01313e-20
0.000173703
-2.12864e-20
0.000173703
-1.50555e-19
0.000173703
-2.44486e-19
0.000173703
-8.85076e-20
0.000173703
-9.76159e-20
0.000173703
-1.27631e-19
0.000173703
-4.36816e-20
0.000173703
-3.49605e-20
0.000173703
5.36561e-20
0.000173703
1.00788e-19
0.000173703
1.30412e-20
0.000173703
7.41603e-20
0.000173703
2.34611e-19
0.000173703
1.98174e-19
0.000173703
1.4364e-19
0.000173703
-4.43841e-20
0.000173703
-1.117e-19
0.000173703
1.9245e-20
0.000173703
-5.07412e-20
0.000173703
3.58451e-20
0.000173703
6.38198e-20
0.000173703
-6.66037e-20
0.000173703
-4.26538e-20
0.000173703
7.45973e-21
0.000173703
-7.52522e-21
0.000173703
4.58962e-20
0.000173703
-1.93369e-19
0.000173703
-1.31392e-19
0.000173703
-1.16684e-19
0.000173703
-2.27714e-19
0.000173703
-2.3788e-22
0.000173703
-7.27965e-20
0.000173703
-2.23281e-20
0.000173703
3.46048e-20
0.000173703
3.49977e-20
0.000173703
2.76911e-20
0.000173703
8.16466e-21
0.000173703
-1.61989e-19
0.000173703
-1.0048e-19
0.000173703
7.49478e-20
0.000173703
-2.07847e-21
0.000173703
-5.18347e-20
0.000173703
-4.7859e-20
0.000173703
1.07194e-19
0.000173703
1.90279e-19
0.000173703
3.43644e-20
0.000173703
4.32783e-20
0.000173703
-1.75388e-19
0.000173703
-8.22344e-20
0.000173703
4.11953e-20
0.000173703
3.74083e-20
0.000173703
7.21364e-20
0.000173703
4.25083e-20
0.000173703
1.3724e-19
0.000173703
1.36682e-19
0.000173703
1.42268e-19
0.000173703
-1.08719e-19
0.000173703
-1.65348e-19
0.000173703
3.49371e-20
0.000173703
-3.40763e-20
0.000173703
-5.33471e-20
0.000173703
-1.10468e-20
0.000173703
2.31696e-19
0.000173703
-1.26928e-19
0.000173703
-2.7621e-19
0.000173703
4.22497e-19
0.000173703
3.02377e-19
0.000173703
-5.87648e-20
0.000173703
-1.24166e-19
0.000173703
2.87425e-20
0.000173703
3.40243e-20
0.000173703
-1.60253e-19
0.000173703
-4.12777e-20
0.000173703
-6.73321e-20
0.000173703
-1.10469e-19
0.000173703
1.25184e-19
0.000173703
4.88644e-20
0.000173703
1.46763e-19
0.000173703
1.63012e-19
0.000173703
1.95494e-19
0.000173703
2.90858e-19
0.000173703
1.30714e-19
0.000173703
1.62883e-19
0.000173703
9.5456e-20
0.000173703
-4.27922e-20
0.000173703
-2.47277e-19
0.000173703
-1.54604e-20
0.000173703
2.9521e-19
0.000173703
-2.69066e-19
0.000173703
-2.99573e-19
0.000173703
2.33947e-19
0.000173703
2.1248e-19
0.000173703
1.14543e-20
0.000173703
-1.48534e-19
0.000173703
-1.02621e-20
0.000173703
1.00136e-20
0.000173703
-1.612e-19
0.000173703
-8.94796e-20
0.000173703
3.99578e-19
0.000173703
2.44449e-19
0.000173703
-2.81035e-19
0.000173703
-4.70059e-19
0.000173703
-3.40733e-19
0.000173703
1.55211e-19
0.000173703
6.36363e-20
0.000173703
-4.39192e-19
0.000173703
-3.37944e-19
0.000173703
2.35345e-19
0.000173703
2.56162e-19
0.000173703
-5.29639e-20
0.000173703
-1.73581e-19
0.000173703
1.01201e-20
0.000173703
2.01204e-19
0.000173703
-8.11175e-20
0.000173703
-5.28805e-20
0.000173703
3.90078e-19
0.000173703
1.8655e-19
0.000173703
5.8136e-20
0.000173703
2.09241e-19
0.000173703
1.64144e-19
0.000173703
1.74885e-19
0.000173703
-4.75415e-20
0.000173703
1.50529e-19
0.000173703
-2.05151e-19
0.000173703
-3.98989e-19
0.000173703
-4.51098e-20
0.000173703
-2.47523e-19
0.000173703
-1.7288e-19
0.000173703
2.62337e-19
0.000173703
1.114e-19
0.000173703
-3.42554e-19
0.000173703
-2.7493e-19
0.000173703
5.85438e-19
0.000173703
8.08077e-19
0.000173703
-2.40326e-19
0.000173703
-1.91557e-20
0.000173703
7.09556e-19
0.000173703
-1.04897e-19
0.000173703
-3.01176e-19
0.000173703
3.14335e-19
0.000173703
1.94927e-21
0.000173703
3.82107e-19
0.000173703
4.63115e-19
0.000173703
-3.70941e-19
0.000173703
-9.52165e-20
0.000173703
-2.32929e-20
0.000173703
-4.53388e-19
0.000173703
-3.52005e-19
0.000173703
-2.22959e-19
0.000173703
4.8863e-19
0.000173703
3.54719e-19
0.000173703
-8.46743e-20
0.000173703
-1.69738e-19
0.000173703
-1.02254e-19
0.000173703
-1.26622e-19
0.000173703
-1.34055e-19
0.000173703
-8.99184e-20
0.000173703
-5.89098e-19
0.000173703
1.48173e-19
0.000173703
3.41996e-19
0.000173703
-2.46267e-19
0.000173703
9.37585e-20
0.000173703
4.32709e-19
0.000173703
-1.30466e-19
0.000173703
-3.41445e-19
0.000173703
2.29374e-19
0.000173703
5.79959e-19
0.000173703
-1.44014e-19
0.000173703
-2.30002e-19
0.000173703
6.27592e-19
0.000173703
1.05612e-19
0.000173703
-3.81156e-19
0.000173703
-6.49861e-20
0.000173703
-9.3101e-20
0.000173703
2.28264e-19
0.000173703
7.30069e-20
0.000173703
-2.85363e-19
0.000173703
-1.09634e-19
0.000173703
2.57211e-19
0.000173703
-5.65189e-21
0.000173703
-2.74311e-19
0.000173703
-7.03322e-20
0.000173703
2.4275e-19