/*--------------------------------*- C++ -*----------------------------------*\
| =========                 |                                                 |
| \\      /  F ield         | OpenFOAM: The Open Source CFD Toolbox           |
|  \\    /   O peration     | Version:  2112                                  |
|   \\  /    A nd           | Website:  www.openfoam.com                      |
|    \\/     M anipulation  |                                                 |
\*---------------------------------------------------------------------------*/
FoamFile
{
    version     2.0;
    format      ascii;
    arch        "LSB;label=32;scalar=64";
    class       surfaceScalarField;
    location    "2";
    object      phi;
}
// * * * * * * * * * * * * * * * * * * * * * * * * * * * * * * * * * * * * * //

dimensions      [0 3 -1 0 0 0 0];

oriented        oriented;

internalField   nonuniform List<scalar> 
50800
(
2.3503e-05
2.55772e-18
2.3503e-05
3.71405e-19
2.3503e-05
6.61717e-21
2.3503e-05
2.58943e-21
2.3503e-05
1.33515e-20
2.3503e-05
2.11055e-21
2.3503e-05
-7.85281e-21
2.3503e-05
5.03174e-21
2.3503e-05
1.1407e-20
2.3503e-05
3.80282e-21
2.3503e-05
1.74655e-20
2.3503e-05
9.20061e-21
2.3503e-05
2.67133e-20
2.3503e-05
1.41149e-20
2.3503e-05
-1.21553e-20
2.3503e-05
1.46264e-20
2.3503e-05
1.76113e-20
2.3503e-05
7.42929e-21
2.3503e-05
4.44111e-21
2.3503e-05
1.02975e-20
2.3503e-05
1.34576e-20
2.3503e-05
1.16364e-20
2.3503e-05
-1.06968e-20
2.3503e-05
-7.63625e-21
2.3503e-05
-2.76322e-20
2.3503e-05
-2.19348e-20
2.3503e-05
1.6835e-20
2.3503e-05
-2.00095e-20
2.3503e-05
-4.9692e-20
2.3503e-05
-2.7121e-20
2.3503e-05
5.76481e-21
2.3503e-05
2.51413e-20
2.3503e-05
4.12507e-21
2.3503e-05
-2.2314e-20
2.3503e-05
-1.33243e-20
2.3503e-05
3.44411e-22
2.3503e-05
2.74751e-20
2.3503e-05
-8.98976e-21
2.3503e-05
-2.3902e-20
2.3503e-05
2.03622e-20
2.3503e-05
3.3337e-22
2.3503e-05
1.77016e-20
2.3503e-05
9.9792e-21
2.3503e-05
-2.36972e-20
2.3503e-05
9.6718e-21
2.3503e-05
-1.32022e-21
2.3503e-05
-1.88114e-21
2.3503e-05
-3.00074e-21
2.3503e-05
-1.52268e-20
2.3503e-05
-2.68859e-20
2.3503e-05
-3.50546e-20
2.3503e-05
1.74568e-20
2.3503e-05
-1.43816e-20
2.3503e-05
-1.69826e-20
2.3503e-05
1.50636e-20
2.3503e-05
-3.74688e-20
2.3503e-05
-2.9105e-21
2.3503e-05
-9.35128e-21
2.3503e-05
2.68115e-21
2.3503e-05
1.58763e-20
2.3503e-05
-5.25348e-20
2.3503e-05
3.95054e-20
2.3503e-05
-9.76359e-21
2.3503e-05
4.69103e-21
2.3503e-05
5.1966e-20
2.3503e-05
-2.29438e-20
2.3503e-05
2.94872e-20
2.3503e-05
1.59059e-20
2.3503e-05
7.25872e-21
2.3503e-05
2.89133e-20
2.3503e-05
-1.26256e-20
2.3503e-05
-7.08645e-22
2.3503e-05
-1.2215e-20
2.3503e-05
-2.66282e-21
2.3503e-05
4.69828e-20
2.3503e-05
-4.98889e-20
2.3503e-05
-4.53304e-20
2.3503e-05
2.65979e-20
2.3503e-05
-2.01687e-20
2.3503e-05
2.50926e-20
2.3503e-05
-2.39192e-20
2.3503e-05
-7.44339e-20
2.3503e-05
1.71925e-20
2.3503e-05
5.05259e-20
2.3503e-05
3.61007e-20
2.3503e-05
-4.68696e-21
2.3503e-05
-1.88427e-20
2.3503e-05
-3.70407e-22
2.3503e-05
3.33881e-20
2.3503e-05
7.79131e-20
2.3503e-05
-2.50327e-20
2.3503e-05
-5.33053e-20
2.3503e-05
1.83222e-20
2.3503e-05
4.81867e-20
2.3503e-05
7.35031e-21
2.3503e-05
-4.6135e-20
2.3503e-05
9.34147e-21
2.3503e-05
-7.29191e-21
2.3503e-05
2.66296e-20
2.3503e-05
2.33493e-20
2.3503e-05
-6.30407e-20
2.3503e-05
1.14028e-20
2.3503e-05
-4.04778e-20
2.3503e-05
1.73789e-20
2.3503e-05
3.23899e-20
2.3503e-05
1.29004e-20
2.3503e-05
-4.83748e-20
2.3503e-05
-1.14273e-20
2.3503e-05
7.74273e-20
2.3503e-05
4.27846e-20
2.3503e-05
2.71392e-20
2.3503e-05
-1.51153e-19
2.3503e-05
3.00114e-20
2.3503e-05
1.16902e-19
2.3503e-05
1.76992e-20
2.3503e-05
-2.17912e-20
2.3503e-05
-1.0166e-19
2.3503e-05
-4.72721e-21
2.3503e-05
1.034e-19
2.3503e-05
3.21526e-20
2.3503e-05
-5.96979e-20
2.3503e-05
-1.10129e-19
2.3503e-05
2.869e-21
2.3503e-05
1.46569e-19
2.3503e-05
5.69703e-20
2.3503e-05
-6.82255e-20
2.3503e-05
-1.23529e-19
2.3503e-05
2.40607e-20
2.3503e-05
1.36578e-19
2.3503e-05
7.71083e-21
2.3503e-05
-4.66229e-20
2.3503e-05
-7.42474e-20
2.3503e-05
2.16992e-20
2.3503e-05
8.25605e-20
2.3503e-05
-2.21687e-20
2.3503e-05
-3.42738e-20
2.3503e-05
-8.59522e-20
2.3503e-05
-8.30256e-21
2.3503e-05
7.88446e-20
2.3503e-05
1.32938e-21
2.3503e-05
-3.35019e-20
2.3503e-05
-6.36696e-20
2.3503e-05
2.4826e-20
2.3503e-05
5.10439e-20
2.3503e-05
-1.61235e-20
2.3503e-05
-1.03851e-20
2.3503e-05
-6.20679e-20
2.3503e-05
1.71649e-20
2.3503e-05
5.0547e-21
2.3503e-05
-1.04581e-20
2.3503e-05
5.72881e-20
2.3503e-05
-7.09884e-20
2.3503e-05
-6.90938e-20
2.3503e-05
4.8949e-20
2.3503e-05
4.91888e-20
2.3503e-05
5.19432e-20
2.3503e-05
-4.85132e-20
2.3503e-05
-6.31884e-20
2.3503e-05
5.03586e-20
2.3503e-05
3.80926e-20
2.3503e-05
7.22921e-20
2.3503e-05
-8.78241e-20
2.3503e-05
-2.11022e-20
2.3503e-05
1.17969e-19
2.3503e-05
-7.70474e-20
2.3503e-05
5.10572e-20
2.3503e-05
8.02484e-21
2.3503e-05
-2.14296e-20
2.3503e-05
9.34824e-20
2.3503e-05
1.43191e-20
2.3503e-05
2.34073e-20
2.3503e-05
-6.27708e-20
2.3503e-05
3.50262e-20
2.3503e-05
7.45389e-20
2.3503e-05
-2.29785e-20
2.3503e-05
-3.36452e-20
2.3503e-05
-7.77997e-20
2.3503e-05
9.14452e-20
2.3503e-05
-2.03583e-20
2.3503e-05
-1.60746e-20
2.3503e-05
8.8476e-20
2.3503e-05
-1.56268e-19
2.3503e-05
3.73144e-22
2.3503e-05
6.21613e-20
2.3503e-05
-2.53828e-20
2.3503e-05
1.04886e-19
2.3503e-05
-1.02265e-19
2.3503e-05
-1.6627e-20
2.3503e-05
9.81618e-20
2.3503e-05
-8.53918e-20
2.3503e-05
3.99197e-20
2.3503e-05
-1.11945e-20
2.3503e-05
-6.94758e-20
2.3503e-05
1.13588e-19
2.3503e-05
-2.0007e-20
2.3503e-05
1.20529e-20
2.3503e-05
-6.12434e-20
2.3503e-05
-3.88597e-20
2.3503e-05
1.36415e-19
2.3503e-05
-8.21687e-20
2.3503e-05
6.35461e-21
2.3503e-05
-6.61078e-20
2.3503e-05
1.26989e-21
2.3503e-05
1.43997e-19
2.3503e-05
-6.30018e-20
2.3503e-05
-8.21675e-20
2.3503e-05
-6.70749e-20
2.3503e-05
6.06281e-20
2.3503e-05
8.33521e-20
2.3503e-05
-2.46792e-20
2.3503e-05
-6.98481e-20
2.3503e-05
-8.55059e-20
2.3503e-05
2.2361e-19
2.3503e-05
5.07794e-21
2.3503e-05
-2.20027e-19
2.3503e-05
1.93519e-19
2.3503e-05
-1.00917e-22
2.3503e-05
-5.3118e-20
2.3503e-05
-2.75878e-20
2.3503e-05
-1.3109e-19
2.3503e-05
2.41119e-19
2.3503e-05
2.94751e-20
2.3503e-05
-9.4697e-20
2.3503e-05
-3.26231e-20
2.3503e-05
-1.53509e-19
2.3503e-05
2.32754e-19
2.3503e-05
-9.7459e-21
2.3503e-05
-8.52867e-20
2.3503e-05
6.55015e-20
2.3503e-05
-8.46185e-20
2.3503e-05
1.82298e-19
2.3503e-05
-3.1763e-20
2.3503e-05
-4.2498e-20
2.3503e-05
7.68911e-20
2.3503e-05
-1.71664e-19
2.3503e-05
6.8732e-20
2.3503e-05
2.07898e-20
2.3503e-05
6.31797e-20
2.3503e-05
1.10056e-19
2.3503e-05
-1.88947e-19
2.3503e-05
9.56218e-20
2.3503e-05
-5.63111e-20
2.3503e-05
2.17717e-20
2.3503e-05
1.23588e-19
2.3503e-05
-2.59774e-19
2.3503e-05
3.31494e-20
2.3503e-05
5.64753e-20
2.3503e-05
8.00488e-20
2.3503e-05
3.12389e-20
2.3503e-05
-2.05584e-19
2.3503e-05
1.85365e-19
2.3503e-05
-2.34541e-20
2.3503e-05
-1.26674e-19
2.3503e-05
-1.58787e-20
2.3503e-05
-1.2954e-19
2.3503e-05
2.63667e-19
2.3503e-05
-3.07937e-20
2.3503e-05
-5.72893e-20
2.3503e-05
9.75761e-20
2.3503e-05
-1.90507e-19
2.3503e-05
1.00888e-19
2.3503e-05
1.86022e-20
2.3503e-05
-2.87602e-20
2.3503e-05
2.29733e-20
2.3503e-05
-1.16187e-19
2.3503e-05
1.74405e-19
2.3503e-05
1.62494e-20
2.3503e-05
-3.89172e-20
2.3503e-05
-5.67783e-21
2.3503e-05
-1.52396e-19
2.3503e-05
1.18178e-19
2.3503e-05
1.69247e-20
2.3503e-05
3.62842e-21
2.3503e-05
1.98047e-21
2.3503e-05
-1.39675e-19
2.3503e-05
1.13726e-19
2.3503e-05
1.6716e-20
2.3503e-05
-5.26116e-20
2.3503e-05
7.70852e-20
2.3503e-05
-1.35456e-19
2.3503e-05
4.97052e-20
2.3503e-05
3.44702e-20
2.3503e-05
-2.99012e-20
2.3503e-05
4.68767e-20
2.3503e-05
-1.18932e-19
2.3503e-05
6.13735e-20
2.3503e-05
1.09859e-19
2.3503e-05
-2.17695e-20
2.3503e-05
-9.48857e-20
2.3503e-05
-1.02579e-19
2.3503e-05
1.47829e-19
2.3503e-05
1.9813e-20
2.3503e-05
-4.90758e-20
2.3503e-05
-4.40789e-20
2.3503e-05
-5.06992e-20
2.3503e-05
1.31908e-19
2.3503e-05
2.7734e-22
2.3503e-05
-2.31271e-20
2.3503e-05
-8.73421e-20
2.3503e-05
-3.47787e-20
2.3503e-05
1.60122e-19
2.3503e-05
4.15878e-20
2.3503e-05
4.88617e-20
2.3503e-05
-1.15048e-19
2.3503e-05
-1.05664e-19
2.3503e-05
8.75557e-20
2.3503e-05
1.07538e-20
2.3503e-05
6.7931e-20
2.3503e-05
-1.25898e-19
2.3503e-05
2.62591e-21
2.3503e-05
6.95243e-20
2.3503e-05
-1.05866e-19
2.3503e-05
1.08345e-19
2.3503e-05
-2.27463e-20
2.3503e-05
-8.05602e-20
2.3503e-05
5.02521e-20
2.3503e-05
-6.49373e-20
2.3503e-05
1.03352e-19
2.3503e-05
-4.44901e-22
2.5708e-19
6.93326e-05
1.80947e-18
6.93326e-05
4.19473e-19
6.93326e-05
1.08946e-19
6.93326e-05
5.93602e-20
6.93326e-05
6.60487e-20
6.93326e-05
1.44375e-20
6.93326e-05
6.35359e-21
6.93326e-05
4.44401e-20
6.93326e-05
5.6949e-20
6.93326e-05
3.73017e-20
6.93326e-05
2.86989e-20
6.93326e-05
3.95454e-20
6.93326e-05
8.88097e-20
6.93326e-05
5.10578e-20
6.93326e-05
-2.91332e-20
6.93326e-05
4.08856e-20
6.93326e-05
6.57789e-20
6.93326e-05
3.38792e-20
6.93326e-05
2.47136e-20
6.93326e-05
4.55346e-20
6.93326e-05
5.02135e-20
6.93326e-05
2.3524e-22
6.93326e-05
-3.05008e-20
6.93326e-05
-3.77341e-20
6.93326e-05
-5.22747e-20
6.93326e-05
-3.91153e-20
6.93326e-05
-9.02297e-21
6.93326e-05
-8.7296e-20
6.93326e-05
-1.25974e-19
6.93326e-05
-7.62095e-20
6.93326e-05
1.62573e-20
6.93326e-05
6.41769e-20
6.93326e-05
-1.88309e-20
6.93326e-05
-5.58413e-20
6.93326e-05
-1.55788e-20
6.93326e-05
-1.44399e-20
6.93326e-05
8.31098e-20
6.93326e-05
-1.24401e-20
6.93326e-05
-7.1273e-20
6.93326e-05
2.40415e-20
6.93326e-05
-3.77393e-21
6.93326e-05
2.68395e-20
6.93326e-05
2.82816e-20
6.93326e-05
-5.74846e-20
6.93326e-05
2.53516e-20
6.93326e-05
8.16298e-21
6.93326e-05
-1.01521e-20
6.93326e-05
-4.23864e-20
6.93326e-05
-6.38686e-20
6.93326e-05
-6.00868e-20
6.93326e-05
-7.92327e-20
6.93326e-05
-4.6352e-21
6.93326e-05
-4.04279e-20
6.93326e-05
-5.205e-20
6.93326e-05
1.3276e-20
6.93326e-05
-1.07037e-19
6.93326e-05
-3.53447e-20
6.93326e-05
-2.73932e-20
6.93326e-05
6.20552e-21
6.93326e-05
3.58934e-20
6.93326e-05
-1.3678e-19
6.93326e-05
9.53715e-20
6.93326e-05
-6.90344e-21
6.93326e-05
4.73305e-21
6.93326e-05
1.55853e-19
6.93326e-05
-3.94277e-20
6.93326e-05
7.83658e-20
6.93326e-05
5.51708e-20
6.93326e-05
6.78769e-20
6.93326e-05
9.06689e-20
6.93326e-05
-4.8391e-20
6.93326e-05
1.60871e-21
6.93326e-05
-3.34323e-20
6.93326e-05
5.1169e-21
6.93326e-05
1.01713e-19
6.93326e-05
-1.15189e-19
6.93326e-05
-1.21997e-19
6.93326e-05
3.1549e-20
6.93326e-05
-7.02019e-20
6.93326e-05
2.75049e-20
6.93326e-05
-9.65181e-20
6.93326e-05
-1.69781e-19
6.93326e-05
5.64583e-20
6.93326e-05
1.22182e-19
6.93326e-05
1.07795e-19
6.93326e-05
-1.33809e-20
6.93326e-05
-8.59937e-21
6.93326e-05
1.68704e-20
6.93326e-05
8.45124e-20
6.93326e-05
1.94749e-19
6.93326e-05
-4.27015e-20
6.93326e-05
-1.04454e-19
6.93326e-05
4.52631e-20
6.93326e-05
9.80333e-20
6.93326e-05
2.2635e-20
6.93326e-05
-9.4994e-20
6.93326e-05
3.07805e-20
6.93326e-05
-1.34037e-21
6.93326e-05
1.84349e-20
6.93326e-05
1.92351e-20
6.93326e-05
-9.39501e-20
6.93326e-05
-1.11228e-20
6.93326e-05
-8.33685e-20
6.93326e-05
1.73553e-20
6.93326e-05
9.04246e-20
6.93326e-05
6.55832e-20
6.93326e-05
-1.10132e-19
6.93326e-05
-4.28764e-20
6.93326e-05
1.94035e-19
6.93326e-05
1.85666e-19
6.93326e-05
3.11204e-21
6.93326e-05
-3.13692e-19
6.93326e-05
4.95179e-20
6.93326e-05
2.72844e-19
6.93326e-05
6.45373e-20
6.93326e-05
-3.81637e-20
6.93326e-05
-2.57805e-19
6.93326e-05
-5.99479e-20
6.93326e-05
2.67295e-19
6.93326e-05
9.90824e-20
6.93326e-05
-1.97399e-19
6.93326e-05
-2.86836e-19
6.93326e-05
1.27204e-20
6.93326e-05
3.57608e-19
6.93326e-05
1.80429e-19
6.93326e-05
-1.65923e-19
6.93326e-05
-3.15377e-19
6.93326e-05
9.09755e-20
6.93326e-05
3.34386e-19
6.93326e-05
2.90232e-20
6.93326e-05
-1.18232e-19
6.93326e-05
-1.75622e-19
6.93326e-05
5.40055e-20
6.93326e-05
2.09019e-19
6.93326e-05
-5.17438e-20
6.93326e-05
-1.09312e-19
6.93326e-05
-2.29943e-19
6.93326e-05
-7.01175e-20
6.93326e-05
2.05166e-19
6.93326e-05
1.42774e-20
6.93326e-05
-1.06949e-19
6.93326e-05
-1.68029e-19
6.93326e-05
4.46716e-20
6.93326e-05
1.19021e-19
6.93326e-05
-3.95545e-20
6.93326e-05
-6.62317e-20
6.93326e-05
-1.67617e-19
6.93326e-05
6.48572e-20
6.93326e-05
2.87247e-20
6.93326e-05
-5.83537e-20
6.93326e-05
1.03732e-19
6.93326e-05
-1.68111e-19
6.93326e-05
-1.368e-19
6.93326e-05
1.04358e-19
6.93326e-05
1.32732e-19
6.93326e-05
1.17644e-19
6.93326e-05
-9.14824e-20
6.93326e-05
-1.49104e-19
6.93326e-05
8.62122e-20
6.93326e-05
1.49307e-19
6.93326e-05
1.79262e-19
6.93326e-05
-1.87192e-19
6.93326e-05
-1.49674e-20
6.93326e-05
2.54228e-19
6.93326e-05
-1.21506e-19
6.93326e-05
1.02166e-19
6.93326e-05
5.03881e-20
6.93326e-05
2.22646e-20
6.93326e-05
2.14371e-19
6.93326e-05
8.85993e-20
6.93326e-05
2.34553e-20
6.93326e-05
-1.17826e-19
6.93326e-05
8.56133e-20
6.93326e-05
1.86169e-19
6.93326e-05
-2.00537e-20
6.93326e-05
-1.23639e-19
6.93326e-05
-1.56524e-19
6.93326e-05
1.34082e-19
6.93326e-05
-4.13666e-20
6.93326e-05
5.66235e-20
6.93326e-05
1.15667e-19
6.93326e-05
-3.70678e-19
6.93326e-05
-3.39502e-20
6.93326e-05
1.58345e-19
6.93326e-05
7.9133e-21
6.93326e-05
1.80985e-19
6.93326e-05
-1.94552e-19
6.93326e-05
-5.12878e-20
6.93326e-05
1.93e-19
6.93326e-05
-1.24397e-19
6.93326e-05
3.33311e-20
6.93326e-05
-2.95834e-20
6.93326e-05
-1.02388e-19
6.93326e-05
1.87258e-19
6.93326e-05
4.37684e-20
6.93326e-05
2.40704e-20
6.93326e-05
-1.3263e-19
6.93326e-05
-7.21177e-20
6.93326e-05
1.91954e-19
6.93326e-05
-9.35386e-20
6.93326e-05
-3.44159e-20
6.93326e-05
-1.23224e-19
6.93326e-05
2.63732e-20
6.93326e-05
2.12115e-19
6.93326e-05
-9.50584e-20
6.93326e-05
-1.75061e-19
6.93326e-05
-1.649e-19
6.93326e-05
1.07168e-19
6.93326e-05
1.27024e-19
6.93326e-05
-3.10038e-20
6.93326e-05
-1.13109e-19
6.93326e-05
-1.79919e-19
6.93326e-05
4.48542e-19
6.93326e-05
3.37272e-20
6.93326e-05
-4.09481e-19
6.93326e-05
3.55442e-19
6.93326e-05
-3.35505e-20
6.93326e-05
-3.77538e-20
6.93326e-05
-8.89586e-20
6.93326e-05
-2.98367e-19
6.93326e-05
5.12401e-19
6.93326e-05
5.47472e-20
6.93326e-05
-1.70771e-19
6.93326e-05
-8.72577e-20
6.93326e-05
-3.54526e-19
6.93326e-05
4.86943e-19
6.93326e-05
4.32228e-20
6.93326e-05
-1.85317e-19
6.93326e-05
1.3058e-19
6.93326e-05
-1.42498e-19
6.93326e-05
4.0723e-19
6.93326e-05
-1.48838e-20
6.93326e-05
-7.6433e-20
6.93326e-05
1.11554e-19
6.93326e-05
-3.79117e-19
6.93326e-05
1.23345e-19
6.93326e-05
6.09616e-20
6.93326e-05
2.63837e-19
6.93326e-05
2.50985e-19
6.93326e-05
-4.11181e-19
6.93326e-05
1.5547e-19
6.93326e-05
-1.27231e-19
6.93326e-05
8.82428e-20
6.93326e-05
2.22041e-19
6.93326e-05
-6.06705e-19
6.93326e-05
8.45938e-20
6.93326e-05
1.36787e-19
6.93326e-05
1.7009e-19
6.93326e-05
6.6101e-20
6.93326e-05
-4.27473e-19
6.93326e-05
4.14562e-19
6.93326e-05
-6.08404e-20
6.93326e-05
-3.51094e-19
6.93326e-05
-1.44118e-19
6.93326e-05
-2.47487e-19
6.93326e-05
6.37903e-19
6.93326e-05
-2.99974e-20
6.93326e-05
-1.38853e-19
6.93326e-05
1.73444e-19
6.93326e-05
-3.94295e-19
6.93326e-05
1.93618e-19
6.93326e-05
3.54369e-20
6.93326e-05
-6.26089e-21
6.93326e-05
3.47778e-20
6.93326e-05
-2.20816e-19
6.93326e-05
4.05299e-19
6.93326e-05
5.68661e-22
6.93326e-05
-8.36442e-20
6.93326e-05
-2.91707e-20
6.93326e-05
-3.63372e-19
6.93326e-05
2.82698e-19
6.93326e-05
3.25194e-20
6.93326e-05
3.36164e-20
6.93326e-05
-2.3039e-21
6.93326e-05
-3.68411e-19
6.93326e-05
2.79821e-19
6.93326e-05
4.07856e-21
6.93326e-05
-4.29305e-20
6.93326e-05
1.3348e-19
6.93326e-05
-3.66775e-19
6.93326e-05
1.79318e-19
6.93326e-05
3.68094e-20
6.93326e-05
-1.37471e-20
6.93326e-05
1.02135e-19
6.93326e-05
-3.36908e-19
6.93326e-05
2.233e-19
6.93326e-05
2.4025e-19
6.93326e-05
-9.3085e-20
6.93326e-05
-2.11302e-19
6.93326e-05
-2.41169e-19
6.93326e-05
3.34839e-19
6.93326e-05
4.00776e-20
6.93326e-05
-1.5599e-19
6.93326e-05
-3.14375e-20
6.93326e-05
-1.50865e-19
6.93326e-05
2.70763e-19
6.93326e-05
1.10379e-19
6.93326e-05
-1.62313e-19
6.93326e-05
-1.36197e-19
6.93326e-05
-1.06145e-19
6.93326e-05
3.58555e-19
6.93326e-05
2.50604e-19
6.93326e-05
5.58793e-20
6.93326e-05
-2.82665e-19
6.93326e-05
-2.49626e-19
6.93326e-05
2.42151e-19
6.93326e-05
4.84804e-20
6.93326e-05
5.5158e-20
6.93326e-05
-2.66847e-19
6.93326e-05
6.96551e-21
6.93326e-05
1.84282e-19
6.93326e-05
-1.97769e-19
6.93326e-05
1.8408e-19
6.93326e-05
-1.87717e-20
6.93326e-05
-1.87341e-19
6.93326e-05
6.50267e-20
6.93326e-05
-9.54924e-20
6.93326e-05
2.90353e-19
6.93326e-05
7.99932e-20
1.81049e-19
0.000113984
1.24292e-18
0.000113984
3.7175e-19
0.000113984
1.51871e-19
0.000113984
9.83013e-20
0.000113984
8.17157e-20
0.000113984
5.59235e-20
0.000113984
4.63959e-20
0.000113984
1.153e-19
0.000113984
1.23856e-19
0.000113984
8.99887e-20
0.000113984
2.86434e-20
0.000113984
9.21381e-20
0.000113984
1.50553e-19
0.000113984
7.66154e-20
0.000113984
2.60806e-21
0.000113984
7.10295e-20
0.000113984
1.01105e-19
0.000113984
7.63149e-20
0.000113984
7.00979e-20
0.000113984
9.34884e-20
0.000113984
8.86004e-20
0.000113984
4.52194e-21
0.000113984
-6.15118e-20
0.000113984
-9.18989e-20
0.000113984
-1.02683e-19
0.000113984
-7.04135e-20
0.000113984
-4.8024e-20
0.000113984
-1.73555e-19
0.000113984
-2.37258e-19
0.000113984
-1.40591e-19
0.000113984
1.97916e-20
0.000113984
1.01479e-19
0.000113984
-3.78599e-21
0.000113984
-9.40424e-20
0.000113984
-4.82574e-20
0.000113984
-1.42307e-20
0.000113984
1.10069e-19
0.000113984
-2.86932e-20
0.000113984
-1.11542e-19
0.000113984
2.12247e-20
0.000113984
2.71395e-20
0.000113984
3.26107e-20
0.000113984
4.94335e-20
0.000113984
-6.80437e-20
0.000113984
-2.37514e-20
0.000113984
2.31393e-20
0.000113984
5.01051e-21
0.000113984
-8.20307e-20
0.000113984
-1.35831e-19
0.000113984
-1.62462e-19
0.000113984
-1.5702e-19
0.000113984
-3.87232e-20
0.000113984
-8.14481e-20
0.000113984
-8.54806e-20
0.000113984
-6.99924e-21
0.000113984
-1.6191e-19
0.000113984
-6.71445e-20
0.000113984
-5.62308e-20
0.000113984
-1.04697e-20
0.000113984
2.93604e-20
0.000113984
-1.91549e-19
0.000113984
8.50714e-20
0.000113984
1.9732e-20
0.000113984
4.82605e-20
0.000113984
2.14441e-19
0.000113984
-4.83946e-20
0.000113984
1.59919e-19
0.000113984
1.26334e-19
0.000113984
1.08315e-19
0.000113984
1.61379e-19
0.000113984
-4.54854e-20
0.000113984
2.39244e-20
0.000113984
-5.33803e-20
0.000113984
1.67145e-20
0.000113984
9.58535e-20
0.000113984
-1.80501e-19
0.000113984
-1.89708e-19
0.000113984
-2.67495e-20
0.000113984
-1.0743e-19
0.000113984
4.34212e-21
0.000113984
-1.35185e-19
0.000113984
-2.43053e-19
0.000113984
5.58579e-20
0.000113984
2.16286e-19
0.000113984
1.77036e-19
0.000113984
3.15696e-22
0.000113984
2.53566e-20
0.000113984
4.7718e-20
0.000113984
1.29491e-19
0.000113984
3.07561e-19
0.000113984
-7.26265e-21
0.000113984
-1.31413e-19
0.000113984
8.12216e-20
0.000113984
1.1339e-19
0.000113984
5.66074e-20
0.000113984
-9.20787e-20
0.000113984
1.23695e-20
0.000113984
1.87397e-20
0.000113984
1.60301e-21
0.000113984
4.3849e-21
0.000113984
-8.44609e-20
0.000113984
-6.20472e-20
0.000113984
-1.25556e-19
0.000113984
9.90689e-21
0.000113984
1.48058e-19
0.000113984
1.27066e-19
0.000113984
-1.26358e-19
0.000113984
-6.6988e-20
0.000113984
3.2875e-19
0.000113984
3.20723e-19
0.000113984
-1.11165e-22
0.000113984
-4.35126e-19
0.000113984
5.78707e-20
0.000113984
4.04591e-19
0.000113984
1.89929e-19
0.000113984
-6.11708e-20
0.000113984
-4.08457e-19
0.000113984
-1.31293e-19
0.000113984
3.97858e-19
0.000113984
1.45165e-19
0.000113984
-3.74106e-19
0.000113984
-4.73365e-19
0.000113984
-9.40633e-22
0.000113984
5.59742e-19
0.000113984
3.46169e-19
0.000113984
-2.42447e-19
0.000113984
-4.7639e-19
0.000113984
1.48046e-19
0.000113984
4.98058e-19
0.000113984
5.49952e-20
0.000113984
-1.53954e-19
0.000113984
-2.43052e-19
0.000113984
2.55336e-20
0.000113984
2.74384e-19
0.000113984
-5.19561e-20
0.000113984
-2.20909e-19
0.000113984
-3.5951e-19
0.000113984
-1.20985e-19
0.000113984
3.07749e-19
0.000113984
4.61796e-20
0.000113984
-2.00075e-19
0.000113984
-2.77307e-19
0.000113984
4.73044e-20
0.000113984
1.49668e-19
0.000113984
-5.29328e-20
0.000113984
-1.353e-19
0.000113984
-3.03631e-19
0.000113984
8.64467e-20
0.000113984
4.97783e-20
0.000113984
-1.09227e-19
0.000113984
1.26506e-19
0.000113984
-2.27295e-19
0.000113984
-1.97082e-19
0.000113984
1.06966e-19
0.000113984
2.05441e-19
0.000113984
1.73356e-19
0.000113984
-1.05103e-19
0.000113984
-1.98519e-19
0.000113984
1.35356e-19
0.000113984
2.61197e-19
0.000113984
2.56934e-19
0.000113984
-2.26361e-19
0.000113984
4.93372e-20
0.000113984
3.59412e-19
0.000113984
-9.72762e-20
0.000113984
1.48786e-19
0.000113984
1.33992e-19
0.000113984
1.62184e-19
0.000113984
2.84614e-19
0.000113984
1.29821e-19
0.000113984
4.77141e-20
0.000113984
-1.61346e-19
0.000113984
1.68575e-19
0.000113984
3.17751e-19
0.000113984
-2.43974e-20
0.000113984
-2.00459e-19
0.000113984
-2.3416e-19
0.000113984
5.82336e-20
0.000113984
-3.55533e-20
0.000113984
1.76957e-19
0.000113984
8.80522e-20
0.000113984
-5.68331e-19
0.000113984
-7.33466e-20
0.000113984
2.50791e-19
0.000113984
6.94773e-20
0.000113984
1.80389e-19
0.000113984
-2.36807e-19
0.000113984
-3.25687e-20
0.000113984
2.37317e-19
0.000113984
-1.31499e-19
0.000113984
-1.72763e-20
0.000113984
-7.27859e-20
0.000113984
-1.03587e-19
0.000113984
2.06589e-19
0.000113984
1.55662e-19
0.000113984
4.48208e-20
0.000113984
-1.50682e-19
0.000113984
-1.13834e-19
0.000113984
1.60506e-19
0.000113984
-8.06817e-20
0.000113984
-5.83213e-20
0.000113984
-1.62268e-19
0.000113984
8.89968e-20
0.000113984
2.14434e-19
0.000113984
-1.34048e-19
0.000113984
-2.41388e-19
0.000113984
-2.6836e-19
0.000113984
1.00272e-19
0.000113984
1.17615e-19
0.000113984
-9.41193e-21
0.000113984
-6.94341e-20
0.000113984
-2.42362e-19
0.000113984
5.64047e-19
0.000113984
7.40979e-20
0.000113984
-4.85956e-19
0.000113984
4.34005e-19
0.000113984
-6.57224e-20
0.000113984
3.18469e-20
0.000113984
-1.61957e-19
0.000113984
-4.1496e-19
0.000113984
7.00024e-19
0.000113984
7.00124e-20
0.000113984
-1.64195e-19
0.000113984
-1.32953e-19
0.000113984
-5.2532e-19
0.000113984
6.55472e-19
0.000113984
1.23629e-19
0.000113984
-2.33423e-19
0.000113984
1.66778e-19
0.000113984
-1.67487e-19
0.000113984
6.35498e-19
0.000113984
4.26508e-20
0.000113984
-1.5925e-19
0.000113984
1.11464e-19
0.000113984
-4.86797e-19
0.000113984
1.3625e-19
0.000113984
7.69533e-20
0.000113984
4.92915e-19
0.000113984
4.19372e-19
0.000113984
-5.88951e-19
0.000113984
1.71531e-19
0.000113984
-1.68566e-19
0.000113984
1.44564e-19
0.000113984
2.56962e-19
0.000113984
-8.77016e-19
0.000113984
1.12529e-19
0.000113984
1.68502e-19
0.000113984
2.42653e-19
0.000113984
1.12026e-19
0.000113984
-5.78022e-19
0.000113984
5.8331e-19
0.000113984
-9.2138e-20
0.000113984
-5.81251e-19
0.000113984
-3.52027e-19
0.000113984
-2.84155e-19
0.000113984
9.33643e-19
0.000113984
1.60292e-21
0.000113984
-1.56019e-19
0.000113984
2.18404e-19
0.000113984
-5.53144e-19
0.000113984
2.02368e-19
0.000113984
3.31633e-20
0.000113984
7.37292e-20
0.000113984
2.38659e-20
0.000113984
-2.85697e-19
0.000113984
6.00826e-19
0.000113984
-4.46235e-20
0.000113984
-8.03619e-20
0.000113984
-6.03476e-20
0.000113984
-5.69194e-19
0.000113984
4.10861e-19
0.000113984
5.81245e-20
0.000113984
6.74463e-20
0.000113984
-1.969e-20
0.000113984
-5.55635e-19
0.000113984
4.39545e-19
0.000113984
-2.84654e-20
0.000113984
-2.04927e-20
0.000113984
1.6172e-19
0.000113984
-5.95057e-19
0.000113984
2.8207e-19
0.000113984
2.01888e-20
0.000113984
3.60363e-22
0.000113984
1.51086e-19
0.000113984
-5.39863e-19
0.000113984
4.03322e-19
0.000113984
3.39508e-19
0.000113984
-1.6832e-19
0.000113984
-3.00907e-19
0.000113984
-3.80871e-19
0.000113984
4.59418e-19
0.000113984
7.28804e-20
0.000113984
-2.20443e-19
0.000113984
-4.83468e-21
0.000113984
-2.50201e-19
0.000113984
3.5429e-19
0.000113984
2.5001e-19
0.000113984
-2.66169e-19
0.000113984
-1.82581e-19
0.000113984
-1.91227e-19
0.000113984
5.39709e-19
0.000113984
5.04903e-19
0.000113984
3.9112e-20
0.000113984
-4.27826e-19
0.000113984
-3.57117e-19
0.000113984
3.89468e-19
0.000113984
5.77824e-20
0.000113984
2.21255e-21
0.000113984
-3.2105e-19
0.000113984
-4.96674e-20
0.000113984
3.28177e-19
0.000113984
-2.5814e-19
0.000113984
1.12415e-19
0.000113984
6.1842e-20
0.000113984
-2.94734e-19
0.000113984
1.95161e-20
0.000113984
-1.13718e-19
0.000113984
4.01567e-19
0.000113984
1.69057e-19
-2.77254e-22
0.000157456
7.41328e-19
0.000157456
3.05521e-19
0.000157456
1.76572e-19
0.000157456
1.24955e-19
0.000157456
1.17985e-19
0.000157456
8.78055e-20
0.000157456
1.1334e-19
0.000157456
1.47651e-19
0.000157456
1.959e-19
0.000157456
1.15597e-19
0.000157456
6.15756e-20
0.000157456
1.29779e-19
0.000157456
2.16599e-19
0.000157456
1.17673e-19
0.000157456
1.00461e-20
0.000157456
1.34483e-19
0.000157456
1.68399e-19
0.000157456
1.56137e-19
0.000157456
1.26946e-19
0.000157456
1.28315e-19
0.000157456
1.31583e-19
0.000157456
9.94564e-22
0.000157456
-1.11823e-19
0.000157456
-1.34428e-19
0.000157456
-1.24429e-19
0.000157456
-1.68347e-19
0.000157456
-8.33534e-20
0.000157456
-2.28051e-19
0.000157456
-3.58219e-19
0.000157456
-2.57137e-19
0.000157456
-5.28766e-21
0.000157456
1.26712e-19
0.000157456
-1.11991e-20
0.000157456
-7.12198e-20
0.000157456
-7.07162e-20
0.000157456
-1.8823e-20
0.000157456
6.13259e-20
0.000157456
1.678e-21
0.000157456
-1.40662e-19
0.000157456
2.09262e-20
0.000157456
3.03271e-20
0.000157456
7.71749e-20
0.000157456
7.28359e-21
0.000157456
-1.29442e-19
0.000157456
-1.53951e-20
0.000157456
5.79698e-20
0.000157456
2.65431e-21
0.000157456
-1.13616e-19
0.000157456
-2.23598e-19
0.000157456
-2.48312e-19
0.000157456
-2.38932e-19
0.000157456
-1.30015e-19
0.000157456
-1.09248e-19
0.000157456
-1.09595e-19
0.000157456
-6.7561e-20
0.000157456
-2.14605e-19
0.000157456
-1.2479e-19
0.000157456
-8.76588e-20
0.000157456
-6.12045e-20
0.000157456
-1.00831e-20
0.000157456
-2.38385e-19
0.000157456
1.10904e-19
0.000157456
3.44304e-20
0.000157456
7.69482e-20
0.000157456
2.79466e-19
0.000157456
3.82504e-20
0.000157456
2.17879e-19
0.000157456
1.4516e-19
0.000157456
1.90242e-19
0.000157456
2.37794e-19
0.000157456
7.20559e-21
0.000157456
3.29469e-20
0.000157456
-7.13361e-20
0.000157456
3.9608e-20
0.000157456
5.85654e-20
0.000157456
-2.76129e-19
0.000157456
-2.349e-19
0.000157456
-8.43107e-20
0.000157456
-1.88265e-19
0.000157456
-2.81361e-20
0.000157456
-1.80447e-19
0.000157456
-3.21174e-19
0.000157456
7.96636e-20
0.000157456
3.06584e-19
0.000157456
2.63561e-19
0.000157456
4.42257e-20
0.000157456
8.09362e-20
0.000157456
1.22973e-19
0.000157456
1.77662e-19
0.000157456
3.71027e-19
0.000157456
4.55795e-20
0.000157456
-1.27834e-19
0.000157456
8.67905e-20
0.000157456
1.59279e-19
0.000157456
1.21738e-19
0.000157456
-8.9386e-20
0.000157456
4.01572e-20
0.000157456
5.60057e-21
0.000157456
5.05275e-21
0.000157456
-1.85145e-20
0.000157456
-1.33109e-19
0.000157456
-1.08111e-19
0.000157456
-1.63086e-19
0.000157456
4.84507e-20
0.000157456
2.24972e-19
0.000157456
1.59197e-19
0.000157456
-1.36861e-19
0.000157456
-6.40286e-20
0.000157456
4.3744e-19
0.000157456
4.49075e-19
0.000157456
3.52087e-20
0.000157456
-4.95908e-19
0.000157456
4.78933e-20
0.000157456
5.13104e-19
0.000157456
3.23018e-19
0.000157456
-6.03303e-20
0.000157456
-5.14041e-19
0.000157456
-1.64559e-19
0.000157456
4.68578e-19
0.000157456
1.35567e-19
0.000157456
-5.47249e-19
0.000157456
-6.63595e-19
0.000157456
-1.18645e-20
0.000157456
6.91754e-19
0.000157456
4.92598e-19
0.000157456
-2.69162e-19
0.000157456
-5.6805e-19
0.000157456
1.75853e-19
0.000157456
6.41319e-19
0.000157456
1.2872e-19
0.000157456
-2.19669e-19
0.000157456
-3.44187e-19
0.000157456
9.84794e-21
0.000157456
3.25998e-19
0.000157456
-4.50354e-20
0.000157456
-2.90891e-19
0.000157456
-4.94768e-19
0.000157456
-1.9042e-19
0.000157456
3.5622e-19
0.000157456
5.86307e-20
0.000157456
-3.26564e-19
0.000157456
-4.1896e-19
0.000157456
2.78643e-20
0.000157456
1.54085e-19
0.000157456
-1.09768e-19
0.000157456
-2.08218e-19
0.000157456
-3.7043e-19
0.000157456
5.8502e-20
0.000157456
5.82052e-20
0.000157456
-1.03582e-19
0.000157456
1.32343e-19
0.000157456
-2.5167e-19
0.000157456
-2.31992e-19
0.000157456
5.18728e-20
0.000157456
2.51888e-19
0.000157456
2.35479e-19
0.000157456
-1.63695e-19
0.000157456
-1.5382e-19
0.000157456
1.84211e-19
0.000157456
3.67219e-19
0.000157456
3.25278e-19
0.000157456
-1.80384e-19
0.000157456
1.03608e-19
0.000157456
4.76199e-19
0.000157456
-1.23368e-20
0.000157456
2.49134e-19
0.000157456
2.56609e-19
0.000157456
2.53851e-19
0.000157456
4.11198e-19
0.000157456
2.01887e-19
0.000157456
6.65766e-20
0.000157456
-2.71364e-19
0.000157456
2.83747e-19
0.000157456
4.77163e-19
0.000157456
-1.20874e-19
0.000157456
-2.55012e-19
0.000157456
-3.20493e-19
0.000157456
-2.66721e-20
0.000157456
-2.33381e-20
0.000157456
2.89121e-19
0.000157456
8.44388e-20
0.000157456
-7.10458e-19
0.000157456
-1.2286e-19
0.000157456
3.28931e-19
0.000157456
1.45626e-19
0.000157456
1.62637e-19
0.000157456
-3.26958e-19
0.000157456
-2.66165e-20
0.000157456
3.22697e-19
0.000157456
-1.70061e-19
0.000157456
-9.6344e-20
0.000157456
-3.67348e-20
0.000157456
-8.20494e-20
0.000157456
2.27239e-19
0.000157456
1.97683e-19
0.000157456
1.30876e-19
0.000157456
-2.29579e-19
0.000157456
-1.74778e-19
0.000157456
1.62631e-19
0.000157456
-6.48925e-20
0.000157456
-8.7035e-20
0.000157456
-1.74302e-19
0.000157456
1.06266e-19
0.000157456
1.99719e-19
0.000157456
-1.53619e-19
0.000157456
-2.98175e-19
0.000157456
-3.62267e-19
0.000157456
4.05891e-20
0.000157456
1.18928e-19
0.000157456
7.42247e-20
0.000157456
-2.64902e-20
0.000157456
-2.99733e-19
0.000157456
6.5051e-19
0.000157456
1.01547e-19
0.000157456
-5.23812e-19
0.000157456
4.85782e-19
0.000157456
-7.113e-20
0.000157456
4.74363e-20
0.000157456
-1.75139e-19
0.000157456
-4.96805e-19
0.000157456
8.25524e-19
0.000157456
5.00698e-20
0.000157456
-1.0136e-19
0.000157456
-1.04437e-19
0.000157456
-6.43176e-19
0.000157456
7.08112e-19
0.000157456
1.81786e-19
0.000157456
-1.89643e-19
0.000157456
1.97578e-19
0.000157456
-1.34689e-19
0.000157456
7.90504e-19
0.000157456
1.18692e-19
0.000157456
-1.97046e-19
0.000157456
1.08177e-19
0.000157456
-5.24313e-19
0.000157456
1.6237e-19
0.000157456
9.11826e-20
0.000157456
6.61005e-19
0.000157456
5.64096e-19
0.000157456
-6.50649e-19
0.000157456
1.55216e-19
0.000157456
-2.22386e-19
0.000157456
2.18074e-19
0.000157456
2.40315e-19
0.000157456
-1.07376e-18
0.000157456
7.52975e-20
0.000157456
1.37726e-19
0.000157456
3.27796e-19
0.000157456