/*--------------------------------*- C++ -*----------------------------------*\
| =========                 |                                                 |
| \\      /  F ield         | OpenFOAM: The Open Source CFD Toolbox           |
|  \\    /   O peration     | Version:  2112                                  |
|   \\  /    A nd           | Website:  www.openfoam.com                      |
|    \\/     M anipulation  |                                                 |
\*---------------------------------------------------------------------------*/
FoamFile
{
    version     2.0;
    format      ascii;
    arch        "LSB;label=32;scalar=64";
    class       volVectorField;
    location    "2";
    object      U;
}
// * * * * * * * * * * * * * * * * * * * * * * * * * * * * * * * * * * * * * //

dimensions      [0 1 -1 0 0 0 0];

internalField   nonuniform List<vector> 
50000
(
(0.0356493 8.2114e-16 0)
(0.0356493 1.453e-16 0)
(0.0356493 7.66339e-18 0)
(0.0356493 7.87972e-18 0)
(0.0356493 8.0759e-18 0)
(0.0356493 5.48864e-18 0)
(0.0356493 4.57519e-18 0)
(0.0356493 1.09947e-18 0)
(0.0356493 6.04906e-18 0)
(0.0356493 6.48154e-18 0)
(0.0356493 -9.40477e-19 0)
(0.0356493 -3.28301e-18 0)
(0.0356493 -4.76783e-18 0)
(0.0356493 8.64031e-19 0)
(0.0356493 3.2662e-18 0)
(0.0356493 -3.93176e-18 0)
(0.0356493 -6.68456e-18 0)
(0.0356493 2.62633e-18 0)
(0.0356493 -6.77055e-19 0)
(0.0356493 -2.99252e-18 0)
(0.0356493 9.34624e-18 0)
(0.0356493 1.21014e-18 0)
(0.0356493 4.87587e-18 0)
(0.0356493 7.5495e-18 0)
(0.0356493 -6.13541e-18 0)
(0.0356493 -4.06312e-18 0)
(0.0356493 2.04627e-18 0)
(0.0356493 1.21852e-17 0)
(0.0356493 -8.90926e-18 0)
(0.0356493 3.51115e-18 0)
(0.0356493 1.3252e-17 0)
(0.0356493 -1.4575e-17 0)
(0.0356493 -5.28822e-18 0)
(0.0356493 7.01739e-18 0)
(0.0356493 -1.36819e-18 0)
(0.0356493 9.83768e-18 0)
(0.0356493 -8.20023e-18 0)
(0.0356493 -6.43087e-18 0)
(0.0356493 3.62892e-18 0)
(0.0356493 -1.21834e-17 0)
(0.0356493 9.25966e-18 0)
(0.0356493 -8.35266e-18 0)
(0.0356493 1.34217e-17 0)
(0.0356493 5.5173e-18 0)
(0.0356493 -2.07563e-17 0)
(0.0356493 5.06532e-18 0)
(0.0356493 1.45155e-17 0)
(0.0356493 -1.75711e-17 0)
(0.0356493 -8.3102e-18 0)
(0.0356493 1.08696e-17 0)
(0.0356493 8.12528e-19 0)
(0.0356493 7.06658e-18 0)
(0.0356493 -1.37896e-17 0)
(0.0356493 -1.1117e-17 0)
(0.0356493 1.5999e-17 0)
(0.0356493 -6.39462e-18 0)
(0.0356493 2.33622e-17 0)
(0.0356493 -1.13166e-17 0)
(0.0356493 -2.24658e-17 0)
(0.0356493 1.46954e-17 0)
(0.0356493 1.04442e-17 0)
(0.0356493 -1.24039e-17 0)
(0.0356493 1.43747e-18 0)
(0.0356493 1.46154e-17 0)
(0.0356493 -2.10081e-17 0)
(0.0356493 3.61418e-18 0)
(0.0356493 7.34911e-18 0)
(0.0356493 7.73929e-18 0)
(0.0356493 6.61077e-18 0)
(0.0356493 -1.74337e-17 0)
(0.0356493 -1.52698e-17 0)
(0.0356493 1.80749e-18 0)
(0.0356493 2.98797e-17 0)
(0.0356493 -1.81592e-17 0)
(0.0356493 -2.31986e-17 0)
(0.0356493 3.92571e-17 0)
(0.0356493 8.0358e-18 0)
(0.0356493 -3.3011e-17 0)
(0.0356493 -5.91825e-18 0)
(0.0356493 2.05684e-17 0)
(0.0356493 4.44718e-18 0)
(0.0356493 -9.04367e-18 0)
(0.0356493 2.13892e-18 0)
(0.0356493 1.69675e-17 0)
(0.0356493 -3.13515e-17 0)
(0.0356493 1.66535e-17 0)
(0.0356493 2.19089e-17 0)
(0.0356493 -2.27522e-17 0)
(0.0356493 5.72289e-19 0)
(0.0356493 -1.27939e-17 0)
(0.0356493 1.18115e-17 0)
(0.0356493 2.58427e-17 0)
(0.0356493 -9.94948e-18 0)
(0.0356493 -3.05866e-19 0)
(0.0356493 1.93924e-17 0)
(0.0356493 -4.35753e-17 0)
(0.0356493 9.63505e-18 0)
(0.0356493 3.71336e-17 0)
(0.0356493 -2.34998e-17 0)
(0.0356493 -1.41276e-17 0)
(0.0356493 1.0225e-17 0)
(0.0356493 3.38623e-17 0)
(0.0356493 -2.72662e-17 0)
(0.0356493 -2.98896e-17 0)
(0.0356493 4.96368e-17 0)
(0.0356493 -1.98068e-17 0)
(0.0356493 -2.93463e-17 0)
(0.0356493 1.62556e-17 0)
(0.0356493 1.42529e-17 0)
(0.0356493 3.69922e-17 0)
(0.0356493 -3.16342e-17 0)
(0.0356493 -3.28488e-17 0)
(0.0356493 1.42991e-17 0)
(0.0356493 5.66038e-18 0)
(0.0356493 3.0022e-17 0)
(0.0356493 -1.36183e-17 0)
(0.0356493 -5.67309e-17 0)
(0.0356493 1.02854e-17 0)
(0.0356493 3.19578e-17 0)
(0.0356493 -2.62505e-18 0)
(0.0356493 -5.00853e-18 0)
(0.0356493 4.02527e-18 0)
(0.0356493 3.23777e-17 0)
(0.0356493 -4.89678e-18 0)
(0.0356493 -5.4673e-17 0)
(0.0356493 3.78168e-17 0)
(0.0356493 2.77885e-17 0)
(0.0356493 -3.00239e-17 0)
(0.0356493 6.44634e-18 0)
(0.0356493 3.74298e-18 0)
(0.0356493 -2.08743e-17 0)
(0.0356493 -9.23592e-18 0)
(0.0356493 3.70804e-17 0)
(0.0356493 -1.69025e-18 0)
(0.0356493 -1.61199e-17 0)
(0.0356493 3.57756e-18 0)
(0.0356493 1.93987e-17 0)
(0.0356493 -3.11633e-17 0)
(0.0356493 1.52196e-17 0)
(0.0356493 3.2653e-17 0)
(0.0356493 -4.14711e-17 0)
(0.0356493 -3.74078e-17 0)
(0.0356493 1.41503e-17 0)
(0.0356493 4.59613e-17 0)
(0.0356493 -1.59734e-17 0)
(0.0356493 -2.74214e-18 0)
(0.0356493 4.79108e-17 0)
(0.0356493 -3.46796e-17 0)
(0.0356493 -4.11374e-17 0)
(0.0356493 4.44654e-17 0)
(0.0356493 -6.4272e-18 0)
(0.0356493 4.91152e-18 0)
(0.0356493 4.42021e-17 0)
(0.0356493 -4.60998e-17 0)
(0.0356493 1.93715e-18 0)
(0.0356493 3.51938e-17 0)
(0.0356493 -6.63865e-17 0)
(0.0356493 -2.71898e-17 0)
(0.0356493 4.4402e-17 0)
(0.0356493 6.6861e-17 0)
(0.0356493 -3.7336e-17 0)
(0.0356493 -8.80812e-18 0)
(0.0356493 -4.48154e-18 0)
(0.0356493 -3.42906e-18 0)
(0.0356493 -2.28117e-19 0)
(0.0356493 -5.854e-18 0)
(0.0356493 1.07829e-17 0)
(0.0356493 -7.04034e-17 0)
(0.0356493 8.32903e-17 0)
(0.0356493 1.656e-17 0)
(0.0356493 -9.45482e-17 0)
(0.0356493 8.02042e-17 0)
(0.0356493 3.95113e-17 0)
(0.0356493 -8.37284e-17 0)
(0.0356493 1.15641e-17 0)
(0.0356493 8.35817e-18 0)
(0.0356493 1.40323e-17 0)
(0.0356493 -8.90052e-18 0)
(0.0356493 -9.53739e-18 0)
(0.0356493 4.97792e-17 0)
(0.0356493 -4.78178e-17 0)
(0.0356493 -1.00483e-17 0)
(0.0356493 3.00513e-17 0)
(0.0356493 -3.17034e-17 0)
(0.0356493 5.67908e-17 0)
(0.0356493 2.74538e-18 0)
(0.0356493 -6.03888e-17 0)
(0.0356493 4.85021e-17 0)
(0.0356493 5.17806e-18 0)
(0.0356493 -2.456e-17 0)
(0.0356493 -7.39606e-18 0)
(0.0356493 1.56963e-18 0)
(0.0356493 -4.36518e-17 0)
(0.0356493 4.64297e-17 0)
(0.0356493 4.57611e-17 0)
(0.0356493 -3.22506e-17 0)
(0.0356493 1.65846e-17 0)
(0.0356493 4.3326e-17 0)
(0.0356493 -6.6392e-17 0)
(0.0356493 -4.76451e-17 0)
(0.0356493 6.03188e-17 0)
(0.0356493 -2.73686e-17 0)
(0.0356493 1.85742e-17 0)
(0.0356493 -5.24139e-18 0)
(0.0356493 5.62021e-17 0)
(0.0356493 -2.12156e-17 0)
(0.0356493 -7.71026e-17 0)
(0.0356493 2.99707e-17 0)
(0.0356493 1.14327e-17 0)
(0.0356493 2.45186e-18 0)
(0.0356493 5.003e-17 0)
(0.0356493 -4.39858e-17 0)
(0.0356493 -5.65728e-17 0)
(0.0356493 1.12939e-16 0)
(0.0356493 -6.79059e-17 0)
(0.0356493 -4.36352e-17 0)
(0.0356493 3.95567e-17 0)
(0.0356493 -1.46345e-17 0)
(0.0356493 1.54775e-17 0)
(0.0356493 6.29814e-17 0)
(0.0356493 -7.87365e-18 0)
(0.0356493 -5.47497e-17 0)
(0.0356493 -3.39862e-17 0)
(0.0356493 -1.32681e-17 0)
(0.0356493 4.6988e-17 0)
(0.0356493 -5.63513e-17 0)
(0.0356493 4.73424e-17 0)
(0.0356493 4.68175e-17 0)
(0.0356493 -3.68944e-17 0)
(0.0356493 4.42946e-17 0)
(0.0356493 7.1074e-18 0)
(0.0356493 -9.76495e-17 0)
(0.0356493 4.67335e-17 0)
(0.0356493 6.34289e-18 0)
(0.0356493 -6.45301e-17 0)
(0.0356493 5.58141e-17 0)
(0.0356493 4.41343e-18 0)
(0.0356493 5.29678e-17 0)
(0.0356493 -4.6256e-17 0)
(0.0356493 -5.06658e-18 0)
(0.0356493 5.72065e-18 0)
(0.0356493 -5.57069e-17 0)
(0.0356493 3.85412e-17 0)
(0.0356493 7.1628e-17 0)
(0.0356493 -5.83127e-17 0)
(0.0356493 -1.0033e-17 0)
(0.0356493 6.31033e-17 0)
(0.0356493 -6.26524e-17 0)
(0.0356493 1.47254e-18 0)
(0.0356493 -3.75829e-17 0)
(0.0356493 -6.83327e-18 0)
(0.0356493 -9.27414e-18 0)
(0.0356493 1.13875e-16 0)
(0.0356493 -3.94108e-18 0)
(0.0356493 -6.10584e-17 0)
(0.0356493 5.51331e-17 0)
(0.0356493 -5.43437e-17 0)
(0.0356493 -5.56967e-17 0)
(0.0356493 6.40768e-17 0)
(0.0356493 -2.13076e-17 0)
(0.0356493 7.81568e-18 0)
(0.0356493 8.27554e-17 0)
(0.0356493 -1.19277e-16 0)
(0.0356493 5.9699e-17 0)
(0.0356493 -2.21364e-17 0)
(0.0356493 -3.01462e-17 0)
(0.0356493 5.2556e-17 0)
(0.0356493 -7.05661e-17 0)
(0.0356493 2.09848e-17 0)
(0.0356493 1.53587e-16 0)
(0.0356493 -1.2716e-16 0)
(0.0356493 -6.40359e-17 0)
(0.0356493 8.27646e-17 0)
(0.0356493 -7.31399e-17 0)
(0.0356493 1.03914e-16 0)
(0.0356493 -9.47333e-17 0)
(0.0356493 -1.02485e-17 0)
(0.0356493 9.58239e-17 0)
(0.0356493 7.59932e-18 0)
(0.0356493 -4.9624e-17 0)
(0.0356493 -3.48615e-18 0)
(0.0356493 -1.90576e-17 0)
(0.0356493 1.0592e-17 0)
(0.0356493 4.20215e-17 0)
(0.0356493 -9.85305e-17 0)
(0.0356493 1.23922e-16 0)
(0.0356493 -3.48218e-17 0)
(0.0356493 -1.02914e-16 0)
(0.0356493 7.98379e-17 0)
(0.0356493 6.52771e-17 0)
(0.0356493 -9.71503e-17 0)
(0.0356493 -4.17155e-17 0)
(0.0356493 6.47493e-17 0)
(0.0356493 -2.54655e-17 0)
(0.0356493 9.44299e-17 0)
(0.0356493 5.27422e-17 0)
(0.0356493 -1.86738e-16 0)
(0.0356493 2.62453e-17 0)
(0.0356493 5.01391e-17 0)
(0.0356493 -8.83295e-17 0)
(0.0356493 8.79299e-17 0)
(0.0356493 -4.83581e-17 0)
(0.0356493 2.11158e-17 0)
(0.0356493 1.44723e-16 0)
(0.0356493 -1.17478e-16 0)
(0.0356493 -8.60034e-17 0)
(0.0356493 1.39394e-16 0)
(0.0356493 -6.52469e-17 0)
(0.0356493 -7.8227e-17 0)
(0.0356493 7.82977e-17 0)
(0.0356493 6.45334e-17 0)
(0.0356493 -8.30225e-17 0)
(0.0356493 1.60416e-17 0)
(0.0356493 1.35347e-17 0)
(0.0356493 -7.15107e-17 0)
(0.0356493 1.06899e-16 0)
(0.0356493 -1.07048e-16 0)
(0.0356493 -1.16452e-18 0)
(0.0356493 9.71409e-17 0)
(0.0356493 1.58769e-17 0)
(0.0356493 1.98053e-17 0)
(0.0356493 -1.05535e-17 0)
(0.0356493 -1.11129e-16 0)
(0.0356493 -4.6032e-17 0)
(0.0356493 1.68853e-16 0)
(0.0356493 -1.19709e-16 0)
(0.0356493 -1.72704e-17 0)
(0.0356493 5.14604e-17 0)
(0.0356493 7.51151e-17 0)
(0.0356493 7.93709e-17 0)
(0.0356493 -1.98006e-16 0)
(0.0356493 -1.56592e-18 0)
(0.0356493 1.26672e-16 0)
(0.0356493 -1.41886e-16 0)
(0.0356493 9.79061e-18 0)
(0.0356493 1.91281e-16 0)
(0.0356493 -1.93269e-16 0)
(0.0356493 7.31897e-17 0)
(0.0356493 1.21631e-16 0)
(0.0356493 -1.77334e-16 0)
(0.0356493 1.47207e-17 0)
(0.0356493 8.75868e-17 0)
(0.0356493 -1.04978e-16 0)
(0.0356493 6.41077e-18 0)
(0.0356493 1.54843e-16 0)
(0.0356493 -4.55841e-17 0)
(0.0356493 -4.39795e-17 0)
(0.0356493 -1.70096e-17 0)
(0.0356493 -5.96099e-17 0)
(0.0356493 2.78039e-17 0)
(0.0356493 7.81819e-17 0)
(0.0356493 -1.08544e-16 0)
(0.0356493 1.38436e-17 0)
(0.0356493 1.53207e-16 0)
(0.0356493 -4.46135e-17 0)
(0.0356493 -4.09896e-17 0)
(0.0356493 -6.36477e-17 0)
(0.0356493 -4.90664e-18 0)
(0.0356493 1.02879e-16 0)
(0.0356493 -1.22199e-16 0)
(0.0356493 8.50653e-17 0)
(0.0356493 1.66804e-17 0)
(0.0356493 -1.05882e-16 0)
(0.0356493 1.50675e-16 0)
(0.0356493 -7.85754e-17 0)
(0.0356493 -5.11998e-17 0)
(0.0356493 6.17525e-17 0)
(0.0356493 4.85944e-17 0)
(0.0356493 -1.21268e-16 0)
(0.0356493 8.12127e-17 0)
(0.0356493 9.85507e-17 0)
(0.0356493 -1.15905e-16 0)
(0.0356493 -3.87719e-17 0)
(0.0356493 -3.90203e-18 0)
(0.0356493 6.52345e-17 0)
(0.0356493 -2.25301e-17 0)
(0.0356493 6.02857e-17 0)
(0.0356493 -1.09287e-16 0)
(0.0356493 7.87981e-17 0)
(0.0356493 9.07567e-17 0)
(0.0356493 -1.16465e-16 0)
(0.0356493 -5.02403e-17 0)
(0.0356493 5.5954e-17 0)
(0.0356493 5.77575e-18 0)
(0.0356493 -3.26905e-17 0)
(0.0356493 5.19647e-17 0)
(0.0356493 -1.2745e-16 0)
(0.0356493 1.36299e-16 0)
(0.0356493 2.2994e-17 0)
(0.0356493 -1.04157e-16 0)
(0.0356493 2.2595e-17 0)
(0.0356493 1.17648e-17 0)
(0.0356493 1.06174e-17 0)
(0.0356493 -3.64236e-17 0)
(0.0356493 4.50122e-17 0)
(0.0356493 1.1452e-16 0)
(0.0356493 -4.00089e-17 0)
(0.0356493 -1.9639e-16 0)
(0.0356493 5.82614e-18 0)
(0.0356493 8.72998e-17 0)
(0.0356493 -1.12471e-18 0)
(0.0356493 1.51912e-16 0)
(0.0356493 -1.36832e-16 0)
(0.0356493 -9.41789e-17 0)
(0.0356493 8.03608e-17 0)
(0.0356493 1.17246e-16 0)
(0.0356493 -4.63225e-17 0)
(0.0356493 -1.71977e-16 0)
(0.0356493 7.93811e-17 0)
(0.0356493 2.9047e-17 0)
(0.0356493 1.61977e-16 0)
(0.0356493 -1.59014e-16 0)
(0.0356493 -8.90969e-17 0)
(0.0356493 1.10856e-16 0)
(0.0356493 -2.32272e-17 0)
(0.0356493 1.19008e-17 0)
(0.0356493 -3.21745e-17 0)
(0.0356493 1.44313e-17 0)
(0.0356493 2.81998e-17 0)
(0.0356493 1.16577e-16 0)
(0.0356493 -1.37992e-16 0)
(0.0356493 -1.14384e-16 0)
(0.0356493 2.57749e-16 0)
(0.0356493 -1.07666e-16 0)
(0.0356493 -1.2639e-16 0)
(0.0356493 9.17603e-17 0)
(0.0356493 2.29951e-17 0)
(0.0356493 1.01916e-18 0)
(0.0356493 1.11432e-16 0)
(0.0356493 -1.25459e-16 0)
(0.0356493 -1.36629e-16 0)
(0.0356493 2.58552e-16 0)
(0.0356493 -8.64185e-17 0)
(0.0356493 -1.62955e-16 0)
(0.0356493 7.05958e-17 0)
(0.0356493 1.91799e-16 0)
(0.0356493 -1.2889e-16 0)
(0.0356493 -9.67297e-18 0)
(0.0356493 5.74219e-18 0)
(0.0356493 -1.32622e-16 0)
(0.0356493 2.53144e-16 0)
(0.0356493 -1.28935e-16 0)
(0.0356493 -1.636e-17 0)
(0.0356493 -1.02799e-16 0)
(0.0356493 1.28496e-16 0)
(0.0356493 1.01617e-16 0)
(0.0356493 -2.18968e-16 0)
(0.0356493 1.18175e-16 0)
(0.0356493 -1.59116e-17 0)
(0.0356493 2.69961e-17 0)
(0.0356493 -2.84721e-17 0)
(0.0356493 1.00451e-16 0)
(0.0356493 -1.9772e-16 0)
(0.0356493 1.18054e-16 0)
(0.0356493 8.67347e-17 0)
(0.0356493 -2.16261e-16 0)
(0.0356493 1.2164e-16 0)
(0.0356493 1.06633e-16 0)
(0.0356493 -6.53396e-17 0)
(0.0356493 -1.84373e-16 0)
(0.0356493 2.27881e-16 0)
(0.0356493 -1.57291e-16 0)
(0.0356493 8.95489e-17 0)
(0.0356493 1.95254e-16 0)
(0.0356493 -3.42209e-16 0)
(0.0356493 3.36863e-17 0)
(0.0356493 2.02255e-16 0)
(0.0356493 -1.66755e-17 0)
(0.0356493 -2.09336e-16 0)
(0.0356493 1.19961e-16 0)
(0.0356493 -1.32704e-17 0)
(0.0356493 -2.26065e-18 0)
(0.0356493 1.76731e-17 0)
(0.0356493 -1.1665e-16 0)
(0.0356493 1.18698e-16 0)
(0.0356493 -5.35915e-20 0)
(0.0356493 1.06365e-16 0)
(0.0356493 -1.43442e-16 0)
(0.0356493 -6.59592e-17 0)
(0.0356493 1.03365e-16 0)
(0.0356493 7.34203e-17 0)
(0.0356493 -8.6385e-17 0)
(0.0356493 -1.01957e-16 0)
(0.0356493 2.2478e-16 0)
(0.0356493 -1.45807e-16 0)
(0.0356493 2.35004e-17 0)
(0.0356493 1.19066e-17 0)
(0.0356493 -9.96945e-17 0)
(0.0356493 2.26507e-16 0)
(0.0356493 -4.22108e-17 0)
(0.0356493 -2.06238e-16 0)
(0.0356493 4.19109e-17 0)
(0.0356493 2.07788e-16 0)
(0.0356493 -1.4551e-16 0)
(0.0356493 1.53667e-17 0)
(0.0356493 8.51246e-18 0)
(0.0356493 -2.36618e-18 0)
(0.0356493 1.20705e-16 0)
(0.0356493 -1.02786e-16 0)
(0.0356493 1.80807e-16 0)
(0.105466 1.97235e-15 0)
(0.105466 5.04826e-16 0)
(0.105466 2.72799e-16 0)
(0.105466 1.79448e-16 0)
(0.105466 1.1924e-16 0)
(0.105466 7.67522e-17 0)
(0.105466 6.62409e-17 0)
(0.105466 4.60374e-17 0)
(0.105466 3.57522e-17 0)
(0.105466 1.87311e-17 0)
(0.105466 3.92101e-18 0)
(0.105466 -1.28111e-17 0)
(0.105466 -1.72102e-17 0)
(0.105466 -1.64852e-17 0)
(0.105466 1.18424e-18 0)
(0.105466 -1.12742e-17 0)
(0.105466 -2.76868e-17 0)
(0.105466 -6.4411e-18 0)
(0.105466 2.83951e-18 0)
(0.105466 1.42129e-17 0)
(0.105466 1.66141e-17 0)
(0.105466 9.76709e-18 0)
(0.105466 4.62304e-17 0)
(0.105466 3.67648e-17 0)
(0.105466 5.81211e-18 0)
(0.105466 -1.8425e-17 0)
(0.105466 1.00267e-18 0)
(0.105466 1.06119e-17 0)
(0.105466 -1.8211e-17 0)
(0.105466 2.16724e-17 0)
(0.105466 3.33621e-17 0)
(0.105466 -2.72276e-17 0)
(0.105466 -2.0295e-17 0)
(0.105466 8.09809e-18 0)
(0.105466 1.72027e-20 0)
(0.105466 1.67914e-17 0)
(0.105466 -2.63891e-17 0)
(0.105466 -2.73063e-17 0)
(0.105466 -1.54481e-17 0)
(0.105466 -2.99139e-17 0)
(0.105466 2.4914e-17 0)
(0.105466 -2.5205e-17 0)
(0.105466 -1.03806e-18 0)
(0.105466 1.52501e-17 0)
(0.105466 -2.65618e-17 0)
(0.105466 2.21682e-17 0)
(0.105466 1.55311e-17 0)
(0.105466 -5.52848e-17 0)
(0.105466 -1.79154e-17 0)
(0.105466 2.0422e-17 0)
(0.105466 9.93491e-18 0)
(0.105466 -8.63959e-18 0)
(0.105466 -2.60642e-17 0)
(0.105466 2.5814e-18 0)
(0.105466 5.39371e-17 0)
(0.105466 -1.32614e-17 0)
(0.105466 2.13791e-17 0)
(0.105466 -1.43567e-17 0)
(0.105466 -3.72817e-17 0)
(0.105466 1.01454e-17 0)
(0.105466 1.02878e-17 0)
(0.105466 -7.3598e-18 0)
(0.105466 1.19115e-17 0)
(0.105466 3.29328e-17 0)
(0.105466 6.86416e-18 0)
(0.105466 4.7888e-17 0)
(0.105466 -3.87169e-17 0)
(0.105466 -3.6089e-17 0)
(0.105466 4.86953e-17 0)
(0.105466 -4.24837e-17 0)
(0.105466 -4.24729e-17 0)
(0.105466 2.0571e-17 0)
(0.105466 5.66905e-17 0)
(0.105466 -3.74978e-17 0)
(0.105466 -5.88955e-17 0)
(0.105466 1.09616e-16 0)
(0.105466 4.12258e-17 0)
(0.105466 -6.58698e-17 0)
(0.105466 -1.31135e-17 0)
(0.105466 5.19657e-17 0)
(0.105466 1.36953e-18 0)
(0.105466 -4.36952e-17 0)
(0.105466 2.72381e-17 0)
(0.105466 -1.57775e-17 0)
(0.105466 -7.71197e-17 0)
(0.105466 7.7604e-17 0)
(0.105466 1.75641e-17 0)
(0.105466 -2.39892e-17 0)
(0.105466 3.31425e-17 0)
(0.105466 2.78862e-17 0)
(0.105466 4.24496e-17 0)
(0.105466 3.33372e-17 0)
(0.105466 2.35931e-17 0)
(0.105466 -7.66153e-18 0)
(0.105466 1.38594e-17 0)
(0.105466 -6.2687e-17 0)
(0.105466 9.54807e-18 0)
(0.105466 8.43868e-17 0)
(0.105466 -6.25286e-17 0)
(0.105466 -6.67554e-17 0)
(0.105466 4.49767e-17 0)
(0.105466 4.7297e-17 0)
(0.105466 -4.62887e-18 0)
(0.105466 2.08048e-18 0)
(0.105466 4.90777e-18 0)
(0.105466 -5.77912e-17 0)
(0.105466 -2.86747e-17 0)
(0.105466 1.25231e-17 0)
(0.105466 6.41455e-17 0)
(0.105466 8.36462e-17 0)
(0.105466 -4.33104e-17 0)
(0.105466 -1.3326e-16 0)
(0.105466 -6.31003e-17 0)
(0.105466 8.41192e-17 0)
(0.105466 1.92881e-17 0)
(0.105466 -1.05887e-16 0)
(0.105466 -7.65174e-17 0)
(0.105466 4.26607e-17 0)
(0.105466 6.84264e-17 0)
(0.105466 -1.14378e-17 0)
(0.105466 -1.94668e-17 0)
(0.105466 1.73513e-17 0)
(0.105466 5.29769e-17 0)
(0.105466 -1.61515e-17 0)
(0.105466 -6.44179e-17 0)
(0.105466 9.17155e-17 0)
(0.105466 5.20938e-17 0)
(0.105466 -3.13544e-17 0)
(0.105466 4.32523e-17 0)
(0.105466 2.24829e-17 0)
(0.105466 -9.43411e-18 0)
(0.105466 -1.48587e-17 0)
(0.105466 1.23341e-16 0)
(0.105466 -8.52709e-17 0)
(0.105466 -1.38295e-16 0)
(0.105466 4.34625e-17 0)
(0.105466 -2.63963e-18 0)
(0.105466 -5.45536e-17 0)
(0.105466 9.31657e-17 0)
(0.105466 2.7941e-17 0)
(0.105466 -1.33273e-16 0)
(0.105466 -5.74527e-17 0)
(0.105466 9.34761e-17 0)
(0.105466 1.53832e-16 0)
(0.105466 -4.58895e-17 0)
(0.105466 -5.90338e-18 0)
(0.105466 1.37507e-16 0)
(0.105466 -4.81249e-17 0)
(0.105466 -8.77561e-17 0)
(0.105466 1.43365e-16 0)
(0.105466 -5.2351e-17 0)
(0.105466 -5.06772e-18 0)
(0.105466 1.93734e-16 0)
(0.105466 -1.314e-16 0)
(0.105466 -4.37048e-17 0)
(0.105466 6.55396e-17 0)
(0.105466 -1.27761e-16 0)
(0.105466 -1.32734e-17 0)
(0.105466 -2.78026e-17 0)
(0.105466 8.63635e-17 0)
(0.105466 8.59845e-17 0)
(0.105466 -5.06972e-17 0)
(0.105466 -5.57207e-17 0)
(0.105466 4.73051e-18 0)
(0.105466 -1.90291e-17 0)
(0.105466 -1.8105e-17 0)
(0.105466 5.46926e-17 0)
(0.105466 -2.06843e-16 0)
(0.105466 5.35228e-17 0)
(0.105466 1.4736e-16 0)
(0.105466 -1.66051e-16 0)
(0.105466 7.28059e-17 0)
(0.105466 1.55018e-16 0)
(0.105466 -1.40102e-16 0)
(0.105466 -6.97006e-17 0)
(0.105466 6.53867e-17 0)
(0.105466 9.18178e-17 0)
(0.105466 -3.21655e-18 0)
(0.105466 -6.7983e-17 0)
(0.105466 1.14372e-16 0)
(0.105466 2.577e-17 0)
(0.105466 -8.03679e-17 0)
(0.105466 -8.36301e-19 0)
(0.105466 -2.2877e-17 0)
(0.105466 9.44201e-17 0)
(0.105466 1.0395e-17 0)
(0.105466 -7.36277e-17 0)
(0.105466 1.37325e-17 0)
(0.105466 1.02828e-19 0)
(0.105466 2.02021e-17 0)
(0.105466 -6.62636e-17 0)
(0.105466 -2.63088e-17 0)
(0.105466 5.45505e-18 0)
(0.105466 1.4663e-16 0)
(0.105466 7.35154e-17 0)
(0.105466 -2.34905e-17 0)
(0.105466 8.64494e-17 0)
(0.105466 9.03178e-18 0)
(0.105466 -1.79078e-16 0)
(0.105466 -7.27058e-17 0)
(0.105466 7.39333e-17 0)
(0.105466 -1.38464e-16 0)
(0.105466 1.41652e-16 0)
(0.105466 6.72557e-17 0)
(0.105466 1.16629e-17 0)
(0.105466 1.09172e-16 0)
(0.105466 -1.30195e-16 0)
(0.105466 -1.15243e-16 0)
(0.105466 6.10871e-17 0)
(0.105466 -3.53477e-17 0)
(0.105466 1.42377e-17 0)
(0.105466 2.95443e-17 0)
(0.105466 -6.22433e-17 0)
(0.105466 1.04427e-16 0)
(0.105466 -6.89453e-17 0)
(0.105466 1.70038e-17 0)
(0.105466 -6.26522e-17 0)
(0.105466 -7.70885e-17 0)
(0.105466 9.45309e-17 0)
(0.105466 1.31095e-16 0)
(0.105466 -2.26388e-17 0)
(0.105466 -8.39768e-17 0)
(0.105466 3.12723e-17 0)
(0.105466 -1.14108e-16 0)
(0.105466 -3.12167e-17 0)
(0.105466 1.71088e-17 0)
(0.105466 -2.05564e-17 0)
(0.105466 1.65334e-17 0)
(0.105466 1.33257e-16 0)
(0.105466 6.62368e-19 0)
(0.105466 -5.11074e-17 0)
(0.105466 -9.23809e-17 0)
(0.105466 2.74786e-17 0)
(0.105466 3.25486e-17 0)
(0.105466 -9.07043e-17 0)
(0.105466 9.80324e-17 0)
(0.105466 4.92796e-17 0)
(0.105466 8.03001e-17 0)
(0.105466 -5.53864e-17 0)
(0.105466 -1.71821e-17 0)
(0.105466 1.2594e-17 0)
(0.105466 -1.02424e-16 0)
(0.105466 1.90936e-17 0)
(0.105466 1.47218e-16 0)
(0.105466 -8.1044e-17 0)
(0.105466 -3.38837e-17 0)
(0.105466 8.58496e-17 0)
(0.105466 -1.12306e-16 0)
(0.105466 -7.62623e-18 0)
(0.105466 -2.9936e-18 0)
(0.105466 -1.08115e-17 0)
(0.105466 2.99654e-17 0)
(0.105466 9.99449e-17 0)
(0.105466 -8.42067e-17 0)
(0.105466 -6.84319e-17 0)
(0.105466 6.57941e-17 0)
(0.105466 -6.97082e-17 0)
(0.105466 -8.88595e-17 0)
(0.105466 7.39342e-17 0)
(0.105466 -7.88364e-17 0)
(0.105466 6.28799e-17 0)
(0.105466 2.2241e-16 0)
(0.105466 -1.59056e-16 0)
(0.105466 6.66036e-17 0)
(0.105466 -1.31174e-16 0)
(0.105466 -1.1982e-16 0)
(0.105466 3.05488e-16 0)
(0.105466 -2.5856e-16 0)
(0.105466 -1.66535e-16 0)
(0.105466 4.31421e-16 0)
(0.105466 -1.81016e-16 0)
(0.105466 -1.30815e-16 0)
(0.105466 1.49918e-16 0)
(0.105466 -1.18166e-16 0)
(0.105466 1.11194e-16 0)
(0.105466 -9.42518e-17 0)
(0.105466 -2.83924e-17 0)
(0.105466 1.33018e-16 0)
(0.105466 1.04237e-16 0)
(0.105466 -1.24603e-16 0)
(0.105466 -1.23005e-16 0)
(0.105466 -6.14642e-17 0)
(0.105466 6.63694e-17 0)
(0.105466 1.7652e-16 0)
(0.105466 -2.10839e-16 0)
(0.105466 2.09593e-16 0)
(0.105466 -1.17166e-17 0)
(0.105466 -2.69179e-16 0)
(0.105466 1.79856e-16 0)
(0.105466 1.13196e-16 0)
(0.105466 -2.60206e-16 0)
(0.105466 5.21658e-17 0)
(0.105466 2.43864e-18 0)
(0.105466 -1.81525e-16 0)
(0.105466 3.83406e-16 0)
(0.105466 1.13943e-16 0)
(0.105466 -3.27924e-16 0)
(0.105466 1.15726e-16 0)
(0.105466 -1.97594e-17 0)
(0.105466 -2.43723e-16 0)
(0.105466 3.50724e-16 0)
(0.105466 -1.30192e-16 0)
(0.105466 -1.34838e-16 0)
(0.105466 4.11722e-16 0)
(0.105466 -1.56041e-16 0)
(0.105466 -2.2437e-16 0)
(0.105466 2.63868e-16 0)
(0.105466 -1.76041e-16 0)
(0.105466 -2.21924e-16 0)
(0.105466 3.26669e-16 0)
(0.105466 1.66984e-17 0)
(0.105466 -3.11116e-16 0)
(0.105466 1.49317e-16 0)
(0.105466 9.37364e-17 0)
(0.105466 -1.15373e-16 0)
(0.105466 1.14421e-16 0)
(0.105466 -4.21132e-17 0)
(0.105466 -1.3637e-16 0)
(0.105466 -7.8031e-18 0)
(0.105466 2.13031e-16 0)
(0.105466 1.32276e-16 0)
(0.105466 -4.23394e-17 0)
(0.105466 -1.4829e-16 0)
(0.105466 -8.90116e-17 0)
(0.105466 2.04977e-16 0)
(0.105466 -3.80414e-17 0)
(0.105466 -2.0214e-16 0)
(0.105466 -4.72381e-17 0)
(0.105466 3.13642e-16 0)
(0.105466 2.06386e-16 0)
(0.105466 -3.58247e-16 0)
(0.105466 5.95473e-18 0)
(0.105466 1.26283e-16 0)
(0.105466 -3.10388e-16 0)
(0.105466 1.9739e-16 0)
(0.105466 2.14209e-16 0)
(0.105466 -4.2039e-16 0)
(0.105466 3.13541e-16 0)
(0.105466 1.74309e-16 0)
(0.105466 -3.29487e-16 0)
(0.105466 1.08768e-16 0)
(0.105466 -1.5604e-17 0)
(0.105466 -1.91899e-16 0)
(0.105466 1.04493e-16 0)
(0.105466 2.44762e-16 0)
(0.105466 1.40141e-17 0)
(0.105466 -6.77934e-18 0)
(0.105466 -1.86981e-16 0)
(0.105466 -1.41039e-16 0)
(0.105466 2.13823e-16 0)
(0.105466 -5.46019e-17 0)
(0.105466 -2.13441e-16 0)
(0.105466 1.31291e-16 0)
(0.105466 2.53414e-16 0)
(0.105466 1.98529e-17 0)
(0.105466 8.10312e-18 0)
(0.105466 -1.80726e-16 0)
(0.105466 -1.71849e-16 0)
(0.105466 1.0616e-16 0)
(0.105466 4.67055e-18 0)
(0.105466 6.61684e-17 0)
(0.105466 -2.57555e-16 0)
(0.105466 1.04006e-16 0)
(0.105466 3.57987e-16 0)
(0.105466 -2.65825e-16 0)
(0.105466 6.50549e-18 0)
(0.105466 3.76984e-17 0)
(0.105466 -1.09063e-16 0)
(0.105466 2.07914e-17 0)
(0.105466 3.6327e-16 0)
(0.105466 3.18154e-17 0)
(0.105466 -1.72392e-16 0)
(0.105466 -1.09676e-16 0)
(0.105466 -6.19676e-17 0)
(0.105466 2.20214e-16 0)
(0.105466 -1.17571e-16 0)
(0.105466 -2.15508e-19 0)
(0.105466 -8.29234e-17 0)
(0.105466 1.993e-16 0)
(0.105466 5.28104e-17 0)
(0.105466 -9.01872e-17 0)
(0.105466 -7.62117e-17 0)
(0.105466 -3.84732e-17 0)
(0.105466 3.98207e-17 0)
(0.105466 -1.02648e-16 0)
(0.105466 2.04636e-16 0)
(0.105466 -2.0401e-16 0)
(0.105466 8.36604e-17 0)
(0.105466 9.62973e-17 0)
(0.105466 -1.15904e-16 0)
(0.105466 -5.07461e-17 0)
(0.105466 1.42798e-16 0)
(0.105466 -1.12869e-16 0)
(0.105466 -2.53918e-16 0)
(0.105466 3.28362e-16 0)
(0.105466 2.39213e-16 0)
(0.105466 -1.6391e-16 0)
(0.105466 -1.6788e-16 0)
(0.105466 -1.36078e-16 0)
(0.105466 -5.38825e-17 0)
(0.105466 1.81351e-16 0)
(0.105466 3.63127e-16 0)
(0.105466 -2.44551e-16 0)
(0.105466 -1.72055e-16 0)
(0.105466 -5.99913e-17 0)
(0.105466 3.71792e-16 0)
(0.105466 2.41945e-16 0)
(0.105466 -5.40731e-16 0)
(0.105466 -5.91036e-17 0)
(0.105466 2.63006e-16 0)
(0.105466 1.68934e-16 0)
(0.105466 -3.46118e-16 0)
(0.105466 9.87765e-17 0)
(0.105466 7.37367e-17 0)
(0.105466 -6.85925e-17 0)
(0.105466 9.13896e-17 0)
(0.105466 -2.80828e-16 0)
(0.105466 -2.59499e-17 0)
(0.105466 3.83036e-16 0)
(0.105466 8.20332e-17 0)
(0.105466 -4.08997e-16 0)
(0.105466 -6.88741e-17 0)
(0.105466 4.90682e-16 0)
(0.105466 -1.04153e-16 0)
(0.105466 -2.42327e-16 0)
(0.105466 5.57065e-17 0)
(0.105466 1.25325e-16 0)
(0.105466 3.98246e-17 0)
(0.105466 1.854e-17 0)
(0.105466 -1.69802e-16 0)
(0.105466 -1.42192e-16 0)
(0.105466 3.76995e-16 0)
(0.105466 -4.41527e-17 0)
(0.105466 -4.41717e-16 0)
(0.105466 -1.6186e-17 0)
(0.105466 5.39974e-16 0)
(0.105466 -1.51928e-16 0)
(0.105466 -7.72566e-17 0)
(0.105466 -2.30433e-17 0)
(0.105466 -2.29142e-16 0)
(0.105466 4.18594e-16 0)
(0.105466 -1.94623e-16 0)
(0.105466 -8.64124e-17 0)
(0.105466 -1.69188e-17 0)
(0.105466 1.38152e-16 0)
(0.105466 4.66995e-17 0)
(0.105466 -6.85234e-17 0)
(0.105466 3.15692e-17 0)
(0.105466 -1.65766e-16 0)
(0.105466 2.30455e-16 0)
(0.105466 -6.91007e-17 0)
(0.105466 9.26834e-17 0)
(0.105466 -1.00518e-16 0)
(0.105466 5.92654e-17 0)
(0.105466 -5.45125e-17 0)
(0.105466 -4.53962e-17 0)
(0.105466 1.22979e-16 0)
(0.105466 7.16521e-17 0)
(0.105466 1.79279e-16 0)
(0.105466 -5.69567e-16 0)
(0.105466 2.06342e-16 0)
(0.105466 2.25885e-16 0)
(0.105466 1.12952e-17 0)
(0.105466 1.85754e-17 0)
(0.105466 -4.31417e-16 0)
(0.105466 1.23399e-16 0)
(0.105466 2.58697e-16 0)
(0.105466 -4.67293e-17 0)
(0.105466 -2.33982e-16 0)
(0.105466 1.57634e-16 0)
(0.105466 -6.12342e-17 0)
(0.105466 -9.07248e-19 0)
(0.105466 7.09135e-17 0)
(0.105466 -1.55247e-16 0)
(0.105466 1.81428e-16 0)
(0.105466 4.43996e-17 0)
(0.105466 1.06088e-16 0)
(0.105466 -2.94069e-16 0)
(0.105466 1.02921e-17 0)
(0.105466 1.48914e-16 0)
(0.105466 1.89259e-17 0)
(0.105466 -6.20444e-17 0)
(0.105466 -9.37567e-17 0)
(0.105466 2.76107e-16 0)
(0.105466 -2.85911e-16 0)
(0.105466 9.50969e-17 0)
(0.105466 7.02069e-17 0)
(0.105466 -7.07154e-17 0)
(0.105466 3.32713e-16 0)
(0.105466 -1.7006e-16 0)
(0.105466 -2.63129e-16 0)
(0.105466 1.8734e-16 0)
(0.105466 2.67444e-16 0)
(0.105466 -2.63809e-16 0)
(0.105466 7.01751e-17 0)
(0.105466 8.68309e-17 0)
(0.105466 9.88207e-17 0)
(0.105466 3.12277e-16 0)
(0.105466 1.30391e-16 0)
(0.105466 6.24675e-16 0)
(0.173703 7.34929e-16 0)
(0.173703 4.9358e-16 0)
(0.173703 2.79819e-16 0)
(0.173703 2.31903e-16 0)
(0.173703 1.74145e-16 0)
(0.173703 1.14686e-16 0)
(0.173703 1.08124e-16 0)
(0.173703 9.45338e-17 0)
(0.173703 4.25227e-17 0)
(0.173703 -6.95936e-18 0)
(0.173703 -1.59427e-18 0)
(0.173703 -4.50375e-17 0)
(0.173703 -8.49113e-17 0)
(0.173703 -3.46644e-17 0)
(0.173703 -2.50214e-17 0)
(0.173703 -3.42212e-17 0)
(0.173703 -3.27137e-17 0)
(0.173703 -2.52834e-17 0)
(0.173703 2.1653e-17 0)
(0.173703 2.80324e-17 0)
(0.173703 1.19029e-17 0)
(0.173703 3.75812e-17 0)
(0.173703 9.44196e-17 0)
(0.173703 8.00258e-17 0)
(0.173703 4.41413e-17 0)
(0.173703 -3.15306e-17 0)
(0.173703 -4.39201e-17 0)
(0.173703 1.80016e-17 0)
(0.173703 -2.14648e-17 0)
(0.173703 1.98948e-17 0)
(0.173703 3.80368e-17 0)
(0.173703 -1.36818e-17 0)
(0.173703 -2.05118e-17 0)
(0.173703 -2.75976e-17 0)
(0.173703 6.42652e-18 0)
(0.173703 3.82873e-17 0)
(0.173703 -7.80788e-17 0)
(0.173703 -4.84925e-17 0)
(0.173703 -3.26436e-17 0)
(0.173703 -8.07522e-17 0)
(0.173703 -3.14951e-18 0)
(0.173703 -1.39209e-17 0)
(0.173703 -1.46351e-17 0)
(0.173703 6.62973e-18 0)
(0.173703 1.11862e-17 0)
(0.173703 6.48612e-18 0)
(0.173703 2.60269e-17 0)
(0.173703 -8.24463e-17 0)
(0.173703 -3.72948e-17 0)
(0.173703 5.266e-17 0)
(0.173703 -5.84472e-18 0)
(0.173703 -5.3009e-17 0)
(0.173703 -1.7454e-17 0)
(0.173703 4.82172e-17 0)
(0.173703 6.63952e-17 0)
(0.173703 1.26774e-19 0)
(0.173703 4.32836e-17 0)
(0.173703 -6.39303e-17 0)
(0.173703 -4.95743e-17 0)
(0.173703 1.7607e-17 0)
(0.173703 1.09121e-17 0)
(0.173703 2.94643e-17 0)
(0.173703 6.12942e-19 0)
(0.173703 5.80014e-17 0)
(0.173703 8.45867e-17 0)
(0.173703 3.78738e-17 0)
(0.173703 -5.75836e-17 0)
(0.173703 -5.3802e-17 0)
(0.173703 -7.74042e-18 0)
(0.173703 -2.13202e-17 0)
(0.173703 -6.28824e-18 0)
(0.173703 9.73046e-18 0)
(0.173703 7.9462e-17 0)
(0.173703 -5.81884e-17 0)
(0.173703 -1.10941e-16 0)
(0.173703 1.6087e-16 0)
(0.173703 1.2673e-16 0)
(0.173703 -2.89094e-17 0)
(0.173703 -4.41285e-17 0)
(0.173703 -9.9534e-20 0)
(0.173703 2.70544e-17 0)
(0.173703 -4.15434e-17 0)
(0.173703 -3.42536e-17 0)
(0.173703 -2.54051e-17 0)
(0.173703 -3.04669e-17 0)
(0.173703 3.276e-17 0)
(0.173703 3.3923e-20 0)
(0.173703 8.73961e-17 0)
(0.173703 5.84003e-17 0)
(0.173703 4.15031e-17 0)
(0.173703 1.04266e-16 0)
(0.173703 6.74479e-17 0)
(0.173703 4.99423e-17 0)
(0.173703 3.37757e-17 0)
(0.173703 1.01757e-17 0)
(0.173703 -1.22383e-16 0)
(0.173703 -2.27769e-17 0)
(0.173703 1.69334e-16 0)
(0.173703 -1.06682e-16 0)
(0.173703 -1.54435e-16 0)
(0.173703 1.24858e-16 0)
(0.173703 8.19148e-17 0)
(0.173703 -2.38066e-17 0)
(0.173703 -7.83396e-17 0)
(0.173703 -4.82358e-19 0)
(0.173703 2.90774e-17 0)
(0.173703 -5.15963e-17 0)
(0.173703 -5.30083e-17 0)
(0.173703 1.53247e-16 0)
(0.173703 1.17223e-16 0)
(0.173703 -1.15671e-16 0)
(0.173703 -1.75162e-16 0)
(0.173703 -1.53706e-16 0)
(0.173703 9.53212e-17 0)
(0.173703 4.93368e-17 0)
(0.173703 -2.47938e-16 0)
(0.173703 -1.19492e-16 0)
(0.173703 1.52631e-16 0)
(0.173703 9.32188e-17 0)
(0.173703 -3.74361e-17 0)
(0.173703 -7.25915e-17 0)
(0.173703 3.39356e-17 0)
(0.173703 8.65929e-17 0)
(0.173703 -5.12891e-17 0)
(0.173703 -2.07197e-17 0)
(0.173703 1.65691e-16 0)
(0.173703 1.96656e-17 0)