/*--------------------------------*- C++ -*----------------------------------*\
| =========                 |                                                 |
| \\      /  F ield         | OpenFOAM: The Open Source CFD Toolbox           |
|  \\    /   O peration     | Version:  2112                                  |
|   \\  /    A nd           | Website:  www.openfoam.com                      |
|    \\/     M anipulation  |                                                 |
\*---------------------------------------------------------------------------*/
FoamFile
{
    version     2.0;
    format      ascii;
    arch        "LSB;label=32;scalar=64";
    class       volVectorField;
    location    "2";
    object      U;
}
// * * * * * * * * * * * * * * * * * * * * * * * * * * * * * * * * * * * * * //

dimensions      [0 1 -1 0 0 0 0];

internalField   nonuniform List<vector> 
25600
(
(0.0376047 1.40005e-15 0)
(0.0376047 2.53567e-16 0)
(0.0376047 3.45151e-17 0)
(0.0376047 5.79385e-18 0)
(0.0376047 9.92736e-18 0)
(0.0376047 -2.54406e-18 0)
(0.0376047 -7.24831e-18 0)
(0.0376047 2.46543e-18 0)
(0.0376047 9.95869e-19 0)
(0.0376047 -1.25918e-18 0)
(0.0376047 8.19384e-18 0)
(0.0376047 -1.77067e-18 0)
(0.0376047 8.1992e-18 0)
(0.0376047 4.43893e-18 0)
(0.0376047 -1.00439e-17 0)
(0.0376047 6.63114e-18 0)
(0.0376047 2.69623e-18 0)
(0.0376047 -3.2907e-18 0)
(0.0376047 -8.44224e-19 0)
(0.0376047 -2.79347e-18 0)
(0.0376047 4.47079e-18 0)
(0.0376047 9.50667e-18 0)
(0.0376047 -1.55418e-18 0)
(0.0376047 -5.10257e-18 0)
(0.0376047 -1.64778e-17 0)
(0.0376047 -9.00328e-19 0)
(0.0376047 2.32197e-17 0)
(0.0376047 -6.40055e-18 0)
(0.0376047 -2.5762e-17 0)
(0.0376047 -5.09574e-18 0)
(0.0376047 7.59475e-18 0)
(0.0376047 1.26583e-17 0)
(0.0376047 3.87921e-19 0)
(0.0376047 -1.12928e-17 0)
(0.0376047 -4.18157e-18 0)
(0.0376047 2.72182e-19 0)
(0.0376047 6.61251e-18 0)
(0.0376047 -4.37562e-18 0)
(0.0376047 -8.12036e-18 0)
(0.0376047 6.61187e-18 0)
(0.0376047 2.20191e-18 0)
(0.0376047 1.59584e-17 0)
(0.0376047 -3.85667e-18 0)
(0.0376047 -1.60067e-17 0)
(0.0376047 1.84867e-17 0)
(0.0376047 -7.84897e-18 0)
(0.0376047 -8.16857e-19 0)
(0.0376047 5.52577e-18 0)
(0.0376047 -2.69623e-18 0)
(0.0376047 -4.75514e-18 0)
(0.0376047 -2.56219e-17 0)
(0.0376047 2.25281e-17 0)
(0.0376047 -3.7373e-18 0)
(0.0376047 -2.71212e-18 0)
(0.0376047 2.24981e-17 0)
(0.0376047 -2.78966e-17 0)
(0.0376047 2.47342e-18 0)
(0.0376047 -1.11013e-17 0)
(0.0376047 1.92376e-18 0)
(0.0376047 3.58885e-17 0)
(0.0376047 -3.38507e-17 0)
(0.0376047 1.1879e-17 0)
(0.0376047 -3.51084e-18 0)
(0.0376047 3.42017e-19 0)
(0.0376047 2.16925e-17 0)
(0.0376047 -1.71627e-17 0)
(0.0376047 6.61363e-18 0)
(0.0376047 -7.95917e-18 0)
(0.0376047 9.82707e-18 0)
(0.0376047 7.16491e-18 0)
(0.0376047 -4.55513e-18 0)
(0.0376047 -5.44145e-19 0)
(0.0376047 -3.90499e-18 0)
(0.0376047 -4.0838e-19 0)
(0.0376047 1.01188e-17 0)
(0.0376047 -6.64304e-18 0)
(0.0376047 -1.22791e-17 0)
(0.0376047 1.43501e-17 0)
(0.0376047 -8.43385e-18 0)
(0.0376047 2.5794e-17 0)
(0.0376047 -2.47402e-17 0)
(0.0376047 -3.56505e-17 0)
(0.0376047 2.32478e-17 0)
(0.0376047 1.14407e-17 0)
(0.0376047 2.40964e-17 0)
(0.0376047 -3.38299e-18 0)
(0.0376047 -4.16243e-17 0)
(0.0376047 3.4715e-19 0)
(0.0376047 2.05108e-17 0)
(0.0376047 3.4942e-17 0)
(0.0376047 -6.6525e-18 0)
(0.0376047 -4.96236e-17 0)
(0.0376047 3.58575e-18 0)
(0.0376047 4.63097e-17 0)
(0.0376047 1.07423e-18 0)
(0.0376047 -4.69463e-17 0)
(0.0376047 5.19233e-18 0)
(0.0376047 -3.55505e-18 0)
(0.0376047 4.14311e-17 0)
(0.0376047 2.23127e-17 0)
(0.0376047 -6.7081e-17 0)
(0.0376047 2.9081e-18 0)
(0.0376047 -8.47387e-18 0)
(0.0376047 4.2603e-17 0)
(0.0376047 1.78358e-18 0)
(0.0376047 -1.23254e-17 0)
(0.0376047 -2.54411e-17 0)
(0.0376047 1.4118e-17 0)
(0.0376047 3.35337e-17 0)
(0.0376047 -8.22769e-18 0)
(0.0376047 2.48186e-17 0)
(0.0376047 -9.16391e-17 0)
(0.0376047 2.66271e-17 0)
(0.0376047 5.87452e-17 0)
(0.0376047 1.46363e-18 0)
(0.0376047 -2.03383e-17 0)
(0.0376047 -5.81181e-17 0)
(0.0376047 3.59451e-17 0)
(0.0376047 4.08094e-17 0)
(0.0376047 1.21326e-17 0)
(0.0376047 -1.14969e-17 0)
(0.0376047 -5.78262e-17 0)
(0.0376047 -3.20647e-18 0)
(0.0376047 6.77816e-17 0)
(0.0376047 8.23907e-18 0)
(0.0376047 -3.40017e-17 0)
(0.0376047 -4.49342e-17 0)
(0.0376047 8.33296e-18 0)
(0.0376047 6.55072e-17 0)
(0.0376047 -3.37401e-18 0)
(0.0376047 -2.90692e-17 0)
(0.0376047 -2.83771e-17 0)
(0.0376047 2.30123e-17 0)
(0.0376047 3.45353e-17 0)
(0.0376047 -2.6373e-17 0)
(0.0376047 -2.68765e-17 0)
(0.0376047 -1.48611e-17 0)
(0.0376047 4.01073e-17 0)
(0.0376047 1.95985e-17 0)
(0.0376047 -2.3148e-17 0)
(0.0376047 -2.49826e-17 0)
(0.0376047 -1.191e-17 0)
(0.0376047 4.50105e-17 0)
(0.0376047 1.12213e-17 0)
(0.0376047 -4.41734e-17 0)
(0.0376047 4.13704e-17 0)
(0.0376047 -1.02698e-17 0)
(0.0376047 -3.74004e-17 0)
(0.0376047 1.65278e-19 0)
(0.0376047 -4.8223e-18 0)
(0.0376047 5.07657e-17 0)
(0.0376047 -4.62214e-18 0)
(0.0376047 -4.79288e-17 0)
(0.0376047 8.30501e-18 0)
(0.0376047 2.6384e-17 0)
(0.0376047 3.06815e-17 0)
(0.0376047 -2.81064e-17 0)
(0.0376047 -3.78061e-17 0)
(0.0376047 3.43702e-17 0)
(0.0376047 3.70124e-18 0)
(0.0376047 5.1371e-17 0)
(0.0376047 -5.83818e-17 0)
(0.0376047 -4.30741e-17 0)
(0.0376047 6.84859e-17 0)
(0.0376047 -1.59369e-17 0)
(0.0376047 4.78032e-17 0)
(0.0376047 -3.87112e-17 0)
(0.0376047 -2.95088e-18 0)
(0.0376047 1.23478e-17 0)
(0.0376047 -4.6429e-17 0)
(0.0376047 8.52946e-17 0)
(0.0376047 -5.12293e-17 0)
(0.0376047 1.16488e-17 0)
(0.0376047 1.71065e-17 0)
(0.0376047 -4.22574e-17 0)
(0.0376047 7.56087e-17 0)
(0.0376047 -5.60386e-17 0)
(0.0376047 5.9613e-18 0)
(0.0376047 -7.056e-18 0)
(0.0376047 -3.47477e-17 0)
(0.0376047 9.85086e-17 0)
(0.0376047 -7.23765e-17 0)
(0.0376047 3.78202e-18 0)
(0.0376047 1.6366e-17 0)
(0.0376047 -4.52892e-17 0)
(0.0376047 9.7856e-17 0)
(0.0376047 -6.28186e-17 0)
(0.0376047 -2.0722e-18 0)
(0.0376047 6.17569e-17 0)
(0.0376047 -9.37612e-17 0)
(0.0376047 4.91832e-17 0)
(0.0376047 -4.40044e-18 0)
(0.0376047 -6.00656e-17 0)
(0.0376047 1.03445e-16 0)
(0.0376047 -4.26494e-17 0)
(0.0376047 8.81797e-19 0)
(0.0376047 -4.78828e-17 0)
(0.0376047 -1.33643e-17 0)
(0.0376047 1.41637e-16 0)
(0.0376047 -8.71795e-17 0)
(0.0376047 3.27801e-18 0)
(0.0376047 -5.16466e-17 0)
(0.0376047 -1.0807e-18 0)
(0.0376047 1.40174e-16 0)
(0.0376047 -8.91723e-17 0)
(0.0376047 -4.73163e-17 0)
(0.0376047 -1.3874e-17 0)
(0.0376047 4.92175e-17 0)
(0.0376047 9.05385e-17 0)
(0.0376047 -4.43115e-17 0)
(0.0376047 -8.44771e-17 0)
(0.0376047 -6.13947e-17 0)
(0.0376047 1.61797e-16 0)
(0.0376047 -2.07816e-20 0)
(0.0376047 -1.67813e-16 0)
(0.0376047 1.64385e-16 0)
(0.0376047 2.87091e-17 0)
(0.0376047 -8.1823e-17 0)
(0.0376047 -3.52429e-17 0)
(0.0376047 -7.2838e-17 0)
(0.0376047 1.67385e-16 0)
(0.0376047 3.49759e-17 0)
(0.0376047 -9.11181e-17 0)
(0.0376047 -3.55977e-17 0)
(0.0376047 -8.03629e-17 0)
(0.0376047 1.66142e-16 0)
(0.0376047 -7.95359e-18 0)
(0.0376047 -5.80728e-17 0)
(0.0376047 1.79096e-17 0)
(0.0376047 -9.95448e-17 0)
(0.0376047 1.66836e-16 0)
(0.0376047 -1.0188e-17 0)
(0.0376047 -9.46559e-17 0)
(0.0376047 5.87136e-17 0)
(0.0376047 -7.58802e-17 0)
(0.0376047 9.69253e-17 0)
(0.0376047 -1.24434e-18 0)
(0.0376047 -2.60264e-17 0)
(0.0376047 2.71205e-17 0)
(0.0376047 -1.2714e-16 0)
(0.0376047 1.4648e-16 0)
(0.0376047 -1.8616e-17 0)
(0.0376047 -3.69909e-17 0)
(0.0376047 7.40557e-17 0)
(0.0376047 -1.38238e-16 0)
(0.0376047 1.53621e-17 0)
(0.0376047 4.21677e-17 0)
(0.0376047 5.33582e-17 0)
(0.0376047 1.57751e-17 0)
(0.0376047 -1.29952e-16 0)
(0.0376047 8.29016e-17 0)
(0.0376047 -7.5459e-18 0)
(0.0376047 -2.64448e-17 0)
(0.0376047 4.23982e-17 0)
(0.0376047 -1.1039e-16 0)
(0.0376047 1.03e-16 0)
(0.0376047 -1.7343e-17 0)
(0.0376047 -1.36296e-17 0)
(0.0376047 7.09614e-17 0)
(0.0376047 -1.2443e-16 0)
(0.0376047 5.91033e-17 0)
(0.0376047 -4.74651e-18 0)
(0.0376047 -7.51824e-19 0)
(0.0376047 5.14697e-17 0)
(0.0376047 -1.09491e-16 0)
(0.0376047 7.904e-17 0)
(0.0376047 3.43869e-17 0)
(0.0376047 -4.77076e-17 0)
(0.0376047 8.49223e-18 0)
(0.0376047 -7.74424e-17 0)
(0.0376047 7.34217e-17 0)
(0.0376047 3.56569e-17 0)
(0.0376047 -8.0561e-17 0)
(0.0376047 4.78898e-17 0)
(0.0376047 -3.21264e-17 0)
(0.0376047 3.50851e-17 0)
(0.0376047 3.84726e-17 0)
(0.0376047 -8.99541e-17 0)
(0.0376047 6.07832e-17 0)
(0.0376047 -4.21908e-17 0)
(0.0376047 1.96374e-17 0)
(0.0376047 3.83558e-17 0)
(0.0376047 -8.96614e-17 0)
(0.0376047 6.3602e-17 0)
(0.0376047 -2.41897e-17 0)
(0.0376047 -2.06207e-17 0)
(0.0376047 9.54353e-17 0)
(0.0376047 -5.47711e-17 0)
(0.0376047 -9.69174e-18 0)
(0.0376047 -6.35434e-17 0)
(0.0376047 3.51525e-17 0)
(0.0376047 1.22994e-16 0)
(0.0376047 -6.8529e-18 0)
(0.0376047 -1.19752e-16 0)
(0.0376047 -2.50706e-17 0)
(0.0376047 6.11316e-17 0)
(0.0376047 8.80378e-18 0)
(0.0376047 7.41571e-17 0)
(0.0376047 -1.29414e-16 0)
(0.0376047 -1.59088e-17 0)
(0.0376047 6.29732e-17 0)
(0.0376047 7.79069e-18 0)
(0.0376047 4.8426e-17 0)
(0.0376047 -9.70087e-17 0)
(0.0376047 2.68696e-17 0)
(0.0376047 2.76538e-17 0)
(0.0376047 -4.84507e-17 0)
(0.0376047 8.60096e-17 0)
(0.0376047 -6.79111e-17 0)
(0.0376047 -1.59486e-18 0)
(0.0376047 2.85461e-17 0)
(0.0376047 -7.09408e-17 0)
(0.0376047 9.62489e-17 0)
(0.0376047 -3.42273e-17 0)
(0.0376047 -6.05243e-17 0)
(0.0376047 4.95737e-17 0)
(0.0376047 -1.05445e-17 0)
(0.0376047 7.4448e-17 0)
(0.0376047 -2.8889e-18 0)
(0.0376047 1.87265e-16 0)
(0.110932 1.8431e-15 0)
(0.110932 3.97488e-16 0)
(0.110932 4.67461e-17 0)
(0.110932 1.9671e-17 0)
(0.110932 3.0213e-17 0)
(0.110932 2.42395e-18 0)
(0.110932 1.83923e-19 0)
(0.110932 1.46781e-17 0)
(0.110932 2.36687e-17 0)
(0.110932 1.44798e-17 0)
(0.110932 1.89663e-17 0)
(0.110932 1.3064e-17 0)
(0.110932 4.40636e-17 0)
(0.110932 2.82064e-17 0)
(0.110932 -1.95996e-17 0)
(0.110932 1.9815e-17 0)
(0.110932 3.15562e-17 0)
(0.110932 1.51239e-17 0)
(0.110932 2.88931e-18 0)
(0.110932 2.19324e-17 0)
(0.110932 2.23317e-17 0)
(0.110932 9.52432e-18 0)
(0.110932 -1.48993e-17 0)
(0.110932 -1.77439e-17 0)
(0.110932 -3.6549e-17 0)
(0.110932 -2.62952e-17 0)
(0.110932 1.73321e-17 0)
(0.110932 -3.51074e-17 0)
(0.110932 -6.8843e-17 0)
(0.110932 -3.90371e-17 0)
(0.110932 9.15074e-18 0)
(0.110932 3.36787e-17 0)
(0.110932 -4.2227e-18 0)
(0.110932 -3.16469e-17 0)
(0.110932 -1.07564e-17 0)
(0.110932 -1.28947e-18 0)
(0.110932 5.11996e-17 0)
(0.110932 -1.96018e-17 0)
(0.110932 -4.03768e-17 0)
(0.110932 3.47896e-17 0)
(0.110932 -1.17028e-17 0)
(0.110932 1.47178e-17 0)
(0.110932 1.67626e-17 0)
(0.110932 -3.3207e-17 0)
(0.110932 2.85205e-17 0)
(0.110932 -5.6963e-18 0)
(0.110932 -6.97874e-18 0)
(0.110932 -1.88986e-17 0)
(0.110932 -2.46905e-17 0)
(0.110932 -3.03255e-17 0)
(0.110932 -5.48427e-17 0)
(0.110932 2.15957e-17 0)
(0.110932 -1.86263e-17 0)
(0.110932 -2.64782e-17 0)
(0.110932 1.86828e-17 0)
(0.110932 -5.95189e-17 0)
(0.110932 -1.34916e-17 0)
(0.110932 -9.63567e-18 0)
(0.110932 8.0235e-18 0)
(0.110932 1.84959e-17 0)
(0.110932 -7.81995e-17 0)
(0.110932 5.70833e-17 0)
(0.110932 -5.55597e-18 0)
(0.110932 8.00169e-18 0)
(0.110932 7.62129e-17 0)
(0.110932 -2.90174e-17 0)
(0.110932 3.78059e-17 0)
(0.110932 2.71987e-17 0)
(0.110932 2.36735e-17 0)
(0.110932 4.84416e-17 0)
(0.110932 -2.5981e-17 0)
(0.110932 -5.05855e-19 0)
(0.110932 -1.61176e-17 0)
(0.110932 -1.16291e-17 0)
(0.110932 7.79306e-17 0)
(0.110932 -7.43181e-17 0)
(0.110932 -7.91062e-17 0)
(0.110932 4.35238e-17 0)
(0.110932 -3.24103e-17 0)
(0.110932 3.00978e-17 0)
(0.110932 -3.74426e-17 0)
(0.110932 -1.14319e-16 0)
(0.110932 1.75903e-17 0)
(0.110932 7.97797e-17 0)
(0.110932 6.55792e-17 0)
(0.110932 -7.06954e-18 0)
(0.110932 -4.37782e-17 0)
(0.110932 -1.14153e-17 0)
(0.110932 8.05902e-17 0)
(0.110932 1.24724e-16 0)
(0.110932 -3.93395e-17 0)
(0.110932 -8.09868e-17 0)
(0.110932 1.68111e-17 0)
(0.110932 8.16973e-17 0)
(0.110932 8.8035e-18 0)
(0.110932 -8.02265e-17 0)
(0.110932 1.63462e-17 0)
(0.110932 -4.03282e-18 0)
(0.110932 4.29497e-17 0)
(0.110932 3.03374e-17 0)
(0.110932 -9.72686e-17 0)
(0.110932 1.33515e-17 0)
(0.110932 -5.59393e-17 0)
(0.110932 1.62071e-17 0)
(0.110932 5.90702e-17 0)
(0.110932 1.15604e-17 0)
(0.110932 -6.62924e-17 0)
(0.110932 -1.80585e-18 0)
(0.110932 1.05747e-16 0)
(0.110932 6.61804e-17 0)
(0.110932 2.22196e-17 0)
(0.110932 -1.95985e-16 0)
(0.110932 3.718e-17 0)
(0.110932 1.77924e-16 0)
(0.110932 1.32091e-17 0)
(0.110932 -3.75012e-17 0)
(0.110932 -1.32898e-16 0)
(0.110932 -6.36627e-18 0)
(0.110932 1.3541e-16 0)
(0.110932 2.92818e-17 0)
(0.110932 -7.99481e-17 0)
(0.110932 -1.44522e-16 0)
(0.110932 8.42134e-18 0)
(0.110932 1.97455e-16 0)
(0.110932 8.01838e-17 0)
(0.110932 -1.00731e-16 0)
(0.110932 -1.55607e-16 0)
(0.110932 4.22582e-17 0)
(0.110932 1.86637e-16 0)
(0.110932 1.38022e-17 0)
(0.110932 -7.49414e-17 0)
(0.110932 -9.31763e-17 0)
(0.110932 3.75454e-17 0)
(0.110932 1.0763e-16 0)
(0.110932 -3.3306e-17 0)
(0.110932 -2.94565e-17 0)
(0.110932 -1.27305e-16 0)
(0.110932 -4.8756e-17 0)
(0.110932 1.07425e-16 0)
(0.110932 9.19569e-18 0)
(0.110932 -2.83116e-17 0)
(0.110932 -8.89715e-17 0)
(0.110932 1.25643e-18 0)
(0.110932 7.51568e-17 0)
(0.110932 8.61386e-18 0)
(0.110932 -3.33147e-17 0)
(0.110932 -1.13773e-16 0)
(0.110932 2.97551e-17 0)
(0.110932 1.12447e-17 0)
(0.110932 1.76361e-17 0)
(0.110932 7.69971e-17 0)
(0.110932 -1.55374e-16 0)
(0.110932 -9.66006e-17 0)
(0.110932 9.17111e-17 0)
(0.110932 8.32621e-17 0)
(0.110932 6.83434e-17 0)
(0.110932 -6.75331e-17 0)
(0.110932 -8.31492e-17 0)
(0.110932 5.85139e-17 0)
(0.110932 6.71183e-17 0)
(0.110932 1.05329e-16 0)
(0.110932 -1.16739e-16 0)
(0.110932 1.95445e-18 0)
(0.110932 1.50168e-16 0)
(0.110932 -1.46785e-16 0)
(0.110932 7.71378e-17 0)
(0.110932 2.62623e-17 0)
(0.110932 -6.24138e-17 0)
(0.110932 1.80181e-16 0)
(0.110932 8.13664e-17 0)
(0.110932 -4.78592e-19 0)
(0.110932 -9.48148e-17 0)
(0.110932 4.63555e-17 0)
(0.110932 9.64533e-17 0)
(0.110932 -5.42305e-17 0)
(0.110932 -6.52263e-17 0)
(0.110932 -6.70855e-17 0)
(0.110932 1.77621e-16 0)
(0.110932 -5.31318e-17 0)
(0.110932 -5.43861e-17 0)
(0.110932 1.26512e-16 0)
(0.110932 -2.02148e-16 0)
(0.110932 -1.6759e-17 0)
(0.110932 7.19846e-17 0)
(0.110932 -2.82779e-17 0)
(0.110932 1.4737e-16 0)
(0.110932 -1.28283e-16 0)
(0.110932 -1.56958e-17 0)
(0.110932 1.26438e-16 0)
(0.110932 -1.27376e-16 0)
(0.110932 5.15696e-17 0)
(0.110932 -1.50918e-17 0)
(0.110932 -8.26117e-17 0)
(0.110932 1.57899e-16 0)
(0.110932 -1.90941e-17 0)
(0.110932 1.11728e-17 0)
(0.110932 -1.00997e-16 0)
(0.110932 -3.52328e-17 0)
(0.110932 1.99462e-16 0)
(0.110932 -1.17004e-16 0)
(0.110932 -1.28704e-17 0)
(0.110932 -9.83075e-17 0)
(0.110932 1.57063e-17 0)
(0.110932 2.08324e-16 0)
(0.110932 -7.65454e-17 0)
(0.110932 -1.57758e-16 0)
(0.110932 -1.15319e-16 0)
(0.110932 1.23305e-16 0)
(0.110932 1.31105e-16 0)
(0.110932 -4.91092e-17 0)
(0.110932 -1.29374e-16 0)
(0.110932 -1.14063e-16 0)
(0.110932 3.12652e-16 0)
(0.110932 1.54311e-17 0)
(0.110932 -2.90752e-16 0)
(0.110932 2.61919e-16 0)
(0.110932 2.45389e-17 0)
(0.110932 -8.95551e-17 0)
(0.110932 -7.34029e-17 0)
(0.110932 -1.64147e-16 0)
(0.110932 3.34665e-16 0)
(0.110932 6.12623e-17 0)
(0.110932 -1.43057e-16 0)
(0.110932 -7.1096e-17 0)
(0.110932 -2.00056e-16 0)
(0.110932 3.11416e-16 0)
(0.110932 1.18294e-17 0)
(0.110932 -1.11499e-16 0)
(0.110932 1.07918e-16 0)
(0.110932 -9.21432e-17 0)
(0.110932 1.66904e-16 0)
(0.110932 -4.64189e-17 0)
(0.110932 1.04382e-17 0)
(0.110932 8.9095e-17 0)
(0.110932 -2.45012e-16 0)
(0.110932 7.83367e-17 0)
(0.110932 6.48945e-17 0)
(0.110932 8.63134e-17 0)
(0.110932 1.23538e-16 0)
(0.110932 -2.15972e-16 0)
(0.110932 8.70676e-17 0)
(0.110932 -6.15415e-17 0)
(0.110932 4.8619e-17 0)
(0.110932 1.39645e-16 0)
(0.110932 -3.4058e-16 0)
(0.110932 2.87704e-17 0)
(0.110932 9.06125e-17 0)
(0.110932 1.14073e-16 0)
(0.110932 3.80794e-17 0)
(0.110932 -2.64708e-16 0)
(0.110932 2.12196e-16 0)
(0.110932 -2.84354e-17 0)
(0.110932 -1.62845e-16 0)
(0.110932 -2.11981e-17 0)
(0.110932 -1.64136e-16 0)
(0.110932 3.1368e-16 0)
(0.110932 -1.38688e-17 0)
(0.110932 -5.95688e-17 0)
(0.110932 1.21371e-16 0)
(0.110932 -2.47286e-16 0)
(0.110932 1.03672e-16 0)
(0.110932 5.41088e-17 0)
(0.110932 -3.45747e-17 0)
(0.110932 1.04436e-17 0)
(0.110932 -1.31937e-16 0)
(0.110932 2.1638e-16 0)
(0.110932 3.59916e-17 0)
(0.110932 -3.61911e-17 0)
(0.110932 -5.63942e-17 0)
(0.110932 -1.92617e-16 0)
(0.110932 1.66413e-16 0)
(0.110932 1.68765e-17 0)
(0.110932 5.27946e-17 0)
(0.110932 -5.0906e-17 0)
(0.110932 -1.96887e-16 0)
(0.110932 1.6292e-16 0)
(0.110932 3.94572e-18 0)
(0.110932 -4.90417e-17 0)
(0.110932 9.11306e-17 0)
(0.110932 -1.61489e-16 0)
(0.110932 7.08915e-17 0)
(0.110932 5.10644e-17 0)
(0.110932 -4.46129e-18 0)
(0.110932 6.79947e-18 0)
(0.110932 -1.77617e-16 0)
(0.110932 9.55071e-17 0)
(0.110932 1.43885e-16 0)
(0.110932 4.25536e-17 0)
(0.110932 -1.79706e-16 0)
(0.110932 -1.41745e-16 0)
(0.110932 2.25483e-16 0)
(0.110932 -3.72893e-17 0)
(0.110932 -5.4679e-17 0)
(0.110932 -4.25207e-17 0)
(0.110932 -7.34115e-17 0)
(0.110932 2.37975e-16 0)
(0.110932 -3.91504e-17 0)
(0.110932 -7.23861e-17 0)
(0.110932 -9.56043e-17 0)
(0.110932 -3.97925e-17 0)
(0.110932 2.73007e-16 0)
(0.110932 2.77023e-17 0)
(0.110932 6.32439e-17 0)
(0.110932 -1.18682e-16 0)
(0.110932 -2.30918e-16 0)
(0.110932 1.03859e-16 0)
(0.110932 6.75319e-17 0)
(0.110932 9.27037e-17 0)
(0.110932 -1.54998e-16 0)
(0.110932 6.71256e-19 0)
(0.110932 8.45161e-17 0)
(0.110932 -1.33412e-16 0)
(0.110932 1.4339e-16 0)
(0.110932 -3.42596e-17 0)
(0.110932 -1.12306e-16 0)
(0.110932 1.01154e-16 0)
(0.110932 -8.39564e-17 0)
(0.110932 1.21125e-16 0)
(0.110932 5.07079e-17 0)
(0.110932 2.53044e-16 0)
(0.182375 1.50663e-15 0)
(0.182375 3.48269e-16 0)
(0.182375 1.21124e-16 0)
(0.182375 6.95747e-17 0)
(0.182375 6.14103e-17 0)
(0.182375 2.95968e-17 0)
(0.182375 1.41864e-17 0)
(0.182375 6.33116e-17 0)
(0.182375 7.00385e-17 0)
(0.182375 4.65965e-17 0)
(0.182375 1.9435e-17 0)
(0.182375 5.55817e-17 0)
(0.182375 9.37371e-17 0)
(0.182375 4.51728e-17 0)
(0.182375 -1.37807e-17 0)
(0.182375 3.95351e-17 0)
(0.182375 6.88544e-17 0)
(0.182375 3.79797e-17 0)
(0.182375 3.68271e-17 0)
(0.182375 5.57789e-17 0)
(0.182375 6.39682e-17 0)
(0.182375 -3.56508e-18 0)
(0.182375 -4.05871e-17 0)
(0.182375 -4.65983e-17 0)
(0.182375 -5.27325e-17 0)
(0.182375 -3.94679e-17 0)
(0.182375 -3.06021e-17 0)
(0.182375 -1.03953e-16 0)
(0.182375 -1.33594e-16 0)
(0.182375 -8.81271e-17 0)
(0.182375 1.1569e-17 0)
(0.182375 7.74769e-17 0)
(0.182375 -1.09367e-17 0)
(0.182375 -6.22738e-17 0)
(0.182375 -2.75685e-17 0)
(0.182375 -1.11148e-17 0)
(0.182375 7.7806e-17 0)
(0.182375 -1.49528e-17 0)
(0.182375 -6.94777e-17 0)
(0.182375 1.49381e-17 0)
(0.182375 1.35531e-17 0)
(0.182375 2.48452e-17 0)
(0.182375 3.84061e-17 0)
(0.182375 -5.1591e-17 0)
(0.182375 -1.46223e-17 0)
(0.182375 1.94561e-17 0)
(0.182375 1.43763e-18 0)
(0.182375 -4.41968e-17 0)
(0.182375 -7.96798e-17 0)
(0.182375 -8.47857e-17 0)
(0.182375 -7.6255e-17 0)
(0.182375 -2.51942e-17 0)
(0.182375 -5.00569e-17 0)
(0.182375 -4.93172e-17 0)
(0.182375 2.67839e-18 0)
(0.182375 -1.02352e-16 0)
(0.182375 -3.59337e-17 0)
(0.182375 -3.43502e-17 0)
(0.182375 5.95243e-18 0)
(0.182375 2.63184e-17 0)
(0.182375 -1.36365e-16 0)
(0.182375 8.53483e-17 0)
(0.182375 -6.31704e-18 0)
(0.182375 6.55193e-18 0)
(0.182375 1.68331e-16 0)
(0.182375 -3.62257e-17 0)
(0.182375 8.0574e-17 0)
(0.182375 7.30367e-17 0)
(0.182375 6.71462e-17 0)
(0.182375 9.63806e-17 0)
(0.182375 -3.27481e-17 0)
(0.182375 8.2226e-18 0)
(0.182375 -3.70017e-17 0)
(0.182375 1.69379e-17 0)
(0.182375 7.63057e-17 0)
(0.182375 -1.19212e-16 0)
(0.182375 -1.28031e-16 0)
(0.182375 1.33649e-17 0)
(0.182375 -6.46678e-17 0)
(0.182375 3.86085e-18 0)
(0.182375 -8.99278e-17 0)
(0.182375 -1.60461e-16 0)
(0.182375 5.0378e-17 0)
(0.182375 1.27488e-16 0)
(0.182375 1.04217e-16 0)
(0.182375 -3.52474e-18 0)
(0.182375 3.0303e-17 0)
(0.182375 1.06904e-17 0)
(0.182375 6.03903e-17 0)
(0.182375 2.0857e-16 0)
(0.182375 -3.01432e-17 0)
(0.182375 -9.69436e-17 0)
(0.182375 6.86361e-17 0)
(0.182375 5.86496e-17 0)
(0.182375 2.89667e-17 0)
(0.182375 -5.11865e-17 0)
(0.182375 9.57215e-18 0)
(0.182375 4.79375e-18 0)
(0.182375 -2.52579e-18 0)
(0.182375 2.77017e-18 0)
(0.182375 -4.59883e-17 0)
(0.182375 -2.82943e-17 0)
(0.182375 -7.99612e-17 0)
(0.182375 8.48028e-19 0)
(0.182375 7.6747e-17 0)
(0.182375 9.05069e-17 0)
(0.182375 -9.18179e-17 0)
(0.182375 -5.61509e-17 0)
(0.182375 2.02368e-16 0)
(0.182375 2.11648e-16 0)
(0.182375 -2.42433e-18 0)
(0.182375 -3.06928e-16 0)
(0.182375 4.40418e-17 0)
(0.182375 2.70139e-16 0)
(0.182375 9.97743e-17 0)
(0.182375 -4.11674e-17 0)
(0.182375 -2.62862e-16 0)
(0.182375 -9.10311e-17 0)
(0.182375 2.88151e-16 0)
(0.182375 1.04182e-16 0)
(0.182375 -2.39952e-16 0)
(0.182375 -2.98765e-16 0)
(0.182375 -6.15701e-18 0)
(0.182375 3.81743e-16 0)
(0.182375 2.39699e-16 0)
(0.182375 -1.65925e-16 0)
(0.182375 -3.71326e-16 0)
(0.182375 1.05598e-16 0)
(0.182375 3.42707e-16 0)
(0.182375 3.81877e-17 0)
(0.182375 -9.14114e-17 0)
(0.182375 -2.08619e-16 0)
(0.182375 4.06567e-17 0)
(0.182375 2.20717e-16 0)
(0.182375 -5.07947e-17 0)
(0.182375 -1.41304e-16 0)
(0.182375 -2.2954e-16 0)
(0.182375 -6.7659e-17 0)
(0.182375 2.05948e-16 0)
(0.182375 2.07571e-17 0)
(0.182375 -1.22123e-16 0)
(0.182375 -1.59535e-16 0)
(0.182375 4.633e-17 0)
(0.182375 1.09833e-16 0)
(0.182375 -5.72226e-17 0)
(0.182375 -9.81683e-17 0)
(0.182375 -1.4416e-16 0)
(0.182375 8.26081e-17 0)
(0.182375 1.79205e-17 0)
(0.182375 -1.10618e-16 0)
(0.182375 1.00741e-16 0)
(0.182375 -1.09598e-16 0)
(0.182375 -1.57341e-16 0)
(0.182375 6.5512e-17 0)
(0.182375 1.28984e-16 0)
(0.182375 1.40223e-16 0)
(0.182375 -5.91646e-17 0)
(0.182375 -1.59205e-16 0)
(0.182375 6.612e-17 0)
(0.182375 1.66521e-16 0)
(0.182375 1.82581e-16 0)
(0.182375 -1.63035e-16 0)
(0.182375 -2.12795e-17 0)
(0.182375 2.36137e-16 0)
(0.182375 -5.26573e-17 0)
(0.182375 7.61883e-17 0)
(0.182375 7.09888e-17 0)
(0.182375 9.05748e-17 0)
(0.182375 1.73938e-16 0)
(0.182375 7.37701e-17 0)
(0.182375 1.60588e-17 0)
(0.182375 -8.55822e-17 0)
(0.182375 1.08331e-16 0)
(0.182375 1.85613e-16 0)
(0.182375 2.64012e-17 0)
(0.182375 -1.60183e-16 0)
(0.182375 -1.85807e-16 0)
(0.182375 7.80526e-17 0)
(0.182375 -1.26442e-17 0)
(0.182375 1.46989e-16 0)
(0.182375 4.59622e-17 0)
(0.182375 -4.03555e-16 0)
(0.182375 -4.99174e-17 0)
(0.182375 1.76963e-16 0)
(0.182375 5.54864e-17 0)
(0.182375 1.46906e-16 0)
(0.182375 -1.83578e-16 0)
(0.182375 -6.93847e-17 0)
(0.182375 1.8269e-16 0)
(0.182375 -6.9334e-17 0)
(0.182375 -6.989e-18 0)
(0.182375 -3.70932e-17 0)
(0.182375 -6.19359e-17 0)
(0.182375 1.21447e-16 0)
(0.182375 8.31092e-17 0)
(0.182375 3.43328e-17 0)
(0.182375 -9.61402e-17 0)
(0.182375 -7.82e-17 0)
(0.182375 1.00652e-16 0)
(0.182375 -3.89329e-17 0)
(0.182375 -3.64078e-17 0)
(0.182375 -8.88188e-17 0)
(0.182375 2.78203e-17 0)
(0.182375 1.18942e-16 0)
(0.182375 -5.59419e-17 0)
(0.182375 -1.3636e-16 0)
(0.182375 -1.53663e-16 0)
(0.182375 4.72379e-17 0)
(0.182375 6.79921e-17 0)
(0.182375 -4.11731e-18 0)
(0.182375 -5.37939e-17 0)
(0.182375 -1.55227e-16 0)
(0.182375 3.93905e-16 0)
(0.182375 4.21079e-17 0)
(0.182375 -3.47885e-16 0)
(0.182375 3.09504e-16 0)
(0.182375 -7.2378e-17 0)
(0.182375 6.43295e-18 0)
(0.182375 -8.55228e-17 0)
(0.182375 -3.0048e-16 0)
(0.182375 5.00641e-16 0)
(0.182375 4.38742e-17 0)
(0.182375 -1.3858e-16 0)
(0.182375 -7.87079e-17 0)
(0.182375 -3.60094e-16 0)
(0.182375 4.69752e-16 0)
(0.182375 6.42681e-17 0)
(0.182375 -1.58466e-16 0)
(0.182375 8.71818e-17 0)
(0.182375 -1.63995e-16 0)
(0.182375 4.64985e-16 0)
(0.182375 2.4974e-17 0)
(0.182375 -1.1886e-16 0)
(0.182375 1.02881e-16 0)
(0.182375 -3.45391e-16 0)
(0.182375 1.03221e-16 0)
(0.182375 1.27374e-17 0)
(0.182375 3.07989e-16 0)
(0.182375 3.23316e-16 0)
(0.182375 -4.27925e-16 0)
(0.182375 9.00506e-17 0)
(0.182375 -1.3224e-16 0)
(0.182375 1.42802e-16 0)
(0.182375 2.22255e-16 0)
(0.182375 -6.45723e-16 0)
(0.182375 7.31984e-17 0)
(0.182375 1.42406e-16 0)
(0.182375 1.87468e-16 0)
(0.182375 5.33258e-17 0)
(0.182375 -4.26887e-16 0)
(0.182375 4.81461e-16 0)
(0.182375 -5.9686e-17 0)
(0.182375 -4.29336e-16 0)
(0.182375 -2.45526e-16 0)
(0.182375 -2.15736e-16 0)
(0.182375 7.27107e-16 0)
(0.182375 -2.47924e-17 0)
(0.182375 -1.74758e-16 0)
(0.182375 1.47433e-16 0)
(0.182375 -3.65942e-16 0)
(0.182375 2.23798e-16 0)
(0.182375 2.73004e-17 0)
(0.182375 -8.63768e-18 0)
(0.182375 4.36243e-18 0)
(0.182375 -2.27406e-16 0)
(0.182375 4.43729e-16 0)
(0.182375 7.8831e-19 0)
(0.182375 -1.11749e-16 0)
(0.182375 -2.85022e-18 0)
(0.182375 -3.68331e-16 0)
(0.182375 2.6094e-16 0)
(0.182375 4.01434e-17 0)
(0.182375 2.02692e-17 0)
(0.182375 2.10271e-17 0)
(0.182375 -3.64738e-16 0)
(0.182375 2.605e-16 0)
(0.182375 3.93087e-19 0)
(0.182375 -1.20655e-17 0)
(0.182375 1.13853e-16 0)
(0.182375 -3.87622e-16 0)
(0.182375 1.66716e-16 0)
(0.182375 2.61619e-17 0)
(0.182375 2.76728e-18 0)
(0.182375 1.12509e-16 0)
(0.182375 -3.36702e-16 0)
(0.182375 2.41132e-16 0)
(0.182375 2.30438e-16 0)
(0.182375 -1.32421e-16 0)
(0.182375 -1.67435e-16 0)
(0.182375 -2.37784e-16 0)
(0.182375 2.73773e-16 0)
(0.182375 7.41087e-17 0)
(0.182375 -1.94603e-16 0)
(0.182375 3.77179e-17 0)
(0.182375 -1.28358e-16 0)
(0.182375 1.35227e-16 0)
(0.182375 2.14836e-16 0)
(0.182375 -1.72233e-16 0)
(0.182375 -1.06031e-16 0)
(0.182375 -1.40353e-16 0)
(0.182375 2.85741e-16 0)
(0.182375 4.1946e-16 0)
(0.182375 3.4068e-17 0)
(0.182375 -3.79421e-16 0)
(0.182375 -1.87353e-16 0)
(0.182375 2.42738e-16 0)
(0.182375 4.95097e-17 0)
(0.182375 4.35354e-17 0)
(0.182375 -2.83511e-16 0)
(0.182375 2.49522e-17 0)
(0.182375 1.71125e-16 0)
(0.182375 -1.83954e-16 0)
(0.182375 1.64727e-16 0)
(0.182375 -1.63756e-17 0)
(0.182375 -1.47881e-16 0)
(0.182375 7.32919e-18 0)
(0.182375 -8.87794e-17 0)
(0.182375 3.28663e-16 0)
(0.182375 7.31474e-17 0)
(0.182375 9.51855e-17 0)
(0.25193 6.94617e-16 0)
(0.25193 2.72735e-16 0)
(0.25193 1.42854e-16 0)
(0.25193 9.68369e-17 0)
(0.25193 8.79483e-17 0)
(0.25193 6.18367e-17 0)
(0.25193 6.11815e-17 0)
(0.25193 1.02061e-16 0)
(0.25193 1.22774e-16 0)
(0.25193 8.14945e-17 0)
(0.25193 3.50271e-17 0)
(0.25193 8.77068e-17 0)
(0.25193 1.45436e-16 0)
(0.25193 7.9366e-17 0)
(0.25193 7.19221e-18 0)
(0.25193 8.46365e-17 0)
(0.25193 9.55652e-17 0)
(0.25193 8.97177e-17 0)
(0.25193 8.07718e-17 0)
(0.25193 8.82626e-17 0)
(0.25193 8.48114e-17 0)
(0.25193 8.99727e-18 0)
(0.25193 -6.79207e-17 0)
(0.25193 -9.14895e-17 0)
(0.25193 -9.24984e-17 0)
(0.25193 -9.59541e-17 0)
(0.25193 -4.33115e-17 0)
(0.25193 -1.61841e-16 0)
(0.25193 -2.44517e-16 0)
(0.25193 -1.45584e-16 0)
(0.25193 1.26481e-17 0)
(0.25193 7.59272e-17 0)
(0.25193 -2.47629e-18 0)
(0.25193 -5.99276e-17 0)
(0.25193 -4.47376e-17 0)
(0.25193 -1.95886e-17 0)
(0.25193 7.9846e-17 0)
(0.25193 2.83487e-18 0)
(0.25193 -1.11032e-16 0)
(0.25193 1.06446e-17 0)
(0.25193 3.21192e-17 0)
(0.25193 4.79028e-17 0)
(0.25193 2.26636e-17 0)
(0.25193 -6.79864e-17 0)
(0.25193 -2.31848e-17 0)
(0.25193 3.6285e-17 0)
(0.25193 4.89546e-19 0)
(0.25193 -8.96439e-17 0)
(0.25193 -1.32823e-16 0)
(0.25193 -1.63596e-16 0)
(0.25193 -1.65153e-16 0)
(0.25193 -5.38689e-17 0)
(0.25193 -6.40844e-17 0)
(0.25193 -8.06079e-17 0)
(0.25193 -2.87982e-17 0)
(0.25193 -1.45572e-16 0)
(0.25193 -8.08159e-17 0)
(0.25193 -5.41225e-17 0)
(0.25193 -3.25694e-17 0)
(0.25193 1.49543e-17 0)
(0.25193 -1.50392e-16 0)
(0.25193 5.64945e-17 0)
(0.25193 2.48507e-17 0)
(0.25193 5.92889e-17 0)
(0.25193 1.80574e-16 0)
(0.25193 -7.85248e-18 0)
(0.25193 1.68421e-16 0)
(0.25193 1.00378e-16 0)
(0.25193 1.19829e-16 0)
(0.25193 1.70386e-16 0)
(0.25193 -3.44516e-17 0)
(0.25193 2.58242e-17 0)
(0.25193 -6.08963e-17 0)
(0.25193 1.76442e-17 0)
(0.25193 8.13231e-17 0)
(0.25193 -1.82246e-16 0)
(0.25193 -1.64837e-16 0)
(0.25193 -5.39474e-17 0)
(0.25193 -1.15144e-16 0)
(0.25193 4.54486e-19 0)
(0.25193 -1.44343e-16 0)
(0.25193 -2.22696e-16 0)
(0.25193 6.28807e-17 0)
(0.25193 1.99543e-16 0)
(0.25193 1.66965e-16 0)
(0.25193 8.83446e-18 0)
(0.25193 5.5548e-17 0)
(0.25193 8.22294e-17 0)
(0.25193 1.16094e-16 0)
(0.25193 2.39307e-16 0)
(0.25193 2.14421e-17 0)
(0.25193 -8.44575e-17 0)
(0.25193 5.79875e-17 0)
(0.25193 1.01636e-16 0)
(0.25193 5.94778e-17 0)
(0.25193 -7.67833e-17 0)
(0.25193 3.78355e-17 0)
(0.25193 2.13685e-17 0)
(0.25193 -1.63718e-17 0)
(0.25193 -9.34653e-18 0)
(0.25193 -8.14889e-17 0)
(0.25193 -7.20696e-17 0)
(0.25193 -1.27223e-16 0)
(0.25193 2.3049e-17 0)
(0.25193 1.77673e-16 0)
(0.25193 1.18583e-16 0)
(0.25193 -1.24857e-16 0)
(0.25193 -8.16463e-17 0)
(0.25193 3.22718e-16 0)
(0.25193 3.30179e-16 0)
(0.25193 -7.44667e-18 0)
(0.25193 -3.78994e-16 0)
(0.25193 5.31087e-17 0)
(0.25193 3.49111e-16 0)
(0.25193 2.18552e-16 0)
(0.25193 -1.1717e-17 0)
(0.25193 -4.11319e-16 0)
(0.25193 -1.40296e-16 0)
(0.25193 3.47097e-16 0)
(0.25193 1.65259e-16 0)
(0.25193 -3.62869e-16 0)
(0.25193 -4.97437e-16 0)
(0.25193 3.47148e-17 0)
(0.25193 4.99313e-16 0)
(0.25193 2.92125e-16 0)
(0.25193 -1.86221e-16 0)
(0.25193 -3.95336e-16 0)
(0.25193 9.68234e-17 0)
(0.25193 4.58663e-16 0)
(0.25193 8.21402e-17 0)
(0.25193 -1.68208e-16 0)
(0.25193 -2.12788e-16 0)
(0.25193 7.23198e-18 0)
(0.25193 2.44409e-16 0)
(0.25193 -1.63957e-17 0)
(0.25193 -2.19131e-16 0)
(0.25193 -3.60415e-16 0)
(0.25193 -1.32036e-16 0)
(0.25193 3.19003e-16 0)
(0.25193 5.83415e-17 0)
(0.25193 -2.29588e-16 0)
(0.25193 -3.20657e-16 0)
(0.25193 5.03584e-17 0)
(0.25193 1.35296e-16 0)
(0.25193 -4.41847e-17 0)
(0.25193 -1.13383e-16 0)
(0.25193 -3.43816e-16 0)
(0.25193 7.06401e-17 0)
(0.25193 7.31455e-17 0)
(0.25193 -6.59616e-17 0)
(0.25193 7.54625e-17 0)
(0.25193 -2.4811e-16 0)
(0.25193 -1.11439e-16 0)
(0.25193 9.37588e-17 0)
(0.25193 1.70078e-16 0)
(0.25193 1.51212e-16 0)
(0.25193 -1.21708e-16 0)
(0.25193 -1.44915e-16 0)
(0.25193 1.51418e-16 0)
(0.25193 2.51597e-16 0)
(0.25193 2.15911e-16 0)
(0.25193 -2.00553e-16 0)
(0.25193 6.41132e-17 0)
(0.25193 3.658e-16 0)
(0.25193 -4.88661e-17 0)
(0.25193 1.44941e-16 0)
(0.25193 1.46783e-16 0)
(0.25193 1.68535e-16 0)
(0.25193 2.64623e-16 0)
(0.25193 1.29656e-16 0)
(0.25193 4.23299e-17 0)
(0.25193 -1.4001e-16 0)
(0.25193 1.30517e-16 0)
(0.25193 3.15808e-16 0)
(0.25193 -1.16711e-17 0)
(0.25193 -1.94931e-16 0)
(0.25193 -2.09143e-16 0)
(0.25193 -1.25774e-17 0)
(0.25193 -7.16202e-18 0)
(0.25193 1.58053e-16 0)
(0.25193 5.20685e-17 0)
(0.25193 -4.77854e-16 0)