/*--------------------------------*- C++ -*----------------------------------*\
| =========                 |                                                 |
| \\      /  F ield         | OpenFOAM: The Open Source CFD Toolbox           |
|  \\    /   O peration     | Version:  2112                                  |
|   \\  /    A nd           | Website:  www.openfoam.com                      |
|    \\/     M anipulation  |                                                 |
\*---------------------------------------------------------------------------*/
FoamFile
{
    version     2.0;
    format      ascii;
    arch        "LSB;label=32;scalar=64";
    class       volVectorField;
    location    "2";
    object      U;
}
// * * * * * * * * * * * * * * * * * * * * * * * * * * * * * * * * * * * * * //

dimensions      [0 1 -1 0 0 0 0];

internalField   nonuniform List<vector> 
25600
(
(0.0381742 6.10637e-16 0)
(0.0381742 8.84307e-17 0)
(0.0381742 4.89228e-17 0)
(0.0381742 1.69914e-17 0)
(0.0381742 1.66841e-17 0)
(0.0381742 1.00949e-17 0)
(0.0381742 3.00364e-18 0)
(0.0381742 6.62977e-18 0)
(0.0381742 7.37199e-18 0)
(0.0381742 3.38105e-18 0)
(0.0381742 6.69437e-18 0)
(0.0381742 -1.04748e-17 0)
(0.0381742 6.47466e-18 0)
(0.0381742 6.63999e-18 0)
(0.0381742 -7.75647e-18 0)
(0.0381742 1.27664e-17 0)
(0.0381742 5.78941e-18 0)
(0.0381742 -5.39295e-19 0)
(0.0381742 -4.56339e-18 0)
(0.0381742 -2.17223e-18 0)
(0.0381742 2.30585e-18 0)
(0.0381742 7.887e-18 0)
(0.0381742 3.38153e-18 0)
(0.0381742 -6.21287e-18 0)
(0.0381742 -1.46083e-17 0)
(0.0381742 2.27134e-18 0)
(0.0381742 2.67739e-17 0)
(0.0381742 6.4879e-19 0)
(0.0381742 -2.09754e-17 0)
(0.0381742 3.5876e-18 0)
(0.0381742 1.30304e-17 0)
(0.0381742 8.42185e-18 0)
(0.0381742 -2.0865e-18 0)
(0.0381742 -1.01959e-17 0)
(0.0381742 1.2081e-19 0)
(0.0381742 -1.97126e-18 0)
(0.0381742 4.2126e-18 0)
(0.0381742 -3.21881e-18 0)
(0.0381742 -5.06791e-18 0)
(0.0381742 5.55144e-18 0)
(0.0381742 -3.75931e-18 0)
(0.0381742 1.33168e-17 0)
(0.0381742 -7.90704e-18 0)
(0.0381742 -1.76301e-17 0)
(0.0381742 2.30605e-17 0)
(0.0381742 -1.5399e-17 0)
(0.0381742 5.21447e-18 0)
(0.0381742 4.25412e-18 0)
(0.0381742 1.06483e-18 0)
(0.0381742 4.76508e-18 0)
(0.0381742 -2.89989e-17 0)
(0.0381742 2.50964e-17 0)
(0.0381742 -8.22162e-20 0)
(0.0381742 -1.41136e-18 0)
(0.0381742 3.05607e-17 0)
(0.0381742 -2.69003e-17 0)
(0.0381742 1.54002e-18 0)
(0.0381742 -1.06816e-17 0)
(0.0381742 1.66918e-19 0)
(0.0381742 4.03814e-17 0)
(0.0381742 -3.41136e-17 0)
(0.0381742 9.41827e-18 0)
(0.0381742 -2.38823e-18 0)
(0.0381742 -3.70647e-18 0)
(0.0381742 1.97023e-17 0)
(0.0381742 -2.15637e-17 0)
(0.0381742 5.38485e-18 0)
(0.0381742 -9.78724e-18 0)
(0.0381742 9.13385e-18 0)
(0.0381742 7.52875e-18 0)
(0.0381742 -7.13602e-18 0)
(0.0381742 1.04221e-18 0)
(0.0381742 -4.48034e-18 0)
(0.0381742 -3.53215e-18 0)
(0.0381742 1.15111e-17 0)
(0.0381742 -5.00187e-19 0)
(0.0381742 -1.87206e-17 0)
(0.0381742 1.38202e-17 0)
(0.0381742 -1.37641e-18 0)
(0.0381742 2.87915e-17 0)
(0.0381742 -2.19233e-17 0)
(0.0381742 -3.19246e-17 0)
(0.0381742 2.41044e-17 0)
(0.0381742 1.20801e-18 0)
(0.0381742 2.53298e-17 0)
(0.0381742 -4.21271e-18 0)
(0.0381742 -3.99672e-17 0)
(0.0381742 -4.4258e-18 0)
(0.0381742 1.59529e-17 0)
(0.0381742 3.62152e-17 0)
(0.0381742 -4.25622e-18 0)
(0.0381742 -4.98572e-17 0)
(0.0381742 -1.88422e-18 0)
(0.0381742 5.10673e-17 0)
(0.0381742 -1.11403e-19 0)
(0.0381742 -5.39045e-17 0)
(0.0381742 6.04702e-18 0)
(0.0381742 -3.71974e-18 0)
(0.0381742 4.36689e-17 0)
(0.0381742 2.7016e-17 0)
(0.0381742 -7.21621e-17 0)
(0.0381742 8.07933e-18 0)
(0.0381742 -8.43641e-18 0)
(0.0381742 3.94927e-17 0)
(0.0381742 5.60615e-18 0)
(0.0381742 -1.20208e-17 0)
(0.0381742 -3.20494e-17 0)
(0.0381742 9.55388e-18 0)
(0.0381742 3.07247e-17 0)
(0.0381742 -1.37956e-17 0)
(0.0381742 3.41165e-17 0)
(0.0381742 -8.84308e-17 0)
(0.0381742 2.07764e-17 0)
(0.0381742 5.48075e-17 0)
(0.0381742 4.69761e-18 0)
(0.0381742 -1.62517e-17 0)
(0.0381742 -5.81108e-17 0)
(0.0381742 3.21304e-17 0)
(0.0381742 3.84608e-17 0)
(0.0381742 1.45597e-17 0)
(0.0381742 -6.6594e-18 0)
(0.0381742 -6.18249e-17 0)
(0.0381742 -1.02229e-17 0)
(0.0381742 6.01566e-17 0)
(0.0381742 1.51735e-17 0)
(0.0381742 -2.37668e-17 0)
(0.0381742 -4.2668e-17 0)
(0.0381742 -1.15517e-18 0)
(0.0381742 6.30326e-17 0)
(0.0381742 -3.05576e-18 0)
(0.0381742 -2.22392e-17 0)
(0.0381742 -3.02469e-17 0)
(0.0381742 2.20412e-17 0)
(0.0381742 3.73833e-17 0)
(0.0381742 -2.22338e-17 0)
(0.0381742 -1.86955e-17 0)
(0.0381742 -1.1611e-17 0)
(0.0381742 3.95779e-17 0)
(0.0381742 2.40313e-17 0)
(0.0381742 -1.80181e-17 0)
(0.0381742 -2.83302e-17 0)
(0.0381742 -1.82332e-17 0)
(0.0381742 4.82089e-17 0)
(0.0381742 1.45317e-17 0)
(0.0381742 -4.59522e-17 0)
(0.0381742 4.40598e-17 0)
(0.0381742 -1.02329e-17 0)
(0.0381742 -3.29922e-17 0)
(0.0381742 3.93887e-19 0)
(0.0381742 -8.00596e-18 0)
(0.0381742 5.52161e-17 0)
(0.0381742 -9.91014e-18 0)
(0.0381742 -4.93649e-17 0)
(0.0381742 1.00119e-17 0)
(0.0381742 2.40839e-17 0)
(0.0381742 2.65041e-17 0)
(0.0381742 -3.0412e-17 0)
(0.0381742 -3.41418e-17 0)
(0.0381742 2.579e-17 0)
(0.0381742 -3.10155e-18 0)
(0.0381742 6.30564e-17 0)
(0.0381742 -6.19986e-17 0)
(0.0381742 -4.7167e-17 0)
(0.0381742 6.38602e-17 0)
(0.0381742 -1.73827e-17 0)
(0.0381742 4.81396e-17 0)
(0.0381742 -4.166e-17 0)
(0.0381742 -1.19633e-17 0)
(0.0381742 9.87331e-18 0)
(0.0381742 -4.53112e-17 0)
(0.0381742 8.52336e-17 0)
(0.0381742 -6.1148e-17 0)
(0.0381742 -1.1559e-18 0)
(0.0381742 1.72085e-17 0)
(0.0381742 -3.98167e-17 0)
(0.0381742 8.69177e-17 0)
(0.0381742 -5.7297e-17 0)
(0.0381742 1.13471e-17 0)
(0.0381742 -1.22976e-17 0)
(0.0381742 -3.76303e-17 0)
(0.0381742 1.096e-16 0)
(0.0381742 -6.90184e-17 0)
(0.0381742 1.16984e-18 0)
(0.0381742 1.70472e-17 0)
(0.0381742 -4.92101e-17 0)
(0.0381742 1.0331e-16 0)
(0.0381742 -5.91833e-17 0)
(0.0381742 -3.86779e-18 0)
(0.0381742 6.8074e-17 0)
(0.0381742 -9.77005e-17 0)
(0.0381742 4.77096e-17 0)
(0.0381742 -3.12126e-18 0)
(0.0381742 -5.75022e-17 0)
(0.0381742 9.95646e-17 0)
(0.0381742 -4.10516e-17 0)
(0.0381742 9.29878e-18 0)
(0.0381742 -4.88567e-17 0)
(0.0381742 -1.51749e-17 0)
(0.0381742 1.38431e-16 0)
(0.0381742 -9.13218e-17 0)
(0.0381742 5.31755e-18 0)
(0.0381742 -5.30295e-17 0)
(0.0381742 -2.16173e-18 0)
(0.0381742 1.47571e-16 0)
(0.0381742 -8.30504e-17 0)
(0.0381742 -4.47476e-17 0)
(0.0381742 -1.40268e-17 0)
(0.0381742 4.77506e-17 0)
(0.0381742 8.82127e-17 0)
(0.0381742 -4.35572e-17 0)
(0.0381742 -8.13567e-17 0)
(0.0381742 -6.52943e-17 0)
(0.0381742 1.65299e-16 0)
(0.0381742 5.65482e-19 0)
(0.0381742 -1.71314e-16 0)
(0.0381742 1.56075e-16 0)
(0.0381742 2.44953e-17 0)
(0.0381742 -7.97326e-17 0)
(0.0381742 -3.61762e-17 0)
(0.0381742 -7.94568e-17 0)
(0.0381742 1.63835e-16 0)
(0.0381742 3.98226e-17 0)
(0.0381742 -8.59926e-17 0)
(0.0381742 -3.16021e-17 0)
(0.0381742 -8.34646e-17 0)
(0.0381742 1.61568e-16 0)
(0.0381742 -6.38474e-19 0)
(0.0381742 -5.06454e-17 0)
(0.0381742 1.45326e-17 0)
(0.0381742 -1.09328e-16 0)
(0.0381742 1.61044e-16 0)
(0.0381742 -1.01391e-17 0)
(0.0381742 -9.70151e-17 0)
(0.0381742 6.32616e-17 0)
(0.0381742 -7.46919e-17 0)
(0.0381742 9.39809e-17 0)
(0.0381742 -7.3752e-18 0)
(0.0381742 -3.25493e-17 0)
(0.0381742 2.76481e-17 0)
(0.0381742 -1.24561e-16 0)
(0.0381742 1.54003e-16 0)
(0.0381742 -1.03479e-17 0)
(0.0381742 -4.41304e-17 0)
(0.0381742 6.6033e-17 0)
(0.0381742 -1.39464e-16 0)
(0.0381742 1.38024e-17 0)
(0.0381742 4.10438e-17 0)
(0.0381742 4.23146e-17 0)
(0.0381742 1.42459e-17 0)
(0.0381742 -1.26973e-16 0)
(0.0381742 8.29869e-17 0)
(0.0381742 -3.94343e-19 0)
(0.0381742 -1.81933e-17 0)
(0.0381742 4.43297e-17 0)
(0.0381742 -1.21435e-16 0)
(0.0381742 1.00618e-16 0)
(0.0381742 -9.71285e-18 0)
(0.0381742 -1.72782e-17 0)
(0.0381742 7.136e-17 0)
(0.0381742 -1.28891e-16 0)
(0.0381742 6.24531e-17 0)
(0.0381742 -1.73273e-18 0)
(0.0381742 1.46652e-18 0)
(0.0381742 5.9807e-17 0)
(0.0381742 -1.13105e-16 0)
(0.0381742 7.07119e-17 0)
(0.0381742 3.27073e-17 0)
(0.0381742 -4.31718e-17 0)
(0.0381742 1.32803e-17 0)
(0.0381742 -8.20983e-17 0)
(0.0381742 6.52726e-17 0)
(0.0381742 3.73713e-17 0)
(0.0381742 -7.05883e-17 0)
(0.0381742 5.37737e-17 0)
(0.0381742 -3.25188e-17 0)
(0.0381742 2.81795e-17 0)
(0.0381742 4.10751e-17 0)
(0.0381742 -9.198e-17 0)
(0.0381742 6.90011e-17 0)
(0.0381742 -3.79773e-17 0)
(0.0381742 1.07938e-17 0)
(0.0381742 3.96918e-17 0)
(0.0381742 -8.68829e-17 0)
(0.0381742 6.20644e-17 0)
(0.0381742 -3.70352e-17 0)
(0.0381742 -2.86524e-17 0)
(0.0381742 9.75951e-17 0)
(0.0381742 -4.825e-17 0)
(0.0381742 -1.27377e-17 0)
(0.0381742 -6.35697e-17 0)
(0.0381742 3.34128e-17 0)
(0.0381742 1.33767e-16 0)
(0.0381742 -7.3749e-18 0)
(0.0381742 -1.21672e-16 0)
(0.0381742 -2.41159e-17 0)
(0.0381742 6.18509e-17 0)
(0.0381742 7.70675e-18 0)
(0.0381742 7.37275e-17 0)
(0.0381742 -1.2837e-16 0)
(0.0381742 -2.12316e-17 0)
(0.0381742 6.09308e-17 0)
(0.0381742 5.04718e-18 0)
(0.0381742 5.5176e-17 0)
(0.0381742 -9.62553e-17 0)
(0.0381742 2.16531e-17 0)
(0.0381742 2.95151e-17 0)
(0.0381742 -5.00433e-17 0)
(0.0381742 9.41492e-17 0)
(0.0381742 -5.84106e-17 0)
(0.0381742 -2.98643e-18 0)
(0.0381742 2.27401e-17 0)
(0.0381742 -6.99599e-17 0)
(0.0381742 1.03922e-16 0)
(0.0381742 -3.30367e-17 0)
(0.0381742 -5.14828e-17 0)
(0.0381742 6.35315e-17 0)
(0.0381742 -8.39749e-18 0)
(0.0381742 8.87191e-17 0)
(0.0381742 1.27758e-17 0)
(0.0381742 3.14778e-17 0)
(0.112604 1.53939e-15 0)
(0.112604 4.11469e-16 0)
(0.112604 2.05586e-16 0)
(0.112604 1.05415e-16 0)
(0.112604 7.39823e-17 0)
(0.112604 4.9711e-17 0)
(0.112604 3.35673e-17 0)
(0.112604 3.02069e-17 0)
(0.112604 2.49311e-17 0)
(0.112604 2.17856e-17 0)
(0.112604 1.22632e-18 0)
(0.112604 -2.45954e-17 0)
(0.112604 1.38908e-17 0)
(0.112604 1.40044e-17 0)
(0.112604 9.17752e-18 0)
(0.112604 4.69589e-17 0)
(0.112604 2.94792e-17 0)
(0.112604 1.15906e-17 0)
(0.112604 -1.08011e-17 0)
(0.112604 -5.40669e-18 0)
(0.112604 2.05502e-17 0)
(0.112604 1.9852e-17 0)
(0.112604 1.88489e-17 0)
(0.112604 -1.42483e-17 0)
(0.112604 -3.37745e-17 0)
(0.112604 -1.732e-18 0)
(0.112604 5.15744e-17 0)
(0.112604 1.74276e-17 0)
(0.112604 -9.35788e-18 0)
(0.112604 5.91765e-18 0)
(0.112604 2.51776e-17 0)
(0.112604 5.07209e-17 0)
(0.112604 -4.23664e-18 0)
(0.112604 -3.62948e-17 0)
(0.112604 -1.08374e-17 0)
(0.112604 -1.36862e-17 0)
(0.112604 3.01789e-17 0)
(0.112604 -2.48545e-17 0)
(0.112604 -4.9385e-17 0)
(0.112604 3.39427e-17 0)
(0.112604 -9.69676e-18 0)
(0.112604 -2.03266e-18 0)
(0.112604 9.1937e-18 0)
(0.112604 -4.08298e-17 0)
(0.112604 1.81562e-17 0)
(0.112604 -1.54194e-17 0)
(0.112604 2.18356e-17 0)
(0.112604 2.32397e-17 0)
(0.112604 8.4373e-18 0)
(0.112604 1.74906e-17 0)
(0.112604 -4.37557e-17 0)
(0.112604 3.49093e-17 0)
(0.112604 9.51563e-18 0)
(0.112604 1.16411e-17 0)
(0.112604 7.5648e-17 0)
(0.112604 -2.32711e-17 0)
(0.112604 2.77781e-18 0)
(0.112604 -5.99986e-18 0)
(0.112604 1.17834e-17 0)
(0.112604 3.85391e-17 0)
(0.112604 -7.7433e-17 0)
(0.112604 4.59816e-17 0)
(0.112604 5.12608e-18 0)
(0.112604 -1.11216e-17 0)
(0.112604 4.18809e-17 0)
(0.112604 -5.69813e-17 0)
(0.112604 1.18533e-17 0)
(0.112604 2.14955e-18 0)
(0.112604 6.8336e-18 0)
(0.112604 5.02295e-17 0)
(0.112604 -2.58813e-17 0)
(0.112604 -2.00141e-17 0)
(0.112604 -3.8241e-17 0)
(0.112604 -2.67464e-17 0)
(0.112604 9.71593e-17 0)
(0.112604 -5.23116e-17 0)
(0.112604 -9.23213e-17 0)
(0.112604 4.3134e-17 0)
(0.112604 -2.23562e-18 0)
(0.112604 5.68143e-17 0)
(0.112604 -1.50217e-17 0)
(0.112604 -1.01925e-16 0)
(0.112604 -9.30877e-18 0)
(0.112604 1.87343e-17 0)
(0.112604 3.86901e-17 0)
(0.112604 -1.17557e-17 0)
(0.112604 -4.92743e-17 0)
(0.112604 -4.29937e-17 0)
(0.112604 3.25373e-17 0)
(0.112604 1.08619e-16 0)
(0.112604 -4.3236e-17 0)
(0.112604 -8.98594e-17 0)
(0.112604 -2.83311e-18 0)
(0.112604 7.9575e-17 0)
(0.112604 2.6583e-19 0)
(0.112604 -1.02241e-16 0)
(0.112604 -2.57741e-17 0)
(0.112604 -2.64898e-17 0)
(0.112604 5.77091e-17 0)
(0.112604 4.30066e-17 0)
(0.112604 -1.01413e-16 0)
(0.112604 3.63382e-17 0)
(0.112604 -5.62389e-17 0)
(0.112604 1.63165e-18 0)
(0.112604 5.35598e-17 0)
(0.112604 1.57545e-17 0)
(0.112604 -9.43759e-17 0)
(0.112604 -3.93429e-17 0)
(0.112604 7.366e-17 0)
(0.112604 4.38987e-17 0)
(0.112604 5.79482e-17 0)
(0.112604 -1.77574e-16 0)
(0.112604 1.28057e-17 0)
(0.112604 1.55831e-16 0)
(0.112604 3.99929e-17 0)
(0.112604 -1.85943e-17 0)
(0.112604 -1.2351e-16 0)
(0.112604 -2.68576e-17 0)
(0.112604 1.30646e-16 0)
(0.112604 5.99614e-17 0)
(0.112604 -5.62304e-17 0)
(0.112604 -1.45343e-16 0)
(0.112604 -4.4135e-17 0)
(0.112604 1.7166e-16 0)
(0.112604 1.08604e-16 0)
(0.112604 -5.14327e-17 0)
(0.112604 -1.57532e-16 0)
(0.112604 8.23883e-18 0)
(0.112604 1.65197e-16 0)
(0.112604 1.93911e-17 0)
(0.112604 -4.65972e-17 0)
(0.112604 -8.51825e-17 0)
(0.112604 2.71853e-17 0)
(0.112604 1.25425e-16 0)
(0.112604 1.88568e-17 0)
(0.112604 1.90975e-17 0)
(0.112604 -9.0751e-17 0)
(0.112604 -2.50849e-17 0)
(0.112604 1.46901e-16 0)
(0.112604 4.91959e-17 0)
(0.112604 -2.63171e-17 0)
(0.112604 -1.10426e-16 0)
(0.112604 -7.57054e-18 0)
(0.112604 8.0597e-17 0)
(0.112604 1.44431e-17 0)
(0.112604 -1.217e-17 0)
(0.112604 -1.09216e-16 0)
(0.112604 3.10735e-17 0)
(0.112604 2.33598e-17 0)
(0.112604 3.66863e-17 0)
(0.112604 9.39897e-17 0)
(0.112604 -1.66079e-16 0)
(0.112604 -1.0587e-16 0)
(0.112604 7.81556e-17 0)
(0.112604 8.00175e-17 0)
(0.112604 4.76085e-17 0)
(0.112604 -8.82141e-17 0)
(0.112604 -9.99946e-17 0)
(0.112604 2.48809e-17 0)
(0.112604 2.67249e-17 0)
(0.112604 1.19886e-16 0)
(0.112604 -1.1976e-16 0)
(0.112604 -2.70392e-17 0)
(0.112604 1.09303e-16 0)
(0.112604 -1.5649e-16 0)
(0.112604 4.12626e-17 0)
(0.112604 -2.0649e-17 0)
(0.112604 -1.22515e-16 0)
(0.112604 1.42868e-16 0)
(0.112604 6.09289e-17 0)
(0.112604 -3.2634e-17 0)
(0.112604 -1.62114e-16 0)
(0.112604 -7.66115e-18 0)
(0.112604 9.10909e-17 0)
(0.112604 -1.82646e-17 0)
(0.112604 -2.00596e-17 0)
(0.112604 -5.03766e-17 0)
(0.112604 1.84985e-16 0)
(0.112604 -7.03065e-17 0)
(0.112604 -5.47928e-17 0)
(0.112604 1.64176e-16 0)
(0.112604 -1.76801e-16 0)
(0.112604 -1.27529e-17 0)
(0.112604 9.62999e-17 0)
(0.112604 -1.53907e-17 0)
(0.112604 1.63826e-16 0)
(0.112604 -1.1214e-16 0)
(0.112604 -1.63954e-17 0)
(0.112604 1.50814e-16 0)
(0.112604 -1.21359e-16 0)
(0.112604 3.66688e-17 0)
(0.112604 -3.11589e-17 0)
(0.112604 -1.04551e-16 0)
(0.112604 1.49881e-16 0)
(0.112604 -6.20195e-18 0)
(0.112604 3.54994e-17 0)
(0.112604 -7.66051e-17 0)
(0.112604 -6.02925e-17 0)
(0.112604 1.86686e-16 0)
(0.112604 -9.63186e-17 0)
(0.112604 1.34546e-18 0)
(0.112604 -8.75778e-17 0)
(0.112604 1.87992e-17 0)
(0.112604 2.46843e-16 0)
(0.112604 -2.63232e-17 0)
(0.112604 -1.25875e-16 0)
(0.112604 -1.26085e-16 0)
(0.112604 1.15513e-16 0)
(0.112604 1.24929e-16 0)
(0.112604 -5.53285e-17 0)
(0.112604 -1.07125e-16 0)
(0.112604 -1.19504e-16 0)
(0.112604 3.13394e-16 0)
(0.112604 1.67779e-17 0)
(0.112604 -3.15745e-16 0)
(0.112604 2.11393e-16 0)
(0.112604 -2.09986e-17 0)
(0.112604 -1.11303e-16 0)
(0.112604 -7.11331e-17 0)
(0.112604 -1.86806e-16 0)
(0.112604 3.12435e-16 0)
(0.112604 9.27884e-17 0)
(0.112604 -9.80107e-17 0)
(0.112604 -5.04581e-17 0)
(0.112604 -1.99349e-16 0)
(0.112604 2.9195e-16 0)
(0.112604 2.81562e-17 0)
(0.112604 -8.23138e-17 0)
(0.112604 9.10357e-17 0)
(0.112604 -1.51997e-16 0)
(0.112604 1.05336e-16 0)
(0.112604 -7.1839e-17 0)
(0.112604 -1.25273e-17 0)
(0.112604 9.03425e-17 0)
(0.112604 -2.39842e-16 0)
(0.112604 5.71061e-17 0)
(0.112604 2.62822e-17 0)
(0.112604 2.69804e-17 0)
(0.112604 1.01284e-16 0)
(0.112604 -2.02784e-16 0)
(0.112604 1.0451e-16 0)
(0.112604 -5.01412e-17 0)
(0.112604 1.86682e-17 0)
(0.112604 1.21664e-16 0)
(0.112604 -3.43962e-16 0)
(0.112604 9.23325e-18 0)
(0.112604 5.88408e-17 0)
(0.112604 7.40976e-17 0)
(0.112604 1.9222e-17 0)
(0.112604 -2.54916e-16 0)
(0.112604 2.27491e-16 0)
(0.112604 2.88737e-17 0)
(0.112604 -1.12613e-16 0)
(0.112604 -2.04073e-17 0)
(0.112604 -2.07461e-16 0)
(0.112604 3.01611e-16 0)
(0.112604 1.38199e-17 0)
(0.112604 -3.50702e-17 0)
(0.112604 1.42226e-16 0)
(0.112604 -2.52611e-16 0)
(0.112604 1.09329e-16 0)
(0.112604 6.22421e-17 0)
(0.112604 -2.71377e-17 0)
(0.112604 3.66601e-17 0)
(0.112604 -1.53048e-16 0)
(0.112604 1.78812e-16 0)
(0.112604 4.32403e-17 0)
(0.112604 -1.41285e-17 0)
(0.112604 -3.33117e-17 0)
(0.112604 -2.06415e-16 0)
(0.112604 1.22233e-16 0)
(0.112604 2.44484e-17 0)
(0.112604 1.02579e-16 0)
(0.112604 -4.69077e-18 0)
(0.112604 -1.85108e-16 0)
(0.112604 1.48217e-16 0)
(0.112604 1.06418e-17 0)
(0.112604 -4.55166e-17 0)
(0.112604 1.25114e-16 0)
(0.112604 -1.58024e-16 0)
(0.112604 4.22752e-17 0)
(0.112604 6.19642e-17 0)
(0.112604 -6.51703e-18 0)
(0.112604 -1.04219e-17 0)
(0.112604 -2.18522e-16 0)
(0.112604 4.7989e-17 0)
(0.112604 1.42147e-16 0)
(0.112604 6.3182e-17 0)
(0.112604 -1.7185e-16 0)
(0.112604 -1.58198e-16 0)
(0.112604 2.20936e-16 0)
(0.112604 -1.76867e-18 0)
(0.112604 -3.32209e-17 0)
(0.112604 -1.97313e-17 0)
(0.112604 -7.20646e-17 0)
(0.112604 2.1624e-16 0)
(0.112604 -3.9217e-17 0)
(0.112604 -6.45789e-17 0)
(0.112604 -9.89231e-17 0)
(0.112604 -6.4793e-17 0)
(0.112604 2.29213e-16 0)
(0.112604 -4.72518e-18 0)
(0.112604 6.82007e-17 0)
(0.112604 -1.23374e-16 0)
(0.112604 -2.49156e-16 0)
(0.112604 1.00116e-16 0)
(0.112604 6.74274e-17 0)
(0.112604 1.47911e-16 0)
(0.112604 -1.21984e-16 0)
(0.112604 -3.60467e-18 0)
(0.112604 9.42465e-17 0)
(0.112604 -1.18116e-16 0)
(0.112604 1.64406e-16 0)
(0.112604 3.04407e-18 0)
(0.112604 -5.9388e-17 0)
(0.112604 1.55453e-16 0)
(0.112604 -4.83947e-17 0)
(0.112604 2.06522e-16 0)
(0.112604 2.37574e-16 0)
(0.112604 3.20128e-16 0)
(0.185099 7.87377e-16 0)
(0.185099 4.3078e-16 0)
(0.185099 2.64611e-16 0)
(0.185099 1.64295e-16 0)
(0.185099 1.14412e-16 0)
(0.185099 9.0064e-17 0)
(0.185099 6.16194e-17 0)
(0.185099 4.24899e-17 0)
(0.185099 2.9302e-17 0)
(0.185099 3.45093e-17 0)
(0.185099 -5.10413e-18 0)
(0.185099 -2.16815e-17 0)
(0.185099 2.2656e-17 0)
(0.185099 2.66405e-17 0)
(0.185099 3.15548e-17 0)
(0.185099 1.0061e-16 0)
(0.185099 6.70889e-17 0)
(0.185099 1.76331e-17 0)
(0.185099 8.02016e-18 0)
(0.185099 1.19318e-17 0)
(0.185099 3.9698e-17 0)
(0.185099 4.53777e-17 0)
(0.185099 1.88635e-17 0)
(0.185099 -1.33419e-17 0)
(0.185099 -4.79276e-17 0)
(0.185099 -8.30845e-18 0)
(0.185099 6.6479e-17 0)
(0.185099 4.5585e-17 0)
(0.185099 2.34578e-17 0)
(0.185099 2.35413e-18 0)
(0.185099 5.66691e-17 0)
(0.185099 1.09194e-16 0)
(0.185099 -8.15328e-19 0)
(0.185099 -7.99135e-17 0)
(0.185099 -5.19241e-17 0)
(0.185099 -5.06428e-17 0)
(0.185099 3.75718e-17 0)
(0.185099 -1.33254e-17 0)
(0.185099 -7.66809e-17 0)
(0.185099 2.22109e-17 0)
(0.185099 -4.74267e-18 0)
(0.185099 1.0598e-18 0)
(0.185099 1.84789e-17 0)
(0.185099 -6.22231e-17 0)
(0.185099 -3.39791e-17 0)
(0.185099 1.31517e-17 0)
(0.185099 3.75815e-17 0)
(0.185099 5.87633e-17 0)
(0.185099 2.55558e-17 0)
(0.185099 2.25378e-17 0)
(0.185099 -1.72096e-17 0)
(0.185099 2.83566e-17 0)
(0.185099 2.98127e-17 0)
(0.185099 3.56362e-17 0)
(0.185099 1.16408e-16 0)
(0.185099 9.28291e-18 0)
(0.185099 1.99686e-17 0)
(0.185099 8.67719e-18 0)
(0.185099 1.23621e-17 0)
(0.185099 4.55659e-17 0)
(0.185099 -1.35157e-16 0)
(0.185099 9.10299e-17 0)
(0.185099 2.00239e-17 0)
(0.185099 -3.20888e-17 0)
(0.185099 9.50761e-17 0)
(0.185099 -9.13322e-17 0)
(0.185099 5.02002e-18 0)
(0.185099 -1.19183e-17 0)
(0.185099 2.15211e-17 0)
(0.185099 8.83729e-17 0)
(0.185099 -4.32263e-17 0)
(0.185099 -6.1686e-17 0)
(0.185099 -7.97724e-17 0)
(0.185099 5.63169e-18 0)
(0.185099 1.02745e-16 0)
(0.185099 -9.39547e-17 0)
(0.185099 -1.38858e-16 0)
(0.185099 3.26492e-17 0)
(0.185099 -1.31002e-17 0)
(0.185099 5.96262e-17 0)
(0.185099 -3.08647e-17 0)
(0.185099 -1.46809e-16 0)
(0.185099 -2.0871e-17 0)
(0.185099 -3.40088e-18 0)
(0.185099 2.76776e-17 0)
(0.185099 -2.03184e-17 0)
(0.185099 -2.86978e-18 0)
(0.185099 -6.39578e-17 0)
(0.185099 -4.26576e-17 0)
(0.185099 1.49077e-16 0)
(0.185099 -5.49611e-17 0)
(0.185099 -1.00772e-16 0)
(0.185099 1.141e-17 0)
(0.185099 3.51337e-17 0)
(0.185099 -1.30525e-18 0)
(0.185099 -1.13954e-16 0)
(0.185099 -7.5758e-17 0)
(0.185099 -5.37304e-17 0)
(0.185099 1.72432e-17 0)
(0.185099 2.97481e-17 0)
(0.185099 -5.32471e-17 0)
(0.185099 6.22641e-18 0)
(0.185099 -8.24693e-17 0)
(0.185099 -3.53028e-17 0)
(0.185099 6.92626e-17 0)
(0.185099 8.69091e-17 0)
(0.185099 -1.52806e-16 0)
(0.185099 -1.3969e-16 0)
(0.185099 1.15927e-16 0)
(0.185099 1.58577e-16 0)
(0.185099 6.03955e-17 0)
(0.185099 -2.7254e-16 0)
(0.185099 1.47943e-18 0)
(0.185099 2.3179e-16 0)
(0.185099 1.35173e-16 0)
(0.185099 8.75861e-18 0)
(0.185099 -2.51781e-16 0)
(0.185099 -1.14978e-16 0)
(0.185099 2.98327e-16 0)
(0.185099 1.8831e-16 0)
(0.185099 -1.79837e-16 0)
(0.185099 -2.87762e-16 0)
(0.185099 -8.16427e-17 0)
(0.185099 3.23466e-16 0)
(0.185099 2.87906e-16 0)
(0.185099 -9.06206e-17 0)
(0.185099 -3.80345e-16 0)
(0.185099 4.48737e-17 0)
(0.185099 3.33415e-16 0)
(0.185099 5.53196e-17 0)
(0.185099 -5.17994e-17 0)
(0.185099 -1.84704e-16 0)
(0.185099 3.31738e-17 0)
(0.185099 2.76981e-16 0)
(0.185099 8.20119e-17 0)
(0.185099 -2.07321e-17 0)
(0.185099 -1.53806e-16 0)
(0.185099 1.00402e-17 0)
(0.185099 2.83637e-16 0)
(0.185099 9.28366e-17 0)
(0.185099 -1.21854e-16 0)
(0.185099 -1.71851e-16 0)
(0.185099 4.66192e-17 0)
(0.185099 1.09284e-16 0)
(0.185099 -5.50439e-17 0)
(0.185099 -3.65167e-17 0)
(0.185099 -1.0687e-16 0)
(0.185099 8.36846e-17 0)
(0.185099 5.61313e-17 0)
(0.185099 -6.08976e-17 0)
(0.185099 1.22957e-16 0)
(0.185099 -1.30045e-16 0)
(0.185099 -1.68492e-16 0)
(0.185099 4.2936e-17 0)
(0.185099 1.12543e-16 0)
(0.185099 8.94465e-17 0)
(0.185099 -1.26979e-16 0)
(0.185099 -1.99554e-16 0)
(0.185099 -2.62459e-18 0)
(0.185099 8.06384e-17 0)
(0.185099 1.65744e-16 0)
(0.185099 -1.85838e-16 0)
(0.185099 -1.12665e-16 0)
(0.185099 1.52896e-16 0)
(0.185099 -1.14954e-16 0)
(0.185099 -3.26789e-17 0)
(0.185099 -4.15746e-17 0)
(0.185099 -5.06651e-17 0)
(0.185099 8.01959e-17 0)
(0.185099 2.61814e-17 0)
(0.185099 -8.03802e-17 0)
(0.185099 -2.40777e-16 0)
(0.185099 -1.83101e-17 0)
(0.185099 1.92154e-16 0)
(0.185099 1.13249e-16 0)
(0.185099 -9.694e-17 0)
(0.185099 -1.37518e-16 0)
(0.185099 9.91235e-17 0)
(0.185099 -2.08716e-17 0)
(0.185099 1.42839e-16 0)
(0.185099 1.19425e-16 0)
(0.185099 -3.40229e-16 0)
(0.185099 -2.71006e-17 0)
(0.185099 2.29447e-16 0)
(0.185099 1.03185e-16 0)
(0.185099 1.75885e-16 0)
(0.185099 -1.56653e-16 0)
(0.185099 -6.17981e-17 0)
(0.185099 2.18814e-16 0)
(0.185099 -3.40816e-17 0)
(0.185099 -3.74468e-17 0)
(0.185099 -7.31334e-17 0)
(0.185099 -1.14125e-16 0)
(0.185099 9.96656e-17 0)
(0.185099 9.0587e-17 0)
(0.185099 7.75936e-17 0)
(0.185099 -6.49782e-17 0)
(0.185099 -1.04759e-16 0)
(0.185099 8.91965e-17 0)
(0.185099 9.49816e-18 0)
(0.185099 1.72744e-17 0)
(0.185099 -6.82724e-17 0)
(0.185099 4.44083e-17 0)
(0.185099 1.93563e-16 0)
(0.185099 4.74558e-17 0)
(0.185099 -4.97895e-17 0)
(0.185099 -1.42543e-16 0)
(0.185099 1.64992e-17 0)
(0.185099 5.94432e-17 0)
(0.185099 -1.71809e-17 0)
(0.185099 -3.13736e-17 0)
(0.185099 -1.67039e-16 0)
(0.185099 4.0382e-16 0)
(0.185099 5.32258e-17 0)
(0.185099 -4.08202e-16 0)
(0.185099 1.86081e-16 0)
(0.185099 -1.87605e-16 0)
(0.185099 -7.31711e-17 0)
(0.185099 -9.36408e-17 0)
(0.185099 -3.19102e-16 0)
(0.185099 4.75411e-16 0)
(0.185099 1.04243e-16 0)
(0.185099 -4.43568e-17 0)
(0.185099 -2.17207e-17 0)
(0.185099 -3.5671e-16 0)
(0.185099 4.22255e-16 0)
(0.185099 6.97813e-17 0)
(0.185099 -9.23135e-17 0)
(0.185099 4.62429e-17 0)
(0.185099 -3.04338e-16 0)
(0.185099 3.22278e-16 0)
(0.185099 -4.24543e-17 0)
(0.185099 -1.67963e-16 0)
(0.185099 6.86553e-17 0)
(0.185099 -3.45895e-16 0)
(0.185099 4.92605e-17 0)
(0.185099 -9.13549e-17 0)
(0.185099 1.83059e-16 0)
(0.185099 2.72715e-16 0)
(0.185099 -4.17376e-16 0)
(0.185099 1.0523e-16 0)
(0.185099 -1.31703e-16 0)
(0.185099 8.6772e-17 0)
(0.185099 1.91567e-16 0)
(0.185099 -6.76834e-16 0)
(0.185099 3.06851e-17 0)
(0.185099 7.6815e-17 0)
(0.185099 1.12627e-16 0)
(0.185099 2.04723e-17 0)
(0.185099 -4.12952e-16 0)
(0.185099 5.13625e-16 0)
(0.185099 6.42432e-17 0)
(0.185099 -3.10565e-16 0)
(0.185099 -2.16681e-16 0)
(0.185099 -2.78464e-16 0)
(0.185099 7.1447e-16 0)
(0.185099 2.96486e-17 0)
(0.185099 -1.1507e-16 0)
(0.185099 2.08482e-16 0)
(0.185099 -3.61359e-16 0)
(0.185099 2.30439e-16 0)
(0.185099 4.31608e-17 0)
(0.185099 9.29106e-18 0)
(0.185099 2.85567e-17 0)
(0.185099 -2.85632e-16 0)
(0.185099 4.05517e-16 0)
(0.185099 1.87117e-17 0)
(0.185099 -6.83383e-17 0)
(0.185099 4.24365e-17 0)
(0.185099 -3.81928e-16 0)
(0.185099 1.90377e-16 0)
(0.185099 5.42354e-17 0)
(0.185099 1.0659e-16 0)
(0.185099 1.03548e-16 0)
(0.185099 -3.40421e-16 0)
(0.185099 2.30472e-16 0)
(0.185099 3.79415e-17 0)
(0.185099 6.94988e-18 0)
(0.185099 1.53536e-16 0)
(0.185099 -3.81408e-16 0)
(0.185099 1.35081e-16 0)
(0.185099 2.33996e-17 0)
(0.185099 -1.94446e-17 0)
(0.185099 9.32908e-17 0)
(0.185099 -4.22237e-16 0)
(0.185099 1.35284e-16 0)
(0.185099 2.17124e-16 0)
(0.185099 -1.08535e-16 0)
(0.185099 -1.43641e-16 0)
(0.185099 -2.62794e-16 0)
(0.185099 2.79086e-16 0)
(0.185099 1.49003e-16 0)
(0.185099 -1.30596e-16 0)
(0.185099 8.91905e-17 0)
(0.185099 -1.47846e-16 0)
(0.185099 8.22011e-17 0)
(0.185099 2.15204e-16 0)
(0.185099 -1.62155e-16 0)
(0.185099 -1.20765e-16 0)
(0.185099 -1.95669e-16 0)
(0.185099 1.69814e-16 0)
(0.185099 3.32139e-16 0)
(0.185099 1.63417e-17 0)
(0.185099 -4.0807e-16 0)
(0.185099 -2.25575e-16 0)
(0.185099 2.26656e-16 0)
(0.185099 7.34604e-17 0)
(0.185099 1.33203e-16 0)
(0.185099 -2.23309e-16 0)
(0.185099 4.2466e-17 0)
(0.185099 1.91237e-16 0)
(0.185099 -1.4846e-16 0)
(0.185099 1.94862e-16 0)
(0.185099 4.33383e-17 0)
(0.185099 -2.63971e-17 0)
(0.185099 1.04642e-16 0)
(0.185099 -3.48607e-17 0)
(0.185099 4.28904e-16 0)
(0.185099 2.84061e-16 0)
(0.185099 3.03002e-16 0)
(0.255644 6.36167e-16 0)
(0.255644 4.50641e-16 0)
(0.255644 3.06018e-16 0)
(0.255644 2.1924e-16 0)
(0.255644 1.70974e-16 0)
(0.255644 1.34519e-16 0)
(0.255644 7.70658e-17 0)
(0.255644 7.06344e-17 0)
(0.255644 5.71387e-17 0)
(0.255644 2.29084e-17 0)
(0.255644 -1.08774e-17 0)
(0.255644 -1.84769e-17 0)
(0.255644 4.51227e-17 0)
(0.255644 6.43634e-17 0)
(0.255644 5.75487e-17 0)
(0.255644 1.39373e-16 0)
(0.255644 1.07159e-16 0)
(0.255644 5.13506e-17 0)
(0.255644 4.62702e-17 0)
(0.255644 4.76817e-17 0)
(0.255644 7.43941e-17 0)
(0.255644 9.86943e-17 0)
(0.255644 2.84127e-17 0)
(0.255644 -3.07186e-17 0)
(0.255644 -8.43871e-17 0)
(0.255644 -1.09668e-17 0)
(0.255644 1.19014e-16 0)
(0.255644 8.77159e-17 0)
(0.255644 3.90374e-17 0)
(0.255644 2.72721e-17 0)
(0.255644 7.95089e-17 0)
(0.255644 1.32476e-16 0)
(0.255644 2.18299e-17 0)
(0.255644 -1.0573e-16 0)
(0.255644 -1.14731e-16 0)
(0.255644 -9.65231e-17 0)
(0.255644 3.74617e-17 0)
(0.255644 2.85559e-18 0)
(0.255644 -1.18986e-16 0)
(0.255644 1.66651e-17 0)
(0.255644 7.38097e-18 0)
(0.255644 9.41863e-18 0)
(0.255644 2.0361e-18 0)
(0.255644 -8.2377e-17 0)
(0.255644 -4.63347e-17 0)
(0.255644 4.02419e-18 0)
(0.255644 6.8678e-17 0)
(0.255644 9.02759e-17 0)
(0.255644 4.92637e-17 0)
(0.255644 2.61015e-17 0)
(0.255644 -1.14998e-17 0)
(0.255644 7.18171e-17 0)
(0.255644 7.69489e-17 0)
(0.255644 7.16747e-17 0)
(0.255644 1.61066e-16 0)
(0.255644 2.93896e-17 0)
(0.255644 5.21399e-17 0)
(0.255644 1.3104e-17 0)
(0.255644 1.08104e-17 0)
(0.255644 4.78173e-17 0)
(0.255644 -1.79306e-16 0)
(0.255644 7.12067e-17 0)
(0.255644 6.53056e-17 0)
(0.255644 -1.64575e-17 0)
(0.255644 8.19821e-17 0)
(0.255644 -1.01965e-16 0)
(0.255644 4.22833e-17 0)
(0.255644 -2.60855e-17 0)
(0.255644 1.75674e-17 0)
(0.255644 1.37985e-16 0)
(0.255644 -9.62329e-17 0)
(0.255644 -1.2258e-16 0)
(0.255644 -1.2404e-16 0)
(0.255644 -3.69924e-18 0)
(0.255644 1.44911e-16 0)
(0.255644 -1.32037e-16 0)
(0.255644 -1.52706e-16 0)
(0.255644 -1.7857e-17 0)
(0.255644 -4.42155e-17 0)
(0.255644 8.96166e-17 0)
(0.255644 -5.14471e-17 0)
(0.255644 -2.15635e-16 0)
(0.255644 -5.56468e-17 0)
(0.255644 -1.3712e-17 0)
(0.255644 3.5402e-17 0)
(0.255644 -6.47555e-17 0)
(0.255644 -1.32144e-17 0)
(0.255644 -3.34497e-17 0)
(0.255644 -6.05847e-17 0)
(0.255644 1.36119e-16 0)
(0.255644 -3.48275e-17 0)
(0.255644 -1.23976e-16 0)
(0.255644 -3.80395e-17 0)
(0.255644 1.48942e-17 0)
(0.255644 3.12088e-18 0)
(0.255644 -2.06578e-16 0)
(0.255644 -1.18874e-16 0)
(0.255644 -8.25342e-17 0)
(0.255644 -1.0699e-17 0)
(0.255644 4.67786e-17 0)
(0.255644 -4.7033e-17 0)
(0.255644 -1.03502e-17 0)
(0.255644 -1.48581e-16 0)
(0.255644 -7.44283e-17 0)
(0.255644 1.47145e-16 0)
(0.255644 1.07789e-16 0)
(0.255644 -2.25466e-16 0)
(0.255644 -2.20604e-16 0)
(0.255644 1.94351e-16 0)
(0.255644 2.55502e-16 0)
(0.255644 4.80322e-17 0)
(0.255644 -3.57087e-16 0)
(0.255644 8.44052e-19 0)
(0.255644 3.28277e-16 0)
(0.255644 2.40385e-16 0)
(0.255644 5.08335e-17 0)
(0.255644 -3.9093e-16 0)
(0.255644 -1.75107e-16 0)
(0.255644 3.96706e-16 0)
(0.255644 3.06298e-16 0)
(0.255644 -2.50311e-16 0)
(0.255644 -4.39202e-16 0)
(0.255644 -6.06738e-17 0)
(0.255644 4.29587e-16 0)
(0.255644 3.3934e-16 0)
(0.255644 -8.35791e-17 0)
(0.255644 -4.41755e-16 0)
(0.255644 2.15672e-17 0)
(0.255644 4.80161e-16 0)
(0.255644 1.04208e-16 0)
(0.255644 -1.03743e-16 0)
(0.255644 -1.72791e-16 0)
(0.255644 -4.8335e-18 0)
(0.255644 3.60303e-16 0)
(0.255644 1.99794e-16 0)
(0.255644 -6.68118e-18 0)
(0.255644 -2.35279e-16 0)
(0.255644 -1.06192e-17 0)
(0.255644 4.44026e-16 0)
(0.255644 1.67512e-16 0)
(0.255644 -1.81061e-16 0)
(0.255644 -2.96583e-16 0)
(0.255644 8.61788e-17 0)
(0.255644 1.38211e-16 0)
(0.255644 -4.2586e-17 0)
(0.255644 -2.08748e-18 0)
(0.255644 -2.67947e-16 0)
(0.255644 8.6066e-17 0)
(0.255644 1.33111e-16 0)
(0.255644 -2.1714e-17 0)
(0.255644 9.68655e-17 0)
(0.255644 -2.69171e-16 0)
(0.255644 -1.37435e-16 0)
(0.255644 9.97269e-17 0)
(0.255644 1.23907e-16 0)
(0.255644 7.45483e-17 0)
(0.255644 -2.28557e-16 0)
(0.255644 -2.6133e-16 0)
(0.255644 3.80312e-17 0)
(0.255644 1.21399e-16 0)
(0.255644 1.48897e-16 0)
(0.255644 -2.94644e-16 0)
(0.255644 -9.4493e-17 0)
(0.255644 2.15835e-16 0)
(0.255644 -2.14678e-16 0)
(0.255644 -6.31463e-17 0)
(0.255644 -6.11667e-17 0)
(0.255644 -5.62762e-17 0)
(0.255644 9.83679e-17 0)
(0.255644 3.82062e-17 0)
(0.255644 -1.35759e-16 0)
(0.255644 -3.90725e-16 0)
(0.255644 -5.56178e-17 0)
(0.255644 3.50086e-16 0)
(0.255644 1.2259e-16 0)