/*--------------------------------*- C++ -*----------------------------------*\
| =========                 |                                                 |
| \\      /  F ield         | OpenFOAM: The Open Source CFD Toolbox           |
|  \\    /   O peration     | Version:  2112                                  |
|   \\  /    A nd           | Website:  www.openfoam.com                      |
|    \\/     M anipulation  |                                                 |
\*---------------------------------------------------------------------------*/
FoamFile
{
    version     2.0;
    format      ascii;
    arch        "LSB;label=32;scalar=64";
    class       volScalarField;
    location    "19";
    object      p;
}
// * * * * * * * * * * * * * * * * * * * * * * * * * * * * * * * * * * * * * //

dimensions      [0 2 -2 0 0 0 0];

internalField   nonuniform List<scalar> 
16641
(
-3.36589e-09
7.1553e-06
1.15477e-05
1.15618e-05
5.82556e-06
-6.1831e-06
-2.43952e-05
-4.84846e-05
-7.80255e-05
-0.000112577
-0.000151725
-0.000195103
-0.000242401
-0.000293365
-0.000347797
-0.000405552
-0.000466525
-0.000530648
-0.000597887
-0.000668223
-0.000741659
-0.000818205
-0.000897877
-0.000980691
-0.00106665
-0.00115576
-0.00124798
-0.00134329
-0.00144161
-0.00154284
-0.00164683
-0.00175342
-0.00186236
-0.00197339
-0.00208616
-0.00220028
-0.00231528
-0.00243065
-0.00254577
-0.00265999
-0.00277256
-0.00288266
-0.00298943
-0.00309192
-0.00318912
-0.00327998
-0.0033634
-0.00343826
-0.0035034
-0.00355767
-0.00359995
-0.00362912
-0.00364415
-0.00364405
-0.00362796
-0.00359513
-0.00354497
-0.00347705
-0.00339115
-0.00328725
-0.00316559
-0.00302665
-0.00287119
-0.00270026
-0.00251518
-0.00231756
-0.00210925
-0.00189249
-0.00166965
-0.00144337
-0.00121649
-0.000991982
-0.000772962
-0.000562591
-0.000364043
-0.000180446
-1.48178e-05
0.000129988
0.000251348
0.00034692
0.000414702
0.000453075
0.000460847
0.000437279
0.000382109
0.000295557
0.00017833
3.16028e-05
-0.000142999
-0.000343506
-0.00056746
-0.000812226
-0.00107488
-0.00135232
-0.00164134
-0.0019387
-0.00224118
-0.00254567
-0.00284919
-0.00314898
-0.00344251
-0.00372752
-0.00400203
-0.00426439
-0.00451325
-0.00474757
-0.00496658
-0.0051698
-0.005357
-0.00552816
-0.00568344
-0.00582318
-0.00594781
-0.00605783
-0.00615383
-0.00623638
-0.00630604
-0.00636334
-0.00640874
-0.00644268
-0.00646553
-0.00647769
-0.00647963
-0.00647207
-0.00645616
-0.0064339
-0.00640854
-0.00638492
-0.0063704
-7.45645e-06
-3.57251e-07
2.39673e-06
6.08108e-07
-6.15568e-06
-1.8325e-05
-3.59634e-05
-5.89012e-05
-8.68645e-05
-0.000119539
-0.000156607
-0.000197772
-0.00024277
-0.00029138
-0.00034342
-0.000398747
-0.000457256
-0.000518874
-0.000583553
-0.000651266
-0.000722002
-0.00079576
-0.000872543
-0.000952357
-0.0010352
-0.00112106
-0.00120991
-0.00130172
-0.0013964
-0.00149387
-0.00159399
-0.00169659
-0.00180146
-0.00190833
-0.0020169
-0.00212679
-0.00223757
-0.00234875
-0.00245978
-0.00257001
-0.00267877
-0.00278528
-0.00288873
-0.00298822
-0.00308281
-0.00317149
-0.00325324
-0.00332698
-0.00339162
-0.00344607
-0.00348923
-0.00352005
-0.00353753
-0.00354073
-0.0035288
-0.00350103
-0.00345681
-0.00339574
-0.00331757
-0.00322227
-0.00311005
-0.00298134
-0.00283685
-0.00267756
-0.00250471
-0.00231987
-0.00212473
-0.0019214
-0.00171218
-0.00149959
-0.00128632
-0.00107524
-0.000869299
-0.00067153
-0.00048497
-0.000312612
-0.000157345
-2.18995e-05
9.12127e-05
0.000179753
0.000241806
0.000275829
0.000280685
0.000255674
0.000200553
0.000115542
1.32261e-06
-0.000140975
-0.00030979
-0.000503181
-0.000718933
-0.000954382
-0.0012068
-0.00147324
-0.00175062
-0.00203588
-0.00232597
-0.00261792
-0.00290893
-0.00319638
-0.00347788
-0.00375129
-0.00401477
-0.00426674
-0.00450593
-0.00473136
-0.0049423
-0.00513831
-0.00531914
-0.00548478
-0.00563536
-0.00577119
-0.00589266
-0.00600025
-0.0060945
-0.00617595
-0.00624515
-0.00630264
-0.00634892
-0.00638447
-0.00640976
-0.0064253
-0.0064317
-0.00642974
-0.00642058
-0.0064059
-0.0063882
-0.00637048
-0.0063559
-1.25152e-05
-3.59461e-06
-7.96198e-07
-3.13717e-06
-1.02728e-05
-2.24659e-05
-3.97536e-05
-6.19903e-05
-8.8955e-05
-0.000120391
-0.000156034
-0.000195625
-0.000238936
-0.000285766
-0.00033595
-0.000389354
-0.000445876
-0.000505442
-0.000568002
-0.000633526
-0.000701998
-0.000773414
-0.000847774
-0.000925078
-0.00100532
-0.0010885
-0.00117459
-0.00126356
-0.00135532
-0.00144981
-0.00154691
-0.00164645
-0.00174824
-0.00185204
-0.00195756
-0.00206446
-0.00217233
-0.00228072
-0.0023891
-0.00249689
-0.00260342
-0.00270797
-0.00280976
-0.00290794
-0.0030016
-0.00308978
-0.00317149
-0.00324567
-0.00331128
-0.00336724
-0.00341248
-0.00344597
-0.0034667
-0.00347375
-0.00346627
-0.00344352
-0.0034049
-0.00334996
-0.00327843
-0.00319024
-0.00308556
-0.00296477
-0.00282852
-0.00267774
-0.00251362
-0.0023376
-0.00215135
-0.00195694
-0.00175657
-0.00155268
-0.0013479
-0.00114501
-0.000946927
-0.000756599
-0.000577008
-0.00041109
-0.000261684
-0.000131473
-2.29275e-05
6.17491e-05
0.000120674
0.000152326
0.000155589
0.000129773
7.46414e-05
-9.58661e-06
-0.000122237
-0.000262195
-0.000427927
-0.000617521
-0.000828746
-0.00105909
-0.00130579
-0.00156597
-0.00183664
-0.00211479
-0.00239745
-0.00268173
-0.00296492
-0.00324447
-0.00351808
-0.0037837
-0.00403955
-0.00428414
-0.00451626
-0.00473499
-0.00493965
-0.00512984
-0.00530535
-0.00546617
-0.00561248
-0.00574457
-0.00586284
-0.00596778
-0.00605992
-0.0061398
-0.00620799
-0.00626503
-0.00631145
-0.00634774
-0.0063744
-0.00639196
-0.00640101
-0.00640226
-0.00639664
-0.00638547
-0.00637053
-0.00635283
-0.00633216
-1.29606e-05
-2.18355e-06
1.09638e-06
-1.3416e-06
-8.61835e-06
-2.08225e-05
-3.7912e-05
-5.97103e-05
-8.59998e-05
-0.000116546
-0.00015111
-0.000189461
-0.000231391
-0.000276724
-0.000325301
-0.000377004
-0.000431738
-0.000489433
-0.000550042
-0.000613537
-0.000679904
-0.00074914
-0.000821247
-0.000896228
-0.000974087
-0.00105482
-0.00113842
-0.00122484
-0.00131405
-0.00140597
-0.00150049
-0.00159749
-0.00169679
-0.00179817
-0.00190138
-0.0020061
-0.00211196
-0.00221853
-0.00232532
-0.00243178
-0.00253729
-0.00264116
-0.00274264
-0.0028409
-0.00293508
-0.00302422
-0.00310736
-0.00318347
-0.00325149
-0.00331037
-0.00335902
-0.00339641
-0.00342152
-0.0034334
-0.00343117
-0.00341405
-0.00338142
-0.00333276
-0.00326777
-0.00318633
-0.00308854
-0.00297474
-0.00284552
-0.00270175
-0.00254454
-0.00237524
-0.00219568
-0.00200767
-0.00181343
-0.00161535
-0.00141605
-0.00121827
-0.00102489
-0.000838869
-0.00066316
-0.000500695
-0.000354311
-0.000226691
-0.000120311
-3.73804e-05
2.021e-05
5.09317e-05
5.36577e-05
2.76915e-05
-2.72111e-05
-0.000110835
-0.000222508
-0.000361117
-0.000525131
-0.00071264
-0.0009214
-0.00114889
-0.0013924
-0.00164899
-0.00191572
-0.00218958
-0.00246763
-0.002747
-0.00302501
-0.00329916
-0.00356719
-0.00382709
-0.00407716
-0.00431595
-0.00454232
-0.0047554
-0.00495457
-0.00513949
-0.00530999
-0.00546613
-0.00560811
-0.00573625
-0.00585101
-0.00595287
-0.00604241
-0.0061202
-0.0061868
-0.00624278
-0.00628868
-0.00632501
-0.00635225
-0.00637088
-0.0063814
-0.00638437
-0.00638042
-0.00637047
-0.0063557
-0.0063354
-0.00630688
-7.28333e-06
4.40958e-06
7.84963e-06
5.22648e-06
-2.26764e-06
-1.45897e-05
-3.16253e-05
-5.31592e-05
-7.8965e-05
-0.000108814
-0.000142483
-0.000179764
-0.000220466
-0.000264426
-0.000311506
-0.000361598
-0.000414615
-0.000470498
-0.000529206
-0.000590716
-0.000655022
-0.000722127
-0.000792038
-0.000864769
-0.000940334
-0.00101874
-0.00109999
-0.00118407
-0.00127094
-0.00136057
-0.00145286
-0.00154772
-0.00164499
-0.0017445
-0.00184602
-0.00194926
-0.0020539
-0.00215954
-0.00226572
-0.00237194
-0.00247759
-0.00258202
-0.00268451
-0.00278426
-0.00288041
-0.00297203
-0.00305815
-0.00313775
-0.00320977
-0.00327312
-0.00332672
-0.00336947
-0.00340034
-0.00341833
-0.00342251
-0.00341205
-0.00338626
-0.00334458
-0.00328663
-0.00321223
-0.00312142
-0.00301447
-0.00289193
-0.00275458
-0.00260354
-0.0024401
-0.00226597
-0.00208301
-0.00189338
-0.00169947
-0.00150387
-0.00130933
-0.00111874
-0.000935035
-0.000761214
-0.000600224
-0.000454926
-0.000328035
-0.00022206
-0.000139244
-8.15119e-05
-5.04247e-05
-4.71392e-05
-7.23773e-05
-0.000126404
-0.000209016
-0.000319551
-0.000456893
-0.000619507
-0.00080547
-0.00101252
-0.00123812
-0.0014795
-0.00173375
-0.00199787
-0.00226884
-0.0025437
-0.00281958
-0.00309378
-0.00336383
-0.00362749
-0.00388276
-0.00412799
-0.00436177
-0.00458301
-0.0047909
-0.00498489
-0.00516468
-0.00533018
-0.0054815
-0.00561889
-0.00574275
-0.00585357
-0.00595189
-0.00603831
-0.00611344
-0.00617789
-0.00623223
-0.00627702
-0.00631276
-0.00633992
-0.0063589
-0.0063701
-0.0063739
-0.00637063
-0.00636084
-0.00634521
-0.00632164
-0.0062854
5.15975e-06
1.67277e-05
1.98231e-05
1.67558e-05
8.84395e-06
-3.77956e-06
-2.09422e-05
-4.23997e-05
-6.79115e-05
-9.72518e-05
-0.00013021
-0.00016659
-0.000206219
-0.000248951
-0.000294663
-0.00034326
-0.000394669
-0.000448841
-0.000505747
-0.000565375
-0.000627729
-0.000692821
-0.000760674
-0.000831316
-0.000904775
-0.000981078
-0.00106025
-0.00114229
-0.00122721
-0.00131497
-0.00140554
-0.00149883
-0.00159475
-0.00169314
-0.00179381
-0.00189653
-0.00200099
-0.00210685
-0.00221368
-0.00232099
-0.00242824
-0.00253478
-0.00263992
-0.00274286
-0.00284275
-0.00293866
-0.00302961
-0.00311456
-0.0031924
-0.00326204
-0.00332232
-0.00337213
-0.00341034
-0.0034359
-0.00344782
-0.00344519
-0.00342725
-0.00339336
-0.00334308
-0.00327614
-0.00319253
-0.00309244
-0.00297635
-0.00284504
-0.0026996
-0.00254114
-0.00237145
-0.00219236
-0.00200601
-0.00181479
-0.00162128
-0.00142827
-0.00123864
-0.00105538
-0.000881521
-0.00072005
-0.000573882
-0.000445787
-0.000338329
-0.00025381
-0.000194214
-0.000161158
-0.00015585
-0.000179057
-0.000231081
-0.00031175
-0.000420418
-0.000555978
-0.000716891
-0.000901219
-0.00110668
-0.00133069
-0.00157045
-0.00182301
-0.00208531
-0.00235429
-0.00262693
-0.00290035
-0.00317181
-0.0034388
-0.00369907
-0.00395066
-0.0041919
-0.00442141
-0.00463815
-0.00484134
-0.00503051
-0.00520539
-0.00536599
-0.00551246
-0.00564514
-0.00576448
-0.00587103
-0.00596541
-0.00604826
-0.00612025
-0.00618201
-0.00623416
-0.00627725
-0.0063118
-0.00633822
-0.00635688
-0.00636805
-0.00637193
-0.00636861
-0.00635833
-0.00634137
-0.00631456
-0.00627163
2.44691e-05
3.49433e-05
3.71488e-05
3.32996e-05
2.47025e-05
1.15491e-05
-5.94818e-06
-2.75227e-05
-5.29284e-05
-8.19437e-05
-0.000114365
-0.000150011
-0.000188727
-0.000230382
-0.00027487
-0.000322113
-0.000372052
-0.000424654
-0.000479904
-0.000537806
-0.000598377
-0.000661648
-0.00072766
-0.000796463
-0.000868106
-0.000942643
-0.00102012
-0.00110058
-0.00118406
-0.00127057
-0.00136009
-0.00145261
-0.00154804
-0.00164629
-0.00174721
-0.00185061
-0.00195622
-0.00206374
-0.00217277
-0.00228287
-0.00239349
-0.00250401
-0.00261375
-0.00272191
-0.00282763
-0.00292996
-0.00302789
-0.00312032
-0.00320612
-0.00328412
-0.0033531
-0.00341187
-0.00345924
-0.00349405
-0.00351524
-0.00352182
-0.00351293
-0.00348784
-0.00344604
-0.00338719
-0.00331119
-0.00321818
-0.00310858
-0.00298315
-0.00284309
-0.00268881
-0.00252274
-0.00234657
-0.00216238
-0.00197256
-0.00177971
-0.00158664
-0.00139628
-0.00121166
-0.00103586
-0.000871925
-0.000722848
-0.000591471
-0.000480438
-0.000392131
-0.000328617
-0.000291593
-0.000282343
-0.000301704
-0.000350039
-0.000427224
-0.000532653
-0.000665241
-0.000823458
-0.00100536
-0.00120864
-0.00143069
-0.00166866
-0.00191953
-0.0021802
-0.00244752
-0.00271843
-0.00298996
-0.00325933
-0.00352398
-0.00378162
-0.00403025
-0.00426819
-0.00449409
-0.00470691
-0.00490591
-0.00509065
-0.00526093
-0.0054168
-0.00555851
-0.00568645
-0.00580115
-0.00590324
-0.00599339
-0.00607233
-0.00614077
-0.00619939
-0.00624885
-0.00628973
-0.00632253
-0.00634764
-0.00636539
-0.00637594
-0.00637934
-0.00637548
-0.00636435
-0.00634595
-0.00631634
-0.00626814
5.0467e-05
5.89848e-05
5.976e-05
5.4757e-05
4.51756e-05
3.12427e-05
1.31976e-05
-8.68552e-06
-3.41642e-05
-6.30225e-05
-9.50686e-05
-0.000130138
-0.000168094
-0.000208824
-0.000252242
-0.000298286
-0.000346918
-0.000398123
-0.000451905
-0.000508287
-0.000567307
-0.000629019
-0.000693491
-0.000760797
-0.00083102
-0.000904244
-0.000980556
-0.00106004
-0.00114276
-0.00122879
-0.00131815
-0.00141087
-0.00150693
-0.00160628
-0.00170881
-0.00181438
-0.00192276
-0.00203369
-0.0021468
-0.00226167
-0.00237777
-0.00249449
-0.00261113
-0.00272688
-0.00284084
-0.00295204
-0.0030594
-0.00316177
-0.00325794
-0.00334665
-0.00342662
-0.00349654
-0.00355513
-0.00360114
-0.00363339
-0.0036508
-0.00365241
-0.00363741
-0.00360518
-0.00355531
-0.00348762
-0.00340219
-0.0032994
-0.00317982
-0.00304417
-0.00289458
-0.00273183
-0.00255791
-0.00237501
-0.00218554
-0.00199212
-0.00179758
-0.00160489
-0.00141716
-0.00123751
-0.00106907
-0.000914926
-0.000777998
-0.000661035
-0.000566523
-0.000496637
-0.000453179
-0.000437539
-0.00045065
-0.000492965
-0.000564441
-0.000664533
-0.000792206
-0.000945959
-0.00112386
-0.0013236
-0.00154253
-0.00177777
-0.00202625
-0.00228478
-0.00255016
-0.00281922
-0.00308892
-0.00335639
-0.003619
-0.0038744
-0.00412053
-0.00435568
-0.00457848
-0.00478786
-0.00498312
-0.00516383
-0.00532984
-0.00548125
-0.00561837
-0.00574166
-0.00585173
-0.00594928
-0.00603507
-0.00610987
-0.00617448
-0.00622963
-0.00627602
-0.00631426
-0.00634486
-0.00636821
-0.00638458
-0.00639407
-0.00639661
-0.00639194
-0.00637986
-0.00636018
-0.00632844
-0.00627653
8.28375e-05
8.86405e-05
8.7476e-05
8.09488e-05
7.00798e-05
5.51195e-05
3.63185e-05
1.39416e-05
-1.1776e-05
-4.06318e-05
-7.24542e-05
-0.000107099
-0.000144447
-0.000184411
-0.000226925
-0.00027195
-0.00031947
-0.000369493
-0.000422046
-0.000477175
-0.000534949
-0.00059545
-0.000658777
-0.00072504
-0.000794361
-0.000866869
-0.000942694
-0.00102197
-0.00110481
-0.00119135
-0.00128166
-0.00137583
-0.00147389
-0.00157585
-0.00168165
-0.00179119
-0.00190429
-0.00202072
-0.00214015
-0.00226214
-0.00238619
-0.00251168
-0.00263787
-0.00276392
-0.0028889
-0.00301175
-0.00313133
-0.00324641
-0.00335567
-0.00345777
-0.0035513
-0.00363484
-0.00370701
-0.00376644
-0.00381183
-0.00384199
-0.00385585
-0.00385252
-0.00383126
-0.00379159
-0.00373324
-0.00365623
-0.00356086
-0.0034477
-0.00331756
-0.00317189
-0.00301208
-0.00283998
-0.00265774
-0.00246776
-0.00227267
-0.00207535
-0.00187882
-0.00168622
-0.00150075
-0.00132564
-0.00116406
-0.00101904
-0.000893453
-0.00078991
-0.000710717
-0.000657817
-0.000632732
-0.00063653
-0.000669788
-0.000732577
-0.000824451
-0.000944457
-0.00109116
-0.00126265
-0.00145665
-0.00167052
-0.00190132
-0.00214593
-0.00240112
-0.00266358
-0.00293007
-0.00319743
-0.00346271
-0.00372317
-0.00397636
-0.00422017
-0.00445279
-0.00467282
-0.00487915
-0.00507107
-0.00524815
-0.00541025
-0.00555754
-0.00569034
-0.0058092
-0.00591478
-0.00600786
-0.00608927
-0.00615988
-0.00622052
-0.00627201
-0.00631509
-0.00635041
-0.0063785
-0.00639977
-0.00641444
-0.00642259
-0.00642406
-0.00641848
-0.00640552
-0.00638486
-0.00635175
-0.00629766
0.000121181
0.000123596
0.000120025
0.000111623
9.91795e-05
8.29565e-05
6.32015e-05
4.01612e-05
1.4054e-05
-1.49457e-05
-4.6689e-05
-8.1056e-05
-0.000117956
-0.000157324
-0.000199122
-0.000243337
-0.00028998
-0.000339085
-0.000390707
-0.000444927
-0.000501844
-0.000561579
-0.000624271
-0.000690075
-0.00075916
-0.000831708
-0.000907907
-0.000987946
-0.00107201
-0.00116028
-0.00125292
-0.00135005
-0.00145179
-0.00155818
-0.00166924
-0.00178491
-0.00190505
-0.00202944
-0.00215778
-0.00228963
-0.00242448
-0.00256168
-0.00270045
-0.0028399
-0.00297901
-0.00311666
-0.00325159
-0.00338248
-0.0035079
-0.00362636
-0.00373635
-0.00383632
-0.00392474
-0.00400013
-0.00406107
-0.00410624
-0.00413446
-0.00414472
-0.00413619
-0.00410829
-0.00406067
-0.00399327
-0.0039063
-0.00380029
-0.00367607
-0.00353485
-0.00337812
-0.00320769
-0.00302569
-0.00283452
-0.00263682
-0.00243549
-0.0022336
-0.00203433
-0.00184098
-0.00165686
-0.00148523
-0.00132927
-0.00119197
-0.00107611
-0.000984148
-0.000918199
-0.00087996
-0.000870668
-0.00089107
-0.000941391
-0.00102133
-0.00113006
-0.00126623
-0.00142804
-0.00161325
-0.00181921
-0.00204302
-0.00228151
-0.00253138
-0.00278926
-0.00305179
-0.00331573
-0.00357798
-0.00383571
-0.00408635
-0.00432766
-0.00455776
-0.00477515
-0.00497869
-0.00516758
-0.00534139
-0.00549999
-0.00564352
-0.00577237
-0.00588712
-0.0059885
-0.00607733
-0.00615453
-0.00622103
-0.00627774
-0.00632554
-0.00636523
-0.00639751
-0.00642295
-0.00644196
-0.00645477
-0.00646144
-0.00646176
-0.0064553
-0.00644165
-0.0064204
-0.00638668
-0.00633185
0.000165033
0.000163452
0.000157049
0.000146454
0.000132172
0.00011447
9.35851e-05
6.97346e-05
4.30938e-05
1.38139e-05
-1.79895e-05
-5.22293e-05
-8.88462e-05
-0.000127807
-0.000169103
-0.000212754
-0.000258801
-0.000307311
-0.000358374
-0.00041211
-0.000468659
-0.000528187
-0.000590883
-0.000656957
-0.000726638
-0.000800169
-0.000877807
-0.00095981
-0.00104644
-0.00113794
-0.00123455
-0.00133648
-0.00144389
-0.0015569
-0.00167557
-0.00179989
-0.00192975
-0.00206495
-0.00220519
-0.00235004
-0.00249893
-0.00265117
-0.00280594
-0.00296224
-0.00311899
-0.00327494
-0.00342872
-0.00357887
-0.00372385
-0.00386201
-0.00399171
-0.00411125
-0.00421896
-0.00431322
-0.00439248
-0.0044553
-0.00450035
-0.00452653
-0.00453289
-0.00451874
-0.00448364
-0.00442743
-0.00435024
-0.00425254
-0.00413508
-0.00399901
-0.00384578
-0.00367714
-0.0034952
-0.00330234
-0.00310122
-0.00289474
-0.00268599
-0.00247823
-0.00227482
-0.00207916
-0.00189463
-0.00172454
-0.00157206
-0.00144012
-0.00133139
-0.00124818
-0.0011924
-0.0011655
-0.00116845
-0.00120168
-0.00126509
-0.00135801
-0.00147928
-0.00162718
-0.00179959
-0.00199392
-0.00220729
-0.00243652
-0.00267828
-0.00292912
-0.0031856
-0.00344435
-0.00370217
-0.00395606
-0.00420333
-0.0044416
-0.00466888
-0.00488353
-0.00508431
-0.00527037
-0.00544122
-0.00559667
-0.00573686
-0.0058622
-0.00597327
-0.00607084
-0.00615579
-0.0062291
-0.00629175
-0.00634474
-0.006389
-0.0064254
-0.00645468
-0.00647747
-0.00649421
-0.00650515
-0.00651034
-0.00650956
-0.00650236
-0.00648827
-0.00646686
-0.00643327
-0.00637896
0.000213875
0.000207729
0.000198116
0.000185038
0.00016868
0.00014931
0.000127141
0.000102341
7.50446e-05
4.53585e-05
1.33571e-05
-2.09114e-05
-5.74251e-05
-9.61887e-05
-0.000137232
-0.000180607
-0.000226394
-0.000274699
-0.000325657
-0.00037943
-0.000436211
-0.000496219
-0.000559705
-0.000626944
-0.000698236
-0.000773898
-0.000854265
-0.00093968
-0.00103048
-0.001127
-0.00122956
-0.00133843
-0.00145386
-0.00157603
-0.00170504
-0.00184092
-0.00198359
-0.00213286
-0.0022884
-0.00244976
-0.00261633
-0.00278735
-0.00296191
-0.00313892
-0.00331717
-0.00349529
-0.00367178
-0.00384502
-0.00401332
-0.00417489
-0.00432791
-0.00447054
-0.00460097
-0.00471741
-0.00481818
-0.00490167
-0.00496647
-0.00501131
-0.00503513
-0.00503713
-0.00501675
-0.00497373
-0.0049081
-0.00482023
-0.00471082
-0.0045809
-0.00443186
-0.00426541
-0.00408359
-0.00388875
-0.00368354
-0.00347086
-0.00325382
-0.00303572
-0.00281999
-0.00261012
-0.00240963
-0.00222196
-0.00205045
-0.00189825
-0.00176822
-0.00166294
-0.00158457
-0.00153483
-0.00151494
-0.00152561
-0.00156698
-0.00163865
-0.00173963
-0.00186843
-0.00202305
-0.00220102
-0.00239953
-0.00261544
-0.00284539
-0.00308589
-0.00333342
-0.0035845
-0.00383578
-0.00408413
-0.0043267
-0.00456093
-0.00478468
-0.00499617
-0.00519403
-0.00537728
-0.00554533
-0.00569794
-0.00583521
-0.00595747
-0.00606535
-0.00615961
-0.00624117
-0.00631104
-0.00637027
-0.00641991
-0.00646095
-0.00649432
-0.00652084
-0.00654115
-0.00655577
-0.00656496
-0.0065688
-0.00656709
-0.00655937
-0.00654517
-0.00652403
-0.00649123
-0.00643854
0.000267113
0.000255888
0.000242705
0.000226885
0.000208248
0.000187049
0.000163463
0.000137598
0.000109532
7.93174e-05
4.69785e-05
1.25158e-05
-2.40951e-05
-6.29034e-05
-0.00010398
-0.00014742
-0.000193347
-0.000241917
-0.000293313
-0.000347753
-0.000405489
-0.000466808
-0.000532032
-0.000601513
-0.000675634
-0.000754801
-0.000839438
-0.00092998
-0.00102686
-0.0011305
-0.00124131
-0.00135964
-0.0014858
-0.00162004
-0.00176251
-0.00191326
-0.00207222
-0.0022392
-0.00241385
-0.00259565
-0.00278394
-0.00297786
-0.00317639
-0.00337834
-0.00358234
-0.00378688
-0.0039903
-0.00419083
-0.0043866
-0.00457566
-0.00475601
-0.00492566
-0.00508262
-0.00522495
-0.00535081
-0.00545845
-0.0055463
-0.00561296
-0.00565724
-0.00567819
-0.00567515
-0.00564771
-0.00559581
-0.00551969
-0.00541996
-0.00529752
-0.00515369
-0.00499009
-0.0048087
-0.00461181
-0.00440204
-0.00418225
-0.00395558
-0.00372534
-0.00349503
-0.00326823
-0.00304856
-0.00283965
-0.00264499
-0.00246797
-0.00231171
-0.00217904
-0.00207243
-0.00199391
-0.00194504
-0.00192686
-0.00193982
-0.00198383
-0.00205819
-0.00216167
-0.00229247
-0.00244832
-0.00262653
-0.00282402
-0.00303748
-0.00326341
-0.0034982
-0.00373829
-0.00398019
-0.0042206
-0.0044565
-0.00468516
-0.00490423
-0.00511176
-0.00530619
-0.0054864
-0.00565165
-0.00580161
-0.00593626
-0.00605591
-0.0061611
-0.00625262
-0.00633137
-0.00639838
-0.00645475
-0.00650155
-0.00653985
-0.00657063
-0.00659475
-0.00661294
-0.00662572
-0.00663344
-0.00663619
-0.00663381
-0.00662586
-0.00661189
-0.00659144
-0.00656004
-0.00650989
0.000324093
0.00030729
0.00029021
0.000271424
0.000250333
0.000227168
0.000202055
0.000175025
0.000146085
0.000115223
8.24002e-05
4.7561e-05
1.06269e-05
-2.85019e-05
-6.9945e-05
-0.000113849
-0.000160393
-0.000209783
-0.000262265
-0.000318121
-0.000377675
-0.000441293
-0.000509379
-0.000582379
-0.00066077
-0.000745059
-0.000835771
-0.000933445
-0.00103862
-0.00115181
-0.00127351
-0.00140416
-0.00154415
-0.00169377
-0.00185321
-0.00202253
-0.00220168
-0.00239043
-0.00258838
-0.00279495
-0.00300938
-0.0032307
-0.00345778
-0.00368926
-0.00392363
-0.00415921
-0.00439418
-0.00462656
-0.00485432
-0.00507532
-0.0052874
-0.00548836
-0.00567605
-0.00584837
-0.0060033
-0.00613894
-0.00625354
-0.00634557
-0.00641368
-0.00645678
-0.00647405
-0.00646496
-0.0064293
-0.00636718
-0.0062791
-0.00616578
-0.00602847
-0.00586869
-0.00568832
-0.00548957
-0.00527497
-0.00504738
-0.00480989
-0.00456586
-0.00431879
-0.00407236
-0.00383031
-0.00359639
-0.00337433
-0.00316771
-0.00297995
-0.00281417
-0.0026732
-0.00255942
-0.00247477
-0.00242069
-0.00239804
-0.00240709
-0.00244753
-0.00251846
-0.00261837
-0.00274526
-0.00289662
-0.00306953
-0.00326077
-0.00346684
-0.00368413
-0.00390899
-0.00413779
-0.0043671
-0.00459367
-0.00481459
-0.00502727
-0.00522955
-0.00541966
-0.00559628
-0.00575849
-0.00590578
-0.00603803
-0.00615542
-0.00625843
-0.00634777
-0.00642435
-0.00648917
-0.00654333
-0.00658795
-0.00662413
-0.00665289
-0.00667516
-0.00669169
-0.00670308
-0.00670972
-0.00671175
-0.00670906
-0.00670122
-0.00668785
-0.00666851
-0.00663902
-0.00659213
0.000384067
0.000361213
0.000339939
0.000317988
0.000294294
0.000269051
0.00024232
0.000214039
0.000184128
0.000152495
0.000119031
8.3611e-05
4.60961e-05
6.32835e-06
-3.58717e-05
-8.07107e-05
-0.000128425
-0.00017929
-0.000233619
-0.000291772
-0.000354158
-0.000421234
-0.000493502
-0.000571512
-0.00065585
-0.000747137
-0.000846011
-0.000953124
-0.00106912
-0.00119463
-0.00133023
-0.00147645
-0.00163374
-0.00180243
-0.00198274
-0.00217475
-0.00237837
-0.00259333
-0.00281916
-0.0030552
-0.00330057
-0.00355417
-0.00381471
-0.00408069
-0.0043504
-0.00462199
-0.00489344
-0.00516259
-0.0054272
-0.00568495
-0.00593347
-0.00617039
-0.00639336
-0.0066001
-0.0067884
-0.00695621
-0.0071016
-0.00722286
-0.00731848
-0.00738721
-0.00742807
-0.00744038
-0.00742376
-0.00737817
-0.00730389
-0.00720169
-0.00707254
-0.00691783
-0.00673934
-0.00653918
-0.00631979
-0.00608396
-0.00583475
-0.00557547
-0.00530969
-0.00504112
-0.00477359
-0.00451102
-0.00425731
-0.00401628
-0.00379164
-0.00358684
-0.00340507
-0.00324913
-0.00312141
-0.00302379
-0.00295761
-0.00292361
-0.00292194
-0.00295211
-0.00301304
-0.00310304
-0.00321991
-0.00336096
-0.0035231
-0.00370295
-0.00389691
-0.00410126
-0.0043123
-0.00452642
-0.00474019
-0.00495045
-0.0051544
-0.00534958
-0.005534
-0.00570607
-0.00586465
-0.00600903
-0.00613889
-0.00625426
-0.0063555
-0.00644322
-0.00651826
-0.00658159
-0.00663429
-0.00667747
-0.00671226
-0.00673971
-0.00676077
-0.00677626
-0.00678683
-0.0067929
-0.00679468
-0.00679208
-0.00678478
-0.00677239
-0.00675453
-0.00672737
-0.00668429
0.000446193
0.000416836
0.000391097
0.000365807
0.000339388
0.000311978
0.000283555
0.000253945
0.000222964
0.00019043
0.000156148
0.000119916
8.15249e-05
4.07478e-05
-2.66247e-06
-4.89814e-05
-9.85158e-05
-0.000151615
-0.000208678
-0.000270155
-0.00033655
-0.000408427
-0.0004864
-0.000571139
-0.000663352
-0.000763783
-0.000873199
-0.000992372
-0.00112206
-0.001263
-0.00141587
-0.00158127
-0.00175969
-0.00195153
-0.002157
-0.00237617
-0.00260892
-0.0028549
-0.00311356
-0.00338413
-0.00366558
-0.00395668
-0.00425594
-0.00456169
-0.00487203
-0.0051849
-0.00549808
-0.0058092
-0.00611582
-0.00641539
-0.00670535
-0.00698312
-0.00724616
-0.00749198
-0.0077182
-0.00792255
-0.00810296
-0.0082575
-0.0083845
-0.00848254
-0.00855045
-0.00858738
-0.0085928
-0.00856647
-0.00850853
-0.00841957
-0.0083004
-0.00815228
-0.00797682
-0.00777601
-0.00755219
-0.00730802
-0.00704651
-0.00677093
-0.00648483
-0.00619194
-0.00589618
-0.00560158
-0.00531222
-0.00503216
-0.00476537
-0.00451567
-0.00428661
-0.00408147
-0.0039031
-0.00375391
-0.00363577
-0.00355
-0.00349727
-0.00347764
-0.00349052
-0.00353468
-0.00360832
-0.00370907
-0.00383411
-0.00398019
-0.00414383
-0.0043213
-0.00450885
-0.00470271
-0.00489927
-0.00509514
-0.00528723
-0.00547281
-0.00564958
-0.00581566
-0.00596962
-0.00611049
-0.00623771
-0.0063511
-0.00645084
-0.00653741
-0.00661152
-0.00667407
-0.00672607
-0.00676863
-0.00680283
-0.00682976
-0.00685038
-0.00686556
-0.00687596
-0.00688208
-0.00688414
-0.00688214
-0.0068758
-0.00686479
-0.00684875
-0.00682427
-0.00678536
0.000509522
0.000473233
0.000442776
0.000414
0.000384757
0.00035511
0.000324934
0.000293921
0.00026177
0.000228188
0.000192888
0.00015558
0.00011597
7.37541e-05
2.86081e-05
-1.98209e-05
-7.19231e-05
-0.000128137
-0.000188956
-0.000254935
-0.000326691
-0.000404907
-0.000490327
-0.000583751
-0.000686024
-0.000798028
-0.000920664
-0.00105483
-0.00120141
-0.00136125
-0.00153509
-0.00172363
-0.00192741
-0.00214682
-0.0023821
-0.00263327
-0.00290014
-0.0031823
-0.00347907
-0.00378953
-0.00411252
-0.0044466
-0.00479012
-0.00514118
-0.00549769
-0.00585736
-0.00621773
-0.00657624
-0.00693019
-0.00727683
-0.00761337
-0.00793702
-0.00824503
-0.0085347
-0.00880344
-0.0090488
-0.00926848
-0.00946041
-0.0096227
-0.00975375
-0.00985221
-0.00991705
-0.00994756
-0.00994333
-0.00990432
-0.0098309
-0.00972376
-0.00958396
-0.00941297
-0.0092126
-0.00898504
-0.00873286
-0.00845892
-0.00816644
-0.0078589
-0.00754004
-0.00721382
-0.00688435
-0.00655585
-0.00623258
-0.00591879
-0.00561862
-0.00533605
-0.00507478
-0.00483821
-0.0046293
-0.00445054
-0.00430386
-0.00419061
-0.00411145
-0.00406643
-0.0040549
-0.00407555
-0.00412648
-0.00420522
-0.00430882
-0.00443394
-0.00457698
-0.00473413
-0.00490156
-0.00507548
-0.00525226
-0.00542851
-0.00560121
-0.0057677
-0.00592575
-0.0060736
-0.00620996
-0.00633395
-0.00644514
-0.00654347
-0.00662921
-0.00670291
-0.00676533
-0.0068174
-0.00686015
-0.00689463
-0.00692189
-0.00694292
-0.00695858
-0.00696957
-0.0069764
-0.00697937
-0.00697851
-0.0069736
-0.00696435
-0.00695047
-0.00692891
-0.00689438
0.000572986
0.000529356
0.000493957
0.000461574
0.000429429
0.00039749
0.000365507
0.000333017
0.000299582
0.00026479
0.000228241
0.000189548
0.000148323
0.000104174
5.66886e-05
5.42519e-06
-5.01027e-05
-0.000110435
-0.000176176
-0.000248
-0.000326652
-0.00041295
-0.000507781
-0.000612092
-0.000726876
-0.000853164
-0.000991996
-0.00114441
-0.0013114
-0.00149392
-0.0016928
-0.00190879
-0.00214247
-0.00239423
-0.00266429
-0.00295261
-0.00325892
-0.00358269
-0.00392311
-0.0042791
-0.0046493
-0.0050321
-0.00542561
-0.00582771
-0.00623608
-0.00664818
-0.00706134
-0.00747271
-0.00787938
-0.00827836
-0.00866663
-0.00904116
-0.00939897
-0.00973716
-0.0100529
-0.0103436
-0.0106067
-0.0108399
-0.0110413
-0.0112089
-0.0113413
-0.0114372
-0.0114958
-0.0115165
-0.011499
-0.0114435
-0.0113505
-0.011221
-0.0110561
-0.0108576
-0.0106274
-0.0103679
-0.010082
-0.00977255
-0.00944312
-0.00909734
-0.00873914
-0.00837269
-0.00800231
-0.00763241
-0.00726748
-0.00691197
-0.00657022
-0.00624642
-0.00594448
-0.00566796
-0.00542001
-0.00520327
-0.00501978
-0.00487099
-0.00475765
-0.00467983
-0.00463687
-0.00462746
-0.00464964
-0.00470086
-0.00477808
-0.00487788
-0.00499654
-0.00513017
-0.00527487
-0.00542678
-0.00558225
-0.00573788
-0.00589065
-0.00603795
-0.00617762
-0.00630795
-0.00642772
-0.00653616
-0.00663289
-0.00671792
-0.00679158
-0.00685445
-0.0069073
-0.00695104
-0.00698667
-0.00701516
-0.00703748
-0.00705447
-0.00706685
-0.00707515
-0.00707969
-0.00708055
-0.00707755
-0.00707046
-0.00705901
-0.00704055
-0.00701047
0.000635397
0.000584044
0.000543504
0.000507411
0.000472305
0.000438031
0.000404189
0.000370142
0.000335296
0.000299102
0.000261038
0.000220602
0.000177306
0.000130656
8.01422e-05
2.5219e-05
-3.47091e-05
-0.000100299
-0.00017228
-0.000251461
-0.000338733
-0.000435065
-0.000541501
-0.000659146
-0.000789158
-0.000932719
-0.00109102
-0.00126523
-0.00145647
-0.00166577
-0.00189407
-0.00214213
-0.00241056
-0.00269974
-0.00300983
-0.00334072
-0.00369203
-0.00406308
-0.00445291
-0.00486024
-0.00528351
-0.00572087
-0.0061702
-0.00662914
-0.0070951
-0.00756528
-0.00803674
-0.0085064
-0.00897106
-0.00942749
-0.00987242
-0.0103026
-0.0107148
-0.0111058
-0.0114728
-0.0118128
-0.0121231
-0.0124012
-0.012645
-0.0128524
-0.0130218
-0.0131517
-0.0132411
-0.0132893
-0.0132957
-0.0132605
-0.0131839
-0.0130666
-0.0129097
-0.0127147
-0.0124833
-0.0122178
-0.0119208
-0.0115951
-0.0112441
-0.0108712
-0.0104805
-0.0100759
-0.00966192
-0.00924301
-0.00882384
-0.00840911
-0.00800353
-0.00761168
-0.00723801
-0.00688668
-0.0065615
-0.00626587
-0.00600264
-0.00577407
-0.00558177
-0.00542664