/*--------------------------------*- C++ -*----------------------------------*\
| =========                 |                                                 |
| \\      /  F ield         | OpenFOAM: The Open Source CFD Toolbox           |
|  \\    /   O peration     | Version:  2112                                  |
|   \\  /    A nd           | Website:  www.openfoam.com                      |
|    \\/     M anipulation  |                                                 |
\*---------------------------------------------------------------------------*/
FoamFile
{
    version     2.0;
    format      ascii;
    arch        "LSB;label=32;scalar=64";
    class       surfaceScalarField;
    location    "19";
    object      phi;
}
// * * * * * * * * * * * * * * * * * * * * * * * * * * * * * * * * * * * * * //

dimensions      [0 3 -1 0 0 0 0];

oriented        oriented;

internalField   nonuniform List<scalar> 
33024
(
1.45712e-09
-1.45575e-09
1.97841e-08
-1.83269e-08
5.27015e-08
-3.29167e-08
9.4259e-08
-4.15578e-08
1.39585e-07
-4.53259e-08
1.85112e-07
-4.55276e-08
2.28344e-07
-4.32309e-08
2.67605e-07
-3.92616e-08
3.01825e-07
-3.42198e-08
3.30354e-07
-2.85287e-08
3.52833e-07
-2.24787e-08
3.69093e-07
-1.62596e-08
3.79082e-07
-9.98962e-09
3.82814e-07
-3.73197e-09
3.80322e-07
2.49168e-09
3.71638e-07
8.68434e-09
3.56768e-07
1.48698e-08
3.35685e-07
2.10838e-08
3.08316e-07
2.73686e-08
2.74545e-07
3.37706e-08
2.34209e-07
4.03358e-08
1.87101e-07
4.71085e-08
1.32971e-07
5.41304e-08
7.15313e-08
6.144e-08
2.46089e-09
6.90703e-08
-7.45887e-08
7.70496e-08
-1.59989e-07
8.54007e-08
-2.54129e-07
9.41401e-08
-3.57407e-07
1.03277e-07
-4.70222e-07
1.12815e-07
-5.9297e-07
1.22748e-07
-7.26031e-07
1.33061e-07
-8.69762e-07
1.43731e-07
-1.02449e-06
1.54724e-07
-1.19048e-06
1.65995e-07
-1.36797e-06
1.7749e-07
-1.55711e-06
1.89139e-07
-1.75797e-06
2.00864e-07
-1.97055e-06
2.12574e-07
-2.19471e-06
2.24165e-07
-2.43023e-06
2.35521e-07
-2.67675e-06
2.46515e-07
-2.93376e-06
2.57009e-07
-3.20061e-06
2.66854e-07
-3.4765e-06
2.75894e-07
-3.76047e-06
2.83963e-07
-4.05136e-06
2.90893e-07
-4.34787e-06
2.96509e-07
-4.6485e-06
3.00634e-07
-4.9516e-06
3.03094e-07
-5.25531e-06
3.03717e-07
-5.55765e-06
3.02338e-07
-5.85645e-06
2.988e-07
-6.14941e-06
2.92961e-07
-6.43411e-06
2.84693e-07
-6.70799e-06
2.73886e-07
-6.96845e-06
2.60456e-07
-7.21279e-06
2.4434e-07
-7.43829e-06
2.25507e-07
-7.64225e-06
2.03956e-07
-7.82197e-06
1.7972e-07
-7.97484e-06
1.52869e-07
-8.09835e-06
1.23509e-07
-8.19014e-06
9.17905e-08
-8.24805e-06
5.7908e-08
-8.27017e-06
2.21183e-08
-8.25469e-06
-1.54724e-08
-8.20037e-06
-5.4325e-08
-8.10614e-06
-9.4231e-08
-7.97136e-06
-1.34778e-07
-7.7958e-06
-1.75557e-07
-7.57967e-06
-2.16132e-07
-7.32362e-06
-2.56046e-07
-7.0288e-06
-2.94826e-07
-6.6968e-06
-3.31994e-07
-6.32973e-06
-3.67073e-07
-5.93014e-06
-3.99593e-07
-5.50103e-06
-4.29107e-07
-5.04584e-06
-4.55191e-07
-4.56838e-06
-4.77462e-07
-4.07279e-06
-4.95584e-07
-3.56352e-06
-5.09275e-07
-3.0452e-06
-5.18318e-07
-2.52264e-06
-5.22565e-07
-2.00069e-06
-5.21945e-07
-1.48423e-06
-5.16464e-07
-9.78018e-07
-5.0621e-07
-4.86668e-07
-4.9135e-07
-1.45257e-08
-4.72143e-07
4.34441e-07
-4.48966e-07
8.56487e-07
-4.22047e-07
1.24847e-06
-3.91978e-07
1.60767e-06
-3.59201e-07
1.93192e-06
-3.2425e-07
2.21959e-06
-2.87679e-07
2.46964e-06
-2.50047e-07
2.68155e-06
-2.11913e-07
2.85537e-06
-1.73818e-07
2.99165e-06
-1.36273e-07
3.0914e-06
-9.97515e-08
3.15607e-06
-6.46759e-08
3.18749e-06
-3.14131e-08
3.18776e-06
-2.77634e-10
3.15925e-06
2.85089e-08
3.1045e-06
5.47499e-08
3.02616e-06
7.83425e-08
2.92693e-06
9.92364e-08
2.80949e-06
1.17439e-07
2.67647e-06
1.33011e-07
2.53042e-06
1.46055e-07
2.37371e-06
1.5671e-07
2.20857e-06
1.65143e-07
2.03703e-06
1.71532e-07
1.86097e-06
1.7606e-07
1.68208e-06
1.78895e-07
1.5019e-06
1.80176e-07
1.32191e-06
1.79994e-07
1.14354e-06
1.78372e-07
9.68298e-07
1.75239e-07
7.97891e-07
1.70407e-07
6.34348e-07
1.63543e-07
4.80203e-07
1.54144e-07
3.3868e-07
1.41523e-07
2.13863e-07
1.24817e-07
1.1078e-07
1.03084e-07
3.51522e-08
7.56272e-08
-7.65883e-09
4.28112e-08
-1.60154e-08
8.35715e-09
-1.60148e-08
1.83524e-08
-1.98085e-08
7.14025e-08
-7.13762e-08
1.50428e-07
-1.11943e-07
2.45737e-07
-1.36867e-07
3.4834e-07
-1.47929e-07
4.50819e-07
-1.48006e-07
5.47462e-07
-1.39874e-07
6.3409e-07
-1.25889e-07
7.07771e-07
-1.07901e-07
7.66533e-07
-8.72917e-08
8.09111e-07
-6.50562e-08
8.3473e-07
-4.18794e-08
8.42941e-07
-1.82004e-08
8.33488e-07
5.72167e-09
8.06201e-07
2.97775e-08
7.60931e-07
5.39541e-08
6.97493e-07
7.83082e-08
6.15633e-07
1.02944e-07
5.15007e-07
1.27995e-07
3.9517e-07
1.53608e-07
2.55572e-07
1.79933e-07
9.55642e-08
2.07116e-07
-8.5598e-08
2.35293e-07
-2.88743e-07
2.64584e-07
-5.14767e-07
2.95094e-07
-7.64625e-07
3.26907e-07
-1.03931e-06
3.60084e-07
-1.33983e-06
3.9466e-07
-1.6672e-06
4.30647e-07
-2.02241e-06
4.68024e-07
-2.4064e-06
5.06739e-07
-2.82004e-06
5.46706e-07
-3.26411e-06
5.87802e-07
-3.73926e-06
6.29866e-07
-4.24596e-06
6.72694e-07
-4.78451e-06
7.16043e-07
-5.35499e-06
7.59623e-07
-5.95723e-06
8.03103e-07
-6.59076e-06
8.46106e-07
-7.25481e-06
8.88216e-07
-7.94826e-06
9.28973e-07
-8.66963e-06
9.6788e-07
-9.41703e-06
1.00441e-06
-1.01882e-05
1.03799e-06
-1.09803e-05
1.06804e-06
-1.17903e-05
1.09396e-06
-1.26145e-05
1.11513e-06
-1.3449e-05
1.13093e-06
-1.42891e-05
1.14074e-06
-1.51299e-05
1.14397e-06
-1.59663e-05
1.14003e-06
-1.67923e-05
1.1284e-06
-1.76021e-05
1.10858e-06
-1.83893e-05
1.08013e-06
-1.91473e-05
1.04268e-06
-1.98693e-05
9.95943e-07
-2.05486e-05
9.39715e-07
-2.11781e-05
8.73889e-07
-2.17511e-05
7.98467e-07
-2.22607e-05
7.13563e-07
-2.27004e-05
6.1941e-07
-2.30639e-05
5.16367e-07
-2.33453e-05
4.04923e-07
-2.35392e-05
2.85696e-07
-2.36407e-05
1.59438e-07
-2.36458e-05
2.71956e-08
-2.35508e-05
-1.10514e-07
-2.3353e-05
-2.52124e-07
-2.30507e-05
-3.96505e-07
-2.26431e-05
-5.42346e-07
-2.21305e-05
-6.88228e-07
-2.15139e-05
-8.32659e-07
-2.07959e-05
-9.74095e-07
-1.99797e-05
-1.11096e-06
-1.90701e-05
-1.24167e-06
-1.80725e-05
-1.36466e-06
-1.69937e-05
-1.4784e-06
-1.58413e-05
-1.58143e-06
-1.46241e-05
-1.67239e-06
-1.33516e-05
-1.75005e-06
-1.20338e-05
-1.81333e-06
-1.06817e-05
-1.86133e-06
-9.30671e-06
-1.89335e-06
-7.92036e-06
-1.90891e-06
-6.53453e-06
-1.90778e-06
-5.16103e-06
-1.88997e-06
-3.81149e-06
-1.85575e-06
-2.4972e-06
-1.80565e-06
-1.22889e-06
-1.74045e-06
-1.66907e-08
-1.66117e-06
1.13042e-06
-1.56916e-06
2.20405e-06
-1.4656e-06
3.1971e-06
-1.35226e-06
4.10369e-06
-1.23084e-06
4.91917e-06
-1.10316e-06
5.64018e-06
-9.71064e-07
6.26471e-06
-8.36441e-07
6.79202e-06
-7.01124e-07
7.22262e-06
-5.66879e-07
7.55823e-06
-4.3536e-07
7.80164e-06
-3.08079e-07
7.9566e-06
-1.8638e-07
8.02774e-06
-7.14145e-08
8.02038e-06
3.58739e-08
7.94038e-06
1.3475e-07
7.79402e-06
2.24696e-07
7.58785e-06
3.05406e-07
7.32852e-06
3.76772e-07
7.02267e-06
4.38865e-07
6.6768e-06
4.91919e-07
6.29721e-06
5.36298e-07
5.88989e-06
5.72461e-07
5.4605e-06
6.0093e-07
5.01432e-06
6.22237e-07
4.55633e-06
6.36882e-07
4.09124e-06
6.45271e-07
3.62357e-06
6.47657e-07
3.15787e-06
6.44072e-07
2.69885e-06
6.34258e-07
2.25167e-06
6.17595e-07
1.82216e-06
5.93048e-07
1.41717e-06
5.59133e-07
1.04475e-06
5.13942e-07
7.14271e-07
4.55299e-07
4.36162e-07
3.81192e-07
2.20989e-07
2.90801e-07
7.73968e-08
1.86402e-07
8.56903e-09
7.71839e-08
-7.44559e-09
3.32127e-08
-5.30205e-08
1.12495e-07
-1.50658e-07
2.23108e-07
-2.22556e-07
3.52215e-07
-2.65974e-07
4.8846e-07
-2.84174e-07
6.22324e-07
-2.81869e-07
7.4622e-07
-2.6377e-07
8.54351e-07
-2.3402e-07
9.42451e-07
-1.96001e-07
1.00748e-06
-1.52321e-07
1.04734e-06
-1.04916e-07
1.06061e-06
-5.51483e-08
1.04632e-06
-3.90874e-09
1.0038e-06
4.82418e-08
9.32509e-07
1.01067e-07
8.31959e-07
1.54504e-07
7.01625e-07
2.08642e-07
5.40896e-07
2.63672e-07
3.49051e-07
3.19841e-07
1.25232e-07
3.77426e-07
-1.31549e-07
4.36715e-07
-4.22415e-07
4.97982e-07
-7.48606e-07
5.61485e-07
-1.11147e-06
6.27444e-07
-1.51242e-06
6.96047e-07
-1.95295e-06
7.67433e-07
-2.43455e-06
8.4169e-07
-2.95874e-06
9.18851e-07
-3.52699e-06
9.98889e-07
-4.14067e-06
1.08171e-06
-4.80108e-06
1.16714e-06
-5.50932e-06
1.25495e-06
-6.26633e-06
1.34481e-06
-7.07277e-06
1.4363e-06
-7.92901e-06
1.52894e-06
-8.8351e-06
1.62213e-06
-9.79068e-06
1.71519e-06
-1.07949e-05
1.80736e-06
-1.18466e-05
1.89777e-06
-1.29438e-05
1.98547e-06
-1.40843e-05
2.06944e-06
-1.5265e-05
2.1486e-06
-1.64824e-05
2.22177e-06
-1.77322e-05
2.28775e-06
-1.90094e-05
2.3453e-06
-2.03086e-05
2.39314e-06
-2.16235e-05
2.43001e-06
-2.29472e-05
2.45465e-06
-2.42723e-05
2.46581e-06
-2.55907e-05
2.46234e-06
-2.68938e-05
2.44313e-06
-2.81725e-05
2.40717e-06
-2.94175e-05
2.35357e-06
-3.0619e-05
2.28158e-06
-3.17669e-05
2.19059e-06
-3.28511e-05
2.08019e-06
-3.38616e-05
1.95015e-06
-3.47881e-05
1.80045e-06
-3.56209e-05
1.63128e-06
-3.63504e-05
1.44307e-06
-3.69675e-05
1.2365e-06
-3.74636e-05
1.01249e-06
-3.78309e-05
7.72194e-07
-3.80623e-05
5.17042e-07
-3.81515e-05
2.48672e-07
-3.80936e-05
-3.07439e-08
-3.78841e-05
-3.19946e-07
-3.75205e-05
-6.15716e-07
-3.70012e-05
-9.15851e-07
-3.63259e-05
-1.21766e-06
-3.54958e-05
-1.51832e-06
-3.45136e-05
-1.81488e-06
-3.33833e-05
-2.10434e-06
-3.21106e-05
-2.38363e-06
-3.07026e-05
-2.64971e-06
-2.91677e-05
-2.89958e-06
-2.75158e-05
-3.13031e-06
-2.57581e-05
-3.33914e-06
-2.3907e-05
-3.52349e-06
-2.1976e-05
-3.68104e-06
-1.99796e-05
-3.80974e-06
-1.7933e-05
-3.90788e-06
-1.58523e-05
-3.97412e-06
-1.37536e-05
-4.00756e-06
-1.16537e-05
-4.00773e-06
-9.56902e-06
-3.9746e-06
-7.51609e-06
-3.90867e-06
-5.51085e-06
-3.81089e-06
-3.56861e-06
-3.68269e-06
-1.70381e-06
-3.52596e-06
7.00584e-08
-3.34303e-06
1.74101e-06
-3.13656e-06
3.29826e-06
-2.9095e-06
4.73268e-06
-2.66526e-06
6.03681e-06
-2.40729e-06
7.20493e-06
-2.13918e-06
8.2331e-06
-1.86461e-06
9.1192e-06
-1.58722e-06
9.86285e-06
-1.31053e-06
1.04654e-05
-1.0379e-06
1.09297e-05
-7.72432e-07
1.12603e-05
-5.16941e-07
1.14628e-05
-2.7389e-07
1.1544e-05
-4.53603e-08
1.15118e-05
1.66971e-07
1.13746e-05
3.61843e-07
1.11416e-05
5.38408e-07
1.08222e-05
6.96213e-07
1.04259e-05
8.35176e-07
9.96227e-06
9.55544e-07
9.44072e-06
1.05784e-06
8.87039e-06
1.1428e-06
8.26003e-06
1.21129e-06
7.61803e-06
1.26423e-06
6.95241e-06
1.3025e-06
6.27089e-06
1.3268e-06
5.58099e-06
1.33756e-06
4.89026e-06
1.3348e-06
4.20649e-06
1.31803e-06
3.53798e-06
1.2861e-06
2.89386e-06
1.23716e-06
2.28437e-06
1.16863e-06
1.72101e-06
1.07731e-06
1.21653e-06
9.59775e-07
7.84537e-07
8.13185e-07
4.38421e-07
6.36918e-07
1.89495e-07
4.35329e-07
4.40739e-08
2.22604e-07
3.66283e-08
4.21369e-08
-9.5158e-08
1.37856e-07
-2.46377e-07
2.66851e-07
-3.51552e-07
4.13342e-07
-4.12465e-07
5.64206e-07
-4.35038e-07
7.08644e-07
-4.26307e-07
8.37997e-07
-3.93123e-07
9.45512e-07
-3.41536e-07
1.02606e-06
-2.76551e-07
1.07585e-06
-2.02107e-07
1.0921e-06
-1.21167e-07
1.0728e-06
-3.58489e-08
1.01647e-06
5.24249e-08
9.21921e-07
1.42785e-07
7.88182e-07
2.34806e-07
6.1431e-07
3.28377e-07
3.99333e-07
4.23619e-07
1.42192e-07
5.20813e-07
-1.58298e-07
6.20332e-07
-5.0347e-07
7.22598e-07
-8.948e-07
8.28045e-07
-1.33391e-06
9.37088e-07
-1.82253e-06
1.0501e-06
-2.36249e-06
1.16741e-06
-2.95571e-06
1.28927e-06
-3.60412e-06
1.41584e-06
-4.30963e-06
1.5472e-06
-5.07413e-06
1.68335e-06
-5.89937e-06
1.82413e-06
-6.78698e-06
1.96931e-06
-7.73835e-06
2.11852e-06
-8.75463e-06
2.27123e-06
-9.83662e-06
2.4268e-06
-1.09847e-05
2.58442e-06
-1.21989e-05
2.74316e-06
-1.34787e-05
2.90189e-06
-1.48229e-05
3.05936e-06
-1.62297e-05
3.21417e-06
-1.76967e-05
3.36476e-06
-1.92207e-05
3.50947e-06
-2.07977e-05
3.64648e-06
-2.2423e-05
3.7739e-06
-2.4091e-05
3.88973e-06
-2.57951e-05
3.99193e-06
-2.75283e-05
4.07842e-06
-2.92822e-05
4.1471e-06
-3.10481e-05
4.1959e-06
-3.28163e-05
4.22282e-06
-3.45764e-05
4.22593e-06
-3.63175e-05
4.20341e-06
-3.8028e-05
4.15364e-06
-3.96959e-05
4.07514e-06
-4.1309e-05
3.96667e-06
-4.28547e-05
3.82726e-06
-4.43203e-05
3.65619e-06
-4.56932e-05
3.45307e-06
-4.69608e-05
3.2178e-06
-4.81111e-05
2.95067e-06
-4.91321e-05
2.6523e-06
-5.00127e-05
2.32368e-06
-5.07424e-05
1.96618e-06
-5.13114e-05
1.58156e-06
-5.17112e-05
1.17194e-06
-5.1934e-05
7.39823e-07
-5.19734e-05
2.8809e-07
-5.1824e-05
-1.80173e-07
-5.14823e-05
-6.61645e-07
-5.09458e-05
-1.15219e-06
-5.02138e-05
-1.64788e-06
-4.9287e-05
-2.14445e-06
-4.81678e-05
-2.63744e-06
-4.68604e-05
-3.12227e-06
-4.53705e-05
-3.59426e-06
-4.37055e-05
-4.04868e-06
-4.18743e-05
-4.48086e-06
-3.98877e-05
-4.8862e-06
-3.77578e-05
-5.26025e-06
-3.54981e-05
-5.5988e-06
-3.31237e-05
-5.89794e-06
-3.06506e-05
-6.15411e-06
-2.80962e-05
-6.36419e-06
-2.54785e-05
-6.52557e-06
-2.28164e-05
-6.6362e-06
-2.01293e-05
-6.69463e-06
-1.7437e-05
-6.70008e-06
-1.47591e-05
-6.65247e-06
-1.21153e-05
-6.55244e-06
-9.52489e-06
-6.40133e-06
-7.00634e-06
-6.20124e-06
-4.57735e-06
-5.95495e-06
-2.25451e-06
-5.66587e-06
-5.30435e-08
-5.33803e-06
2.01348e-06
-4.97602e-06
3.93301e-06
-4.58479e-06
5.69546e-06
-4.16974e-06
7.29273e-06
-3.73645e-06
8.71876e-06
-3.29064e-06
9.96958e-06
-2.83805e-06
1.10433e-05
-2.38429e-06
1.19402e-05
-1.93477e-06
1.26624e-05
-1.49459e-06
1.32138e-05
-1.06839e-06
1.36003e-05
-6.60351e-07
1.3829e-05
-2.74074e-07
1.39085e-05
8.74459e-08
1.38485e-05
4.21852e-07
1.36595e-05
7.2743e-07
1.33526e-05
1.00309e-06
1.29394e-05
1.24835e-06
1.24317e-05
1.46324e-06
1.18413e-05
1.64829e-06
1.11797e-05
1.80435e-06
1.04585e-05
1.93256e-06
9.68856e-06
2.03414e-06
8.88076e-06
2.1103e-06
8.04554e-06
2.16202e-06
7.19322e-06
2.18988e-06
6.33413e-06
2.19389e-06
5.47885e-06
2.17331e-06
4.63846e-06
2.12649e-06
3.82485e-06
2.05077e-06
3.05093e-06
1.94255e-06
2.33076e-06
1.79748e-06
1.67953e-06
1.611e-06
1.11323e-06
1.37949e-06
6.47898e-07
1.10225e-06
2.98664e-07
7.84563e-07
7.87044e-08
4.42563e-07
1.15333e-07
4.6036e-08
-1.41194e-07
1.48579e-07
-3.4892e-07
2.83473e-07
-4.86445e-07
4.32578e-07
-5.6157e-07
5.8143e-07
-5.8389e-07
7.18409e-07
-5.63286e-07
8.34256e-07
-5.0897e-07
9.21697e-07
-4.28977e-07
9.75104e-07
-3.29958e-07
9.90179e-07
-2.17182e-07
9.6365e-07
-9.46377e-08
8.93005e-07
3.47964e-08
7.76252e-07
1.69177e-07
6.11724e-07
3.07314e-07
3.97924e-07
4.48606e-07
1.33403e-07
5.92897e-07
-1.83323e-07
7.40345e-07
-5.53836e-07
8.91325e-07
-9.79846e-07
1.04634e-06
-1.46321e-06
1.20596e-06
-2.00592e-06
1.37076e-06
-2.61011e-06
1.54128e-06
-3.278e-06
1.71799e-06
-4.01189e-06
1.90131e-06
-4.81411e-06
2.09149e-06
-5.68697e-06
2.2887e-06
-6.63271e-06
2.49294e-06
-7.65343e-06
2.70407e-06
-8.75105e-06
2.92175e-06
-9.92722e-06
3.14549e-06
-1.11833e-05
3.37457e-06
-1.25201e-05
3.60808e-06
-1.39382e-05
3.84488e-06
-1.54374e-05
4.08363e-06
-1.7017e-05
4.32274e-06
-1.86755e-05
4.56039e-06
-2.04107e-05
4.79457e-06
-2.22196e-05
5.02303e-06
-2.40982e-05
5.24334e-06
-2.60416e-05
5.45287e-06
-2.8044e-05
5.64888e-06
-3.00985e-05
5.82847e-06
-3.21975e-05
5.98865e-06
-3.43319e-05
6.12642e-06
-3.64922e-05
6.23871e-06
-3.86677e-05
6.32254e-06
-4.08468e-05
6.37498e-06
-4.30172e-05
6.39324e-06
-4.5166e-05
6.3747e-06
-4.72795e-05
6.31698e-06
-4.93438e-05
6.21796e-06
-5.13446e-05
6.07585e-06
-5.32671e-05
5.8892e-06
-5.50968e-05
5.65696e-06
-5.68191e-05
5.37852e-06
-5.84198e-05
5.05371e-06
-5.98848e-05
4.68283e-06
-6.12008e-05
4.26668e-06
-6.23551e-05
3.80656e-06
-6.33357e-05
3.30429e-06
-6.41317e-05
2.76217e-06
-6.47331e-05
2.18302e-06
-6.51313e-05
1.57015e-06
-6.53189e-05
9.27362e-07
-6.52897e-05
2.58958e-07
-6.50391e-05
-4.30845e-07
-6.4564e-05
-1.13671e-06
-6.3863e-05
-1.85318e-06
-6.29363e-05
-2.57463e-06
-6.17856e-05
-3.29512e-06
-6.04145e-05
-4.00848e-06
-5.88284e-05
-4.7084e-06
-5.70342e-05
-5.38848e-06
-5.50406e-05
-6.0423e-06
-5.28579e-05
-6.6635e-06
-5.04983e-05
-7.24585e-06
-4.79752e-05
-7.78335e-06
-4.53037e-05
-8.27028e-06
-4.25003e-05
-8.70135e-06
-3.95827e-05
-9.07173e-06
-3.65697e-05
-9.37716e-06
-3.34812e-05
-9.61405e-06
-3.03379e-05
-9.77954e-06
-2.71609e-05
-9.87158e-06
-2.3972e-05
-9.88898e-06
-2.0793e-05
-9.8315e-06
-1.76456e-05
-9.69982e-06
-1.45513e-05
-9.49561e-06
-1.15311e-05
-9.22152e-06
-8.60488e-06
-8.88113e-06
-5.79182e-06
-8.47893e-06
-3.10961e-06
-8.02024e-06
-5.74456e-07
-7.51117e-06
1.7992e-06
-6.95845e-06
3.99878e-06
-6.36933e-06
6.01381e-06
-5.75147e-06
7.83595e-06
-5.11278e-06
9.45915e-06
-4.46125e-06
1.08796e-05
-3.80478e-06
1.20959e-05
-3.15107e-06
1.31088e-05
-2.50744e-06
1.39211e-05
-1.88072e-06
1.45378e-05
-1.27708e-06
1.49657e-05
-7.01982e-07
1.52133e-05
-1.60093e-07
1.52903e-05
3.44794e-07
1.5208e-05
8.09761e-07
1.49783e-05
1.23276e-06
1.46141e-05
1.61259e-06
1.41285e-05
1.94881e-06
1.35352e-05
2.24167e-06
1.28475e-05
2.49197e-06
1.20792e-05
2.70091e-06
1.12434e-05
2.86989e-06
1.03534e-05
3.00031e-06
9.42207e-06
3.09337e-06
8.4622e-06
3.14975e-06
7.48665e-06
3.16944e-06
6.5085e-06
3.15146e-06
5.54126e-06
3.09372e-06
4.59916e-06
2.99287e-06
3.69733e-06
2.84439e-06
2.85193e-06
2.64287e-06
2.08024e-06
2.38269e-06
1.40051e-06
2.05922e-06
8.31804e-07
1.67095e-06
3.93955e-07
1.22241e-06
1.0814e-07
7.28378e-07
2.23473e-07
4.59877e-08
-1.87182e-07
1.46787e-07
-4.4972e-07
2.76156e-07
-6.15813e-07
4.14453e-07
-6.99868e-07
5.46353e-07
-7.1579e-07
6.59777e-07
-6.7671e-07
7.45199e-07
-5.94391e-07
7.95125e-07
-4.78902e-07
8.03688e-07
-3.38522e-07
7.663e-07
-1.79794e-07
6.79339e-07
-7.67608e-09
5.39886e-07
1.74249e-07
3.45493e-07
3.6357e-07
9.39994e-08
5.58808e-07
-2.16618e-07
7.59224e-07
-5.88356e-07
9.64634e-07
-1.02326e-06
1.17525e-06
-1.52348e-06
1.39155e-06
-2.0913e-06
1.61416e-06
-2.72912e-06
1.84378e-06
-3.43948e-06
2.08112e-06
-4.22501e-06
2.32681e-06
-5.08842e-06
2.5814e-06
-6.03242e-06
2.84531e-06
-7.0597e-06
3.11877e-06
-8.17285e-06
3.40186e-06
-9.37432e-06
3.69441e-06
-1.06663e-05
3.99606e-06
-1.20507e-05
4.30616e-06
-1.3529e-05
4.62381e-06
-1.51023e-05
4.94784e-06
-1.6771e-05
5.27677e-06
-1.85349e-05
5.6088e-06
-2.03932e-05
5.94186e-06
-2.23439e-05
6.27352e-06
-2.43846e-05
6.6011e-06
-2.65117e-05
6.92159e-06
-2.87204e-05
7.23173e-06
-3.10051e-05
7.52802e-06
-3.33589e-05
7.80673e-06
-3.5774e-05
8.06399e-06
-3.82413e-05
8.29578e-06
-4.07507e-05
8.49803e-06
-4.3291e-05
8.66667e-06
-4.58499e-05
8.79764e-06
-4.84144e-05
8.88702e-06
-5.09705e-05
8.93108e-06
-5.35035e-05
8.92629e-06
-5.59983e-05
8.86946e-06
-5.8439e-05
8.75775e-06
-6.08098e-05
8.58873e-06
-6.30944e-05
8.36047e-06
-6.52768e-05
8.07153e-06
-6.73408e-05
7.72103e-06
-6.9271e-05
7.30867e-06
-7.1052e-05
6.83476e-06
-7.26694e-05
6.30024e-06
-7.41094e-05
5.70666e-06
-7.53591e-05
5.05624e-06
-7.64066e-05
4.35179e-06
-7.72412e-05
3.59675e-06
-7.78533e-05
2.79517e-06
-7.82348e-05
1.95166e-06
-7.83789e-05
1.07145e-06
-7.82806e-05
1.60662e-07
-7.79354e-05
-7.76099e-07
-7.73413e-05
-1.73075e-06
-7.64979e-05
-2.69664e-06
-7.5406e-05
-3.66649e-06
-7.40684e-05
-4.63271e-06
-7.24895e-05
-5.58743e-06
-7.06752e-05
-6.52266e-06
-6.86334e-05
-7.43031e-06
-6.63734e-05
-8.30228e-06
-6.39063e-05
-9.13057e-06
-6.12449e-05
-9.90733e-06
-5.84032e-05
-1.0625e-05
-5.53972e-05
-1.12764e-05
-5.22438e-05
-1.18547e-05
-4.89616e-05
-1.23539e-05
-4.55702e-05
-1.27685e-05
-4.20904e-05
-1.30939e-05
-3.85437e-05
-1.33262e-05
-3.49525e-05
-1.34628e-05
-3.13397e-05
-1.35018e-05
-2.77284e-05
-1.34428e-05
-2.41418e-05
-1.32864e-05
-2.0603e-05
-1.30344e-05
-1.71348e-05
-1.26898e-05
-1.37591e-05
-1.22569e-05
-1.04969e-05
-1.17411e-05
-7.36823e-06
-1.11489e-05
-4.39142e-06
-1.0488e-05
-1.58328e-06
-9.76659e-06
1.04128e-06
-8.99389e-06
3.46942e-06
-8.1796e-06
5.69046e-06
-7.33383e-06
7.6961e-06
-6.46688e-06
9.4804e-06
-5.58908e-06
1.10399e-05
-4.71054e-06
1.23734e-05
-3.84101e-06
1.34824e-05
-2.98969e-06
1.43704e-05
-2.16504e-06
1.5043e-05
-1.37465e-06
1.55081e-05
-6.25146e-07
1.5775e-05
7.78991e-08
1.58547e-05
7.30051e-07
1.57595e-05
1.32796e-06
1.55027e-05
1.86938e-06
1.50984e-05
2.35309e-06
1.45613e-05
2.7788e-06
1.39063e-05
3.14695e-06
1.31487e-05
3.45857e-06
1.23035e-05
3.71506e-06
1.13859e-05
3.91786e-06
1.04111e-05
4.06823e-06
9.3939e-06
4.16692e-06
8.34948e-06
4.21385e-06
7.29311e-06
4.20784e-06
6.24045e-06
4.14638e-06
5.20778e-06
4.02554e-06
4.21222e-06
3.83996e-06
3.27185e-06
3.58324e-06
2.40596e-06
3.24857e-06
1.6352e-06
2.82998e-06
9.81938e-07
2.32422e-06
4.71011e-07
1.73334e-06
1.31315e-07
1.06807e-06
3.54789e-07
4.28404e-08
-2.30023e-07
1.34511e-07
-5.4139e-07
2.48131e-07
-7.29433e-07
3.63451e-07
-8.15187e-07
4.64825e-07
-8.17166e-07
5.40087e-07
-7.51972e-07
5.79724e-07
-6.34028e-07
5.76267e-07
-4.75445e-07
5.23815e-07
-2.86069e-07
4.17652e-07
-7.36308e-08
2.53932e-07
1.56043e-07
2.94098e-08
3.98772e-07
-2.58769e-07
6.51749e-07
-6.13246e-07
9.13284e-07
-1.03658e-06
1.18255e-06
-1.53132e-06
1.45938e-06
-2.10013e-06
1.74405e-06
-2.74573e-06
2.03715e-06
-3.47101e-06
2.33943e-06
-4.27894e-06
2.65171e-06
-5.17258e-06
2.97476e-06
-6.15508e-06
3.30931e-06
-7.22957e-06
3.65588e-06
-8.39912e-06
4.01486e-06
-9.66671e-06
4.38636e-06
-1.10351e-05
4.77027e-06
-1.25069e-05
5.16615e-06
-1.40841e-05
5.57327e-06
-1.57685e-05
5.99055e-06
-1.75612e-05
6.41654e-06
-1.94628e-05
6.84941e-06
-2.14729e-05
7.28694e-06
-2.35907e-05
7.72652e-06
-2.58139e-05
8.16512e-06
-2.81397e-05
8.59931e-06
-3.05639e-05
9.02532e-06
-3.30813e-05
9.43899e-06
-3.56854e-05
9.83587e-06
-3.83686e-05
1.02112e-05
-4.1122e-05
1.05601e-05
-4.39354e-05
1.08774e-05
-4.67974e-05
1.11578e-05
-4.96957e-05
1.13963e-05
-5.26167e-05
1.15877e-05
-5.55459e-05
1.17269e-05
-5.84681e-05
1.18091e-05
-6.1367e-05
1.183e-05
-6.42262e-05
1.17855e-05
-6.70285e-05
1.16718e-05
-6.97568e-05
1.1486e-05
-7.23936e-05
1.12255e-05
-7.49216e-05
1.08885e-05
-7.73239e-05
1.04738e-05
-7.95839e-05
9.981e-06
-8.16855e-05
9.41026e-06
-8.36134e-05
8.76264e-06
-8.53531e-05
8.03992e-06
-8.6891e-05
7.24462e-06
-8.82148e-05
6.37999e-06
-8.9313e-05
5.45002e-06
-9.01756e-05
4.45936e-06
-9.07938e-05
3.41338e-06
-9.11602e-05
2.31802e-06
-9.12684e-05
1.17967e-06
-9.11156e-05
7.85889e-09
-9.06959e-05
-1.19578e-06
-9.00095e-05
-2.41715e-06
-8.90561e-05
-3.65003e-06
-8.78373e-05
-4.88538e-06
-8.6356e-05
-6.11396e-06
-8.46171e-05
-7.32633e-06
-8.26269e-05
-8.51288e-06
-8.03933e-05
-9.66391e-06
-7.79258e-05
-1.07697e-05
-7.52357e-05
-1.18207e-05
-7.23356e-05
-1.28074e-05
-6.92398e-05
-1.37208e-05
-6.59641e-05
-1.45521e-05
-6.25257e-05
-1.52931e-05
-5.89432e-05
-1.59364e-05
-5.52364e-05
-1.64753e-05
-5.14265e-05
-1.69038e-05
-4.75354e-05
-1.72173e-05
-4.35861e-05
-1.74121e-05
-3.96021e-05
-1.74858e-05
-3.56076e-05
-1.74373e-05
-3.1627e-05
-1.72671e-05
-2.76845e-05
-1.69768e-05
-2.38044e-05
-1.65699e-05
-2.00102e-05
-1.6051e-05
-1.63249e-05
-1.54264e-05
-1.27703e-05
-1.47036e-05
-9.36692e-06
-1.38914e-05
-6.1338e-06
-1.29997e-05
-3.08816e-06
-1.20395e-05
-2.45207e-07
-1.10226e-05
2.38204e-06
-9.96108e-06
4.78288e-06
-8.86772e-06
6.94906e-06
-7.75526e-06
8.87488e-06
-6.63635e-06
1.05572e-05
-5.5233e-06
1.19953e-05
-4.42784e-06
1.31912e-05
-3.36089e-06
1.4149e-05
-2.33245e-06
1.48752e-05
-1.35137e-06
1.53783e-05
-4.2526e-07
1.56688e-05
4.39573e-07
1.57586e-05
1.23819e-06
1.5661e-05
1.96698e-06
1.53905e-05
2.62361e-06
1.49624e-05
3.20691e-06
1.43926e-05
3.71672e-06
1.36975e-05
4.15362e-06
1.28938e-05
4.51875e-06
1.19983e-05
4.81342e-06
1.10277e-05
5.03881e-06
9.99904e-06
5.1956e-06
8.92929e-06
5.2836e-06
7.83572e-06
5.30141e-06
6.73593e-06
5.24617e-06
5.64809e-06
5.11337e-06
4.59116e-06
4.8969e-06
3.5851e-06
4.5893e-06
2.65126e-06
4.18242e-06
1.81279e-06
3.66846e-06
1.09541e-06
3.04159e-06
5.28727e-07
2.30003e-06
1.48279e-07
1.44852e-06
5.03068e-07
3.72121e-08
-2.67235e-07
1.13419e-07
-6.17598e-07
2.02199e-07
-8.18213e-07
2.83514e-07
-8.96502e-07
3.41962e-07
-8.75614e-07
3.65669e-07
-7.75679e-07
3.45423e-07
-6.13782e-07
2.73997e-07
-4.04018e-07
1.45629e-07
-1.57701e-07
-4.43866e-08
1.16384e-07
-3.00022e-07
4.11679e-07
-6.24777e-07
7.23527e-07
-1.02188e-06
1.04885e-06
-1.49442e-06
1.38583e-06
-2.0455e-06
1.73363e-06
-2.67826e-06
2.09214e-06
-3.39594e-06
2.46173e-06
-4.2019e-06
2.84311e-06
-5.0996e-06
3.23713e-06
-6.09259e-06
3.6447e-06
-7.18446e-06
4.06664e-06
-8.37881e-06
4.50365e-06
-9.67914e-06
4.95622e-06
-1.10888e-05
5.42455e-06
-1.2611e-05
5.90857e-06
-1.42486e-05
6.40783e-06
-1.6004e-05
6.92151e-06
-1.7879e-05
7.44834e-06
-1.98751e-05
7.98665e-06
-2.19929e-05
8.53426e-06
-2.4232e-05
9.08852e-06
-2.65913e-05
9.64627e-06
-2.90686e-05
1.02039e-05
-3.16607e-05
1.07572e-05
-3.43629e-05
1.13015e-05
-3.71695e-05
1.18319e-05
-4.00734e-05
1.23429e-05
-4.30661e-05
1.28286e-05
-4.61378e-05
1.3283e-05
-4.92776e-05
1.36998e-05
-5.2473e-05
1.40727e-05
-5.57105e-05
1.43953e-05
-5.89753e-05
1.46612e-05
-6.2252e-05
1.48643e-05
-6.55238e-05
1.49988e-05
-6.87738e-05
1.50591e-05
-7.19841e-05
1.50403e-05
-7.51367e-05
1.4938e-05
-7.82133e-05
1.47484e-05
-8.11956e-05
1.44683e-05
-8.40656e-05
1.40955e-05
-8.68055e-05
1.36285e-05
-8.93981e-05
1.30665e-05
-9.18268e-05
1.24097e-05
-9.40758e-05
1.16592e-05
-9.61301e-05
1.0817e-05
-9.79759e-05
9.88568e-06
-9.96002e-05
8.86894e-06
-0.000100991
7.77116e-06
-0.000102139
6.59751e-06
-0.000103033
5.35393e-06
-0.000103667
4.04704e-06
-0.000104033
2.68412e-06
-0.000104127
1.27316e-06
-0.000103942
-1.76848e-07
-0.000103479
-1.65867e-06
-0.000102735
-3.16102e-06
-0.000101711
-4.67443e-06
-0.000100408
-6.18861e-06
-9.88286e-05
-7.69291e-06
-9.69786e-05
-9.17641e-06
-9.48634e-05
-1.0628e-05
-9.24909e-05
-1.20365e-05
-8.987e-05
-1.33906e-05
-8.70116e-05
-1.46791e-05
-8.39278e-05
-1.58912e-05
-8.06324e-05
-1.70161e-05
-7.71409e-05
-1.80436e-05
-7.347e-05
-1.89641e-05
-6.9638e-05
-1.97684e-05
-6.56646e-05
-2.04486e-05
-6.15709e-05
-2.09976e-05
-5.73789e-05
-2.14093e-05
-5.3112e-05
-2.1679e-05
-4.87941e-05
-2.18036e-05
-4.44502e-05
-2.17813e-05
-4.01054e-05
-2.16118e-05
-3.57853e-05
-2.1297e-05
-3.15153e-05
-2.08399e-05
-2.73206e-05
-2.02457e-05
-2.32259e-05
-1.95211e-05
-1.9255e-05
-1.86745e-05
-1.54304e-05
-1.77159e-05
-1.17735e-05
-1.66566e-05
-8.30369e-06
-1.55093e-05
-5.03867e-06
-1.42876e-05
-1.9939e-06
-1.30058e-05
8.17476e-07
-1.16791e-05
3.3848e-06
-1.03226e-05
5.69998e-06
-8.95154e-06
7.7576e-06
-7.58093e-06
9.55492e-06
-6.22515e-06
1.10918e-05
-4.89781e-06
1.23708e-05
-3.61146e-06
1.33969e-05
-2.37742e-06
1.41773e-05
-1.20563e-06
1.47214e-05
-1.04519e-07
1.50405e-05
9.19078e-07
1.51476e-05
1.85985e-06
1.50572e-05
2.71406e-06
1.47847e-05
3.47935e-06
1.43468e-05
4.15462e-06
1.37607e-05
4.73977e-06
1.3044e-05
5.23541e-06
1.22149e-05
5.64249e-06
1.12918e-05
5.96194e-06
1.02932e-05
6.19425e-06
9.23774e-06
6.33902e-06
8.14456e-06
6.3946e-06
7.033e-06
6.35773e-06
5.92301e-06
6.22336e-06
4.83532e-06
5.98459e-06
3.79178e-06
5.63284e-06
2.81581e-06
5.15839e-06
1.93305e-06
4.55121e-06
1.17242e-06
3.80222e-06
5.6763e-07
2.90482e-06
1.59475e-07
1.85668e-06
6.62543e-07
2.95219e-08
-2.96757e-07
8.47613e-08
-6.72837e-07
1.40582e-07
-8.74034e-07
1.77873e-07
-9.33793e-07
1.82015e-07
-8.79755e-07
1.41821e-07
-7.35486e-07
4.86665e-08
-5.20628e-07
-1.04223e-07
-2.51129e-07
-3.22307e-07
6.03825e-08
-6.10165e-07
4.04242e-07
-9.71814e-07
7.73328e-07
-1.41095e-06
1.16267e-06
-1.93115e-06
1.56904e-06
-2.53594e-06
1.99062e-06
-3.22895e-06
2.42664e-06
-4.0139e-06
2.87709e-06
-4.89464e-06
3.34248e-06
-5.87515e-06
3.82362e-06
-6.95947e-06
4.32146e-06
-8.15171e-06
4.83693e-06
-9.45594e-06
5.37087e-06
-1.08761e-05
5.92386e-06
-1.24162e-05
6.49623e-06
-1.40796e-05
7.08795e-06
-1.58695e-05
7.69856e-06
-1.77889e-05
8.32718e-06
-1.98398e-05
8.97241e-06
-2.20238e-05
9.63233e-06
-2.43416e-05
1.03044e-05
-2.6793e-05
1.09857e-05
-2.93768e-05
1.16723e-05
-3.20907e-05
1.23602e-05
-3.49311e-05
1.30443e-05
-3.78931e-05
1.37192e-05
-4.09706e-05
1.4379e-05
-4.41557e-05
1.50171e-05
-4.74395e-05
1.56267e-05
-5.08115e-05
1.62005e-05
-5.42597e-05
1.67312e-05
-5.77708e-05
1.7211e-05
-6.13305e-05
1.76324e-05
-6.4923e-05
1.79878e-05
-6.85317e-05
1.82699e-05
-7.21393e-05
1.84719e-05
-7.57275e-05
1.8587e-05
-7.92779e-05
1.86094e-05
-8.27714e-05
1.85339e-05
-8.61891e-05
1.83558e-05
-8.95122e-05
1.80714e-05
-9.27219e-05
1.76781e-05
-9.58001e-05
1.71737e-05
-9.87292e-05
1.65575e-05
-0.000101492
1.58294e-05
-0.000104073
1.49905e-05
-0.000106456
1.40427e-05
-0.000108629
1.2989e-05
-0.000110576
1.18332e-05
-0.000112287
1.05799e-05
-0.000113751
9.23477e-06
-0.000114957
7.80411e-06
-0.000115898
6.29502e-06
-0.000116567
4.71532e-06
-0.000116956
3.07352e-06
-0.000117062
1.37877e-06
-0.000116879
-3.59101e-07
-0.000116407
-2.13055e-06
-0.000115644
-3.92408e-06
-0.00011459
-5.72866e-06
-0.000113246
-7.53269e-06
-0.000111615
-9.32419e-06
-0.0001097
-1.10909e-05
-0.000107508
-1.28203e-05
-0.000105045
-1.44998e-05
-0.000102319
-1.61166e-05
-9.93398e-05
-1.7658e-05
-9.61194e-05
-1.91116e-05
-9.26704e-05
-2.04651e-05
-8.90074e-05
-2.17066e-05
-8.51465e-05
-2.28249e-05
-8.11054e-05
-2.38095e-05
-7.69034e-05
-2.46507e-05
-7.2561e-05
-2.53399e-05
-6.81005e-05
-2.58698e-05
-6.3545e-05
-2.62344e-05
-5.89192e-05
-2.64295e-05
-5.42483e-05
-2.64522e-05
-4.95584e-05
-2.63017e-05
-4.48761e-05
-2.59792e-05
-4.02283e-05
-2.54877e-05
-3.56417e-05
-2.48323e-05
-3.11426e-05
-2.40201e-05
-2.67569e-05
-2.30602e-05
-2.25093e-05
-2.19635e-05
-1.84234e-05
-2.07426e-05
-1.45211e-05
-1.94116e-05
-1.08225e-05
-1.79862e-05
-7.34564e-06
-1.64827e-05
-4.10621e-06
-1.49185e-05
-1.11741e-06
-1.33114e-05
1.6102e-06
-1.16791e-05
4.06881e-06
-1.00395e-05
6.25342e-06
-8.40976e-06
8.16183e-06
-6.80622e-06
9.7946e-06
-5.24423e-06
1.1155e-05
-3.73781e-06
1.22488e-05
-2.29944e-06
1.30842e-05
-9.39953e-07
1.36717e-05
3.3162e-07
1.40235e-05
1.50803e-06
1.41538e-05
2.58378e-06
1.40781e-05
3.55506e-06
1.38132e-05
4.41953e-06
1.33768e-05
5.17611e-06
1.27876e-05
5.82462e-06
1.20647e-05
6.36544e-06
1.12276e-05
6.79904e-06
1.02963e-05
7.12555e-06
9.29104e-06
7.34426e-06
8.23247e-06
7.45317e-06
7.14158e-06
7.44861e-06
6.04002e-06
7.32492e-06
4.95027e-06
7.07434e-06
3.89603e-06
6.68708e-06
2.90276e-06
6.15166e-06
1.99847e-06
5.4555e-06
1.21488e-06
4.58581e-06
5.89027e-07
3.53068e-06
1.6547e-07
2.28023e-06
8.28013e-07
2.00401e-08
-3.16796e-07
4.94242e-08
-7.02222e-07
6.49525e-08
-8.89562e-07
4.90583e-08
-9.17898e-07
-1.15944e-08
-8.19103e-07
-1.27113e-07
-6.19967e-07
-3.05252e-07
-3.42489e-07
-5.5213e-07
-4.25073e-09
-8.7274e-07
3.80993e-07
-1.27144e-06
8.02945e-07
-1.75222e-06
1.25411e-06
-2.31894e-06
1.72938e-06
-2.97546e-06
2.22556e-06
-3.72577e-06
2.74093e-06
-4.57401e-06
3.27488e-06
-5.52449e-06