/*--------------------------------*- C++ -*----------------------------------*\
| =========                 |                                                 |
| \\      /  F ield         | OpenFOAM: The Open Source CFD Toolbox           |
|  \\    /   O peration     | Version:  2112                                  |
|   \\  /    A nd           | Website:  www.openfoam.com                      |
|    \\/     M anipulation  |                                                 |
\*---------------------------------------------------------------------------*/
FoamFile
{
    version     2.0;
    format      ascii;
    arch        "LSB;label=32;scalar=64";
    class       volVectorField;
    location    "19";
    object      U;
}
// * * * * * * * * * * * * * * * * * * * * * * * * * * * * * * * * * * * * * //

dimensions      [0 1 -1 0 0 0 0];

internalField   nonuniform List<vector> 
16641
(
(-2.29255e-06 2.12372e-06 0)
(8.56326e-06 -6.37505e-06 0)
(4.37528e-05 -1.41109e-05 0)
(9.32451e-05 -1.85734e-05 0)
(0.000150329 -2.04611e-05 0)
(0.000209743 -2.06129e-05 0)
(0.000267589 -1.96484e-05 0)
(0.000321207 -1.80039e-05 0)
(0.000368872 -1.59705e-05 0)
(0.000409515 -1.37378e-05 0)
(0.000442514 -1.14268e-05 0)
(0.000467554 -9.11088e-06 0)
(0.00048451 -6.83226e-06 0)
(0.00049337 -4.61053e-06 0)
(0.000494176 -2.44738e-06 0)
(0.000486976 -3.35821e-07 0)
(0.000471799 1.7381e-06 0)
(0.000448635 3.79267e-06 0)
(0.00041742 5.8481e-06 0)
(0.000378035 7.92593e-06 0)
(0.000330299 1.00471e-05 0)
(0.000273973 1.22312e-05 0)
(0.000208759 1.44974e-05 0)
(0.000134311 1.68632e-05 0)
(5.02355e-05 1.93444e-05 0)
(-4.39026e-05 2.19549e-05 0)
(-0.000148569 2.47073e-05 0)
(-0.000264257 2.76116e-05 0)
(-0.000391476 3.06758e-05 0)
(-0.000530742 3.39058e-05 0)
(-0.000682572 3.73048e-05 0)
(-0.000847468 4.08726e-05 0)
(-0.00102591 4.46062e-05 0)
(-0.00121834 4.84992e-05 0)
(-0.00142514 5.25413e-05 0)
(-0.00164665 5.67177e-05 0)
(-0.00188312 6.10096e-05 0)
(-0.00213469 6.53937e-05 0)
(-0.0024014 6.98422e-05 0)
(-0.00268318 7.43216e-05 0)
(-0.0029798 7.87936e-05 0)
(-0.00329088 8.32149e-05 0)
(-0.00361586 8.75374e-05 0)
(-0.00395401 9.1708e-05 0)
(-0.00430438 9.56687e-05 0)
(-0.00466585 9.93575e-05 0)
(-0.00503703 0.000102709 0)
(-0.00541636 0.000105653 0)
(-0.00580203 0.000108118 0)
(-0.00619199 0.000110031 0)
(-0.00658398 0.000111318 0)
(-0.00697554 0.000111905 0)
(-0.00736396 0.000111719 0)
(-0.00774636 0.000110692 0)
(-0.0081197 0.000108759 0)
(-0.00848075 0.000105859 0)
(-0.00882619 0.000101942 0)
(-0.00915258 9.69645e-05 0)
(-0.00945642 9.08944e-05 0)
(-0.0097342 8.37114e-05 0)
(-0.00998243 7.54089e-05 0)
(-0.0101977 6.59948e-05 0)
(-0.0103766 5.54943e-05 0)
(-0.0105161 4.39514e-05 0)
(-0.0106132 3.14344e-05 0)
(-0.0106653 1.80339e-05 0)
(-0.01067 3.81307e-06 0)
(-0.0106253 -1.11303e-05 0)
(-0.0105296 -2.66219e-05 0)
(-0.010382 -4.25074e-05 0)
(-0.0101818 -5.86205e-05 0)
(-0.00992898 -7.47789e-05 0)
(-0.00962412 -9.07869e-05 0)
(-0.00926837 -0.00010644 0)
(-0.00886351 -0.000121526 0)
(-0.00841191 -0.000135834 0)
(-0.00791659 -0.000149153 0)
(-0.00738113 -0.000161279 0)
(-0.00680971 -0.000172019 0)
(-0.006207 -0.000181198 0)
(-0.00557816 -0.00018866 0)
(-0.00492873 -0.000194276 0)
(-0.00426458 -0.000197946 0)
(-0.00359184 -0.0001996 0)
(-0.00291674 -0.000199207 0)
(-0.00224559 -0.000196771 0)
(-0.00158463 -0.000192332 0)
(-0.000939916 -0.00018597 0)
(-0.000317204 -0.000177811 0)
(0.000278037 -0.00016804 0)
(0.000840789 -0.00015671 0)
(0.00136669 -0.000144149 0)
(0.00185194 -0.000130544 0)
(0.00229336 -0.000116128 0)
(0.00268848 -0.000101147 0)
(0.00303559 -8.58498e-05 0)
(0.00333367 -7.04777e-05 0)
(0.00358244 -5.52611e-05 0)
(0.00378228 -4.04135e-05 0)
(0.00393421 -2.61278e-05 0)
(0.00403984 -1.25718e-05 0)
(0.0041013 1.14743e-07 0)
(0.00412113 1.18209e-05 0)
(0.00410225 2.24582e-05 0)
(0.00404782 3.19811e-05 0)
(0.00396122 4.0365e-05 0)
(0.00384591 4.76119e-05 0)
(0.00370538 5.37478e-05 0)
(0.00354308 5.882e-05 0)
(0.00336235 6.28932e-05 0)
(0.00316638 6.60455e-05 0)
(0.00295813 6.83648e-05 0)
(0.00274037 6.99433e-05 0)
(0.00251561 7.08726e-05 0)
(0.00228615 7.12377e-05 0)
(0.00205405 7.11099e-05 0)
(0.00182126 7.05389e-05 0)
(0.00158963 6.95424e-05 0)
(0.00136102 6.80948e-05 0)
(0.00113748 6.61126e-05 0)
(0.000921378 6.34373e-05 0)
(0.000715611 5.98143e-05 0)
(0.000523862 5.48704e-05 0)
(0.000350833 4.8095e-05 0)
(0.000202463 3.88596e-05 0)
(8.58269e-05 2.65758e-05 0)
(8.28923e-06 1.11962e-05 0)
(-2.41641e-05 -5.33014e-06 0)
(-1.42603e-05 -1.42855e-05 0)
(6.33357e-06 -8.68792e-06 0)
(4.80754e-05 -4.80345e-05 0)
(0.000136371 -8.0671e-05 0)
(0.000252145 -0.000100626 0)
(0.00038227 -0.000109565 0)
(0.000516502 -0.000110105 0)
(0.000646441 -0.000104594 0)
(0.000765744 -9.49282e-05 0)
(0.000869903 -8.25324e-05 0)
(0.000955838 -6.84364e-05 0)
(0.00102153 -5.33583e-05 0)
(0.00106572 -3.77791e-05 0)
(0.00108767 -2.19998e-05 0)
(0.00108695 -6.1875e-06 0)
(0.00106331 9.59247e-06 0)
(0.00101658 2.53425e-05 0)
(0.000946548 4.11142e-05 0)
(0.000852938 5.69904e-05 0)
(0.00073537 7.30723e-05 0)
(0.000593338 8.94707e-05 0)
(0.0004262 0.000106297 0)
(0.000233181 0.00012366 0)
(1.33788e-05 0.00014166 0)
(-0.000234223 0.00016039 0)
(-0.000510743 0.00017993 0)
(-0.00081738 0.000200347 0)
(-0.00115539 0.000221695 0)
(-0.00152609 0.000244012 0)
(-0.00193077 0.000267316 0)
(-0.00237073 0.000291611 0)
(-0.00284724 0.000316876 0)
(-0.00336147 0.000343071 0)
(-0.00391449 0.00037013 0)
(-0.00450723 0.000397962 0)
(-0.00514041 0.000426451 0)
(-0.00581457 0.00045545 0)
(-0.00652994 0.000484783 0)
(-0.00728648 0.000514244 0)
(-0.00808378 0.000543599 0)
(-0.00892106 0.000572582 0)
(-0.0097971 0.000600896 0)
(-0.0107102 0.000628219 0)
(-0.0116583 0.000654199 0)
(-0.0126386 0.000678464 0)
(-0.0136479 0.000700617 0)
(-0.0146824 0.000720247 0)
(-0.0157377 0.000736926 0)
(-0.0168089 0.000750223 0)
(-0.0178905 0.000759701 0)
(-0.0189764 0.000764927 0)
(-0.0200599 0.000765482 0)
(-0.021134 0.000760962 0)
(-0.0221911 0.000750988 0)
(-0.0232232 0.000735218 0)
(-0.0242219 0.000713348 0)
(-0.0251786 0.000685124 0)
(-0.0260846 0.000650351 0)
(-0.0269309 0.000608896 0)
(-0.0277087 0.000560701 0)
(-0.0284089 0.000505786 0)
(-0.0290232 0.000444253 0)
(-0.0295431 0.000376297 0)
(-0.0299608 0.000302206 0)
(-0.0302689 0.000222366 0)
(-0.0304608 0.000137257 0)
(-0.0305307 4.74572e-05 0)
(-0.0304735 -4.63548e-05 0)
(-0.0302852 -0.000143408 0)
(-0.029963 -0.000242836 0)
(-0.0295052 -0.0003437 0)
(-0.0289113 -0.000444991 0)
(-0.0281824 -0.000545636 0)
(-0.0273206 -0.000644517 0)
(-0.0263298 -0.000740481 0)
(-0.025215 -0.000832364 0)
(-0.0239829 -0.000919006 0)
(-0.0226414 -0.000999274 0)
(-0.0211998 -0.00107208 0)
(-0.0196687 -0.00113641 0)
(-0.0180598 -0.00119134 0)
(-0.0163858 -0.00123605 0)
(-0.0146604 -0.00126988 0)
(-0.0128979 -0.00129229 0)
(-0.0111132 -0.00130293 0)
(-0.00932155 -0.00130162 0)
(-0.0075382 -0.00128839 0)
(-0.00577834 -0.00126345 0)
(-0.00405681 -0.00122718 0)
(-0.00238783 -0.00118021 0)
(-0.000784802 -0.00112336 0)
(0.000739646 -0.00105745 0)
(0.00217427 -0.000983585 0)
(0.00350931 -0.000902979 0)
(0.00473626 -0.000816924 0)
(0.00584828 -0.000726748 0)
(0.00684022 -0.000633816 0)
(0.0077086 -0.00053949 0)
(0.00845164 -0.000445095 0)
(0.00906923 -0.00035189 0)
(0.00956283 -0.000261044 0)
(0.00993535 -0.000173608 0)
(0.0101911 -9.05006e-05 0)
(0.0103354 -1.2495e-05 0)
(0.0103749 5.97865e-05 0)
(0.0103167 0.000125891 0)
(0.0101688 0.000185517 0)
(0.00993937 0.000238517 0)
(0.00963707 0.000284882 0)
(0.00927049 0.000324735 0)
(0.00884813 0.000358305 0)
(0.00837829 0.000385915 0)
(0.0078689 0.000407948 0)
(0.00732749 0.000424828 0)
(0.00676111 0.000436981 0)
(0.00617637 0.000444804 0)
(0.0055795 0.000448623 0)
(0.00497641 0.000448645 0)
(0.0043729 0.000444911 0)
(0.00377488 0.000437239 0)
(0.00318862 0.000425166 0)
(0.00262116 0.000407891 0)
(0.0020806 0.000384229 0)
(0.00157648 0.000352602 0)
(0.00112008 0.0003111 0)
(0.000724379 0.000257783 0)
(0.000403316 0.000191495 0)
(0.000169699 0.00011365 0)
(3.29082e-05 3.23773e-05 0)
(-5.1887e-06 -2.42161e-05 0)
(1.42991e-05 -4.39473e-05 0)
(8.12758e-05 -0.000136447 0)
(0.000208036 -0.000207288 0)
(0.00036726 -0.000250885 0)
(0.000541708 -0.000270096 0)
(0.000718555 -0.00026964 0)
(0.000886899 -0.00025424 0)
(0.00103813 -0.000228007 0)
(0.00116584 -0.000194237 0)
(0.00126542 -0.000155438 0)
(0.00133363 -0.000113439 0)
(0.00136828 -6.95164e-05 0)
(0.00136789 -2.44978e-05 0)
(0.00133145 2.11337e-05 0)
(0.00125822 6.7146e-05 0)
(0.00114756 0.000113503 0)
(0.000998828 0.0001603 0)
(0.000811315 0.000207724 0)
(0.000584167 0.000256013 0)
(0.000316368 0.000305434 0)
(6.72644e-06 0.00035626 0)
(-0.000346122 0.000408756 0)
(-0.000743707 0.000463171 0)
(-0.0011877 0.000519722 0)
(-0.00167989 0.000578597 0)
(-0.00222217 0.000639943 0)
(-0.00281647 0.000703865 0)
(-0.00346474 0.000770418 0)
(-0.00416891 0.000839608 0)
(-0.00493083 0.000911383 0)
(-0.00575225 0.000985627 0)
(-0.00663472 0.00106216 0)
(-0.00757957 0.00114074 0)
(-0.00858784 0.00122103 0)
(-0.00966023 0.00130263 0)
(-0.010797 0.00138507 0)
(-0.011998 0.00146776 0)
(-0.0132625 0.00155008 0)
(-0.014589 0.00163128 0)
(-0.0159758 0.00171056 0)
(-0.01742 0.00178704 0)
(-0.0189183 0.00185976 0)
(-0.0204663 0.0019277 0)
(-0.0220591 0.00198981 0)
(-0.0236908 0.00204495 0)
(-0.0253545 0.002092 0)
(-0.0270427 0.0021298 0)
(-0.0287469 0.00215718 0)
(-0.0304579 0.00217299 0)
(-0.0321656 0.00217615 0)
(-0.0338593 0.00216558 0)
(-0.0355276 0.0021403 0)
(-0.0371584 0.00209943 0)
(-0.0387395 0.0020422 0)
(-0.0402581 0.00196795 0)
(-0.041701 0.0018762 0)
(-0.0430553 0.00176662 0)
(-0.0443078 0.00163908 0)
(-0.0454456 0.00149364 0)
(-0.0464562 0.00133058 0)
(-0.0473275 0.0011504 0)
(-0.0480481 0.000953826 0)
(-0.0486072 0.000741832 0)
(-0.0489954 0.000515622 0)
(-0.0492039 0.000276609 0)
(-0.0492254 2.64317e-05 0)
(-0.049054 -0.000232791 0)
(-0.048685 -0.000499085 0)
(-0.0481157 -0.000770171 0)
(-0.0473449 -0.00104356 0)
(-0.0463732 -0.00131661 0)
(-0.0452031 -0.00158657 0)
(-0.043839 -0.00185061 0)
(-0.0422871 -0.00210583 0)
(-0.0405555 -0.00234934 0)
(-0.0386544 -0.00257828 0)
(-0.0365956 -0.00278988 0)
(-0.0343927 -0.00298147 0)
(-0.032061 -0.00315061 0)
(-0.0296172 -0.00329505 0)
(-0.0270794 -0.00341283 0)
(-0.0244668 -0.00350232 0)
(-0.0217997 -0.00356226 0)
(-0.0190989 -0.00359178 0)
(-0.0163856 -0.00359044 0)
(-0.0136815 -0.00355826 0)
(-0.0110077 -0.00349572 0)
(-0.00838531 -0.00340376 0)
(-0.00583453 -0.00328379 0)
(-0.00337462 -0.00313766 0)
(-0.00102366 -0.00296766 0)
(0.00120185 -0.00277621 0)
(0.00328717 -0.00256628 0)
(0.00521945 -0.00234107 0)
(0.00698795 -0.00210386 0)
(0.00858415 -0.00185805 0)
(0.0100018 -0.00160709 0)
(0.011237 -0.00135437 0)
(0.0122881 -0.00110317 0)
(0.0131558 -0.000856548 0)
(0.0138429 -0.000617351 0)
(0.0143541 -0.000388106 0)
(0.014696 -0.000171 0)
(0.0148768 3.21525e-05 0)
(0.0149059 0.000219921 0)
(0.0147939 0.000391271 0)
(0.0145523 0.000545558 0)
(0.014193 0.000682504 0)
(0.0137283 0.000802169 0)
(0.0131707 0.000904914 0)
(0.0125323 0.000991346 0)
(0.0118252 0.00106226 0)
(0.0110609 0.00111856 0)
(0.0102505 0.00116118 0)
(0.00940456 0.00119102 0)
(0.00853321 0.00120877 0)
(0.00764621 0.00121489 0)
(0.00675325 0.00120941 0)
(0.00586411 0.00119185 0)
(0.00498911 0.00116109 0)
(0.00413938 0.00111529 0)
(0.00332736 0.00105184 0)
(0.00256701 0.000967469 0)
(0.00187408 0.000858545 0)
(0.00126584 0.000721928 0)
(0.000759993 0.000556723 0)
(0.0003721 0.000367427 0)
(0.000116595 0.000169935 0)
(1.19147e-05 8.9928e-06 0)
(1.90035e-05 -9.39994e-05 0)
(0.0001018 -0.000252767 0)
(0.000252188 -0.000366676 0)
(0.000435447 -0.00043458 0)
(0.000631062 -0.000462034 0)
(0.00082455 -0.000456429 0)
(0.00100358 -0.000425141 0)
(0.00115824 -0.000374708 0)
(0.00128095 -0.000310516 0)
(0.00136606 -0.000236774 0)
(0.00140941 -0.000156625 0)
(0.001408 -7.23036e-05 0)
(0.00135965 1.47023e-05 0)
(0.00126268 0.000103498 0)
(0.00111576 0.000193638 0)
(0.000917662 0.000285018 0)
(0.000667189 0.000377776 0)
(0.000363044 0.000472211 0)
(3.78477e-06 0.000568724 0)
(-0.000412209 0.000667762 0)
(-0.000886748 0.00076979 0)
(-0.00142183 0.000875255 0)
(-0.00201964 0.000984566 0)
(-0.00268248 0.00109808 0)
(-0.00341276 0.00121609 0)
(-0.00421299 0.0013388 0)
(-0.00508567 0.00146635 0)
(-0.00603324 0.00159876 0)
(-0.00705808 0.00173595 0)
(-0.00816239 0.00187773 0)
(-0.00934814 0.00202379 0)
(-0.010617 0.00217368 0)
(-0.0119702 0.00232682 0)
(-0.0134086 0.00248248 0)
(-0.0149324 0.00263977 0)
(-0.0165413 0.00279767 0)
(-0.0182342 0.00295498 0)
(-0.0200093 0.00311037 0)
(-0.0218638 0.00326234 0)
(-0.0237942 0.00340927 0)
(-0.0257958 0.00354941 0)
(-0.027863 0.00368087 0)
(-0.0299891 0.00380169 0)
(-0.0321664 0.00390983 0)
(-0.034386 0.00400318 0)
(-0.0366379 0.00407961 0)
(-0.0389112 0.00413701 0)
(-0.0411939 0.00417328 0)
(-0.0434731 0.00418639 0)
(-0.045735 0.00417444 0)
(-0.0479651 0.00413562 0)
(-0.0501481 0.00406833 0)
(-0.0522683 0.00397117 0)
(-0.0543098 0.00384296 0)
(-0.0562561 0.00368282 0)
(-0.0580909 0.00349014 0)
(-0.059798 0.00326467 0)
(-0.0613613 0.00300648 0)
(-0.0627654 0.00271603 0)
(-0.0639953 0.00239415 0)
(-0.0650371 0.00204209 0)
(-0.0658776 0.00166148 0)
(-0.066505 0.00125435 0)
(-0.0669087 0.000823146 0)
(-0.0670796 0.000370678 0)
(-0.06701 -9.99246e-05 0)
(-0.0666941 -0.000584902 0)
(-0.066128 -0.00108051 0)
(-0.0653098 -0.00158258 0)
(-0.0642392 -0.00208666 0)
(-0.0629185 -0.0025881 0)
(-0.0613518 -0.00308208 0)
(-0.0595454 -0.00356368 0)
(-0.0575077 -0.00402792 0)
(-0.0552496 -0.00446984 0)
(-0.0527835 -0.00488457 0)
(-0.0501242 -0.00526739 0)
(-0.0472884 -0.00561382 0)
(-0.0442945 -0.00591971 0)
(-0.0411627 -0.00618128 0)
(-0.0379144 -0.00639523 0)
(-0.0345726 -0.00655879 0)
(-0.0311612 -0.0066698 0)
(-0.0277049 -0.00672677 0)
(-0.024229 -0.00672892 0)
(-0.020759 -0.00667621 0)
(-0.0173205 -0.00656937 0)
(-0.0139385 -0.00640992 0)
(-0.0106375 -0.00620013 0)
(-0.00744098 -0.00594303 0)
(-0.00437103 -0.00564233 0)
(-0.00144821 -0.00530231 0)
(0.00130873 -0.00492785 0)
(0.00388322 -0.00452429 0)
(0.00626104 -0.00409731 0)
(0.00843039 -0.00365278 0)
(0.0103821 -0.0031967 0)
(0.0121097 -0.00273503 0)
(0.0136094 -0.00227361 0)
(0.0148802 -0.00181798 0)
(0.0159236 -0.00137332 0)
(0.0167436 -0.000944363 0)
(0.0173466 -0.00053526 0)
(0.017741 -0.000149566 0)
(0.017937 0.000209819 0)
(0.0179464 0.000540671 0)
(0.0177824 0.000841444 0)
(0.0174589 0.00111124 0)
(0.0169908 0.00134979 0)
(0.0163931 0.00155735 0)
(0.0156811 0.00173465 0)
(0.0148699 0.00188279 0)
(0.0139743 0.00200311 0)
(0.013009 0.00209702 0)
(0.011988 0.00216588 0)
(0.0109249 0.0022108 0)
(0.00983312 0.00223244 0)
(0.0087259 0.00223084 0)
(0.00761664 0.00220518 0)
(0.00651925 0.00215365 0)
(0.00544845 0.00207333 0)
(0.00442016 0.00196018 0)
(0.00345176 0.00180932 0)
(0.00256221 0.00161558 0)
(0.00177187 0.00137484 0)
(0.0011014 0.00108645 0)
(0.000569496 0.000757173 0)
(0.000198485 0.000407671 0)
(2.8321e-05 8.9274e-05 0)
(2.11028e-05 -0.000152016 0)
(0.000110867 -0.000383409 0)
(0.000270391 -0.000540673 0)
(0.000459827 -0.000629757 0)
(0.000656186 -0.000660423 0)
(0.000843795 -0.00064343 0)
(0.00100949 -0.000589067 0)
(0.00114267 -0.000506393 0)
(0.00123509 -0.000402924 0)
(0.00128046 -0.000284605 0)
(0.001274 -0.000155931 0)
(0.00121204 -2.0133e-05 0)
(0.00109176 0.00012061 0)
(0.000910842 0.000264963 0)
(0.0006673 0.000412257 0)
(0.000359262 0.000562316 0)
(-1.51409e-05 0.000715318 0)
(-0.000457872 0.000871684 0)
(-0.000971046 0.00103198 0)
(-0.00155696 0.00119684 0)
(-0.00221811 0.00136693 0)
(-0.00295715 0.00154287 0)
(-0.00377691 0.00172521 0)
(-0.00468031 0.00191444 0)
(-0.00567036 0.00211091 0)
(-0.00675006 0.00231485 0)
(-0.00792235 0.00252634 0)
(-0.00919007 0.0027453 0)
(-0.0105558 0.00297147 0)
(-0.012022 0.00320441 0)
(-0.0135904 0.00344345 0)
(-0.0152626 0.00368773 0)
(-0.0170395 0.00393615 0)
(-0.0189213 0.00418737 0)
(-0.0209075 0.00443982 0)
(-0.0229967 0.00469167 0)
(-0.0251865 0.00494089 0)
(-0.0274736 0.00518516 0)
(-0.0298534 0.005422 0)
(-0.0323204 0.00564868 0)
(-0.0348675 0.00586232 0)
(-0.0374866 0.00605988 0)
(-0.0401683 0.0062382 0)
(-0.0429019 0.00639404 0)
(-0.0456754 0.00652411 0)
(-0.0484755 0.00662516 0)
(-0.0512881 0.00669396 0)
(-0.0540976 0.00672741 0)
(-0.0568878 0.00672256 0)
(-0.0596414 0.00667668 0)
(-0.0623408 0.00658729 0)
(-0.0649674 0.00645225 0)
(-0.0675026 0.00626977 0)
(-0.0699274 0.00603847 0)
(-0.0722231 0.00575742 0)
(-0.0743709 0.00542618 0)
(-0.0763526 0.00504481 0)
(-0.0781505 0.00461393 0)
(-0.0797477 0.00413469 0)
(-0.0811283 0.00360885 0)
(-0.0822775 0.00303869 0)
(-0.0831817 0.0024271 0)
(-0.083829 0.00177752 0)
(-0.0842088 0.00109398 0)
(-0.0843126 0.000380994 0)
(-0.0841333 -0.000356684 0)
(-0.0836657 -0.00111337 0)
(-0.0829073 -0.00188313 0)
(-0.081857 -0.00265974 0)
(-0.0805161 -0.00343663 0)
(-0.0788881 -0.00420696 0)
(-0.0769787 -0.00496369 0)
(-0.0747958 -0.00569969 0)
(-0.0723496 -0.00640777 0)
(-0.0696523 -0.0070808 0)
(-0.0667184 -0.00771181 0)
(-0.0635645 -0.00829406 0)
(-0.060209 -0.00882116 0)
(-0.0566723 -0.00928717 0)
(-0.0529765 -0.00968669 0)
(-0.0491452 -0.010015 0)
(-0.0452035 -0.0102681 0)
(-0.0411774 -0.0104429 0)
(-0.0370941 -0.010537 0)
(-0.0329813 -0.0105494 0)
(-0.0288672 -0.0104798 0)
(-0.0247798 -0.0103291 0)
(-0.0207473 -0.0100993 0)
(-0.016797 -0.00979344 0)
(-0.0129553 -0.00941571 0)
(-0.00924771 -0.00897121 0)
(-0.00569786 -0.00846602 0)
(-0.00232775 -0.00790704 0)
(0.000842772 -0.0073018 0)
(0.00379625 -0.00665847 0)
(0.00651775 -0.00598559 0)
(0.00899511 -0.00529192 0)
(0.011219 -0.00458626 0)
(0.0131832 -0.0038773 0)
(0.0148841 -0.00317344 0)
(0.0163215 -0.00248261 0)
(0.0174976 -0.00181213 0)
(0.0184175 -0.00116858 0)
(0.019089 -0.00055773 0)
(0.0195218 1.5605e-05 0)
(0.0197279 0.000547552 0)
(0.0197209 0.00103523 0)
(0.0195157 0.00147672 0)
(0.0191285 0.00187103 0)
(0.0185761 0.00221801 0)
(0.0178759 0.00251822 0)
(0.0170453 0.00277282 0)
(0.0161019 0.00298338 0)
(0.015063 0.00315164 0)
(0.0139457 0.00327934 0)
(0.0127667 0.0033679 0)
(0.0115428 0.00341817 0)
(0.0102902 0.00343015 0)
(0.00902581 0.00340273 0)
(0.00776656 0.00333346 0)
(0.00653031 0.00321845 0)
(0.00533591 0.00305243 0)
(0.00420354 0.00282908 0)
(0.00315478 0.00254185 0)
(0.00221277 0.00218555 0)
(0.00140121 0.00175904 0)
(0.000742809 0.00126922 0)
(0.000269091 0.000737033 0)
(4.17776e-05 0.000211241 0)
(2.13415e-05 -0.000212344 0)
(0.000110552 -0.000516977 0)
(0.000265968 -0.000714483 0)
(0.000445251 -0.000819144 0)
(0.000623913 -0.000845998 0)
(0.000785512 -0.000809787 0)
(0.000916477 -0.000723993 0)
(0.00100591 -0.000600277 0)
(0.0010453 -0.00044828 0)
(0.00102801 -0.000275642 0)
(0.000948852 -8.81599e-05 0)
(0.000803675 0.000109979 0)
(0.000589087 0.000315942 0)
(0.000302167 0.000527989 0)
(-5.97418e-05 0.000745243 0)
(-0.000499203 0.000967475 0)
(-0.0010188 0.00119492 0)
(-0.00162124 0.00142812 0)
(-0.00230936 0.00166781 0)
(-0.00308619 0.00191482 0)
(-0.00395493 0.00216996 0)
(-0.00491891 0.00243403 0)
(-0.00598159 0.0027077 0)
(-0.00714649 0.00299151 0)
(-0.00841711 0.00328581 0)
(-0.00979688 0.00359078 0)
(-0.0112891 0.00390635 0)
(-0.0128967 0.00423222 0)
(-0.0146224 0.00456782 0)
(-0.0164685 0.00491229 0)
(-0.0184365 0.00526445 0)
(-0.0205276 0.00562281 0)
(-0.0227418 0.00598557 0)
(-0.0250785 0.00635054 0)
(-0.0275361 0.00671523 0)
(-0.0301116 0.00707678 0)
(-0.0328011 0.00743201 0)
(-0.0355994 0.00777744 0)
(-0.0384997 0.00810928 0)
(-0.0414939 0.00842351 0)
(-0.0445727 0.00871587 0)
(-0.047725 0.00898196 0)
(-0.0509384 0.00921724 0)
(-0.0541992 0.00941714 0)
(-0.0574923 0.0095771 0)
(-0.0608013 0.00969264 0)
(-0.0641087 0.00975943 0)
(-0.0673961 0.00977337 0)
(-0.070644 0.00973067 0)
(-0.0738326 0.00962789 0)
(-0.0769412 0.00946206 0)
(-0.0799491 0.00923068 0)
(-0.0828355 0.00893182 0)
(-0.0855795 0.00856416 0)
(-0.0881607 0.00812703 0)
(-0.0905592 0.00762044 0)
(-0.0927557 0.00704512 0)
(-0.0947319 0.00640253 0)
(-0.0964706 0.00569485 0)
(-0.0979559 0.00492502 0)
(-0.0991729 0.0040967 0)
(-0.100109 0.00321428 0)
(-0.100752 0.00228285 0)
(-0.101093 0.0013082 0)
(-0.101124 0.000296749 0)
(-0.100839 -0.000745052 0)
(-0.100233 -0.00180917 0)
(-0.0993056 -0.00288766 0)
(-0.0980566 -0.00397217 0)
(-0.0964884 -0.00505393 0)
(-0.0946055 -0.0061239 0)
(-0.0924146 -0.00717281 0)
(-0.0899246 -0.00819132 0)
(-0.0871466 -0.00917003 0)
(-0.0840939 -0.0100997 0)
(-0.0807817 -0.0109711 0)
(-0.0772274 -0.0117757 0)
(-0.0734504 -0.012505 0)
(-0.069472 -0.0131514 0)
(-0.0653151 -0.0137077 0)
(-0.0610043 -0.0141677 0)
(-0.0565657 -0.0145262 0)
(-0.0520268 -0.0147788 0)
(-0.0474158 -0.0149226 0)
(-0.042762 -0.0149557 0)
(-0.0380951 -0.0148775 0)
(-0.0334452 -0.0146891 0)
(-0.0288421 -0.0143928 0)
(-0.0243156 -0.0139921 0)
(-0.0198944 -0.0134923 0)
(-0.0156065 -0.0128998 0)
(-0.0114783 -0.0122223 0)
(-0.0075346 -0.0114685 0)
(-0.00379821 -0.0106483 0)
(-0.00028961 -0.0097723 0)
(0.00297322 -0.00885166 0)
(0.00597507 -0.00789801 0)
(0.00870368 -0.00692314 0)
(0.0111498 -0.00593877 0)
(0.0133074 -0.00495638 0)
(0.0151735 -0.00398691 0)
(0.0167483 -0.00304064 0)
(0.018035 -0.00212693 0)
(0.0190396 -0.00125413 0)
(0.0197708 -0.00042943 0)
(0.0202397 0.000341236 0)
(0.0204596 0.00105321 0)
(0.0204455 0.00170312 0)
(0.0202141 0.00228885 0)
(0.0197832 0.00280943 0)
(0.0191712 0.00326491 0)
(0.0183975 0.00365621 0)
(0.0174814 0.00398482 0)
(0.0164427 0.00425263 0)
(0.0153009 0.00446152 0)
(0.0140754 0.00461312 0)
(0.0127857 0.00470839 0)
(0.0114511 0.00474727 0)
(0.0100911 0.00472839 0)
(0.00872557 0.00464875 0)
(0.00737513 0.00450363 0)
(0.00606122 0.00428665 0)
(0.00480648 0.00399021 0)
(0.00363499 0.00360632 0)
(0.00257262 0.0031283 0)
(0.00164648 0.00255339 0)
(0.000883847 0.00188632 0)
(0.000325377 0.00114428 0)
(5.19753e-05 0.000367308 0)
(2.02453e-05 -0.000270451 0)
(0.000102669 -0.000643233 0)
(0.000242271 -0.000874251 0)
(0.000396653 -0.000986416 0)
(0.000540867 -0.00100061 0)
(0.000658178 -0.000935976 0)
(0.000734991 -0.00080938 0)
(0.000760462 -0.000635137 0)
(0.000726093 -0.000424963 0)
(0.000625154 -0.000188096 0)
(0.000452215 6.84684e-05 0)
(0.00020278 0.00033969 0)
(-0.000127026 0.000622169 0)
(-0.000540699 0.000913837 0)
(-0.00104155 0.00121366 0)
(-0.00163287 0.00152141 0)
(-0.00231798 0.00183738 0)
(-0.00310036 0.00216226 0)
(-0.00398363 0.00249694 0)
(-0.00497156 0.00284241 0)
(-0.00606807 0.00319965 0)
(-0.00727716 0.00356953 0)
(-0.00860291 0.00395279 0)
(-0.0100493 0.00434995 0)
(-0.0116204 0.00476129 0)
(-0.0133197 0.00518679 0)
(-0.0151509 0.00562614 0)
(-0.0171168 0.00607865 0)
(-0.0192201 0.00654327 0)
(-0.0214626 0.00701853 0)
(-0.0238453 0.00750256 0)
(-0.0263686 0.00799302 0)
(-0.0290316 0.00848715 0)
(-0.0318324 0.00898169 0)
(-0.0347677 0.00947296 0)
(-0.037833 0.00995683 0)
(-0.0410222 0.0104287 0)
(-0.0443279 0.0108838 0)
(-0.047741 0.0113167 0)
(-0.0512506 0.0117218 0)
(-0.0548447 0.0120935 0)
(-0.0585092 0.0124258 0)
(-0.0622289 0.0127126 0)
(-0.0659869 0.0129481 0)
(-0.0697651 0.0131264 0)
(-0.0735444 0.0132418 0)
(-0.0773043 0.0132889 0)
(-0.0810237 0.0132629 0)
(-0.0846809 0.0131593 0)
(-0.0882538 0.0129741 0)
(-0.0917198 0.0127042 0)
(-0.0950567 0.0123469 0)
(-0.0982422 0.0119006 0)
(-0.101255 0.0113642 0)
(-0.104073 0.0107376 0)
(-0.106677 0.0100218 0)
(-0.109047 0.00921829 0)
(-0.111165 0.00832972 0)
(-0.113014 0.00735956 0)
(-0.11458 0.00631217 0)
(-0.115848 0.00519276 0)
(-0.116805 0.00400737 0)
(-0.117442 0.0027628 0)
(-0.11775 0.00146653 0)
(-0.117722 0.000126882 0)
(-0.117354 -0.00124637 0)
(-0.11664 -0.00264468 0)
(-0.115582 -0.00405785 0)
(-0.11418 -0.00547531 0)
(-0.112437 -0.00688614 0)
(-0.110358 -0.00827917 0)
(-0.107951 -0.00964299 0)
(-0.105224 -0.0109661 0)
(-0.102188 -0.012237 0)
(-0.0988576 -0.0134444 0)
(-0.0952476 -0.014577 0)
(-0.0913755 -0.0156241 0)
(-0.0872607 -0.0165755 0)
(-0.0829244 -0.0174216 0)
(-0.0783898 -0.0181535 0)
(-0.0736819 -0.0187636 0)
(-0.0688268 -0.019245 0)
(-0.0638526 -0.0195923 0)
(-0.0587883 -0.0198014 0)
(-0.0536639 -0.0198697 0)
(-0.0485102 -0.0197963 0)
(-0.0433586 -0.0195818 0)
(-0.0382405 -0.0192286 0)
(-0.0331874 -0.0187409 0)
(-0.0282301 -0.0181246 0)
(-0.0233988 -0.0173872 0)
(-0.0187222 -0.0165378 0)
(-0.014228 -0.015587 0)
(-0.00994165 -0.0145466 0)
(-0.0058866 -0.0134298 0)
(-0.00208383 -0.0122501 0)
(0.00144836 -0.0110223 0)
(0.00469463 -0.00976094 0)
(0.00764273 -0.00848101 0)
(0.0102836 -0.00719717 0)
(0.0126116 -0.00592359 0)
(0.0146243 -0.00467372 0)
(0.0163223 -0.00346002 0)
(0.0177099 -0.00229376 0)
(0.0187938 -0.00118483 0)
(0.0195838 -0.000141666 0)
(0.0200922 0.000828898 0)
(0.0203334 0.00172162 0)
(0.020324 0.00253283 0)
(0.0200818 0.00326033 0)
(0.0196261 0.00390326 0)
(0.0189773 0.00446191 0)
(0.0181562 0.00493742 0)
(0.0171841 0.00533148 0)
(0.0160827 0.00564593 0)
(0.0148736 0.00588241 0)
(0.0135786 0.00604188 0)
(0.0122195 0.00612417 0)
(0.0108185 0.00612765 0)
(0.00939801 0.00604884 0)
(0.00798097 0.00588228 0)
(0.00659128 0.0056206 0)
(0.00525394 0.00525486 0)
(0.00399551 0.00477549 0)
(0.00284473 0.00417375 0)
(0.00183227 0.00344403 0)
(0.000990085 0.00258689 0)
(0.000366992 0.00161276 0)
(5.91766e-05 0.000549274 0)
(1.81597e-05 -0.000322764 0)
(8.8611e-05 -0.00075335 0)
(0.000202151 -0.00100751 0)
(0.000318373 -0.00111659 0)
(0.000412875 -0.0011075 0)
(0.000469158 -0.00100394 0)
(0.000474006 -0.000826239 0)
(0.00041695 -0.000591345 0)
(0.000289754 -0.000312943 0)
(8.57849e-05 -1.73129e-06 0)
(-0.00020046 0.000334253 0)
(-0.000573729 0.000689265 0)
(-0.0010383 0.00105947 0)
(-0.00159822 0.00144257 0)
(-0.00225745 0.00183747 0)
(-0.00301999 0.00224397 0)
(-0.00388995 0.00266248 0)
(-0.00487158 0.00309384 0)
(-0.00596929 0.00353909 0)
(-0.00718763 0.00399934 0)
(-0.0085312 0.00447566 0)
(-0.0100046 0.00496898 0)
(-0.0116126 0.00547998 0)
(-0.0133595 0.00600909 0)
(-0.0152496 0.00655635 0)
(-0.0172868 0.00712145 0)
(-0.0194745 0.00770363 0)
(-0.0218156 0.00830166 0)
(-0.0243122 0.0089138 0)
(-0.0269656 0.00953779 0)
(-0.029776 0.0101708 0)
(-0.0327425 0.0108094 0)
(-0.0358631 0.0114497 0)
(-0.0391341 0.012087 0)
(-0.0425506 0.0127162 0)
(-0.0461059 0.0133317 0)
(-0.0497917 0.0139274 0)
(-0.0535979 0.0144966 0)
(-0.0575129 0.0150325 0)
(-0.0615232 0.0155278 0)
(-0.0656136 0.015975 0)
(-0.0697674 0.0163667 0)
(-0.0739664 0.0166955 0)
(-0.0781909 0.016954 0)
(-0.0824201 0.0171352 0)
(-0.0866324 0.0172324 0)
(-0.0908051 0.0172395 0)
(-0.0949151 0.0171508 0)
(-0.0989388 0.0169615 0)
(-0.102853 0.0166676 0)
(-0.106633 0.0162658 0)
(-0.110257 0.0157539 0)
(-0.113702 0.0151307 0)
(-0.116946 0.0143958 0)
(-0.119968 0.0135501 0)
(-0.122748 0.0125954 0)
(-0.125268 0.0115345 0)
(-0.12751 0.0103715 0)
(-0.129459 0.00911123 0)
(-0.131099 0.00775959 0)
(-0.132419 0.00632343 0)
(-0.133407 0.00481048 0)
(-0.134054 0.0032293 0)
(-0.134351 0.00158915 0)
(-0.134293 -9.97897e-05 0)
(-0.133876 -0.00182588 0)
(-0.133098 -0.00357869 0)
(-0.131957 -0.00534612 0)
(-0.130455 -0.00711562 0)
(-0.128594 -0.00887433 0)
(-0.126381 -0.0106091 0)
(-0.123821 -0.0123064 0)
(-0.120924 -0.0139529 0)
(-0.1177 -0.015535 0)
(-0.114162 -0.0170392 0)
(-0.110325 -0.0184525 0)
(-0.106206 -0.0197621 0)
(-0.101823 -0.0209557 0)
(-0.0971979 -0.0220218 0)
(-0.0923525 -0.02295 0)
(-0.0873117 -0.0237306 0)
(-0.0821017 -0.0243554 0)
(-0.0767503 -0.0248175 0)
(-0.0712869 -0.0251115 0)
(-0.0657421 -0.025234 0)
(-0.0601474 -0.0251831 0)
(-0.0545351 -0.0249591 0)
(-0.0489382 -0.0245643 0)
(-0.0433896 -0.0240029 0)
(-0.037922 -0.0232813 0)
(-0.0325677 -0.022408 0)
(-0.027358 -0.0213933 0)
(-0.0223228 -0.0202493 0)
(-0.0174907 -0.0189899 0)
(-0.012888 -0.0176303 0)
(-0.00853862 -0.0161867 0)
(-0.0044641 -0.0146765 0)
(-0.000682933 -0.0131176 0)
(0.00278948 -0.0115278 0)
(0.00594102 -0.0099253 0)
(0.00876295 -0.00832755 0)
(0.01125 -0.0067514 0)
(0.0134004 -0.0052126 0)
(0.0152156 -0.00372564 0)
(0.0167005 -0.00230348 0)
(0.0178631 -0.000957333 0)
(0.0187141 0.00030337 0)
(0.0192671 0.0014711 0)
(0.0195376 0.00254024 0)
(0.0195436 0.00350694 0)
(0.0193044 0.00436904 0)
(0.0188408 0.00512581 0)
(0.0181747 0.00577766 0)
(0.0173286 0.00632578 0)
(0.0163257 0.00677172 0)
(0.0151896 0.00711688 0)
(0.013944 0.00736208 0)
(0.012613 0.00750696 0)
(0.0112209 0.00754958 0)
(0.00979245 0.007486 0)
(0.00835295 0.00731006 0)
(0.00692853 0.00701338 0)
(0.00554653 0.00658566 0)
(0.004236 0.00601544 0)
(0.00302859 0.00529133 0)
(0.0019585 0.00440389 0)
(0.00106205 0.00334795 0)
(0.000394714 0.00212529 0)
(6.37606e-05 0.000749308 0)
(1.52957e-05 -0.000366393 0)
(6.93633e-05 -0.00083975 0)
(0.000147806 -0.00110321 0)
(0.000213916 -0.00119614 0)
(0.000244756 -0.00115135 0)
(0.000224602 -0.000997101 0)
(0.00014104 -0.000757114 0)
(-1.57064e-05 -0.000450829 0)
(-0.000253381 -9.3747e-05 0)
(-0.000578337 0.00030217 0)
(-0.000996028 0.000728039 0)
(-0.00151137 0.00117759 0)
(-0.00212898 0.00164673 0)
(-0.00285344 0.00213305 0)
(-0.00368932 0.0026355 0)
(-0.00464137 0.00315398 0)
(-0.00571447 0.00368905 0)
(-0.00691367 0.0042417 0)
(-0.00824416 0.00481308 0)
(-0.00971121 0.00540442 0)
(-0.0113201 0.00601679 0)
(-0.0130761 0.00665106 0)
(-0.0149842 0.00730778 0)
(-0.0170493 0.00798711 0)
(-0.0192758 0.00868876 0)
(-0.0216675 0.00941191 0)
(-0.0242277 0.0101552 0)
(-0.0269589 0.0109166 0)
(-0.0298624 0.0116935 0)
(-0.0329388 0.0124826 0)
(-0.0361871 0.0132798 0)
(-0.039605 0.0140805 0)
(-0.0431889 0.0148791 0)
(-0.0469333 0.0156696 0)
(-0.050831 0.0164451 0)
(-0.0548732 0.0171983 0)
(-0.0590489 0.0179212 0)
(-0.0633455 0.0186055 0)
(-0.0677486 0.0192424 0)
(-0.0722419 0.019823 0)
(-0.0768075 0.0203382 0)
(-0.0814259 0.020779 0)
(-0.0860762 0.0211366 0)
(-0.0907365 0.0214025 0)
(-0.0953838 0.0215685 0)
(-0.0999943 0.0216274 0)
(-0.104544 0.0215722 0)
(-0.109008 0.0213973 0)
(-0.113362 0.0210976 0)
(-0.117581 0.0206693 0)
(-0.121643 0.0201095 0)
(-0.125523 0.0194167 0)
(-0.1292 0.0185903 0)
(-0.132651 0.0176311 0)
(-0.135858 0.0165409 0)
(-0.138801 0.0153229 0)
(-0.141462 0.0139813 0)
(-0.143825 0.0125215 0)
(-0.145876 0.0109498 0)
(-0.147601 0.00927384 0)
(-0.148989 0.0075019 0)
(-0.150029 0.0056434 0)
(-0.150713 0.00370857 0)
(-0.151033 0.00170849 0)