/*--------------------------------*- C++ -*----------------------------------*\
| =========                 |                                                 |
| \\      /  F ield         | OpenFOAM: The Open Source CFD Toolbox           |
|  \\    /   O peration     | Version:  2112                                  |
|   \\  /    A nd           | Website:  www.openfoam.com                      |
|    \\/     M anipulation  |                                                 |
\*---------------------------------------------------------------------------*/
FoamFile
{
    version     2.0;
    format      ascii;
    arch        "LSB;label=32;scalar=64";
    class       volScalarField;
    location    "8";
    object      p;
}
// * * * * * * * * * * * * * * * * * * * * * * * * * * * * * * * * * * * * * //

dimensions      [0 2 -2 0 0 0 0];

internalField   nonuniform List<scalar> 
25600
(
4.0237e-14
7.41442e-14
8.59443e-14
9.31397e-14
9.81303e-14
1.02138e-13
1.05521e-13
1.08272e-13
1.10743e-13
1.12945e-13
1.14721e-13
1.16289e-13
1.17369e-13
1.18434e-13
1.19481e-13
1.20277e-13
1.21216e-13
1.22102e-13
1.22844e-13
1.23423e-13
1.23984e-13
1.24544e-13
1.25062e-13
1.25573e-13
1.26092e-13
1.26504e-13
1.26691e-13
1.2722e-13
1.27733e-13
1.27925e-13
1.27938e-13
1.28243e-13
1.28781e-13
1.29216e-13
1.29443e-13
1.29768e-13
1.29937e-13
1.30454e-13
1.30955e-13
1.30954e-13
1.31213e-13
1.31451e-13
1.31778e-13
1.32102e-13
1.31879e-13
1.32056e-13
1.32172e-13
1.32239e-13
1.324e-13
1.32545e-13
1.32889e-13
1.32648e-13
1.3263e-13
1.32627e-13
1.32539e-13
1.32887e-13
1.32723e-13
1.32676e-13
1.32571e-13
1.32377e-13
1.32749e-13
1.32281e-13
1.32417e-13
1.32365e-13
1.321e-13
1.32513e-13
1.32146e-13
1.31906e-13
1.3166e-13
1.3146e-13
1.31597e-13
1.31396e-13
1.31227e-13
1.3099e-13
1.30496e-13
1.3084e-13
1.30568e-13
1.29703e-13
1.29409e-13
1.28922e-13
1.29013e-13
1.29105e-13
1.28217e-13
1.27647e-13
1.27108e-13
1.27019e-13
1.26999e-13
1.2649e-13
1.25663e-13
1.24793e-13
1.24843e-13
1.2465e-13
1.23679e-13
1.22733e-13
1.22529e-13
1.22545e-13
1.21716e-13
1.21148e-13
1.20288e-13
1.19994e-13
1.20209e-13
1.19404e-13
1.19071e-13
1.18245e-13
1.17589e-13
1.17347e-13
1.17171e-13
1.16372e-13
1.15391e-13
1.15028e-13
1.14651e-13
1.15146e-13
1.13691e-13
1.12516e-13
1.12624e-13
1.12461e-13
1.12129e-13
1.10801e-13
1.09229e-13
1.0891e-13
1.08939e-13
1.08685e-13
1.07296e-13
1.05692e-13
1.0545e-13
1.05804e-13
1.05838e-13
1.04326e-13
1.02915e-13
1.03054e-13
1.03321e-13
1.0314e-13
1.02183e-13
1.0148e-13
1.01753e-13
1.01811e-13
1.02053e-13
1.01602e-13
1.00886e-13
1.01434e-13
1.02016e-13
1.02324e-13
1.01697e-13
1.01511e-13
1.02042e-13
1.02233e-13
1.0266e-13
1.02396e-13
1.024e-13
1.02579e-13
1.02387e-13
1.03397e-13
1.03248e-13
1.02428e-13
1.02333e-13
1.02549e-13
1.03498e-13
1.03839e-13
1.0329e-13
1.03226e-13
1.03221e-13
1.04652e-13
1.04543e-13
1.04081e-13
1.05429e-13
1.05394e-13
1.06342e-13
1.06777e-13
1.06022e-13
1.06467e-13
1.06895e-13
1.0793e-13
1.07865e-13
1.07843e-13
1.08542e-13
1.08804e-13
1.09329e-13
1.08849e-13
1.10026e-13
1.10556e-13
1.10123e-13
1.11613e-13
1.11078e-13
1.10672e-13
1.11131e-13
1.10601e-13
1.11722e-13
1.11391e-13
1.10891e-13
1.121e-13
1.1161e-13
1.11857e-13
1.1225e-13
1.11547e-13
1.12432e-13
1.1265e-13
1.13082e-13
1.12833e-13
1.12097e-13
1.13464e-13
1.13253e-13
1.13533e-13
1.13013e-13
1.12277e-13
1.13706e-13
1.14229e-13
1.14061e-13
1.13178e-13
1.13247e-13
1.14243e-13
1.14537e-13
1.14164e-13
1.12114e-13
1.13419e-13
1.1482e-13
1.12581e-13
1.13618e-13
1.14456e-13
1.14492e-13
1.14445e-13
1.12198e-13
1.1332e-13
1.14836e-13
1.14868e-13
1.14983e-13
1.12534e-13
1.13703e-13
1.14547e-13
1.14095e-13
1.1486e-13
1.13628e-13
1.14669e-13
1.14917e-13
1.14622e-13
1.15994e-13
1.14748e-13
1.15048e-13
1.15339e-13
1.15495e-13
1.17024e-13
1.15625e-13
1.16422e-13
1.16377e-13
1.16113e-13
1.1816e-13
1.16782e-13
1.16499e-13
1.16764e-13
1.17615e-13
1.19097e-13
1.17377e-13
1.18548e-13
1.19616e-13
1.1967e-13
1.20368e-13
1.184e-13
1.19971e-13
1.20674e-13
1.20247e-13
1.21806e-13
1.20486e-13
1.21042e-13
1.21549e-13
1.21726e-13
1.22777e-13
1.21581e-13
1.22586e-13
1.23566e-13
1.24007e-13
1.24962e-13
1.238e-13
1.24301e-13
1.24524e-13
1.24938e-13
1.25897e-13
1.24598e-13
1.25046e-13
1.25555e-13
1.24912e-13
1.26016e-13
1.25132e-13
1.25083e-13
1.25449e-13
1.25368e-13
1.26299e-13
1.25057e-13
1.24314e-13
1.24912e-13
1.25487e-13
1.25186e-13
1.23368e-13
1.23507e-13
1.24118e-13
1.24059e-13
1.2341e-13
1.21923e-13
1.22305e-13
1.22445e-13
1.22625e-13
1.21934e-13
1.20279e-13
1.20313e-13
1.20056e-13
1.20832e-13
1.20171e-13
1.18013e-13
1.17298e-13
1.16086e-13
1.16092e-13
1.1451e-13
1.12947e-13
1.12027e-13
1.08777e-13
1.0717e-13
1.04817e-13
1.00736e-13
9.74158e-14
9.15688e-14
8.49568e-14
7.37887e-14
6.29195e-14
7.75235e-14
8.70553e-14
9.36747e-14
9.84438e-14
1.0231e-13
1.05595e-13
1.08367e-13
1.10823e-13
1.12987e-13
1.14798e-13
1.16288e-13
1.17408e-13
1.18467e-13
1.19445e-13
1.2036e-13
1.21276e-13
1.22119e-13
1.22805e-13
1.23403e-13
1.24062e-13
1.24614e-13
1.25061e-13
1.25516e-13
1.25984e-13
1.26533e-13
1.26867e-13
1.27243e-13
1.27661e-13
1.27874e-13
1.2797e-13
1.28348e-13
1.28792e-13
1.29158e-13
1.29424e-13
1.29752e-13
1.29969e-13
1.30355e-13
1.30905e-13
1.31077e-13
1.31166e-13
1.31443e-13
1.31768e-13
1.32042e-13
1.32025e-13
1.32002e-13
1.3218e-13
1.32235e-13
1.32433e-13
1.3252e-13
1.32768e-13
1.32781e-13
1.32685e-13
1.32683e-13
1.32689e-13
1.32745e-13
1.32719e-13
1.32645e-13
1.32591e-13
1.32486e-13
1.32619e-13
1.32278e-13
1.32422e-13
1.32371e-13
1.3217e-13
1.32467e-13
1.32104e-13
1.31872e-13
1.31711e-13
1.31572e-13
1.31572e-13
1.31371e-13
1.31178e-13
1.30917e-13
1.30641e-13
1.30759e-13
1.30455e-13
1.2981e-13
1.2943e-13
1.29064e-13
1.28892e-13
1.28858e-13
1.28259e-13
1.27746e-13
1.27254e-13
1.26997e-13
1.26667e-13
1.26406e-13
1.25905e-13
1.25052e-13
1.2475e-13
1.24353e-13
1.23671e-13
1.22995e-13
1.22511e-13
1.22275e-13
1.2163e-13
1.21155e-13
1.20608e-13
1.20102e-13
1.19841e-13
1.1942e-13
1.19057e-13
1.18443e-13
1.17666e-13
1.17222e-13
1.17015e-13
1.16523e-13
1.15518e-13
1.14947e-13
1.14716e-13
1.14784e-13
1.13824e-13
1.12927e-13
1.12639e-13
1.1227e-13
1.11929e-13
1.11007e-13
1.09406e-13
1.08828e-13
1.08865e-13
1.08478e-13
1.07281e-13
1.05937e-13
1.0556e-13
1.05633e-13
1.05676e-13
1.04359e-13
1.03215e-13
1.03114e-13
1.03138e-13
1.02969e-13
1.02309e-13
1.01629e-13
1.01622e-13
1.01839e-13
1.01993e-13
1.01649e-13
1.00948e-13
1.01366e-13
1.02034e-13
1.0229e-13
1.01699e-13
1.01522e-13
1.02004e-13
1.0234e-13
1.02519e-13
1.02243e-13
1.02423e-13
1.02768e-13
1.02642e-13
1.03114e-13
1.02875e-13
1.02539e-13
1.02511e-13
1.02722e-13
1.03357e-13
1.03658e-13
1.03393e-13
1.03289e-13
1.03447e-13
1.04407e-13
1.04406e-13
1.04249e-13
1.05208e-13
1.05549e-13
1.06207e-13
1.06548e-13
1.0628e-13
1.06552e-13
1.07055e-13
1.07627e-13
1.07836e-13
1.07813e-13
1.0832e-13
1.09012e-13
1.09308e-13
1.0923e-13
1.09906e-13
1.10203e-13
1.10618e-13
1.1142e-13
1.11029e-13
1.10665e-13
1.11004e-13
1.1113e-13
1.11544e-13
1.11408e-13
1.11092e-13
1.11643e-13
1.11805e-13
1.11837e-13
1.12047e-13
1.12035e-13
1.12252e-13
1.12595e-13
1.1285e-13
1.12917e-13
1.12816e-13
1.13028e-13
1.13169e-13
1.13283e-13
1.13087e-13
1.13078e-13
1.13345e-13
1.13732e-13
1.13907e-13
1.13619e-13
1.13854e-13
1.13983e-13
1.1392e-13
1.13916e-13
1.129e-13
1.13438e-13
1.14074e-13
1.13316e-13
1.13921e-13
1.13856e-13
1.14074e-13
1.14223e-13
1.13041e-13
1.13667e-13
1.14289e-13
1.14453e-13
1.14784e-13
1.13331e-13
1.13837e-13
1.14287e-13
1.14081e-13
1.14475e-13
1.13897e-13
1.14573e-13
1.1482e-13
1.14762e-13
1.15671e-13
1.15058e-13
1.15194e-13
1.15083e-13
1.15411e-13
1.16703e-13
1.16026e-13
1.16482e-13
1.16317e-13
1.16228e-13
1.17603e-13
1.16668e-13
1.16832e-13
1.17147e-13
1.17566e-13
1.18598e-13
1.17595e-13
1.18608e-13
1.19626e-13
1.19843e-13
1.19892e-13
1.18617e-13
1.20097e-13
1.20761e-13
1.2039e-13
1.21335e-13
1.20702e-13
1.21282e-13
1.21446e-13
1.21749e-13
1.22404e-13
1.21862e-13
1.22957e-13
1.23458e-13
1.23753e-13
1.24711e-13
1.24027e-13
1.24501e-13
1.24425e-13
1.24892e-13
1.25798e-13
1.24757e-13
1.25178e-13
1.25258e-13
1.25054e-13
1.26102e-13
1.25128e-13
1.25328e-13
1.25239e-13
1.25236e-13
1.26126e-13
1.24923e-13
1.24731e-13
1.251e-13
1.2517e-13
1.24895e-13
1.23603e-13
1.23828e-13
1.24065e-13
1.23557e-13
1.23454e-13
1.22411e-13
1.22138e-13
1.22569e-13
1.22109e-13
1.2193e-13
1.2082e-13
1.20229e-13
1.2023e-13
1.2046e-13
1.19796e-13
1.17955e-13
1.17475e-13
1.16666e-13
1.15894e-13
1.145e-13
1.12952e-13
1.11929e-13
1.09318e-13
1.06994e-13
1.04689e-13
1.01291e-13
9.76596e-14
9.2147e-14
8.59395e-14
7.6969e-14
7.41958e-14
8.14259e-14
8.85488e-14
9.43969e-14
9.88479e-14
1.02501e-13
1.05755e-13
1.08566e-13
1.10908e-13
1.1308e-13
1.14936e-13
1.16306e-13
1.17462e-13
1.18529e-13
1.19449e-13
1.20369e-13
1.21369e-13
1.22146e-13
1.22824e-13
1.23408e-13
1.2412e-13
1.24722e-13
1.24989e-13
1.25469e-13
1.25901e-13
1.26553e-13
1.26985e-13
1.27306e-13
1.27677e-13
1.27802e-13
1.28041e-13
1.2849e-13
1.28781e-13
1.29104e-13
1.29368e-13
1.29707e-13
1.29979e-13
1.30276e-13
1.30854e-13
1.31145e-13
1.31178e-13
1.31436e-13
1.31757e-13
1.31977e-13
1.32075e-13
1.32024e-13
1.32182e-13
1.32279e-13
1.32485e-13
1.32528e-13
1.32696e-13
1.32861e-13
1.32747e-13
1.32672e-13
1.32746e-13
1.32741e-13
1.32712e-13
1.32649e-13
1.32592e-13
1.32481e-13
1.32558e-13
1.32315e-13
1.32396e-13
1.32387e-13
1.32245e-13
1.324e-13
1.32068e-13
1.3193e-13
1.31725e-13
1.3163e-13
1.31564e-13
1.31354e-13
1.31177e-13
1.3086e-13
1.30771e-13
1.30707e-13
1.30283e-13
1.29972e-13
1.29504e-13
1.29128e-13
1.28753e-13
1.28703e-13
1.28322e-13
1.27792e-13
1.27321e-13
1.2695e-13
1.26552e-13
1.26321e-13
1.26007e-13
1.25219e-13
1.24703e-13
1.24182e-13
1.23733e-13
1.23044e-13
1.22471e-13
1.22184e-13
1.21568e-13
1.21202e-13
1.20738e-13
1.20137e-13
1.19684e-13
1.19391e-13
1.19034e-13
1.18514e-13
1.17737e-13
1.17137e-13
1.16946e-13
1.16598e-13
1.15555e-13
1.1496e-13
1.14707e-13
1.14507e-13
1.13999e-13
1.13272e-13
1.12661e-13
1.12187e-13
1.11794e-13
1.11039e-13
1.09598e-13
1.08779e-13
1.08741e-13
1.08262e-13
1.07318e-13
1.06249e-13
1.05624e-13
1.05522e-13
1.05388e-13
1.04401e-13
1.03487e-13
1.03203e-13
1.03015e-13
1.0269e-13
1.02444e-13
1.01835e-13
1.01579e-13
1.01783e-13
1.01954e-13
1.01574e-13
1.01045e-13
1.01382e-13
1.02067e-13
1.02199e-13
1.01689e-13
1.01505e-13
1.02035e-13
1.0227e-13
1.02401e-13
1.02278e-13
1.0246e-13
1.0282e-13
1.02791e-13
1.02965e-13
1.02637e-13
1.02585e-13
1.0254e-13
1.02858e-13
1.03294e-13
1.03504e-13
1.03475e-13
1.03341e-13
1.03586e-13
1.0421e-13
1.04245e-13
1.04403e-13
1.05125e-13
1.05562e-13
1.0617e-13
1.06417e-13
1.0647e-13
1.06681e-13
1.06969e-13
1.07551e-13
1.07831e-13
1.07836e-13
1.08273e-13
1.08835e-13
1.09263e-13
1.09663e-13
1.09963e-13
1.10118e-13
1.10769e-13
1.11252e-13
1.1103e-13
1.10772e-13
1.11013e-13
1.11417e-13
1.115e-13
1.11348e-13
1.11188e-13
1.11455e-13
1.11849e-13
1.11826e-13
1.12066e-13
1.12234e-13
1.12214e-13
1.12548e-13
1.12713e-13
1.1304e-13
1.13174e-13
1.128e-13
1.13074e-13
1.13194e-13
1.13153e-13
1.13481e-13
1.13274e-13
1.13396e-13
1.13812e-13
1.13876e-13
1.14195e-13
1.13916e-13
1.13569e-13
1.138e-13
1.13338e-13
1.13432e-13
1.13674e-13
1.13664e-13
1.14039e-13
1.13519e-13
1.13809e-13
1.14083e-13
1.13582e-13
1.13854e-13
1.13955e-13
1.14238e-13
1.14632e-13
1.13891e-13
1.13974e-13
1.14086e-13
1.14015e-13
1.1426e-13
1.14069e-13
1.14537e-13
1.14815e-13
1.14791e-13
1.15305e-13
1.15148e-13
1.15233e-13
1.15073e-13
1.15547e-13
1.16484e-13
1.16061e-13
1.16434e-13
1.16403e-13
1.16366e-13
1.17098e-13
1.16511e-13
1.17125e-13
1.17454e-13
1.17472e-13
1.18226e-13
1.1791e-13
1.18768e-13
1.19501e-13
1.19659e-13
1.19561e-13
1.19092e-13
1.20097e-13
1.20629e-13
1.2042e-13
1.21113e-13
1.21028e-13
1.2148e-13
1.21203e-13
1.21607e-13
1.22221e-13
1.2217e-13
1.23228e-13
1.23401e-13
1.23584e-13
1.24491e-13
1.24156e-13
1.2462e-13
1.24516e-13
1.24811e-13
1.25657e-13
1.24907e-13
1.25286e-13
1.25152e-13
1.25122e-13
1.26092e-13
1.25186e-13
1.25539e-13
1.25199e-13
1.2506e-13
1.25912e-13
1.25014e-13
1.24989e-13
1.25179e-13
1.24857e-13
1.24751e-13
1.23852e-13
1.23909e-13
1.23827e-13
1.23447e-13
1.23605e-13
1.22636e-13
1.2207e-13
1.22488e-13
1.21925e-13
1.21927e-13
1.212e-13
1.20359e-13
1.20357e-13
1.20085e-13
1.1937e-13
1.17968e-13
1.1777e-13
1.17027e-13
1.15708e-13
1.14668e-13
1.12942e-13
1.11999e-13
1.09823e-13
1.06854e-13
1.0474e-13
1.01708e-13
9.80274e-14
9.29794e-14
8.73602e-14
8.0763e-14
8.09413e-14
8.50976e-14
9.04374e-14
9.54273e-14
9.93803e-14
1.02854e-13
1.06036e-13
1.08795e-13
1.11072e-13
1.13184e-13
1.15021e-13
1.16498e-13
1.17478e-13
1.18578e-13
1.19479e-13
1.20406e-13
1.21469e-13
1.22239e-13
1.22826e-13
1.23347e-13
1.24243e-13
1.24745e-13
1.24956e-13
1.2548e-13
1.25841e-13
1.26624e-13
1.26967e-13
1.27296e-13
1.27651e-13
1.27823e-13
1.28042e-13
1.28552e-13
1.28791e-13
1.29134e-13
1.2935e-13
1.2972e-13
1.29925e-13
1.30262e-13
1.30872e-13
1.31091e-13
1.31209e-13
1.31406e-13
1.31687e-13
1.31918e-13
1.32046e-13
1.32111e-13
1.32266e-13
1.32282e-13
1.32526e-13
1.32546e-13
1.32666e-13
1.32889e-13
1.32757e-13
1.32654e-13
1.3269e-13
1.32806e-13
1.32683e-13
1.32639e-13
1.32555e-13
1.32538e-13
1.32506e-13
1.32298e-13
1.32324e-13
1.32316e-13
1.32258e-13
1.3244e-13
1.32237e-13
1.31948e-13
1.31676e-13
1.31628e-13
1.31503e-13
1.31414e-13
1.31156e-13
1.30843e-13
1.30831e-13
1.30716e-13
1.30329e-13
1.30012e-13
1.29522e-13
1.29204e-13
1.28572e-13
1.28646e-13
1.28357e-13
1.27774e-13
1.27294e-13
1.26863e-13
1.26715e-13
1.26367e-13
1.2596e-13
1.25294e-13
1.246e-13
1.24178e-13
1.23783e-13
1.22977e-13
1.22443e-13
1.22185e-13
1.2164e-13
1.21217e-13
1.20662e-13
1.20152e-13
1.19777e-13
1.19306e-13
1.19029e-13
1.18594e-13
1.17768e-13
1.17149e-13
1.1684e-13
1.16419e-13
1.15709e-13
1.15102e-13
1.14579e-13
1.14384e-13
1.14137e-13
1.13425e-13
1.12841e-13
1.12218e-13
1.11645e-13
1.10923e-13
1.09834e-13
1.08888e-13
1.08582e-13
1.08037e-13
1.0749e-13
1.06484e-13
1.05575e-13
1.05514e-13
1.05204e-13
1.04364e-13
1.03641e-13
1.03193e-13
1.02842e-13
1.02474e-13
1.02559e-13
1.02032e-13
1.01636e-13
1.01675e-13
1.01841e-13
1.01523e-13
1.01239e-13
1.01448e-13
1.02012e-13
1.01985e-13
1.01698e-13
1.01609e-13
1.0204e-13
1.02222e-13
1.02239e-13
1.0248e-13
1.0261e-13
1.02719e-13
1.02767e-13
1.02912e-13
1.02681e-13
1.02637e-13
1.02387e-13
1.02818e-13
1.0324e-13
1.03399e-13
1.03604e-13
1.03405e-13
1.03565e-13
1.03982e-13
1.04051e-13
1.04566e-13
1.05213e-13
1.05593e-13
1.06214e-13
1.06457e-13
1.06363e-13
1.06606e-13
1.0697e-13
1.07667e-13
1.07763e-13
1.07976e-13
1.08545e-13
1.08619e-13
1.09106e-13
1.09689e-13
1.10066e-13
1.10313e-13
1.10737e-13
1.11232e-13
1.11071e-13
1.10947e-13
1.11047e-13
1.1148e-13
1.11565e-13
1.11252e-13
1.11207e-13
1.11489e-13
1.11856e-13
1.11733e-13
1.1216e-13
1.12351e-13
1.12287e-13
1.12474e-13
1.12801e-13
1.13154e-13
1.13023e-13
1.12785e-13
1.13037e-13
1.13168e-13
1.13277e-13
1.13534e-13
1.13241e-13
1.13388e-13
1.13783e-13
1.13954e-13
1.14192e-13
1.14059e-13
1.13664e-13
1.13761e-13
1.1346e-13
1.13378e-13
1.13453e-13
1.13628e-13
1.13981e-13
1.13686e-13
1.13726e-13
1.13909e-13
1.13757e-13
1.13724e-13
1.13902e-13
1.14224e-13
1.14498e-13
1.14236e-13
1.13999e-13
1.13779e-13
1.13901e-13
1.14448e-13
1.14444e-13
1.14459e-13
1.14702e-13
1.14569e-13
1.15016e-13
1.14941e-13
1.153e-13
1.15576e-13
1.15596e-13
1.16213e-13
1.16314e-13
1.16392e-13
1.16186e-13
1.1634e-13
1.16864e-13
1.16593e-13
1.17224e-13
1.1757e-13
1.17398e-13
1.17981e-13
1.18107e-13
1.18851e-13
1.19613e-13
1.19421e-13
1.19284e-13
1.19487e-13
1.19995e-13
1.20567e-13
1.20372e-13
1.2098e-13
1.21284e-13
1.21417e-13
1.20997e-13
1.2161e-13
1.22329e-13
1.22348e-13
1.23065e-13
1.23604e-13
1.23749e-13
1.24084e-13
1.24152e-13
1.2462e-13
1.24797e-13
1.24879e-13
1.25237e-13
1.25185e-13
1.25338e-13
1.25251e-13
1.25222e-13
1.25598e-13
1.25526e-13
1.25606e-13
1.25097e-13
1.25207e-13
1.2553e-13
1.25372e-13
1.25089e-13
1.24853e-13
1.24686e-13
1.24688e-13
1.24294e-13
1.24006e-13
1.23396e-13
1.2333e-13
1.23615e-13
1.2291e-13
1.22205e-13
1.22182e-13
1.2188e-13
1.219e-13
1.21585e-13
1.20433e-13
1.20216e-13
1.20117e-13
1.19131e-13
1.18387e-13
1.17794e-13
1.16872e-13
1.15754e-13
1.14726e-13
1.13183e-13
1.12308e-13
1.10063e-13
1.0708e-13
1.04752e-13
1.01898e-13
9.86329e-14
9.41044e-14
8.91919e-14
8.42649e-14
8.55891e-14
8.82799e-14
9.22861e-14
9.66275e-14
1.00175e-13
1.03167e-13
1.06311e-13
1.09107e-13
1.11327e-13
1.1343e-13
1.15405e-13
1.16558e-13
1.17563e-13
1.18658e-13
1.19467e-13
1.20498e-13
1.21371e-13
1.22347e-13
1.22757e-13
1.2329e-13
1.2433e-13
1.24743e-13
1.25037e-13
1.25421e-13
1.25852e-13
1.2668e-13
1.26908e-13
1.27183e-13
1.27647e-13
1.27842e-13
1.28077e-13
1.28657e-13
1.288e-13
1.29131e-13
1.29389e-13
1.29596e-13
1.29889e-13
1.30252e-13
1.30866e-13
1.31179e-13
1.31133e-13
1.31392e-13
1.31607e-13
1.31856e-13
1.32164e-13
1.32073e-13
1.32173e-13
1.32246e-13
1.32502e-13
1.32676e-13
1.32665e-13
1.3281e-13
1.32835e-13
1.32681e-13
1.32728e-13
1.32827e-13
1.32643e-13
1.32646e-13
1.32431e-13
1.3255e-13
1.32549e-13
1.32348e-13
1.32176e-13
1.32274e-13
1.32243e-13
1.32347e-13
1.32492e-13
1.31892e-13
1.31605e-13
1.31585e-13
1.31509e-13
1.31507e-13
1.31029e-13
1.30889e-13
1.30858e-13
1.30722e-13
1.30482e-13
1.29878e-13
1.29497e-13
1.2934e-13
1.28557e-13
1.28567e-13
1.28225e-13
1.2778e-13
1.27259e-13
1.26859e-13
1.26729e-13
1.265e-13
1.25969e-13
1.25232e-13
1.2463e-13
1.24081e-13
1.23736e-13
1.23002e-13
1.22396e-13
1.22052e-13
1.21733e-13
1.21312e-13
1.20597e-13
1.20057e-13
1.1971e-13
1.19303e-13
1.1906e-13
1.18646e-13
1.17755e-13
1.17184e-13
1.16769e-13
1.16201e-13
1.15877e-13
1.15284e-13
1.14539e-13
1.1437e-13
1.14034e-13
1.1352e-13
1.1298e-13
1.12278e-13
1.11593e-13
1.10869e-13
1.09832e-13
1.0888e-13
1.08581e-13
1.07904e-13
1.07529e-13
1.06682e-13
1.0557e-13
1.0535e-13
1.05083e-13
1.04391e-13
1.03818e-13
1.03129e-13
1.0261e-13
1.0251e-13
1.02686e-13
1.01933e-13
1.01672e-13
1.01661e-13
1.01711e-13
1.01448e-13
1.01407e-13
1.01576e-13
1.0203e-13
1.01793e-13
1.01572e-13
1.01696e-13
1.01969e-13
1.02178e-13
1.02194e-13
1.02598e-13
1.02809e-13
1.02802e-13
1.02768e-13
1.02745e-13
1.02757e-13
1.02656e-13
1.02274e-13
1.02677e-13
1.03103e-13
1.03413e-13
1.03699e-13
1.03572e-13
1.03638e-13
1.03931e-13
1.0403e-13
1.04651e-13
1.05084e-13
1.05644e-13
1.063e-13
1.06547e-13
1.06334e-13
1.06441e-13
1.06997e-13
1.07584e-13
1.077e-13
1.08218e-13
1.08694e-13
1.08675e-13
1.09245e-13
1.09511e-13
1.10096e-13
1.10566e-13
1.10785e-13
1.11123e-13
1.11093e-13
1.11141e-13
1.11079e-13
1.11397e-13
1.11625e-13
1.11379e-13
1.11167e-13
1.11462e-13
1.11838e-13
1.11776e-13
1.12167e-13
1.12448e-13
1.12506e-13
1.12453e-13
1.12965e-13
1.1321e-13
1.12821e-13
1.12722e-13
1.12933e-13
1.13255e-13
1.13447e-13
1.13485e-13
1.1316e-13
1.13357e-13
1.13904e-13
1.1408e-13
1.1414e-13
1.14111e-13
1.1379e-13
1.1377e-13
1.13493e-13
1.13327e-13
1.13235e-13
1.1372e-13
1.14075e-13
1.13802e-13
1.13652e-13
1.13786e-13
1.13801e-13
1.13816e-13
1.13871e-13
1.14145e-13
1.14341e-13
1.14325e-13
1.14101e-13
1.13539e-13
1.13901e-13
1.14589e-13
1.14511e-13
1.14566e-13
1.14574e-13
1.14343e-13
1.14747e-13
1.14822e-13
1.15362e-13
1.1605e-13
1.15641e-13
1.16008e-13
1.16395e-13
1.16139e-13
1.16114e-13
1.16341e-13
1.16641e-13
1.16821e-13
1.17205e-13
1.1759e-13
1.17556e-13
1.17671e-13
1.18156e-13
1.18938e-13
1.19497e-13
1.19359e-13
1.19367e-13
1.19702e-13
1.19907e-13
1.20378e-13
1.20445e-13
1.2085e-13
1.21043e-13
1.21352e-13
1.21258e-13
1.21827e-13
1.22284e-13
1.22341e-13
1.22733e-13
1.23869e-13
1.23892e-13
1.23789e-13
1.24171e-13
1.24683e-13
1.24963e-13
1.24808e-13
1.24911e-13
1.25511e-13
1.25314e-13
1.25395e-13
1.25353e-13
1.25199e-13
1.25718e-13
1.25525e-13
1.25194e-13
1.25346e-13
1.25128e-13
1.25686e-13
1.2516e-13
1.24516e-13
1.24629e-13
1.24545e-13
1.24648e-13
1.23877e-13
1.23364e-13
1.23492e-13
1.23324e-13
1.23153e-13
1.22261e-13
1.21957e-13
1.21926e-13
1.22e-13
1.21804e-13
1.20361e-13
1.20178e-13
1.20143e-13
1.18977e-13
1.18722e-13
1.17808e-13
1.16746e-13
1.15905e-13
1.14712e-13
1.13681e-13
1.12337e-13
1.1019e-13
1.07653e-13
1.04828e-13
1.0211e-13
9.93003e-14
9.54785e-14
9.13636e-14
8.74796e-14
8.92055e-14
9.09705e-14
9.42126e-14
9.80001e-14
1.00963e-13
1.03703e-13
1.06602e-13
1.09376e-13
1.11682e-13
1.13759e-13
1.15665e-13
1.16596e-13
1.17624e-13
1.18749e-13
1.19425e-13
1.20479e-13
1.21386e-13
1.22406e-13
1.22752e-13
1.23271e-13
1.24324e-13
1.24604e-13
1.24999e-13
1.25466e-13
1.25909e-13
1.26653e-13
1.26883e-13
1.27179e-13
1.27568e-13
1.27883e-13
1.28101e-13
1.2866e-13
1.28827e-13
1.29074e-13
1.29472e-13
1.29695e-13
1.29898e-13
1.3018e-13
1.30903e-13
1.31256e-13
1.31165e-13
1.31212e-13
1.31503e-13
1.31807e-13
1.32068e-13
1.32223e-13
1.32275e-13
1.32212e-13
1.32562e-13
1.3267e-13
1.32716e-13
1.32717e-13
1.32909e-13
1.32727e-13
1.32753e-13
1.3283e-13
1.32617e-13
1.32727e-13
1.32419e-13
1.32417e-13
1.32621e-13
1.32481e-13
1.3211e-13
1.32136e-13
1.32411e-13
1.32223e-13
1.32458e-13
1.31926e-13
1.31531e-13
1.31501e-13
1.31624e-13
1.31539e-13
1.31055e-13
1.30837e-13
1.30859e-13
1.3092e-13
1.30526e-13
1.29911e-13
1.29475e-13
1.29211e-13
1.28702e-13
1.28633e-13
1.2819e-13
1.27806e-13
1.2723e-13
1.26912e-13
1.26755e-13
1.26396e-13
1.25928e-13
1.25186e-13
1.24752e-13
1.23911e-13
1.23747e-13
1.23172e-13
1.22325e-13
1.2202e-13
1.21829e-13
1.21588e-13
1.20626e-13
1.20131e-13
1.19702e-13
1.19163e-13
1.19027e-13
1.18502e-13
1.17723e-13
1.17156e-13
1.16912e-13
1.16278e-13
1.15856e-13
1.15171e-13
1.14673e-13
1.14513e-13
1.14074e-13
1.1351e-13
1.12921e-13
1.12333e-13
1.1158e-13
1.10833e-13
1.09826e-13
1.08828e-13
1.08418e-13
1.07905e-13
1.07537e-13
1.06812e-13
1.0583e-13
1.05236e-13
1.04842e-13
1.04492e-13
1.03945e-13
1.03099e-13
1.02476e-13
1.0241e-13
1.02678e-13
1.01857e-13
1.01609e-13
1.01724e-13
1.01731e-13
1.01476e-13
1.01298e-13
1.01667e-13
1.02057e-13
1.01713e-13
1.01445e-13
1.01649e-13
1.01841e-13
1.02069e-13
1.02369e-13
1.02688e-13
1.02817e-13
1.02911e-13
1.03012e-13
1.02666e-13
1.02609e-13
1.02551e-13
1.02288e-13
1.02607e-13
1.0293e-13
1.03389e-13
1.03722e-13
1.03577e-13
1.03626e-13
1.03963e-13
1.04273e-13
1.04707e-13
1.04889e-13
1.055e-13
1.06483e-13
1.06744e-13
1.06348e-13
1.06406e-13
1.06687e-13
1.07597e-13
1.07807e-13
1.08162e-13
1.08738e-13
1.08872e-13
1.09428e-13
1.09582e-13
1.10195e-13
1.10723e-13
1.10839e-13
1.10925e-13
1.11105e-13
1.1109e-13
1.11204e-13
1.11409e-13
1.11547e-13
1.11622e-13
1.11147e-13
1.1133e-13
1.11648e-13
1.11856e-13
1.12419e-13
1.12532e-13
1.12533e-13
1.12692e-13
1.12908e-13
1.13116e-13
1.12957e-13
1.12552e-13
1.12933e-13
1.13479e-13
1.13378e-13
1.13274e-13
1.13258e-13
1.13404e-13
1.1398e-13
1.14033e-13
1.14066e-13
1.14226e-13
1.13838e-13
1.13822e-13
1.13572e-13
1.13308e-13
1.13275e-13
1.13744e-13
1.1413e-13
1.13711e-13
1.13542e-13
1.13765e-13
1.14078e-13
1.13722e-13
1.13798e-13
1.1405e-13
1.14136e-13
1.14433e-13
1.14236e-13
1.13413e-13
1.13828e-13
1.14483e-13
1.14692e-13
1.14598e-13
1.14306e-13
1.14355e-13
1.14754e-13
1.14832e-13
1.15313e-13
1.16172e-13
1.15864e-13
1.159e-13
1.16129e-13
1.16023e-13
1.16387e-13
1.16357e-13
1.16361e-13
1.16856e-13
1.17307e-13
1.17732e-13
1.17589e-13
1.17609e-13
1.18391e-13
1.18846e-13
1.19226e-13
1.19182e-13
1.19517e-13
1.19907e-13
1.19861e-13
1.2035e-13
1.20484e-13
1.20627e-13
1.20924e-13
1.21388e-13
1.2153e-13
1.21843e-13
1.22032e-13
1.22557e-13
1.22879e-13
1.23589e-13
1.23897e-13
1.23851e-13
1.24179e-13
1.247e-13
1.24829e-13
1.24805e-13
1.24891e-13
1.25425e-13
1.2539e-13
1.25557e-13
1.25352e-13
1.25105e-13
1.25712e-13
1.25567e-13
1.25232e-13
1.25417e-13
1.25122e-13
1.25686e-13
1.25215e-13
1.24325e-13
1.24651e-13
1.24647e-13
1.24526e-13
1.23914e-13
1.23531e-13
1.2365e-13
1.23355e-13
1.22878e-13
1.22366e-13
1.22022e-13
1.21845e-13
1.2198e-13
1.21674e-13
1.20817e-13
1.20298e-13
1.19795e-13
1.19039e-13
1.18729e-13
1.1796e-13
1.16724e-13
1.15769e-13
1.15043e-13
1.14003e-13
1.12502e-13
1.10422e-13
1.0804e-13
1.05408e-13
1.02523e-13
9.99271e-14
9.69568e-14
9.33584e-14
9.04237e-14
9.20761e-14
9.33566e-14
9.60467e-14
9.92795e-14
1.01875e-13
1.04457e-13
1.07039e-13
1.09592e-13
1.12023e-13
1.14162e-13
1.16034e-13
1.1676e-13
1.17593e-13
1.18717e-13
1.19576e-13
1.20474e-13
1.21405e-13
1.22435e-13
1.22651e-13
1.2337e-13
1.24123e-13
1.24496e-13
1.25025e-13
1.25505e-13
1.26015e-13
1.26541e-13
1.26998e-13
1.27235e-13
1.27373e-13
1.27909e-13
1.28179e-13
1.28765e-13
1.2886e-13
1.29024e-13
1.29547e-13
1.29869e-13
1.29862e-13
1.29979e-13
1.30968e-13
1.31342e-13
1.31258e-13
1.311e-13
1.31423e-13
1.31597e-13
1.32028e-13
1.32407e-13
1.32312e-13
1.32205e-13
1.32703e-13
1.32651e-13
1.32684e-13
1.32686e-13
1.32856e-13
1.32802e-13
1.32719e-13
1.32828e-13
1.32529e-13
1.32716e-13
1.32449e-13
1.3244e-13
1.32732e-13
1.32628e-13
1.31993e-13
1.31923e-13
1.32509e-13
1.32239e-13
1.32344e-13
1.31807e-13
1.31672e-13
1.31465e-13
1.31649e-13
1.31673e-13
1.30965e-13
1.30881e-13
1.31025e-13
1.3105e-13
1.30579e-13
1.29909e-13
1.29452e-13
1.29256e-13
1.28735e-13
1.28462e-13
1.28212e-13
1.27909e-13
1.27144e-13
1.26995e-13
1.26742e-13
1.26256e-13
1.25954e-13
1.25299e-13
1.24867e-13
1.23643e-13
1.23735e-13
1.23249e-13
1.22477e-13
1.22073e-13
1.21898e-13
1.21737e-13
1.20671e-13
1.20152e-13
1.19752e-13
1.19162e-13
1.18921e-13
1.18334e-13
1.17523e-13
1.17267e-13
1.17132e-13
1.16363e-13
1.15705e-13
1.15159e-13
1.14757e-13
1.14414e-13
1.14132e-13
1.13526e-13
1.12905e-13
1.1248e-13
1.117e-13
1.10827e-13
1.09817e-13
1.0871e-13
1.08326e-13
1.07836e-13
1.07425e-13
1.06929e-13
1.06054e-13
1.05208e-13
1.04461e-13
1.04615e-13
1.04024e-13
1.0311e-13
1.02378e-13
1.02285e-13
1.02731e-13
1.01813e-13
1.01546e-13
1.01726e-13
1.01699e-13
1.01538e-13
1.01192e-13
1.01572e-13
1.02149e-13
1.01642e-13
1.01367e-13
1.01626e-13
1.0176e-13
1.02032e-13
1.02451e-13
1.02744e-13
1.0292e-13
1.02969e-13
1.03088e-13
1.02661e-13
1.02479e-13
1.02394e-13
1.02219e-13
1.02782e-13
1.02913e-13
1.03233e-13
1.03724e-13
1.03689e-13
1.03583e-13
1.03938e-13
1.04258e-13
1.04767e-13
1.04804e-13
1.0539e-13
1.06653e-13
1.06972e-13
1.06519e-13
1.06375e-13
1.06488e-13
1.07549e-13
1.07963e-13
1.08079e-13
1.0874e-13
1.09082e-13
1.0954e-13
1.09835e-13
1.1033e-13
1.10973e-13
1.10817e-13
1.10944e-13
1.11042e-13
1.11012e-13
1.11261e-13
1.11191e-13
1.11367e-13
1.11934e-13
1.11346e-13
1.11178e-13
1.11457e-13
1.11947e-13
1.12636e-13
1.12523e-13
1.12756e-13
1.12925e-13
1.12809e-13
1.13151e-13
1.12892e-13
1.12607e-13
1.12811e-13
1.13517e-13
1.1324e-13
1.13111e-13
1.13455e-13
1.1346e-13
1.14168e-13
1.14149e-13
1.14007e-13
1.14178e-13
1.13738e-13
1.13958e-13
1.13569e-13
1.13227e-13
1.13283e-13
1.13899e-13
1.14237e-13
1.13675e-13
1.13418e-13
1.13695e-13
1.14199e-13
1.1368e-13
1.13739e-13
1.13991e-13
1.13848e-13
1.14416e-13
1.14359e-13
1.13496e-13
1.13778e-13
1.14508e-13
1.14624e-13
1.14552e-13
1.14163e-13
1.14572e-13
1.14669e-13
1.14809e-13
1.15329e-13
1.16193e-13
1.16118e-13
1.15828e-13
1.15885e-13
1.1586e-13
1.1646e-13
1.1656e-13
1.16263e-13
1.16658e-13
1.17464e-13
1.17938e-13
1.17703e-13
1.17481e-13
1.18504e-13
1.18867e-13
1.18997e-13
1.19029e-13
1.19758e-13
1.19957e-13
1.19812e-13
1.2031e-13
1.20608e-13
1.20264e-13
1.20881e-13
1.21547e-13
1.21737e-13
1.21837e-13
1.21931e-13
1.22607e-13
1.22891e-13
1.23279e-13
1.23905e-13
1.23938e-13
1.24366e-13
1.24643e-13
1.24573e-13
1.24846e-13
1.25012e-13
1.25105e-13
1.25441e-13
1.25771e-13
1.25483e-13
1.25196e-13
1.25671e-13
1.25567e-13
1.25148e-13
1.2548e-13
1.25132e-13
1.25572e-13
1.25222e-13
1.24282e-13
1.24626e-13
1.24549e-13
1.24364e-13
1.23939e-13
1.23836e-13
1.23872e-13
1.23503e-13
1.22497e-13
1.22437e-13
1.22229e-13
1.21767e-13
1.21823e-13
1.21585e-13
1.21265e-13
1.20421e-13
1.19567e-13
1.19294e-13
1.18643e-13
1.17933e-13
1.16799e-13
1.15664e-13
1.1541e-13
1.14131e-13
1.12774e-13
1.10799e-13
1.08447e-13
1.06044e-13
1.03012e-13
1.00602e-13
9.83195e-14
9.49902e-14
9.30525e-14
9.43824e-14
9.55947e-14
9.77381e-14
1.00391e-13
1.02604e-13
1.05335e-13
1.07756e-13
1.09752e-13
1.12553e-13
1.14544e-13
1.16139e-13
1.16916e-13
1.17772e-13
1.18875e-13
1.19614e-13
1.2038e-13
1.21405e-13
1.22195e-13
1.22531e-13
1.23325e-13
1.23968e-13
1.24459e-13
1.25063e-13
1.25708e-13
1.25855e-13
1.26493e-13
1.27055e-13
1.27252e-13
1.27436e-13
1.27978e-13
1.28291e-13
1.28722e-13
1.28809e-13
1.28997e-13
1.29606e-13
1.30149e-13
1.29892e-13
1.29918e-13
1.30935e-13
1.31427e-13
1.31402e-13
1.31265e-13
1.31348e-13
1.31369e-13
1.32032e-13
1.32604e-13
1.32467e-13
1.32306e-13
1.32394e-13
1.324e-13
1.32802e-13
1.32751e-13
1.32758e-13
1.32861e-13
1.32735e-13
1.32568e-13
1.32382e-13
1.32654e-13
1.32536e-13
1.32613e-13
1.3268e-13
1.32507e-13
1.31981e-13
1.3199e-13
1.32355e-13
1.32266e-13
1.32359e-13
1.3165e-13
1.31826e-13
1.31688e-13
1.31715e-13
1.31707e-13
1.30911e-13
1.30856e-13
1.31047e-13
1.31036e-13
1.30444e-13
1.30011e-13
1.29675e-13
1.29204e-13
1.28729e-13
1.2846e-13
1.28223e-13
1.27776e-13
1.27206e-13
1.26958e-13
1.26704e-13
1.26166e-13
1.26176e-13
1.25448e-13
1.24754e-13
1.23547e-13
1.23681e-13
1.23371e-13
1.22587e-13
1.22148e-13
1.21856e-13
1.21759e-13
1.20772e-13
1.2019e-13
1.19571e-13
1.18909e-13
1.19167e-13
1.18361e-13
1.17503e-13
1.17135e-13
1.17125e-13
1.16543e-13
1.15678e-13
1.15089e-13
1.14575e-13
1.14563e-13
1.14123e-13
1.13611e-13
1.12973e-13
1.12454e-13
1.11837e-13
1.10753e-13
1.09868e-13
1.08821e-13
1.08154e-13
1.07738e-13
1.07715e-13
1.06927e-13
1.05858e-13
1.05004e-13
1.04473e-13
1.04723e-13
1.03879e-13
1.02942e-13
1.02392e-13
1.02278e-13
1.02639e-13
1.01691e-13
1.01616e-13
1.01657e-13
1.01519e-13
1.0159e-13
1.01155e-13
1.01454e-13
1.02089e-13
1.01673e-13
1.01383e-13
1.01585e-13
1.01842e-13
1.02053e-13
1.02294e-13
1.02747e-13
1.02979e-13
1.03279e-13
1.02932e-13
1.0257e-13
1.02411e-13
1.02053e-13
1.02334e-13
1.02762e-13
1.02859e-13
1.03247e-13
1.0336e-13
1.03588e-13
1.03741e-13
1.04108e-13
1.04117e-13
1.04645e-13
1.0503e-13
1.05534e-13
1.06592e-13
1.07018e-13
1.06964e-13
1.06284e-13
1.06529e-13
1.07575e-13
1.08083e-13
1.08231e-13
1.08774e-13
1.09207e-13
1.09695e-13
1.10128e-13
1.10424e-13
1.10957e-13
1.10722e-13
1.10809e-13
1.11086e-13
1.11047e-13
1.11126e-13
1.11133e-13
1.11416e-13
1.11923e-13
1.11485e-13
1.11267e-13
1.11481e-13
1.11826e-13
1.12696e-13
1.12677e-13
1.12812e-13
1.12893e-13
1.13017e-13
1.1307e-13
1.1282e-13
1.12637e-13
1.12823e-13
1.13407e-13
1.13071e-13
1.13292e-13
1.13312e-13
1.13717e-13
1.14315e-13