/*--------------------------------*- C++ -*----------------------------------*\
| =========                 |                                                 |
| \\      /  F ield         | OpenFOAM: The Open Source CFD Toolbox           |
|  \\    /   O peration     | Version:  2112                                  |
|   \\  /    A nd           | Website:  www.openfoam.com                      |
|    \\/     M anipulation  |                                                 |
\*---------------------------------------------------------------------------*/
FoamFile
{
    version     2.0;
    format      ascii;
    arch        "LSB;label=32;scalar=64";
    class       volScalarField;
    location    "8";
    object      p;
}
// * * * * * * * * * * * * * * * * * * * * * * * * * * * * * * * * * * * * * //

dimensions      [0 2 -2 0 0 0 0];

internalField   nonuniform List<scalar> 
25600
(
4.14942e-14
1.03352e-13
1.43445e-13
1.69669e-13
1.8675e-13
1.99848e-13
2.10067e-13
2.18635e-13
2.25642e-13
2.31391e-13
2.35697e-13
2.40014e-13
2.43837e-13
2.48468e-13
2.53283e-13
2.56165e-13
2.59479e-13
2.62715e-13
2.65794e-13
2.68358e-13
2.7048e-13
2.73291e-13
2.76612e-13
2.79389e-13
2.82175e-13
2.83889e-13
2.854e-13
2.88825e-13
2.91702e-13
2.92828e-13
2.92238e-13
2.91793e-13
2.93432e-13
2.94244e-13
2.93896e-13
2.9345e-13
2.92449e-13
2.93131e-13
2.93851e-13
2.92415e-13
2.92882e-13
2.92614e-13
2.92141e-13
2.92532e-13
2.9133e-13
2.91484e-13
2.91293e-13
2.91425e-13
2.91492e-13
2.91796e-13
2.91969e-13
2.90153e-13
2.90533e-13
2.90374e-13
2.89709e-13
2.91663e-13
2.90606e-13
2.90864e-13
2.91114e-13
2.91367e-13
2.9404e-13
2.9253e-13
2.93605e-13
2.94201e-13
2.92766e-13
2.9528e-13
2.95802e-13
2.97851e-13
2.99798e-13
3.00833e-13
3.03992e-13
3.06109e-13
3.08554e-13
3.10056e-13
3.10471e-13
3.14665e-13
3.15802e-13
3.14027e-13
3.15558e-13
3.15127e-13
3.16974e-13
3.18496e-13
3.15851e-13
3.15291e-13
3.16114e-13
3.1859e-13
3.20461e-13
3.20302e-13
3.19009e-13
3.1838e-13
3.2203e-13
3.23549e-13
3.20376e-13
3.18604e-13
3.20939e-13
3.23651e-13
3.22098e-13
3.23148e-13
3.23822e-13
3.26198e-13
3.30308e-13
3.2923e-13
3.30887e-13
3.31019e-13
3.3207e-13
3.35381e-13
3.38949e-13
3.38276e-13
3.3726e-13
3.39601e-13
3.41559e-13
3.47417e-13
3.43162e-13
3.40391e-13
3.44266e-13
3.47505e-13
3.49791e-13
3.45877e-13
3.42742e-13
3.45858e-13
3.49497e-13
3.50601e-13
3.46365e-13
3.42611e-13
3.46473e-13
3.51983e-13
3.54533e-13
3.50155e-13
3.46893e-13
3.51281e-13
3.54603e-13
3.55695e-13
3.52862e-13
3.51995e-13
3.55754e-13
3.5666e-13
3.57626e-13
3.55146e-13
3.51519e-13
3.5366e-13
3.55009e-13
3.55222e-13
3.511e-13
3.4934e-13
3.51129e-13
3.51467e-13
3.53196e-13
3.50788e-13
3.49307e-13
3.47552e-13
3.44925e-13
3.48425e-13
3.46985e-13
3.41809e-13
3.39082e-13
3.37745e-13
3.39501e-13
3.38865e-13
3.34644e-13
3.33472e-13
3.32651e-13
3.37654e-13
3.34539e-13
3.2992e-13
3.33185e-13
3.29063e-13
3.29348e-13
3.28885e-13
3.24023e-13
3.24677e-13
3.25427e-13
3.28205e-13
3.24533e-13
3.22338e-13
3.23698e-13
3.22867e-13
3.21881e-13
3.15842e-13
3.18351e-13
3.17623e-13
3.13434e-13
3.18204e-13
3.12107e-13
3.07666e-13
3.07843e-13
3.03266e-13
3.07924e-13
3.04242e-13
3.00494e-13
3.05029e-13
3.01225e-13
3.02047e-13
3.02395e-13
2.9705e-13
3.00541e-13
2.99944e-13
3.00349e-13
2.97071e-13
2.91424e-13
2.96362e-13
2.9311e-13
2.93054e-13
2.88794e-13
2.83606e-13
2.89234e-13
2.89909e-13
2.87005e-13
2.80496e-13
2.7861e-13
2.83109e-13
2.84792e-13
2.82486e-13
2.72857e-13
2.80737e-13
2.8892e-13
2.78096e-13
2.83735e-13
2.88794e-13
2.90024e-13
2.90981e-13
2.80009e-13
2.86611e-13
2.9415e-13
2.93997e-13
2.94835e-13
2.83612e-13
2.91392e-13
2.96511e-13
2.92963e-13
2.95724e-13
2.88897e-13
2.95036e-13
2.97078e-13
2.95589e-13
3.01435e-13
2.93918e-13
2.94498e-13
2.95277e-13
2.97798e-13
3.06368e-13
3.00208e-13
3.04796e-13
3.04602e-13
3.04541e-13
3.16138e-13
3.08874e-13
3.06357e-13
3.06689e-13
3.12136e-13
3.20546e-13
3.12544e-13
3.19292e-13
3.24768e-13
3.23952e-13
3.26327e-13
3.16153e-13
3.24116e-13
3.27448e-13
3.26933e-13
3.35345e-13
3.29328e-13
3.32399e-13
3.3544e-13
3.36189e-13
3.40429e-13
3.33583e-13
3.39794e-13
3.45518e-13
3.47752e-13
3.51923e-13
3.45314e-13
3.48566e-13
3.51517e-13
3.53736e-13
3.58073e-13
3.5182e-13
3.54137e-13
3.56703e-13
3.54591e-13
3.59947e-13
3.55235e-13
3.55611e-13
3.58675e-13
3.58805e-13
3.63374e-13
3.57828e-13
3.56587e-13
3.61285e-13
3.64808e-13
3.6407e-13
3.55592e-13
3.56923e-13
3.58627e-13
3.56688e-13
3.52116e-13
3.43134e-13
3.43866e-13
3.43088e-13
3.41746e-13
3.35245e-13
3.24138e-13
3.22864e-13
3.2112e-13
3.22667e-13
3.1781e-13
3.05944e-13
3.00227e-13
2.92902e-13
2.91845e-13
2.82215e-13
2.73048e-13
2.67916e-13
2.53079e-13
2.46768e-13
2.36238e-13
2.17816e-13
2.03775e-13
1.78783e-13
1.52538e-13
1.11158e-13
8.53983e-14
1.16468e-13
1.4826e-13
1.71901e-13
1.87945e-13
2.00677e-13
2.10551e-13
2.19225e-13
2.26394e-13
2.3183e-13
2.35761e-13
2.40072e-13
2.44107e-13
2.48853e-13
2.53381e-13
2.5652e-13
2.59816e-13
2.62899e-13
2.65673e-13
2.68396e-13
2.70908e-13
2.73588e-13
2.76613e-13
2.79055e-13
2.81687e-13
2.83797e-13
2.85985e-13
2.88742e-13
2.91115e-13
2.92836e-13
2.92446e-13
2.92042e-13
2.93442e-13
2.94189e-13
2.94023e-13
2.93399e-13
2.92646e-13
2.92723e-13
2.93619e-13
2.92875e-13
2.92734e-13
2.92902e-13
2.91941e-13
2.92206e-13
2.92015e-13
2.91147e-13
2.91116e-13
2.91266e-13
2.91219e-13
2.917e-13
2.91149e-13
2.90646e-13
2.90623e-13
2.90394e-13
2.90232e-13
2.9098e-13
2.90223e-13
2.90631e-13
2.91152e-13
2.91906e-13
2.93494e-13
2.92576e-13
2.93628e-13
2.9436e-13
2.93215e-13
2.951e-13
2.95727e-13
2.97843e-13
3.00332e-13
3.01039e-13
3.03751e-13
3.05953e-13
3.08564e-13
3.09855e-13
3.11032e-13
3.14361e-13
3.14969e-13
3.14581e-13
3.15566e-13
3.15653e-13
3.16387e-13
3.17435e-13
3.16034e-13
3.15781e-13
3.16963e-13
3.18739e-13
3.18917e-13
3.19687e-13
3.20426e-13
3.19778e-13
3.21781e-13
3.22083e-13
3.2033e-13
3.1993e-13
3.20848e-13
3.22356e-13
3.21747e-13
3.2328e-13
3.2545e-13
3.26795e-13
3.28248e-13
3.29128e-13
3.30641e-13
3.32132e-13
3.32525e-13
3.34758e-13
3.38423e-13
3.39026e-13
3.38062e-13
3.39269e-13
3.41959e-13
3.45614e-13
3.43892e-13
3.42388e-13
3.44152e-13
3.46422e-13
3.4895e-13
3.46764e-13
3.4338e-13
3.45581e-13
3.49194e-13
3.49388e-13
3.46277e-13
3.44156e-13
3.46788e-13
3.51146e-13
3.5369e-13
3.50218e-13
3.48402e-13
3.51506e-13
3.53716e-13
3.54906e-13
3.53545e-13
3.52594e-13
3.55091e-13
3.56443e-13
3.57276e-13
3.55105e-13
3.5173e-13
3.53384e-13
3.54967e-13
3.54946e-13
3.51133e-13
3.49522e-13
3.50945e-13
3.5183e-13
3.52385e-13
3.5006e-13
3.49417e-13
3.48476e-13
3.46162e-13
3.46919e-13
3.45337e-13
3.42496e-13
3.40083e-13
3.38589e-13
3.38927e-13
3.3815e-13
3.35274e-13
3.3401e-13
3.3411e-13
3.36649e-13
3.33918e-13
3.31055e-13
3.32172e-13
3.30283e-13
3.28858e-13
3.27867e-13
3.25481e-13
3.25204e-13
3.26593e-13
3.27072e-13
3.244e-13
3.22045e-13
3.22312e-13
3.23823e-13
3.21596e-13
3.17928e-13
3.17724e-13
3.15772e-13
3.15502e-13
3.17121e-13
3.11898e-13
3.07423e-13
3.06779e-13
3.0573e-13
3.0695e-13
3.04254e-13
3.01477e-13
3.02576e-13
3.02189e-13
3.01992e-13
3.01698e-13
2.99462e-13
2.99572e-13
2.99739e-13
2.98887e-13
2.97533e-13
2.95186e-13
2.94063e-13
2.92427e-13
2.9179e-13
2.89129e-13
2.87321e-13
2.87347e-13
2.8717e-13
2.86155e-13
2.82836e-13
2.8163e-13
2.81614e-13
2.81641e-13
2.8148e-13
2.7665e-13
2.80679e-13
2.85548e-13
2.81947e-13
2.85281e-13
2.85701e-13
2.87929e-13
2.90149e-13
2.84283e-13
2.88528e-13
2.91314e-13
2.9182e-13
2.93891e-13
2.87578e-13
2.92088e-13
2.95569e-13
2.93027e-13
2.94114e-13
2.90594e-13
2.94938e-13
2.96776e-13
2.96409e-13
2.99886e-13
2.95811e-13
2.95498e-13
2.94153e-13
2.97539e-13
3.05025e-13
3.02377e-13
3.05083e-13
3.04243e-13
3.05255e-13
3.13438e-13
3.08501e-13
3.08108e-13
3.08385e-13
3.11774e-13
3.18044e-13
3.13492e-13
3.19479e-13
3.24574e-13
3.246e-13
3.24014e-13
3.17124e-13
3.24637e-13
3.27722e-13
3.27797e-13
3.32979e-13
3.30438e-13
3.33486e-13
3.34911e-13
3.36345e-13
3.38694e-13
3.34845e-13
3.41748e-13
3.44869e-13
3.46591e-13
3.50867e-13
3.4653e-13
3.49486e-13
3.50937e-13
3.53292e-13
3.57536e-13
3.52474e-13
3.54742e-13
3.54984e-13
3.55519e-13
3.60454e-13
3.55154e-13
3.56863e-13
3.57588e-13
3.58271e-13
3.62733e-13
3.57376e-13
3.5888e-13
3.62252e-13
3.63298e-13
3.62834e-13
3.56911e-13
3.58385e-13
3.58547e-13
3.53961e-13
3.52328e-13
3.45808e-13
3.43136e-13
3.44028e-13
3.39218e-13
3.35259e-13
3.27152e-13
3.22681e-13
3.2224e-13
3.20986e-13
3.1612e-13
3.05818e-13
3.01005e-13
2.95623e-13
2.908e-13
2.82282e-13
2.72916e-13
2.67247e-13
2.55729e-13
2.45784e-13
2.35353e-13
2.20407e-13
2.04571e-13
1.81301e-13
1.56709e-13
1.22847e-13
1.16536e-13
1.3214e-13
1.55316e-13
1.75288e-13
1.89937e-13
2.02317e-13
2.11638e-13
2.20089e-13
2.2755e-13
2.32442e-13
2.36214e-13
2.40285e-13
2.44353e-13
2.4918e-13
2.53729e-13
2.56891e-13
2.60364e-13
2.63139e-13
2.6547e-13
2.68617e-13
2.71344e-13
2.73634e-13
2.76609e-13
2.7887e-13
2.81249e-13
2.8354e-13
2.86294e-13
2.88724e-13
2.90769e-13
2.9278e-13
2.92808e-13
2.92565e-13
2.93557e-13
2.94294e-13
2.94164e-13
2.93124e-13
2.92501e-13
2.9227e-13
2.93566e-13
2.9354e-13
2.92936e-13
2.92926e-13
2.92058e-13
2.92005e-13
2.92012e-13
2.91055e-13
2.91046e-13
2.91095e-13
2.91207e-13
2.91168e-13
2.90897e-13
2.90593e-13
2.90521e-13
2.90357e-13
2.9064e-13
2.90562e-13
2.89876e-13
2.90284e-13
2.90809e-13
2.92024e-13
2.93327e-13
2.9299e-13
2.93803e-13
2.94119e-13
2.93598e-13
2.94903e-13
2.95656e-13
2.98089e-13
3.00721e-13
3.0127e-13
3.03464e-13
3.05768e-13
3.08486e-13
3.09932e-13
3.11712e-13
3.13998e-13
3.14165e-13
3.15008e-13
3.15868e-13
3.15837e-13
3.16031e-13
3.16704e-13
3.16296e-13
3.15957e-13
3.17044e-13
3.18804e-13
3.18709e-13
3.19051e-13
3.20912e-13
3.209e-13
3.21612e-13
3.21524e-13
3.20633e-13
3.20275e-13
3.20653e-13
3.21675e-13
3.21461e-13
3.23461e-13
3.26166e-13
3.27228e-13
3.27015e-13
3.29143e-13
3.30419e-13
3.32431e-13
3.3309e-13
3.34539e-13
3.37992e-13
3.39399e-13
3.38534e-13
3.39353e-13
3.42168e-13
3.44409e-13
3.44354e-13
3.4374e-13
3.44297e-13
3.45993e-13
3.48508e-13
3.46742e-13
3.4409e-13
3.45491e-13
3.48448e-13
3.48349e-13
3.46274e-13
3.45268e-13
3.47449e-13
3.5081e-13
3.51935e-13
3.50129e-13
3.50016e-13
3.51928e-13
3.53195e-13
3.5362e-13
3.53838e-13
3.53555e-13
3.54933e-13
3.56149e-13
3.56711e-13
3.54858e-13
3.52101e-13
3.53663e-13
3.54808e-13
3.54413e-13
3.50926e-13
3.49638e-13
3.51036e-13
3.51306e-13
3.51893e-13
3.50531e-13
3.49637e-13
3.48891e-13
3.46922e-13
3.4558e-13
3.44094e-13
3.4289e-13
3.40332e-13
3.39332e-13
3.38808e-13
3.37356e-13
3.357e-13
3.34472e-13
3.35196e-13
3.35967e-13
3.33373e-13
3.31902e-13
3.31783e-13
3.30748e-13
3.2865e-13
3.27217e-13
3.2654e-13
3.25845e-13
3.26485e-13
3.26883e-13
3.24228e-13
3.21916e-13
3.22232e-13
3.2309e-13
3.2144e-13
3.19841e-13
3.17635e-13
3.15059e-13
3.16002e-13
3.15978e-13
3.11539e-13
3.07584e-13
3.06496e-13
3.07003e-13
3.05972e-13
3.03951e-13
3.0214e-13
3.01634e-13
3.02435e-13
3.02172e-13
3.01755e-13
3.00425e-13
2.99393e-13
2.99587e-13
2.98358e-13
2.98065e-13
2.96946e-13
2.93081e-13
2.91867e-13
2.9128e-13
2.89275e-13
2.88846e-13
2.86621e-13
2.85629e-13
2.85532e-13
2.8394e-13
2.83036e-13
2.81091e-13
2.80183e-13
2.8083e-13
2.78845e-13
2.80799e-13
2.8379e-13
2.84101e-13
2.85762e-13
2.83933e-13
2.86672e-13
2.89518e-13
2.87231e-13
2.89822e-13
2.89522e-13
2.9052e-13
2.9317e-13
2.9064e-13
2.92799e-13
2.94843e-13
2.92862e-13
2.93353e-13
2.91566e-13
2.94982e-13
2.97215e-13
2.97046e-13
2.98491e-13
2.96328e-13
2.95921e-13
2.9432e-13
2.98039e-13
3.03895e-13
3.02978e-13
3.05186e-13
3.04751e-13
3.0599e-13
3.11227e-13
3.08498e-13
3.09416e-13
3.09426e-13
3.11243e-13
3.16583e-13
3.14904e-13
3.19578e-13
3.23743e-13
3.24017e-13
3.22399e-13
3.1953e-13
3.24856e-13
3.2694e-13
3.27971e-13
3.31537e-13
3.32331e-13
3.34405e-13
3.33936e-13
3.35655e-13
3.37863e-13
3.36681e-13
3.43151e-13
3.44244e-13
3.45993e-13
3.49969e-13
3.46928e-13
3.49884e-13
3.51474e-13
3.53004e-13
3.56662e-13
3.53064e-13
3.54914e-13
3.54502e-13
3.56093e-13
3.60401e-13
3.5504e-13
3.57498e-13
3.57681e-13
3.57588e-13
3.61692e-13
3.57649e-13
3.60326e-13
3.62967e-13
3.61828e-13
3.62184e-13
3.58441e-13
3.59111e-13
3.57538e-13
3.53453e-13
3.52949e-13
3.47084e-13
3.4301e-13
3.43967e-13
3.38369e-13
3.35532e-13
3.2931e-13
3.23709e-13
3.2243e-13
3.19369e-13
3.14778e-13
3.06083e-13
3.02191e-13
2.97509e-13
2.89813e-13
2.82971e-13
2.72729e-13
2.67286e-13
2.58085e-13
2.45294e-13
2.35995e-13
2.22461e-13
2.05936e-13
1.85427e-13
1.62876e-13
1.3683e-13
1.41004e-13
1.47441e-13
1.63538e-13
1.79888e-13
1.93095e-13
2.04542e-13
2.13099e-13
2.2151e-13
2.28663e-13
2.33477e-13
2.36817e-13
2.40589e-13
2.44573e-13
2.49637e-13
2.54285e-13
2.57221e-13
2.6078e-13
2.63689e-13
2.65633e-13
2.68678e-13
2.71582e-13
2.73906e-13
2.76885e-13
2.78879e-13
2.81313e-13
2.8311e-13
2.86024e-13
2.88622e-13
2.91024e-13
2.92987e-13
2.92899e-13
2.92958e-13
2.93767e-13
2.94352e-13
2.94357e-13
2.92484e-13
2.92255e-13
2.92608e-13
2.93403e-13
2.93549e-13
2.93401e-13
2.92882e-13
2.91518e-13
2.92104e-13
2.9178e-13
2.91133e-13
2.91106e-13
2.90936e-13
2.9125e-13
2.90602e-13
2.90517e-13
2.9051e-13
2.90748e-13
2.90414e-13
2.90627e-13
2.90216e-13
2.8937e-13
2.89672e-13
2.9025e-13
2.91909e-13
2.93626e-13
2.93471e-13
2.93962e-13
2.94062e-13
2.93778e-13
2.95068e-13
2.95746e-13
2.9809e-13
3.00905e-13
3.01487e-13
3.03096e-13
3.0562e-13
3.08289e-13
3.10165e-13
3.12352e-13
3.14099e-13
3.1367e-13
3.14994e-13
3.16055e-13
3.16043e-13
3.15361e-13
3.16398e-13
3.16748e-13
3.15829e-13
3.16804e-13
3.18502e-13
3.19763e-13
3.19113e-13
3.20038e-13
3.21127e-13
3.22075e-13
3.21045e-13
3.20774e-13
3.20185e-13
3.20487e-13
3.2144e-13
3.21443e-13
3.24171e-13
3.25633e-13
3.27137e-13
3.26773e-13
3.28568e-13
3.30387e-13
3.32571e-13
3.33669e-13
3.34825e-13
3.37288e-13
3.3909e-13
3.39172e-13
3.40086e-13
3.41781e-13
3.43955e-13
3.44626e-13
3.43924e-13
3.4452e-13
3.4674e-13
3.47608e-13
3.46001e-13
3.44824e-13
3.46459e-13
3.47517e-13
3.4724e-13
3.47116e-13
3.46046e-13
3.46613e-13
3.50856e-13
3.50925e-13
3.49704e-13
3.50987e-13
3.5203e-13
3.52537e-13
3.52627e-13
3.5368e-13
3.55068e-13
3.55304e-13
3.55377e-13
3.55465e-13
3.5418e-13
3.53723e-13
3.54363e-13
3.53658e-13
3.53335e-13
3.51437e-13
3.49764e-13
3.50666e-13
3.51043e-13
3.50958e-13
3.51352e-13
3.50521e-13
3.4899e-13
3.46778e-13
3.44818e-13
3.44716e-13
3.43089e-13
3.4003e-13
3.39271e-13
3.38625e-13
3.37183e-13
3.36011e-13
3.34563e-13
3.35742e-13
3.35217e-13
3.32909e-13
3.32906e-13
3.32255e-13
3.30839e-13
3.28931e-13
3.27457e-13
3.26164e-13
3.25936e-13
3.26489e-13
3.27222e-13
3.23232e-13
3.2256e-13
3.23524e-13
3.21919e-13
3.21311e-13
3.19937e-13
3.17979e-13
3.15445e-13
3.14953e-13
3.15462e-13
3.12141e-13
3.08004e-13
3.06329e-13
3.06651e-13
3.05879e-13
3.03348e-13
3.0206e-13
3.02092e-13
3.02325e-13
3.02269e-13
3.01902e-13
3.00943e-13
2.9975e-13
2.98827e-13
2.99093e-13
2.98523e-13
2.96633e-13
2.93156e-13
2.91887e-13
2.91118e-13
2.89314e-13
2.88683e-13
2.86252e-13
2.85439e-13
2.85219e-13
2.83753e-13
2.83048e-13
2.81644e-13
2.80588e-13
2.80142e-13
2.79622e-13
2.80651e-13
2.83165e-13
2.84672e-13
2.8508e-13
2.84606e-13
2.86769e-13
2.88871e-13
2.88114e-13
2.90123e-13
2.89554e-13
2.90216e-13
2.92576e-13
2.9247e-13
2.93112e-13
2.93312e-13
2.92746e-13
2.94659e-13
2.93042e-13
2.95041e-13
2.97319e-13
2.96832e-13
2.96743e-13
2.96301e-13
2.9677e-13
2.96267e-13
2.97615e-13
3.02628e-13
3.04525e-13
3.0469e-13
3.04069e-13
3.06259e-13
3.10743e-13
3.09931e-13
3.1018e-13
3.08869e-13
3.1119e-13
3.15602e-13
3.15575e-13
3.19755e-13
3.2361e-13
3.23059e-13
3.21014e-13
3.21978e-13
3.24927e-13
3.26125e-13
3.27786e-13
3.30392e-13
3.33937e-13
3.3401e-13
3.33656e-13
3.35992e-13
3.38458e-13
3.3797e-13
3.42301e-13
3.44829e-13
3.46488e-13
3.48163e-13
3.46797e-13
3.49643e-13
3.53112e-13
3.54136e-13
3.54614e-13
3.54643e-13
3.54905e-13
3.54712e-13
3.56454e-13
3.58065e-13
3.56947e-13
3.57422e-13
3.57746e-13
3.58106e-13
3.595e-13
3.59599e-13
3.60902e-13
3.61329e-13
3.61503e-13
3.61816e-13
3.61223e-13
3.59945e-13
3.5571e-13
3.53206e-13
3.53179e-13
3.48666e-13
3.43797e-13
3.42413e-13
3.3861e-13
3.35556e-13
3.30957e-13
3.2429e-13
3.21927e-13
3.19599e-13
3.1443e-13
3.08323e-13
3.02081e-13
2.96639e-13
2.90048e-13
2.83286e-13
2.73864e-13
2.68605e-13
2.5922e-13
2.46646e-13
2.35997e-13
2.2369e-13
2.09084e-13
1.91048e-13
1.70988e-13
1.51448e-13
1.58026e-13
1.6107e-13
1.72599e-13
1.85733e-13
1.97052e-13
2.06672e-13
2.15321e-13
2.23197e-13
2.30154e-13
2.35362e-13
2.37998e-13
2.41027e-13
2.45019e-13
2.49783e-13
2.55042e-13
2.58042e-13
2.60947e-13
2.63822e-13
2.65658e-13
2.69209e-13
2.71895e-13
2.74193e-13
2.7728e-13
2.79274e-13
2.80945e-13
2.82988e-13
2.8559e-13
2.88865e-13
2.91335e-13
2.92671e-13
2.9322e-13
2.93453e-13
2.94372e-13
2.94521e-13
2.94125e-13
2.92198e-13
2.92299e-13
2.92868e-13
2.92378e-13
2.93697e-13
2.93882e-13
2.92119e-13
2.91497e-13
2.922e-13
2.91754e-13
2.90969e-13
2.90925e-13
2.90985e-13
2.90459e-13
2.90679e-13
2.90553e-13
2.90869e-13
2.90687e-13
2.9054e-13
2.90959e-13
2.89789e-13
2.89073e-13
2.89257e-13
2.89495e-13
2.91695e-13
2.93394e-13
2.93991e-13
2.94103e-13
2.94019e-13
2.93743e-13
2.94626e-13
2.96619e-13
2.98676e-13
3.0072e-13
3.01299e-13
3.0288e-13
3.05848e-13
3.08258e-13
3.10427e-13
3.12855e-13
3.14109e-13
3.13585e-13
3.143e-13
3.16313e-13
3.16345e-13
3.15087e-13
3.16003e-13
3.16646e-13
3.15669e-13
3.16627e-13
3.18222e-13
3.19858e-13
3.1954e-13
3.19972e-13
3.20869e-13
3.22441e-13
3.21066e-13
3.20186e-13
3.20349e-13
3.2107e-13
3.20711e-13
3.20961e-13
3.246e-13
3.25467e-13
3.268e-13
3.26832e-13
3.28635e-13
3.30379e-13
3.32269e-13
3.34182e-13
3.35206e-13
3.3692e-13
3.39261e-13
3.39372e-13
3.40269e-13
3.41472e-13
3.43442e-13
3.44828e-13
3.44219e-13
3.44511e-13
3.47059e-13
3.47048e-13
3.45801e-13
3.4533e-13
3.46618e-13
3.46719e-13
3.4744e-13
3.47747e-13
3.46368e-13
3.46037e-13
3.49977e-13
3.50308e-13
3.4985e-13
3.51772e-13
3.5125e-13
3.51995e-13
3.5308e-13
3.53313e-13
3.55259e-13
3.55633e-13
3.54698e-13
3.54517e-13
3.54043e-13
3.54296e-13
3.54441e-13
3.529e-13
3.52507e-13
3.51424e-13
3.50242e-13
3.50701e-13
3.50782e-13
3.50068e-13
3.52133e-13
3.51154e-13
3.4948e-13
3.46678e-13
3.43951e-13
3.44961e-13
3.43228e-13
3.40303e-13
3.38381e-13
3.37832e-13
3.37826e-13
3.36439e-13
3.35145e-13
3.36333e-13
3.34162e-13
3.33556e-13
3.33327e-13
3.32345e-13
3.31168e-13
3.29103e-13
3.27889e-13
3.2601e-13
3.26014e-13
3.26596e-13
3.263e-13
3.22772e-13
3.23743e-13
3.23778e-13
3.21984e-13
3.21787e-13
3.19391e-13
3.1811e-13
3.15835e-13
3.14804e-13
3.14759e-13
3.12658e-13
3.08234e-13
3.05676e-13
3.05733e-13
3.05914e-13
3.03543e-13
3.02143e-13
3.01948e-13
3.02367e-13
3.02447e-13
3.01501e-13
3.00838e-13
3.00143e-13
2.98541e-13
2.9975e-13
2.9893e-13
2.9618e-13
2.94062e-13
2.91827e-13
2.90282e-13
2.89466e-13
2.88511e-13
2.86181e-13
2.85632e-13
2.8477e-13
2.83773e-13
2.82544e-13
2.81928e-13
2.81359e-13
2.79709e-13
2.80225e-13
2.80709e-13
2.82813e-13
2.84545e-13
2.84776e-13
2.85874e-13
2.86966e-13
2.88014e-13
2.88582e-13
2.90269e-13
2.90237e-13
2.89907e-13
2.92023e-13
2.9283e-13
2.93526e-13
2.92783e-13
2.93705e-13
2.95609e-13
2.9366e-13
2.95379e-13
2.97639e-13
2.96934e-13
2.95297e-13
2.95944e-13
2.97718e-13
2.98657e-13
2.97283e-13
3.01018e-13
3.0453e-13
3.04721e-13
3.03842e-13
3.06709e-13
3.10297e-13
3.11616e-13
3.10467e-13
3.08674e-13
3.11971e-13
3.14433e-13
3.15697e-13
3.2e-13
3.22832e-13
3.22924e-13
3.2132e-13
3.23567e-13
3.24528e-13
3.25401e-13
3.28328e-13
3.29625e-13
3.32546e-13
3.33753e-13
3.34848e-13
3.36918e-13
3.3857e-13
3.38754e-13
3.41702e-13
3.46072e-13
3.46274e-13
3.46587e-13
3.47185e-13
3.49759e-13
3.54269e-13
3.54907e-13
3.52831e-13
3.55728e-13
3.54985e-13
3.5472e-13
3.57566e-13
3.56312e-13
3.57822e-13
3.56826e-13
3.57901e-13
3.58851e-13
3.58099e-13
3.61178e-13
3.61082e-13
3.60726e-13
3.61193e-13
3.61609e-13
3.63097e-13
3.59981e-13
3.55289e-13
3.5398e-13
3.52002e-13
3.5034e-13
3.44913e-13
3.41645e-13
3.3843e-13
3.35556e-13
3.3281e-13
3.24726e-13
3.22142e-13
3.20392e-13
3.13922e-13
3.09857e-13
3.02629e-13
2.9642e-13
2.90653e-13
2.8344e-13
2.76519e-13
2.68648e-13
2.60363e-13
2.49463e-13
2.3655e-13
2.25837e-13
2.12531e-13
1.96692e-13
1.79815e-13
1.65174e-13
1.71117e-13
1.72567e-13
1.81218e-13
1.92208e-13
2.01583e-13
2.09269e-13
2.18081e-13
2.25155e-13
2.31575e-13
2.37034e-13
2.40025e-13
2.41877e-13
2.45509e-13
2.50323e-13
2.55257e-13
2.5823e-13
2.61559e-13
2.64201e-13
2.66855e-13
2.6931e-13
2.72083e-13
2.74322e-13
2.77248e-13
2.79504e-13
2.8125e-13
2.82842e-13
2.8569e-13
2.89254e-13
2.91164e-13
2.92686e-13
2.9288e-13
2.9466e-13
2.94473e-13
2.94202e-13
2.94582e-13
2.92052e-13
2.91905e-13
2.92626e-13
2.92233e-13
2.92923e-13
2.93793e-13
2.9223e-13
2.91497e-13
2.92004e-13
2.91286e-13
2.90903e-13
2.90819e-13
2.9119e-13
2.90291e-13
2.90646e-13
2.90497e-13
2.90492e-13
2.9082e-13
2.9068e-13
2.9109e-13
2.89429e-13
2.89512e-13
2.89274e-13
2.89418e-13
2.90841e-13
2.92388e-13
2.93984e-13
2.94082e-13
2.93711e-13
2.94382e-13
2.94528e-13
2.96861e-13
2.98658e-13
3.00834e-13
3.01517e-13
3.02652e-13
3.0573e-13
3.08499e-13
3.10809e-13
3.13193e-13
3.1457e-13
3.13161e-13
3.14374e-13
3.16366e-13
3.16209e-13
3.15206e-13
3.16047e-13
3.16751e-13
3.15405e-13
3.16282e-13
3.18417e-13
3.19065e-13
3.18597e-13
3.19928e-13
3.21598e-13
3.2254e-13
3.2079e-13
3.19773e-13
3.20295e-13
3.21414e-13
3.20749e-13
3.20761e-13
3.24465e-13
3.25518e-13
3.26788e-13
3.27041e-13
3.286e-13
3.3035e-13
3.32167e-13
3.34047e-13
3.35768e-13
3.36909e-13
3.39346e-13
3.39094e-13
3.39826e-13
3.42053e-13
3.43341e-13
3.44978e-13
3.44317e-13
3.44659e-13
3.46551e-13
3.47143e-13
3.46558e-13
3.45898e-13
3.46219e-13
3.4589e-13
3.47855e-13
3.47438e-13
3.46123e-13
3.4648e-13
3.49048e-13
3.49298e-13
3.50304e-13
3.52349e-13
3.5007e-13
3.51453e-13
3.52631e-13
3.5332e-13
3.54355e-13
3.55235e-13
3.54961e-13
3.54965e-13
3.53891e-13
3.54316e-13
3.53727e-13
3.52384e-13
3.52092e-13
3.51132e-13
3.49804e-13
3.50448e-13
3.51095e-13
3.51246e-13
3.52628e-13
3.51658e-13
3.49001e-13
3.46778e-13
3.44352e-13
3.44259e-13
3.43153e-13
3.40752e-13
3.38243e-13
3.37652e-13
3.37529e-13
3.37023e-13
3.36352e-13
3.36161e-13
3.34347e-13
3.34062e-13
3.33765e-13
3.31754e-13
3.30901e-13
3.29704e-13
3.28457e-13
3.2648e-13
3.26511e-13
3.25586e-13
3.2535e-13
3.24168e-13
3.2344e-13
3.23507e-13
3.2212e-13
3.21981e-13
3.20145e-13
3.18131e-13
3.16153e-13
3.14215e-13
3.13706e-13
3.13112e-13
3.08633e-13
3.05435e-13
3.0463e-13
3.0574e-13
3.04518e-13
3.02425e-13
3.01512e-13
3.01889e-13
3.03207e-13
3.02355e-13
3.0029e-13
2.99961e-13
2.98844e-13
2.99054e-13
2.98445e-13
2.97112e-13
2.94773e-13
2.91662e-13
2.90559e-13
2.89149e-13
2.87817e-13
2.87092e-13
2.85318e-13
2.8373e-13
2.83704e-13
2.82097e-13
2.8172e-13
2.80855e-13
2.80174e-13
2.81659e-13
2.80516e-13
2.82707e-13
2.85146e-13
2.84469e-13
2.85011e-13
2.87006e-13
2.8834e-13
2.88969e-13
2.90522e-13
2.90796e-13
2.89656e-13
2.91009e-13
2.93255e-13
2.9464e-13
2.93042e-13
2.93421e-13
2.95491e-13
2.95731e-13
2.95698e-13
2.97094e-13
2.97269e-13
2.95353e-13
2.96682e-13
2.97473e-13
2.98742e-13
2.9847e-13
2.99789e-13
3.02698e-13
3.0456e-13
3.05158e-13
3.07324e-13
3.0905e-13
3.11445e-13
3.1117e-13
3.09224e-13
3.12718e-13
3.14838e-13
3.16797e-13
3.20113e-13
3.20854e-13
3.22634e-13
3.21765e-13
3.2431e-13
3.24933e-13
3.25506e-13
3.28609e-13
3.28535e-13
3.3181e-13
3.3391e-13
3.36166e-13
3.37009e-13
3.37604e-13
3.40179e-13
3.42111e-13
3.45908e-13
3.46233e-13
3.4629e-13
3.47642e-13
3.50495e-13
3.54427e-13
3.55089e-13
3.53061e-13
3.55282e-13
3.54949e-13
3.54583e-13
3.58099e-13
3.56096e-13
3.57348e-13
3.57131e-13
3.58191e-13
3.58985e-13
3.58052e-13
3.61301e-13
3.6132e-13
3.6069e-13
3.61445e-13
3.62075e-13
3.62769e-13
3.60466e-13
3.56027e-13
3.5441e-13
3.50602e-13
3.4918e-13
3.46131e-13
3.42872e-13
3.39393e-13
3.36018e-13
3.32853e-13
3.27092e-13
3.22522e-13
3.19654e-13
3.14734e-13
3.10165e-13
3.03756e-13
2.96995e-13
2.90794e-13
2.84563e-13
2.78114e-13
2.70016e-13
2.61577e-13
2.51459e-13
2.39707e-13
2.28313e-13
2.15893e-13
2.03198e-13
1.89104e-13
1.77028e-13
1.82368e-13
1.83237e-13
1.89371e-13
1.98664e-13
2.06605e-13
2.13428e-13
2.20724e-13
2.27736e-13
2.33335e-13
2.3899e-13
2.41447e-13
2.42856e-13
2.46085e-13
2.50501e-13
2.55969e-13
2.59202e-13
2.62282e-13
2.64328e-13
2.67721e-13
2.69416e-13
2.71548e-13
2.74585e-13
2.77951e-13
2.79499e-13
2.80942e-13
2.835e-13
2.85467e-13
2.89476e-13
2.9184e-13
2.93389e-13
2.9356e-13
2.95072e-13
2.94924e-13
2.94003e-13
2.93762e-13
2.9187e-13
2.91197e-13
2.93352e-13
2.92086e-13
2.931e-13
2.93965e-13
2.91657e-13
2.9145e-13
2.9147e-13
2.90623e-13
2.90701e-13
2.90502e-13
2.91053e-13
2.90629e-13
2.90241e-13
2.90802e-13
2.90503e-13
2.90465e-13
2.90915e-13
2.91221e-13
2.89803e-13
2.89787e-13
2.88824e-13
2.8922e-13
2.90875e-13
2.91446e-13
2.93733e-13
2.9323e-13
2.93172e-13
2.94943e-13
2.94547e-13
2.96154e-13
2.98566e-13
3.0091e-13
3.02683e-13
3.03288e-13
3.05617e-13
3.0827e-13
3.11339e-13
3.13505e-13
3.14685e-13
3.12598e-13
3.14822e-13
3.16616e-13
3.16449e-13
3.15929e-13
3.16501e-13
3.1622e-13
3.1482e-13
3.15517e-13
3.18325e-13
3.19029e-13
3.18448e-13
3.19665e-13
3.22065e-13
3.2297e-13
3.20261e-13
3.19309e-13
3.19101e-13
3.21687e-13
3.20465e-13
3.20511e-13
3.24083e-13
3.25922e-13
3.26649e-13
3.277e-13
3.28879e-13
3.30423e-13
3.31201e-13
3.33831e-13
3.36627e-13
3.37329e-13
3.39877e-13
3.37985e-13
3.39037e-13
3.4321e-13
3.43065e-13
3.44603e-13
3.4444e-13
3.44472e-13
3.4645e-13
3.4727e-13
3.46305e-13
3.46441e-13
3.46189e-13
3.46006e-13
3.47703e-13
3.46933e-13
3.46225e-13
3.4642e-13
3.47738e-13
3.47876e-13
3.50012e-13
3.53277e-13
3.49925e-13
3.49893e-13
3.51737e-13
3.53418e-13
3.54418e-13
3.5467e-13
3.54952e-13
3.54867e-13
3.53948e-13
3.54555e-13
3.52824e-13
3.51484e-13
3.52581e-13
3.51224e-13
3.4892e-13
3.50092e-13
3.52148e-13
3.5212e-13
3.52887e-13
3.52253e-13
3.48484e-13
3.46835e-13
3.44145e-13
3.44169e-13
3.43501e-13
3.40679e-13
3.38432e-13
3.37122e-13
3.37157e-13
3.37315e-13
3.37393e-13
3.36317e-13
3.34309e-13
3.35334e-13
3.33748e-13
3.31299e-13
3.30665e-13
3.30361e-13
3.2892e-13
3.26891e-13
3.26846e-13
3.24184e-13
3.24613e-13
3.26088e-13
3.23494e-13
3.23233e-13
3.22238e-13
3.22627e-13
3.204e-13
3.17687e-13
3.16664e-13
3.13759e-13
3.13403e-13
3.12821e-13
3.09154e-13
3.05147e-13
3.03396e-13
3.05577e-13
3.05842e-13
3.02718e-13
3.00989e-13
3.00807e-13
3.03749e-13
3.03268e-13
3.00215e-13
3.00073e-13
2.9831e-13
2.98686e-13
2.98354e-13
2.97683e-13
2.94622e-13
2.91931e-13
2.90992e-13
2.88601e-13
2.87297e-13
2.87666e-13
2.84523e-13
2.83539e-13
2.83739e-13
2.813e-13
2.81948e-13
2.80112e-13
2.80463e-13
2.82439e-13
2.81034e-13
2.82932e-13
2.85076e-13
2.84278e-13
2.84392e-13
2.86785e-13
2.89122e-13
2.89681e-13
2.91177e-13
2.91497e-13
2.88898e-13
2.90238e-13
2.93497e-13
2.95607e-13
2.93467e-13
2.93239e-13
2.95649e-13
2.96804e-13
2.96188e-13
2.96422e-13
2.97169e-13
2.9638e-13
2.96752e-13
2.97063e-13
2.99452e-13
2.99438e-13
2.98853e-13
3.00898e-13
3.04191e-13
3.06001e-13
3.0798e-13
3.08045e-13
3.11398e-13
3.11921e-13
3.10282e-13
3.12867e-13
3.14836e-13
3.18013e-13
3.20297e-13
3.19529e-13
3.21454e-13
3.22781e-13
3.24783e-13
3.2491e-13
3.25632e-13
3.29478e-13
3.28044e-13
3.30738e-13
3.34283e-13
3.36685e-13
3.36927e-13
3.37576e-13
3.4069e-13
3.4285e-13
3.45549e-13
3.45528e-13
3.47013e-13
3.48662e-13
3.51e-13
3.54263e-13
3.55576e-13
3.53133e-13
3.55388e-13
3.55127e-13
3.54612e-13
3.58463e-13
3.55797e-13
3.57171e-13
3.5691e-13
3.58162e-13
3.59394e-13
3.58425e-13
3.60817e-13
3.62002e-13
3.60996e-13
3.62358e-13
3.62551e-13
3.62612e-13
3.60911e-13
3.56703e-13
3.54372e-13
3.49979e-13
3.47443e-13
3.47084e-13
3.44571e-13
3.40809e-13
3.36619e-13
3.32623e-13
3.29188e-13
3.2332e-13
3.18865e-13
3.16048e-13
3.10484e-13
3.04212e-13
2.98099e-13
2.91631e-13
2.86704e-13
2.79053e-13
2.71068e-13
2.63254e-13
2.53263e-13
2.43321e-13
2.31507e-13
2.20424e-13
2.09839e-13
1.976e-13
1.86879e-13
1.93195e-13
1.92803e-13
1.97196e-13
2.05303e-13
2.11571e-13
2.17344e-13
2.23992e-13
2.29788e-13
2.34895e-13
2.41619e-13
2.43159e-13
2.43959e-13
2.47186e-13
2.51667e-13
2.568e-13
2.60008e-13
2.62982e-13
2.65533e-13
2.67748e-13
2.69632e-13
2.71436e-13
2.75132e-13
2.78497e-13
2.80309e-13
2.81474e-13
2.83604e-13
2.85616e-13
2.89521e-13
2.91657e-13
2.94109e-13
2.93698e-13
2.94884e-13
2.95541e-13
2.94915e-13
2.92586e-13
2.91133e-13
2.91815e-13
2.93459e-13
2.92821e-13
2.93701e-13
2.93691e-13
2.92158e-13
2.91734e-13
2.9112e-13
2.9001e-13
2.90943e-13
2.89593e-13
2.90421e-13
2.91234e-13
2.90398e-13
2.9085e-13
2.90461e-13
2.90786e-13
2.91105e-13
2.91853e-13
2.90459e-13
2.8937e-13
2.88789e-13
2.88961e-13
2.91353e-13
2.9167e-13
2.92872e-13
2.92301e-13
2.92475e-13
2.94396e-13
2.94695e-13
2.95891e-13
2.99015e-13
3.0122e-13
3.02974e-13
3.0388e-13
3.05796e-13
3.08792e-13
3.10911e-13
3.12891e-13
3.15523e-13
3.12548e-13
3.14145e-13
3.1653e-13
3.17084e-13
3.1656e-13
3.17039e-13
3.15736e-13
3.1312e-13
3.15096e-13
3.18219e-13
3.19244e-13
3.18286e-13
3.20183e-13
3.22168e-13
3.21844e-13
3.20365e-13
3.18815e-13
3.18535e-13
3.21025e-13
3.20344e-13
3.20742e-13
3.2356e-13
3.27086e-13
3.26732e-13
3.2783e-13
3.29081e-13
3.3119e-13
3.30646e-13
3.33583e-13
3.35996e-13
3.37923e-13
3.40251e-13
3.37778e-13
3.38336e-13
3.42764e-13
3.43549e-13
3.4505e-13
3.44625e-13
3.44443e-13
3.45771e-13
3.46472e-13
3.47184e-13
3.45681e-13
3.45477e-13
3.46601e-13
3.47783e-13
3.46534e-13
3.45196e-13
3.45892e-13
3.46557e-13
3.48595e-13
3.49556e-13
3.51783e-13
3.49003e-13
3.49231e-13
3.51108e-13
3.5249e-13
3.54669e-13
3.54182e-13
3.55266e-13
3.54926e-13
3.53787e-13
3.54358e-13
3.51959e-13
3.52001e-13
3.52751e-13
3.51405e-13
3.48149e-13
3.49957e-13
3.52534e-13
3.52644e-13
3.53328e-13
3.52138e-13
3.48771e-13
3.46523e-13
3.43738e-13
3.44631e-13
3.4469e-13
3.40862e-13
3.38336e-13
3.36706e-13
3.37179e-13
3.3802e-13
3.38029e-13
3.37098e-13
3.3514e-13
3.35033e-13
3.32602e-13
3.32391e-13
3.30989e-13
3.29847e-13
3.28879e-13
3.27334e-13
3.27322e-13
3.24599e-13
3.23088e-13
3.25999e-13
3.25054e-13
3.23539e-13
3.22807e-13
3.22152e-13
3.20584e-13
3.17934e-13
3.16644e-13
3.13933e-13
3.12614e-13
3.12905e-13
3.09603e-13
3.03439e-13
3.03079e-13
3.05181e-13
3.06255e-13
3.02957e-13
3.01401e-13
3.01159e-13
3.02885e-13
3.03261e-13
3.00882e-13
2.9965e-13
2.98745e-13
2.98229e-13
2.97786e-13
2.97935e-13
2.94298e-13
2.93444e-13
2.90201e-13
2.87637e-13
2.87808e-13
2.88168e-13
2.8461e-13
2.8346e-13
2.83116e-13
2.81637e-13
2.81529e-13
2.80002e-13
2.79588e-13