/*--------------------------------*- C++ -*----------------------------------*\
| =========                 |                                                 |
| \\      /  F ield         | OpenFOAM: The Open Source CFD Toolbox           |
|  \\    /   O peration     | Version:  2112                                  |
|   \\  /    A nd           | Website:  www.openfoam.com                      |
|    \\/     M anipulation  |                                                 |
\*---------------------------------------------------------------------------*/
FoamFile
{
    version     2.0;
    format      ascii;
    arch        "LSB;label=32;scalar=64";
    class       volScalarField;
    location    "8";
    object      p;
}
// * * * * * * * * * * * * * * * * * * * * * * * * * * * * * * * * * * * * * //

dimensions      [0 2 -2 0 0 0 0];

internalField   nonuniform List<scalar> 
50000
(
2.32406e-14
3.22415e-14
2.94187e-14
2.69488e-14
2.5354e-14
2.41406e-14
2.319e-14
2.23967e-14
2.1646e-14
2.09855e-14
2.05194e-14
2.00546e-14
1.9581e-14
1.91566e-14
1.87535e-14
1.84908e-14
1.81687e-14
1.78113e-14
1.74699e-14
1.71651e-14
1.68397e-14
1.65672e-14
1.64187e-14
1.62755e-14
1.62291e-14
1.61468e-14
1.59456e-14
1.57892e-14
1.58578e-14
1.57559e-14
1.5699e-14
1.56985e-14
1.56619e-14
1.56295e-14
1.56573e-14
1.56481e-14
1.58517e-14
1.58968e-14
1.59301e-14
1.61092e-14
1.61232e-14
1.61941e-14
1.62567e-14
1.64108e-14
1.65675e-14
1.65932e-14
1.68114e-14
1.72649e-14
1.74205e-14
1.74224e-14
1.76446e-14
1.80131e-14
1.84551e-14
1.86745e-14
1.89389e-14
1.93972e-14
1.95419e-14
2.00056e-14
2.0466e-14
2.07313e-14
2.1194e-14
2.15845e-14
2.19197e-14
2.22476e-14
2.27053e-14
2.2999e-14
2.33866e-14
2.3742e-14
2.40389e-14
2.46429e-14
2.513e-14
2.54791e-14
2.58319e-14
2.64622e-14
2.6937e-14
2.7076e-14
2.76606e-14
2.83425e-14
2.86745e-14
2.89447e-14
2.94891e-14
3.00602e-14
3.03611e-14
3.07802e-14
3.11704e-14
3.12574e-14
3.15004e-14
3.17842e-14
3.20853e-14
3.24002e-14
3.25847e-14
3.29482e-14
3.33088e-14
3.35515e-14
3.3966e-14
3.44418e-14
3.43985e-14
3.44427e-14
3.50799e-14
3.54895e-14
3.55168e-14
3.58757e-14
3.64934e-14
3.70029e-14
3.73372e-14
3.78183e-14
3.83172e-14
3.86765e-14
3.89359e-14
3.94525e-14
4.04051e-14
4.11366e-14
4.14963e-14
4.18444e-14
4.26302e-14
4.35918e-14
4.41605e-14
4.44872e-14
4.5137e-14
4.60572e-14
4.67512e-14
4.72804e-14
4.79358e-14
4.90035e-14
4.9996e-14
5.05039e-14
5.14188e-14
5.24666e-14
5.3103e-14
5.38126e-14
5.46027e-14
5.54104e-14
5.61466e-14
5.75194e-14
5.85275e-14
5.90656e-14
6e-14
6.09868e-14
6.15374e-14
6.24468e-14
6.37337e-14
6.42851e-14
6.44226e-14
6.49827e-14
6.61989e-14
6.67473e-14
6.71085e-14
6.83214e-14
6.91666e-14
6.93457e-14
7.02722e-14
7.07433e-14
7.12543e-14
7.26997e-14
7.33159e-14
7.38042e-14
7.48068e-14
7.5165e-14
7.55575e-14
7.59085e-14
7.6736e-14
7.75855e-14
7.81623e-14
7.87039e-14
7.92281e-14
7.95808e-14
7.98287e-14
8.05155e-14
8.02389e-14
8.05108e-14
8.1369e-14
8.11287e-14
8.12418e-14
8.2015e-14
8.21469e-14
8.20398e-14
8.20101e-14
8.23955e-14
8.2415e-14
8.19713e-14
8.231e-14
8.24391e-14
8.22638e-14
8.23253e-14
8.19939e-14
8.23658e-14
8.27426e-14
8.24148e-14
8.23032e-14
8.22672e-14
8.21809e-14
8.18286e-14
8.13078e-14
8.06063e-14
8.05717e-14
8.06662e-14
8.03299e-14
8.02891e-14
8.0407e-14
7.97716e-14
7.89714e-14
7.88606e-14
7.77547e-14
7.73397e-14
7.69915e-14
7.66873e-14
7.69344e-14
7.62125e-14
7.51557e-14
7.45785e-14
7.39693e-14
7.3509e-14
7.30476e-14
7.18381e-14
7.14897e-14
7.06541e-14
6.98378e-14
6.88388e-14
6.74838e-14
6.66053e-14
6.61225e-14
6.53908e-14
6.41057e-14
6.31291e-14
6.18152e-14
6.07134e-14
5.94647e-14
5.80635e-14
5.69995e-14
5.631e-14
5.54513e-14
5.44975e-14
5.29301e-14
5.15684e-14
5.05927e-14
4.88624e-14
4.76374e-14
4.66284e-14
4.59649e-14
4.503e-14
4.41549e-14
4.34139e-14
4.21744e-14
4.10001e-14
4.07471e-14
3.9982e-14
3.89735e-14
3.86205e-14
3.76807e-14
3.70007e-14
3.63247e-14
3.55297e-14
3.46678e-14
3.45901e-14
3.42312e-14
3.31549e-14
3.28489e-14
3.23502e-14
3.13296e-14
3.09565e-14
2.98434e-14
2.87151e-14
2.87426e-14
2.75924e-14
2.72691e-14
2.63355e-14
2.46155e-14
2.48907e-14
2.3698e-14
2.17582e-14
2.25915e-14
2.20007e-14
2.06415e-14
2.02168e-14
1.88709e-14
1.84589e-14
1.72894e-14
1.57134e-14
1.50365e-14
1.48571e-14
1.42108e-14
1.33813e-14
1.22842e-14
1.1443e-14
1.15624e-14
1.00317e-14
9.9298e-15
9.98657e-15
8.4985e-15
8.29376e-15
8.57098e-15
7.41115e-15
6.78619e-15
6.46342e-15
4.75854e-15
5.02701e-15
5.74297e-15
4.48584e-15
4.15503e-15
3.93704e-15
2.49535e-15
2.69917e-15
2.01877e-15
6.339e-16
1.71786e-15
1.83048e-15
6.54562e-16
1.17723e-15
8.21084e-16
-5.52147e-16
-2.98839e-16
2.96897e-16
-7.09256e-16
-9.45938e-16
-6.53767e-16
-1.18911e-15
-9.70975e-16
-1.13872e-15
-1.60139e-15
-2.09484e-15
-1.98511e-15
-1.46758e-15
-1.11e-15
-1.4481e-15
-2.12389e-15
-1.51582e-15
-1.35323e-15
-1.70431e-15
-2.45737e-15
-2.33492e-15
-1.20916e-15
-2.08271e-15
-2.82553e-15
-2.33397e-15
-3.43963e-15
-3.76652e-15
-2.76775e-15
-4.1834e-15
-3.99541e-15
-2.80617e-15
-3.48502e-15
-3.43732e-15
-3.46987e-15
-4.19165e-15
-4.69391e-15
-4.32663e-15
-3.93652e-15
-3.5889e-15
-3.98978e-15
-4.69179e-15
-4.48237e-15
-4.53635e-15
-5.55086e-15
-6.39479e-15
-6.093e-15
-5.87764e-15
-5.90413e-15
-6.70366e-15
-7.8842e-15
-8.10303e-15
-8.86762e-15
-8.71945e-15
-9.66102e-15
-1.08874e-14
-1.00353e-14
-1.05797e-14
-1.12802e-14
-1.16523e-14
-1.22329e-14
-1.36753e-14
-1.34869e-14
-1.28592e-14
-1.34886e-14
-1.41835e-14
-1.4976e-14
-1.49733e-14
-1.56607e-14
-1.57576e-14
-1.6833e-14
-1.68217e-14
-1.63133e-14
-1.67351e-14
-1.75521e-14
-1.79273e-14
-1.80352e-14
-1.91904e-14
-1.881e-14
-1.98833e-14
-2.04095e-14
-2.00837e-14
-2.04634e-14
-2.12047e-14
-2.12752e-14
-2.13528e-14
-2.30398e-14
-2.29747e-14
-2.1854e-14
-2.19065e-14
-2.24018e-14
-2.29492e-14
-2.37765e-14
-2.41308e-14
-2.22852e-14
-2.23452e-14
-2.30325e-14
-2.39886e-14
-2.34878e-14
-2.15301e-14
-2.2522e-14
-2.3533e-14
-2.32634e-14
-2.13702e-14
-2.19849e-14
-2.21305e-14
-2.14412e-14
-2.13635e-14
-2.06568e-14
-2.12608e-14
-2.19983e-14
-2.15644e-14
-2.02274e-14
-2.09517e-14
-2.25926e-14
-2.12871e-14
-2.09531e-14
-2.17555e-14
-2.21249e-14
-2.20475e-14
-2.20043e-14
-2.13628e-14
-2.17716e-14
-2.32824e-14
-2.18338e-14
-2.08368e-14
-2.23315e-14
-2.39355e-14
-2.23602e-14
-2.22569e-14
-2.22462e-14
-2.19405e-14
-2.33261e-14
-2.16667e-14
-2.15697e-14
-2.18803e-14
-2.25158e-14
-2.20624e-14
-2.11695e-14
-2.14184e-14
-2.08171e-14
-2.12863e-14
-2.04323e-14
-2.01583e-14
-1.93822e-14
-1.96257e-14
-1.90176e-14
-1.83344e-14
-1.87418e-14
-1.82483e-14
-1.76033e-14
-1.58646e-14
-1.72303e-14
-1.68453e-14
-1.62747e-14
-1.54664e-14
-1.35653e-14
-1.45931e-14
-1.46515e-14
-1.33922e-14
-1.22473e-14
-1.24191e-14
-1.14887e-14
-1.10886e-14
-1.03953e-14
-9.04722e-15
-9.09877e-15
-8.04268e-15
-6.88422e-15
-4.90094e-15
-4.60932e-15
-4.03791e-15
-2.6352e-15
-9.71027e-16
3.31497e-16
5.95773e-16
3.02446e-15
3.69656e-15
5.09256e-15
6.58588e-15
7.21108e-15
1.01754e-14
1.19536e-14
1.22587e-14
1.36066e-14
1.65164e-14
1.77871e-14
1.98153e-14
2.16392e-14
2.3557e-14
2.75025e-14
3.06112e-14
2.86558e-14
3.12012e-14
2.87761e-14
2.66239e-14
2.52049e-14
2.40174e-14
2.31012e-14
2.23366e-14
2.15792e-14
2.09379e-14
2.04699e-14
2.00058e-14
1.95402e-14
1.91431e-14
1.87262e-14
1.84763e-14
1.81287e-14
1.7792e-14
1.74575e-14
1.71764e-14
1.68118e-14
1.65147e-14
1.64346e-14
1.6277e-14
1.6224e-14
1.61383e-14
1.59403e-14
1.57819e-14
1.58192e-14
1.57461e-14
1.57172e-14
1.56295e-14
1.56517e-14
1.56789e-14
1.55986e-14
1.56153e-14
1.58601e-14
1.58964e-14
1.59009e-14
1.60855e-14
1.61544e-14
1.61111e-14
1.62487e-14
1.64685e-14
1.65318e-14
1.66212e-14
1.68479e-14
1.72386e-14
1.74153e-14
1.74403e-14
1.7643e-14
1.80434e-14
1.84175e-14
1.86403e-14
1.89981e-14
1.94076e-14
1.9529e-14
1.99578e-14
2.03934e-14
2.07444e-14
2.12426e-14
2.1542e-14
2.19149e-14
2.22715e-14
2.26176e-14
2.30235e-14
2.33822e-14
2.37188e-14
2.40897e-14
2.45957e-14
2.50739e-14
2.5501e-14
2.59284e-14
2.64316e-14
2.68939e-14
2.71743e-14
2.7654e-14
2.82637e-14
2.86914e-14
2.89789e-14
2.94844e-14
3.00615e-14
3.0419e-14
3.07769e-14
3.1052e-14
3.13714e-14
3.15516e-14
3.16587e-14
3.20998e-14
3.23858e-14
3.25698e-14
3.30265e-14
3.33486e-14
3.35162e-14
3.39717e-14
3.43624e-14
3.44191e-14
3.45227e-14
3.50454e-14
3.5491e-14
3.55249e-14
3.59191e-14
3.64412e-14
3.70212e-14
3.7409e-14
3.76878e-14
3.82665e-14
3.87784e-14
3.89448e-14
3.95291e-14
4.03576e-14
4.09835e-14
4.15236e-14
4.19618e-14
4.26786e-14
4.35361e-14
4.40213e-14
4.44564e-14
4.52274e-14
4.61245e-14
4.67509e-14
4.72708e-14
4.80165e-14
4.89764e-14
4.98414e-14
5.05745e-14
5.15145e-14
5.24242e-14
5.31203e-14
5.38185e-14
5.45304e-14
5.54133e-14
5.62965e-14
5.74476e-14
5.84457e-14
5.91353e-14
6.00789e-14
6.09181e-14
6.15748e-14
6.24791e-14
6.36065e-14
6.42232e-14
6.44297e-14
6.50638e-14
6.62455e-14
6.67627e-14
6.71974e-14
6.82656e-14
6.91125e-14
6.94826e-14
7.01817e-14
7.0621e-14
7.1427e-14
7.2598e-14
7.32695e-14
7.38941e-14
7.46744e-14
7.51692e-14
7.56598e-14
7.60037e-14
7.67114e-14
7.75493e-14
7.8132e-14
7.87658e-14
7.92526e-14
7.96018e-14
7.98985e-14
8.02978e-14
8.03738e-14
8.06529e-14
8.11155e-14
8.1339e-14
8.14201e-14
8.17482e-14
8.21458e-14
8.21072e-14
8.20544e-14
8.24971e-14
8.2382e-14
8.19797e-14
8.22321e-14
8.23752e-14
8.22559e-14
8.23015e-14
8.21427e-14
8.23712e-14
8.26084e-14
8.25002e-14
8.22809e-14
8.2247e-14
8.21304e-14
8.17598e-14
8.12031e-14
8.07058e-14
8.07507e-14
8.06148e-14
8.03715e-14
8.04282e-14
8.02067e-14
7.95663e-14
7.90619e-14
7.88393e-14
7.78643e-14
7.74592e-14
7.69894e-14
7.66046e-14
7.68852e-14
7.62882e-14
7.52163e-14
7.44913e-14
7.4041e-14
7.34248e-14
7.28975e-14
7.20375e-14
7.1447e-14
7.05582e-14
6.99104e-14
6.88587e-14
6.75159e-14
6.68171e-14
6.61407e-14
6.52229e-14
6.39966e-14
6.30182e-14
6.18831e-14
6.07905e-14
5.95759e-14
5.81585e-14
5.70374e-14
5.63764e-14
5.53243e-14
5.42367e-14
5.30281e-14
5.15846e-14
5.04759e-14
4.89965e-14
4.76723e-14
4.67651e-14
4.5793e-14
4.50025e-14
4.41189e-14
4.32611e-14
4.23611e-14
4.11735e-14
4.06166e-14
3.99732e-14
3.91302e-14
3.84676e-14
3.75904e-14
3.68136e-14
3.63084e-14
3.56516e-14
3.49529e-14
3.45248e-14
3.41712e-14
3.32984e-14
3.26752e-14
3.21649e-14
3.14478e-14
3.10169e-14
2.98859e-14
2.88571e-14
2.84812e-14
2.76707e-14
2.72516e-14
2.63602e-14
2.47229e-14
2.45718e-14
2.3727e-14
2.22123e-14
2.233e-14
2.18194e-14
2.07327e-14
2.01175e-14
1.91465e-14
1.81341e-14
1.73223e-14
1.61169e-14
1.51282e-14
1.45668e-14
1.40691e-14
1.34204e-14
1.22736e-14
1.14304e-14
1.14939e-14
1.03247e-14
9.73041e-15
9.8262e-15
8.63823e-15
8.48491e-15
8.43844e-15
7.38773e-15
6.74302e-15
6.36264e-15
5.1057e-15
5.17217e-15
5.24356e-15
4.45758e-15
4.20286e-15
3.76809e-15
2.84777e-15
2.39942e-15
2.03909e-15
1.09984e-15
1.424e-15
1.65366e-15
9.48542e-16
9.51806e-16
6.10077e-16
-1.38584e-16
-2.9324e-16
-1.82023e-17
-5.76842e-16
-9.81094e-16
-8.01905e-16
-9.20054e-16
-1.09567e-15
-1.35089e-15
-1.44188e-15
-1.88621e-15
-1.95329e-15
-1.4992e-15
-1.43283e-15
-1.70066e-15
-1.75327e-15
-1.51954e-15
-1.52144e-15
-1.6903e-15
-2.07872e-15
-2.1828e-15
-1.66747e-15
-2.04879e-15
-2.64737e-15
-2.69016e-15
-3.13754e-15
-3.50239e-15
-3.33668e-15
-3.78644e-15
-3.79624e-15
-3.3761e-15
-3.39812e-15
-3.19467e-15
-3.85965e-15
-4.09314e-15
-4.17788e-15
-4.41473e-15
-4.06954e-15
-3.74072e-15
-4.23128e-15
-4.51315e-15
-4.28216e-15
-4.94546e-15
-5.43753e-15
-5.87607e-15
-6.16639e-15
-6.01083e-15
-6.16476e-15
-6.87512e-15
-7.5465e-15
-8.11453e-15
-8.90787e-15
-8.783e-15
-9.57203e-15
-1.06298e-14
-1.03438e-14
-1.06424e-14
-1.12395e-14
-1.17322e-14
-1.22213e-14
-1.32975e-14
-1.32882e-14
-1.31293e-14
-1.38364e-14
-1.42588e-14
-1.46469e-14
-1.50068e-14
-1.56396e-14
-1.60133e-14
-1.66326e-14
-1.65327e-14
-1.64753e-14
-1.69559e-14
-1.75764e-14
-1.78162e-14
-1.79468e-14
-1.92375e-14
-1.90815e-14
-1.93861e-14
-2.03912e-14
-2.04534e-14
-2.03204e-14
-2.10029e-14
-2.14775e-14
-2.15364e-14
-2.28429e-14
-2.25776e-14
-2.1851e-14
-2.24997e-14
-2.26916e-14
-2.28329e-14
-2.35136e-14
-2.38229e-14
-2.26111e-14
-2.27418e-14
-2.28543e-14
-2.34608e-14
-2.36523e-14
-2.20056e-14
-2.22638e-14
-2.328e-14
-2.33409e-14
-2.16908e-14
-2.1975e-14
-2.19689e-14
-2.14024e-14
-2.12131e-14
-2.08634e-14
-2.14069e-14
-2.16099e-14
-2.14178e-14
-2.07323e-14
-2.10778e-14
-2.1995e-14
-2.1557e-14
-2.12481e-14
-2.14535e-14
-2.20974e-14
-2.19829e-14
-2.18632e-14
-2.15545e-14
-2.18704e-14
-2.28713e-14
-2.21483e-14
-2.11197e-14
-2.19793e-14
-2.36217e-14
-2.26076e-14
-2.23039e-14
-2.23383e-14
-2.22152e-14
-2.27574e-14
-2.18999e-14
-2.16314e-14
-2.20253e-14
-2.2398e-14
-2.18859e-14
-2.14218e-14
-2.13762e-14
-2.09948e-14
-2.10934e-14
-2.03114e-14
-1.9875e-14
-1.98359e-14
-1.95329e-14
-1.88616e-14
-1.85908e-14
-1.86184e-14
-1.8084e-14
-1.76371e-14
-1.6276e-14
-1.6836e-14
-1.70526e-14
-1.6077e-14
-1.50448e-14
-1.43796e-14
-1.46838e-14
-1.39858e-14
-1.33631e-14
-1.28834e-14
-1.222e-14
-1.1451e-14
-1.11099e-14
-1.04444e-14
-9.33388e-15
-8.80575e-15
-7.93793e-15
-6.54826e-15
-5.24233e-15
-5.01255e-15
-3.68018e-15
-2.2443e-15
-1.33385e-15
-2.29e-17
1.15047e-15
2.79199e-15
3.59865e-15
4.99992e-15
6.32768e-15
7.81566e-15
1.01888e-14
1.12078e-14
1.2173e-14
1.41935e-14
1.62436e-14
1.76284e-14
1.96764e-14
2.15404e-14
2.35691e-14
2.65821e-14
2.95728e-14
2.84747e-14
2.96359e-14
2.79029e-14
2.61423e-14
2.48717e-14
2.38506e-14
2.29148e-14
2.22047e-14
2.14809e-14
2.0825e-14
2.04028e-14
1.99213e-14
1.94701e-14
1.91164e-14
1.87025e-14
1.84454e-14
1.81137e-14
1.77553e-14
1.74515e-14
1.71794e-14
1.67676e-14
1.64405e-14
1.64573e-14
1.62628e-14
1.62296e-14
1.61742e-14
1.58892e-14
1.57431e-14
1.57743e-14
1.57205e-14
1.57252e-14
1.56279e-14
1.56206e-14
1.56958e-14
1.5507e-14
1.55788e-14
1.59103e-14
1.58903e-14
1.58734e-14
1.60619e-14
1.61942e-14
1.60453e-14
1.61735e-14
1.6513e-14
1.65364e-14
1.66299e-14
1.68569e-14
1.72163e-14
1.74515e-14
1.74888e-14
1.76287e-14
1.79913e-14
1.84126e-14
1.86472e-14
1.90505e-14
1.9379e-14
1.94913e-14
1.98988e-14
2.03358e-14
2.07755e-14
2.12851e-14
2.15177e-14
2.18852e-14
2.22832e-14
2.26082e-14
2.3027e-14
2.33367e-14
2.36703e-14
2.40962e-14
2.45724e-14
2.50726e-14
2.55118e-14
2.5979e-14
2.64335e-14
2.68749e-14
2.72129e-14
2.76506e-14
2.81993e-14
2.8717e-14
2.90207e-14
2.94901e-14
3.00966e-14
3.0458e-14
3.0745e-14
3.09758e-14
3.14359e-14
3.15285e-14
3.16412e-14
3.2123e-14
3.23261e-14
3.25199e-14
3.30958e-14
3.34206e-14
3.3548e-14
3.40205e-14
3.42502e-14
3.44276e-14
3.46478e-14
3.5008e-14
3.54462e-14
3.55554e-14
3.58649e-14
3.63525e-14
3.70741e-14
3.74048e-14
3.7643e-14
3.82144e-14
3.88202e-14
3.89593e-14
3.95682e-14
4.03541e-14
4.08927e-14
4.15243e-14
4.21002e-14
4.27043e-14
4.33902e-14
4.3951e-14
4.45464e-14
4.52346e-14
4.61298e-14
4.67141e-14
4.73066e-14
4.80723e-14
4.89069e-14
4.97827e-14
5.06586e-14
5.14975e-14
5.24497e-14
5.32217e-14
5.38548e-14
5.44993e-14
5.53473e-14
5.6332e-14
5.73879e-14
5.83951e-14
5.92099e-14
6.01196e-14
6.08333e-14
6.16254e-14
6.25302e-14
6.35034e-14
6.41997e-14
6.44941e-14
6.51322e-14
6.62477e-14
6.67104e-14
6.72955e-14
6.82848e-14
6.90227e-14
6.95694e-14
7.00977e-14
7.05468e-14
7.15065e-14
7.25576e-14
7.32243e-14
7.39378e-14
7.46439e-14
7.51886e-14
7.56861e-14
7.60336e-14
7.66874e-14
7.75243e-14
7.82244e-14
7.883e-14
7.92792e-14
7.96286e-14
7.99516e-14
8.02156e-14
8.0383e-14
8.07443e-14
8.1064e-14
8.13377e-14
8.15321e-14
8.17375e-14
8.20694e-14
8.20941e-14
8.22344e-14
8.25396e-14
8.23701e-14
8.2011e-14
8.21284e-14
8.23539e-14
8.21475e-14
8.22478e-14
8.23197e-14
8.24267e-14
8.25087e-14
8.25758e-14
8.23154e-14
8.21942e-14
8.20958e-14
8.16881e-14
8.11338e-14
8.07935e-14
8.08161e-14
8.06993e-14
8.04954e-14
8.0362e-14
8.00608e-14
7.94865e-14
7.90695e-14
7.88507e-14
7.80729e-14
7.74783e-14
7.69161e-14
7.67015e-14
7.68155e-14
7.62434e-14
7.52114e-14
7.44782e-14
7.40723e-14
7.34989e-14
7.27826e-14
7.20698e-14
7.14825e-14
7.04983e-14
6.9865e-14
6.89191e-14
6.76333e-14
6.69434e-14
6.60794e-14
6.51149e-14
6.40396e-14
6.2932e-14
6.19534e-14
6.08467e-14
5.95376e-14
5.83502e-14
5.71585e-14
5.6271e-14
5.51752e-14
5.41705e-14
5.29378e-14
5.16961e-14
5.05216e-14
4.90425e-14
4.7681e-14
4.67044e-14
4.56848e-14
4.50698e-14
4.39923e-14
4.31043e-14
4.24476e-14
4.12927e-14
4.06611e-14
3.98319e-14
3.92567e-14
3.8487e-14
3.74274e-14
3.66817e-14
3.62915e-14
3.56932e-14
3.51727e-14
3.44686e-14
3.4015e-14
3.34848e-14
3.26703e-14
3.19899e-14
3.14719e-14
3.11149e-14
2.99362e-14
2.8981e-14
2.84279e-14
2.76448e-14
2.70923e-14
2.63458e-14
2.49074e-14
2.42795e-14
2.37588e-14
2.25688e-14
2.22173e-14
2.16396e-14
2.06537e-14
2.01728e-14
1.94101e-14
1.78319e-14
1.73008e-14
1.65645e-14
1.51505e-14
1.43979e-14
1.39463e-14
1.32977e-14
1.2245e-14
1.15e-14
1.14255e-14
1.04435e-14
9.67145e-15
9.74095e-15
8.70724e-15
8.47089e-15
8.40783e-15
7.42584e-15
6.61907e-15
6.35808e-15
5.4537e-15
5.19682e-15
4.97267e-15
4.358e-15
4.11011e-15
3.75721e-15
3.04508e-15
2.14552e-15
2.04289e-15
1.47339e-15
1.28462e-15
1.54149e-15
9.97961e-16
7.72995e-16
5.78817e-16
1.1078e-16
-4.19884e-16
-2.36983e-16
-3.70325e-16
-1.0154e-15
-9.32137e-16
-8.76493e-16
-9.77242e-16
-1.45785e-15
-1.50818e-15
-1.74966e-15
-1.90086e-15
-1.55515e-15
-1.73138e-15
-1.75318e-15
-1.64935e-15
-1.34397e-15
-1.60275e-15
-1.73424e-15
-1.81824e-15
-2.07906e-15
-1.87001e-15
-2.13146e-15
-2.58212e-15
-2.79684e-15
-2.90262e-15
-3.58363e-15
-3.52619e-15
-3.45557e-15
-3.84857e-15
-3.54274e-15
-3.41102e-15
-3.26356e-15
-3.91872e-15
-4.07297e-15
-4.05123e-15
-4.24921e-15
-4.14718e-15
-4.01195e-15
-4.14725e-15
-4.42291e-15
-4.36296e-15
-4.91338e-15
-5.43483e-15
-5.67845e-15
-6.01285e-15
-6.16938e-15
-6.45136e-15
-6.96644e-15
-7.22182e-15
-8.06015e-15
-9.01101e-15
-8.88541e-15
-9.44054e-15
-1.0469e-14
-1.05063e-14
-1.07759e-14
-1.13693e-14
-1.16115e-14
-1.22169e-14
-1.2964e-14
-1.31617e-14
-1.33981e-14
-1.39882e-14
-1.4244e-14
-1.45951e-14
-1.50271e-14
-1.55993e-14
-1.62814e-14
-1.63853e-14
-1.63352e-14
-1.66555e-14
-1.7143e-14
-1.74857e-14
-1.77221e-14
-1.79658e-14
-1.90936e-14
-1.92858e-14
-1.92873e-14
-2.02798e-14
-2.05771e-14
-2.03905e-14
-2.07906e-14
-2.15228e-14
-2.18359e-14
-2.2535e-14
-2.2427e-14
-2.20591e-14
-2.2624e-14
-2.29512e-14
-2.29672e-14
-2.32016e-14
-2.34498e-14
-2.28976e-14
-2.30767e-14
-2.29938e-14
-2.3106e-14
-2.33451e-14
-2.24533e-14
-2.2438e-14
-2.28887e-14
-2.33403e-14
-2.21154e-14
-2.17638e-14
-2.17903e-14
-2.14699e-14
-2.11706e-14
-2.10959e-14
-2.1423e-14
-2.12628e-14
-2.12751e-14
-2.10935e-14
-2.11685e-14
-2.16851e-14
-2.16163e-14
-2.12101e-14
-2.14208e-14
-2.22953e-14
-2.17834e-14
-2.17978e-14
-2.18196e-14
-2.17288e-14
-2.25168e-14
-2.23621e-14
-2.14413e-14
-2.18805e-14
-2.32576e-14
-2.25888e-14
-2.23032e-14
-2.25561e-14
-2.24806e-14
-2.23795e-14
-2.20464e-14
-2.17893e-14
-2.20626e-14
-2.22855e-14
-2.17074e-14
-2.15244e-14
-2.14996e-14
-2.12082e-14
-2.07422e-14
-2.01906e-14
-2.00419e-14
-2.0008e-14
-1.94564e-14
-1.88063e-14
-1.85177e-14
-1.85127e-14
-1.81773e-14
-1.75214e-14
-1.66443e-14
-1.67754e-14
-1.69309e-14
-1.58533e-14
-1.48876e-14
-1.49246e-14
-1.47474e-14
-1.38145e-14
-1.31785e-14
-1.3058e-14
-1.23871e-14
-1.1551e-14
-1.10101e-14
-1.03897e-14
-9.51387e-15
-8.70241e-15
-7.98025e-15
-6.39906e-15
-5.45658e-15
-5.19833e-15
-3.50589e-15
-1.82819e-15
-1.57187e-15
-5.18364e-16
1.48625e-15
2.75402e-15
3.45237e-15
4.77763e-15
6.29168e-15
8.2038e-15
1.01282e-14
1.07952e-14
1.19749e-14
1.42873e-14
1.62382e-14
1.75204e-14
1.92027e-14
2.14112e-14
2.33651e-14
2.55249e-14
2.81115e-14
2.67523e-14
2.80423e-14
2.69954e-14
2.55693e-14
2.44017e-14
2.36071e-14
2.27042e-14
2.20127e-14
2.13332e-14
2.07558e-14
2.02817e-14
1.98366e-14
1.93961e-14
1.89999e-14
1.87034e-14
1.83956e-14
1.80313e-14
1.7723e-14
1.7434e-14
1.71675e-14
1.68124e-14
1.64147e-14
1.64422e-14
1.62351e-14
1.62711e-14
1.61888e-14
1.58202e-14
1.56868e-14
1.57746e-14
1.57057e-14
1.57136e-14
1.5653e-14
1.55954e-14
1.56237e-14
1.55087e-14
1.55322e-14
1.58708e-14
1.59423e-14
1.58167e-14
1.60383e-14
1.62341e-14
1.60602e-14
1.61304e-14
1.64141e-14
1.65888e-14
1.66139e-14
1.68693e-14
1.71584e-14
1.74528e-14
1.75664e-14
1.76649e-14
1.79221e-14
1.83686e-14
1.87073e-14
1.9031e-14
1.93277e-14
1.95359e-14
1.98914e-14
2.02625e-14
2.07708e-14
2.12412e-14
2.15374e-14
2.18825e-14
2.22575e-14
2.26469e-14
2.30442e-14
2.33426e-14
2.36243e-14
2.40295e-14
2.45871e-14
2.50787e-14
2.54852e-14
2.60263e-14
2.64658e-14
2.68567e-14
2.72427e-14
2.76347e-14
2.81082e-14
2.86898e-14
2.90557e-14
2.95752e-14
3.00741e-14
3.05116e-14
3.07079e-14
3.10416e-14
3.14041e-14
3.14307e-14
3.1677e-14
3.21369e-14
3.22718e-14
3.25172e-14
3.31465e-14
3.3451e-14
3.36145e-14
3.39912e-14
3.41654e-14
3.44235e-14
3.4743e-14
3.49772e-14
3.53203e-14
3.56219e-14
3.58832e-14
3.6321e-14
3.70271e-14
3.7377e-14
3.76366e-14
3.81979e-14
3.87387e-14
3.89923e-14
3.96437e-14
4.0377e-14
4.09801e-14
4.14498e-14
4.21278e-14
4.27277e-14
4.32064e-14
4.39129e-14
4.46453e-14
4.53011e-14
4.60419e-14
4.66489e-14
4.73772e-14
4.8151e-14
4.88715e-14
4.97679e-14
5.06098e-14
5.14257e-14
5.24954e-14
5.33431e-14
5.3817e-14
5.45162e-14
5.532e-14
5.62793e-14
5.73807e-14
5.8375e-14
5.92439e-14
6.00756e-14
6.08599e-14
6.16498e-14
6.25573e-14
6.35516e-14
6.40841e-14
6.45943e-14
6.52445e-14
6.61327e-14
6.67023e-14
6.74303e-14
6.82715e-14
6.88667e-14
6.95904e-14
7.0101e-14
7.05211e-14
7.15531e-14
7.25532e-14
7.31682e-14
7.39686e-14
7.46581e-14
7.50993e-14
7.56878e-14
7.61608e-14
7.66628e-14
7.75019e-14
7.83131e-14
7.88602e-14
7.93219e-14
7.96893e-14
7.99033e-14
8.0171e-14
8.04206e-14
8.08209e-14
8.11485e-14
8.12918e-14
8.14862e-14
8.182e-14
8.19589e-14
8.20714e-14
8.24179e-14
8.24983e-14
8.23562e-14
8.21143e-14
8.2019e-14
8.2315e-14
8.20933e-14
8.21213e-14
8.24111e-14
8.24946e-14
8.25283e-14
8.26222e-14
8.23317e-14
8.21519e-14
8.20839e-14
8.15964e-14
8.1135e-14
8.08597e-14
8.07461e-14
8.08419e-14
8.05971e-14
8.0147e-14
8.00036e-14
7.95679e-14
7.90707e-14
7.87248e-14
7.82494e-14
7.74933e-14
7.69907e-14
7.68128e-14
7.66527e-14
7.61126e-14
7.52689e-14
7.45399e-14
7.40661e-14
7.35343e-14
7.28173e-14
7.21122e-14
7.13769e-14
7.04793e-14
6.97959e-14
6.90525e-14
6.78639e-14
6.692e-14
6.60406e-14
6.51404e-14
6.40781e-14
6.28933e-14
6.20216e-14
6.08125e-14
5.94908e-14
5.85504e-14
5.73152e-14
5.60399e-14
5.50996e-14
5.42275e-14
5.29228e-14
5.17727e-14
5.04567e-14
4.91046e-14
4.77848e-14
4.6566e-14
4.55668e-14
4.51035e-14
4.38436e-14
4.30631e-14
4.23749e-14
4.14052e-14
4.06702e-14
3.97222e-14
3.92967e-14
3.8546e-14
3.74369e-14
3.66631e-14
3.62854e-14
3.55913e-14
3.51705e-14
3.44563e-14
3.38628e-14
3.35386e-14
3.27871e-14
3.19893e-14
3.14923e-14
3.10789e-14
3.01679e-14
2.90961e-14
2.83513e-14
2.76936e-14
2.69268e-14
2.61635e-14
2.51397e-14
2.42005e-14
2.37366e-14
2.28193e-14
2.21594e-14
2.14388e-14
2.06766e-14
2.02894e-14
1.93768e-14
1.79482e-14
1.73029e-14
1.65493e-14
1.51482e-14
1.44739e-14
1.38358e-14
1.29932e-14
1.22662e-14
1.15942e-14
1.12516e-14
1.05501e-14
9.85649e-15
9.53986e-15
8.83075e-15
8.41603e-15
8.21939e-15
7.49567e-15
6.59574e-15
6.41832e-15
5.74483e-15
5.04387e-15
4.82158e-15
4.42834e-15
3.94199e-15
3.74307e-15
3.04753e-15
2.13317e-15
2.00034e-15
1.67721e-15
1.19763e-15
1.40764e-15
1.08926e-15
6.76125e-16
6.67637e-16
1.29286e-16
-5.78987e-16
-3.14054e-16
-2.63519e-16
-1.13484e-15
-9.7765e-16
-9.03243e-16
-1.02547e-15
-1.40962e-15
-1.60098e-15
-1.69295e-15
-1.82972e-15
-1.67868e-15
-1.88104e-15
-1.67064e-15
-1.63967e-15
-1.40753e-15
-1.6563e-15
-1.62879e-15
-1.635e-15
-1.94379e-15
-1.96895e-15
-2.1716e-15
-2.46769e-15
-2.82428e-15
-2.98574e-15
-3.64518e-15
-3.41278e-15
-3.33403e-15
-3.87356e-15
-3.40076e-15
-3.5488e-15
-3.52067e-15
-3.71546e-15
-4.10737e-15
-4.16041e-15
-4.06731e-15
-4.22236e-15
-4.09337e-15
-3.89513e-15
-4.5043e-15
-4.65281e-15
-4.57515e-15
-5.3281e-15
-5.76718e-15
-5.97913e-15
-6.32779e-15
-6.51733e-15
-6.85955e-15
-7.17997e-15
-8.07937e-15
-8.90913e-15
-8.98011e-15
-9.45197e-15
-1.02965e-14
-1.05434e-14
-1.09847e-14
-1.15416e-14
-1.14571e-14
-1.21835e-14
-1.28664e-14
-1.31639e-14
-1.36317e-14
-1.38201e-14
-1.41513e-14
-1.47727e-14
-1.51344e-14
-1.55029e-14
-1.62961e-14
-1.62387e-14
-1.63364e-14
-1.68974e-14
-1.7162e-14
-1.7302e-14
-1.77504e-14
-1.81457e-14
-1.87966e-14
-1.92641e-14
-1.9577e-14
-2.01197e-14
-2.03605e-14
-2.06875e-14
-2.08475e-14
-2.1205e-14
-2.19107e-14
-2.23663e-14
-2.2544e-14
-2.24763e-14
-2.25179e-14
-2.27858e-14
-2.31358e-14
-2.31173e-14
-2.32028e-14
-2.31428e-14
-2.32239e-14
-2.32484e-14
-2.30125e-14
-2.29363e-14
-2.28088e-14
-2.27164e-14
-2.24992e-14
-2.30401e-14
-2.25336e-14
-2.16574e-14
-2.17588e-14
-2.15831e-14
-2.11917e-14
-2.11789e-14
-2.12689e-14
-2.10466e-14
-2.11581e-14
-2.13106e-14
-2.12971e-14
-2.14584e-14
-2.15392e-14
-2.11855e-14
-2.15642e-14
-2.23357e-14
-2.17891e-14
-2.16512e-14
-2.20104e-14
-2.16701e-14
-2.21671e-14
-2.24305e-14
-2.19701e-14
-2.19481e-14
-2.25837e-14
-2.24698e-14
-2.24185e-14
-2.27849e-14
-2.25342e-14
-2.22217e-14
-2.23124e-14
-2.20915e-14
-2.20111e-14
-2.18761e-14
-2.17075e-14
-2.17992e-14
-2.14763e-14
-2.10585e-14
-2.06125e-14
-2.04511e-14
-2.03206e-14
-1.98984e-14
-1.92008e-14
-1.88388e-14
-1.86106e-14
-1.82176e-14
-1.81024e-14
-1.75712e-14
-1.71832e-14
-1.68155e-14
-1.64116e-14
-1.57574e-14
-1.51721e-14
-1.50867e-14
-1.44856e-14
-1.39601e-14
-1.34111e-14
-1.2955e-14
-1.24128e-14
-1.16897e-14
-1.0893e-14
-1.02874e-14
-9.54731e-15
-8.64809e-15
-8.13138e-15
-6.83537e-15
-5.55951e-15
-4.79771e-15
-3.52037e-15
-1.82319e-15
-1.54647e-15
-7.20174e-16
1.47861e-15
2.47722e-15
3.22961e-15
4.83958e-15
6.61583e-15
8.15677e-15
9.69818e-15
1.07223e-14
1.20791e-14
1.40601e-14
1.60256e-14
1.73547e-14
1.87717e-14
2.12341e-14
2.28299e-14
2.45529e-14
2.65351e-14
2.54326e-14
2.66744e-14
2.60064e-14
2.49038e-14
2.38199e-14
2.32913e-14
2.24406e-14
2.17994e-14
2.11926e-14
2.06737e-14
2.0124e-14
1.97704e-14
1.93322e-14
1.88603e-14
1.86149e-14
1.83777e-14
1.79231e-14
1.77354e-14
1.74301e-14
1.72044e-14
1.68646e-14
1.63267e-14
1.63658e-14
1.61192e-14
1.6348e-14
1.62076e-14
1.57887e-14
1.56583e-14
1.57921e-14
1.5701e-14
1.56726e-14
1.5645e-14
1.55659e-14
1.56011e-14
1.54959e-14
1.5539e-14
1.58708e-14
1.59822e-14
1.57471e-14
1.60757e-14
1.62298e-14
1.60368e-14
1.60822e-14
1.6383e-14
1.65987e-14
1.6633e-14
1.68353e-14
1.71266e-14
1.744e-14
1.75744e-14
1.76592e-14
1.79469e-14
1.83568e-14
1.86606e-14
1.89763e-14
1.92974e-14
1.95049e-14
1.98755e-14
2.02786e-14
2.0721e-14
2.11702e-14
2.15936e-14
2.18693e-14
2.2278e-14
2.26727e-14
2.3056e-14
2.33391e-14
2.35244e-14
2.40027e-14
2.45632e-14
2.50669e-14
2.54985e-14
2.61509e-14
2.6436e-14
2.67869e-14
2.73422e-14
2.76589e-14
2.79944e-14
2.86749e-14
2.91013e-14
2.96351e-14
3.00957e-14
3.05426e-14
3.0604e-14
3.10928e-14
3.14024e-14
3.1403e-14
3.15898e-14
3.20888e-14
3.23344e-14
3.25834e-14
3.31113e-14
3.34265e-14
3.36075e-14
3.39e-14
3.41661e-14
3.45029e-14
3.48276e-14
3.4931e-14
3.52344e-14
3.56252e-14
3.59558e-14
3.63834e-14
3.69652e-14
3.73399e-14
3.75528e-14
3.80794e-14
3.87425e-14
3.90166e-14
3.97393e-14
4.04147e-14
4.11357e-14
4.13636e-14
4.20629e-14
4.26346e-14
4.31795e-14
4.38625e-14
4.46829e-14
4.53544e-14
4.59458e-14
4.66221e-14
4.7303e-14
4.81763e-14
4.8894e-14
4.97502e-14
5.05165e-14
5.14367e-14
5.25846e-14
5.33559e-14
5.37027e-14
5.4489e-14
5.53838e-14
5.63145e-14
5.73012e-14
5.82459e-14
5.92608e-14
5.99725e-14
6.10116e-14
6.17007e-14
6.24845e-14
6.36728e-14
6.40425e-14
6.4667e-14
6.53337e-14
6.5973e-14
6.67464e-14
6.76811e-14
6.81764e-14
6.87084e-14
6.97138e-14
7.00532e-14
7.03909e-14
7.16615e-14
7.26039e-14
7.31017e-14
7.39374e-14
7.46252e-14
7.50438e-14
7.56503e-14
7.6355e-14
7.67309e-14
7.74889e-14
7.82472e-14
7.88112e-14
7.94661e-14
7.97894e-14
7.98995e-14
8.00569e-14
8.05178e-14
8.0937e-14
8.11438e-14
8.12837e-14
8.14685e-14
8.17608e-14
8.20311e-14
8.20906e-14
8.23928e-14
8.23997e-14
8.24385e-14
8.22222e-14
8.19809e-14
8.22322e-14
8.21923e-14
8.20206e-14
8.23619e-14
8.25396e-14
8.27302e-14
8.26897e-14
8.23481e-14
8.21448e-14
8.19776e-14
8.15775e-14
8.11645e-14
8.08818e-14
8.07e-14
8.09001e-14
8.06907e-14
8.00093e-14
7.99864e-14
7.96949e-14
7.89959e-14
7.85638e-14
7.83152e-14
7.75589e-14
7.71229e-14
7.69555e-14
7.65549e-14
7.60094e-14
7.53747e-14
7.45304e-14
7.40215e-14
7.34458e-14
7.28038e-14
7.21772e-14
7.12566e-14
7.0551e-14
6.97687e-14
6.92427e-14
6.80529e-14
6.68898e-14
6.59599e-14
6.51686e-14
6.41154e-14
6.29842e-14
6.20356e-14
6.0751e-14
5.95861e-14
5.85814e-14
5.73852e-14
5.58769e-14
5.50735e-14
5.43829e-14
5.29874e-14
5.17109e-14
5.0254e-14
4.91894e-14
4.79601e-14
4.64077e-14
4.54645e-14
4.50033e-14
4.38162e-14
4.30163e-14
4.23101e-14
4.14682e-14
4.05989e-14
3.95987e-14
3.9294e-14
3.85163e-14
3.75575e-14
3.67514e-14
3.62364e-14
3.55108e-14
3.5084e-14
3.44291e-14
3.38278e-14
3.33681e-14
3.3008e-14
3.20542e-14
3.14712e-14
3.09417e-14
3.03996e-14
2.93129e-14
2.81779e-14
2.77724e-14
2.68842e-14
2.59956e-14
2.52938e-14
2.42773e-14
2.36978e-14
2.29463e-14
2.2004e-14
2.13106e-14
2.08998e-14
2.02325e-14
1.91579e-14
1.83332e-14
1.74225e-14
1.61669e-14
1.51878e-14
1.46799e-14
1.36855e-14
1.27518e-14
1.23424e-14
1.1685e-14
1.09094e-14
1.06455e-14
1.01455e-14
9.18161e-15
9.0344e-15
8.53342e-15
7.83945e-15
7.53083e-15
6.7696e-15
6.43318e-15
5.92425e-15
4.90586e-15
4.64534e-15
4.6867e-15
3.74205e-15
3.56993e-15
3.14293e-15
2.28457e-15
1.88263e-15
1.83218e-15
1.102e-15
1.15004e-15
1.3074e-15
6.09439e-16
6.29017e-16
2.50231e-16
-6.81698e-16
-4.42852e-16
-2.46128e-16
-1.35753e-15
-8.78894e-16
-8.39787e-16
-1.26979e-15
-1.38788e-15
-1.62992e-15
-1.52752e-15
-1.72141e-15
-1.77137e-15
-1.95422e-15
-1.67748e-15
-1.66025e-15
-1.61808e-15
-1.76546e-15
-1.38843e-15
-1.29375e-15
-1.76484e-15
-2.18181e-15
-2.20387e-15
-2.35764e-15
-2.96643e-15
-2.98718e-15
-3.52409e-15
-3.48829e-15
-3.28337e-15
-3.84909e-15
-3.28505e-15
-3.58632e-15
-3.75561e-15
-3.7014e-15
-3.9551e-15
-4.16095e-15
-4.19854e-15
-4.20841e-15
-3.93114e-15
-3.77415e-15
-4.58914e-15
-4.87013e-15
-4.40503e-15
-5.05318e-15
-5.80726e-15
-6.1352e-15
-6.36331e-15
-6.42293e-15
-6.82761e-15
-7.42532e-15
-7.96166e-15
-8.67841e-15
-9.11905e-15
-9.50678e-15
-1.01555e-14
-1.05085e-14
-1.10668e-14
-1.17353e-14
-1.14906e-14
-1.19114e-14
-1.29757e-14
-1.3341e-14
-1.37118e-14
-1.37122e-14
-1.40593e-14
-1.47043e-14
-1.53504e-14
-1.55431e-14
-1.60102e-14
-1.62432e-14
-1.65754e-14
-1.69421e-14
-1.69889e-14
-1.72011e-14