/*--------------------------------*- C++ -*----------------------------------*\
| =========                 |                                                 |
| \\      /  F ield         | OpenFOAM: The Open Source CFD Toolbox           |
|  \\    /   O peration     | Version:  2112                                  |
|   \\  /    A nd           | Website:  www.openfoam.com                      |
|    \\/     M anipulation  |                                                 |
\*---------------------------------------------------------------------------*/
FoamFile
{
    version     2.0;
    format      ascii;
    arch        "LSB;label=32;scalar=64";
    class       surfaceScalarField;
    location    "8";
    object      phi;
}
// * * * * * * * * * * * * * * * * * * * * * * * * * * * * * * * * * * * * * //

dimensions      [0 3 -1 0 0 0 0];

oriented        oriented;

internalField   nonuniform List<scalar> 
99400
(
3.00893e-05
-7.7273e-18
3.00893e-05
-1.39675e-18
3.00893e-05
-2.55904e-19
3.00893e-05
-6.95194e-20
3.00893e-05
-2.96944e-20
3.00893e-05
-2.01529e-20
3.00893e-05
-6.02481e-21
3.00893e-05
-6.28124e-21
3.00893e-05
-8.74974e-21
3.00893e-05
-9.42406e-21
3.00893e-05
-1.34385e-20
3.00893e-05
-2.45111e-20
3.00893e-05
-1.24728e-20
3.00893e-05
-1.83888e-20
3.00893e-05
-7.83791e-22
3.00893e-05
-2.23451e-20
3.00893e-05
-3.37035e-20
3.00893e-05
-2.22571e-20
3.00893e-05
-1.02322e-20
3.00893e-05
-1.86522e-21
3.00893e-05
1.15898e-20
3.00893e-05
2.48115e-20
3.00893e-05
3.09834e-20
3.00893e-05
5.41648e-21
3.00893e-05
-2.69861e-20
3.00893e-05
-3.11349e-20
3.00893e-05
-6.09399e-21
3.00893e-05
2.72354e-20
3.00893e-05
-2.56616e-20
3.00893e-05
-9.46775e-21
3.00893e-05
-5.03597e-21
3.00893e-05
-1.00554e-20
3.00893e-05
-9.78309e-21
3.00893e-05
-2.1634e-20
3.00893e-05
-2.03019e-20
3.00893e-05
1.59519e-20
3.00893e-05
-3.47321e-20
3.00893e-05
-2.47869e-20
3.00893e-05
9.86588e-21
3.00893e-05
-3.87251e-20
3.00893e-05
-1.60462e-21
3.00893e-05
-2.44707e-20
3.00893e-05
-1.8537e-21
3.00893e-05
1.38025e-20
3.00893e-05
-1.75248e-21
3.00893e-05
4.1217e-20
3.00893e-05
3.83339e-20
3.00893e-05
-4.06381e-20
3.00893e-05
-2.41264e-20
3.00893e-05
3.69577e-20
3.00893e-05
2.34694e-20
3.00893e-05
1.34566e-20
3.00893e-05
-4.05686e-20
3.00893e-05
-1.28384e-20
3.00893e-05
3.79434e-20
3.00893e-05
-2.85011e-20
3.00893e-05
3.9163e-20
3.00893e-05
-2.06254e-20
3.00893e-05
-5.16204e-20
3.00893e-05
4.39315e-21
3.00893e-05
-1.3341e-20
3.00893e-05
-1.85779e-20
3.00893e-05
-2.09887e-20
3.00893e-05
1.5183e-20
3.00893e-05
-1.82926e-20
3.00893e-05
1.87004e-20
3.00893e-05
-4.02051e-20
3.00893e-05
-1.20834e-20
3.00893e-05
5.84088e-20
3.00893e-05
-1.40217e-20
3.00893e-05
-1.93103e-20
3.00893e-05
1.38762e-20
3.00893e-05
5.23445e-20
3.00893e-05
-2.4308e-20
3.00893e-05
-5.42401e-20
3.00893e-05
1.11651e-19
3.00893e-05
4.27356e-20
3.00893e-05
-6.22999e-20
3.00893e-05
-1.91781e-20
3.00893e-05
4.52598e-20
3.00893e-05
2.4317e-21
3.00893e-05
-4.49007e-20
3.00893e-05
7.36271e-21
3.00893e-05
7.60831e-22
3.00893e-05
-4.45068e-20
3.00893e-05
3.45104e-20
3.00893e-05
7.10255e-21
3.00893e-05
-1.81905e-21
3.00893e-05
4.63957e-21
3.00893e-05
-8.46261e-21
3.00893e-05
2.98216e-20
3.00893e-05
2.34643e-20
3.00893e-05
9.59905e-21
3.00893e-05
1.90057e-20
3.00893e-05
8.97003e-21
3.00893e-05
-1.04794e-19
3.00893e-05
1.13436e-20
3.00893e-05
1.04725e-19
3.00893e-05
-4.43995e-20
3.00893e-05
-5.16969e-20
3.00893e-05
6.40245e-20
3.00893e-05
5.40209e-20
3.00893e-05
-1.66142e-20
3.00893e-05
-3.62572e-20
3.00893e-05
2.01209e-20
3.00893e-05
-1.76684e-21
3.00893e-05
-2.2855e-20
3.00893e-05
-1.92462e-20
3.00893e-05
5.04899e-20
3.00893e-05
8.02888e-20
3.00893e-05
-4.72012e-20
3.00893e-05
-7.7849e-20
3.00893e-05
-7.83336e-21
3.00893e-05
9.40051e-20
3.00893e-05
4.6477e-20
3.00893e-05
-9.33212e-20
3.00893e-05
-6.94321e-20
3.00893e-05
7.34149e-20
3.00893e-05
6.5246e-20
3.00893e-05
-1.71755e-20
3.00893e-05
-2.17676e-20
3.00893e-05
2.16477e-20
3.00893e-05
6.11921e-20
3.00893e-05
-1.70029e-20
3.00893e-05
-7.4544e-20
3.00893e-05
6.74929e-20
3.00893e-05
3.24056e-20
3.00893e-05
-4.41643e-20
3.00893e-05
3.03555e-20
3.00893e-05
2.42733e-20
3.00893e-05
1.5146e-20
3.00893e-05
-3.11826e-21
3.00893e-05
9.85399e-20
3.00893e-05
-6.36548e-20
3.00893e-05
-7.99911e-20
3.00893e-05
4.95719e-20
3.00893e-05
-8.78402e-21
3.00893e-05
-6.33732e-20
3.00893e-05
7.66648e-20
3.00893e-05
5.80374e-20
3.00893e-05
-1.51568e-19
3.00893e-05
-9.18424e-20
3.00893e-05
8.92452e-20
3.00893e-05
1.40958e-19
3.00893e-05
-9.79771e-20
3.00893e-05
-2.04027e-20
3.00893e-05
1.79066e-19
3.00893e-05
-4.3593e-20
3.00893e-05
-1.24931e-19
3.00893e-05
9.84411e-20
3.00893e-05
-6.17234e-20
3.00893e-05
1.03987e-20
3.00893e-05
1.28989e-19
3.00893e-05
-1.53308e-19
3.00893e-05
-3.19516e-20
3.00893e-05
8.40176e-20
3.00893e-05
-1.09408e-19
3.00893e-05
-3.65042e-21
3.00893e-05
9.77599e-21
3.00893e-05
1.14476e-19
3.00893e-05
4.26459e-20
3.00893e-05
-3.83324e-20
3.00893e-05
-1.67646e-20
3.00893e-05
-8.34879e-21
3.00893e-05
-3.93132e-20
3.00893e-05
-1.29087e-20
3.00893e-05
7.03809e-20
3.00893e-05
-1.35004e-19
3.00893e-05
1.14233e-19
3.00893e-05
1.21064e-19
3.00893e-05
-1.54079e-19
3.00893e-05
5.24573e-20
3.00893e-05
1.20994e-19
3.00893e-05
-9.55674e-20
3.00893e-05
-6.57763e-20
3.00893e-05
3.07555e-20
3.00893e-05
9.19456e-20
3.00893e-05
-4.68145e-20
3.00893e-05
-6.58211e-20
3.00893e-05
1.32101e-19
3.00893e-05
-2.24402e-20
3.00893e-05
-6.4938e-20
3.00893e-05
2.15242e-20
3.00893e-05
-5.94321e-20
3.00893e-05
1.01208e-19
3.00893e-05
-2.32824e-20
3.00893e-05
-1.38584e-19
3.00893e-05
-4.06965e-21
3.00893e-05
-6.67693e-21
3.00893e-05
-1.81263e-20
3.00893e-05
-7.83885e-20
3.00893e-05
-4.24286e-20
3.00893e-05
-9.65024e-21
3.00893e-05
1.58886e-19
3.00893e-05
5.57776e-20
3.00893e-05
-4.59353e-20
3.00893e-05
6.75198e-20
3.00893e-05
-9.29195e-21
3.00893e-05
-1.76907e-19
3.00893e-05
-5.56368e-20
3.00893e-05
7.62245e-20
3.00893e-05
-1.4806e-19
3.00893e-05
1.27189e-19
3.00893e-05
4.3337e-20
3.00893e-05
5.14293e-20
3.00893e-05
1.04333e-19
3.00893e-05
-1.72794e-19
3.00893e-05
-1.1177e-19
3.00893e-05
3.34489e-20
3.00893e-05
1.06355e-20
3.00893e-05
3.72549e-20
3.00893e-05
6.67579e-21
3.00893e-05
-1.0867e-19
3.00893e-05
1.02e-19
3.00893e-05
-9.17231e-20
3.00893e-05
1.75315e-21
3.00893e-05
-6.06568e-20
3.00893e-05
-5.26862e-20
3.00893e-05
1.34788e-19
3.00893e-05
9.69684e-20
3.00893e-05
-4.63504e-20
3.00893e-05
-8.75778e-20
3.00893e-05
4.83799e-20
3.00893e-05
-5.10045e-20
3.00893e-05
3.28407e-20
3.00893e-05
-2.01239e-20
3.00893e-05
-1.04844e-20
3.00893e-05
8.48647e-20
3.00893e-05
9.84253e-20
3.00893e-05
-1.5387e-20
3.00893e-05
-2.8976e-20
3.00893e-05
-1.26932e-19
3.00893e-05
-1.17928e-20
3.00893e-05
4.52627e-20
3.00893e-05
-9.90977e-20
3.00893e-05
1.03525e-19
3.00893e-05
3.65848e-20
3.00893e-05
4.49674e-20
3.00893e-05
-4.83993e-20
3.00893e-05
5.44047e-21
3.00893e-05
-1.36687e-21
3.00893e-05
-1.02906e-19
3.00893e-05
2.62425e-20
3.00893e-05
1.71853e-19
3.00893e-05
-5.33253e-20
3.00893e-05
-4.24611e-20
3.00893e-05
8.66959e-20
3.00893e-05
-1.04171e-19
3.00893e-05
1.68484e-20
3.00893e-05
-3.03356e-21
3.00893e-05
-3.11435e-20
3.00893e-05
-6.07982e-21
3.00893e-05
1.49219e-19
3.00893e-05
-2.89563e-20
3.00893e-05
-9.57051e-20
3.00893e-05
1.07288e-19
3.00893e-05
-2.76708e-20
3.00893e-05
-8.81108e-20
3.00893e-05
5.54741e-20
3.00893e-05
-1.18099e-19
3.00893e-05
3.25077e-20
3.00893e-05
2.20263e-19
3.00893e-05
-1.54494e-19
3.00893e-05
7.85682e-20
3.00893e-05
-1.70689e-19
3.00893e-05
-1.56192e-19
3.00893e-05
3.10133e-19
3.00893e-05
-2.11374e-19
3.00893e-05
-1.01798e-19
3.00893e-05
4.72326e-19
3.00893e-05
-1.93836e-19
3.00893e-05
-1.54565e-19
3.00893e-05
1.12063e-19
3.00893e-05
-1.61667e-19
3.00893e-05
1.32328e-19
3.00893e-05
-1.09513e-19
3.00893e-05
-5.72909e-20
3.00893e-05
1.49496e-19
3.00893e-05
1.09603e-19
3.00893e-05
-7.97106e-20
3.00893e-05
-9.11945e-20
3.00893e-05
-9.54771e-20
3.00893e-05
6.05302e-20
3.00893e-05
1.88976e-19
3.00893e-05
-2.48268e-19
3.00893e-05
2.31531e-19
3.00893e-05
4.15323e-20
3.00893e-05
-2.658e-19
3.00893e-05
1.97981e-19
3.00893e-05
6.75314e-20
3.00893e-05
-2.62777e-19
3.00893e-05
7.23407e-20
3.00893e-05
6.13531e-20
3.00893e-05
-1.69692e-19
3.00893e-05
3.42026e-19
3.00893e-05
8.13381e-20
3.00893e-05
-3.4539e-19
3.00893e-05
9.43756e-20
3.00893e-05
-2.36263e-20
3.00893e-05
-2.095e-19
3.00893e-05
2.68176e-19
3.00893e-05
-1.2443e-19
3.00893e-05
-8.43708e-20
3.00893e-05
4.24339e-19
3.00893e-05
-1.62843e-19
3.00893e-05
-2.66218e-19
3.00893e-05
2.32344e-19
3.00893e-05
-1.44266e-19
3.00893e-05
-1.56837e-19
3.00893e-05
2.90169e-19
3.00893e-05
8.87281e-20
3.00893e-05
-2.4727e-19
3.00893e-05
1.1061e-19
3.00893e-05
7.85708e-20
3.00893e-05
-1.46379e-19
3.00893e-05
7.86618e-20
3.00893e-05
-9.60661e-20
3.00893e-05
-7.42448e-20
3.00893e-05
-2.79846e-21
3.00893e-05
1.56478e-19
3.00893e-05
1.11613e-19
3.00893e-05
-6.53629e-20
3.00893e-05
-1.54724e-19
3.00893e-05
-5.10277e-20
3.00893e-05
2.11582e-19
3.00893e-05
-8.45438e-20
3.00893e-05
-1.04296e-19
3.00893e-05
-5.34849e-20
3.00893e-05
1.88013e-19
3.00893e-05
1.75913e-19
3.00893e-05
-3.3761e-19
3.00893e-05
-1.66776e-21
3.00893e-05
1.69815e-19
3.00893e-05
-2.43457e-19
3.00893e-05
1.25007e-19
3.00893e-05
2.39099e-19
3.00893e-05
-3.31301e-19
3.00893e-05
2.60982e-19
3.00893e-05
1.62173e-19
3.00893e-05
-3.0874e-19
3.00893e-05
4.91097e-20
3.00893e-05
-5.47288e-20
3.00893e-05
-1.1348e-19
3.00893e-05
6.40027e-20
3.00893e-05
1.80692e-19
3.00893e-05
2.91809e-20
3.00893e-05
-2.75795e-20
3.00893e-05
-1.66302e-19
3.00893e-05
-4.77039e-20
3.00893e-05
1.47232e-19
3.00893e-05
-8.1543e-20
3.00893e-05
-1.8219e-19
3.00893e-05
5.27776e-20
3.00893e-05
2.15965e-19
3.00893e-05
1.92477e-20
3.00893e-05
-5.92555e-20
3.00893e-05
-1.82085e-19
3.00893e-05
-9.56228e-20
3.00893e-05
1.41638e-19
3.00893e-05
-3.94502e-20
3.00893e-05
1.77846e-19
3.00893e-05
-1.83771e-19
3.00893e-05
-1.91142e-20
3.00893e-05
3.58361e-19
3.00893e-05
-2.28604e-19
3.00893e-05
-5.48447e-20
3.00893e-05
1.96868e-20
3.00893e-05
-4.94446e-20
3.00893e-05
-9.52801e-20
3.00893e-05
3.21036e-19
3.00893e-05
8.06092e-20
3.00893e-05
-1.98999e-19
3.00893e-05
-3.30511e-20
3.00893e-05
-2.92024e-20
3.00893e-05
1.2311e-19
3.00893e-05
-1.10169e-19
3.00893e-05
6.72396e-20
3.00893e-05
-1.12683e-19
3.00893e-05
2.10613e-19
3.00893e-05
4.85734e-20
3.00893e-05
-1.79431e-19
3.00893e-05
-7.32021e-20
3.00893e-05
7.40459e-20
3.00893e-05
4.46342e-20
3.00893e-05
-1.15535e-19
3.00893e-05
3.05614e-19
3.00893e-05
-2.16859e-19
3.00893e-05
5.98989e-20
3.00893e-05
1.45214e-19
3.00893e-05
-9.80119e-20
3.00893e-05
-1.10801e-19
3.00893e-05
7.45353e-20
3.00893e-05
-3.11354e-20
3.00893e-05
-2.2085e-19
3.00893e-05
3.52405e-19
3.00893e-05
1.90829e-19
3.00893e-05
-2.35409e-19
3.00893e-05
-1.35109e-19
3.00893e-05
-6.91174e-20
3.00893e-05
-4.57752e-20
3.00893e-05
1.20922e-19
3.00893e-05
3.69409e-19
3.00893e-05
-3.01999e-19
3.00893e-05
-1.58655e-19
3.00893e-05
-7.86566e-20
3.00893e-05
2.91689e-19
3.00893e-05
2.71358e-19
3.00893e-05
-5.25644e-19
3.00893e-05
-8.30499e-20
3.00893e-05
2.62108e-19
3.00893e-05
3.37338e-19
3.00893e-05
-3.87234e-19
3.00893e-05
2.23185e-20
3.00893e-05
1.3011e-19
3.00893e-05
-8.94832e-20
3.00893e-05
3.00764e-20
3.00893e-05
-2.58067e-19
3.00893e-05
2.85215e-20
3.00893e-05
2.6234e-19
3.00893e-05
1.49866e-19
3.00893e-05
-3.60183e-19
3.00893e-05
-1.3415e-19
3.00893e-05
4.98249e-19
3.00893e-05
-1.05263e-19
3.00893e-05
-1.98168e-19
3.00893e-05
3.93594e-20
3.00893e-05
1.0838e-19
3.00893e-05
4.09354e-20
3.00893e-05
7.47159e-20
3.00893e-05
-2.03896e-19
3.00893e-05
-1.71335e-19
3.00893e-05
4.99429e-19
3.00893e-05
-2.41097e-20
3.00893e-05
-4.84025e-19
3.00893e-05
-3.70344e-20
3.00893e-05
6.00739e-19
3.00893e-05
-1.40603e-19
3.00893e-05
-4.90727e-20
3.00893e-05
-1.04465e-20
3.00893e-05
-2.5879e-19
3.00893e-05
4.42831e-19
3.00893e-05
-2.53839e-19
3.00893e-05
-9.46537e-20
3.00893e-05
-6.00331e-20
3.00893e-05
2.00646e-19
3.00893e-05
9.0764e-20
3.00893e-05
-1.68166e-19
3.00893e-05
9.42263e-20
3.00893e-05
-1.583e-19
3.00893e-05
2.2532e-19
3.00893e-05
-7.98407e-20
3.00893e-05
6.93782e-20
3.00893e-05
-1.23194e-19
3.00893e-05
1.48567e-19
3.00893e-05
-2.36557e-20
3.00893e-05
-1.63525e-19
3.00893e-05
1.4966e-19
3.00893e-05
6.79831e-20
3.00893e-05
1.50248e-19
3.00893e-05
-5.39705e-19
3.00893e-05
2.74342e-19
3.00893e-05
1.52399e-19
3.00893e-05
6.5652e-20
3.00893e-05
8.24089e-20
3.00893e-05
-4.66162e-19
3.00893e-05
1.45725e-19
3.00893e-05
1.87558e-19
3.00893e-05
-3.0738e-20
3.00893e-05
-2.044e-19
3.00893e-05
1.44251e-19
3.00893e-05
-1.02424e-19
3.00893e-05
3.34364e-20
3.00893e-05
9.67875e-20
3.00893e-05
-1.81446e-19
3.00893e-05
2.05727e-19
3.00893e-05
4.99646e-20
3.00893e-05
9.87e-20
3.00893e-05
-2.72371e-19
3.00893e-05
7.96462e-20
3.00893e-05
1.39946e-19
3.00893e-05
3.39352e-20
3.00893e-05
-3.62656e-20
3.00893e-05
-1.45208e-19
3.00893e-05
2.74692e-19
3.00893e-05
-3.12156e-19
3.00893e-05
8.95268e-20
3.00893e-05
2.91761e-20
3.00893e-05
-8.23077e-20
3.00893e-05
3.14295e-19
3.00893e-05
-2.36582e-19
3.00893e-05
-2.25396e-19
3.00893e-05
1.86286e-19
3.00893e-05
2.02971e-19
3.00893e-05
-3.11638e-19
3.00893e-05
4.17609e-20
3.00893e-05
-7.27749e-20
3.00893e-05
-7.27783e-20
3.00893e-05
8.60995e-20
3.00893e-05
-4.21654e-19
-1.30971e-18
8.90636e-05
-5.19901e-18
8.90636e-05
-1.78536e-18
8.90636e-05
-6.31628e-19
8.90636e-05
-2.20929e-19
8.90636e-05
-4.95536e-20
8.90636e-05
-6.91305e-20
8.90636e-05
-1.50267e-20
8.90636e-05
-2.04961e-21
8.90636e-05
-2.78627e-20
8.90636e-05
-2.92894e-20
8.90636e-05
-6.08557e-20
8.90636e-05
-6.17776e-20
8.90636e-05
-5.72264e-20
8.90636e-05
-6.45295e-20
8.90636e-05
-3.81652e-20
8.90636e-05
-4.56608e-20
8.90636e-05
-9.1033e-20
8.90636e-05
-7.32486e-20
8.90636e-05
-2.97155e-20
8.90636e-05
-3.30041e-22
8.90636e-05
1.87759e-20
8.90636e-05
7.24588e-20
8.90636e-05
6.62876e-20
8.90636e-05
1.09959e-20
8.90636e-05
-5.57661e-20
8.90636e-05
-1.17451e-19
8.90636e-05
-2.05762e-20
8.90636e-05
6.53395e-20
8.90636e-05
-5.08999e-20
8.90636e-05
-4.52962e-20
8.90636e-05
-2.74456e-20
8.90636e-05
-4.12216e-20
8.90636e-05
-2.23859e-20
8.90636e-05
-8.61235e-20
8.90636e-05
-4.68454e-20
8.90636e-05
1.15216e-20
8.90636e-05
-1.35e-19
8.90636e-05
-7.11365e-20
8.90636e-05
-8.88156e-21
8.90636e-05
-9.81671e-20
8.90636e-05
-5.21552e-20
8.90636e-05
-6.83346e-20
8.90636e-05
-1.47215e-20
8.90636e-05
2.70188e-20
8.90636e-05
5.80378e-20
8.90636e-05
1.12352e-19
8.90636e-05
9.83755e-20
8.90636e-05
-8.09128e-20
8.90636e-05
-5.54427e-20
8.90636e-05
8.03167e-20
8.90636e-05
6.32733e-20
8.90636e-05
2.55055e-20
8.90636e-05
-8.29187e-20
8.90636e-05
-2.53996e-20
8.90636e-05
6.31279e-20
8.90636e-05
-2.26943e-20
8.90636e-05
8.00105e-20
8.90636e-05
-8.83821e-20
8.90636e-05
-1.42666e-19
8.90636e-05
-4.3178e-20
8.90636e-05
-5.5285e-20
8.90636e-05
-1.75899e-21
8.90636e-05
-5.40752e-20
8.90636e-05
2.72338e-21
8.90636e-05
-1.21616e-20
8.90636e-05
1.19703e-20
8.90636e-05
-1.09115e-19
8.90636e-05
-4.10283e-20
8.90636e-05
1.16449e-19
8.90636e-05
1.6018e-20
8.90636e-05
-1.01536e-20
8.90636e-05
3.1878e-20
8.90636e-05
1.45627e-19
8.90636e-05
-3.28064e-20
8.90636e-05
-1.38328e-19
8.90636e-05
2.53474e-19
8.90636e-05
1.66164e-19
8.90636e-05
-8.32562e-20
8.90636e-05
-9.01929e-20
8.90636e-05
3.75195e-20
8.90636e-05
3.696e-20
8.90636e-05
-9.26482e-20
8.90636e-05
-2.33669e-20
8.90636e-05
5.70131e-21
8.90636e-05
-4.20867e-20
8.90636e-05
4.68883e-20
8.90636e-05
-1.52723e-20
8.90636e-05
2.00489e-20
8.90636e-05
4.03471e-21
8.90636e-05
8.03421e-21
8.90636e-05
1.04085e-19
8.90636e-05
4.82634e-20
8.90636e-05
4.81076e-20
8.90636e-05
3.26945e-20
8.90636e-05
-2.30857e-20
8.90636e-05
-1.94771e-19
8.90636e-05
-1.66362e-20
8.90636e-05
2.3112e-19
8.90636e-05
-8.95317e-20
8.90636e-05
-1.27643e-19
8.90636e-05
1.85831e-19
8.90636e-05
1.72866e-19
8.90636e-05
-1.31066e-20
8.90636e-05
-1.23641e-19
8.90636e-05
1.30828e-20
8.90636e-05
4.53963e-20
8.90636e-05
-2.76354e-20
8.90636e-05
-7.95455e-20
8.90636e-05
1.51221e-19
8.90636e-05
1.72384e-19
8.90636e-05
-1.25272e-19
8.90636e-05
-1.64524e-19
8.90636e-05
-6.30332e-20
8.90636e-05
2.27476e-19
8.90636e-05
1.3161e-19
8.90636e-05
-2.35697e-19
8.90636e-05
-1.5259e-19
8.90636e-05
1.44621e-19
8.90636e-05
1.94308e-19
8.90636e-05
1.05004e-20
8.90636e-05
-3.87735e-20
8.90636e-05
5.6044e-20
8.90636e-05
1.26766e-19
8.90636e-05
-5.38257e-20
8.90636e-05
-1.14849e-19
8.90636e-05
1.1647e-19
8.90636e-05
5.28036e-20
8.90636e-05
-4.72932e-20
8.90636e-05
8.81047e-20
8.90636e-05
5.33107e-20
8.90636e-05
1.02453e-19
8.90636e-05
1.24182e-20
8.90636e-05
1.86025e-19
8.90636e-05
-1.09969e-19
8.90636e-05
-1.63857e-19
8.90636e-05
6.78028e-20
8.90636e-05
-8.4171e-20
8.90636e-05
-1.14495e-19
8.90636e-05
1.6146e-19
8.90636e-05
1.33676e-19
8.90636e-05
-3.30607e-19
8.90636e-05
-2.645e-19
8.90636e-05
2.34333e-19
8.90636e-05
3.53349e-19
8.90636e-05
-2.14624e-19
8.90636e-05
-2.89769e-20
8.90636e-05
4.41034e-19
8.90636e-05
-5.62351e-20
8.90636e-05
-2.61528e-19
8.90636e-05
1.16792e-19
8.90636e-05
-1.0076e-19
8.90636e-05
6.30828e-20
8.90636e-05
2.147e-19
8.90636e-05
-3.53191e-19
8.90636e-05
-6.7787e-20
8.90636e-05
1.30082e-19
8.90636e-05
-1.81498e-19
8.90636e-05
-2.92671e-20
8.90636e-05
1.01123e-20
8.90636e-05
3.13671e-19
8.90636e-05
1.46376e-19
8.90636e-05
-8.14752e-20
8.90636e-05
-4.98455e-20
8.90636e-05
-5.4896e-20
8.90636e-05
-7.93959e-20
8.90636e-05
-7.97117e-22
8.90636e-05
1.05179e-19
8.90636e-05
-2.19027e-19
8.90636e-05
2.39128e-19
8.90636e-05
2.47555e-19
8.90636e-05
-2.35811e-19
8.90636e-05
6.1864e-20
8.90636e-05
2.40019e-19
8.90636e-05
-1.14857e-19
8.90636e-05
-2.37749e-19
8.90636e-05
1.06693e-19
8.90636e-05
2.67561e-19
8.90636e-05
-1.03045e-19
8.90636e-05
-1.54147e-19
8.90636e-05
3.1335e-19
8.90636e-05
-7.80704e-21
8.90636e-05
-1.93067e-19
8.90636e-05
-5.62754e-21
8.90636e-05
-1.21543e-19
8.90636e-05
1.45549e-19
8.90636e-05
-6.89891e-20
8.90636e-05
-3.23e-19
8.90636e-05
-1.28135e-19
8.90636e-05
2.52222e-21
8.90636e-05
-8.23655e-20
8.90636e-05
-1.97535e-19
8.90636e-05
-1.1487e-19
8.90636e-05
6.24645e-20
8.90636e-05
4.26609e-19
8.90636e-05
7.02187e-20
8.90636e-05
-7.24924e-20
8.90636e-05
2.19851e-19
8.90636e-05
-1.41311e-19
8.90636e-05
-4.53479e-19
8.90636e-05
-1.05241e-19
8.90636e-05
6.24986e-20
8.90636e-05
-3.05429e-19
8.90636e-05
3.03651e-19
8.90636e-05
1.07194e-19
8.90636e-05
1.8646e-19
8.90636e-05
2.97108e-19
8.90636e-05
-4.29985e-19
8.90636e-05
-3.67955e-19
8.90636e-05
2.75805e-20
8.90636e-05
6.57936e-20
8.90636e-05
4.74549e-20
8.90636e-05
4.39013e-20
8.90636e-05
-1.66043e-19
8.90636e-05
1.12e-19
8.90636e-05
-2.3274e-19
8.90636e-05
3.84278e-20
8.90636e-05
-1.96159e-19
8.90636e-05
-1.3524e-19
8.90636e-05
3.97423e-19
8.90636e-05
2.15034e-19
8.90636e-05
-1.01909e-19
8.90636e-05
-1.56152e-19
8.90636e-05
1.12265e-19
8.90636e-05
-1.21651e-19
8.90636e-05
4.50196e-20
8.90636e-05
9.48479e-21
8.90636e-05
3.33514e-22
8.90636e-05
1.84239e-19
8.90636e-05
2.79788e-19
8.90636e-05
-8.38512e-20
8.90636e-05
-4.75036e-20
8.90636e-05
-2.73996e-19
8.90636e-05
-1.74107e-19
8.90636e-05
1.11956e-19
8.90636e-05
-1.56628e-19
8.90636e-05
1.79896e-19
8.90636e-05
1.54196e-19
8.90636e-05
1.88545e-20
8.90636e-05
-4.58992e-20
8.90636e-05
-1.27663e-20
8.90636e-05
-2.32294e-20
8.90636e-05
-1.73352e-19
8.90636e-05
1.01337e-21
8.90636e-05
4.06605e-19
8.90636e-05
-3.82005e-20
8.90636e-05
-9.9923e-20
8.90636e-05
1.3295e-19
8.90636e-05
-1.92469e-19
8.90636e-05
-2.01312e-20
8.90636e-05
6.51143e-20
8.90636e-05
-9.1595e-20
8.90636e-05
-2.68214e-20
8.90636e-05
3.07856e-19
8.90636e-05
7.57653e-21
8.90636e-05
-1.82552e-19
8.90636e-05
1.59473e-19
8.90636e-05
-2.57061e-20
8.90636e-05
-1.64951e-19
8.90636e-05
2.47044e-20
8.90636e-05
-2.91909e-19
8.90636e-05
1.56793e-19
8.90636e-05
4.75937e-19
8.90636e-05
-2.13772e-19
8.90636e-05
3.89482e-20
8.90636e-05
-4.65498e-19
8.90636e-05
-4.04574e-19
8.90636e-05
6.77404e-19
8.90636e-05
-3.27677e-19
8.90636e-05
-2.48764e-19
8.90636e-05
9.33013e-19
8.90636e-05
-3.16489e-19
8.90636e-05
-3.29567e-19
8.90636e-05
1.64593e-19
8.90636e-05
-3.24693e-19
8.90636e-05
1.14424e-19
8.90636e-05
-6.33173e-20
8.90636e-05
-1.11229e-19
8.90636e-05
2.26984e-19
8.90636e-05
2.81491e-19
8.90636e-05
-1.06037e-19
8.90636e-05
-2.57699e-19
8.90636e-05
-3.5573e-19
8.90636e-05
1.73541e-19
8.90636e-05
4.98836e-19
8.90636e-05
-4.88754e-19
8.90636e-05
4.60506e-19
8.90636e-05
1.70789e-19
8.90636e-05
-6.47055e-19
8.90636e-05
4.65082e-19
8.90636e-05
1.24371e-19
8.90636e-05
-6.27236e-19
8.90636e-05
1.7655e-19
8.90636e-05
1.55232e-19
8.90636e-05
-3.00621e-19
8.90636e-05
7.38615e-19
8.90636e-05
9.09773e-20
8.90636e-05
-6.79532e-19
8.90636e-05
1.38207e-19
8.90636e-05
-1.34194e-19
8.90636e-05
-3.78711e-19
8.90636e-05
4.38599e-19
8.90636e-05
-9.94986e-20
8.90636e-05
-1.80956e-19
8.90636e-05
8.33035e-19
8.90636e-05
-2.57687e-19
8.90636e-05
-6.42283e-19
8.90636e-05
3.25848e-19
8.90636e-05
-2.31856e-19
8.90636e-05
-2.58115e-19
8.90636e-05
5.35873e-19
8.90636e-05
2.89427e-19
8.90636e-05
-4.53209e-19
8.90636e-05
1.39836e-19
8.90636e-05
1.87451e-19
8.90636e-05
-2.7134e-19
8.90636e-05
6.87914e-21
8.90636e-05
-2.1596e-19
8.90636e-05
-1.39972e-19
8.90636e-05
-3.59436e-20
8.90636e-05
3.91307e-19
8.90636e-05
3.43205e-19
8.90636e-05
-2.33593e-19
8.90636e-05
-3.53927e-19
8.90636e-05
-9.56923e-21
8.90636e-05
3.56409e-19
8.90636e-05
-1.87307e-19
8.90636e-05
-1.80981e-19
8.90636e-05
-1.11372e-19
8.90636e-05
3.66493e-19
8.90636e-05
3.73278e-19
8.90636e-05
-6.32737e-19
8.90636e-05
-6.49548e-20
8.90636e-05
2.74376e-19
8.90636e-05
-4.16039e-19
8.90636e-05
2.25927e-19
8.90636e-05
4.80779e-19
8.90636e-05
-4.34825e-19
8.90636e-05
4.4415e-19
8.90636e-05
2.79007e-19
8.90636e-05
-5.50689e-19
8.90636e-05
-3.71631e-20
8.90636e-05
-2.62298e-19
8.90636e-05
-7.91686e-20
8.90636e-05
1.52912e-19
8.90636e-05
2.89597e-19
8.90636e-05
2.0869e-19
8.90636e-05
-1.10706e-19
8.90636e-05
-4.49827e-19
8.90636e-05
-2.83145e-20
8.90636e-05
3.10068e-19
8.90636e-05
-3.69998e-19
8.90636e-05
-3.03564e-19
8.90636e-05
1.4989e-19
8.90636e-05
3.48983e-19
8.90636e-05
1.74061e-19
8.90636e-05
-1.83863e-19
8.90636e-05
-4.71519e-19
8.90636e-05
-1.56786e-19
8.90636e-05
1.86749e-19
8.90636e-05
-2.03866e-20
8.90636e-05
4.97758e-19
8.90636e-05
-4.14682e-19
8.90636e-05
1.94388e-21
8.90636e-05
7.4997e-19
8.90636e-05
-4.28207e-19
8.90636e-05
-2.24685e-19
8.90636e-05
8.74393e-21
8.90636e-05
-8.93165e-20
8.90636e-05
-1.10562e-19
8.90636e-05
7.13347e-19
8.90636e-05
1.66699e-19
8.90636e-05
-4.07222e-19
8.90636e-05
-4.46864e-20
8.90636e-05
-6.06494e-20
8.90636e-05
1.54804e-19
8.90636e-05
-2.06546e-19
8.90636e-05
1.01575e-19
8.90636e-05
-1.2727e-19
8.90636e-05
5.00372e-19
8.90636e-05
5.06518e-22
8.90636e-05
-4.14459e-19
8.90636e-05
-1.29611e-19
8.90636e-05
1.74061e-19
8.90636e-05
8.9226e-20
8.90636e-05
-2.18823e-19
8.90636e-05
7.76096e-19
8.90636e-05
-3.34489e-19
8.90636e-05
-7.54231e-20
8.90636e-05
4.09117e-19
8.90636e-05
-1.27134e-19
8.90636e-05
-4.19434e-19
8.90636e-05
1.17724e-19
8.90636e-05
5.91285e-21
8.90636e-05
-4.57448e-19
8.90636e-05
8.81166e-19
8.90636e-05
4.05826e-19
8.90636e-05
-6.41928e-19
8.90636e-05
-2.65212e-19
8.90636e-05
-1.75413e-19
8.90636e-05
-1.88236e-19
8.90636e-05
3.00985e-19
8.90636e-05
7.62872e-19
8.90636e-05
-6.40917e-19
8.90636e-05
-2.71421e-19
8.90636e-05
-2.35311e-19
8.90636e-05
5.37604e-19
8.90636e-05
7.31519e-19
8.90636e-05
-1.10374e-18
8.90636e-05
-4.0537e-19
8.90636e-05
6.67984e-19
8.90636e-05
8.85499e-19
8.90636e-05
-8.57916e-19
8.90636e-05
1.47309e-20
8.90636e-05
2.40911e-19
8.90636e-05
-1.93119e-19
8.90636e-05
-4.28968e-20
8.90636e-05
-6.12049e-19
8.90636e-05
2.18831e-19
8.90636e-05
5.51083e-19
8.90636e-05
2.93763e-19
8.90636e-05
-7.2372e-19
8.90636e-05
-2.42997e-19
8.90636e-05
9.66232e-19
8.90636e-05
-5.43728e-20
8.90636e-05
-3.71634e-19
8.90636e-05
-7.58746e-20
8.90636e-05
3.84908e-19
8.90636e-05
1.50645e-19
8.90636e-05
1.26648e-19
8.90636e-05
-4.93408e-19
8.90636e-05
-3.88534e-19
8.90636e-05
1.0148e-18
8.90636e-05
1.47467e-19
8.90636e-05
-1.09835e-18
8.90636e-05
-2.42885e-19
8.90636e-05
1.46944e-18
8.90636e-05
-1.5516e-19
8.90636e-05
-2.08345e-19
8.90636e-05
-1.07905e-19
8.90636e-05
-4.23703e-19
8.90636e-05
7.66007e-19
8.90636e-05
-4.3203e-19
8.90636e-05
-3.06166e-19
8.90636e-05
-7.46051e-20
8.90636e-05
4.43732e-19
8.90636e-05
1.67316e-19
8.90636e-05
-2.83397e-19
8.90636e-05
1.01616e-19
8.90636e-05
-2.79661e-19
8.90636e-05
5.07787e-19
8.90636e-05
-1.27884e-19
8.90636e-05
4.01029e-21
8.90636e-05
-3.13043e-20
8.90636e-05
2.88049e-19
8.90636e-05
-1.61753e-19
8.90636e-05
-2.81938e-19
8.90636e-05
3.24322e-19
8.90636e-05
1.54279e-19
8.90636e-05
3.04955e-19
8.90636e-05
-1.11791e-18
8.90636e-05
4.61632e-19
8.90636e-05
7.04098e-19
8.90636e-05
1.16124e-19
8.90636e-05
-1.56913e-19
8.90636e-05
-8.08728e-19
8.90636e-05
3.64811e-19
8.90636e-05
1.83444e-19
8.90636e-05
-1.08922e-19
8.90636e-05
-1.69808e-19
8.90636e-05
1.6165e-19
8.90636e-05
-2.38973e-19
8.90636e-05
5.81854e-20
8.90636e-05
2.18396e-19
8.90636e-05
-2.47043e-19
8.90636e-05
3.80139e-19
8.90636e-05
2.73158e-19
8.90636e-05
5.82423e-20
8.90636e-05
-5.64395e-19
8.90636e-05
3.93853e-19
8.90636e-05
2.46438e-19
8.90636e-05
-9.43508e-20
8.90636e-05
8.26736e-20
8.90636e-05
-1.7025e-19
8.90636e-05
2.7513e-19
8.90636e-05
-6.08698e-19
8.90636e-05
1.73389e-19
8.90636e-05
5.63712e-20
8.90636e-05
5.43627e-20
8.90636e-05
4.3684e-19
8.90636e-05
-6.3021e-19
8.90636e-05
-3.00967e-19
8.90636e-05
5.17829e-19
8.90636e-05
1.72749e-19
8.90636e-05
-6.27757e-19
8.90636e-05
2.93779e-20
8.90636e-05
-1.54072e-19
8.90636e-05
-1.31487e-19
8.90636e-05
-3.9394e-21
8.90636e-05
-8.7742e-19
-1.65205e-18
0.000146832
-3.70584e-18
0.000146832
-1.76716e-18
0.000146832
-8.61817e-19
0.000146832
-3.54886e-19
0.000146832
-6.81318e-20
0.000146832
-1.06087e-19
0.000146832
-5.47011e-20
0.000146832
3.00317e-20
0.000146832
-5.71664e-20
0.000146832
-1.40689e-19
0.000146832
-1.12317e-19
0.000146832
-1.48825e-19
0.000146832
-1.47717e-19
0.000146832
-7.6106e-20
0.000146832
-1.07568e-19
0.000146832
-1.02976e-19
0.000146832
-7.76024e-20
0.000146832
-1.40284e-19
0.000146832
-4.80106e-20
0.000146832
3.73908e-20
0.000146832
-2.51444e-20
0.000146832
9.82908e-20
0.000146832
1.29026e-19
0.000146832
-2.85102e-21
0.000146832
-8.63143e-20
0.000146832
-1.49879e-19
0.000146832
-7.02789e-20
0.000146832
6.40492e-20
0.000146832
-9.79136e-20
0.000146832
-1.17641e-19
0.000146832
-6.90724e-20
0.000146832
-7.05998e-20
0.000146832
-5.83383e-20
0.000146832
-1.1812e-19
0.000146832
-1.47158e-19
0.000146832
-3.62802e-20
0.000146832
-2.23995e-19
0.000146832
-1.59593e-19
0.000146832
-4.6254e-20
0.000146832
-1.85464e-19
0.000146832
-1.03141e-19
0.000146832
-1.56806e-19
0.000146832
-7.86279e-20
0.000146832
8.06367e-20
0.000146832
1.41237e-19
0.000146832
2.00708e-19
0.000146832
1.19089e-19
0.000146832
-5.81214e-20
0.000146832
-3.80386e-20
0.000146832
7.11431e-20
0.000146832
1.12393e-19
0.000146832
2.9648e-20
0.000146832
-1.26973e-19
0.000146832
-3.85291e-20
0.000146832
1.31063e-19
0.000146832
1.58063e-20
0.000146832
-4.62608e-21
0.000146832
-2.14456e-19
0.000146832
-1.9095e-19
0.000146832
-8.73352e-20
0.000146832
-7.67767e-20
0.000146832
-2.8464e-20
0.000146832
-9.18566e-20
0.000146832
-1.33267e-20
0.000146832
-1.24927e-20
0.000146832
-1.36451e-20
0.000146832
-1.93933e-19
0.000146832
-1.03695e-19
0.000146832
1.92464e-19
0.000146832
1.21424e-19
0.000146832
4.80373e-20
0.000146832
2.54048e-20
0.000146832
2.20038e-19
0.000146832
-2.29578e-21
0.000146832
-2.19845e-19
0.000146832
3.46283e-19
0.000146832
3.39095e-19
0.000146832
-2.90395e-20
0.000146832
-1.70621e-19
0.000146832
2.69068e-20
0.000146832
3.97622e-20
0.000146832
-9.70301e-20
0.000146832
-7.98321e-20
0.000146832
7.91018e-21
0.000146832
-7.61638e-20
0.000146832
3.88877e-20
0.000146832
-1.45961e-20
0.000146832
4.87867e-20
0.000146832
1.29178e-20
0.000146832
2.55232e-20
0.000146832
1.73019e-19
0.000146832
4.97106e-20
0.000146832
1.35752e-19
0.000146832
1.05541e-19
0.000146832
-2.15623e-20
0.000146832
-2.81234e-19
0.000146832
-2.61162e-20
0.000146832
3.12319e-19
0.000146832
-1.37318e-19
0.000146832
-1.52145e-19
0.000146832
2.79724e-19
0.000146832
2.60739e-19
0.000146832
-1.5884e-20
0.000146832
-2.02472e-19
0.000146832
-8.40932e-21
0.000146832
1.38206e-19
0.000146832
-8.14473e-20
0.000146832
-1.24632e-19
0.000146832
2.62612e-19
0.000146832
1.92036e-19
0.000146832
-2.15712e-19
0.000146832
-2.47435e-19
0.000146832
-3.36031e-20
0.000146832
3.48212e-19
0.000146832
2.14473e-19
0.000146832
-2.74327e-19
0.000146832
-2.63103e-19
0.000146832
1.87176e-19
0.000146832
2.63768e-19
0.000146832
1.25727e-19
0.000146832
-9.8465e-21
0.000146832
8.46589e-20
0.000146832
1.45437e-19
0.000146832
-1.00029e-19
0.000146832
-1.09399e-19
0.000146832
1.7533e-19
0.000146832
1.01502e-19
0.000146832
2.28943e-20
0.000146832
1.29233e-19
0.000146832
1.74867e-19
0.000146832
1.99051e-19
0.000146832
-9.69095e-21
0.000146832
1.81884e-19
0.000146832
-1.14427e-19
0.000146832
-1.88603e-19
0.000146832
1.12929e-19
0.000146832
-2.2956e-19
0.000146832
-1.97566e-19
0.000146832
2.61057e-19
0.000146832
1.20404e-19
0.000146832
-4.45754e-19
0.000146832
-3.59494e-19
0.000146832
3.89069e-19
0.000146832
5.64702e-19
0.000146832
-3.17485e-19
0.000146832
-1.73757e-20
0.000146832
6.78968e-19
0.000146832
-9.06526e-20
0.000146832
-3.33689e-19
0.000146832
9.48947e-20
0.000146832
-1.61216e-19
0.000146832
1.71011e-19
0.000146832
1.91662e-19
0.000146832
-5.12691e-19
0.000146832
-5.59983e-20
0.000146832
1.42381e-19
0.000146832
-2.21231e-19
0.000146832
-6.80643e-20
0.000146832
-2.83527e-20
0.000146832
5.08643e-19
0.000146832
3.02043e-19
0.000146832
-5.83131e-20
0.000146832
-1.32891e-19
0.000146832
-1.27244e-19
0.000146832
-5.00504e-20
0.000146832
3.94053e-20
0.000146832
1.32446e-19
0.000146832
-1.91053e-19
0.000146832
3.69836e-19
0.000146832
3.0711e-19
0.000146832
-2.80411e-19
0.000146832
4.59385e-20
0.000146832
3.57979e-19
0.000146832
-1.16726e-19
0.000146832
-3.5255e-19
0.000146832
1.81284e-19
0.000146832
4.53285e-19
0.000146832
-1.52939e-19
0.000146832
-2.05493e-19
0.000146832
4.72696e-19
0.000146832
3.1023e-20
0.000146832
-3.63765e-19
0.000146832
-8.03768e-20
0.000146832
-1.419e-19
0.000146832
6.0769e-20
0.000146832
-1.62921e-19
0.000146832
-4.45211e-19
0.000146832
-3.41069e-19
0.000146832
9.12672e-23
0.000146832
-1.63692e-19