/*--------------------------------*- C++ -*----------------------------------*\
| =========                 |                                                 |
| \\      /  F ield         | OpenFOAM: The Open Source CFD Toolbox           |
|  \\    /   O peration     | Version:  2112                                  |
|   \\  /    A nd           | Website:  www.openfoam.com                      |
|    \\/     M anipulation  |                                                 |
\*---------------------------------------------------------------------------*/
FoamFile
{
    version     2.0;
    format      ascii;
    arch        "LSB;label=32;scalar=64";
    class       surfaceScalarField;
    location    "8";
    object      phi;
}
// * * * * * * * * * * * * * * * * * * * * * * * * * * * * * * * * * * * * * //

dimensions      [0 3 -1 0 0 0 0];

oriented        oriented;

internalField   nonuniform List<scalar> 
50800
(
2.34302e-05
-1.27103e-18
2.34302e-05
-2.79974e-19
2.34302e-05
-1.31224e-19
2.34302e-05
-7.39671e-20
2.34302e-05
-3.2388e-20
2.34302e-05
-2.738e-20
2.34302e-05
-1.08546e-20
2.34302e-05
-6.51545e-21
2.34302e-05
-1.34445e-20
2.34302e-05
-8.62982e-21
2.34302e-05
1.7048e-20
2.34302e-05
8.27619e-21
2.34302e-05
2.55805e-20
2.34302e-05
5.33753e-21
2.34302e-05
-1.72453e-20
2.34302e-05
1.81597e-20
2.34302e-05
1.27189e-20
2.34302e-05
1.18671e-20
2.34302e-05
1.29054e-21
2.34302e-05
2.03719e-21
2.34302e-05
1.41444e-20
2.34302e-05
5.45139e-21
2.34302e-05
-9.19738e-21
2.34302e-05
-1.00755e-20
2.34302e-05
-2.16173e-20
2.34302e-05
-1.23252e-20
2.34302e-05
1.70478e-20
2.34302e-05
-1.93909e-20
2.34302e-05
-3.90545e-20
2.34302e-05
-3.86505e-20
2.34302e-05
1.55215e-21
2.34302e-05
3.24239e-20
2.34302e-05
4.71676e-21
2.34302e-05
-1.57871e-20
2.34302e-05
-1.12093e-20
2.34302e-05
-2.52884e-21
2.34302e-05
2.47372e-20
2.34302e-05
-9.74159e-21
2.34302e-05
-2.30405e-20
2.34302e-05
2.37124e-20
2.34302e-05
-7.84151e-21
2.34302e-05
7.9671e-21
2.34302e-05
9.23876e-21
2.34302e-05
-2.0414e-20
2.34302e-05
7.71158e-21
2.34302e-05
-3.68208e-21
2.34302e-05
6.11727e-23
2.34302e-05
-1.08675e-20
2.34302e-05
-1.43997e-20
2.34302e-05
-2.17315e-20
2.34302e-05
-3.81909e-20
2.34302e-05
1.33009e-20
2.34302e-05
-1.93194e-20
2.34302e-05
-1.55573e-20
2.34302e-05
2.11932e-20
2.34302e-05
-3.89385e-20
2.34302e-05
7.26824e-21
2.34302e-05
-3.4763e-21
2.34302e-05
-3.3524e-21
2.34302e-05
2.58565e-20
2.34302e-05
-5.48477e-20
2.34302e-05
3.43868e-20
2.34302e-05
1.65052e-21
2.34302e-05
2.03246e-21
2.34302e-05
6.25054e-20
2.34302e-05
-1.44979e-20
2.34302e-05
2.98636e-20
2.34302e-05
1.58501e-20
2.34302e-05
3.8115e-21
2.34302e-05
3.28577e-20
2.34302e-05
-1.45161e-20
2.34302e-05
3.50007e-21
2.34302e-05
-1.68538e-20
2.34302e-05
-1.16096e-20
2.34302e-05
4.03703e-20
2.34302e-05
-4.95991e-20
2.34302e-05
-5.145e-20
2.34302e-05
2.85546e-20
2.34302e-05
-2.09627e-20
2.34302e-05
2.09509e-20
2.34302e-05
-2.37965e-20
2.34302e-05
-7.1636e-20
2.34302e-05
2.22907e-20
2.34302e-05
4.18643e-20
2.34302e-05
3.79992e-20
2.34302e-05
-9.85579e-21
2.34302e-05
-2.16819e-20
2.34302e-05
-5.35017e-21
2.34302e-05
2.06585e-20
2.34302e-05
6.94248e-20
2.34302e-05
-2.95422e-20
2.34302e-05
-5.68967e-20
2.34302e-05
1.83393e-20
2.34302e-05
5.40569e-20
2.34302e-05
1.75756e-20
2.34302e-05
-5.23396e-20
2.34302e-05
2.44206e-20
2.34302e-05
-4.01737e-21
2.34302e-05
2.15718e-20
2.34302e-05
1.5129e-20
2.34302e-05
-5.88044e-20
2.34302e-05
1.90541e-20
2.34302e-05
-3.32386e-20
2.34302e-05
1.32121e-20
2.34302e-05
3.76924e-20
2.34302e-05
1.29222e-20
2.34302e-05
-5.88769e-20
2.34302e-05
-2.70868e-22
2.34302e-05
7.99092e-20
2.34302e-05
3.99636e-20
2.34302e-05
2.8107e-20
2.34302e-05
-1.48711e-19
2.34302e-05
2.60325e-20
2.34302e-05
1.15039e-19
2.34302e-05
1.69334e-20
2.34302e-05
-1.69648e-20
2.34302e-05
-1.13667e-19
2.34302e-05
-1.84525e-21
2.34302e-05
1.07434e-19
2.34302e-05
2.25349e-20
2.34302e-05
-7.1127e-20
2.34302e-05
-1.07868e-19
2.34302e-05
8.53052e-21
2.34302e-05
1.45743e-19
2.34302e-05
6.16479e-20
2.34302e-05
-5.87268e-20
2.34302e-05
-1.28228e-19
2.34302e-05
2.54853e-20
2.34302e-05
1.32541e-19
2.34302e-05
5.56363e-21
2.34302e-05
-4.07765e-20
2.34302e-05
-7.58126e-20
2.34302e-05
2.43938e-20
2.34302e-05
7.99131e-20
2.34302e-05
-3.04788e-20
2.34302e-05
-3.32373e-20
2.34302e-05
-8.08629e-20
2.34302e-05
-1.22541e-20
2.34302e-05
8.19565e-20
2.34302e-05
-1.69599e-21
2.34302e-05
-4.2619e-20
2.34302e-05
-7.68151e-20
2.34302e-05
2.86292e-20
2.34302e-05
5.4849e-20
2.34302e-05
-1.54908e-20
2.34302e-05
-1.22484e-20
2.34302e-05
-6.453e-20
2.34302e-05
1.66775e-20
2.34302e-05
-2.92575e-21
2.34302e-05
-9.30836e-21
2.34302e-05
7.56133e-20
2.34302e-05
-7.31038e-20
2.34302e-05
-6.70158e-20
2.34302e-05
3.97147e-20
2.34302e-05
3.85635e-20
2.34302e-05
4.66042e-20
2.34302e-05
-3.91114e-20
2.34302e-05
-4.84645e-20
2.34302e-05
4.95171e-20
2.34302e-05
3.42436e-20
2.34302e-05
7.9159e-20
2.34302e-05
-9.01201e-20
2.34302e-05
-1.26762e-20
2.34302e-05
1.07944e-19
2.34302e-05
-7.5534e-20
2.34302e-05
5.38695e-20
2.34302e-05
5.55398e-21
2.34302e-05
-3.0061e-20
2.34302e-05
8.94304e-20
2.34302e-05
2.13571e-20
2.34302e-05
1.82651e-20
2.34302e-05
-7.56674e-20
2.34302e-05
2.25425e-20
2.34302e-05
5.49263e-20
2.34302e-05
-2.34148e-20
2.34302e-05
-2.53596e-20
2.34302e-05
-7.43206e-20
2.34302e-05
9.13239e-20
2.34302e-05
-2.44278e-20
2.34302e-05
-2.34067e-20
2.34302e-05
9.57016e-20
2.34302e-05
-1.63526e-19
2.34302e-05
-9.4191e-21
2.34302e-05
6.62859e-20
2.34302e-05
-2.03006e-20
2.34302e-05
1.05436e-19
2.34302e-05
-1.02651e-19
2.34302e-05
-1.08684e-20
2.34302e-05
1.05436e-19
2.34302e-05
-8.57052e-20
2.34302e-05
4.26436e-20
2.34302e-05
-8.44146e-21
2.34302e-05
-7.10041e-20
2.34302e-05
1.11351e-19
2.34302e-05
-1.65656e-20
2.34302e-05
1.40838e-20
2.34302e-05
-5.62778e-20
2.34302e-05
-3.5478e-20
2.34302e-05
1.368e-19
2.34302e-05
-8.74988e-20
2.34302e-05
1.04225e-20
2.34302e-05
-6.18484e-20
2.34302e-05
2.50387e-22
2.34302e-05
1.46054e-19
2.34302e-05
-6.30899e-20
2.34302e-05
-7.55046e-20
2.34302e-05
-6.56213e-20
2.34302e-05
5.95617e-20
2.34302e-05
7.49936e-20
2.34302e-05
-2.67124e-20
2.34302e-05
-5.27628e-20
2.34302e-05
-9.18002e-20
2.34302e-05
2.27718e-19
2.34302e-05
1.67906e-20
2.34302e-05
-2.26779e-19
2.34302e-05
1.86049e-19
2.34302e-05
3.95982e-21
2.34302e-05
-4.76744e-20
2.34302e-05
-3.34051e-20
2.34302e-05
-1.44401e-19
2.34302e-05
2.31812e-19
2.34302e-05
3.03365e-20
2.34302e-05
-8.89556e-20
2.34302e-05
-2.32873e-20
2.34302e-05
-1.49194e-19
2.34302e-05
2.43683e-19
2.34302e-05
-8.10075e-21
2.34302e-05
-1.06153e-19
2.34302e-05
7.07938e-20
2.34302e-05
-9.22643e-20
2.34302e-05
1.7918e-19
2.34302e-05
-3.02244e-20
2.34302e-05
-4.11125e-20
2.34302e-05
7.49875e-20
2.34302e-05
-1.76655e-19
2.34302e-05
7.97235e-20
2.34302e-05
2.9245e-20
2.34302e-05
6.94227e-20
2.34302e-05
1.05282e-19
2.34302e-05
-1.84471e-19
2.34302e-05
1.0467e-19
2.34302e-05
-5.4484e-20
2.34302e-05
1.83614e-20
2.34302e-05
1.27938e-19
2.34302e-05
-2.65877e-19
2.34302e-05
2.70027e-20
2.34302e-05
6.09226e-20
2.34302e-05
8.85306e-20
2.34302e-05
3.50477e-20
2.34302e-05
-1.99055e-19
2.34302e-05
1.84685e-19
2.34302e-05
-3.05403e-20
2.34302e-05
-1.24809e-19
2.34302e-05
-2.01173e-20
2.34302e-05
-1.40852e-19
2.34302e-05
2.61541e-19
2.34302e-05
-2.57618e-20
2.34302e-05
-5.4661e-20
2.34302e-05
8.86032e-20
2.34302e-05
-1.8803e-19
2.34302e-05
1.07247e-19
2.34302e-05
1.66267e-20
2.34302e-05
-2.44911e-20
2.34302e-05
2.71405e-20
2.34302e-05
-1.15054e-19
2.34302e-05
1.83537e-19
2.34302e-05
8.35251e-21
2.34302e-05
-3.72792e-20
2.34302e-05
3.51075e-22
2.34302e-05
-1.49042e-19
2.34302e-05
1.29075e-19
2.34302e-05
1.3717e-20
2.34302e-05
-1.04664e-21
2.34302e-05
-7.862e-21
2.34302e-05
-1.47026e-19
2.34302e-05
1.01725e-19
2.34302e-05
9.43728e-21
2.34302e-05
-4.65784e-20
2.34302e-05
8.31629e-20
2.34302e-05
-1.38062e-19
2.34302e-05
5.77602e-20
2.34302e-05
4.22628e-20
2.34302e-05
-2.45712e-20
2.34302e-05
3.72566e-20
2.34302e-05
-1.35158e-19
2.34302e-05
6.29298e-20
2.34302e-05
1.07492e-19
2.34302e-05
-1.25512e-20
2.34302e-05
-9.63426e-20
2.34302e-05
-1.09807e-19
2.34302e-05
1.35304e-19
2.34302e-05
1.41427e-20
2.34302e-05
-6.26443e-20
2.34302e-05
-3.48955e-20
2.34302e-05
-4.37361e-20
2.34302e-05
1.37675e-19
2.34302e-05
7.56749e-21
2.34302e-05
-2.97318e-20
2.34302e-05
-8.90016e-20
2.34302e-05
-4.24244e-20
2.34302e-05
1.49091e-19
2.34302e-05
3.90228e-20
2.34302e-05
4.87166e-20
2.34302e-05
-1.02296e-19
2.34302e-05
-1.08776e-19
2.34302e-05
8.26404e-20
2.34302e-05
3.15425e-21
2.34302e-05
6.69603e-20
2.34302e-05
-1.18695e-19
2.34302e-05
1.56147e-21
2.34302e-05
5.66631e-20
2.34302e-05
-1.2063e-19
2.34302e-05
9.44812e-20
2.34302e-05
-4.16952e-20
2.34302e-05
-9.44733e-20
2.34302e-05
2.6476e-20
2.34302e-05
-1.10225e-19
2.34302e-05
3.40494e-20
2.34302e-05
-1.41371e-19
-3.81884e-19
6.9119e-05
-5.52938e-19
6.9119e-05
-3.84364e-19
6.9119e-05
-2.15318e-19
6.9119e-05
-1.16654e-19
6.9119e-05
-6.87696e-20
6.9119e-05
-5.69863e-20
6.9119e-05
-2.86747e-20
6.9119e-05
2.1004e-21
6.9119e-05
4.04577e-21
6.9119e-05
-3.74525e-21
6.9119e-05
2.32504e-21
6.9119e-05
3.36548e-20
6.9119e-05
7.80873e-20
6.9119e-05
3.14849e-20
6.9119e-05
-2.54722e-20
6.9119e-05
5.21049e-20
6.9119e-05
4.75336e-20
6.9119e-05
4.0361e-20
6.9119e-05
3.25104e-20
6.9119e-05
8.5147e-21
6.9119e-05
4.84657e-20
6.9119e-05
1.70543e-20
6.9119e-05
-3.5761e-20
6.9119e-05
-3.44077e-20
6.9119e-05
-5.06884e-20
6.9119e-05
-2.12759e-20
6.9119e-05
5.73843e-21
6.9119e-05
-6.91794e-20
6.9119e-05
-1.15277e-19
6.9119e-05
-9.92374e-20
6.9119e-05
-1.07935e-20
6.9119e-05
6.81401e-20
6.9119e-05
1.69871e-20
6.9119e-05
-3.77091e-20
6.9119e-05
-2.67652e-20
6.9119e-05
6.70261e-22
6.9119e-05
6.99627e-20
6.9119e-05
-7.88817e-21
6.9119e-05
-6.65772e-20
6.9119e-05
1.25988e-20
6.9119e-05
-1.50984e-20
6.9119e-05
2.30135e-20
6.9119e-05
1.46015e-20
6.9119e-05
-4.43647e-20
6.9119e-05
9.43767e-21
6.9119e-05
2.33373e-21
6.9119e-05
-1.54193e-20
6.9119e-05
-4.90054e-20
6.9119e-05
-7.32741e-20
6.9119e-05
-5.09854e-20
6.9119e-05
-1.06765e-19
6.9119e-05
-4.38521e-21
6.9119e-05
-3.4717e-20
6.9119e-05
-4.07062e-20
6.9119e-05
1.39103e-20
6.9119e-05
-8.22885e-20
6.9119e-05
-1.76259e-20
6.9119e-05
-3.25916e-23
6.9119e-05
1.49905e-20
6.9119e-05
3.90961e-20
6.9119e-05
-1.17564e-19
6.9119e-05
6.72948e-20
6.9119e-05
-5.85295e-21
6.9119e-05
3.20835e-20
6.9119e-05
1.57332e-19
6.9119e-05
-9.3579e-21
6.9119e-05
9.34656e-20
6.9119e-05
4.65097e-20
6.9119e-05
4.15197e-20
6.9119e-05
8.67942e-20
6.9119e-05
-3.59276e-20
6.9119e-05
3.97824e-22
6.9119e-05
-4.69943e-20
6.9119e-05
-5.05197e-21
6.9119e-05
7.09851e-20
6.9119e-05
-1.32984e-19
6.9119e-05
-1.21387e-19
6.9119e-05
1.91529e-20
6.9119e-05
-6.78282e-20
6.9119e-05
2.34143e-20
6.9119e-05
-7.39961e-20
6.9119e-05
-1.58335e-19
6.9119e-05
3.46463e-20
6.9119e-05
1.1824e-19
6.9119e-05
1.14656e-19
6.9119e-05
-3.97514e-21
6.9119e-05
-3.49028e-20
6.9119e-05
-9.83232e-21
6.9119e-05
5.66938e-20
6.9119e-05
1.71286e-19
6.9119e-05
-5.30128e-20
6.9119e-05
-1.1845e-19
6.9119e-05
3.58323e-20
6.9119e-05
1.01111e-19
6.9119e-05
4.03916e-20
6.9119e-05
-7.3831e-20
6.9119e-05
3.57789e-20
6.9119e-05
2.66829e-21
6.9119e-05
2.71825e-20
6.9119e-05
-1.58675e-21
6.9119e-05
-8.00179e-20
6.9119e-05
-1.26354e-20
6.9119e-05
-6.91467e-20
6.9119e-05
3.5777e-20
6.9119e-05
8.5278e-20
6.9119e-05
6.62206e-20
6.9119e-05
-1.1316e-19
6.9119e-05
-3.40288e-20
6.9119e-05
2.21578e-19
6.9119e-05
1.74181e-19
6.9119e-05
2.09945e-20
6.9119e-05
-3.1276e-19
6.9119e-05
6.09582e-20
6.9119e-05
2.71916e-19
6.9119e-05
8.09614e-20
6.9119e-05
-4.9639e-20
6.9119e-05
-2.84105e-19
6.9119e-05
-4.91247e-20
6.9119e-05
2.66634e-19
6.9119e-05
8.89867e-20
6.9119e-05
-2.11082e-19
6.9119e-05
-2.8517e-19
6.9119e-05
1.90511e-20
6.9119e-05
3.70944e-19
6.9119e-05
1.85589e-19
6.9119e-05
-1.60353e-19
6.9119e-05
-3.03184e-19
6.9119e-05
8.89325e-20
6.9119e-05
3.07449e-19
6.9119e-05
2.96484e-20
6.9119e-05
-1.05435e-19
6.9119e-05
-1.73624e-19
6.9119e-05
5.26325e-20
6.9119e-05
1.82942e-19
6.9119e-05
-6.44872e-20
6.9119e-05
-1.18654e-19
6.9119e-05
-2.16118e-19
6.9119e-05
-6.98128e-20
6.9119e-05
2.1228e-19
6.9119e-05
-5.5133e-22
6.9119e-05
-1.29913e-19
6.9119e-05
-1.9081e-19
6.9119e-05
4.42414e-20
6.9119e-05
1.30248e-19
6.9119e-05
-3.92617e-20
6.9119e-05
-6.39497e-20
6.9119e-05
-1.63806e-19
6.9119e-05
4.81822e-20
6.9119e-05
3.62284e-21
6.9119e-05
-4.00662e-20
6.9119e-05
1.31484e-19
6.9119e-05
-1.34117e-19
6.9119e-05
-1.38139e-19
6.9119e-05
7.98118e-20
6.9119e-05
1.11772e-19
6.9119e-05
1.19622e-19
6.9119e-05
-8.21363e-20
6.9119e-05
-1.02977e-19
6.9119e-05
1.00138e-19
6.9119e-05
1.55373e-19
6.9119e-05
1.78644e-19
6.9119e-05
-1.75516e-19
6.9119e-05
-1.10478e-20
6.9119e-05
2.31291e-19
6.9119e-05
-1.14726e-19
6.9119e-05
9.39071e-20
6.9119e-05
7.19244e-20
6.9119e-05
1.76254e-20
6.9119e-05
1.874e-19
6.9119e-05
9.26121e-20
6.9119e-05
2.22902e-20
6.9119e-05
-1.51449e-19
6.9119e-05
5.21161e-20
6.9119e-05
1.34753e-19
6.9119e-05
-3.32782e-20
6.9119e-05
-1.17085e-19
6.9119e-05
-1.55805e-19
6.9119e-05
1.34815e-19
6.9119e-05
-3.45055e-20
6.9119e-05
5.09086e-20
6.9119e-05
1.12534e-19
6.9119e-05
-3.70889e-19
6.9119e-05
-3.26262e-20
6.9119e-05
1.63534e-19
6.9119e-05
7.40997e-21
6.9119e-05
1.7929e-19
6.9119e-05
-1.70753e-19
6.9119e-05
-4.24985e-20
6.9119e-05
1.96809e-19
6.9119e-05
-1.14116e-19
6.9119e-05
3.51493e-20
6.9119e-05
-3.92786e-20
6.9119e-05
-1.0155e-19
6.9119e-05
1.83072e-19
6.9119e-05
3.6476e-20
6.9119e-05
2.24987e-20
6.9119e-05
-1.22912e-19
6.9119e-05
-7.87337e-20
6.9119e-05
1.79324e-19
6.9119e-05
-9.40742e-20
6.9119e-05
-1.83712e-20
6.9119e-05
-1.14701e-19
6.9119e-05
3.61757e-20
6.9119e-05
2.1776e-19
6.9119e-05
-9.68637e-20
6.9119e-05
-1.71418e-19
6.9119e-05
-1.53364e-19
6.9119e-05
1.01954e-19
6.9119e-05
1.2163e-19
6.9119e-05
-3.18481e-20
6.9119e-05
-8.67344e-20
6.9119e-05
-1.66602e-19
6.9119e-05
4.39129e-19
6.9119e-05
2.88752e-20
6.9119e-05
-4.00564e-19
6.9119e-05
3.40093e-19
6.9119e-05
-2.64436e-20
6.9119e-05
-3.32301e-20
6.9119e-05
-9.70223e-20
6.9119e-05
-3.07078e-19
6.9119e-05
4.87347e-19
6.9119e-05
5.73769e-20
6.9119e-05
-1.47061e-19
6.9119e-05
-8.32495e-20
6.9119e-05
-3.1928e-19
6.9119e-05
4.86335e-19
6.9119e-05
3.08288e-20
6.9119e-05
-1.89828e-19
6.9119e-05
1.17866e-19
6.9119e-05
-1.48612e-19
6.9119e-05
4.08994e-19
6.9119e-05
-4.75013e-21
6.9119e-05
-8.48738e-20
6.9119e-05
9.6194e-20
6.9119e-05
-3.57653e-19
6.9119e-05
1.48935e-19
6.9119e-05
8.31106e-20
6.9119e-05
2.48688e-19
6.9119e-05
2.4959e-19
6.9119e-05
-3.79002e-19
6.9119e-05
1.71831e-19
6.9119e-05
-1.20934e-19
6.9119e-05
7.25811e-20
6.9119e-05
2.18302e-19
6.9119e-05
-6.11493e-19
6.9119e-05
5.86469e-20
6.9119e-05
1.51339e-19
6.9119e-05
2.03601e-19
6.9119e-05
6.07735e-20
6.9119e-05
-4.2516e-19
6.9119e-05
4.18566e-19
6.9119e-05
-6.32544e-20
6.9119e-05
-3.4934e-19
6.9119e-05
-1.63922e-19
6.9119e-05
-2.46278e-19
6.9119e-05
5.96189e-19
6.9119e-05
-2.38495e-20
6.9119e-05
-1.12329e-19
6.9119e-05
1.53144e-19
6.9119e-05
-3.86484e-19
6.9119e-05
2.02007e-19
6.9119e-05
4.28841e-20
6.9119e-05
-1.36827e-20
6.9119e-05
4.6165e-20
6.9119e-05
-2.19915e-19
6.9119e-05
4.05793e-19
6.9119e-05
7.7795e-21
6.9119e-05
-5.54089e-20
6.9119e-05
-1.18592e-20
6.9119e-05
-3.44093e-19
6.9119e-05
2.89447e-19
6.9119e-05
3.9565e-20
6.9119e-05
1.56471e-20
6.9119e-05
-4.45436e-20
6.9119e-05
-3.80657e-19
6.9119e-05
2.5078e-19
6.9119e-05
7.21118e-21
6.9119e-05
-4.39275e-20
6.9119e-05
1.39608e-19
6.9119e-05
-3.66003e-19
6.9119e-05
1.74948e-19
6.9119e-05
5.75034e-20
6.9119e-05
-1.31368e-20
6.9119e-05
8.26688e-20
6.9119e-05
-3.42224e-19
6.9119e-05
2.18707e-19
6.9119e-05
2.36355e-19
6.9119e-05
-6.97565e-20
6.9119e-05
-2.03037e-19
6.9119e-05
-2.47906e-19
6.9119e-05
2.99313e-19
6.9119e-05
1.4939e-20
6.9119e-05
-1.74176e-19
6.9119e-05
-3.49835e-20
6.9119e-05
-1.09708e-19
6.9119e-05
2.73202e-19
6.9119e-05
1.30124e-19
6.9119e-05
-1.58739e-19
6.9119e-05
-1.43752e-19
6.9119e-05
-1.29505e-19
6.9119e-05
3.20601e-19
6.9119e-05
2.31159e-19
6.9119e-05
8.02544e-20
6.9119e-05
-2.65929e-19
6.9119e-05
-2.51583e-19
6.9119e-05
2.22641e-19
6.9119e-05
3.33833e-20
6.9119e-05
4.62125e-20
6.9119e-05
-2.45222e-19
6.9119e-05
-1.58607e-20
6.9119e-05
1.42344e-19
6.9119e-05
-2.28218e-19
6.9119e-05
1.18962e-19
6.9119e-05
-5.2023e-20
6.9119e-05
-2.38328e-19
6.9119e-05
-9.14199e-21
6.9119e-05
-2.03982e-19
6.9119e-05
9.66198e-20
6.9119e-05
-2.12584e-19
-5.72125e-19
0.000113636
-2.74739e-19
0.000113636
-3.76863e-19
0.000113636
-2.45304e-19
0.000113636
-1.42028e-19
0.000113636
-1.23366e-19
0.000113636
-7.37613e-20
0.000113636
-2.25165e-20
0.000113636
1.59369e-20
0.000113636
5.6845e-20
0.000113636
1.72828e-21
0.000113636
4.86037e-21
0.000113636
6.87839e-20
0.000113636
1.45696e-19
0.000113636
5.80183e-20
0.000113636
-1.37317e-20
0.000113636
1.04725e-19
0.000113636
1.06573e-19
0.000113636
6.06055e-20
0.000113636
6.45915e-20
0.000113636
4.85871e-20
0.000113636
7.63391e-20
0.000113636
-6.14961e-21
0.000113636
-7.79844e-20
0.000113636
-6.87318e-20
0.000113636
-1.11013e-19
0.000113636
-3.22656e-20
0.000113636
-9.37538e-21
0.000113636
-1.26567e-19
0.000113636
-2.37663e-19
0.000113636
-1.88522e-19
0.000113636
1.84179e-21
0.000113636
1.09375e-19
0.000113636
3.01116e-20
0.000113636
-4.59967e-20
0.000113636
-4.87832e-20
0.000113636
8.78744e-21
0.000113636
8.20546e-20
0.000113636
-3.22021e-20
0.000113636
-9.76286e-20
0.000113636
2.01983e-20
0.000113636
-3.11756e-21
0.000113636
2.66456e-20
0.000113636
5.93106e-20
0.000113636
-8.2132e-20
0.000113636
-1.39969e-20
0.000113636
5.82556e-21
0.000113636
-3.56696e-20
0.000113636
-9.7477e-20
0.000113636
-1.50595e-19
0.000113636
-1.21158e-19
0.000113636
-1.6181e-19
0.000113636
-7.48537e-20
0.000113636
-9.02362e-20
0.000113636
-8.6111e-20
0.000113636
1.13429e-20
0.000113636
-1.19893e-19
0.000113636
-4.47934e-20
0.000113636
-5.01991e-21
0.000113636
3.21711e-21
0.000113636
6.21003e-20
0.000113636
-1.63355e-19
0.000113636
8.74659e-20
0.000113636
9.49424e-21
0.000113636
5.6034e-20
0.000113636
2.34677e-19
0.000113636
-1.01245e-20
0.000113636
1.91504e-19
0.000113636
1.10484e-19
0.000113636
1.09086e-19
0.000113636
1.461e-19
0.000113636
-6.2831e-20
0.000113636
-1.0093e-20
0.000113636
-6.83604e-20
0.000113636
1.39438e-20
0.000113636
7.58027e-20
0.000113636
-2.26612e-19
0.000113636
-1.73193e-19
0.000113636
-3.84759e-20
0.000113636
-1.25716e-19
0.000113636
6.01564e-21
0.000113636
-1.2114e-19
0.000113636
-2.30324e-19
0.000113636
5.3353e-20
0.000113636
2.00349e-19
0.000113636
1.67817e-19
0.000113636
-3.99368e-21
0.000113636
-2.19838e-20
0.000113636
1.908e-20
0.000113636
1.06514e-19
0.000113636
2.56335e-19
0.000113636
-5.60553e-20
0.000113636
-8.73546e-20
0.000113636
5.77556e-20
0.000113636
1.125e-19
0.000113636
6.16362e-20
0.000113636
-8.65536e-20
0.000113636
4.93532e-20
0.000113636
-2.47406e-22
0.000113636
1.50148e-20
0.000113636
-1.7108e-20
0.000113636
-8.2767e-20
0.000113636
-4.04841e-20
0.000113636
-1.25169e-19
0.000113636
3.0234e-20
0.000113636
1.68117e-19
0.000113636
1.37201e-19
0.000113636
-1.40262e-19
0.000113636
-6.89046e-20
0.000113636
3.62971e-19
0.000113636
3.36112e-19
0.000113636
1.99547e-20
0.000113636
-4.37213e-19
0.000113636
7.3079e-20
0.000113636
4.12001e-19
0.000113636
2.11506e-19
0.000113636
-7.11511e-20
0.000113636
-4.30005e-19
0.000113636
-1.33665e-19
0.000113636
4.10837e-19
0.000113636
1.50204e-19
0.000113636
-3.80554e-19
0.000113636
-4.96524e-19
0.000113636
-1.12562e-20
0.000113636
5.77806e-19
0.000113636
3.85022e-19
0.000113636
-2.29973e-19
0.000113636
-4.81976e-19
0.000113636
1.38498e-19
0.000113636
5.04073e-19
0.000113636
7.41204e-20
0.000113636
-1.7153e-19
0.000113636
-2.39067e-19
0.000113636
4.31837e-20
0.000113636
2.38895e-19
0.000113636
-6.08203e-20
0.000113636
-2.22707e-19
0.000113636
-3.5471e-19
0.000113636
-9.36187e-20
0.000113636
2.85666e-19
0.000113636
4.56699e-21
0.000113636
-2.30145e-19
0.000113636
-3.39387e-19
0.000113636
4.45127e-20
0.000113636
1.81757e-19
0.000113636
-4.90447e-20
0.000113636
-1.27129e-19
0.000113636
-2.70718e-19
0.000113636
7.40439e-20
0.000113636
1.6317e-20
0.000113636
-8.30466e-20
0.000113636
1.54263e-19
0.000113636
-1.80884e-19
0.000113636
-2.07319e-19
0.000113636
9.24786e-20
0.000113636
1.70889e-19
0.000113636
1.8008e-19
0.000113636
-1.15103e-19
0.000113636
-1.46048e-19
0.000113636
1.84482e-19
0.000113636
2.99675e-19
0.000113636
2.62046e-19
0.000113636
-2.26245e-19
0.000113636
3.49944e-20
0.000113636
3.49558e-19
0.000113636
-9.9001e-20
0.000113636
1.33246e-19
0.000113636
1.44033e-19
0.000113636
1.44214e-19
0.000113636
2.76263e-19
0.000113636
1.30989e-19
0.000113636
1.63277e-20
0.000113636
-2.09958e-19
0.000113636
1.10023e-19
0.000113636
2.49521e-19
0.000113636
-6.86055e-20
0.000113636
-2.24192e-19
0.000113636
-2.34024e-19
0.000113636
8.18359e-20
0.000113636
-1.37949e-20
0.000113636
1.75038e-19
0.000113636
1.05429e-19
0.000113636
-5.66908e-19
0.000113636
-9.37298e-20
0.000113636
2.63131e-19
0.000113636
6.72015e-20
0.000113636
1.8714e-19
0.000113636
-2.28096e-19
0.000113636
-1.97018e-20
0.000113636
2.51257e-19
0.000113636
-1.1513e-19
0.000113636
-3.01263e-20
0.000113636
-5.3547e-20
0.000113636
-9.81263e-20
0.000113636
2.05222e-19
0.000113636
1.64088e-19
0.000113636
5.58167e-20
0.000113636
-1.85534e-19
0.000113636
-1.24717e-19
0.000113636
1.54304e-19
0.000113636
-5.23388e-20
0.000113636
-6.62986e-20
0.000113636
-1.53436e-19
0.000113636
9.58766e-20
0.000113636
2.22729e-19
0.000113636
-1.28916e-19
0.000113636
-2.21459e-19
0.000113636
-2.42806e-19
0.000113636
9.42364e-20
0.000113636
1.18879e-19
0.000113636
-8.24148e-21
0.000113636
-4.04533e-20
0.000113636
-2.30872e-19
0.000113636
5.52177e-19
0.000113636
7.59875e-20
0.000113636
-4.64594e-19
0.000113636
3.94647e-19
0.000113636
-6.6099e-20
0.000113636
2.21391e-20
0.000113636
-1.68418e-19
0.000113636
-4.31387e-19
0.000113636
6.70782e-19
0.000113636
5.7518e-20
0.000113636
-1.46487e-19
0.000113636
-1.16097e-19
0.000113636
-4.67417e-19
0.000113636
6.61367e-19
0.000113636
1.05609e-19
0.000113636
-2.06195e-19
0.000113636
1.54499e-19
0.000113636
-1.78502e-19
0.000113636
6.15665e-19
0.000113636
6.13022e-20
0.000113636
-1.2885e-19
0.000113636
9.4665e-20
0.000113636
-4.58905e-19
0.000113636
1.44558e-19
0.000113636
1.06594e-19
0.000113636
5.02049e-19
0.000113636
4.22146e-19
0.000113636
-5.34568e-19
0.000113636
2.00392e-19
0.000113636
-1.53316e-19
0.000113636
1.30281e-19
0.000113636
2.59472e-19
0.000113636
-9.0866e-19
0.000113636
8.09426e-20
0.000113636
1.67164e-19
0.000113636
2.90561e-19
0.000113636
9.65623e-20
0.000113636
-5.45778e-19
0.000113636
5.93143e-19
0.000113636
-1.21684e-19
0.000113636
-5.9108e-19
0.000113636
-3.45895e-19
0.000113636
-2.89364e-19
0.000113636
9.00563e-19
0.000113636
-1.9907e-20
0.000113636
-1.45705e-19
0.000113636
1.89745e-19
0.000113636
-5.52245e-19
0.000113636
2.32776e-19
0.000113636
5.76493e-20
0.000113636
7.60249e-20
0.000113636
3.41852e-20
0.000113636
-2.99093e-19
0.000113636
6.27943e-19
0.000113636
-1.252e-20
0.000113636
-6.19768e-20
0.000113636
-2.69321e-20
0.000113636
-5.11211e-19
0.000113636
4.57765e-19
0.000113636
6.49486e-20
0.000113636
-1.89268e-20
0.000113636
-1.00834e-19
0.000113636
-5.97386e-19
0.000113636
3.84227e-19
0.000113636
-1.62831e-20
0.000113636
-9.98439e-21
0.000113636
1.68775e-19
0.000113636
-5.86283e-19
0.000113636
2.57205e-19
0.000113636
2.40152e-20
0.000113636
1.75991e-20
0.000113636
1.42575e-19
0.000113636
-5.46518e-19
0.000113636
3.94513e-19
0.000113636
3.61653e-19
0.000113636
-1.65434e-19
0.000113636
-3.1161e-19
0.000113636
-3.74421e-19
0.000113636
4.22147e-19
0.000113636
3.26802e-20
0.000113636
-2.48597e-19
0.000113636
-1.22693e-20
0.000113636
-2.10284e-19
0.000113636
3.98514e-19
0.000113636
2.71152e-19
0.000113636
-2.55421e-19
0.000113636
-1.94021e-19
0.000113636
-1.87782e-19
0.000113636
5.05552e-19
0.000113636
4.6389e-19
0.000113636
5.75005e-20
0.000113636
-4.15225e-19
0.000113636
-3.60937e-19
0.000113636
3.66762e-19
0.000113636
4.05843e-20
0.000113636
-1.96751e-20
0.000113636
-3.22465e-19
0.000113636
-7.70147e-20
0.000113636
2.71344e-19
0.000113636
-3.42181e-19
0.000113636
2.54448e-20
0.000113636
-1.46502e-20
0.000113636
-3.43967e-19
0.000113636
-9.70505e-20
0.000113636
-3.01505e-19
0.000113636
1.47398e-19
0.000113636
-2.37972e-19
-7.13738e-19
0.000156982
-2.05735e-19
0.000156982
-3.51416e-19
0.000156982
-2.90169e-19
0.000156982
-1.81272e-19
0.000156982
-1.57464e-19
0.000156982
-6.4977e-20
0.000156982
-3.39125e-20
0.000156982
6.05478e-20
0.000156982
8.99014e-20
0.000156982
-1.24649e-21
0.000156982
-2.01622e-21
0.000156982
9.36276e-20
0.000156982
1.92712e-19
0.000156982
1.29618e-19
0.000156982
2.34387e-20
0.000156982
1.25255e-19
0.000156982
1.8277e-19
0.000156982
1.4324e-19
0.000156982
1.1497e-19
0.000156982
4.85969e-20
0.000156982
8.59273e-20
0.000156982
-6.37375e-21
0.000156982
-1.12057e-19
0.000156982
-1.29616e-19
0.000156982
-1.21594e-19
0.000156982
-9.37903e-20
0.000156982
-4.29737e-20
0.000156982
-2.13757e-19
0.000156982
-3.46692e-19
0.000156982
-2.59173e-19
0.000156982
-3.03273e-20
0.000156982
1.50521e-19
0.000156982
1.14757e-20
0.000156982
-6.61791e-20
0.000156982
-3.89459e-20
0.000156982
-1.95408e-20
0.000156982
5.01188e-20
0.000156982
-4.05272e-20
0.000156982
-8.1252e-20
0.000156982
-4.89889e-21
0.000156982
-5.71655e-21
0.000156982
7.14235e-20
0.000156982
6.19466e-21
0.000156982
-1.27607e-19
0.000156982
-1.82246e-20
0.000156982
4.52176e-21
0.000156982
-3.27488e-20
0.000156982
-1.46161e-19
0.000156982
-2.06371e-19
0.000156982
-2.56567e-19
0.000156982
-2.74677e-19
0.000156982
-1.81224e-19
0.000156982
-1.30196e-19
0.000156982
-1.30786e-19
0.000156982
-3.55153e-20
0.000156982
-1.7574e-19
0.000156982
-8.89219e-20
0.000156982
-4.12619e-20
0.000156982
-5.43174e-21
0.000156982
6.1872e-20
0.000156982
-1.80661e-19
0.000156982
1.16686e-19
0.000156982
3.91216e-20
0.000156982
1.06142e-19
0.000156982
3.10734e-19
0.000156982
6.26244e-20
0.000156982
2.36053e-19
0.000156982
1.42391e-19
0.000156982
2.00287e-19
0.000156982
2.19203e-19
0.000156982
-7.33439e-20
0.000156982
-4.34277e-20
0.000156982
-8.13602e-20
0.000156982
1.80074e-20
0.000156982
6.43206e-20
0.000156982
-2.81875e-19
0.000156982
-2.43229e-19
0.000156982
-8.43073e-20
0.000156982
-2.16564e-19
0.000156982
-2.1958e-20
0.000156982
-1.79203e-19
0.000156982
-2.90315e-19
0.000156982
9.03065e-20
0.000156982
3.06408e-19
0.000156982
2.41608e-19
0.000156982
-1.57653e-20
0.000156982
1.83467e-20
0.000156982
7.37501e-20
0.000156982
1.08016e-19
0.000156982
3.64034e-19
0.000156982
-2.08762e-21
0.000156982
-1.23263e-19
0.000156982
9.54782e-20
0.000156982
1.53941e-19
0.000156982
7.35626e-20
0.000156982
-8.14448e-20
0.000156982
6.82968e-20
0.000156982
2.09228e-20
0.000156982
-2.22504e-20
0.000156982
-2.21257e-20
0.000156982
-1.16703e-19
0.000156982
-1.28443e-19
0.000156982
-1.55429e-19
0.000156982
5.71219e-20
0.000156982
2.37849e-19
0.000156982
1.92146e-19
0.000156982
-1.58004e-19
0.000156982
-8.83991e-20
0.000156982
5.16747e-19
0.000156982
5.10501e-19
0.000156982
5.68528e-20
0.000156982
-4.83251e-19
0.000156982
4.50908e-20
0.000156982
5.23308e-19
0.000156982
3.36073e-19
0.000156982
-9.09183e-20
0.000156982
-5.25517e-19
0.000156982
-1.94082e-19
0.000156982
5.13206e-19
0.000156982
1.7845e-19
0.000156982
-5.3405e-19
0.000156982
-6.91392e-19
0.000156982
-6.3458e-20
0.000156982
7.37256e-19
0.000156982
5.36889e-19
0.000156982
-2.53821e-19
0.000156982
-5.55829e-19
0.000156982
1.97336e-19
0.000156982
6.44096e-19
0.000156982
9.45311e-20
0.000156982
-2.38421e-19
0.000156982
-3.3406e-19
0.000156982
1.42399e-20
0.000156982
3.27756e-19
0.000156982
-5.1337e-20
0.000156982
-3.06708e-19
0.000156982
-5.16069e-19
0.000156982
-1.64791e-19
0.000156982
3.54369e-19
0.000156982
2.03877e-20
0.000156982
-3.60431e-19
0.000156982
-4.74723e-19
0.000156982
2.74627e-20
0.000156982
1.65976e-19
0.000156982
-9.43327e-20
0.000156982
-1.8109e-19
0.000156982
-3.44539e-19
0.000156982
4.20787e-20
0.000156982
4.6128e-20
0.000156982
-1.24282e-19
0.000156982
1.74822e-19
0.000156982
-1.71777e-19
0.000156982
-2.21618e-19
0.000156982
7.56608e-20
0.000156982
2.14235e-19
0.000156982
2.22146e-19
0.000156982
-1.09361e-19
0.000156982
-1.48426e-19
0.000156982
2.48691e-19
0.000156982
3.85684e-19
0.000156982
3.22274e-19
0.000156982
-1.71786e-19
0.000156982
8.8303e-20
0.000156982
4.46398e-19
0.000156982
-6.61425e-20
0.000156982
2.31325e-19
0.000156982
2.87969e-19
0.000156982
2.86679e-19
0.000156982
3.62993e-19
0.000156982
1.68753e-19
0.000156982
2.95392e-20
0.000156982
-3.06242e-19
0.000156982
1.88713e-19
0.000156982
4.19815e-19
0.000156982
-1.68013e-19
0.000156982
-3.2297e-19
0.000156982
-3.28922e-19
0.000156982
1.28255e-20
0.000156982
-2.87223e-20
0.000156982
3.05519e-19
0.000156982
7.64393e-20
0.000156982
-7.30646e-19
0.000156982
-1.2874e-19
0.000156982
3.36725e-19
0.000156982
1.74681e-19
0.000156982
1.67233e-19
0.000156982
-2.91447e-19
0.000156982
2.66197e-20
0.000156982
2.95137e-19
0.000156982
-1.32411e-19
0.000156982
-1.06178e-19
0.000156982
-6.45218e-20
0.000156982
-4.44235e-20
0.000156982
2.64209e-19
0.000156982
2.26951e-19
0.000156982
8.92523e-20
0.000156982
-2.18155e-19
0.000156982
-1.81901e-19
0.000156982
1.57727e-19
0.000156982
-8.03801e-20
0.000156982
-7.5132e-20
0.000156982
-1.41197e-19
0.000156982
9.63022e-20
0.000156982
1.99951e-19
0.000156982
-1.44246e-19
0.000156982
-3.05389e-19
0.000156982
-3.25149e-19
0.000156982
4.93283e-20
0.000156982
1.5162e-19
0.000156982
5.3937e-20
0.000156982
-1.48106e-20
0.000156982
-2.58808e-19
0.000156982
6.00479e-19
0.000156982
8.47785e-20
0.000156982
-4.93047e-19
0.000156982
4.92369e-19
0.000156982
-1.08376e-19
0.000156982
-8.5388e-22
0.000156982
-1.96366e-19
0.000156982
-4.91839e-19
0.000156982
7.74786e-19
0.000156982
7.98963e-20
0.000156982
-9.21918e-20
0.000156982
-9.26419e-20
0.000156982
-5.97672e-19
0.000156982
7.70693e-19
0.000156982
1.64816e-19
0.000156982
-1.65142e-19
0.000156982
1.78835e-19
0.000156982
-1.5589e-19
0.000156982
7.79511e-19
0.000156982
1.36143e-19
0.000156982
-2.09449e-19
0.000156982
7.26555e-20
0.000156982
-4.71533e-19
0.000156982
1.77581e-19
0.000156982
1.25546e-19
0.000156982
6.4451e-19
0.000156982
6.2098e-19
0.000156982
-5.67631e-19
0.000156982
1.81631e-19
0.000156982
-1.9928e-19
0.000156982
2.16992e-19
0.000156982
2.61886e-19
0.000156982
-1.07942e-18
0.000156982
1.26283e-20