/*--------------------------------*- C++ -*----------------------------------*\
| =========                 |                                                 |
| \\      /  F ield         | OpenFOAM: The Open Source CFD Toolbox           |
|  \\    /   O peration     | Version:  2112                                  |
|   \\  /    A nd           | Website:  www.openfoam.com                      |
|    \\/     M anipulation  |                                                 |
\*---------------------------------------------------------------------------*/
FoamFile
{
    version     2.0;
    format      ascii;
    arch        "LSB;label=32;scalar=64";
    class       surfaceScalarField;
    location    "8";
    object      phi;
}
// * * * * * * * * * * * * * * * * * * * * * * * * * * * * * * * * * * * * * //

dimensions      [0 3 -1 0 0 0 0];

oriented        oriented;

internalField   nonuniform List<scalar> 
50800
(
2.34302e-05
-6.39443e-18
2.34302e-05
-1.17455e-18
2.34302e-05
-2.91386e-19
2.34302e-05
-1.31076e-19
2.34302e-05
-5.50221e-20
2.34302e-05
-3.86224e-20
2.34302e-05
-2.88475e-20
2.34302e-05
-1.95506e-20
2.34302e-05
-2.24399e-20
2.34302e-05
-1.94402e-20
2.34302e-05
-1.62372e-20
2.34302e-05
-2.56853e-20
2.34302e-05
-7.45088e-21
2.34302e-05
-8.2867e-22
2.34302e-05
-4.65873e-21
2.34302e-05
1.67152e-20
2.34302e-05
4.28711e-21
2.34302e-05
-3.13161e-21
2.34302e-05
-7.45367e-21
2.34302e-05
-4.20949e-21
2.34302e-05
3.35798e-21
2.34302e-05
1.49436e-21
2.34302e-05
-3.79281e-22
2.34302e-05
-2.96992e-21
2.34302e-05
-8.28738e-21
2.34302e-05
-1.02804e-20
2.34302e-05
2.2358e-20
2.34302e-05
1.2856e-20
2.34302e-05
-1.12454e-20
2.34302e-05
-1.38153e-21
2.34302e-05
1.3263e-20
2.34302e-05
2.76326e-20
2.34302e-05
-1.33451e-21
2.34302e-05
-2.30506e-20
2.34302e-05
-9.08471e-21
2.34302e-05
-1.05001e-20
2.34302e-05
1.92464e-20
2.34302e-05
-1.08684e-20
2.34302e-05
-3.30434e-20
2.34302e-05
1.51926e-20
2.34302e-05
2.47152e-21
2.34302e-05
1.08472e-20
2.34302e-05
-1.68919e-22
2.34302e-05
-3.17451e-20
2.34302e-05
8.11661e-21
2.34302e-05
5.99477e-22
2.34302e-05
1.47016e-20
2.34302e-05
1.78197e-20
2.34302e-05
2.70773e-21
2.34302e-05
9.02746e-21
2.34302e-05
-3.3449e-20
2.34302e-05
1.35954e-20
2.34302e-05
6.40584e-22
2.34302e-05
-4.70351e-22
2.34302e-05
3.68416e-20
2.34302e-05
-2.67543e-20
2.34302e-05
-4.8426e-21
2.34302e-05
-2.65371e-21
2.34302e-05
-6.34211e-22
2.34302e-05
3.25619e-20
2.34302e-05
-5.52404e-20
2.34302e-05
3.43317e-20
2.34302e-05
-1.82894e-21
2.34302e-05
-9.69157e-21
2.34302e-05
3.77294e-20
2.34302e-05
-4.57813e-20
2.34302e-05
2.41265e-21
2.34302e-05
-2.90959e-22
2.34302e-05
1.5656e-20
2.34302e-05
2.55679e-20
2.34302e-05
-1.54217e-20
2.34302e-05
-8.73369e-21
2.34302e-05
-2.00077e-20
2.34302e-05
-8.38194e-21
2.34302e-05
5.5212e-20
2.34302e-05
-3.83185e-20
2.34302e-05
-5.74866e-20
2.34302e-05
3.2797e-20
2.34302e-05
-5.42747e-21
2.34302e-05
3.9945e-20
2.34302e-05
-6.72874e-21
2.34302e-05
-7.18462e-20
2.34302e-05
9.61161e-22
2.34302e-05
8.21567e-21
2.34302e-05
2.39271e-20
2.34302e-05
-7.07604e-21
2.34302e-05
-2.90062e-20
2.34302e-05
-2.81196e-20
2.34302e-05
8.23017e-21
2.34302e-05
6.56647e-20
2.34302e-05
-1.10631e-20
2.34302e-05
-5.92136e-20
2.34302e-05
7.91723e-21
2.34302e-05
5.07841e-20
2.34302e-05
6.63409e-21
2.34302e-05
-6.9028e-20
2.34302e-05
-5.02152e-21
2.34302e-05
-1.67337e-20
2.34302e-05
3.26088e-20
2.34302e-05
4.01906e-20
2.34302e-05
-6.35315e-20
2.34302e-05
1.81882e-20
2.34302e-05
-3.94471e-20
2.34302e-05
1.4561e-20
2.34302e-05
3.57924e-20
2.34302e-05
6.37944e-21
2.34302e-05
-5.54838e-20
2.34302e-05
-3.20377e-20
2.34302e-05
5.19231e-20
2.34302e-05
3.66334e-20
2.34302e-05
5.333e-20
2.34302e-05
-1.39821e-19
2.34302e-05
1.61808e-20
2.34302e-05
1.02611e-19
2.34302e-05
2.1489e-20
2.34302e-05
-9.33552e-22
2.34302e-05
-1.03041e-19
2.34302e-05
-2.8059e-20
2.34302e-05
1.01209e-19
2.34302e-05
5.31525e-20
2.34302e-05
-3.66078e-20
2.34302e-05
-1.09431e-19
2.34302e-05
-2.33251e-20
2.34302e-05
1.26501e-19
2.34302e-05
6.44384e-20
2.34302e-05
-4.17023e-20
2.34302e-05
-1.31485e-19
2.34302e-05
8.00369e-21
2.34302e-05
1.35048e-19
2.34302e-05
2.28081e-20
2.34302e-05
-2.72364e-20
2.34302e-05
-6.92893e-20
2.34302e-05
1.49982e-20
2.34302e-05
8.85494e-20
2.34302e-05
1.39461e-20
2.34302e-05
-1.79156e-21
2.34302e-05
-6.55108e-20
2.34302e-05
-1.91696e-21
2.34302e-05
1.05102e-19
2.34302e-05
1.85077e-20
2.34302e-05
-4.30193e-20
2.34302e-05
-7.64898e-20
2.34302e-05
2.68336e-20
2.34302e-05
5.64407e-20
2.34302e-05
-1.88459e-20
2.34302e-05
-6.24951e-21
2.34302e-05
-5.52126e-20
2.34302e-05
1.56527e-20
2.34302e-05
4.53885e-21
2.34302e-05
-3.35023e-21
2.34302e-05
7.85561e-20
2.34302e-05
-8.67307e-20
2.34302e-05
-6.4525e-20
2.34302e-05
4.66262e-20
2.34302e-05
4.12967e-20
2.34302e-05
4.35954e-20
2.34302e-05
-6.16086e-20
2.34302e-05
-8.12337e-20
2.34302e-05
1.53073e-20
2.34302e-05
2.98363e-20
2.34302e-05
8.92256e-20
2.34302e-05
-9.74174e-20
2.34302e-05
-3.29663e-20
2.34302e-05
1.06217e-19
2.34302e-05
-8.67479e-20
2.34302e-05
4.14035e-20
2.34302e-05
-3.01576e-20
2.34302e-05
-7.45987e-20
2.34302e-05
6.82699e-20
2.34302e-05
5.9984e-21
2.34302e-05
2.09538e-20
2.34302e-05
-9.42752e-20
2.34302e-05
-1.36553e-21
2.34302e-05
6.33465e-20
2.34302e-05
-9.80268e-21
2.34302e-05
-1.51556e-21
2.34302e-05
-7.2954e-20
2.34302e-05
8.9153e-20
2.34302e-05
-3.63374e-20
2.34302e-05
-2.01892e-20
2.34302e-05
1.0809e-19
2.34302e-05
-1.43257e-19
2.34302e-05
2.51927e-21
2.34302e-05
7.33395e-20
2.34302e-05
-2.13545e-20
2.34302e-05
1.12535e-19
2.34302e-05
-8.65597e-20
2.34302e-05
-1.10946e-20
2.34302e-05
1.18602e-19
2.34302e-05
-8.42419e-20
2.34302e-05
3.70004e-20
2.34302e-05
-1.03011e-20
2.34302e-05
-7.37076e-20
2.34302e-05
9.95399e-20
2.34302e-05
-1.34883e-20
2.34302e-05
2.3318e-20
2.34302e-05
-6.15577e-20
2.34302e-05
-4.59218e-20
2.34302e-05
1.40006e-19
2.34302e-05
-6.86644e-20
2.34302e-05
1.22683e-20
2.34302e-05
-5.00374e-20
2.34302e-05
7.07487e-21
2.34302e-05
1.49606e-19
2.34302e-05
-4.13391e-20
2.34302e-05
-7.21781e-20
2.34302e-05
-6.65023e-20
2.34302e-05
6.03334e-20
2.34302e-05
7.28127e-20
2.34302e-05
-3.19973e-20
2.34302e-05
-5.75763e-20
2.34302e-05
-9.34231e-20
2.34302e-05
2.20818e-19
2.34302e-05
1.79139e-20
2.34302e-05
-2.20262e-19
2.34302e-05
1.66398e-19
2.34302e-05
-2.25866e-20
2.34302e-05
-6.03692e-20
2.34302e-05
-2.40819e-20
2.34302e-05
-1.44446e-19
2.34302e-05
2.14741e-19
2.34302e-05
4.84074e-20
2.34302e-05
-8.79907e-20
2.34302e-05
-3.01003e-20
2.34302e-05
-1.5765e-19
2.34302e-05
2.29439e-19
2.34302e-05
2.14776e-21
2.34302e-05
-7.60845e-20
2.34302e-05
5.55197e-20
2.34302e-05
-1.31772e-19
2.34302e-05
1.30771e-19
2.34302e-05
-4.63081e-20
2.34302e-05
-4.50885e-20
2.34302e-05
7.94312e-20
2.34302e-05
-1.80442e-19
2.34302e-05
6.03941e-20
2.34302e-05
-3.83427e-21
2.34302e-05
2.43933e-20
2.34302e-05
8.97096e-20
2.34302e-05
-1.87809e-19
2.34302e-05
1.00196e-19
2.34302e-05
-5.19679e-20
2.34302e-05
-3.19672e-21
2.34302e-05
1.25733e-19
2.34302e-05
-2.47696e-19
2.34302e-05
3.63966e-20
2.34302e-05
4.86669e-20
2.34302e-05
5.04785e-20
2.34302e-05
3.56109e-20
2.34302e-05
-1.80002e-19
2.34302e-05
1.96267e-19
2.34302e-05
5.45505e-21
2.34302e-05
-1.00472e-19
2.34302e-05
-1.46523e-20
2.34302e-05
-1.48699e-19
2.34302e-05
2.59654e-19
2.34302e-05
-5.70357e-21
2.34302e-05
-5.83013e-20
2.34302e-05
1.04133e-19
2.34302e-05
-1.88928e-19
2.34302e-05
9.57342e-20
2.34302e-05
1.47042e-20
2.34302e-05
-4.90068e-21
2.34302e-05
5.0058e-20
2.34302e-05
-1.22831e-19
2.34302e-05
1.51221e-19
2.34302e-05
9.03553e-21
2.34302e-05
-3.81337e-20
2.34302e-05
6.48443e-21
2.34302e-05
-1.50821e-19
2.34302e-05
9.9637e-20
2.34302e-05
-2.53625e-21
2.34302e-05
2.56732e-20
2.34302e-05
3.15942e-20
2.34302e-05
-1.40214e-19
2.34302e-05
9.99781e-20
2.34302e-05
2.9898e-20
2.34302e-05
-4.24106e-20
2.34302e-05
1.06855e-19
2.34302e-05
-1.38152e-19
2.34302e-05
3.46755e-20
2.34302e-05
3.25158e-20
2.34302e-05
-2.37812e-20
2.34302e-05
4.27691e-20
2.34302e-05
-1.49941e-19
2.34302e-05
2.9548e-20
2.34302e-05
9.50314e-20
2.34302e-05
-1.45811e-20
2.34302e-05
-9.4175e-20
2.34302e-05
-1.09879e-19
2.34302e-05
1.43466e-19
2.34302e-05
3.85282e-20
2.34302e-05
-4.41253e-20
2.34302e-05
-4.72844e-20
2.34302e-05
-4.83836e-20
2.34302e-05
1.32734e-19
2.34302e-05
5.86466e-21
2.34302e-05
-1.17145e-20
2.34302e-05
-9.05554e-20
2.34302e-05
-7.10873e-20
2.34302e-05
1.27867e-19
2.34302e-05
2.06254e-20
2.34302e-05
5.05303e-20
2.34302e-05
-1.26594e-19
2.34302e-05
-1.22497e-19
2.34302e-05
8.62081e-20
2.34302e-05
7.78761e-21
2.34302e-05
8.26467e-20
2.34302e-05
-1.09697e-19
2.34302e-05
-5.87375e-21
2.34302e-05
4.62416e-20
2.34302e-05
-1.23246e-19
2.34302e-05
1.02087e-19
2.34302e-05
-3.06711e-20
2.34302e-05
-9.57451e-20
2.34302e-05
3.12879e-20
2.34302e-05
-1.38973e-19
2.34302e-05
-1.79517e-20
2.34302e-05
-2.8239e-19
-1.26232e-18
6.91191e-05
-3.93659e-18
6.91191e-05
-1.50045e-18
6.91191e-05
-5.56055e-19
6.91191e-05
-2.49744e-19
6.91191e-05
-1.06114e-19
6.91191e-05
-5.73457e-20
6.91191e-05
-7.31393e-20
6.91191e-05
-6.58371e-20
6.91191e-05
-3.4348e-20
6.91191e-05
-5.68903e-20
6.91191e-05
-6.24246e-20
6.91191e-05
-4.89871e-20
6.91191e-05
-1.1968e-20
6.91191e-05
-1.16472e-20
6.91191e-05
-9.87935e-21
6.91191e-05
6.38466e-20
6.91191e-05
2.39195e-20
6.91191e-05
4.19054e-22
6.91191e-05
-2.4188e-20
6.91191e-05
-5.82392e-21
6.91191e-05
3.12779e-20
6.91191e-05
-7.44648e-21
6.91191e-05
1.44665e-20
6.91191e-05
-9.90577e-22
6.91191e-05
-2.66412e-20
6.91191e-05
-1.88316e-20
6.91191e-05
4.67892e-20
6.91191e-05
3.82244e-20
6.91191e-05
-1.07503e-20
6.91191e-05
-9.90764e-21
6.91191e-05
2.37761e-20
6.91191e-05
7.65376e-20
6.91191e-05
6.70194e-21
6.91191e-05
-6.15421e-20
6.91191e-05
-3.27727e-20
6.91191e-05
-3.03592e-20
6.91191e-05
4.39374e-20
6.91191e-05
-2.3813e-20
6.91191e-05
-7.98132e-20
6.91191e-05
3.70258e-20
6.91191e-05
-6.15642e-21
6.91191e-05
4.4532e-21
6.91191e-05
1.2755e-20
6.91191e-05
-5.87928e-20
6.91191e-05
-3.98126e-21
6.91191e-05
9.64691e-21
6.91191e-05
4.51249e-20
6.91191e-05
3.64584e-20
6.91191e-05
1.36063e-20
6.91191e-05
1.40564e-21
6.91191e-05
-4.27829e-20
6.91191e-05
1.95269e-20
6.91191e-05
7.62155e-21
6.91191e-05
2.92366e-20
6.91191e-05
9.34067e-20
6.91191e-05
-5.61927e-20
6.91191e-05
-1.54798e-20
6.91191e-05
-5.94112e-21
6.91191e-05
6.36735e-21
6.91191e-05
5.91308e-20
6.91191e-05
-1.36421e-19
6.91191e-05
7.01942e-20
6.91191e-05
1.46013e-20
6.91191e-05
-3.7362e-20
6.91191e-05
8.2687e-20
6.91191e-05
-8.37826e-20
6.91191e-05
3.07114e-21
6.91191e-05
-1.56143e-20
6.91191e-05
3.11449e-20
6.91191e-05
9.2921e-20
6.91191e-05
-4.72242e-20
6.91191e-05
-3.49481e-20
6.91191e-05
-7.50151e-20
6.91191e-05
1.10417e-21
6.91191e-05
1.28321e-19
6.91191e-05
-1.02799e-19
6.91191e-05
-1.05158e-19
6.91191e-05
3.38886e-20
6.91191e-05
-3.07601e-20
6.91191e-05
7.67105e-20
6.91191e-05
-2.06929e-20
6.91191e-05
-1.71221e-19
6.91191e-05
-1.71969e-20
6.91191e-05
2.09107e-20
6.91191e-05
3.7603e-20
6.91191e-05
-2.66143e-20
6.91191e-05
-4.813e-20
6.91191e-05
-6.42665e-20
6.91191e-05
-4.0961e-21
6.91191e-05
1.67988e-19
6.91191e-05
-4.03478e-20
6.91191e-05
-1.17022e-19
6.91191e-05
2.1905e-21
6.91191e-05
9.19738e-20
6.91191e-05
1.87509e-20
6.91191e-05
-1.43928e-19
6.91191e-05
-5.32773e-20
6.91191e-05
-4.63102e-20
6.91191e-05
5.70923e-20
6.91191e-05
7.32183e-20
6.91191e-05
-8.11859e-20
6.91191e-05
2.71057e-20
6.91191e-05
-7.97804e-20
6.91191e-05
2.77664e-21
6.91191e-05
8.49888e-20
6.91191e-05
6.75912e-20
6.91191e-05
-1.46851e-19
6.91191e-05
-1.16414e-19
6.91191e-05
1.34511e-19
6.91191e-05
1.45887e-19
6.91191e-05
8.53966e-20
6.91191e-05
-2.83229e-19
6.91191e-05
2.82488e-21
6.91191e-05
2.34326e-19
6.91191e-05
1.14061e-19
6.91191e-05
1.26051e-21
6.91191e-05
-2.6351e-19
6.91191e-05
-9.73733e-20
6.91191e-05
2.6762e-19
6.91191e-05
1.62283e-19
6.91191e-05
-1.31718e-19
6.91191e-05
-2.62033e-19
6.91191e-05
-5.9686e-20
6.91191e-05
2.77089e-19
6.91191e-05
2.20618e-19
6.91191e-05
-1.01251e-19
6.91191e-05
-3.31516e-19
6.91191e-05
3.03022e-20
6.91191e-05
3.24497e-19
6.91191e-05
7.61031e-20
6.91191e-05
-5.43918e-20
6.91191e-05
-1.55816e-19
6.91191e-05
1.30049e-20
6.91191e-05
2.25402e-19
6.91191e-05
5.43914e-20
6.91191e-05
3.8161e-21
6.91191e-05
-1.66118e-19
6.91191e-05
-3.96876e-21
6.91191e-05
2.70449e-19
6.91191e-05
5.60261e-20
6.91191e-05
-1.23047e-19
6.91191e-05
-1.78706e-19
6.91191e-05
3.77026e-20
6.91191e-05
1.18311e-19
6.91191e-05
-4.14433e-20
6.91191e-05
-3.15638e-20
6.91191e-05
-1.33161e-19
6.91191e-05
5.91577e-20
6.91191e-05
3.20253e-20
6.91191e-05
-1.36401e-20
6.91191e-05
1.44434e-19
6.91191e-05
-1.86272e-19
6.91191e-05
-1.57568e-19
6.91191e-05
8.97852e-20
6.91191e-05
1.12343e-19
6.91191e-05
9.73084e-20
6.91191e-05
-1.52897e-19
6.91191e-05
-2.12516e-19
6.91191e-05
1.58739e-21
6.91191e-05
1.10569e-19
6.91191e-05
1.76452e-19
6.91191e-05
-1.95319e-19
6.91191e-05
-6.19948e-20
6.91191e-05
1.80145e-19
6.91191e-05
-1.66418e-19
6.91191e-05
2.69297e-20
6.91191e-05
-5.82579e-20
6.91191e-05
-1.37176e-19
6.91191e-05
1.13522e-19
6.91191e-05
3.65951e-20
6.91191e-05
-1.6205e-20
6.91191e-05
-2.29007e-19
6.91191e-05
-2.13493e-20
6.91191e-05
1.59994e-19
6.91191e-05
5.76986e-20
6.91191e-05
-5.37691e-20
6.91191e-05
-1.39726e-19
6.91191e-05
1.13782e-19
6.91191e-05
-7.84645e-20
6.91191e-05
5.40721e-20
6.91191e-05
1.76226e-19
6.91191e-05
-3.14789e-19
6.91191e-05
-1.53599e-20
6.91191e-05
1.92318e-19
6.91191e-05
4.11426e-20
6.91191e-05
2.03956e-19
6.91191e-05
-1.57717e-19
6.91191e-05
-2.78514e-20
6.91191e-05
2.39702e-19
6.91191e-05
-8.96216e-20
6.91191e-05
1.90771e-20
6.91191e-05
-3.9221e-20
6.91191e-05
-1.46645e-19
6.91191e-05
1.54859e-19
6.91191e-05
4.54568e-20
6.91191e-05
4.71007e-20
6.91191e-05
-9.80785e-20
6.91191e-05
-9.55204e-20
6.91191e-05
1.79144e-19
6.91191e-05
-3.437e-20
6.91191e-05
2.96382e-20
6.91191e-05
-8.78447e-20
6.91191e-05
4.97616e-20
6.91191e-05
2.40909e-19
6.91191e-05
-5.22876e-20
6.91191e-05
-1.25076e-19
6.91191e-05
-1.57772e-19
6.91191e-05
8.75554e-20
6.91191e-05
1.10084e-19
6.91191e-05
-3.81827e-20
6.91191e-05
-6.99631e-20
6.91191e-05
-1.9792e-19
6.91191e-05
4.42207e-19
6.91191e-05
5.6209e-20
6.91191e-05
-4.27512e-19
6.91191e-05
2.78787e-19
6.91191e-05
-1.03608e-19
6.91191e-05
-7.38183e-20
6.91191e-05
-7.89501e-20
6.91191e-05
-3.44352e-19
6.91191e-05
4.58808e-19
6.91191e-05
1.03154e-19
6.91191e-05
-1.29186e-19
6.91191e-05
-9.25387e-20
6.91191e-05
-3.48847e-19
6.91191e-05
4.63803e-19
6.91191e-05
4.97523e-20
6.91191e-05
-1.60563e-19
6.91191e-05
5.22262e-20
6.91191e-05
-2.74963e-19
6.91191e-05
2.62103e-19
6.91191e-05
-8.65719e-20
6.91191e-05
-1.06274e-19
6.91191e-05
9.59214e-20
6.91191e-05
-3.74962e-19
6.91191e-05
6.06962e-20
6.91191e-05
-3.18345e-20
6.91191e-05
1.3412e-19
6.91191e-05
1.83451e-19
6.91191e-05
-4.28969e-19
6.91191e-05
1.59152e-19
6.91191e-05
-1.17406e-19
6.91191e-05
3.07165e-20
6.91191e-05
2.1196e-19
6.91191e-05
-5.76035e-19
6.91191e-05
8.92951e-20
6.91191e-05
1.01829e-19
6.91191e-05
1.29009e-19
6.91191e-05
7.36272e-20
6.91191e-05
-3.68306e-19
6.91191e-05
4.67198e-19
6.91191e-05
1.48522e-20
6.91191e-05
-2.66736e-19
6.91191e-05
-1.00597e-19
6.91191e-05
-2.77076e-19
6.91191e-05
6.20054e-19
6.91191e-05
4.67753e-20
6.91191e-05
-9.33795e-20
6.91191e-05
1.83911e-19
6.91191e-05
-4.15001e-19
6.91191e-05
1.89417e-19
6.91191e-05
4.66452e-20
6.91191e-05
4.3552e-20
6.91191e-05
8.39241e-20
6.91191e-05
-2.50281e-19
6.91191e-05
3.63571e-19
6.91191e-05
-4.97504e-21
6.91191e-05
-5.7359e-20
6.91191e-05
1.16172e-20
6.91191e-05
-3.70142e-19
6.91191e-05
1.97434e-19
6.91191e-05
6.3868e-21
6.91191e-05
9.36984e-20
6.91191e-05
7.6646e-20
6.91191e-05
-3.52665e-19
6.91191e-05
2.5693e-19
6.91191e-05
4.6939e-20
6.91191e-05
4.95904e-21
6.91191e-05
1.93597e-19
6.91191e-05
-3.68837e-19
6.91191e-05
1.11438e-19
6.91191e-05
1.2536e-20
6.91191e-05
-4.9216e-21
6.91191e-05
8.09171e-20
6.91191e-05
-4.13443e-19
6.91191e-05
1.0202e-19
6.91191e-05
1.89686e-19
6.91191e-05
-7.08004e-20
6.91191e-05
-1.97845e-19
6.91191e-05
-2.70459e-19
6.91191e-05
3.12101e-19
6.91191e-05
9.57722e-20
6.91191e-05
-1.27944e-19
6.91191e-05
-3.2929e-20
6.91191e-05
-1.32903e-19
6.91191e-05
2.41195e-19
6.91191e-05
1.31149e-19
6.91191e-05
-1.33392e-19
6.91191e-05
-1.59542e-19
6.91191e-05
-2.03556e-19
6.91191e-05
2.42398e-19
6.91191e-05
1.74782e-19
6.91191e-05
1.78555e-20
6.91191e-05
-3.27373e-19
6.91191e-05
-2.89255e-19
6.91191e-05
2.1504e-19
6.91191e-05
5.18158e-20
6.91191e-05
1.24056e-19
6.91191e-05
-2.25819e-19
6.91191e-05
-4.77102e-20
6.91191e-05
1.52247e-19
6.91191e-05
-2.22849e-19
6.91191e-05
1.33603e-19
6.91191e-05
-2.49004e-21
6.91191e-05
-1.87065e-19
6.91191e-05
1.83797e-20
6.91191e-05
-2.58104e-19
6.91191e-05
-3.13988e-22
6.91191e-05
-5.06643e-19
-1.67503e-18
0.000113636
-2.65525e-18
0.000113636
-1.40985e-18
0.000113636
-6.88994e-19
0.000113636
-3.3643e-19
0.000113636
-1.57247e-19
0.000113636
-9.63692e-20
0.000113636
-1.0531e-19
0.000113636
-8.87085e-20
0.000113636
-5.73923e-20
0.000113636
-8.15241e-20
0.000113636
-8.8855e-20
0.000113636
-9.83949e-20
0.000113636
9.21271e-21
0.000113636
-1.02102e-20
0.000113636
-1.43066e-20
0.000113636
9.75404e-20
0.000113636
4.58089e-20
0.000113636
1.34916e-21
0.000113636
1.70234e-20
0.000113636
2.00891e-20
0.000113636
3.38679e-20
0.000113636
3.55882e-20
0.000113636
1.62799e-20
0.000113636
-1.87212e-20
0.000113636
-4.8543e-20
0.000113636
-4.4842e-20
0.000113636
1.00719e-19
0.000113636
9.63566e-20
0.000113636
2.21521e-20
0.000113636
-3.0183e-20
0.000113636
6.31731e-20
0.000113636
1.46678e-19
0.000113636
1.81981e-20
0.000113636
-1.12739e-19
0.000113636
-9.07112e-20
0.000113636
-8.82212e-20
0.000113636
6.71279e-20
0.000113636
-1.8739e-20
0.000113636
-1.40437e-19
0.000113636
3.6241e-20
0.000113636
1.07423e-20
0.000113636
5.42501e-21
0.000113636
2.35192e-20
0.000113636
-8.66186e-20
0.000113636
-2.09121e-20
0.000113636
2.08484e-20
0.000113636
5.01787e-20
0.000113636
9.07727e-20
0.000113636
3.22066e-20
0.000113636
5.38338e-21
0.000113636
-3.71256e-20
0.000113636
3.20013e-20
0.000113636
4.20357e-20
0.000113636
3.8451e-20
0.000113636
1.44523e-19
0.000113636
-5.46207e-20
0.000113636
-1.4022e-20
0.000113636
-3.94329e-22
0.000113636
-3.4172e-21
0.000113636
3.92103e-20
0.000113636
-1.94235e-19
0.000113636
1.05103e-19
0.000113636
5.50514e-20
0.000113636
-1.18464e-20
0.000113636
1.08161e-19
0.000113636
-1.48436e-19
0.000113636
-2.05452e-20
0.000113636
-1.77294e-20
0.000113636
5.75461e-20
0.000113636
1.50676e-19
0.000113636
-7.45123e-20
0.000113636
-8.88594e-20
0.000113636
-1.16477e-19
0.000113636
1.33585e-20
0.000113636
1.74021e-19
0.000113636
-1.4462e-19
0.000113636
-1.69019e-19
0.000113636
1.97817e-20
0.000113636
-6.63127e-20
0.000113636
7.95944e-20
0.000113636
-5.57173e-20
0.000113636
-2.40547e-19
0.000113636
-3.76032e-20
0.000113636
1.9809e-20
0.000113636
4.40646e-20
0.000113636
-5.83411e-20
0.000113636
-7.10098e-20
0.000113636
-7.96378e-20
0.000113636
-5.23597e-20
0.000113636
1.93438e-19
0.000113636
-2.80705e-21
0.000113636
-1.44768e-19
0.000113636
-1.56673e-20
0.000113636
8.99453e-20
0.000113636
2.66136e-20
0.000113636
-2.01182e-19
0.000113636
-1.19159e-19
0.000113636
-5.7835e-20
0.000113636
4.22645e-20
0.000113636
6.80384e-20
0.000113636
-6.13939e-20
0.000113636
1.66077e-20
0.000113636
-1.26316e-19
0.000113636
-4.57913e-20
0.000113636
1.56299e-19
0.000113636
1.25773e-19
0.000113636
-2.09613e-19
0.000113636
-1.81412e-19
0.000113636
1.80417e-19
0.000113636
2.74633e-19
0.000113636
1.13858e-19
0.000113636
-3.99341e-19
0.000113636
-1.41764e-20
0.000113636
3.58411e-19
0.000113636
2.1959e-19
0.000113636
2.44532e-20
0.000113636
-4.23188e-19
0.000113636
-1.70317e-19
0.000113636
4.2471e-19
0.000113636
2.88418e-19
0.000113636
-2.40597e-19
0.000113636
-4.37056e-19
0.000113636
-9.76609e-20
0.000113636
4.39879e-19
0.000113636
3.6822e-19
0.000113636
-1.51735e-19
0.000113636
-5.107e-19
0.000113636
6.2304e-20
0.000113636
5.28206e-19
0.000113636
1.47206e-19
0.000113636
-7.35636e-20
0.000113636
-1.99959e-19
0.000113636
-1.30224e-20
0.000113636
3.51511e-19
0.000113636
1.46096e-19
0.000113636
-1.58113e-20
0.000113636
-2.40216e-19
0.000113636
-1.81389e-20
0.000113636
4.21257e-19
0.000113636
9.84713e-20
0.000113636
-2.17106e-19
0.000113636
-2.74076e-19
0.000113636
8.96258e-20
0.000113636
1.27908e-19
0.000113636
-6.55196e-20
0.000113636
-5.72876e-20
0.000113636
-2.30839e-19
0.000113636
7.76976e-20
0.000113636
6.97446e-20
0.000113636
-3.5586e-20
0.000113636
1.52972e-19
0.000113636
-2.38111e-19
0.000113636
-1.98156e-19
0.000113636
9.80553e-20
0.000113636
1.77253e-19
0.000113636
1.23812e-19
0.000113636
-2.55968e-19
0.000113636
-3.16553e-19
0.000113636
-1.22131e-20
0.000113636
1.72679e-19
0.000113636
2.33578e-19
0.000113636
-2.72905e-19
0.000113636
-7.61484e-20
0.000113636
2.41045e-19
0.000113636
-2.14138e-19
0.000113636
-4.6983e-20
0.000113636
-1.07688e-19
0.000113636
-1.29613e-19
0.000113636
1.26735e-19
0.000113636
6.86568e-20
0.000113636
-9.74288e-20
0.000113636
-3.79204e-19
0.000113636
-4.22702e-20
0.000113636
3.18413e-19
0.000113636
9.98576e-20
0.000113636
-1.28484e-19
0.000113636
-1.94388e-19
0.000113636
6.71722e-20
0.000113636
-4.94138e-20
0.000113636
1.85469e-19
0.000113636
1.84538e-19
0.000113636
-4.76309e-19
0.000113636
-2.26963e-21
0.000113636
3.43061e-19
0.000113636
1.43183e-19
0.000113636
2.10858e-19
0.000113636
-1.66259e-19
0.000113636
1.39514e-20
0.000113636
3.00816e-19
0.000113636
-4.27072e-20
0.000113636
-4.88639e-20
0.000113636
-4.94968e-20
0.000113636
-1.85154e-19
0.000113636
1.44889e-19
0.000113636
1.65727e-19
0.000113636
6.86663e-20
0.000113636
-1.33868e-19
0.000113636
-1.3572e-19
0.000113636
1.96402e-19
0.000113636
5.20389e-20
0.000113636
5.41301e-20
0.000113636
-9.69477e-20
0.000113636
1.00941e-19
0.000113636
2.78974e-19
0.000113636
-3.1558e-20
0.000113636
-1.4634e-19
0.000113636
-2.4238e-19
0.000113636
6.2385e-20
0.000113636
1.13557e-19
0.000113636
-2.86761e-20
0.000113636
-4.47512e-20
0.000113636
-2.84643e-19
0.000113636
5.79293e-19
0.000113636
1.0513e-19
0.000113636
-5.29733e-19
0.000113636
2.92528e-19
0.000113636
-2.16824e-19
0.000113636
-6.12698e-20
0.000113636
-1.41208e-19
0.000113636
-5.00408e-19
0.000113636
6.08284e-19
0.000113636
1.48419e-19
0.000113636
-8.59467e-20
0.000113636
-1.1828e-19
0.000113636
-5.19261e-19
0.000113636
5.93573e-19
0.000113636
1.18246e-19
0.000113636
-2.20517e-19
0.000113636
3.44128e-20
0.000113636
-4.08278e-19
0.000113636
3.37061e-19
0.000113636
-8.41837e-20
0.000113636
-2.06643e-19
0.000113636
5.21928e-20
0.000113636
-5.76445e-19
0.000113636
3.36731e-20
0.000113636
-9.18224e-20
0.000113636
2.57123e-19
0.000113636
2.79794e-19
0.000113636
-6.25006e-19
0.000113636
1.47607e-19
0.000113636
-2.15925e-19
0.000113636
6.05275e-20
0.000113636
2.70391e-19
0.000113636
-8.66327e-19
0.000113636
1.08983e-19
0.000113636
1.30016e-19
0.000113636
1.52128e-19
0.000113636
1.34005e-19
0.000113636
-4.76519e-19
0.000113636
6.85995e-19
0.000113636
7.64545e-20
0.000113636
-4.51634e-19
0.000113636
-2.55926e-19
0.000113636
-3.36027e-19
0.000113636
9.50307e-19
0.000113636
1.07373e-19
0.000113636
-9.41255e-20
0.000113636
2.76872e-19
0.000113636
-5.76084e-19
0.000113636
2.11706e-19
0.000113636
7.23215e-20
0.000113636
1.6622e-19
0.000113636
8.68965e-20
0.000113636
-3.62094e-19
0.000113636
5.61727e-19
0.000113636
-2.22097e-20
0.000113636
-6.71776e-20
0.000113636
-2.49577e-20
0.000113636
-5.77266e-19
0.000113636
3.28455e-19
0.000113636
1.94156e-20
0.000113636
1.23925e-19
0.000113636
1.19742e-19
0.000113636
-5.22423e-19
0.000113636
4.51726e-19
0.000113636
6.57446e-20
0.000113636
4.48612e-20
0.000113636
2.46726e-19
0.000113636
-5.83436e-19
0.000113636
2.10016e-19
0.000113636
-3.72668e-20
0.000113636
8.03977e-21
0.000113636
1.00667e-19
0.000113636
-6.76514e-19
0.000113636
2.19987e-19
0.000113636
2.49645e-19
0.000113636
-1.98559e-19
0.000113636
-2.92076e-19
0.000113636
-4.19468e-19
0.000113636
4.58328e-19
0.000113636
1.48441e-19
0.000113636
-1.78108e-19
0.000113636
1.75331e-20
0.000113636
-2.38548e-19
0.000113636
3.23039e-19
0.000113636
2.64435e-19
0.000113636
-2.42262e-19
0.000113636
-2.07029e-19
0.000113636
-3.40866e-19
0.000113636
3.09117e-19
0.000113636
3.30682e-19
0.000113636
-1.94569e-20
0.000113636
-5.33425e-19
0.000113636
-4.54429e-19
0.000113636
3.26112e-19
0.000113636
1.00645e-19
0.000113636
1.10379e-19
0.000113636
-2.77907e-19
0.000113636
-9.45058e-20
0.000113636
3.06431e-19
0.000113636
-2.93509e-19
0.000113636
8.99922e-20
0.000113636
8.43818e-20
0.000113636
-2.83646e-19
0.000113636
-1.57267e-20
0.000113636
-2.90921e-19
0.000113636
3.88592e-20
0.000113636
-5.31987e-19
-1.61917e-18
0.000156982
-1.86467e-18
0.000156982
-1.21034e-18
0.000156982
-6.60214e-19
0.000156982
-3.61266e-19
0.000156982
-2.09518e-19
0.000156982
-1.01359e-19
0.000156982
-1.19219e-19
0.000156982
-1.10325e-19
0.000156982
-7.60866e-20
0.000156982
-1.49699e-19
0.000156982
-2.04483e-19
0.000156982
-7.51076e-20
0.000156982
3.17399e-21
0.000156982
3.84926e-21
0.000156982
-5.72471e-21
0.000156982
1.07837e-19
0.000156982
1.48353e-19
0.000156982
4.81648e-20
0.000156982
7.68658e-20
0.000156982
3.6927e-20
0.000156982
8.27291e-20
0.000156982
8.56179e-20
0.000156982
-6.60745e-22
0.000156982
-1.22182e-20
0.000156982
-9.59484e-20
0.000156982
-4.30222e-20
0.000156982
1.38995e-19
0.000156982
1.66754e-19
0.000156982
4.96221e-20
0.000156982
-2.92121e-20
0.000156982
7.14862e-20
0.000156982
1.85957e-19
0.000156982
3.08599e-20
0.000156982
-1.22958e-19
0.000156982
-1.48997e-19
0.000156982
-9.43417e-20
0.000156982
4.7775e-20
0.000156982
-7.56032e-21
0.000156982
-1.6301e-19
0.000156982
-2.02575e-20
0.000156982
2.43872e-20
0.000156982
1.22306e-20
0.000156982
1.39281e-20
0.000156982
-1.27823e-19
0.000156982
-5.0845e-20
0.000156982
3.89871e-20
0.000156982
1.07446e-19
0.000156982
1.4823e-19
0.000156982
5.82776e-20
0.000156982
1.70972e-21
0.000156982
-1.39526e-20
0.000156982
8.07169e-20
0.000156982
5.3478e-20
0.000156982
3.97543e-20
0.000156982
1.53568e-19
0.000156982
-2.99396e-20
0.000156982
-1.5481e-20
0.000156982
-1.5018e-22
0.000156982
1.25718e-20
0.000156982
1.27134e-20
0.000156982
-2.96356e-19
0.000156982
1.26503e-19
0.000156982
1.23484e-19
0.000156982
-1.3253e-20
0.000156982
1.19763e-19
0.000156982
-1.41081e-19
0.000156982
-1.81302e-20
0.000156982
-3.28417e-21
0.000156982
5.19426e-20
0.000156982
1.58388e-19
0.000156982
-1.19049e-19
0.000156982
-1.32558e-19
0.000156982
-1.06804e-19
0.000156982
-5.11444e-21
0.000156982
1.69338e-19
0.000156982
-1.54023e-19
0.000156982
-1.96452e-19
0.000156982
7.31618e-21
0.000156982
-1.29523e-19
0.000156982
4.4667e-20
0.000156982
-1.04739e-19
0.000156982
-3.05911e-19
0.000156982
-5.30701e-20
0.000156982
3.76835e-20
0.000156982
6.34525e-20
0.000156982
-1.25211e-19
0.000156982
-7.77383e-20
0.000156982
-9.58965e-20
0.000156982
-1.12533e-19
0.000156982
2.51338e-19
0.000156982
-1.35388e-20
0.000156982
-1.60079e-19
0.000156982
-3.62721e-20
0.000156982
5.92913e-20
0.000156982
5.0035e-20
0.000156982
-2.34049e-19
0.000156982
-1.72583e-19
0.000156982
-1.19697e-19
0.000156982
2.06587e-20
0.000156982
1.12907e-19
0.000156982
-9.34501e-22
0.000156982
-2.23841e-20
0.000156982
-1.7069e-19
0.000156982
-6.92502e-20
0.000156982
1.9466e-19
0.000156982
1.51228e-19
0.000156982
-2.52504e-19
0.000156982
-2.18358e-19
0.000156982
2.13441e-19
0.000156982
3.77676e-19
0.000156982
1.58402e-19
0.000156982
-4.61857e-19
0.000156982
-6.22851e-21
0.000156982
4.86193e-19
0.000156982
3.34526e-19
0.000156982
-3.14731e-20
0.000156982
-5.42486e-19
0.000156982
-2.11173e-19
0.000156982
6.03149e-19
0.000156982
3.91501e-19
0.000156982
-3.55885e-19
0.000156982
-5.42864e-19
0.000156982
-1.22447e-19
0.000156982
5.46292e-19
0.000156982
5.23076e-19
0.000156982
-1.48652e-19
0.000156982
-5.84039e-19
0.000156982
9.71518e-20
0.000156982
6.57198e-19
0.000156982
1.7079e-19
0.000156982
-6.83202e-20
0.000156982
-2.46834e-19
0.000156982
-3.66451e-20
0.000156982
4.75761e-19
0.000156982
2.29039e-19
0.000156982
6.13047e-21
0.000156982
-2.72942e-19
0.000156982
-1.30662e-20
0.000156982
4.71139e-19
0.000156982
1.13626e-19
0.000156982
-2.66058e-19
0.000156982
-3.16783e-19
0.000156982
1.18094e-19
0.000156982
1.41745e-19
0.000156982
-7.05184e-20
0.000156982
-7.96944e-20
0.000156982
-3.00635e-19
0.000156982
8.07157e-20
0.000156982
7.13757e-20
0.000156982
-1.15228e-19
0.000156982
1.47025e-19
0.000156982
-1.99639e-19
0.000156982
-2.43054e-19
0.000156982
8.36033e-20
0.000156982
2.12593e-19
0.000156982
9.00629e-20
0.000156982
-3.27881e-19
0.000156982
-4.06059e-19
0.000156982
-2.77529e-20
0.000156982
1.96144e-19
0.000156982
2.36883e-19
0.000156982
-3.45639e-19
0.000156982
-9.01128e-20
0.000156982
2.39932e-19
0.000156982
-2.53769e-19
0.000156982
-7.42161e-20
0.000156982
-1.41489e-19
0.000156982
-1.37801e-19
0.000156982
9.97851e-20
0.000156982
7.92007e-20
0.000156982
-1.42898e-19
0.000156982
-5.51375e-19
0.000156982
2.2998e-20
0.000156982
5.29841e-19
0.000156982
6.85911e-20
0.000156982
-1.95174e-19
0.000156982
-3.09185e-19
0.000156982
8.69173e-21
0.000156982
-3.24082e-20
0.000156982
3.43573e-19
0.000156982
2.28788e-19
0.000156982
-5.76616e-19
0.000156982
-7.70962e-21
0.000156982
4.59409e-19
0.000156982
2.55537e-19
0.000156982
2.35373e-19
0.000156982
-1.74757e-19
0.000156982
6.57756e-20
0.000156982
3.94218e-19
0.000156982
-5.72454e-20
0.000156982
-8.49267e-20
0.000156982
-1.07825e-19
0.000156982
-1.71658e-19
0.000156982
1.73634e-19
0.000156982
2.14239e-19
0.000156982
1.34336e-19
0.000156982
-1.81979e-19
0.000156982
-1.64227e-19
0.000156982
2.4622e-19
0.000156982
1.41048e-19
0.000156982
1.1008e-19
0.000156982
-1.03601e-19
0.000156982
1.14783e-19
0.000156982
3.06863e-19
0.000156982
3.4152e-20
0.000156982
-1.4582e-19
0.000156982
-3.58821e-19
0.000156982
-1.44048e-20
0.000156982
1.13963e-19
0.000156982
3.15873e-20
0.000156982
-2.05229e-20
0.000156982
-3.12386e-19
0.000156982
6.61491e-19
0.000156982
1.30551e-19
0.000156982
-5.92062e-19
0.000156982
2.36142e-19
0.000156982
-3.5022e-19
0.000156982
-7.41017e-20
0.000156982
-2.15434e-19
0.000156982
-6.28956e-19
0.000156982
6.97224e-19
0.000156982
1.24777e-19
0.000156982
2.13011e-20
0.000156982
-8.08933e-20
0.000156982
-6.77867e-19
0.000156982
6.51197e-19
0.000156982
1.30602e-19
0.000156982
-2.04783e-19
0.000156982
-1.60458e-21
0.000156982
-5.11462e-19
0.000156982
4.26933e-19
0.000156982