/*--------------------------------*- C++ -*----------------------------------*\
| =========                 |                                                 |
| \\      /  F ield         | OpenFOAM: The Open Source CFD Toolbox           |
|  \\    /   O peration     | Version:  2112                                  |
|   \\  /    A nd           | Website:  www.openfoam.com                      |
|    \\/     M anipulation  |                                                 |
\*---------------------------------------------------------------------------*/
FoamFile
{
    version     2.0;
    format      ascii;
    arch        "LSB;label=32;scalar=64";
    class       volVectorField;
    location    "8";
    object      U;
}
// * * * * * * * * * * * * * * * * * * * * * * * * * * * * * * * * * * * * * //

dimensions      [0 1 -1 0 0 0 0];

internalField   nonuniform List<vector> 
25600
(
(0.0374883 -1.66646e-16 0)
(0.0374883 -3.04337e-17 0)
(0.0374883 -3.21483e-17 0)
(0.0374883 -2.4203e-17 0)
(0.0374883 -9.97579e-18 0)
(0.0374883 -9.87311e-18 0)
(0.0374883 -6.20214e-18 0)
(0.0374883 -3.02884e-18 0)
(0.0374883 -7.39483e-18 0)
(0.0374883 -5.50009e-18 0)
(0.0374883 1.07715e-17 0)
(0.0374883 -3.62523e-18 0)
(0.0374883 9.84632e-18 0)
(0.0374883 -1.35734e-18 0)
(0.0374883 -1.08019e-17 0)
(0.0374883 1.09344e-17 0)
(0.0374883 7.47944e-19 0)
(0.0374883 2.42891e-19 0)
(0.0374883 -3.01181e-18 0)
(0.0374883 4.01996e-19 0)
(0.0374883 3.45774e-18 0)
(0.0374883 5.85371e-18 0)
(0.0374883 2.9473e-19 0)
(0.0374883 -6.39044e-18 0)
(0.0374883 -1.1069e-17 0)
(0.0374883 -4.36489e-19 0)
(0.0374883 2.28221e-17 0)
(0.0374883 -4.1236e-18 0)
(0.0374883 -1.95226e-17 0)
(0.0374883 -9.96663e-18 0)
(0.0374883 6.24758e-18 0)
(0.0374883 1.0397e-17 0)
(0.0374883 -1.13397e-18 0)
(0.0374883 -8.50505e-18 0)
(0.0374883 -3.66633e-18 0)
(0.0374883 -1.42056e-18 0)
(0.0374883 8.1256e-18 0)
(0.0374883 -4.86483e-18 0)
(0.0374883 -6.11462e-18 0)
(0.0374883 7.67806e-18 0)
(0.0374883 -2.4184e-18 0)
(0.0374883 1.20827e-17 0)
(0.0374883 -5.44584e-18 0)
(0.0374883 -1.68495e-17 0)
(0.0374883 2.06842e-17 0)
(0.0374883 -7.99704e-18 0)
(0.0374883 3.29063e-18 0)
(0.0374883 -1.93512e-18 0)
(0.0374883 -3.52746e-18 0)
(0.0374883 8.09721e-19 0)
(0.0374883 -2.84122e-17 0)
(0.0374883 2.50488e-17 0)
(0.0374883 -3.73189e-18 0)
(0.0374883 -5.43121e-18 0)
(0.0374883 2.53216e-17 0)
(0.0374883 -2.85551e-17 0)
(0.0374883 4.83723e-18 0)
(0.0374883 -1.08795e-17 0)
(0.0374883 -2.2627e-18 0)
(0.0374883 3.73148e-17 0)
(0.0374883 -3.37229e-17 0)
(0.0374883 6.23755e-18 0)
(0.0374883 1.7571e-18 0)
(0.0374883 2.37875e-18 0)
(0.0374883 2.44731e-17 0)
(0.0374883 -1.72487e-17 0)
(0.0374883 6.46236e-18 0)
(0.0374883 -6.83396e-18 0)
(0.0374883 9.1216e-18 0)
(0.0374883 7.70688e-18 0)
(0.0374883 -5.26578e-18 0)
(0.0374883 1.04081e-18 0)
(0.0374883 2.02078e-20 0)
(0.0374883 -6.99174e-18 0)
(0.0374883 7.88471e-18 0)
(0.0374883 -6.52719e-18 0)
(0.0374883 -1.52382e-17 0)
(0.0374883 1.76875e-17 0)
(0.0374883 -8.94532e-18 0)
(0.0374883 2.37758e-17 0)
(0.0374883 -2.27994e-17 0)
(0.0374883 -3.59089e-17 0)
(0.0374883 2.66331e-17 0)
(0.0374883 1.09761e-17 0)
(0.0374883 2.44813e-17 0)
(0.0374883 -4.93925e-18 0)
(0.0374883 -4.24698e-17 0)
(0.0374883 1.51178e-18 0)
(0.0374883 1.84472e-17 0)
(0.0374883 3.42157e-17 0)
(0.0374883 -9.29486e-18 0)
(0.0374883 -5.04757e-17 0)
(0.0374883 2.34609e-18 0)
(0.0374883 4.99641e-17 0)
(0.0374883 6.27973e-18 0)
(0.0374883 -4.95301e-17 0)
(0.0374883 7.84556e-18 0)
(0.0374883 -7.9357e-19 0)
(0.0374883 4.0443e-17 0)
(0.0374883 2.11078e-17 0)
(0.0374883 -6.95791e-17 0)
(0.0374883 8.21879e-18 0)
(0.0374883 -6.66959e-18 0)
(0.0374883 3.93983e-17 0)
(0.0374883 8.40251e-18 0)
(0.0374883 -1.24609e-17 0)
(0.0374883 -3.52518e-17 0)
(0.0374883 1.56239e-17 0)
(0.0374883 3.36728e-17 0)
(0.0374883 -1.19789e-17 0)
(0.0374883 2.64805e-17 0)
(0.0374883 -8.9467e-17 0)
(0.0374883 2.38758e-17 0)
(0.0374883 5.88552e-17 0)
(0.0374883 8.56414e-19 0)
(0.0374883 -2.15258e-17 0)
(0.0374883 -6.14139e-17 0)
(0.0374883 3.98985e-17 0)
(0.0374883 4.26186e-17 0)
(0.0374883 8.62245e-18 0)
(0.0374883 -1.65992e-17 0)
(0.0374883 -5.82405e-17 0)
(0.0374883 -2.67941e-19 0)
(0.0374883 6.74036e-17 0)
(0.0374883 1.08241e-17 0)
(0.0374883 -2.92897e-17 0)
(0.0374883 -4.33504e-17 0)
(0.0374883 4.36353e-18 0)
(0.0374883 6.29689e-17 0)
(0.0374883 -3.13621e-18 0)
(0.0374883 -2.69922e-17 0)
(0.0374883 -3.208e-17 0)
(0.0374883 2.56604e-17 0)
(0.0374883 3.33731e-17 0)
(0.0374883 -2.72638e-17 0)
(0.0374883 -2.56195e-17 0)
(0.0374883 -1.68314e-17 0)
(0.0374883 3.86829e-17 0)
(0.0374883 2.03258e-17 0)
(0.0374883 -2.42276e-17 0)
(0.0374883 -3.06983e-17 0)
(0.0374883 -1.42003e-17 0)
(0.0374883 5.01704e-17 0)
(0.0374883 1.10958e-17 0)
(0.0374883 -4.28986e-17 0)
(0.0374883 4.02712e-17 0)
(0.0374883 -1.35471e-17 0)
(0.0374883 -3.75414e-17 0)
(0.0374883 -2.72397e-18 0)
(0.0374883 -6.40636e-18 0)
(0.0374883 5.66019e-17 0)
(0.0374883 -6.80761e-18 0)
(0.0374883 -4.67311e-17 0)
(0.0374883 5.63715e-18 0)
(0.0374883 2.57127e-17 0)
(0.0374883 2.57042e-17 0)
(0.0374883 -2.55837e-17 0)
(0.0374883 -2.92472e-17 0)
(0.0374883 2.78738e-17 0)
(0.0374883 3.20851e-18 0)
(0.0374883 5.33587e-17 0)
(0.0374883 -6.08228e-17 0)
(0.0374883 -3.92481e-17 0)
(0.0374883 6.22672e-17 0)
(0.0374883 -1.29984e-17 0)
(0.0374883 5.17889e-17 0)
(0.0374883 -3.88103e-17 0)
(0.0374883 -7.00108e-18 0)
(0.0374883 1.05409e-17 0)
(0.0374883 -4.37626e-17 0)
(0.0374883 8.42889e-17 0)
(0.0374883 -5.09815e-17 0)
(0.0374883 3.7093e-18 0)
(0.0374883 1.26126e-17 0)
(0.0374883 -4.07934e-17 0)
(0.0374883 7.79143e-17 0)
(0.0374883 -5.89685e-17 0)
(0.0374883 8.94047e-18 0)
(0.0374883 -8.65577e-18 0)
(0.0374883 -4.09211e-17 0)
(0.0374883 1.04079e-16 0)
(0.0374883 -7.50301e-17 0)
(0.0374883 5.08319e-20 0)
(0.0374883 1.68163e-17 0)
(0.0374883 -4.39942e-17 0)
(0.0374883 9.72661e-17 0)
(0.0374883 -6.43888e-17 0)
(0.0374883 -1.66734e-19 0)
(0.0374883 6.50011e-17 0)
(0.0374883 -9.58906e-17 0)
(0.0374883 4.85527e-17 0)
(0.0374883 2.89128e-19 0)
(0.0374883 -5.79436e-17 0)
(0.0374883 1.00134e-16 0)
(0.0374883 -4.0038e-17 0)
(0.0374883 4.87811e-18 0)
(0.0374883 -4.81906e-17 0)
(0.0374883 -1.04563e-17 0)
(0.0374883 1.39884e-16 0)
(0.0374883 -9.48649e-17 0)
(0.0374883 5.15088e-18 0)
(0.0374883 -5.06949e-17 0)
(0.0374883 -9.12085e-19 0)
(0.0374883 1.41365e-16 0)
(0.0374883 -9.04611e-17 0)
(0.0374883 -4.4387e-17 0)
(0.0374883 -1.34691e-17 0)
(0.0374883 4.76491e-17 0)
(0.0374883 8.68355e-17 0)
(0.0374883 -4.25801e-17 0)
(0.0374883 -7.60406e-17 0)
(0.0374883 -6.31123e-17 0)
(0.0374883 1.62644e-16 0)
(0.0374883 4.52171e-18 0)
(0.0374883 -1.69295e-16 0)
(0.0374883 1.56008e-16 0)
(0.0374883 3.20606e-17 0)
(0.0374883 -7.98697e-17 0)
(0.0374883 -3.70123e-17 0)
(0.0374883 -7.73928e-17 0)
(0.0374883 1.6523e-16 0)
(0.0374883 3.61924e-17 0)
(0.0374883 -8.86182e-17 0)
(0.0374883 -3.12254e-17 0)
(0.0374883 -8.02139e-17 0)
(0.0374883 1.67709e-16 0)
(0.0374883 -7.67981e-18 0)
(0.0374883 -6.51871e-17 0)
(0.0374883 1.79195e-17 0)
(0.0374883 -1.02163e-16 0)
(0.0374883 1.65461e-16 0)
(0.0374883 -8.9779e-18 0)
(0.0374883 -9.27926e-17 0)
(0.0374883 5.70415e-17 0)
(0.0374883 -7.73214e-17 0)
(0.0374883 1.0136e-16 0)
(0.0374883 3.58035e-19 0)
(0.0374883 -1.98979e-17 0)
(0.0374883 2.52238e-17 0)
(0.0374883 -1.25897e-16 0)
(0.0374883 1.49158e-16 0)
(0.0374883 -1.47927e-17 0)
(0.0374883 -3.87363e-17 0)
(0.0374883 7.25202e-17 0)
(0.0374883 -1.39595e-16 0)
(0.0374883 1.23169e-17 0)
(0.0374883 4.41733e-17 0)
(0.0374883 5.35335e-17 0)
(0.0374883 1.61594e-17 0)
(0.0374883 -1.27319e-16 0)
(0.0374883 8.5649e-17 0)
(0.0374883 -1.11667e-17 0)
(0.0374883 -2.57728e-17 0)
(0.0374883 4.12578e-17 0)
(0.0374883 -1.11826e-16 0)
(0.0374883 1.01152e-16 0)
(0.0374883 -1.50312e-17 0)
(0.0374883 -1.10835e-17 0)
(0.0374883 6.68183e-17 0)
(0.0374883 -1.2227e-16 0)
(0.0374883 6.06245e-17 0)
(0.0374883 -5.87796e-18 0)
(0.0374883 8.55379e-20 0)
(0.0374883 5.42482e-17 0)
(0.0374883 -1.07422e-16 0)
(0.0374883 8.13812e-17 0)
(0.0374883 2.74395e-17 0)
(0.0374883 -4.76339e-17 0)
(0.0374883 7.94308e-18 0)
(0.0374883 -7.35651e-17 0)
(0.0374883 7.39802e-17 0)
(0.0374883 3.5501e-17 0)
(0.0374883 -8.35446e-17 0)
(0.0374883 4.53444e-17 0)
(0.0374883 -3.20357e-17 0)
(0.0374883 3.0189e-17 0)
(0.0374883 3.48651e-17 0)
(0.0374883 -8.66702e-17 0)
(0.0374883 6.13771e-17 0)
(0.0374883 -3.84035e-17 0)
(0.0374883 2.08836e-17 0)
(0.0374883 4.02836e-17 0)
(0.0374883 -8.68531e-17 0)
(0.0374883 5.92237e-17 0)
(0.0374883 -3.29e-17 0)
(0.0374883 -2.02279e-17 0)
(0.0374883 9.30473e-17 0)
(0.0374883 -4.89327e-17 0)
(0.0374883 -1.05839e-17 0)
(0.0374883 -6.49148e-17 0)
(0.0374883 2.93435e-17 0)
(0.0374883 1.20126e-16 0)
(0.0374883 -1.066e-17 0)
(0.0374883 -1.16284e-16 0)
(0.0374883 -2.39415e-17 0)
(0.0374883 6.21125e-17 0)
(0.0374883 9.73283e-18 0)
(0.0374883 7.16937e-17 0)
(0.0374883 -1.28434e-16 0)
(0.0374883 -1.88661e-17 0)
(0.0374883 6.0996e-17 0)
(0.0374883 1.03219e-17 0)
(0.0374883 4.79596e-17 0)
(0.0374883 -9.52659e-17 0)
(0.0374883 2.28314e-17 0)
(0.0374883 2.61831e-17 0)
(0.0374883 -4.87622e-17 0)
(0.0374883 8.77815e-17 0)
(0.0374883 -6.33859e-17 0)
(0.0374883 -1.12667e-18 0)
(0.0374883 2.13412e-17 0)
(0.0374883 -7.17912e-17 0)
(0.0374883 9.19627e-17 0)
(0.0374883 -4.23149e-17 0)
(0.0374883 -6.13521e-17 0)
(0.0374883 4.11784e-17 0)
(0.0374883 -2.82899e-17 0)
(0.0374883 4.63164e-17 0)
(0.0374883 -7.14791e-17 0)
(0.0374883 -8.89839e-17 0)
(0.11059 -8.13367e-16 0)
(0.11059 -2.56498e-16 0)
(0.11059 -1.48524e-16 0)
(0.11059 -8.27461e-17 0)
(0.11059 -3.99244e-17 0)
(0.11059 -3.902e-17 0)
(0.11059 -1.68657e-17 0)
(0.11059 -3.74224e-18 0)
(0.11059 -1.07466e-17 0)
(0.11059 -4.77371e-18 0)
(0.11059 8.841e-18 0)
(0.11059 1.40274e-17 0)
(0.11059 3.67418e-17 0)
(0.11059 1.77818e-17 0)
(0.11059 -2.06538e-17 0)
(0.11059 2.38842e-17 0)
(0.11059 2.04213e-17 0)
(0.11059 2.06863e-17 0)
(0.11059 4.87963e-18 0)
(0.11059 -6.02228e-19 0)
(0.11059 2.64362e-17 0)
(0.11059 1.41382e-17 0)
(0.11059 -1.44904e-17 0)
(0.11059 -1.91957e-17 0)
(0.11059 -3.363e-17 0)
(0.11059 -1.67917e-17 0)
(0.11059 2.15905e-17 0)
(0.11059 -3.00368e-17 0)
(0.11059 -5.94784e-17 0)
(0.11059 -5.02711e-17 0)
(0.11059 -3.88065e-18 0)
(0.11059 3.95533e-17 0)
(0.11059 6.2941e-18 0)
(0.11059 -2.1492e-17 0)
(0.11059 -1.26141e-17 0)
(0.11059 2.01896e-18 0)
(0.11059 4.32643e-17 0)
(0.11059 -1.71221e-17 0)
(0.11059 -3.91846e-17 0)
(0.11059 3.38246e-17 0)
(0.11059 -2.11635e-17 0)
(0.11059 1.22317e-17 0)
(0.11059 8.81814e-18 0)
(0.11059 -2.47145e-17 0)
(0.11059 2.0746e-17 0)
(0.11059 -1.00816e-17 0)
(0.11059 -8.83883e-18 0)
(0.11059 -1.8269e-17 0)
(0.11059 -3.03313e-17 0)
(0.11059 -2.67045e-17 0)
(0.11059 -6.1297e-17 0)
(0.11059 1.82006e-17 0)
(0.11059 -2.09828e-17 0)
(0.11059 -1.80922e-17 0)
(0.11059 2.12254e-17 0)
(0.11059 -5.26189e-17 0)
(0.11059 -1.06647e-18 0)
(0.11059 3.70848e-18 0)
(0.11059 6.69655e-18 0)
(0.11059 2.42949e-17 0)
(0.11059 -7.3222e-17 0)
(0.11059 4.03916e-17 0)
(0.11059 -2.27575e-18 0)
(0.11059 1.32559e-17 0)
(0.11059 8.51016e-17 0)
(0.11059 -8.67415e-18 0)
(0.11059 3.97876e-17 0)
(0.11059 2.56754e-17 0)
(0.11059 9.89557e-18 0)
(0.11059 4.83443e-17 0)
(0.11059 -2.10291e-17 0)
(0.11059 2.12986e-18 0)
(0.11059 -2.44737e-17 0)
(0.11059 -2.18676e-17 0)
(0.11059 6.36207e-17 0)
(0.11059 -7.65212e-17 0)
(0.11059 -8.24667e-17 0)
(0.11059 4.06266e-17 0)
(0.11059 -3.14572e-17 0)
(0.11059 2.75596e-17 0)
(0.11059 -3.13383e-17 0)
(0.11059 -1.0602e-16 0)
(0.11059 1.03597e-17 0)
(0.11059 7.23816e-17 0)
(0.11059 7.08593e-17 0)
(0.11059 -6.29229e-18 0)
(0.11059 -5.3068e-17 0)
(0.11059 -2.03964e-17 0)
(0.11059 6.30395e-17 0)
(0.11059 1.0922e-16 0)
(0.11059 -4.51767e-17 0)
(0.11059 -8.93296e-17 0)
(0.11059 1.76868e-17 0)
(0.11059 8.48006e-17 0)
(0.11059 2.2746e-17 0)
(0.11059 -7.29972e-17 0)
(0.11059 2.3237e-17 0)
(0.11059 -4.52811e-18 0)
(0.11059 4.60174e-17 0)
(0.11059 1.8318e-17 0)
(0.11059 -8.28619e-17 0)
(0.11059 1.76485e-17 0)
(0.11059 -5.125e-17 0)
(0.11059 2.15001e-17 0)
(0.11059 5.7845e-17 0)
(0.11059 1.18837e-17 0)
(0.11059 -7.13276e-17 0)
(0.11059 6.91431e-18 0)
(0.11059 1.17125e-16 0)
(0.11059 5.99172e-17 0)
(0.11059 3.04292e-17 0)
(0.11059 -1.96073e-16 0)
(0.11059 3.73352e-17 0)
(0.11059 1.7698e-16 0)
(0.11059 1.77345e-17 0)
(0.11059 -4.15269e-17 0)
(0.11059 -1.45459e-16 0)
(0.11059 -4.12586e-18 0)
(0.11059 1.38958e-16 0)
(0.11059 1.82604e-17 0)
(0.11059 -9.22313e-17 0)
(0.11059 -1.40281e-16 0)
(0.11059 1.03853e-17 0)
(0.11059 2.03635e-16 0)
(0.11059 8.50306e-17 0)
(0.11059 -9.1997e-17 0)
(0.11059 -1.54655e-16 0)
(0.11059 4.11736e-17 0)
(0.11059 1.73951e-16 0)
(0.11059 1.11674e-17 0)
(0.11059 -6.32375e-17 0)
(0.11059 -9.12294e-17 0)
(0.11059 3.52917e-17 0)
(0.11059 9.61731e-17 0)
(0.11059 -4.55541e-17 0)
(0.11059 -2.93031e-17 0)
(0.11059 -1.14013e-16 0)
(0.11059 -5.36258e-17 0)
(0.11059 1.10573e-16 0)
(0.11059 3.21673e-18 0)
(0.11059 -3.55868e-17 0)
(0.11059 -1.07375e-16 0)
(0.11059 1.90838e-18 0)
(0.11059 8.13399e-17 0)
(0.11059 8.21116e-18 0)
(0.11059 -3.16158e-17 0)
(0.11059 -1.12016e-16 0)
(0.11059 2.16185e-17 0)
(0.11059 -2.65724e-18 0)
(0.11059 2.145e-17 0)
(0.11059 9.80595e-17 0)
(0.11059 -1.42064e-16 0)
(0.11059 -9.98179e-17 0)
(0.11059 7.72568e-17 0)
(0.11059 7.23291e-17 0)
(0.11059 6.64599e-17 0)
(0.11059 -5.85513e-17 0)
(0.11059 -5.91845e-17 0)
(0.11059 6.76533e-17 0)
(0.11059 6.27196e-17 0)
(0.11059 1.0856e-16 0)
(0.11059 -1.09253e-16 0)
(0.11059 6.2053e-18 0)
(0.11059 1.37843e-16 0)
(0.11059 -1.41484e-16 0)
(0.11059 7.49012e-17 0)
(0.11059 3.1446e-17 0)
(0.11059 -6.85528e-17 0)
(0.11059 1.69112e-16 0)
(0.11059 8.45666e-17 0)
(0.11059 -2.83291e-18 0)
(0.11059 -1.1388e-16 0)
(0.11059 3.06465e-17 0)
(0.11059 6.5941e-17 0)
(0.11059 -5.37294e-17 0)
(0.11059 -5.91919e-17 0)
(0.11059 -6.79705e-17 0)
(0.11059 1.78803e-16 0)
(0.11059 -5.5084e-17 0)
(0.11059 -5.8433e-17 0)
(0.11059 1.25368e-16 0)
(0.11059 -2.04674e-16 0)
(0.11059 -1.565e-17 0)
(0.11059 7.52431e-17 0)
(0.11059 -2.65634e-17 0)
(0.11059 1.45015e-16 0)
(0.11059 -1.18254e-16 0)
(0.11059 -8.89197e-18 0)
(0.11059 1.29576e-16 0)
(0.11059 -1.22826e-16 0)
(0.11059 5.45254e-17 0)
(0.11059 -2.023e-17 0)
(0.11059 -8.7091e-17 0)
(0.11059 1.57418e-16 0)
(0.11059 -2.32282e-17 0)
(0.11059 1.27491e-17 0)
(0.11059 -9.11134e-17 0)
(0.11059 -3.99039e-17 0)
(0.11059 1.96638e-16 0)
(0.11059 -1.19073e-16 0)
(0.11059 -3.80728e-18 0)
(0.11059 -8.9633e-17 0)
(0.11059 1.20995e-17 0)
(0.11059 2.13314e-16 0)
(0.11059 -7.32677e-17 0)
(0.11059 -1.55121e-16 0)
(0.11059 -1.12865e-16 0)
(0.11059 1.20342e-16 0)
(0.11059 1.27096e-16 0)
(0.11059 -5.11114e-17 0)
(0.11059 -1.06573e-16 0)
(0.11059 -1.10624e-16 0)
(0.11059 3.09384e-16 0)
(0.11059 1.72096e-17 0)
(0.11059 -2.94489e-16 0)
(0.11059 2.53231e-16 0)
(0.11059 2.86443e-17 0)
(0.11059 -8.52602e-17 0)
(0.11059 -7.48763e-17 0)
(0.11059 -1.73766e-16 0)
(0.11059 3.15632e-16 0)
(0.11059 6.24306e-17 0)
(0.11059 -1.30795e-16 0)
(0.11059 -6.7022e-17 0)
(0.11059 -1.80813e-16 0)
(0.11059 3.16162e-16 0)
(0.11059 7.12764e-18 0)
(0.11059 -1.26934e-16 0)
(0.11059 1.02226e-16 0)
(0.11059 -9.55914e-17 0)
(0.11059 1.69314e-16 0)
(0.11059 -4.5038e-17 0)
(0.11059 3.40832e-18 0)
(0.11059 8.27366e-17 0)
(0.11059 -2.37205e-16 0)
(0.11059 9.43116e-17 0)
(0.11059 7.84035e-17 0)
(0.11059 7.85812e-17 0)
(0.11059 1.19834e-16 0)
(0.11059 -1.99041e-16 0)
(0.11059 9.60903e-17 0)
(0.11059 -6.23051e-17 0)
(0.11059 4.03023e-17 0)
(0.11059 1.44381e-16 0)
(0.11059 -3.46466e-16 0)
(0.11059 1.53834e-17 0)
(0.11059 9.56893e-17 0)
(0.11059 1.34613e-16 0)
(0.11059 3.76255e-17 0)
(0.11059 -2.61969e-16 0)
(0.11059 2.15262e-16 0)
(0.11059 -3.2385e-17 0)
(0.11059 -1.61565e-16 0)
(0.11059 -3.0937e-17 0)
(0.11059 -1.72554e-16 0)
(0.11059 2.99743e-16 0)
(0.11059 -9.67312e-18 0)
(0.11059 -4.54722e-17 0)
(0.11059 1.07616e-16 0)
(0.11059 -2.44085e-16 0)
(0.11059 1.11531e-16 0)
(0.11059 5.64207e-17 0)
(0.11059 -3.77424e-17 0)
(0.11059 1.28949e-17 0)
(0.11059 -1.30236e-16 0)
(0.11059 2.20847e-16 0)
(0.11059 3.50979e-17 0)
(0.11059 -2.45483e-17 0)
(0.11059 -4.27913e-17 0)
(0.11059 -1.87553e-16 0)
(0.11059 1.74776e-16 0)
(0.11059 1.61975e-17 0)
(0.11059 4.39295e-17 0)
(0.11059 -7.00626e-17 0)
(0.11059 -2.04223e-16 0)
(0.11059 1.45862e-16 0)
(0.11059 1.37916e-18 0)
(0.11059 -4.9468e-17 0)
(0.11059 9.73683e-17 0)
(0.11059 -1.59742e-16 0)
(0.11059 7.12025e-17 0)
(0.11059 6.50547e-17 0)
(0.11059 -1.27907e-18 0)
(0.11059 -5.52987e-18 0)
(0.11059 -1.8534e-16 0)
(0.11059 9.46192e-17 0)
(0.11059 1.41541e-16 0)
(0.11059 5.26797e-17 0)
(0.11059 -1.71939e-16 0)
(0.11059 -1.47521e-16 0)
(0.11059 2.05551e-16 0)
(0.11059 -5.25687e-17 0)
(0.11059 -6.81832e-17 0)
(0.11059 -4.29445e-17 0)
(0.11059 -5.23327e-17 0)
(0.11059 2.4053e-16 0)
(0.11059 -2.60226e-17 0)
(0.11059 -7.69606e-17 0)
(0.11059 -1.0113e-16 0)
(0.11059 -5.45469e-17 0)
(0.11059 2.5285e-16 0)
(0.11059 1.88813e-17 0)
(0.11059 7.27144e-17 0)
(0.11059 -1.00242e-16 0)
(0.11059 -2.35676e-16 0)
(0.11059 9.40842e-17 0)
(0.11059 5.7468e-17 0)
(0.11059 8.94407e-17 0)
(0.11059 -1.46583e-16 0)
(0.11059 -1.03912e-17 0)
(0.11059 6.8286e-17 0)
(0.11059 -1.5101e-16 0)
(0.11059 1.14197e-16 0)
(0.11059 -5.41647e-17 0)
(0.11059 -1.42489e-16 0)
(0.11059 6.11072e-17 0)
(0.11059 -1.47607e-16 0)
(0.11059 1.3763e-17 0)
(0.11059 -1.31067e-16 0)
(0.11059 -3.80207e-16 0)
(0.181818 -2.18618e-16 0)
(0.181818 -2.8876e-16 0)
(0.181818 -1.70785e-16 0)
(0.181818 -1.06545e-16 0)
(0.181818 -7.87875e-17 0)
(0.181818 -4.68318e-17 0)
(0.181818 -2.36484e-17 0)
(0.181818 6.23097e-19 0)
(0.181818 2.84179e-17 0)
(0.181818 -6.61368e-18 0)
(0.181818 -1.20274e-19 0)
(0.181818 4.18458e-17 0)
(0.181818 8.85899e-17 0)
(0.181818 2.8031e-17 0)
(0.181818 -2.01569e-17 0)
(0.181818 6.10026e-17 0)
(0.181818 6.44768e-17 0)
(0.181818 3.79601e-17 0)
(0.181818 3.66479e-17 0)
(0.181818 2.215e-17 0)
(0.181818 5.62817e-17 0)
(0.181818 2.4333e-18 0)
(0.181818 -5.05138e-17 0)
(0.181818 -3.7461e-17 0)
(0.181818 -5.77646e-17 0)
(0.181818 -1.77268e-17 0)
(0.181818 -5.35209e-18 0)
(0.181818 -7.64715e-17 0)
(0.181818 -1.33558e-16 0)
(0.181818 -1.16742e-16 0)
(0.181818 -3.16307e-18 0)
(0.181818 7.87836e-17 0)
(0.181818 2.09356e-17 0)
(0.181818 -3.41108e-17 0)
(0.181818 -3.11255e-17 0)
(0.181818 2.82729e-18 0)
(0.181818 6.30575e-17 0)
(0.181818 -1.55352e-17 0)
(0.181818 -6.09418e-17 0)
(0.181818 7.10069e-18 0)
(0.181818 -1.02832e-18 0)
(0.181818 1.97738e-17 0)
(0.181818 3.84519e-17 0)
(0.181818 -4.97896e-17 0)
(0.181818 -1.68721e-17 0)
(0.181818 1.54821e-17 0)
(0.181818 -1.63526e-17 0)
(0.181818 -6.08735e-17 0)
(0.181818 -8.27382e-17 0)
(0.181818 -6.48163e-17 0)
(0.181818 -9.34097e-17 0)
(0.181818 -3.71512e-17 0)
(0.181818 -4.71184e-17 0)
(0.181818 -4.97364e-17 0)
(0.181818 8.35846e-18 0)
(0.181818 -7.46342e-17 0)
(0.181818 -2.27833e-17 0)
(0.181818 3.15636e-19 0)
(0.181818 1.32375e-17 0)
(0.181818 3.35953e-17 0)
(0.181818 -1.17409e-16 0)
(0.181818 7.53498e-17 0)
(0.181818 -3.06831e-18 0)
(0.181818 2.40222e-17 0)
(0.181818 1.70478e-16 0)
(0.181818 -1.50144e-17 0)
(0.181818 1.0581e-16 0)
(0.181818 6.12597e-17 0)
(0.181818 5.78156e-17 0)
(0.181818 9.10793e-17 0)
(0.181818 -3.55818e-17 0)
(0.181818 -2.86405e-18 0)
(0.181818 -4.99034e-17 0)
(0.181818 1.69847e-17 0)
(0.181818 5.44385e-17 0)
(0.181818 -1.50086e-16 0)
(0.181818 -1.19878e-16 0)
(0.181818 -1.43747e-18 0)
(0.181818 -6.7184e-17 0)
(0.181818 1.34376e-18 0)
(0.181818 -7.38425e-17 0)
(0.181818 -1.49313e-16 0)
(0.181818 4.19262e-17 0)
(0.181818 1.17027e-16 0)
(0.181818 1.01727e-16 0)
(0.181818 7.1115e-18 0)
(0.181818 -9.95363e-19 0)
(0.181818 -1.37706e-17 0)
(0.181818 3.78405e-17 0)
(0.181818 1.79861e-16 0)
(0.181818 -5.20205e-17 0)
(0.181818 -8.01547e-17 0)
(0.181818 5.19461e-17 0)
(0.181818 6.33705e-17 0)
(0.181818 3.86763e-17 0)
(0.181818 -4.06567e-17 0)
(0.181818 2.94954e-17 0)
(0.181818 -2.49102e-18 0)
(0.181818 5.27903e-18 0)
(0.181818 -1.28925e-17 0)
(0.181818 -4.81627e-17 0)
(0.181818 -2.12879e-17 0)
(0.181818 -6.40248e-17 0)
(0.181818 1.97457e-17 0)
(0.181818 8.032e-17 0)
(0.181818 9.13924e-17 0)
(0.181818 -9.94715e-17 0)
(0.181818 -5.35743e-17 0)
(0.181818 2.24814e-16 0)
(0.181818 2.12558e-16 0)
(0.181818 1.2722e-17 0)
(0.181818 -3.07522e-16 0)
(0.181818 5.87203e-17 0)
(0.181818 2.71211e-16 0)
(0.181818 1.15661e-16 0)
(0.181818 -5.03453e-17 0)
(0.181818 -2.88412e-16 0)
(0.181818 -7.96765e-17 0)
(0.181818 2.88977e-16 0)
(0.181818 1.01931e-16 0)
(0.181818 -2.51447e-16 0)
(0.181818 -3.09568e-16 0)
(0.181818 1.42757e-18 0)
(0.181818 3.88391e-16 0)
(0.181818 2.5657e-16 0)
(0.181818 -1.62385e-16 0)
(0.181818 -3.70384e-16 0)
(0.181818 1.05832e-16 0)
(0.181818 3.35597e-16 0)
(0.181818 4.9519e-17 0)
(0.181818 -9.29833e-17 0)
(0.181818 -2.06458e-16 0)
(0.181818 4.96859e-17 0)
(0.181818 1.92891e-16 0)
(0.181818 -5.88097e-17 0)
(0.181818 -1.51005e-16 0)
(0.181818 -2.19943e-16 0)
(0.181818 -5.35838e-17 0)
(0.181818 2.02499e-16 0)
(0.181818 -9.81289e-19 0)
(0.181818 -1.50605e-16 0)
(0.181818 -1.90349e-16 0)
(0.181818 4.50806e-17 0)
(0.181818 1.24977e-16 0)
(0.181818 -5.35693e-17 0)
(0.181818 -9.88512e-17 0)
(0.181818 -1.31174e-16 0)
(0.181818 7.61626e-17 0)
(0.181818 -5.52263e-18 0)
(0.181818 -9.15473e-17 0)
(0.181818 1.23938e-16 0)
(0.181818 -8.15778e-17 0)
(0.181818 -1.57889e-16 0)
(0.181818 4.77533e-17 0)
(0.181818 1.01653e-16 0)
(0.181818 1.42401e-16 0)
(0.181818 -5.93517e-17 0)
(0.181818 -1.22796e-16 0)
(0.181818 8.98234e-17 0)
(0.181818 1.93292e-16 0)
(0.181818 1.82176e-16 0)
(0.181818 -1.62132e-16 0)
(0.181818 -2.39842e-17 0)
(0.181818 2.21398e-16 0)
(0.181818 -4.8095e-17 0)
(0.181818 6.60208e-17 0)
(0.181818 7.91585e-17 0)
(0.181818 8.41441e-17 0)
(0.181818 1.56041e-16 0)
(0.181818 8.01483e-17 0)
(0.181818 4.70203e-18 0)
(0.181818 -1.17959e-16 0)
(0.181818 7.21341e-17 0)
(0.181818 1.34732e-16 0)
(0.181818 -1.69332e-18 0)
(0.181818 -1.59962e-16 0)
(0.181818 -1.79231e-16 0)
(0.181818 7.90271e-17 0)
(0.181818 2.9997e-18 0)
(0.181818 1.40853e-16 0)
(0.181818 5.32456e-17 0)
(0.181818 -4.06082e-16 0)
(0.181818 -6.34292e-17 0)
(0.181818 1.89533e-16 0)
(0.181818 5.50872e-17 0)
(0.181818 1.52562e-16 0)
(0.181818 -1.75644e-16 0)
(0.181818 -6.01732e-17 0)
(0.181818 1.95343e-16 0)
(0.181818 -5.64976e-17 0)
(0.181818 -7.09716e-18 0)
(0.181818 -3.54617e-17 0)
(0.181818 -5.82383e-17 0)
(0.181818 1.10859e-16 0)
(0.181818 8.70543e-17 0)
(0.181818 3.9732e-17 0)
(0.181818 -1.13632e-16 0)
(0.181818 -8.26539e-17 0)
(0.181818 9.22885e-17 0)
(0.181818 -2.51231e-17 0)
(0.181818 -3.67089e-17 0)
(0.181818 -8.37872e-17 0)
(0.181818 4.40678e-17 0)
(0.181818 1.22987e-16 0)
(0.181818 -6.21487e-17 0)
(0.181818 -1.2392e-16 0)
(0.181818 -1.33769e-16 0)
(0.181818 4.3942e-17 0)
(0.181818 6.28623e-17 0)
(0.181818 -2.72987e-18 0)
(0.181818 -3.6654e-17 0)
(0.181818 -1.46906e-16 0)
(0.181818 3.89191e-16 0)
(0.181818 4.01636e-17 0)
(0.181818 -3.33879e-16 0)
(0.181818 2.8797e-16 0)
(0.181818 -6.88134e-17 0)
(0.181818 4.69577e-18 0)
(0.181818 -9.30441e-17 0)
(0.181818 -3.1226e-16 0)
(0.181818 4.82392e-16 0)
(0.181818 3.88123e-17 0)
(0.181818 -1.23616e-16 0)
(0.181818 -6.87936e-17 0)
(0.181818 -3.28427e-16 0)
(0.181818 4.70038e-16 0)
(0.181818 5.26314e-17 0)
(0.181818 -1.51442e-16 0)
(0.181818 7.96121e-17 0)
(0.181818 -1.72608e-16 0)
(0.181818 4.55194e-16 0)
(0.181818 4.13276e-17 0)
(0.181818 -1.12865e-16 0)
(0.181818 8.70662e-17 0)
(0.181818 -3.22656e-16 0)
(0.181818 1.23539e-16 0)
(0.181818 3.01396e-17 0)
(0.181818 3.07424e-16 0)
(0.181818 3.2161e-16 0)
(0.181818 -3.98413e-16 0)
(0.181818 1.16176e-16 0)
(0.181818 -1.21734e-16 0)
(0.181818 1.27503e-16 0)
(0.181818 2.17158e-16 0)
(0.181818 -6.62931e-16 0)
(0.181818 5.13195e-17 0)
(0.181818 1.50323e-16 0)
(0.181818 2.14866e-16 0)
(0.181818 4.3412e-17 0)
(0.181818 -4.05312e-16 0)
(0.181818 4.84975e-16 0)
(0.181818 -7.26547e-17 0)
(0.181818 -4.30921e-16 0)
(0.181818 -2.53465e-16 0)
(0.181818 -2.09808e-16 0)
(0.181818 6.88995e-16 0)
(0.181818 -3.15702e-17 0)
(0.181818 -1.59725e-16 0)
(0.181818 1.28609e-16 0)
(0.181818 -3.58226e-16 0)
(0.181818 2.38462e-16 0)
(0.181818 4.01065e-17 0)
(0.181818 -1.23258e-17 0)
(0.181818 1.52795e-17 0)
(0.181818 -2.35279e-16 0)
(0.181818 4.56455e-16 0)
(0.181818 1.93437e-17 0)
(0.181818 -9.3672e-17 0)
(0.181818 1.15162e-17 0)
(0.181818 -3.37267e-16 0)
(0.181818 2.80972e-16 0)
(0.181818 4.97502e-17 0)
(0.181818 -1.78812e-17 0)
(0.181818 -3.15463e-17 0)
(0.181818 -3.84033e-16 0)
(0.181818 2.29092e-16 0)
(0.181818 4.8052e-18 0)
(0.181818 -7.11585e-18 0)
(0.181818 1.21429e-16 0)
(0.181818 -3.82722e-16 0)
(0.181818 1.57587e-16 0)
(0.181818 2.95483e-17 0)
(0.181818 1.02608e-17 0)
(0.181818 1.0383e-16 0)
(0.181818 -3.42863e-16 0)
(0.181818 2.3224e-16 0)
(0.181818 2.36274e-16 0)
(0.181818 -1.12579e-16 0)
(0.181818 -1.79511e-16 0)
(0.181818 -2.41552e-16 0)
(0.181818 2.47172e-16 0)
(0.181818 5.45201e-17 0)
(0.181818 -2.13227e-16 0)
(0.181818 3.5244e-17 0)
(0.181818 -1.03201e-16 0)
(0.181818 1.54085e-16 0)
(0.181818 2.27374e-16 0)
(0.181818 -1.65699e-16 0)
(0.181818 -1.14128e-16 0)
(0.181818 -1.4136e-16 0)
(0.181818 2.51599e-16 0)
(0.181818 3.92574e-16 0)
(0.181818 5.05183e-17 0)
(0.181818 -3.69628e-16 0)
(0.181818 -1.83742e-16 0)
(0.181818 2.22706e-16 0)
(0.181818 3.86634e-17 0)
(0.181818 3.19376e-17 0)
(0.181818 -2.73927e-16 0)
(0.181818 9.79633e-18 0)
(0.181818 1.24504e-16 0)
(0.181818 -2.27662e-16 0)
(0.181818 9.9956e-17 0)
(0.181818 -6.2879e-17 0)
(0.181818 -1.85706e-16 0)
(0.181818 -6.84098e-17 0)
(0.181818 -2.0904e-16 0)
(0.181818 1.42723e-16 0)
(0.181818 -2.09686e-16 0)
(0.181818 -4.96338e-16 0)
(0.251172 -2.04148e-16 0)
(0.251172 -2.85527e-16 0)
(0.251172 -2.13949e-16 0)
(0.251172 -1.20999e-16 0)
(0.251172 -1.10522e-16 0)
(0.251172 -5.37898e-17 0)
(0.251172 -2.20895e-17 0)
(0.251172 3.22229e-17 0)
(0.251172 5.21034e-17 0)
(0.251172 -2.51184e-18 0)
(0.251172 -2.0899e-18 0)
(0.251172 6.68676e-17 0)
(0.251172 1.37884e-16 0)
(0.251172 7.53678e-17 0)
(0.251172 -9.18879e-19 0)
(0.251172 9.38356e-17 0)
(0.251172 1.08892e-16 0)
(0.251172 7.65048e-17 0)
(0.251172 7.84714e-17 0)
(0.251172 4.06486e-17 0)
(0.251172 5.9862e-17 0)
(0.251172 -7.80353e-18 0)
(0.251172 -7.04501e-17 0)
(0.251172 -7.73539e-17 0)
(0.251172 -9.77815e-17 0)
(0.251172 -4.42277e-17 0)
(0.251172 -1.95393e-17 0)
(0.251172 -1.36711e-16 0)
(0.251172 -2.34134e-16 0)
(0.251172 -1.66612e-16 0)
(0.251172 -5.75587e-18 0)
(0.251172 9.14253e-17 0)
(0.251172 2.06217e-17 0)
(0.251172 -4.23037e-17 0)
(0.251172 -3.51574e-17 0)
(0.251172 -6.83286e-18 0)
(0.251172 5.83148e-17 0)
(0.251172 -1.55076e-17 0)
(0.251172 -7.56129e-17 0)
(0.251172 5.06576e-18 0)
(0.251172 3.09096e-18 0)
(0.251172 3.82178e-17 0)
(0.251172 2.8314e-17 0)
(0.251172 -7.49535e-17 0)
(0.251172 -1.64514e-17 0)
(0.251172 4.46251e-18 0)
(0.251172 -3.14735e-17 0)
(0.251172 -9.90944e-17 0)
(0.251172 -1.36596e-16 0)
(0.251172 -1.4525e-16 0)
(0.251172 -1.77421e-16 0)
(0.251172 -9.48337e-17 0)
(0.251172 -8.26547e-17 0)
(0.251172 -8.76548e-17 0)
(0.251172 -9.58427e-18 0)
(0.251172 -1.12391e-16 0)
(0.251172 -5.62057e-17 0)
(0.251172 -2.01119e-17 0)
(0.251172 -8.54728e-18 0)
(0.251172 6.26192e-17 0)
(0.251172 -1.18741e-16 0)
(0.251172 6.38428e-17 0)
(0.251172 1.79607e-17 0)
(0.251172 6.97304e-17 0)
(0.251172 2.05006e-16 0)
(0.251172 2.21515e-17 0)
(0.251172 1.85842e-16 0)
(0.251172 9.49383e-17 0)
(0.251172 1.20808e-16 0)
(0.251172 1.52594e-16 0)
(0.251172 -7.02757e-17 0)
(0.251172 -2.06679e-17 0)
(0.251172 -6.62078e-17 0)
(0.251172 7.24251e-18 0)
(0.251172 6.87992e-17 0)
(0.251172 -1.98721e-16 0)
(0.251172 -1.59095e-16 0)
(0.251172 -5.48791e-17 0)
(0.251172 -1.38702e-16 0)
(0.251172 5.79347e-18 0)
(0.251172 -1.36341e-16 0)
(0.251172 -2.07943e-16 0)
(0.251172 6.20543e-17 0)
(0.251172 1.97034e-16 0)
(0.251172 1.56726e-16 0)
(0.251172 -2.28398e-17 0)
(0.251172 2.10288e-17 0)
(0.251172 5.24566e-17 0)
(0.251172 7.98443e-17 0)
(0.251172 2.19598e-16 0)
(0.251172 -2.0368e-17 0)
(0.251172 -6.90977e-17 0)
(0.251172 5.41752e-17 0)
(0.251172 9.9299e-17 0)
(0.251172 4.35226e-17 0)
(0.251172 -7.48241e-17 0)
(0.251172 6.59961e-17 0)
(0.251172 2.18417e-17 0)
(0.251172 -2.03665e-17 0)
(0.251172 -2.1428e-17 0)
(0.251172 -6.67263e-17 0)
(0.251172 -7.34522e-17 0)
(0.251172 -1.32655e-16 0)
(0.251172 3.56231e-17 0)
(0.251172 1.91256e-16 0)
(0.251172 1.38876e-16 0)
(0.251172 -1.40733e-16 0)
(0.251172 -8.51556e-17 0)
(0.251172 3.70081e-16 0)
(0.251172 3.54976e-16 0)
(0.251172 3.84e-18 0)
(0.251172 -3.73417e-16 0)
(0.251172 5.57624e-17 0)
(0.251172 3.56216e-16 0)
(0.251172 2.31198e-16 0)
(0.251172 -2.36231e-17 0)
(0.251172 -4.19208e-16 0)
(0.251172 -1.64796e-16 0)
(0.251172 3.74821e-16 0)
(0.251172 1.84523e-16 0)
(0.251172 -3.65445e-16 0)
(0.251172 -5.19259e-16 0)
(0.251172 6.23098e-18 0)
(0.251172 5.38354e-16 0)
(0.251172 3.17595e-16 0)
(0.251172 -1.72383e-16 0)
(0.251172 -3.94626e-16 0)
(0.251172 9.35013e-17 0)
(0.251172 4.60317e-16 0)
(0.251172 8.25332e-17 0)
(0.251172 -1.86839e-16 0)
(0.251172 -2.04506e-16 0)
(0.251172 1.49518e-17 0)
(0.251172 2.3448e-16 0)
(0.251172 -2.42752e-17 0)
(0.251172 -2.19345e-16 0)
(0.251172 -3.71695e-16 0)
(0.251172 -1.19362e-16 0)
(0.251172 3.1023e-16 0)
(0.251172 3.43939e-17 0)
(0.251172 -2.52097e-16 0)
(0.251172 -3.73204e-16 0)
(0.251172 5.61641e-17 0)
(0.251172 1.58695e-16 0)
(0.251172 -4.5191e-17 0)
(0.251172 -9.90126e-17 0)
(0.251172 -3.14427e-16 0)
(0.251172 5.2538e-17 0)
(0.251172 5.39082e-17 0)
(0.251172 -5.83111e-17 0)
(0.251172 9.83889e-17 0)
(0.251172 -1.91818e-16 0)
(0.251172 -1.17786e-16 0)
(0.251172 9.6527e-17 0)
(0.251172 1.43461e-16 0)
(0.251172 1.46754e-16 0)
(0.251172 -1.11679e-16 0)
(0.251172 -1.1526e-16 0)
(0.251172 2.00307e-16 0)
(0.251172 2.65486e-16 0)
(0.251172 2.21932e-16 0)
(0.251172 -1.94953e-16 0)
(0.251172 5.39182e-17 0)
(0.251172 3.56378e-16 0)
(0.251172 -7.81845e-17 0)
(0.251172 1.3128e-16 0)
(0.251172 1.66864e-16 0)
(0.251172 1.64153e-16 0)
(0.251172 2.44993e-16 0)
(0.251172 1.16627e-16 0)
(0.251172 2.02279e-17 0)
(0.251172 -1.73695e-16 0)
(0.251172 7.03205e-17 0)
(0.251172 2.68482e-16 0)
(0.251172 -4.69369e-17 0)
(0.251172 -2.39648e-16 0)
(0.251172 -2.08731e-16 0)
(0.251172 2.16946e-17 0)
(0.251172 -8.87925e-18 0)
(0.251172 1.66485e-16 0)
(0.251172 5.55163e-17 0)
(0.251172 -4.80569e-16 0)
(0.251172 -6.19331e-17 0)
(0.251172 2.43279e-16 0)
(0.251172 6.67608e-17 0)