/*--------------------------------*- C++ -*----------------------------------*\
| =========                 |                                                 |
| \\      /  F ield         | OpenFOAM: The Open Source CFD Toolbox           |
|  \\    /   O peration     | Version:  2112                                  |
|   \\  /    A nd           | Website:  www.openfoam.com                      |
|    \\/     M anipulation  |                                                 |
\*---------------------------------------------------------------------------*/
FoamFile
{
    version     2.0;
    format      ascii;
    arch        "LSB;label=32;scalar=64";
    class       volVectorField;
    location    "8";
    object      U;
}
// * * * * * * * * * * * * * * * * * * * * * * * * * * * * * * * * * * * * * //

dimensions      [0 1 -1 0 0 0 0];

internalField   nonuniform List<vector> 
25600
(
(0.0374883 -2.33892e-15 0)
(0.0374883 -4.63658e-16 0)
(0.0374883 -3.76998e-17 0)
(0.0374883 -1.81248e-17 0)
(0.0374883 -2.52188e-18 0)
(0.0374883 -5.10996e-18 0)
(0.0374883 -5.72274e-18 0)
(0.0374883 -1.14463e-18 0)
(0.0374883 -3.85425e-18 0)
(0.0374883 -6.03152e-18 0)
(0.0374883 2.41014e-18 0)
(0.0374883 -9.1552e-18 0)
(0.0374883 7.56433e-19 0)
(0.0374883 1.15628e-18 0)
(0.0374883 -4.68961e-18 0)
(0.0374883 1.0375e-17 0)
(0.0374883 -2.65937e-19 0)
(0.0374883 -4.15535e-18 0)
(0.0374883 -2.98392e-18 0)
(0.0374883 -9.23204e-19 0)
(0.0374883 -8.3518e-19 0)
(0.0374883 5.02464e-18 0)
(0.0374883 9.11921e-19 0)
(0.0374883 -3.50623e-18 0)
(0.0374883 -9.57047e-18 0)
(0.0374883 -2.06193e-18 0)
(0.0374883 2.35452e-17 0)
(0.0374883 4.89851e-19 0)
(0.0374883 -1.80282e-17 0)
(0.0374883 -1.00533e-18 0)
(0.0374883 7.66565e-18 0)
(0.0374883 1.11226e-17 0)
(0.0374883 2.53495e-19 0)
(0.0374883 -8.99846e-18 0)
(0.0374883 4.80126e-19 0)
(0.0374883 -2.02394e-18 0)
(0.0374883 2.85494e-18 0)
(0.0374883 -4.86475e-18 0)
(0.0374883 -8.21805e-18 0)
(0.0374883 4.8384e-18 0)
(0.0374883 1.20563e-18 0)
(0.0374883 1.50267e-17 0)
(0.0374883 -8.61871e-18 0)
(0.0374883 -1.91236e-17 0)
(0.0374883 2.11469e-17 0)
(0.0374883 -9.97319e-18 0)
(0.0374883 5.25053e-18 0)
(0.0374883 4.07223e-18 0)
(0.0374883 -3.29307e-19 0)
(0.0374883 4.97596e-18 0)
(0.0374883 -2.85268e-17 0)
(0.0374883 1.8001e-17 0)
(0.0374883 4.27492e-18 0)
(0.0374883 1.08917e-19 0)
(0.0374883 2.48734e-17 0)
(0.0374883 -2.95325e-17 0)
(0.0374883 -6.4295e-19 0)
(0.0374883 -1.06585e-17 0)
(0.0374883 1.63959e-18 0)
(0.0374883 4.13118e-17 0)
(0.0374883 -3.335e-17 0)
(0.0374883 9.07096e-18 0)
(0.0374883 -2.08535e-18 0)
(0.0374883 -3.13401e-18 0)
(0.0374883 2.06124e-17 0)
(0.0374883 -2.53784e-17 0)
(0.0374883 2.95839e-18 0)
(0.0374883 -1.13559e-17 0)
(0.0374883 1.49576e-17 0)
(0.0374883 7.30028e-18 0)
(0.0374883 -4.89097e-18 0)
(0.0374883 -2.20614e-18 0)
(0.0374883 -3.4381e-18 0)
(0.0374883 -3.83685e-18 0)
(0.0374883 8.96752e-18 0)
(0.0374883 -7.38871e-18 0)
(0.0374883 -1.66807e-17 0)
(0.0374883 1.38579e-17 0)
(0.0374883 -4.95753e-18 0)
(0.0374883 2.99569e-17 0)
(0.0374883 -1.82515e-17 0)
(0.0374883 -3.36911e-17 0)
(0.0374883 1.99467e-17 0)
(0.0374883 -3.95492e-19 0)
(0.0374883 2.38418e-17 0)
(0.0374883 -1.2668e-18 0)
(0.0374883 -4.0723e-17 0)
(0.0374883 -4.88922e-18 0)
(0.0374883 1.71937e-17 0)
(0.0374883 3.25453e-17 0)
(0.0374883 -1.82105e-18 0)
(0.0374883 -4.97295e-17 0)
(0.0374883 1.0787e-18 0)
(0.0374883 4.82807e-17 0)
(0.0374883 1.48292e-18 0)
(0.0374883 -5.39751e-17 0)
(0.0374883 4.05135e-18 0)
(0.0374883 -4.42902e-18 0)
(0.0374883 4.19435e-17 0)
(0.0374883 2.75962e-17 0)
(0.0374883 -7.11442e-17 0)
(0.0374883 6.14172e-18 0)
(0.0374883 -7.96399e-18 0)
(0.0374883 4.24525e-17 0)
(0.0374883 6.50678e-18 0)
(0.0374883 -1.4214e-17 0)
(0.0374883 -2.88328e-17 0)
(0.0374883 8.29335e-18 0)
(0.0374883 3.08342e-17 0)
(0.0374883 -1.08222e-17 0)
(0.0374883 3.25722e-17 0)
(0.0374883 -8.51905e-17 0)
(0.0374883 2.20572e-17 0)
(0.0374883 5.35196e-17 0)
(0.0374883 7.34196e-19 0)
(0.0374883 -1.59051e-17 0)
(0.0374883 -5.8811e-17 0)
(0.0374883 2.83926e-17 0)
(0.0374883 4.1521e-17 0)
(0.0374883 1.29993e-17 0)
(0.0374883 -6.98751e-18 0)
(0.0374883 -5.78651e-17 0)
(0.0374883 -8.81253e-18 0)
(0.0374883 5.90515e-17 0)
(0.0374883 1.27614e-17 0)
(0.0374883 -2.54136e-17 0)
(0.0374883 -4.22349e-17 0)
(0.0374883 1.18946e-18 0)
(0.0374883 6.36242e-17 0)
(0.0374883 6.21744e-20 0)
(0.0374883 -2.50216e-17 0)
(0.0374883 -2.83682e-17 0)
(0.0374883 2.03664e-17 0)
(0.0374883 3.56133e-17 0)
(0.0374883 -1.69147e-17 0)
(0.0374883 -1.82378e-17 0)
(0.0374883 -1.55376e-17 0)
(0.0374883 3.84385e-17 0)
(0.0374883 2.73026e-17 0)
(0.0374883 -1.8469e-17 0)
(0.0374883 -3.05751e-17 0)
(0.0374883 -1.78038e-17 0)
(0.0374883 4.885e-17 0)
(0.0374883 1.47635e-17 0)
(0.0374883 -4.82153e-17 0)
(0.0374883 4.06431e-17 0)
(0.0374883 -9.87397e-18 0)
(0.0374883 -3.44548e-17 0)
(0.0374883 9.87212e-19 0)
(0.0374883 -6.42869e-18 0)
(0.0374883 5.6647e-17 0)
(0.0374883 -1.26896e-17 0)
(0.0374883 -4.53401e-17 0)
(0.0374883 8.31006e-18 0)
(0.0374883 2.5217e-17 0)
(0.0374883 2.86017e-17 0)
(0.0374883 -2.95155e-17 0)
(0.0374883 -3.59541e-17 0)
(0.0374883 2.06953e-17 0)
(0.0374883 2.93233e-18 0)
(0.0374883 6.12231e-17 0)
(0.0374883 -6.41059e-17 0)
(0.0374883 -4.65838e-17 0)
(0.0374883 6.62802e-17 0)
(0.0374883 -1.52835e-17 0)
(0.0374883 5.25186e-17 0)
(0.0374883 -4.54055e-17 0)
(0.0374883 -1.41465e-17 0)
(0.0374883 8.90954e-18 0)
(0.0374883 -4.74122e-17 0)
(0.0374883 8.87848e-17 0)
(0.0374883 -5.59089e-17 0)
(0.0374883 5.57742e-19 0)
(0.0374883 1.51196e-17 0)
(0.0374883 -3.77206e-17 0)
(0.0374883 8.55588e-17 0)
(0.0374883 -5.90077e-17 0)
(0.0374883 7.59121e-18 0)
(0.0374883 -1.21345e-17 0)
(0.0374883 -4.01895e-17 0)
(0.0374883 1.05313e-16 0)
(0.0374883 -7.15584e-17 0)
(0.0374883 9.91792e-19 0)
(0.0374883 1.67716e-17 0)
(0.0374883 -4.82966e-17 0)
(0.0374883 1.01306e-16 0)
(0.0374883 -5.92508e-17 0)
(0.0374883 -2.65274e-18 0)
(0.0374883 6.69781e-17 0)
(0.0374883 -9.5388e-17 0)
(0.0374883 5.01688e-17 0)
(0.0374883 3.57523e-19 0)
(0.0374883 -5.74674e-17 0)
(0.0374883 9.69129e-17 0)
(0.0374883 -4.00111e-17 0)
(0.0374883 5.9365e-18 0)
(0.0374883 -4.99224e-17 0)
(0.0374883 -1.49941e-17 0)
(0.0374883 1.41349e-16 0)
(0.0374883 -8.90796e-17 0)
(0.0374883 3.93502e-18 0)
(0.0374883 -4.77423e-17 0)
(0.0374883 -2.48589e-18 0)
(0.0374883 1.42044e-16 0)
(0.0374883 -8.52266e-17 0)
(0.0374883 -4.74177e-17 0)
(0.0374883 -1.26089e-17 0)
(0.0374883 4.95604e-17 0)
(0.0374883 8.541e-17 0)
(0.0374883 -4.57463e-17 0)
(0.0374883 -8.08247e-17 0)
(0.0374883 -6.23782e-17 0)
(0.0374883 1.62604e-16 0)
(0.0374883 5.14491e-18 0)
(0.0374883 -1.64287e-16 0)
(0.0374883 1.5481e-16 0)
(0.0374883 2.63784e-17 0)
(0.0374883 -8.23869e-17 0)
(0.0374883 -3.41347e-17 0)
(0.0374883 -7.5595e-17 0)
(0.0374883 1.59117e-16 0)
(0.0374883 4.25424e-17 0)
(0.0374883 -9.15309e-17 0)
(0.0374883 -3.55545e-17 0)
(0.0374883 -8.22219e-17 0)
(0.0374883 1.67563e-16 0)
(0.0374883 -5.09404e-18 0)
(0.0374883 -5.61192e-17 0)
(0.0374883 1.87745e-17 0)
(0.0374883 -1.08788e-16 0)
(0.0374883 1.52765e-16 0)
(0.0374883 -1.03444e-17 0)
(0.0374883 -9.35898e-17 0)
(0.0374883 6.10327e-17 0)
(0.0374883 -7.57862e-17 0)
(0.0374883 9.78532e-17 0)
(0.0374883 -6.11427e-18 0)
(0.0374883 -3.52887e-17 0)
(0.0374883 2.46244e-17 0)
(0.0374883 -1.23703e-16 0)
(0.0374883 1.49088e-16 0)
(0.0374883 -1.39504e-17 0)
(0.0374883 -4.45786e-17 0)
(0.0374883 7.32013e-17 0)
(0.0374883 -1.34408e-16 0)
(0.0374883 1.76058e-17 0)
(0.0374883 4.24893e-17 0)
(0.0374883 3.90975e-17 0)
(0.0374883 1.8576e-17 0)
(0.0374883 -1.2205e-16 0)
(0.0374883 8.48527e-17 0)
(0.0374883 -8.84318e-19 0)
(0.0374883 -2.23975e-17 0)
(0.0374883 4.2043e-17 0)
(0.0374883 -1.14838e-16 0)
(0.0374883 1.0066e-16 0)
(0.0374883 -9.73792e-18 0)
(0.0374883 -1.60873e-17 0)
(0.0374883 7.13786e-17 0)
(0.0374883 -1.22878e-16 0)
(0.0374883 5.7711e-17 0)
(0.0374883 -4.61374e-18 0)
(0.0374883 6.10298e-18 0)
(0.0374883 5.9944e-17 0)
(0.0374883 -1.11541e-16 0)
(0.0374883 7.4901e-17 0)
(0.0374883 2.81584e-17 0)
(0.0374883 -4.98886e-17 0)
(0.0374883 1.1543e-17 0)
(0.0374883 -7.25266e-17 0)
(0.0374883 6.72182e-17 0)
(0.0374883 2.9865e-17 0)
(0.0374883 -7.61647e-17 0)
(0.0374883 5.5359e-17 0)
(0.0374883 -3.32987e-17 0)
(0.0374883 2.69386e-17 0)
(0.0374883 3.94571e-17 0)
(0.0374883 -8.75774e-17 0)
(0.0374883 6.58334e-17 0)
(0.0374883 -4.1372e-17 0)
(0.0374883 1.34144e-17 0)
(0.0374883 3.93161e-17 0)
(0.0374883 -8.59442e-17 0)
(0.0374883 6.27828e-17 0)
(0.0374883 -3.31386e-17 0)
(0.0374883 -2.97099e-17 0)
(0.0374883 9.36561e-17 0)
(0.0374883 -4.83739e-17 0)
(0.0374883 -1.02612e-17 0)
(0.0374883 -6.20442e-17 0)
(0.0374883 3.41967e-17 0)
(0.0374883 1.27223e-16 0)
(0.0374883 -8.45406e-18 0)
(0.0374883 -1.22543e-16 0)
(0.0374883 -2.53989e-17 0)
(0.0374883 6.44613e-17 0)
(0.0374883 6.664e-18 0)
(0.0374883 7.87157e-17 0)
(0.0374883 -1.28033e-16 0)
(0.0374883 -2.33682e-17 0)
(0.0374883 5.79998e-17 0)
(0.0374883 4.39421e-18 0)
(0.0374883 5.14178e-17 0)
(0.0374883 -9.79306e-17 0)
(0.0374883 2.29757e-17 0)
(0.0374883 2.92003e-17 0)
(0.0374883 -4.83606e-17 0)
(0.0374883 8.79602e-17 0)
(0.0374883 -6.04421e-17 0)
(0.0374883 -2.69071e-18 0)
(0.0374883 1.77502e-17 0)
(0.0374883 -7.44556e-17 0)
(0.0374883 9.51738e-17 0)
(0.0374883 -3.46434e-17 0)
(0.0374883 -6.22194e-17 0)
(0.0374883 4.82318e-17 0)
(0.0374883 -2.79999e-17 0)
(0.0374883 5.06967e-17 0)
(0.0374883 -7.40821e-17 0)
(0.0374883 -5.26093e-16 0)
(0.11059 -4.41556e-15 0)
(0.11059 -1.1453e-15 0)
(0.11059 -3.75565e-16 0)
(0.11059 -1.69073e-16 0)
(0.11059 -6.91555e-17 0)
(0.11059 -4.5941e-17 0)
(0.11059 -4.4437e-17 0)
(0.11059 -3.38676e-17 0)
(0.11059 -2.61114e-17 0)
(0.11059 -2.85312e-17 0)
(0.11059 -2.68146e-17 0)
(0.11059 -3.4702e-17 0)
(0.11059 -1.19041e-17 0)
(0.11059 -3.28606e-18 0)
(0.11059 -8.70669e-18 0)
(0.11059 3.0617e-17 0)
(0.11059 8.28892e-18 0)
(0.11059 2.81134e-19 0)
(0.11059 -2.11176e-17 0)
(0.11059 -8.77639e-18 0)
(0.11059 1.58834e-17 0)
(0.11059 1.64743e-19 0)
(0.11059 5.77898e-18 0)
(0.11059 -7.71351e-18 0)
(0.11059 -1.80536e-17 0)
(0.11059 -1.03852e-17 0)
(0.11059 3.55227e-17 0)
(0.11059 1.82792e-17 0)
(0.11059 -1.62642e-17 0)
(0.11059 -2.85767e-18 0)
(0.11059 1.39222e-17 0)
(0.11059 3.95693e-17 0)
(0.11059 -3.32723e-19 0)
(0.11059 -3.48128e-17 0)
(0.11059 -1.24526e-17 0)
(0.11059 -1.1553e-17 0)
(0.11059 3.16817e-17 0)
(0.11059 -2.49681e-17 0)
(0.11059 -4.95791e-17 0)
(0.11059 3.82986e-17 0)
(0.11059 -9.47341e-18 0)
(0.11059 2.54749e-18 0)
(0.11059 6.91409e-18 0)
(0.11059 -3.71695e-17 0)
(0.11059 1.66221e-17 0)
(0.11059 -3.03632e-18 0)
(0.11059 2.00629e-17 0)
(0.11059 1.94557e-17 0)
(0.11059 5.1764e-18 0)
(0.11059 4.01309e-18 0)
(0.11059 -4.28501e-17 0)
(0.11059 2.16704e-17 0)
(0.11059 1.45431e-18 0)
(0.11059 1.11383e-17 0)
(0.11059 5.96532e-17 0)
(0.11059 -4.14398e-17 0)
(0.11059 -8.04697e-18 0)
(0.11059 -7.27834e-19 0)
(0.11059 9.34543e-19 0)
(0.11059 3.52195e-17 0)
(0.11059 -7.52765e-17 0)
(0.11059 4.13022e-17 0)
(0.11059 3.16323e-18 0)
(0.11059 -1.2358e-17 0)
(0.11059 4.38039e-17 0)
(0.11059 -5.09801e-17 0)
(0.11059 -2.39192e-18 0)
(0.11059 -3.2067e-18 0)
(0.11059 1.94707e-17 0)
(0.11059 5.08368e-17 0)
(0.11059 -2.49764e-17 0)
(0.11059 -1.48322e-17 0)
(0.11059 -3.78965e-17 0)
(0.11059 -1.88131e-17 0)
(0.11059 9.49501e-17 0)
(0.11059 -6.39408e-17 0)
(0.11059 -8.07903e-17 0)
(0.11059 4.40558e-17 0)
(0.11059 -8.16875e-18 0)
(0.11059 5.6524e-17 0)
(0.11059 -9.52311e-19 0)
(0.11059 -1.16173e-16 0)
(0.11059 -1.66448e-17 0)
(0.11059 2.80264e-17 0)
(0.11059 3.81593e-17 0)
(0.11059 -1.08284e-17 0)
(0.11059 -6.24272e-17 0)
(0.11059 -4.81409e-17 0)
(0.11059 3.79894e-17 0)
(0.11059 1.08595e-16 0)
(0.11059 -2.93723e-17 0)
(0.11059 -8.88096e-17 0)
(0.11059 1.48111e-18 0)
(0.11059 8.17461e-17 0)
(0.11059 9.94826e-18 0)
(0.11059 -1.04169e-16 0)
(0.11059 -2.23811e-17 0)
(0.11059 -2.55461e-17 0)
(0.11059 6.2307e-17 0)
(0.11059 5.71399e-17 0)
(0.11059 -9.21644e-17 0)
(0.11059 3.00195e-17 0)
(0.11059 -5.67066e-17 0)
(0.11059 1.42496e-17 0)
(0.11059 5.94633e-17 0)
(0.11059 8.43307e-18 0)
(0.11059 -8.33276e-17 0)
(0.11059 -3.74143e-17 0)
(0.11059 7.40881e-17 0)
(0.11059 5.12169e-17 0)
(0.11059 6.7615e-17 0)
(0.11059 -1.83238e-16 0)
(0.11059 1.24828e-17 0)
(0.11059 1.57425e-16 0)
(0.11059 3.32068e-17 0)
(0.11059 -1.59647e-17 0)
(0.11059 -1.33513e-16 0)
(0.11059 -3.42194e-17 0)
(0.11059 1.35834e-16 0)
(0.11059 6.04829e-17 0)
(0.11059 -5.14153e-17 0)
(0.11059 -1.36219e-16 0)
(0.11059 -3.58965e-17 0)
(0.11059 1.58979e-16 0)
(0.11059 1.03475e-16 0)
(0.11059 -6.44326e-17 0)
(0.11059 -1.67169e-16 0)
(0.11059 1.29333e-17 0)
(0.11059 1.82839e-16 0)
(0.11059 3.87249e-17 0)
(0.11059 -4.1628e-17 0)
(0.11059 -8.52766e-17 0)
(0.11059 1.62566e-17 0)
(0.11059 1.12014e-16 0)
(0.11059 1.79791e-17 0)
(0.11059 2.67782e-17 0)
(0.11059 -9.82231e-17 0)
(0.11059 -2.26755e-17 0)
(0.11059 1.43789e-16 0)
(0.11059 3.29788e-17 0)
(0.11059 -3.82363e-17 0)
(0.11059 -1.03176e-16 0)
(0.11059 -4.19355e-18 0)
(0.11059 7.86976e-17 0)
(0.11059 5.8182e-18 0)
(0.11059 -2.01007e-17 0)
(0.11059 -9.55843e-17 0)
(0.11059 2.21964e-17 0)
(0.11059 9.30946e-18 0)
(0.11059 3.63797e-17 0)
(0.11059 1.04213e-16 0)
(0.11059 -1.6777e-16 0)
(0.11059 -1.06551e-16 0)
(0.11059 8.42113e-17 0)
(0.11059 7.55241e-17 0)
(0.11059 5.91543e-17 0)
(0.11059 -9.12604e-17 0)
(0.11059 -1.15475e-16 0)
(0.11059 1.57234e-17 0)
(0.11059 5.19578e-17 0)
(0.11059 1.1569e-16 0)
(0.11059 -1.22132e-16 0)
(0.11059 -1.51519e-17 0)
(0.11059 1.21876e-16 0)
(0.11059 -1.59398e-16 0)
(0.11059 4.70841e-17 0)
(0.11059 -2.79499e-17 0)
(0.11059 -1.40456e-16 0)
(0.11059 1.33587e-16 0)
(0.11059 5.8866e-17 0)
(0.11059 -1.03227e-17 0)
(0.11059 -1.49013e-16 0)
(0.11059 -7.8937e-18 0)
(0.11059 7.73591e-17 0)
(0.11059 -2.0024e-17 0)
(0.11059 -2.28485e-17 0)
(0.11059 -5.73031e-17 0)
(0.11059 1.6532e-16 0)
(0.11059 -7.75496e-17 0)
(0.11059 -5.67837e-17 0)
(0.11059 1.5417e-16 0)
(0.11059 -1.77617e-16 0)
(0.11059 -7.10282e-18 0)
(0.11059 8.60582e-17 0)
(0.11059 -1.50224e-17 0)
(0.11059 1.56752e-16 0)
(0.11059 -1.10217e-16 0)
(0.11059 -4.1526e-18 0)
(0.11059 1.53202e-16 0)
(0.11059 -1.1654e-16 0)
(0.11059 4.53102e-17 0)
(0.11059 -1.9038e-17 0)
(0.11059 -1.05491e-16 0)
(0.11059 1.41749e-16 0)
(0.11059 -1.55436e-17 0)
(0.11059 2.64773e-17 0)
(0.11059 -8.37783e-17 0)
(0.11059 -5.54203e-17 0)
(0.11059 1.93672e-16 0)
(0.11059 -8.70399e-17 0)
(0.11059 8.80016e-18 0)
(0.11059 -7.57143e-17 0)
(0.11059 2.31015e-17 0)
(0.11059 2.19842e-16 0)
(0.11059 -4.75286e-17 0)
(0.11059 -1.35325e-16 0)
(0.11059 -1.15474e-16 0)
(0.11059 1.11187e-16 0)
(0.11059 1.20075e-16 0)
(0.11059 -5.27059e-17 0)
(0.11059 -1.01033e-16 0)
(0.11059 -1.25764e-16 0)
(0.11059 3.06708e-16 0)
(0.11059 2.75833e-17 0)
(0.11059 -2.97995e-16 0)
(0.11059 2.23759e-16 0)
(0.11059 -1.10649e-17 0)
(0.11059 -1.01451e-16 0)
(0.11059 -6.21961e-17 0)
(0.11059 -1.86601e-16 0)
(0.11059 2.98451e-16 0)
(0.11059 8.69164e-17 0)
(0.11059 -1.25905e-16 0)
(0.11059 -7.41415e-17 0)
(0.11059 -1.94506e-16 0)
(0.11059 3.02888e-16 0)
(0.11059 2.0564e-17 0)
(0.11059 -9.56647e-17 0)
(0.11059 7.50871e-17 0)
(0.11059 -1.58561e-16 0)
(0.11059 9.16901e-17 0)
(0.11059 -7.96997e-17 0)
(0.11059 1.08298e-18 0)
(0.11059 9.18982e-17 0)
(0.11059 -2.3866e-16 0)
(0.11059 5.59794e-17 0)
(0.11059 2.6526e-17 0)
(0.11059 2.04891e-17 0)
(0.11059 8.63854e-17 0)
(0.11059 -2.1875e-16 0)
(0.11059 9.13782e-17 0)
(0.11059 -5.15914e-17 0)
(0.11059 1.67925e-17 0)
(0.11059 1.35806e-16 0)
(0.11059 -3.20634e-16 0)
(0.11059 3.54066e-17 0)
(0.11059 7.06656e-17 0)
(0.11059 8.56258e-17 0)
(0.11059 4.0433e-17 0)
(0.11059 -2.27245e-16 0)
(0.11059 2.36963e-16 0)
(0.11059 5.38287e-18 0)
(0.11059 -1.22417e-16 0)
(0.11059 -8.21873e-18 0)
(0.11059 -1.84494e-16 0)
(0.11059 3.05674e-16 0)
(0.11059 2.56793e-17 0)
(0.11059 -4.40935e-17 0)
(0.11059 1.21695e-16 0)
(0.11059 -2.53944e-16 0)
(0.11059 1.01622e-16 0)
(0.11059 5.53142e-17 0)
(0.11059 -6.38135e-18 0)
(0.11059 4.22897e-17 0)
(0.11059 -1.4302e-16 0)
(0.11059 1.89112e-16 0)
(0.11059 3.40706e-17 0)
(0.11059 -2.67042e-17 0)
(0.11059 -3.53471e-17 0)
(0.11059 -1.97008e-16 0)
(0.11059 1.26293e-16 0)
(0.11059 -4.77601e-18 0)
(0.11059 8.47564e-17 0)
(0.11059 -5.27138e-18 0)
(0.11059 -1.93824e-16 0)
(0.11059 1.46763e-16 0)
(0.11059 2.31852e-17 0)
(0.11059 -3.05478e-17 0)
(0.11059 1.28135e-16 0)
(0.11059 -1.6175e-16 0)
(0.11059 3.55617e-17 0)
(0.11059 4.26758e-17 0)
(0.11059 6.84719e-18 0)
(0.11059 -1.89639e-18 0)
(0.11059 -2.19217e-16 0)
(0.11059 3.90519e-17 0)
(0.11059 1.18487e-16 0)
(0.11059 5.54064e-17 0)
(0.11059 -1.69586e-16 0)
(0.11059 -1.58602e-16 0)
(0.11059 2.13801e-16 0)
(0.11059 -7.31122e-18 0)
(0.11059 -4.50947e-17 0)
(0.11059 -4.6826e-17 0)
(0.11059 -6.06174e-17 0)
(0.11059 2.26169e-16 0)
(0.11059 -2.72289e-17 0)
(0.11059 -5.98844e-17 0)
(0.11059 -1.04139e-16 0)
(0.11059 -9.02986e-17 0)
(0.11059 2.16525e-16 0)
(0.11059 -6.52461e-18 0)
(0.11059 5.30463e-17 0)
(0.11059 -1.39088e-16 0)
(0.11059 -2.49526e-16 0)
(0.11059 9.58213e-17 0)
(0.11059 6.54097e-17 0)
(0.11059 1.24239e-16 0)
(0.11059 -1.37775e-16 0)
(0.11059 -2.78419e-17 0)
(0.11059 6.07165e-17 0)
(0.11059 -1.51344e-16 0)
(0.11059 1.20213e-16 0)
(0.11059 -3.49542e-17 0)
(0.11059 -1.26891e-16 0)
(0.11059 6.81364e-17 0)
(0.11059 -1.88832e-16 0)
(0.11059 -5.77761e-17 0)
(0.11059 -3.39292e-16 0)
(0.11059 -1.25151e-15 0)
(0.181818 -2.72025e-15 0)
(0.181818 -1.15925e-15 0)
(0.181818 -5.052e-16 0)
(0.181818 -2.40325e-16 0)
(0.181818 -1.07313e-16 0)
(0.181818 -5.83712e-17 0)
(0.181818 -7.40007e-17 0)
(0.181818 -6.41106e-17 0)
(0.181818 -3.70537e-17 0)
(0.181818 -5.5207e-17 0)
(0.181818 -6.30112e-17 0)
(0.181818 -5.88277e-17 0)
(0.181818 -2.13582e-18 0)
(0.181818 -1.24518e-17 0)
(0.181818 -6.86036e-18 0)
(0.181818 6.42816e-17 0)
(0.181818 2.96235e-17 0)
(0.181818 -5.70441e-18 0)
(0.181818 -6.66598e-18 0)
(0.181818 6.57131e-18 0)
(0.181818 2.49858e-17 0)
(0.181818 -1.02926e-18 0)
(0.181818 7.54337e-18 0)
(0.181818 1.27473e-18 0)
(0.181818 -2.24593e-17 0)
(0.181818 -2.81825e-17 0)
(0.181818 4.7228e-17 0)
(0.181818 5.64472e-17 0)
(0.181818 1.27523e-17 0)
(0.181818 -2.57622e-17 0)
(0.181818 3.30102e-17 0)
(0.181818 9.64599e-17 0)
(0.181818 8.26939e-18 0)
(0.181818 -7.23874e-17 0)
(0.181818 -4.85156e-17 0)
(0.181818 -4.68551e-17 0)
(0.181818 4.49328e-17 0)
(0.181818 -1.82175e-17 0)
(0.181818 -8.53442e-17 0)
(0.181818 2.86062e-17 0)
(0.181818 4.6997e-18 0)
(0.181818 3.93673e-18 0)
(0.181818 2.14287e-17 0)
(0.181818 -6.00615e-17 0)
(0.181818 -2.50611e-17 0)
(0.181818 2.18814e-17 0)
(0.181818 4.31257e-17 0)
(0.181818 4.97205e-17 0)
(0.181818 1.86855e-17 0)
(0.181818 -3.40068e-19 0)
(0.181818 -2.473e-17 0)
(0.181818 8.66985e-18 0)
(0.181818 1.29373e-17 0)
(0.181818 3.07748e-17 0)
(0.181818 9.04463e-17 0)
(0.181818 -4.04684e-17 0)
(0.181818 -1.32177e-17 0)
(0.181818 -2.96523e-18 0)
(0.181818 9.40314e-18 0)
(0.181818 3.80899e-17 0)
(0.181818 -1.37624e-16 0)
(0.181818 8.31436e-17 0)
(0.181818 2.02503e-17 0)
(0.181818 -3.62933e-17 0)
(0.181818 9.91647e-17 0)
(0.181818 -9.56736e-17 0)
(0.181818 -1.75089e-17 0)
(0.181818 -7.64905e-18 0)
(0.181818 3.54851e-17 0)
(0.181818 9.54978e-17 0)
(0.181818 -4.15928e-17 0)
(0.181818 -4.91037e-17 0)
(0.181818 -7.69807e-17 0)
(0.181818 1.95504e-17 0)
(0.181818 1.16561e-16 0)
(0.181818 -1.03761e-16 0)
(0.181818 -1.18455e-16 0)
(0.181818 3.10634e-17 0)
(0.181818 -2.91172e-17 0)
(0.181818 5.38297e-17 0)
(0.181818 -2.98052e-17 0)
(0.181818 -1.5669e-16 0)
(0.181818 -1.03239e-17 0)
(0.181818 7.45304e-18 0)
(0.181818 2.3791e-17 0)
(0.181818 -2.61604e-17 0)
(0.181818 -2.02401e-17 0)
(0.181818 -7.11953e-17 0)
(0.181818 -4.4541e-17 0)
(0.181818 1.604e-16 0)
(0.181818 -2.56527e-17 0)
(0.181818 -1.00415e-16 0)
(0.181818 1.41326e-17 0)
(0.181818 5.64278e-17 0)
(0.181818 1.74541e-17 0)
(0.181818 -1.14934e-16 0)
(0.181818 -7.51105e-17 0)
(0.181818 -4.34144e-17 0)
(0.181818 3.05018e-17 0)
(0.181818 5.2123e-17 0)
(0.181818 -3.82131e-17 0)
(0.181818 1.63465e-17 0)
(0.181818 -7.13092e-17 0)
(0.181818 -2.76201e-17 0)
(0.181818 7.90171e-17 0)
(0.181818 9.2246e-17 0)
(0.181818 -1.38633e-16 0)
(0.181818 -1.28735e-16 0)
(0.181818 1.19599e-16 0)
(0.181818 1.76159e-16 0)
(0.181818 7.44972e-17 0)
(0.181818 -2.78723e-16 0)
(0.181818 -2.16152e-19 0)
(0.181818 2.33693e-16 0)
(0.181818 1.34103e-16 0)
(0.181818 1.52817e-17 0)
(0.181818 -2.75024e-16 0)
(0.181818 -1.20503e-16 0)
(0.181818 2.89644e-16 0)
(0.181818 1.8244e-16 0)
(0.181818 -1.61685e-16 0)
(0.181818 -2.80617e-16 0)
(0.181818 -7.06361e-17 0)
(0.181818 3.01708e-16 0)
(0.181818 2.60314e-16 0)
(0.181818 -1.04283e-16 0)
(0.181818 -3.94569e-16 0)
(0.181818 4.78437e-17 0)
(0.181818 3.49462e-16 0)
(0.181818 9.72612e-17 0)
(0.181818 -3.50008e-17 0)
(0.181818 -1.84226e-16 0)
(0.181818 7.02709e-18 0)
(0.181818 2.58141e-16 0)
(0.181818 6.84183e-17 0)
(0.181818 -2.45523e-17 0)
(0.181818 -1.54698e-16 0)
(0.181818 -5.10948e-19 0)
(0.181818 2.78627e-16 0)
(0.181818 5.84196e-17 0)
(0.181818 -1.46587e-16 0)
(0.181818 -1.72394e-16 0)
(0.181818 5.76789e-17 0)
(0.181818 9.50249e-17 0)
(0.181818 -6.03207e-17 0)
(0.181818 -5.36018e-17 0)
(0.181818 -1.05975e-16 0)
(0.181818 7.82842e-17 0)
(0.181818 2.77949e-17 0)
(0.181818 -5.65732e-17 0)
(0.181818 1.34656e-16 0)
(0.181818 -1.25369e-16 0)
(0.181818 -1.66125e-16 0)
(0.181818 5.26261e-17 0)
(0.181818 1.07739e-16 0)
(0.181818 1.15358e-16 0)
(0.181818 -1.44963e-16 0)
(0.181818 -2.26268e-16 0)
(0.181818 -2.21079e-17 0)
(0.181818 1.21015e-16 0)
(0.181818 1.69919e-16 0)
(0.181818 -1.767e-16 0)
(0.181818 -8.35924e-17 0)
(0.181818 1.62935e-16 0)
(0.181818 -1.10764e-16 0)
(0.181818 -2.29087e-17 0)
(0.181818 -6.29889e-17 0)
(0.181818 -8.80088e-17 0)
(0.181818 7.53491e-17 0)
(0.181818 3.40141e-17 0)
(0.181818 -5.56502e-17 0)
(0.181818 -2.14845e-16 0)
(0.181818 -1.6742e-17 0)
(0.181818 1.72151e-16 0)
(0.181818 9.83338e-17 0)
(0.181818 -1.03505e-16 0)
(0.181818 -1.59084e-16 0)
(0.181818 7.24781e-17 0)
(0.181818 -3.41453e-17 0)
(0.181818 1.43079e-16 0)
(0.181818 1.08374e-16 0)
(0.181818 -3.44223e-16 0)
(0.181818 -1.81767e-17 0)
(0.181818 2.29044e-16 0)
(0.181818 9.75776e-17 0)
(0.181818 1.66822e-16 0)
(0.181818 -1.41681e-16 0)
(0.181818 -4.42945e-17 0)
(0.181818 2.27894e-16 0)
(0.181818 -1.84526e-17 0)
(0.181818 -2.77509e-17 0)
(0.181818 -3.50013e-17 0)
(0.181818 -1.09214e-16 0)
(0.181818 7.98307e-17 0)
(0.181818 8.95446e-17 0)
(0.181818 5.40229e-17 0)
(0.181818 -8.58955e-17 0)
(0.181818 -9.19665e-17 0)
(0.181818 1.06523e-16 0)
(0.181818 3.35557e-17 0)
(0.181818 3.08049e-17 0)
(0.181818 -5.15092e-17 0)
(0.181818 4.63593e-17 0)
(0.181818 1.56922e-16 0)
(0.181818 -6.23468e-18 0)
(0.181818 -8.11915e-17 0)
(0.181818 -1.3837e-16 0)
(0.181818 2.8379e-17 0)
(0.181818 6.14035e-17 0)
(0.181818 -1.04365e-17 0)
(0.181818 -3.22449e-17 0)
(0.181818 -1.82123e-16 0)
(0.181818 3.97936e-16 0)
(0.181818 6.65643e-17 0)
(0.181818 -3.69351e-16 0)
(0.181818 2.25552e-16 0)
(0.181818 -1.57196e-16 0)
(0.181818 -4.62395e-17 0)
(0.181818 -6.91101e-17 0)
(0.181818 -3.49475e-16 0)
(0.181818 4.43268e-16 0)
(0.181818 9.44782e-17 0)
(0.181818 -8.95837e-17 0)
(0.181818 -7.51223e-17 0)
(0.181818 -3.57489e-16 0)
(0.181818 4.35517e-16 0)
(0.181818 6.99119e-17 0)
(0.181818 -1.38737e-16 0)
(0.181818 7.17854e-18 0)
(0.181818 -3.12907e-16 0)
(0.181818 2.93877e-16 0)
(0.181818 -4.76031e-17 0)
(0.181818 -1.46913e-16 0)
(0.181818 7.84797e-17 0)
(0.181818 -3.72863e-16 0)
(0.181818 4.66608e-17 0)
(0.181818 -9.47058e-17 0)
(0.181818 1.64392e-16 0)
(0.181818 2.42673e-16 0)
(0.181818 -4.5064e-16 0)
(0.181818 9.2335e-17 0)
(0.181818 -1.45033e-16 0)
(0.181818 8.73904e-17 0)
(0.181818 2.24766e-16 0)
(0.181818 -6.28621e-16 0)
(0.181818 7.20395e-17 0)
(0.181818 1.12671e-16 0)
(0.181818 1.35968e-16 0)
(0.181818 6.75052e-17 0)
(0.181818 -3.62325e-16 0)
(0.181818 5.39615e-16 0)
(0.181818 3.67117e-17 0)
(0.181818 -3.49438e-16 0)
(0.181818 -1.91526e-16 0)
(0.181818 -2.45075e-16 0)
(0.181818 7.252e-16 0)
(0.181818 4.85084e-17 0)
(0.181818 -1.37565e-16 0)
(0.181818 1.69951e-16 0)
(0.181818 -3.90923e-16 0)
(0.181818 2.22871e-16 0)
(0.181818 4.80455e-17 0)
(0.181818 5.39009e-17 0)
(0.181818 5.14191e-17 0)
(0.181818 -2.70978e-16 0)
(0.181818 4.1249e-16 0)
(0.181818 1.07652e-18 0)
(0.181818 -9.17358e-17 0)
(0.181818 2.55084e-17 0)
(0.181818 -3.69398e-16 0)
(0.181818 1.90773e-16 0)
(0.181818 1.55452e-17 0)
(0.181818 6.87635e-17 0)
(0.181818 1.03721e-16 0)
(0.181818 -3.44175e-16 0)
(0.181818 2.48283e-16 0)
(0.181818 5.72114e-17 0)
(0.181818 3.85922e-17 0)
(0.181818 1.69281e-16 0)
(0.181818 -3.81957e-16 0)
(0.181818 1.13595e-16 0)
(0.181818 -1.07484e-17 0)
(0.181818 1.25648e-17 0)
(0.181818 8.7521e-17 0)
(0.181818 -4.22727e-16 0)
(0.181818 1.16986e-16 0)
(0.181818 1.78285e-16 0)
(0.181818 -1.30353e-16 0)
(0.181818 -1.6527e-16 0)
(0.181818 -2.64755e-16 0)
(0.181818 2.63896e-16 0)
(0.181818 1.28718e-16 0)
(0.181818 -1.60131e-16 0)
(0.181818 4.37016e-17 0)
(0.181818 -1.20825e-16 0)
(0.181818 1.1584e-16 0)
(0.181818 2.27141e-16 0)
(0.181818 -1.48824e-16 0)
(0.181818 -1.26297e-16 0)
(0.181818 -2.34576e-16 0)
(0.181818 1.51767e-16 0)
(0.181818 3.22674e-16 0)
(0.181818 -7.96344e-19 0)
(0.181818 -4.35875e-16 0)
(0.181818 -2.40872e-16 0)
(0.181818 2.07753e-16 0)
(0.181818 6.34585e-17 0)
(0.181818 1.11581e-16 0)
(0.181818 -2.49246e-16 0)
(0.181818 -1.50691e-17 0)
(0.181818 1.44283e-16 0)
(0.181818 -2.12844e-16 0)
(0.181818 1.25417e-16 0)
(0.181818 -9.27374e-18 0)
(0.181818 -1.41504e-16 0)
(0.181818 -2.73e-17 0)
(0.181818 -2.39912e-16 0)
(0.181818 5.07775e-17 0)
(0.181818 -4.63663e-16 0)
(0.181818 -1.31344e-15 0)
(0.251172 -1.8102e-15 0)
(0.251172 -1.05737e-15 0)
(0.251172 -5.43821e-16 0)
(0.251172 -2.79265e-16 0)
(0.251172 -1.49854e-16 0)
(0.251172 -7.71961e-17 0)
(0.251172 -8.68464e-17 0)
(0.251172 -8.50478e-17 0)
(0.251172 -5.25722e-17 0)
(0.251172 -9.0856e-17 0)
(0.251172 -1.18693e-16 0)
(0.251172 -6.733e-17 0)
(0.251172 5.60449e-18 0)
(0.251172 -5.02512e-18 0)
(0.251172 -8.86016e-18 0)
(0.251172 8.23464e-17 0)
(0.251172 6.8676e-17 0)
(0.251172 1.3388e-17 0)
(0.251172 3.72599e-17 0)
(0.251172 1.64795e-17 0)
(0.251172 3.98579e-17 0)
(0.251172 5.42282e-17 0)
(0.251172 8.5547e-18 0)
(0.251172 -1.9272e-17 0)
(0.251172 -6.18346e-17 0)
(0.251172 -3.36114e-17 0)
(0.251172 1.02054e-16 0)
(0.251172 9.96183e-17 0)
(0.251172 2.02926e-17 0)
(0.251172 -1.34042e-17 0)
(0.251172 5.61357e-17 0)
(0.251172 1.22025e-16 0)
(0.251172 2.37604e-17 0)
(0.251172 -9.19608e-17 0)
(0.251172 -1.00259e-16 0)
(0.251172 -7.59503e-17 0)
(0.251172 5.07555e-17 0)
(0.251172 -2.34404e-18 0)
(0.251172 -1.25654e-16 0)
(0.251172 1.31251e-18 0)
(0.251172 2.15154e-17 0)
(0.251172 5.61775e-18 0)
(0.251172 1.11134e-17 0)
(0.251172 -7.59492e-17 0)
(0.251172 -3.39239e-17 0)
(0.251172 2.80661e-17 0)
(0.251172 6.21728e-17 0)
(0.251172 9.22781e-17 0)
(0.251172 4.00276e-17 0)
(0.251172 -8.0279e-19 0)
(0.251172 -2.93787e-17 0)
(0.251172 4.87454e-17 0)
(0.251172 4.54381e-17 0)
(0.251172 2.33806e-17 0)
(0.251172 1.14705e-16 0)
(0.251172 -3.45171e-17 0)
(0.251172 -1.41487e-17 0)
(0.251172 -4.40492e-19 0)
(0.251172 -4.64755e-18 0)
(0.251172 3.46907e-17 0)
(0.251172 -1.8035e-16 0)
(0.251172 7.01255e-17 0)
(0.251172 7.20507e-17 0)
(0.251172 2.4454e-18 0)
(0.251172 7.12615e-17 0)
(0.251172 -1.15625e-16 0)
(0.251172 5.96747e-19 0)
(0.251172 -1.61377e-17 0)
(0.251172 4.78446e-17 0)
(0.251172 1.4372e-16 0)
(0.251172 -8.89739e-17 0)
(0.251172 -8.94059e-17 0)
(0.251172 -9.77001e-17 0)
(0.251172 -1.43876e-18 0)
(0.251172 1.57875e-16 0)
(0.251172 -1.23106e-16 0)
(0.251172 -1.37501e-16 0)
(0.251172 1.67328e-18 0)
(0.251172 -7.87054e-17 0)
(0.251172 6.73643e-17 0)
(0.251172 -7.8162e-17 0)
(0.251172 -2.19232e-16 0)
(0.251172 -2.75597e-17 0)
(0.251172 1.66228e-17 0)
(0.251172 3.4958e-17 0)
(0.251172 -8.33231e-17 0)
(0.251172 -4.13536e-17 0)
(0.251172 -5.16914e-17 0)
(0.251172 -6.66081e-17 0)
(0.251172 1.54949e-16 0)
(0.251172 3.07266e-18 0)
(0.251172 -1.01622e-16 0)
(0.251172 -3.14371e-17 0)
(0.251172 5.8427e-17 0)
(0.251172 2.73731e-17 0)
(0.251172 -1.80757e-16 0)
(0.251172 -1.03446e-16 0)
(0.251172 -5.66156e-17 0)
(0.251172 1.14349e-17 0)
(0.251172 6.64794e-17 0)
(0.251172 -1.45579e-17 0)
(0.251172 -6.54354e-18 0)
(0.251172 -1.35124e-16 0)
(0.251172 -4.27794e-17 0)
(0.251172 1.70983e-16 0)
(0.251172 1.18231e-16 0)
(0.251172 -2.04881e-16 0)
(0.251172 -1.85369e-16 0)
(0.251172 1.79107e-16 0)
(0.251172 2.78864e-16 0)
(0.251172 8.19798e-17 0)
(0.251172 -3.54191e-16 0)
(0.251172 -1.50388e-18 0)
(0.251172 3.1997e-16 0)
(0.251172 2.37677e-16 0)
(0.251172 3.98143e-17 0)
(0.251172 -4.17617e-16 0)
(0.251172 -1.83209e-16 0)
(0.251172 4.19127e-16 0)
(0.251172 3.15341e-16 0)
(0.251172 -2.4701e-16 0)
(0.251172 -4.34464e-16 0)
(0.251172 -4.91194e-17 0)
(0.251172 3.99217e-16 0)
(0.251172 3.08457e-16 0)
(0.251172 -1.05964e-16 0)
(0.251172 -4.20197e-16 0)
(0.251172 3.13247e-17 0)
(0.251172 4.82579e-16 0)
(0.251172 1.37467e-16 0)
(0.251172 -7.91015e-17 0)
(0.251172 -1.63399e-16 0)
(0.251172 -2.75243e-17 0)
(0.251172 3.35625e-16 0)
(0.251172 1.75429e-16 0)
(0.251172 -1.6152e-17 0)
(0.251172 -2.37538e-16 0)
(0.251172 -2.50522e-17 0)
(0.251172 4.11951e-16 0)
(0.251172 1.00661e-16 0)
(0.251172 -2.19624e-16 0)
(0.251172 -2.84982e-16 0)
(0.251172 1.04888e-16 0)
(0.251172 1.27751e-16 0)
(0.251172 -3.81858e-17 0)
(0.251172 -3.58701e-17 0)
(0.251172 -2.83903e-16 0)
(0.251172 7.23768e-17 0)
(0.251172 9.16677e-17 0)
(0.251172 -4.08399e-17 0)
(0.251172 8.84733e-17 0)
(0.251172 -2.33209e-16 0)
(0.251172 -1.1864e-16 0)
(0.251172 1.07329e-16 0)
(0.251172 1.4858e-16 0)
(0.251172 7.30591e-17 0)
(0.251172 -2.51572e-16 0)
(0.251172 -2.87352e-16 0)
(0.251172 1.23846e-17 0)
(0.251172 1.46229e-16 0)
(0.251172 1.76725e-16 0)
(0.251172 -2.80689e-16 0)
(0.251172 -6.15214e-17 0)
(0.251172 2.35119e-16 0)
(0.251172 -1.88469e-16 0)
(0.251172 -5.60471e-17 0)
(0.251172 -1.01315e-16 0)
(0.251172 -1.0112e-16 0)
(0.251172 8.26101e-17 0)
(0.251172 5.71484e-17 0)
(0.251172 -9.71845e-17 0)
(0.251172 -3.39931e-16 0)
(0.251172 -5.7629e-17 0)
(0.251172 3.34504e-16 0)
(0.251172 1.12836e-16 0)
(0.251172 -1.42675e-16 0)
(0.251172 -1.92175e-16 0)
(0.251172 7.60244e-18 0)
(0.251172 -2.30083e-17 0)
(0.251172 1.80641e-16 0)
(0.251172 1.47748e-16 0)
(0.251172 -3.88823e-16 0)
(0.251172 2.84563e-17 0)
(0.251172 3.26974e-16 0)
(0.251172 1.30066e-16 0)