/*--------------------------------*- C++ -*----------------------------------*\
| =========                 |                                                 |
| \\      /  F ield         | OpenFOAM: The Open Source CFD Toolbox           |
|  \\    /   O peration     | Version:  2112                                  |
|   \\  /    A nd           | Website:  www.openfoam.com                      |
|    \\/     M anipulation  |                                                 |
\*---------------------------------------------------------------------------*/
FoamFile
{
    version     2.0;
    format      ascii;
    arch        "LSB;label=32;scalar=64";
    class       volVectorField;
    location    "8";
    object      U;
}
// * * * * * * * * * * * * * * * * * * * * * * * * * * * * * * * * * * * * * //

dimensions      [0 1 -1 0 0 0 0];

internalField   nonuniform List<vector> 
50000
(
(0.0300893 -2.14578e-15 0)
(0.0300893 -4.59516e-16 0)
(0.0300893 -4.58763e-17 0)
(0.0300893 -6.25697e-18 0)
(0.0300893 -3.37561e-18 0)
(0.0300893 -2.06632e-18 0)
(0.0300893 -1.49771e-18 0)
(0.0300893 -2.51216e-18 0)
(0.0300893 -1.50767e-18 0)
(0.0300893 2.53337e-18 0)
(0.0300893 -1.37884e-18 0)
(0.0300893 -5.29155e-18 0)
(0.0300893 -7.89554e-19 0)
(0.0300893 -5.31875e-19 0)
(0.0300893 4.5605e-18 0)
(0.0300893 -5.48895e-18 0)
(0.0300893 -8.12052e-18 0)
(0.0300893 -1.13975e-19 0)
(0.0300893 -1.53861e-18 0)
(0.0300893 -3.01753e-18 0)
(0.0300893 5.6902e-18 0)
(0.0300893 3.82502e-18 0)
(0.0300893 1.4291e-18 0)
(0.0300893 1.9079e-18 0)
(0.0300893 -5.05966e-18 0)
(0.0300893 -3.74201e-18 0)
(0.0300893 3.93772e-19 0)
(0.0300893 1.16574e-17 0)
(0.0300893 -7.69347e-18 0)
(0.0300893 -2.95361e-19 0)
(0.0300893 4.05841e-18 0)
(0.0300893 -1.03088e-17 0)
(0.0300893 -2.22306e-18 0)
(0.0300893 5.10511e-18 0)
(0.0300893 -3.87415e-18 0)
(0.0300893 6.89666e-18 0)
(0.0300893 -6.30241e-18 0)
(0.0300893 -2.87144e-18 0)
(0.0300893 4.66457e-18 0)
(0.0300893 -1.17322e-17 0)
(0.0300893 3.04803e-18 0)
(0.0300893 -5.85435e-18 0)
(0.0300893 1.28213e-17 0)
(0.0300893 5.38506e-18 0)
(0.0300893 -1.55297e-17 0)
(0.0300893 5.6284e-18 0)
(0.0300893 1.41244e-17 0)
(0.0300893 -1.11054e-17 0)
(0.0300893 -9.83574e-18 0)
(0.0300893 8.54171e-18 0)
(0.0300893 3.65299e-18 0)
(0.0300893 1.25756e-17 0)
(0.0300893 -1.4759e-17 0)
(0.0300893 -1.00479e-17 0)
(0.0300893 1.25538e-17 0)
(0.0300893 -6.23206e-18 0)
(0.0300893 1.86384e-17 0)
(0.0300893 -1.005e-17 0)
(0.0300893 -1.60329e-17 0)
(0.0300893 9.86803e-18 0)
(0.0300893 5.44408e-18 0)
(0.0300893 -1.05141e-17 0)
(0.0300893 -2.70781e-18 0)
(0.0300893 1.13803e-17 0)
(0.0300893 -2.2542e-17 0)
(0.0300893 1.56854e-18 0)
(0.0300893 5.66159e-18 0)
(0.0300893 9.03317e-18 0)
(0.0300893 8.05555e-18 0)
(0.0300893 -1.23191e-17 0)
(0.0300893 -1.15939e-17 0)
(0.0300893 9.98743e-19 0)
(0.0300893 2.361e-17 0)
(0.0300893 -1.30503e-17 0)
(0.0300893 -1.82576e-17 0)
(0.0300893 3.42966e-17 0)
(0.0300893 6.62457e-18 0)
(0.0300893 -2.75442e-17 0)
(0.0300893 -5.38855e-18 0)
(0.0300893 1.61764e-17 0)
(0.0300893 1.5658e-18 0)
(0.0300893 -8.94669e-18 0)
(0.0300893 3.63949e-19 0)
(0.0300893 1.10117e-17 0)
(0.0300893 -2.27791e-17 0)
(0.0300893 1.05512e-17 0)
(0.0300893 1.89536e-17 0)
(0.0300893 -1.50763e-17 0)
(0.0300893 -2.51704e-18 0)
(0.0300893 -1.11601e-17 0)
(0.0300893 9.07539e-18 0)
(0.0300893 1.93296e-17 0)
(0.0300893 -1.21921e-17 0)
(0.0300893 3.11214e-18 0)
(0.0300893 1.09432e-17 0)
(0.0300893 -4.24645e-17 0)
(0.0300893 9.73832e-18 0)
(0.0300893 3.33426e-17 0)
(0.0300893 -1.73399e-17 0)
(0.0300893 -8.2189e-18 0)
(0.0300893 1.18312e-17 0)
(0.0300893 2.70604e-17 0)
(0.0300893 -2.15515e-17 0)
(0.0300893 -2.67501e-17 0)
(0.0300893 4.12727e-17 0)
(0.0300893 -1.35342e-17 0)
(0.0300893 -2.25102e-17 0)
(0.0300893 1.23288e-17 0)
(0.0300893 7.84539e-18 0)
(0.0300893 3.05893e-17 0)
(0.0300893 -2.72798e-17 0)
(0.0300893 -2.49656e-17 0)
(0.0300893 1.71114e-17 0)
(0.0300893 7.93771e-18 0)
(0.0300893 2.57384e-17 0)
(0.0300893 -7.83635e-18 0)
(0.0300893 -4.63917e-17 0)
(0.0300893 9.33726e-18 0)
(0.0300893 2.62014e-17 0)
(0.0300893 -4.61392e-18 0)
(0.0300893 -3.88522e-18 0)
(0.0300893 2.53415e-18 0)
(0.0300893 2.80114e-17 0)
(0.0300893 -2.61215e-18 0)
(0.0300893 -4.78784e-17 0)
(0.0300893 2.87415e-17 0)
(0.0300893 2.51454e-17 0)
(0.0300893 -2.74862e-17 0)
(0.0300893 1.54416e-18 0)
(0.0300893 2.21464e-18 0)
(0.0300893 -1.53214e-17 0)
(0.0300893 -1.86334e-18 0)
(0.0300893 3.15572e-17 0)
(0.0300893 -5.16561e-18 0)
(0.0300893 -9.59793e-18 0)
(0.0300893 5.42745e-18 0)
(0.0300893 1.52395e-17 0)
(0.0300893 -2.68067e-17 0)
(0.0300893 1.11323e-17 0)
(0.0300893 2.83627e-17 0)
(0.0300893 -3.82944e-17 0)
(0.0300893 -3.43534e-17 0)
(0.0300893 1.20316e-17 0)
(0.0300893 3.91734e-17 0)
(0.0300893 -1.86553e-17 0)
(0.0300893 -2.32474e-18 0)
(0.0300893 4.58368e-17 0)
(0.0300893 -2.91995e-17 0)
(0.0300893 -3.70427e-17 0)
(0.0300893 3.40329e-17 0)
(0.0300893 -7.31336e-18 0)
(0.0300893 5.33551e-18 0)
(0.0300893 3.46773e-17 0)
(0.0300893 -4.15266e-17 0)
(0.0300893 2.43018e-19 0)
(0.0300893 3.06316e-17 0)
(0.0300893 -5.61956e-17 0)
(0.0300893 -2.07768e-17 0)
(0.0300893 3.87617e-17 0)
(0.0300893 5.61443e-17 0)
(0.0300893 -3.3014e-17 0)
(0.0300893 -5.55617e-18 0)
(0.0300893 -1.24689e-18 0)
(0.0300893 -4.63461e-18 0)
(0.0300893 -6.24843e-18 0)
(0.0300893 -4.90257e-18 0)
(0.0300893 1.0446e-17 0)
(0.0300893 -5.5185e-17 0)
(0.0300893 7.44863e-17 0)
(0.0300893 1.50298e-17 0)
(0.0300893 -7.95991e-17 0)
(0.0300893 6.54322e-17 0)
(0.0300893 3.33384e-17 0)
(0.0300893 -6.88963e-17 0)
(0.0300893 1.05367e-17 0)
(0.0300893 3.42161e-18 0)
(0.0300893 9.90381e-18 0)
(0.0300893 -1.14586e-17 0)
(0.0300893 -9.58348e-18 0)
(0.0300893 4.14109e-17 0)
(0.0300893 -4.22069e-17 0)
(0.0300893 -7.81079e-18 0)
(0.0300893 3.07223e-17 0)
(0.0300893 -2.86111e-17 0)
(0.0300893 4.8837e-17 0)
(0.0300893 -4.30861e-18 0)
(0.0300893 -5.62805e-17 0)
(0.0300893 3.91402e-17 0)
(0.0300893 1.0935e-18 0)
(0.0300893 -2.10229e-17 0)
(0.0300893 -1.00147e-17 0)
(0.0300893 -3.40505e-18 0)
(0.0300893 -4.04593e-17 0)
(0.0300893 4.05274e-17 0)
(0.0300893 4.17325e-17 0)
(0.0300893 -3.06215e-17 0)
(0.0300893 9.88023e-18 0)
(0.0300893 3.95983e-17 0)
(0.0300893 -5.8231e-17 0)
(0.0300893 -4.19647e-17 0)
(0.0300893 5.2532e-17 0)
(0.0300893 -2.4374e-17 0)
(0.0300893 1.29554e-17 0)
(0.0300893 1.79316e-18 0)
(0.0300893 4.77309e-17 0)
(0.0300893 -2.22121e-17 0)
(0.0300893 -6.60698e-17 0)
(0.0300893 2.43097e-17 0)
(0.0300893 8.10552e-18 0)
(0.0300893 5.41662e-18 0)
(0.0300893 4.33676e-17 0)
(0.0300893 -4.08808e-17 0)
(0.0300893 -5.30713e-17 0)
(0.0300893 9.60396e-17 0)
(0.0300893 -5.44529e-17 0)
(0.0300893 -3.71491e-17 0)
(0.0300893 3.09087e-17 0)
(0.0300893 -8.875e-18 0)
(0.0300893 1.76781e-17 0)
(0.0300893 4.58215e-17 0)
(0.0300893 -5.31944e-18 0)
(0.0300893 -4.87803e-17 0)
(0.0300893 -3.04629e-17 0)
(0.0300893 -2.57576e-18 0)
(0.0300893 4.20735e-17 0)
(0.0300893 -4.8158e-17 0)
(0.0300893 3.77708e-17 0)
(0.0300893 4.52842e-17 0)
(0.0300893 -2.9671e-17 0)
(0.0300893 3.82465e-17 0)
(0.0300893 4.61296e-18 0)
(0.0300893 -8.97147e-17 0)
(0.0300893 3.63906e-17 0)
(0.0300893 5.29753e-18 0)
(0.0300893 -5.523e-17 0)
(0.0300893 5.10936e-17 0)
(0.0300893 5.10514e-18 0)
(0.0300893 4.39827e-17 0)
(0.0300893 -4.15145e-17 0)
(0.0300893 -1.70452e-18 0)
(0.0300893 4.59856e-18 0)
(0.0300893 -4.70847e-17 0)
(0.0300893 3.69498e-17 0)
(0.0300893 6.19145e-17 0)
(0.0300893 -4.83196e-17 0)
(0.0300893 -4.04223e-18 0)
(0.0300893 4.83339e-17 0)
(0.0300893 -5.64977e-17 0)
(0.0300893 7.98089e-18 0)
(0.0300893 -3.13647e-17 0)
(0.0300893 -6.38504e-18 0)
(0.0300893 -5.27811e-18 0)
(0.0300893 9.4855e-17 0)
(0.0300893 -3.15786e-19 0)
(0.0300893 -5.19565e-17 0)
(0.0300893 4.8452e-17 0)
(0.0300893 -4.253e-17 0)
(0.0300893 -4.56845e-17 0)
(0.0300893 5.04572e-17 0)
(0.0300893 -2.3891e-17 0)
(0.0300893 1.03429e-18 0)
(0.0300893 6.99375e-17 0)
(0.0300893 -1.00119e-16 0)
(0.0300893 5.43695e-17 0)
(0.0300893 -1.97614e-17 0)
(0.0300893 -2.89596e-17 0)
(0.0300893 4.66478e-17 0)
(0.0300893 -6.06795e-17 0)
(0.0300893 2.04082e-17 0)
(0.0300893 1.4179e-16 0)
(0.0300893 -1.07935e-16 0)
(0.0300893 -5.84943e-17 0)
(0.0300893 6.38091e-17 0)
(0.0300893 -6.58024e-17 0)
(0.0300893 8.96058e-17 0)
(0.0300893 -8.11919e-17 0)
(0.0300893 -1.07879e-17 0)
(0.0300893 8.3022e-17 0)
(0.0300893 1.26397e-17 0)
(0.0300893 -4.15035e-17 0)
(0.0300893 -4.44322e-18 0)
(0.0300893 -1.16372e-17 0)
(0.0300893 8.92191e-18 0)
(0.0300893 3.03085e-17 0)
(0.0300893 -8.58221e-17 0)
(0.0300893 1.07439e-16 0)
(0.0300893 -2.25433e-17 0)
(0.0300893 -8.41125e-17 0)
(0.0300893 7.16943e-17 0)
(0.0300893 4.82262e-17 0)
(0.0300893 -8.22777e-17 0)
(0.0300893 -2.72685e-17 0)
(0.0300893 5.95772e-17 0)
(0.0300893 -2.80177e-17 0)
(0.0300893 7.92044e-17 0)
(0.0300893 4.62197e-17 0)
(0.0300893 -1.62066e-16 0)
(0.0300893 2.16053e-17 0)
(0.0300893 4.09601e-17 0)
(0.0300893 -7.12438e-17 0)
(0.0300893 6.97786e-17 0)
(0.0300893 -4.27234e-17 0)
(0.0300893 2.31818e-17 0)
(0.0300893 1.3131e-16 0)
(0.0300893 -9.84463e-17 0)
(0.0300893 -7.89405e-17 0)
(0.0300893 1.13801e-16 0)
(0.0300893 -5.1747e-17 0)
(0.0300893 -6.35645e-17 0)
(0.0300893 6.98974e-17 0)
(0.0300893 5.92217e-17 0)
(0.0300893 -6.77606e-17 0)
(0.0300893 1.00415e-17 0)
(0.0300893 1.006e-17 0)
(0.0300893 -5.7677e-17 0)
(0.0300893 8.64708e-17 0)
(0.0300893 -9.54246e-17 0)
(0.0300893 -1.79369e-18 0)
(0.0300893 7.9048e-17 0)
(0.0300893 1.52476e-17 0)
(0.0300893 1.26382e-17 0)
(0.0300893 -9.36902e-18 0)
(0.0300893 -9.18985e-17 0)
(0.0300893 -3.96284e-17 0)
(0.0300893 1.41735e-16 0)
(0.0300893 -9.94178e-17 0)
(0.0300893 -7.69476e-18 0)
(0.0300893 3.65598e-17 0)
(0.0300893 5.46733e-17 0)
(0.0300893 6.19153e-17 0)
(0.0300893 -1.6351e-16 0)
(0.0300893 -5.33921e-20 0)
(0.0300893 1.06876e-16 0)
(0.0300893 -1.12214e-16 0)
(0.0300893 6.68565e-18 0)
(0.0300893 1.58435e-16 0)
(0.0300893 -1.59614e-16 0)
(0.0300893 6.35457e-17 0)
(0.0300893 1.03002e-16 0)
(0.0300893 -1.54428e-16 0)
(0.0300893 1.07497e-17 0)
(0.0300893 6.61167e-17 0)
(0.0300893 -8.67015e-17 0)
(0.0300893 9.29888e-18 0)
(0.0300893 1.31865e-16 0)
(0.0300893 -4.06207e-17 0)
(0.0300893 -3.79512e-17 0)
(0.0300893 -1.6715e-17 0)
(0.0300893 -4.22889e-17 0)
(0.0300893 1.97922e-17 0)
(0.0300893 6.16828e-17 0)
(0.0300893 -9.64453e-17 0)
(0.0300893 6.46776e-18 0)
(0.0300893 1.36631e-16 0)
(0.0300893 -3.97572e-17 0)
(0.0300893 -4.32676e-17 0)
(0.0300893 -5.52818e-17 0)
(0.0300893 -3.39618e-18 0)
(0.0300893 8.594e-17 0)
(0.0300893 -9.68878e-17 0)
(0.0300893 8.05064e-17 0)
(0.0300893 1.45812e-17 0)
(0.0300893 -9.33184e-17 0)
(0.0300893 1.26957e-16 0)
(0.0300893 -6.73436e-17 0)
(0.0300893 -4.18271e-17 0)
(0.0300893 4.93591e-17 0)
(0.0300893 3.4325e-17 0)
(0.0300893 -1.04296e-16 0)
(0.0300893 7.19688e-17 0)
(0.0300893 8.49034e-17 0)
(0.0300893 -1.00944e-16 0)
(0.0300893 -3.15961e-17 0)
(0.0300893 -8.65587e-19 0)
(0.0300893 5.26883e-17 0)
(0.0300893 -1.82604e-17 0)
(0.0300893 5.19143e-17 0)
(0.0300893 -8.95137e-17 0)
(0.0300893 6.43522e-17 0)
(0.0300893 7.48615e-17 0)
(0.0300893 -1.01711e-16 0)
(0.0300893 -4.261e-17 0)
(0.0300893 5.33619e-17 0)
(0.0300893 3.82111e-18 0)
(0.0300893 -2.84903e-17 0)
(0.0300893 5.04052e-17 0)
(0.0300893 -1.06935e-16 0)
(0.0300893 1.1587e-16 0)
(0.0300893 2.28439e-17 0)
(0.0300893 -8.57161e-17 0)
(0.0300893 1.73155e-17 0)
(0.0300893 4.13504e-18 0)
(0.0300893 6.61843e-18 0)
(0.0300893 -2.83097e-17 0)
(0.0300893 4.54911e-17 0)
(0.0300893 9.68965e-17 0)
(0.0300893 -3.80065e-17 0)
(0.0300893 -1.62628e-16 0)
(0.0300893 3.81289e-18 0)
(0.0300893 7.52332e-17 0)
(0.0300893 2.39816e-18 0)
(0.0300893 1.25035e-16 0)
(0.0300893 -1.19361e-16 0)
(0.0300893 -8.03223e-17 0)
(0.0300893 6.7432e-17 0)
(0.0300893 1.00123e-16 0)
(0.0300893 -3.94366e-17 0)
(0.0300893 -1.47069e-16 0)
(0.0300893 6.83926e-17 0)
(0.0300893 2.68562e-17 0)
(0.0300893 1.42008e-16 0)
(0.0300893 -1.31696e-16 0)
(0.0300893 -8.23182e-17 0)
(0.0300893 9.17661e-17 0)
(0.0300893 -1.46143e-17 0)
(0.0300893 6.67678e-18 0)
(0.0300893 -3.10338e-17 0)
(0.0300893 1.03791e-17 0)
(0.0300893 1.76321e-17 0)
(0.0300893 1.01971e-16 0)
(0.0300893 -1.15441e-16 0)
(0.0300893 -9.83896e-17 0)
(0.0300893 2.202e-16 0)
(0.0300893 -9.45705e-17 0)
(0.0300893 -1.07504e-16 0)
(0.0300893 8.06078e-17 0)
(0.0300893 2.35358e-17 0)
(0.0300893 -1.0923e-18 0)
(0.0300893 9.04877e-17 0)
(0.0300893 -1.02804e-16 0)
(0.0300893 -1.15513e-16 0)
(0.0300893 2.24812e-16 0)
(0.0300893 -6.97195e-17 0)
(0.0300893 -1.42374e-16 0)
(0.0300893 6.31754e-17 0)
(0.0300893 1.64109e-16 0)
(0.0300893 -1.07693e-16 0)
(0.0300893 -6.31812e-18 0)
(0.0300893 1.07025e-17 0)
(0.0300893 -1.12556e-16 0)
(0.0300893 2.132e-16 0)
(0.0300893 -1.13571e-16 0)
(0.0300893 -1.16745e-17 0)
(0.0300893 -8.63989e-17 0)
(0.0300893 1.09895e-16 0)
(0.0300893 8.43555e-17 0)
(0.0300893 -1.8135e-16 0)
(0.0300893 1.00951e-16 0)
(0.0300893 -1.55653e-17 0)
(0.0300893 2.42336e-17 0)
(0.0300893 -2.25986e-17 0)
(0.0300893 8.8852e-17 0)
(0.0300893 -1.68502e-16 0)
(0.0300893 1.03032e-16 0)
(0.0300893 7.08709e-17 0)
(0.0300893 -1.86587e-16 0)
(0.0300893 9.89965e-17 0)
(0.0300893 8.91766e-17 0)
(0.0300893 -5.28781e-17 0)
(0.0300893 -1.52141e-16 0)
(0.0300893 1.95793e-16 0)
(0.0300893 -1.39362e-16 0)
(0.0300893 7.66092e-17 0)
(0.0300893 1.6869e-16 0)
(0.0300893 -2.85334e-16 0)
(0.0300893 2.85339e-17 0)
(0.0300893 1.7009e-16 0)
(0.0300893 -1.23506e-17 0)
(0.0300893 -1.7748e-16 0)
(0.0300893 1.03097e-16 0)
(0.0300893 -1.28785e-17 0)
(0.0300893 1.28156e-18 0)
(0.0300893 1.48356e-17 0)
(0.0300893 -1.00327e-16 0)
(0.0300893 1.0342e-16 0)
(0.0300893 7.25771e-18 0)
(0.0300893 8.58316e-17 0)
(0.0300893 -1.16558e-16 0)
(0.0300893 -5.28389e-17 0)
(0.0300893 8.82487e-17 0)
(0.0300893 6.36147e-17 0)
(0.0300893 -7.15095e-17 0)
(0.0300893 -8.50109e-17 0)
(0.0300893 1.87239e-16 0)
(0.0300893 -1.27814e-16 0)
(0.0300893 2.29996e-17 0)
(0.0300893 8.8576e-18 0)
(0.0300893 -9.01269e-17 0)
(0.0300893 1.90459e-16 0)
(0.0300893 -4.30163e-17 0)
(0.0300893 -1.72078e-16 0)
(0.0300893 3.70939e-17 0)
(0.0300893 1.74845e-16 0)
(0.0300893 -1.29269e-16 0)
(0.0300893 1.07604e-17 0)
(0.0300893 -3.87895e-18 0)
(0.0300893 -1.59275e-17 0)
(0.0300893 8.60577e-17 0)
(0.0300893 -1.42494e-16 0)
(0.0300893 -4.41371e-16 0)
(0.0890636 -3.45387e-15 0)
(0.0890636 -8.74504e-16 0)
(0.0890636 -2.4565e-16 0)
(0.0890636 -7.82934e-17 0)
(0.0890636 -2.15178e-17 0)
(0.0890636 -2.31945e-17 0)
(0.0890636 -2.93842e-18 0)
(0.0890636 -2.54372e-18 0)
(0.0890636 -1.01401e-17 0)
(0.0890636 -6.49155e-18 0)
(0.0890636 -1.61206e-17 0)
(0.0890636 -2.19582e-17 0)
(0.0890636 -1.08272e-17 0)
(0.0890636 -1.80777e-17 0)
(0.0890636 -8.68689e-18 0)
(0.0890636 -1.79564e-17 0)
(0.0890636 -3.31688e-17 0)
(0.0890636 -2.0702e-17 0)
(0.0890636 -1.16038e-17 0)
(0.0890636 3.39942e-18 0)
(0.0890636 6.28961e-18 0)
(0.0890636 1.80259e-17 0)
(0.0890636 2.68727e-17 0)
(0.0890636 4.44882e-18 0)
(0.0890636 -2.2788e-17 0)
(0.0890636 -3.42706e-17 0)
(0.0890636 6.232e-19 0)
(0.0890636 2.0664e-17 0)
(0.0890636 -2.28511e-17 0)
(0.0890636 -6.46937e-18 0)
(0.0890636 -3.90714e-18 0)
(0.0890636 -2.03714e-17 0)
(0.0890636 -7.9182e-18 0)
(0.0890636 -1.25209e-17 0)
(0.0890636 -1.98242e-17 0)
(0.0890636 2.90121e-18 0)
(0.0890636 -3.12092e-17 0)
(0.0890636 -2.18248e-17 0)
(0.0890636 -4.95216e-19 0)
(0.0890636 -3.09357e-17 0)
(0.0890636 -1.72611e-18 0)
(0.0890636 -3.26829e-17 0)
(0.0890636 -3.01242e-18 0)
(0.0890636 1.93821e-17 0)
(0.0890636 9.71753e-19 0)
(0.0890636 4.28326e-17 0)
(0.0890636 3.30478e-17 0)
(0.0890636 -3.50177e-17 0)
(0.0890636 -2.05858e-17 0)
(0.0890636 2.65363e-17 0)
(0.0890636 2.30991e-17 0)
(0.0890636 2.04855e-17 0)
(0.0890636 -3.47744e-17 0)
(0.0890636 -1.65955e-17 0)
(0.0890636 3.61204e-17 0)
(0.0890636 -1.76989e-17 0)
(0.0890636 2.29685e-17 0)
(0.0890636 -1.70042e-17 0)
(0.0890636 -4.84949e-17 0)
(0.0890636 -6.47561e-18 0)
(0.0890636 -1.03776e-17 0)
(0.0890636 -1.40337e-17 0)
(0.0890636 -1.29932e-17 0)
(0.0890636 8.05682e-18 0)
(0.0890636 -2.36146e-17 0)
(0.0890636 2.3659e-17 0)
(0.0890636 -3.9626e-17 0)
(0.0890636 -1.86119e-17 0)
(0.0890636 6.57712e-17 0)
(0.0890636 -1.56653e-17 0)
(0.0890636 -2.66129e-17 0)
(0.0890636 1.8256e-17 0)
(0.0890636 5.30326e-17 0)
(0.0890636 -1.8132e-17 0)
(0.0890636 -4.44497e-17 0)
(0.0890636 1.00818e-16 0)
(0.0890636 3.67879e-17 0)
(0.0890636 -5.31065e-17 0)
(0.0890636 -1.5673e-17 0)
(0.0890636 3.74379e-17 0)
(0.0890636 -5.95071e-19 0)
(0.0890636 -4.30721e-17 0)
(0.0890636 1.80188e-17 0)
(0.0890636 -7.43148e-18 0)
(0.0890636 -4.92452e-17 0)
(0.0890636 5.22713e-17 0)
(0.0890636 8.12612e-18 0)
(0.0890636 -2.38223e-17 0)
(0.0890636 7.70622e-18 0)
(0.0890636 8.23911e-18 0)
(0.0890636 2.53406e-17 0)
(0.0890636 1.79706e-17 0)
(0.0890636 1.85842e-17 0)
(0.0890636 -8.06882e-19 0)
(0.0890636 -5.78324e-18 0)
(0.0890636 -6.94005e-17 0)
(0.0890636 7.95937e-18 0)
(0.0890636 7.66096e-17 0)
(0.0890636 -3.38448e-17 0)
(0.0890636 -3.37473e-17 0)
(0.0890636 4.80271e-17 0)
(0.0890636 4.83054e-17 0)
(0.0890636 2.3904e-18 0)
(0.0890636 -1.16648e-17 0)
(0.0890636 2.40501e-18 0)
(0.0890636 -2.34344e-17 0)
(0.0890636 -8.95878e-18 0)
(0.0890636 -4.46567e-18 0)
(0.0890636 4.35849e-17 0)
(0.0890636 6.72112e-17 0)
(0.0890636 -3.28839e-17 0)
(0.0890636 -8.74069e-17 0)
(0.0890636 -1.66032e-17 0)
(0.0890636 9.66708e-17 0)
(0.0890636 3.29198e-17 0)
(0.0890636 -7.47412e-17 0)
(0.0890636 -5.81469e-17 0)
(0.0890636 3.91746e-17 0)
(0.0890636 7.01512e-17 0)
(0.0890636 2.72229e-18 0)
(0.0890636 -1.06268e-17 0)
(0.0890636 1.28651e-17 0)
(0.0890636 4.88488e-17 0)
(0.0890636 -1.21399e-17 0)
(0.0890636 -6.87431e-17 0)
(0.0890636 5.27632e-17 0)
(0.0890636 4.17006e-17 0)
(0.0890636 -3.7456e-17 0)
(0.0890636 1.67812e-17 0)
(0.0890636 2.07864e-17 0)
(0.0890636 1.00464e-17 0)
(0.0890636 9.77759e-18 0)
(0.0890636 1.11438e-16 0)
(0.0890636 -7.23484e-17 0)
(0.0890636 -9.08413e-17 0)
(0.0890636 5.44623e-17 0)
(0.0890636 -5.27233e-18 0)
(0.0890636 -4.65888e-17 0)
(0.0890636 7.23167e-17 0)
(0.0890636 2.9996e-17 0)
(0.0890636 -1.38675e-16 0)
(0.0890636 -7.17182e-17 0)
(0.0890636 6.81327e-17 0)
(0.0890636 1.15218e-16 0)
(0.0890636 -6.37809e-17 0)
(0.0890636 -3.55407e-18 0)
(0.0890636 1.44322e-16 0)
(0.0890636 -3.80315e-17 0)
(0.0890636 -8.8684e-17 0)
(0.0890636 9.45153e-17 0)
(0.0890636 -6.93596e-17 0)
(0.0890636 -1.9789e-17 0)
(0.0890636 1.34534e-16 0)
(0.0890636 -1.40153e-16 0)
(0.0890636 -3.9574e-17 0)
(0.0890636 7.55803e-17 0)
(0.0890636 -9.23441e-17 0)
(0.0890636 1.32226e-17 0)
(0.0890636 3.50789e-19 0)
(0.0890636 8.69778e-17 0)
(0.0890636 7.43437e-17 0)
(0.0890636 -4.06925e-17 0)
(0.0890636 -4.32407e-17 0)
(0.0890636 1.86623e-18 0)
(0.0890636 -2.778e-17 0)
(0.0890636 -6.72307e-18 0)
(0.0890636 7.27925e-17 0)
(0.0890636 -1.38922e-16 0)
(0.0890636 8.42539e-17 0)
(0.0890636 1.34387e-16 0)
(0.0890636 -1.46801e-16 0)
(0.0890636 5.66274e-17 0)
(0.0890636 1.27819e-16 0)
(0.0890636 -1.14069e-16 0)
(0.0890636 -6.24203e-17 0)
(0.0890636 5.24202e-17 0)
(0.0890636 6.58063e-17 0)
(0.0890636 -1.25509e-17 0)
(0.0890636 -6.32575e-17 0)
(0.0890636 8.73348e-17 0)
(0.0890636 9.04933e-18 0)
(0.0890636 -7.236e-17 0)
(0.0890636 6.9947e-18 0)
(0.0890636 -2.76084e-17 0)
(0.0890636 6.84292e-17 0)
(0.0890636 -2.48886e-17 0)
(0.0890636 -1.07656e-16 0)
(0.0890636 -2.58471e-17 0)
(0.0890636 -2.23006e-17 0)
(0.0890636 6.71035e-18 0)
(0.0890636 -7.89812e-17 0)
(0.0890636 -5.04772e-17 0)
(0.0890636 5.7536e-18 0)
(0.0890636 1.37359e-16 0)
(0.0890636 6.382e-17 0)
(0.0890636 -4.60772e-17 0)
(0.0890636 4.782e-17 0)
(0.0890636 1.16961e-17 0)
(0.0890636 -1.58052e-16 0)
(0.0890636 -7.21034e-17 0)
(0.0890636 5.61013e-17 0)
(0.0890636 -1.32398e-16 0)
(0.0890636 1.12846e-16 0)
(0.0890636 7.51117e-17 0)
(0.0890636 1.43795e-17 0)
(0.0890636 8.15785e-17 0)
(0.0890636 -1.11159e-16 0)
(0.0890636 -1.0351e-16 0)
(0.0890636 4.51057e-17 0)
(0.0890636 -2.00016e-17 0)
(0.0890636 1.11328e-17 0)
(0.0890636 6.69507e-18 0)
(0.0890636 -8.49142e-17 0)
(0.0890636 6.62054e-17 0)
(0.0890636 -5.96158e-17 0)
(0.0890636 1.74561e-17 0)
(0.0890636 -5.89726e-17 0)
(0.0890636 -4.72338e-17 0)
(0.0890636 1.05277e-16 0)
(0.0890636 9.83714e-17 0)
(0.0890636 -2.51077e-17 0)
(0.0890636 -7.60045e-17 0)
(0.0890636 3.459e-17 0)
(0.0890636 -6.39963e-17 0)
(0.0890636 1.24671e-18 0)
(0.0890636 3.8863e-17 0)
(0.0890636 -5.73328e-18 0)
(0.0890636 3.65552e-17 0)
(0.0890636 1.17063e-16 0)
(0.0890636 -7.21468e-18 0)
(0.0890636 -4.94271e-17 0)
(0.0890636 -1.12259e-16 0)
(0.0890636 2.16861e-18 0)
(0.0890636 2.15447e-17 0)
(0.0890636 -8.73669e-17 0)
(0.0890636 8.82588e-17 0)
(0.0890636 3.69219e-17 0)
(0.0890636 5.5076e-17 0)
(0.0890636 -4.29777e-17 0)
(0.0890636 -1.15918e-17 0)
(0.0890636 4.85815e-18 0)
(0.0890636 -8.13533e-17 0)
(0.0890636 3.20973e-17 0)
(0.0890636 1.46944e-16 0)
(0.0890636 -5.42449e-17 0)
(0.0890636 -1.68005e-17 0)
(0.0890636 6.5591e-17 0)
(0.0890636 -1.03299e-16 0)
(0.0890636 6.06006e-18 0)
(0.0890636 -1.03929e-17 0)
(0.0890636 -2.59107e-17 0)
(0.0890636 3.33685e-17 0)
(0.0890636 1.08904e-16 0)
(0.0890636 -3.68657e-17 0)
(0.0890636 -3.39472e-17 0)
(0.0890636 7.30895e-17 0)
(0.0890636 -4.66598e-17 0)
(0.0890636 -7.57921e-17 0)
(0.0890636 4.4968e-17 0)
(0.0890636 -9.48158e-17 0)
(0.0890636 3.82117e-17 0)
(0.0890636 1.7505e-16 0)
(0.0890636 -1.32369e-16 0)
(0.0890636 5.25523e-17 0)
(0.0890636 -1.26615e-16 0)
(0.0890636 -1.15947e-16 0)
(0.0890636 2.63977e-16 0)
(0.0890636 -2.03914e-16 0)
(0.0890636 -1.1836e-16 0)
(0.0890636 4.16693e-16 0)
(0.0890636 -1.55404e-16 0)
(0.0890636 -1.25042e-16 0)
(0.0890636 9.31179e-17 0)
(0.0890636 -1.38711e-16 0)
(0.0890636 9.15798e-17 0)
(0.0890636 -8.07298e-17 0)
(0.0890636 -3.38983e-17 0)
(0.0890636 1.20479e-16 0)
(0.0890636 1.23702e-16 0)
(0.0890636 -1.05119e-16 0)
(0.0890636 -1.11928e-16 0)
(0.0890636 -4.82999e-17 0)
(0.0890636 5.53718e-17 0)
(0.0890636 1.41092e-16 0)
(0.0890636 -1.7615e-16 0)
(0.0890636 1.9893e-16 0)
(0.0890636 1.07764e-17 0)
(0.0890636 -2.19039e-16 0)
(0.0890636 1.60135e-16 0)
(0.0890636 7.90066e-17 0)
(0.0890636 -2.16022e-16 0)
(0.0890636 8.5842e-17 0)
(0.0890636 1.47185e-17 0)
(0.0890636 -1.73844e-16 0)
(0.0890636 3.12609e-16 0)
(0.0890636 7.96915e-17 0)
(0.0890636 -3.00018e-16 0)
(0.0890636 7.96396e-17 0)
(0.0890636 -3.31148e-17 0)
(0.0890636 -1.95543e-16 0)
(0.0890636 2.81728e-16 0)
(0.0890636 -1.35025e-16 0)
(0.0890636 -9.91956e-17 0)
(0.0890636 3.78297e-16 0)
(0.0890636 -1.35448e-16 0)
(0.0890636 -2.24763e-16 0)
(0.0890636 2.10803e-16 0)
(0.0890636 -1.34253e-16 0)
(0.0890636 -1.61594e-16 0)
(0.0890636 3.13865e-16 0)
(0.0890636 5.47798e-17 0)
(0.0890636 -2.46754e-16 0)
(0.0890636 1.08284e-16 0)
(0.0890636 6.0676e-17 0)
(0.0890636 -1.12908e-16 0)
(0.0890636 7.70934e-17 0)
(0.0890636 -6.30287e-17 0)
(0.0890636 -1.2599e-16 0)
(0.0890636 -1.72194e-17 0)
(0.0890636 1.89562e-16 0)
(0.0890636 9.93737e-17 0)
(0.0890636 -5.60915e-17 0)
(0.0890636 -1.21036e-16 0)
(0.0890636 -8.71334e-17 0)
(0.0890636 1.75985e-16 0)
(0.0890636 -1.57853e-17 0)
(0.0890636 -1.39075e-16 0)
(0.0890636 -7.57846e-17 0)
(0.0890636 2.14268e-16 0)
(0.0890636 1.46933e-16 0)
(0.0890636 -2.90898e-16 0)
(0.0890636 2.1161e-17 0)
(0.0890636 1.11719e-16 0)
(0.0890636 -2.32024e-16 0)
(0.0890636 1.80351e-16 0)
(0.0890636 1.85565e-16 0)
(0.0890636 -3.30343e-16 0)
(0.0890636 2.71588e-16 0)
(0.0890636 1.33477e-16 0)
(0.0890636 -3.15307e-16 0)
(0.0890636 7.38617e-17 0)
(0.0890636 -3.08811e-17 0)
(0.0890636 -1.52546e-16 0)
(0.0890636 8.71919e-17 0)
(0.0890636 2.03567e-16 0)
(0.0890636 4.09027e-18 0)
(0.0890636 -1.8581e-17 0)
(0.0890636 -1.52181e-16 0)
(0.0890636 -1.00223e-16 0)
(0.0890636 1.69721e-16 0)
(0.0890636 -5.92747e-17 0)
(0.0890636 -2.27495e-16 0)
(0.0890636 8.20405e-17 0)
(0.0890636 2.2279e-16 0)
(0.0890636 4.0452e-18 0)
(0.0890636 -3.33068e-17 0)
(0.0890636 -1.60459e-16 0)
(0.0890636 -1.3498e-16 0)
(0.0890636 1.10439e-16 0)
(0.0890636 4.21066e-17 0)
(0.0890636 1.03862e-16 0)
(0.0890636 -2.0138e-16 0)
(0.0890636 8.0075e-17 0)
(0.0890636 2.90978e-16 0)
(0.0890636 -2.36837e-16 0)
(0.0890636 -1.08391e-17 0)
(0.0890636 6.98148e-18 0)
(0.0890636 -1.30388e-16 0)
(0.0890636 9.06715e-18 0)
(0.0890636 3.17665e-16 0)
(0.0890636 4.18227e-17 0)
(0.0890636 -1.39262e-16 0)
(0.0890636 -8.92323e-17 0)
(0.0890636 -5.7195e-17 0)
(0.0890636 1.72163e-16 0)
(0.0890636 -1.00412e-16 0)
(0.0890636 1.33219e-17 0)
(0.0890636 -5.56402e-17 0)
(0.0890636 1.65854e-16 0)
(0.0890636 2.82905e-17 0)
(0.0890636 -9.64162e-17 0)
(0.0890636 -6.83959e-17 0)
(0.0890636 -5.95377e-18 0)
(0.0890636 5.93096e-17 0)
(0.0890636 -5.14747e-17 0)
(0.0890636 2.13118e-16 0)
(0.0890636 -1.63534e-16 0)
(0.0890636 9.26779e-17 0)
(0.0890636 1.04433e-16 0)
(0.0890636 -1.09817e-16 0)
(0.0890636 -6.7167e-17 0)
(0.0890636 9.75725e-17 0)
(0.0890636 -9.72558e-17 0)
(0.0890636 -1.97941e-16 0)
(0.0890636 3.17164e-16 0)
(0.0890636 1.96603e-16 0)
(0.0890636 -1.59448e-16 0)
(0.0890636 -1.45746e-16 0)
(0.0890636 -1.26072e-16 0)
(0.0890636 -5.36755e-17 0)
(0.0890636 1.47811e-16 0)
(0.0890636 2.81611e-16 0)
(0.0890636 -2.3652e-16 0)
(0.0890636 -1.5323e-16 0)
(0.0890636 -6.28581e-17 0)
(0.0890636 3.08945e-16 0)
(0.0890636 1.97368e-16 0)
(0.0890636 -4.57872e-16 0)
(0.0890636 -3.25406e-17 0)
(0.0890636 2.45902e-16 0)
(0.0890636 1.69848e-16 0)
(0.0890636 -2.86138e-16 0)
(0.0890636 6.7112e-17 0)
(0.0890636 5.96685e-17 0)
(0.0890636 -4.62692e-17 0)
(0.0890636 6.27186e-17 0)
(0.0890636 -2.51809e-16 0)
(0.0890636 -2.89424e-17 0)
(0.0890636 3.12972e-16 0)
(0.0890636 7.44338e-17 0)
(0.0890636 -3.48487e-16 0)
(0.0890636 -5.96233e-17 0)
(0.0890636 4.22476e-16 0)
(0.0890636 -9.23245e-17 0)
(0.0890636 -1.98281e-16 0)
(0.0890636 5.6611e-17 0)
(0.0890636 1.30198e-16 0)
(0.0890636 2.82232e-17 0)
(0.0890636 1.49016e-17 0)
(0.0890636 -1.1421e-16 0)
(0.0890636 -1.12134e-16 0)
(0.0890636 3.51442e-16 0)
(0.0890636 -2.35075e-17 0)
(0.0890636 -3.79649e-16 0)
(0.0890636 9.6917e-19 0)
(0.0890636 4.71538e-16 0)
(0.0890636 -1.20457e-16 0)
(0.0890636 -5.77689e-17 0)
(0.0890636 -8.02763e-18 0)
(0.0890636 -1.92575e-16 0)
(0.0890636 3.49598e-16 0)
(0.0890636 -1.87061e-16 0)
(0.0890636 -7.52128e-17 0)
(0.0890636 -1.74273e-17 0)
(0.0890636 1.10922e-16 0)
(0.0890636 3.25775e-17 0)
(0.0890636 -5.46842e-17 0)
(0.0890636 2.91357e-17 0)
(0.0890636 -1.57319e-16 0)
(0.0890636 1.99093e-16 0)
(0.0890636 -3.77634e-17 0)
(0.0890636 1.0406e-16 0)
(0.0890636 -7.41184e-17 0)
(0.0890636 6.39112e-17 0)
(0.0890636 -5.45502e-17 0)
(0.0890636 -7.70539e-17 0)
(0.0890636 7.50891e-17 0)
(0.0890636 5.21935e-17 0)
(0.0890636 1.68654e-16 0)
(0.0890636 -4.55828e-16 0)
(0.0890636 2.0008e-16 0)
(0.0890636 1.95451e-16 0)
(0.0890636 1.38448e-17 0)
(0.0890636 2.77273e-17 0)
(0.0890636 -3.51806e-16 0)
(0.0890636 9.67716e-17 0)
(0.0890636 2.09577e-16 0)
(0.0890636 -4.2638e-17 0)
(0.0890636 -2.11715e-16 0)
(0.0890636 1.35758e-16 0)
(0.0890636 -5.86139e-17 0)
(0.0890636 5.05512e-18 0)
(0.0890636 5.34986e-17 0)
(0.0890636 -1.39187e-16 0)
(0.0890636 1.813e-16 0)
(0.0890636 8.28235e-17 0)
(0.0890636 9.6789e-17 0)
(0.0890636 -2.2835e-16 0)
(0.0890636 2.82712e-17 0)
(0.0890636 1.38215e-16 0)
(0.0890636 2.63744e-17 0)
(0.0890636 -4.39406e-17 0)
(0.0890636 -9.09812e-17 0)
(0.0890636 2.12267e-16 0)
(0.0890636 -2.54832e-16 0)
(0.0890636 6.38527e-17 0)
(0.0890636 3.10412e-17 0)
(0.0890636 -7.75252e-17 0)
(0.0890636 2.591e-16 0)
(0.0890636 -1.79246e-16 0)
(0.0890636 -2.25825e-16 0)
(0.0890636 1.59487e-16 0)
(0.0890636 2.084e-16 0)
(0.0890636 -2.79266e-16 0)
(0.0890636 -3.50133e-18 0)
(0.0890636 -2.85902e-17 0)
(0.0890636 -6.97079e-17 0)
(0.0890636 4.09962e-17 0)
(0.0890636 -3.71959e-16 0)
(0.0890636 -8.13707e-16 0)
(0.146832 -2.4125e-15 0)
(0.146832 -9.22663e-16 0)
(0.146832 -3.85546e-16 0)
(0.146832 -1.48755e-16 0)
(0.146832 -3.10381e-17 0)
(0.146832 -4.29678e-17 0)
(0.146832 -1.72272e-17 0)
(0.146832 7.56436e-18 0)
(0.146832 -1.74358e-17 0)
(0.146832 -4.37207e-17 0)
(0.146832 -4.26082e-17 0)
(0.146832 -4.61671e-17 0)
(0.146832 -4.81027e-17 0)
(0.146832 -3.38323e-17 0)
(0.146832 -3.36283e-17 0)
(0.146832 -2.92832e-17 0)
(0.146832 -4.62482e-17 0)
(0.146832 -5.99363e-17 0)
(0.146832 -1.49229e-17 0)
(0.146832 4.89984e-18 0)
(0.146832 -5.88941e-18 0)
(0.146832 4.51224e-17 0)
(0.146832 5.29162e-17 0)
(0.146832 3.42849e-18 0)
(0.146832 -3.58734e-17 0)
(0.146832 -6.99568e-17 0)
(0.146832 -2.65904e-17 0)
(0.146832 3.70855e-17 0)
(0.146832 -3.61169e-17 0)
(0.146832 -4.07515e-17 0)
(0.146832 -2.45482e-17 0)
(0.146832 -1.57203e-17 0)
(0.146832 -1.3888e-17 0)
(0.146832 -6.6793e-17 0)
(0.146832 -4.36163e-17 0)
(0.146832 6.67248e-18 0)
(0.146832 -8.84195e-17 0)
(0.146832 -5.66301e-17 0)
(0.146832 -3.83688e-18 0)
(0.146832 -6.70815e-17 0)
(0.146832 -4.63938e-17 0)
(0.146832 -4.56436e-17 0)
(0.146832 -3.04896e-17 0)
(0.146832 2.57857e-17 0)
(0.146832 5.81611e-17 0)
(0.146832 6.80721e-17 0)
(0.146832 6.34223e-17 0)
(0.146832 -4.14198e-17 0)
(0.146832 -2.2887e-17 0)
(0.146832 5.20807e-17 0)
(0.146832 3.49242e-17 0)
(0.146832 -5.69079e-18 0)
(0.146832 -4.31375e-17 0)
(0.146832 -3.57333e-18 0)
(0.146832 4.01294e-17 0)
(0.146832 -4.30175e-18 0)
(0.146832 3.38844e-17 0)
(0.146832 -7.69584e-17 0)
(0.146832 -8.84523e-17 0)
(0.146832 -2.9843e-17 0)
(0.146832 -3.28813e-17 0)
(0.146832 2.42624e-19 0)
(0.146832 -5.13171e-17 0)
(0.146832 2.64034e-18 0)
(0.146832 1.62319e-17 0)
(0.146832 -1.60855e-17 0)
(0.146832 -7.77448e-17 0)
(0.146832 -2.67365e-17 0)
(0.146832 5.16852e-17 0)
(0.146832 3.328e-17 0)
(0.146832 2.65271e-17 0)
(0.146832 1.54206e-17 0)
(0.146832 8.11138e-17 0)
(0.146832 -1.18733e-17 0)
(0.146832 -9.02311e-17 0)
(0.146832 1.40105e-16 0)
(0.146832 1.31155e-16 0)
(0.146832 -1.84726e-17 0)
(0.146832 -6.11263e-17 0)
(0.146832 -4.0489e-18 0)
(0.146832 2.65806e-17 0)
(0.146832 -3.0284e-17 0)
(0.146832 -4.29782e-17 0)
(0.146832 4.88111e-18 0)
(0.146832 -1.01584e-17 0)
(0.146832 -2.61567e-18 0)
(0.146832 -2.2532e-17 0)
(0.146832 5.26055e-17 0)
(0.146832 3.59881e-18 0)
(0.146832 -1.02613e-17 0)
(0.146832 6.31991e-17 0)
(0.146832 3.19326e-17 0)
(0.146832 4.35567e-17 0)
(0.146832 4.15473e-17 0)
(0.146832 1.46725e-18 0)
(0.146832 -1.37262e-16 0)
(0.146832 -2.6471e-17 0)
(0.146832 1.64076e-16 0)
(0.146832 -5.28856e-17 0)
(0.146832 -9.0868e-17 0)
(0.146832 1.38399e-16 0)
(0.146832 9.74897e-17 0)
(0.146832 -2.75335e-17 0)
(0.146832 -9.27635e-17 0)
(0.146832 1.99442e-18 0)
(0.146832 7.73257e-17 0)