/*--------------------------------*- C++ -*----------------------------------*\
| =========                 |                                                 |
| \\      /  F ield         | OpenFOAM: The Open Source CFD Toolbox           |
|  \\    /   O peration     | Version:  2112                                  |
|   \\  /    A nd           | Website:  www.openfoam.com                      |
|    \\/     M anipulation  |                                                 |
\*---------------------------------------------------------------------------*/
FoamFile
{
    version     2.0;
    format      ascii;
    arch        "LSB;label=32;scalar=64";
    class       volScalarField;
    location    "38";
    object      p;
}
// * * * * * * * * * * * * * * * * * * * * * * * * * * * * * * * * * * * * * //

dimensions      [0 2 -2 0 0 0 0];

internalField   nonuniform List<scalar> 
16641
(
7.71035e-07
1.5858e-05
3.0478e-05
3.96428e-05
3.97572e-05
2.89785e-05
6.71297e-06
-2.68934e-05
-7.1271e-05
-0.000125622
-0.000189048
-0.000260644
-0.000339559
-0.00042504
-0.000516456
-0.000613314
-0.000715268
-0.000822114
-0.000933779
-0.00105031
-0.00117183
-0.00129856
-0.00143076
-0.00156869
-0.00171265
-0.00186289
-0.00201965
-0.00218307
-0.00235327
-0.00253027
-0.00271398
-0.00290426
-0.00310081
-0.00330325
-0.00351108
-0.00372366
-0.00394025
-0.00415994
-0.00438171
-0.00460438
-0.00482665
-0.00504704
-0.00526397
-0.00547573
-0.00568045
-0.0058762
-0.00606092
-0.00623249
-0.00638876
-0.00652753
-0.00664663
-0.00674392
-0.00681734
-0.00686495
-0.00688499
-0.00687587
-0.00683626
-0.00676511
-0.00666169
-0.00652566
-0.00635704
-0.00615631
-0.00592439
-0.0056627
-0.00537312
-0.00505805
-0.00472033
-0.00436321
-0.00399067
-0.00360683
-0.00321625
-0.00282382
-0.00243465
-0.00205402
-0.00168729
-0.00133981
-0.00101679
-0.000723244
-0.000463854
-0.000242883
-6.40755e-05
6.9431e-05
0.00015518
0.000191461
0.000177355
0.000112759
-1.60421e-06
-0.0001642
-0.000372716
-0.000624116
-0.000914805
-0.00124044
-0.00159642
-0.00197775
-0.00237921
-0.00279549
-0.00322134
-0.00365163
-0.00408149
-0.00450639
-0.00492219
-0.00532526
-0.00571243
-0.00608109
-0.00642915
-0.00675505
-0.00705773
-0.00733658
-0.00759141
-0.00782241
-0.00803006
-0.00821509
-0.00837842
-0.00852109
-0.00864421
-0.00874892
-0.00883627
-0.00890729
-0.00896287
-0.00900378
-0.00903069
-0.00904421
-0.00904503
-0.00903403
-0.00901266
-0.0089834
-0.00895035
-0.00891969
-0.00890089
-1.30165e-05
1.67764e-06
1.19137e-05
1.61024e-05
1.25349e-05
-2.70402e-07
-2.29576e-05
-5.55726e-05
-9.78033e-05
-0.000149111
-0.000208831
-0.000276258
-0.000350709
-0.000431564
-0.00051829
-0.000610464
-0.00070778
-0.000810055
-0.000917214
-0.00102928
-0.00114636
-0.00126862
-0.00139627
-0.00152956
-0.00166872
-0.00181398
-0.00196553
-0.00212353
-0.00228806
-0.00245913
-0.00263669
-0.00282059
-0.00301057
-0.00320628
-0.00340726
-0.00361293
-0.0038226
-0.00403542
-0.00425044
-0.00446656
-0.00468254
-0.00489701
-0.00510847
-0.00531527
-0.00551567
-0.00570781
-0.00588971
-0.00605936
-0.00621467
-0.00635352
-0.00647382
-0.00657348
-0.00665052
-0.00670302
-0.00672925
-0.00672766
-0.0066969
-0.00663593
-0.006544
-0.00642072
-0.00626607
-0.00608046
-0.00586473
-0.00562018
-0.0053486
-0.00505229
-0.00473398
-0.00439671
-0.0040442
-0.00368051
-0.00331003
-0.00293743
-0.00256764
-0.00220576
-0.00185693
-0.00152631
-0.00121894
-0.000939647
-0.000692941
-0.000482933
-0.000313231
-0.000186856
-0.000106166
-7.28047e-05
-8.76476e-05
-0.000150783
-0.000261505
-0.000418327
-0.00061902
-0.000860663
-0.00113973
-0.00145219
-0.00179351
-0.00215894
-0.00254351
-0.00294214
-0.00334983
-0.0037617
-0.00417314
-0.00457984
-0.00497791
-0.0053639
-0.00573483
-0.00608825
-0.00642219
-0.0067352
-0.00702626
-0.00729482
-0.00754069
-0.00776402
-0.00796527
-0.00814511
-0.00830439
-0.00844406
-0.00856518
-0.00866878
-0.00875591
-0.00882754
-0.00888458
-0.00892788
-0.00895818
-0.00897626
-0.00898294
-0.00897926
-0.00896663
-0.00894718
-0.00892404
-0.008901
-0.0088821
-2.70145e-05
-8.11192e-06
2.04782e-06
4.63612e-06
-4.13958e-07
-1.41379e-05
-3.70218e-05
-6.90797e-05
-0.000110051
-0.00015949
-0.000216836
-0.000281489
-0.000352855
-0.000430391
-0.000513626
-0.000602188
-0.000695809
-0.000794326
-0.000897675
-0.00100588
-0.00111904
-0.00123733
-0.00136093
-0.00149007
-0.00162498
-0.00176588
-0.00191295
-0.00206634
-0.00222615
-0.0023924
-0.00256505
-0.00274398
-0.00292896
-0.00311969
-0.00331574
-0.00351658
-0.00372158
-0.00392994
-0.00414078
-0.00435306
-0.00456561
-0.00477711
-0.00498614
-0.00519111
-0.00539033
-0.00558199
-0.00576418
-0.00593492
-0.00609216
-0.00623381
-0.00635779
-0.00646203
-0.00654453
-0.00660339
-0.00663684
-0.0066433
-0.00662139
-0.00657002
-0.00648838
-0.006376
-0.00623282
-0.00605915
-0.00585574
-0.00562382
-0.00536509
-0.0050818
-0.00477621
-0.00445188
-0.00411214
-0.00376091
-0.00340252
-0.00304156
-0.00268287
-0.00233146
-0.00199242
-0.00167083
-0.00137165
-0.00109966
-0.000859333
-0.000654723
-0.000489405
-0.000366371
-0.000287961
-0.0002558
-0.000270758
-0.000332923
-0.000441596
-0.000595305
-0.000791844
-0.00102833
-0.00130126
-0.00160665
-0.00194007
-0.00229682
-0.00267197
-0.00306059
-0.00345775
-0.0038587
-0.00425893
-0.00465426
-0.00504093
-0.0054156
-0.00577544
-0.00611809
-0.00644172
-0.00674493
-0.00702683
-0.00728692
-0.00752505
-0.00774144
-0.00793655
-0.00811107
-0.00826583
-0.0084018
-0.00852
-0.00862147
-0.00870723
-0.00877828
-0.00883552
-0.00887982
-0.00891195
-0.0089327
-0.00894287
-0.00894339
-0.00893541
-0.00892056
-0.00890104
-0.00887806
-0.00885126
-3.5974e-05
-1.20622e-05
-3.82225e-07
2.09673e-06
-3.42788e-06
-1.7571e-05
-4.05933e-05
-7.23761e-05
-0.000112608
-0.000160844
-0.000216559
-0.000279194
-0.000348201
-0.00042308
-0.000503405
-0.000588842
-0.000679157
-0.000774214
-0.000873971
-0.000978471
-0.00108783
-0.00120221
-0.00132183
-0.00144691
-0.0015777
-0.00171442
-0.00185726
-0.00200639
-0.00216193
-0.00232392
-0.00249236
-0.00266715
-0.00284812
-0.00303499
-0.00322741
-0.0034249
-0.00362687
-0.0038326
-0.00404126
-0.00425187
-0.00446331
-0.00467434
-0.00488355
-0.00508943
-0.00529031
-0.0054844
-0.00566983
-0.00584461
-0.00600669
-0.00615397
-0.00628434
-0.0063957
-0.00648601
-0.00655331
-0.00659577
-0.00661173
-0.00659976
-0.00655865
-0.00648754
-0.00638586
-0.00625345
-0.00609055
-0.00589783
-0.00567642
-0.00542803
-0.00515509
-0.00485859
-0.0045432
-0.00421197
-0.00386872
-0.0035177
-0.00316348
-0.00281087
-0.00246488
-0.00213059
-0.00181307
-0.00151731
-0.0012481
-0.00100994
-0.000806907
-0.000642608
-0.000520063
-0.000441642
-0.000408996
-0.000423019
-0.000483813
-0.000590693
-0.00074219
-0.000936097
-0.00116952
-0.00143896
-0.00174039
-0.00206938
-0.00242126
-0.00279102
-0.00317376
-0.00356457
-0.0039587
-0.00435168
-0.00473939
-0.0051181
-0.00548457
-0.00583602
-0.00617021
-0.00648538
-0.00678025
-0.007054
-0.00730623
-0.00753689
-0.00774626
-0.00793488
-0.00810348
-0.00825297
-0.00838433
-0.00849862
-0.00859691
-0.00868024
-0.00874961
-0.00880596
-0.00885012
-0.00888288
-0.00890494
-0.00891701
-0.00891978
-0.00891402
-0.00890084
-0.00888164
-0.00885537
-0.00881844
-3.61962e-05
-8.43197e-06
4.62295e-06
7.20321e-06
1.37096e-06
-1.31617e-05
-3.64374e-05
-6.81868e-05
-0.000108016
-0.000155448
-0.000209948
-0.000270971
-0.000337989
-0.000410532
-0.000488207
-0.000570713
-0.000657851
-0.000749516
-0.000845698
-0.00094647
-0.00105197
-0.0011624
-0.00127799
-0.00139899
-0.00152567
-0.00165827
-0.00179703
-0.00194214
-0.00209375
-0.00225194
-0.00241676
-0.00258815
-0.002766
-0.0029501
-0.00314013
-0.0033357
-0.00353628
-0.0037412
-0.0039497
-0.00416086
-0.00437361
-0.00458675
-0.00479891
-0.00500858
-0.00521413
-0.00541377
-0.00560559
-0.00578759
-0.00595767
-0.0061137
-0.00625349
-0.00637488
-0.00647572
-0.00655398
-0.00660773
-0.00663521
-0.00663487
-0.00660542
-0.00654587
-0.00645559
-0.00633428
-0.00618211
-0.00599967
-0.00578804
-0.00554862
-0.00528302
-0.00499537
-0.00468719
-0.00436222
-0.00402441
-0.003678
-0.00332758
-0.00297798
-0.00263422
-0.0023014
-0.00198467
-0.00168905
-0.0014194
-0.00118027
-0.00097582
-0.000809724
-0.000685073
-0.000604303
-0.000569127
-0.000580489
-0.000638536
-0.000742608
-0.000891254
-0.00108227
-0.00131274
-0.00157914
-0.00187742
-0.0022031
-0.00255139
-0.00291733
-0.00329591
-0.00368218
-0.00407136
-0.00445894
-0.0048408
-0.00521322
-0.00557297
-0.00591734
-0.00624414
-0.00655167
-0.00683875
-0.00710467
-0.0073491
-0.00757212
-0.0077741
-0.00795567
-0.00811765
-0.00826103
-0.00838687
-0.00849628
-0.00859039
-0.00867028
-0.00873697
-0.00879142
-0.00883445
-0.00886681
-0.00888914
-0.00890197
-0.00890577
-0.00890093
-0.00888805
-0.00886787
-0.0088375
-0.00879068
-2.56002e-05
4.38672e-06
1.81626e-05
2.0617e-05
1.43168e-05
-7.88446e-07
-2.45539e-05
-5.65693e-05
-9.63506e-05
-0.000143365
-0.00019705
-0.000256849
-0.000322241
-0.000392773
-0.000468078
-0.000547888
-0.000632037
-0.000720458
-0.000813182
-0.000910322
-0.00101206
-0.00111863
-0.00123032
-0.00134742
-0.00147022
-0.00159903
-0.00173412
-0.00187574
-0.00202407
-0.00217928
-0.00234145
-0.0025106
-0.00268668
-0.00286955
-0.00305898
-0.00325462
-0.00345601
-0.00366257
-0.00387358
-0.00408815
-0.00430528
-0.00452377
-0.00474227
-0.00495928
-0.00517311
-0.00538197
-0.00558388
-0.00577679
-0.0059585
-0.00612679
-0.00627937
-0.00641396
-0.0065283
-0.00662023
-0.00668769
-0.00672881
-0.00674191
-0.00672559
-0.00667875
-0.00660063
-0.00649087
-0.00634952
-0.00617712
-0.00597467
-0.00574362
-0.00548573
-0.00520393
-0.00490093
-0.00458018
-0.00424556
-0.00390132
-0.00355207
-0.00320265
-0.00285815
-0.00252374
-0.00220461
-0.00190588
-0.00163249
-0.0013891
-0.00117998
-0.00100889
-0.000879039
-0.000792971
-0.000752494
-0.000758641
-0.000811633
-0.000910869
-0.00105494
-0.00124165
-0.0014681
-0.00173073
-0.00202544
-0.00234771
-0.00269266
-0.00305526
-0.00343041
-0.00381305
-0.00419834
-0.00458169
-0.00495891
-0.00532625
-0.00568046
-0.00601883
-0.00633917
-0.00663986
-0.00691977
-0.00717826
-0.00741512
-0.00763052
-0.00782493
-0.00799909
-0.00815396
-0.0082906
-0.00841017
-0.00851388
-0.00860292
-0.00867844
-0.0087415
-0.00879307
-0.00883399
-0.00886496
-0.00888653
-0.0088991
-0.0089029
-0.00889798
-0.00888454
-0.00886279
-0.00882843
-0.00877315
-3.25567e-06
2.73037e-05
4.09447e-05
4.27949e-05
3.56587e-05
1.96527e-05
-4.92893e-06
-3.7555e-05
-7.76528e-05
-0.000124627
-0.000177875
-0.000236819
-0.000300936
-0.000369784
-0.000443019
-0.000520404
-0.00060181
-0.000687217
-0.000776704
-0.000870437
-0.000968655
-0.00107165
-0.00117977
-0.00129335
-0.00141277
-0.00153838
-0.00167051
-0.00180949
-0.00195559
-0.00210902
-0.00226995
-0.00243849
-0.00261466
-0.00279841
-0.00298957
-0.00318788
-0.00339294
-0.00360423
-0.00382107
-0.00404261
-0.00426785
-0.00449559
-0.00472448
-0.00495294
-0.00517926
-0.00540154
-0.00561773
-0.00582563
-0.00602297
-0.00620734
-0.00637635
-0.00652754
-0.00665853
-0.006767
-0.00685075
-0.00690775
-0.00693622
-0.00693462
-0.00690174
-0.00683672
-0.00673912
-0.0066089
-0.00644652
-0.00625294
-0.0060296
-0.00577821
-0.00550149
-0.00520233
-0.00488416
-0.00455083
-0.00420662
-0.00385616
-0.00350436
-0.00315634
-0.00281734
-0.00249265
-0.0021875
-0.00190692
-0.00165571
-0.00143827
-0.0012585
-0.00111977
-0.00102474
-0.000975384
-0.00097285
-0.00101748
-0.00110877
-0.0012454
-0.00142521
-0.00164534
-0.00190223
-0.00219174
-0.0025093
-0.00284997
-0.00320861
-0.00358
-0.00395899
-0.0043406
-0.00472014
-0.0050933
-0.00545626
-0.00580569
-0.00613884
-0.0064535
-0.00674806
-0.00702141
-0.00727296
-0.0075026
-0.00771056
-0.00789744
-0.0080641
-0.00821158
-0.00834108
-0.00845388
-0.00855127
-0.00863455
-0.00870493
-0.00876354
-0.00881138
-0.0088493
-0.00887798
-0.0088979
-0.00890934
-0.00891232
-0.00890665
-0.00889217
-0.00886873
-0.00883102
-0.00876931
3.11635e-05
6.07555e-05
7.33256e-05
7.39496e-05
6.54808e-05
4.81529e-05
2.23729e-05
-1.12294e-05
-5.20016e-05
-9.92881e-05
-0.000152446
-0.000210875
-0.000274048
-0.000341533
-0.000413008
-0.000488271
-0.000567238
-0.000649941
-0.000736521
-0.000827208
-0.000922312
-0.0010222
-0.00112729
-0.001238
-0.00135479
-0.00147809
-0.00160834
-0.00174593
-0.00189122
-0.00204453
-0.00220613
-0.0023762
-0.00255488
-0.00274218
-0.00293803
-0.00314224
-0.00335447
-0.00357424
-0.00380089
-0.00403359
-0.00427131
-0.00451281
-0.00475668
-0.00500127
-0.00524474
-0.00548507
-0.00572008
-0.00594742
-0.00616463
-0.00636916
-0.00655842
-0.0067298
-0.00688073
-0.00700874
-0.00711147
-0.00718677
-0.0072327
-0.00724761
-0.00723018
-0.00717947
-0.00709492
-0.00697647
-0.00682447
-0.00663981
-0.00642381
-0.00617853
-0.00590629
-0.00561004
-0.00529321
-0.00495967
-0.00461371
-0.00425998
-0.00390344
-0.00354927
-0.00320279
-0.00286938
-0.00255438
-0.00226296
-0.00200005
-0.00177022
-0.00157756
-0.00142559
-0.00131719
-0.0012545
-0.00123886
-0.00127078
-0.0013499
-0.00147502
-0.00164411
-0.00185436
-0.00210225
-0.00238366
-0.00269396
-0.00302816
-0.00338103
-0.00374725
-0.00412152
-0.00449872
-0.00487402
-0.00524299
-0.00560164
-0.00594656
-0.00627489
-0.00658436
-0.0068733
-0.00714063
-0.00738576
-0.0076086
-0.00780948
-0.00798907
-0.00814833
-0.00828842
-0.00841066
-0.00851643
-0.00860715
-0.00868421
-0.00874891
-0.00880247
-0.00884593
-0.00888016
-0.00890585
-0.00892342
-0.00893306
-0.00893468
-0.00892786
-0.0089122
-0.00888728
-0.00884715
-0.00878119
7.768e-05
0.000104903
0.000115473
0.0001142
0.000103845
8.47317e-05
5.73514e-05
2.24082e-05
-1.93801e-05
-6.73075e-05
-0.000120697
-0.000178933
-0.000241486
-0.000307938
-0.000377995
-0.000451494
-0.000528405
-0.000608824
-0.00069296
-0.000781128
-0.000873721
-0.000971196
-0.00107406
-0.00118284
-0.00129809
-0.00142036
-0.00155017
-0.00168804
-0.00183445
-0.00198981
-0.00215452
-0.00232886
-0.00251306
-0.00270724
-0.0029114
-0.00312541
-0.00334898
-0.00358164
-0.00382274
-0.0040714
-0.00432654
-0.00458686
-0.00485081
-0.00511662
-0.00538229
-0.00564565
-0.00590431
-0.00615575
-0.00639729
-0.0066262
-0.00683968
-0.00703495
-0.00720926
-0.00735995
-0.00748453
-0.00758069
-0.00764638
-0.00767983
-0.00767961
-0.0076447
-0.00757448
-0.00746878
-0.00732793
-0.00715272
-0.00694445
-0.00670513
-0.00643706
-0.00614314
-0.00582679
-0.00549186
-0.00514265
-0.00478383
-0.00442039
-0.00405755
-0.00370071
-0.00335534
-0.0030269
-0.0027207
-0.00244184
-0.00219508
-0.0019847
-0.00181447
-0.00168749
-0.00160613
-0.00157197
-0.00158577
-0.00164736
-0.00175575
-0.00190906
-0.00210462
-0.00233899
-0.0026081
-0.00290734
-0.00323167
-0.00357581
-0.00393431
-0.00430176
-0.00467288
-0.00504268
-0.00540654
-0.00576033
-0.00610046
-0.00642394
-0.00672839
-0.00701206
-0.00727378
-0.00751296
-0.00772951
-0.00792378
-0.00809651
-0.00824872
-0.00838168
-0.0084968
-0.00859559
-0.00867957
-0.00875024
-0.00880901
-0.00885717
-0.00889584
-0.00892594
-0.00894815
-0.00896291
-0.00897035
-0.00897027
-0.00896213
-0.00894538
-0.0089194
-0.00887791
-0.00880985
0.000136144
0.000159722
0.000167409
0.00016357
0.000150773
0.000129408
0.000100034
6.34039e-05
2.02808e-05
-2.85937e-05
-8.2521e-05
-0.000140878
-0.000203143
-0.000268919
-0.000337947
-0.000410116
-0.000485458
-0.000564143
-0.000646469
-0.000732841
-0.000823756
-0.000919779
-0.00102153
-0.00112966
-0.00124484
-0.00136775
-0.00149905
-0.00163938
-0.00178935
-0.00194951
-0.00212037
-0.00230234
-0.00249574
-0.00270079
-0.00291755
-0.00314593
-0.00338566
-0.00363625
-0.00389702
-0.00416701
-0.00444504
-0.00472968
-0.0050192
-0.00531168
-0.00560491
-0.00589649
-0.00618384
-0.00646419
-0.00673466
-0.00699229
-0.00723409
-0.00745707
-0.0076583
-0.00783498
-0.00798444
-0.00810426
-0.00819225
-0.00824654
-0.00826563
-0.00824839
-0.00819411
-0.00810258
-0.00797403
-0.00780922
-0.0076094
-0.00737644
-0.00711266
-0.0068209
-0.00650452
-0.00616736
-0.00581368
-0.00544816
-0.00507579
-0.00470184
-0.00433176
-0.00397112
-0.00362548
-0.00330031
-0.00300089
-0.00273218
-0.00249871
-0.00230451
-0.00215295
-0.00204672
-0.0019877
-0.00197691
-0.00201452
-0.00209977
-0.00223103
-0.00240583
-0.00262089
-0.00287225
-0.00315536
-0.00346521
-0.00379646
-0.00414359
-0.00450106
-0.00486344
-0.00522556
-0.00558262
-0.00593029
-0.00626477
-0.0065829
-0.00688213
-0.00716057
-0.00741695
-0.00765058
-0.00786134
-0.00804955
-0.00821598
-0.00836169
-0.00848801
-0.00859644
-0.00868858
-0.00876606
-0.00883049
-0.00888337
-0.00892609
-0.00895985
-0.00898562
-0.00900415
-0.00901586
-0.0090209
-0.00901902
-0.00900959
-0.00899199
-0.00896547
-0.00892367
-0.00885551
0.00020629
0.000225044
0.00022902
0.00022198
0.00020621
0.000182156
0.000150424
0.000111791
6.7043e-05
1.69363e-05
-3.78239e-05
-9.66192e-05
-0.000158948
-0.000224447
-0.000292905
-0.000364272
-0.000438658
-0.000516321
-0.00059766
-0.000683189
-0.000773525
-0.000869362
-0.000971455
-0.0010806
-0.00119761
-0.0013233
-0.00145851
-0.00160402
-0.00176057
-0.00192888
-0.00210958
-0.00230319
-0.00251013
-0.00273069
-0.00296499
-0.00321294
-0.00347425
-0.00374839
-0.00403457
-0.00433173
-0.00463852
-0.00495332
-0.00527422
-0.00559904
-0.00592536
-0.00625053
-0.00657171
-0.0068859
-0.00718999
-0.00748079
-0.00775509
-0.00800973
-0.0082416
-0.00844773
-0.00862534
-0.00877185
-0.00888498
-0.00896276
-0.00900358
-0.00900623
-0.00896994
-0.00889439
-0.00877975
-0.0086267
-0.00843642
-0.00821068
-0.00795172
-0.00766233
-0.00734578
-0.00700587
-0.0066468
-0.00627321
-0.00589008
-0.0055027
-0.00511657
-0.00473732
-0.00437062
-0.0040221
-0.00369722
-0.00340117
-0.00313876
-0.0029143
-0.00273152
-0.00259343
-0.00250229
-0.00245952
-0.00246562
-0.0025202
-0.00262196
-0.0027687
-0.0029574
-0.00318429
-0.00344494
-0.00373442
-0.0040474
-0.00437832
-0.00472154
-0.00507149
-0.00542282
-0.00577051
-0.00611002
-0.00643733
-0.00674904
-0.00704239
-0.00731529
-0.00756632
-0.00779464
-0.00800002
-0.00818275
-0.00834351
-0.0084834
-0.00860377
-0.00870617
-0.00879226
-0.00886377
-0.00892238
-0.00896972
-0.00900725
-0.00903627
-0.00905783
-0.00907272
-0.00908142
-0.00908408
-0.00908048
-0.00906996
-0.00905185
-0.00902536
-0.00898425
-0.00891774
0.000287751
0.000300573
0.00030006
0.000289234
0.000270009
0.000242874
0.000208463
0.000167547
0.000120911
6.9306e-05
1.34232e-05
-4.61415e-05
-0.000108922
-0.000174603
-0.000243036
-0.000314249
-0.000388441
-0.000465979
-0.000547374
-0.000633272
-0.000724427
-0.000821682
-0.000925951
-0.00103819
-0.00115938
-0.00129052
-0.0014326
-0.00158657
-0.00175335
-0.00193378
-0.00212863
-0.00233854
-0.00256401
-0.00280536
-0.00306273
-0.00333602
-0.00362486
-0.00392862
-0.00424638
-0.00457689
-0.0049186
-0.00526966
-0.00562791
-0.0059909
-0.00635596
-0.00672016
-0.00708039
-0.00743341
-0.00777586
-0.00810435
-0.00841546
-0.00870583
-0.0089722
-0.00921146
-0.00942068
-0.00959718
-0.00973857
-0.00984278
-0.00990811
-0.00993326
-0.00991736
-0.00986001
-0.00976128
-0.00962174
-0.00944251
-0.00922522
-0.00897202
-0.00868558
-0.00836909
-0.00802624
-0.00766116
-0.00727842
-0.00688296
-0.00648005
-0.0060752
-0.0056741
-0.00528253
-0.00490624
-0.00455088
-0.0042219
-0.00392437
-0.00366296
-0.00344176
-0.0032642
-0.00313298
-0.00304994
-0.00301608
-0.00303143
-0.00309511
-0.00320533
-0.00335939
-0.00355382
-0.00378441
-0.00404636
-0.00433444
-0.00464309
-0.00496662
-0.00529933
-0.00563571
-0.00597053
-0.00629899
-0.00661684
-0.00692039
-0.00720664
-0.00747325
-0.00771855
-0.00794154
-0.00814181
-0.0083195
-0.00847525
-0.00861007
-0.00872529
-0.00882248
-0.00890333
-0.00896963
-0.00902315
-0.00906557
-0.00909845
-0.00912319
-0.0091409
-0.00915246
-0.00915841
-0.00915896
-0.0091539
-0.00914261
-0.00912441
-0.00909854
-0.00905902
-0.00899564
0.000380043
0.000385876
0.000380152
0.00036501
0.00034191
0.000311349
0.000273988
0.00023055
0.00018179
0.000128432
7.11303e-05
1.04381e-05
-5.3233e-05
-0.000119634
-0.000188695
-0.00026054
-0.000335477
-0.000413993
-0.000496736
-0.0005845
-0.000678201
-0.000778851
-0.000887539
-0.00100541
-0.00113363
-0.00127339
-0.00142587
-0.00159218
-0.00177342
-0.00197058
-0.00218453
-0.00241601
-0.00266557
-0.00293355
-0.00322006
-0.00352493
-0.00384767
-0.00418749
-0.00454328
-0.00491357
-0.00529655
-0.00569009
-0.00609176
-0.00649881
-0.00690828
-0.00731696
-0.00772148
-0.00811834
-0.00850396
-0.0088747
-0.00922699
-0.00955728
-0.00986216
-0.0101384
-0.0103829
-0.0105929
-0.0107659
-0.0108998
-0.0109926
-0.0110432
-0.0110504
-0.0110137
-0.0109332
-0.0108093
-0.010643
-0.0104357
-0.0101895
-0.009907
-0.00959115
-0.00924555
-0.00887421
-0.0084816
-0.00807258
-0.00765236
-0.00722644
-0.00680053
-0.00638047
-0.00597215
-0.0055814
-0.00521388
-0.004875
-0.00456976
-0.00430267
-0.00407762
-0.0038978
-0.0037656
-0.00368254
-0.00364922
-0.00366528
-0.00372942
-0.00383942
-0.00399217
-0.00418382
-0.00440982
-0.00466508
-0.00494414
-0.0052413
-0.00555079
-0.00586695
-0.00618434
-0.00649793
-0.00680316
-0.00709607
-0.00737333
-0.00763232
-0.00787108
-0.00808834
-0.00828348
-0.00845644
-0.00860771
-0.00873817
-0.00884909
-0.008942
-0.00901857
-0.00908062
-0.00912995
-0.00916832
-0.00919735
-0.00921851
-0.00923301
-0.0092418
-0.00924549
-0.00924436
-0.00923826
-0.00922664
-0.00920885
-0.00918416
-0.00914701
-0.00908795
0.000482541
0.000480369
0.000468764
0.000448836
0.00042149
0.000387243
0.0003467
0.000300533
0.000249436
0.000194073
0.000135039
7.28184e-05
7.74967e-06
-6.00056e-05
-0.000130479
-0.000203905
-0.000280719
-0.000361552
-0.000447209
-0.000538651
-0.000636977
-0.00074339
-0.00085918
-0.000985693
-0.00112431
-0.00127641
-0.00144337
-0.00162649
-0.00182702
-0.00204609
-0.00228466
-0.00254353
-0.00282328
-0.00312421
-0.00344635
-0.0037894
-0.0041527
-0.00453527
-0.00493573
-0.00535234
-0.00578301
-0.00622529
-0.00667643
-0.00713341
-0.00759293
-0.00805152
-0.00850553
-0.00895121
-0.00938476
-0.00980236
-0.0102002
-0.0105747
-0.0109221
-0.0112392
-0.0115228
-0.0117699
-0.011978
-0.0121449
-0.0122685
-0.0123475
-0.0123807
-0.0123675
-0.0123077
-0.0122017
-0.0120504
-0.011855
-0.0116175
-0.0113401
-0.0110258
-0.0106781
-0.0103006
-0.00989787
-0.00947451
-0.00903567
-0.00858679
-0.00813356
-0.00768186
-0.00723766
-0.00680695
-0.00639561
-0.00600935
-0.00565353
-0.00533308
-0.00505242
-0.00481527
-0.00462462
-0.00448263
-0.00439054
-0.00434864
-0.00435624
-0.00441171
-0.00451247
-0.00465512
-0.00483547
-0.00504871
-0.00528957
-0.00555241
-0.00583146
-0.00612093
-0.00641523
-0.00670906
-0.00699758
-0.00727649
-0.00754212
-0.0077915
-0.00802233
-0.00823301
-0.00842263
-0.00859087
-0.00873799
-0.0088647
-0.00897212
-0.00906168
-0.00913501
-0.00919389
-0.00924011
-0.00927547
-0.00930165
-0.00932016
-0.0093323
-0.00933908
-0.0093412
-0.009339
-0.00933242
-0.00932099
-0.00930413
-0.00928115
-0.00924702
-0.00919318
0.00059446
0.000583289
0.000565193
0.000540071
0.000508181
0.000470016
0.000426114
0.000377047
0.000323412
0.000265784
0.00020467
0.000140463
7.34012e-05
3.53863e-06
-6.92771e-05
-0.000145415
-0.00022546
-0.000310205
-0.000400634
-0.000497901
-0.000603305
-0.000718265
-0.000844287
-0.000982938
-0.00113582
-0.00130451
-0.00149059
-0.00169554
-0.00192075
-0.00216744
-0.00243666
-0.00272923
-0.00304568
-0.00338624
-0.0037508
-0.00413887
-0.0045496
-0.0049817
-0.00543352
-0.00590301
-0.00638774
-0.00688495
-0.00739155
-0.0079042
-0.0084193
-0.0089331
-0.00944169
-0.00994108
-0.0104273
-0.0108962
-0.011344
-0.0117667
-0.0121608
-0.0125226
-0.012849
-0.0131368
-0.0133835
-0.0135866
-0.0137442
-0.0138546
-0.0139167
-0.0139297
-0.0138933
-0.0138077
-0.0136736
-0.0134922
-0.0132651
-0.0129945
-0.0126831
-0.0123341
-0.0119512
-0.0115385
-0.0111006
-0.0106425
-0.0101694
-0.009687
-0.00920117
-0.00871792
-0.00824335
-0.00778354
-0.00734443
-0.00693176
-0.0065509
-0.00620676
-0.00590367
-0.00564528
-0.00543445
-0.00527316
-0.00516244
-0.00510238
-0.00509204
-0.00512953
-0.00521203
-0.00533588
-0.00549668
-0.00568945
-0.00590873
-0.00614881
-0.00640389
-0.00666822
-0.00693627
-0.00720292
-0.00746351
-0.00771401
-0.00795103
-0.00817187
-0.00837456
-0.0085578
-0.00872095
-0.00886396
-0.00898731
-0.0090919
-0.009179
-0.00925011
-0.00930692
-0.0093512
-0.00938474
-0.00940921
-0.00942617
-0.00943696
-0.00944267
-0.00944406
-0.00944155
-0.00943516
-0.00942452
-0.00940912
-0.00938835
-0.00935775
-0.00930972
0.000714801
0.000693689
0.000668529
0.000637863
0.000601188
0.000558934
0.000511535
0.000459418
0.000403045
0.000342869
0.00027928
0.000212551
0.000142796
6.99375e-05
-6.32075e-06
-8.65037e-05
-0.000171369
-0.000261895
-0.000359268
-0.000464855
-0.000580179
-0.000706889
-0.000846726
-0.00100149
-0.001173
-0.00136306
-0.00157342
-0.00180572
-0.00206147
-0.00234197
-0.00264829
-0.0029812
-0.00334118
-0.00372829
-0.00414224
-0.0045823
-0.00504733
-0.00553576
-0.00604558
-0.00657439
-0.00711943
-0.00767759
-0.00824543
-0.0088193
-0.0093953
-0.0099694
-0.0105374
-0.0110952
-0.0116385
-0.0121631
-0.0126649
-0.0131399
-0.0135843
-0.0139945
-0.0143671
-0.014699
-0.0149874
-0.01523
-0.0154244
-0.0155692
-0.0156629
-0.0157047
-0.0156942
-0.0156314
-0.0155168
-0.0153514
-0.0151368
-0.0148747
-0.0145679
-0.0142191
-0.0138318
-0.01341
-0.012958
-0.0124806
-0.0119828
-0.0114703
-0.0109488
-0.0104243
-0.00990295
-0.00939095
-0.00889447
-0.00841957
-0.00797202
-0.00755725
-0.00718019
-0.00684519
-0.00655585
-0.00631498
-0.00612448
-0.00598529
-0.00589734
-0.00585957
-0.00586993
-0.00592541
-0.0060222
-0.00615575
-0.00632095
-0.00651226
-0.00672393
-0.00695014
-0.00718519
-0.00742366
-0.00766057
-0.00789145
-0.00811249
-0.00832053
-0.00851313
-0.00868857
-0.0088458
-0.00898438
-0.00910447
-0.00920667
-0.00929202
-0.00936185
-0.0094177
-0.00946123
-0.00949416
-0.00951816
-0.00953477
-0.00954537
-0.00955107
-0.0095527
-0.00955074
-0.0095453
-0.0095361
-0.0095227
-0.00950459
-0.00947788
-0.00943599
0.000842345
0.000810375
0.000777633
0.000741133
0.000699488
0.000653021
0.00060202
0.000546712
0.000487387
0.000424342
0.000357817
0.000287936
0.000214665
0.000137769
5.67839e-05
-2.89968e-05
-0.000120525
-0.000218991
-0.000325803
-0.000442562
-0.000571036
-0.000713117
-0.000870794
-0.0010461
-0.00124108
-0.00145774
-0.00169799
-0.0019636
-0.00225616
-0.00257701
-0.00292717
-0.00330735
-0.00371785
-0.00415856
-0.00462891
-0.00512791
-0.00565406
-0.00620545
-0.00677972
-0.00737409
-0.00798543
-0.00861026
-0.00924484
-0.00988517
-0.0105271
-0.0111662
-0.0117982
-0.0124187
-0.0130231
-0.0136072
-0.0141667
-0.0146974
-0.0151955
-0.0156572
-0.0160791
-0.016458
-0.016791
-0.0170755
-0.0173095
-0.017491
-0.0176188
-0.0176918
-0.0177094
-0.0176716
-0.0175787
-0.0174315
-0.0172313
-0.0169798
-0.0166793
-0.0163324
-0.0159424
-0.0155129
-0.015048
-0.0145521
-0.0140302
-0.0134877
-0.01293
-0.0123632
-0.0117934
-0.0112268
-0.0106697
-0.0101285
-0.00960924
-0.00911785
-0.00865984
-0.00824025
-0.00786347
-0.0075332
-0.00725227
-0.0070226
-0.00684513
-0.00671977
-0.00664538
-0.00661986
-0.00664012
-0.00670227
-0.00680166
-0.00693312
-0.00709105
-0.00726969
-0.00746321
-0.00766598
-0.00787267
-0.00807839
-0.00827886
-0.00847041
-0.00865009
-0.00881566
-0.00896556
-0.00909892
-0.00921546
-0.00931543
-0.00939955
-0.00946888
-0.00952475
-0.00956866
-0.00960223
-0.00962702
-0.00964455
-0.00965617
-0.00966301
-0.00966593
-0.00966546
-0.00966178
-0.00965468
-0.00964382
-0.00962876
-0.00960619
-0.00957052
0.0009756
0.000931901
0.000891115
0.000848546
0.000801801
0.000751044
0.000696343
0.0006377
0.000575183
0.000508894
0.000438889
0.000365117
0.000287368
0.000205223
0.000118026
2.48639e-05
-7.54356e-05
-0.000184295
-0.000303367
-0.000434507
-0.000579741
-0.000741218
-0.000921173
-0.00112188
-0.00134559
-0.00159448
-0.00187062
-0.00217585
-0.0025118
-0.00287978
-0.00328073
-0.00371519
-0.00418326
-0.00468458
-0.00521826
-0.00578297
-0.00637685
-0.0069976
-0.00764245
-0.00830827
-0.00899152
-0.00968837
-0.0103947
-0.0111063
-0.0118186
-0.012527
-0.013227
-0.0139138
-0.0145829
-0.0152298
-0.01585
-0.0164393
-0.0169938
-0.0175095
-0.017983
-0.018411
-0.0187907
-0.0191193
-0.0193946
-0.0196149
-0.0197785
-0.0198846
-0.0199322
-0.0199213
-0.019852
-0.0197249
-0.0195412
-0.0193023
-0.0190102
-0.0186674
-0.0182766
-0.0178414
-0.0173653
-0.0168528
-0.0163082
-0.0157368
-0.0151439
-0.0145352
-0.0139167
-0.0132947
-0.0126754
-0.0120654
-0.011471
-0.0108986
-0.0103542
-0.00984352
-0.00937168
-0.00894327
-0.00856215
-0.00823128
-0.00795274
-0.00772754
-0.00755568
-0.00743609
-0.00736665
-0.00734432
-0.00736514
-0.00742447
-0.00751709
-0.00763737
-0.00777953
-0.00793777
-0.00810645
-0.00828031
-0.00845454
-0.00862496
-0.00878802
-0.00894088
-0.00908142
-0.00920821
-0.00932047
-0.009418
-0.00950109
-0.00957048
-0.00962721
-0.00967255
-0.0097079
-0.00973472
-0.00975443
-0.00976832
-0.00977748
-0.00978278
-0.00978478
-0.00978368
-0.00977937
-0.00977157
-0.0097599
-0.00974159
-0.00971201
0.00111279
0.00105654
0.00100731
0.000958493
0.000906564
0.00085145
0.000792975
0.000730836
0.000664842
0.000594861
0.000520736
0.00044221
0.000358868
0.000270082
0.000174977
7.24093e-05
-3.90367e-05
-0.000161039
-0.000295515
-0.00044459
-0.000610554
-0.000795822
-0.00100287
-0.0012342
-0.00149226
-0.00177936
-0.00209766
-0.00244907
-0.00283517
-0.00325718
-0.0037159
-0.00421165
-0.00474426
-0.00531303
-0.00591675
-0.00655367
-0.00722154
-0.00791763
-0.00863879
-0.00938146
-0.0101417
-0.0109154
-0.011698
-0.012485
-0.0132715
-0.0140528
-0.0148239
-0.0155801
-0.0163166
-0.0170286
-0.0177118
-0.0183617
-0.0189743
-0.0195456
-0.0200722
-0.0205507
-0.0209782
-0.0213521
-0.02167
-0.0219301
-0.0221309
-0.0222712
-0.0223502
-0.0223677
-0.0223234
-0.0222182
-0.0220528
-0.0218285
-0.021547
-0.0212104
-0.0208213
-0.0203828
-0.0198982
-0.0193715
-0.0188068
-0.0182089
-0.0175828
-0.016934
-0.0162683
-0.0155917
-0.0149105
-0.0142312
-0.0135604
-0.0129047
-0.0122705
-0.011664
-0.0110913
-0.0105577
-0.0100681
-0.00962657
-0.00923635
-0.00889975
-0.00861802
-0.00839134
-0.00821877
-0.00809834
-0.00802705
-0.008001
-0.00801555
-0.00806546
-0.00814509
-0.00824861
-0.0083702
-0.00850422
-0.00864539
-0.00878895
-0.00893071
-0.00906719
-0.00919559
-0.00931385
-0.00942057
-0.009515
-0.00959693
-0.00966666
-0.00972485
-0.00977247
-0.00981066
-0.00984067
-0.00986377
-0.00988113
-0.0098938
-0.00990257