/*--------------------------------*- C++ -*----------------------------------*\
| =========                 |                                                 |
| \\      /  F ield         | OpenFOAM: The Open Source CFD Toolbox           |
|  \\    /   O peration     | Version:  2112                                  |
|   \\  /    A nd           | Website:  www.openfoam.com                      |
|    \\/     M anipulation  |                                                 |
\*---------------------------------------------------------------------------*/
FoamFile
{
    version     2.0;
    format      ascii;
    arch        "LSB;label=32;scalar=64";
    class       surfaceScalarField;
    location    "38";
    object      phi;
}
// * * * * * * * * * * * * * * * * * * * * * * * * * * * * * * * * * * * * * //

dimensions      [0 3 -1 0 0 0 0];

oriented        oriented;

internalField   nonuniform List<scalar> 
33024
(
-4.03423e-09
3.52237e-09
2.28223e-08
-2.68678e-08
8.07937e-08
-5.7968e-08
1.61366e-07
-8.05672e-08
2.5584e-07
-9.44802e-08
3.56817e-07
-1.00981e-07
4.58357e-07
-1.01539e-07
5.55889e-07
-9.75288e-08
6.46012e-07
-9.01215e-08
7.26301e-07
-8.02895e-08
7.95133e-07
-6.8834e-08
8.51537e-07
-5.64052e-08
8.95055e-07
-4.35185e-08
9.25623e-07
-3.05669e-08
9.43456e-07
-1.78319e-08
9.4895e-07
-5.49429e-09
9.42591e-07
6.35812e-09
9.24883e-07
1.77081e-08
8.96277e-07
2.86068e-08
8.57125e-07
3.91521e-08
8.07646e-07
4.94786e-08
7.47903e-07
5.97426e-08
6.77793e-07
7.01101e-08
5.97048e-07
8.07447e-08
5.05249e-07
9.1799e-08
4.01843e-07
1.03406e-07
2.86165e-07
1.15677e-07
1.57471e-07
1.28694e-07
1.49593e-08
1.42512e-07
-1.42198e-07
1.57158e-07
-3.1483e-07
1.72632e-07
-5.03737e-07
1.88908e-07
-7.09675e-07
2.05938e-07
-9.33328e-07
2.23653e-07
-1.17529e-06
2.41963e-07
-1.43605e-06
2.60759e-07
-1.71597e-06
2.79917e-07
-2.01526e-06
2.9929e-07
-2.33397e-06
3.18718e-07
-2.672e-06
3.38023e-07
-3.02901e-06
3.57009e-07
-3.40447e-06
3.75465e-07
-3.79764e-06
3.93166e-07
-4.20751e-06
4.09872e-07
-4.63284e-06
4.25334e-07
-5.07213e-06
4.39291e-07
-5.52361e-06
4.51479e-07
-5.98524e-06
4.61629e-07
-6.45472e-06
4.69473e-07
-6.92946e-06
4.74748e-07
-7.40666e-06
4.77197e-07
-7.88324e-06
4.76577e-07
-8.3559e-06
4.72661e-07
-8.82114e-06
4.6524e-07
-9.27527e-06
4.54134e-07
-9.71446e-06
4.39187e-07
-1.01347e-05
4.2028e-07
-1.05321e-05
3.97328e-07
-1.09024e-05
3.70286e-07
-1.12415e-05
3.39154e-07
-1.15455e-05
3.0398e-07
-1.18103e-05
2.64858e-07
-1.20323e-05
2.21937e-07
-1.22077e-05
1.75425e-07
-1.23333e-05
1.25602e-07
-1.24061e-05
7.27957e-08
-1.24235e-05
1.74152e-08
-1.23829e-05
-4.05722e-08
-1.2283e-05
-9.99474e-08
-1.21224e-05
-1.60595e-07
-1.19005e-05
-2.21862e-07
-1.16174e-05
-2.83119e-07
-1.12737e-05
-3.43705e-07
-1.08708e-05
-4.02927e-07
-1.04107e-05
-4.60075e-07
-9.89628e-06
-5.14433e-07
-9.331e-06
-5.65286e-07
-8.71906e-06
-6.11936e-07
-8.06534e-06
-6.53717e-07
-7.37533e-06
-6.90011e-07
-6.65507e-06
-7.20259e-07
-5.9111e-06
-7.43977e-07
-5.15033e-06
-7.60773e-07
-4.37997e-06
-7.70356e-07
-3.60742e-06
-7.72551e-07
-2.84012e-06
-7.67301e-07
-2.08544e-06
-7.54681e-07
-1.35054e-06
-7.34892e-07
-6.4228e-07
-7.08263e-07
3.29744e-08
-6.75255e-07
6.69478e-07
-6.36503e-07
1.26201e-06
-5.92535e-07
1.80622e-06
-5.44212e-07
2.29856e-06
-4.92337e-07
2.73635e-06
-4.37788e-07
3.11781e-06
-3.81457e-07
3.44205e-06
-3.24243e-07
3.70907e-06
-2.67022e-07
3.9197e-06
-2.10627e-07
4.07553e-06
-1.55831e-07
4.17886e-06
-1.03326e-07
4.23257e-06
-5.37144e-08
4.24007e-06
-7.49554e-09
4.20512e-06
3.49428e-08
4.13181e-06
7.33149e-08
4.02436e-06
1.07452e-07
3.88707e-06
1.37285e-07
3.72423e-06
1.62845e-07
3.53998e-06
1.84248e-07
3.33829e-06
2.01687e-07
3.12288e-06
2.15416e-07
2.89714e-06
2.25736e-07
2.66416e-06
2.32975e-07
2.42669e-06
2.37474e-07
2.18713e-06
2.39559e-07
1.94761e-06
2.39521e-07
1.71003e-06
2.37585e-07
1.47614e-06
2.33882e-07
1.24773e-06
2.28409e-07
1.02674e-06
2.20995e-07
8.15483e-07
2.11257e-07
6.16921e-07
1.98562e-07
4.34916e-07
1.82006e-07
2.74495e-07
1.60421e-07
1.41989e-07
1.32506e-07
4.47357e-08
9.72535e-08
-1.02939e-08
5.50297e-08
-2.0869e-08
1.05751e-08
-2.08689e-08
2.65308e-08
-2.30198e-08
1.18979e-07
-1.19315e-07
2.71019e-07
-2.09999e-07
4.68347e-07
-2.77899e-07
6.94952e-07
-3.21084e-07
9.3565e-07
-3.41678e-07
1.17723e-06
-3.43124e-07
1.40883e-06
-3.29129e-07
1.62188e-06
-3.03168e-07
1.80991e-06
-2.68314e-07
1.96827e-06
-2.27204e-07
2.09391e-06
-1.8204e-07
2.18499e-06
-1.34605e-07
2.24071e-06
-8.62872e-08
2.26099e-06
-3.81023e-08
2.24622e-06
9.27086e-09
2.19712e-06
5.54638e-08
2.11445e-06
1.00373e-07
1.99895e-06
1.44109e-07
1.85114e-06
1.86963e-07
1.67127e-06
2.29349e-07
1.45925e-06
2.71764e-07
1.21462e-06
3.14738e-07
9.3656e-07
3.58801e-07
6.23916e-07
4.04443e-07
2.75228e-07
4.52094e-07
-1.11193e-07
5.02098e-07
-5.37204e-07
5.54706e-07
-1.00476e-06
6.10066e-07
-1.51583e-06
6.68226e-07
-2.07233e-06
7.29134e-07
-2.67606e-06
7.92641e-07
-3.32864e-06
8.58512e-07
-4.03141e-06
9.26429e-07
-4.78545e-06
9.95998e-07
-5.59144e-06
1.06675e-06
-6.44968e-06
1.13815e-06
-7.35999e-06
1.20961e-06
-8.32172e-06
1.28044e-06
-9.33365e-06
1.34995e-06
-1.0394e-05
1.41735e-06
-1.15003e-05
1.48181e-06
-1.26497e-05
1.54248e-06
-1.38382e-05
1.59845e-06
-1.50617e-05
1.6488e-06
-1.6315e-05
1.69258e-06
-1.75924e-05
1.72886e-06
-1.88874e-05
1.75669e-06
-2.01931e-05
1.77517e-06
-2.15018e-05
1.78342e-06
-2.28052e-05
1.78062e-06
-2.40947e-05
1.76602e-06
-2.53609e-05
1.73893e-06
-2.65945e-05
1.69877e-06
-2.77854e-05
1.64505e-06
-2.89236e-05
1.57742e-06
-2.9999e-05
1.49564e-06
-3.10012e-05
1.3996e-06
-3.19203e-05
1.28937e-06
-3.27463e-05
1.16514e-06
-3.34696e-05
1.02728e-06
-3.40811e-05
8.76336e-07
-3.45721e-05
7.13003e-07
-3.49349e-05
5.38174e-07
-3.51622e-05
3.52962e-07
-3.52481e-05
1.58602e-07
-3.51872e-05
-4.33996e-08
-3.49754e-05
-2.52424e-07
-3.46098e-05
-4.65497e-07
-3.40892e-05
-6.81258e-07
-3.34133e-05
-8.97719e-07
-3.25837e-05
-1.11278e-06
-3.16031e-05
-1.32424e-06
-3.04762e-05
-1.52985e-06
-2.9209e-05
-1.72732e-06
-2.78091e-05
-1.91434e-06
-2.62857e-05
-2.08866e-06
-2.46496e-05
-2.24807e-06
-2.29128e-05
-2.3905e-06
-2.10888e-05
-2.51401e-06
-1.91922e-05
-2.61686e-06
-1.72386e-05
-2.69757e-06
-1.52445e-05
-2.7549e-06
-1.32268e-05
-2.78796e-06
-1.12032e-05
-2.79619e-06
-9.1911e-06
-2.77941e-06
-7.20797e-06
-2.73781e-06
-5.27084e-06
-2.67202e-06
-3.39608e-06
-2.58302e-06
-1.59911e-06
-2.47223e-06
1.05787e-07
-2.3414e-06
1.70589e-06
-2.19264e-06
3.18991e-06
-2.02824e-06
4.54846e-06
-1.85088e-06
5.77402e-06
-1.66335e-06
6.86111e-06
-1.46855e-06
7.80627e-06
-1.2694e-06
8.60808e-06
-1.06883e-06
9.26711e-06
-8.69653e-07
9.7858e-06
-6.74522e-07
1.01683e-05
-4.85877e-07
1.04205e-05
-3.05892e-07
1.05495e-05
-1.36434e-07
1.05634e-05
2.09654e-08
1.04716e-05
1.65125e-07
1.02839e-05
2.95221e-07
1.00104e-05
4.10782e-07
9.66155e-06
5.11666e-07
9.24775e-06
5.98045e-07
8.77908e-06
6.7036e-07
8.26521e-06
7.29285e-07
7.71527e-06
7.75671e-07
7.13776e-06
8.1049e-07
6.54047e-06
8.34767e-07
5.93052e-06
8.49505e-07
5.31445e-06
8.55596e-07
4.6983e-06
8.53731e-07
4.08788e-06
8.44298e-07
3.48903e-06
8.27265e-07
2.90794e-06
8.0208e-07
2.35162e-06
7.67574e-07
1.82829e-06
7.219e-07
1.34773e-06
6.62559e-07
9.21563e-07
5.86591e-07
5.62911e-07
4.91158e-07
2.85273e-07
3.74892e-07
9.9869e-08
2.40434e-07
1.09798e-08
9.94643e-08
-9.88915e-09
5.77595e-08
-8.07759e-08
2.09966e-07
-2.71515e-07
4.38214e-07
-4.38257e-07
7.22585e-07
-5.62273e-07
1.0424e-06
-6.40892e-07
1.37797e-06
-6.77248e-07
1.71175e-06
-6.76904e-07
2.02883e-06
-6.46209e-07
2.31707e-06
-5.91407e-07
2.56698e-06
-5.18228e-07
2.77149e-06
-4.31719e-07
2.92563e-06
-3.36179e-07
3.02617e-06
-2.35146e-07
3.0713e-06
-1.31408e-07
3.06023e-06
-2.70396e-08
2.99296e-06
7.65437e-08
2.86988e-06
1.78541e-07
2.69159e-06
2.78667e-07
2.45862e-06
3.77084e-07
2.17128e-06
4.743e-07
1.82954e-06
5.71084e-07
1.43294e-06
6.68366e-07
9.8053e-07
7.67149e-07
4.70899e-07
8.68431e-07
-9.77946e-08
9.73137e-07
-7.27759e-07
1.08206e-06
-1.42148e-06
1.19582e-06
-2.18161e-06
1.31484e-06
-3.01088e-06
1.43934e-06
-3.91196e-06
1.5693e-06
-4.88734e-06
1.70452e-06
-5.93926e-06
1.84456e-06
-7.06958e-06
1.98883e-06
-8.27968e-06
2.13653e-06
-9.57037e-06
2.28669e-06
-1.09418e-05
2.43822e-06
-1.23935e-05
2.58985e-06
-1.39241e-05
2.7402e-06
-1.55314e-05
2.88775e-06
-1.72124e-05
3.03088e-06
-1.89629e-05
3.16786e-06
-2.0778e-05
3.29689e-06
-2.26516e-05
3.4161e-06
-2.45767e-05
3.52356e-06
-2.65452e-05
3.61734e-06
-2.85481e-05
3.6955e-06
-3.05754e-05
3.75614e-06
-3.26162e-05
3.79742e-06
-3.46586e-05
3.81758e-06
-3.66901e-05
3.81498e-06
-3.86976e-05
3.78811e-06
-4.06673e-05
3.73567e-06
-4.25848e-05
3.6565e-06
-4.44358e-05
3.54971e-06
-4.62054e-05
3.41463e-06
-4.78788e-05
3.25084e-06
-4.94414e-05
3.05821e-06
-5.08787e-05
2.83689e-06
-5.21766e-05
2.58734e-06
-5.33218e-05
2.31032e-06
-5.43014e-05
2.00691e-06
-5.51036e-05
1.6785e-06
-5.57174e-05
1.32679e-06
-5.6133e-05
9.53826e-07
-5.63421e-05
5.62039e-07
-5.63382e-05
1.54657e-07
-5.61142e-05
-2.67386e-07
-5.56673e-05
-6.99275e-07
-5.49952e-05
-1.13763e-06
-5.40975e-05
-1.57898e-06
-5.29757e-05
-2.01947e-06
-5.16335e-05
-2.45503e-06
-5.00762e-05
-2.88148e-06
-4.83115e-05
-3.29454e-06
-4.63489e-05
-3.68991e-06
-4.42e-05
-4.06328e-06
-4.18782e-05
-4.41047e-06
-3.93989e-05
-4.7274e-06
-3.67791e-05
-5.01024e-06
-3.40377e-05
-5.25543e-06
-3.11948e-05
-5.45978e-06
-2.82718e-05
-5.62053e-06
-2.52913e-05
-5.73542e-06
-2.22765e-05
-5.80277e-06
-1.92511e-05
-5.82152e-06
-1.62393e-05
-5.79127e-06
-1.32648e-05
-5.71234e-06
-1.0351e-05
-5.58577e-06
-7.5207e-06
-5.41333e-06
-4.79542e-06
-5.19751e-06
-2.19532e-06
-4.94149e-06
2.61111e-07
-4.64907e-06
2.55751e-06
-4.32463e-06
4.67955e-06
-3.97292e-06
6.61551e-06
-3.59931e-06
8.35616e-06
-3.2092e-06
9.89497e-06
-2.80822e-06
1.12281e-05
-2.40201e-06
1.23546e-05
-1.9961e-06
1.32759e-05
-1.59579e-06
1.3996e-05
-1.20601e-06
1.45214e-05
-8.31261e-07
1.48604e-05
-4.755e-07
1.50235e-05
-1.42083e-07
1.50223e-05
1.6628e-07
1.487e-05
4.47571e-07
1.45803e-05
7.00429e-07
1.41678e-05
9.2417e-07
1.36471e-05
1.11873e-06
1.30329e-05
1.2846e-06
1.23394e-05
1.42278e-06
1.15804e-05
1.53464e-06
1.07691e-05
1.62184e-06
9.91769e-06
1.68618e-06
9.03774e-06
1.72945e-06
8.14004e-06
1.7533e-06
7.23481e-06
1.75897e-06
6.33193e-06
1.74717e-06
5.44131e-06
1.71788e-06
4.57328e-06
1.67012e-06
3.73902e-06
1.60183e-06
2.95107e-06
1.50986e-06
2.22358e-06
1.39005e-06
1.57242e-06
1.23775e-06
1.01472e-06
1.04886e-06
5.67559e-07
8.22053e-07
2.45585e-07
5.62407e-07
5.7206e-08
2.87844e-07
4.73168e-08
8.07893e-08
-1.61559e-07
2.79241e-07
-4.6997e-07
5.64768e-07
-7.23789e-07
9.1082e-07
-9.08327e-07
1.29253e-06
-1.0226e-06
1.68704e-06
-1.07175e-06
2.07399e-06
-1.06385e-06
2.4359e-06
-1.00813e-06
2.75829e-06
-9.13798e-07
3.02957e-06
-7.89504e-07
3.24082e-06
-6.42975e-07
3.38553e-06
-4.80889e-07
3.45919e-06
-3.08803e-07
3.45893e-06
-1.31145e-07
3.38313e-06
4.87548e-08
3.23108e-06
2.28597e-07
3.00259e-06
4.0703e-07
2.69773e-06
5.83531e-07
2.31654e-06
7.58275e-07
1.85884e-06
9.31996e-07
1.32409e-06
1.10584e-06
7.1126e-07
1.28119e-06
1.88324e-08
1.45958e-06
-7.5522e-07
1.64248e-06
-1.61337e-06
1.83128e-06
-2.55843e-06
2.02712e-06
-3.59346e-06
2.23086e-06
-4.72164e-06
2.44302e-06
-5.94609e-06
2.66378e-06
-7.26973e-06
2.89294e-06
-8.69516e-06
3.12994e-06
-1.02245e-05
3.37389e-06
-1.18592e-05
3.62354e-06
-1.36e-05
3.87736e-06
-1.54469e-05
4.13355e-06
-1.73987e-05
4.39003e-06
-1.94533e-05
4.64448e-06
-2.16075e-05
4.89439e-06
-2.38568e-05
5.13705e-06
-2.61955e-05
5.36957e-06
-2.86166e-05
5.58897e-06
-3.11118e-05
5.79212e-06
-3.36716e-05
5.97587e-06
-3.6285e-05
6.13701e-06
-3.89401e-05
6.27238e-06
-4.16235e-05
6.37887e-06
-4.43208e-05
6.4535e-06
-4.70168e-05
6.49344e-06
-4.96953e-05
6.49606e-06
-5.23394e-05
6.45901e-06
-5.49314e-05
6.3802e-06
-5.74537e-05
6.2579e-06
-5.98879e-05
6.09072e-06
-6.22159e-05
5.87768e-06
-6.44194e-05
5.61821e-06
-6.64808e-05
5.3122e-06
-6.83825e-05
4.95995e-06
-7.01079e-05
4.56226e-06
-7.16409e-05
4.12037e-06
-7.29666e-05
3.63602e-06
-7.40711e-05
3.11139e-06
-7.49417e-05
2.54913e-06
-7.55673e-05
1.95234e-06
-7.5938e-05
1.32457e-06
-7.60455e-05
6.69463e-07
-7.58859e-05
-4.89624e-09
-7.54503e-05
-7.03021e-07
-7.4739e-05
-1.41058e-06
-7.37509e-05
-2.12571e-06
-7.24875e-05
-2.84242e-06
-7.09522e-05
-3.55471e-06
-6.91509e-05
-4.25636e-06
-6.70913e-05
-4.94105e-06
-6.47835e-05
-5.60232e-06
-6.22397e-05
-6.23374e-06
-5.94741e-05
-6.82891e-06
-5.6503e-05
-7.38158e-06
-5.33447e-05
-7.88573e-06
-5.00192e-05
-8.33566e-06
-4.65485e-05
-8.72611e-06
-4.2956e-05
-9.05232e-06
-3.92663e-05
-9.31019e-06
-3.55055e-05
-9.4963e-06
-3.17002e-05
-9.60809e-06
-2.78778e-05
-9.64387e-06
-2.40661e-05
-9.60294e-06
-2.02929e-05
-9.48561e-06
-1.65854e-05
-9.29328e-06
-1.29703e-05
-9.02839e-06
-9.47333e-06
-8.69448e-06
-6.11872e-06
-8.2961e-06
-2.92901e-06
-7.83878e-06
7.52689e-08
-7.32891e-06
2.8761e-06
-6.77375e-06
5.45776e-06
-6.18098e-06
7.80752e-06
-5.55895e-06
9.91556e-06
-4.91625e-06
1.17751e-05
-4.26158e-06
1.33826e-05
-3.60356e-06
1.47374e-05
-2.95058e-06
1.58419e-05
-2.31059e-06
1.67016e-05
-1.69095e-06
1.73244e-05
-1.09829e-06
1.77207e-05
-5.38355e-07
1.7903e-05
-1.59733e-08
1.78854e-05
4.65084e-07
1.76838e-05
9.02034e-07
1.73148e-05
1.29316e-06
1.67958e-05
1.63774e-06
1.61445e-05
1.93595e-06
1.53785e-05
2.18879e-06
1.45152e-05
2.39795e-06
1.35714e-05
2.5656e-06
1.25634e-05
2.69421e-06
1.15065e-05
2.78633e-06
1.04155e-05
2.84428e-06
9.30455e-06
2.86992e-06
8.18741e-06
2.86432e-06
7.0778e-06
2.82749e-06
5.98983e-06
2.75809e-06
4.93835e-06
2.6533e-06
3.93942e-06
2.50879e-06
3.01054e-06
2.31893e-06
2.17071e-06
2.07758e-06
1.44007e-06
1.77949e-06
8.39125e-07
1.423e-06
3.87424e-07
1.01411e-06
1.02333e-07
5.72935e-07
1.4965e-07
9.5611e-08
-2.57175e-07
3.25154e-07
-6.99512e-07
6.48204e-07
-1.04684e-06
1.03196e-06
-1.29208e-06
1.44766e-06
-1.43831e-06
1.86984e-06
-1.49392e-06
2.27615e-06
-1.47016e-06
2.64743e-06
-1.37941e-06
2.96767e-06
-1.23404e-06
3.22385e-06
-1.04569e-06
3.40578e-06
-8.24899e-07
3.50571e-06
-5.80827e-07
3.51807e-06
-3.2116e-07
3.43899e-06
-5.20658e-08
3.26597e-06
2.21777e-07
2.99746e-06
4.9711e-07
2.63251e-06
7.71978e-07
2.17047e-06
1.04558e-06
1.61067e-06
1.31807e-06
9.5225e-07
1.59041e-06
1.93992e-07
1.86409e-06
-6.65787e-07
2.14097e-06
-1.62925e-06
2.42304e-06
-2.69902e-06
2.71225e-06
-3.8781e-06
3.01036e-06
-5.16977e-06
3.31879e-06
-6.57743e-06
3.63851e-06
-8.10444e-06
3.97003e-06
-9.75393e-06
4.31327e-06
-1.15286e-05
4.66765e-06
-1.34307e-05
5.03203e-06
-1.54616e-05
5.40476e-06
-1.76218e-05
5.78369e-06
-1.99106e-05
6.16624e-06
-2.23265e-05
6.54941e-06
-2.48663e-05
6.92982e-06
-2.75256e-05
7.30378e-06
-3.02985e-05
7.66731e-06
-3.31776e-05
8.01618e-06
-3.6154e-05
8.34596e-06
-3.92172e-05
8.65212e-06
-4.23551e-05
8.93e-06
-4.55542e-05
9.17498e-06
-4.87996e-05
9.38246e-06
-5.20752e-05
9.54795e-06
-5.53635e-05
9.66719e-06
-5.86462e-05
9.73616e-06
-6.19039e-05
9.75115e-06
-6.51167e-05
9.70885e-06
-6.82641e-05
9.60642e-06
-7.13253e-05
9.44147e-06
-7.42796e-05
9.21217e-06
-7.71062e-05
8.91726e-06
-7.97845e-05
8.55606e-06
-8.22948e-05
8.12851e-06
-8.46178e-05
7.6352e-06
-8.67352e-05
7.07729e-06
-8.86295e-05
6.45662e-06
-9.02848e-05
5.77562e-06
-9.16861e-05
5.03734e-06
-9.28201e-05
4.2454e-06
-9.3675e-05
3.404e-06
-9.42406e-05
2.51792e-06
-9.45084e-05
1.59243e-06
-9.44725e-05
6.33488e-07
-9.4125e-05
-3.52317e-07
-9.34678e-05
-1.36022e-06
-9.24973e-05
-2.38108e-06
-9.12151e-05
-3.40793e-06
-8.96244e-05
-4.43308e-06
-8.77307e-05
-5.44848e-06
-8.55412e-05
-6.44582e-06
-8.30656e-05
-7.41666e-06
-8.03154e-05
-8.35249e-06
-7.73044e-05
-9.24476e-06
-7.40483e-05
-1.0085e-05
-7.05648e-05
-1.08651e-05
-6.68736e-05
-1.15769e-05
-6.29962e-05
-1.22131e-05
-5.89558e-05
-1.27665e-05
-5.47773e-05
-1.32308e-05
-5.04869e-05
-1.36006e-05
-4.61121e-05
-1.38711e-05
-4.16813e-05
-1.40389e-05
-3.72237e-05
-1.41014e-05
-3.2769e-05
-1.40576e-05
-2.83471e-05
-1.39075e-05
-2.39877e-05
-1.36527e-05
-1.97199e-05
-1.32962e-05
-1.55721e-05
-1.28423e-05
-1.15715e-05
-1.22967e-05
-7.74362e-06
-1.16667e-05
-4.11212e-06
-1.09604e-05
-6.98516e-07
-1.01874e-05
2.47832e-06
-9.35781e-06
5.40222e-06
-8.48286e-06
8.06005e-06
-7.57408e-06
1.04418e-05
-6.64336e-06
1.25409e-05
-5.70261e-06
1.43538e-05
-4.76354e-06
1.58807e-05
-3.8374e-06
1.71245e-05
-2.93479e-06
1.80916e-05
-2.06541e-06
1.87912e-05
-1.23788e-06
1.92348e-05
-4.5963e-07
1.94366e-05
2.6327e-07
1.94125e-05
9.26124e-07
1.91801e-05
1.52564e-06
1.87579e-05
2.05993e-06
1.81654e-05
2.52839e-06
1.74226e-05
2.93163e-06
1.65493e-05
3.27124e-06
1.55653e-05
3.5496e-06
1.44899e-05
3.76961e-06
1.33419e-05
3.93435e-06
1.21394e-05
4.04673e-06
1.09002e-05
4.10914e-06
9.64152e-06
4.12298e-06
8.38065e-06
4.08836e-06
7.13505e-06
4.00368e-06
5.92284e-06
3.86552e-06
4.76307e-06
3.66855e-06
3.67608e-06
3.40592e-06
2.6836e-06
3.07006e-06
1.80872e-06
2.65437e-06
1.0758e-06
2.15592e-06
5.10478e-07
1.57943e-06
1.40525e-07
9.42887e-07
2.90176e-07
1.03505e-07
-3.60684e-07
3.49602e-07
-9.45607e-07
6.90948e-07
-1.38818e-06
1.08965e-06
-1.69079e-06
1.51361e-06
-1.86227e-06
1.93517e-06
-1.91548e-06
2.33051e-06
-1.8655e-06
2.67933e-06
-1.72824e-06
2.96465e-06
-1.51935e-06
3.17253e-06
-1.25358e-06
3.29188e-06
-9.44251e-07
3.31409e-06
-6.03034e-07
3.23267e-06
-2.39741e-07
3.04289e-06
1.37714e-07
2.74137e-06
5.23299e-07
2.3257e-06
9.12787e-07
1.79407e-06
1.30361e-06
1.14497e-06
1.69467e-06
3.76942e-07
2.08611e-06
-5.11693e-07
2.47905e-06
-1.52292e-06
2.87532e-06
-2.65912e-06
3.27717e-06
-3.92309e-06
3.68701e-06
-5.31799e-06
4.10715e-06
-6.84722e-06
4.53959e-06
-8.51431e-06
4.98588e-06
-1.03227e-05
5.44692e-06
-1.22756e-05
5.92294e-06
-1.43758e-05
6.41342e-06
-1.66252e-05
6.91708e-06
-1.90251e-05
7.43192e-06
-2.15755e-05
7.9552e-06
-2.42754e-05
8.48355e-06
-2.71221e-05
9.01299e-06
-3.01117e-05
9.53899e-06
-3.32384e-05
1.00566e-05
-3.64949e-05
1.05603e-05
-3.98721e-05
1.10445e-05
-4.3359e-05
1.1503e-05
-4.69429e-05
1.19299e-05
-5.06096e-05
1.23188e-05
-5.43429e-05
1.26634e-05
-5.81256e-05
1.29576e-05
-6.19386e-05
1.31955e-05
-6.57619e-05
1.33713e-05
-6.95745e-05
1.34798e-05
-7.33545e-05
1.35162e-05
-7.70795e-05
1.34761e-05
-8.07267e-05
1.3356e-05
-8.42732e-05
1.31529e-05
-8.76963e-05
1.28646e-05
-9.09736e-05
1.24895e-05
-9.40832e-05
1.20269e-05
-9.70041e-05
1.14769e-05
-9.97161e-05
1.08405e-05
-0.0001022
1.01192e-05
-0.000104438
9.3155e-06
-0.000106414
8.4326e-06
-0.000108113
7.47437e-06
-0.000109521
6.44541e-06
-0.000110627
5.35099e-06
-0.00011142
4.197e-06
-0.000111892
2.9899e-06
-0.000112036
1.7368e-06
-0.000111848
4.45521e-07
-0.000111324
-8.76536e-07
-0.000110463
-2.22059e-06
-0.000109267
-3.57742e-06
-0.000107737
-4.93772e-06
-0.000105879
-6.29185e-06
-0.000103697
-7.62982e-06
-0.000101202
-8.94142e-06
-9.8402e-05
-1.02163e-05
-9.53106e-05
-1.14439e-05
-9.19416e-05
-1.26138e-05
-8.83109e-05
-1.37157e-05
-8.44367e-05
-1.47393e-05
-8.03386e-05
-1.5675e-05
-7.60385e-05
-1.65132e-05
-7.15596e-05
-1.72453e-05
-6.6927e-05
-1.78634e-05
-6.21672e-05
-1.83604e-05
-5.73081e-05
-1.87303e-05
-5.23785e-05
-1.89684e-05
-4.74085e-05
-1.90715e-05
-4.24287e-05
-1.90375e-05
-3.74699e-05
-1.88663e-05
-3.25634e-05
-1.85593e-05
-2.77399e-05
-1.81197e-05
-2.30296e-05
-1.75525e-05
-1.8462e-05
-1.68643e-05
-1.4065e-05
-1.60637e-05
-9.8649e-06
-1.51605e-05
-5.88604e-06
-1.41662e-05
-2.15037e-06
-1.30935e-05
1.32281e-06
-1.1956e-05
4.5171e-06
-1.07684e-05
7.41924e-06
-9.5455e-06
1.00193e-05
-8.30265e-06
1.23107e-05
-7.05495e-06
1.42904e-05
-5.81711e-06
1.59588e-05
-4.60319e-06
1.73196e-05
-3.42624e-06
1.83798e-05
-2.29811e-06
1.91494e-05
-1.22922e-06
1.96411e-05
-2.28398e-07
1.987e-05
6.97257e-07
1.98532e-05
1.54239e-06
1.96097e-05
2.30342e-06
1.91596e-05
2.97848e-06
1.8524e-05
3.56726e-06
1.77244e-05
4.07084e-06
1.67826e-05
4.49138e-06
1.57204e-05
4.83185e-06
1.45592e-05
5.09558e-06
1.332e-05
5.28586e-06
1.20237e-05
5.40542e-06
1.06908e-05
5.45596e-06
9.34146e-06
5.43766e-06
7.99636e-06
5.34879e-06
6.67646e-06
5.18542e-06
5.40359e-06
4.94142e-06
4.20072e-06
4.60879e-06
3.09225e-06
4.17854e-06
2.1044e-06
3.64222e-06
1.26578e-06
2.99454e-06
6.08466e-07
2.23674e-06
1.70186e-07
1.38117e-06
4.60362e-07
1.05751e-07
-4.66434e-07
3.5531e-07
-1.19517e-06
6.96998e-07
-1.72987e-06
1.08927e-06
-2.08306e-06
1.49746e-06
-2.27045e-06
1.89225e-06
-2.31026e-06
2.24875e-06
-2.22201e-06
2.54595e-06
-2.02544e-06
2.76626e-06
-1.73966e-06
2.89523e-06
-1.38254e-06
2.92117e-06
-9.70198e-07
2.83486e-06
-5.16715e-07
2.62909e-06
-3.39757e-08
2.29838e-06
4.68424e-07
1.83853e-06
9.83154e-07
1.24626e-06
1.50506e-06
5.18883e-07
2.03098e-06
-3.4599e-07
2.55954e-06
-1.35072e-06
3.09084e-06
-2.49782e-06
3.62615e-06
-3.79005e-06
4.16755e-06
-5.23049e-06
4.71761e-06
-6.82249e-06
5.27901e-06
-8.5696e-06
5.85426e-06
-1.04754e-05
6.44544e-06
-1.25435e-05
7.05395e-06
-1.4777e-05
7.6804e-06
-1.71785e-05
8.32445e-06
-1.97499e-05
8.9848e-06
-2.2492e-05
9.65917e-06
-2.54044e-05
1.03443e-05
-2.84853e-05
1.10361e-05
-3.17313e-05
1.17295e-05
-3.51372e-05
1.24189e-05
-3.86961e-05
1.30979e-05
-4.23991e-05
1.37595e-05
-4.62353e-05
1.43965e-05
-5.01918e-05
1.5001e-05
-5.4254e-05
1.55652e-05
-5.84052e-05
1.60811e-05
-6.26272e-05
1.65408e-05
-6.69e-05
1.69363e-05
-7.12026e-05
1.72602e-05
-7.55125e-05
1.75053e-05
-7.98064e-05
1.76652e-05
-8.40603e-05
1.77338e-05
-8.825e-05
1.77058e-05
-9.2351e-05
1.75771e-05
-9.63388e-05
1.73439e-05
-0.00010019
1.70037e-05
-0.00010388
1.65549e-05
-0.000107387
1.59969e-05
-0.00011069
1.53298e-05
-0.000113768
1.4555e-05
-0.000116603
1.36746e-05
-0.000119175
1.26918e-05
-0.00012147
1.16103e-05
-0.000123472
1.04351e-05
-0.000125169
9.17144e-06
-0.00012655
7.8257e-06
-0.000127603
6.40471e-06
-0.000128322
4.91602e-06
-0.0001287
3.36773e-06
-0.000128732
1.7685e-06
-0.000128415
1.28208e-07
-0.000127746
-1.54523e-06
-0.000126727
-3.24007e-06
-0.000125358
-4.94614e-06
-0.000123643
-6.65247e-06
-0.000121587
-8.34769e-06
-0.000119197
-1.00202e-05
-0.00011648
-1.16579e-05
-0.000113448
-1.32489e-05
-0.000110111
-1.47808e-05
-0.000106483
-1.62413e-05
-0.000102581
-1.76184e-05
-9.842e-05
-1.89e-05
-9.40205e-05
-2.00744e-05
-8.94032e-05
-2.11306e-05
-8.45906e-05
-2.20579e-05
-7.96071e-05
-2.28468e-05
-7.44789e-05
-2.34886e-05
-6.92334e-05
-2.39758e-05
-6.38995e-05
-2.43024e-05
-5.85071e-05
-2.44638e-05
-5.30873e-05
-2.44573e-05
-4.76717e-05
-2.42819e-05
-4.22922e-05
-2.39388e-05
-3.69808e-05
-2.3431e-05
-3.17695e-05
-2.27638e-05
-2.66892e-05
-2.19446e-05
-2.17701e-05
-2.09828e-05
-1.70408e-05
-1.98898e-05
-1.25283e-05
-1.86787e-05
-8.25741e-06
-1.73644e-05
-4.25043e-06
-1.5963e-05
-5.26916e-07
-1.44919e-05
2.89663e-06
-1.2969e-05
6.00692e-06
-1.14129e-05
8.79414e-06
-9.84216e-06
1.1252e-05
-8.27495e-06
1.33777e-05
-6.72891e-06
1.51721e-05
-5.22067e-06
1.66395e-05
-3.76554e-06
1.77876e-05
-2.37726e-06
1.86269e-05
-1.06775e-06
1.91712e-05
1.53025e-07
1.94363e-05
1.27726e-06
1.94406e-05
2.29916e-06
1.9204e-05
3.21509e-06
1.87479e-05
4.02335e-06
1.80947e-05
4.724e-06
1.72675e-05
5.31855e-06
1.62898e-05
5.80961e-06
1.5185e-05
6.20041e-06
1.39765e-05
6.4943e-06
1.26878e-05
6.69417e-06
1.13419e-05
6.80185e-06
9.96196e-06
6.81758e-06
8.57129e-06
6.73947e-06
7.19354e-06
6.56317e-06
5.85312e-06
6.28184e-06
4.57558e-06
5.88634e-06
3.38808e-06
5.36604e-06
2.32009e-06
4.71021e-06
1.40454e-06
3.9101e-06
6.7951e-07
2.96177e-06
1.91229e-07
1.86945e-06
6.5159e-07
1.03384e-07
-5.69816e-07
3.44851e-07
-1.43663e-06
6.70419e-07
-2.05543e-06
1.03631e-06
-2.44895e-06
1.40622e-06
-2.64036e-06
1.74976e-06
-2.65381e-06
2.04143e-06
-2.51369e-06
2.25987e-06
-2.24387e-06
2.38724e-06
-1.86703e-06
2.40883e-06
-1.40413e-06
2.31264e-06
-8.74009e-07
2.089e-06
-2.93078e-07
1.73019e-06
3.24833e-07
1.23006e-06
9.68555e-07
5.83661e-07
1.62956e-06
-2.13111e-07
2.30183e-06
-1.16381e-06
2.98168e-06
-2.27173e-06
3.66746e-06
-3.5401e-06
4.35921e-06
-4.97225e-06
5.0583e-06
-6.57168e-06
5.76698e-06
-8.34206e-06
6.48799e-06
-1.02872e-05
7.22411e-06
-1.24107e-05
7.97783e-06
-1.47163e-05
8.75104e-06
-1.72071e-05
9.54473e-06
-1.98856e-05
1.03588e-05
-2.27533e-05
1.11922e-05
-2.58107e-05
1.20422e-05
-2.90569e-05
1.29053e-05
-3.24893e-05
1.37767e-05
-3.61036e-05
1.46504e-05
-3.98935e-05
1.55195e-05
-4.38508e-05
1.63762e-05
-4.79649e-05
1.72121e-05
-5.22234e-05
1.8018e-05
-5.66116e-05
1.87846e-05
-6.11126e-05
1.95021e-05
-6.5708e-05
2.01605e-05
-7.03771e-05
2.07503e-05
-7.50982e-05
2.12618e-05
-7.98478e-05
2.16859e-05
-8.46015e-05
2.2014e-05
-8.93344e-05
2.22382e-05
-9.40208e-05
2.23515e-05
-9.86349e-05
2.23478e-05
-0.000103151
2.2222e-05
-0.000107544
2.197e-05
-0.000111789
2.15891e-05
-0.000115863
2.10774e-05
-0.000119742
2.04345e-05
-0.000123406
1.96609e-05
-0.000126835
1.87582e-05
-0.000130009
1.77293e-05
-0.000132912
1.65777e-05
-0.000135528
1.53082e-05
-0.000137844
1.39262e-05
-0.000139847
1.24381e-05
-0.000141527
1.08509e-05
-0.000142874
9.17235e-06
-0.00014388
7.41078e-06
-0.000144539
5.57519e-06
-0.000144846
3.6751e-06
-0.000144798
1.72058e-06
-0.000144393
-2.77469e-07
-0.000143629
-2.30911e-06
-0.000142507
-4.36182e-06
-0.000141029
-6.42393e-06
-0.000139199
-8.4831e-06
-0.00013702
-1.05266e-05
-0.000134499
-1.25413e-05
-0.000131643
-1.45137e-05
-0.000128461
-1.64303e-05
-0.000124965
-1.82772e-05
-0.000121166
-2.00403e-05
-0.000117078
-2.17059e-05
-0.000112718
-2.326e-05
-0.000108104
-2.46893e-05
-0.000103253
-2.59808e-05
-9.81893e-05
-2.7122e-05
-9.29347e-05
-2.81014e-05
-8.75146e-05
-2.89087e-05
-8.19558e-05
-2.95346e-05
-7.62867e-05
-2.99715e-05
-7.05371e-05
-3.02134e-05
-6.4738e-05
-3.02564e-05
-5.89213e-05
-3.00986e-05
-5.31199e-05
-2.97402e-05
-4.73667e-05
-2.91841e-05
-4.1695e-05
-2.84356e-05
-3.61375e-05
-2.75021e-05
-3.07264e-05
-2.6394e-05
-2.54926e-05
-2.51236e-05
-2.04655e-05
-2.37057e-05
-1.56728e-05
-2.21571e-05
-1.11397e-05
-2.04961e-05
-6.88894e-06
-1.87427e-05
-2.94018e-06
-1.69178e-05
6.89997e-07
-1.50431e-05
3.98843e-06
-1.31406e-05
6.9455e-06
-1.1232e-05
9.55525e-06
-9.33866e-06
1.18154e-05
-7.48084e-06
1.37274e-05
-5.6775e-06
1.52961e-05
-3.94593e-06
1.65298e-05
-2.30146e-06
1.744e-05
-7.57204e-07
1.80412e-05
6.76088e-07
1.83502e-05
1.99009e-06
1.83864e-05
3.17889e-06
1.81708e-05
4.23895e-06
1.7726e-05
5.16882e-06
1.70757e-05
5.96889e-06
1.62443e-05
6.64098e-06
1.52569e-05
7.18782e-06
1.41387e-05
7.61249e-06
1.29151e-05
7.91775e-06
1.16116e-05
8.1054e-06
1.02536e-05
8.17556e-06
8.86693e-06
8.12615e-06
7.47768e-06
7.95242e-06
6.11276e-06
7.64675e-06
4.80027e-06
7.19883e-06
3.57013e-06
6.59618e-06
2.45505e-06
5.82528e-06
1.49195e-06
4.8732e-06
7.24081e-07
3.72964e-06
2.04155e-07
2.38937e-06
8.55745e-07
9.71411e-08
-6.66955e-07
3.20265e-07
-1.65976e-06
6.14645e-07
-2.34981e-06
9.35577e-07
-2.76989e-06
1.24605e-06
-2.95083e-06
1.51531e-06
-2.92307e-06
1.71775e-06
-2.71613e-06
1.83201e-06
-2.35813e-06
1.84031e-06
-1.87534e-06
1.72795e-06
-1.29177e-06
1.48282e-06
-6.28875e-07
1.09498e-06
9.47601e-08
5.56306e-07
8.63507e-07
-1.3991e-07
1.66477e-06
-9.99296e-07
2.48894e-06
-2.02672e-06
3.32925e-06
-3.22657e-06
4.18153e-06
-4.60299e-06
5.04387e-06
-6.16003e-06
5.91625e-06
-7.90176e-06
6.80003e-06
-9.83229e-06
7.69751e-06
-1.19557e-05
8.61142e-06
-1.4276e-05
9.54442e-06
-1.67969e-05
1.04987e-05
-1.95215e-05
1.14756e-05
-2.24522e-05
1.24754e-05
-2.55903e-05
1.3497e-05
-2.8936e-05
1.45378e-05
-3.24877e-05
1.55939e-05
-3.62422e-05
1.66598e-05
-4.01943e-05
1.77287e-05
-4.43364e-05
1.87926e-05
-4.86591e-05
1.98422e-05
-5.31505e-05
2.08675e-05
-5.77962e-05
2.18578e-05
-6.25799e-05
2.28017e-05
-6.74829e-05
2.36876e-05
-7.24847e-05
2.45039e-05
-7.75629e-05
2.52388e-05
-8.26937e-05
2.5881e-05
-8.78519e-05
2.642e-05
-9.30115e-05
2.68455e-05
-9.8146e-05
2.71484e-05
-0.000103228
2.73207e-05
-0.000108232
2.73552e-05
-0.000113131
2.72463e-05
-0.000117898
2.69897e-05
-0.00012251
2.65821e-05
-0.000126943
2.60219e-05
-0.000131174
2.53087e-05
-0.000135183
2.44434e-05
-0.000138951
2.34282e-05
-0.000142459
2.22661e-05
-0.000145691
2.09617e-05
-0.000148634
1.95202e-05
-0.000151273
1.79478e-05
-0.000153599
1.62515e-05
-0.000155599
1.44391e-05
-0.000157267
1.25189e-05
-0.000158595
1.05e-05
-0.000159576
8.39204e-06
-0.000160206
6.20509e-06
-0.000160481
3.94979e-06
-0.000160398
1.63729e-06
-0.000159954
-7.20779e-07
-0.000159151
-3.11275e-06
-0.000157987
-5.52569e-06
-0.000156464
-7.94667e-06
-0.000154585
-1.03623e-05
-0.000152353
-1.27586e-05
-0.000149773
-1.51213e-05
-0.000146851
-1.74357e-05
-0.000143594
-1.96867e-05
-0.000140012
-2.1859e-05
-0.000136116
-2.39371e-05
-0.000131916
-2.59052e-05
-0.000127428
-2.77479e-05
-0.000122668
-2.94499e-05
-0.000117653
-3.09962e-05
-0.000112402
-3.23723e-05
-0.000106939
-3.3565e-05
-0.000101286
-3.45615e-05
-9.54694e-05
-3.5351e-05
-8.95171e-05
-3.59238e-05
-8.34583e-05
-3.62722e-05
-7.73239e-05
-3.63908e-05
-7.11462e-05
-3.62763e-05
-6.49585e-05
-3.59279e-05
-5.87949e-05
-3.53477e-05
-5.269e-05
-3.45405e-05
-4.66782e-05
-3.35139e-05
-4.07936e-05
-3.22785e-05
-3.50696e-05
-3.08476e-05
-2.95382e-05
-2.92371e-05
-2.42298e-05
-2.74655e-05
-1.91726e-05
-2.55533e-05
-1.43924e-05
-2.35228e-05
-9.91235e-06
-2.13979e-05
-5.75218e-06
-1.92033e-05
-1.92842e-06
-1.69643e-05
1.54601e-06
-1.47064e-05
4.6619e-06
-1.24546e-05
7.41385e-06
-1.02328e-05
9.80022e-06
-8.06387e-06
1.18232e-05
-5.96886e-06
1.34884e-05
-3.96669e-06
1.48051e-05
-2.07395e-06
1.57858e-05
-3.04627e-07
1.64459e-05
1.33003e-06
1.68033e-05
2.82147e-06
1.68784e-05
4.16383e-06
1.66935e-05
5.35376e-06
1.62723e-05
6.39007e-06
1.56399e-05
7.27336e-06
1.48223e-05
8.00546e-06
1.3846e-05
8.58881e-06
1.2738e-05
9.02573e-06
1.15257e-05
9.31772e-06
1.02366e-05
9.46463e-06
8.89868e-06
9.46406e-06
7.54038e-06
9.31072e-06
6.19094e-06
8.9962e-06
4.88092e-06
8.50884e-06
3.64294e-06
7.83416e-06
2.51271e-06
6.95552e-06
1.53061e-06
5.8553e-06
7.43906e-07
4.51634e-06
2.09705e-07
2.92358e-06
1.06545e-06
8.74965e-08
-7.54452e-07
2.83008e-07
-1.85527e-06
5.32305e-07
-2.59911e-06
7.90908e-07
-3.02849e-06
1.02205e-06
-3.18197e-06
1.19532e-06
-3.09634e-06
1.28552e-06
-2.80633e-06
1.27171e-06
-2.34432e-06
1.1365e-06
-1.74012e-06
8.65386e-07
-1.02067e-06
4.4634e-07
-2.09829e-07
-1.30689e-07
6.7179e-07
-8.74135e-07
1.60695e-06
-1.79117e-06
2.58181e-06
-2.88802e-06
3.5858e-06
-4.17027e-06
4.6115e-06
-5.64306e-06