/*--------------------------------*- C++ -*----------------------------------*\
| =========                 |                                                 |
| \\      /  F ield         | OpenFOAM: The Open Source CFD Toolbox           |
|  \\    /   O peration     | Version:  2112                                  |
|   \\  /    A nd           | Website:  www.openfoam.com                      |
|    \\/     M anipulation  |                                                 |
\*---------------------------------------------------------------------------*/
FoamFile
{
    version     2.0;
    format      ascii;
    arch        "LSB;label=32;scalar=64";
    class       volVectorField;
    location    "38";
    object      U;
}
// * * * * * * * * * * * * * * * * * * * * * * * * * * * * * * * * * * * * * //

dimensions      [0 1 -1 0 0 0 0];

internalField   nonuniform List<vector> 
16641
(
(-7.95617e-06 7.59646e-06 0)
(2.59304e-06 -6.5944e-06 0)
(5.97502e-05 -2.25616e-05 0)
(0.000151424 -3.3821e-05 0)
(0.000266343 -4.04629e-05 0)
(0.00039419 -4.34447e-05 0)
(0.000526285 -4.36927e-05 0)
(0.000655837 -4.19753e-05 0)
(0.00077774 -3.88876e-05 0)
(0.000888277 -3.48873e-05 0)
(0.000984878 -3.0331e-05 0)
(0.00106591 -2.54966e-05 0)
(0.00113047 -2.0597e-05 0)
(0.00117828 -1.57893e-05 0)
(0.00120945 -1.11819e-05 0)
(0.0012244 -6.83991e-06 0)
(0.00122373 -2.79034e-06 0)
(0.0012081 9.73407e-07 0)
(0.00117813 4.48141e-06 0)
(0.00113437 7.78427e-06 0)
(0.00107718 1.09471e-05 0)
(0.00100675 1.40432e-05 0)
(0.000923059 1.71491e-05 0)
(0.000825865 2.03396e-05 0)
(0.000714721 2.36843e-05 0)
(0.000588994 2.72445e-05 0)
(0.00044789 3.10717e-05 0)
(0.000290493 3.52064e-05 0)
(0.000115797 3.96779e-05 0)
(-7.72571e-05 4.45046e-05 0)
(-0.000289746 4.96949e-05 0)
(-0.000522728 5.5248e-05 0)
(-0.000777214 6.11549e-05 0)
(-0.00105414 6.73992e-05 0)
(-0.00135433 7.3958e-05 0)
(-0.0016785 8.08015e-05 0)
(-0.0020272 8.78935e-05 0)
(-0.0024008 9.5191e-05 0)
(-0.00279948 0.000102645 0)
(-0.0032232 0.000110197 0)
(-0.00367168 0.000117785 0)
(-0.00414439 0.000125336 0)
(-0.00464049 0.000132771 0)
(-0.00515885 0.000140004 0)
(-0.00569804 0.000146941 0)
(-0.00625628 0.000153483 0)
(-0.00683147 0.000159525 0)
(-0.00742113 0.000164957 0)
(-0.00802249 0.000169666 0)
(-0.00863237 0.000173536 0)
(-0.0092473 0.000176453 0)
(-0.00986348 0.000178301 0)
(-0.0104768 0.000178968 0)
(-0.0110828 0.000178349 0)
(-0.0116769 0.000176341 0)
(-0.0122543 0.000172855 0)
(-0.0128098 0.000167809 0)
(-0.0133384 0.000161135 0)
(-0.0138346 0.000152781 0)
(-0.0142934 0.000142711 0)
(-0.0147093 0.000130909 0)
(-0.0150773 0.00011738 0)
(-0.0153923 0.000102148 0)
(-0.0156495 8.52699e-05 0)
(-0.0158445 6.68384e-05 0)
(-0.0159732 4.69739e-05 0)
(-0.016032 2.57741e-05 0)
(-0.0160176 3.46974e-06 0)
(-0.0159272 -1.98865e-05 0)
(-0.0157594 -4.4008e-05 0)
(-0.0155127 -6.86309e-05 0)
(-0.0151868 -9.34882e-05 0)
(-0.0147821 -0.000118292 0)
(-0.0142999 -0.000142735 0)
(-0.0137426 -0.000166495 0)
(-0.013113 -0.000189244 0)
(-0.0124155 -0.000210649 0)
(-0.0116549 -0.000230385 0)
(-0.010837 -0.000248136 0)
(-0.00996867 -0.000263608 0)
(-0.00905726 -0.000276533 0)
(-0.00811093 -0.00028668 0)
(-0.00713838 -0.000293859 0)
(-0.00614875 -0.000297931 0)
(-0.00515149 -0.000298811 0)
(-0.00415621 -0.000296474 0)
(-0.00317248 -0.000290957 0)
(-0.00220973 -0.000282358 0)
(-0.00127702 -0.000270836 0)
(-0.000382842 -0.000256619 0)
(0.000464823 -0.000240025 0)
(0.00125888 -0.000221265 0)
(0.00199325 -0.000200772 0)
(0.00266277 -0.000178922 0)
(0.00326341 -0.000156114 0)
(0.00379229 -0.000132753 0)
(0.00424769 -0.000109242 0)
(0.00462903 -8.59642e-05 0)
(0.00493686 -6.32785e-05 0)
(0.00517277 -4.1507e-05 0)
(0.00533927 -2.09302e-05 0)
(0.00543974 -1.78152e-06 0)
(0.00547826 1.57559e-05 0)
(0.00545949 3.15489e-05 0)
(0.00538852 4.55182e-05 0)
(0.00527072 5.76317e-05 0)
(0.00511165 6.79018e-05 0)
(0.00491685 7.63821e-05 0)
(0.00469179 8.31613e-05 0)
(0.00444173 8.8357e-05 0)
(0.00417163 9.21101e-05 0)
(0.0038861 9.4577e-05 0)
(0.00358933 9.59232e-05 0)
(0.00328507 9.63149e-05 0)
(0.00297665 9.59105e-05 0)
(0.00266698 9.48503e-05 0)
(0.00235863 9.32445e-05 0)
(0.00205393 9.11593e-05 0)
(0.00175512 8.85991e-05 0)
(0.00146455 8.54857e-05 0)
(0.00118491 8.16332e-05 0)
(0.00091955 7.67183e-05 0)
(0.000672805 7.02484e-05 0)
(0.000450391 6.15355e-05 0)
(0.000259707 4.97231e-05 0)
(0.000109751 3.39949e-05 0)
(1.0052e-05 1.42339e-05 0)
(-3.15723e-05 -7.07989e-06 0)
(-1.85415e-05 -1.85914e-05 0)
(6.33317e-06 -3.0788e-06 0)
(7.33767e-05 -7.382e-05 0)
(0.000235078 -0.000144714 0)
(0.000465809 -0.000197463 0)
(0.000743966 -0.00023062 0)
(0.00104964 -0.000246437 0)
(0.00136439 -0.000248001 0)
(0.00167258 -0.000238392 0)
(0.0019617 -0.000220349 0)
(0.00222212 -0.000196202 0)
(0.00244676 -0.000167898 0)
(0.00263073 -0.000137034 0)
(0.00277095 -0.000104884 0)
(0.00286582 -7.24249e-05 0)
(0.00291482 -4.03618e-05 0)
(0.00291823 -9.15215e-06 0)
(0.00287684 2.09667e-05 0)
(0.00279165 4.9946e-05 0)
(0.00266366 7.78932e-05 0)
(0.00249373 0.000105039 0)
(0.00228237 0.000131702 0)
(0.00202971 0.000158258 0)
(0.00173538 0.000185105 0)
(0.00139857 0.000212639 0)
(0.00101798 0.000241228 0)
(0.000591912 0.000271196 0)
(0.000118319 0.000302808 0)
(-0.000405111 0.000336263 0)
(-0.000980859 0.000371692 0)
(-0.00161148 0.000409153 0)
(-0.0022995 0.00044864 0)
(-0.00304735 0.000490081 0)
(-0.00385723 0.000533349 0)
(-0.0047311 0.000578259 0)
(-0.00567051 0.000624578 0)
(-0.00667663 0.000672024 0)
(-0.0077501 0.000720269 0)
(-0.00889101 0.000768941 0)
(-0.0100988 0.000817625 0)
(-0.0113724 0.000865861 0)
(-0.0127097 0.000913152 0)
(-0.0141082 0.000958959 0)
(-0.0155642 0.00100271 0)
(-0.0170736 0.0010438 0)
(-0.0186309 0.0010816 0)
(-0.0202302 0.00111546 0)
(-0.0218645 0.00114472 0)
(-0.0235259 0.00116871 0)
(-0.0252057 0.00118677 0)
(-0.0268946 0.00119826 0)
(-0.0285821 0.00120254 0)
(-0.0302573 0.00119903 0)
(-0.0319087 0.00118718 0)
(-0.0335242 0.00116651 0)
(-0.035091 0.00113659 0)
(-0.0365965 0.00109706 0)
(-0.0380274 0.00104765 0)
(-0.0393706 0.000988208 0)
(-0.0406129 0.000918646 0)
(-0.0417415 0.000839004 0)
(-0.0427436 0.000749439 0)
(-0.0436072 0.000650227 0)
(-0.0443207 0.000541773 0)
(-0.0448736 0.000424623 0)
(-0.0452562 0.000299497 0)
(-0.0454598 0.000167178 0)
(-0.0454772 2.82469e-05 0)
(-0.0453022 -0.000115524 0)
(-0.0449303 -0.000263333 0)
(-0.0443588 -0.000413848 0)
(-0.0435867 -0.000565605 0)
(-0.0426149 -0.000717069 0)
(-0.041446 -0.000866625 0)
(-0.040085 -0.0010126 0)
(-0.0385386 -0.00115327 0)
(-0.0368156 -0.00128691 0)
(-0.034927 -0.0014118 0)
(-0.0328857 -0.00152627 0)
(-0.0307062 -0.00162874 0)
(-0.0284052 -0.00171771 0)
(-0.0260009 -0.00179186 0)
(-0.0235126 -0.00185003 0)
(-0.0209613 -0.00189129 0)
(-0.0183685 -0.00191495 0)
(-0.0157566 -0.00192058 0)
(-0.0131483 -0.00190805 0)
(-0.0105662 -0.00187753 0)
(-0.00803254 -0.00182949 0)
(-0.00556905 -0.00176473 0)
(-0.00319625 -0.00168433 0)
(-0.000933346 -0.0015897 0)
(0.00120208 -0.00148234 0)
(0.00319452 -0.0013641 0)
(0.00503064 -0.00123697 0)
(0.00669948 -0.00110307 0)
(0.00819264 -0.000964558 0)
(0.00950432 -0.0008236 0)
(0.0106314 -0.000682335 0)
(0.0115733 -0.000542804 0)
(0.0123321 -0.000406909 0)
(0.012912 -0.000276365 0)
(0.0133195 -0.000152675 0)
(0.0135631 -3.70988e-05 0)
(0.0136527 6.93615e-05 0)
(0.0135996 0.000165971 0)
(0.0134162 0.000252262 0)
(0.0131156 0.000328019 0)
(0.012711 0.000393267 0)
(0.0122159 0.000448249 0)
(0.0116437 0.000493397 0)
(0.011007 0.000529296 0)
(0.0103181 0.000556652 0)
(0.00958828 0.000576242 0)
(0.00882814 0.000588873 0)
(0.00804728 0.000595323 0)
(0.00725446 0.000596282 0)
(0.00645776 0.000592283 0)
(0.00566473 0.000583627 0)
(0.00488281 0.000570296 0)
(0.00411963 0.000551866 0)
(0.0033836 0.000527419 0)
(0.0026844 0.000495468 0)
(0.00203358 0.000453935 0)
(0.00144495 0.000400235 0)
(0.000934728 0.000331661 0)
(0.000520595 0.000246475 0)
(0.000219041 0.000146266 0)
(4.23489e-05 4.13879e-05 0)
(-6.79199e-06 -3.16391e-05 0)
(2.23508e-05 -5.98029e-05 0)
(0.000144523 -0.000235423 0)
(0.000396062 -0.000395865 0)
(0.000734584 -0.000516504 0)
(0.00113068 -0.000593633 0)
(0.00155917 -0.000630372 0)
(0.001996 -0.000632385 0)
(0.00242006 -0.000606032 0)
(0.00281389 -0.000557445 0)
(0.0031636 -0.000492154 0)
(0.00345862 -0.000414959 0)
(0.00369126 -0.000329907 0)
(0.00385635 -0.000240298 0)
(0.00395073 -0.000148713 0)
(0.00397285 -5.70548e-05 0)
(0.00392229 3.34007e-05 0)
(0.00379939 0.000121938 0)
(0.00360485 0.000208331 0)
(0.00333947 0.000292766 0)
(0.00300385 0.000375753 0)
(0.0025982 0.000458036 0)
(0.00212221 0.000540513 0)
(0.00157499 0.000624147 0)
(0.000954999 0.000709898 0)
(0.000260129 0.000798661 0)
(-0.000512257 0.000891209 0)
(-0.00136522 0.000988165 0)
(-0.00230211 0.00108997 0)
(-0.00332643 0.00119689 0)
(-0.00444169 0.00130896 0)
(-0.00565128 0.00142608 0)
(-0.00695827 0.00154794 0)
(-0.00836533 0.00167405 0)
(-0.00987459 0.00180378 0)
(-0.0114875 0.00193637 0)
(-0.0132047 0.00207088 0)
(-0.015026 0.00220627 0)
(-0.0169502 0.00234138 0)
(-0.0189751 0.00247491 0)
(-0.0210972 0.00260547 0)
(-0.023312 0.00273157 0)
(-0.0256137 0.00285163 0)
(-0.027995 0.002964 0)
(-0.0304477 0.00306696 0)
(-0.0329619 0.00315876 0)
(-0.0355266 0.00323763 0)
(-0.0381295 0.0033018 0)
(-0.0407571 0.00334955 0)
(-0.0433946 0.00337918 0)
(-0.0460265 0.0033891 0)
(-0.048636 0.00337783 0)
(-0.0512058 0.00334399 0)
(-0.0537176 0.00328641 0)
(-0.056153 0.00320405 0)
(-0.0584929 0.00309613 0)
(-0.0607183 0.00296205 0)
(-0.0628101 0.00280149 0)
(-0.0647494 0.00261437 0)
(-0.0665179 0.00240091 0)
(-0.0680978 0.00216161 0)
(-0.0694721 0.00189726 0)
(-0.0706249 0.00160896 0)
(-0.0715413 0.00129815 0)
(-0.0722079 0.000966562 0)
(-0.0726131 0.000616324 0)
(-0.0727473 0.000249801 0)
(-0.0726017 -0.00013119 0)
(-0.0721697 -0.000522525 0)
(-0.0714482 -0.000921361 0)
(-0.0704353 -0.00132439 0)
(-0.0691318 -0.00172794 0)
(-0.0675409 -0.00212816 0)
(-0.0656686 -0.00252105 0)
(-0.0635232 -0.0029025 0)
(-0.0611157 -0.00326836 0)
(-0.0584598 -0.00361447 0)
(-0.0555716 -0.00393675 0)
(-0.0524698 -0.00423126 0)
(-0.0491753 -0.00449425 0)
(-0.0457113 -0.00472227 0)
(-0.042103 -0.00491219 0)
(-0.0383772 -0.00506133 0)
(-0.0345625 -0.00516752 0)
(-0.0306882 -0.00522912 0)
(-0.026785 -0.00524512 0)
(-0.0228836 -0.00521518 0)
(-0.0190151 -0.00513965 0)
(-0.0152101 -0.00501959 0)
(-0.0114983 -0.00485678 0)
(-0.00790847 -0.00465369 0)
(-0.00446758 -0.00441348 0)
(-0.00120062 -0.00413987 0)
(0.0018698 -0.0038371 0)
(0.00472383 -0.00350984 0)
(0.00734462 -0.00316322 0)
(0.00971863 -0.00280246 0)
(0.0118356 -0.00243292 0)
(0.013689 -0.00205993 0)
(0.0152756 -0.00168867 0)
(0.0165956 -0.00132406 0)
(0.0176529 -0.000970653 0)
(0.018454 -0.000632523 0)
(0.0190088 -0.000313211 0)
(0.0193293 -1.56606e-05 0)
(0.0194299 0.000257822 0)
(0.0193268 0.00050558 0)
(0.0190373 0.000726599 0)
(0.0185798 0.000920485 0)
(0.0179733 0.00108742 0)
(0.0172367 0.00122809 0)
(0.0163888 0.00134364 0)
(0.0154477 0.00143553 0)
(0.0144308 0.00150548 0)
(0.0133545 0.0015553 0)
(0.0122342 0.00158678 0)
(0.0110842 0.00160152 0)
(0.00991806 0.00160076 0)
(0.00874863 0.00158519 0)
(0.00758857 0.00155474 0)
(0.00645078 0.00150844 0)
(0.00534902 0.00144421 0)
(0.00429844 0.00135883 0)
(0.0033162 0.001248 0)
(0.00242174 0.00110681 0)
(0.00163668 0.000930765 0)
(0.000983441 0.000718178 0)
(0.000482012 0.000474329 0)
(0.000151255 0.0002194 0)
(1.55179e-05 1.13516e-05 0)
(3.38065e-05 -0.000151355 0)
(0.000198327 -0.000466745 0)
(0.000519213 -0.000734847 0)
(0.000936719 -0.000932933 0)
(0.00141379 -0.00105782 0)
(0.0019212 -0.00111443 0)
(0.00243124 -0.00111136 0)
(0.00291934 -0.00105856 0)
(0.00336486 -0.000965932 0)
(0.00375103 -0.000842685 0)
(0.00406472 -0.000697001 0)
(0.00429608 -0.000535897 0)
(0.00443812 -0.000365181 0)
(0.00448619 -0.000189454 0)
(0.00443752 -1.21562e-05 0)
(0.00429073 0.000164359 0)
(0.00404533 0.000338723 0)
(0.00370132 0.000510433 0)
(0.00325886 0.000679717 0)
(0.00271792 0.000847379 0)
(0.00207806 0.00101465 0)
(0.00133829 0.00118303 0)
(0.000496982 0.00135414 0)
(-0.000448169 0.00152958 0)
(-0.00150008 0.00171086 0)
(-0.00266221 0.00189922 0)
(-0.00393837 0.00209566 0)
(-0.00533265 0.00230083 0)
(-0.00684913 0.00251501 0)
(-0.00849178 0.00273814 0)
(-0.0102642 0.00296978 0)
(-0.0121695 0.00320916 0)
(-0.0142099 0.00345518 0)
(-0.0163871 0.00370643 0)
(-0.0187014 0.00396122 0)
(-0.0211521 0.00421762 0)
(-0.0237372 0.00447342 0)
(-0.0264532 0.00472622 0)
(-0.0292951 0.0049734 0)
(-0.0322565 0.00521216 0)
(-0.0353291 0.00543955 0)
(-0.0385031 0.00565248 0)
(-0.0417669 0.00584778 0)
(-0.0451074 0.00602222 0)
(-0.0485097 0.00617253 0)
(-0.0519575 0.00629551 0)
(-0.0554329 0.00638801 0)
(-0.0589168 0.006447 0)
(-0.0623887 0.00646962 0)
(-0.0658273 0.00645326 0)
(-0.0692103 0.00639554 0)
(-0.0725148 0.00629439 0)
(-0.0757176 0.00614811 0)
(-0.078795 0.00595537 0)
(-0.0817235 0.00571526 0)
(-0.08448 0.00542729 0)
(-0.0870416 0.00509147 0)
(-0.0893862 0.00470827 0)
(-0.0914927 0.00427867 0)
(-0.0933411 0.00380414 0)
(-0.0949126 0.00328666 0)
(-0.0961902 0.00272873 0)
(-0.0971584 0.00213334 0)
(-0.0978036 0.00150395 0)
(-0.0981142 0.000844362 0)
(-0.0980821 0.000159031 0)
(-0.0976991 -0.000545624 0)
(-0.0969597 -0.00126599 0)
(-0.0958632 -0.00199611 0)
(-0.09441 -0.00272985 0)
(-0.0926032 -0.00346082 0)
(-0.0904488 -0.00418244 0)
(-0.0879556 -0.00488791 0)
(-0.0851351 -0.00557035 0)
(-0.0820015 -0.00622281 0)
(-0.0785721 -0.00683841 0)
(-0.0748664 -0.00741042 0)
(-0.0709069 -0.00793234 0)
(-0.0667183 -0.00839803 0)
(-0.0623278 -0.00880181 0)
(-0.0577645 -0.00913857 0)
(-0.0530597 -0.0094039 0)
(-0.0482459 -0.00959418 0)
(-0.0433573 -0.0097067 0)
(-0.038429 -0.00973971 0)
(-0.0334964 -0.00969254 0)
(-0.0285956 -0.00956565 0)
(-0.0237621 -0.00936063 0)
(-0.0190309 -0.00908026 0)
(-0.0144358 -0.00872845 0)
(-0.0100092 -0.00831022 0)
(-0.00578136 -0.00783161 0)
(-0.00178002 -0.00729959 0)
(0.00196968 -0.00672189 0)
(0.0054459 -0.00610691 0)
(0.00863038 -0.00546351 0)
(0.0115084 -0.00480079 0)
(0.0140694 -0.00412794 0)
(0.0163065 -0.00345401 0)
(0.018217 -0.0027877 0)
(0.0198023 -0.0021372 0)
(0.0210673 -0.00151003 0)
(0.0220208 -0.000912847 0)
(0.0226746 -0.000351368 0)
(0.0230436 0.000169731 0)
(0.0231452 0.000646855 0)
(0.0229988 0.00107753 0)
(0.0226254 0.00146036 0)
(0.0220471 0.00179497 0)
(0.0212866 0.00208195 0)
(0.0203669 0.0023227 0)
(0.0193105 0.00251928 0)
(0.0181396 0.00267425 0)
(0.0168756 0.00279041 0)
(0.0155389 0.00287061 0)
(0.0141489 0.00291743 0)
(0.0127241 0.00293287 0)
(0.0112825 0.0029181 0)
(0.0098418 0.00287307 0)
(0.00841969 0.00279626 0)
(0.00703477 0.0026845 0)
(0.00570686 0.00253288 0)
(0.00445754 0.00233505 0)
(0.00331041 0.00208402 0)
(0.00229107 0.0017738 0)
(0.00142568 0.00140273 0)
(0.000738243 0.00097865 0)
(0.00025786 0.000527585 0)
(3.69711e-05 0.000115699 0)
(4.0911e-05 -0.000267039 0)
(0.000233664 -0.000747321 0)
(0.000601191 -0.00113359 0)
(0.00106918 -0.00141119 0)
(0.00159355 -0.00158082 0)
(0.00214146 -0.0016508 0)
(0.00268245 -0.00163337 0)
(0.00318962 -0.00154235 0)
(0.00364028 -0.0013916 0)
(0.00401578 -0.00119417 0)
(0.00430123 -0.000961831 0)
(0.00448517 -0.000704768 0)
(0.00455912 -0.00043151 0)
(0.00451712 -0.000148875 0)
(0.00435519 0.000137987 0)
(0.00407082 0.000425505 0)
(0.00366252 0.000711557 0)
(0.00312935 0.000995295 0)
(0.00247053 0.00127695 0)
(0.00168513 0.0015576 0)
(0.000771863 0.00183897 0)
(-0.000271138 0.00212317 0)
(-0.00144635 0.00241246 0)
(-0.00275687 0.00270911 0)
(-0.00420636 0.00301515 0)
(-0.00579892 0.00333228 0)
(-0.0075389 0.00366174 0)
(-0.00943072 0.00400424 0)
(-0.0114786 0.00435993 0)
(-0.0136865 0.00472837 0)
(-0.0160575 0.00510857 0)
(-0.0185939 0.00549896 0)
(-0.0212972 0.00589748 0)
(-0.0241672 0.00630158 0)
(-0.0272026 0.00670825 0)
(-0.0304002 0.00711409 0)
(-0.0337554 0.00751534 0)
(-0.0372614 0.0079079 0)
(-0.0409097 0.00828739 0)
(-0.0446897 0.00864918 0)
(-0.0485889 0.00898846 0)
(-0.0525927 0.00930031 0)
(-0.0566848 0.00957969 0)
(-0.0608466 0.00982162 0)
(-0.0650581 0.0100211 0)
(-0.0692977 0.0101735 0)
(-0.0735421 0.0102741 0)
(-0.077767 0.0103186 0)
(-0.0819471 0.0103032 0)
(-0.0860561 0.0102243 0)
(-0.0900674 0.010079 0)
(-0.0939541 0.00986489 0)
(-0.0976893 0.00958007 0)
(-0.101246 0.00922335 0)
(-0.104599 0.0087942 0)
(-0.107723 0.00829275 0)
(-0.110592 0.00771987 0)
(-0.113185 0.0070771 0)
(-0.11548 0.00636672 0)
(-0.117455 0.0055917 0)
(-0.119095 0.00475572 0)
(-0.120381 0.00386311 0)
(-0.1213 0.00291891 0)
(-0.12184 0.00192872 0)
(-0.121991 0.000898644 0)
(-0.121744 -0.000164473 0)
(-0.121097 -0.00125175 0)
(-0.120047 -0.002357 0)
(-0.118593 -0.0034716 0)
(-0.116738 -0.00458667 0)
(-0.114488 -0.00569308 0)
(-0.111852 -0.00678144 0)
(-0.10884 -0.00784218 0)
(-0.105465 -0.00886561 0)
(-0.101744 -0.00984203 0)
(-0.0976964 -0.0107619 0)
(-0.0933434 -0.0116157 0)
(-0.0887093 -0.0123945 0)
(-0.0838205 -0.0130898 0)
(-0.078706 -0.0136937 0)
(-0.0733969 -0.0141989 0)
(-0.0679262 -0.0145993 0)
(-0.0623284 -0.0148898 0)
(-0.0566398 -0.0150664 0)
(-0.0508977 -0.0151265 0)
(-0.0451401 -0.015069 0)
(-0.0394054 -0.0148942 0)
(-0.0337323 -0.014604 0)
(-0.0281588 -0.0142021 0)
(-0.022722 -0.0136935 0)
(-0.017458 -0.0130851 0)
(-0.0124008 -0.012385 0)
(-0.00758232 -0.0116027 0)
(-0.00303175 -0.0107491 0)
(0.00122476 -0.0098358 0)
(0.00516452 -0.00887535 0)
(0.00876859 -0.00788076 0)
(0.012022 -0.00686531 0)
(0.0149139 -0.00584221 0)
(0.017438 -0.00482438 0)
(0.0195918 -0.00382414 0)
(0.0213776 -0.00285297 0)
(0.0228015 -0.00192129 0)
(0.0238733 -0.00103826 0)
(0.0246067 -0.000211619 0)
(0.0250184 0.000552401 0)
(0.0251278 0.00124916 0)
(0.0249566 0.00187559 0)
(0.0245283 0.00243015 0)
(0.0238676 0.00291275 0)
(0.023 0.00332455 0)
(0.0219512 0.0036678 0)
(0.020747 0.00394556 0)
(0.0194125 0.00416138 0)
(0.0179725 0.00431897 0)
(0.0164506 0.00442178 0)
(0.0148701 0.00447257 0)
(0.0132533 0.00447296 0)
(0.0116226 0.00442299 0)
(0.0100002 0.00432076 0)
(0.00840888 0.00416219 0)
(0.00687257 0.00394099 0)
(0.00541659 0.00364908 0)
(0.00406808 0.00327762 0)
(0.00285619 0.00281908 0)
(0.00181103 0.00227089 0)
(0.000961729 0.0016407 0)
(0.000349315 0.000954413 0)
(5.45317e-05 0.000274322 0)
(4.46559e-05 -0.000397185 0)
(0.000252715 -0.00105829 0)
(0.000644596 -0.00156792 0)
(0.00113557 -0.00192282 0)
(0.00167578 -0.00213026 0)
(0.00222919 -0.00220361 0)
(0.00276314 -0.00215965 0)
(0.0032491 -0.0020165 0)
(0.00366306 -0.00179218 0)
(0.00398518 -0.00150368 0)
(0.00419941 -0.0011664 0)
(0.00429315 -0.000793774 0)
(0.00425677 -0.000397101 0)
(0.00408317 1.45278e-05 0)
(0.00376723 0.000434198 0)
(0.00330534 0.000857075 0)
(0.00269489 0.00128024 0)
(0.00193383 0.00170246 0)
(0.00102031 0.00212396 0)
(-4.76262e-05 0.00254606 0)
(-0.00127231 0.00297093 0)
(-0.00265655 0.00340125 0)
(-0.00420369 0.00383988 0)
(-0.00591759 0.00428962 0)
(-0.00780253 0.00475294 0)
(-0.00986303 0.00523182 0)
(-0.0121036 0.00572755 0)
(-0.0145287 0.00624067 0)
(-0.0171422 0.00677091 0)
(-0.0199472 0.00731716 0)
(-0.0229458 0.00787749 0)
(-0.0261389 0.00844918 0)
(-0.029526 0.0090288 0)
(-0.0331047 0.00961221 0)
(-0.0368707 0.0101947 0)
(-0.0408179 0.0107709 0)
(-0.0449378 0.0113351 0)
(-0.0492198 0.011881 0)
(-0.053651 0.0124023 0)
(-0.0582161 0.012892 0)
(-0.0628977 0.0133432 0)
(-0.0676762 0.013749 0)
(-0.07253 0.0141022 0)
(-0.0774356 0.0143962 0)
(-0.0823677 0.0146242 0)
(-0.0872999 0.01478 0)
(-0.0922043 0.0148578 0)
(-0.0970524 0.0148524 0)
(-0.101815 0.014759 0)
(-0.106462 0.0145739 0)
(-0.110965 0.0142939 0)
(-0.115294 0.0139166 0)
(-0.11942 0.0134408 0)
(-0.123317 0.0128657 0)
(-0.126956 0.012192 0)
(-0.130313 0.0114208 0)
(-0.133364 0.0105544 0)
(-0.136087 0.00959592 0)
(-0.138462 0.00854945 0)
(-0.14047 0.00741983 0)
(-0.142094 0.00621277 0)
(-0.143322 0.00493475 0)
(-0.14414 0.00359306 0)
(-0.144539 0.00219568 0)
(-0.144512 0.000751382 0)
(-0.144053 -0.000730613 0)
(-0.14316 -0.00224118 0)
(-0.141833 -0.00376897 0)
(-0.140073 -0.00530324 0)
(-0.137885 -0.0068327 0)
(-0.135277 -0.00834569 0)
(-0.132257 -0.00983019 0)
(-0.128838 -0.011274 0)
(-0.125034 -0.0126648 0)
(-0.120862 -0.0139904 0)
(-0.116342 -0.0152384 0)
(-0.111495 -0.0163972 0)
(-0.106347 -0.0174551 0)
(-0.100923 -0.0184012 0)
(-0.0952528 -0.0192255 0)
(-0.0893679 -0.0199188 0)
(-0.0833014 -0.020473 0)
(-0.0770883 -0.0208812 0)
(-0.0707655 -0.0211382 0)
(-0.0643709 -0.0212403 0)
(-0.0579437 -0.0211857 0)
(-0.0515236 -0.0209743 0)
(-0.0451509 -0.0206082 0)
(-0.0388654 -0.0200914 0)
(-0.0327068 -0.01943 0)
(-0.0267136 -0.0186322 0)
(-0.0209228 -0.017708 0)
(-0.0153696 -0.0166692 0)
(-0.0100867 -0.0155295 0)
(-0.00510418 -0.0143037 0)
(-0.000448634 -0.0130077 0)
(0.00385679 -0.0116586 0)
(0.0077929 -0.0102736 0)
(0.0113447 -0.00887032 0)
(0.0145014 -0.00746595 0)
(0.017257 -0.00607727 0)
(0.0196096 -0.0047201 0)
(0.021562 -0.00340905 0)
(0.0231211 -0.00215724 0)
(0.0242979 -0.000976052 0)
(0.0251071 0.000125014 0)
(0.0255668 0.00113848 0)
(0.0256979 0.00205893 0)
(0.0255239 0.00288301 0)
(0.0250699 0.00360926 0)
(0.0243628 0.00423804 0)
(0.0234301 0.00477121 0)
(0.0223 0.00521186 0)
(0.0210004 0.00556387 0)
(0.0195594 0.0058315 0)
(0.0180044 0.00601883 0)
(0.0163623 0.0061292 0)
(0.0146599 0.00616467 0)
(0.0129231 0.00612542 0)
(0.0111785 0.00600929 0)
(0.00945263 0.0058115 0)
(0.00777303 0.00552464 0)
(0.00616847 0.00513911 0)
(0.00466944 0.00464429 0)
(0.00330873 0.00403063 0)
(0.00212083 0.0032932 0)
(0.00114073 0.00243649 0)
(0.000421193 0.001481 0)
(6.76914e-05 0.000476969 0)
(4.58976e-05 -0.000533632 0)
(0.000258085 -0.00138179 0)
(0.000653721 -0.00201392 0)
(0.00114183 -0.00243961 0)
(0.00166838 -0.00267447 0)
(0.00219478 -0.00273831 0)
(0.0026867 -0.00265328 0)
(0.00311452 -0.00244227 0)
(0.00345344 -0.00212768 0)
(0.00368292 -0.0017305 0)
(0.00378621 -0.00126975 0)
(0.00374992 -0.000762062 0)
(0.00356358 -0.000221458 0)
(0.00321914 0.00034074 0)
(0.00271045 0.000915892 0)
(0.00203282 0.00149792 0)
(0.0011825 0.00208314 0)
(0.000156296 0.00266992 0)
(-0.00104879 0.00325845 0)
(-0.00243585 0.00385027 0)
(-0.00400825 0.00444793 0)
(-0.00576977 0.00505458 0)
(-0.00772455 0.00567354 0)
(-0.00987711 0.006308 0)
(-0.0122321 0.00696065 0)
(-0.0147942 0.00763349 0)
(-0.0175678 0.00832757 0)
(-0.0205566 0.00904294 0)
(-0.0237637 0.00977853 0)
(-0.0271909 0.0105322 0)
(-0.0308384 0.0113006 0)
(-0.0347049 0.0120795 0)
(-0.0387872 0.0128635 0)
(-0.0430797 0.0136466 0)
(-0.0475746 0.0144218 0)
(-0.0522618 0.0151816 0)
(-0.0571284 0.0159176 0)
(-0.0621592 0.0166214 0)
(-0.0673364 0.017284 0)
(-0.0726398 0.0178962 0)
(-0.0780467 0.0184489 0)
(-0.0835327 0.0189328 0)
(-0.089071 0.0193392 0)
(-0.0946335 0.0196594 0)
(-0.100191 0.0198855 0)
(-0.105712 0.02001 0)
(-0.111166 0.0200264 0)
(-0.116521 0.0199289 0)
(-0.121746 0.0197127 0)
(-0.12681 0.019374 0)
(-0.131681 0.0189103 0)
(-0.136331 0.0183199 0)
(-0.140731 0.0176024 0)
(-0.144853 0.0167587 0)
(-0.148672 0.0157906 0)
(-0.152164 0.014701 0)
(-0.155309 0.0134941 0)
(-0.158085 0.0121748 0)
(-0.160475 0.0107492 0)
(-0.162463 0.0092244 0)
(-0.164035 0.00760814 0)
(-0.165181 0.00590913 0)
(-0.16589 0.00413686 0)
(-0.166155 0.00230152 0)
(-0.165972 0.000414086 0)
(-0.165336 -0.00151373 0)
(-0.164246 -0.00347042 0)
(-0.162705 -0.00544281 0)
(-0.160715 -0.0074177 0)
(-0.15828 -0.00938148 0)
(-0.15541 -0.0113201 0)
(-0.152113 -0.0132192 0)
(-0.148401 -0.0150643 0)
(-0.144289 -0.0168406 0)
(-0.139792 -0.0185334 0)
(-0.13493 -0.0201281 0)
(-0.129723 -0.0216105 0)
(-0.124196 -0.0229667 0)
(-0.118373 -0.0241835 0)
(-0.112283 -0.0252485 0)
(-0.105957 -0.0261504 0)
(-0.0994267 -0.0268791 0)
(-0.092727 -0.027426 0)
(-0.0858941 -0.0277842 0)
(-0.0789662 -0.0279488 0)
(-0.0719827 -0.0279167 0)
(-0.0649839 -0.0276874 0)
(-0.0580111 -0.0272627 0)
(-0.0511055 -0.0266465 0)
(-0.0443085 -0.0258457 0)
(-0.0376607 -0.0248694 0)
(-0.0312018 -0.0237292 0)
(-0.0249697 -0.022439 0)
(-0.0190005 -0.0210146 0)
(-0.0133276 -0.019474 0)
(-0.00798153 -0.0178363 0)
(-0.00298939 -0.0161223 0)
(0.00162544 -0.0143532 0)
(0.0058437 -0.0125508 0)
(0.00965045 -0.0107368 0)
(0.0130352 -0.00893244 0)
(0.0159922 -0.00715818 0)
(0.0185201 -0.00543307 0)
(0.0206224 -0.00377457 0)
(0.0223066 -0.00219818 0)
(0.0235848 -0.000717171 0)
(0.0244726 0.000657555 0)
(0.0249893 0.00191761 0)
(0.025157 0.00305714 0)
(0.0250005 0.00407273 0)
(0.0245467 0.00496323 0)
(0.023824 0.00572953 0)
(0.0228616 0.00637414 0)
(0.0216899 0.00690079 0)
(0.020339 0.00731384 0)
(0.0188394 0.00761767 0)
(0.0172211 0.00781598 0)
(0.0155143 0.00791111 0)
(0.0137486 0.00790335 0)
(0.0119539 0.00779038 0)
(0.0101605 0.00756685 0)
(0.00839913 0.00722438 0)
(0.00670196 0.00675194 0)
(0.00510283 0.00613695 0)
(0.00363828 0.00536719 0)
(0.00234741 0.00443392 0)
(0.00127117 0.00333584 0)
(0.000472688 0.00208423 0)
(7.6715e-05 0.000712359 0)
(4.5258e-05 -0.000669784 0)
(0.000252044 -0.00170189 0)
(0.000632832 -0.00244929 0)
(0.00109409 -0.00293479 0)
(0.00157936 -0.00318336 0)
(0.00204828 -0.00322219 0)
(0.00246548 -0.0030795 0)
(0.00280079 -0.00278335 0)
(0.00302904 -0.00236067 0)
(0.00312941 -0.00183651 0)
(0.00308479 -0.00123343 0)
(0.00288131 -0.000571144 0)
(0.00250789 0.000133714 0)
(0.0019557 0.000867716 0)
(0.00121767 0.0016206 0)
(0.000288093 0.00238513 0)
(-0.000837887 0.00315688 0)
(-0.00216461 0.00393388 0)
(-0.00369622 0.00471624 0)
(-0.00543693 0.00550567 0)
(-0.00739112 0.00630502 0)
(-0.00956343 0.00711774 0)
(-0.0119587 0.00794744 0)
(-0.0145818 0.00879742 0)
(-0.0174375 0.00967033 0)
(-0.0205302 0.0105678 0)
(-0.0238637 0.0114904 0)
(-0.0274407 0.0124371 0)
(-0.0312625 0.0134056 0)
(-0.0353289 0.0143924 0)
(-0.0396377 0.0153921 0)
(-0.0441845 0.0163986 0)
(-0.0489627 0.0174042 0)
(-0.0539627 0.0184004 0)
(-0.0591725 0.0193775 0)
(-0.0645773 0.0203255 0)
(-0.0701596 0.0212333 0)
(-0.0758989 0.0220899 0)
(-0.0817725 0.0228836 0)
(-0.0877551 0.023603 0)
(-0.0938192 0.0242368 0)
(-0.0999355 0.0247738 0)
(-0.106073 0.0252036 0)
(-0.1122 0.0255163 0)
(-0.118284 0.025703 0)
(-0.124291 0.0257557 0)
(-0.130189 0.0256676 0)
(-0.135943 0.0254331 0)
(-0.141523 0.0250479 0)
(-0.146896 0.0245091 0)
(-0.152033 0.0238151 0)
(-0.156905 0.0229658 0)
(-0.161486 0.0219624 0)
(-0.16575 0.0208072 0)
(-0.169675 0.0195041 0)
(-0.17324 0.0180581 0)
(-0.176425 0.0164751 0)
(-0.179215 0.0147624 0)
(-0.181593 0.0129281 0)
(-0.183547 0.0109812 0)
(-0.185067 0.00893168 0)
(-0.186142 0.00679019 0)
(-0.186767 0.00456823 0)
(-0.186935 0.00227792 0)
(-0.186643 -6.7832e-05 0)
(-0.185888 -0.00245533 0)
(-0.184671 -0.00487092 0)
(-0.182993 -0.00729983 0)
(-0.180858 -0.00972688 0)
(-0.17827 -0.0121364 0)
(-0.175236 -0.0145125 0)
(-0.171765 -0.0168385 0)
(-0.167868 -0.019098 0)
(-0.163557 -0.0212739 0)
(-0.158847 -0.0233493 0)
(-0.153756 -0.0253075 0)
(-0.148302 -0.0271317 0)
(-0.142507 -0.0288058 0)
(-0.136396 -0.0303143 0)
(-0.129994 -0.0316423 0)
(-0.123331 -0.0327764 0)
(-0.116438 -0.0337041 0)
(-0.109348 -0.034415 0)
(-0.102097 -0.0349001 0)
(-0.0947224 -0.035153 0)
(-0.0872637 -0.0351692 0)
(-0.0797615 -0.0349472 0)
(-0.0722575 -0.0344878 0)
(-0.0647945 -0.0337951 0)
(-0.0574151 -0.0328758 0)
(-0.050162 -0.0317398 0)
(-0.0430773 -0.0303998 0)
(-0.0362017 -0.0288712 0)
(-0.0295743 -0.0271721 0)
(-0.023232 -0.025323 0)
(-0.017209 -0.0233461 0)
(-0.0115365 -0.0212657 0)
(-0.00624169 -0.0191068 0)
(-0.00134826 -0.0168953 0)
(0.00312462 -0.0146574 0)
(0.0071622 -0.0124189 0)
(0.0107544 -0.0102049 0)
(0.0138959 -0.00803918 0)
(0.0165862 -0.00594375 0)
(0.0188293 -0.00393858 0)
(0.0206339 -0.00204115 0)
(0.0220128 -0.000266245 0)
(0.0229827 0.00137422 0)
(0.0235641 0.00287131 0)
(0.0237804 0.004219 0)
(0.0236577 0.00541403 0)
(0.0232243 0.00645567 0)
(0.0225102 0.00734527 0)
(0.0215465 0.00808583 0)
(0.0203652 0.00868133 0)
(0.0189989 0.00913601 0)
(0.0174802 0.00945363 0)
(0.0158419 0.00963659 0)
(0.0141169 0.00968517 0)
(0.0123381 0.00959684 0)
(0.010539 0.00936575 0)
(0.0087536 0.0089826 0)
(0.00701722 0.00843486 0)
(0.00536707 0.00770772 0)
(0.00384349 0.00678565 0)
(0.00249011 0.00565487 0)
(0.00135337 0.00430644 0)
(0.000504638 0.00273999 0)
(8.20558e-05 0.000969544 0)
(4.31367e-05 -0.000800225 0)
(0.000236272 -0.0020046 0)
(0.00058543 -0.00285374 0)
(0.000997688 -0.00338353 0)
(0.00141579 -0.00362878 0)
(0.00179854 -0.00362465 0)
(0.00211028 -0.00340584 0)
(0.00232082 -0.00300588 0)
(0.00240507 -0.00245634 0)
(0.00234227 -0.00178625 0)
(0.00211525 -0.00102162 0)
(0.00170991 -0.000185109 0)
(0.00111473 0.000704249 0)
(0.000320253 0.00163108 0)
(-0.000681378 0.00258363 0)
(-0.00189684 0.00355364 0)
(-0.00333201 0.004536 0)
(-0.00499234 0.00552843 0)
(-0.00688307 0.00653096 0)
(-0.00900942 0.00754537 0)
(-0.0113767 0.00857464 0)
(-0.0139901 0.00962237 0)
(-0.0168551 0.0106922 0)
(-0.0199765 0.0117871 0)
(-0.0233589 0.0129095 0)
(-0.027006 0.0140601 0)
(-0.0309201 0.0152384 0)
(-0.0351024 0.0164421 0)
(-0.039552 0.0176672 0)
(-0.0442659 0.0189079 0)
(-0.0492387 0.0201569 0)
(-0.0544622 0.0214051 0)
(-0.0599256 0.0226423 0)
(-0.0656149 0.0238572 0)
(-0.0715134 0.0250372 0)
(-0.0776011 0.0261693 0)
(-0.0838555 0.0272399 0)
(-0.0902511 0.0282349 0)
(-0.0967603 0.0291407 0)
(-0.103353 0.0299433 0)
(-0.109998 0.0306297 0)
(-0.116661 0.0311873 0)
(-0.12331 0.0316044 0)
(-0.129909 0.0318706 0)
(-0.136423 0.0319765 0)
(-0.142818 0.0319145 0)
(-0.149061 0.0316781 0)
(-0.155119 0.0312627 0)
(-0.16096 0.0306651 0)
(-0.166556 0.029884 0)
(-0.171877 0.0289193 0)
(-0.176899 0.0277728 0)
(-0.181597 0.0264475 0)
(-0.185949 0.0249482 0)
(-0.189936 0.0232804 0)
(-0.193541 0.0214513 0)
(-0.196746 0.0194691 0)
(-0.199539 0.0173427 0)
(-0.201908 0.0150823 0)
(-0.203842 0.0126989 0)
(-0.205333 0.0102039 0)
(-0.206374 0.00760995 0)
(-0.206958 0.00493006 0)
(-0.207082 0.002178 0)
(-0.206742 -0.000631826 0)
(-0.205938 -0.00348448 0)
(-0.204668 -0.00636437 0)
(-0.202934 -0.00925531 0)
(-0.200739 -0.0121406 0)
(-0.198086 -0.0150029 0)
(-0.19498 -0.0178245 0)
(-0.191429 -0.0205871 0)
(-0.187441 -0.0232723 0)
(-0.183027 -0.0258612 0)
(-0.1782 -0.0283347 0)
(-0.172974 -0.0306737 0)
(-0.167366 -0.0328594 0)
(-0.161395 -0.0348731 0)
(-0.155084 -0.036697 0)
(-0.148456 -0.0383137 0)