/*--------------------------------*- C++ -*----------------------------------*\
| =========                 |                                                 |
| \\      /  F ield         | OpenFOAM: The Open Source CFD Toolbox           |
|  \\    /   O peration     | Version:  2112                                  |
|   \\  /    A nd           | Website:  www.openfoam.com                      |
|    \\/     M anipulation  |                                                 |
\*---------------------------------------------------------------------------*/
FoamFile
{
    version     2.0;
    format      ascii;
    arch        "LSB;label=32;scalar=64";
    class       volScalarField;
    location    "24";
    object      p;
}
// * * * * * * * * * * * * * * * * * * * * * * * * * * * * * * * * * * * * * //

dimensions      [0 2 -2 0 0 0 0];

internalField   nonuniform List<scalar> 
16641
(
7.7409e-08
1.20305e-05
2.25125e-05
2.80169e-05
2.57093e-05
1.42415e-05
-6.71778e-06
-3.69432e-05
-7.5927e-05
-0.000123028
-0.000177558
-0.000238841
-0.000306258
-0.000379271
-0.000457426
-0.000540374
-0.000627866
-0.000719742
-0.000815927
-0.000916425
-0.0010213
-0.00113066
-0.00124465
-0.00136342
-0.00148714
-0.00161594
-0.00174995
-0.00188925
-0.00203386
-0.00218377
-0.00233887
-0.00249899
-0.00266388
-0.00283319
-0.00300649
-0.00318323
-0.00336276
-0.00354434
-0.00372709
-0.00391003
-0.00409205
-0.00427194
-0.00444837
-0.00461992
-0.00478504
-0.00494211
-0.00508944
-0.00522528
-0.00534783
-0.00545528
-0.00554585
-0.00561776
-0.00566932
-0.00569895
-0.0057052
-0.00568677
-0.0056426
-0.00557185
-0.00547397
-0.00534872
-0.00519619
-0.00501685
-0.00481155
-0.00458154
-0.00432851
-0.00405456
-0.00376218
-0.00345417
-0.00313398
-0.00280519
-0.00247172
-0.00213775
-0.0018077
-0.00148606
-0.00117741
-0.000886293
-0.000617153
-0.000374224
-0.000161458
1.75613e-05
0.000159701
0.000262351
0.000323489
0.000341729
0.000316361
0.000247371
0.000135445
-1.80459e-05
-0.000211075
-0.000441011
-0.000704697
-0.000998472
-0.00131834
-0.00166001
-0.00201902
-0.00239082
-0.00277091
-0.00315488
-0.00353856
-0.00391803
-0.00428974
-0.00465051
-0.00499761
-0.00532872
-0.00564199
-0.00593603
-0.00620984
-0.00646283
-0.00669476
-0.00690571
-0.00709602
-0.00726625
-0.00741711
-0.00754945
-0.00766415
-0.00776213
-0.00784427
-0.00791139
-0.00796423
-0.00800342
-0.00802954
-0.00804311
-0.00804474
-0.00803525
-0.008016
-0.00798929
-0.00795895
-0.00793068
-0.00791329
-1.16884e-05
2.13948e-07
7.50543e-06
9.27313e-06
4.30852e-06
-8.47041e-06
-2.94765e-05
-5.86703e-05
-9.57614e-05
-0.000140309
-0.0001918
-0.000249708
-0.000313529
-0.000382808
-0.000457159
-0.000536276
-0.000619933
-0.00070798
-0.000800339
-0.000897001
-0.00099801
-0.00110345
-0.00121343
-0.00132809
-0.00144756
-0.00157195
-0.00170138
-0.0018359
-0.00197555
-0.00212029
-0.00227004
-0.00242463
-0.00258383
-0.00274734
-0.00291473
-0.0030855
-0.00325907
-0.00343473
-0.00361165
-0.00378893
-0.00396553
-0.0041403
-0.00431199
-0.00447924
-0.0046406
-0.00479452
-0.00493939
-0.00507353
-0.00519523
-0.00530273
-0.00539432
-0.00546829
-0.00552299
-0.00555688
-0.00556854
-0.00555671
-0.00552031
-0.00545853
-0.00537077
-0.00525678
-0.00511659
-0.00495063
-0.00475966
-0.00454487
-0.00430783
-0.00405053
-0.00377534
-0.003485
-0.00318266
-0.0028718
-0.00255621
-0.0022399
-0.00192709
-0.00162212
-0.00132939
-0.00105326
-0.000798013
-0.000567719
-0.000366184
-0.000196854
-6.27404e-05
3.36492e-05
9.03744e-05
0.00010611
8.01805e-05
1.25814e-05
-9.60199e-05
-0.000244298
-0.000430299
-0.000651493
-0.000904835
-0.00118684
-0.00149367
-0.00182121
-0.00216522
-0.00252136
-0.00288534
-0.00325298
-0.00362031
-0.00398365
-0.00433961
-0.0046852
-0.00501785
-0.00533537
-0.00563604
-0.00591853
-0.0061819
-0.0064256
-0.00664939
-0.00685334
-0.00703776
-0.00720315
-0.00735019
-0.00747963
-0.00759233
-0.00768912
-0.00777088
-0.00783839
-0.00789243
-0.00793368
-0.00796281
-0.00798049
-0.00798746
-0.00798467
-0.00797346
-0.0079558
-0.0079346
-0.00791339
-0.00789591
-2.21304e-05
-7.01563e-06
2.56629e-07
8.23014e-07
-5.21045e-06
-1.85715e-05
-3.9569e-05
-6.81603e-05
-0.000104106
-0.000147043
-0.000196542
-0.000252152
-0.000313435
-0.000379992
-0.00045148
-0.000527626
-0.000608223
-0.000693135
-0.000782295
-0.000875692
-0.000973366
-0.0010754
-0.00118189
-0.00129296
-0.00140875
-0.00152936
-0.0016549
-0.00178543
-0.00192099
-0.00206155
-0.00220705
-0.00235735
-0.00251223
-0.00267142
-0.00283453
-0.00300112
-0.00317063
-0.0033424
-0.00351567
-0.00368956
-0.00386312
-0.00403523
-0.00420472
-0.00437026
-0.00453047
-0.00468385
-0.00482882
-0.00496375
-0.00508696
-0.00519674
-0.00529137
-0.00536917
-0.0054285
-0.0054678
-0.00548564
-0.00548074
-0.005452
-0.00539855
-0.00531977
-0.00521533
-0.00508523
-0.00492979
-0.00474973
-0.00454613
-0.00432051
-0.00407479
-0.00381107
-0.00353229
-0.00324138
-0.00294172
-0.00263703
-0.00233123
-0.00202846
-0.00173298
-0.00144913
-0.0011812
-0.000933416
-0.00070979
-0.000514081
-0.000349694
-0.000219606
-0.000126297
-7.16853e-05
-5.70831e-05
-8.31572e-05
-0.000149912
-0.000256688
-0.000402174
-0.000584439
-0.000800984
-0.0010488
-0.00132446
-0.00162416
-0.00194389
-0.00227945
-0.00262661
-0.00298115
-0.00333902
-0.00369634
-0.00404952
-0.00439531
-0.00473082
-0.00505358
-0.00536152
-0.00565299
-0.00592675
-0.00618195
-0.00641807
-0.00663495
-0.00683266
-0.00701155
-0.00717213
-0.00731507
-0.00744113
-0.00755114
-0.00764596
-0.00772642
-0.00779335
-0.00784752
-0.00788965
-0.00792041
-0.00794051
-0.00795065
-0.00795171
-0.00794475
-0.0079313
-0.00791343
-0.00789226
-0.00786749
-2.76637e-05
-8.76977e-06
-3.82304e-07
6.66924e-08
-6.3227e-06
-1.99519e-05
-4.09615e-05
-6.92147e-05
-0.000104443
-0.000146297
-0.000194377
-0.000248266
-0.000307563
-0.000371904
-0.00044098
-0.000514543
-0.000592405
-0.000674453
-0.00076063
-0.000850939
-0.000945427
-0.00104418
-0.00114731
-0.00125495
-0.00136723
-0.00148427
-0.00160619
-0.00173306
-0.00186495
-0.00200184
-0.0021437
-0.00229041
-0.00244181
-0.00259763
-0.00275756
-0.00292118
-0.00308798
-0.00325736
-0.00342861
-0.0036009
-0.00377331
-0.0039448
-0.00411422
-0.0042803
-0.00444167
-0.00459686
-0.00474434
-0.00488246
-0.00500956
-0.00512392
-0.0052238
-0.0053075
-0.00537335
-0.00541975
-0.00544522
-0.00544842
-0.00542818
-0.00538357
-0.0053139
-0.00521877
-0.00509808
-0.0049521
-0.00478146
-0.00458718
-0.00437071
-0.00413397
-0.0038787
-0.00360807
-0.00332491
-0.00303254
-0.00273463
-0.00243507
-0.00213798
-0.00184761
-0.00156828
-0.00130429
-0.00105986
-0.000839032
-0.000645567
-0.000482892
-0.000354006
-0.00026141
-0.000207045
-0.000192241
-0.000217683
-0.000283386
-0.000388699
-0.000532315
-0.000712301
-0.000926154
-0.00117086
-0.00144297
-0.00173869
-0.002054
-0.00238469
-0.00272654
-0.00307535
-0.00342707
-0.00377788
-0.00412422
-0.0044629
-0.00479109
-0.00510639
-0.00540682
-0.00569079
-0.00595716
-0.00620515
-0.00643433
-0.0066446
-0.00683611
-0.00700926
-0.00716461
-0.00730287
-0.00742485
-0.00753139
-0.00762337
-0.00770167
-0.00776712
-0.0078205
-0.00786252
-0.00789387
-0.00791517
-0.00792705
-0.00793016
-0.00792522
-0.00791328
-0.00789567
-0.00787145
-0.00783733
-2.53688e-05
-3.77684e-06
5.49721e-06
5.92565e-06
-7.41918e-07
-1.46579e-05
-3.57994e-05
-6.392e-05
-9.8701e-05
-0.000139778
-0.000186754
-0.000239226
-0.000296816
-0.000359186
-0.000426052
-0.000497186
-0.00057243
-0.000651688
-0.000734926
-0.000822164
-0.000913469
-0.00100894
-0.00110872
-0.00121294
-0.00132177
-0.00143534
-0.00155379
-0.00167723
-0.00180574
-0.00193935
-0.00207806
-0.00222179
-0.00237042
-0.00252374
-0.00268149
-0.00284328
-0.00300868
-0.00317713
-0.00334797
-0.00352043
-0.00369363
-0.00386657
-0.00403812
-0.00420705
-0.004372
-0.00453152
-0.00468405
-0.00482796
-0.00496152
-0.005083
-0.00519062
-0.00528261
-0.00535722
-0.00541281
-0.00544779
-0.00546075
-0.00545044
-0.00541584
-0.00535615
-0.00527089
-0.00515989
-0.00502332
-0.00486174
-0.00467611
-0.00446775
-0.00423826
-0.00399037
-0.0037262
-0.00344878
-0.00316148
-0.00286794
-0.00257206
-0.00227797
-0.00198994
-0.00171231
-0.00144942
-0.00120554
-0.000984752
-0.000790875
-0.000627394
-0.000497364
-0.000403343
-0.000347326
-0.00033069
-0.000354159
-0.000417782
-0.000520927
-0.000662297
-0.000839957
-0.00105139
-0.00129356
-0.00156298
-0.00185583
-0.00216802
-0.00249534
-0.00283349
-0.00317825
-0.00352555
-0.00387154
-0.00421267
-0.00454575
-0.00486799
-0.00517702
-0.00547091
-0.00574817
-0.00600769
-0.00624881
-0.00647116
-0.00667474
-0.00685978
-0.00702676
-0.00717633
-0.00730925
-0.00742639
-0.00752867
-0.007617
-0.0076923
-0.00775542
-0.00780716
-0.00784823
-0.00787928
-0.00790085
-0.00791346
-0.00791751
-0.0079134
-0.0079017
-0.00788315
-0.00785512
-0.00781186
-1.37034e-05
9.1653e-06
1.87228e-05
1.88883e-05
1.17675e-05
-2.61172e-06
-2.40896e-05
-5.23235e-05
-8.69381e-05
-0.000127537
-0.00017371
-0.000225062
-0.000281225
-0.000341878
-0.000406755
-0.000475656
-0.000548446
-0.000625055
-0.000705477
-0.000789757
-0.00087799
-0.000970308
-0.00106687
-0.00116786
-0.00127346
-0.00138384
-0.00149918
-0.00161964
-0.00174532
-0.00187631
-0.00201266
-0.00215434
-0.00230128
-0.00245334
-0.0026103
-0.00277185
-0.00293761
-0.00310706
-0.0032796
-0.00345451
-0.00363094
-0.00380791
-0.00398432
-0.00415894
-0.0043304
-0.00449722
-0.00465782
-0.0048105
-0.00495351
-0.00508501
-0.00520316
-0.00530608
-0.00539195
-0.00545901
-0.00550557
-0.00553011
-0.00553129
-0.00550795
-0.00545923
-0.00538453
-0.0052836
-0.00515653
-0.00500381
-0.00482633
-0.00462539
-0.0044026
-0.00416031
-0.00390096
-0.00362752
-0.00334331
-0.00305198
-0.00275746
-0.0024639
-0.00217561
-0.001897
-0.00163246
-0.00138632
-0.00116275
-0.000965664
-0.00079862
-0.000664769
-0.00056676
-0.00050667
-0.000485956
-0.000505413
-0.000565147
-0.00066457
-0.000802411
-0.000976748
-0.00118506
-0.00142427
-0.00169088
-0.001981
-0.00229047
-0.00261502
-0.00295027
-0.00329195
-0.00363589
-0.0039782
-0.00431529
-0.00464392
-0.00496131
-0.00526508
-0.00555334
-0.00582461
-0.00607788
-0.00631253
-0.00652829
-0.00672524
-0.00690371
-0.00706427
-0.00720766
-0.00733474
-0.00744645
-0.00754379
-0.00762774
-0.00769926
-0.00775925
-0.00780853
-0.0078478
-0.00787768
-0.00789864
-0.00791105
-0.00791513
-0.00791095
-0.00789871
-0.00787867
-0.00784691
-0.00779582
7.92784e-06
3.06789e-05
3.97803e-05
3.92563e-05
3.1355e-05
1.62313e-05
-5.85281e-06
-3.44773e-05
-6.92105e-05
-0.00010962
-0.000155283
-0.000205799
-0.000260807
-0.00032
-0.000383131
-0.000450025
-0.000520573
-0.000594737
-0.000672544
-0.000754075
-0.000839462
-0.000928878
-0.00102253
-0.00112062
-0.00122341
-0.0013311
-0.00144393
-0.0015621
-0.00168578
-0.00181513
-0.00195024
-0.00209116
-0.00223788
-0.00239033
-0.00254836
-0.00271172
-0.00288007
-0.00305298
-0.00322986
-0.00341004
-0.00359268
-0.00377682
-0.00396133
-0.00414498
-0.00432635
-0.00450392
-0.00467602
-0.00484089
-0.00499666
-0.0051414
-0.00527315
-0.00538992
-0.00548976
-0.00557076
-0.00563115
-0.00566926
-0.00568362
-0.005673
-0.00563639
-0.00557312
-0.00548285
-0.00536558
-0.00522174
-0.00505216
-0.00485813
-0.00464117
-0.00440357
-0.00414783
-0.0038769
-0.00359409
-0.00330308
-0.00300783
-0.00271252
-0.00242152
-0.00213931
-0.00187036
-0.00161909
-0.00138977
-0.00118641
-0.00101271
-0.000871934
-0.000766845
-0.000699645
-0.000671905
-0.000684525
-0.000737704
-0.000830929
-0.000962989
-0.001132
-0.00133544
-0.00157025
-0.00183287
-0.00211938
-0.00242556
-0.00274702
-0.00307932
-0.00341807
-0.00375903
-0.00409818
-0.00443186
-0.00475678
-0.00507007
-0.00536936
-0.00565271
-0.00591868
-0.00616627
-0.00639491
-0.00660443
-0.00679495
-0.00696692
-0.00712098
-0.00725799
-0.00737891
-0.00748478
-0.00757668
-0.00765566
-0.00772276
-0.00777893
-0.00782502
-0.00786174
-0.00788967
-0.00790924
-0.0079207
-0.00792408
-0.00791921
-0.007906
-0.00788436
-0.00784945
-0.00779235
3.96528e-05
6.09958e-05
6.88541e-05
6.7117e-05
5.80199e-05
4.18035e-05
1.88043e-05
-1.04977e-05
-4.56254e-05
-8.61185e-05
-0.000131539
-0.000181484
-0.000235597
-0.000293584
-0.000355221
-0.000420358
-0.00048892
-0.000560905
-0.000636379
-0.000715469
-0.000798355
-0.000885264
-0.000976449
-0.00107219
-0.00117278
-0.00127851
-0.00138968
-0.00150655
-0.00162938
-0.00175838
-0.00189374
-0.00203559
-0.00218399
-0.00233894
-0.00250036
-0.00266808
-0.0028418
-0.00302113
-0.00320552
-0.00339432
-0.00358668
-0.00378162
-0.00397799
-0.00417447
-0.00436961
-0.00456177
-0.00474919
-0.00492998
-0.00510214
-0.00526362
-0.0054123
-0.00554605
-0.00566276
-0.00576041
-0.00583706
-0.00589093
-0.00592041
-0.00592415
-0.00590106
-0.00585036
-0.00577162
-0.00566478
-0.00553019
-0.00536863
-0.00518132
-0.00496981
-0.00473631
-0.00448333
-0.00421379
-0.00393103
-0.00363874
-0.0033409
-0.00304175
-0.00274572
-0.00245734
-0.0021812
-0.00192181
-0.00168355
-0.00147059
-0.00128674
-0.00113544
-0.00101959
-0.00094156
-0.000903078
-0.000905188
-0.000948224
-0.0010318
-0.00115479
-0.00131539
-0.00151113
-0.00173898
-0.00199535
-0.0022763
-0.00257754
-0.00289461
-0.00322295
-0.00355807
-0.00389559
-0.0042314
-0.00456171
-0.00488311
-0.00519266
-0.00548789
-0.00576684
-0.00602802
-0.00627045
-0.00649357
-0.00669723
-0.00688164
-0.00704732
-0.00719501
-0.00732565
-0.0074403
-0.00754012
-0.00762626
-0.0076999
-0.00776213
-0.00781396
-0.00785629
-0.00788985
-0.00791523
-0.0079328
-0.00794273
-0.00794493
-0.00793903
-0.00792473
-0.00790168
-0.00786446
-0.00780332
8.13513e-05
0.000100118
0.000105964
0.000102463
9.17203e-05
7.40357e-05
4.9803e-05
1.95411e-05
-1.62449e-05
-5.70774e-05
-0.000102509
-0.000152133
-0.000205606
-0.000262651
-0.000323069
-0.000386742
-0.000453632
-0.000523781
-0.000597304
-0.000674383
-0.000755259
-0.000840221
-0.000929591
-0.00102372
-0.00112299
-0.00122776
-0.00133841
-0.0014553
-0.00157877
-0.00170914
-0.00184667
-0.00199158
-0.00214403
-0.00230409
-0.00247176
-0.00264691
-0.00282931
-0.00301858
-0.0032142
-0.00341549
-0.00362159
-0.00383147
-0.0040439
-0.00425748
-0.00447063
-0.00468159
-0.00488847
-0.00508921
-0.00528167
-0.00546362
-0.00563278
-0.00578684
-0.00592357
-0.00604075
-0.00613632
-0.00620835
-0.00625513
-0.00627517
-0.00626729
-0.00623061
-0.00616461
-0.00606917
-0.00594458
-0.00579152
-0.00561109
-0.00540513
-0.00517551
-0.00492476
-0.00465584
-0.00437206
-0.00407712
-0.00377503
-0.00347008
-0.00316674
-0.00286963
-0.00258342
-0.00231273
-0.0020621
-0.00183581
-0.00163787
-0.00147188
-0.00134095
-0.00124764
-0.00119389
-0.00118092
-0.00120928
-0.00127873
-0.00138831
-0.00153634
-0.00172045
-0.00193765
-0.00218441
-0.00245675
-0.00275036
-0.00306071
-0.00338314
-0.00371303
-0.00404588
-0.00437744
-0.00470376
-0.0050213
-0.005327
-0.00561826
-0.00589304
-0.00614978
-0.00638746
-0.00660549
-0.00680375
-0.00698248
-0.00714223
-0.00728384
-0.00740832
-0.00751683
-0.00761062
-0.00769096
-0.00775909
-0.00781621
-0.00786341
-0.00790162
-0.00793164
-0.00795405
-0.00796921
-0.00797724
-0.00797797
-0.0079709
-0.00795559
-0.00793152
-0.00789294
-0.0078297
0.000132754
0.000147891
0.000151001
0.000145196
0.000132358
0.000112837
8.70643e-05
5.55729e-05
1.8879e-05
-2.25312e-05
-6.82117e-05
-0.000117763
-0.000170859
-0.000227247
-0.000286759
-0.000349315
-0.000414922
-0.000483675
-0.000555749
-0.000631392
-0.000710918
-0.00079469
-0.000883118
-0.000976644
-0.00107573
-0.00118085
-0.00129248
-0.00141109
-0.00153713
-0.001671
-0.00181308
-0.00196369
-0.00212308
-0.00229139
-0.0024687
-0.00265492
-0.00284985
-0.00305313
-0.00326423
-0.00348241
-0.00370676
-0.00393616
-0.00416928
-0.00440458
-0.00464034
-0.00487463
-0.00510539
-0.00533038
-0.00554727
-0.00575364
-0.00594703
-0.00612497
-0.00628504
-0.00642488
-0.00654227
-0.00663515
-0.00670168
-0.00674027
-0.00674962
-0.00672876
-0.0066771
-0.00659443
-0.00648096
-0.00633733
-0.0061646
-0.00596443
-0.00573877
-0.00549009
-0.0052213
-0.0049357
-0.00463698
-0.00432916
-0.00401655
-0.00370368
-0.00339522
-0.00309594
-0.00281058
-0.00254382
-0.00230011
-0.00208366
-0.00189826
-0.00174728
-0.00163351
-0.00155913
-0.00152564
-0.0015338
-0.00158365
-0.00167441
-0.0018046
-0.001972
-0.00217375
-0.00240639
-0.00266597
-0.00294819
-0.00324845
-0.00356202
-0.00388418
-0.00421028
-0.0045359
-0.00485694
-0.0051697
-0.00547093
-0.00575791
-0.00602844
-0.00628086
-0.00651405
-0.00672739
-0.00692071
-0.00709423
-0.00724855
-0.00738453
-0.00750327
-0.00760598
-0.00769402
-0.00776873
-0.00783146
-0.00788349
-0.00792598
-0.00795997
-0.00798627
-0.00800551
-0.00801805
-0.00802402
-0.00802318
-0.00801498
-0.00799888
-0.00797427
-0.00793529
-0.00787173
0.000193492
0.000204037
0.000203736
0.000195113
0.000179761
0.000158063
0.000130464
9.74947e-05
5.9665e-05
1.74544e-05
-2.87039e-05
-7.84334e-05
-0.000131432
-0.00018748
-0.000246449
-0.000308305
-0.000373111
-0.000441026
-0.000512294
-0.000587243
-0.000666271
-0.000749837
-0.000838449
-0.000932657
-0.00103304
-0.00114017
-0.00125467
-0.00137711
-0.00150805
-0.00164805
-0.00179756
-0.00195703
-0.00212678
-0.00230704
-0.00249793
-0.0026994
-0.00291127
-0.00313315
-0.00336445
-0.00360439
-0.00385193
-0.00410584
-0.00436464
-0.00462662
-0.00488987
-0.00515228
-0.00541157
-0.00566532
-0.00591097
-0.00614593
-0.00636752
-0.00657311
-0.0067601
-0.00692597
-0.00706836
-0.00718507
-0.00727413
-0.00733385
-0.00736283
-0.00735999
-0.00732465
-0.00725652
-0.00715572
-0.00702282
-0.00685882
-0.00666526
-0.00644405
-0.00619761
-0.00592879
-0.00564084
-0.00533743
-0.00502257
-0.00470057
-0.00437599
-0.00405356
-0.00373814
-0.00343458
-0.00314771
-0.00288216
-0.00264235
-0.00243232
-0.00225571
-0.00211559
-0.00201445
-0.00195411
-0.00193566
-0.00195939
-0.00202487
-0.00213085
-0.00227535
-0.00245568
-0.00266853
-0.00291006
-0.00317598
-0.00346171
-0.00376245
-0.00407338
-0.00438973
-0.00470691
-0.00502064
-0.00532702
-0.00562261
-0.00590451
-0.00617032
-0.00641824
-0.00664702
-0.00685591
-0.00704467
-0.0072135
-0.00736294
-0.00749389
-0.00760745
-0.00770491
-0.00778767
-0.00785718
-0.00791486
-0.00796207
-0.00800007
-0.00802994
-0.00805259
-0.00806869
-0.00807864
-0.00808256
-0.00808023
-0.00807107
-0.0080545
-0.00802986
-0.00799139
-0.00792911
0.000263104
0.000268158
0.00026382
0.000251913
0.000233668
0.000209483
0.000179805
0.000145138
0.000105968
6.2748e-05
1.58816e-05
-3.42874e-05
-8.74944e-05
-0.000143563
-0.000202416
-0.000264076
-0.000328672
-0.000396439
-0.000467706
-0.000542892
-0.000622496
-0.000707088
-0.000797295
-0.000893789
-0.000997276
-0.00110848
-0.00122813
-0.00135696
-0.00149565
-0.00164487
-0.00180523
-0.00197723
-0.00216131
-0.00235775
-0.0025667
-0.00278814
-0.00302184
-0.00326737
-0.00352406
-0.00379102
-0.00406707
-0.00435081
-0.00464057
-0.00493445
-0.00523031
-0.00552585
-0.00581853
-0.00610573
-0.00638469
-0.00665258
-0.00690656
-0.00714379
-0.00736151
-0.00755706
-0.0077279
-0.00787173
-0.00798645
-0.00807024
-0.0081216
-0.00813935
-0.00812271
-0.00807128
-0.00798509
-0.00786462
-0.00771078
-0.00752499
-0.0073091
-0.00706541
-0.00679671
-0.00650619
-0.00619744
-0.00587445
-0.0055415
-0.00520317
-0.00486423
-0.00452959
-0.00420424
-0.00389313
-0.0036011
-0.00333279
-0.00309251
-0.00288419
-0.00271126
-0.00257655
-0.00248227
-0.00242988
-0.00242008
-0.00245279
-0.00252711
-0.00264137
-0.00279316
-0.0029794
-0.00319639
-0.00343996
-0.00370556
-0.0039884
-0.00428357
-0.00458618
-0.0048915
-0.00519505
-0.00549272
-0.00578085
-0.0060563
-0.00631646
-0.00655933
-0.00678346
-0.00698794
-0.00717242
-0.00733698
-0.00748211
-0.00760866
-0.00771773
-0.00781064
-0.00788881
-0.00795375
-0.00800695
-0.00804985
-0.00808379
-0.00810992
-0.00812922
-0.00814242
-0.00814999
-0.00815207
-0.00814848
-0.00813866
-0.008122
-0.00809787
-0.00806073
-0.00800107
0.000341029
0.00033974
0.000330791
0.000315179
0.000293704
0.000266766
0.000234794
0.000198241
0.000157545
0.000113113
6.53041e-05
1.4413e-05
-3.93467e-05
-9.58552e-05
-0.000155095
-0.000217164
-0.00028227
-0.000350733
-0.000422984
-0.000499548
-0.000581045
-0.000668172
-0.000761692
-0.00086242
-0.000971208
-0.00108893
-0.00121648
-0.00135471
-0.00150447
-0.00166655
-0.00184166
-0.00203041
-0.00223331
-0.00245067
-0.00268266
-0.00292923
-0.00319011
-0.00346477
-0.00375241
-0.00405199
-0.00436216
-0.0046813
-0.00500754
-0.00533874
-0.00567254
-0.00600636
-0.00633747
-0.00666299
-0.00697995
-0.00728532
-0.00757605
-0.00784914
-0.00810164
-0.00833074
-0.00853377
-0.00870829
-0.00885208
-0.00896319
-0.00904001
-0.00908126
-0.00908602
-0.00905381
-0.00898453
-0.00887853
-0.00873663
-0.00856012
-0.00835072
-0.00811064
-0.00784255
-0.00754953
-0.0072351
-0.00690316
-0.00655797
-0.00620407
-0.00584625
-0.00548948
-0.00513882
-0.00479938
-0.00447618
-0.00417409
-0.00389771
-0.00365131
-0.00343868
-0.00326307
-0.00312713
-0.00303278
-0.00298118
-0.00297271
-0.00300692
-0.00308255
-0.00319755
-0.00334916
-0.00353394
-0.00374789
-0.00398659
-0.00424529
-0.00451904
-0.00480289
-0.00509194
-0.00538152
-0.00566732
-0.00594541
-0.00621239
-0.0064654
-0.00670218
-0.00692103
-0.00712086
-0.0073011
-0.00746169
-0.00760301
-0.0077258
-0.00783112
-0.00792026
-0.00799466
-0.00805583
-0.00810533
-0.00814464
-0.00817516
-0.00819814
-0.00821461
-0.00822538
-0.00823097
-0.00823159
-0.00822711
-0.00821699
-0.0082007
-0.00817759
-0.0081425
-0.00808655
0.000426595
0.00041814
0.000404052
0.000384367
0.00035937
0.000329458
0.000295014
0.000256412
0.000214019
0.000168176
0.000119176
6.72488e-05
1.25426e-05
-4.4894e-05
-0.000105122
-0.000168323
-0.000234799
-0.000304976
-0.000379396
-0.000458715
-0.000543686
-0.000635154
-0.000734035
-0.000841306
-0.000957984
-0.00108511
-0.00122373
-0.00137486
-0.0015395
-0.00171855
-0.00191284
-0.00212306
-0.00234975
-0.00259325
-0.0028537
-0.003131
-0.00342477
-0.00373436
-0.00405881
-0.00439688
-0.00474699
-0.00510732
-0.00547571
-0.0058498
-0.00622697
-0.00660438
-0.00697906
-0.00734789
-0.00770768
-0.0080552
-0.00838721
-0.00870052
-0.00899202
-0.00925875
-0.00949791
-0.0097069
-0.00988338
-0.0100253
-0.0101309
-0.0101988
-0.0102279
-0.0102177
-0.0101678
-0.0100786
-0.00995073
-0.00978529
-0.00958389
-0.00934858
-0.0090819
-0.00878681
-0.0084667
-0.00812537
-0.00776699
-0.00739605
-0.00701732
-0.00663579
-0.0062566
-0.00588496
-0.00552607
-0.00518502
-0.00486673
-0.00457578
-0.0043164
-0.00409228
-0.00390656
-0.00376169
-0.00365939
-0.00360057
-0.00358535
-0.00361298
-0.00368189
-0.00378974
-0.00393346
-0.00410933
-0.00431314
-0.00454024
-0.00478575
-0.00504465
-0.00531193
-0.00558276
-0.00585257
-0.0061172
-0.00637294
-0.00661664
-0.00684573
-0.00705822
-0.00725275
-0.00742849
-0.00758519
-0.00772302
-0.00784261
-0.0079449
-0.00803109
-0.0081026
-0.00816093
-0.00820764
-0.00824424
-0.0082722
-0.00829281
-0.00830717
-0.00831615
-0.00832034
-0.00832002
-0.00831512
-0.00830519
-0.00828971
-0.00826812
-0.00823567
-0.00818427
0.000518977
0.000502587
0.000482861
0.000458774
0.000430019
0.000396955
0.000359894
0.000319104
0.000274853
0.000227391
0.000176928
0.000123608
6.74983e-05
8.55872e-06
-5.3366e-05
-0.000118557
-0.000187425
-0.00026052
-0.000338516
-0.000422214
-0.000512523
-0.000610452
-0.00071709
-0.000833591
-0.000961152
-0.00110099
-0.00125431
-0.00142231
-0.00160611
-0.00180674
-0.0020251
-0.00226195
-0.00251784
-0.0027931
-0.00308781
-0.00340176
-0.00373444
-0.00408502
-0.00445235
-0.00483493
-0.00523098
-0.00563836
-0.0060547
-0.00647733
-0.00690336
-0.00732972
-0.00775316
-0.00817036
-0.00857788
-0.00897229
-0.00935016
-0.00970814
-0.0100429
-0.0103515
-0.0106307
-0.0108781
-0.0110909
-0.0112672
-0.011405
-0.0115027
-0.0115593
-0.0115739
-0.0115462
-0.0114763
-0.0113647
-0.0112123
-0.0110207
-0.0107916
-0.0105275
-0.0102311
-0.00990569
-0.00955495
-0.00918289
-0.00879392
-0.00839275
-0.00798434
-0.00757387
-0.00716664
-0.00676797
-0.00638319
-0.00601747
-0.00567576
-0.0053627
-0.00508247
-0.00483874
-0.00463456
-0.00447227
-0.00435343
-0.0042788
-0.00424827
-0.00426087
-0.00431482
-0.00440752
-0.00453568
-0.00469538
-0.00488222
-0.00509141
-0.00531797
-0.00555683
-0.00580301
-0.00605171
-0.00629851
-0.00653938
-0.00677084
-0.00698997
-0.00719443
-0.00738252
-0.00755312
-0.00770568
-0.00784015
-0.00795693
-0.0080568
-0.00814084
-0.00821036
-0.00826682
-0.00831174
-0.00834666
-0.00837303
-0.0083922
-0.00840531
-0.0084133
-0.00841682
-0.00841621
-0.00841147
-0.00840225
-0.00838808
-0.00836845
-0.00833913
-0.00829286
0.000617208
0.000592127
0.000566313
0.000537546
0.000504838
0.000468484
0.000428691
0.00038559
0.000339319
0.000290014
0.000237779
0.000182657
0.000124608
6.34892e-05
-9.62792e-07
-6.91484e-05
-0.000141608
-0.00021903
-0.000302243
-0.00039221
-0.000490016
-0.000596853
-0.000713999
-0.0008428
-0.000984642
-0.00114092
-0.00131303
-0.0015023
-0.00170999
-0.00193722
-0.00218497
-0.00245401
-0.00274488
-0.00305786
-0.00339291
-0.00374969
-0.00412749
-0.00452529
-0.00494168
-0.00537492
-0.00582292
-0.0062833
-0.00675336
-0.00723016
-0.00771055
-0.00819118
-0.00866856
-0.00913911
-0.00959921
-0.0100452
-0.0104735
-0.0108805
-0.0112628
-0.0116172
-0.0119405
-0.0122299
-0.0124828
-0.0126969
-0.0128702
-0.013001
-0.013088
-0.0131303
-0.0131275
-0.0130794
-0.0129863
-0.0128492
-0.0126692
-0.0124481
-0.012188
-0.0118915
-0.0115616
-0.0112019
-0.0108162
-0.0104089
-0.00998438
-0.00954767
-0.0091039
-0.0086584
-0.0082166
-0.00778398
-0.00736598
-0.00696788
-0.00659471
-0.00625116
-0.00594146
-0.0056693
-0.00543769
-0.00524895
-0.00510456
-0.00500518
-0.00495056
-0.00493962
-0.00497039
-0.00504012
-0.00514535
-0.00528202
-0.00544559
-0.00563118
-0.00583374
-0.00604817
-0.00626952
-0.00649307
-0.00671449
-0.00692991
-0.00713603
-0.00733013
-0.00751008
-0.00767441
-0.0078222
-0.0079531
-0.00806722
-0.00816512
-0.00824768
-0.00831607
-0.00837164
-0.00841582
-0.00845012
-0.00847598
-0.00849475
-0.00850761
-0.00851552
-0.0085192
-0.00851905
-0.00851514
-0.00850719
-0.00849482
-0.00847757
-0.00845173
-0.00841093
0.000720124
0.00068563
0.000653321
0.00061964
0.000582829
0.000543081
0.000500463
0.000454932
0.000406471
0.000355073
0.000300711
0.000243304
0.000182692
0.000118607
5.06582e-05
-2.169e-05
-9.91288e-05
-0.000182506
-0.000272822
-0.000371223
-0.00047899
-0.000597512
-0.000728273
-0.00087282
-0.00103274
-0.0012096
-0.00140498
-0.00162033
-0.00185704
-0.00211629
-0.00239909
-0.00270621
-0.00303813
-0.00339501
-0.00377668
-0.00418261
-0.00461187
-0.00506318
-0.00553485
-0.00602486
-0.00653082
-0.00705004
-0.00757952
-0.00811603
-0.00865614
-0.00919622
-0.00973254
-0.0102613
-0.0107786
-0.0112806
-0.0117636
-0.0122237
-0.0126575
-0.0130615
-0.0134325
-0.0137675
-0.0140637
-0.0143188
-0.0145306
-0.0146974
-0.0148176
-0.0148904
-0.0149149
-0.014891
-0.0148189
-0.0146992
-0.0145329
-0.0143216
-0.0140672
-0.013772
-0.013439
-0.0130714
-0.0126728
-0.0122474
-0.0117995
-0.0113339
-0.0108558
-0.0103703
-0.00988299
-0.00939947
-0.00892533
-0.00846616
-0.00802735
-0.00761408
-0.00723114
-0.00688287
-0.00657302
-0.00630469
-0.00608022
-0.0059011
-0.00576798
-0.00568059
-0.00563776
-0.00563744
-0.0056768
-0.00575228
-0.00585969
-0.00599443
-0.00615153
-0.00632589
-0.00651242
-0.00670617
-0.00690248
-0.0070971
-0.00728631
-0.00746692
-0.00763636
-0.00779271
-0.00793462
-0.00806134
-0.00817265
-0.00826879
-0.00835039
-0.00841838
-0.00847395
-0.00851843
-0.0085532
-0.00857966
-0.00859914
-0.00861281
-0.00862166
-0.00862642
-0.00862755
-0.00862517
-0.0086191
-0.00860901
-0.00859451
-0.00857239
-0.0085372
0.000826359
0.000781773
0.000742603
0.000703818
0.000662791
0.000619571
0.000574051
0.000525972
0.000475128
0.000421347
0.000364442
0.000304188
0.000240283
0.000172321
9.97595e-05
2.1905e-05
-6.21009e-05
-0.000153286
-0.000252845
-0.000362127
-0.000482621
-0.000615934
-0.000763763
-0.000927864
-0.00111002
-0.00131199
-0.00153548
-0.0017821
-0.00205328
-0.00235027
-0.00267407
-0.00302539
-0.0034046
-0.00381173
-0.00424641
-0.00470786
-0.00519491
-0.00570597
-0.00623908
-0.00679186
-0.00736163
-0.00794535
-0.00853974
-0.00914126
-0.00974617
-0.0103506
-0.0109505
-0.0115419
-0.0121207
-0.0126828
-0.0132243
-0.0137413
-0.01423
-0.0146869
-0.0151087
-0.0154922
-0.0158346
-0.0161334
-0.0163863
-0.0165914
-0.0167473
-0.0168527
-0.0169068
-0.0169094
-0.0168603
-0.0167601
-0.0166095
-0.01641
-0.0161632
-0.0158713
-0.0155368
-0.0151628
-0.0147527
-0.0143103
-0.0138398
-0.0133458
-0.0128333
-0.0123073
-0.0117734
-0.0112372
-0.0107044
-0.0101808
-0.00967219
-0.00918404
-0.00872174
-0.00829026
-0.00789411
-0.00753722
-0.00722281
-0.00695336
-0.00673048
-0.00655488
-0.00642635
-0.00634373
-0.00630499
-0.00630723
-0.00634686
-0.00641963
-0.00652086
-0.00664554
-0.00678852
-0.00694468
-0.00710907
-0.00727706
-0.00744445
-0.00760759
-0.00776338
-0.00790937
-0.00804372
-0.0081652
-0.00827316
-0.00836744
-0.00844833
-0.00851649
-0.00857286
-0.00861856
-0.00865487
-0.00868305
-0.00870436
-0.00871995
-0.00873077
-0.00873758
-0.00874085
-0.00874075
-0.00873716
-0.00872982
-0.00871839
-0.00870016
-0.0086705
0.000934329
0.000879017
0.000832665
0.000788627
0.000743302
0.000696556
0.00064806
0.000597303
0.000543855
0.000487344
0.000427409
0.000363654
0.000295618
0.00022273
0.00014428
5.93945e-05
-3.29731e-05
-0.000134052
-0.000245249
-0.000368134
-0.000504421
-0.000655945
-0.000824623
-0.00101242
-0.00122132
-0.00145324
-0.00171002
-0.00199335
-0.00230474
-0.00264542
-0.00301634
-0.00341812
-0.00385098
-0.00431473
-0.00480877
-0.00533206
-0.00588312
-0.00646005
-0.00706052
-0.00768184
-0.00832098
-0.00897458
-0.00963901
-0.0103104
-0.0109848
-0.011658
-0.0123257
-0.0129836
-0.0136276
-0.0142532
-0.0148564
-0.0154332
-0.0159796
-0.016492
-0.0169669
-0.0174011
-0.0177918
-0.0181362
-0.0184321
-0.0186775
-0.0188707
-0.0190106
-0.0190961
-0.0191269
-0.0191027
-0.0190238
-0.018891
-0.0187052
-0.0184681
-0.0181814
-0.0178475
-0.0174692
-0.0170495
-0.0165921
-0.0161007
-0.0155799
-0.0150342
-0.0144686
-0.0138884
-0.0132993
-0.012707
-0.0121173
-0.0115362
-0.0109697
-0.0104236
-0.00990333
-0.00941421
-0.00896099
-0.00854784
-0.00817824
-0.00785488
-0.0075796
-0.00735329
-0.00717585
-0.00704625
-0.0069625
-0.00692174
-0.00692037
-0.00695411
-0.00701821
-0.00710762
-0.00721711
-0.00734152
-0.00747586
-0.00761547
-0.00775616
-0.00789428
-0.00802677
-0.00815122