/*--------------------------------*- C++ -*----------------------------------*\
| =========                 |                                                 |
| \\      /  F ield         | OpenFOAM: The Open Source CFD Toolbox           |
|  \\    /   O peration     | Version:  2112                                  |
|   \\  /    A nd           | Website:  www.openfoam.com                      |
|    \\/     M anipulation  |                                                 |
\*---------------------------------------------------------------------------*/
FoamFile
{
    version     2.0;
    format      ascii;
    arch        "LSB;label=32;scalar=64";
    class       surfaceScalarField;
    location    "24";
    object      phi;
}
// * * * * * * * * * * * * * * * * * * * * * * * * * * * * * * * * * * * * * //

dimensions      [0 3 -1 0 0 0 0];

oriented        oriented;

internalField   nonuniform List<scalar> 
33024
(
-1.40021e-09
1.35004e-09
2.21872e-08
-2.35861e-08
7.07217e-08
-4.85346e-08
1.36514e-07
-6.57901e-08
2.12278e-07
-7.57658e-08
2.921e-07
-7.98213e-08
3.71404e-07
-7.93041e-08
4.46788e-07
-7.53847e-08
5.15798e-07
-6.90093e-08
5.76725e-07
-6.09266e-08
6.28446e-07
-5.17216e-08
6.70291e-07
-4.18448e-08
7.01929e-07
-3.16378e-08
7.23279e-07
-2.13499e-08
7.34429e-07
-1.11499e-08
7.35571e-07
-1.14206e-09
7.26939e-07
8.63244e-09
7.0877e-07
1.81691e-08
6.81262e-07
2.75082e-08
6.44546e-07
3.6716e-08
5.98667e-07
4.58795e-08
5.43568e-07
5.50983e-08
4.7909e-07
6.44781e-08
4.04966e-07
7.4124e-08
3.20831e-07
8.41355e-08
2.2623e-07
9.46012e-08
1.20634e-07
1.05596e-07
3.45559e-09
1.17179e-07
-1.25935e-07
1.2939e-07
-2.68187e-07
1.42252e-07
-4.23955e-07
1.55769e-07
-5.93878e-07
1.69923e-07
-7.78558e-07
1.84681e-07
-9.78549e-07
1.9999e-07
-1.19433e-06
2.15783e-07
-1.4263e-06
2.31971e-07
-1.67475e-06
2.48452e-07
-1.93986e-06
2.65107e-07
-2.22166e-06
2.81801e-07
-2.52004e-06
2.98382e-07
-2.83473e-06
3.14685e-07
-3.16526e-06
3.30529e-07
-3.51098e-06
3.4572e-07
-3.87103e-06
3.60052e-07
-4.24433e-06
3.73306e-07
-4.62959e-06
3.85258e-07
-5.02527e-06
3.95676e-07
-5.42959e-06
4.04324e-07
-5.84056e-06
4.10965e-07
-6.25592e-06
4.15367e-07
-6.67322e-06
4.173e-07
-7.08977e-06
4.16548e-07
-7.50268e-06
4.12906e-07
-7.90886e-06
4.06187e-07
-8.30509e-06
3.96225e-07
-8.68797e-06
3.8288e-07
-9.05401e-06
3.6604e-07
-9.39963e-06
3.45626e-07
-9.72123e-06
3.21597e-07
-1.00152e-05
2.93948e-07
-1.02779e-05
2.6272e-07
-1.05059e-05
2.27996e-07
-1.06958e-05
1.8991e-07
-1.08444e-05
1.48644e-07
-1.09489e-05
1.04438e-07
-1.10065e-05
5.75814e-08
-1.1015e-05
8.52764e-09
-1.09722e-05
-4.28322e-08
-1.08767e-05
-9.54183e-08
-1.07277e-05
-1.49081e-07
-1.05244e-05
-2.03253e-07
-1.0267e-05
-2.57368e-07
-9.95621e-06
-3.10835e-07
-9.59317e-06
-3.6304e-07
-9.17982e-06
-4.13351e-07
-8.71868e-06
-4.61135e-07
-8.21292e-06
-5.05763e-07
-7.6663e-06
-5.46625e-07
-7.08316e-06
-5.83138e-07
-6.46839e-06
-6.14766e-07
-5.82737e-06
-6.41026e-07
-5.16586e-06
-6.61506e-07
-4.48999e-06
-6.75872e-07
-3.80611e-06
-6.83884e-07
-3.12071e-06
-6.85399e-07
-2.44032e-06
-6.80383e-07
-1.77141e-06
-6.68911e-07
-1.12024e-06
-6.51173e-07
-4.92776e-07
-6.27465e-07
1.0542e-07
-5.98197e-07
6.69301e-07
-5.63881e-07
1.19438e-06
-5.25076e-07
1.67684e-06
-4.82465e-07
2.1136e-06
-4.36762e-07
2.50233e-06
-3.88721e-07
2.84144e-06
-3.39118e-07
3.13017e-06
-2.88727e-07
3.36848e-06
-2.38304e-07
3.55704e-06
-1.88568e-07
3.69723e-06
-1.40185e-07
3.79098e-06
-9.3752e-08
3.84077e-06
-4.97899e-08
3.8495e-06
-8.73271e-09
3.82042e-06
2.90795e-08
3.75703e-06
6.33967e-08
3.66296e-06
9.40647e-08
3.54195e-06
1.21017e-07
3.39768e-06
1.4427e-07
3.23376e-06
1.63916e-07
3.05365e-06
1.8011e-07
2.86059e-06
1.93061e-07
2.65757e-06
2.03016e-07
2.44732e-06
2.10249e-07
2.23229e-06
2.15038e-07
2.01464e-06
2.17652e-07
1.79631e-06
2.18324e-07
1.57908e-06
2.17231e-07
1.36462e-06
2.14462e-07
1.15463e-06
2.09989e-07
9.50996e-07
2.03633e-07
7.55969e-07
1.95027e-07
5.72386e-07
1.83583e-07
4.03918e-07
1.68469e-07
2.55296e-07
1.48622e-07
1.32435e-07
1.22861e-07
4.21579e-08
9.02767e-08
-9.06293e-09
5.12207e-08
-1.91398e-08
1.00768e-08
-1.91397e-08
2.3538e-08
-2.21866e-08
1.01506e-07
-1.01557e-07
2.26034e-07
-1.73062e-07
3.84601e-07
-2.24361e-07
5.639e-07
-2.55063e-07
7.51792e-07
-2.67712e-07
9.38053e-07
-2.65565e-07
1.1145e-06
-2.51829e-07
1.27483e-06
-2.29337e-07
1.41437e-06
-2.00469e-07
1.52981e-06
-1.67165e-07
1.61894e-06
-1.30975e-07
1.6804e-06
-9.30992e-08
1.71348e-06
-5.4431e-08
1.71793e-06
-1.55955e-08
1.69379e-06
2.30009e-08
1.64125e-06
6.11684e-08
1.56056e-06
9.8862e-08
1.45189e-06
1.36177e-07
1.3153e-06
1.7331e-07
1.15065e-06
2.1053e-07
9.57591e-07
2.48153e-07
7.35551e-07
2.86517e-07
4.83715e-07
3.2596e-07
2.01053e-07
3.66798e-07
-1.13656e-07
4.0931e-07
-4.61788e-07
4.53728e-07
-8.44831e-07
5.00221e-07
-1.26434e-06
5.48897e-07
-1.72187e-06
5.99789e-07
-2.21897e-06
6.52862e-07
-2.75705e-06
7.08011e-07
-3.33743e-06
7.65056e-07
-3.96119e-06
8.23754e-07
-4.6292e-06
8.83793e-07
-5.34203e-06
9.44797e-07
-6.09991e-06
1.00633e-06
-6.90269e-06
1.06789e-06
-7.74982e-06
1.12893e-06
-8.64028e-06
1.18884e-06
-9.57254e-06
1.24695e-06
-1.05446e-05
1.30256e-06
-1.15538e-05
1.35494e-06
-1.2597e-05
1.40329e-06
-1.36705e-05
1.4468e-06
-1.47699e-05
1.48467e-06
-1.58903e-05
1.51605e-06
-1.70261e-05
1.54011e-06
-1.81712e-05
1.55606e-06
-1.93189e-05
1.56309e-06
-2.04621e-05
1.56047e-06
-2.1593e-05
1.54752e-06
-2.27037e-05
1.52359e-06
-2.37857e-05
1.48816e-06
-2.48303e-05
1.44077e-06
-2.58284e-05
1.38106e-06
-2.67712e-05
1.30881e-06
-2.76495e-05
1.2239e-06
-2.84542e-05
1.12636e-06
-2.91766e-05
1.01634e-06
-2.98081e-05
8.94167e-07
-3.03404e-05
7.603e-07
-3.07658e-05
6.15363e-07
-3.10773e-05
4.60142e-07
-3.12685e-05
2.95606e-07
-3.13338e-05
1.22903e-07
-3.12686e-05
-5.6699e-08
-3.10692e-05
-2.42272e-07
-3.0733e-05
-4.31608e-07
-3.02588e-05
-6.23282e-07
-2.96465e-05
-8.15507e-07
-2.88975e-05
-1.00639e-06
-2.80144e-05
-1.19396e-06
-2.70012e-05
-1.3762e-06
-2.58635e-05
-1.55105e-06
-2.46082e-05
-1.71646e-06
-2.32435e-05
-1.87043e-06
-2.17791e-05
-2.01102e-06
-2.02259e-05
-2.13638e-06
-1.85958e-05
-2.24482e-06
-1.6902e-05
-2.33484e-06
-1.51584e-05
-2.40513e-06
-1.33796e-05
-2.45466e-06
-1.15808e-05
-2.48266e-06
-9.77756e-06
-2.48869e-06
-7.98532e-06
-2.47261e-06
-6.21957e-06
-2.43467e-06
-4.49533e-06
-2.37541e-06
-2.82702e-06
-2.29577e-06
-1.22822e-06
-2.197e-06
2.88549e-07
-2.08065e-06
1.71206e-06
-1.94859e-06
3.03248e-06
-1.80288e-06
4.24155e-06
-1.64583e-06
5.33271e-06
-1.47988e-06
6.30114e-06
-1.30755e-06
7.14382e-06
-1.1314e-06
7.85948e-06
-9.53961e-07
8.44858e-06
-7.77667e-07
8.91322e-06
-6.04824e-07
9.25701e-06
-4.37544e-07
9.48493e-06
-2.77712e-07
9.60315e-06
-1.26948e-07
9.61881e-06
1.34152e-08
9.53987e-06
1.42344e-07
9.37482e-06
2.59109e-07
9.13256e-06
3.63282e-07
8.82211e-06
4.5472e-07
8.45248e-06
5.33541e-07
8.0325e-06
6.00097e-07
7.57062e-06
6.54937e-07
7.07488e-06
6.98758e-07
6.55277e-06
7.32358e-07
6.01123e-06
7.56574e-07
5.45667e-06
7.72218e-07
4.89499e-06
7.80001e-07
4.33177e-06
7.80448e-07
3.77242e-06
7.7381e-07
3.22244e-06
7.59968e-07
2.68774e-06
7.3834e-07
2.17497e-06
7.07796e-07
1.69194e-06
6.66608e-07
1.24793e-06
6.12478e-07
8.53847e-07
5.42709e-07
5.21969e-07
4.54739e-07
2.64878e-07
3.47368e-07
9.30135e-08
2.23085e-07
1.04135e-08
9.26769e-08
-8.72621e-09
4.86354e-08
-7.0822e-08
1.73441e-07
-2.2636e-07
3.57069e-07
-3.56693e-07
5.82209e-07
-4.49501e-07
8.31785e-07
-5.04639e-07
1.09012e-06
-5.26046e-07
1.34363e-06
-5.19072e-07
1.58105e-06
-4.89253e-07
1.79341e-06
-4.41695e-07
1.97378e-06
-3.80838e-07
2.11703e-06
-3.10412e-07
2.2195e-06
-2.33452e-07
2.27875e-06
-1.52351e-07
2.29324e-06
-6.8921e-08
2.2621e-06
1.55446e-08
2.18491e-06
1.00197e-07
2.06148e-06
1.84593e-07
1.89174e-06
2.68601e-07
1.67556e-06
3.52364e-07
1.41264e-06
4.36229e-07
1.10248e-06
5.20693e-07
7.44281e-07
6.06347e-07
3.36974e-07
6.93825e-07
-1.20824e-07
7.83758e-07
-6.3076e-07
8.76735e-07
-1.19471e-06
9.73264e-07
-1.81474e-06
1.07375e-06
-2.49299e-06
1.17847e-06
-3.23166e-06
1.28757e-06
-4.03289e-06
1.40102e-06
-4.8987e-06
1.51867e-06
-5.83089e-06
1.6402e-06
-6.83096e-06
1.76513e-06
-7.90005e-06
1.89284e-06
-9.03884e-06
2.02258e-06
-1.02475e-05
2.15344e-06
-1.15256e-05
2.2844e-06
-1.2872e-05
2.4143e-06
-1.42849e-05
2.54187e-06
-1.57618e-05
2.66574e-06
-1.72993e-05
2.78444e-06
-1.88931e-05
2.89641e-06
-2.05383e-05
3.00005e-06
-2.22286e-05
3.09368e-06
-2.39574e-05
3.1756e-06
-2.57169e-05
3.24411e-06
-2.74983e-05
3.29751e-06
-2.92924e-05
3.33415e-06
-3.10888e-05
3.35246e-06
-3.28766e-05
3.35092e-06
-3.46443e-05
3.32816e-06
-3.63797e-05
3.28294e-06
-3.80703e-05
3.21419e-06
-3.97032e-05
3.12103e-06
-4.12652e-05
3.00279e-06
-4.27432e-05
2.85903e-06
-4.41239e-05
2.68955e-06
-4.53944e-05
2.49443e-06
-4.65421e-05
2.274e-06
-4.75546e-05
2.0289e-06
-4.84205e-05
1.76004e-06
-4.91288e-05
1.46863e-06
-4.96697e-05
1.15619e-06
-5.00341e-05
8.24532e-07
-5.02142e-05
4.75772e-07
-5.02039e-05
1.12604e-07
-4.99973e-05
-2.63294e-07
-4.95913e-05
-6.48267e-07
-4.89837e-05
-1.0392e-06
-4.81742e-05
-1.43286e-06
-4.7164e-05
-1.82571e-06
-4.59563e-05
-2.21409e-06
-4.4556e-05
-2.5942e-06
-4.297e-05
-2.96218e-06
-4.1207e-05
-3.31414e-06
-3.92772e-05
-3.64623e-06
-3.7193e-05
-3.95468e-06
-3.49681e-05
-4.23586e-06
-3.26181e-05
-4.48637e-06
-3.01599e-05
-4.70306e-06
-2.76116e-05
-4.88313e-06
-2.49925e-05
-5.02418e-06
-2.23229e-05
-5.12425e-06
-1.96237e-05
-5.18192e-06
-1.69161e-05
-5.19631e-06
-1.42215e-05
-5.16717e-06
-1.15613e-05
-5.09484e-06
-8.9564e-06
-4.98033e-06
-6.42689e-06
-4.82528e-06
-3.99195e-06
-4.63194e-06
-1.66943e-06
-4.40317e-06
5.24346e-07
-4.14237e-06
2.57489e-06
-3.85342e-06
4.46965e-06
-3.5406e-06
6.19828e-06
-3.20851e-06
7.75269e-06
-2.86196e-06
9.12717e-06
-2.50589e-06
1.03184e-05
-2.1452e-06
1.13255e-05
-1.78473e-06
1.21497e-05
-1.42907e-06
1.27947e-05
-1.08252e-06
1.3266e-05
-7.48998e-07
1.3571e-05
-4.31932e-07
1.37186e-05
-1.34245e-07
1.37193e-05
1.41699e-07
1.35842e-05
3.94131e-07
1.33257e-05
6.21846e-07
1.29562e-05
8.24217e-07
1.24886e-05
1.00114e-06
1.19357e-05
1.15301e-06
1.131e-05
1.2806e-06
1.06237e-05
1.38505e-06
9.88838e-06
1.4677e-06
9.11494e-06
1.53002e-06
8.31372e-06
1.57344e-06
7.49446e-06
1.59925e-06
6.66651e-06
1.6084e-06
5.839e-06
1.60132e-06
5.02116e-06
1.57781e-06
4.22271e-06
1.53679e-06
3.45421e-06
1.47629e-06
2.72749e-06
1.39333e-06
2.0559e-06
1.28407e-06
1.45435e-06
1.14426e-06
9.38849e-07
9.70239e-07
5.2534e-07
7.60876e-07
2.27463e-07
5.20963e-07
5.30576e-08
2.67082e-07
4.43315e-08
6.62722e-08
-1.37094e-07
2.25772e-07
-3.85862e-07
4.51573e-07
-5.82492e-07
7.21164e-07
-7.19092e-07
1.01424e-06
-7.97715e-07
1.31269e-06
-8.245e-07
1.60084e-06
-8.0722e-07
1.8655e-06
-7.53913e-07
2.09592e-06
-6.72116e-07
2.2836e-06
-5.68515e-07
2.42201e-06
-4.48818e-07
2.50629e-06
-3.17738e-07
2.53298e-06
-1.79038e-07
2.49966e-06
-3.56022e-08
2.40472e-06
1.1048e-07
2.2471e-06
2.57826e-07
2.02602e-06
4.05665e-07
1.74088e-06
5.53744e-07
1.39101e-06
7.02233e-07
9.75614e-07
8.51628e-07
4.93642e-07
1.00266e-06
-5.62348e-08
1.15622e-06
-6.75662e-07
1.31325e-06
-1.36659e-06
1.47468e-06
-2.13123e-06
1.64138e-06
-2.97202e-06
1.81405e-06
-3.89152e-06
1.99325e-06
-4.89235e-06
2.17929e-06
-5.97704e-06
2.37227e-06
-7.14801e-06
2.57199e-06
-8.40737e-06
2.77803e-06
-9.75686e-06
2.98969e-06
-1.11977e-05
3.20599e-06
-1.27306e-05
3.42574e-06
-1.43555e-05
3.64747e-06
-1.60716e-05
3.8695e-06
-1.78771e-05
4.08993e-06
-1.97695e-05
4.30667e-06
-2.1745e-05
4.51743e-06
-2.37991e-05
4.71977e-06
-2.59258e-05
4.91114e-06
-2.81182e-05
5.08885e-06
-3.03683e-05
5.25014e-06
-3.26668e-05
5.39222e-06
-3.50035e-05
5.51229e-06
-3.7367e-05
5.60759e-06
-3.97449e-05
5.67541e-06
-4.2124e-05
5.71319e-06
-4.449e-05
5.71851e-06
-4.68283e-05
5.68917e-06
-4.91233e-05
5.6232e-06
-5.13593e-05
5.51889e-06
-5.352e-05
5.37489e-06
-5.55891e-05
5.19015e-06
-5.75503e-05
4.96402e-06
-5.93875e-05
4.69621e-06
-6.10848e-05
4.38688e-06
-6.2627e-05
4.03659e-06
-6.39993e-05
3.64635e-06
-6.5188e-05
3.21758e-06
-6.61802e-05
2.75219e-06
-6.6964e-05
2.25248e-06
-6.7529e-05
1.72121e-06
-6.7866e-05
1.16155e-06
-6.79673e-05
5.77012e-07
-6.78274e-05
-2.72472e-08
-6.74407e-05
-6.50064e-07
-6.68053e-05
-1.2836e-06
-6.59205e-05
-1.92407e-06
-6.47872e-05
-2.56614e-06
-6.34085e-05
-3.20435e-06
-6.17896e-05
-3.83302e-06
-5.99374e-05
-4.44637e-06
-5.78611e-05
-5.03853e-06
-5.55716e-05
-5.60364e-06
-5.30819e-05
-6.13592e-06
-5.04069e-05
-6.62971e-06
-4.75631e-05
-7.07959e-06
-4.4569e-05
-7.48047e-06
-4.14444e-05
-7.82765e-06
-3.82106e-05
-8.11694e-06
-3.48901e-05
-8.3447e-06
-3.15064e-05
-8.508e-06
-2.80837e-05
-8.60463e-06
-2.46468e-05
-8.63321e-06
-2.12207e-05
-8.59324e-06
-1.78304e-05
-8.48512e-06
-1.45005e-05
-8.3102e-06
-1.1255e-05
-8.07081e-06
-8.11677e-06
-7.77018e-06
-5.10747e-06
-7.41246e-06
-2.2472e-06
-7.00264e-06
4.45842e-07
-6.54647e-06
2.95559e-06
-6.05034e-06
5.26824e-06
-5.52116e-06
7.37258e-06
-4.96631e-06
9.26001e-06
-4.39331e-06
1.09246e-05
-3.80983e-06
1.23633e-05
-3.22343e-06
1.35757e-05
-2.64146e-06
1.45641e-05
-2.07085e-06
1.53331e-05
-1.51802e-06
1.58899e-05
-9.88746e-07
1.62437e-05
-4.88033e-07
1.64055e-05
-2.00805e-08
1.63878e-05
4.11805e-07
1.62044e-05
8.05193e-07
1.58701e-05
1.15855e-06
1.54001e-05
1.4712e-06
1.48098e-05
1.74324e-06
1.4115e-05
1.97544e-06
1.33309e-05
2.16917e-06
1.24724e-05
2.32618e-06
1.15539e-05
2.44846e-06
1.05893e-05
2.53804e-06
9.59185e-06
2.59673e-06
8.57434e-06
2.62591e-06
7.54945e-06
2.62622e-06
6.52988e-06
2.59737e-06
5.52878e-06
2.5379e-06
4.56008e-06
2.445e-06
3.63885e-06
2.31455e-06
2.78153e-06
2.14138e-06
2.00594e-06
1.91985e-06
1.33093e-06
1.64526e-06
7.75587e-07
1.31622e-06
3.5811e-07
9.3844e-07
9.46001e-08
5.30592e-07
1.38932e-07
7.68407e-08
-2.13937e-07
2.57908e-07
-5.66928e-07
5.0877e-07
-8.33354e-07
8.02203e-07
-1.01253e-06
1.11502e-06
-1.11053e-06
1.42723e-06
-1.13671e-06
1.72172e-06
-1.10171e-06
1.9841e-06
-1.01629e-06
2.20248e-06
-8.90496e-07
2.36729e-06
-7.33326e-07
2.47099e-06
-5.5252e-07
2.50778e-06
-3.54527e-07
2.47329e-06
-1.44541e-07
2.36426e-06
7.34226e-08
2.17831e-06
2.9643e-07
1.91362e-06
5.22514e-07
1.56874e-06
7.50552e-07
1.14234e-06
9.80135e-07
6.33136e-07
1.21144e-06
3.96573e-08
1.44511e-06
-6.39764e-07
1.68209e-06
-1.40707e-06
1.92353e-06
-2.2645e-06
2.17068e-06
-3.21455e-06
2.42474e-06
-4.25994e-06
2.68677e-06
-5.40353e-06
2.95764e-06
-6.6482e-06
3.23793e-06
-7.9968e-06
3.52789e-06
-9.45194e-06
3.82741e-06
-1.10159e-05
4.13598e-06
-1.26906e-05
4.45271e-06
-1.44772e-05
4.77628e-06
-1.63762e-05
5.10502e-06
-1.83873e-05
5.43686e-06
-2.05093e-05
5.76938e-06
-2.27396e-05
6.09983e-06
-2.50748e-05
6.42516e-06
-2.75102e-05
6.74204e-06
-3.00397e-05
7.0469e-06
-3.26559e-05
7.33599e-06
-3.53501e-05
7.60539e-06
-3.81123e-05
7.85107e-06
-4.09312e-05
8.06898e-06
-4.3794e-05
8.25503e-06
-4.66869e-05
8.40523e-06
-4.9595e-05
8.51571e-06
-5.25024e-05
8.58277e-06
-5.53922e-05
8.60298e-06
-5.82469e-05
8.57321e-06
-6.10484e-05
8.49068e-06
-6.37782e-05
8.35303e-06
-6.64177e-05
8.15838e-06
-6.89481e-05
7.90531e-06
-7.13509e-05
7.59294e-06
-7.36079e-05
7.22096e-06
-7.57013e-05
6.78961e-06
-7.76141e-05
6.29972e-06
-7.93302e-05
5.75269e-06
-8.08344e-05
5.15054e-06
-8.21127e-05
4.49584e-06
-8.31522e-05
3.79174e-06
-8.39417e-05
3.04197e-06
-8.44712e-05
2.25075e-06
-8.47326e-05
1.42288e-06
-8.47193e-05
5.63689e-07
-8.44254e-05
-3.21068e-07
-8.38495e-05
-1.22598e-06
-8.29895e-05
-2.14365e-06
-8.18461e-05
-3.06741e-06
-8.04222e-05
-3.99011e-06
-7.87222e-05
-4.90431e-06
-7.67528e-05
-5.80237e-06
-7.45227e-05
-6.6765e-06
-7.20424e-05
-7.51888e-06
-6.93243e-05
-8.32168e-06
-6.63831e-05
-9.07719e-06
-6.32348e-05
-9.77791e-06
-5.98978e-05
-1.04166e-05
-5.63917e-05
-1.09866e-05
-5.27379e-05
-1.14814e-05
-4.89593e-05
-1.18956e-05
-4.50799e-05
-1.22241e-05
-4.11248e-05
-1.2463e-05
-3.71202e-05
-1.26093e-05
-3.30927e-05
-1.26608e-05
-2.90692e-05
-1.26167e-05
-2.50771e-05
-1.24773e-05
-2.11431e-05
-1.22442e-05
-1.72938e-05
-1.19202e-05
-1.35546e-05
-1.15094e-05
-9.95e-06
-1.1017e-05
-6.50296e-06
-1.04497e-05
-3.23464e-06
-9.81478e-06
-1.64181e-07
-9.1208e-06
2.69166e-06
-8.377e-06
5.31857e-06
-7.59321e-06
7.70499e-06
-6.77973e-06
9.84222e-06
-5.94706e-06
1.17245e-05
-5.10572e-06
1.3349e-05
-4.266e-06
1.4716e-05
-3.43777e-06
1.58283e-05
-2.63032e-06
1.66916e-05
-1.85212e-06
1.73143e-05
-1.11071e-06
1.77068e-05
-4.12539e-07
1.78815e-05
2.37066e-07
1.78527e-05
8.34008e-07
1.76359e-05
1.3754e-06
1.72475e-05
1.85953e-06
1.67049e-05
2.28583e-06
1.60257e-05
2.65472e-06
1.52274e-05
2.96744e-06
1.43276e-05
3.22592e-06
1.33436e-05
3.43246e-06
1.22922e-05
3.58948e-06
1.11897e-05
3.69925e-06
1.00521e-05
3.76348e-06
8.89531e-06
3.78303e-06
7.73512e-06
3.75756e-06
6.58776e-06
3.68526e-06
5.47007e-06
3.56268e-06
4.3999e-06
3.38473e-06
3.39625e-06
3.14503e-06
2.47946e-06
2.83665e-06
1.67109e-06
2.45363e-06
9.93823e-07
1.99348e-06
4.7148e-07
1.46078e-06
1.29741e-07
8.72332e-07
2.68672e-07
8.15735e-08
-2.95509e-07
2.7186e-07
-7.57214e-07
5.31418e-07
-1.09291e-06
8.29366e-07
-1.31047e-06
1.14017e-06
-1.42134e-06
1.44237e-06
-1.43891e-06
1.71786e-06
-1.37721e-06
1.95148e-06
-1.24991e-06
2.13065e-06
-1.06967e-06
2.24512e-06
-8.47795e-07
2.28664e-06
-5.94036e-07
2.24867e-06
-3.16555e-07
2.12608e-06
-2.19537e-08
1.91487e-06
2.84637e-07
1.61185e-06
5.99445e-07
1.21445e-06
9.19918e-07
7.20426e-07
1.24457e-06
1.27719e-07
1.57284e-06
-5.65729e-07
1.90489e-06
-1.36209e-06
2.24146e-06
-2.26371e-06
2.58371e-06
-3.27317e-06
2.933e-06
-4.3933e-06
3.2908e-06
-5.62706e-06
3.6585e-06
-6.97758e-06
4.03729e-06
-8.44799e-06
4.42804e-06
-1.00413e-05
4.83123e-06
-1.17603e-05
5.24688e-06
-1.36073e-05
5.67446e-06
-1.55843e-05
6.11294e-06
-1.76923e-05
6.56071e-06
-1.99316e-05
7.01562e-06
-2.23016e-05
7.47496e-06
-2.48003e-05
7.93556e-06
-2.74247e-05
8.39375e-06
-3.01702e-05
8.84542e-06
-3.30312e-05
9.28609e-06
-3.60001e-05
9.71095e-06
-3.90681e-05
1.01149e-05
-4.22248e-05
1.04927e-05
-4.54583e-05
1.08389e-05
-4.87552e-05
1.11479e-05
-5.21006e-05
1.14144e-05
-5.54787e-05
1.1633e-05
-5.8872e-05
1.17986e-05
-6.22624e-05
1.19061e-05
-6.56308e-05
1.19512e-05
-6.89574e-05
1.19296e-05
-7.22221e-05
1.18379e-05
-7.54043e-05
1.16729e-05
-7.84834e-05
1.14322e-05
-8.14391e-05
1.11141e-05
-8.42513e-05
1.07175e-05
-8.69004e-05
1.0242e-05
-8.93676e-05
9.68815e-06
-9.16349e-05
9.0569e-06
-9.36853e-05
8.35015e-06
-9.55031e-05
7.57047e-06
-9.70737e-05
6.72114e-06
-9.83839e-05
5.8061e-06
-9.94222e-05
4.82999e-06
-0.000100178
3.79804e-06
-0.000100644
2.71611e-06
-0.000100811
1.59066e-06
-0.000100676
4.28783e-07
-0.000100235
-7.62533e-07
-9.94859e-05
-1.97514e-06
-9.8429e-05
-3.20056e-06
-9.70662e-05
-4.43015e-06
-9.54014e-05
-5.65489e-06
-9.34403e-05
-6.86548e-06
-9.11902e-05
-8.05242e-06
-8.86607e-05
-9.20606e-06
-8.58628e-05
-1.03167e-05
-8.28098e-05
-1.13747e-05
-7.95166e-05
-1.23704e-05
-7.59998e-05
-1.32947e-05
-7.2278e-05
-1.41384e-05
-6.83713e-05
-1.48933e-05
-6.43015e-05
-1.55513e-05
-6.00917e-05
-1.61053e-05
-5.57666e-05
-1.65492e-05
-5.13519e-05
-1.68777e-05
-4.68745e-05
-1.70867e-05
-4.23619e-05
-1.71734e-05
-3.78421e-05
-1.71364e-05
-3.33437e-05
-1.69757e-05
-2.8895e-05
-1.66928e-05
-2.45242e-05
-1.6291e-05
-2.02587e-05
-1.57749e-05
-1.61251e-05
-1.51507e-05
-1.21486e-05
-1.44261e-05
-8.35304e-06
-1.36104e-05
-4.76012e-06
-1.27137e-05
-1.3895e-06
-1.17476e-05
1.74169e-06
-1.07244e-05
4.61894e-06
-9.65698e-06
7.23061e-06
-8.55873e-06
9.56806e-06
-7.44318e-06
1.16257e-05
-6.32368e-06
1.34012e-05
-5.21322e-06
1.4895e-05
-4.12416e-06
1.61109e-05
-3.06797e-06
1.70552e-05
-2.055e-06
1.7737e-05
-1.09439e-06
1.81679e-05
-1.9385e-07
1.83615e-05
6.40427e-07
1.83332e-05
1.40374e-06
1.80998e-05
2.09294e-06
1.76793e-05
2.70632e-06
1.70905e-05
3.24352e-06
1.63526e-05
3.70533e-06
1.54851e-05
4.09344e-06
1.45073e-05
4.4102e-06
1.34386e-05
4.6582e-06
1.22979e-05
4.83993e-06
1.1104e-05
4.95736e-06
9.87561e-06
5.01147e-06
8.63126e-06
5.0019e-06
7.38994e-06
4.92658e-06
6.17112e-06
4.7815e-06
4.99509e-06
4.56076e-06
3.88327e-06
4.25685e-06
2.85842e-06
3.86149e-06
1.945e-06
3.36705e-06
1.16962e-06
2.76886e-06
5.62028e-07
2.06838e-06
1.57095e-07
1.27726e-06
4.25767e-07
8.15915e-08
-3.771e-07
2.70103e-07
-9.45726e-07
5.23248e-07
-1.34606e-06
8.07726e-07
-1.59495e-06
1.09636e-06
-1.70998e-06
1.36669e-06
-1.70923e-06
1.59997e-06
-1.61049e-06
1.78063e-06
-1.43056e-06
1.89571e-06
-1.18475e-06
1.93455e-06
-8.86638e-07
1.88844e-06
-5.47926e-07
1.75029e-06
-1.78406e-07
1.51435e-06
2.13987e-07
1.17591e-06
6.23074e-07
7.31064e-07
1.04429e-06
1.76439e-07
1.47454e-06
-4.90985e-07
1.912e-06
-1.27407e-06
2.35593e-06
-2.17565e-06
2.80647e-06
-3.19862e-06
3.26444e-06
-4.34604e-06
3.73113e-06
-5.6211e-06
4.20806e-06
-7.02712e-06
4.69682e-06
-8.56747e-06
5.19886e-06
-1.02455e-05
5.71534e-06
-1.20645e-05
6.24698e-06
-1.40272e-05
6.79396e-06
-1.61361e-05
7.35582e-06
-1.83931e-05
7.93141e-06
-2.0799e-05
8.51888e-06
-2.33539e-05
9.11564e-06
-2.60567e-05
9.7184e-06
-2.89049e-05
1.03232e-05
-3.18947e-05
1.09253e-05
-3.50207e-05
1.15197e-05
-3.82758e-05
1.21006e-05
-4.16515e-05
1.26618e-05
-4.51374e-05
1.31969e-05
-4.87215e-05
1.3699e-05
-5.23901e-05
1.41612e-05
-5.61278e-05
1.45766e-05
-5.99181e-05
1.49382e-05
-6.37428e-05
1.52392e-05
-6.75828e-05
1.5473e-05
-7.14179e-05
1.56336e-05
-7.5227e-05
1.57152e-05
-7.89886e-05
1.57128e-05
-8.26809e-05
1.56219e-05
-8.62818e-05
1.54388e-05
-8.97696e-05
1.51606e-05
-9.31226e-05
1.47852e-05
-9.632e-05
1.43114e-05
-9.93413e-05
1.37388e-05
-0.000102167
1.3068e-05
-0.000104779
1.23003e-05
-0.000107161
1.14382e-05
-0.000109295
1.04846e-05
-0.000111168
9.44355e-06
-0.000112767
8.31972e-06
-0.000114079
7.11855e-06
-0.000115095
5.84617e-06
-0.000115807
4.5094e-06
-0.000116206
3.11563e-06
-0.000116288
1.67289e-06
-0.00011605
1.90127e-07
-0.000115488
-1.3248e-06
-0.000114601
-2.86128e-06
-0.000113392
-4.40962e-06
-0.000111863
-5.95951e-06
-0.000110018
-7.50027e-06
-0.000107862
-9.02092e-06
-0.000105404
-1.05103e-05
-0.000102653
-1.1957e-05
-9.96205e-05
-1.33496e-05
-9.63184e-05
-1.46768e-05
-9.27618e-05
-1.59271e-05
-8.89668e-05
-1.70897e-05
-8.49515e-05
-1.81537e-05
-8.07357e-05
-1.91091e-05
-7.63406e-05
-1.99463e-05
-7.17893e-05
-2.06567e-05
-6.7106e-05
-2.12325e-05
-6.23166e-05
-2.16671e-05
-5.74479e-05
-2.19554e-05
-5.25278e-05
-2.20935e-05
-4.7585e-05
-2.20792e-05
-4.26487e-05
-2.1912e-05
-3.77483e-05
-2.15932e-05
-3.29133e-05
-2.1126e-05
-2.81728e-05
-2.05154e-05
-2.3555e-05
-1.97684e-05
-1.90874e-05
-1.88937e-05
-1.47959e-05
-1.79018e-05
-1.07049e-05
-1.68048e-05
-6.83655e-06
-1.5616e-05
-3.21087e-06
-1.43501e-05
1.54743e-07
-1.30226e-05
3.24574e-06
-1.16497e-05
6.05047e-06
-1.02479e-05
8.56045e-06
-8.83366e-06
1.07704e-05
-7.42317e-06
1.26782e-05
-6.032e-06
1.42851e-05
-4.6748e-06
1.55951e-05
-3.36505e-06
1.66155e-05
-2.11481e-06
1.73562e-05
-9.3451e-07
1.78295e-05
1.67117e-07
1.805e-05
1.18322e-06
1.80342e-05
2.10873e-06
1.78001e-05
2.94041e-06
1.7367e-05
3.67667e-06
1.67549e-05
4.31743e-06
1.59845e-05
4.86379e-06
1.5077e-05
5.31776e-06
1.40534e-05
5.68181e-06
1.29349e-05
5.95843e-06
1.17426e-05
6.14964e-06
1.04976e-05
6.25648e-06
9.22098e-06
6.27851e-06
7.93416e-06
6.2134e-06
6.65899e-06
6.05668e-06
5.41808e-06
5.80166e-06
4.23518e-06
5.43975e-06
3.13557e-06
4.9611e-06
2.14669e-06
4.35593e-06
1.29913e-06
3.61643e-06
6.28205e-07
2.7393e-06
1.76647e-07
1.72882e-06
6.02415e-07
7.77752e-08
-4.54876e-07
2.54874e-07
-1.12282e-06
4.87859e-07
-1.57904e-06
7.42221e-07
-1.84931e-06
9.89938e-07
-1.95769e-06
1.20804e-06
-1.92733e-06
1.37759e-06
-1.78004e-06
1.48285e-06
-1.53582e-06
1.51078e-06
-1.21268e-06
1.45055e-06
-8.26406e-07
1.29316e-06
-3.90531e-07
1.03111e-06
8.36405e-08
6.58141e-07
5.86957e-07
1.68924e-07
1.11229e-06
-4.41154e-07
1.65437e-06
-1.17621e-06
2.2096e-06
-2.04007e-06
2.77585e-06
-3.03636e-06
3.35222e-06
-4.16871e-06
3.93881e-06
-5.44072e-06
4.53646e-06
-6.85611e-06
5.14651e-06
-8.41858e-06
5.77054e-06
-1.01319e-05
6.41011e-06
-1.19996e-05
7.0666e-06
-1.40252e-05
7.74092e-06
-1.62116e-05
8.43342e-06
-1.85614e-05
9.14373e-06
-2.10763e-05
9.87066e-06
-2.3757e-05
1.06122e-05
-2.66033e-05
1.13652e-05
-2.96137e-05
1.2126e-05
-3.27851e-05
1.28898e-05
-3.61129e-05
1.3651e-05
-3.95908e-05
1.44032e-05
-4.32107e-05
1.51396e-05
-4.69628e-05
1.58526e-05
-5.08352e-05
1.65342e-05
-5.48144e-05
1.71761e-05
-5.88851e-05
1.77697e-05
-6.30303e-05
1.83065e-05
-6.72316e-05
1.87779e-05
-7.14692e-05
1.91758e-05
-7.57221e-05
1.94921e-05
-7.99685e-05
1.97194e-05
-8.41858e-05
1.9851e-05
-8.83512e-05
1.98806e-05
-9.24416e-05
1.98032e-05
-9.64339e-05
1.96142e-05
-0.000100305
1.93103e-05
-0.000104034
1.88892e-05
-0.000107598
1.83494e-05
-0.000110977
1.76906e-05
-0.000114152
1.69137e-05
-0.000117104
1.60202e-05
-0.000119817
1.5013e-05
-0.000122275
1.38956e-05
-0.000124462
1.26725e-05
-0.000126368
1.13492e-05
-0.00012798
9.93172e-06
-0.000129289
8.42699e-06
-0.000130285
6.84259e-06
-0.000130962
5.18672e-06
-0.000131315
3.46822e-06
-0.000131338
1.69645e-06
-0.00013103
-1.18017e-07
-0.000130389
-1.96651e-06
-0.000129413
-3.8364e-06
-0.000128106
-5.71695e-06
-0.000126469
-7.59638e-06
-0.000124507
-9.46258e-06
-0.000122225
-1.13031e-05
-0.00011963
-1.31053e-05
-0.000116731
-1.48561e-05
-0.000113537
-1.65427e-05
-0.000110062
-1.8152e-05
-0.000106318
-1.96709e-05
-0.000102321
-2.10868e-05
-9.80877e-05
-2.23872e-05
-9.36365e-05
-2.35603e-05
-8.89882e-05
-2.45947e-05
-8.41647e-05
-2.54801e-05
-7.919e-05
-2.62072e-05
-7.40892e-05
-2.67679e-05
-6.88891e-05
-2.71555e-05
-6.36175e-05
-2.73651e-05
-5.83034e-05
-2.73932e-05
-5.29767e-05
-2.72387e-05
-4.76676e-05
-2.69023e-05
-4.24066e-05
-2.63869e-05
-3.72244e-05
-2.56977e-05
-3.21509e-05
-2.48419e-05
-2.72155e-05
-2.38291e-05
-2.24464e-05
-2.26709e-05
-1.78704e-05
-2.13808e-05
-1.35123e-05
-1.99741e-05
-9.39477e-06
-1.84676e-05
-5.53822e-06
-1.68791e-05
-1.96019e-06
-1.52278e-05
1.32472e-06
-1.35328e-05
4.30503e-06
-1.1814e-05
6.97249e-06
-1.00906e-05
9.32218e-06
-8.38169e-06
1.13525e-05
-6.70514e-06
1.30652e-05
-5.07773e-06
1.44651e-05
-3.51471e-06
1.55601e-05
-2.02955e-06
1.6361e-05
-6.33779e-07
1.68811e-05
6.63172e-07
1.71358e-05
1.85399e-06
1.71428e-05
2.93345e-06
1.69211e-05
3.89836e-06
1.64912e-05
4.74732e-06
1.58746e-05
5.48046e-06
1.50932e-05
6.09908e-06
1.41698e-05
6.60521e-06
1.31272e-05
7.00104e-06
1.19884e-05
7.28845e-06
1.07766e-05
7.46834e-06
9.51494e-06
7.54011e-06
8.22718e-06
7.50116e-06
6.93733e-06
7.34652e-06
5.67026e-06
7.06874e-06
4.45199e-06
6.65801e-06
3.31035e-06
6.10275e-06
2.27572e-06
5.39055e-06
1.38242e-06
4.50973e-06
6.70554e-07
3.45116e-06
1.88896e-07
2.21048e-06
7.9131e-07
7.0743e-08
-5.25618e-07
2.2792e-07
-1.28e-06
4.28248e-07
-1.77937e-06
6.371e-07
-2.05817e-06
8.26401e-07
-2.14699e-06
9.73274e-07
-2.07421e-06
1.05894e-06
-1.86571e-06
1.0679e-06
-1.54477e-06
9.87209e-07
-1.132e-06
8.0607e-07
-6.45267e-07
5.15349e-07
-9.98091e-08
1.07278e-07
4.91711e-07
-4.24843e-07
1.11908e-06
-1.08689e-06
1.77434e-06
-1.88413e-06
2.45162e-06
-2.82142e-06
3.14689e-06
-3.9033e-06
3.85774e-06
-5.13421e-06
4.58312e-06
-6.51845e-06
5.32306e-06
-8.06033e-06
6.07834e-06
-9.76409e-06
6.85027e-06
-1.16339e-05
7.64032e-06
-1.36736e-05
8.44988e-06
-1.58871e-05
9.28002e-06
-1.82773e-05
1.01312e-05
-2.0847e-05
1.10031e-05
-2.35978e-05
1.18945e-05
-2.65304e-05
1.28033e-05
-2.96442e-05
1.3726e-05
-3.29374e-05
1.46583e-05
-3.64061e-05
1.55948e-05
-4.00453e-05
1.65289e-05
-4.38476e-05
1.74533e-05
-4.7804e-05
1.83596e-05
-5.19033e-05
1.9239e-05
-5.61326e-05
2.00819e-05
-6.04768e-05
2.08784e-05
-6.4919e-05
2.16183e-05
-6.94409e-05
2.22916e-05
-7.40224e-05
2.28879e-05
-7.86421e-05
2.33977e-05
-8.32777e-05
2.38114e-05
-8.79059e-05
2.41203e-05
-9.25031e-05
2.43166e-05
-9.70453e-05
2.43931e-05
-0.000101508
2.43438e-05
-0.000105869
2.41636e-05
-0.000110103
2.38488e-05
-0.00011419
2.33966e-05
-0.000118106
2.28057e-05
-0.000121833
2.20758e-05
-0.00012535
2.12078e-05
-0.00012864
2.02037e-05
-0.000131686
1.90666e-05
-0.000134474
1.78006e-05
-0.000136989
1.64107e-05
-0.000139219
1.49029e-05
-0.000141154
1.32838e-05
-0.000142783
1.15611e-05
-0.000144099
9.74273e-06
-0.000145094
7.83765e-06
-0.000145763
5.85526e-06
-0.0001461
3.80553e-06
-0.000146103
1.69905e-06
-0.000145768
-4.52962e-07
-0.000145094
-2.63969e-06
-0.000144082
-4.84839e-06
-0.000142733
-7.06676e-06
-0.000141047
-9.28191e-06
-0.000139029
-1.14805e-05
-0.000136683
-1.36488e-05
-0.000134016
-1.57729e-05
-0.000131034
-1.78383e-05
-0.000127746
-1.98306e-05
-0.000124163
-2.17352e-05
-0.000120296
-2.35375e-05
-0.00011616
-2.5223e-05
-0.00011177
-2.67775e-05
-0.000107143
-2.81872e-05
-0.000102298
-2.94392e-05
-9.7257e-05
-3.05212e-05
-9.20422e-05
-3.14221e-05
-8.66782e-05
-3.21319e-05
-8.11913e-05
-3.26424e-05
-7.56092e-05
-3.29471e-05
-6.99611e-05
-3.30413e-05
-6.42772e-05
-3.29227e-05
-5.85885e-05
-3.2591e-05
-5.29268e-05
-3.20486e-05
-4.7324e-05
-3.13005e-05
-4.18118e-05
-3.03541e-05
-3.64217e-05
-2.92193e-05
-3.1184e-05
-2.79086e-05
-2.6128e-05
-2.64368e-05
-2.12813e-05
-2.48208e-05
-1.66695e-05
-2.30794e-05
-1.23157e-05
-2.12329e-05
-8.24054e-06
-1.93029e-05
-4.46172e-06
-1.73116e-05
-9.9378e-07
-1.52819e-05
2.15205e-06
-1.32365e-05
4.96794e-06
-1.11976e-05
7.44949e-06
-9.18669e-06
9.59578e-06
-7.22402e-06
1.14093e-05
-5.3282e-06
1.28957e-05
-3.51597e-06
1.40638e-05
-1.80194e-06
1.49255e-05
-1.98447e-07
1.54948e-05
1.28461e-06
1.57886e-05
2.63968e-06
1.58254e-05
3.86153e-06
1.56256e-05
4.9471e-06
1.5211e-05
5.89515e-06
1.46041e-05
6.70589e-06
1.38288e-05
7.38055e-06
1.29091e-05
7.92077e-06
1.18695e-05
8.32798e-06
1.07351e-05
8.60278e-06
9.53096e-06
8.74426e-06
8.28269e-06
8.74943e-06
7.01644e-06
8.61277e-06
5.75921e-06
8.32597e-06
4.53929e-06
7.87794e-06
3.38692e-06
7.25512e-06
2.33529e-06
6.44219e-06
1.42192e-06
5.4231e-06
6.90689e-07
4.18239e-06
1.94532e-07
2.70664e-06
9.85842e-07
6.08948e-08
-5.86513e-07
1.90497e-07
-1.4096e-06
3.46716e-07
-1.93559e-06
4.95764e-07
-2.20721e-06
6.10294e-07
-2.26152e-06
6.68106e-07
-2.13202e-06
6.51045e-07
-1.84865e-06
5.4411e-07
-1.43784e-06
3.34758e-07
-9.22643e-07
1.23632e-08
-3.22872e-07
-4.32186e-07
3.4474e-07
-1.00685e-06
1.06638e-06
-1.71869e-06
1.83091e-06
-2.57406e-06
2.62971e-06
-3.57885e-06
3.4564e-06
-4.73857e-06
4.30661e-06
-6.0585e-06
5.17767e-06
-7.54374e-06