/*--------------------------------*- C++ -*----------------------------------*\
| =========                 |                                                 |
| \\      /  F ield         | OpenFOAM: The Open Source CFD Toolbox           |
|  \\    /   O peration     | Version:  2112                                  |
|   \\  /    A nd           | Website:  www.openfoam.com                      |
|    \\/     M anipulation  |                                                 |
\*---------------------------------------------------------------------------*/
FoamFile
{
    version     2.0;
    format      ascii;
    arch        "LSB;label=32;scalar=64";
    class       volVectorField;
    location    "24";
    object      U;
}
// * * * * * * * * * * * * * * * * * * * * * * * * * * * * * * * * * * * * * //

dimensions      [0 1 -1 0 0 0 0];

internalField   nonuniform List<vector> 
16641
(
(-5.73858e-06 5.68658e-06 0)
(5.27764e-06 -6.41041e-06 0)
(5.44389e-05 -1.93766e-05 0)
(0.000130158 -2.80626e-05 0)
(0.00022309 -3.2864e-05 0)
(0.000324843 -3.47443e-05 0)
(0.000428602 -3.45331e-05 0)
(0.000529228 -3.28759e-05 0)
(0.000622987 -3.02486e-05 0)
(0.000707239 -2.7e-05 0)
(0.000780191 -2.3387e-05 0)
(0.000840721 -1.95978e-05 0)
(0.000888211 -1.57703e-05 0)
(0.000922419 -1.20009e-05 0)
(0.00094337 -8.35169e-06 0)
(0.000951263 -4.85724e-06 0)
(0.000946388 -1.52893e-06 0)
(0.000929059 1.64195e-06 0)
(0.000899569 4.67797e-06 0)
(0.000858135 7.61296e-06 0)
(0.000804878 1.04887e-05 0)
(0.000739791 1.33522e-05 0)
(0.000662737 1.6252e-05 0)
(0.000573439 1.92365e-05 0)
(0.000471487 2.23518e-05 0)
(0.000356349 2.56393e-05 0)
(0.000227387 2.9135e-05 0)
(8.38736e-05 3.28685e-05 0)
(-7.49801e-05 3.68627e-05 0)
(-0.000250005 4.11335e-05 0)
(-0.00044205 4.56898e-05 0)
(-0.000651952 5.05332e-05 0)
(-0.000880519 5.56593e-05 0)
(-0.0011285 6.10572e-05 0)
(-0.00139657 6.671e-05 0)
(-0.0016853 7.25943e-05 0)
(-0.00199514 7.86809e-05 0)
(-0.0023264 8.49345e-05 0)
(-0.00267921 9.13134e-05 0)
(-0.00305353 9.77694e-05 0)
(-0.00344912 0.000104248 0)
(-0.00386551 0.000110688 0)
(-0.00430197 0.000117021 0)
(-0.00475754 0.000123173 0)
(-0.00523097 0.000129064 0)
(-0.00572073 0.000134607 0)
(-0.00622498 0.000139711 0)
(-0.0067416 0.000144282 0)
(-0.00726815 0.00014822 0)
(-0.00780188 0.000151425 0)
(-0.00833976 0.000153797 0)
(-0.00887846 0.000155234 0)
(-0.00941438 0.000155638 0)
(-0.00994366 0.000154915 0)
(-0.0104622 0.000152977 0)
(-0.0109658 0.000149743 0)
(-0.0114498 0.00014514 0)
(-0.0119099 0.00013911 0)
(-0.0123413 0.000131607 0)
(-0.0127394 0.000122598 0)
(-0.0130994 0.000112071 0)
(-0.0134169 0.00010003 0)
(-0.0136873 8.64997e-05 0)
(-0.0139065 7.15296e-05 0)
(-0.0140705 5.51964e-05 0)
(-0.0141757 3.75952e-05 0)
(-0.0142189 1.88282e-05 0)
(-0.0141972 -8.42514e-07 0)
(-0.0141083 -2.14091e-05 0)
(-0.0139507 -4.26326e-05 0)
(-0.0137234 -6.4274e-05 0)
(-0.0134262 -8.60923e-05 0)
(-0.0130593 -0.000107831 0)
(-0.0126242 -0.000129219 0)
(-0.0121227 -0.000149973 0)
(-0.0115578 -0.000169805 0)
(-0.0109331 -0.000188427 0)
(-0.0102531 -0.000205554 0)
(-0.00952312 -0.000220917 0)
(-0.008749 -0.00023426 0)
(-0.00793743 -0.000245358 0)
(-0.00709561 -0.000254013 0)
(-0.00623124 -0.000260068 0)
(-0.00535238 -0.000263407 0)
(-0.00446736 -0.000263964 0)
(-0.0035846 -0.000261724 0)
(-0.0027125 -0.000256723 0)
(-0.00185931 -0.000249052 0)
(-0.00103294 -0.000238856 0)
(-0.000240853 -0.000226328 0)
(0.000510068 -0.000211717 0)
(0.00121364 -0.000195274 0)
(0.00186453 -0.000177325 0)
(0.00245827 -0.000158198 0)
(0.00299132 -0.000138238 0)
(0.00346119 -0.000117792 0)
(0.00386634 -9.72031e-05 0)
(0.00420626 -7.68007e-05 0)
(0.00448138 -5.68908e-05 0)
(0.00469303 -3.77499e-05 0)
(0.00484336 -1.9619e-05 0)
(0.00493524 -2.69972e-06 0)
(0.00497216 1.28487e-05 0)
(0.00495812 2.69096e-05 0)
(0.00489748 3.94106e-05 0)
(0.00479488 5.032e-05 0)
(0.0046551 5.96441e-05 0)
(0.00448294 6.74239e-05 0)
(0.00428313 7.37308e-05 0)
(0.00406024 7.86613e-05 0)
(0.00381861 8.23317e-05 0)
(0.00356227 8.48723e-05 0)
(0.00329491 8.64208e-05 0)
(0.00301988 8.71156e-05 0)
(0.00274013 8.70881e-05 0)
(0.00245831 8.64531e-05 0)
(0.00217681 8.52989e-05 0)
(0.00189779 8.36739e-05 0)
(0.00162342 8.15714e-05 0)
(0.00135596 7.89111e-05 0)
(0.00109802 7.55164e-05 0)
(0.000852841 7.10877e-05 0)
(0.000624562 6.51735e-05 0)
(0.000418586 5.71464e-05 0)
(0.000241852 4.62263e-05 0)
(0.00010274 3.16704e-05 0)
(1.0079e-05 1.3377e-05 0)
(-2.88344e-05 -6.35546e-06 0)
(-1.7056e-05 -1.70972e-05 0)
(6.35304e-06 -5.29907e-06 0)
(6.4188e-05 -6.42261e-05 0)
(0.000198559 -0.000120641 0)
(0.000385774 -0.000160776 0)
(0.000607538 -0.00018453 0)
(0.000847726 -0.000194423 0)
(0.00109186 -0.000193324 0)
(0.00132803 -0.000183877 0)
(0.00154695 -0.000168302 0)
(0.00174161 -0.000148397 0)
(0.00190695 -0.00012559 0)
(0.00203948 -0.000100995 0)
(0.00213696 -7.54631e-05 0)
(0.00219811 -4.96168e-05 0)
(0.00222238 -2.38844e-05 0)
(0.00220966 1.4709e-06 0)
(0.00216016 2.63224e-05 0)
(0.00207419 5.06632e-05 0)
(0.00195204 7.45779e-05 0)
(0.00179388 9.82226e-05 0)
(0.00159967 0.000121804 0)
(0.00136911 0.000145562 0)
(0.0011016 0.000169749 0)
(0.000796249 0.000194621 0)
(0.000451855 0.000220417 0)
(6.69592e-05 0.000247351 0)
(-0.000360126 0.000275602 0)
(-0.000831263 0.00030531 0)
(-0.00134843 0.000336571 0)
(-0.00191365 0.000369433 0)
(-0.00252894 0.000403897 0)
(-0.00319622 0.000439916 0)
(-0.00391728 0.000477396 0)
(-0.00469368 0.000516199 0)
(-0.00552669 0.000556144 0)
(-0.00641724 0.000597004 0)
(-0.00736588 0.000638513 0)
(-0.00837267 0.000680361 0)
(-0.00943717 0.000722202 0)
(-0.0105584 0.000763648 0)
(-0.0117346 0.000804274 0)
(-0.0129637 0.000843621 0)
(-0.0142426 0.000881196 0)
(-0.0155676 0.000916477 0)
(-0.0169342 0.000948918 0)
(-0.0183373 0.000977952 0)
(-0.0197708 0.001003 0)
(-0.0212279 0.00102348 0)
(-0.0227011 0.0010388 0)
(-0.0241822 0.00104839 0)
(-0.0256622 0.0010517 0)
(-0.0271315 0.00104819 0)
(-0.02858 0.00103737 0)
(-0.029997 0.0010188 0)
(-0.0313714 0.000992084 0)
(-0.0326917 0.000956903 0)
(-0.0339465 0.000913007 0)
(-0.0351238 0.00086023 0)
(-0.0362121 0.000798498 0)
(-0.0371998 0.000727835 0)
(-0.0380756 0.000648373 0)
(-0.0388286 0.000560354 0)
(-0.0394485 0.000464137 0)
(-0.0399258 0.000360203 0)
(-0.0402518 0.000249167 0)
(-0.0404187 0.000131733 0)
(-0.0404199 8.62109e-06 0)
(-0.04025 -0.000118826 0)
(-0.039905 -0.0002498 0)
(-0.0393824 -0.000383102 0)
(-0.0386813 -0.000517419 0)
(-0.0378026 -0.000651374 0)
(-0.0367487 -0.000783522 0)
(-0.0355241 -0.000912368 0)
(-0.0341348 -0.00103639 0)
(-0.0325889 -0.00115405 0)
(-0.0308963 -0.00126383 0)
(-0.0290684 -0.00136428 0)
(-0.0271185 -0.00145398 0)
(-0.0250614 -0.00153166 0)
(-0.0229134 -0.00159617 0)
(-0.0206919 -0.0016465 0)
(-0.0184155 -0.00168188 0)
(-0.0161033 -0.00170172 0)
(-0.0137753 -0.00170568 0)
(-0.0114515 -0.00169367 0)
(-0.00915195 -0.00166588 0)
(-0.00689643 -0.00162274 0)
(-0.00470397 -0.00156498 0)
(-0.00259269 -0.00149355 0)
(-0.000579481 -0.00140967 0)
(0.00132026 -0.00131472 0)
(0.0030929 -0.0012103 0)
(0.00472676 -0.00109813 0)
(0.00621224 -0.000980044 0)
(0.00754199 -0.000857909 0)
(0.00871093 -0.000733611 0)
(0.00971629 -0.000608993 0)
(0.0105576 -0.000485817 0)
(0.0112365 -0.000365724 0)
(0.0117567 -0.000250196 0)
(0.0121239 -0.000140533 0)
(0.0123452 -3.78292e-05 0)
(0.0124293 5.70428e-05 0)
(0.012386 0.000143436 0)
(0.012226 0.000220931 0)
(0.0119605 0.000289324 0)
(0.0116013 0.000348616 0)
(0.0111598 0.000398994 0)
(0.0106479 0.000440807 0)
(0.0100765 0.000474534 0)
(0.00945637 0.000500756 0)
(0.00879756 0.000520115 0)
(0.00810939 0.000533273 0)
(0.00740042 0.000540865 0)
(0.00667859 0.000543445 0)
(0.00595126 0.000541424 0)
(0.00522544 0.000535007 0)
(0.00450809 0.000524111 0)
(0.00380646 0.000508295 0)
(0.00312855 0.000486676 0)
(0.0024836 0.000457872 0)
(0.00188254 0.000419973 0)
(0.00133842 0.000370623 0)
(0.000866422 0.00030737 0)
(0.000483066 0.00022866 0)
(0.000203689 0.000135995 0)
(3.975e-05 3.89441e-05 0)
(-6.11814e-06 -2.88957e-05 0)
(1.9405e-05 -5.44396e-05 0)
(0.000120969 -0.000198654 0)
(0.000325415 -0.000324758 0)
(0.000595712 -0.000415596 0)
(0.000907092 -0.000470219 0)
(0.00123921 -0.000492566 0)
(0.00157325 -0.000488057 0)
(0.00189308 -0.000462223 0)
(0.00218569 -0.000420074 0)
(0.00244089 -0.000365894 0)
(0.00265102 -0.000303229 0)
(0.00281048 -0.000234931 0)
(0.00291545 -0.000163228 0)
(0.00296341 -8.97916e-05 0)
(0.00295289 -1.58012e-05 0)
(0.00288313 5.79869e-05 0)
(0.0027538 0.000131175 0)
(0.00256476 0.000203675 0)
(0.00231593 0.000275641 0)
(0.00200705 0.000347422 0)
(0.00163763 0.0004195 0)
(0.00120685 0.000492447 0)
(0.000713509 0.000566875 0)
(0.000156006 0.000643396 0)
(-0.000467617 0.000722583 0)
(-0.00115965 0.00080494 0)
(-0.00192265 0.000890878 0)
(-0.00275934 0.000980698 0)
(-0.00367258 0.00107457 0)
(-0.00466517 0.00117255 0)
(-0.00573982 0.00127454 0)
(-0.00689903 0.0013803 0)
(-0.00814494 0.00148949 0)
(-0.00947929 0.0016016 0)
(-0.0109033 0.00171603 0)
(-0.0124175 0.00183204 0)
(-0.0140217 0.00194875 0)
(-0.015715 0.00206522 0)
(-0.0174955 0.00218035 0)
(-0.0193605 0.00229298 0)
(-0.021306 0.00240183 0)
(-0.0233273 0.00250555 0)
(-0.0254183 0.00260271 0)
(-0.0275718 0.00269183 0)
(-0.0297796 0.00277138 0)
(-0.0320322 0.00283981 0)
(-0.034319 0.00289555 0)
(-0.0366284 0.00293708 0)
(-0.0389476 0.00296289 0)
(-0.0412631 0.00297153 0)
(-0.0435602 0.00296165 0)
(-0.0458237 0.00293202 0)
(-0.0480375 0.00288151 0)
(-0.0501853 0.00280919 0)
(-0.0522502 0.00271428 0)
(-0.0542151 0.0025962 0)
(-0.0560631 0.00245461 0)
(-0.0577772 0.0022894 0)
(-0.0593408 0.0021007 0)
(-0.0607378 0.00188891 0)
(-0.0619528 0.00165471 0)
(-0.0629714 0.00139907 0)
(-0.06378 0.00112323 0)
(-0.0643663 0.000828743 0)
(-0.0647197 0.000517438 0)
(-0.064831 0.000191424 0)
(-0.0646923 -0.000147119 0)
(-0.064298 -0.000495167 0)
(-0.0636444 -0.000849959 0)
(-0.0627301 -0.00120844 0)
(-0.0615555 -0.0015673 0)
(-0.0601235 -0.00192307 0)
(-0.0584395 -0.00227212 0)
(-0.0565109 -0.00261079 0)
(-0.0543477 -0.00293533 0)
(-0.0519622 -0.00324204 0)
(-0.0493691 -0.00352728 0)
(-0.0465851 -0.00378754 0)
(-0.0436293 -0.00401953 0)
(-0.0405225 -0.00422018 0)
(-0.0372875 -0.00438679 0)
(-0.0339485 -0.00451703 0)
(-0.030531 -0.00460902 0)
(-0.0270616 -0.00466138 0)
(-0.0235675 -0.00467331 0)
(-0.0200765 -0.00464456 0)
(-0.0166162 -0.00457552 0)
(-0.0132139 -0.00446719 0)
(-0.00989606 -0.00432122 0)
(-0.00668823 -0.00413982 0)
(-0.00361433 -0.00392582 0)
(-0.000696466 -0.00368251 0)
(0.0020454 -0.00341366 0)
(0.00459377 -0.00312341 0)
(0.00693383 -0.00281618 0)
(0.00905366 -0.00249656 0)
(0.0109443 -0.00216923 0)
(0.0126 -0.00183882 0)
(0.014018 -0.00150984 0)
(0.0151986 -0.00118655 0)
(0.0161449 -0.000872896 0)
(0.016863 -0.000572415 0)
(0.0173612 -0.000288182 0)
(0.0176503 -2.27529e-05 0)
(0.0177426 0.000221855 0)
(0.0176523 0.000444184 0)
(0.0173946 0.000643325 0)
(0.0169855 0.000818897 0)
(0.0164415 0.000971012 0)
(0.0157793 0.00110022 0)
(0.0150152 0.00120742 0)
(0.0141652 0.00129384 0)
(0.0132447 0.00136087 0)
(0.0122681 0.00141 0)
(0.0112492 0.00144265 0)
(0.010201 0.00146011 0)
(0.00913554 0.0014633 0)
(0.00806481 0.00145267 0)
(0.00700051 0.00142798 0)
(0.00595476 0.00138821 0)
(0.0049405 0.00133133 0)
(0.00397208 0.00125434 0)
(0.00306568 0.00115327 0)
(0.00223959 0.00102364 0)
(0.0015141 0.000861411 0)
(0.000910135 0.000665137 0)
(0.000446327 0.000439782 0)
(0.00014022 0.000204 0)
(1.44535e-05 1.11619e-05 0)
(2.83109e-05 -0.000130479 0)
(0.000161996 -0.000386574 0)
(0.000418035 -0.000595429 0)
(0.000745958 -0.000743077 0)
(0.00111503 -0.000830098 0)
(0.00150184 -0.000862663 0)
(0.00188478 -0.000849082 0)
(0.00224514 -0.000798038 0)
(0.00256752 -0.00071764 0)
(0.00283957 -0.000615024 0)
(0.00305171 -0.000496239 0)
(0.00319668 -0.000366242 0)
(0.0032692 -0.000228968 0)
(0.00326558 -8.74111e-05 0)
(0.0031833 5.62751e-05 0)
(0.00302071 0.000200677 0)
(0.00277669 0.000345023 0)
(0.0024504 0.00048908 0)
(0.00204107 0.000633053 0)
(0.00154779 0.000777491 0)
(0.000969379 0.000923189 0)
(0.000304327 0.0010711 0)
(-0.000449288 0.00122224 0)
(-0.00129379 0.00137763 0)
(-0.00223188 0.0015382 0)
(-0.00326659 0.00170478 0)
(-0.00440115 0.00187798 0)
(-0.00563893 0.00205823 0)
(-0.00698331 0.0022457 0)
(-0.00843751 0.00244033 0)
(-0.0100045 0.00264177 0)
(-0.0116867 0.00284944 0)
(-0.0134862 0.00306247 0)
(-0.0154042 0.00327977 0)
(-0.0174412 0.00349998 0)
(-0.0195965 0.00372154 0)
(-0.0218687 0.00394263 0)
(-0.0242549 0.00416127 0)
(-0.0267511 0.00437524 0)
(-0.029352 0.0045822 0)
(-0.0320506 0.00477961 0)
(-0.034839 0.00496483 0)
(-0.0377072 0.00513512 0)
(-0.0406443 0.00528764 0)
(-0.0436376 0.00541955 0)
(-0.0466731 0.005528 0)
(-0.0497354 0.00561019 0)
(-0.0528081 0.00566338 0)
(-0.0558734 0.005685 0)
(-0.0589125 0.00567261 0)
(-0.061906 0.00562403 0)
(-0.0648337 0.0055373 0)
(-0.0676747 0.00541078 0)
(-0.0704082 0.00524313 0)
(-0.0730129 0.00503342 0)
(-0.075468 0.00478108 0)
(-0.0777527 0.00448598 0)
(-0.0798468 0.0041484 0)
(-0.0817312 0.00376911 0)
(-0.0833872 0.00334932 0)
(-0.0847976 0.00289074 0)
(-0.0859466 0.00239554 0)
(-0.0868196 0.00186636 0)
(-0.0874039 0.00130631 0)
(-0.0876887 0.000718898 0)
(-0.0876652 0.000108134 0)
(-0.0873265 -0.000520982 0)
(-0.0866676 -0.00116425 0)
(-0.0856869 -0.00181639 0)
(-0.0843844 -0.00247187 0)
(-0.0827628 -0.00312491 0)
(-0.0808273 -0.0037695 0)
(-0.0785858 -0.0043995 0)
(-0.0760486 -0.00500865 0)
(-0.0732288 -0.00559069 0)
(-0.0701418 -0.00613939 0)
(-0.0668056 -0.0066487 0)
(-0.0632405 -0.00711282 0)
(-0.0594691 -0.00752625 0)
(-0.0555161 -0.00788397 0)
(-0.0514081 -0.00818148 0)
(-0.0471734 -0.00841491 0)
(-0.0428418 -0.00858113 0)
(-0.038444 -0.00867783 0)
(-0.0340118 -0.00870359 0)
(-0.0295774 -0.00865793 0)
(-0.0251732 -0.0085414 0)
(-0.0208311 -0.00835553 0)
(-0.0165827 -0.0081029 0)
(-0.0124582 -0.00778709 0)
(-0.00848644 -0.00741264 0)
(-0.00469451 -0.00698496 0)
(-0.00110716 -0.00651028 0)
(0.00225342 -0.00599545 0)
(0.0053679 -0.00544789 0)
(0.00822012 -0.0048754 0)
(0.0107972 -0.00428599 0)
(0.0130899 -0.00368769 0)
(0.0150922 -0.00308839 0)
(0.0168021 -0.00249571 0)
(0.0182206 -0.00191677 0)
(0.0193524 -0.00135809 0)
(0.0202051 -0.000825494 0)
(0.0207893 -0.000323935 0)
(0.0211183 0.000142507 0)
(0.0212071 0.000570694 0)
(0.021073 0.00095844 0)
(0.0207344 0.00130449 0)
(0.0202107 0.00160846 0)
(0.0195218 0.00187077 0)
(0.0186881 0.00209255 0)
(0.0177293 0.00227546 0)
(0.0166651 0.00242159 0)
(0.0155145 0.00253321 0)
(0.0142955 0.00261259 0)
(0.0130258 0.00266175 0)
(0.011722 0.00268218 0)
(0.0104006 0.00267462 0)
(0.00907771 0.0026387 0)
(0.00777002 0.00257278 0)
(0.00649483 0.00247373 0)
(0.00527077 0.00233694 0)
(0.00411809 0.00215654 0)
(0.00305897 0.00192614 0)
(0.00211737 0.00164038 0)
(0.00131772 0.00129789 0)
(0.000682387 0.000906079 0)
(0.000238375 0.000489048 0)
(3.41868e-05 0.000107761 0)
(3.34816e-05 -0.000224401 0)
(0.000187082 -0.00061011 0)
(0.000475007 -0.000908199 0)
(0.000835932 -0.00111265 0)
(0.0012339 -0.00122824 0)
(0.00164284 -0.00126462 0)
(0.00203918 -0.00123354 0)
(0.00240256 -0.00114701 0)
(0.00271606 -0.00101636 0)
(0.00296595 -0.000851696 0)
(0.00314127 -0.000661673 0)
(0.00323352 -0.00045349 0)
(0.00323623 -0.00023292 0)
(0.00314457 -4.40478e-06 0)
(0.002955 0.000228823 0)
(0.00266488 0.000464608 0)
(0.00227217 0.000701736 0)
(0.00177513 0.000939787 0)
(0.00117213 0.00117899 0)
(0.00046142 0.00142009 0)
(-0.000359004 0.00166417 0)
(-0.00129146 0.00191256 0)
(-0.00233865 0.00216669 0)
(-0.00350362 0.00242795 0)
(-0.00478978 0.0026976 0)
(-0.00620074 0.00297672 0)
(-0.00774025 0.00326604 0)
(-0.00941204 0.00356601 0)
(-0.0112197 0.00387664 0)
(-0.0131663 0.00419757 0)
(-0.0152548 0.004528 0)
(-0.0174871 0.00486671 0)
(-0.0198643 0.00521209 0)
(-0.0223866 0.00556211 0)
(-0.0250531 0.00591435 0)
(-0.0278612 0.00626605 0)
(-0.0308074 0.0066141 0)
(-0.0338862 0.0069551 0)
(-0.0370908 0.00728536 0)
(-0.0404124 0.00760095 0)
(-0.0438407 0.00789777 0)
(-0.0473637 0.00817154 0)
(-0.0509674 0.00841789 0)
(-0.0546364 0.00863244 0)
(-0.0583535 0.00881079 0)
(-0.0621002 0.00894865 0)
(-0.0658566 0.00904188 0)
(-0.0696013 0.00908657 0)
(-0.0733123 0.00907906 0)
(-0.0769664 0.00901608 0)
(-0.0805402 0.00889475 0)
(-0.0840094 0.00871265 0)
(-0.08735 0.00846788 0)
(-0.0905378 0.00815909 0)
(-0.093549 0.00778554 0)
(-0.0963605 0.00734708 0)
(-0.0989498 0.00684424 0)
(-0.101295 0.00627818 0)
(-0.103377 0.00565074 0)
(-0.105176 0.00496442 0)
(-0.106675 0.00422238 0)
(-0.107858 0.00342844 0)
(-0.108711 0.00258706 0)
(-0.109223 0.00170331 0)
(-0.109385 0.000782776 0)
(-0.109188 -0.000168325 0)
(-0.108628 -0.00114273 0)
(-0.107701 -0.00213379 0)
(-0.106408 -0.00313377 0)
(-0.104751 -0.00413457 0)
(-0.102734 -0.00512785 0)
(-0.100365 -0.00610498 0)
(-0.0976532 -0.0070572 0)
(-0.0946112 -0.00797565 0)
(-0.0912539 -0.00885148 0)
(-0.0875987 -0.00967597 0)
(-0.0836656 -0.0104406 0)
(-0.0794766 -0.0111373 0)
(-0.0750563 -0.0117582 0)
(-0.0704313 -0.0122965 0)
(-0.0656301 -0.0127456 0)
(-0.060683 -0.0131002 0)
(-0.0556218 -0.0133558 0)
(-0.0504796 -0.013509 0)
(-0.0452905 -0.0135577 0)
(-0.0400892 -0.013501 0)
(-0.0349107 -0.0133394 0)
(-0.02979 -0.0130748 0)
(-0.0247617 -0.0127108 0)
(-0.0198592 -0.0122519 0)
(-0.015115 -0.0117044 0)
(-0.0105597 -0.0110757 0)
(-0.00622187 -0.0103744 0)
(-0.00212757 -0.00961006 0)
(0.00169993 -0.00879322 0)
(0.00524049 -0.00793494 0)
(0.00847746 -0.00704673 0)
(0.0113977 -0.00614028 0)
(0.0139918 -0.00522721 0)
(0.0162543 -0.00431885 0)
(0.0181835 -0.00342597 0)
(0.0197814 -0.0025586 0)
(0.0210537 -0.00172584 0)
(0.0220093 -0.000935652 0)
(0.0226605 -0.000194793 0)
(0.0230222 0.000491308 0)
(0.0231117 0.00111858 0)
(0.0229482 0.00168433 0)
(0.0225525 0.00218713 0)
(0.0219465 0.00262683 0)
(0.0211528 0.00300431 0)
(0.0201941 0.00332137 0)
(0.0190933 0.00358048 0)
(0.0178729 0.00378448 0)
(0.0165547 0.00393633 0)
(0.0151601 0.00403869 0)
(0.0137101 0.00409358 0)
(0.0122251 0.004102 0)
(0.0107255 0.00406352 0)
(0.00923176 0.003976 0)
(0.0077652 0.00383538 0)
(0.00634807 0.00363567 0)
(0.00500408 0.00336937 0)
(0.00375862 0.0030284 0)
(0.00263895 0.002606 0)
(0.00167316 0.00210002 0)
(0.000888365 0.00151779 0)
(0.000322564 0.000883379 0)
(5.03184e-05 0.00025427 0)
(3.58405e-05 -0.000328018 0)
(0.000198411 -0.000853164 0)
(0.000499253 -0.00124232 0)
(0.000869775 -0.00149996 0)
(0.00126996 -0.00163708 0)
(0.00167153 -0.00166813 0)
(0.00204945 -0.00160886 0)
(0.00238227 -0.00147496 0)
(0.00265217 -0.00128106 0)
(0.00284453 -0.00104024 0)
(0.00294751 -0.000763794 0)
(0.00295167 -0.000461166 0)
(0.00284958 -0.000139978 0)
(0.00263545 0.000193858 0)
(0.00230471 0.000536007 0)
(0.00185373 0.00088355 0)
(0.00127947 0.0012348 0)
(0.000579216 0.00158914 0)
(-0.000249655 0.00194678 0)
(-0.00120983 0.00230864 0)
(-0.00230422 0.00267607 0)
(-0.00353599 0.00305074 0)
(-0.00490863 0.0034344 0)
(-0.00642589 0.00382877 0)
(-0.00809175 0.00423533 0)
(-0.00991025 0.00465527 0)
(-0.0118854 0.00508931 0)
(-0.014021 0.0055377 0)
(-0.0163204 0.0060001 0)
(-0.0187865 0.00647559 0)
(-0.0214211 0.00696263 0)
(-0.0242252 0.0074591 0)
(-0.0271986 0.00796225 0)
(-0.0303397 0.00846878 0)
(-0.0336453 0.00897488 0)
(-0.0371107 0.0094762 0)
(-0.040729 0.00996797 0)
(-0.044492 0.010445 0)
(-0.048389 0.0109018 0)
(-0.0524076 0.0113326 0)
(-0.0565334 0.0117313 0)
(-0.0607501 0.0120919 0)
(-0.0650394 0.0124083 0)
(-0.0693815 0.0126743 0)
(-0.0737548 0.0128839 0)
(-0.0781364 0.0130315 0)
(-0.0825022 0.0131117 0)
(-0.086827 0.0131196 0)
(-0.091085 0.0130506 0)
(-0.0952498 0.0129009 0)
(-0.099295 0.0126674 0)
(-0.103194 0.0123476 0)
(-0.106921 0.0119396 0)
(-0.110449 0.0114427 0)
(-0.113755 0.0108567 0)
(-0.116814 0.0101824 0)
(-0.119605 0.00942151 0)
(-0.122104 0.0085764 0)
(-0.124294 0.00765044 0)
(-0.126156 0.00664781 0)
(-0.127674 0.00557346 0)
(-0.128834 0.00443316 0)
(-0.129625 0.00323342 0)
(-0.130035 0.00198146 0)
(-0.130057 0.000685201 0)
(-0.129686 -0.000646897 0)
(-0.128918 -0.00200591 0)
(-0.127753 -0.00338195 0)
(-0.126191 -0.00476494 0)
(-0.124236 -0.00614442 0)
(-0.121895 -0.00750952 0)
(-0.119176 -0.00884914 0)
(-0.11609 -0.010152 0)
(-0.11265 -0.0114067 0)
(-0.108872 -0.0126021 0)
(-0.104773 -0.0137268 0)
(-0.100375 -0.0147701 0)
(-0.0957004 -0.0157215 0)
(-0.0907734 -0.0165712 0)
(-0.0856215 -0.01731 0)
(-0.0802737 -0.0179298 0)
(-0.0747609 -0.0184233 0)
(-0.0691155 -0.0187847 0)
(-0.0633717 -0.0190095 0)
(-0.0575644 -0.0190944 0)
(-0.0517298 -0.0190382 0)
(-0.0459042 -0.018841 0)
(-0.0401245 -0.0185051 0)
(-0.0344272 -0.0180343 0)
(-0.0288482 -0.0174343 0)
(-0.0234226 -0.0167126 0)
(-0.0181838 -0.0158785 0)
(-0.0131636 -0.0149427 0)
(-0.00839138 -0.0139175 0)
(-0.00389394 -0.0128162 0)
(0.000304895 -0.0116532 0)
(0.00418466 -0.0104434 0)
(0.00772842 -0.00920225 0)
(0.0109231 -0.00794525 0)
(0.0137594 -0.00668763 0)
(0.0162323 -0.00544412 0)
(0.0183405 -0.00422859 0)
(0.0200868 -0.00305382 0)
(0.0214778 -0.0019313 0)
(0.0225235 -0.000870958 0)
(0.0232374 0.000118921 0)
(0.0236357 0.0010318 0)
(0.0237372 0.00186294 0)
(0.0235628 0.00260934 0)
(0.0231352 0.00326966 0)
(0.0224781 0.00384408 0)
(0.0216162 0.00433404 0)
(0.0205744 0.00474199 0)
(0.019378 0.00507102 0)
(0.0180519 0.00532446 0)
(0.0166207 0.00550544 0)
(0.0151088 0.00561639 0)
(0.0135404 0.00565852 0)
(0.0119394 0.00563138 0)
(0.0103299 0.00553245 0)
(0.00873664 0.00535691 0)
(0.0071852 0.00509762 0)
(0.00570235 0.00474563 0)
(0.00431655 0.00429118 0)
(0.00305838 0.00372566 0)
(0.00195998 0.00304481 0)
(0.00105387 0.0022531 0)
(0.000388901 0.00136976 0)
(6.24239e-05 0.000441309 0)
(3.61227e-05 -0.000434492 0)
(0.000198302 -0.00110067 0)
(0.00049473 -0.00157757 0)
(0.000853084 -0.00188115 0)
(0.0012307 -0.00202996 0)
(0.00159767 -0.00204419 0)
(0.00192797 -0.00194423 0)
(0.00219954 -0.00174968 0)
(0.00239406 -0.00147858 0)
(0.00249645 -0.00114698 0)
(0.0024943 -0.000768755 0)
(0.00237752 -0.000355501 0)
(0.00213793 8.337e-05 0)
(0.00176886 0.000540536 0)
(0.00126483 0.0010106 0)
(0.000621215 0.0014899 0)
(-0.000166039 0.00197631 0)
(-0.00110068 0.00246896 0)
(-0.00218634 0.00296808 0)
(-0.0034267 0.00347468 0)
(-0.00482558 0.00399035 0)
(-0.00638702 0.00451699 0)
(-0.00811521 0.00505662 0)
(-0.0100145 0.00561109 0)
(-0.0120893 0.006182 0)
(-0.0143439 0.00677042 0)
(-0.0167822 0.00737686 0)
(-0.0194078 0.00800111 0)
(-0.0222233 0.00864219 0)
(-0.0252307 0.00929831 0)
(-0.0284307 0.00996686 0)
(-0.0318225 0.0106444 0)
(-0.0354039 0.0113268 0)
(-0.0391709 0.0120091 0)
(-0.0431176 0.0126855 0)
(-0.047236 0.01335 0)
(-0.0515161 0.0139957 0)
(-0.0559455 0.0146153 0)
(-0.0605098 0.0152012 0)
(-0.0651925 0.0157456 0)
(-0.0699748 0.0162405 0)
(-0.0748361 0.0166778 0)
(-0.0797539 0.0170495 0)
(-0.084704 0.017348 0)
(-0.0896612 0.0175658 0)
(-0.0945985 0.0176961 0)
(-0.0994887 0.0177325 0)
(-0.104304 0.0176694 0)
(-0.109015 0.0175019 0)
(-0.113594 0.0172261 0)
(-0.118013 0.0168389 0)
(-0.122245 0.0163383 0)
(-0.126262 0.0157232 0)
(-0.13004 0.0149937 0)
(-0.133553 0.0141508 0)
(-0.136779 0.0131967 0)
(-0.139697 0.0121344 0)
(-0.142286 0.0109682 0)
(-0.144529 0.00970307 0)
(-0.14641 0.00834517 0)
(-0.147915 0.00690141 0)
(-0.149031 0.00537958 0)
(-0.149749 0.00378827 0)
(-0.150061 0.00213684 0)
(-0.149961 0.000435364 0)
(-0.149445 -0.00130545 0)
(-0.148511 -0.00307445 0)
(-0.147158 -0.0048596 0)
(-0.145391 -0.00664857 0)
(-0.143212 -0.00842859 0)
(-0.140629 -0.0101865 0)
(-0.137651 -0.011909 0)
(-0.134288 -0.0135823 0)
(-0.130554 -0.0151929 0)
(-0.126463 -0.0167271 0)
(-0.122034 -0.0181714 0)
(-0.117287 -0.0195128 0)
(-0.112243 -0.0207385 0)
(-0.106928 -0.0218366 0)
(-0.101367 -0.0227958 0)
(-0.0955891 -0.023606 0)
(-0.089625 -0.0242582 0)
(-0.083507 -0.0247449 0)
(-0.0772689 -0.0250601 0)
(-0.0709464 -0.0251997 0)
(-0.0645758 -0.0251613 0)
(-0.0581946 -0.0249448 0)
(-0.0518408 -0.024552 0)
(-0.0455523 -0.0239872 0)
(-0.039367 -0.0232566 0)
(-0.0333221 -0.0223689 0)
(-0.0274536 -0.0213347 0)
(-0.021796 -0.0201668 0)
(-0.0163818 -0.0188797 0)
(-0.0112411 -0.0174895 0)
(-0.00640141 -0.0160135 0)
(-0.00188673 -0.0144702 0)
(0.00228216 -0.0128787 0)
(0.00608831 -0.0112582 0)
(0.00951872 -0.00962811 0)
(0.0125645 -0.00800716 0)
(0.0152208 -0.00641333 0)
(0.0174872 -0.00486341 0)
(0.0193669 -0.00337272 0)
(0.0208675 -0.00195483 0)
(0.022 -0.000621354 0)
(0.0227788 0.000618192 0)
(0.0232214 0.00175646 0)
(0.023348 0.0027883 0)
(0.0231809 0.00371064 0)
(0.0227443 0.00452237 0)
(0.0220635 0.00522406 0)
(0.0211651 0.00581766 0)
(0.0200761 0.00630607 0)
(0.0188236 0.00669267 0)
(0.0174351 0.00698075 0)
(0.0159378 0.00717293 0)
(0.0143589 0.00727059 0)
(0.0127256 0.0072732 0)
(0.0110651 0.00717794 0)
(0.00940542 0.00697935 0)
(0.00777501 0.00666929 0)
(0.00620368 0.00623739 0)
(0.00472292 0.00567203 0)
(0.00336677 0.00496214 0)
(0.00217161 0.00409996 0)
(0.00117547 0.00308472 0)
(0.000436791 0.00192725 0)
(7.07804e-05 0.000658628 0)
(3.48471e-05 -0.000538332 0)
(0.000188694 -0.0013393 0)
(0.000465178 -0.00189527 0)
(0.000791348 -0.00223382 0)
(0.00112335 -0.00238173 0)
(0.00143036 -0.00236556 0)
(0.00168593 -0.00221077 0)
(0.00186778 -0.00194109 0)
(0.00195752 -0.00157801 0)
(0.00193987 -0.0011405 0)
(0.00180216 -0.000644868 0)
(0.00153384 -0.000104772 0)
(0.00112614 0.000468729 0)
(0.000571647 0.00106702 0)
(-0.000135969 0.00168372 0)
(-0.00100228 0.0023145 0)
(-0.00203235 0.00295679 0)
(-0.00323096 0.00360954 0)
(-0.00460274 0.00427292 0)
(-0.00615235 0.00494801 0)
(-0.0078845 0.00563653 0)
(-0.009804 0.00634053 0)
(-0.0119157 0.0070621 0)
(-0.0142243 0.00780309 0)
(-0.0167344 0.00856495 0)
(-0.0194503 0.00934842 0)
(-0.0223755 0.0101535 0)
(-0.0255127 0.0109791 0)
(-0.0288638 0.0118234 0)
(-0.0324291 0.0126834 0)
(-0.0362074 0.0135549 0)
(-0.0401959 0.0144329 0)
(-0.0443897 0.0153112 0)
(-0.0487817 0.0161831 0)
(-0.0533627 0.0170406 0)
(-0.0581212 0.0178753 0)
(-0.0630431 0.0186781 0)
(-0.0681122 0.0194395 0)
(-0.0733096 0.0201495 0)
(-0.0786147 0.0207982 0)
(-0.0840045 0.0213756 0)
(-0.0894542 0.0218717 0)
(-0.0949376 0.0222769 0)
(-0.100427 0.0225822 0)
(-0.105893 0.022779 0)
(-0.111308 0.0228597 0)
(-0.11664 0.0228173 0)
(-0.121861 0.0226462 0)
(-0.12694 0.0223416 0)
(-0.131849 0.0218999 0)
(-0.13656 0.0213187 0)
(-0.141045 0.0205971 0)
(-0.145278 0.0197351 0)
(-0.149236 0.018734 0)
(-0.152895 0.0175966 0)
(-0.156235 0.0163266 0)
(-0.159235 0.0149289 0)
(-0.161879 0.0134095 0)
(-0.164151 0.0117754 0)
(-0.166038 0.0100346 0)
(-0.167527 0.00819592 0)
(-0.168608 0.0062692 0)
(-0.169274 0.00426492 0)
(-0.169517 0.00219435 0)
(-0.169334 6.95229e-05 0)
(-0.168722 -0.00209666 0)
(-0.167678 -0.00429131 0)
(-0.166205 -0.00650052 0)
(-0.164305 -0.00870993 0)
(-0.161982 -0.0109048 0)
(-0.159242 -0.0130699 0)
(-0.156094 -0.0151898 0)
(-0.152547 -0.0172488 0)
(-0.148614 -0.0192312 0)
(-0.144309 -0.021121 0)
(-0.139648 -0.0229027 0)
(-0.13465 -0.0245609 0)
(-0.129335 -0.0260807 0)
(-0.123727 -0.0274479 0)
(-0.117852 -0.0286491 0)
(-0.111735 -0.0296722 0)
(-0.105408 -0.0305061 0)
(-0.0989009 -0.0311415 0)
(-0.0922483 -0.0315708 0)
(-0.0854852 -0.0317884 0)
(-0.0786483 -0.0317908 0)
(-0.0717756 -0.031577 0)
(-0.064906 -0.0311483 0)
(-0.0580787 -0.0305088 0)
(-0.0513333 -0.0296652 0)
(-0.044709 -0.0286267 0)
(-0.0382442 -0.0274052 0)
(-0.031976 -0.026015 0)
(-0.0259401 -0.0244727 0)
(-0.0201699 -0.0227969 0)
(-0.0146961 -0.0210078 0)
(-0.00954663 -0.019127 0)
(-0.00474598 -0.0171773 0)
(-0.000314983 -0.0151818 0)
(0.00372948 -0.0131638 0)
(0.00737464 -0.0111462 0)
(0.010612 -0.00915123 0)
(0.0134373 -0.00719993 0)
(0.0158507 -0.00531172 0)
(0.0178565 -0.00350414 0)
(0.0194629 -0.00179254 0)
(0.0206821 -0.000189876 0)
(0.0215296 0.00129342 0)
(0.0220241 0.00264949 0)
(0.0221871 0.00387301 0)
(0.0220422 0.00496102 0)
(0.0216153 0.00591268 0)
(0.0209332 0.00672891 0)
(0.0200243 0.00741197 0)
(0.0189174 0.00796485 0)
(0.0176419 0.00839068 0)
(0.0162273 0.00869205 0)
(0.0147036 0.00887025 0)
(0.0131006 0.00892466 0)
(0.0114485 0.00885213 0)
(0.00977799 0.00864657 0)
(0.00812049 0.00829889 0)
(0.00650868 0.00779725 0)
(0.00497711 0.0071279 0)
(0.00356329 0.00627665 0)
(0.00230775 0.00523111 0)
(0.00125365 0.00398353 0)
(0.000467089 0.00253408 0)
(7.5824e-05 0.000896347 0)
(3.2343e-05 -0.00063504 0)
(0.000171011 -0.00155743 0)
(0.000413622 -0.00217854 0)
(0.000689234 -0.00253732 0)
(0.000954191 -0.00266902 0)
(0.00117754 -0.00260688 0)
(0.001333 -0.00238165 0)
(0.00139859 -0.00202127 0)
(0.00135612 -0.00155066 0)
(0.00119045 -0.0009916 0)
(0.000888823 -0.00036268 0)
(0.000440444 0.000320582 0)
(-0.000163934 0.00104564 0)
(-0.000932354 0.00180274 0)
(-0.00187194 0.00258464 0)
(-0.00298916 0.00338641 0)
(-0.00429005 0.00420511 0)
(-0.00578036 0.00503949 0)
(-0.00746571 0.00588962 0)
(-0.00935166 0.00675661 0)
(-0.0114437 0.00764219 0)
(-0.0137473 0.00854836 0)
(-0.0162677 0.00947713 0)
(-0.0190099 0.0104301 0)
(-0.0219783 0.0114083 0)
(-0.0251768 0.0124118 0)
(-0.0286081 0.0134396 0)
(-0.0322739 0.0144898 0)
(-0.0361742 0.015559 0)
(-0.0403076 0.0166424 0)
(-0.0446705 0.0177342 0)
(-0.0492572 0.0188272 0)
(-0.0540596 0.0199131 0)
(-0.0590673 0.0209827 0)
(-0.0642672 0.0220256 0)
(-0.0696437 0.023031 0)
(-0.0751787 0.0239872 0)
(-0.0808518 0.0248824 0)
(-0.08664 0.0257043 0)
(-0.0925184 0.026441 0)
(-0.0984603 0.0270805 0)
(-0.104437 0.0276113 0)
(-0.11042 0.0280226 0)
(-0.116379 0.0283042 0)
(-0.122281 0.0284471 0)
(-0.128097 0.0284433 0)
(-0.133796 0.028286 0)
(-0.139347 0.0279698 0)
(-0.144722 0.0274906 0)
(-0.14989 0.026846 0)
(-0.154826 0.0260347 0)
(-0.159505 0.025057 0)
(-0.163901 0.0239147 0)
(-0.167993 0.0226109 0)
(-0.17176 0.0211498 0)
(-0.175184 0.0195371 0)
(-0.178249 0.0177796 0)
(-0.180938 0.0158852 0)
(-0.18324 0.0138625 0)
(-0.185142 0.0117215 0)
(-0.186634 0.00947271 0)
(-0.187709 0.00712766 0)
(-0.188358 0.00469855 0)
(-0.188578 0.0021983 0)
(-0.188364 -0.000359458 0)
(-0.187714 -0.00296032 0)
(-0.186627 -0.00558962 0)
(-0.185103 -0.00823187 0)
(-0.183144 -0.0108711 0)
(-0.180754 -0.0134908 0)
(-0.177938 -0.016074 0)
(-0.174702 -0.0186035 0)
(-0.171055 -0.0210616 0)
(-0.167008 -0.0234307 0)
(-0.162572 -0.0256928 0)
(-0.157763 -0.0278301 0)