/*--------------------------------*- C++ -*----------------------------------*\
| =========                 |                                                 |
| \\      /  F ield         | OpenFOAM: The Open Source CFD Toolbox           |
|  \\    /   O peration     | Version:  2112                                  |
|   \\  /    A nd           | Website:  www.openfoam.com                      |
|    \\/     M anipulation  |                                                 |
\*---------------------------------------------------------------------------*/
FoamFile
{
    version     2.0;
    format      ascii;
    arch        "LSB;label=32;scalar=64";
    class       volScalarField;
    location    "18";
    object      p;
}
// * * * * * * * * * * * * * * * * * * * * * * * * * * * * * * * * * * * * * //

dimensions      [0 2 -2 0 0 0 0];

internalField   nonuniform List<scalar> 
16641
(
6.83424e-10
5.77048e-06
8.68402e-06
7.34967e-06
7.99615e-07
-1.1257e-05
-2.86519e-05
-5.1025e-05
-7.79677e-05
-0.000109079
-0.000144004
-0.00018244
-0.000224141
-0.000268919
-0.000316633
-0.000367181
-0.000420498
-0.000476542
-0.000535295
-0.000596748
-0.000660897
-0.000727743
-0.000797283
-0.000869509
-0.000944401
-0.00102193
-0.00110204
-0.00118468
-0.00126974
-0.00135711
-0.00144664
-0.00153815
-0.0016314
-0.00172615
-0.00182208
-0.00191882
-0.00201596
-0.00211304
-0.00220953
-0.00230485
-0.00239834
-0.00248932
-0.00257702
-0.00266064
-0.0027393
-0.00281213
-0.00287818
-0.00293649
-0.0029861
-0.00302604
-0.00305537
-0.00307315
-0.00307853
-0.00307071
-0.00304897
-0.00301274
-0.00296154
-0.00289507
-0.00281319
-0.00271597
-0.00260367
-0.00247678
-0.00233604
-0.00218243
-0.00201716
-0.00184172
-0.00165778
-0.00146733
-0.00127252
-0.0010757
-0.000879372
-0.000686183
-0.000498865
-0.000320192
-0.000152937
1.78276e-07
0.000136537
0.000253681
0.00034936
0.000421583
0.000468663
0.000489259
0.000482404
0.000447534
0.000384506
0.000293602
0.000175525
3.13846e-05
-0.000137326
-0.000328764
-0.000540773
-0.000770944
-0.00101666
-0.00127516
-0.00154359
-0.00181907
-0.00209876
-0.0023799
-0.00265985
-0.00293617
-0.00320661
-0.00346918
-0.00372212
-0.00396396
-0.0041935
-0.0044098
-0.00461218
-0.00480019
-0.00497361
-0.0051324
-0.00527669
-0.00540675
-0.00552295
-0.00562571
-0.00571552
-0.00579287
-0.00585823
-0.00591207
-0.00595477
-0.0059867
-0.0060082
-0.00601962
-0.0060214
-0.00601422
-0.00599918
-0.00597818
-0.0059543
-0.00593209
-0.00591848
-6.30606e-06
-4.96729e-07
1.126e-06
-1.51965e-06
-8.66466e-06
-2.05743e-05
-3.72162e-05
-5.83851e-05
-8.38031e-05
-0.000113183
-0.000146246
-0.000182741
-0.000222457
-0.000265223
-0.000310903
-0.000359394
-0.000410622
-0.000464535
-0.000521101
-0.000580296
-0.000642107
-0.000706524
-0.000773534
-0.00084312
-0.000915259
-0.000989914
-0.00106704
-0.00114656
-0.0012284
-0.00131243
-0.00139852
-0.0014865
-0.00157616
-0.00166724
-0.00175946
-0.00185248
-0.00194591
-0.00203933
-0.00213222
-0.00222406
-0.00231423
-0.00240209
-0.0024869
-0.00256793
-0.00264435
-0.00271532
-0.00277997
-0.00283737
-0.00288663
-0.00292681
-0.00295702
-0.00297637
-0.00298404
-0.00297927
-0.00296136
-0.00292975
-0.00288398
-0.00282375
-0.00274891
-0.00265951
-0.00255578
-0.00243819
-0.0023074
-0.00216434
-0.00201019
-0.00184637
-0.00167428
-0.00149599
-0.0013135
-0.00112905
-0.000945027
-0.000763946
-0.000588414
-0.000421082
-0.000264598
-0.000121562
5.52807e-06
0.000114323
0.000202675
0.000268684
0.000310743
0.000327573
0.000318258
0.000282268
0.000219474
0.000130153
1.49844e-05
-0.000124962
-0.000288252
-0.000473121
-0.000677511
-0.000899118
-0.00113545
-0.00138387
-0.00164167
-0.00190612
-0.00217452
-0.00244425
-0.00271282
-0.00297793
-0.00323744
-0.00348947
-0.00373238
-0.00396478
-0.00418553
-0.00439374
-0.00458877
-0.00477019
-0.00493778
-0.0050915
-0.00523147
-0.00535792
-0.00547118
-0.00557166
-0.00565982
-0.00573613
-0.00580104
-0.00585504
-0.00589854
-0.00593198
-0.00595576
-0.00597036
-0.00597634
-0.00597444
-0.00596576
-0.0059519
-0.00593522
-0.00591855
-0.00590488
-9.93252e-06
-2.64642e-06
-9.81272e-07
-4.01284e-06
-1.13481e-05
-2.31286e-05
-3.93232e-05
-5.97543e-05
-8.42003e-05
-0.000112425
-0.000144192
-0.000179291
-0.00021753
-0.000258756
-0.000302841
-0.000349684
-0.000399214
-0.000451375
-0.000506128
-0.000563445
-0.000623308
-0.0006857
-0.000750608
-0.000818011
-0.000887884
-0.000960195
-0.0010349
-0.00111192
-0.0011912
-0.00127262
-0.00135605
-0.00144133
-0.00152828
-0.00161666
-0.0017062
-0.00179659
-0.00188747
-0.00197843
-0.002069
-0.00215868
-0.0022469
-0.00233302
-0.00241638
-0.00249625
-0.00257186
-0.00264239
-0.00270699
-0.00276479
-0.00281491
-0.00285643
-0.00288849
-0.00291021
-0.00292078
-0.00291944
-0.00290551
-0.00287839
-0.00283763
-0.00278289
-0.00271402
-0.00263101
-0.00253407
-0.00242362
-0.00230028
-0.00216491
-0.00201861
-0.00186264
-0.00169877
-0.0015286
-0.00135415
-0.00117761
-0.0010013
-0.000827682
-0.0006593
-0.000498744
-0.000348607
-0.000211435
-8.96811e-05
1.43527e-05
9.85576e-05
0.000161067
0.000200301
0.000215005
0.000204279
0.000167606
0.000104859
1.63164e-05
-9.73509e-05
-0.000235089
-0.000395485
-0.0005768
-0.000777013
-0.000993861
-0.0012249
-0.00146755
-0.00171916
-0.00197707
-0.00223865
-0.00250135
-0.00276276
-0.00302064
-0.00327294
-0.00351787
-0.00375383
-0.0039795
-0.00419381
-0.00439591
-0.00458522
-0.00476134
-0.00492408
-0.00507342
-0.00520948
-0.00533251
-0.00544285
-0.00554091
-0.00562714
-0.00570202
-0.00576601
-0.00581961
-0.00586326
-0.00589741
-0.0059225
-0.00593901
-0.00594749
-0.00594862
-0.00594327
-0.0059327
-0.0059186
-0.00590195
-0.00588257
-9.04136e-06
-4.07468e-07
1.56979e-06
-1.55958e-06
-8.97997e-06
-2.07037e-05
-3.66415e-05
-5.66061e-05
-8.03873e-05
-0.000107769
-0.000138543
-0.000172521
-0.000209538
-0.00024945
-0.000292139
-0.000337516
-0.000385509
-0.000436067
-0.00048915
-0.000544731
-0.000602792
-0.000663316
-0.000726288
-0.000791692
-0.000859505
-0.000929701
-0.00100224
-0.00107707
-0.00115411
-0.00123329
-0.00131448
-0.00139754
-0.0014823
-0.00156856
-0.00165606
-0.00174452
-0.00183362
-0.00192296
-0.00201212
-0.0021006
-0.00218788
-0.00227337
-0.0023564
-0.00243629
-0.00251229
-0.0025836
-0.00264939
-0.00270882
-0.00276099
-0.00280502
-0.00284001
-0.00286512
-0.00287949
-0.00288235
-0.00287301
-0.00285084
-0.00281535
-0.00276617
-0.00270309
-0.00262608
-0.00253529
-0.00243108
-0.00231403
-0.00218496
-0.00204492
-0.00189514
-0.00173723
-0.00157287
-0.00140401
-0.00123279
-0.00106152
-0.000892621
-0.00072861
-0.000572064
-0.000425563
-0.000291646
-0.000172757
-7.11999e-05
1.09162e-05
7.17222e-05
0.000109634
0.00012339
0.000112086
7.51994e-05
1.26001e-05
-7.54382e-05
-0.000188245
-0.000324769
-0.000483595
-0.000662986
-0.000860919
-0.00107513
-0.00130319
-0.00154252
-0.00179047
-0.00204441
-0.00230171
-0.00255988
-0.00281651
-0.00306943
-0.00331661
-0.0035563
-0.00378697
-0.00400735
-0.00421641
-0.00441337
-0.00459769
-0.00476903
-0.00492723
-0.00507232
-0.00520445
-0.00532392
-0.00543108
-0.00552636
-0.00561025
-0.00568324
-0.00574582
-0.00579849
-0.00584171
-0.00587594
-0.0059016
-0.00591914
-0.00592903
-0.00593178
-0.005928
-0.00591857
-0.00590461
-0.0058855
-0.00585873
-2.52551e-06
6.56148e-06
8.5063e-06
5.14954e-06
-2.47519e-06
-1.42757e-05
-3.01148e-05
-4.97858e-05
-7.30768e-05
-9.97872e-05
-0.000129728
-0.00016273
-0.000198643
-0.000237341
-0.000278719
-0.000322698
-0.000369213
-0.000418216
-0.000469674
-0.000523563
-0.000579868
-0.000638575
-0.000699675
-0.000763156
-0.000829007
-0.000897207
-0.000967729
-0.00104053
-0.00111556
-0.00119275
-0.00127199
-0.00135318
-0.00143617
-0.00152077
-0.00160677
-0.00169391
-0.00178188
-0.00187035
-0.00195891
-0.0020471
-0.00213441
-0.00222029
-0.0023041
-0.00238517
-0.00246277
-0.00253612
-0.0026044
-0.00266675
-0.00272228
-0.0027701
-0.0028093
-0.00283899
-0.0028583
-0.00286643
-0.00286263
-0.00284624
-0.00281671
-0.00277363
-0.00271673
-0.00264591
-0.00256129
-0.00246316
-0.00235206
-0.00222875
-0.00209425
-0.00194973
-0.00179675
-0.00163698
-0.00147236
-0.001305
-0.00113719
-0.000971349
-0.00081
-0.000655725
-0.000511115
-0.000378728
-0.000261031
-0.00016035
-7.8822e-05
-1.83444e-05
1.94715e-05
3.33399e-05
2.23329e-05
-1.40932e-05
-7.6082e-05
-0.00016337
-0.000275291
-0.000410789
-0.000568445
-0.000746509
-0.000942941
-0.00115546
-0.00138161
-0.0016188
-0.00186436
-0.00211563
-0.00236999
-0.00262493
-0.00287807
-0.00312722
-0.00337039
-0.00360584
-0.00383208
-0.00404789
-0.00425228
-0.00444454
-0.00462415
-0.00479084
-0.00494452
-0.00508525
-0.00521326
-0.00532887
-0.00543249
-0.00552459
-0.00560568
-0.00567631
-0.00573698
-0.00578821
-0.00583047
-0.00586422
-0.00588986
-0.00590778
-0.00591834
-0.00592187
-0.00591873
-0.00590944
-0.00589466
-0.00587244
-0.00583838
1.00236e-05
1.86237e-05
2.00643e-05
1.62158e-05
8.18092e-06
-3.88627e-06
-1.98102e-05
-3.93644e-05
-6.23401e-05
-8.85469e-05
-0.000117811
-0.000149978
-0.000184918
-0.000222518
-0.000262691
-0.000305368
-0.000350492
-0.000398028
-0.000447948
-0.000500237
-0.000554884
-0.000611887
-0.000671242
-0.000732951
-0.000797013
-0.000863422
-0.000932166
-0.00100322
-0.00107656
-0.00115214
-0.00122988
-0.00130969
-0.00139146
-0.00147504
-0.00156025
-0.00164685
-0.00173459
-0.00182315
-0.00191214
-0.00200116
-0.00208972
-0.00217727
-0.00226321
-0.00234688
-0.00242754
-0.00250444
-0.00257672
-0.00264353
-0.00270395
-0.00275706
-0.00280192
-0.00283759
-0.00286317
-0.00287778
-0.00288062
-0.00287098
-0.00284825
-0.00281193
-0.00276171
-0.00269742
-0.00261911
-0.00252703
-0.00242165
-0.00230371
-0.00217422
-0.00203414
-0.00188518
-0.00172895
-0.00156737
-0.00140253
-0.00123674
-0.00107243
-0.000912134
-0.000758469
-0.000614057
-0.000481493
-0.000363287
-0.000261814
-0.000179258
-0.000117568
-7.84019e-05
-6.30923e-05
-7.26091e-05
-0.000107533
-0.000168036
-0.000253877
-0.000364401
-0.000498556
-0.000654915
-0.000831714
-0.00102689
-0.00123813
-0.00146293
-0.00169868
-0.00194266
-0.00219217
-0.00244455
-0.00269727
-0.00294791
-0.00319428
-0.00343438
-0.00366646
-0.00388907
-0.004101
-0.00430131
-0.00448931
-0.00466456
-0.00482683
-0.00497608
-0.00511245
-0.00523622
-0.00534778
-0.00544758
-0.00553616
-0.00561407
-0.0056819
-0.00574019
-0.00578949
-0.00583027
-0.005863
-0.00588803
-0.00590571
-0.00591627
-0.00591991
-0.00591673
-0.00590696
-0.0058909
-0.00586559
-0.00582518
2.85738e-05
3.58386e-05
3.62799e-05
3.16261e-05
2.29259e-05
1.03729e-05
-5.82871e-06
-2.54477e-05
-4.82786e-05
-7.41416e-05
-0.00010288
-0.000134355
-0.000168452
-0.000205081
-0.000244168
-0.000285657
-0.000329508
-0.000375695
-0.000424202
-0.000475026
-0.000528167
-0.000583633
-0.000641437
-0.000701596
-0.000764124
-0.000829036
-0.000896341
-0.000966044
-0.00103814
-0.00111261
-0.00118942
-0.00126851
-0.00134981
-0.00143319
-0.00151851
-0.00160559
-0.00169419
-0.00178402
-0.00187475
-0.00196598
-0.00205724
-0.00214802
-0.00223771
-0.00232566
-0.00241113
-0.00249333
-0.00257141
-0.00264447
-0.00271156
-0.00277171
-0.00282392
-0.00286719
-0.00290055
-0.00292307
-0.00293386
-0.00293213
-0.0029172
-0.00288851
-0.00284566
-0.00278842
-0.00271676
-0.00263089
-0.00253122
-0.00241842
-0.00229336
-0.00215737
-0.00201175
-0.00185819
-0.00169862
-0.00153515
-0.00137009
-0.0012059
-0.00104515
-0.000890486
-0.000744591
-0.000610111
-0.000489618
-0.000385551
-0.000300166
-0.000235479
-0.000193221
-0.000174791
-0.000181223
-0.000213152
-0.000270802
-0.000353968
-0.000462024
-0.000593931
-0.000748268
-0.000923256
-0.00111681
-0.00132659
-0.00155004
-0.0017845
-0.00202719
-0.00227537
-0.00252631
-0.00277741
-0.00302624
-0.00327057
-0.00350831
-0.00373774
-0.00395738
-0.00416605
-0.00436282
-0.00454704
-0.00471829
-0.00487642
-0.00502143
-0.00515353
-0.00527305
-0.00538045
-0.00547626
-0.00556107
-0.0056355
-0.00570017
-0.00575569
-0.00580261
-0.00584145
-0.00587265
-0.00589656
-0.00591345
-0.00592349
-0.00592671
-0.00592303
-0.00591244
-0.005895
-0.005867
-0.00582154
5.28732e-05
5.8056e-05
5.70258e-05
5.1231e-05
4.15922e-05
2.8329e-05
1.16555e-05
-8.20161e-06
-3.10463e-05
-5.67138e-05
-8.50632e-05
-0.000115977
-0.000149363
-0.000185147
-0.000223275
-0.000263707
-0.00030642
-0.000351405
-0.00039866
-0.000448195
-0.000500028
-0.000554183
-0.000610693
-0.000669595
-0.000730926
-0.000794726
-0.000861035
-0.00092989
-0.00100132
-0.00107534
-0.00115195
-0.00123115
-0.00131288
-0.00139708
-0.00148364
-0.00157242
-0.00166321
-0.00175577
-0.00184978
-0.00194487
-0.00204059
-0.00213643
-0.00223178
-0.00232598
-0.00241827
-0.00250784
-0.00259379
-0.00267517
-0.00275097
-0.00282016
-0.00288166
-0.00293441
-0.00297734
-0.00300943
-0.00302972
-0.00303732
-0.00303147
-0.00301152
-0.00297698
-0.00292757
-0.00286319
-0.00278396
-0.00269026
-0.00258271
-0.00246214
-0.00232981
-0.00218705
-0.00203555
-0.0018772
-0.00171413
-0.00154869
-0.00138334
-0.00122071
-0.0010635
-0.000914432
-0.000776235
-0.000651555
-0.000542915
-0.000452656
-0.000382887
-0.000335432
-0.00031178
-0.000313054
-0.000339971
-0.000392827
-0.000471481
-0.000575355
-0.000703448
-0.000854355
-0.0010263
-0.00121719
-0.00142465
-0.00164609
-0.00187879
-0.00211991
-0.00236662
-0.00261614
-0.00286579
-0.00311305
-0.00335579
-0.00359159
-0.00381883
-0.004036
-0.00424191
-0.00443561
-0.00461647
-0.00478411
-0.00493841
-0.00507942
-0.0052074
-0.00532276
-0.00542601
-0.00551776
-0.00559867
-0.00566942
-0.00573069
-0.00578313
-0.00582733
-0.00586385
-0.00589312
-0.00591548
-0.00593117
-0.00594028
-0.00594274
-0.0059383
-0.00592681
-0.00590812
-0.00587804
-0.00582898
8.25588e-05
8.50147e-05
8.20724e-05
7.4811e-05
6.39681e-05
4.97738e-05
3.24432e-05
1.21871e-05
-1.08175e-05
-3.64243e-05
-6.45144e-05
-9.49955e-05
-0.000127798
-0.000162869
-0.000200176
-0.000239701
-0.00028144
-0.000325402
-0.000371605
-0.000420078
-0.000470858
-0.000523995
-0.000579544
-0.000637569
-0.000698137
-0.000761323
-0.000827202
-0.000895849
-0.000967334
-0.00104172
-0.00111906
-0.00119937
-0.00128268
-0.00136894
-0.00145811
-0.00155008
-0.00164467
-0.00174168
-0.00184081
-0.00194172
-0.00204395
-0.00214699
-0.00225022
-0.00235296
-0.00245441
-0.0025537
-0.00264989
-0.00274196
-0.00282882
-0.00290935
-0.00298239
-0.00304677
-0.00310134
-0.00314497
-0.00317659
-0.00319523
-0.00320002
-0.00319022
-0.00316526
-0.00312478
-0.00306859
-0.00299675
-0.00290959
-0.00280767
-0.0026918
-0.00256315
-0.00242307
-0.00227323
-0.00211552
-0.00195208
-0.00178526
-0.00161758
-0.00145169
-0.00129035
-0.00113635
-0.00099251
-0.00086155
-0.000746097
-0.000648601
-0.000571282
-0.000516081
-0.000484606
-0.000478097
-0.000497383
-0.000542864
-0.000614492
-0.000711768
-0.000833754
-0.000979092
-0.00114603
-0.00133248
-0.00153606
-0.00175413
-0.00198393
-0.00222256
-0.00246711
-0.00271471
-0.00296256
-0.00320794
-0.0034495
-0.00368331
-0.00390856
-0.00412357
-0.00432706
-0.00451808
-0.00469598
-0.00486039
-0.00501119
-0.0051485
-0.00527262
-0.005384
-0.00548324
-0.005571
-0.005648
-0.005715
-0.00577273
-0.00582191
-0.00586318
-0.00589711
-0.00592417
-0.00594469
-0.00595889
-0.00596681
-0.0059683
-0.00596303
-0.0059507
-0.00593104
-0.00589958
-0.00584834
0.000117209
0.000116364
0.000111112
0.000102085
8.97887e-05
7.44577e-05
5.62989e-05
3.54963e-05
1.22006e-05
-1.34692e-05
-4.14236e-05
-7.15977e-05
-0.000103947
-0.000138448
-0.000175091
-0.000213883
-0.000254843
-0.000298002
-0.000343402
-0.000391095
-0.000441148
-0.000493636
-0.000548646
-0.000606275
-0.00066663
-0.000729825
-0.000795982
-0.000865221
-0.000937663
-0.00101342
-0.0010926
-0.00117529
-0.00126154
-0.00135138
-0.00144479
-0.00154172
-0.00164203
-0.00174553
-0.00185195
-0.00196095
-0.00207208
-0.0021848
-0.00229848
-0.00241238
-0.00252565
-0.00263737
-0.00274651
-0.00285196
-0.00295255
-0.00304704
-0.00313418
-0.00321269
-0.00328128
-0.00333874
-0.00338387
-0.00341559
-0.00343293
-0.00343505
-0.00342128
-0.00339117
-0.00334444
-0.00328111
-0.00320139
-0.00310581
-0.00299515
-0.00287049
-0.00273318
-0.00258486
-0.0024274
-0.00226297
-0.0020939
-0.00192276
-0.00175223
-0.00158514
-0.00142435
-0.00127275
-0.00113318
-0.00100837
-0.000900893
-0.000813116
-0.000747121
-0.000704664
-0.000687133
-0.000695508
-0.000730329
-0.000791677
-0.000879173
-0.000991978
-0.00112881
-0.00128799
-0.00146744
-0.00166479
-0.0018774
-0.00210246
-0.00233702
-0.00257809
-0.00282272
-0.00306802
-0.00331131
-0.00355026
-0.00378228
-0.00400557
-0.00421852
-0.0044198
-0.00460841
-0.00478367
-0.0049452
-0.00509288
-0.00522685
-0.00534743
-0.00545513
-0.00555059
-0.00563454
-0.00570777
-0.00577109
-0.00582532
-0.0058712
-0.00590945
-0.00594068
-0.00596538
-0.0059839
-0.00599645
-0.00600305
-0.00600351
-0.00599742
-0.00598443
-0.00596416
-0.00593205
-0.00587993
0.00015635
0.000151681
0.000143765
0.000132704
0.000118727
0.000102075
8.29359e-05
6.14564e-05
3.77511e-05
1.19025e-05
-1.60344e-05
-4.60268e-05
-7.80632e-05
-0.00011215
-0.000148306
-0.000186568
-0.000226982
-0.000269604
-0.000314506
-0.00036177
-0.000411496
-0.000463794
-0.000518788
-0.000576619
-0.00063744
-0.000701416
-0.00076872
-0.00083953
-0.000914026
-0.000992384
-0.00107477
-0.00116132
-0.00125215
-0.00134736
-0.00144696
-0.00155093
-0.00165919
-0.00177156
-0.00188778
-0.00200751
-0.00213028
-0.00225552
-0.00238257
-0.00251061
-0.00263874
-0.00276594
-0.00289109
-0.00301298
-0.00313032
-0.00324177
-0.00334593
-0.0034414
-0.00352679
-0.00360074
-0.00366193
-0.00370917
-0.00374135
-0.00375755
-0.00375697
-0.00373907
-0.00370349
-0.00365012
-0.00357914
-0.00349097
-0.00338636
-0.00326631
-0.00313213
-0.00298542
-0.00282806
-0.00266215
-0.00249009
-0.00231442
-0.00213789
-0.00196336
-0.00179378
-0.00163212
-0.00148134
-0.00134429
-0.00122371
-0.00112211
-0.00104174
-0.000984548
-0.000952109
-0.000945589
-0.000965713
-0.00101274
-0.00108645
-0.00118616
-0.00131071
-0.00145849
-0.00162753
-0.00181549
-0.00201974
-0.00223744
-0.00246561
-0.00270118
-0.00294112
-0.00318245
-0.00342235
-0.00365824
-0.00388768
-0.00410862
-0.00431932
-0.00451836
-0.00470468
-0.00487753
-0.00503648
-0.0051814
-0.00531241
-0.00542985
-0.00553425
-0.00562629
-0.00570675
-0.00577648
-0.00583635
-0.00588723
-0.00592994
-0.00596525
-0.0059938
-0.00601613
-0.00603263
-0.00604351
-0.00604879
-0.00604826
-0.00604149
-0.00602807
-0.0060076
-0.0059755
-0.00592368
0.000199447
0.0001905
0.000179588
0.000166245
0.00015039
0.000132258
0.000112007
8.97368e-05
6.55147e-05
3.93796e-05
1.13458e-05
-1.85947e-05
-5.04678e-05
-8.4315e-05
-0.00012019
-0.00015816
-0.000198302
-0.000240707
-0.000285481
-0.000332743
-0.00038263
-0.000435297
-0.000490914
-0.000549675
-0.000611788
-0.000677477
-0.000746979
-0.00082054
-0.000898406
-0.000980822
-0.00106802
-0.00116021
-0.00125757
-0.00136023
-0.00146828
-0.00158173
-0.00170052
-0.00182449
-0.00195339
-0.00208685
-0.00222437
-0.00236536
-0.00250906
-0.00265461
-0.002801
-0.00294711
-0.00309172
-0.00323349
-0.003371
-0.00350276
-0.00362727
-0.00374296
-0.00384832
-0.00394182
-0.00402205
-0.00408766
-0.00413742
-0.00417027
-0.00418532
-0.00418189
-0.00415953
-0.00411803
-0.00405744
-0.00397814
-0.00388077
-0.00376627
-0.00363588
-0.00349115
-0.0033339
-0.00316625
-0.00299054
-0.00280936
-0.00262547
-0.00244178
-0.00226131
-0.00208712
-0.0019223
-0.00176984
-0.00163263
-0.00151338
-0.00141454
-0.00133827
-0.00128638
-0.00126027
-0.00126089
-0.00128874
-0.00134381
-0.00142561
-0.00153317
-0.00166503
-0.00181933
-0.00199382
-0.00218591
-0.00239277
-0.00261141
-0.0028387
-0.00307152
-0.00330679
-0.00354158
-0.00377312
-0.00399889
-0.00421668
-0.0044246
-0.00462113
-0.00480507
-0.00497559
-0.00513218
-0.00527464
-0.00540307
-0.00551779
-0.00561934
-0.00570841
-0.00578581
-0.00585244
-0.00590922
-0.00595708
-0.00599689
-0.00602947
-0.00605553
-0.00607564
-0.00609024
-0.00609955
-0.00610362
-0.00610225
-0.006095
-0.00608144
-0.00606117
-0.00602971
-0.00597923
0.000245935
0.000232266
0.000218061
0.000202222
0.00018432
0.000164567
0.000143094
0.000119935
9.51e-05
6.8577e-05
4.03297e-05
1.0303e-05
-2.15718e-05
-5.53771e-05
-9.12054e-05
-0.000129161
-0.000169359
-0.000211929
-0.000257017
-0.000304788
-0.000355424
-0.000409131
-0.00046614
-0.000526703
-0.000591096
-0.000659613
-0.000732566
-0.000810274
-0.000893064
-0.000981257
-0.00107516
-0.00117505
-0.00128118
-0.00139373
-0.00151284
-0.00163855
-0.00177082
-0.0019095
-0.00205432
-0.00220489
-0.00236068
-0.00252101
-0.00268506
-0.00285187
-0.00302033
-0.00318919
-0.0033571
-0.00352258
-0.00368408
-0.00383995
-0.00398854
-0.00412813
-0.00425704
-0.00437363
-0.0044763
-0.00456357
-0.00463408
-0.00468661
-0.00472016
-0.0047339
-0.00472726
-0.00469991
-0.00465179
-0.00458317
-0.00449467
-0.00438695
-0.00426129
-0.00411915
-0.0039623
-0.0037928
-0.00361298
-0.0034254
-0.00323285
-0.00303827
-0.00284475
-0.00265546
-0.00247358
-0.00230227
-0.0021446
-0.00200347
-0.00188158
-0.00178135
-0.00170484
-0.00165373
-0.00162929
-0.00163228
-0.00166298
-0.00172116
-0.00180609
-0.00191653
-0.00205078
-0.00220673
-0.00238191
-0.00257352
-0.00277859
-0.00299396
-0.00321643
-0.00344283
-0.00367009
-0.0038953
-0.0041158
-0.00432919
-0.00453343
-0.00472683
-0.00490803
-0.00507609
-0.00523037
-0.00537059
-0.00549678
-0.0056092
-0.00570837
-0.00579498
-0.00586985
-0.00593389
-0.00598807
-0.00603335
-0.00607068
-0.00610091
-0.0061248
-0.00614299
-0.00615593
-0.00616391
-0.006167
-0.00616503
-0.00615756
-0.00614419
-0.00612451
-0.00609426
-0.00604598
0.000295171
0.000276366
0.000258597
0.000240072
0.000219971
0.000198489
0.000175699
0.000151567
0.000126034
9.9023e-05
7.0441e-05
4.01786e-05
8.11685e-06
-2.58733e-05
-6.19281e-05
-0.000100195
-0.000140833
-0.000184019
-0.000229945
-0.000278829
-0.00033091
-0.000386456
-0.000445766
-0.000509165
-0.000577005
-0.000649663
-0.000727534
-0.000811027
-0.000900554
-0.000996521
-0.00109932
-0.00120929
-0.00132676
-0.00145198
-0.0015851
-0.00172622
-0.00187529
-0.00203217
-0.00219657
-0.00236804
-0.00254599
-0.00272967
-0.00291816
-0.00311038
-0.00330511
-0.00350096
-0.00369643
-0.00388988
-0.0040796
-0.0042638
-0.00444062
-0.00460821
-0.00476472
-0.00490833
-0.00503729
-0.00514996
-0.00524481
-0.00532048
-0.00537581
-0.00540983
-0.00542182
-0.00541132
-0.00537813
-0.00532242
-0.00524479
-0.00514526
-0.00502557
-0.00488693
-0.00473101
-0.0045598
-0.00437557
-0.00418087
-0.00397848
-0.00377137
-0.00356268
-0.00335565
-0.00315361
-0.00295986
-0.00277765
-0.00261013
-0.00246024
-0.00233068
-0.00222384
-0.00214174
-0.00208596
-0.00205764
-0.00205739
-0.00208533
-0.00214103
-0.00222355
-0.00233143
-0.00246276
-0.00261524
-0.00278617
-0.00297264
-0.00317149
-0.00337948
-0.00359336
-0.00380992
-0.00402611
-0.00423908
-0.00444627
-0.00464542
-0.00483465
-0.00501243
-0.00517762
-0.00532945
-0.00546749
-0.00559167
-0.00570216
-0.00579943
-0.00588411
-0.00595702
-0.00601907
-0.00607124
-0.00611453
-0.00614991
-0.0061783
-0.00620049
-0.00621717
-0.00622885
-0.00623585
-0.00623828
-0.00623601
-0.00622865
-0.00621581
-0.00619711
-0.00616855
-0.00612315
0.000346443
0.000322107
0.00030053
0.000279152
0.000256731
0.000233423
0.000209241
0.000184063
0.000157749
0.000130149
0.000101102
7.04368e-05
3.79777e-05
3.54345e-06
-3.30537e-05
-7.20111e-05
-0.00011354
-0.00015787
-0.00020525
-0.000255957
-0.0003103
-0.000368622
-0.000431298
-0.000498738
-0.000571386
-0.00064971
-0.000734203
-0.000825371
-0.00092372
-0.00102975
-0.00114393
-0.00126671
-0.00139844
-0.00153944
-0.00168991
-0.00184996
-0.00201955
-0.00219851
-0.00238651
-0.00258305
-0.00278746
-0.0029989
-0.00321632
-0.00343852
-0.00366413
-0.00389162
-0.0041193
-0.00434539
-0.00456798
-0.00478511
-0.00499474
-0.00519485
-0.00538339
-0.00555837
-0.00571786
-0.00586004
-0.00598322
-0.00608586
-0.00616662
-0.00622439
-0.00625826
-0.00626763
-0.00625216
-0.00621175
-0.00614645
-0.00605767
-0.00594563
-0.0058117
-0.00565752
-0.00548499
-0.00529632
-0.00509399
-0.00488078
-0.00465965
-0.00443378
-0.0042065
-0.00398123
-0.00376142
-0.00355054
-0.00335195
-0.00316887
-0.00300432
-0.00286104
-0.00274142
-0.00264745
-0.00258068
-0.00254215
-0.00253238
-0.00255134
-0.00259845
-0.00267261
-0.00277218
-0.00289509
-0.00303883
-0.0032006
-0.00337729
-0.00356568
-0.00376243
-0.00396423
-0.00416788
-0.00437035
-0.00456887
-0.00476095
-0.00494448
-0.00511771
-0.00527929
-0.00542823
-0.00556394
-0.00568618
-0.00579502
-0.00589079
-0.00597407
-0.00604562
-0.00610633
-0.00615716
-0.00619912
-0.00623321
-0.00626037
-0.00628145
-0.00629716
-0.00630807
-0.00631454
-0.00631673
-0.00631455
-0.00630766
-0.00629571
-0.00627835
-0.00625188
-0.00620989
0.000398964
0.000368722
0.000343105
0.000318731
0.000293886
0.000268678
0.000243042
0.000216754
0.000189579
0.000161282
0.000131626
0.000100369
6.72715e-05
3.20932e-05
-5.41271e-06
-4.55027e-05
-8.84458e-05
-0.000134532
-0.000184079
-0.000237437
-0.000294993
-0.000357174
-0.000424448
-0.000497324
-0.000576346
-0.00066209
-0.000755156
-0.000856155
-0.0009657
-0.00108439
-0.00121278
-0.00135139
-0.00150065
-0.00166093
-0.00183245
-0.00201533
-0.00220952
-0.00241483
-0.00263086
-0.00285704
-0.00309261
-0.00333659
-0.00358782
-0.00384494
-0.00410643
-0.00437057
-0.00463551
-0.00489926
-0.00515974
-0.00541478
-0.00566216
-0.00589965
-0.00612499
-0.00633602
-0.0065306
-0.00670672
-0.0068625
-0.00699622
-0.00710636
-0.00719159
-0.00725086
-0.00728338
-0.00728864
-0.00726638
-0.00721664
-0.00714009
-0.00703737
-0.0069096
-0.00675822
-0.00658504
-0.00639216
-0.006182
-0.00595727
-0.00572092
-0.00547614
-0.00522631
-0.00497494
-0.00472564
-0.00448203
-0.00424773
-0.00402625
-0.00382093
-0.00363489
-0.00347093
-0.00333151
-0.00321864
-0.00313386
-0.00307818
-0.00305205
-0.00305537
-0.00308746
-0.00314707
-0.00323245
-0.00334137
-0.00347121
-0.003619
-0.00378155
-0.00395552
-0.00413751
-0.00432419
-0.00451233
-0.00469893
-0.00488128
-0.00505699
-0.00522404
-0.00538081
-0.00552608
-0.00565902
-0.00577918
-0.00588646
-0.00598105
-0.00606339
-0.00613416
-0.00619418
-0.00624438
-0.00628575
-0.00631929
-0.00634594
-0.00636658
-0.00638197
-0.0063927
-0.00639919
-0.00640163
-0.00639998
-0.00639396
-0.00638326
-0.00636756
-0.00634352
-0.00630531
0.000451853
0.000415344
0.00038548
0.000357987
0.000330636
0.000303468
0.000276326
0.000248866
0.000220745
0.000191634
0.000161205
0.000129142
9.51297e-05
5.88601e-05
2.00204e-05
-2.17108e-05
-6.66706e-05
-0.000115221
-0.000167759
-0.000224718
-0.000286578
-0.000353863
-0.000427148
-0.000507051
-0.000594234
-0.00068939
-0.000793237
-0.000906504
-0.00102991
-0.00116416
-0.00130991
-0.00146774
-0.00163815
-0.00182155
-0.00201819
-0.00222817
-0.00245143
-0.00268772
-0.00293658
-0.00319733
-0.0034691
-0.00375078
-0.00404106
-0.0043384
-0.0046411
-0.00494725
-0.00525481
-0.00556158
-0.00586526
-0.00616348
-0.0064538
-0.00673376
-0.00700093
-0.00725289
-0.00748732
-0.00770199
-0.00789482
-0.00806388
-0.00820745
-0.00832402
-0.00841234
-0.00847141
-0.00850055
-0.00849933
-0.00846767
-0.00840586
-0.00831453
-0.00819461
-0.0080474
-0.00787454
-0.00767803
-0.00746017
-0.0072236
-0.00697121
-0.00670619
-0.00643192
-0.00615198
-0.0058701
-0.00559007
-0.00531571
-0.00505083
-0.0047991
-0.00456402
-0.00434886
-0.00415656
-0.00398965
-0.00385024
-0.00373991
-0.00365969
-0.00361005
-0.00359083
-0.00360129
-0.00364013
-0.00370548
-0.003795
-0.00390597
-0.0040353
-0.00417971
-0.00433575
-0.00449997
-0.00466899
-0.00483956
-0.00500872
-0.00517376
-0.00533238
-0.00548263
-0.005623
-0.00575237
-0.00587003
-0.00597563
-0.00606917
-0.00615093
-0.00622143
-0.0062814
-0.00633169
-0.00637323
-0.00640699
-0.00643391
-0.00645488
-0.00647067
-0.0064819
-0.00648902
-0.00649227
-0.00649165
-0.00648693
-0.00647784
-0.00646411
-0.00644274
-0.00640853
0.000504132
0.000461018
0.000426718
0.000396001
0.000366078
0.000336903
0.00030821
0.000279517
0.000250359
0.000220299
0.000188912
0.000155792
0.000120545
8.27845e-05
4.21241e-05
-1.83211e-06
-4.94995e-05
-0.000101325
-0.000157795
-0.00021944
-0.000286846
-0.000360649
-0.000441544
-0.000530276
-0.000627632
-0.000734439
-0.000851542
-0.000979794
-0.00112003
-0.00127307
-0.00143963
-0.00162041
-0.00181594
-0.00202665
-0.00225282
-0.00249453
-0.00275168
-0.00302394
-0.00331076
-0.00361135
-0.00392471
-0.00424956
-0.00458442
-0.00492756
-0.00527708
-0.00563086
-0.00598662
-0.00634197
-0.00669435
-0.00704117
-0.00737976
-0.00770743
-0.0080215
-0.00831934
-0.00859841
-0.00885624
-0.00909056
-0.00929921
-0.00948027
-0.00963203
-0.00975302
-0.00984207
-0.00989827
-0.00992103
-0.00991009
-0.00986554
-0.0097878
-0.00967765
-0.0095362
-0.00936496
-0.00916574
-0.00894074
-0.00869247
-0.00842374
-0.00813767
-0.00783764
-0.00752725
-0.0072103
-0.00689072
-0.00657252
-0.00625975
-0.00595641
-0.00566641
-0.00539344
-0.00514097
-0.00491212
-0.00470958
-0.0045356
-0.00439187
-0.00427952
-0.00419906
-0.00415035
-0.00413266
-0.00414462
-0.00418433
-0.00424937
-0.00433689
-0.00444373
-0.00456649
-0.00470165
-0.00484568
-0.00499511
-0.0051467
-0.00529743
-0.00544465
-0.00558605
-0.00571975
-0.0058443
-0.00595865
-0.00606217
-0.00615458
-0.00623593
-0.00630657
-0.00636705
-0.0064181
-0.00646057
-0.00649537
-0.00652339
-0.0065455
-0.00656247
-0.00657494
-0.00658336
-0.00658802
-0.00658895
-0.00658598
-0.00657887
-0.00656738
-0.00654888
-0.00651877
0.000554721
0.000504686
0.000465784
0.000431757
0.000399209
0.000367989
0.000337702
0.00030771
0.000277412
0.000246247
0.000213686
0.000179221
0.00014237
0.00010266
5.96237e-05
1.27769e-05
-3.8385e-05
-9.44046e-05
-0.000155872
-0.00022343
-0.000297782
-0.000379695
-0.000469998
-0.000569572
-0.00067935
-0.000800298
-0.0009334
-0.00107964
-0.00123997
-0.00141531
-0.0016065
-0.00181425
-0.00203919
-0.00228175
-0.00254219
-0.00282058
-0.00311674
-0.00343026
-0.00376048
-0.00410647
-0.00446706
-0.00484079
-0.00522599
-0.00562072
-0.00602283
-0.00642999
-0.00683967
-0.00724922
-0.00765585
-0.0080567
-0.00844885
-0.00882936
-0.00919532
-0.00954385
-0.00987217
-0.0101776
-0.0104576
-0.0107099
-0.0109323
-0.0111229
-0.01128
-0.0114023
-0.0114886
-0.0115382
-0.0115506
-0.0115258
-0.0114639
-0.0113655
-0.0112317
-0.0110636
-0.010863
-0.0106318
-0.0103725
-0.0100877
-0.00978049
-0.0094541
-0.00911216
-0.00875846
-0.00839704
-0.00803204
-0.00766772
-0.00730838
-0.00695827
-0.00662155