/*--------------------------------*- C++ -*----------------------------------*\
| =========                 |                                                 |
| \\      /  F ield         | OpenFOAM: The Open Source CFD Toolbox           |
|  \\    /   O peration     | Version:  2112                                  |
|   \\  /    A nd           | Website:  www.openfoam.com                      |
|    \\/     M anipulation  |                                                 |
\*---------------------------------------------------------------------------*/
FoamFile
{
    version     2.0;
    format      ascii;
    arch        "LSB;label=32;scalar=64";
    class       surfaceScalarField;
    location    "18";
    object      phi;
}
// * * * * * * * * * * * * * * * * * * * * * * * * * * * * * * * * * * * * * //

dimensions      [0 3 -1 0 0 0 0];

oriented        oriented;

internalField   nonuniform List<scalar> 
33024
(
2.06957e-09
-2.06894e-09
1.89874e-08
-1.69176e-08
4.77104e-08
-2.87235e-08
8.27972e-08
-3.50862e-08
1.2002e-07
-3.72228e-08
1.56415e-07
-3.63943e-08
1.90001e-07
-3.35868e-08
2.19532e-07
-2.95301e-08
2.4427e-07
-2.4739e-08
2.63828e-07
-1.9558e-08
2.78039e-07
-1.42115e-08
2.86873e-07
-8.83385e-09
2.90369e-07
-3.49546e-09
2.88589e-07
1.77923e-09
2.81592e-07
6.99745e-09
2.69404e-07
1.21874e-08
2.52016e-07
1.7388e-08
2.2937e-07
2.26456e-08
2.01363e-07
2.80082e-08
1.67841e-07
3.35213e-08
1.28613e-07
3.92282e-08
8.34458e-08
4.51672e-08
3.20748e-08
5.13709e-08
-2.57921e-08
5.78669e-08
-9.04693e-08
6.46774e-08
-1.62288e-07
7.18188e-08
-2.41591e-07
7.93028e-08
-3.28728e-07
8.71364e-08
-4.24048e-07
9.53205e-08
-5.27898e-07
1.0385e-07
-6.40613e-07
1.12715e-07
-7.62512e-07
1.21899e-07
-8.93888e-07
1.31377e-07
-1.035e-06
1.41117e-07
-1.18608e-06
1.51079e-07
-1.3473e-06
1.61212e-07
-1.51876e-06
1.71459e-07
-1.7005e-06
1.81747e-07
-1.8925e-06
1.91998e-07
-2.09462e-06
2.0212e-07
-2.30663e-06
2.12012e-07
-2.52819e-06
2.21561e-07
-2.75884e-06
2.30645e-07
-2.99797e-06
2.39135e-07
-3.24486e-06
2.4689e-07
-3.49863e-06
2.53765e-07
-3.75824e-06
2.59609e-07
-4.02251e-06
2.64267e-07
-4.29009e-06
2.67581e-07
-4.55948e-06
2.69396e-07
-4.82904e-06
2.69558e-07
-5.09696e-06
2.6792e-07
-5.3613e-06
2.64341e-07
-5.62e-06
2.58694e-07
-5.87086e-06
2.50864e-07
-6.11161e-06
2.40754e-07
-6.3399e-06
2.28288e-07
-6.55331e-06
2.13413e-07
-6.74941e-06
1.96099e-07
-6.92576e-06
1.76348e-07
-7.07996e-06
1.54194e-07
-7.20966e-06
1.297e-07
-7.31262e-06
1.02966e-07
-7.38675e-06
7.41295e-08
-7.43012e-06
4.33731e-08
-7.44108e-06
1.09594e-08
-7.41801e-06
-2.30735e-08
-7.3598e-06
-5.82056e-08
-7.26559e-06
-9.42167e-08
-7.13483e-06
-1.30755e-07
-6.96739e-06
-1.67445e-07
-6.7635e-06
-2.03891e-07
-6.52382e-06
-2.39676e-07
-6.24945e-06
-2.74374e-07
-5.94189e-06
-3.07553e-07
-5.60311e-06
-3.38784e-07
-5.23546e-06
-3.67647e-07
-4.84172e-06
-3.93741e-07
-4.42503e-06
-4.16694e-07
-3.98886e-06
-4.36167e-07
-3.53699e-06
-4.51865e-07
-3.07345e-06
-4.63544e-07
-2.60243e-06
-4.71019e-07
-2.12826e-06
-4.74168e-07
-1.65533e-06
-4.72938e-07
-1.18798e-06
-4.67347e-07
-7.30496e-07
-4.57483e-07
-2.86987e-07
-4.43509e-07
1.38671e-07
-4.25657e-07
5.42894e-07
-4.04223e-07
9.22447e-07
-3.79554e-07
1.2745e-06
-3.52058e-07
1.59668e-06
-3.22178e-07
1.88707e-06
-2.90388e-07
2.14425e-06
-2.57182e-07
2.36731e-06
-2.2306e-07
2.55583e-06
-1.88516e-07
2.70986e-06
-1.54031e-07
2.82992e-06
-1.20057e-07
2.91693e-06
-8.70125e-08
2.9722e-06
-5.52715e-08
2.99736e-06
-2.51588e-08
2.9943e-06
3.05647e-09
2.96514e-06
2.9159e-08
2.91215e-06
5.29947e-08
2.83769e-06
7.44637e-08
2.74417e-06
9.35216e-08
2.63399e-06
1.10175e-07
2.50952e-06
1.24474e-07
2.37301e-06
1.36509e-07
2.22661e-06
1.46401e-07
2.07231e-06
1.54293e-07
1.91198e-06
1.60338e-07
1.74728e-06
1.64691e-07
1.57979e-06
1.67494e-07
1.41093e-06
1.6886e-07
1.24207e-06
1.68857e-07
1.07458e-06
1.67492e-07
9.099e-07
1.64682e-07
7.4966e-07
1.60239e-07
5.95819e-07
1.53842e-07
4.50805e-07
1.45014e-07
3.17694e-07
1.33112e-07
2.00359e-07
1.17335e-07
1.03544e-07
9.68155e-08
3.26182e-08
7.09252e-08
-7.42155e-09
4.00393e-08
-1.51054e-08
7.68302e-09
-1.5106e-08
1.69532e-08
-1.90219e-08
6.31957e-08
-6.31608e-08
1.30014e-07
-9.55416e-08
2.08453e-07
-1.13526e-07
2.9064e-07
-1.19409e-07
3.7035e-07
-1.16105e-07
4.43e-07
-1.06236e-07
5.05396e-07
-9.19267e-08
5.55437e-07
-7.47795e-08
5.91824e-07
-5.59439e-08
6.13813e-07
-3.62015e-08
6.21026e-07
-1.60462e-08
6.13295e-07
4.23515e-09
5.90546e-07
2.4528e-08
5.52718e-07
4.48266e-08
4.99705e-07
6.51996e-08
4.31326e-07
8.57669e-08
3.47297e-07
1.06674e-07
2.47229e-07
1.28077e-07
1.30623e-07
1.50127e-07
-3.11604e-09
1.72968e-07
-1.54675e-07
1.96726e-07
-3.24816e-07
2.21512e-07
-5.14362e-07
2.47413e-07
-7.24183e-07
2.74498e-07
-9.55179e-07
3.02815e-07
-1.20826e-06
3.32389e-07
-1.48436e-06
3.63228e-07
-1.78435e-06
3.95314e-07
-2.10911e-06
4.28608e-07
-2.45944e-06
4.63045e-07
-2.83608e-06
4.98536e-07
-3.23966e-06
5.34961e-07
-3.67071e-06
5.7217e-07
-4.12961e-06
6.0998e-07
-4.61658e-06
6.48174e-07
-5.13161e-06
6.86497e-07
-5.67452e-06
7.24657e-07
-6.24485e-06
7.62327e-07
-6.84187e-06
7.99139e-07
-7.46455e-06
8.3469e-07
-8.11153e-06
8.68543e-07
-8.78112e-06
9.00229e-07
-9.47123e-06
9.29252e-07
-1.01794e-05
9.55093e-07
-1.09029e-05
9.77213e-07
-1.16383e-05
9.95063e-07
-1.23822e-05
1.00809e-06
-1.31303e-05
1.01575e-06
-1.38784e-05
1.01749e-06
-1.46217e-05
1.01281e-06
-1.5355e-05
1.00121e-06
-1.60729e-05
9.82254e-07
-1.67697e-05
9.55544e-07
-1.74396e-05
9.20745e-07
-1.80764e-05
8.77593e-07
-1.86741e-05
8.25902e-07
-1.92262e-05
7.65577e-07
-1.97267e-05
6.96617e-07
-2.01695e-05
6.19125e-07
-2.05486e-05
5.33317e-07
-2.08585e-05
4.39519e-07
-2.10937e-05
3.38179e-07
-2.12494e-05
2.29861e-07
-2.13212e-05
1.15219e-07
-2.13058e-05
-4.45185e-09
-2.11994e-05
-1.2947e-07
-2.10001e-05
-2.57576e-07
-2.07062e-05
-3.88113e-07
-2.03171e-05
-5.19833e-07
-1.98331e-05
-6.51432e-07
-1.92554e-05
-7.81548e-07
-1.85863e-05
-9.08776e-07
-1.7829e-05
-1.03168e-06
-1.69878e-05
-1.14883e-06
-1.60678e-05
-1.2588e-06
-1.50752e-05
-1.36022e-06
-1.40172e-05
-1.45177e-06
-1.29016e-05
-1.53225e-06
-1.17372e-05
-1.60057e-06
-1.05333e-05
-1.65575e-06
-9.29982e-06
-1.69703e-06
-8.04704e-06
-1.7238e-06
-6.78555e-06
-1.73566e-06
-5.52606e-06
-1.73243e-06
-4.27925e-06
-1.71416e-06
-3.05562e-06
-1.68112e-06
-1.8653e-06
-1.63383e-06
-7.17938e-07
-1.57302e-06
3.77458e-07
-1.49962e-06
1.41268e-06
-1.41478e-06
2.3804e-06
-1.31978e-06
3.27432e-06
-1.21609e-06
4.08919e-06
-1.10526e-06
4.82093e-06
-9.88917e-07
5.4666e-06
-8.68734e-07
6.02447e-06
-7.46384e-07
6.49394e-06
-6.23507e-07
6.87556e-06
-5.01673e-07
7.1709e-06
-3.82352e-07
7.38251e-06
-2.66886e-07
7.51382e-06
-1.56464e-07
7.56898e-06
-5.21055e-08
7.55279e-06
4.53512e-08
7.47052e-06
1.35261e-07
7.32782e-06
2.17165e-07
7.13055e-06
2.9079e-07
6.88469e-06
3.56038e-07
6.59619e-06
4.12969e-07
6.27092e-06
4.61784e-07
5.91452e-06
5.02796e-07
5.53241e-06
5.36399e-07
5.12971e-06
5.63038e-07
4.71124e-06
5.83163e-07
4.28155e-06
5.97188e-07
3.84497e-06
6.05439e-07
3.40573e-06
6.08093e-07
2.9681e-06
6.05128e-07
2.53653e-06
5.9625e-07
2.11593e-06
5.80838e-07
1.71188e-06
5.57891e-07
1.33089e-06
5.26002e-07
9.8062e-07
4.83385e-07
6.6993e-07
4.28025e-07
4.08662e-07
3.58084e-07
2.06724e-07
2.72863e-07
7.21733e-08
1.74591e-07
7.86251e-09
7.19947e-08
-7.24359e-09
2.90389e-08
-4.80612e-08
9.60868e-08
-1.30208e-07
1.87207e-07
-1.86662e-07
2.90766e-07
-2.17084e-07
3.96878e-07
-2.25522e-07
4.97579e-07
-2.16805e-07
5.86772e-07
-1.9543e-07
6.60014e-07
-1.65168e-07
7.14202e-07
-1.28968e-07
7.47274e-07
-8.90164e-08
7.57916e-07
-4.68427e-08
7.45308e-07
-3.43814e-09
7.08954e-07
4.0589e-08
6.48487e-07
8.49949e-08
5.63585e-07
1.29729e-07
4.53875e-07
1.74909e-07
3.18887e-07
2.20756e-07
1.58017e-07
2.67545e-07
-2.94817e-08
3.15575e-07
-2.44498e-07
3.65143e-07
-4.88057e-07
4.16527e-07
-7.61301e-07
4.69971e-07
-1.06547e-06
5.25683e-07
-1.40189e-06
5.83828e-07
-1.77191e-06
6.44524e-07
-2.17694e-06
7.07845e-07
-2.61837e-06
7.73818e-07
-3.09756e-06
8.42419e-07
-3.61582e-06
9.13576e-07
-4.17438e-06
9.87163e-07
-4.77433e-06
1.063e-06
-5.41664e-06
1.14084e-06
-6.10206e-06
1.22038e-06
-6.83115e-06
1.30125e-06
-7.60417e-06
1.383e-06
-8.42111e-06
1.46512e-06
-9.28161e-06
1.54699e-06
-1.01849e-05
1.62795e-06
-1.11298e-05
1.70724e-06
-1.21147e-05
1.78404e-06
-1.31375e-05
1.85744e-06
-1.41954e-05
1.92649e-06
-1.52853e-05
1.99016e-06
-1.64035e-05
2.04738e-06
-1.75454e-05
2.09704e-06
-1.87062e-05
2.13801e-06
-1.98803e-05
2.16917e-06
-2.10616e-05
2.18937e-06
-2.22434e-05
2.19751e-06
-2.34184e-05
2.19254e-06
-2.45791e-05
2.17344e-06
-2.57172e-05
2.13931e-06
-2.68242e-05
2.08933e-06
-2.78915e-05
2.02281e-06
-2.89099e-05
1.93918e-06
-2.98704e-05
1.83806e-06
-3.07637e-05
1.71923e-06
-3.15808e-05
1.58264e-06
-3.23127e-05
1.42848e-06
-3.29506e-05
1.25711e-06
-3.34865e-05
1.06916e-06
-3.39124e-05
8.65438e-07
-3.42212e-05
6.4702e-07
-3.44066e-05
4.15199e-07
-3.44629e-05
1.7152e-07
-3.43851e-05
-8.22394e-08
-3.41701e-05
-3.44494e-07
-3.3815e-05
-6.12687e-07
-3.33184e-05
-8.84632e-07
-3.26804e-05
-1.15788e-06
-3.1902e-05
-1.42984e-06
-3.09857e-05
-1.69781e-06
-2.99355e-05
-1.95903e-06
-2.87564e-05
-2.21072e-06
-2.74552e-05
-2.45008e-06
-2.60396e-05
-2.6744e-06
-2.45188e-05
-2.88102e-06
-2.29031e-05
-3.06746e-06
-2.1204e-05
-3.23138e-06
-1.94338e-05
-3.37072e-06
-1.76059e-05
-3.48364e-06
-1.57343e-05
-3.56865e-06
-1.38335e-05
-3.62459e-06
-1.19185e-05
-3.6507e-06
-1.00043e-05
-3.6466e-06
-8.1061e-06
-3.61236e-06
-6.23875e-06
-3.54847e-06
-4.41672e-06
-3.45585e-06
-2.65387e-06
-3.33586e-06
-9.63237e-07
-3.19026e-06
6.4315e-07
-3.02116e-06
2.15441e-06
-2.83104e-06
3.56097e-06
-2.62265e-06
4.85469e-06
-2.39898e-06
6.02895e-06
-2.16317e-06
7.0787e-06
-1.91849e-06
8.00054e-06
-1.66822e-06
8.79266e-06
-1.41562e-06
9.45484e-06
-1.16385e-06
9.98838e-06
-9.15895e-07
1.0396e-05
-6.74524e-07
1.06818e-05
-4.42235e-07
1.08509e-05
-2.21215e-07
1.09096e-05
-1.33118e-08
1.08648e-05
1.8e-07
1.07244e-05
3.57595e-07
1.04965e-05
5.18726e-07
1.01895e-05
6.6299e-07
9.81217e-06
7.90309e-07
9.37306e-06
9.00891e-07
8.88067e-06
9.95183e-07
8.34326e-06
1.07381e-06
7.76878e-06
1.13752e-06
7.16487e-06
1.18707e-06
6.53888e-06
1.22318e-06
5.8979e-06
1.24641e-06
5.24895e-06
1.25705e-06
4.59907e-06
1.25501e-06
3.9556e-06
1.23972e-06
3.32639e-06
1.21004e-06
2.72012e-06
1.16417e-06
2.14648e-06
1.09964e-06
1.6164e-06
1.01347e-06
1.14193e-06
9.02494e-07
7.35887e-07
7.64124e-07
4.1084e-07
5.97909e-07
1.77335e-07
4.08096e-07
4.11472e-08
2.08182e-07
3.39038e-08
3.56449e-08
-8.37057e-08
1.1433e-07
-2.08894e-07
2.17588e-07
-2.8992e-07
3.31419e-07
-3.30915e-07
4.44542e-07
-3.38645e-07
5.47996e-07
-3.20259e-07
6.34866e-07
-2.823e-07
6.99989e-07
-2.3029e-07
7.39636e-07
-1.68616e-07
7.51196e-07
-1.00576e-07
7.32878e-07
-2.85239e-08
6.83457e-07
4.59826e-08
6.02033e-07
1.22013e-07
4.87897e-07
1.99131e-07
3.40369e-07
2.77256e-07
1.58717e-07
3.56561e-07
-5.79069e-08
4.3738e-07
-3.105e-07
5.20138e-07
-6.00226e-07
6.05301e-07
-9.28411e-07
6.93329e-07
-1.29653e-06
7.84648e-07
-1.7062e-06
8.79634e-07
-2.15911e-06
9.78597e-07
-2.65705e-06
1.08177e-06
-3.20184e-06
1.18931e-06
-3.79529e-06
1.3013e-06
-4.43919e-06
1.41771e-06
-5.13524e-06
1.53847e-06
-5.88503e-06
1.66337e-06
-6.69001e-06
1.79214e-06
-7.5514e-06
1.92439e-06
-8.47018e-06
2.05963e-06
-9.44705e-06
2.19725e-06
-1.04823e-05
2.33654e-06
-1.1576e-05
2.47665e-06
-1.27275e-05
2.6166e-06
-1.39358e-05
2.75529e-06
-1.51993e-05
2.89149e-06
-1.65159e-05
3.02384e-06
-1.78827e-05
3.15088e-06
-1.92963e-05
3.27102e-06
-2.07524e-05
3.38258e-06
-2.2246e-05
3.4838e-06
-2.37715e-05
3.57288e-06
-2.53225e-05
3.64795e-06
-2.68916e-05
3.70715e-06
-2.8471e-05
3.7486e-06
-3.00522e-05
3.77051e-06
-3.16258e-05
3.77112e-06
-3.3182e-05
3.74878e-06
-3.47105e-05
3.70198e-06
-3.62006e-05
3.62938e-06
-3.76411e-05
3.52981e-06
-3.90206e-05
3.40236e-06
-4.03278e-05
3.24633e-06
-4.1551e-05
3.06132e-06
-4.2679e-05
2.84722e-06
-4.37006e-05
2.60423e-06
-4.4605e-05
2.33289e-06
-4.5382e-05
2.03408e-06
-4.60219e-05
1.70902e-06
-4.65157e-05
1.35929e-06
-4.68555e-05
9.8682e-07
-4.70342e-05
5.93897e-07
-4.70459e-05
1.8319e-07
-4.68855e-05
-2.42607e-07
-4.65498e-05
-6.8018e-07
-4.60366e-05
-1.12593e-06
-4.5345e-05
-1.57618e-06
-4.44759e-05
-2.027e-06
-4.34315e-05
-2.47428e-06
-4.22155e-05
-2.91378e-06
-4.08333e-05
-3.34121e-06
-3.92918e-05
-3.75223e-06
-3.75993e-05
-4.14253e-06
-3.57658e-05
-4.50793e-06
-3.38025e-05
-4.84436e-06
-3.17219e-05
-5.148e-06
-2.9538e-05
-5.41529e-06
-2.72657e-05
-5.64305e-06
-2.49208e-05
-5.82849e-06
-2.25202e-05
-5.96928e-06
-2.00812e-05
-6.06364e-06
-1.76215e-05
-6.11033e-06
-1.51594e-05
-6.10875e-06
-1.27128e-05
-6.0589e-06
-1.02998e-05
-5.96148e-06
-7.93788e-06
-5.81781e-06
-5.64389e-06
-5.62986e-06
-3.4339e-06
-5.40025e-06
-1.3229e-06
-5.13216e-06
6.75364e-07
-4.82931e-06
2.54859e-06
-4.49588e-06
4.28606e-06
-4.13645e-06
5.87876e-06
-3.75587e-06
7.3195e-06
-3.35923e-06
8.60295e-06
-2.95168e-06
9.7257e-06
-2.53838e-06
1.06862e-05
-2.12438e-06
1.14849e-05
-1.71452e-06
1.21237e-05
-1.31336e-06
1.26065e-05
-9.25046e-07
1.29386e-05
-5.53288e-07
1.31266e-05
-2.01289e-07
1.31783e-05
1.28297e-07
1.31025e-05
4.3338e-07
1.29088e-05
7.12441e-07
1.26072e-05
9.64518e-07
1.22084e-05
1.18917e-06
1.17228e-05
1.38642e-06
1.11613e-05
1.5567e-06
1.05344e-05
1.70076e-06
9.85237e-06
1.81952e-06
9.12541e-06
1.91403e-06
8.36335e-06
1.98525e-06
7.57582e-06
2.03393e-06
6.7724e-06
2.06047e-06
5.96272e-06
2.06469e-06
5.15669e-06
2.04575e-06
4.36477e-06
2.00196e-06
3.59818e-06
1.93075e-06
2.86914e-06
1.82868e-06
2.19096e-06
1.69165e-06
1.57799e-06
1.51547e-06
1.04528e-06
1.29684e-06
6.07889e-07
1.03529e-06
2.7995e-07
7.36035e-07
7.3666e-08
4.14467e-07
1.0757e-07
3.77945e-08
-1.215e-07
1.19468e-07
-2.90566e-07
2.23646e-07
-3.94099e-07
3.34577e-07
-4.41846e-07
4.40021e-07
-4.4409e-07
5.30455e-07
-4.10694e-07
5.9857e-07
-3.50414e-07
6.38853e-07
-2.70574e-07
6.47236e-07
-1.76999e-07
6.20762e-07
-7.41022e-08
5.57284e-07
3.49541e-08
4.55207e-07
1.4806e-07
3.13262e-07
2.63958e-07
1.30342e-07
3.8205e-07
-9.46376e-08
5.02236e-07
-3.62831e-07
6.24755e-07
-6.75526e-07
7.50074e-07
-1.03417e-06
8.78786e-07
-1.4404e-06
1.01153e-06
-1.89601e-06
1.14894e-06
-2.40295e-06
1.29159e-06
-2.96329e-06
1.43998e-06
-3.5792e-06
1.5945e-06
-4.25288e-06
1.75545e-06
-4.98655e-06
1.92298e-06
-5.78239e-06
2.09713e-06
-6.64247e-06
2.2778e-06
-7.56874e-06
2.46474e-06
-8.56294e-06
2.65758e-06
-9.62659e-06
2.85578e-06
-1.07609e-05
3.05866e-06
-1.19666e-05
3.26536e-06
-1.32442e-05
3.47484e-06
-1.45935e-05
3.6859e-06
-1.6014e-05
3.89713e-06
-1.75044e-05
4.10695e-06
-1.90627e-05
4.31357e-06
-2.06862e-05
4.51505e-06
-2.23716e-05
4.70924e-06
-2.41146e-05
4.89386e-06
-2.59101e-05
5.06648e-06
-2.7752e-05
5.22453e-06
-2.96336e-05
5.36539e-06
-3.15471e-05
5.48635e-06
-3.34838e-05
5.5847e-06
-3.54344e-05
5.65772e-06
-3.73886e-05
5.70278e-06
-3.93354e-05
5.71733e-06
-4.12633e-05
5.69897e-06
-4.316e-05
5.6455e-06
-4.50129e-05
5.55493e-06
-4.68091e-05
5.42558e-06
-4.85354e-05
5.25605e-06
-5.01783e-05
5.04531e-06
-5.17247e-05
4.79271e-06
-5.31614e-05
4.49801e-06
-5.44756e-05
4.16141e-06
-5.56549e-05
3.78357e-06
-5.66876e-05
3.36559e-06
-5.75626e-05
2.90906e-06
-5.82697e-05
2.41606e-06
-5.87995e-05
1.88912e-06
-5.91439e-05
1.33124e-06
-5.92959e-05
7.45896e-07
-5.92499e-05
1.37146e-07
-5.90011e-05
-4.91391e-07
-5.85468e-05
-1.13448e-06
-5.78855e-05
-1.78724e-06
-5.70172e-05
-2.44444e-06
-5.59437e-05
-3.10057e-06
-5.4668e-05
-3.74991e-06
-5.31952e-05
-4.38661e-06
-5.15317e-05
-5.00475e-06
-4.96855e-05
-5.59838e-06
-4.76664e-05
-6.16165e-06
-4.54855e-05
-6.68882e-06
-4.31555e-05
-7.17438e-06
-4.06904e-05
-7.6131e-06
-3.81055e-05
-8.00017e-06
-3.54174e-05
-8.3312e-06
-3.26435e-05
-8.60237e-06
-2.98023e-05
-8.81048e-06
-2.69129e-05
-8.95301e-06
-2.3995e-05
-9.0282e-06
-2.10687e-05
-9.03511e-06
-1.8154e-05
-8.97362e-06
-1.52709e-05
-8.84451e-06
-1.24393e-05
-8.64945e-06
-9.67818e-06
-8.39097e-06
-7.00597e-06
-8.07246e-06
-4.43999e-06
-7.69814e-06
-1.99635e-06
-7.27295e-06
3.10277e-07
-6.80251e-06
2.46685e-06
-6.29302e-06
4.46209e-06
-5.75111e-06
6.28662e-06
-5.18376e-06
7.93307e-06
-4.59813e-06
9.39616e-06
-4.00146e-06
1.06727e-05
-3.40088e-06
1.17614e-05
-2.8033e-06
1.26634e-05
-2.21532e-06
1.33814e-05
-1.64303e-06
1.392e-05
-1.09194e-06
1.42857e-05
-5.66932e-07
1.44861e-05
-7.21406e-08
1.45304e-05
3.89063e-07
1.44288e-05
8.14088e-07
1.41922e-05
1.20112e-06
1.38323e-05
1.54909e-06
1.33611e-05
1.85759e-06
1.2791e-05
2.12682e-06
1.21343e-05
2.35745e-06
1.14033e-05
2.55047e-06
1.06103e-05
2.70702e-06
9.76734e-06
2.82824e-06
8.88626e-06
2.91502e-06
7.97894e-06
2.96778e-06
7.05735e-06
2.98628e-06
6.1337e-06
2.9694e-06
5.22068e-06
2.91498e-06
4.3317e-06
2.81974e-06
3.48103e-06
2.67935e-06
2.68395e-06
2.48873e-06
1.95674e-06
2.24267e-06
1.3166e-06
1.93698e-06
7.81432e-07
1.57047e-06
3.69785e-07
1.14768e-06
1.01382e-07
6.82869e-07
2.08952e-07
3.65166e-08
-1.58017e-07
1.13641e-07
-3.67691e-07
2.08669e-07
-4.89126e-07
3.04888e-07
-5.38065e-07
3.89566e-07
-5.28767e-07
4.5297e-07
-4.74097e-07
4.87694e-07
-3.85138e-07
4.88149e-07
-2.71029e-07
4.50147e-07
-1.38996e-07
3.70547e-07
5.49639e-09
2.46963e-07
1.58539e-07
7.7493e-08
3.1753e-07
-1.39484e-07
4.80934e-07
-4.05476e-07
6.48042e-07
-7.22003e-07
8.18763e-07
-1.09069e-06
9.93438e-07
-1.5133e-06
1.17268e-06
-1.99178e-06
1.35727e-06
-2.52827e-06
1.54802e-06
-3.12507e-06
1.74573e-06
-3.7846e-06
1.95112e-06
-4.50942e-06
2.16479e-06
-5.30211e-06
2.3872e-06
-6.16529e-06
2.61863e-06
-7.1015e-06
2.8592e-06
-8.1132e-06
3.10884e-06
-9.2027e-06
3.36729e-06
-1.0372e-05
3.63408e-06
-1.1623e-05
3.90854e-06
-1.2957e-05
4.18978e-06
-1.4375e-05
4.47668e-06
-1.58775e-05
4.76788e-06
-1.74645e-05
5.06178e-06
-1.91351e-05
5.35652e-06
-2.08879e-05
5.64997e-06
-2.27208e-05
5.93978e-06
-2.46305e-05
6.22333e-06
-2.66132e-05
6.49775e-06
-2.8664e-05
6.75998e-06
-3.07768e-05
7.00674e-06
-3.2945e-05
7.23461e-06
-3.51605e-05
7.44005e-06
-3.74145e-05
7.61941e-06
-3.96972e-05
7.76903e-06
-4.19978e-05
7.88528e-06
-4.43046e-05
7.96458e-06
-4.66054e-05
8.00352e-06
-4.88869e-05
7.99884e-06
-5.11355e-05
7.94757e-06
-5.3337e-05
7.84703e-06
-5.5477e-05
7.6949e-06
-5.75407e-05
7.48928e-06
-5.95134e-05
7.22873e-06
-6.13803e-05
6.91228e-06
-6.31272e-05
6.53953e-06
-6.47398e-05
6.11061e-06
-6.62046e-05
5.62623e-06
-6.75087e-05
5.0877e-06
-6.864e-05
4.49691e-06
-6.95873e-05
3.85635e-06
-7.03404e-05
3.1691e-06
-7.08901e-05
2.43883e-06
-7.12285e-05
1.66973e-06
-7.13492e-05
8.66505e-07
-7.12471e-05
3.50875e-08
-7.09178e-05
-8.20646e-07
-7.03595e-05
-1.69277e-06
-6.95714e-05
-2.57542e-06
-6.85541e-05
-3.46174e-06
-6.731e-05
-4.3446e-06
-6.58432e-05
-5.21671e-06
-6.41593e-05
-6.07058e-06
-6.22653e-05
-6.89869e-06
-6.01702e-05
-7.69351e-06
-5.78843e-05
-8.4476e-06
-5.54194e-05
-9.1537e-06
-5.27889e-05
-9.80482e-06
-5.00077e-05
-1.03944e-05
-4.70917e-05
-1.09161e-05
-4.40583e-05
-1.13646e-05
-4.0926e-05
-1.17347e-05
-3.7714e-05
-1.20225e-05
-3.44425e-05
-1.22245e-05
-3.11324e-05
-1.23383e-05
-2.7805e-05
-1.23625e-05
-2.44818e-05
-1.22969e-05
-2.11842e-05
-1.21421e-05
-1.79337e-05
-1.19e-05
-1.47512e-05
-1.15735e-05
-1.16568e-05
-1.11668e-05
-8.66989e-06
-1.0685e-05
-5.80866e-06
-1.01342e-05
-3.08989e-06
-9.52128e-06
-5.2882e-07
-8.85409e-06
1.8611e-06
-8.14103e-06
4.0683e-06
-7.39096e-06
6.08329e-06
-6.61312e-06
7.89872e-06
-5.81688e-06
9.50942e-06
-5.01158e-06
1.09125e-05
-4.20636e-06
1.21072e-05
-3.41003e-06
1.3095e-05
-2.63084e-06
1.38794e-05
-1.87637e-06
1.44659e-05
-1.15341e-06
1.48616e-05
-4.67865e-07
1.50754e-05
1.75301e-07
1.51173e-05
7.72138e-07
1.49988e-05
1.31968e-06
1.47319e-05
1.81593e-06
1.43297e-05
2.2598e-06
1.38056e-05
2.65097e-06
1.31732e-05
2.98981e-06
1.24465e-05
3.27716e-06
1.16394e-05
3.51412e-06
1.07658e-05
3.70184e-06
9.83961e-06
3.84123e-06
8.87468e-06
3.93272e-06
7.88502e-06
3.97594e-06
6.8849e-06
3.96953e-06
5.88899e-06
3.91089e-06
4.9126e-06
3.79613e-06
3.97182e-06
3.62013e-06
3.08371e-06
3.37684e-06
2.26646e-06
3.05992e-06
1.5395e-06
2.66394e-06
9.23854e-07
2.18611e-06
4.42792e-07
1.62874e-06
1.23307e-07
1.00235e-06
3.32258e-07
3.25829e-08
-1.906e-07
9.87635e-08
-4.33871e-07
1.75751e-07
-5.66114e-07
2.46671e-07
-6.08984e-07
2.98797e-07
-5.80893e-07
3.22526e-07
-4.97827e-07
3.10626e-07
-3.73238e-07
2.57642e-07
-2.18045e-07
1.59445e-07
-4.07987e-08
1.28531e-08
1.52088e-07
-1.84668e-07
3.5606e-07
-4.35265e-07
5.68127e-07
-7.40885e-07
7.86555e-07
-1.10344e-06
1.01059e-06
-1.52489e-06
1.24022e-06
-2.00736e-06
1.47591e-06
-2.55314e-06
1.71846e-06
-3.1647e-06
1.96883e-06
-3.8447e-06
2.22802e-06
-4.59595e-06
2.49698e-06
-5.42138e-06
2.77655e-06
-6.32399e-06
3.0674e-06
-7.30677e-06
3.36998e-06
-8.37268e-06
3.68454e-06
-9.52456e-06
4.01108e-06
-1.07651e-05
4.34934e-06
-1.20966e-05
4.69881e-06
-1.35212e-05
5.05869e-06
-1.50406e-05
5.42789e-06
-1.66558e-05
5.80505e-06
-1.83676e-05
6.18846e-06
-2.01758e-05
6.57613e-06
-2.20798e-05
6.96571e-06
-2.40778e-05
7.35453e-06
-2.61674e-05
7.73961e-06
-2.83453e-05
8.11761e-06
-3.06069e-05
8.48493e-06
-3.29467e-05
8.83764e-06
-3.53584e-05
9.17159e-06
-3.7834e-05
9.48241e-06
-4.0365e-05
9.76558e-06
-4.29414e-05
1.00165e-05
-4.55524e-05
1.02304e-05
-4.8186e-05
1.04026e-05
-5.08294e-05
1.05287e-05
-5.34691e-05
1.06043e-05
-5.60907e-05
1.06251e-05
-5.86793e-05
1.05874e-05
-6.12194e-05
1.04877e-05
-6.36953e-05
1.0323e-05
-6.60913e-05
1.00909e-05
-6.83914e-05
9.78936e-06
-7.05799e-05
9.41718e-06
-7.26412e-05
8.97366e-06
-7.45605e-05
8.45882e-06
-7.63233e-05
7.87338e-06
-7.79158e-05
7.21874e-06
-7.93251e-05
6.49705e-06
-8.05394e-05
5.71112e-06
-8.15475e-05
4.8645e-06
-8.23398e-05
3.96137e-06
-8.29076e-05
3.00661e-06
-8.32435e-05
2.00568e-06
-8.33417e-05
9.64673e-07
-8.31971e-05
-1.09466e-07
-8.28071e-05
-1.21069e-06
-8.21695e-05
-2.33033e-06
-8.12842e-05
-3.46072e-06
-8.01524e-05
-4.59354e-06
-7.87769e-05
-5.72013e-06
-7.7162e-05
-6.83164e-06
-7.53135e-05
-7.91904e-06
-7.3239e-05
-8.97324e-06
-7.09473e-05
-9.98518e-06
-6.8449e-05
-1.09459e-05
-6.57562e-05
-1.18465e-05
-6.28823e-05
-1.26787e-05
-5.98423e-05
-1.34344e-05
-5.66524e-05
-1.4106e-05
-5.33303e-05
-1.46867e-05
-4.98947e-05
-1.51703e-05
-4.63655e-05
-1.55518e-05
-4.27633e-05
-1.58266e-05
-3.91097e-05
-1.59919e-05
-3.54268e-05
-1.60454e-05
-3.17372e-05
-1.59865e-05
-2.80635e-05
-1.58157e-05
-2.44284e-05
-1.5535e-05
-2.08544e-05
-1.51476e-05
-1.73632e-05
-1.4658e-05
-1.3976e-05
-1.40722e-05
-1.07128e-05
-1.33973e-05
-7.59253e-06
-1.26416e-05
-4.63249e-06
-1.18141e-05
-1.84832e-06
-1.09252e-05
7.46219e-07
-9.9855e-06
3.13943e-06
-9.00633e-06
5.32177e-06
-7.99923e-06
7.28601e-06
-6.97582e-06
9.02716e-06
-5.94751e-06
1.05427e-05
-4.92558e-06
1.18324e-05
-3.92053e-06
1.28982e-05
-2.9422e-06
1.37444e-05
-1.99956e-06
1.4377e-05
-1.10052e-06
1.48042e-05
-2.51902e-07
1.50357e-05
5.40692e-07
1.50825e-05
1.27286e-06
1.49571e-05
1.94138e-06
1.46727e-05
2.54417e-06
1.42435e-05
3.08016e-06
1.36842e-05
3.54915e-06
1.30098e-05
3.95157e-06
1.22356e-05
4.28829e-06
1.13771e-05
4.56032e-06
1.04499e-05
4.76845e-06
9.46959e-06
4.91302e-06
8.45201e-06
4.99351e-06
7.41324e-06
5.0083e-06
6.36974e-06
4.95439e-06
5.33854e-06
4.82733e-06
4.33746e-06
4.62122e-06
3.38529e-06
4.329e-06
2.50215e-06
3.94307e-06
1.70982e-06
3.45627e-06
1.0325e-06
2.86343e-06
4.97965e-07
2.16328e-06
1.39496e-07
1.36082e-06
4.71755e-07
2.65427e-08
-2.17142e-07
7.63487e-08
-4.83678e-07
1.27473e-07
-6.17238e-07
1.63592e-07
-6.45103e-07
1.72481e-07
-5.89782e-07
1.45019e-07
-4.70365e-07
7.43989e-08
-3.02618e-07
-4.44969e-08
-9.91499e-08
-2.15587e-07
1.30292e-07
-4.41979e-07
3.78481e-07
-7.26278e-07
6.40358e-07
-1.07082e-06
9.12665e-07
-1.47785e-06
1.19359e-06
-1.94968e-06
1.48242e-06
-2.48874e-06
1.77928e-06
-3.09765e-06
2.08483e-06
-3.77925e-06
2.40006e-06
-4.53656e-06
2.72614e-06
-5.37278e-06
3.06424e-06
-6.29124e-06
3.41544e-06
-7.29534e-06
3.78066e-06
-8.38852e-06
4.16058e-06
-9.57415e-06
4.5556e-06
-1.08555e-05
4.96586e-06
-1.22355e-05
5.39113e-06
-1.37171e-05
5.83089e-06
-1.53025e-05
6.28425e-06
-1.69938e-05
6.74995e-06
-1.87922e-05
7.22637e-06
-2.06987e-05
7.71151e-06
-2.27132e-05
8.20294e-06
-2.48349e-05
8.69785e-06
-2.70622e-05
9.19301e-06
-2.93924e-05
9.68477e-06
-3.18219e-05
1.01691e-05
-3.43459e-05
1.06415e-05
-3.69583e-05
1.10974e-05
-3.96521e-05
1.15314e-05
-4.24189e-05
1.19384e-05
-4.52493e-05
1.23128e-05
-4.81325e-05
1.26488e-05
-5.10567e-05
1.29407e-05
-5.40092e-05
1.31828e-05
-5.6976e-05
1.33695e-05
-5.99426e-05
1.34954e-05
-6.28936e-05
1.35553e-05
-6.58131e-05
1.35446e-05
-6.86847e-05
1.3459e-05
-7.14917e-05
1.32947e-05
-7.42174e-05
1.30487e-05
-7.6845e-05
1.27185e-05
-7.9358e-05
1.23024e-05
-8.17402e-05
1.17994e-05
-8.39759e-05
1.12094e-05
-8.60501e-05
1.0533e-05
-8.79484e-05
9.77168e-06
-8.96573e-05
8.9277e-06
-9.11644e-05
8.00413e-06
-9.24581e-05
7.00483e-06
-9.3528e-05
5.93442e-06
-9.43649e-05
4.79827e-06
-9.49608e-05
3.60243e-06
-9.53087e-05
2.35365e-06
-9.54033e-05
1.05929e-06
-9.52402e-05
-2.72579e-07
-9.48169e-05
-1.63406e-06
-9.41316e-05
-3.0156e-06
-9.31843e-05
-4.40797e-06
-9.19764e-05
-5.80143e-06
-9.05107e-05
-7.18589e-06
-8.87913e-05
-8.55104e-06
-8.68239e-05
-9.88637e-06
-8.46159e-05
-1.11813e-05
-8.21757e-05
-1.24253e-05
-7.95138e-05
-1.36078e-05
-7.66417e-05
-1.47186e-05
-7.35726e-05
-1.57477e-05
-7.03213e-05
-1.66857e-05
-6.69038e-05
-1.75235e-05
-6.33376e-05
-1.82529e-05
-5.96413e-05
-1.88666e-05
-5.5835e-05
-1.9358e-05
-5.19397e-05
-1.9722e-05
-4.79773e-05
-1.99543e-05
-4.39706e-05
-2.00521e-05
-3.99428e-05
-2.00143e-05
-3.59177e-05
-1.98408e-05
-3.19192e-05
-1.95336e-05
-2.7971e-05
-1.90958e-05
-2.40965e-05
-1.85325e-05
-2.03186e-05
-1.78501e-05
-1.66593e-05
-1.70567e-05
-1.31394e-05
-1.61615e-05
-9.77829e-06
-1.51752e-05
-6.59394e-06
-1.41095e-05
-3.60233e-06
-1.29771e-05
-8.17456e-07
-1.17912e-05
1.7489e-06
-1.05656e-05
4.08732e-06
-9.31423e-06
6.19046e-06
-8.05066e-06
8.05397e-06
-6.78909e-06
9.67563e-06
-5.54219e-06
1.10557e-05
-4.32228e-06
1.21969e-05
-3.1407e-06
1.31039e-05
-2.00762e-06
1.3784e-05
-9.31936e-07
1.42459e-05
7.87937e-08
1.45003e-05
1.01848e-06
1.45593e-05
1.88238e-06
1.44363e-05
2.66714e-06
1.41458e-05
3.37064e-06
1.37031e-05
3.99184e-06
1.31241e-05
4.53056e-06
1.24252e-05
4.98719e-06
1.16232e-05
5.36238e-06
1.07349e-05
5.6567e-06
9.77767e-06
5.87027e-06
8.76885e-06
6.00234e-06
7.72615e-06
6.05099e-06
6.66769e-06
6.01285e-06
5.61214e-06
5.88288e-06
4.57898e-06
5.65438e-06
3.58874e-06
5.31924e-06
2.66348e-06
4.86833e-06
1.82735e-06
4.2924e-06
1.10756e-06
3.58321e-06
5.35805e-07
2.73504e-06
1.5037e-07
1.74626e-06
6.22125e-07
1.87599e-08
-2.35902e-07
4.75099e-08
-5.12428e-07
6.58418e-08
-6.3557e-07
5.85923e-08
-6.37855e-07
1.45092e-08
-5.45698e-07
-7.47004e-08
-3.81155e-07
-2.15162e-07
-1.62157e-07
-4.11468e-07
9.71562e-08
-6.67186e-07
3.86011e-07
-9.85253e-07
6.96547e-07
-1.36826e-06
1.02337e-06
-1.81871e-06
1.36311e-06
-2.33913e-06
1.714e-06
-2.9322e-06
2.0755e-06
-3.60085e-06
2.44793e-06
-4.34822e-06
2.83219e-06
-5.17768e-06
3.22952e-06
-6.09283e-06
3.64128e-06
-7.0974e-06
4.06881e-06
-8.19525e-06
4.51329e-06
-9.39023e-06
4.97564e-06
-1.06862e-05
5.45652e-06
-1.20868e-05
5.95619e-06
-1.35955e-05
6.47456e-06
-1.52155e-05
7.01112e-06
-1.69495e-05
7.56491e-06
-1.87998e-05
8.13457e-06
-2.07681e-05
8.71824e-06
-2.28553e-05
9.3136e-06
-2.50617e-05
9.91787e-06
-2.73865e-05
1.05277e-05
-2.9828e-05
1.11394e-05
-3.23836e-05
1.17486e-05
-3.50493e-05
1.23505e-05
-3.78201e-05
1.29399e-05
-4.06896e-05
1.35111e-05
-4.36503e-05
1.40581e-05
-4.66933e-05
1.45744e-05
-4.98084e-05
1.50535e-05
-5.29843e-05
1.54887e-05
-5.62084e-05
1.58729e-05
-5.94671e-05
1.61994e-05
-6.27458e-05
1.64615e-05
-6.6029e-05
1.66527e-05
-6.93005e-05
1.67669e-05
-7.25436e-05
1.67984e-05
-7.57412e-05
1.67421e-05
-7.88757e-05
1.65935e-05
-8.19298e-05
1.63488e-05
-8.48862e-05
1.6005e-05
-8.77276e-05
1.55599e-05
-9.04375e-05
1.50122e-05
-9.29995e-05
1.43615e-05
-9.53984e-05
1.36082e-05
-9.76192e-05
1.27538e-05
-9.96482e-05
1.18006e-05
-0.000101472
1.07518e-05
-0.00010308
9.6115e-06
-0.000104459
8.38453e-06
-0.000105602
7.07664e-06
-0.000106498
5.69431e-06
-0.00010714
4.24475e-06
-0.000107522
2.73586e-06
-0.000107639
1.17622e-06
-0.000107487
-4.25009e-07
-0.000107062
-2.0585e-06
-0.000106364
-3.71363e-06
-0.000105392
-5.37985e-06
-0.000104148
-7.0461e-06
-0.000102633
-8.701e-06
-0.000100851
-1.03328e-05
-9.88074e-05
-1.19298e-05
-9.65089e-05
-1.34798e-05
-9.39635e-05
-1.49708e-05
-9.11805e-05
-1.63908e-05
-8.81709e-05
-1.77282e-05
-8.49474e-05
-1.89713e-05
-8.15239e-05
-2.01092e-05
-7.7916e-05
-2.11314e-05
-7.41408e-05
-2.20281e-05
-7.02167e-05
-2.27907e-05
-6.61636e-05
-2.34112e-05
-6.20026e-05
-2.3883e-05
-5.77558e-05
-2.4201e-05
-5.34465e-05
-2.43614e-05
-4.90987e-05
-2.4362e-05
-4.47371e-05
-2.42025e-05
-4.03866e-05
-2.3884e-05
-3.60724e-05
-2.341e-05
-3.18195e-05
-2.27854e-05
-2.76525e-05
-2.20171e-05
-2.35954e-05
-2.11138e-05
-1.96709e-05
-2.00859e-05
-1.59009e-05
-1.89452e-05
-1.23055e-05
-1.7705e-05
-8.90306e-06
-1.63796e-05
-5.70994e-06
-1.49843e-05
-2.7404e-06
-1.35351e-05
-6.39654e-09
-1.20482e-05
2.48335e-06
-1.05404e-05
4.72141e-06
-9.02715e-06
6.7037e-06
-7.52448e-06
8.42866e-06
-6.04725e-06
9.89725e-06
-4.60928e-06
1.11128e-05
-3.22322e-06
1.20812e-05
-1.90029e-06
1.28102e-05
-6.50213e-07
1.33098e-05
5.18916e-07
1.35915e-05
1.6006e-06
1.36688e-05
2.58993e-06
1.35559e-05
3.48346e-06
1.32687e-05
4.27905e-06
1.28237e-05
4.97563e-06
1.2238e-05
5.57289e-06
1.15294e-05
6.07096e-06
1.07161e-05
6.46998e-06
9.81666e-06
6.76971e-06
8.84989e-06
6.9691e-06
7.835e-06
7.06588e-06
6.79164e-06
7.05622e-06
5.74004e-06
6.93447e-06
4.70131e-06
6.69312e-06
3.69773e-06
6.32282e-06
2.75327e-06
5.81279e-06
1.89433e-06
5.15134e-06
1.15078e-06
4.32676e-06
5.57516e-07
3.3283e-06
1.56454e-07
2.14732e-06
7.78579e-07
9.47208e-09
-2.45374e-07
1.30236e-08
-5.1598e-07
-7.65817e-09
-6.14889e-07
-6.6053e-08
-5.79459e-07
-1.72024e-07
-4.39728e-07
-3.32701e-07
-2.20478e-07
-5.53272e-07
5.84142e-08
-8.37624e-07
3.81509e-07
-1.18884e-06
7.37231e-07
-1.6096e-06
1.1173e-06
-2.10243e-06
1.5162e-06
-2.66995e-06
1.93063e-06
-3.31495e-06
2.35901e-06
-4.04052e-06
2.80107e-06
-4.85005e-06
3.25745e-06
-5.74721e-06
3.72935e-06
-6.73594e-06
4.21825e-06