/*--------------------------------*- C++ -*----------------------------------*\
| =========                 |                                                 |
| \\      /  F ield         | OpenFOAM: The Open Source CFD Toolbox           |
|  \\    /   O peration     | Version:  2112                                  |
|   \\  /    A nd           | Website:  www.openfoam.com                      |
|    \\/     M anipulation  |                                                 |
\*---------------------------------------------------------------------------*/
FoamFile
{
    version     2.0;
    format      ascii;
    arch        "LSB;label=32;scalar=64";
    class       volVectorField;
    location    "18";
    object      U;
}
// * * * * * * * * * * * * * * * * * * * * * * * * * * * * * * * * * * * * * //

dimensions      [0 1 -1 0 0 0 0];

internalField   nonuniform List<vector> 
16641
(
(-1.32795e-06 1.18923e-06 0)
(9.38052e-06 -6.37573e-06 0)
(4.06707e-05 -1.26948e-05 0)
(8.31437e-05 -1.6035e-05 0)
(0.000130682 -1.71591e-05 0)
(0.000178832 -1.68524e-05 0)
(0.000224435 -1.56742e-05 0)
(0.000265448 -1.40025e-05 0)
(0.000300634 -1.20825e-05 0)
(0.000329306 -1.00651e-05 0)
(0.000351136 -8.04082e-06 0)
(0.000366016 -6.05888e-06 0)
(0.000373969 -4.14139e-06 0)
(0.000375073 -2.29164e-06 0)
(0.000369411 -4.99971e-07 0)
(0.000357044 1.25e-06 0)
(0.000337987 2.97785e-06 0)
(0.000312198 4.70551e-06 0)
(0.000279571 6.45476e-06 0)
(0.000239943 8.24586e-06 0)
(0.000193088 1.00977e-05 0)
(0.000138732 1.20269e-05 0)
(7.65515e-05 1.4048e-05 0)
(6.18683e-06 1.61735e-05 0)
(-7.27553e-05 1.84138e-05 0)
(-0.000160693 2.07775e-05 0)
(-0.000258063 2.32715e-05 0)
(-0.000365313 2.59017e-05 0)
(-0.000482896 2.86718e-05 0)
(-0.000611263 3.15837e-05 0)
(-0.000750856 3.46378e-05 0)
(-0.000902098 3.78325e-05 0)
(-0.00106539 4.11636e-05 0)
(-0.00124108 4.46243e-05 0)
(-0.00142951 4.82049e-05 0)
(-0.00163091 5.18924e-05 0)
(-0.00184548 5.567e-05 0)
(-0.00207332 5.95169e-05 0)
(-0.00231443 6.34083e-05 0)
(-0.00256872 6.73153e-05 0)
(-0.00283595 7.1204e-05 0)
(-0.00311575 7.50363e-05 0)
(-0.00340761 7.87695e-05 0)
(-0.00371085 8.2357e-05 0)
(-0.00402461 8.57475e-05 0)
(-0.00434786 8.88859e-05 0)
(-0.00467935 9.17138e-05 0)
(-0.00501766 9.417e-05 0)
(-0.00536115 9.61909e-05 0)
(-0.005708 9.77112e-05 0)
(-0.00605617 9.86653e-05 0)
(-0.00640342 9.89877e-05 0)
(-0.00674735 9.86145e-05 0)
(-0.00708535 9.74843e-05 0)
(-0.00741469 9.55396e-05 0)
(-0.00773248 9.27287e-05 0)
(-0.00803572 8.90061e-05 0)
(-0.00832133 8.43345e-05 0)
(-0.00858618 7.86863e-05 0)
(-0.0088271 7.20449e-05 0)
(-0.00904098 6.44063e-05 0)
(-0.00922474 5.57797e-05 0)
(-0.00937542 4.61891e-05 0)
(-0.0094902 3.56775e-05 0)
(-0.00956648 2.43126e-05 0)
(-0.00960195 1.21812e-05 0)
(-0.00959449 -7.10951e-07 0)
(-0.00954232 -1.41922e-05 0)
(-0.00944416 -2.8136e-05 0)
(-0.00929911 -4.2407e-05 0)
(-0.00910671 -5.68529e-05 0)
(-0.00886703 -7.13078e-05 0)
(-0.00858064 -8.55949e-05 0)
(-0.00824867 -9.95297e-05 0)
(-0.0078728 -0.000112923 0)
(-0.00745526 -0.000125585 0)
(-0.00699886 -0.000137329 0)
(-0.0065069 -0.000147975 0)
(-0.0059832 -0.000157354 0)
(-0.00543206 -0.000165312 0)
(-0.00485816 -0.000171714 0)
(-0.00426654 -0.000176449 0)
(-0.00366253 -0.000179432 0)
(-0.00305164 -0.000180609 0)
(-0.0024395 -0.000179955 0)
(-0.00183178 -0.000177479 0)
(-0.00123406 -0.000173224 0)
(-0.000651771 -0.000167266 0)
(-9.00738e-05 -0.000159711 0)
(0.000446192 -0.000150698 0)
(0.000952615 -0.000140383 0)
(0.00142528 -0.000128952 0)
(0.00186081 -0.000116606 0)
(0.00225643 -0.000103556 0)
(0.00260999 -9.00194e-05 0)
(0.00291998 -7.6214e-05 0)
(0.00318555 -6.23529e-05 0)
(0.00340646 -4.86386e-05 0)
(0.00358309 -3.52591e-05 0)
(0.00371637 -2.23842e-05 0)
(0.00380776 -1.01613e-05 0)
(0.00385917 1.28601e-06 0)
(0.00387288 1.18598e-05 0)
(0.00385149 2.14882e-05 0)
(0.00379785 3.01252e-05 0)
(0.00371497 3.77486e-05 0)
(0.00360592 4.43605e-05 0)
(0.00347385 4.99836e-05 0)
(0.00332182 5.46588e-05 0)
(0.00315283 5.84424e-05 0)
(0.00296973 6.14022e-05 0)
(0.00277519 6.36143e-05 0)
(0.00257171 6.51587e-05 0)
(0.00236156 6.61141e-05 0)
(0.00214682 6.65528e-05 0)
(0.00192941 6.65339e-05 0)
(0.00171114 6.60968e-05 0)
(0.00149373 6.52514e-05 0)
(0.00127897 6.39673e-05 0)
(0.00106883 6.21607e-05 0)
(0.000865569 5.96787e-05 0)
(0.00067199 5.62809e-05 0)
(0.000491608 5.16177e-05 0)
(0.000328899 4.52142e-05 0)
(0.000189479 3.64888e-05 0)
(8.00066e-05 2.4902e-05 0)
(7.38265e-06 1.04271e-05 0)
(-2.28617e-05 -5.09252e-06 0)
(-1.34227e-05 -1.34444e-05 0)
(6.33918e-06 -9.4759e-06 0)
(4.36668e-05 -4.36171e-05 0)
(0.000119491 -6.99257e-05 0)
(0.000216166 -8.45601e-05 0)
(0.000321893 -8.9601e-05 0)
(0.000427922 -8.76367e-05 0)
(0.000527376 -8.08554e-05 0)
(0.000615295 -7.09492e-05 0)
(0.000688345 -5.91441e-05 0)
(0.000744414 -4.62869e-05 0)
(0.00078225 -3.2937e-05 0)
(0.000801182 -1.94366e-05 0)
(0.000800898 -5.97261e-06 0)
(0.000781272 7.38509e-06 0)
(0.000742238 2.06454e-05 0)
(0.000683702 3.38692e-05 0)
(0.000605488 4.71491e-05 0)
(0.0005073 6.05956e-05 0)
(0.000388706 7.43232e-05 0)
(0.00024913 8.84441e-05 0)
(8.78664e-05 0.000103063 0)
(-9.59178e-05 0.000118272 0)
(-0.000303161 0.000134153 0)
(-0.000534889 0.000150773 0)
(-0.0007922 0.000168184 0)
(-0.00107624 0.000186427 0)
(-0.00138819 0.000205528 0)
(-0.00172922 0.0002255 0)
(-0.00210053 0.000246344 0)
(-0.00250323 0.000268044 0)
(-0.00293843 0.000290569 0)
(-0.00340712 0.000313874 0)
(-0.00391019 0.000337892 0)
(-0.00444841 0.000362537 0)
(-0.00502236 0.000387703 0)
(-0.00563242 0.00041326 0)
(-0.00627877 0.000439052 0)
(-0.00696127 0.000464898 0)
(-0.00767953 0.000490591 0)
(-0.00843278 0.0005159 0)
(-0.00921989 0.000540563 0)
(-0.0100393 0.000564295 0)
(-0.0108892 0.00058679 0)
(-0.0117669 0.000607714 0)
(-0.0126697 0.00062672 0)
(-0.0135941 0.00064344 0)
(-0.0145362 0.000657497 0)
(-0.0154916 0.000668505 0)
(-0.0164553 0.000676074 0)
(-0.0174218 0.00067982 0)
(-0.0183853 0.000679365 0)
(-0.0193394 0.00067435 0)
(-0.0202772 0.000664434 0)
(-0.0211915 0.00064931 0)
(-0.0220749 0.000628706 0)
(-0.0229197 0.000602395 0)
(-0.0237178 0.000570203 0)
(-0.0244614 0.000532011 0)
(-0.0251422 0.00048777 0)
(-0.0257525 0.000437501 0)
(-0.0262844 0.000381302 0)
(-0.0267304 0.000319352 0)
(-0.0270835 0.000251918 0)
(-0.027337 0.00017935 0)
(-0.027485 0.000102069 0)
(-0.0275224 2.0589e-05 0)
(-0.0274446 -6.42476e-05 0)
(-0.027248 -0.000151942 0)
(-0.0269301 -0.000241697 0)
(-0.0264895 -0.000332632 0)
(-0.0259261 -0.000423819 0)
(-0.0252408 -0.000514282 0)
(-0.0244357 -0.000603002 0)
(-0.0235145 -0.000688937 0)
(-0.0224819 -0.000771036 0)
(-0.0213441 -0.000848253 0)
(-0.0201084 -0.000919573 0)
(-0.0187835 -0.000984026 0)
(-0.017379 -0.00104071 0)
(-0.0159056 -0.0010888 0)
(-0.0143751 -0.0011276 0)
(-0.0127999 -0.0011565 0)
(-0.0111931 -0.00117508 0)
(-0.00956814 -0.00118302 0)
(-0.00793885 -0.00118021 0)
(-0.00631905 -0.00116668 0)
(-0.00472246 -0.00114265 0)
(-0.00316242 -0.0011085 0)
(-0.00165175 -0.00106478 0)
(-0.000202514 -0.00101222 0)
(0.00117414 -0.000951653 0)
(0.00246816 -0.000884056 0)
(0.00367074 -0.000810505 0)
(0.00477439 -0.00073215 0)
(0.00577309 -0.000650189 0)
(0.00666229 -0.000565841 0)
(0.007439 -0.000480316 0)
(0.00810172 -0.000394792 0)
(0.00865042 -0.000310384 0)
(0.00908648 -0.000228127 0)
(0.00941261 -0.000148951 0)
(0.00963268 -7.36692e-05 0)
(0.00975162 -2.96364e-06 0)
(0.00977525 6.26207e-05 0)
(0.00971009 0.000122679 0)
(0.00956323 0.000176945 0)
(0.00934213 0.000225286 0)
(0.00905447 0.000267694 0)
(0.00870798 0.000304272 0)
(0.0083103 0.00033522 0)
(0.00786889 0.000360815 0)
(0.0073909 0.000381389 0)
(0.00688312 0.000397304 0)
(0.00635197 0.000408922 0)
(0.00580348 0.000416576 0)
(0.00524336 0.000420529 0)
(0.0046771 0.000420934 0)
(0.00411012 0.000417791 0)
(0.00354798 0.000410891 0)
(0.00299667 0.000399772 0)
(0.00246288 0.000383659 0)
(0.00195432 0.000361433 0)
(0.00148011 0.000331614 0)
(0.00105093 0.000292434 0)
(0.000679045 0.000242109 0)
(0.000377569 0.000179611 0)
(0.000158489 0.000106344 0)
(3.04697e-05 3.00131e-05 0)
(-4.97647e-06 -2.29127e-05 0)
(1.29039e-05 -4.09037e-05 0)
(7.05448e-05 -0.000119565 0)
(0.000176495 -0.00017579 0)
(0.00030613 -0.000206958 0)
(0.000444183 -0.000216823 0)
(0.00057973 -0.000210221 0)
(0.000703854 -0.000191647 0)
(0.000809802 -0.000164825 0)
(0.000892801 -0.000132624 0)
(0.000949615 -9.71366e-05 0)
(0.000978147 -5.98067e-05 0)
(0.000977092 -2.15635e-05 0)
(0.000945655 1.70624e-05 0)
(0.000883322 5.58292e-05 0)
(0.000789679 9.47109e-05 0)
(0.000664298 0.000133828 0)
(0.000506648 0.000173393 0)
(0.000316043 0.000213669 0)
(9.16138e-05 0.000254939 0)
(-0.000167695 0.000297482 0)
(-0.000463125 0.000341561 0)
(-0.000796078 0.000387409 0)
(-0.0011681 0.000435224 0)
(-0.00158085 0.000485169 0)
(-0.00203606 0.000537365 0)
(-0.00253552 0.000591896 0)
(-0.00308105 0.000648802 0)
(-0.00367443 0.000708086 0)
(-0.00431739 0.000769705 0)
(-0.00501157 0.000833573 0)
(-0.00575849 0.000899556 0)
(-0.00655948 0.000967469 0)
(-0.00741567 0.00103707 0)
(-0.00832791 0.00110806 0)
(-0.00929675 0.00118008 0)
(-0.0103224 0.0012527 0)
(-0.0114045 0.00132541 0)
(-0.0125425 0.00139766 0)
(-0.0137351 0.0014688 0)
(-0.0149804 0.00153812 0)
(-0.0162761 0.00160486 0)
(-0.0176192 0.00166816 0)
(-0.0190057 0.00172714 0)
(-0.0204312 0.00178084 0)
(-0.0218905 0.00182829 0)
(-0.0233775 0.00186847 0)
(-0.0248854 0.00190034 0)
(-0.0264067 0.00192287 0)
(-0.0279331 0.00193503 0)
(-0.0294556 0.00193584 0)
(-0.0309647 0.00192433 0)
(-0.0324501 0.00189962 0)
(-0.033901 0.00186091 0)
(-0.0353062 0.00180749 0)
(-0.0366544 0.00173877 0)
(-0.0379337 0.0016543 0)
(-0.0391323 0.00155379 0)
(-0.0402383 0.00143711 0)
(-0.0412401 0.0013043 0)
(-0.0421263 0.00115563 0)
(-0.0428859 0.000991533 0)
(-0.0435086 0.000812687 0)
(-0.0439846 0.000619975 0)
(-0.0443052 0.000414496 0)
(-0.0444626 0.000197542 0)
(-0.04445 -2.93889e-05 0)
(-0.044262 -0.000264267 0)
(-0.0438948 -0.000505387 0)
(-0.0433457 -0.000750641 0)
(-0.0426137 -0.000997736 0)
(-0.0416994 -0.00124426 0)
(-0.0406053 -0.00148769 0)
(-0.0393354 -0.00172545 0)
(-0.0378956 -0.00195489 0)
(-0.0362935 -0.0021734 0)
(-0.0345385 -0.00237838 0)
(-0.0326414 -0.00256732 0)
(-0.030615 -0.00273784 0)
(-0.0284732 -0.00288774 0)
(-0.0262315 -0.00301501 0)
(-0.0239065 -0.00311794 0)
(-0.0215159 -0.00319509 0)
(-0.0190781 -0.00324536 0)
(-0.0166122 -0.00326804 0)
(-0.0141377 -0.00326279 0)
(-0.0116741 -0.00322968 0)
(-0.0092407 -0.00316921 0)
(-0.00685664 -0.00308229 0)
(-0.00454019 -0.00297024 0)
(-0.00230876 -0.00283475 0)
(-0.000178572 -0.00267788 0)
(0.00183554 -0.002502 0)
(0.00372035 -0.00230972 0)
(0.0054644 -0.0021039 0)
(0.00705813 -0.00188751 0)
(0.00849401 -0.00166361 0)
(0.00976659 -0.00143529 0)
(0.0108725 -0.00120558 0)
(0.0118104 -0.000977391 0)
(0.0125811 -0.000753458 0)
(0.0131872 -0.000536298 0)
(0.013633 -0.000328156 0)
(0.0139247 -0.000130967 0)
(0.0140696 5.36596e-05 0)
(0.0140763 0.000224461 0)
(0.0139544 0.000380523 0)
(0.0137142 0.000521275 0)
(0.0133665 0.000646466 0)
(0.0129224 0.000756145 0)
(0.0123931 0.000850619 0)
(0.0117896 0.00093041 0)
(0.0111228 0.000996197 0)
(0.0104032 0.00104875 0)
(0.00964071 0.00108887 0)
(0.00884511 0.00111727 0)
(0.00802565 0.00113453 0)
(0.0071914 0.00114095 0)
(0.00635134 0.00113647 0)
(0.0055147 0.00112055 0)
(0.00469118 0.00109205 0)
(0.00389137 0.0010492 0)
(0.00312706 0.000989525 0)
(0.00241152 0.000909954 0)
(0.00175964 0.000807134 0)
(0.00118775 0.000678203 0)
(0.000712482 0.000522448 0)
(0.000348418 0.000344251 0)
(0.000108942 0.000158706 0)
(1.10487e-05 7.98148e-06 0)
(1.64783e-05 -8.39493e-05 0)
(8.5634e-05 -0.000216702 0)
(0.000207874 -0.000305525 0)
(0.000352728 -0.000352444 0)
(0.000502344 -0.00036414 0)
(0.000644492 -0.000348192 0)
(0.000769155 -0.000311656 0)
(0.000868595 -0.000260496 0)
(0.000937169 -0.000199428 0)
(0.000970891 -0.000131977 0)
(0.00096701 -6.0637e-05 0)
(0.000923656 1.29471e-05 0)
(0.000839521 8.78095e-05 0)
(0.000713614 0.00016349 0)
(0.000545073 0.00023991 0)
(0.000333012 0.000317253 0)
(7.64271e-05 0.000395872 0)
(-0.000225864 0.000476214 0)
(-0.000575254 0.000558766 0)
(-0.00097335 0.000644014 0)
(-0.00142197 0.000732408 0)
(-0.0019231 0.000824348 0)
(-0.0024789 0.00092017 0)
(-0.00309162 0.00102013 0)
(-0.0037636 0.00112443 0)
(-0.00449719 0.00123316 0)
(-0.00529472 0.00134635 0)
(-0.00615846 0.00146395 0)
(-0.00709055 0.0015858 0)
(-0.00809295 0.00171167 0)
(-0.00916741 0.00184123 0)
(-0.0103154 0.00197403 0)
(-0.0115379 0.00210954 0)
(-0.0128357 0.00224708 0)
(-0.014209 0.00238587 0)
(-0.0156574 0.002525 0)
(-0.0171799 0.00266342 0)
(-0.0187748 0.00279996 0)
(-0.0204398 0.00293332 0)
(-0.0221717 0.00306207 0)
(-0.0239663 0.00318466 0)
(-0.0258188 0.00329945 0)
(-0.0277231 0.00340471 0)
(-0.0296724 0.00349861 0)
(-0.0316589 0.0035793 0)
(-0.0336738 0.00364487 0)
(-0.0357073 0.00369343 0)
(-0.0377488 0.00372309 0)
(-0.0397867 0.00373204 0)
(-0.0418087 0.00371853 0)
(-0.0438017 0.00368093 0)
(-0.0457523 0.00361778 0)
(-0.0476461 0.00352777 0)
(-0.0494686 0.00340983 0)
(-0.0512052 0.00326311 0)
(-0.052841 0.00308706 0)
(-0.0543611 0.00288138 0)
(-0.055751 0.00264615 0)
(-0.0569966 0.00238173 0)
(-0.0580842 0.00208887 0)
(-0.059001 0.00176868 0)
(-0.0597348 0.00142264 0)
(-0.0602749 0.00105259 0)
(-0.0606113 0.000660778 0)
(-0.0607357 0.000249791 0)
(-0.0606411 -0.000177498 0)
(-0.0603219 -0.000617822 0)
(-0.0597747 -0.00106754 0)
(-0.0589976 -0.00152284 0)
(-0.0579904 -0.00197965 0)
(-0.0567551 -0.0024337 0)
(-0.0552956 -0.00288057 0)
(-0.0536178 -0.00331575 0)
(-0.0517296 -0.00373466 0)
(-0.0496408 -0.00413279 0)
(-0.0473632 -0.00450569 0)
(-0.0449104 -0.00484908 0)
(-0.0422979 -0.00515889 0)
(-0.0395429 -0.00543139 0)
(-0.0366637 -0.00566318 0)
(-0.0336805 -0.00585133 0)
(-0.0306144 -0.00599339 0)
(-0.0274873 -0.00608749 0)
(-0.024322 -0.00613236 0)
(-0.0211418 -0.00612739 0)
(-0.0179701 -0.00607266 0)
(-0.0148301 -0.00596893 0)
(-0.0117448 -0.00581767 0)
(-0.00873658 -0.00562104 0)
(-0.00582661 -0.00538185 0)
(-0.00303502 -0.00510352 0)
(-0.000380413 -0.00479005 0)
(0.00212038 -0.00444586 0)
(0.00445244 -0.00407582 0)
(0.00660303 -0.00368505 0)
(0.00856165 -0.00327887 0)
(0.0103202 -0.00286268 0)
(0.0118731 -0.00244182 0)
(0.0132171 -0.00202152 0)
(0.0143515 -0.00160674 0)
(0.0152778 -0.00120209 0)
(0.0159999 -0.000811784 0)
(0.0165237 -0.000439508 0)
(0.0168569 -8.84156e-05 0)
(0.0170089 0.000238924 0)
(0.0169905 0.000540546 0)
(0.0168136 0.000815079 0)
(0.0164909 0.00106173 0)
(0.0160358 0.00128024 0)
(0.015462 0.00147084 0)
(0.0147832 0.00163415 0)
(0.0140133 0.00177109 0)
(0.0131658 0.0018828 0)
(0.0122538 0.00197046 0)
(0.0112902 0.00203519 0)
(0.0102877 0.00207784 0)
(0.00925842 0.00209886 0)
(0.00821483 0.0020981 0)
(0.00716942 0.00207464 0)
(0.00613527 0.00202663 0)
(0.00512627 0.00195125 0)
(0.0041575 0.00184466 0)
(0.00324539 0.00170227 0)
(0.00240788 0.00151932 0)
(0.00166418 0.00129205 0)
(0.00103372 0.00102009 0)
(0.000534019 0.000709998 0)
(0.000185867 0.000381487 0)
(2.64382e-05 8.30253e-05 0)
(1.77655e-05 -0.000132337 0)
(9.05093e-05 -0.000322595 0)
(0.000215976 -0.000442692 0)
(0.000360042 -0.000501412 0)
(0.000503083 -0.000509572 0)
(0.000632038 -0.000478033 0)
(0.000736335 -0.000416611 0)
(0.000807772 -0.000333581 0)
(0.000840274 -0.000235531 0)
(0.000829413 -0.000127445 0)
(0.000771988 -1.28928e-05 0)
(0.000665661 0.000105748 0)
(0.000508649 0.000227055 0)
(0.000299466 0.000350354 0)
(3.67359e-05 0.000475519 0)
(-0.000280962 0.000602807 0)
(-0.000655188 0.000732731 0)
(-0.0010877 0.000865942 0)
(-0.00158049 0.00100315 0)
(-0.00213576 0.00114506 0)
(-0.00275595 0.00129232 0)
(-0.00344366 0.0014455 0)
(-0.00420163 0.00160507 0)
(-0.0050327 0.00177136 0)
(-0.00593974 0.0019446 0)
(-0.00692559 0.00212487 0)
(-0.00799301 0.00231213 0)
(-0.00914461 0.00250618 0)
(-0.0103828 0.00270668 0)
(-0.0117097 0.00291315 0)
(-0.013127 0.00312493 0)
(-0.0146361 0.00334118 0)
(-0.0162378 0.0035609 0)
(-0.0179324 0.00378288 0)
(-0.0197192 0.00400574 0)
(-0.0215973 0.00422787 0)
(-0.0235644 0.00444746 0)
(-0.0256177 0.00466253 0)
(-0.0277532 0.00487086 0)
(-0.0299661 0.00507009 0)
(-0.0322502 0.00525768 0)
(-0.0345984 0.00543095 0)
(-0.0370025 0.0055871 0)
(-0.039453 0.00572326 0)
(-0.0419393 0.00583649 0)
(-0.0444498 0.00592388 0)
(-0.0469718 0.00598251 0)
(-0.0494916 0.00600959 0)
(-0.0519946 0.00600242 0)
(-0.0544655 0.00595851 0)
(-0.0568882 0.00587556 0)
(-0.0592461 0.00575158 0)
(-0.0615223 0.00558488 0)
(-0.0636997 0.00537414 0)
(-0.065761 0.00511845 0)
(-0.0676892 0.00481731 0)
(-0.0694676 0.00447073 0)
(-0.0710797 0.00407918 0)
(-0.0725101 0.00364367 0)
(-0.0737439 0.0031657 0)
(-0.0747674 0.00264736 0)
(-0.0755679 0.00209121 0)
(-0.0761341 0.0015004 0)
(-0.0764562 0.000878577 0)
(-0.0765261 0.000229883 0)
(-0.076337 -0.000441199 0)
(-0.0758841 -0.00112955 0)
(-0.0751647 -0.0018297 0)
(-0.0741778 -0.00253588 0)
(-0.0729245 -0.00324203 0)
(-0.0714079 -0.00394181 0)
(-0.0696332 -0.00462874 0)
(-0.0676079 -0.00529623 0)
(-0.0653413 -0.00593765 0)
(-0.0628449 -0.00654647 0)
(-0.0601321 -0.00711627 0)
(-0.0572183 -0.0076409 0)
(-0.0541208 -0.00811453 0)
(-0.0508585 -0.00853177 0)
(-0.0474521 -0.00888776 0)
(-0.0439234 -0.00917824 0)
(-0.0402958 -0.00939969 0)
(-0.0365935 -0.00954933 0)
(-0.0328416 -0.00962529 0)
(-0.0290658 -0.00962656 0)
(-0.025292 -0.00955314 0)
(-0.0215462 -0.00940599 0)
(-0.0178541 -0.00918706 0)
(-0.0142409 -0.0088993 0)
(-0.0107308 -0.00854661 0)
(-0.00734683 -0.00813377 0)
(-0.00411072 -0.0076664 0)
(-0.00104236 -0.00715083 0)
(0.00184032 -0.006594 0)
(0.00452158 -0.00600333 0)
(0.00698807 -0.00538656 0)
(0.00922896 -0.00475162 0)
(0.0112361 -0.00410647 0)
(0.0130039 -0.00345891 0)
(0.0145296 -0.00281648 0)
(0.0158132 -0.00218628 0)
(0.0168569 -0.00157485 0)
(0.0176658 -0.000988063 0)
(0.0182469 -0.000431027 0)
(0.0186094 9.19667e-05 0)
(0.0187643 0.00057749 0)
(0.018724 0.00102299 0)
(0.0185022 0.00142677 0)
(0.0181137 0.00178793 0)
(0.0175738 0.00210634 0)
(0.0168982 0.00238245 0)
(0.0161029 0.00261726 0)
(0.015204 0.00281205 0)
(0.0142171 0.00296829 0)
(0.0131581 0.00308736 0)
(0.0120422 0.00317036 0)
(0.0108848 0.00321783 0)
(0.0097013 0.0032295 0)
(0.0085071 0.00320411 0)
(0.00731824 0.00313914 0)
(0.00615149 0.00303082 0)
(0.00502465 0.00287409 0)
(0.00395674 0.00266302 0)
(0.00296817 0.00239156 0)
(0.00208073 0.00205501 0)
(0.00131674 0.00165256 0)
(0.000697471 0.00119105 0)
(0.000252374 0.000690546 0)
(3.90899e-05 0.000197271 0)
(1.74557e-05 -0.000181113 0)
(8.72043e-05 -0.000427125 0)
(0.000204217 -0.000574121 0)
(0.000333098 -0.000638533 0)
(0.000453366 -0.000636117 0)
(0.000551545 -0.000581467 0)
(0.000616901 -0.000487354 0)
(0.000641148 -0.000364396 0)
(0.000618093 -0.000221029 0)
(0.000543118 -6.36473e-05 0)
(0.000412747 0.000103161 0)
(0.00022429 0.000276333 0)
(-2.44645e-05 0.000454043 0)
(-0.000335489 0.000635431 0)
(-0.000710705 0.000820359 0)
(-0.00115211 0.00100919 0)
(-0.00166189 0.00120261 0)
(-0.00224243 0.00140151 0)
(-0.00289637 0.00160682 0)
(-0.00362658 0.00181946 0)
(-0.0044361 0.00204028 0)
(-0.00532818 0.00227001 0)
(-0.00630613 0.00250919 0)
(-0.00737332 0.00275821 0)
(-0.00853312 0.00301728 0)
(-0.00978876 0.0032864 0)
(-0.0111433 0.00356535 0)
(-0.0125997 0.00385371 0)
(-0.0141602 0.00415085 0)
(-0.0158272 0.00445588 0)
(-0.017602 0.00476768 0)
(-0.0194857 0.00508486 0)
(-0.0214785 0.00540577 0)
(-0.02358 0.00572849 0)
(-0.0257887 0.0060508 0)
(-0.0281024 0.0063702 0)
(-0.0305175 0.00668392 0)
(-0.0330296 0.00698889 0)
(-0.0356329 0.00728181 0)
(-0.0383205 0.00755915 0)
(-0.0410842 0.00781715 0)
(-0.0439144 0.00805193 0)
(-0.0468003 0.00825945 0)
(-0.0497298 0.00843564 0)
(-0.0526897 0.0085764 0)
(-0.0556654 0.00867767 0)
(-0.0586414 0.00873554 0)
(-0.0616013 0.00874625 0)
(-0.0645277 0.0087063 0)
(-0.0674027 0.00861248 0)
(-0.0702077 0.00846199 0)
(-0.0729238 0.00825245 0)
(-0.075532 0.00798196 0)
(-0.0780132 0.00764918 0)
(-0.0803487 0.00725336 0)
(-0.0825199 0.00679436 0)
(-0.0845091 0.0062727 0)
(-0.086299 0.00568959 0)
(-0.0878736 0.00504689 0)
(-0.0892177 0.0043472 0)
(-0.0903174 0.00359379 0)
(-0.0911603 0.00279061 0)
(-0.0917354 0.00194227 0)
(-0.0920333 0.001054 0)
(-0.0920466 0.000131674 0)
(-0.0917693 -0.000818085 0)
(-0.0911972 -0.00178857 0)
(-0.0903286 -0.00277233 0)
(-0.0891635 -0.00376153 0)
(-0.0877038 -0.00474803 0)
(-0.0859537 -0.00572339 0)
(-0.0839194 -0.00667903 0)
(-0.081609 -0.00760624 0)
(-0.079033 -0.00849635 0)
(-0.0762036 -0.00934075 0)
(-0.0731353 -0.0101311 0)
(-0.0698444 -0.0108593 0)
(-0.066349 -0.0115177 0)
(-0.062669 -0.0120992 0)
(-0.058826 -0.0125975 0)
(-0.0548432 -0.013007 0)
(-0.0507449 -0.0133228 0)
(-0.0465566 -0.0135412 0)
(-0.0423049 -0.0136597 0)
(-0.038017 -0.0136767 0)
(-0.0337206 -0.013592 0)
(-0.0294434 -0.0134066 0)
(-0.0252133 -0.0131229 0)
(-0.0210574 -0.0127443 0)
(-0.0170026 -0.0122758 0)
(-0.0130742 -0.0117235 0)
(-0.00929656 -0.0110945 0)
(-0.00569233 -0.0103969 0)
(-0.0022822 -0.00963973 0)
(0.000915244 -0.00883277 0)
(0.00388383 -0.00798624 0)
(0.00660993 -0.00711067 0)
(0.00908265 -0.00621677 0)
(0.0112939 -0.00531514 0)
(0.0132385 -0.0044161 0)
(0.014914 -0.00352951 0)
(0.0163211 -0.00266458 0)
(0.0174628 -0.00182968 0)
(0.0183452 -0.00103227 0)
(0.0189762 -0.000278723 0)
(0.0193664 0.000425662 0)
(0.0195279 0.00107676 0)
(0.0194748 0.00167158 0)
(0.0192222 0.00220824 0)
(0.0187864 0.00268587 0)
(0.0181846 0.00310447 0)
(0.0174342 0.00346479 0)
(0.0165532 0.00376807 0)
(0.0155594 0.00401583 0)
(0.0144709 0.00420959 0)
(0.0133055 0.00435055 0)
(0.0120812 0.00443927 0)
(0.0108159 0.00447539 0)
(0.00952785 0.00445728 0)
(0.00823556 0.00438188 0)
(0.00695835 0.00424454 0)
(0.0057164 0.00403915 0)
(0.00453106 0.00375854 0)
(0.00342502 0.00339531 0)
(0.00242268 0.00294339 0)
(0.00154953 0.00240052 0)
(0.000831161 0.00177158 0)
(0.000305649 0.00107323 0)
(4.87192e-05 0.000343689 0)
(1.6015e-05 -0.000226378 0)
(7.73932e-05 -0.000521377 0)
(0.000175785 -0.000687698 0)
(0.000276647 -0.000749529 0)
(0.000359576 -0.000727941 0)
(0.000411125 -0.000641534 0)
(0.00042077 -0.000506133 0)
(0.000380446 -0.000334696 0)
(0.000284097 -0.000137432 0)
(0.000127119 7.7964e-05 0)
(-9.40861e-05 0.000305993 0)
(-0.000382467 0.000543012 0)
(-0.000740606 0.00078688 0)
(-0.00117095 0.00103663 0)
(-0.00167597 0.00129217 0)
(-0.00225829 0.00155402 0)
(-0.00292074 0.00182307 0)
(-0.00366638 0.00210043 0)
(-0.00449855 0.00238729 0)
(-0.00542077 0.00268478 0)
(-0.00643677 0.00299391 0)
(-0.00755038 0.00331551 0)
(-0.00876549 0.0036502 0)
(-0.010086 0.00399833 0)
(-0.0115155 0.00436001 0)
(-0.0130578 0.00473506 0)
(-0.0147161 0.00512301 0)
(-0.0164932 0.00552307 0)
(-0.0183916 0.00593417 0)
(-0.0204131 0.00635488 0)
(-0.022559 0.00678344 0)
(-0.0248295 0.00721772 0)
(-0.0272243 0.00765524 0)
(-0.0297417 0.00809313 0)
(-0.0323792 0.00852814 0)
(-0.035133 0.00895667 0)
(-0.037998 0.00937473 0)
(-0.040968 0.00977801 0)
(-0.044035 0.0101619 0)
(-0.04719 0.0105215 0)
(-0.0504223 0.0108516 0)
(-0.05372 0.0111471 0)
(-0.0570695 0.0114026 0)
(-0.0604563 0.0116128 0)
(-0.0638643 0.0117722 0)
(-0.0672765 0.0118758 0)
(-0.0706748 0.0119187 0)
(-0.0740402 0.0118962 0)
(-0.0773532 0.0118041 0)
(-0.0805937 0.0116388 0)
(-0.0837412 0.011397 0)
(-0.0867753 0.0110763 0)
(-0.0896754 0.0106748 0)
(-0.0924214 0.0101914 0)
(-0.0949937 0.00962576 0)
(-0.0973731 0.00897839 0)
(-0.0995415 0.00825059 0)
(-0.101482 0.00744454 0)
(-0.103177 0.00656323 0)
(-0.104614 0.00561053 0)
(-0.105778 0.00459111 0)
(-0.106658 0.00351044 0)
(-0.107243 0.00237475 0)
(-0.107525 0.00119098 0)
(-0.107496 -3.32087e-05 0)
(-0.107152 -0.00128925 0)
(-0.106489 -0.00256859 0)
(-0.105507 -0.00386181 0)
(-0.104205 -0.00515907 0)
(-0.102586 -0.00645018 0)
(-0.100656 -0.00772467 0)
(-0.0984197 -0.00897189 0)
(-0.0958867 -0.0101811 0)
(-0.0930673 -0.0113416 0)
(-0.0899742 -0.0124427 0)
(-0.0866218 -0.0134742 0)
(-0.0830268 -0.014426 0)
(-0.0792074 -0.0152888 0)
(-0.0751838 -0.0160537 0)
(-0.0709779 -0.0167126 0)
(-0.0666131 -0.0172586 0)
(-0.0621144 -0.0176856 0)
(-0.0575079 -0.0179886 0)
(-0.0528211 -0.0181643 0)
(-0.0480821 -0.0182104 0)
(-0.0433197 -0.0181263 0)
(-0.0385633 -0.0179129 0)
(-0.033842 -0.0175727 0)
(-0.0291851 -0.0171097 0)
(-0.0246212 -0.0165296 0)
(-0.0201781 -0.0158395 0)
(-0.0158824 -0.015048 0)
(-0.0117593 -0.014165 0)
(-0.00783214 -0.0132014 0)
(-0.00412236 -0.0121692 0)
(-0.000648931 -0.0110811 0)
(0.00257166 -0.00995034 0)
(0.0055257 -0.00879037 0)
(0.00820232 -0.00761472 0)
(0.0105936 -0.0064366 0)
(0.0126948 -0.00526895 0)
(0.014504 -0.00412379 0)
(0.0160224 -0.00301232 0)
(0.0172541 -0.00194462 0)
(0.0182058 -0.000929538 0)
(0.0188866 2.5416e-05 0)
(0.0193082 0.000914155 0)
(0.0194839 0.00173202 0)
(0.0194291 0.00247575 0)
(0.0191604 0.00314337 0)
(0.0186956 0.00373409 0)
(0.0180532 0.00424809 0)
(0.0172525 0.00468627 0)
(0.0163132 0.00504997 0)
(0.0152552 0.00534063 0)
(0.0140984 0.00555941 0)
(0.0128629 0.00570681 0)
(0.0115691 0.0057823 0)
(0.0102375 0.00578395 0)
(0.00888901 0.00570815 0)
(0.00754518 0.00554952 0)
(0.00622842 0.00530094 0)
(0.00496226 0.00495399 0)
(0.00377171 0.00449975 0)
(0.00268384 0.00393023 0)
(0.00172753 0.00324054 0)
(0.000932776 0.00243171 0)
(0.000345383 0.00151418 0)
(5.55772e-05 0.000514698 0)
(1.37437e-05 -0.000265092 0)
(6.23237e-05 -0.000597757 0)
(0.000133289 -0.000772655 0)
(0.000194712 -0.000821439 0)
(0.000227146 -0.000770555 0)
(0.000217651 -0.000642658 0)
(0.00015628 -0.000456628 0)
(3.54812e-05 -0.000227678 0)
(-0.000150442 3.23401e-05 0)
(-0.000405907 0.00031458 0)
(-0.000734512 0.000612792 0)
(-0.00113937 0.000922899 0)
(-0.0016234 0.00124257 0)
(-0.0021895 0.00157085 0)
(-0.0028407 0.00190775 0)
(-0.00358026 0.00225401 0)
(-0.00441169 0.00261077 0)
(-0.00533878 0.00297939 0)
(-0.00636554 0.00336128 0)
(-0.00749621 0.00375776 0)
(-0.00873515 0.00416998 0)
(-0.0100868 0.00459881 0)
(-0.0115556 0.00504486 0)
(-0.0131457 0.00550838 0)
(-0.0148614 0.00598926 0)
(-0.0167063 0.00648704 0)
(-0.0186838 0.00700084 0)
(-0.0207967 0.00752939 0)
(-0.0230472 0.00807099 0)
(-0.0254368 0.0086235 0)
(-0.0279659 0.00918433 0)
(-0.0306342 0.00975041 0)
(-0.03344 0.0103182 0)
(-0.0363806 0.0108837 0)
(-0.039452 0.0114424 0)
(-0.0426487 0.0119894 0)
(-0.0459638 0.0125193 0)
(-0.0493889 0.0130263 0)
(-0.0529139 0.0135043 0)
(-0.0565274 0.0139469 0)
(-0.0602163 0.0143476 0)
(-0.0639661 0.0146996 0)
(-0.0677609 0.0149963 0)
(-0.0715835 0.015231 0)
(-0.0754154 0.0153972 0)
(-0.0792374 0.0154888 0)
(-0.0830291 0.0155 0)
(-0.0867697 0.0154254 0)
(-0.0904378 0.0152605 0)
(-0.0940118 0.0150013 0)
(-0.0974701 0.0146444 0)
(-0.100791 0.0141875 0)
(-0.103954 0.0136291 0)
(-0.106937 0.0129685 0)
(-0.109722 0.0122061 0)
(-0.112288 0.0113433 0)
(-0.114619 0.0103824 0)
(-0.116697 0.0093268 0)
(-0.118507 0.00818071 0)
(-0.120035 0.00694941 0)
(-0.121267 0.00563907 0)
(-0.122194 0.00425674 0)
(-0.122804 0.00281032 0)
(-0.123091 0.00130848 0)
(-0.123048 -0.000239358 0)
(-0.12267 -0.00182315 0)
(-0.121955 -0.00343214 0)
(-0.120902 -0.00505508 0)
(-0.119511 -0.00668027 0)
(-0.117786 -0.0082956 0)
(-0.11573 -0.00988866 0)
(-0.113349 -0.0114468 0)
(-0.110654 -0.0129574 0)
(-0.107653 -0.0144078 0)
(-0.104358 -0.0157852 0)
(-0.100785 -0.0170776 0)
(-0.0969483 -0.018273 0)
(-0.0928668 -0.0193601 0)
(-0.0885602 -0.0203283 0)
(-0.0840499 -0.0211679 0)
(-0.0793596 -0.0218702 0)
(-0.074514 -0.0224278 0)
(-0.0695397 -0.0228345 0)
(-0.0644645 -0.0230856 0)
(-0.0593171 -0.0231782 0)
(-0.0541275 -0.023111 0)
(-0.0489259 -0.0228846 0)
(-0.0437432 -0.0225012 0)
(-0.0386101 -0.0219654 0)
(-0.0335571 -0.0212831 0)
(-0.0286142 -0.0204626 0)
(-0.0238104 -0.0195135 0)
(-0.0191733 -0.0184473 0)
(-0.014729 -0.0172768 0)
(-0.0105017 -0.0160161 0)
(-0.00651334 -0.0146803 0)
(-0.00278327 -0.0132854 0)
(0.000671806 -0.0118475 0)
(0.00383818 -0.0103832 0)
(0.006705 -0.00890853 0)
(0.00926471 -0.00743993 0)
(0.0115131 -0.0059923 0)
(0.0134489 -0.00457988 0)
(0.015074 -0.00321569 0)
(0.0163933 -0.00191134 0)
(0.0174145 -0.000676889 0)
(0.018148 0.000479263 0)
(0.0186064 0.00155041 0)
(0.0188045 0.00253152 0)
(0.0187588 0.00341918 0)
(0.0184873 0.00421142 0)
(0.0180094 0.00490752 0)
(0.0173452 0.00550771 0)
(0.0165157 0.00601288 0)
(0.0155421 0.00642416 0)
(0.0144463 0.0067425 0)
(0.0132504 0.00696821 0)
(0.0119765 0.0071005 0)
(0.0106475 0.00713712 0)
(0.00928629 0.00707395 0)
(0.00791657 0.00690488 0)
(0.00656285 0.00662181 0)
(0.00525084 0.00621498 0)
(0.00400787 0.00567366 0)
(0.00286374 0.00498739 0)
(0.00185067 0.0041477 0)
(0.00100281 0.0031503 0)
(0.000372314 0.00199757 0)
(6.00218e-05 0.000703075 0)
(1.08206e-05 -0.000294807 0)
(4.28613e-05 -0.000649797 0)
(7.87014e-05 -0.000819524 0)
(9.0472e-05 -0.000842653 0)
(6.04749e-05 -0.000750824 0)
(-2.32437e-05 -0.00057064 0)
(-0.000169685 -0.000323899 0)
(-0.000385602 -2.79142e-05 0)
(-0.000676124 0.000304014 0)
(-0.00104533 0.000662092 0)
(-0.00149671 0.00103952 0)
(-0.00203348 0.00143196 0)
(-0.00265884 0.00183707 0)
(-0.00337614 0.002254 0)
(-0.00418897 0.002683 0)
(-0.00510124 0.00312507 0)
(-0.00611716 0.00358165 0)
(-0.00724124 0.00405435 0)
(-0.00847823 0.00454481 0)
(-0.00983303 0.00505449 0)
(-0.0113107 0.0055846 0)
(-0.0129161 0.00613602 0)
(-0.0146542 0.00670923 0)
(-0.0165296 0.00730427 0)
(-0.0185466 0.0079207 0)
(-0.0207092 0.00855763 0)
(-0.0230204 0.00921362 0)
(-0.025483 0.00988673 0)
(-0.0280986 0.0105745 0)
(-0.0308681 0.0112738 0)
(-0.033791 0.0119811 0)
(-0.036866 0.0126921 0)
(-0.0400903 0.013402 0)
(-0.0434594 0.0141055 0)
(-0.0469678 0.0147966 0)
(-0.0506081 0.0154688 0)
(-0.0543713 0.0161152 0)
(-0.0582468 0.0167285 0)
(-0.0622223 0.0173008 0)
(-0.0662839 0.0178243 0)
(-0.0704161 0.0182908 0)
(-0.0746022 0.0186923 0)
(-0.0788237 0.0190206 0)
(-0.0830613 0.0192679 0)
(-0.0872944 0.0194267 0)
(-0.0915019 0.0194901 0)
(-0.0956617 0.0194516 0)
(-0.0997515 0.0193055 0)
(-0.103749 0.0190469 0)
(-0.107631 0.0186718 0)
(-0.111376 0.018177 0)
(-0.114962 0.0175607 0)
(-0.118368 0.0168218 0)
(-0.121572 0.0159605 0)
(-0.124557 0.0149781 0)
(-0.127302 0.013877 0)
(-0.129791 0.0126608 0)
(-0.132008 0.0113339 0)
(-0.133938 0.00990216 0)