/*--------------------------------*- C++ -*----------------------------------*\
| =========                 |                                                 |
| \\      /  F ield         | OpenFOAM: The Open Source CFD Toolbox           |
|  \\    /   O peration     | Version:  2112                                  |
|   \\  /    A nd           | Website:  www.openfoam.com                      |
|    \\/     M anipulation  |                                                 |
\*---------------------------------------------------------------------------*/
FoamFile
{
    version     2.0;
    format      ascii;
    arch        "LSB;label=32;scalar=64";
    class       volScalarField;
    location    "25";
    object      p;
}
// * * * * * * * * * * * * * * * * * * * * * * * * * * * * * * * * * * * * * //

dimensions      [0 2 -2 0 0 0 0];

internalField   nonuniform List<scalar> 
16641
(
-3.54331e-09
1.2715e-05
2.41415e-05
3.04521e-05
2.86787e-05
1.73694e-05
-3.84484e-06
-3.47558e-05
-7.4842e-05
-0.000123428
-0.000179786
-0.0002432
-0.000312999
-0.000388599
-0.00046952
-0.000555379
-0.000645906
-0.000740931
-0.000840382
-0.000944268
-0.00105266
-0.00116569
-0.00128351
-0.0014063
-0.00153426
-0.00166755
-0.00180629
-0.00195059
-0.00210051
-0.002256
-0.002417
-0.00258331
-0.0027547
-0.0029308
-0.00311116
-0.00329522
-0.00348232
-0.00367166
-0.00386236
-0.00405338
-0.00424358
-0.00443171
-0.00461637
-0.00479608
-0.00496924
-0.00513415
-0.00528907
-0.00543215
-0.00556154
-0.00567534
-0.00577167
-0.00584871
-0.00590469
-0.00593794
-0.00594695
-0.00593037
-0.00588707
-0.00581617
-0.00571709
-0.00558955
-0.00543363
-0.0052498
-0.00503892
-0.00480228
-0.00454158
-0.00425899
-0.00395706
-0.00363869
-0.00330743
-0.00296696
-0.00262132
-0.00227485
-0.00193209
-0.0015977
-0.00127642
-0.000972951
-0.000691895
-0.000437648
-0.000214317
-2.56274e-05
0.000125156
0.00023531
0.000302713
0.000325905
0.000304123
0.000237324
0.000126189
-2.7889e-05
-0.000222836
-0.000455951
-0.000723995
-0.00102318
-0.0013494
-0.00169821
-0.00206502
-0.00244512
-0.00283386
-0.00322669
-0.00361929
-0.00400761
-0.00438798
-0.00475713
-0.00511222
-0.00545088
-0.0057712
-0.00607174
-0.00635149
-0.00660984
-0.00684655
-0.00706173
-0.00725573
-0.00742914
-0.00758272
-0.00771733
-0.00783392
-0.00793343
-0.00801679
-0.00808484
-0.00813837
-0.00817802
-0.0082044
-0.00821805
-0.00821958
-0.00820985
-0.00819021
-0.008163
-0.00813212
-0.00810337
-0.00808568
-1.20403e-05
4.83788e-07
8.43873e-06
1.07505e-05
6.09641e-06
-6.66762e-06
-2.8006e-05
-5.78987e-05
-9.60429e-05
-0.00014198
-0.00019517
-0.00025505
-0.000321076
-0.000392765
-0.000469704
-0.000551557
-0.000638081
-0.000729123
-0.000824605
-0.000924519
-0.00102892
-0.0011379
-0.0012516
-0.00137017
-0.00149376
-0.00162251
-0.00175654
-0.00189594
-0.00204074
-0.00219091
-0.00234639
-0.002507
-0.00267252
-0.00284262
-0.00301688
-0.00319479
-0.00337572
-0.00355895
-0.00374364
-0.00392882
-0.00411342
-0.00429626
-0.00447602
-0.0046513
-0.00482058
-0.00498225
-0.00513462
-0.00527596
-0.00540445
-0.0055183
-0.00561569
-0.00569485
-0.00575405
-0.00579168
-0.00580626
-0.00579645
-0.00576114
-0.00569944
-0.00561075
-0.00549476
-0.00535151
-0.00518141
-0.00498523
-0.00476419
-0.00451988
-0.00425437
-0.00397009
-0.00366984
-0.00335687
-0.00303479
-0.00270749
-0.00237913
-0.00205406
-0.00173678
-0.00143183
-0.00114375
-0.00087696
-0.000635698
-0.000423916
-0.000245198
-0.000102686
1.00359e-06
6.38355e-05
8.44109e-05
6.20038e-05
-3.41847e-06
-0.000111192
-0.000259969
-0.000447752
-0.000671941
-0.000929404
-0.00121656
-0.00152942
-0.00186376
-0.0022152
-0.00257924
-0.00295146
-0.00332754
-0.00370337
-0.00407513
-0.00443934
-0.00479292
-0.00513319
-0.00545791
-0.00576531
-0.006054
-0.00632306
-0.00657189
-0.00680028
-0.0070083
-0.00719629
-0.00736478
-0.00751446
-0.00764614
-0.0077607
-0.00785903
-0.00794202
-0.0080105
-0.00806527
-0.00810704
-0.0081365
-0.00815434
-0.00816132
-0.0081584
-0.00814694
-0.00812894
-0.00810736
-0.00808578
-0.008068
-2.3116e-05
-7.19499e-06
7.11168e-07
1.71563e-06
-4.09712e-06
-1.75181e-05
-3.88958e-05
-6.81947e-05
-0.000105172
-0.000149452
-0.000200576
-0.000258061
-0.00032144
-0.000390287
-0.000464236
-0.000542986
-0.00062632
-0.0007141
-0.000806254
-0.000902779
-0.00100372
-0.00110918
-0.00121927
-0.00133414
-0.00145392
-0.00157877
-0.00170879
-0.00184406
-0.00198464
-0.00213051
-0.0022816
-0.00243778
-0.00259884
-0.00276449
-0.00293434
-0.00310793
-0.00328468
-0.0034639
-0.00364482
-0.00382653
-0.004008
-0.00418812
-0.00436563
-0.00453917
-0.00470728
-0.00486842
-0.00502092
-0.00516311
-0.0052932
-0.00540942
-0.00550997
-0.0055931
-0.00565709
-0.00570032
-0.00572128
-0.00571863
-0.00569121
-0.0056381
-0.00555865
-0.00545249
-0.0053196
-0.00516031
-0.00497533
-0.00476577
-0.00453318
-0.00427955
-0.00400699
-0.00371858
-0.00341732
-0.00310671
-0.00279056
-0.00247294
-0.00215814
-0.00185056
-0.00155469
-0.00127499
-0.00101582
-0.000781374
-0.000575542
-0.000401875
-0.000263474
-0.000162932
-0.000102261
-8.28454e-05
-0.000105404
-0.000169969
-0.000275884
-0.000421815
-0.000605789
-0.000825236
-0.00107706
-0.00135772
-0.00166332
-0.00198968
-0.00233248
-0.00268733
-0.0030499
-0.00341597
-0.00378154
-0.00414291
-0.0044967
-0.00483995
-0.00517008
-0.00548498
-0.00578294
-0.00606269
-0.00632336
-0.00656443
-0.00678573
-0.00698736
-0.00716968
-0.00733324
-0.00747873
-0.00760695
-0.00771878
-0.00781508
-0.00789676
-0.00796465
-0.00801955
-0.00806221
-0.00809334
-0.00811364
-0.00812386
-0.00812485
-0.00811772
-0.00810401
-0.00808582
-0.00806429
-0.00803909
-2.92608e-05
-9.31836e-06
-2.4063e-07
6.4013e-07
-5.56065e-06
-1.92903e-05
-4.07088e-05
-6.96833e-05
-0.000105943
-0.000149119
-0.00019878
-0.000254483
-0.000315802
-0.000382346
-0.000453778
-0.000529836
-0.000610322
-0.000695117
-0.000784167
-0.000877474
-0.000975102
-0.00107715
-0.00118376
-0.00129506
-0.00141121
-0.00153236
-0.00165864
-0.00179013
-0.00192692
-0.00206899
-0.00221632
-0.00236881
-0.00252627
-0.00268845
-0.00285503
-0.00302556
-0.00319954
-0.00337632
-0.00355518
-0.00373526
-0.0039156
-0.00409512
-0.0042726
-0.00444675
-0.00461612
-0.00477919
-0.00493434
-0.00507988
-0.00521404
-0.00533505
-0.00544108
-0.00553036
-0.00560113
-0.00565172
-0.00568058
-0.00568631
-0.00566768
-0.00562371
-0.00555365
-0.00545708
-0.00533389
-0.00518432
-0.00500903
-0.00480903
-0.00458585
-0.00434151
-0.00407752
-0.00379742
-0.00350407
-0.00320089
-0.00289165
-0.00258039
-0.00227136
-0.00196896
-0.00167766
-0.00140194
-0.00114615
-0.000914502
-0.000710906
-0.00053893
-0.000401701
-0.000301833
-0.000241361
-0.000221691
-0.00024356
-0.000307012
-0.0004114
-0.000555395
-0.000737021
-0.000953704
-0.00120234
-0.00147938
-0.0017809
-0.00210275
-0.00244058
-0.00279001
-0.00314672
-0.00350652
-0.00386544
-0.00421981
-0.00456632
-0.00490207
-0.00522456
-0.00553175
-0.00582202
-0.00609419
-0.00634746
-0.0065814
-0.00679592
-0.00699118
-0.00716761
-0.00732579
-0.00746648
-0.0075905
-0.00769875
-0.00779216
-0.0078716
-0.00793796
-0.00799205
-0.0080346
-0.00806632
-0.00808784
-0.00809981
-0.0081029
-0.00809783
-0.00808566
-0.00806774
-0.0080431
-0.0080084
-2.73904e-05
-4.53386e-06
5.52143e-06
6.39728e-06
-9.73627e-08
-1.41382e-05
-3.57157e-05
-6.45829e-05
-0.000100407
-0.000142798
-0.000191331
-0.000245581
-0.000305137
-0.000369637
-0.000438769
-0.000512298
-0.000590057
-0.00067194
-0.00075792
-0.000848026
-0.000942337
-0.00104097
-0.00114408
-0.00125183
-0.0013644
-0.00148195
-0.00160463
-0.00173257
-0.00186586
-0.00200455
-0.00214863
-0.00229804
-0.00245267
-0.00261229
-0.00277664
-0.00294533
-0.00311789
-0.00329377
-0.00347226
-0.00365259
-0.00383381
-0.0040149
-0.00419468
-0.00437185
-0.00454502
-0.00471265
-0.00487312
-0.00502472
-0.00516567
-0.00529412
-0.00540822
-0.00550613
-0.00558602
-0.00564615
-0.00568489
-0.00570074
-0.00569239
-0.00565875
-0.005599
-0.00551262
-0.00539941
-0.00525953
-0.00509355
-0.00490245
-0.00468754
-0.00445042
-0.00419417
-0.00392071
-0.00363322
-0.0033352
-0.00303039
-0.00272284
-0.00241681
-0.00211674
-0.0018271
-0.00155242
-0.00129711
-0.00106541
-0.000861291
-0.000688388
-0.000549885
-0.000448455
-0.00038619
-0.000364546
-0.000384302
-0.000445537
-0.000547627
-0.000689251
-0.000868434
-0.00108259
-0.00132859
-0.00160284
-0.0019014
-0.00222004
-0.0025544
-0.00290005
-0.00325262
-0.00360788
-0.00396187
-0.0043109
-0.00465169
-0.00498133
-0.0052974
-0.00559789
-0.00588126
-0.0061464
-0.0063926
-0.00661952
-0.00682715
-0.00701576
-0.00718584
-0.00733807
-0.00747326
-0.00759231
-0.00769618
-0.00778581
-0.00786216
-0.00792612
-0.00797851
-0.00802007
-0.00805146
-0.00807325
-0.00808596
-0.00809
-0.00808578
-0.00807386
-0.00805499
-0.00802649
-0.00798249
-1.58624e-05
8.45976e-06
1.8878e-05
1.95077e-05
1.25518e-05
-1.97681e-06
-2.39266e-05
-5.29417e-05
-8.86222e-05
-0.000130545
-0.000178274
-0.000231383
-0.000289472
-0.000352193
-0.000419264
-0.000490469
-0.000565666
-0.000644786
-0.00072782
-0.000814832
-0.000905934
-0.00100127
-0.00110103
-0.00120541
-0.00131462
-0.00142886
-0.00154832
-0.00167316
-0.00180353
-0.00193952
-0.00208118
-0.00222851
-0.00238142
-0.00253978
-0.00270337
-0.00287187
-0.00304488
-0.00322188
-0.00340224
-0.00358519
-0.00376987
-0.00395525
-0.00414018
-0.00432336
-0.00450339
-0.0046787
-0.00484764
-0.00500844
-0.00515926
-0.00529818
-0.00542326
-0.00553257
-0.00562417
-0.00569622
-0.00574698
-0.00577483
-0.00577836
-0.00575638
-0.00570795
-0.00563247
-0.00552964
-0.00539954
-0.00524267
-0.00505993
-0.00485266
-0.00462248
-0.00437186
-0.0041033
-0.00381985
-0.00352495
-0.00322235
-0.00291613
-0.00261058
-0.00231016
-0.00201942
-0.00174294
-0.0014852
-0.00125053
-0.00104299
-0.000866294
-0.000723732
-0.000618066
-0.000551477
-0.000525505
-0.000541001
-0.000598107
-0.000696243
-0.000834121
-0.00100978
-0.00122062
-0.00146349
-0.00173478
-0.00203046
-0.00234626
-0.00267774
-0.00302038
-0.00336975
-0.00372156
-0.00407176
-0.00441663
-0.00475285
-0.00507751
-0.00538817
-0.00568287
-0.00596009
-0.0062188
-0.00645835
-0.00667849
-0.00687929
-0.00706113
-0.0072246
-0.00737046
-0.00749963
-0.00761308
-0.00771186
-0.00779697
-0.00786942
-0.00793015
-0.00797999
-0.00801968
-0.00804985
-0.008071
-0.0080835
-0.00808756
-0.00808326
-0.0080708
-0.00805043
-0.00801814
-0.00796619
6.00137e-06
3.03376e-05
4.03559e-05
4.03091e-05
3.25582e-05
1.72476e-05
-5.35498e-06
-3.48043e-05
-7.06411e-05
-0.000112404
-0.000159638
-0.000211906
-0.000268816
-0.000330033
-0.000395294
-0.00046441
-0.00053727
-0.000613831
-0.00069413
-0.000778265
-0.000866389
-0.000958694
-0.0010554
-0.00115677
-0.00126304
-0.00137449
-0.00149134
-0.00161383
-0.00174215
-0.00187646
-0.00201688
-0.00216347
-0.00231622
-0.00247506
-0.00263984
-0.00281032
-0.00298613
-0.00316683
-0.00335182
-0.00354037
-0.00373163
-0.00392459
-0.00411807
-0.00431076
-0.00450121
-0.0046878
-0.0048688
-0.00504235
-0.0052065
-0.00535923
-0.00549849
-0.0056222
-0.00572831
-0.00581485
-0.00587993
-0.00592183
-0.005939
-0.00593014
-0.00589423
-0.00583052
-0.00573867
-0.00561866
-0.00547091
-0.00529628
-0.00509609
-0.0048719
-0.00462607
-0.00436117
-0.00408025
-0.00378674
-0.00348441
-0.00317737
-0.00286994
-0.00256665
-0.00227212
-0.001991
-0.00172787
-0.00148716
-0.00127304
-0.00108935
-0.000939506
-0.00082639
-0.000752313
-0.000718933
-0.000727213
-0.00077739
-0.000868968
-0.00100072
-0.00117072
-0.0013764
-0.00161459
-0.00188163
-0.00217348
-0.00248578
-0.00281399
-0.00315352
-0.0034998
-0.00384851
-0.00419541
-0.00453675
-0.00486912
-0.00518956
-0.00549559
-0.00578523
-0.00605699
-0.00630985
-0.00654322
-0.00675692
-0.00695111
-0.00712625
-0.00728302
-0.00742231
-0.00754513
-0.00765255
-0.0077457
-0.00782569
-0.00789358
-0.00795036
-0.00799689
-0.00803394
-0.0080621
-0.0080818
-0.00809331
-0.00809665
-0.00809165
-0.00807821
-0.00805621
-0.00802074
-0.00796269
3.83666e-05
6.1373e-05
7.01779e-05
6.89122e-05
5.99317e-05
4.34776e-05
1.99042e-05
-1.02797e-05
-4.65664e-05
-8.84595e-05
-0.00013548
-0.000187187
-0.000243191
-0.000303173
-0.000366892
-0.000434181
-0.000504965
-0.000579245
-0.000657101
-0.000738679
-0.000824182
-0.00091386
-0.001008
-0.0011069
-0.0012109
-0.00132031
-0.00143545
-0.00155662
-0.00168409
-0.0018181
-0.00195884
-0.00210647
-0.00226106
-0.0024226
-0.00259103
-0.00276616
-0.00294769
-0.00313521
-0.00332816
-0.00352583
-0.00372735
-0.00393169
-0.00413764
-0.00434383
-0.00454872
-0.00475059
-0.0049476
-0.00513778
-0.00531903
-0.00548919
-0.00564605
-0.00578739
-0.00591102
-0.00601479
-0.0060967
-0.00615488
-0.00618766
-0.00619362
-0.00617163
-0.00612086
-0.00604086
-0.00593156
-0.00579331
-0.00562691
-0.0054336
-0.00521499
-0.00497335
-0.00471125
-0.00443173
-0.00413822
-0.00383452
-0.00352476
-0.00321332
-0.00290477
-0.00260382
-0.0023152
-0.0020436
-0.00179357
-0.00156942
-0.00137514
-0.00121428
-0.0010899
-0.00100448
-0.000959822
-0.000957059
-0.000996566
-0.00107797
-0.00120015
-0.00136127
-0.0015588
-0.0017896
-0.00205002
-0.00233595
-0.00264299
-0.00296653
-0.00330185
-0.00364429
-0.00398934
-0.00433273
-0.00467053
-0.00499923
-0.00531577
-0.00561761
-0.00590269
-0.00616952
-0.00641704
-0.00664472
-0.00685238
-0.00704028
-0.00720893
-0.00735913
-0.00749185
-0.0076082
-0.00770938
-0.0077966
-0.00787107
-0.00793393
-0.00798622
-0.00802888
-0.00806267
-0.00808818
-0.00810581
-0.00811573
-0.00811785
-0.0081118
-0.00809724
-0.00807383
-0.00803603
-0.00797391
8.114e-05
0.000101606
0.000108394
0.00010533
9.46505e-05
7.66658e-05
5.17881e-05
2.05688e-05
-1.64479e-05
-5.87392e-05
-0.00010581
-0.000157222
-0.000212591
-0.000271617
-0.000334078
-0.000399848
-0.000468887
-0.000541246
-0.000617059
-0.00069653
-0.000779925
-0.000867564
-0.000959805
-0.00105704
-0.00115967
-0.0012681
-0.00138273
-0.00150397
-0.00163217
-0.00176768
-0.00191078
-0.0020617
-0.00222062
-0.00238762
-0.00256269
-0.00274571
-0.00293644
-0.00313448
-0.00333929
-0.00355014
-0.00376613
-0.00398617
-0.00420898
-0.00443308
-0.00465682
-0.00487834
-0.00509566
-0.00530662
-0.00550899
-0.00570042
-0.00587853
-0.00604092
-0.00618524
-0.0063092
-0.00641064
-0.00648755
-0.00653814
-0.00656088
-0.00655452
-0.00651815
-0.00645124
-0.00635363
-0.00622563
-0.00606793
-0.00588167
-0.00566872
-0.00543103
-0.0051712
-0.00489228
-0.00459768
-0.00429123
-0.00397707
-0.00365961
-0.00334349
-0.00303348
-0.00273441
-0.00245108
-0.00218819
-0.00195018
-0.00174123
-0.00156507
-0.00142497
-0.00132359
-0.00126298
-0.00124444
-0.00126856
-0.00133515
-0.00144324
-0.00159112
-0.00177638
-0.00199595
-0.00224619
-0.00252302
-0.00282197
-0.00313837
-0.0034674
-0.00380429
-0.00414438
-0.00448326
-0.00481685
-0.00514149
-0.00545399
-0.00575169
-0.00603244
-0.00629466
-0.00653727
-0.00675969
-0.00696179
-0.00714382
-0.00730637
-0.0074503
-0.00757667
-0.0076867
-0.00778167
-0.0078629
-0.00793169
-0.00798927
-0.00803678
-0.00807519
-0.00810531
-0.00812775
-0.00814289
-0.00815086
-0.00815146
-0.00814421
-0.00812863
-0.00810419
-0.00806504
-0.00800082
0.000134077
0.000150901
0.000154916
0.000149489
0.000136646
0.000116743
9.02344e-05
5.76942e-05
1.96888e-05
-2.32497e-05
-7.06265e-05
-0.000122004
-0.000177017
-0.000235386
-0.00029692
-0.000361533
-0.000429238
-0.000500141
-0.000574438
-0.000652405
-0.000734386
-0.000820786
-0.000912054
-0.00100867
-0.00111114
-0.00121998
-0.0013357
-0.00145879
-0.00158975
-0.001729
-0.00187696
-0.00203396
-0.00220026
-0.00237602
-0.0025613
-0.00275605
-0.00296002
-0.00317284
-0.00339394
-0.00362256
-0.00385772
-0.00409824
-0.00434272
-0.00458953
-0.00483687
-0.00508271
-0.00532487
-0.00556103
-0.00578874
-0.00600547
-0.00620866
-0.00639572
-0.00656413
-0.00671144
-0.00683534
-0.00693368
-0.00700457
-0.00704634
-0.00705765
-0.0070375
-0.00698526
-0.00690073
-0.0067841
-0.00663605
-0.00645766
-0.00625062
-0.00601697
-0.00575925
-0.00548044
-0.00518395
-0.00487359
-0.00455351
-0.00422814
-0.00390218
-0.00358045
-0.00326787
-0.00296937
-0.00268978
-0.00243373
-0.00220557
-0.00200926
-0.00184831
-0.00172564
-0.00164353
-0.00160359
-0.00160663
-0.00165271
-0.0017411
-0.00187029
-0.00203801
-0.00224133
-0.00247671
-0.00274008
-0.003027
-0.00333273
-0.00365239
-0.00398109
-0.00431401
-0.0046466
-0.00497461
-0.00529419
-0.00560199
-0.00589518
-0.00617149
-0.00642921
-0.00666717
-0.00688473
-0.00708172
-0.00725838
-0.00741533
-0.00755347
-0.00767393
-0.00777798
-0.00786702
-0.00794245
-0.00800568
-0.00805802
-0.00810068
-0.00813472
-0.00816101
-0.00818018
-0.00819263
-0.00819845
-0.00819745
-0.00818904
-0.00817266
-0.00814768
-0.00810814
-0.00804366
0.000196827
0.000208998
0.000209535
0.000201214
0.000185766
0.000163583
0.000135142
0.000101024
6.17886e-05
1.79666e-05
-2.99614e-05
-8.15681e-05
-0.000136517
-0.000194559
-0.000255547
-0.000319446
-0.000386326
-0.000456361
-0.00052982
-0.000607067
-0.000688538
-0.000774739
-0.000866224
-0.00096359
-0.00106746
-0.00117846
-0.00129724
-0.00142443
-0.00156062
-0.00170639
-0.00186225
-0.00202865
-0.00220593
-0.00239433
-0.00259397
-0.00280482
-0.00302664
-0.00325903
-0.00350137
-0.00375282
-0.00401228
-0.00427844
-0.00454973
-0.00482436
-0.00510032
-0.00537539
-0.00564717
-0.00591312
-0.00617059
-0.00641685
-0.00664912
-0.00686466
-0.00706076
-0.00723482
-0.00738437
-0.00750715
-0.00760112
-0.00766452
-0.0076959
-0.00769417
-0.00765861
-0.00758892
-0.00748524
-0.00734814
-0.00717866
-0.00697837
-0.00674926
-0.00649382
-0.00621496
-0.00591606
-0.00560088
-0.00527356
-0.00493854
-0.00460054
-0.00426443
-0.00393522
-0.00361796
-0.00331761
-0.00303899
-0.00278667
-0.00256487
-0.00237736
-0.00222735
-0.00211746
-0.0020496
-0.00202492
-0.00204381
-0.00210581
-0.00220971
-0.00235347
-0.00253437
-0.002749
-0.00299341
-0.0032632
-0.00355363
-0.00385976
-0.00417661
-0.00449923
-0.00482289
-0.00514316
-0.005456
-0.00575785
-0.00604569
-0.00631705
-0.00657006
-0.00680342
-0.00701637
-0.00720864
-0.00738045
-0.00753237
-0.00766532
-0.00778045
-0.00787911
-0.00796272
-0.00803281
-0.00809083
-0.00813821
-0.00817624
-0.00820605
-0.00822857
-0.0082445
-0.00825427
-0.00825799
-0.00825545
-0.00824605
-0.0082292
-0.00820421
-0.00816522
-0.0081021
0.000268943
0.000275523
0.000271928
0.000260221
0.000241766
0.000216978
0.000186341
0.000150413
0.000109731
6.48057e-05
1.60886e-05
-3.6025e-05
-9.12326e-05
-0.00014933
-0.000210224
-0.000273942
-0.000340621
-0.000410518
-0.000483991
-0.000561503
-0.000643602
-0.00073091
-0.000824105
-0.000923916
-0.0010311
-0.00114644
-0.00127071
-0.00140469
-0.00154911
-0.00170468
-0.00187202
-0.00205169
-0.00224412
-0.0024496
-0.0026683
-0.00290015
-0.00314493
-0.00340216
-0.00367113
-0.00395085
-0.0042401
-0.00453737
-0.00484092
-0.00514871
-0.00545853
-0.00576792
-0.00607425
-0.00637476
-0.00666657
-0.00694674
-0.00721232
-0.00746035
-0.00768797
-0.00789242
-0.00807109
-0.00822159
-0.00834176
-0.00842973
-0.00848395
-0.00850321
-0.00848671
-0.00843405
-0.00834525
-0.00822081
-0.00806169
-0.00786933
-0.00764564
-0.007393
-0.00711427
-0.00681273
-0.0064921
-0.00615646
-0.00581023
-0.00545813
-0.00510508
-0.00475615
-0.00441648
-0.00409119
-0.0037853
-0.0035036
-0.00325057
-0.0030303
-0.00284635
-0.00270171
-0.00259866
-0.00253877
-0.00252282
-0.00255074
-0.00262167
-0.00273392
-0.00288503
-0.00307185
-0.00329059
-0.00353696
-0.00380629
-0.00409362
-0.00439389
-0.00470206
-0.00501323
-0.00532276
-0.00562641
-0.00592038
-0.00620142
-0.00646684
-0.00671454
-0.00694303
-0.00715139
-0.00733921
-0.0075066
-0.00765408
-0.0077825
-0.00789302
-0.00798699
-0.00806589
-0.00813128
-0.00818471
-0.00822766
-0.00826151
-0.00828747
-0.00830655
-0.00831951
-0.00832682
-0.00832865
-0.00832481
-0.00831472
-0.00829779
-0.00827333
-0.00823573
-0.00817534
0.000349877
0.000349978
0.000341646
0.000326104
0.000304291
0.000276624
0.000243566
0.000205626
0.0001633
0.000117054
6.73025e-05
1.43876e-05
-4.14413e-05
-0.000100037
-0.000161373
-0.000225549
-0.000292789
-0.00036344
-0.000437974
-0.000516966
-0.00060109
-0.000691103
-0.00078783
-0.000892148
-0.00100497
-0.00112724
-0.00125989
-0.00140385
-0.00156
-0.00172918
-0.00191213
-0.00210949
-0.00232177
-0.0025493
-0.00279224
-0.00305051
-0.0033238
-0.00361153
-0.00391285
-0.00422663
-0.00455143
-0.00488554
-0.00522696
-0.00557345
-0.00592251
-0.00627145
-0.00661741
-0.00695738
-0.00728825
-0.00760689
-0.00791014
-0.00819487
-0.00845804
-0.00869676
-0.00890827
-0.00909005
-0.00923983
-0.0093556
-0.00943572
-0.00947888
-0.00948415
-0.00945102
-0.00937941
-0.00926969
-0.00912272
-0.0089398
-0.00872273
-0.00847378
-0.00819568
-0.00789161
-0.00756519
-0.00722044
-0.00686173
-0.00649373
-0.00612137
-0.00574978
-0.00538419
-0.00502985
-0.00469195
-0.00437553
-0.00408536
-0.00382586
-0.00360097
-0.0034141
-0.003268
-0.0031647
-0.00310545
-0.00309068
-0.00311997
-0.00319208
-0.00330492
-0.00345567
-0.00364082
-0.00385628
-0.00409749
-0.00435956
-0.0046374
-0.00492588
-0.00521996
-0.00551481
-0.00580596
-0.00608937
-0.00636149
-0.00661938
-0.00686067
-0.00708364
-0.00728711
-0.00747052
-0.00763379
-0.00777731
-0.00790186
-0.00800852
-0.00809862
-0.00817365
-0.00823518
-0.00828481
-0.00832409
-0.00835444
-0.00837717
-0.00839335
-0.00840381
-0.00840909
-0.00840942
-0.00840465
-0.00839428
-0.00837771
-0.00835431
-0.00831883
-0.00826228
0.000438954
0.00043173
0.000418096
0.000398338
0.000372861
0.000342078
0.000306411
0.000266288
0.00022214
0.000174365
0.000123316
6.92691e-05
1.24031e-05
-4.72095e-05
-0.000109623
-0.000175023
-0.000243737
-0.000316225
-0.000393078
-0.00047501
-0.000562837
-0.000657472
-0.000759901
-0.000871173
-0.000992377
-0.00112462
-0.00126901
-0.00142664
-0.00159853
-0.00178565
-0.00198885
-0.00220883
-0.00244616
-0.00270118
-0.00297399
-0.00326447
-0.00357218
-0.0038964
-0.0042361
-0.00458994
-0.00495624
-0.00533306
-0.00571813
-0.00610894
-0.00650273
-0.00689656
-0.0072873
-0.00767171
-0.00804648
-0.00840825
-0.00875366
-0.00907943
-0.00938235
-0.00965938
-0.00990762
-0.0101244
-0.0103074
-0.0104544
-0.0105637
-0.0106339
-0.0106639
-0.010653
-0.0106012
-0.0105085
-0.0103757
-0.0102041
-0.00999512
-0.00975105
-0.00947441
-0.00916827
-0.00883612
-0.00848184
-0.00810973
-0.0077244
-0.00733075
-0.00693391
-0.00653918
-0.00615193
-0.0057775
-0.00542117
-0.005088
-0.00478276
-0.00450981
-0.00427301
-0.00407561
-0.0039202
-0.00380859
-0.00374178
-0.00371991
-0.00374228
-0.00380732
-0.00391264
-0.00405511
-0.00423094
-0.00443579
-0.00466491
-0.00491326
-0.00517565
-0.00544695
-0.00572215
-0.00599654
-0.00626581
-0.00652612
-0.00677422
-0.00700742
-0.0072237
-0.00742161
-0.00760031
-0.00775952
-0.00789942
-0.00802065
-0.00812419
-0.00821127
-0.00828334
-0.00834196
-0.00838874
-0.00842526
-0.00845299
-0.0084733
-0.00848732
-0.00849594
-0.00849979
-0.00849916
-0.00849397
-0.00848378
-0.00846806
-0.00844622
-0.00841346
-0.0083616
0.000535386
0.00051998
0.00050054
0.000476225
0.000446834
0.000412744
0.000374315
0.000331868
0.000285729
0.00023621
0.000183577
0.000128019
6.963e-05
8.3917e-06
-5.58493e-05
-0.000123385
-0.000194659
-0.000270264
-0.000350932
-0.000437529
-0.000531037
-0.000632542
-0.000743213
-0.000864284
-0.000997031
-0.00114275
-0.00130271
-0.00147817
-0.0016703
-0.00188018
-0.00210875
-0.00235675
-0.00262477
-0.0029131
-0.00322179
-0.00355059
-0.0038989
-0.00426583
-0.00465011
-0.00505015
-0.00546404
-0.00588951
-0.00632405
-0.00676485
-0.00720889
-0.00765295
-0.00809365
-0.00852753
-0.00895104
-0.00936062
-0.00975274
-0.0101239
-0.0104708
-0.0107903
-0.0110792
-0.0113348
-0.0115546
-0.0117364
-0.0118783
-0.0119786
-0.0120364
-0.0120506
-0.0120212
-0.011948
-0.0118317
-0.0116733
-0.0114743
-0.0112366
-0.0109626
-0.0106552
-0.0103178
-0.00995399
-0.00956805
-0.00916446
-0.00874805
-0.00832392
-0.00789737
-0.00747385
-0.00705887
-0.00665787
-0.00627622
-0.00591902
-0.00559106
-0.00529668
-0.0050397
-0.00482329
-0.00464991
-0.00452123
-0.00443806
-0.00440034
-0.00440714
-0.00445665
-0.00454625
-0.00467257
-0.00483162
-0.00501886
-0.0052294
-0.0054581
-0.00569975
-0.00594919
-0.00620151
-0.0064521
-0.00669683
-0.00693208
-0.00715483
-0.00736267
-0.00755382
-0.00772712
-0.00788199
-0.00801838
-0.00813668
-0.00823771
-0.00832257
-0.00839261
-0.00844933
-0.0084943
-0.0085291
-0.00855523
-0.00857407
-0.00858683
-0.00859445
-0.00859762
-0.0085967
-0.00859168
-0.00858222
-0.00856784
-0.00854802
-0.00851847
-0.00847187
0.000638161
0.000613796
0.000588071
0.000558903
0.000525388
0.000487841
0.000446544
0.000401644
0.000353347
0.00030185
0.000247307
0.0001898
0.000129321
6.57399e-05
-1.21018e-06
-7.19499e-05
-0.00014706
-0.000227281
-0.000313507
-0.000406776
-0.000508255
-0.000619224
-0.00074105
-0.000875166
-0.00102305
-0.00118617
-0.00136599
-0.00156392
-0.00178124
-0.00201914
-0.00227861
-0.00256042
-0.00286511
-0.00319291
-0.00354375
-0.0039172
-0.00431248
-0.00472845
-0.0051636
-0.00561606
-0.00608359
-0.00656368
-0.00705348
-0.0075499
-0.00804964
-0.0085492
-0.00904498
-0.00953326
-0.0100103
-0.0104723
-0.0109155
-0.0113364
-0.0117314
-0.0120972
-0.0124306
-0.0127288
-0.012989
-0.0132089
-0.0133865
-0.0135202
-0.0136086
-0.0136509
-0.0136464
-0.0135953
-0.0134978
-0.0133548
-0.0131676
-0.012938
-0.0126681
-0.0123607
-0.0120189
-0.0116461
-0.0112465
-0.0108244
-0.0103844
-0.00993168
-0.0094714
-0.00900906
-0.00855024
-0.00810058
-0.00766567
-0.00725093
-0.00686157
-0.00650244
-0.0061779
-0.00589179
-0.00564726
-0.00544673
-0.00529179
-0.00518315
-0.00512063
-0.00510315
-0.00512873
-0.0051946
-0.00529723
-0.00543246
-0.00559564
-0.00578177
-0.00598564
-0.00620203
-0.00642582
-0.00665214
-0.00687654
-0.00709501
-0.00730413
-0.00750108
-0.00768369
-0.0078504
-0.00800026
-0.00813289
-0.00824841
-0.00834738
-0.00843071
-0.00849959
-0.00855539
-0.00859962
-0.00863381
-0.00865944
-0.0086779
-0.00869041
-0.00869798
-0.00870133
-0.00870089
-0.00869673
-0.00868857
-0.00867604
-0.00865865
-0.00863267
-0.00859169
0.000746109
0.000712032
0.000679587
0.000645316
0.000607526
0.00056645
0.000522151
0.000474673
0.000424043
0.000370303
0.000313471
0.000253508
0.000190276
0.000123517
5.2828e-05
-2.23581e-05
-0.00010278
-0.000189347
-0.000283135
-0.000385375
-0.000497438
-0.000620812
-0.000757077
-0.000907877
-0.00107489
-0.00125977
-0.00146416
-0.00168959
-0.00193746
-0.00220902
-0.00250528
-0.00282699
-0.00317461
-0.00354825
-0.00394766
-0.00437222
-0.00482091
-0.0052923
-0.00578459
-0.0062956
-0.00682279
-0.00736332
-0.00791403
-0.00847155
-0.00903227
-0.00959244
-0.0101482
-0.0106956
-0.0112306
-0.0117494
-0.0122479
-0.0127225
-0.0131694
-0.0135852
-0.0139666
-0.0143106
-0.0146144
-0.0148756
-0.0150919
-0.0152617
-0.0153835
-0.0154563
-0.0154794
-0.0154527
-0.0153762
-0.0152508
-0.0150775
-0.0148578
-0.0145938
-0.0142879
-0.013943
-0.0135625
-0.01315
-0.0127097
-0.0122463
-0.0117645
-0.0112695
-0.0107668
-0.010262
-0.0097607
-0.00926881
-0.00879199
-0.00833582
-0.00790562
-0.00750633
-0.00714244
-0.00681784
-0.00653577
-0.00629867
-0.00610814
-0.0059649
-0.00586871
-0.00581844
-0.00581203
-0.00584662
-0.00591856
-0.00602361
-0.00615703
-0.00631374
-0.00648851
-0.00667609
-0.00687139
-0.00706961
-0.00726638
-0.00745782
-0.00764066
-0.00781225
-0.00797058
-0.00811425
-0.00824249
-0.00835504
-0.00845215
-0.00853445
-0.0086029
-0.00865872
-0.00870325
-0.00873794
-0.00876422
-0.00878343
-0.00879681
-0.00880535
-0.00880982
-0.0088107
-0.00880813
-0.0088019
-0.0087917
-0.00877713
-0.00875496
-0.0087197
0.000857834
0.000813331
0.000773778
0.000734204
0.000692027
0.000647304
0.000599962
0.000549787
0.000496617
0.000440323
0.000380765
0.00031775
0.000250993
0.000180087
0.000104469
2.34081e-05
-6.40137e-05
-0.000158896
-0.000262516
-0.000376319
-0.000501897
-0.00064096
-0.000795312
-0.000966809
-0.00115733
-0.00136872
-0.00160275
-0.00186108
-0.00214519
-0.00245634
-0.00279554
-0.00316345
-0.00356042
-0.00398637
-0.00444086
-0.004923
-0.00543147
-0.00596457
-0.00652015
-0.0070957
-0.00768835
-0.00829493
-0.00891196
-0.00953576
-0.0101624
-0.010788
-0.0114082
-0.012019
-0.0126162
-0.0131956
-0.0137531
-0.0142848
-0.014787
-0.0152559
-0.0156883
-0.0160809
-0.0164309
-0.0167358
-0.0169933
-0.0172015
-0.017359
-0.0174645
-0.0175173
-0.017517
-0.0174636
-0.017358
-0.0172006
-0.0169929
-0.0167367
-0.0164342
-0.016088
-0.0157012
-0.0152773
-0.0148203
-0.0143343
-0.013824
-0.0132946
-0.0127511
-0.0121994
-0.0116449
-0.0110937
-0.0105517
-0.0100247
-0.00951844
-0.00903843
-0.00858979
-0.00817718
-0.00780464
-0.00747557
-0.00719254
-0.00695726
-0.00677053
-0.00663218
-0.00654109
-0.00649521
-0.00649163
-0.00652668
-0.00659606
-0.00669496
-0.00681826
-0.00696067
-0.00711694
-0.00728198
-0.00745101
-0.00761972
-0.00778433
-0.00794164
-0.00808911
-0.00822484
-0.00834755
-0.00845655
-0.00855167
-0.00863319
-0.00870179
-0.00875841
-0.00880421
-0.00884048
-0.00886854
-0.00888966
-0.00890502
-0.00891561
-0.0089222
-0.00892528
-0.00892506
-0.00892138
-0.00891399
-0.00890256
-0.00888435
-0.00885475
0.000971706
0.000916106
0.000869112
0.000824099
0.000777444
0.000729031
0.00067856
0.000625547
0.000569599
0.000510388
0.000447586
0.000380826
0.000309651
0.000233481
0.000151578
6.30203e-05
-3.33078e-05
-0.000138717
-0.000254708
-0.000382957
-0.000525291
-0.000683654
-0.000860076
-0.00105663
-0.00127538
-0.00151833
-0.00178739
-0.00208431
-0.00241059
-0.00276749
-0.00315592
-0.00357646
-0.00402924
-0.00451399
-0.00502999
-0.00557606
-0.00615057
-0.00675145
-0.00737622
-0.00802201
-0.0086856
-0.00936346
-0.0100518
-0.0107466
-0.0114437
-0.0121389
-0.0128276
-0.0135055
-0.0141683
-0.0148115
-0.015431
-0.0160227
-0.0165826
-0.017107
-0.0175924
-0.0180357
-0.0184339
-0.0187843
-0.0190847
-0.019333
-0.0195278
-0.0196677
-0.0197518
-0.0197798
-0.0197516
-0.0196672
-0.0195276
-0.0193339
-0.0190875
-0.0187905
-0.0184452
-0.0180543
-0.0176211
-0.0171492
-0.0166426
-0.0161056
-0.0155431
-0.01496
-0.0143619
-0.0137543
-0.0131432
-0.0125345
-0.0119344
-0.0113488
-0.0107838
-0.0102451
-0.00973798
-0.0092674
-0.00883766
-0.00845239
-0.00811441
-0.00782565
-0.00758708
-0.00739869
-0.00725946
-0.00716743
-0.00711971
-0.00711264
-0.00714188
-0.00720258
-0.00728958
-0.00739752
-0.0075211
-0.00765519
-0.00779501
-0.00793624
-0.00807512
-0.00820848
-0.00833384
-0.00844933
-0.00855371
-0.00864633
-0.00872702
-0.00879606