/*--------------------------------*- C++ -*----------------------------------*\
| =========                 |                                                 |
| \\      /  F ield         | OpenFOAM: The Open Source CFD Toolbox           |
|  \\    /   O peration     | Version:  2112                                  |
|   \\  /    A nd           | Website:  www.openfoam.com                      |
|    \\/     M anipulation  |                                                 |
\*---------------------------------------------------------------------------*/
FoamFile
{
    version     2.0;
    format      ascii;
    arch        "LSB;label=32;scalar=64";
    class       surfaceScalarField;
    location    "25";
    object      phi;
}
// * * * * * * * * * * * * * * * * * * * * * * * * * * * * * * * * * * * * * //

dimensions      [0 3 -1 0 0 0 0];

oriented        oriented;

internalField   nonuniform List<scalar> 
33024
(
-1.87859e-09
1.88416e-09
2.23845e-08
-2.42638e-08
7.28643e-08
-5.04808e-08
1.41688e-07
-6.88225e-08
2.21281e-07
-7.95914e-08
3.0542e-07
-8.41411e-08
3.89261e-07
-8.38419e-08
4.69169e-07
-7.99075e-08
5.42501e-07
-7.33318e-08
6.07408e-07
-6.49063e-08
6.62666e-07
-5.52577e-08
7.07542e-07
-4.48765e-08
7.41679e-07
-3.41371e-08
7.64994e-07
-2.33149e-08
7.77595e-07
-1.26009e-08
7.7971e-07
-2.11514e-09
7.71618e-07
8.0918e-09
7.53603e-07
1.80142e-08
7.25913e-07
2.76918e-08
6.88718e-07
3.71953e-08
6.42097e-07
4.66206e-08
5.86017e-07
5.60784e-08
5.20332e-07
6.5685e-08
4.44778e-07
7.55559e-08
3.58981e-07
8.5797e-08
2.62469e-07
9.65114e-08
1.54689e-07
1.07779e-07
3.50257e-08
1.19663e-07
-9.71829e-08
1.32209e-07
-2.42621e-07
1.45438e-07
-4.01976e-07
1.59355e-07
-5.75919e-07
1.73942e-07
-7.65083e-07
1.89163e-07
-9.70046e-07
2.04963e-07
-1.19131e-06
2.21268e-07
-1.4293e-06
2.37988e-07
-1.68432e-06
2.55015e-07
-1.95654e-06
2.72226e-07
-2.24602e-06
2.89479e-07
-2.55264e-06
3.06618e-07
-2.87611e-06
3.23472e-07
-3.21597e-06
3.39853e-07
-3.57153e-06
3.55562e-07
-3.94191e-06
3.70385e-07
-4.32601e-06
3.84099e-07
-4.72248e-06
3.96471e-07
-5.12974e-06
4.07262e-07
-5.54597e-06
4.1623e-07
-5.96911e-06
4.23134e-07
-6.39684e-06
4.27731e-07
-6.82663e-06
4.2979e-07
-7.25572e-06
4.29087e-07
-7.68113e-06
4.25413e-07
-8.09971e-06
4.18576e-07
-8.50811e-06
4.08408e-07
-8.90288e-06
3.94764e-07
-9.28041e-06
3.77531e-07
-9.63704e-06
3.5663e-07
-9.96905e-06
3.32016e-07
-1.02727e-05
3.03687e-07
-1.05444e-05
2.71683e-07
-1.07805e-05
2.3609e-07
-1.09776e-05
1.97044e-07
-1.11323e-05
1.54733e-07
-1.12417e-05
1.09405e-07
-1.13031e-05
6.13568e-08
-1.13141e-05
1.10155e-08
-1.12724e-05
-4.16757e-08
-1.11767e-05
-9.5644e-08
-1.1026e-05
-1.50733e-07
-1.08197e-05
-2.06358e-07
-1.05577e-05
-2.61943e-07
-1.02408e-05
-3.16882e-07
-9.87029e-06
-3.70545e-07
-9.448e-06
-4.22286e-07
-8.97655e-06
-4.71454e-07
-8.45915e-06
-5.17402e-07
-7.89965e-06
-5.59502e-07
-7.30249e-06
-5.97155e-07
-6.67268e-06
-6.29807e-07
-6.01572e-06
-6.56959e-07
-5.33754e-06
-6.78184e-07
-4.6444e-06
-6.93135e-07
-3.94284e-06
-7.0156e-07
-3.23954e-06
-7.03309e-07
-2.54119e-06
-6.98342e-07
-1.85446e-06
-6.86732e-07
-1.18579e-06
-6.6867e-07
-5.41334e-07
-6.44458e-07
7.31792e-08
-6.14513e-07
6.52551e-07
-5.79372e-07
1.19214e-06
-5.39587e-07
1.68801e-06
-4.95875e-07
2.13698e-06
-4.48968e-07
2.53663e-06
-3.99644e-07
2.88533e-06
-3.48702e-07
3.18227e-06
-2.96941e-07
3.42741e-06
-2.45142e-07
3.62146e-06
-1.94046e-07
3.7658e-06
-1.44343e-07
3.86245e-06
-9.66491e-08
3.91395e-06
-5.1503e-08
3.92331e-06
-9.35278e-09
3.89386e-06
2.94501e-08
3.82921e-06
6.46476e-08
3.73313e-06
9.60809e-08
3.60944e-06
1.23682e-07
3.46198e-06
1.47469e-07
3.29444e-06
1.67536e-07
3.11039e-06
1.84048e-07
2.91317e-06
1.97219e-07
2.70586e-06
2.07309e-07
2.49126e-06
2.146e-07
2.27188e-06
2.19383e-07
2.04994e-06
2.21938e-07
1.82743e-06
2.2251e-07
1.60615e-06
2.21285e-07
1.38779e-06
2.18362e-07
1.17407e-06
2.13716e-07
9.66899e-07
2.07171e-07
7.68542e-07
1.98357e-07
5.81866e-07
1.86677e-07
4.10582e-07
1.71284e-07
2.59487e-07
1.51094e-07
1.34586e-07
1.24901e-07
4.28118e-08
9.17743e-08
-9.2527e-09
5.20646e-08
-1.94791e-08
1.02265e-08
-1.94791e-08
2.42363e-08
-2.23528e-08
1.052e-07
-1.05228e-07
2.3538e-07
-1.80661e-07
4.01885e-07
-2.35327e-07
5.90844e-07
-2.68552e-07
7.89508e-07
-2.82803e-07
9.87052e-07
-2.81385e-07
1.17475e-06
-2.67612e-07
1.34587e-06
-2.44445e-07
1.49536e-06
-2.144e-07
1.61966e-06
-1.79557e-07
1.71637e-06
-1.41588e-07
1.78404e-06
-1.01806e-07
1.82193e-06
-6.11987e-08
1.82979e-06
-2.04669e-08
1.80775e-06
1.99281e-08
1.75608e-06
5.97641e-08
1.67511e-06
9.89801e-08
1.56513e-06
1.37672e-07
1.42627e-06
1.7605e-07
1.25849e-06
2.14409e-07
1.06147e-06
2.53097e-07
8.34666e-07
2.92486e-07
5.7727e-07
3.32951e-07
2.88239e-07
3.74828e-07
-3.36962e-08
4.18447e-07
-3.89966e-07
4.64049e-07
-7.82124e-07
5.11822e-07
-1.2118e-06
5.61883e-07
-1.68063e-06
6.14272e-07
-2.19023e-06
6.6895e-07
-2.74209e-06
7.25806e-07
-3.33758e-06
7.84652e-07
-3.97784e-06
8.4523e-07
-4.66379e-06
9.07212e-07
-5.396e-06
9.70205e-07
-6.17474e-06
1.03375e-06
-6.99986e-06
1.09734e-06
-7.87076e-06
1.16039e-06
-8.78641e-06
1.22226e-06
-9.74522e-06
1.28229e-06
-1.07451e-05
1.33973e-06
-1.17834e-05
1.39383e-06
-1.28567e-05
1.44376e-06
-1.39614e-05
1.48871e-06
-1.50927e-05
1.52783e-06
-1.62457e-05
1.56026e-06
-1.74146e-05
1.58516e-06
-1.85932e-05
1.60169e-06
-1.97745e-05
1.60904e-06
-2.09512e-05
1.60647e-06
-2.21154e-05
1.59326e-06
-2.32587e-05
1.56879e-06
-2.43727e-05
1.53249e-06
-2.54482e-05
1.4839e-06
-2.64761e-05
1.42268e-06
-2.74471e-05
1.34859e-06
-2.8352e-05
1.26152e-06
-2.91815e-05
1.16149e-06
-2.99265e-05
1.04867e-06
-3.05782e-05
9.23391e-07
-3.11282e-05
7.86127e-07
-3.15687e-05
6.37518e-07
-3.18923e-05
4.78368e-07
-3.20926e-05
3.09677e-07
-3.21638e-05
1.32603e-07
-3.21013e-05
-5.15379e-08
-3.19011e-05
-2.41884e-07
-3.15607e-05
-4.36066e-07
-3.10787e-05
-6.32678e-07
-3.04552e-05
-8.29893e-07
-2.96914e-05
-1.02577e-06
-2.87899e-05
-1.21831e-06
-2.7755e-05
-1.40543e-06
-2.65923e-05
-1.58503e-06
-2.53087e-05
-1.75502e-06
-2.39128e-05
-1.91333e-06
-2.24143e-05
-2.05796e-06
-2.08245e-05
-2.18704e-06
-1.91555e-05
-2.29881e-06
-1.74207e-05
-2.39172e-06
-1.56345e-05
-2.46442e-06
-1.38117e-05
-2.51585e-06
-1.19681e-05
-2.54519e-06
-1.01194e-05
-2.55199e-06
-8.28169e-06
-2.53609e-06
-6.47071e-06
-2.49772e-06
-4.70194e-06
-2.43744e-06
-2.99021e-06
-2.35619e-06
-1.34948e-06
-2.25525e-06
2.07363e-07
-2.13621e-06
1.66876e-06
-2.00098e-06
3.02456e-06
-1.85167e-06
4.26626e-06
-1.69067e-06
5.38708e-06
-1.52047e-06
6.38205e-06
-1.34367e-06
7.24802e-06
-1.16291e-06
7.98367e-06
-9.8079e-07
8.58945e-06
-7.99834e-07
9.06752e-06
-6.22414e-07
9.42159e-06
-4.50713e-07
9.65676e-06
-2.86676e-07
9.77938e-06
-1.31975e-07
9.79682e-06
1.20117e-08
9.71725e-06
1.44217e-07
9.54945e-06
2.63888e-07
9.30254e-06
3.70585e-07
8.98585e-06
4.64159e-07
8.60865e-06
5.44736e-07
8.18002e-06
6.12683e-07
7.70867e-06
6.68569e-07
7.20286e-06
7.13122e-07
6.67028e-06
7.47171e-07
6.11808e-06
7.71589e-07
5.55279e-06
7.87225e-07
4.98047e-06
7.94826e-07
4.40681e-06
7.94951e-07
3.83729e-06
7.87876e-07
3.27751e-06
7.73502e-07
2.73343e-06
7.51251e-07
2.2118e-06
7.19987e-07
1.72052e-06
6.77958e-07
1.26898e-06
6.22825e-07
8.68232e-07
5.51839e-07
5.30757e-07
4.62377e-07
2.69329e-07
3.53202e-07
9.45653e-08
2.26829e-07
1.05772e-08
9.42146e-08
-8.90192e-09
5.05574e-08
-7.29112e-08
1.81014e-07
-2.35684e-07
3.73793e-07
-3.73438e-07
6.11037e-07
-4.72572e-07
8.74935e-07
-5.32451e-07
1.149e-06
-5.56872e-07
1.41887e-06
-5.51246e-07
1.67253e-06
-5.21279e-07
1.9004e-06
-4.72307e-07
2.09502e-06
-4.09025e-07
2.25089e-06
-3.35421e-07
2.36407e-06
-2.54771e-07
2.43195e-06
-1.69689e-07
2.45293e-06
-8.21744e-08
2.42613e-06
6.33408e-09
2.35119e-06
9.4864e-08
2.22804e-06
1.82912e-07
2.05672e-06
2.70308e-07
1.83719e-06
3.57193e-07
1.56931e-06
4.43937e-07
1.25264e-06
5.31083e-07
8.86452e-07
6.1928e-07
4.69708e-07
7.0923e-07
1.03072e-09
8.01629e-07
-5.21282e-07
8.9714e-07
-1.09914e-06
9.96306e-07
-1.73468e-06
1.09959e-06
-2.43015e-06
1.20729e-06
-3.18784e-06
1.31957e-06
-4.00999e-06
1.43643e-06
-4.89872e-06
1.55768e-06
-5.8559e-06
1.68299e-06
-6.88311e-06
1.81186e-06
-7.98154e-06
1.94366e-06
-9.15189e-06
2.07756e-06
-1.03943e-05
2.21265e-06
-1.17084e-05
2.34783e-06
-1.3093e-05
2.48192e-06
-1.45462e-05
2.61359e-06
-1.60654e-05
2.74143e-06
-1.7647e-05
2.86391e-06
-1.92867e-05
2.97942e-06
-2.09792e-05
3.08631e-06
-2.27182e-05
3.18284e-06
-2.44968e-05
3.26728e-06
-2.63068e-05
3.33787e-06
-2.81395e-05
3.39288e-06
-2.99849e-05
3.43061e-06
-3.18327e-05
3.44945e-06
-3.36715e-05
3.44786e-06
-3.54895e-05
3.42445e-06
-3.72742e-05
3.37794e-06
-3.90126e-05
3.30727e-06
-4.06917e-05
3.21153e-06
-4.22978e-05
3.09007e-06
-4.38176e-05
2.94243e-06
-4.52374e-05
2.76843e-06
-4.65441e-05
2.56817e-06
-4.77246e-05
2.34199e-06
-4.87665e-05
2.09057e-06
-4.96579e-05
1.81483e-06
-5.03878e-05
1.51603e-06
-5.0946e-05
1.19571e-06
-5.13234e-05
8.55737e-07
-5.1512e-05
4.9829e-07
-5.15056e-05
1.26179e-07
-5.1298e-05
-2.59125e-07
-5.08862e-05
-6.53685e-07
-5.02679e-05
-1.05434e-06
-4.94428e-05
-1.45781e-06
-4.84122e-05
-1.86051e-06
-4.71792e-05
-2.25869e-06
-4.57491e-05
-2.64846e-06
-4.41286e-05
-3.0259e-06
-4.23266e-05
-3.38702e-06
-4.03538e-05
-3.72788e-06
-3.82225e-05
-4.04463e-06
-3.59469e-05
-4.33355e-06
-3.35428e-05
-4.59113e-06
-3.10275e-05
-4.81414e-06
-2.84195e-05
-4.99971e-06
-2.57385e-05
-5.14534e-06
-2.30054e-05
-5.24903e-06
-2.02413e-05
-5.30928e-06
-1.74681e-05
-5.32518e-06
-1.47077e-05
-5.29643e-06
-1.19821e-05
-5.22337e-06
-9.31251e-06
-5.107e-06
-6.71973e-06
-4.94897e-06
-4.22338e-06
-4.75159e-06
-1.84182e-06
-4.51777e-06
4.08183e-07
-4.25099e-06
2.51172e-06
-3.95521e-06
4.45587e-06
-3.63482e-06
6.22996e-06
-3.29455e-06
7.82564e-06
-2.93935e-06
9.23701e-06
-2.57428e-06
1.04606e-05
-2.2044e-06
1.14955e-05
-1.83469e-06
1.23429e-05
-1.46988e-06
1.30066e-05
-1.11441e-06
1.34923e-05
-7.72305e-07
1.38074e-05
-4.47123e-07
1.39613e-05
-1.41874e-07
1.39645e-05
1.41002e-07
1.38287e-05
3.99673e-07
1.35664e-05
6.32901e-07
1.31905e-05
8.40036e-07
1.27143e-05
1.02098e-06
1.21509e-05
1.17612e-06
1.15131e-05
1.3063e-06
1.08136e-05
1.41268e-06
1.00641e-05
1.49666e-06
9.27589e-06
1.55978e-06
8.45957e-06
1.60354e-06
7.62511e-06
1.62929e-06
6.78202e-06
1.63804e-06
5.93962e-06
1.63028e-06
5.10728e-06
1.60584e-06
4.29486e-06
1.56367e-06
3.51307e-06
1.50178e-06
2.77389e-06
1.41713e-06
2.09086e-06
1.30586e-06
1.47909e-06
1.16361e-06
9.54843e-07
9.86624e-07
5.34309e-07
7.73736e-07
2.31356e-07
5.29781e-07
5.39682e-08
2.71603e-07
4.50663e-08
6.92767e-08
-1.42188e-07
2.36775e-07
-4.03179e-07
4.74784e-07
-6.11448e-07
7.59963e-07
-7.57751e-07
1.07108e-06
-8.43566e-07
1.38906e-06
-8.7486e-07
1.69731e-06
-8.59489e-07
1.98177e-06
-8.0574e-07
2.23095e-06
-7.21491e-07
2.43574e-06
-6.13811e-07
2.58912e-06
-4.88802e-07
2.6859e-06
-3.51554e-07
2.72239e-06
-2.06176e-07
2.69606e-06
-5.58485e-08
2.6053e-06
9.71014e-08
2.44905e-06
2.51108e-07
2.22668e-06
4.05287e-07
1.93766e-06
5.59323e-07
1.58148e-06
7.13376e-07
1.15743e-06
8.6798e-07
6.64581e-07
1.02394e-06
1.01648e-07
1.18222e-06
-5.32985e-07
1.34386e-06
-1.24128e-06
1.50992e-06
-2.02547e-06
1.68134e-06
-2.88808e-06
1.85891e-06
-3.83175e-06
2.04326e-06
-4.85919e-06
2.23473e-06
-5.97306e-06
2.43345e-06
-7.17585e-06
2.63922e-06
-8.46978e-06
2.85161e-06
-9.85666e-06
3.06986e-06
-1.13378e-05
3.29298e-06
-1.29138e-05
3.51969e-06
-1.45847e-05
3.74846e-06
-1.63496e-05
3.97753e-06
-1.82067e-05
4.20493e-06
-2.01532e-05
4.42848e-06
-2.21855e-05
4.64581e-06
-2.42984e-05
4.85439e-06
-2.64861e-05
5.05158e-06
-2.87413e-05
5.2346e-06
-3.10556e-05
5.40062e-06
-3.34195e-05
5.54676e-06
-3.58224e-05
5.67014e-06
-3.82524e-05
5.76793e-06
-4.06969e-05
5.83738e-06
-4.31422e-05
5.87586e-06
-4.55736e-05
5.88092e-06
-4.79761e-05
5.8503e-06
-5.03337e-05
5.78202e-06
-5.26301e-05
5.67437e-06
-5.48488e-05
5.52597e-06
-5.6973e-05
5.33579e-06
-5.89862e-05
5.10319e-06
-6.08716e-05
4.82792e-06
-6.26134e-05
4.51015e-06
-6.41957e-05
4.1505e-06
-6.56037e-05
3.75e-06
-6.68233e-05
3.31016e-06
-6.78414e-05
2.83292e-06
-6.8646e-05
2.32065e-06
-6.92265e-05
1.77618e-06
-6.95735e-05
1.20275e-06
-6.96791e-05
6.03869e-07
-6.95384e-05
-1.4506e-08
-6.91447e-05
-6.52852e-07
-6.84968e-05
-1.30155e-06
-6.75938e-05
-1.95737e-06
-6.64367e-05
-2.61486e-06
-6.50288e-05
-3.26844e-06
-6.33752e-05
-3.91232e-06
-6.1483e-05
-4.54061e-06
-5.93616e-05
-5.14733e-06
-5.70221e-05
-5.72649e-06
-5.44778e-05
-6.27218e-06
-5.17438e-05
-6.77862e-06
-4.88371e-05
-7.24029e-06
-4.57763e-05
-7.65193e-06
-4.25817e-05
-8.00875e-06
-3.9275e-05
-8.30643e-06
-3.58791e-05
-8.54122e-06
-3.2418e-05
-8.7101e-06
-2.89165e-05
-8.81076e-06
-2.54e-05
-8.84177e-06
-2.18938e-05
-8.80255e-06
-1.84237e-05
-8.69349e-06
-1.50148e-05
-8.51594e-06
-1.16915e-05
-8.27223e-06
-8.47748e-06
-7.96565e-06
-5.39483e-06
-7.60042e-06
-2.46419e-06
-7.18163e-06
2.95732e-07
-6.71514e-06
2.86844e-06
-6.20752e-06
5.23973e-06
-5.66584e-06
7.39803e-06
-5.09765e-06
9.33446e-06
-4.51071e-06
1.10429e-05
-3.91286e-06
1.25201e-05
-3.31192e-06
1.37657e-05
-2.71542e-06
1.47818e-05
-2.13052e-06
1.55733e-05
-1.56383e-06
1.61475e-05
-1.0213e-06
1.65137e-05
-5.08099e-07
1.66833e-05
-2.85687e-08
1.66691e-05
4.1388e-07
1.64852e-05
8.16739e-07
1.61469e-05
1.17843e-06
1.56696e-05
1.49824e-06
1.50694e-05
1.77627e-06
1.43624e-05
2.01336e-06
1.35642e-05
2.2109e-06
1.26901e-05
2.37073e-06
1.17549e-05
2.49493e-06
1.07729e-05
2.58562e-06
9.75743e-06
2.64472e-06
8.72177e-06
2.67369e-06
7.67878e-06
2.67327e-06
6.6414e-06
2.64322e-06
5.62298e-06
2.5821e-06
4.63765e-06
2.4871e-06
3.70072e-06
2.35407e-06
2.82885e-06
2.17773e-06
2.04012e-06
1.95234e-06
1.35367e-06
1.67308e-06
7.88888e-07
1.33851e-06
3.64284e-07
9.54386e-07
9.62437e-08
5.39643e-07
1.4131e-07
8.07001e-08
-2.22887e-07
2.71675e-07
-5.94158e-07
5.37246e-07
-8.77019e-07
8.49043e-07
-1.06955e-06
1.18275e-06
-1.17727e-06
1.51727e-06
-1.20938e-06
1.83446e-06
-1.17668e-06
2.11896e-06
-1.09024e-06
2.35808e-06
-9.60609e-07
2.54155e-06
-7.97284e-07
2.6613e-06
-6.08549e-07
2.71112e-06
-4.01377e-07
2.68639e-06
-1.81442e-07
2.58371e-06
4.68284e-08
2.40065e-06
2.80164e-07
2.13541e-06
5.16344e-07
1.78662e-06
7.54075e-07
1.35308e-06
9.92863e-07
8.33593e-07
1.23287e-06
2.26807e-07
1.47477e-06
-4.68864e-07
1.71961e-06
-1.25531e-06
1.96866e-06
-2.13475e-06
2.2233e-06
-3.1097e-06
2.48487e-06
-4.18292e-06
2.75455e-06
-5.35734e-06
3.03333e-06
-6.63594e-06
3.32186e-06
-8.02165e-06
3.62044e-06
-9.51719e-06
3.92898e-06
-1.11249e-05
4.24697e-06
-1.28468e-05
4.57346e-06
-1.4684e-05
4.90708e-06
-1.66371e-05
5.24608e-06
-1.87057e-05
5.58829e-06
-2.08884e-05
5.93117e-06
-2.31828e-05
6.27186e-06
-2.5585e-05
6.60717e-06
-2.80902e-05
6.93366e-06
-3.0692e-05
7.24762e-06
-3.33828e-05
7.54516e-06
-3.61534e-05
7.82224e-06
-3.89935e-05
8.07471e-06
-4.18913e-05
8.29839e-06
-4.48336e-05
8.4891e-06
-4.78062e-05
8.64274e-06
-5.07937e-05
8.75536e-06
-5.37795e-05
8.82319e-06
-5.67464e-05
8.84274e-06
-5.96763e-05
8.81085e-06
-6.25507e-05
8.7247e-06
-6.53506e-05
8.58195e-06
-6.8057e-05
8.3807e-06
-7.06505e-05
8.11956e-06
-7.31125e-05
7.7977e-06
-7.54241e-05
7.41484e-06
-7.75675e-05
6.97129e-06
-7.95253e-05
6.46794e-06
-8.12811e-05
5.90628e-06
-8.28194e-05
5.28839e-06
-8.41262e-05
4.61695e-06
-8.51885e-05
3.8952e-06
-8.59948e-05
3.12695e-06
-8.65352e-05
2.31654e-06
-8.68013e-05
1.46886e-06
-8.67868e-05
5.89348e-07
-8.64853e-05
-3.16015e-07
-8.5896e-05
-1.24208e-06
-8.50166e-05
-2.18098e-06
-8.38479e-05
-3.12603e-06
-8.23928e-05
-4.06997e-06
-8.0656e-05
-5.00524e-06
-7.86443e-05
-5.92405e-06
-7.63664e-05
-6.81851e-06
-7.38331e-05
-7.68062e-06
-7.10572e-05
-8.50244e-06
-6.80532e-05
-9.27609e-06
-6.4838e-05
-9.99391e-06
-6.14297e-05
-1.06485e-05
-5.78486e-05
-1.1233e-05
-5.41164e-05
-1.1741e-05
-5.02563e-05
-1.21665e-05
-4.62928e-05
-1.25047e-05
-4.22515e-05
-1.27514e-05
-3.8159e-05
-1.29033e-05
-3.40425e-05
-1.29583e-05
-2.99294e-05
-1.29155e-05
-2.58477e-05
-1.27753e-05
-2.18246e-05
-1.2539e-05
-1.78873e-05
-1.22095e-05
-1.40619e-05
-1.17911e-05
-1.03733e-05
-1.1289e-05
-6.84513e-06
-1.07098e-05
-3.49904e-06
-1.00612e-05
-3.54664e-07
-9.35189e-06
2.57074e-06
-8.59125e-06
5.26248e-06
-7.78939e-06
7.70863e-06
-6.95686e-06
9.9002e-06
-6.10443e-06
1.18312e-05
-5.24292e-06
1.34987e-05
-4.3829e-06
1.49027e-05
-3.53455e-06
1.60463e-05
-2.70739e-06
1.69352e-05
-1.91018e-06
1.75777e-05
-1.15067e-06
1.79847e-05
-4.35544e-07
1.81689e-05
2.29723e-07
1.81447e-05
8.40896e-07
1.79281e-05
1.39499e-06
1.75361e-05
1.89024e-06
1.69864e-05
2.32606e-06
1.62968e-05
2.70288e-06
1.54857e-05
3.02202e-06
1.4571e-05
3.28547e-06
1.35703e-05
3.49564e-06
1.25008e-05
3.65509e-06
1.13793e-05
3.7662e-06
1.02222e-05
3.83081e-06
9.04559e-06
3.84988e-06
7.86564e-06
3.82317e-06
6.69883e-06
3.74891e-06
5.56229e-06
3.62364e-06
4.47412e-06
3.44224e-06
3.45363e-06
3.19821e-06
2.52146e-06
2.88451e-06
1.6995e-06
2.49504e-06
1.01081e-06
2.02721e-06
4.79593e-07
1.4856e-06
1.31997e-07
8.87239e-07
2.73306e-07
8.60587e-08
-3.08946e-07
2.8771e-07
-7.95808e-07
5.63876e-07
-1.15319e-06
8.82243e-07
-1.38792e-06
1.21595e-06
-1.51098e-06
1.5423e-06
-1.53573e-06
1.84206e-06
-1.47643e-06
2.09902e-06
-1.34721e-06
2.29975e-06
-1.16134e-06
2.43325e-06
-9.30781e-07
2.49069e-06
-6.65991e-07
2.46512e-06
-3.758e-07
2.3511e-06
-6.74278e-08
2.14447e-06
2.53461e-07
1.84198e-06
5.82656e-07
1.44105e-06
9.17276e-07
9.39504e-07
1.25562e-06
3.35376e-07
1.59699e-06
-3.73295e-07
1.94154e-06
-1.18859e-06
2.29006e-06
-2.11279e-06
2.64381e-06
-3.14845e-06
3.00432e-06
-4.29835e-06
3.37321e-06
-5.56552e-06
3.75204e-06
-6.95311e-06
4.14215e-06
-8.46431e-06
4.54454e-06
-1.01022e-05
4.95978e-06
-1.18697e-05
5.38792e-06
-1.37692e-05
5.82847e-06
-1.58026e-05
6.28033e-06
-1.79709e-05
6.74184e-06
-2.02746e-05
7.21074e-06
-2.27127e-05
7.68421e-06
-2.52833e-05
8.1589e-06
-2.79832e-05
8.63098e-06
-3.08075e-05
9.09619e-06
-3.37502e-05
9.54986e-06
-3.68035e-05
9.98698e-06
-3.99582e-05
1.04023e-05
-4.32034e-05
1.07903e-05
-4.65266e-05
1.11455e-05
-4.99141e-05
1.14622e-05
-5.33505e-05
1.17347e-05
-5.68191e-05
1.19577e-05
-6.03021e-05
1.21258e-05
-6.37808e-05
1.22341e-05
-6.72356e-05
1.22779e-05
-7.0646e-05
1.22532e-05
-7.39913e-05
1.21562e-05
-7.72507e-05
1.1984e-05
-8.04029e-05
1.17342e-05
-8.34274e-05
1.14051e-05
-8.63035e-05
1.09957e-05
-8.90114e-05
1.05056e-05
-9.15319e-05
9.93541e-06
-9.38469e-05
9.28631e-06
-9.59393e-05
8.56026e-06
-9.7793e-05
7.75996e-06
-9.93933e-05
6.88878e-06
-0.000100727
5.95082e-06
-0.000101783
4.95082e-06
-0.00010255
3.89416e-06
-0.00010302
2.78681e-06
-0.000103187
1.63535e-06
-0.000103044
4.47017e-07
-0.000102589
-7.71085e-07
-0.000101821
-2.01073e-06
-0.000100738
-3.26328e-06
-9.93445e-05
-4.51995e-06
-9.76429e-05
-5.77159e-06
-9.56394e-05
-7.00877e-06
-9.33416e-05
-8.22184e-06
-9.07591e-05
-9.40101e-06
-8.79033e-05
-1.05364e-05
-8.47875e-05
-1.16182e-05
-8.14268e-05
-1.26367e-05
-7.78383e-05
-1.35825e-05
-7.40406e-05
-1.44462e-05
-7.00542e-05
-1.52194e-05
-6.59012e-05
-1.5894e-05
-6.16051e-05
-1.64626e-05
-5.71909e-05
-1.69189e-05
-5.26849e-05
-1.72574e-05
-4.81142e-05
-1.7474e-05
-4.35069e-05
-1.75656e-05
-3.88916e-05
-1.75309e-05
-3.42972e-05
-1.73696e-05
-2.97527e-05
-1.70834e-05
-2.52868e-05
-1.66754e-05
-2.09276e-05
-1.61503e-05
-1.67021e-05
-1.55144e-05
-1.26363e-05
-1.47756e-05
-8.75442e-06
-1.39432e-05
-5.07873e-06
-1.30276e-05
-1.62941e-06
-1.20406e-05
1.57593e-06
-1.09947e-05
4.5224e-06
-9.90332e-06
7.19794e-06
-8.77997e-06
9.59365e-06
-7.63863e-06
1.17037e-05
-6.49298e-06
1.35256e-05
-5.35638e-06
1.50597e-05
-4.24152e-06
1.63097e-05
-3.1602e-06
1.72821e-05
-2.12311e-06
1.79862e-05
-1.13965e-06
1.84337e-05
-2.17776e-07
1.86385e-05
6.36116e-07
1.86163e-05
1.41718e-06
1.83844e-05
2.12215e-06
1.79612e-05
2.74928e-06
1.73659e-05
3.29819e-06
1.66182e-05
3.76972e-06
1.5738e-05
4.16564e-06
1.47453e-05
4.4884e-06
1.36596e-05
4.74073e-06
1.25006e-05
4.92527e-06
1.12872e-05
5.04413e-06
1.00387e-05
5.09844e-06
8.77391e-06
5.08794e-06
7.5122e-06
5.01062e-06
6.27336e-06
4.86248e-06
5.07801e-06
4.63758e-06
3.94791e-06
4.32832e-06
2.90618e-06
3.92624e-06
1.97765e-06
3.42356e-06
1.18938e-06
2.81548e-06
5.71598e-07
2.10338e-06
1.59803e-07
1.29903e-06
4.3311e-07
8.65099e-08
-3.95456e-07
2.87402e-07
-9.967e-07
5.58458e-07
-1.42424e-06
8.64704e-07
-1.69416e-06
1.17746e-06
-1.82374e-06
1.47288e-06
-1.83115e-06
1.73103e-06
-1.73458e-06
1.93523e-06
-1.55141e-06
2.07161e-06
-1.29772e-06
2.12876e-06
-9.87925e-07
2.09735e-06
-6.3458e-07
1.96984e-06
-2.483e-07
1.74019e-06
1.62223e-07
1.4035e-06
5.90152e-07
9.5577e-07
1.03039e-06
3.93621e-07
1.47943e-06
-2.8593e-07
1.93517e-06
-1.08567e-06
2.39673e-06
-2.00835e-06
2.86422e-06
-3.05682e-06
3.33853e-06
-4.23405e-06
3.82105e-06
-5.54323e-06
4.3135e-06
-6.98767e-06
4.81765e-06
-8.57078e-06
5.33514e-06
-1.02959e-05
5.86731e-06
-1.21664e-05
6.41501e-06
-1.41851e-05
6.97849e-06
-1.63545e-05
7.55733e-06
-1.86765e-05
8.15038e-06
-2.11518e-05
8.75569e-06
-2.37805e-05
9.37057e-06
-2.65614e-05
9.99156e-06
-2.94916e-05
1.06145e-05
-3.25673e-05
1.12346e-05
-3.57826e-05
1.18463e-05
-3.91303e-05
1.24438e-05
-4.26012e-05
1.30207e-05
-4.61844e-05
1.35702e-05
-4.98674e-05
1.40853e-05
-5.3636e-05
1.45589e-05
-5.74743e-05
1.49838e-05
-6.1365e-05
1.53528e-05
-6.52892e-05
1.5659e-05
-6.92273e-05
1.58958e-05
-7.31584e-05
1.60569e-05
-7.70609e-05
1.61365e-05
-8.09126e-05
1.61296e-05
-8.46912e-05
1.60317e-05
-8.83742e-05
1.58392e-05
-9.19392e-05
1.55491e-05
-9.53644e-05
1.51595e-05
-9.86285e-05
1.46692e-05
-0.000101711
1.4078e-05
-0.000104592
1.33866e-05
-0.000107253
1.25965e-05
-0.000109677
1.17103e-05
-0.000111848
1.07311e-05
-0.000113751
9.66312e-06
-0.000115373
8.51112e-06
-0.000116703
7.28072e-06
-0.000117731
5.97823e-06
-0.000118447
4.61057e-06
-0.000118845
3.1853e-06
-0.000118921
1.71057e-06
-0.000118669
1.95482e-07
-0.000118088
-1.352e-06
-0.000117178
-2.92115e-06
-0.000115939
-4.50213e-06
-0.000114374
-6.0845e-06
-0.000112489
-7.65744e-06
-0.000110288
-9.20984e-06
-0.000107779
-1.07304e-05
-0.000104973
-1.22075e-05
-0.000101879
-1.36296e-05
-9.85123e-05
-1.49852e-05
-9.48863e-05
-1.62628e-05
-9.10177e-05
-1.7451e-05
-8.69248e-05
-1.85392e-05
-8.26275e-05
-1.95167e-05
-7.81474e-05
-2.0374e-05
-7.35078e-05
-2.11022e-05
-6.87334e-05
-2.16933e-05
-6.38502e-05
-2.21406e-05
-5.88856e-05
-2.24386e-05
-5.38677e-05
-2.25834e-05
-4.88259e-05
-2.25727e-05
-4.37898e-05
-2.24058e-05
-3.87894e-05
-2.20839e-05
-3.38546e-05
-2.16102e-05
-2.9015e-05
-2.09899e-05
-2.42996e-05
-2.02298e-05
-1.97364e-05
-1.93389e-05
-1.53518e-05
-1.83277e-05
-1.11708e-05
-1.72086e-05
-7.2161e-06
-1.59953e-05
-3.50825e-06
-1.47026e-05
-6.50999e-08
-1.33465e-05
3.09842e-06
-1.19435e-05
5.97024e-06
-1.05104e-05
8.54157e-06
-9.06431e-06
1.08069e-05
-7.62169e-06
1.27639e-05
-6.19858e-06
1.44138e-05
-4.81003e-06
1.57606e-05
-3.4699e-06
1.68115e-05
-2.19061e-06
1.75767e-05
-9.82932e-07
1.80686e-05
1.4415e-07
1.83023e-05
1.18357e-06
1.82943e-05
2.13009e-06
1.80632e-05
2.98035e-06
1.76287e-05
3.73275e-06
1.70112e-05
4.38718e-06
1.6232e-05
4.94483e-06
1.53126e-05
5.4078e-06
1.42746e-05
5.7787e-06
1.31397e-05
6.06018e-06
1.19294e-05
6.25443e-06
1.06653e-05
6.36261e-06
9.36877e-06
6.38444e-06
8.06173e-06
6.31765e-06
6.76641e-06
6.15781e-06
5.5058e-06
5.89819e-06
4.30403e-06
5.53008e-06
3.18679e-06
5.04348e-06
2.18196e-06
4.42839e-06
1.32062e-06
3.67682e-06
6.38697e-07
2.78531e-06
1.79638e-07
1.75809e-06
6.12748e-07
8.29652e-08
-4.78421e-07
2.7306e-07
-1.1868e-06
5.24693e-07
-1.67587e-06
8.01487e-07
-1.97095e-06
1.07375e-06
-2.096e-06
1.31706e-06
-2.07446e-06
1.51115e-06
-1.92867e-06
1.63918e-06
-1.67944e-06
1.68717e-06
-1.3457e-06
1.64348e-06
-9.4424e-07
1.49852e-06
-4.89617e-07
1.24433e-06
5.88351e-09
8.74341e-07
5.32215e-07
3.83022e-07
1.08147e-06
-2.34338e-07
1.64775e-06
-9.81883e-07
2.22697e-06
-1.8634e-06
2.81669e-06
-2.88249e-06
3.41582e-06
-4.0427e-06
4.02443e-06
-5.34761e-06
4.64343e-06
-6.80086e-06
5.2743e-06
-8.40617e-06
5.91881e-06
-1.01673e-05
6.57874e-06
-1.20878e-05
7.25566e-06
-1.41712e-05
7.95067e-06
-1.64204e-05
8.66424e-06
-1.8838e-05
9.39607e-06
-2.14256e-05
1.0145e-05
-2.4184e-05
1.09088e-05
-2.71128e-05
1.16845e-05
-3.02101e-05
1.24679e-05
-3.34728e-05
1.32543e-05
-3.68959e-05
1.40376e-05
-4.04727e-05
1.48113e-05
-4.41946e-05
1.55683e-05
-4.80513e-05
1.63005e-05
-5.20303e-05
1.69998e-05
-5.61175e-05
1.76574e-05
-6.0297e-05
1.82648e-05
-6.4551e-05
1.88129e-05
-6.88604e-05
1.92932e-05
-7.32046e-05
1.96971e-05
-7.75622e-05
2.00166e-05
-8.19104e-05
2.02441e-05
-8.62263e-05
2.03727e-05
-9.04862e-05
2.03964e-05
-9.46666e-05
2.031e-05
-9.87439e-05
2.0109e-05
-0.000102695
1.97903e-05
-0.000106497
1.93515e-05
-0.000110129
1.87915e-05
-0.00011357
1.81101e-05
-0.000116801
1.73082e-05
-0.000119802
1.63878e-05
-0.000122557
1.53517e-05
-0.000125051
1.42038e-05
-0.000127268
1.29487e-05
-0.000129197
1.15921e-05
-0.000130826
1.01403e-05
-0.000132146
8.60031e-06
-0.000133148
6.97986e-06
-0.000133824
5.28734e-06
-0.000134171
3.53171e-06
-0.000134183
1.72247e-06
-0.000133858
-1.29711e-07
-0.000133194
-2.01596e-06
-0.000132191
-3.92363e-06
-0.000130851
-5.8418e-06
-0.000129177
-7.7586e-06
-0.000127173
-9.66177e-06
-0.000124844
-1.15388e-05
-0.000122198
-1.33767e-05
-0.000119243
-1.51626e-05
-0.000115989
-1.68831e-05
-0.000112449
-1.85252e-05
-0.000108636
-2.00756e-05
-0.000104566
-2.15213e-05
-0.000100255
-2.28498e-05
-9.57233e-05
-2.40488e-05
-9.09904e-05
-2.5107e-05
-8.60789e-05
-2.60137e-05
-8.1013e-05
-2.67593e-05
-7.58181e-05
-2.73354e-05
-7.05214e-05
-2.77354e-05
-6.51511e-05
-2.79538e-05
-5.97365e-05
-2.79872e-05
-5.4308e-05
-2.78343e-05
-4.88962e-05
-2.74956e-05
-4.35324e-05
-2.69741e-05
-3.82475e-05
-2.62748e-05
-3.30722e-05
-2.54051e-05
-2.80364e-05
-2.43747e-05
-2.31688e-05
-2.31952e-05
-1.84969e-05
-2.18806e-05
-1.4046e-05
-2.04462e-05
-9.83942e-06
-1.89092e-05
-5.89796e-06
-1.72879e-05
-2.23971e-06
-1.56017e-05
1.12034e-06
-1.38705e-05
4.17031e-06
-1.21143e-05
6.90165e-06
-1.0353e-05
9.30919e-06
-8.60611e-06
1.13912e-05
-6.892e-06
1.31492e-05
-5.22792e-06
1.45881e-05
-3.62953e-06
1.57159e-05
-2.11072e-06
1.65434e-05
-6.83343e-07
1.70841e-05
6.42862e-07
1.73538e-05
1.86035e-06
1.73704e-05
2.96375e-06
1.71534e-05
3.94975e-06
1.67237e-05
4.81693e-06
1.61031e-05
5.56545e-06
1.53142e-05
6.19668e-06
1.43801e-05
6.71277e-06
1.33242e-05
7.11609e-06
1.217e-05
7.40867e-06
1.0941e-05
7.59157e-06
9.66113e-06
7.66433e-06
8.35433e-06
7.62445e-06
7.04514e-06
7.467e-06
5.75886e-06
7.18448e-06
4.52195e-06
6.76699e-06
3.36268e-06
6.20275e-06
2.31195e-06
5.47913e-06
1.4046e-06
4.58417e-06
6.81422e-07
3.50849e-06
1.92002e-07
2.24751e-06
8.04751e-07
7.60647e-08
-5.54485e-07
2.46491e-07
-1.35722e-06
4.65673e-07
-1.89506e-06
6.96957e-07
-2.20224e-06
9.10488e-07
-2.30954e-06
1.08183e-06
-2.2458e-06
1.19085e-06
-2.03769e-06
1.22089e-06
-1.70948e-06
1.15805e-06
-1.28286e-06
9.90731e-07
-7.76926e-07
7.09204e-07
-2.0809e-07
3.0524e-07
4.09847e-07
-2.28174e-07
1.06563e-06
-8.97115e-07
1.75041e-06
-1.70696e-06
2.45759e-06
-2.66258e-06
3.18259e-06
-3.76853e-06
3.92264e-06
-5.0292e-06
4.67649e-06
-6.44886e-06
5.4441e-06
-8.03178e-06
6.22635e-06
-9.78216e-06
7.02468e-06
-1.17041e-05
7.84079e-06
-1.38017e-05
8.67628e-06
-1.60784e-05
9.5324e-06
-1.85375e-05
1.04098e-05
-2.11816e-05
1.13083e-05
-2.40121e-05
1.22266e-05
-2.70298e-05
1.31626e-05
-3.02338e-05
1.41128e-05
-3.36219e-05
1.50726e-05
-3.71902e-05
1.60362e-05
-4.0933e-05
1.6997e-05
-4.48425e-05
1.79472e-05
-4.89093e-05
1.88781e-05
-5.31214e-05
1.97804e-05
-5.74652e-05
2.06443e-05
-6.19251e-05
2.14596e-05
-6.64833e-05
2.22157e-05
-7.11207e-05
2.29022e-05
-7.58164e-05
2.35087e-05
-8.05484e-05
2.40252e-05
-8.52935e-05
2.44422e-05
-9.00278e-05
2.47509e-05
-9.4727e-05
2.49432e-05
-9.93664e-05
2.50121e-05
-0.000103922
2.49517e-05
-0.000108368
2.47569e-05
-0.000112684
2.44241e-05
-0.000116844
2.39509e-05
-0.000120828
2.33359e-05
-0.000124616
2.25792e-05
-0.000128188
2.16819e-05
-0.000131526
2.06462e-05
-0.000134614
1.94756e-05
-0.000137436
1.81743e-05
-0.00013998
1.67476e-05
-0.000142233
1.52017e-05
-0.000144184
1.35434e-05
-0.000145825
1.17805e-05
-0.000147146
9.92138e-06
-0.000148141
7.9749e-06
-0.000148804
5.95067e-06
-0.000149131
3.85882e-06
-0.000149119
1.71002e-06
-0.000148764
-4.84406e-07
-0.000148066
-2.71349e-06
-0.000147026
-4.96443e-06
-0.000145643
-7.22483e-06
-0.000143919
-9.48167e-06
-0.00014186
-1.17215e-05
-0.000139468
-1.39305e-05
-0.00013675
-1.60946e-05
-0.000133713
-1.81992e-05
-0.000130367
-2.02296e-05
-0.000126721
-2.21711e-05
-0.000122788
-2.40089e-05
-0.000118581
-2.57283e-05
-0.000114116
-2.73148e-05
-0.00010941
-2.87545e-05
-0.000104483
-3.0034e-05
-9.93559e-05
-3.11408e-05
-9.40515e-05
-3.20636e-05
-8.85948e-05
-3.27921e-05
-8.30123e-05
-3.33179e-05
-7.7332e-05
-3.36341e-05
-7.15834e-05
-3.37358e-05
-6.57972e-05
-3.36205e-05
-6.00048e-05
-3.3288e-05
-5.42385e-05
-3.27404e-05
-4.85307e-05
-3.19826e-05
-4.29138e-05
-3.1022e-05
-3.74196e-05
-2.98688e-05
-3.20793e-05
-2.85355e-05
-2.69227e-05
-2.70372e-05
-2.19779e-05
-2.5391e-05
-1.7271e-05
-2.3616e-05
-1.28259e-05
-2.1733e-05
-8.66367e-06
-1.9764e-05
-4.80246e-06
-1.77317e-05
-1.25724e-06
-1.56595e-05
1.96037e-06
-1.35706e-05
4.84222e-06
-1.1488e-05
7.38367e-06
-9.43346e-06
9.58363e-06
-7.42788e-06
1.14445e-05
-5.49036e-06
1.29718e-05
-3.6381e-06
1.41747e-05
-1.88616e-06
1.50648e-05
-2.47231e-07
1.56566e-05
1.26849e-06
1.59672e-05
2.65321e-06
1.60153e-05
3.90157e-06
1.58219e-05
5.01038e-06
1.54089e-05
5.9784e-06
1.47997e-05
6.80591e-06
1.40183e-05
7.49421e-06
1.30893e-05
8.04508e-06
1.20378e-05
8.46014e-06
1.08893e-05
8.74012e-06
9.66932e-06
8.88427e-06
8.40407e-06
8.8897e-06
7.12014e-06
8.75093e-06
5.84499e-06
8.45963e-06
4.60741e-06
8.00457e-06
3.43813e-06
7.37202e-06
2.37088e-06
6.54638e-06
1.44378e-06
5.51126e-06
7.0142e-07
4.25085e-06
1.97599e-07
2.75133e-06
1.00235e-06
6.62263e-08
-6.20711e-07
2.08997e-07
-1.49999e-06
3.83767e-07
-2.06983e-06
5.54617e-07
-2.37309e-06
6.9233e-07
-2.44725e-06
7.73087e-07
-2.32655e-06
7.77343e-07
-2.04195e-06
6.88923e-07
-1.62106e-06
4.94317e-07
-1.08825e-06
1.82123e-07
-4.64732e-07
-2.5738e-07
2.31414e-07
-8.32593e-07
9.8506e-07
-1.55087e-06
1.78391e-06
-2.4188e-06
2.61833e-06
-3.44233e-06
3.48113e-06
-4.62705e-06