/*--------------------------------*- C++ -*----------------------------------*\
| =========                 |                                                 |
| \\      /  F ield         | OpenFOAM: The Open Source CFD Toolbox           |
|  \\    /   O peration     | Version:  2112                                  |
|   \\  /    A nd           | Website:  www.openfoam.com                      |
|    \\/     M anipulation  |                                                 |
\*---------------------------------------------------------------------------*/
FoamFile
{
    version     2.0;
    format      ascii;
    arch        "LSB;label=32;scalar=64";
    class       volVectorField;
    location    "25";
    object      U;
}
// * * * * * * * * * * * * * * * * * * * * * * * * * * * * * * * * * * * * * //

dimensions      [0 1 -1 0 0 0 0];

internalField   nonuniform List<vector> 
16641
(
(-6.1235e-06 6.1093e-06 0)
(4.84036e-06 -6.44e-06 0)
(5.56274e-05 -2.0035e-05 0)
(0.00013462 -2.92462e-05 0)
(0.000232057 -3.44185e-05 0)
(0.000339142 -3.65216e-05 0)
(0.000448682 -3.64033e-05 0)
(0.000555211 -3.47352e-05 0)
(0.000654724 -3.20186e-05 0)
(0.000744365 -2.86232e-05 0)
(0.000822191 -2.48248e-05 0)
(0.000886972 -2.08299e-05 0)
(0.000938035 -1.67903e-05 0)
(0.000975121 -1.28132e-05 0)
(0.00099827 -8.96991e-06 0)
(0.00100772 -5.30178e-06 0)
(0.0010038 -1.8223e-06 0)
(0.000986912 1.47662e-06 0)
(0.000957392 4.61801e-06 0)
(0.000915522 7.63786e-06 0)
(0.000861469 1.05827e-05 0)
(0.000795266 1.35047e-05 0)
(0.000716798 1.64575e-05 0)
(0.0006258 1.9494e-05 0)
(0.000521857 2.26622e-05 0)
(0.000404421 2.60118e-05 0)
(0.000272824 2.95802e-05 0)
(0.000126309 3.3399e-05 0)
(-3.59567e-05 3.74929e-05 0)
(-0.000214846 4.18781e-05 0)
(-0.000411249 4.6564e-05 0)
(-0.00062605 5.1552e-05 0)
(-0.000860094 5.68369e-05 0)
(-0.00111417 6.2407e-05 0)
(-0.00138898 6.8244e-05 0)
(-0.00168513 7.43233e-05 0)
(-0.00200308 8.06146e-05 0)
(-0.00234316 8.7081e-05 0)
(-0.00270551 9.36791e-05 0)
(-0.00309011 0.000100359 0)
(-0.00349668 0.000107064 0)
(-0.00392476 0.000113732 0)
(-0.00437359 0.000120291 0)
(-0.00484219 0.000126665 0)
(-0.00532926 0.000132771 0)
(-0.00583322 0.000138521 0)
(-0.0063522 0.00014382 0)
(-0.00688399 0.00014857 0)
(-0.00742609 0.00015267 0)
(-0.00797567 0.000156017 0)
(-0.0085296 0.000158506 0)
(-0.00908447 0.000160034 0)
(-0.00963657 0.0001605 0)
(-0.0101819 0.000159808 0)
(-0.0107164 0.000157865 0)
(-0.0112355 0.00015459 0)
(-0.0117347 0.000149908 0)
(-0.0122093 0.000143759 0)
(-0.0126545 0.000136095 0)
(-0.0130656 0.000126883 0)
(-0.0134377 0.000116109 0)
(-0.0137662 0.000103777 0)
(-0.0140465 8.99128e-05 0)
(-0.0142743 7.45659e-05 0)
(-0.0144454 5.78171e-05 0)
(-0.0145562 3.9768e-05 0)
(-0.0146034 2.05187e-05 0)
(-0.0145841 3.13447e-07 0)
(-0.0144958 -2.08184e-05 0)
(-0.014337 -4.26298e-05 0)
(-0.0141067 -6.48782e-05 0)
(-0.0138045 -8.73178e-05 0)
(-0.0134308 -0.000109686 0)
(-0.0129869 -0.000131705 0)
(-0.0124748 -0.000153083 0)
(-0.0118975 -0.000173525 0)
(-0.0112586 -0.000192733 0)
(-0.0105628 -0.000210415 0)
(-0.0098154 -0.00022629 0)
(-0.0090225 -0.000240097 0)
(-0.00819091 -0.0002516 0)
(-0.00732802 -0.000260595 0)
(-0.00644171 -0.000266917 0)
(-0.00554027 -0.000270445 0)
(-0.00463224 -0.00027111 0)
(-0.00372629 -0.000268892 0)
(-0.00283107 -0.000263828 0)
(-0.00195505 -0.00025601 0)
(-0.00110639 -0.000245584 0)
(-0.000292755 -0.000232751 0)
(0.000478725 -0.000217769 0)
(0.00120168 -0.000200886 0)
(0.00187061 -0.000182447 0)
(0.00248089 -0.000162788 0)
(0.00302889 -0.000142266 0)
(0.003512 -0.000121239 0)
(0.00392864 -0.000100062 0)
(0.00427827 -7.90762e-05 0)
(0.00456133 -5.85978e-05 0)
(0.00477918 -3.89132e-05 0)
(0.00493405 -2.02717e-05 0)
(0.00502888 -2.88185e-06 0)
(0.00506728 1.30915e-05 0)
(0.00505337 2.7528e-05 0)
(0.00499166 4.03532e-05 0)
(0.00488692 5.15344e-05 0)
(0.00474408 6.10787e-05 0)
(0.0045681 6.9029e-05 0)
(0.00436386 7.54597e-05 0)
(0.00413607 8.04713e-05 0)
(0.00388919 8.41845e-05 0)
(0.00362738 8.67346e-05 0)
(0.00335443 8.82648e-05 0)
(0.00307376 8.8919e-05 0)
(0.00278843 8.88337e-05 0)
(0.00250114 8.81292e-05 0)
(0.0022143 8.6898e-05 0)
(0.00193015 8.51922e-05 0)
(0.00165086 8.30077e-05 0)
(0.0013787 8.02645e-05 0)
(0.00111633 7.67843e-05 0)
(0.000866989 7.22629e-05 0)
(0.000634882 6.62406e-05 0)
(0.000425475 5.80775e-05 0)
(0.000245804 4.69777e-05 0)
(0.000104383 3.21822e-05 0)
(1.01897e-05 1.35847e-05 0)
(-2.93542e-05 -6.47988e-06 0)
(-1.73546e-05 -1.73976e-05 0)
(6.42362e-06 -4.81233e-06 0)
(6.62197e-05 -6.62073e-05 0)
(0.000206205 -0.000125602 0)
(0.000402343 -0.0001683 0)
(0.000635637 -0.000193952 0)
(0.000889188 -0.000205041 0)
(0.00114772 -0.000204483 0)
(0.00139858 -0.000195013 0)
(0.00163184 -0.000178958 0)
(0.00183998 -0.000158221 0)
(0.00201752 -0.000134331 0)
(0.00216069 -0.000108496 0)
(0.00226708 -8.16469e-05 0)
(0.00233534 -5.44732e-05 0)
(0.0023649 -2.74575e-05 0)
(0.00235573 -9.01861e-07 0)
(0.00230811 2.50464e-05 0)
(0.00222249 5.03706e-05 0)
(0.00209929 7.51569e-05 0)
(0.0019388 9.95723e-05 0)
(0.00174109 0.000123843 0)
(0.00150594 0.000148234 0)
(0.0012328 0.000173026 0)
(0.000920788 0.000198498 0)
(0.00056871 0.000224905 0)
(0.00017506 0.000252498 0)
(-0.000261916 0.000281466 0)
(-0.00074416 0.000311961 0)
(-0.00127374 0.000344088 0)
(-0.00185278 0.000377897 0)
(-0.0024834 0.00041339 0)
(-0.00316761 0.000450515 0)
(-0.00390729 0.000489176 0)
(-0.00470406 0.000529223 0)
(-0.00555927 0.000570467 0)
(-0.0064739 0.000612669 0)
(-0.0074485 0.000655552 0)
(-0.00848315 0.000698795 0)
(-0.0095774 0.000742036 0)
(-0.0107302 0.000784874 0)
(-0.0119399 0.000826869 0)
(-0.0132041 0.000867546 0)
(-0.0145197 0.000906396 0)
(-0.0158829 0.000942881 0)
(-0.0172891 0.000976439 0)
(-0.0187329 0.00100649 0)
(-0.020208 0.00103242 0)
(-0.0217076 0.00105366 0)
(-0.0232239 0.00106958 0)
(-0.0247483 0.0010796 0)
(-0.0262717 0.00108316 0)
(-0.0277841 0.0010797 0)
(-0.0292751 0.00106874 0)
(-0.0307339 0.0010498 0)
(-0.0321489 0.0010225 0)
(-0.0335084 0.000986503 0)
(-0.0348007 0.000941557 0)
(-0.0360135 0.000887493 0)
(-0.037135 0.000824237 0)
(-0.0381532 0.000751817 0)
(-0.0390567 0.000670365 0)
(-0.0398343 0.000580131 0)
(-0.0404754 0.000481482 0)
(-0.0409703 0.000374911 0)
(-0.0413099 0.000261056 0)
(-0.0414866 0.000140638 0)
(-0.0414934 1.43288e-05 0)
(-0.0413248 -0.000116434 0)
(-0.0409765 -0.000250836 0)
(-0.0404462 -0.000387654 0)
(-0.0397329 -0.000525549 0)
(-0.0388373 -0.000663112 0)
(-0.037762 -0.000798864 0)
(-0.0365115 -0.000931276 0)
(-0.0350921 -0.00105878 0)
(-0.0335118 -0.00117981 0)
(-0.0317807 -0.00129281 0)
(-0.0299106 -0.00139626 0)
(-0.027915 -0.00148873 0)
(-0.0258091 -0.00156889 0)
(-0.0236095 -0.00163555 0)
(-0.021334 -0.0016877 0)
(-0.0190016 -0.00172449 0)
(-0.016632 -0.00174534 0)
(-0.0142457 -0.00174987 0)
(-0.0118631 -0.00173799 0)
(-0.00950495 -0.00170987 0)
(-0.00719141 -0.00166597 0)
(-0.00494211 -0.001607 0)
(-0.00277566 -0.00153395 0)
(-0.000709448 -0.00144807 0)
(0.00124067 -0.00135077 0)
(0.00306065 -0.00124368 0)
(0.00473845 -0.0011286 0)
(0.00626417 -0.00100739 0)
(0.0076302 -0.000881999 0)
(0.00883131 -0.000754357 0)
(0.0098646 -0.00062637 0)
(0.0107296 -0.000499857 0)
(0.0114279 -0.000376513 0)
(0.0119634 -0.000257871 0)
(0.0123418 -0.000145272 0)
(0.0125705 -3.9847e-05 0)
(0.0126586 5.75021e-05 0)
(0.0126159 0.000146108 0)
(0.0124537 0.000225536 0)
(0.0121834 0.000295579 0)
(0.011817 0.00035624 0)
(0.0113666 0.000407713 0)
(0.0108441 0.000450362 0)
(0.0102609 0.000484686 0)
(0.00962813 0.000511287 0)
(0.00895602 0.000530834 0)
(0.00825416 0.000544016 0)
(0.00753135 0.000551498 0)
(0.0067957 0.000553859 0)
(0.00605474 0.000551537 0)
(0.00531559 0.000544753 0)
(0.00458533 0.00053344 0)
(0.0038713 0.000517159 0)
(0.00318161 0.000495022 0)
(0.00252558 0.000465624 0)
(0.00191429 0.000427023 0)
(0.00136097 0.000376816 0)
(0.000881011 0.000312496 0)
(0.000491191 0.00023247 0)
(0.000207101 0.00013825 0)
(4.03976e-05 3.95601e-05 0)
(-6.23176e-06 -2.94164e-05 0)
(2.00506e-05 -5.55651e-05 0)
(0.000125899 -0.000206258 0)
(0.000340023 -0.000339376 0)
(0.000624283 -0.000436259 0)
(0.000952953 -0.000495428 0)
(0.00130471 -0.000520678 0)
(0.00165969 -0.000517494 0)
(0.00200075 -0.000491582 0)
(0.00231402 -0.000448179 0)
(0.00258857 -0.000391815 0)
(0.00281613 -0.000326281 0)
(0.00299071 -0.000254661 0)
(0.00310818 -0.000179385 0)
(0.0031659 -0.0001023 0)
(0.00316236 -2.47275e-05 0)
(0.00309683 5.24794e-05 0)
(0.0029691 0.000128856 0)
(0.00277918 0.000204283 0)
(0.00252714 0.000278916 0)
(0.00221287 0.000353127 0)
(0.00183603 0.000427444 0)
(0.00139589 0.000502495 0)
(0.000891296 0.000578956 0)
(0.000320679 0.000657503 0)
(-0.000317929 0.000738767 0)
(-0.00102688 0.000823306 0)
(-0.00180882 0.000911574 0)
(-0.00266661 0.0010039 0)
(-0.00360318 0.00110048 0)
(-0.00462151 0.00120136 0)
(-0.00572441 0.00130644 0)
(-0.00691449 0.00141549 0)
(-0.00819401 0.00152813 0)
(-0.00956478 0.00164384 0)
(-0.011028 0.00176197 0)
(-0.0125844 0.00188175 0)
(-0.0142336 0.00200229 0)
(-0.0159748 0.00212257 0)
(-0.017806 0.00224147 0)
(-0.0197242 0.00235779 0)
(-0.0217255 0.00247019 0)
(-0.0238049 0.00257729 0)
(-0.025956 0.00267761 0)
(-0.0281716 0.00276962 0)
(-0.030443 0.00285175 0)
(-0.0327604 0.0029224 0)
(-0.0351129 0.00297997 0)
(-0.0374886 0.00302289 0)
(-0.0398742 0.0030496 0)
(-0.0422558 0.00305865 0)
(-0.0446184 0.00304864 0)
(-0.0469461 0.00301832 0)
(-0.0492228 0.00296655 0)
(-0.0514313 0.00289236 0)
(-0.0535545 0.00279498 0)
(-0.055575 0.00267383 0)
(-0.0574753 0.00252857 0)
(-0.0592379 0.00235908 0)
(-0.0608461 0.00216551 0)
(-0.0622833 0.00194829 0)
(-0.0635339 0.00170812 0)
(-0.0645829 0.00144597 0)
(-0.0654166 0.00116314 0)
(-0.0660226 0.000861209 0)
(-0.0663898 0.000542071 0)
(-0.0665091 0.000207889 0)
(-0.0663723 -0.000139293 0)
(-0.0659736 -0.000496164 0)
(-0.0653094 -0.000859962 0)
(-0.0643781 -0.00122759 0)
(-0.0631803 -0.00159566 0)
(-0.0617189 -0.00196063 0)
(-0.0599993 -0.00231881 0)
(-0.0580291 -0.00266643 0)
(-0.0558185 -0.00299967 0)
(-0.05338 -0.00331472 0)
(-0.0507286 -0.00360788 0)
(-0.0478815 -0.00387553 0)
(-0.044858 -0.00411427 0)
(-0.0416794 -0.00432098 0)
(-0.0383689 -0.00449285 0)
(-0.0349513 -0.00462748 0)
(-0.0314528 -0.00472292 0)
(-0.0279004 -0.00477774 0)
(-0.0243221 -0.00479108 0)
(-0.0207462 -0.00476267 0)
(-0.017201 -0.00469289 0)
(-0.0137146 -0.00458274 0)
(-0.0103142 -0.00443387 0)
(-0.00702575 -0.00424857 0)
(-0.00387401 -0.0040297 0)
(-0.000881661 -0.00378066 0)
(0.00193078 -0.00350528 0)
(0.00454529 -0.00320782 0)
(0.00694662 -0.00289283 0)
(0.00912246 -0.00256503 0)
(0.0110636 -0.00222924 0)
(0.012764 -0.00189023 0)
(0.0142208 -0.00155264 0)
(0.0154343 -0.00122087 0)
(0.0164076 -0.000898997 0)
(0.017147 -0.000590669 0)
(0.017661 -0.000299059 0)
(0.0179605 -2.68114e-05 0)
(0.0180584 0.000223994 0)
(0.0179692 0.000451849 0)
(0.0177084 0.000655818 0)
(0.0172927 0.00083551 0)
(0.016739 0.000991041 0)
(0.0160643 0.00112298 0)
(0.0152855 0.00123229 0)
(0.0144191 0.00132021 0)
(0.0134807 0.00138821 0)
(0.0124854 0.00143783 0)
(0.0114472 0.00147058 0)
(0.0103793 0.00148779 0)
(0.00929427 0.00149045 0)
(0.00820412 0.00147906 0)
(0.00712081 0.00145343 0)
(0.00605665 0.00141252 0)
(0.00502476 0.00135431 0)
(0.00403968 0.00127575 0)
(0.0031178 0.00117281 0)
(0.00227767 0.00104091 0)
(0.00153987 0.000875923 0)
(0.000925657 0.000676344 0)
(0.000453958 0.000447194 0)
(0.000142624 0.00020742 0)
(1.47027e-05 1.13164e-05 0)
(2.94619e-05 -0.000134845 0)
(0.000169502 -0.000403111 0)
(0.000438823 -0.000624034 0)
(0.000785032 -0.000781899 0)
(0.0011761 -0.000876563 0)
(0.00158744 -0.000913977 0)
(0.00199622 -0.000902535 0)
(0.00238257 -0.000851183 0)
(0.00273004 -0.000768395 0)
(0.00302541 -0.000661718 0)
(0.00325837 -0.000537612 0)
(0.00342115 -0.000401434 0)
(0.00350811 -0.000257476 0)
(0.00351534 -0.000109043 0)
(0.00344025 4.1465e-05 0)
(0.00328122 0.000192452 0)
(0.00303722 0.000343024 0)
(0.00270756 0.000492886 0)
(0.00229162 0.000642239 0)
(0.00178865 0.00079167 0)
(0.00119763 0.000942047 0)
(0.00051712 0.00109441 0)
(-0.000254727 0.0012499 0)
(-0.00112023 0.00140963 0)
(-0.00208212 0.00157466 0)
(-0.00314348 0.00174586 0)
(-0.00430767 0.00192395 0)
(-0.00557818 0.00210939 0)
(-0.00695851 0.00230239 0)
(-0.00845202 0.00250288 0)
(-0.0100618 0.00271051 0)
(-0.0117904 0.00292465 0)
(-0.01364 0.00314442 0)
(-0.0156118 0.00336865 0)
(-0.0177062 0.00359592 0)
(-0.0199228 0.00382459 0)
(-0.0222597 0.00405279 0)
(-0.0247142 0.00427843 0)
(-0.027282 0.00449923 0)
(-0.0299574 0.00471274 0)
(-0.0327335 0.00491636 0)
(-0.0356018 0.00510734 0)
(-0.038552 0.00528286 0)
(-0.0415728 0.00544 0)
(-0.044651 0.00557585 0)
(-0.0477723 0.00568746 0)
(-0.0509207 0.00577197 0)
(-0.0540791 0.0058266 0)
(-0.0572294 0.00584869 0)
(-0.0603523 0.00583579 0)
(-0.0634277 0.00578565 0)
(-0.0664348 0.0056963 0)
(-0.0693524 0.00556608 0)
(-0.0721589 0.00539366 0)
(-0.0748328 0.0051781 0)
(-0.0773526 0.00491883 0)
(-0.0796972 0.00461576 0)
(-0.081846 0.00426921 0)
(-0.0837793 0.00387997 0)
(-0.0854783 0.00344932 0)
(-0.0869255 0.00297899 0)
(-0.0881046 0.00247123 0)
(-0.0890011 0.00192875 0)
(-0.0896018 0.00135471 0)
(-0.0898958 0.00075268 0)
(-0.0898747 0.000126747 0)
(-0.0895309 -0.000517733 0)
(-0.0888595 -0.00117675 0)
(-0.0878589 -0.0018449 0)
(-0.0865293 -0.00251651 0)
(-0.0848735 -0.00318568 0)
(-0.0828967 -0.0038463 0)
(-0.080607 -0.00449207 0)
(-0.0780149 -0.00511662 0)
(-0.0751337 -0.00571354 0)
(-0.0719792 -0.00627648 0)
(-0.0685696 -0.00679925 0)
(-0.0649257 -0.00727588 0)
(-0.0610706 -0.00770076 0)
(-0.0570293 -0.00806872 0)
(-0.052829 -0.00837513 0)
(-0.0484985 -0.008616 0)
(-0.0440682 -0.0087881 0)
(-0.0395696 -0.00888902 0)
(-0.0350351 -0.00891726 0)
(-0.0304975 -0.0088723 0)
(-0.0259899 -0.00875465 0)
(-0.0215452 -0.00856584 0)
(-0.0171954 -0.00830849 0)
(-0.0129717 -0.00798622 0)
(-0.00890362 -0.00760367 0)
(-0.00501884 -0.00716636 0)
(-0.00134281 -0.00668065 0)
(0.00210166 -0.00615358 0)
(0.00529468 -0.00559276 0)
(0.00821962 -0.00500619 0)
(0.0108632 -0.0044021 0)
(0.0132158 -0.00378874 0)
(0.0152714 -0.00317428 0)
(0.0170274 -0.00256651 0)
(0.0184852 -0.00197282 0)
(0.0196494 -0.00139991 0)
(0.0205278 -0.00085378 0)
(0.0211312 -0.000339561 0)
(0.0214731 0.00013854 0)
(0.0215691 0.00057728 0)
(0.0214368 0.000974404 0)
(0.0210951 0.00132861 0)
(0.020564 0.00163952 0)
(0.019864 0.00190756 0)
(0.0190158 0.0021339 0)
(0.0180399 0.0023203 0)
(0.0169565 0.0024689 0)
(0.0157849 0.00258209 0)
(0.0145438 0.00266224 0)
(0.0132511 0.00271149 0)
(0.0119239 0.00273144 0)
(0.010579 0.00272287 0)
(0.00923296 0.00268552 0)
(0.00790253 0.00261776 0)
(0.00660538 0.00251644 0)
(0.00536039 0.0023769 0)
(0.00418811 0.00219318 0)
(0.00311104 0.00195875 0)
(0.00215349 0.00166812 0)
(0.00134028 0.00131987 0)
(0.000694124 0.000921456 0)
(0.000242504 0.000497365 0)
(3.47886e-05 0.000109587 0)
(3.50198e-05 -0.000233255 0)
(0.000196645 -0.000638333 0)
(0.000500814 -0.000954356 0)
(0.00088353 -0.00117361 0)
(0.00130717 -0.00130009 0)
(0.00174431 -0.00134325 0)
(0.00217 -0.00131494 0)
(0.00256257 -0.00122758 0)
(0.00290397 -0.001093 0)
(0.00317946 -0.000921866 0)
(0.00337732 -0.000723458 0)
(0.00348843 -0.000505546 0)
(0.00350591 -0.000274432 0)
(0.00342467 -3.50131e-05 0)
(0.00324107 0.000209108 0)
(0.00295244 0.000455498 0)
(0.00255683 0.00070276 0)
(0.00205263 0.000950377 0)
(0.00143835 0.00119856 0)
(0.000712394 0.00144811 0)
(-0.000127116 0.00170021 0)
(-0.00108241 0.00195633 0)
(-0.00215614 0.00221803 0)
(-0.00335136 0.00248688 0)
(-0.00467151 0.00276429 0)
(-0.00612028 0.00305143 0)
(-0.00770153 0.00334916 0)
(-0.00941911 0.00365796 0)
(-0.0112767 0.0039779 0)
(-0.0132777 0.00430859 0)
(-0.0154247 0.00464921 0)
(-0.0177201 0.0049985 0)
(-0.0201649 0.00535473 0)
(-0.0227592 0.00571579 0)
(-0.0255019 0.00607916 0)
(-0.0283907 0.00644194 0)
(-0.0314214 0.0068009 0)
(-0.0345886 0.0071525 0)
(-0.0378849 0.0074929 0)
(-0.0413013 0.00781806 0)
(-0.0448272 0.00812371 0)
(-0.0484498 0.00840546 0)
(-0.0521548 0.0086588 0)
(-0.0559261 0.00887921 0)
(-0.0597461 0.0090622 0)
(-0.0635955 0.00920337 0)
(-0.0674538 0.00929849 0)
(-0.071299 0.00934357 0)
(-0.0751084 0.0093349 0)
(-0.0788582 0.00926916 0)
(-0.0825243 0.00914343 0)
(-0.086082 0.00895531 0)
(-0.0895066 0.00870289 0)
(-0.0927734 0.00838484 0)
(-0.0958582 0.00800046 0)
(-0.0987373 0.00754966 0)
(-0.101388 0.00703301 0)
(-0.103788 0.00645176 0)
(-0.105918 0.00580782 0)
(-0.107757 0.00510379 0)
(-0.109289 0.00434292 0)
(-0.110497 0.00352914 0)
(-0.111369 0.00266701 0)
(-0.111891 0.00176169 0)
(-0.112055 0.000818885 0)
(-0.111852 -0.000155084 0)
(-0.111278 -0.00115254 0)
(-0.110331 -0.00216704 0)
(-0.109009 -0.00319064 0)
(-0.107315 -0.00421508 0)
(-0.105254 -0.00523187 0)
(-0.102834 -0.00623222 0)
(-0.100064 -0.0072072 0)
(-0.096957 -0.00814779 0)
(-0.0935281 -0.00904497 0)
(-0.0897951 -0.00988982 0)
(-0.0857782 -0.0106737 0)
(-0.0814999 -0.0113882 0)
(-0.0769852 -0.0120255 0)
(-0.0722611 -0.0125784 0)
(-0.0673566 -0.0130403 0)
(-0.0623026 -0.0134056 0)
(-0.0571314 -0.0136697 0)
(-0.0518767 -0.0138291 0)
(-0.0465734 -0.0138816 0)
(-0.0412567 -0.0138261 0)
(-0.0359625 -0.0136633 0)
(-0.0307264 -0.0133949 0)
(-0.0255837 -0.0130244 0)
(-0.0205687 -0.0125567 0)
(-0.0157145 -0.011998 0)
(-0.0110525 -0.0113558 0)
(-0.00661201 -0.0106389 0)
(-0.00241973 -0.00985727 0)
(0.00150045 -0.00902147 0)
(0.00512785 -0.00814292 0)
(0.00844526 -0.00723343 0)
(0.0114391 -0.00630499 0)
(0.0140998 -0.00536959 0)
(0.0164215 -0.00443884 0)
(0.0184023 -0.00352386 0)
(0.0200443 -0.00263498 0)
(0.0213532 -0.00178156 0)
(0.0223381 -0.000971834 0)
(0.0230114 -0.000212766 0)
(0.0233884 0.000490035 0)
(0.0234869 0.00113237 0)
(0.0233264 0.00171144 0)
(0.0229284 0.00222579 0)
(0.0223153 0.00267526 0)
(0.0215102 0.00306077 0)
(0.0205365 0.0033842 0)
(0.0194176 0.00364811 0)
(0.0181765 0.0038555 0)
(0.0168357 0.00400945 0)
(0.0154172 0.00411277 0)
(0.0139423 0.00416764 0)
(0.0124318 0.00417516 0)
(0.0109065 0.00413501 0)
(0.00938745 0.00404509 0)
(0.00789609 0.00390132 0)
(0.0064551 0.00369768 0)
(0.00508854 0.00342652 0)
(0.0038222 0.00307963 0)
(0.00268373 0.00265008 0)
(0.00170169 0.00213561 0)
(0.000903605 0.0015436 0)
(0.000328151 0.000898478 0)
(5.12074e-05 0.000258648 0)
(3.76527e-05 -0.000342309 0)
(0.000209506 -0.000895247 0)
(0.000528859 -0.00130887 0)
(0.000923815 -0.00158615 0)
(0.00135236 -0.00173744 0)
(0.00178465 -0.00177701 0)
(0.00219415 -0.00172087 0)
(0.00255798 -0.0015852 0)
(0.00285709 -0.00138532 0)
(0.00307584 -0.00113508 0)
(0.00320153 -0.000846569 0)
(0.00322407 -0.000529991 0)
(0.00313559 -0.000193679 0)
(0.00292998 0.000155845 0)
(0.00260254 0.000513748 0)
(0.00214962 0.000876733 0)
(0.00156821 0.00124287 0)
(0.000855707 0.00161138 0)
(9.62066e-06 0.00198249 0)
(-0.000972616 0.00235715 0)
(-0.0020938 0.00273685 0)
(-0.00335703 0.00312344 0)
(-0.00476577 0.00351886 0)
(-0.00632378 0.00392501 0)
(-0.00803507 0.00434359 0)
(-0.00990377 0.00477591 0)
(-0.011934 0.00522282 0)
(-0.0141296 0.00568463 0)
(-0.0164941 0.00616102 0)
(-0.0190303 0.00665104 0)
(-0.0217403 0.0071531 0)
(-0.0246248 0.00766495 0)
(-0.0276838 0.00818373 0)
(-0.0309153 0.00870599 0)
(-0.034316 0.00922772 0)
(-0.0378809 0.0097444 0)
(-0.0416029 0.0102511 0)
(-0.0454731 0.0107423 0)
(-0.0494806 0.0112125 0)
(-0.0536123 0.0116555 0)
(-0.0578533 0.0120653 0)
(-0.0621865 0.0124354 0)
(-0.0665931 0.0127597 0)
(-0.0710524 0.0130318 0)
(-0.0755422 0.0132457 0)
(-0.0800389 0.0133956 0)
(-0.0845174 0.0134759 0)
(-0.0889521 0.0134817 0)
(-0.0933163 0.0134084 0)
(-0.0975832 0.0132522 0)
(-0.101725 0.0130099 0)
(-0.105716 0.012679 0)
(-0.109528 0.0122579 0)
(-0.113136 0.0117457 0)
(-0.116515 0.0111425 0)
(-0.119639 0.0104491 0)
(-0.122487 0.00966722 0)
(-0.125037 0.00879953 0)
(-0.127269 0.00784948 0)
(-0.129166 0.00682136 0)
(-0.13071 0.00572029 0)
(-0.131889 0.00455217 0)
(-0.132689 0.00332365 0)
(-0.133102 0.00204212 0)
(-0.133119 0.000715676 0)
(-0.132734 -0.00064708 0)
(-0.131944 -0.00203723 0)
(-0.13075 -0.00344455 0)
(-0.129152 -0.00485883 0)
(-0.127153 -0.00626944 0)
(-0.124761 -0.00766537 0)
(-0.121984 -0.00903533 0)
(-0.118833 -0.0103678 0)
(-0.115321 -0.0116514 0)
(-0.111465 -0.0128744 0)
(-0.107282 -0.0140255 0)
(-0.102795 -0.0150937 0)
(-0.0980243 -0.0160683 0)
(-0.0929968 -0.0169393 0)
(-0.0877398 -0.0176972 0)
(-0.0822825 -0.0183337 0)
(-0.0766565 -0.0188414 0)
(-0.0708947 -0.0192142 0)
(-0.0650316 -0.0194474 0)
(-0.0591029 -0.0195378 0)
(-0.0531454 -0.0194837 0)
(-0.0471961 -0.0192856 0)
(-0.0412925 -0.0189453 0)
(-0.035472 -0.0184668 0)
(-0.0297711 -0.017856 0)
(-0.0242256 -0.0171203 0)
(-0.0188698 -0.0162693 0)
(-0.0137361 -0.0153138 0)
(-0.00885461 -0.0142664 0)
(-0.00425288 -0.0131407 0)
(4.47024e-05 -0.0119513 0)
(0.00401707 -0.0107136 0)
(0.00764679 -0.00944351 0)
(0.0109203 -0.00815685 0)
(0.0138281 -0.00686928 0)
(0.0163647 -0.00559594 0)
(0.0185289 -0.0043511 0)
(0.0203232 -0.00314796 0)
(0.0217544 -0.00199831 0)
(0.0228325 -0.000912418 0)
(0.0235714 0.00010117 0)
(0.0239875 0.00103571 0)
(0.0241 0.0018863 0)
(0.0239305 0.00264984 0)
(0.0235019 0.00332496 0)
(0.0228387 0.00391183 0)
(0.0219661 0.00441198 0)
(0.0209097 0.00482795 0)
(0.0196953 0.00516299 0)
(0.0183484 0.0054206 0)
(0.0168944 0.00560408 0)
(0.015358 0.00571604 0)
(0.0137639 0.00575785 0)
(0.0121366 0.00572918 0)
(0.0105007 0.0056276 0)
(0.00888127 0.00544826 0)
(0.00730435 0.00518399 0)
(0.00579713 0.00482571 0)
(0.00438853 0.00436346 0)
(0.0031096 0.00378845 0)
(0.00199299 0.00309626 0)
(0.00107175 0.00229135 0)
(0.000395575 0.00139317 0)
(6.35201e-05 0.000448933 0)
(3.81218e-05 -0.000454899 0)
(0.000210462 -0.0011582 0)
(0.000526984 -0.00166657 0)
(0.00091156 -0.00199478 0)
(0.00131923 -0.00216091 0)
(0.00171836 -0.00218512 0)
(0.00208126 -0.00208823 0)
(0.00238436 -0.00189049 0)
(0.00260808 -0.00161083 0)
(0.00273623 -0.00126625 0)
(0.00275554 -0.000871633 0)
(0.00265523 -0.000439539 0)
(0.00242664 1.97361e-05 0)
(0.0020628 0.000498102 0)
(0.00155805 0.000989533 0)
(0.000907725 0.00148989 0)
(0.00010778 0.00199672 0)
(-0.000845445 0.00250901 0)
(-0.00195548 0.00302692 0)
(-0.00322591 0.00355155 0)
(-0.00466048 0.00408465 0)
(-0.00626316 0.00462832 0)
(-0.00803814 0.0051848 0)
(-0.0099898 0.00575621 0)
(-0.0121226 0.00634433 0)
(-0.0144407 0.00695041 0)
(-0.0169484 0.00757508 0)
(-0.019649 0.00821818 0)
(-0.0225455 0.00887873 0)
(-0.0256396 0.00955487 0)
(-0.028932 0.0102439 0)
(-0.0324218 0.0109422 0)
(-0.0361066 0.0116454 0)
(-0.039982 0.0123483 0)
(-0.0440419 0.013045 0)
(-0.0482777 0.0137291 0)
(-0.0526789 0.0143934 0)
(-0.0572326 0.0150305 0)
(-0.0619238 0.0156324 0)
(-0.066735 0.016191 0)
(-0.0716469 0.0166982 0)
(-0.076638 0.0171455 0)
(-0.0816849 0.0175249 0)
(-0.0867628 0.0178285 0)
(-0.0918453 0.0180487 0)
(-0.0969051 0.0181786 0)
(-0.101914 0.0182117 0)
(-0.106843 0.0181425 0)
(-0.111663 0.0179659 0)
(-0.116345 0.0176782 0)
(-0.12086 0.0172762 0)
(-0.125182 0.0167582 0)
(-0.129282 0.0161231 0)
(-0.133134 0.0153711 0)
(-0.136714 0.0145034 0)
(-0.14 0.0135223 0)
(-0.142968 0.0124312 0)
(-0.1456 0.0112343 0)
(-0.147878 0.00993692 0)
(-0.149785 0.00854536 0)
(-0.151309 0.00706671 0)
(-0.152436 0.00550894 0)
(-0.153157 0.00388081 0)
(-0.153463 0.00219185 0)
(-0.15335 0.000452329 0)
(-0.152814 -0.00132689 0)
(-0.151851 -0.00313456 0)
(-0.150464 -0.00495841 0)
(-0.148655 -0.00678595 0)
(-0.146428 -0.00860422 0)
(-0.143789 -0.0103999 0)
(-0.140749 -0.0121594 0)
(-0.137317 -0.013869 0)
(-0.133508 -0.0155147 0)
(-0.129336 -0.0170827 0)
(-0.124821 -0.0185593 0)
(-0.119981 -0.0199311 0)
(-0.11484 -0.0211853 0)
(-0.109422 -0.0223095 0)
(-0.103754 -0.0232923 0)
(-0.097864 -0.0241233 0)
(-0.091784 -0.0247934 0)
(-0.0855466 -0.0252946 0)
(-0.0791861 -0.0256209 0)
(-0.0727384 -0.0257679 0)
(-0.0662408 -0.0257331 0)
(-0.0597313 -0.0255163 0)
(-0.0532483 -0.0251192 0)
(-0.0468307 -0.0245461 0)
(-0.0405171 -0.0238033 0)
(-0.0343451 -0.0228994 0)
(-0.0283518 -0.0218454 0)
(-0.0225723 -0.0206542 0)
(-0.0170398 -0.0193405 0)
(-0.0117853 -0.0179208 0)
(-0.00683668 -0.0164128 0)
(-0.00221879 -0.0148355 0)
(0.00204702 -0.0132082 0)
(0.00594328 -0.0115509 0)
(0.00945663 -0.00988331 0)
(0.0125778 -0.00822474 0)
(0.0153016 -0.00659366 0)
(0.0176274 -0.00500733 0)
(0.0195586 -0.00348154 0)
(0.0211026 -0.00203025 0)
(0.0222705 -0.000665443 0)
(0.0230771 0.000603056 0)
(0.0235401 0.00176766 0)
(0.0236801 0.00282306 0)
(0.0235199 0.00376609 0)
(0.0230841 0.00459559 0)
(0.0223989 0.00531218 0)
(0.0214911 0.00591789 0)
(0.0203886 0.00641578 0)
(0.0191191 0.0068094 0)
(0.0177105 0.00710223 0)
(0.0161909 0.00729713 0)
(0.0145879 0.00739562 0)
(0.0129292 0.00739736 0)
(0.0112428 0.00729961 0)
(0.00955691 0.00709692 0)
(0.00790067 0.00678112 0)
(0.00630433 0.00634169 0)
(0.00479989 0.00576681 0)
(0.00342194 0.00504517 0)
(0.00220742 0.0041688 0)
(0.00119502 0.0031368 0)
(0.000444148 0.00196003 0)
(7.20033e-05 0.000669974 0)
(3.6966e-05 -0.000565304 0)
(0.00020152 -0.00141332 0)
(0.000499038 -0.00200802 0)
(0.000852397 -0.00237617 0)
(0.00121521 -0.00254431 0)
(0.00155474 -0.00253921 0)
(0.00184278 -0.00238693 0)
(0.00205549 -0.00211208 0)
(0.00217312 -0.00173724 0)
(0.0021793 -0.00128257 0)
(0.00206045 -0.000765574 0)
(0.00180535 -0.000201079 0)
(0.00140472 0.000398793 0)
(0.000850844 0.00102449 0)
(0.000137197 0.0016689 0)
(-0.000741863 0.00232709 0)
(-0.00179139 0.00299613 0)
(-0.00301611 0.00367476 0)
(-0.00442058 0.00436308 0)
(-0.00600939 0.00506228 0)
(-0.0077872 0.00577425 0)
(-0.00975875 0.00650126 0)
(-0.0119289 0.00724569 0)
(-0.0143024 0.00800964 0)
(-0.0168838 0.00879477 0)
(-0.0196775 0.00960202 0)
(-0.0226869 0.0104314 0)
(-0.0259148 0.0112821 0)
(-0.029363 0.012152 0)
(-0.0330316 0.013038 0)
(-0.0369193 0.0139358 0)
(-0.0410228 0.0148401 0)
(-0.0453371 0.0157446 0)
(-0.0498545 0.0166419 0)
(-0.0545653 0.017524 0)
(-0.0594572 0.0183821 0)
(-0.0645155 0.0192067 0)
(-0.0697232 0.0199879 0)
(-0.0750607 0.0207156 0)
(-0.0805063 0.0213793 0)
(-0.0860362 0.0219689 0)
(-0.0916247 0.0224741 0)
(-0.0972446 0.0228852 0)
(-0.102867 0.0231929 0)
(-0.108463 0.0233886 0)
(-0.114002 0.0234645 0)
(-0.119454 0.0234139 0)
(-0.124788 0.0232309 0)
(-0.129973 0.0229109 0)
(-0.134982 0.0224505 0)
(-0.139784 0.0218473 0)
(-0.144352 0.0211006 0)
(-0.148661 0.0202106 0)
(-0.152686 0.019179 0)
(-0.156404 0.0180086 0)
(-0.159794 0.0167034 0)
(-0.162837 0.0152685 0)
(-0.165516 0.0137102 0)
(-0.167814 0.0120356 0)
(-0.169719 0.0102531 0)
(-0.171218 0.00837161 0)
(-0.172302 0.00640115 0)
(-0.172964 0.00435242 0)
(-0.173196 0.00223688 0)
(-0.172994 6.66945e-05 0)
(-0.172356 -0.00214505 0)
(-0.171281 -0.00438533 0)
(-0.169769 -0.00664004 0)
(-0.167824 -0.00889467 0)
(-0.16545 -0.0111343 0)
(-0.162653 -0.0133435 0)
(-0.159441 -0.0155068 0)
(-0.155825 -0.0176081 0)
(-0.151817 -0.0196315 0)
(-0.147431 -0.0215609 0)
(-0.142684 -0.0233804 0)
(-0.137594 -0.0250745 0)
(-0.132182 -0.0266279 0)
(-0.126473 -0.0280262 0)
(-0.12049 -0.0292557 0)
(-0.114262 -0.0303039 0)
(-0.107819 -0.0311595 0)
(-0.101193 -0.031813 0)
(-0.094417 -0.0322564 0)
(-0.0875278 -0.0324839 0)
(-0.0805623 -0.0324918 0)
(-0.073559 -0.032279 0)
(-0.0665574 -0.0318467 0)
(-0.0595974 -0.031199 0)
(-0.0527193 -0.0303424 0)
(-0.0459629 -0.0292863 0)
(-0.0393674 -0.0280428 0)
(-0.0329708 -0.0266263 0)
(-0.0268093 -0.0250538 0)
(-0.0209172 -0.0233441 0)
(-0.015326 -0.0215179 0)
(-0.0100641 -0.0195974 0)
(-0.00515679 -0.0176057 0)
(-0.000625451 -0.0155665 0)
(0.00351253 -0.0135037 0)
(0.00724393 -0.0114409 0)
(0.0105599 -0.00940076 0)
(0.0134559 -0.00740498 0)
(0.0159319 -0.00547352 0)
(0.017992 -0.00362443 0)
(0.0196447 -0.00187351 0)
(0.0209021 -0.000234113 0)
(0.02178 0.00128299 0)
(0.0222975 0.0026697 0)
(0.0224762 0.00392051 0)
(0.0223405 0.00503237 0)
(0.0219165 0.00600443 0)
(0.0212318 0.00683769 0)
(0.0203153 0.0075345 0)
(0.0191965 0.00809805 0)
(0.0179053 0.00853166 0)
(0.0164721 0.00883814 0)
(0.0149273 0.00901899 0)
(0.0133013 0.00907376 0)
(0.011625 0.00899941 0)
(0.00992957 0.0087899 0)
(0.00824707 0.0084361 0)
(0.0066107 0.007926 0)
(0.00505558 0.00724565 0)
(0.00361983 0.00638057 0)
(0.00234465 0.00531809 0)
(0.00127388 0.00405016 0)
(0.000474729 0.00257683 0)
(7.70978e-05 0.000911671 0)
(3.45276e-05 -0.000668831 0)
(0.000184157 -0.00164848 0)
(0.00044815 -0.00231565 0)
(0.000751131 -0.00270881 0)
(0.00104672 -0.00286331 0)
(0.00130194 -0.00281282 0)
(0.00148865 -0.00258898 0)
(0.00158323 -0.00222084 0)
(0.00156615 -0.00173464 0)
(0.00142113 -0.00115356 0)
(0.00113452 -0.000497642 0)
(0.000694852 0.000216251 0)
(9.23742e-05 0.000974322 0)
(-0.000681274 0.00176572 0)
(-0.00163341 0.00258235 0)
(-0.00277058 0.00341861 0)
(-0.00409882 0.00427111 0)
(-0.00562386 0.00513835 0)
(-0.00735127 0.00602037 0)
(-0.00928654 0.00691834 0)
(-0.0114351 0.0078342 0)
(-0.0138025 0.00877021 0)
(-0.0163938 0.00972866 0)
(-0.0192141 0.0107114 0)
(-0.0222678 0.0117197 0)
(-0.0255586 0.0127538 0)
(-0.0290894 0.0138128 0)
(-0.0328615 0.0148947 0)
(-0.036875 0.0159959 0)
(-0.0411279 0.0171116 0)
(-0.0456163 0.0182357 0)
(-0.0503342 0.0193605 0)
(-0.0552728 0.0204776 0)
(-0.060421 0.0215771 0)
(-0.065765 0.0226483 0)
(-0.0712884 0.02368 0)
(-0.0769722 0.0246601 0)
(-0.0827949 0.0255762 0)
(-0.0887327 0.026416 0)
(-0.0947596 0.027167 0)
(-0.100848 0.027817 0)
(-0.106968 0.0283543 0)
(-0.11309 0.0287679 0)
(-0.119183 0.0290475 0)
(-0.125214 0.029184 0)
(-0.131153 0.0291696 0)
(-0.136967 0.0289974 0)
(-0.142626 0.0286621 0)
(-0.1481 0.02816 0)
(-0.15336 0.0274887 0)
(-0.15838 0.0266471 0)
(-0.163132 0.025636 0)
(-0.167595 0.0244573 0)
(-0.171744 0.0231144 0)
(-0.175561 0.0216119 0)
(-0.179026 0.0199557 0)
(-0.182124 0.0181529 0)
(-0.184839 0.0162115 0)
(-0.187158 0.0141407 0)
(-0.18907 0.0119503 0)
(-0.190566 0.0096514 0)
(-0.191637 0.00725551 0)
(-0.192277 0.00477505 0)
(-0.19248 0.00222312 0)
(-0.192244 -0.000386504 0)
(-0.191565 -0.00303928 0)
(-0.190444 -0.0057204 0)
(-0.188879 -0.00841422 0)
(-0.186875 -0.0111046 0)
(-0.184434 -0.0137749 0)
(-0.18156 -0.016408 0)
(-0.178262 -0.0189865 0)
(-0.174548 -0.0214926 0)
(-0.170428 -0.0239083 0)
(-0.165914 -0.0262154 0)
(-0.161021 -0.0283959 0)
(-0.155766 -0.0304321 0)