/*--------------------------------*- C++ -*----------------------------------*\
| =========                 |                                                 |
| \\      /  F ield         | OpenFOAM: The Open Source CFD Toolbox           |
|  \\    /   O peration     | Version:  2112                                  |
|   \\  /    A nd           | Website:  www.openfoam.com                      |
|    \\/     M anipulation  |                                                 |
\*---------------------------------------------------------------------------*/
FoamFile
{
    version     2.0;
    format      ascii;
    arch        "LSB;label=32;scalar=64";
    class       volScalarField;
    location    "32";
    object      p;
}
// * * * * * * * * * * * * * * * * * * * * * * * * * * * * * * * * * * * * * //

dimensions      [0 2 -2 0 0 0 0];

internalField   nonuniform List<scalar> 
16641
(
-8.604e-08
1.33986e-05
2.67391e-05
3.49201e-05
3.43382e-05
2.31735e-05
8.4887e-07
-3.24975e-05
-7.63064e-05
-0.000129804
-0.000192131
-0.000262421
-0.000339858
-0.000423719
-0.000513395
-0.00060842
-0.000708465
-0.000813332
-0.000922948
-0.00103735
-0.00115665
-0.00128106
-0.00141081
-0.00154616
-0.00168738
-0.00183471
-0.00198836
-0.00214848
-0.00231515
-0.00248839
-0.00266814
-0.00285421
-0.00304634
-0.00324414
-0.00344712
-0.00365467
-0.00386604
-0.00408035
-0.0042966
-0.00451364
-0.00473018
-0.00494482
-0.00515599
-0.00536201
-0.00556107
-0.00575129
-0.00593065
-0.0060971
-0.00624852
-0.00638278
-0.00649776
-0.00659136
-0.00666159
-0.00670657
-0.00672454
-0.00671399
-0.0066736
-0.00660236
-0.00649957
-0.00636488
-0.00619833
-0.00600038
-0.00577196
-0.00551444
-0.00522968
-0.00492001
-0.00458822
-0.0042375
-0.00387175
-0.003495
-0.00311172
-0.0027267
-0.00234493
-0.0019716
-0.00161194
-0.00127119
-0.000954462
-0.000666657
-0.000412363
-0.000195752
-2.04914e-05
0.000110344
0.000194347
0.000229841
0.000215919
0.000152478
4.02183e-05
-0.000119364
-0.00032401
-0.00057075
-0.00085611
-0.00117579
-0.00152531
-0.00189979
-0.00229412
-0.00270311
-0.00312161
-0.00354459
-0.00396728
-0.00438523
-0.00479438
-0.00519115
-0.00557244
-0.00593565
-0.00627873
-0.00660012
-0.00689877
-0.00717406
-0.00742579
-0.00765411
-0.00785948
-0.0080426
-0.00820436
-0.00834577
-0.00846789
-0.00857182
-0.00865861
-0.00872923
-0.00878456
-0.00882535
-0.00885226
-0.00886588
-0.00886689
-0.00885617
-0.00883515
-0.00880628
-0.00877363
-0.0087433
-0.00872469
-1.47373e-05
-8.90252e-07
8.48068e-06
1.1952e-05
7.87783e-06
-5.18361e-06
-2.7865e-05
-6.02058e-05
-0.000101896
-0.000152415
-0.000211131
-0.000277367
-0.000350464
-0.000429822
-0.000514931
-0.000605389
-0.000700907
-0.000801305
-0.000906506
-0.00101653
-0.00113146
-0.00125147
-0.00137675
-0.00150753
-0.00164402
-0.00178645
-0.00193498
-0.00208976
-0.00225085
-0.00241828
-0.00259198
-0.00277179
-0.00295748
-0.00314868
-0.00334495
-0.00354572
-0.0037503
-0.00395787
-0.0041675
-0.00437812
-0.0045885
-0.00479733
-0.00500312
-0.00520428
-0.0053991
-0.00558576
-0.00576236
-0.0059269
-0.00607737
-0.0062117
-0.00632784
-0.00642377
-0.00649754
-0.0065473
-0.00657135
-0.00656817
-0.00653648
-0.00647524
-0.00638372
-0.00626156
-0.00610874
-0.00592566
-0.00571314
-0.00547248
-0.00520542
-0.0049142
-0.00460151
-0.00427033
-0.0039243
-0.0035674
-0.0032039
-0.00283841
-0.00247573
-0.00212086
-0.00177884
-0.00145471
-0.0011534
-0.000879645
-0.000637857
-0.000432059
-0.000265784
-0.000141991
-6.29912e-05
-3.03956e-05
-4.50668e-05
-0.000107096
-0.000215797
-0.000369722
-0.000566695
-0.000803865
-0.00107779
-0.00138453
-0.00171965
-0.00207851
-0.00245624
-0.00284787
-0.00324851
-0.00365338
-0.00405794
-0.00445798
-0.00484967
-0.00522962
-0.00559491
-0.00594309
-0.00627225
-0.00658092
-0.0068681
-0.00713321
-0.00737606
-0.00759679
-0.00779581
-0.00797377
-0.00813149
-0.00826988
-0.00838997
-0.00849277
-0.00857929
-0.00865048
-0.00870722
-0.00875034
-0.00878058
-0.00879869
-0.00880548
-0.00880198
-0.0087896
-0.00877043
-0.00874758
-0.00872481
-0.00870609
-2.89168e-05
-1.07478e-05
-1.2691e-06
7.56716e-07
-4.68316e-06
-1.85868e-05
-4.14178e-05
-7.31783e-05
-0.000113612
-0.000162294
-0.000218688
-0.000282215
-0.000352298
-0.000428416
-0.000510121
-0.000597058
-0.000688969
-0.000785693
-0.000887165
-0.000993405
-0.0011045
-0.00122061
-0.00134192
-0.00146863
-0.00160095
-0.00173909
-0.00188322
-0.00203348
-0.00218994
-0.00235264
-0.00252153
-0.00269647
-0.00287725
-0.00306356
-0.00325499
-0.00345102
-0.00365101
-0.00385421
-0.00405973
-0.00426657
-0.00447358
-0.00467948
-0.00488287
-0.00508221
-0.00527585
-0.00546202
-0.00563887
-0.00580446
-0.0059568
-0.00609384
-0.00621357
-0.00631396
-0.00639307
-0.00644904
-0.00648016
-0.00648487
-0.00646185
-0.00641001
-0.0063286
-0.00621715
-0.00607559
-0.00590424
-0.00570385
-0.0054756
-0.00522119
-0.00494282
-0.00464264
-0.00432422
-0.00399077
-0.00364615
-0.00329458
-0.00294058
-0.00258886
-0.00224434
-0.00191199
-0.00159678
-0.00130357
-0.00103705
-0.000801574
-0.000601125
-0.0004392
-0.000318728
-0.000242001
-0.000210614
-0.000225422
-0.000286515
-0.000393215
-0.000544089
-0.000736984
-0.000969084
-0.00123698
-0.00153676
-0.00186411
-0.00221442
-0.00258288
-0.00296465
-0.00335493
-0.00374904
-0.00414256
-0.00453141
-0.00491188
-0.00528069
-0.00563505
-0.00597263
-0.00629162
-0.00659064
-0.00686879
-0.00712555
-0.00736077
-0.00757464
-0.0077676
-0.00794029
-0.00809353
-0.00822825
-0.00834545
-0.00844612
-0.00853128
-0.00860187
-0.00865879
-0.00870288
-0.00873491
-0.00875565
-0.00876588
-0.00876653
-0.00875873
-0.0087441
-0.00872484
-0.00870212
-0.00867559
-3.78274e-05
-1.47348e-05
-3.69318e-06
-1.70006e-06
-7.55189e-06
-2.18231e-05
-4.47484e-05
-7.62041e-05
-0.000115889
-0.000163379
-0.000218166
-0.000279708
-0.000347477
-0.000420994
-0.000499856
-0.000583743
-0.000672428
-0.000765774
-0.000863738
-0.000966355
-0.00107373
-0.00118603
-0.00130344
-0.00142618
-0.00155446
-0.00168851
-0.00182849
-0.00197457
-0.00212685
-0.00228537
-0.00245012
-0.002621
-0.00279784
-0.00298038
-0.00316824
-0.00336097
-0.00355798
-0.00375857
-0.00396194
-0.00416711
-0.00437301
-0.0045784
-0.00478194
-0.00498213
-0.00517735
-0.00536587
-0.00554585
-0.00571535
-0.00587238
-0.0060149
-0.00614085
-0.00624819
-0.00633492
-0.00639914
-0.00643906
-0.00645307
-0.00643977
-0.006398
-0.00632691
-0.00622596
-0.00609498
-0.00593422
-0.00574434
-0.00552644
-0.00528223
-0.00501416
-0.00472286
-0.00441323
-0.0040882
-0.00375146
-0.0034072
-0.00305986
-0.00271419
-0.00237504
-0.00204741
-0.00173627
-0.00144649
-0.00118276
-0.000949466
-0.000750621
-0.000589748
-0.000469803
-0.000393107
-0.000361281
-0.0003752
-0.000434972
-0.00053993
-0.000688643
-0.00087896
-0.00110806
-0.00137252
-0.0016684
-0.00199137
-0.00233691
-0.00270005
-0.00307603
-0.00346004
-0.00384744
-0.00423383
-0.00461517
-0.00498781
-0.00534854
-0.00569466
-0.00602392
-0.00633458
-0.00662539
-0.00689552
-0.00714455
-0.00737242
-0.00757939
-0.00776595
-0.00793282
-0.00808086
-0.00821104
-0.00832438
-0.00842192
-0.00850467
-0.0085736
-0.00862964
-0.00867359
-0.00870623
-0.00872826
-0.00874036
-0.00874323
-0.00873763
-0.00872465
-0.00870569
-0.00867971
-0.00864316
-3.79985e-05
-1.11824e-05
1.22047e-06
3.34334e-06
-2.77612e-06
-1.73901e-05
-4.05238e-05
-7.19131e-05
-0.000111178
-0.000157858
-0.000211435
-0.000271382
-0.000337193
-0.000408421
-0.000484691
-0.000565717
-0.0006513
-0.000741337
-0.000835813
-0.000934794
-0.00103841
-0.00114685
-0.00126032
-0.00137907
-0.00150334
-0.00163336
-0.00176935
-0.00191149
-0.00205992
-0.00221471
-0.0023759
-0.00254345
-0.00271722
-0.00289701
-0.00308252
-0.00327334
-0.00346895
-0.00366872
-0.00387189
-0.00407755
-0.00428468
-0.00449208
-0.00469844
-0.00490229
-0.00510202
-0.0052959
-0.00548207
-0.00565859
-0.0058234
-0.00597444
-0.00610956
-0.00622667
-0.00632368
-0.0063986
-0.00644955
-0.00647483
-0.00647292
-0.00644257
-0.00638283
-0.00629305
-0.00617299
-0.00602278
-0.00584301
-0.00563474
-0.00539934
-0.00513826
-0.00485592
-0.00455347
-0.00423464
-0.0039033
-0.00356363
-0.0032201
-0.00287743
-0.00254054
-0.00221443
-0.00190413
-0.00161455
-0.00135044
-0.00111627
-0.000916098
-0.000753522
-0.000631569
-0.000552623
-0.000518363
-0.000529717
-0.000586833
-0.000689071
-0.000835016
-0.00102252
-0.00124873
-0.00151022
-0.00180302
-0.00212275
-0.00246475
-0.00282414
-0.00319604
-0.00357558
-0.0039581
-0.00433919
-0.00471477
-0.00508123
-0.00543537
-0.00577452
-0.00609651
-0.00639969
-0.00668285
-0.00694529
-0.00718666
-0.00740703
-0.00760673
-0.00778637
-0.00794674
-0.00808878
-0.00821353
-0.00832207
-0.00841549
-0.00849485
-0.00856116
-0.00861532
-0.00865816
-0.00869042
-0.00871271
-0.00872556
-0.00872945
-0.00872475
-0.00871206
-0.00869212
-0.00866209
-0.00861576
-2.74794e-05
1.44244e-06
1.45276e-05
1.65336e-05
9.9793e-06
-5.16215e-06
-2.87414e-05
-6.03594e-05
-9.95472e-05
-0.000145788
-0.000198538
-0.000257262
-0.000321467
-0.000390721
-0.000464674
-0.000543065
-0.000625731
-0.000712605
-0.000803713
-0.000899159
-0.000999113
-0.0011038
-0.00121347
-0.0013284
-0.00144889
-0.0015752
-0.0017076
-0.00184632
-0.00199153
-0.00214339
-0.00230198
-0.00246731
-0.00263932
-0.00281788
-0.00300274
-0.00319359
-0.00338995
-0.00359126
-0.00379681
-0.00400575
-0.00421708
-0.00442965
-0.00464213
-0.00485307
-0.00506083
-0.00526365
-0.00545962
-0.00564672
-0.00582285
-0.00598581
-0.0061334
-0.00626338
-0.00637357
-0.00646184
-0.00652621
-0.00656484
-0.0065761
-0.00655862
-0.00651133
-0.0064335
-0.00632478
-0.00618521
-0.00601533
-0.00581611
-0.00558897
-0.00533561
-0.00505896
-0.00476162
-0.00444699
-0.00411885
-0.00378136
-0.00343902
-0.0030966
-0.00275906
-0.00243145
-0.00211885
-0.00182629
-0.0015586
-0.00132031
-0.00111562
-0.000948221
-0.00082124
-0.000737166
-0.000697775
-0.000704078
-0.000756297
-0.000853848
-0.000995355
-0.00117868
-0.00140099
-0.00165882
-0.00194816
-0.00226456
-0.0026033
-0.00295944
-0.00332797
-0.00370398
-0.00408268
-0.00445962
-0.00483066
-0.00519213
-0.00554084
-0.0058741
-0.00618977
-0.00648623
-0.00676237
-0.00701752
-0.00725147
-0.00746436
-0.00765664
-0.00782902
-0.0079824
-0.00811784
-0.00823644
-0.00833939
-0.00842784
-0.00850291
-0.00856565
-0.00861699
-0.00865776
-0.00868865
-0.0087102
-0.0087228
-0.00872668
-0.0087219
-0.00870866
-0.00868716
-0.00865318
-0.00859849
-5.41384e-06
2.39839e-05
3.69e-05
3.83127e-05
3.09562e-05
1.49579e-05
-9.39121e-06
-4.15746e-05
-8.1036e-05
-0.000127199
-0.000179486
-0.000237346
-0.000300285
-0.000367882
-0.000439807
-0.000515828
-0.000595819
-0.000679758
-0.000767718
-0.000859852
-0.000956382
-0.00105759
-0.00116378
-0.00127529
-0.00139247
-0.00151565
-0.00164516
-0.00178129
-0.0019243
-0.0020744
-0.00223175
-0.00239644
-0.0025685
-0.00274786
-0.00293436
-0.00312774
-0.00332762
-0.00353347
-0.00374463
-0.00396029
-0.00417945
-0.00440096
-0.00462349
-0.00484553
-0.0050654
-0.00528125
-0.00549109
-0.00569279
-0.00588412
-0.00606276
-0.00622637
-0.00637256
-0.00649901
-0.00660346
-0.00668376
-0.00673795
-0.00676427
-0.00676123
-0.00672765
-0.0066627
-0.00656593
-0.00643731
-0.0062773
-0.00608681
-0.00586728
-0.00562038
-0.00534875
-0.00505523
-0.00474317
-0.00441635
-0.00407895
-0.00373549
-0.00339078
-0.00304984
-0.00271779
-0.00239982
-0.00210102
-0.00182634
-0.00158047
-0.0013677
-0.00119187
-0.00105625
-0.000963481
-0.000915464
-0.00091334
-0.000957445
-0.00104729
-0.00118158
-0.00135822
-0.0015744
-0.00182666
-0.00211096
-0.00242281
-0.0027574
-0.00310968
-0.00347458
-0.00384702
-0.00422215
-0.00459537
-0.00496246
-0.00531964
-0.00566368
-0.00599183
-0.00630194
-0.0065924
-0.00686211
-0.00711047
-0.00733735
-0.00754296
-0.00772787
-0.00789289
-0.00803904
-0.00816748
-0.00827944
-0.0083762
-0.008459
-0.00852903
-0.0085874
-0.00863509
-0.00867293
-0.00870158
-0.00872151
-0.008733
-0.00873608
-0.00873056
-0.00871629
-0.00869312
-0.00865581
-0.00859476
2.8475e-05
5.68421e-05
6.86725e-05
6.88782e-05
6.02252e-05
4.29515e-05
1.74578e-05
-1.56436e-05
-5.57213e-05
-0.000102147
-0.000154307
-0.000211634
-0.000273629
-0.00033988
-0.000410077
-0.000484024
-0.000561639
-0.000642949
-0.000728083
-0.000817259
-0.000910764
-0.00100895
-0.00111219
-0.00122091
-0.00133552
-0.00145645
-0.0015841
-0.00171885
-0.00186104
-0.00201099
-0.00216894
-0.00233508
-0.00250951
-0.00269227
-0.00288328
-0.00308233
-0.00328911
-0.00350314
-0.00372377
-0.00395021
-0.00418144
-0.00441629
-0.00465334
-0.00489102
-0.00512755
-0.00536095
-0.0055891
-0.00580972
-0.00602042
-0.00621873
-0.00640211
-0.00656803
-0.00671399
-0.00683756
-0.00693647
-0.00700859
-0.00705204
-0.00706522
-0.00704683
-0.00699594
-0.00691202
-0.00679499
-0.00664521
-0.00646353
-0.00625128
-0.00601039
-0.00574321
-0.00545259
-0.0051419
-0.00481491
-0.00447584
-0.00412922
-0.00377992
-0.003433
-0.00309368
-0.00276721
-0.00245882
-0.00217358
-0.00191631
-0.00169148
-0.00150309
-0.0013546
-0.00124881
-0.00118783
-0.00117296
-0.00120471
-0.00128273
-0.00140585
-0.00157209
-0.00177869
-0.00202223
-0.00229867
-0.00260349
-0.00293181
-0.00327851
-0.00363839
-0.00400627
-0.00437712
-0.00474623
-0.00510923
-0.00546224
-0.00580187
-0.00612532
-0.00643036
-0.00671534
-0.00697915
-0.00722124
-0.00744146
-0.00764014
-0.00781791
-0.00797569
-0.0081146
-0.00823593
-0.00834101
-0.00843123
-0.00850793
-0.00857241
-0.00862583
-0.00866923
-0.00870345
-0.00872917
-0.0087468
-0.00875653
-0.00875828
-0.00875162
-0.00873618
-0.00871155
-0.00867185
-0.00860658
7.41859e-05
0.000100154
0.000109989
0.000108324
9.78294e-05
7.88262e-05
5.17986e-05
1.74285e-05
-2.35955e-05
-7.06022e-05
-0.000122951
-0.000180058
-0.000241423
-0.000306647
-0.000375448
-0.000447671
-0.000523283
-0.000602373
-0.000685137
-0.000771868
-0.000862935
-0.000958772
-0.00105985
-0.00116669
-0.00127979
-0.00139969
-0.00152689
-0.00166188
-0.00180512
-0.00195702
-0.00211794
-0.00228817
-0.00246791
-0.00265729
-0.0028563
-0.0030648
-0.00328253
-0.00350901
-0.00374362
-0.00398551
-0.00423363
-0.00448671
-0.00474326
-0.00500156
-0.00525968
-0.00551549
-0.00576668
-0.0060108
-0.00624526
-0.00646738
-0.00667445
-0.00686375
-0.00703259
-0.0071784
-0.00729874
-0.00739135
-0.00745421
-0.00748561
-0.00748416
-0.00744883
-0.00737901
-0.00727456
-0.00713577
-0.00696343
-0.00675878
-0.00652383
-0.00626078
-0.00597251
-0.00566233
-0.00533403
-0.00499181
-0.00464024
-0.00428421
-0.00392884
-0.0035794
-0.00324126
-0.00291976
-0.0026201
-0.00234727
-0.00210591
-0.00190025
-0.00173396
-0.00161006
-0.00153089
-0.001498
-0.00151211
-0.00157308
-0.00167993
-0.00183083
-0.00202316
-0.00225357
-0.00251808
-0.00281217
-0.00313093
-0.00346917
-0.00382158
-0.00418285
-0.00454782
-0.00491159
-0.00526964
-0.00561792
-0.0059529
-0.00627163
-0.00657178
-0.00685161
-0.00710995
-0.00734622
-0.00756029
-0.0077525
-0.00792355
-0.00807443
-0.00820636
-0.00832072
-0.00841896
-0.00850258
-0.00857303
-0.0086317
-0.00867984
-0.00871854
-0.00874871
-0.00877103
-0.0087859
-0.00879347
-0.00879356
-0.0087856
-0.00876908
-0.0087434
-0.00870234
-0.00863499
0.000131549
0.00015387
0.000160842
0.000156651
0.00014377
0.000122588
9.36476e-05
5.76736e-05
1.53926e-05
-3.24945e-05
-8.53288e-05
-0.000142521
-0.000203578
-0.000268121
-0.000335906
-0.000406826
-0.00048091
-0.000558316
-0.000639323
-0.000724312
-0.000813751
-0.000908175
-0.00100817
-0.00111436
-0.00122738
-0.00134788
-0.00147649
-0.00161383
-0.00176048
-0.00191699
-0.00208383
-0.00226139
-0.00245001
-0.00264987
-0.00286103
-0.00308342
-0.00331677
-0.00356061
-0.00381427
-0.00407684
-0.00434717
-0.00462386
-0.00490528
-0.00518952
-0.00547447
-0.00575779
-0.00603697
-0.00630933
-0.00657206
-0.00682229
-0.00705709
-0.00727354
-0.0074688
-0.00764012
-0.0077849
-0.00790076
-0.00798557
-0.0080375
-0.00805505
-0.00803713
-0.00798305
-0.00789256
-0.00776592
-0.00760385
-0.00740756
-0.0071789
-0.00692012
-0.006634
-0.00632384
-0.00599339
-0.00564682
-0.00528872
-0.00492397
-0.00455774
-0.00419536
-0.00384229
-0.00350397
-0.00318577
-0.00289284
-0.00263006
-0.00240185
-0.00221215
-0.00206429
-0.00196086
-0.00190372
-0.00189388
-0.00193148
-0.00201581
-0.00214525
-0.00231738
-0.00252902
-0.00277628
-0.00305471
-0.0033594
-0.00368513
-0.00402651
-0.00437811
-0.00473461
-0.00509094
-0.0054424
-0.00578474
-0.00611424
-0.00642777
-0.00672284
-0.00699757
-0.0072507
-0.00748155
-0.00768995
-0.00787624
-0.00804112
-0.00818563
-0.00831106
-0.00841887
-0.0085106
-0.00858785
-0.00865218
-0.00870508
-0.00874789
-0.00878178
-0.00880772
-0.00882642
-0.00883832
-0.00884354
-0.00884185
-0.00883264
-0.00881527
-0.00878906
-0.00874768
-0.0086802
0.000200275
0.000217794
0.000221094
0.000213759
0.000197979
0.000174195
0.00014299
0.000105104
6.1281e-05
1.22349e-05
-4.13715e-05
-9.89558e-05
-0.000160044
-0.000224295
-0.00029151
-0.000361642
-0.000434792
-0.000511204
-0.000591252
-0.000675422
-0.000764296
-0.000858532
-0.000958847
-0.001066
-0.00118077
-0.00130394
-0.00143631
-0.00157863
-0.00173162
-0.00189598
-0.0020723
-0.00226109
-0.00246278
-0.00267762
-0.00290574
-0.00314707
-0.00340131
-0.00366796
-0.00394627
-0.00423521
-0.00453348
-0.00483951
-0.00515146
-0.00546722
-0.00578445
-0.00610056
-0.0064128
-0.00671826
-0.00701391
-0.00729663
-0.00756331
-0.00781085
-0.0080362
-0.00823648
-0.00840895
-0.00855109
-0.00866067
-0.00873574
-0.00877473
-0.00877644
-0.0087401
-0.0086654
-0.0085525
-0.00840205
-0.00821521
-0.00799369
-0.0077397
-0.00745595
-0.00714566
-0.00681254
-0.00646071
-0.00609472
-0.00571944
-0.00534006
-0.00496197
-0.00459067
-0.00423174
-0.00389069
-0.00357286
-0.00328333
-0.00302683
-0.00280757
-0.00262919
-0.00249465
-0.00240617
-0.00236511
-0.00237199
-0.00242641
-0.0025271
-0.00267191
-0.00285788
-0.00308132
-0.0033379
-0.00362279
-0.00393077
-0.0042564
-0.00459416
-0.00493859
-0.00528445
-0.00562683
-0.00596125
-0.00628378
-0.00659108
-0.00688043
-0.00714977
-0.00739768
-0.00762334
-0.0078265
-0.00800741
-0.00816675
-0.00830557
-0.00842516
-0.00852705
-0.00861285
-0.00868424
-0.00874289
-0.00879035
-0.00882807
-0.00885732
-0.00887913
-0.00889426
-0.00890321
-0.00890611
-0.00890273
-0.00889245
-0.00887459
-0.0088484
-0.00880769
-0.00874181
0.000279974
0.00029161
0.000290484
0.00027944
0.000260294
0.000233529
0.000199744
0.000159671
0.00011405
6.35856e-05
8.92651e-06
-4.93701e-05
-0.000110867
-0.000175272
-0.000242446
-0.000312417
-0.000385372
-0.000461656
-0.000541755
-0.000626276
-0.000715935
-0.000811535
-0.000913942
-0.00102407
-0.00114286
-0.00127128
-0.00141026
-0.00156074
-0.0017236
-0.00189965
-0.00208963
-0.00229417
-0.00251376
-0.00274872
-0.00299917
-0.00326503
-0.00354597
-0.00384136
-0.00415034
-0.00447169
-0.00480394
-0.00514529
-0.00549365
-0.00584667
-0.00620173
-0.006556
-0.00690647
-0.00724997
-0.00758324
-0.00790296
-0.00820579
-0.00848846
-0.00874777
-0.00898067
-0.00918429
-0.009356
-0.00949345
-0.00959461
-0.0096578
-0.00968173
-0.00966554
-0.00960883
-0.00951165
-0.00937457
-0.00919866
-0.00898551
-0.00873723
-0.00845643
-0.00814624
-0.00781026
-0.00745256
-0.0070776
-0.00669023
-0.00629562
-0.00589917
-0.00550645
-0.00512314
-0.00475487
-0.00440718
-0.00408541
-0.00379453
-0.0035391
-0.00332315
-0.00315002
-0.00302235
-0.00294196
-0.00290981
-0.00292593
-0.00298947
-0.00309866
-0.00325086
-0.00344266
-0.00366995
-0.00392803
-0.00421178
-0.00451574
-0.00483435
-0.00516202
-0.00549335
-0.00582322
-0.00614691
-0.00646025
-0.00675962
-0.00704207
-0.00730529
-0.00754762
-0.00776808
-0.00796624
-0.00814224
-0.00829667
-0.00843051
-0.00854506
-0.00864184
-0.0087225
-0.00878879
-0.00884242
-0.00888506
-0.00891823
-0.00894327
-0.00896131
-0.00897319
-0.00897944
-0.00898026
-0.00897546
-0.00896442
-0.00894649
-0.0089209
-0.00888175
-0.00881894
0.000370146
0.000374874
0.000368622
0.000353357
0.000330433
0.000300355
0.000263722
0.000221229
0.00017358
0.000121451
6.54521e-05
6.09522e-06
-5.62375e-05
-0.000121317
-0.000189084
-0.000259654
-0.000333322
-0.000410545
-0.000491941
-0.00057826
-0.000670371
-0.000769239
-0.000875905
-0.000991461
-0.00111703
-0.00125376
-0.00140277
-0.00156516
-0.00174198
-0.00193418
-0.00214262
-0.00236802
-0.00261092
-0.00287166
-0.00315036
-0.00344684
-0.00376068
-0.00409112
-0.00443708
-0.00479716
-0.00516962
-0.00555241
-0.00594317
-0.00633925
-0.00673777
-0.00713561
-0.00752951
-0.00791603
-0.0082917
-0.00865297
-0.00899632
-0.0093183
-0.00961556
-0.00988491
-0.0101233
-0.0103281
-0.0104968
-0.0106273
-0.0107177
-0.0107667
-0.0107734
-0.0107372
-0.010658
-0.0105364
-0.0103733
-0.0101701
-0.00992876
-0.00965185
-0.00934233
-0.00900368
-0.00863984
-0.00825519
-0.0078545
-0.00744288
-0.00702574
-0.00660865
-0.00619737
-0.00579767
-0.00541526
-0.0050557
-0.00472428
-0.00442591
-0.004165
-0.00394537
-0.00377015
-0.00364166
-0.00356141
-0.00352996
-0.00354696
-0.00361114
-0.00372032
-0.00387146
-0.00406076
-0.00428378
-0.00453554
-0.00481067
-0.00510359
-0.00540866
-0.0057203
-0.00603322
-0.00634244
-0.00664351
-0.00693254
-0.00720625
-0.00746204
-0.00769801
-0.00791289
-0.00810604
-0.00827742
-0.00842745
-0.00855703
-0.00866736
-0.00875993
-0.0088364
-0.00889851
-0.00894803
-0.00898669
-0.00901607
-0.00903761
-0.00905249
-0.00906165
-0.00906569
-0.00906487
-0.00905905
-0.00904769
-0.00903015
-0.00900572
-0.00896891
-0.00891034
0.000470159
0.000466996
0.000454964
0.000435022
0.000407966
0.000374304
0.000334601
0.000289488
0.000239606
0.000185568
0.000127924
6.71177e-05
3.4571e-06
-6.29131e-05
-0.000132029
-0.000204116
-0.000279588
-0.000359044
-0.000443246
-0.000533109
-0.000629678
-0.000734103
-0.000847614
-0.000971505
-0.0011071
-0.00125573
-0.00141873
-0.00159735
-0.0017928
-0.00200618
-0.00223844
-0.00249036
-0.0027625
-0.00305518
-0.00336844
-0.00370201
-0.00405528
-0.0044273
-0.00481677
-0.00522201
-0.00564102
-0.00607143
-0.00651058
-0.00695554
-0.00740312
-0.00784993
-0.00829243
-0.00872696
-0.00914979
-0.0095572
-0.00994548
-0.010311
-0.0106503
-0.01096
-0.0112371
-0.0114786
-0.011682
-0.0118451
-0.011966
-0.0120431
-0.0120755
-0.0120625
-0.012004
-0.0119001
-0.0117518
-0.0115604
-0.0113277
-0.0110559
-0.010748
-0.0104072
-0.0100374
-0.00964276
-0.00922796
-0.00879803
-0.00835828
-0.00791433
-0.00747193
-0.00703696
-0.00661528
-0.00621269
-0.00583475
-0.00548674
-0.0051735
-0.00489935
-0.00466794
-0.0044822
-0.00434424
-0.00425527
-0.00421556
-0.00422445
-0.00428032
-0.00438065
-0.00452209
-0.00470054
-0.00491128
-0.00514914
-0.00540859
-0.00568397
-0.00596962
-0.00626002
-0.00655001
-0.0068348
-0.0071102
-0.00737259
-0.00761904
-0.00784728
-0.00805575
-0.00824352
-0.00841028
-0.00855626
-0.00868216
-0.00878906
-0.00887835
-0.00895162
-0.0090106
-0.00905707
-0.00909277
-0.00911934
-0.00913828
-0.00915084
-0.00915803
-0.00916052
-0.00915866
-0.00915238
-0.00914121
-0.00912459
-0.00910185
-0.009068
-0.00901456
0.000579219
0.0005672
0.000548799
0.000523776
0.000492294
0.00045483
0.000411884
0.000363984
0.000311673
0.000255474
0.000195847
0.000133145
6.75803e-05
-8.07654e-07
-7.21721e-05
-0.000146867
-0.000225449
-0.000308672
-0.000397474
-0.000492951
-0.000596344
-0.000709008
-0.000832388
-0.000967989
-0.00111735
-0.001282
-0.00146347
-0.00166318
-0.0018825
-0.00212261
-0.00238454
-0.0026691
-0.00297683
-0.00330797
-0.00366244
-0.0040398
-0.00443922
-0.00485951
-0.00529909
-0.00575597
-0.00622783
-0.00671199
-0.00720548
-0.00770505
-0.0082072
-0.00870828
-0.00920447
-0.00969189
-0.0101666
-0.0106247
-0.0110622
-0.0114755
-0.0118609
-0.0122148
-0.0125342
-0.0128161
-0.0130577
-0.0132568
-0.0134113
-0.0135197
-0.0135808
-0.0135937
-0.0135584
-0.0134747
-0.0133436
-0.013166
-0.0129436
-0.0126785
-0.0123735
-0.0120316
-0.0116564
-0.0112519
-0.0108228
-0.0103738
-0.00991019
-0.0094375
-0.00896149
-0.00848807
-0.00802322
-0.00757292
-0.00714302
-0.00673914
-0.00636655
-0.00603007
-0.00573395
-0.00548176
-0.00527629
-0.00511949
-0.00501238
-0.004955
-0.00494646
-0.00498488
-0.00506749
-0.0051907
-0.00535018
-0.00554105
-0.00575796
-0.00599531
-0.00624739
-0.00650855
-0.0067734
-0.00703688
-0.00729442
-0.00754206
-0.00777647
-0.00799499
-0.00819566
-0.00837722
-0.00853901
-0.00868099
-0.0088036
-0.00890772
-0.00899458
-0.00906566
-0.00912262
-0.00916717
-0.00920106
-0.00922595
-0.00924335
-0.00925459
-0.00926072
-0.0092625
-0.00926033
-0.00925424
-0.00924386
-0.00922868
-0.00920812
-0.00917774
-0.00913002
0.000696323
0.000674532
0.000649204
0.00061876
0.000582618
0.000541188
0.000494866
0.000444032
0.000389095
0.000330459
0.000268465
0.000203349
0.000135203
6.39392e-05
-1.0734e-05
-8.93214e-05
-0.000172545
-0.000261338
-0.000356831
-0.000460327
-0.000573283
-0.000697279
-0.000833986
-0.000985135
-0.00115248
-0.00133777
-0.0015427
-0.00176887
-0.00201774
-0.00229059
-0.00258847
-0.00291218
-0.00326216
-0.00363854
-0.00404106
-0.00446904
-0.00492141
-0.00539666
-0.0058929
-0.00640781
-0.00693873
-0.00748265
-0.00803625
-0.00859596
-0.00915802
-0.00971847
-0.0102733
-0.0108183
-0.0113494
-0.0118624
-0.0123534
-0.0128184
-0.0132536
-0.0136556
-0.0140208
-0.0143464
-0.0146295
-0.0148677
-0.0150589
-0.0152014
-0.0152939
-0.0153355
-0.0153258
-0.0152648
-0.015153
-0.0149914
-0.0147813
-0.0145248
-0.0142243
-0.0138825
-0.013503
-0.0130896
-0.0126465
-0.0121784
-0.0116905
-0.011188
-0.0106768
-0.0101627
-0.00965168
-0.00914994
-0.00866353
-0.00819838
-0.00776017
-0.00735423
-0.0069854
-0.00665793
-0.00637537
-0.00614047
-0.00595508
-0.00582011
-0.0057355
-0.00570018
-0.00571214
-0.00576842
-0.00586526
-0.00599821
-0.00616224
-0.00635191
-0.00656157
-0.00678551
-0.00701813
-0.0072541
-0.00748854
-0.00771705
-0.00793587
-0.0081419
-0.00833275
-0.00850671
-0.00866272
-0.00880038
-0.00891979
-0.00902158
-0.00910674
-0.00917655
-0.00923255
-0.00927635
-0.00930964
-0.00933406
-0.00935111
-0.00936215
-0.00936827
-0.00937028
-0.00936865
-0.0093635
-0.00935453
-0.00934133
-0.00932339
-0.00929685
-0.00925518
0.00082025
0.000787799
0.000755043
0.000718898
0.000677917
0.000632401
0.000582597
0.00052869
0.000470921
0.000409535
0.000344726
0.000276589
0.000205067
0.000129922
5.0701e-05
-3.32742e-05
-0.000122915
-0.000219357
-0.000323944
-0.000438209
-0.000563843
-0.000702666
-0.000856587
-0.00102757
-0.00121759
-0.00142859
-0.00166242
-0.00192083
-0.00220535
-0.00251731
-0.00285773
-0.00322733
-0.00362643
-0.00405496
-0.00451242
-0.00499787
-0.00550992
-0.00604673
-0.00660604
-0.00718518
-0.00778114
-0.00839055
-0.00900976
-0.00963489
-0.0102619
-0.0108865
-0.0115045
-0.0121114
-0.012703
-0.013275
-0.0138232
-0.0143434
-0.014832
-0.0152851
-0.0156993
-0.0160715
-0.0163989
-0.0166789
-0.0169094
-0.0170885
-0.0172149
-0.0172875
-0.0173059
-0.0172698
-0.0171795
-0.017036
-0.0168403
-0.0165943
-0.0163
-0.0159602
-0.015578
-0.0151569
-0.0147009
-0.0142146
-0.0137027
-0.0131705
-0.0126236
-0.0120676
-0.0115087
-0.0109531
-0.0104069
-0.00987629
-0.00936739
-0.00888596
-0.00843743
-0.00802672
-0.00765818
-0.00733539
-0.00706115
-0.00683734
-0.00666486
-0.0065436
-0.00647246
-0.00644934
-0.00647121
-0.00653422
-0.00663383
-0.00676492
-0.00692201
-0.00709942
-0.00729145
-0.00749253
-0.00769744
-0.00790138
-0.00810012
-0.00829007
-0.00846832
-0.00863264
-0.00878152
-0.00891408
-0.00903004
-0.00912965
-0.0092136
-0.00928293
-0.00933894
-0.00938311
-0.00941701
-0.00944219
-0.00946014
-0.00947217
-0.0094794
-0.00948267
-0.00948251
-0.00947908
-0.00947219
-0.0094615
-0.00944657
-0.00942411
-0.00938857
0.00094952
0.000905568
0.000864937
0.000822865
0.000776915
0.000727234
0.000673856
0.000616737
0.000555898
0.000491397
0.00042325
0.000351376
0.000275551
0.000195358
0.00011016
1.90782e-05
-7.9009e-05
-0.000185462
-0.000301864
-0.000429992
-0.000571789
-0.000729324
-0.000904753
-0.00110027
-0.00131805
-0.00156023
-0.00182879
-0.00212557
-0.00245216
-0.00280985
-0.0031996
-0.00362197
-0.00407711
-0.00456471
-0.00508395
-0.00563359
-0.00621187
-0.00681658
-0.0074451
-0.00809436
-0.00876099
-0.00944126
-0.0101312
-0.0108266
-0.011523
-0.0122162
-0.0129013
-0.013574
-0.0142297
-0.014864
-0.0154725
-0.016051
-0.0165956
-0.0171024
-0.0175681
-0.0179893
-0.0183631
-0.0186871
-0.0189588
-0.0191765
-0.0193387
-0.0194443
-0.0194926
-0.0194833
-0.0194165
-0.019293
-0.0191138
-0.0188802
-0.0185943
-0.0182585
-0.0178755
-0.0174486
-0.0169816
-0.0164787
-0.0159443
-0.0153835
-0.0148015
-0.014204
-0.0135969
-0.0129864
-0.0123787
-0.0117801
-0.0111971
-0.0106357
-0.0101019
-0.00960141
-0.0091392
-0.00871981
-0.00834698
-0.00802365
-0.00775181
-0.00753248
-0.00736563
-0.00725018
-0.00718405
-0.00716422
-0.00718681
-0.00724724
-0.00734035
-0.00746064
-0.00760239
-0.0077599
-0.00792765
-0.00810043
-0.00827354
-0.00844285
-0.00860486
-0.00875678
-0.00889653
-0.00902269
-0.00913449
-0.00923172
-0.00931468
-0.00938407
-0.00944092
-0.00948648
-0.00952213
-0.0095493
-0.00956937
-0.00958362
-0.00959313
-0.00959874
-0.00960099
-0.00960011
-0.00959597
-0.00958829
-0.00957671
-0.00955847
-0.00952894
0.00108238
0.00102614
0.000977243
0.00092907
0.000878074
0.000824161
0.000767129
0.000706638
0.000642454
0.000574406
0.0005023
0.000425857
0.000344654
0.000258073
0.000165264
6.51281e-05
-4.36936e-05
-0.000162809
-0.000294056
-0.000439475
-0.00060127
-0.000781767
-0.000983363
-0.00120847
-0.00145947
-0.00173862
-0.00204803
-0.00238957
-0.00276482
-0.003175
-0.00362093
-0.00410298
-0.00462102
-0.00517444
-0.00576212
-0.0063824
-0.00703316
-0.00771178
-0.00841522
-0.00914006
-0.0098825
-0.0106385
-0.0114037
-0.0121735
-0.0129435
-0.0137087
-0.0144645
-0.015206
-0.0159286
-0.0166277
-0.0172988
-0.0179377
-0.0185402
-0.0191025
-0.0196211
-0.0200928
-0.0205145
-0.0208836
-0.0211979
-0.0214555
-0.0216547
-0.0217946
-0.0218742
-0.0218931
-0.0218514
-0.0217498
-0.0215887
-0.0213697
-0.0210943
-0.0207646
-0.0203832
-0.019953
-0.0194775
-0.0189603
-0.0184059
-0.0178186
-0.0172036
-0.0165663
-0.0159123
-0.0152477
-0.0145786
-0.0139114
-0.0132527
-0.0126089
-0.0119864
-0.0113913
-0.0108296
-0.0103064
-0.0098267
-0.00939435
-0.00901259
-0.00868366
-0.00840877
-0.00818807
-0.00802064
-0.0079045
-0.00783669
-0.00781336
-0.00782992
-0.00788123
-0.00796171
-0.00806564
-0.00818728
-0.00832108
-0.00846185
-0.00860489
-0.00874609
-0.00888201
-0.00900991
-0.00912775
-0.00923415
-0.00932837
-0.00941021
-0.00947995
-0.00953825
-0.00958604
-0.00962447