/*--------------------------------*- C++ -*----------------------------------*\
| =========                 |                                                 |
| \\      /  F ield         | OpenFOAM: The Open Source CFD Toolbox           |
|  \\    /   O peration     | Version:  2112                                  |
|   \\  /    A nd           | Website:  www.openfoam.com                      |
|    \\/     M anipulation  |                                                 |
\*---------------------------------------------------------------------------*/
FoamFile
{
    version     2.0;
    format      ascii;
    arch        "LSB;label=32;scalar=64";
    class       surfaceScalarField;
    location    "32";
    object      phi;
}
// * * * * * * * * * * * * * * * * * * * * * * * * * * * * * * * * * * * * * //

dimensions      [0 3 -1 0 0 0 0];

oriented        oriented;

internalField   nonuniform List<scalar> 
33024
(
-3.41012e-09
3.46628e-09
2.29168e-08
-2.6324e-08
7.95205e-08
-5.66073e-08
1.5798e-07
-7.84563e-08
2.49785e-07
-9.18054e-08
3.47737e-07
-9.79539e-08
4.46094e-07
-9.83554e-08
5.40452e-07
-9.43572e-08
6.2755e-07
-8.70992e-08
7.0507e-07
-7.7521e-08
7.71461e-07
-6.63911e-08
8.25793e-07
-5.43309e-08
8.67625e-07
-4.18305e-08
8.96886e-07
-2.92613e-08
9.13773e-07
-1.68867e-08
9.18649e-07
-4.87629e-09
9.1196e-07
6.68872e-09
8.94167e-07
1.77928e-08
8.65682e-07
2.84847e-08
8.26825e-07
3.88569e-08
7.77789e-07
4.9036e-08
7.18619e-07
5.91698e-08
6.49205e-07
6.94145e-08
5.69281e-07
7.99248e-08
4.78435e-07
9.08453e-08
3.76133e-07
1.02303e-07
2.6173e-07
1.14403e-07
1.34506e-07
1.27224e-07
-6.31432e-09
1.4082e-07
-1.61531e-07
1.55217e-07
-3.31947e-07
1.70416e-07
-5.18341e-07
1.86393e-07
-7.21444e-07
2.03103e-07
-9.41922e-07
2.20479e-07
-1.18035e-06
2.38433e-07
-1.43721e-06
2.5686e-07
-1.71285e-06
2.7564e-07
-2.00748e-06
2.94629e-07
-2.32116e-06
3.13672e-07
-2.65375e-06
3.32593e-07
-3.00495e-06
3.51202e-07
-3.37424e-06
3.69291e-07
-3.76088e-06
3.86641e-07
-4.1639e-06
4.03017e-07
-4.58207e-06
4.18173e-07
-5.01393e-06
4.31856e-07
-5.45773e-06
4.43804e-07
-5.91149e-06
4.53755e-07
-6.37293e-06
4.61445e-07
-6.83955e-06
4.66614e-07
-7.30856e-06
4.69011e-07
-7.77695e-06
4.68397e-07
-8.2415e-06
4.64546e-07
-8.69875e-06
4.57254e-07
-9.1451e-06
4.46342e-07
-9.57675e-06
4.31657e-07
-9.98983e-06
4.13079e-07
-1.03804e-05
3.90525e-07
-1.07443e-05
3.6395e-07
-1.10777e-05
3.33353e-07
-1.13764e-05
2.98779e-07
-1.16368e-05
2.60321e-07
-1.18549e-05
2.18125e-07
-1.20273e-05
1.72393e-07
-1.21507e-05
1.23408e-07
-1.22222e-05
7.14901e-08
-1.22392e-05
1.70177e-08
-1.21992e-05
-4.00081e-08
-1.21008e-05
-9.84069e-08
-1.19427e-05
-1.58057e-07
-1.17244e-05
-2.18319e-07
-1.14458e-05
-2.78574e-07
-1.11077e-05
-3.3817e-07
-1.07112e-05
-3.96428e-07
-1.02586e-05
-4.5265e-07
-9.75245e-06
-5.06129e-07
-9.19629e-06
-5.56164e-07
-8.59422e-06
-6.0207e-07
-7.95103e-06
-6.43193e-07
-7.2721e-06
-6.78923e-07
-6.56339e-06
-7.08713e-07
-5.8313e-06
-7.32088e-07
-5.08264e-06
-7.48662e-07
-4.32449e-06
-7.58151e-07
-3.56411e-06
-7.6038e-07
-2.80881e-06
-7.55296e-07
-2.06584e-06
-7.42971e-07
-1.34224e-06
-7.236e-07
-6.4474e-07
-6.97504e-07
2.03964e-08
-6.65136e-07
6.4755e-07
-6.27154e-07
1.23155e-06
-5.84001e-07
1.76812e-06
-5.36569e-07
2.25375e-06
-4.85634e-07
2.68582e-06
-4.32063e-07
3.06254e-06
-3.76726e-07
3.38304e-06
-3.20502e-07
3.64729e-06
-2.64251e-07
3.85609e-06
-2.08792e-07
4.01097e-06
-1.54882e-07
4.11417e-06
-1.03202e-07
4.16851e-06
-5.43428e-08
4.17731e-06
-8.79668e-09
4.14426e-06
3.30531e-08
4.07333e-06
7.09248e-08
3.96868e-06
1.04649e-07
3.83453e-06
1.34157e-07
3.67505e-06
1.59473e-07
3.49434e-06
1.80711e-07
3.29629e-06
1.98056e-07
3.08453e-06
2.11754e-07
2.86243e-06
2.22098e-07
2.63303e-06
2.29408e-07
2.39901e-06
2.34014e-07
2.16278e-06
2.36234e-07
1.92643e-06
2.3635e-07
1.69185e-06
2.34582e-07
1.46079e-06
2.31054e-07
1.23503e-06
2.2576e-07
1.0165e-06
2.18528e-07
8.07528e-07
2.08976e-07
6.11047e-07
1.96481e-07
4.309e-07
1.80147e-07
2.72078e-07
1.58822e-07
1.40857e-07
1.31221e-07
4.45088e-08
9.63479e-08
-1.00549e-08
5.4564e-08
-2.06111e-08
1.05567e-08
-2.06105e-08
2.62497e-08
-2.27797e-08
1.16672e-07
-1.16753e-07
2.64815e-07
-2.04744e-07
4.56632e-07
-2.70276e-07
6.76488e-07
-3.11663e-07
9.09637e-07
-3.31101e-07
1.1433e-06
-3.32017e-07
1.36699e-06
-3.18052e-07
1.57248e-06
-2.92588e-07
1.75356e-06
-2.58597e-07
1.90578e-06
-2.18613e-07
2.02619e-06
-1.74742e-07
2.11304e-06
-1.28681e-07
2.16552e-06
-8.17415e-08
2.18352e-06
-3.48808e-08
2.16738e-06
1.12617e-08
2.11772e-06
5.63447e-08
2.03525e-06
1.0027e-07
1.92059e-06
1.43145e-07
1.7742e-06
1.85244e-07
1.59627e-06
2.26959e-07
1.38669e-06
2.68757e-07
1.14496e-06
3.11138e-07
8.70287e-07
3.54602e-07
5.6152e-07
3.99613e-07
2.17246e-07
4.46577e-07
-1.64175e-07
4.95823e-07
-5.84543e-07
5.47591e-07
-1.04575e-06
6.02024e-07
-1.5497e-06
6.59169e-07
-2.09826e-06
7.18976e-07
-2.69317e-06
7.81306e-07
-3.336e-06
8.45931e-07
-4.02807e-06
9.12546e-07
-4.7704e-06
9.80767e-07
-5.56369e-06
1.05014e-06
-6.4082e-06
1.12015e-06
-7.30377e-06
1.1902e-06
-8.24976e-06
1.25966e-06
-9.24499e-06
1.32782e-06
-1.02877e-05
1.39391e-06
-1.13755e-05
1.45714e-06
-1.25056e-05
1.51666e-06
-1.36741e-05
1.57157e-06
-1.48769e-05
1.62099e-06
-1.6109e-05
1.66397e-06
-1.73648e-05
1.6996e-06
-1.8638e-05
1.72695e-06
-1.99217e-05
1.74513e-06
-2.12084e-05
1.75329e-06
-2.249e-05
1.7506e-06
-2.37579e-05
1.73632e-06
-2.50031e-05
1.70978e-06
-2.62163e-05
1.6704e-06
-2.73876e-05
1.6177e-06
-2.85073e-05
1.55131e-06
-2.95652e-05
1.47101e-06
-3.05514e-05
1.37668e-06
-3.14558e-05
1.26838e-06
-3.22688e-05
1.14631e-06
-3.29808e-05
1.01081e-06
-3.35829e-05
8.62416e-07
-3.40666e-05
7.01815e-07
-3.44241e-05
5.29882e-07
-3.46484e-05
3.47723e-07
-3.47334e-05
1.56545e-07
-3.46742e-05
-4.22155e-08
-3.44663e-05
-2.47893e-07
-3.41072e-05
-4.57572e-07
-3.35953e-05
-6.69915e-07
-3.29306e-05
-8.82967e-07
-3.21146e-05
-1.09465e-06
-3.11499e-05
-1.30282e-06
-3.00411e-05
-1.50524e-06
-2.87941e-05
-1.69967e-06
-2.74164e-05
-1.88382e-06
-2.59171e-05
-2.05549e-06
-2.43066e-05
-2.21251e-06
-2.2597e-05
-2.35282e-06
-2.08014e-05
-2.47453e-06
-1.89342e-05
-2.57593e-06
-1.70107e-05
-2.65555e-06
-1.50472e-05
-2.71219e-06
-1.30604e-05
-2.74496e-06
-1.10675e-05
-2.75331e-06
-9.08569e-06
-2.73706e-06
-7.13224e-06
-2.69642e-06
-5.22386e-06
-2.63198e-06
-3.37664e-06
-2.54472e-06
-1.60576e-06
-2.43601e-06
7.4689e-08
-2.3076e-06
1.65224e-06
-2.16155e-06
3.11575e-06
-2.00008e-06
4.45595e-06
-1.82583e-06
5.66545e-06
-1.64156e-06
6.73881e-06
-1.45009e-06
7.6726e-06
-1.2543e-06
8.4654e-06
-1.05705e-06
9.11771e-06
-8.61102e-07
9.6319e-06
-6.69073e-07
1.00121e-05
-4.83355e-07
1.02638e-05
-3.06084e-07
1.03941e-05
-1.39095e-07
1.0411e-05
1.61013e-08
1.03236e-05
1.5834e-07
1.01415e-05
2.86805e-07
9.8746e-06
4.01023e-07
9.53323e-06
5.0085e-07
9.1275e-06
5.86442e-07
8.66733e-06
6.58224e-07
8.16223e-06
7.16847e-07
7.6212e-06
7.63136e-07
7.05257e-06
7.98037e-07
6.46404e-06
8.22543e-07
5.86264e-06
8.37629e-07
5.25483e-06
8.4416e-07
4.64661e-06
8.42805e-07
4.04373e-06
8.33928e-07
3.45201e-06
8.17489e-07
2.8776e-06
7.92932e-07
2.32749e-06
7.59092e-07
1.80982e-06
7.14142e-07
1.33436e-06
6.5561e-07
9.1261e-07
5.80575e-07
5.57597e-07
4.86234e-07
2.82706e-07
3.71239e-07
9.90658e-08
2.38203e-07
1.09512e-08
9.86707e-08
-9.65888e-09
5.65413e-08
-7.93246e-08
2.04911e-07
-2.65116e-07
4.26842e-07
-4.26677e-07
7.02778e-07
-5.46215e-07
1.01255e-06
-6.21437e-07
1.33706e-06
-6.5561e-07
1.65933e-06
-6.54282e-07
1.96497e-06
-6.23693e-07
2.2423e-06
-5.69922e-07
2.48222e-06
-4.98512e-07
2.67792e-06
-4.14317e-07
2.82463e-06
-3.21448e-07
2.91922e-06
-2.23271e-07
2.95991e-06
-1.22428e-07
2.9459e-06
-2.0873e-08
2.8771e-06
8.00578e-08
2.75383e-06
1.79618e-07
2.57656e-06
2.7754e-07
2.34572e-06
3.7398e-07
2.06155e-06
4.69418e-07
1.72393e-06
5.64579e-07
1.33235e-06
6.60337e-07
8.85847e-07
7.57639e-07
3.83025e-07
8.57425e-07
-1.77929e-07
9.60567e-07
-7.99169e-07
1.06782e-06
-1.48311e-06
1.17976e-06
-2.23233e-06
1.29681e-06
-3.04947e-06
1.41916e-06
-3.93712e-06
1.54682e-06
-4.89771e-06
1.67956e-06
-5.9334e-06
1.817e-06
-7.046e-06
1.95853e-06
-8.23686e-06
2.1034e-06
-9.50677e-06
2.25068e-06
-1.08559e-05
2.39928e-06
-1.22838e-05
2.54799e-06
-1.3789e-05
2.69546e-06
-1.53695e-05
2.84019e-06
-1.70223e-05
2.98062e-06
-1.87435e-05
3.11504e-06
-2.0528e-05
3.24169e-06
-2.23701e-05
3.35874e-06
-2.42628e-05
3.4643e-06
-2.61983e-05
3.55648e-06
-2.81677e-05
3.63337e-06
-3.01612e-05
3.6931e-06
-3.21681e-05
3.73384e-06
-3.41769e-05
3.75388e-06
-3.61752e-05
3.75159e-06
-3.81501e-05
3.72549e-06
-4.0088e-05
3.67427e-06
-4.1975e-05
3.5968e-06
-4.37968e-05
3.49217e-06
-4.55388e-05
3.35971e-06
-4.71865e-05
3.19901e-06
-4.87254e-05
3.00993e-06
-5.01413e-05
2.79259e-06
-5.14204e-05
2.54743e-06
-5.25493e-05
2.2752e-06
-5.35154e-05
1.97694e-06
-5.4307e-05
1.65401e-06
-5.49133e-05
1.30809e-06
-5.53246e-05
9.41181e-07
-5.55325e-05
5.55692e-07
-5.55309e-05
1.54882e-07
-5.53124e-05
-2.60653e-07
-5.48745e-05
-6.85851e-07
-5.42146e-05
-1.11746e-06
-5.33324e-05
-1.55208e-06
-5.22295e-05
-1.9859e-06
-5.09092e-05
-2.41492e-06
-4.93771e-05
-2.83501e-06
-4.76403e-05
-3.24196e-06
-4.57085e-05
-3.63151e-06
-4.35929e-05
-3.99945e-06
-4.13067e-05
-4.34162e-06
-3.88652e-05
-4.65403e-06
-3.62851e-05
-4.93289e-06
-3.3585e-05
-5.1747e-06
-3.07846e-05
-5.37632e-06
-2.79051e-05
-5.53504e-06
-2.49687e-05
-5.64862e-06
-2.19982e-05
-5.71543e-06
-1.90171e-05
-5.7344e-06
-1.6049e-05
-5.70515e-06
-1.31174e-05
-5.62799e-06
-1.02455e-05
-5.50395e-06
-7.45542e-06
-5.33477e-06
-4.76854e-06
-5.12289e-06
-2.2047e-06
-4.87144e-06
2.17896e-07
-4.58415e-06
2.48314e-06
-4.26533e-06
4.57688e-06
-3.91957e-06
6.48757e-06
-3.55225e-06
8.20611e-06
-3.16863e-06
9.72604e-06
-2.77422e-06
1.10436e-05
-2.37458e-06
1.21576e-05
-1.97513e-06
1.30696e-05
-1.58107e-06
1.37835e-05
-1.19725e-06
1.43055e-05
-8.28101e-07
1.46439e-05
-4.77503e-07
1.48088e-05
-1.48763e-07
1.48117e-05
1.55449e-07
1.46653e-05
4.33136e-07
1.43834e-05
6.82953e-07
1.39801e-05
9.0421e-07
1.34697e-05
1.09683e-06
1.28666e-05
1.26128e-06
1.2185e-05
1.39851e-06
1.14382e-05
1.50986e-06
1.06394e-05
1.59693e-06
9.80042e-06
1.66147e-06
8.93282e-06
1.70523e-06
8.04721e-06
1.72977e-06
7.1537e-06
1.73632e-06
6.26209e-06
1.72554e-06
5.3822e-06
1.69737e-06
4.5243e-06
1.65083e-06
3.69952e-06
1.58388e-06
2.92029e-06
1.49337e-06
2.20067e-06
1.37522e-06
1.55644e-06
1.22481e-06
1.00456e-06
1.03811e-06
5.61979e-07
8.13816e-07
2.43238e-07
5.56945e-07
5.66896e-08
2.85219e-07
4.70308e-08
7.87754e-08
-1.58097e-07
2.71729e-07
-4.58071e-07
5.48766e-07
-7.03716e-07
8.83899e-07
-8.81347e-07
1.25291e-06
-9.90449e-07
1.63362e-06
-1.03632e-06
2.00636e-06
-1.02702e-06
2.35426e-06
-9.716e-07
2.66339e-06
-8.7905e-07
2.9226e-06
-7.5772e-07
3.12333e-06
-6.15044e-07
3.25928e-06
-4.57405e-07
3.32611e-06
-2.90093e-07
3.32098e-06
-1.17302e-07
3.24229e-06
5.78214e-08
3.08923e-06
2.33114e-07
2.86154e-06
4.07306e-07
2.55917e-06
5.79911e-07
2.18205e-06
7.51097e-07
1.72991e-06
9.21557e-07
1.20213e-06
1.09236e-06
5.9764e-07
1.26483e-06
-8.50981e-08
1.44038e-06
-8.48092e-07
1.62042e-06
-1.69377e-06
1.80624e-06
-2.62488e-06
1.99893e-06
-3.64441e-06
2.19929e-06
-4.75543e-06
2.40784e-06
-5.96099e-06
2.62472e-06
-7.26392e-06
2.84975e-06
-8.66675e-06
3.08239e-06
-1.01715e-05
3.32177e-06
-1.17797e-05
3.56671e-06
-1.3492e-05
3.81571e-06
-1.53083e-05
4.06702e-06
-1.72277e-05
4.31862e-06
-1.9248e-05
4.56827e-06
-2.1366e-05
4.81349e-06
-2.35775e-05
5.05166e-06
-2.58768e-05
5.27996e-06
-2.82572e-05
5.49544e-06
-3.07106e-05
5.69506e-06
-3.32276e-05
5.87572e-06
-3.57975e-05
6.03428e-06
-3.84087e-05
6.16763e-06
-4.1048e-05
6.2727e-06
-4.37015e-05
6.34657e-06
-4.63541e-05
6.38642e-06
-4.89899e-05
6.38968e-06
-5.15923e-05
6.354e-06
-5.41441e-05
6.27732e-06
-5.66277e-05
6.1579e-06
-5.90253e-05
5.99435e-06
-6.13188e-05
5.7857e-06
-6.34905e-05
5.53135e-06
-6.55226e-05
5.23115e-06
-6.7398e-05
4.88539e-06
-6.91003e-05
4.49483e-06
-7.06135e-05
4.06067e-06
-7.19229e-05
3.58459e-06
-7.30147e-05
3.06873e-06
-7.38764e-05
2.51568e-06
-7.44968e-05
1.92849e-06
-7.48662e-05
1.31063e-06
-7.49762e-05
6.65633e-07
-7.48235e-05
2.2278e-09
-7.43982e-05
-6.8592e-07
-7.37013e-05
-1.38281e-06
-7.27314e-05
-2.08734e-06
-7.14899e-05
-2.79355e-06
-6.99803e-05
-3.49552e-06
-6.82081e-05
-4.1871e-06
-6.61811e-05
-4.86204e-06
-6.39091e-05
-5.51398e-06
-6.1404e-05
-6.13657e-06
-5.868e-05
-6.72349e-06
-5.5753e-05
-7.26857e-06
-5.26412e-05
-7.76588e-06
-4.93643e-05
-8.20981e-06
-4.59438e-05
-8.59515e-06
-4.24029e-05
-8.91724e-06
-3.87659e-05
-9.172e-06
-3.50584e-05
-9.3561e-06
-3.13069e-05
-9.46701e-06
-2.75382e-05
-9.50305e-06
-2.37798e-05
-9.46356e-06
-2.0059e-05
-9.34883e-06
-1.64027e-05
-9.16023e-06
-1.28373e-05
-8.90018e-06
-9.38802e-06
-8.57215e-06
-6.07883e-06
-8.18063e-06
-2.93194e-06
-7.73104e-06
3.23963e-08
-7.22967e-06
2.79653e-06
-6.6837e-06
5.34485e-06
-6.10057e-06
7.66479e-06
-5.48857e-06
9.7467e-06
-4.85612e-06
1.15839e-05
-4.21176e-06
1.31727e-05
-3.56397e-06
1.45126e-05
-2.92099e-06
1.5606e-05
-2.29063e-06
1.6458e-05
-1.68013e-06
1.70765e-05
-1.09599e-06
1.74716e-05
-5.43893e-07
1.76557e-05
-2.85697e-08
1.76426e-05
4.46246e-07
1.74477e-05
8.77815e-07
1.70875e-05
1.26443e-06
1.6579e-05
1.60535e-06
1.59395e-05
1.90072e-06
1.51865e-05
2.15152e-06
1.4337e-05
2.35936e-06
1.34076e-05
2.52634e-06
1.24142e-05
2.65485e-06
1.13721e-05
2.74736e-06
1.02957e-05
2.80611e-06
9.19914e-06
2.8329e-06
8.09596e-06
2.82872e-06
6.9998e-06
2.79354e-06
5.92462e-06
2.72601e-06
4.8852e-06
2.6233e-06
3.89746e-06
2.48112e-06
2.97878e-06
2.2939e-06
2.14801e-06
2.05558e-06
1.42515e-06
1.76098e-06
8.30509e-07
1.40845e-06
3.83491e-07
1.00396e-06
1.01312e-07
5.67397e-07
1.48343e-07
9.29728e-08
-2.51071e-07
3.15627e-07
-6.80727e-07
6.28367e-07
-1.01645e-06
9.99174e-07
-1.25215e-06
1.40008e-06
-1.39136e-06
1.8064e-06
-1.44264e-06
2.19657e-06
-1.41718e-06
2.5521e-06
-1.32713e-06
2.85758e-06
-1.18453e-06
3.10051e-06
-1.00065e-06
3.27105e-06
-7.85587e-07
3.36176e-06
-5.48114e-07
3.36721e-06
-2.95537e-07
3.28361e-06
-3.37052e-08
3.10847e-06
2.32966e-07
2.84018e-06
5.01406e-07
2.4777e-06
7.69778e-07
2.02028e-06
1.03733e-06
1.46715e-06
1.30423e-06
8.17363e-07
1.57135e-06
6.96191e-08
1.84011e-06
-7.77795e-07
2.11224e-06
-1.72705e-06
2.38963e-06
-2.78073e-06
2.67411e-06
-3.94181e-06
2.96732e-06
-5.21349e-06
3.2706e-06
-6.59908e-06
3.58488e-06
-8.10185e-06
3.91061e-06
-9.72487e-06
4.24774e-06
-1.14708e-05
4.59567e-06
-1.33417e-05
4.95333e-06
-1.53391e-05
5.31911e-06
-1.74633e-05
5.69093e-06
-1.97139e-05
6.06629e-06
-2.20891e-05
6.44229e-06
-2.45861e-05
6.81563e-06
-2.72006e-05
7.18272e-06
-2.99268e-05
7.53967e-06
-3.27575e-05
7.88235e-06
-3.56839e-05
8.20644e-06
-3.8696e-05
8.50749e-06
-4.17819e-05
8.78094e-06
-4.49284e-05
9.02224e-06
-4.8121e-05
9.22687e-06
-5.13438e-05
9.39043e-06
-5.45797e-05
9.50869e-06
-5.78109e-05
9.57769e-06
-6.10182e-05
9.59376e-06
-6.41821e-05
9.55362e-06
-6.72826e-05
9.45442e-06
-7.0299e-05
9.29378e-06
-7.3211e-05
9.06987e-06
-7.5998e-05
8.78139e-06
-7.864e-05
8.42764e-06
-8.11171e-05
8.00851e-06
-8.34105e-05
7.52452e-06
-8.55019e-05
6.97681e-06
-8.73742e-05
6.36712e-06
-8.90114e-05
5.69783e-06
-9.03987e-05
4.9719e-06
-9.15229e-05
4.19289e-06
-9.23721e-05
3.36492e-06
-9.29363e-05
2.49268e-06
-9.3207e-05
1.58136e-06
-9.31782e-05
6.36843e-07
-9.28418e-05
-3.34252e-07
-9.22001e-05
-1.3276e-06
-9.1249e-05
-2.33384e-06
-8.99902e-05
-3.34615e-06
-8.84268e-05
-4.35696e-06
-8.6564e-05
-5.3583e-06
-8.44092e-05
-6.34198e-06
-8.19715e-05
-7.29966e-06
-7.92626e-05
-8.2229e-06
-7.62959e-05
-9.10329e-06
-7.30869e-05
-9.93248e-06
-6.96532e-05
-1.07023e-05
-6.60141e-05
-1.1405e-05
-6.21909e-05
-1.2033e-05
-5.82065e-05
-1.25795e-05
-5.40855e-05
-1.30383e-05
-4.98537e-05
-1.34038e-05
-4.55383e-05
-1.36715e-05
-4.11674e-05
-1.38379e-05
-3.67698e-05
-1.39006e-05
-3.23749e-05
-1.38585e-05
-2.8012e-05
-1.37117e-05
-2.37106e-05
-1.34617e-05
-1.94993e-05
-1.31114e-05
-1.54063e-05
-1.26652e-05
-1.14581e-05
-1.21288e-05
-7.68019e-06
-1.1509e-05
-4.09576e-06
-1.08141e-05
-7.26103e-07
-1.00534e-05
2.41023e-06
-9.2369e-06
5.29728e-06
-8.37562e-06
7.92208e-06
-7.48092e-06
1.02748e-05
-6.56447e-06
1.23488e-05
-5.63799e-06
1.41408e-05
-4.71298e-06
1.56507e-05
-3.80051e-06
1.68816e-05
-2.91101e-06
1.78396e-05
-2.05399e-06
1.85336e-05
-1.23796e-06
1.89753e-05
-4.70212e-07
1.91783e-05
2.43259e-07
1.91583e-05
8.97827e-07
1.89324e-05
1.49024e-06
1.85192e-05
2.0186e-06
1.79376e-05
2.4823e-06
1.72073e-05
2.88189e-06
1.63477e-05
3.2189e-06
1.53784e-05
3.49563e-06
1.43184e-05
3.71487e-06
1.31862e-05
3.87959e-06
1.19997e-05
3.99262e-06
1.07763e-05
4.05623e-06
9.53332e-06
4.07174e-06
8.28768e-06
4.03918e-06
7.05673e-06
3.95695e-06
5.85844e-06
3.8216e-06
4.71172e-06
3.62784e-06
3.63674e-06
3.36888e-06
2.65507e-06
3.03726e-06
1.78959e-06
2.62645e-06
1.06448e-06
2.13357e-06
5.0513e-07
1.56331e-06
1.3906e-07
9.33467e-07
2.87403e-07
1.00395e-07
-3.51468e-07
3.38515e-07
-9.18846e-07
6.68121e-07
-1.34606e-06
1.05231e-06
-1.63634e-06
1.45992e-06
-1.79897e-06
1.8642e-06
-1.84692e-06
2.24215e-06
-1.79513e-06
2.57423e-06
-1.65921e-06
2.84408e-06
-1.45438e-06
3.03832e-06
-1.19488e-06
3.14624e-06
-8.93513e-07
3.15954e-06
-5.6141e-07
3.07191e-06
-2.07909e-07
2.87871e-06
1.59493e-07
2.57658e-06
5.351e-07
2.16306e-06
9.14929e-07
1.63627e-06
1.29657e-06
9.94611e-07
1.67899e-06
2.36517e-07
2.06232e-06
-6.39755e-07
2.44762e-06
-1.63625e-06
2.8366e-06
-2.75536e-06
3.23136e-06
-3.9999e-06
3.63417e-06
-5.37298e-06
4.04719e-06
-6.87796e-06
4.4723e-06
-8.51829e-06
4.91093e-06
-1.02974e-05
5.36394e-06
-1.22183e-05
5.83153e-06
-1.42837e-05
6.31318e-06
-1.64957e-05
6.80766e-06
-1.88554e-05
7.31301e-06
-2.13629e-05
7.82661e-06
-2.40171e-05
8.34518e-06
-2.68157e-05
8.86485e-06
-2.97547e-05
9.38125e-06
-3.28285e-05
9.88949e-06
-3.60301e-05
1.03843e-05
-3.93506e-05
1.08601e-05
-4.27793e-05
1.13111e-05
-4.63039e-05
1.17311e-05
-4.99104e-05
1.2114e-05
-5.35833e-05
1.24538e-05
-5.73054e-05
1.27443e-05
-6.10583e-05
1.29797e-05
-6.48223e-05
1.31544e-05
-6.85767e-05
1.32632e-05
-7.23002e-05
1.33012e-05
-7.59707e-05
1.32642e-05
-7.95658e-05
1.31487e-05
-8.30629e-05
1.29515e-05
-8.64396e-05
1.26705e-05
-8.96738e-05
1.23041e-05
-9.2744e-05
1.18515e-05
-9.56291e-05
1.13128e-05
-9.83093e-05
1.06887e-05
-0.000100766
9.98085e-06
-0.00010298
9.19157e-06
-0.000104937
8.32395e-06
-0.000106621
7.38179e-06
-0.000108019
6.36959e-06
-0.000109118
5.2925e-06
-0.00010991
4.15631e-06
-0.000110385
2.9674e-06
-0.000110536
1.73277e-06
-0.000110359
4.60129e-07
-0.00010985
-8.43143e-07
-0.000109009
-2.1685e-06
-0.000107837
-3.50673e-06
-0.000106334
-4.84865e-06
-0.000104506
-6.1847e-06
-0.00010236
-7.50502e-06
-9.99021e-05
-8.7995e-06
-9.71439e-05
-1.00579e-05
-9.4097e-05
-1.12698e-05
-9.07755e-05
-1.24248e-05
-8.71951e-05
-1.35128e-05
-8.33737e-05
-1.45237e-05
-7.9331e-05
-1.54478e-05
-7.50882e-05
-1.62758e-05
-7.06686e-05
-1.69992e-05
-6.60968e-05
-1.761e-05
-6.13991e-05
-1.81015e-05
-5.6603e-05
-1.84676e-05
-5.17372e-05
-1.87037e-05
-4.68313e-05
-1.88066e-05
-4.19154e-05
-1.87744e-05
-3.70202e-05
-1.86069e-05
-3.21764e-05
-1.83055e-05
-2.74145e-05
-1.78734e-05
-2.27643e-05
-1.73154e-05
-1.82547e-05
-1.66383e-05
-1.39134e-05
-1.58503e-05
-9.76641e-06
-1.49611e-05
-5.83765e-06
-1.39821e-05
-2.1488e-06
-1.29258e-05
1.2811e-06
-1.18055e-05
4.43588e-06
-1.06357e-05
7.30247e-06
-9.43106e-06
9.87106e-06
-8.20657e-06
1.21352e-05
-6.97711e-06
1.40918e-05
-5.75717e-06
1.57414e-05
-4.56054e-06
1.70875e-05
-3.40009e-06
1.8137e-05
-2.28746e-06
1.88997e-05
-1.23292e-06
1.93881e-05
-2.45152e-07
1.96171e-05
6.68842e-07
1.96035e-05
1.50378e-06
1.9366e-05
2.25611e-06
1.89244e-05
2.92397e-06
1.82992e-05
3.507e-06
1.75119e-05
4.00621e-06
1.65839e-05
4.4237e-06
1.55364e-05
4.7623e-06
1.43908e-05
5.02524e-06
1.31677e-05
5.21565e-06
1.18878e-05
5.33617e-06
1.05712e-05
5.38838e-06
9.23796e-06
5.37238e-06
7.90854e-06
5.28637e-06
6.60372e-06
5.12642e-06
5.34512e-06
4.88643e-06
4.15552e-06
4.55848e-06
3.05913e-06
4.13365e-06
2.08194e-06
3.60364e-06
1.2523e-06
2.96321e-06
6.0199e-07
2.21362e-06
1.68372e-07
1.36708e-06
4.55776e-07
1.023e-07
-4.53766e-07
3.43082e-07
-1.15963e-06
6.71987e-07
-1.67496e-06
1.04865e-06
-2.01301e-06
1.43948e-06
-2.1898e-06
1.81614e-06
-2.22358e-06
2.15466e-06
-2.13366e-06
2.43481e-06
-1.93935e-06
2.63968e-06
-1.65925e-06
2.75535e-06
-1.31056e-06
2.77058e-06
-9.08745e-07
2.67643e-06
-4.67258e-07
2.46591e-06
2.6148e-09
2.13361e-06
4.91788e-07
1.67537e-06
9.93342e-07
1.08788e-06
1.50242e-06
3.68392e-07
2.01606e-06
-4.8557e-07
2.53295e-06
-1.47644e-06
3.05319e-06
-2.60679e-06
3.57797e-06
-3.87942e-06
4.10923e-06
-5.29742e-06
4.64936e-06
-6.86412e-06
5.20087e-06
-8.58305e-06
5.76612e-06
-1.04578e-05
6.34702e-06
-1.24917e-05
6.94489e-06
-1.46881e-05
7.56026e-06
-1.70493e-05
8.19279e-06
-1.95774e-05
8.84121e-06
-2.2273e-05
9.5033e-06
-2.51359e-05
1.01759e-05
-2.81644e-05
1.08551e-05
-3.13552e-05
1.15359e-05
-3.47033e-05
1.2213e-05
-3.8202e-05
1.28799e-05
-4.18426e-05
1.35301e-05
-4.56147e-05
1.41564e-05
-4.95057e-05
1.47511e-05
-5.35013e-05
1.53067e-05
-5.75854e-05
1.58151e-05
-6.17401e-05
1.62687e-05
-6.59459e-05
1.66597e-05
-7.01823e-05
1.69807e-05
-7.44271e-05
1.72246e-05
-7.86576e-05
1.73849e-05
-8.28503e-05
1.74559e-05
-8.69812e-05
1.74321e-05
-9.10263e-05
1.73093e-05
-9.49614e-05
1.70838e-05
-9.8763e-05
1.67531e-05
-0.000102408
1.63154e-05
-0.000105874
1.577e-05
-0.000109139
1.51171e-05
-0.000112185
1.43578e-05
-0.00011499
1.34942e-05
-0.000117538
1.25292e-05
-0.000119813
1.14667e-05
-0.000121801
1.03112e-05
-0.000123487
9.06806e-06
-0.000124861
7.74347e-06
-0.000125913
6.34417e-06
-0.000126634
4.87757e-06
-0.000127018
3.35167e-06
-0.00012706
1.77504e-06
-0.000126758
1.5733e-07
-0.000126107
-1.49336e-06
-0.00012511
-3.16568e-06
-0.000123767
-4.84945e-06
-0.000122082
-6.53378e-06
-0.00012006
-8.20744e-06
-0.000117706
-9.85887e-06
-0.000115029
-1.14762e-05
-0.000112039
-1.30476e-05
-0.000108748
-1.45607e-05
-0.00010517
-1.60036e-05
-0.000101318
-1.7364e-05
-9.72118e-05
-1.86303e-05
-9.28688e-05
-1.97908e-05
-8.83101e-05
-2.08345e-05
-8.35581e-05
-2.17511e-05
-7.8637e-05
-2.25311e-05
-7.35726e-05
-2.31659e-05
-6.83921e-05
-2.3648e-05
-6.31241e-05
-2.39717e-05
-5.77983e-05
-2.41324e-05
-5.24452e-05
-2.41274e-05
-4.70962e-05
-2.39559e-05
-4.17829e-05
-2.36188e-05
-3.65369e-05
-2.31194e-05
-3.13896e-05
-2.24627e-05
-2.63718e-05
-2.16561e-05
-2.15132e-05
-2.07089e-05
-1.68421e-05
-1.96322e-05
-1.23851e-05
-1.84391e-05
-8.16664e-06
-1.71442e-05
-4.20879e-06
-1.57634e-05
-5.30817e-07
-1.43137e-05
2.851e-06
-1.28129e-05
5.92358e-06
-1.12792e-05
8.67723e-06
-9.73076e-06
1.11057e-05
-8.18568e-06
1.32064e-05
-6.66123e-06
1.49801e-05
-5.17376e-06
1.6431e-05
-3.73836e-06
1.75666e-05
-2.36853e-06
1.83975e-05
-1.07602e-06
1.8937e-05
1.29357e-07
1.92008e-05
1.23991e-06
1.92071e-05
2.24989e-06
1.89753e-05
3.15571e-06
1.85267e-05
3.95565e-06
1.78832e-05
4.64971e-06
1.70675e-05
5.23932e-06
1.61029e-05
5.72696e-06
1.50124e-05
6.11576e-06
1.38191e-05
6.40889e-06
1.25462e-05
6.60913e-06
1.12164e-05
6.71818e-06
9.8526e-06
6.73615e-06
8.47787e-06
6.66109e-06
7.11564e-06
6.48865e-06
5.79008e-06
6.21199e-06
4.52651e-06
5.82205e-06
3.35186e-06
5.30831e-06
2.29534e-06
4.66016e-06
1.38955e-06
3.86899e-06
6.72251e-07
2.93092e-06
1.89176e-07
1.85016e-06
6.44952e-07
9.96998e-08
-5.53464e-07
3.31851e-07
-1.39178e-06
6.43967e-07
-1.98708e-06
9.93604e-07
-2.36264e-06
1.34565e-06
-2.54184e-06
1.6708e-06
-2.54874e-06
1.94453e-06
-2.40738e-06
2.14627e-06
-2.14109e-06
2.25889e-06
-1.77187e-06
2.26825e-06
-1.31992e-06
2.16278e-06
-8.03272e-07
1.9331e-06
-2.37582e-07
1.5717e-06
3.6402e-07
1.07252e-06
9.90971e-07
4.30636e-07
1.63522e-06
-3.58058e-07
2.29111e-06
-1.29718e-06
2.95517e-06
-2.39007e-06
3.62584e-06
-3.64003e-06
4.30315e-06
-5.05044e-06
4.98837e-06
-6.62481e-06
5.6836e-06
-8.36681e-06
6.39136e-06
-1.02802e-05
7.11426e-06
-1.23687e-05
7.85461e-06
-1.46358e-05
8.61415e-06
-1.70847e-05
9.39376e-06
-1.97178e-05
1.01933e-05
-2.25367e-05
1.10117e-05
-2.55419e-05
1.18464e-05
-2.87326e-05
1.2694e-05
-3.21063e-05
1.35497e-05
-3.5659e-05
1.44077e-05
-3.93845e-05
1.52615e-05
-4.32749e-05
1.61034e-05
-4.73201e-05
1.69251e-05
-5.15079e-05
1.77179e-05
-5.58241e-05
1.84725e-05
-6.02523e-05
1.91794e-05
-6.47745e-05
1.98288e-05
-6.93706e-05
2.04113e-05
-7.40193e-05
2.09174e-05
-7.86976e-05
2.13381e-05
-8.33819e-05
2.16649e-05
-8.80473e-05
2.189e-05
-9.26688e-05
2.20064e-05
-9.7221e-05
2.2008e-05
-0.000101679
2.18897e-05
-0.000106017
2.16473e-05
-0.000110211
2.1278e-05
-0.000114238
2.07799e-05
-0.000118075
2.01524e-05
-0.000121701
1.93959e-05
-0.000125095
1.85119e-05
-0.00012824
1.7503e-05
-0.000131119
1.63727e-05
-0.000133715
1.51256e-05
-0.000136016
1.3767e-05
-0.000138008
1.2303e-05
-0.00013968
1.07406e-05
-0.000141024
9.08743e-06
-0.000142032
7.35164e-06
-0.000142696
5.54213e-06
-0.000143013
3.66831e-06
-0.000142978
1.74014e-06
-0.000142589
-2.31543e-07
-0.000141846
-2.23698e-06
-0.000140748
-4.26367e-06
-0.000139297
-6.30007e-06
-0.000137497
-8.33394e-06
-0.000135352
-1.03526e-05
-0.000132867
-1.23431e-05
-0.000130051
-1.42922e-05
-0.000126913
-1.61861e-05
-0.000123462
-1.80113e-05
-0.000119712
-1.9754e-05
-0.000115676
-2.14002e-05
-0.000111369
-2.29365e-05
-0.000106811
-2.43494e-05
-0.000102019
-2.56262e-05
-9.70157e-05
-2.67545e-05
-9.18236e-05
-2.77231e-05
-8.64678e-05
-2.85216e-05
-8.09748e-05
-2.91411e-05
-7.53727e-05
-2.95739e-05
-6.96909e-05
-2.98142e-05
-6.39602e-05
-2.98581e-05
-5.82122e-05
-2.97038e-05
-5.24794e-05
-2.93517e-05
-4.67944e-05
-2.88044e-05
-4.119e-05
-2.80671e-05
-3.56986e-05
-2.71475e-05
-3.0352e-05
-2.60555e-05
-2.51807e-05
-2.48035e-05
-2.02138e-05
-2.3406e-05
-1.54786e-05
-2.18794e-05
-1.1e-05
-2.0242e-05
-6.8003e-06
-1.85134e-05
-2.89905e-06
-1.67141e-05
6.8745e-07
-1.48657e-05
3.94623e-06
-1.29895e-05
6.86782e-06
-1.11073e-05
9.44636e-06
-9.23977e-06
1.16796e-05
-7.40704e-06
1.3569e-05
-5.62774e-06
1.51194e-05
-3.91889e-06
1.63389e-05
-2.29557e-06
1.7239e-05
-7.70713e-07
1.78338e-05
6.45086e-07
1.81401e-05
1.94361e-06
1.81768e-05
3.11901e-06
1.79647e-05
4.16775e-06
1.75261e-05
5.08836e-06
1.68842e-05
5.88115e-06
1.60633e-05
6.54785e-06
1.50881e-05
7.09104e-06
1.39833e-05
7.51366e-06
1.27741e-05
7.81832e-06
1.14856e-05
8.00667e-06
1.0143e-05
8.07872e-06
8.77184e-06
8.03229e-06
7.39788e-06
7.86261e-06
6.0478e-06
7.56207e-06
4.74941e-06
7.12043e-06
3.53238e-06
6.52534e-06
2.42911e-06
5.76343e-06
1.47617e-06
4.82193e-06
7.16403e-07
3.69069e-06
2.01976e-07
2.36459e-06
8.46928e-07
9.33128e-08
-6.46778e-07
3.06821e-07
-1.60529e-06
5.87436e-07
-2.2677e-06
8.91908e-07
-2.66712e-06
1.18453e-06
-2.83446e-06
1.4357e-06
-2.79991e-06
1.62081e-06
-2.59249e-06
1.71936e-06
-2.23964e-06
1.71428e-06
-1.7668e-06
1.59143e-06
-1.19707e-06
1.33912e-06
-5.50958e-07
9.47713e-07
1.53822e-07
4.09277e-07
9.02458e-07
-2.82798e-07
1.68305e-06
-1.13411e-06
2.48653e-06
-2.14953e-06
3.30653e-06
-3.33349e-06
4.13913e-06
-4.69017e-06
4.98253e-06
-6.22369e-06
5.83667e-06
-7.93812e-06
6.70281e-06
-9.8376e-06
7.58308e-06
-1.19262e-05
8.47998e-06
-1.4208e-05
9.39599e-06
-1.66864e-05
1.03331e-05
-1.93648e-05
1.12925e-05
-2.22456e-05
1.22745e-05
-2.533e-05
1.32778e-05
-2.86183e-05
1.43e-05
-3.21091e-05
1.53372e-05
-3.57992e-05
1.63842e-05
-3.96838e-05
1.74342e-05
-4.37557e-05
1.84796e-05
-4.80057e-05
1.95114e-05
-5.24221e-05
2.05199e-05
-5.69914e-05
2.14944e-05
-6.16975e-05
2.2424e-05
-6.65223e-05
2.32974e-05
-7.14458e-05
2.41029e-05
-7.64463e-05
2.48292e-05
-8.15003e-05
2.54653e-05
-8.65833e-05
2.60004e-05
-9.16699e-05
2.64246e-05
-9.67339e-05
2.67289e-05
-0.000101749
2.6905e-05
-0.000106689
2.69461e-05
-0.000111527
2.68463e-05
-0.000116238
2.66012e-05
-0.000120798
2.62075e-05
-0.000125184
2.56634e-05
-0.000129372
2.49683e-05
-0.000133343
2.41231e-05
-0.000137076
2.31295e-05
-0.000140555
2.19907e-05
-0.000143763
2.07109e-05
-0.000146686
1.92951e-05
-0.000149309
1.77495e-05
-0.000151623
1.60807e-05
-0.000153617
1.42965e-05
-0.000155281
1.24051e-05
-0.000156609
1.04155e-05
-0.000157594
8.33699e-06
-0.000158232
6.1797e-06
-0.000158518
3.95414e-06
-0.000158449
1.67136e-06
-0.000158024
-6.57076e-07
-0.000157241
-3.01965e-06
-0.000156101
-5.40344e-06
-0.000154606
-7.79567e-06
-0.000152757
-1.0183e-05
-0.000150558
-1.25516e-05
-0.000148014
-1.48872e-05
-0.00014513
-1.71753e-05
-0.000141916
-1.94008e-05
-0.000138378
-2.15487e-05
-0.000134529
-2.36035e-05
-0.000130379
-2.55497e-05
-0.000125944
-2.73719e-05
-0.000121238
-2.9055e-05
-0.00011628
-3.05841e-05
-0.00011109
-3.19452e-05
-0.000105688
-3.31248e-05
-0.000100099
-3.41107e-05
-9.43482e-05
-3.48919e-05
-8.84629e-05
-3.54591e-05
-8.24724e-05
-3.58047e-05
-7.64073e-05
-3.59232e-05
-7.02996e-05
-3.58116e-05
-6.41822e-05
-3.54691e-05
-5.80889e-05
-3.48977e-05
-5.20538e-05
-3.41022e-05
-4.6111e-05
-3.30902e-05
-4.02943e-05
-3.18722e-05
-3.46366e-05
-3.04612e-05
-2.91695e-05
-2.88731e-05
-2.3923e-05
-2.71259e-05
-1.8925e-05
-2.524e-05
-1.42011e-05
-2.32373e-05
-9.77387e-06
-2.11414e-05
-5.66295e-06
-1.89766e-05
-1.8846e-06
-1.67679e-05
1.54846e-06
-1.45403e-05
4.62717e-06
-1.23185e-05
7.34621e-06
-1.01261e-05
9.704e-06
-7.98554e-06
1.17027e-05
-5.91756e-06
1.33479e-05
-3.94083e-06
1.46489e-05
-2.07166e-06
1.56178e-05
-3.23863e-07
1.627e-05
1.29148e-06
1.66231e-05
2.7659e-06
1.66972e-05
4.09361e-06
1.65143e-05
5.27123e-06
1.6098e-05
6.29755e-06
1.54728e-05
7.17305e-06
1.46643e-05
7.89945e-06
1.3699e-05
8.47905e-06
1.26033e-05
8.91401e-06
1.14043e-05
9.20568e-06
1.01292e-05
9.35378e-06
8.80568e-06
9.35581e-06
7.46184e-06
9.20645e-06
6.12663e-06
8.89728e-06
4.83033e-06
8.41673e-06
3.60522e-06
7.75045e-06
2.48669e-06
6.88196e-06
1.51474e-06
5.79388e-06
7.36166e-07
4.46927e-06
2.07507e-07
2.89324e-06
1.05444e-06
8.36047e-08
-7.30384e-07
2.69424e-07
-1.79111e-06
5.0498e-07
-2.50325e-06
7.47347e-07
-2.90948e-06
9.61141e-07
-3.04826e-06
1.11716e-06
-2.95593e-06
1.19124e-06
-2.66658e-06
1.16333e-06
-2.21173e-06
1.01672e-06
-1.62019e-06
7.37488e-07
-9.17838e-07
3.14008e-07
-1.27477e-07
-2.63481e-07
7.31312e-07
-1.00323e-06
1.64221e-06
-1.91232e-06
2.59213e-06
-2.99695e-06
3.57115e-06
-4.26269e-06
4.57228e-06
-5.71473e-06
5.59117e-06
-7.358e-06
6.6258e-06