/*--------------------------------*- C++ -*----------------------------------*\
| =========                 |                                                 |
| \\      /  F ield         | OpenFOAM: The Open Source CFD Toolbox           |
|  \\    /   O peration     | Version:  2112                                  |
|   \\  /    A nd           | Website:  www.openfoam.com                      |
|    \\/     M anipulation  |                                                 |
\*---------------------------------------------------------------------------*/
FoamFile
{
    version     2.0;
    format      ascii;
    arch        "LSB;label=32;scalar=64";
    class       volVectorField;
    location    "32";
    object      U;
}
// * * * * * * * * * * * * * * * * * * * * * * * * * * * * * * * * * * * * * //

dimensions      [0 1 -1 0 0 0 0];

internalField   nonuniform List<vector> 
16641
(
(-7.47723e-06 7.46644e-06 0)
(3.25799e-06 -6.52294e-06 0)
(5.92201e-05 -2.20967e-05 0)
(0.0001486 -3.29969e-05 0)
(0.000260381 -3.9376e-05 0)
(0.0003845 -4.22e-05 0)
(0.00051254 -4.23816e-05 0)
(0.000637949 -4.06729e-05 0)
(0.000755819 -3.76525e-05 0)
(0.000862593 -3.37621e-05 0)
(0.000955815 -2.93431e-05 0)
(0.00103392 -2.46605e-05 0)
(0.00109606 -1.99163e-05 0)
(0.00114194 -1.52586e-05 0)
(0.00117166 -1.07882e-05 0)
(0.00118562 -6.5656e-06 0)
(0.00118435 -2.6155e-06 0)
(0.00116845 1.06867e-06 0)
(0.00113852 4.51568e-06 0)
(0.00109503 7.77327e-06 0)
(0.00103832 1.09027e-05 0)
(0.000968556 1.39732e-05 0)
(0.000885685 1.7057e-05 0)
(0.000789468 2.02248e-05 0)
(0.000679465 2.35427e-05 0)
(0.000555059 2.70691e-05 0)
(0.000415483 3.08533e-05 0)
(0.000259849 3.4934e-05 0)
(8.71852e-05 3.934e-05 0)
(-0.000103534 4.40894e-05 0)
(-0.000313349 4.91909e-05 0)
(-0.000543286 5.46444e-05 0)
(-0.000794328 6.04413e-05 0)
(-0.00106738 6.65663e-05 0)
(-0.00136325 7.29971e-05 0)
(-0.00168263 7.97049e-05 0)
(-0.00202606 8.66549e-05 0)
(-0.00239389 9.38051e-05 0)
(-0.00278631 0.000101107 0)
(-0.00320327 0.000108505 0)
(-0.0036445 0.000115936 0)
(-0.00410947 0.00012333 0)
(-0.00459737 0.00013061 0)
(-0.0051071 0.000137691 0)
(-0.00563724 0.000144482 0)
(-0.00618606 0.000150886 0)
(-0.00675148 0.000156798 0)
(-0.00733111 0.000162112 0)
(-0.00792219 0.000166716 0)
(-0.00852163 0.000170498 0)
(-0.00912602 0.000173345 0)
(-0.00973162 0.000175143 0)
(-0.0103344 0.000175783 0)
(-0.01093 0.000175159 0)
(-0.011514 0.000173174 0)
(-0.0120814 0.000169736 0)
(-0.0126274 0.000164767 0)
(-0.0131469 0.000158201 0)
(-0.0136347 0.000149984 0)
(-0.0140856 0.000140082 0)
(-0.0144944 0.000128479 0)
(-0.0148561 0.000115179 0)
(-0.0151657 0.000100206 0)
(-0.0154185 8.3615e-05 0)
(-0.0156101 6.55001e-05 0)
(-0.0157365 4.59805e-05 0)
(-0.0157942 2.51419e-05 0)
(-0.0157799 3.21904e-06 0)
(-0.0156909 -1.97335e-05 0)
(-0.0155256 -4.34374e-05 0)
(-0.0152829 -6.76338e-05 0)
(-0.0149622 -9.20605e-05 0)
(-0.014564 -0.000116434 0)
(-0.0140897 -0.000140453 0)
(-0.0135413 -0.000163802 0)
(-0.0129219 -0.000186157 0)
(-0.0122356 -0.000207193 0)
(-0.0114873 -0.00022659 0)
(-0.0106826 -0.000244038 0)
(-0.00982821 -0.000259249 0)
(-0.00893143 -0.00027196 0)
(-0.00800025 -0.000281945 0)
(-0.00704321 -0.000289018 0)
(-0.0060693 -0.000293042 0)
(-0.0050878 -0.000293934 0)
(-0.00410815 -0.00029167 0)
(-0.00313975 -0.000286283 0)
(-0.00219187 -0.000277872 0)
(-0.00127341 -0.000266589 0)
(-0.000392701 -0.000252658 0)
(0.000442383 -0.000236416 0)
(0.00122485 -0.000218017 0)
(0.00194877 -0.000197918 0)
(0.00260903 -0.00017648 0)
(0.00320164 -0.000154097 0)
(0.00372377 -0.000131165 0)
(0.0041737 -0.000108075 0)
(0.00455085 -8.5205e-05 0)
(0.00485572 -6.29058e-05 0)
(0.00508984 -4.14939e-05 0)
(0.00525567 -2.12448e-05 0)
(0.00535649 -2.38814e-06 0)
(0.00539628 1.48955e-05 0)
(0.00537959 3.04747e-05 0)
(0.0053114 4.427e-05 0)
(0.00519698 5.62484e-05 0)
(0.00504175 6.64208e-05 0)
(0.00485117 7.48382e-05 0)
(0.00463059 8.1586e-05 0)
(0.00438517 8.67786e-05 0)
(0.00411979 9.05526e-05 0)
(0.00383899 9.30606e-05 0)
(0.00354688 9.44636e-05 0)
(0.00324716 9.49239e-05 0)
(0.00294313 9.45958e-05 0)
(0.00263765 9.36161e-05 0)
(0.00233329 9.20919e-05 0)
(0.00203235 9.00872e-05 0)
(0.00173708 8.76048e-05 0)
(0.00144981 8.45665e-05 0)
(0.00117324 8.07879e-05 0)
(0.000910694 7.59494e-05 0)
(0.000666499 6.95642e-05 0)
(0.000446327 6.0953e-05 0)
(0.000257518 4.92695e-05 0)
(0.000108989 3.37069e-05 0)
(1.01801e-05 1.41483e-05 0)
(-3.11449e-05 -6.95252e-06 0)
(-1.83274e-05 -1.83758e-05 0)
(6.42555e-06 -3.17519e-06 0)
(7.22754e-05 -7.23869e-05 0)
(0.000230128 -0.000141278 0)
(0.000454684 -0.000192238 0)
(0.000724809 -0.000224044 0)
(0.00102113 -0.000239002 0)
(0.00132577 -0.000240175 0)
(0.00162364 -0.000230586 0)
(0.0019027 -0.000212899 0)
(0.00215369 -0.000189365 0)
(0.00236984 -0.000161856 0)
(0.00254644 -0.000131898 0)
(0.00268056 -0.000100701 0)
(0.0027706 -6.91892e-05 0)
(0.00281605 -3.80246e-05 0)
(0.00281713 -7.63602e-06 0)
(0.00277453 2.17544e-05 0)
(0.00268913 5.01034e-05 0)
(0.00256183 7.75136e-05 0)
(0.00239338 0.000104203 0)
(0.00218421 0.000130473 0)
(0.00193437 0.000156676 0)
(0.00164349 0.000183189 0)
(0.00131073 0.000210385 0)
(0.000934813 0.000238613 0)
(0.000514082 0.000268181 0)
(4.6544e-05 0.00029934 0)
(-0.00047004 0.000332284 0)
(-0.00103807 0.000367136 0)
(-0.00166002 0.000403955 0)
(-0.00233835 0.000442737 0)
(-0.0030754 0.000483416 0)
(-0.00387332 0.000525867 0)
(-0.004734 0.000569915 0)
(-0.00565897 0.000615333 0)
(-0.00664934 0.000661848 0)
(-0.00770575 0.000709141 0)
(-0.0088283 0.000756849 0)
(-0.0100165 0.000804568 0)
(-0.0112691 0.000851848 0)
(-0.0125843 0.000898202 0)
(-0.0139594 0.000943103 0)
(-0.0153911 0.000985991 0)
(-0.016875 0.00102627 0)
(-0.018406 0.00106334 0)
(-0.0199783 0.00109654 0)
(-0.021585 0.00112523 0)
(-0.0232183 0.00114876 0)
(-0.0248698 0.00116647 0)
(-0.0265302 0.00117773 0)
(-0.0281894 0.00118193 0)
(-0.0298366 0.00117848 0)
(-0.0314605 0.00116685 0)
(-0.0330492 0.00114655 0)
(-0.0345903 0.00111716 0)
(-0.0360711 0.00107833 0)
(-0.0374787 0.0010298 0)
(-0.0388002 0.000971395 0)
(-0.0400227 0.000903041 0)
(-0.0411333 0.000824772 0)
(-0.0421197 0.000736739 0)
(-0.0429699 0.000639213 0)
(-0.0436727 0.000532589 0)
(-0.0442174 0.000417404 0)
(-0.0445945 0.00029438 0)
(-0.0447957 0.000164287 0)
(-0.0448137 2.76204e-05 0)
(-0.0446423 -0.000113803 0)
(-0.044277 -0.000259196 0)
(-0.0437153 -0.000407258 0)
(-0.0429561 -0.00055655 0)
(-0.0420003 -0.000705561 0)
(-0.0408505 -0.000852703 0)
(-0.0395114 -0.000996328 0)
(-0.0379898 -0.00113475 0)
(-0.0362942 -0.00126626 0)
(-0.0344355 -0.00138917 0)
(-0.0324262 -0.00150185 0)
(-0.030281 -0.00160272 0)
(-0.0280159 -0.00169033 0)
(-0.0256488 -0.00176337 0)
(-0.0231991 -0.00182072 0)
(-0.020687 -0.00186144 0)
(-0.0181339 -0.00188487 0)
(-0.0155618 -0.00189058 0)
(-0.0129929 -0.00187845 0)
(-0.0104496 -0.00184864 0)
(-0.00795371 -0.00180161 0)
(-0.0055266 -0.00173813 0)
(-0.00318846 -0.00165928 0)
(-0.000958207 -0.00156647 0)
(0.00114685 -0.00146111 0)
(0.00311145 -0.00134502 0)
(0.00492247 -0.00122018 0)
(0.00656909 -0.00108866 0)
(0.00804301 -0.000952564 0)
(0.0093385 -0.000814028 0)
(0.0104524 -0.000675144 0)
(0.0113842 -0.000537916 0)
(0.0121358 -0.000404208 0)
(0.0127113 -0.000275709 0)
(0.013117 -0.000153893 0)
(0.0133612 -4.00016e-05 0)
(0.0134537 6.49781e-05 0)
(0.0134054 0.000160319 0)
(0.0132286 0.000245555 0)
(0.0129359 0.000320469 0)
(0.0125404 0.000385078 0)
(0.0120554 0.000439614 0)
(0.0114939 0.000484491 0)
(0.0108684 0.00052028 0)
(0.0101909 0.000547663 0)
(0.00947265 0.000567398 0)
(0.00872394 0.000580268 0)
(0.00795427 0.00058703 0)
(0.00717232 0.000588355 0)
(0.00638607 0.000584759 0)
(0.00560304 0.000576527 0)
(0.00483058 0.000563636 0)
(0.00407632 0.000545657 0)
(0.00334861 0.000521679 0)
(0.00265709 0.000490231 0)
(0.00201324 0.000449259 0)
(0.00143078 0.00039621 0)
(0.000925784 0.000328411 0)
(0.0005158 0.000244147 0)
(0.000217175 0.000144987 0)
(4.21079e-05 4.11691e-05 0)
(-6.67154e-06 -3.12101e-05 0)
(2.19825e-05 -5.89376e-05 0)
(0.000141316 -0.000230188 0)
(0.00038622 -0.00038577 0)
(0.000715054 -0.000502144 0)
(0.00109907 -0.000576025 0)
(0.00151377 -0.000610667 0)
(0.00193586 -0.000611716 0)
(0.00234496 -0.000585421 0)
(0.00272424 -0.000537754 0)
(0.00306037 -0.000474061 0)
(0.00334318 -0.00039896 0)
(0.0035653 -0.00031632 0)
(0.00372173 -0.000229281 0)
(0.00380942 -0.000140286 0)
(0.00382679 -5.11292e-05 0)
(0.00377337 3.69911e-05 0)
(0.00364939 0.000123404 0)
(0.00345542 0.000207901 0)
(0.00319212 0.00029066 0)
(0.00285994 0.000372163 0)
(0.002459 0.000453113 0)
(0.00198892 0.000534354 0)
(0.00144874 0.000616795 0)
(0.000836949 0.000701342 0)
(0.000151449 0.000788839 0)
(-0.000610338 0.000880021 0)
(-0.00145139 0.000975479 0)
(-0.00237495 0.00107564 0)
(-0.00338444 0.00118074 0)
(-0.00448324 0.00129085 0)
(-0.00567465 0.00140584 0)
(-0.00696164 0.00152543 0)
(-0.00834683 0.00164915 0)
(-0.00983225 0.00177639 0)
(-0.0114193 0.00190641 0)
(-0.0131087 0.0020383 0)
(-0.0149002 0.00217106 0)
(-0.0167927 0.00230353 0)
(-0.0187839 0.00243447 0)
(-0.0208706 0.00256251 0)
(-0.0230483 0.00268619 0)
(-0.0253112 0.00280397 0)
(-0.0276525 0.00291422 0)
(-0.0300639 0.00301527 0)
(-0.0325359 0.0031054 0)
(-0.0350576 0.00318287 0)
(-0.037617 0.00324594 0)
(-0.0402009 0.00329291 0)
(-0.0427948 0.00332213 0)
(-0.0453835 0.00333201 0)
(-0.0479504 0.00332109 0)
(-0.0504786 0.00328803 0)
(-0.0529503 0.00323164 0)
(-0.055347 0.00315091 0)
(-0.0576503 0.00304505 0)
(-0.0598412 0.00291347 0)
(-0.0619011 0.00275584 0)
(-0.0638113 0.00257208 0)
(-0.0655538 0.00236238 0)
(-0.0671109 0.00212723 0)
(-0.0684659 0.0018674 0)
(-0.0696031 0.00158397 0)
(-0.0705078 0.00127834 0)
(-0.0711668 0.000952226 0)
(-0.0715685 0.000607737 0)
(-0.0717034 0.000247213 0)
(-0.0715628 -0.000127759 0)
(-0.0711402 -0.000512906 0)
(-0.0704323 -0.000905458 0)
(-0.0694373 -0.00130217 0)
(-0.068156 -0.00169945 0)
(-0.0665915 -0.00209349 0)
(-0.0647496 -0.00248035 0)
(-0.0626384 -0.00285597 0)
(-0.0602689 -0.00321628 0)
(-0.0576543 -0.00355718 0)
(-0.0548107 -0.00387465 0)
(-0.0517564 -0.00416481 0)
(-0.048512 -0.00442397 0)
(-0.0451003 -0.00464873 0)
(-0.0415461 -0.00483602 0)
(-0.0378759 -0.0049832 0)
(-0.0341177 -0.00508812 0)
(-0.0303006 -0.00514919 0)
(-0.0264546 -0.00516541 0)
(-0.0226101 -0.00513644 0)
(-0.0187977 -0.00506262 0)
(-0.0150474 -0.00494501 0)
(-0.0113886 -0.00478533 0)
(-0.00784963 -0.00458603 0)
(-0.00445698 -0.0043502 0)
(-0.00123532 -0.00408151 0)
(0.00179313 -0.00378407 0)
(0.00460874 -0.00346247 0)
(0.00719493 -0.00312181 0)
(0.00953835 -0.00276716 0)
(0.0116289 -0.00240378 0)
(0.01346 -0.00203692 0)
(0.0150285 -0.00167165 0)
(0.0163346 -0.0013128 0)
(0.0173818 -0.000964853 0)
(0.0181769 -0.000631808 0)
(0.0187291 -0.000317148 0)
(0.0190504 -2.37699e-05 0)
(0.0191549 0.00024605 0)
(0.0190583 0.000490673 0)
(0.0187778 0.000709089 0)
(0.0183313 0.000900895 0)
(0.0177374 0.00106625 0)
(0.0170148 0.00120582 0)
(0.0161818 0.0013207 0)
(0.0152562 0.00141232 0)
(0.0142553 0.00148233 0)
(0.0131952 0.00153249 0)
(0.0120909 0.00156456 0)
(0.0109567 0.00158006 0)
(0.00980599 0.00158021 0)
(0.00865142 0.00156564 0)
(0.00750557 0.00153628 0)
(0.00638127 0.00149114 0)
(0.00529217 0.00142815 0)
(0.00425336 0.00134412 0)
(0.00328186 0.00123482 0)
(0.00239698 0.00109537 0)
(0.00162018 0.000921351 0)
(0.000973696 0.0007111 0)
(0.000477351 0.000469841 0)
(0.000149862 0.000217526 0)
(1.54022e-05 1.14496e-05 0)
(3.30585e-05 -0.000148377 0)
(0.000193258 -0.000455406 0)
(0.000504957 -0.000715058 0)
(0.000909699 -0.000905892 0)
(0.00137132 -0.0010253 0)
(0.00186143 -0.00107839 0)
(0.0023532 -0.00107376 0)
(0.00282291 -0.00102117 0)
(0.00325068 -0.000930278 0)
(0.00362038 -0.000809991 0)
(0.00391941 -0.000668173 0)
(0.00413827 -0.000511538 0)
(0.00427022 -0.000345609 0)
(0.00431074 -0.000174747 0)
(0.00425708 -2.19977e-06 0)
(0.0041078 0.000169818 0)
(0.00386229 0.000340024 0)
(0.00352045 0.000507949 0)
(0.00308225 0.000673812 0)
(0.00254755 0.000838373 0)
(0.00191579 0.00100279 0)
(0.0011859 0.00116847 0)
(0.000356219 0.00133695 0)
(-0.000575559 0.00150974 0)
(-0.00161231 0.00168824 0)
(-0.00275742 0.00187366 0)
(-0.00401462 0.00206692 0)
(-0.00538785 0.00226864 0)
(-0.00688112 0.0024791 0)
(-0.00849825 0.00269824 0)
(-0.0102428 0.00292563 0)
(-0.0121176 0.00316054 0)
(-0.0141252 0.00340189 0)
(-0.0162668 0.00364833 0)
(-0.018543 0.00389824 0)
(-0.0209531 0.0041497 0)
(-0.023495 0.0044006 0)
(-0.0261655 0.00464858 0)
(-0.0289597 0.00489108 0)
(-0.0318712 0.00512538 0)
(-0.0348921 0.00534857 0)
(-0.0380128 0.00555765 0)
(-0.041222 0.00574949 0)
(-0.0445067 0.00592093 0)
(-0.0478526 0.00606878 0)
(-0.0512436 0.00618986 0)
(-0.0546622 0.00628108 0)
(-0.0580896 0.00633947 0)
(-0.0615059 0.0063622 0)
(-0.06489 0.00634668 0)
(-0.0682201 0.00629056 0)
(-0.0714736 0.00619179 0)
(-0.0746277 0.00604867 0)
(-0.0776592 0.00585987 0)
(-0.0805449 0.00562447 0)
(-0.0832618 0.00534197 0)
(-0.0857876 0.00501235 0)
(-0.0881002 0.00463605 0)
(-0.090179 0.00421402 0)
(-0.092004 0.00374767 0)
(-0.0935569 0.00323895 0)
(-0.0948205 0.00269029 0)
(-0.0957795 0.00210463 0)
(-0.0964205 0.00148536 0)
(-0.096732 0.000836184 0)
(-0.0967059 0.000161487 0)
(-0.096334 -0.000532118 0)
(-0.0956106 -0.00124138 0)
(-0.0945351 -0.00196042 0)
(-0.0931079 -0.00268312 0)
(-0.0913318 -0.00340321 0)
(-0.0892128 -0.00411417 0)
(-0.0867594 -0.0048093 0)
(-0.083983 -0.00548182 0)
(-0.0808976 -0.00612487 0)
(-0.07752 -0.00673168 0)
(-0.0738698 -0.0072956 0)
(-0.0699688 -0.00781022 0)
(-0.0658416 -0.00826949 0)
(-0.0615148 -0.00866782 0)
(-0.0570173 -0.00900019 0)
(-0.0523799 -0.00926223 0)
(-0.0476346 -0.0094504 0)
(-0.0428153 -0.00956201 0)
(-0.0379563 -0.00959535 0)
(-0.0330929 -0.00954977 0)
(-0.0282604 -0.00942571 0)
(-0.0234938 -0.00922474 0)
(-0.0188278 -0.0089496 0)
(-0.0142957 -0.00860412 0)
(-0.00992923 -0.00819324 0)
(-0.00575836 -0.0077229 0)
(-0.0018104 -0.00719994 0)
(0.00188978 -0.00663195 0)
(0.00532068 -0.00602719 0)
(0.00846436 -0.00539436 0)
(0.0113063 -0.00474239 0)
(0.0138359 -0.00408032 0)
(0.0160466 -0.00341701 0)
(0.0179355 -0.00276103 0)
(0.019504 -0.00212043 0)
(0.0207569 -0.00150259 0)
(0.0217027 -0.00091405 0)
(0.0223531 -0.000360448 0)
(0.0227226 0.000153612 0)
(0.0228282 0.000624587 0)
(0.0226891 0.00105002 0)
(0.0223259 0.00142853 0)
(0.0217601 0.00175971 0)
(0.0210141 0.00204412 0)
(0.0201105 0.00228309 0)
(0.0190715 0.00247863 0)
(0.0179189 0.0026332 0)
(0.0166737 0.00274954 0)
(0.015356 0.00283039 0)
(0.0139849 0.00287824 0)
(0.012579 0.00289504 0)
(0.0111557 0.00288188 0)
(0.00973268 0.00283865 0)
(0.00832753 0.00276384 0)
(0.00695868 0.00265427 0)
(0.0056458 0.00250509 0)
(0.00441032 0.00231001 0)
(0.00327567 0.0020621 0)
(0.00226724 0.0017555 0)
(0.001411 0.00138855 0)
(0.000730718 0.000969014 0)
(0.000255274 0.000522632 0)
(3.66145e-05 0.000114801 0)
(3.98781e-05 -0.00026102 0)
(0.000227094 -0.000727906 0)
(0.000583281 -0.00110156 0)
(0.00103595 -0.0013686 0)
(0.00154217 -0.00153038 0)
(0.00207007 -0.00159543 0)
(0.00259019 -0.00157595 0)
(0.00307658 -0.00148551 0)
(0.00350739 -0.0013376 0)
(0.00386468 -0.00114487 0)
(0.00413413 -0.000918598 0)
(0.0043047 -0.000668541 0)
(0.00436821 -0.00040281 0)
(0.00431882 -0.000127868 0)
(0.00415261 0.000151423 0)
(0.00386704 0.0004317 0)
(0.00346051 0.000710969 0)
(0.00293195 0.000988438 0)
(0.00228044 0.00126433 0)
(0.00150494 0.00153967 0)
(0.000604033 0.00181606 0)
(-0.000424205 0.00209549 0)
(-0.00158227 0.0023801 0)
(-0.00287327 0.002672 0)
(-0.0043008 0.00297312 0)
(-0.00586887 0.00328507 0)
(-0.00758175 0.003609 0)
(-0.00944373 0.00394559 0)
(-0.011459 0.00429499 0)
(-0.0136312 0.00465676 0)
(-0.0159635 0.00502994 0)
(-0.0184583 0.00541303 0)
(-0.0211167 0.00580403 0)
(-0.0239389 0.00620047 0)
(-0.0269233 0.00659943 0)
(-0.0300671 0.00699761 0)
(-0.0333657 0.00739134 0)
(-0.0368126 0.00777663 0)
(-0.0403994 0.00814919 0)
(-0.0441159 0.00850451 0)
(-0.0479498 0.00883787 0)
(-0.0518871 0.00914444 0)
(-0.0559115 0.00941931 0)
(-0.0600052 0.00965755 0)
(-0.0641485 0.00985431 0)
(-0.0683202 0.0100049 0)
(-0.0724975 0.0101047 0)
(-0.0766565 0.0101496 0)
(-0.0807724 0.0101357 0)
(-0.0848195 0.0100596 0)
(-0.0887715 0.00991816 0)
(-0.092602 0.0097091 0)
(-0.0962843 0.0094305 0)
(-0.0997924 0.00908116 0)
(-0.1031 0.00866049 0)
(-0.106183 0.00816858 0)
(-0.109017 0.00760625 0)
(-0.111579 0.00697497 0)
(-0.113847 0.00627696 0)
(-0.115802 0.0055151 0)
(-0.117426 0.00469299 0)
(-0.118702 0.00381489 0)
(-0.119617 0.00288572 0)
(-0.120158 0.00191099 0)
(-0.120315 0.000896677 0)
(-0.12008 -0.00015046 0)
(-0.11945 -0.00122138 0)
(-0.118422 -0.00231031 0)
(-0.116996 -0.00340869 0)
(-0.115174 -0.00450772 0)
(-0.112962 -0.0055984 0)
(-0.110368 -0.00667143 0)
(-0.107403 -0.00771737 0)
(-0.104079 -0.00872665 0)
(-0.100414 -0.00968969 0)
(-0.096425 -0.010597 0)
(-0.0921346 -0.0114394 0)
(-0.0875662 -0.0122079 0)
(-0.0827461 -0.0128941 0)
(-0.0777028 -0.0134902 0)
(-0.072467 -0.0139892 0)
(-0.0670712 -0.0143849 0)
(-0.0615497 -0.0146723 0)
(-0.0559382 -0.0148475 0)
(-0.0502736 -0.0149079 0)
(-0.0445933 -0.0148525 0)
(-0.0389353 -0.0146815 0)
(-0.0333378 -0.0143969 0)
(-0.0278382 -0.0140022 0)
(-0.0224734 -0.0135025 0)
(-0.0172786 -0.0129044 0)
(-0.0122876 -0.0122159 0)
(-0.00753178 -0.0114465 0)
(-0.00304 -0.0106068 0)
(0.00116195 -0.00970814 0)
(0.00505176 -0.00876297 0)
(0.0086107 -0.00778406 0)
(0.011824 -0.00678442 0)
(0.014681 -0.00577707 0)
(0.0171754 -0.00477469 0)
(0.0193048 -0.00378938 0)
(0.0210714 -0.00283245 0)
(0.022481 -0.00191413 0)
(0.0235435 -0.00104343 0)
(0.0242721 -0.000227976 0)
(0.0246834 0.000526099 0)
(0.0247962 0.00121421 0)
(0.0246321 0.00183331 0)
(0.024214 0.00238186 0)
(0.0235661 0.00285972 0)
(0.0227137 0.00326801 0)
(0.0216819 0.00360889 0)
(0.0204962 0.0038853 0)
(0.0191812 0.00410069 0)
(0.0177613 0.00425864 0)
(0.01626 0.00436249 0)
(0.0147001 0.00441487 0)
(0.0131038 0.00441731 0)
(0.011493 0.00436979 0)
(0.0098899 0.00427038 0)
(0.00831707 0.00411499 0)
(0.00679822 0.00389737 0)
(0.00535845 0.00360953 0)
(0.00402472 0.00324274 0)
(0.00282593 0.00278959 0)
(0.00179194 0.00224751 0)
(0.000951642 0.00162412 0)
(0.000345671 0.000945031 0)
(5.39681e-05 0.000271799 0)
(4.34158e-05 -0.000387417 0)
(0.000244997 -0.0010292 0)
(0.000623839 -0.00152154 0)
(0.00109749 -0.00186237 0)
(0.00161751 -0.00205956 0)
(0.00214896 -0.00212668 0)
(0.00266029 -0.00208039 0)
(0.00312401 -0.00193846 0)
(0.00351701 -0.00171845 0)
(0.0038202 -0.00143677 0)
(0.00401814 -0.0011082 0)
(0.00409868 -0.000745596 0)
(0.00405251 -0.00035969 0)
(0.00387268 4.08963e-05 0)
(0.00355415 0.000449634 0)
(0.00309327 0.000861967 0)
(0.00248735 0.00127515 0)
(0.00173424 0.00168805 0)
(0.000831957 0.00210084 0)
(-0.000221579 0.0025148 0)
(-0.00142877 0.00293195 0)
(-0.00279249 0.00335479 0)
(-0.00431608 0.00378603 0)
(-0.00600339 0.00422828 0)
(-0.00785864 0.00468387 0)
(-0.00988625 0.00515466 0)
(-0.0120907 0.00564185 0)
(-0.0144763 0.00614595 0)
(-0.0170467 0.00666668 0)
(-0.0198052 0.00720297 0)
(-0.0227537 0.00775295 0)
(-0.0258932 0.008314 0)
(-0.0292232 0.00888278 0)
(-0.0327413 0.0094553 0)
(-0.0364435 0.0100269 0)
(-0.0403239 0.0105925 0)
(-0.0443742 0.0111465 0)
(-0.0485841 0.0116828 0)
(-0.0529411 0.0121949 0)
(-0.0574303 0.0126764 0)
(-0.0620348 0.0131204 0)
(-0.0667354 0.0135199 0)
(-0.071511 0.0138682 0)
(-0.0763385 0.0141585 0)
(-0.0811935 0.0143842 0)
(-0.0860498 0.0145393 0)
(-0.0908801 0.0146179 0)
(-0.0956565 0.0146149 0)
(-0.10035 0.0145256 0)
(-0.104932 0.0143461 0)
(-0.109373 0.0140733 0)
(-0.113644 0.0137049 0)
(-0.117717 0.0132394 0)
(-0.121565 0.0126762 0)
(-0.12516 0.0120157 0)
(-0.128479 0.011259 0)
(-0.131497 0.0104084 0)
(-0.134193 0.00946679 0)
(-0.136546 0.00843816 0)
(-0.138537 0.00732727 0)
(-0.140151 0.0061397 0)
(-0.141374 0.00488182 0)
(-0.142193 0.0035608 0)
(-0.142598 0.00218451 0)
(-0.142583 0.000761604 0)
(-0.142141 -0.000698779 0)
(-0.14127 -0.00218783 0)
(-0.139971 -0.00369415 0)
(-0.138244 -0.00520711 0)
(-0.136094 -0.00671561 0)
(-0.133528 -0.00820809 0)
(-0.130555 -0.00967268 0)
(-0.127187 -0.0110973 0)
(-0.123439 -0.0124698 0)
(-0.119326 -0.0137781 0)
(-0.114869 -0.01501 0)
(-0.110089 -0.0161539 0)
(-0.105011 -0.0171985 0)
(-0.0996593 -0.0181328 0)
(-0.0940646 -0.0189471 0)
(-0.0882572 -0.0196321 0)
(-0.0822701 -0.02018 0)
(-0.0761379 -0.020584 0)
(-0.069897 -0.0208389 0)
(-0.0635849 -0.0209411 0)
(-0.0572404 -0.0208888 0)
(-0.0509027 -0.020682 0)
(-0.0446115 -0.0203227 0)
(-0.0384064 -0.0198149 0)
(-0.0323263 -0.0191646 0)
(-0.0264094 -0.0183797 0)
(-0.0206921 -0.0174703 0)
(-0.0152092 -0.0164481 0)
(-0.00999296 -0.0153262 0)
(-0.00507302 -0.0141194 0)
(-0.000475665 -0.0128435 0)
(0.0037763 -0.011515 0)
(0.00766394 -0.010151 0)
(0.0111724 -0.0087687 0)
(0.0142913 -0.00738516 0)
(0.0170144 -0.0060168 0)
(0.01934 -0.00467918 0)
(0.0212707 -0.00338668 0)
(0.0228134 -0.00215219 0)
(0.0239789 -0.000986931 0)
(0.0247817 9.97535e-05 0)
(0.0252394 0.00110049 0)
(0.0253728 0.00200992 0)
(0.0252048 0.00282471 0)
(0.0247602 0.0035434 0)
(0.0240655 0.00416627 0)
(0.0231476 0.00469511 0)
(0.0220343 0.00513288 0)
(0.0207532 0.00548333 0)
(0.0193319 0.00575057 0)
(0.0177974 0.00593852 0)
(0.0161764 0.00605039 0)
(0.014495 0.0060881 0)
(0.0127793 0.00605173 0)
(0.0110553 0.00593908 0)
(0.00934929 0.00574536 0)
(0.00768868 0.0054632 0)
(0.00610196 0.00508308 0)
(0.00461935 0.00459451 0)
(0.00327338 0.00398806 0)
(0.00209824 0.00325889 0)
(0.00112859 0.00241145 0)
(0.000416711 0.00146604 0)
(6.69691e-05 0.000472304 0)
(4.45107e-05 -0.000519597 0)
(0.000249531 -0.00134181 0)
(0.000630875 -0.0019516 0)
(0.00110022 -0.00235958 0)
(0.00160518 -0.00258186 0)
(0.00210839 -0.00263835 0)
(0.00257675 -0.00255099 0)
(0.00298175 -0.00234222 0)
(0.00329951 -0.00203378 0)
(0.0035103 -0.00164597 0)
(0.00359798 -0.00119703 0)
(0.00354965 -0.000702842 0)
(0.00335514 -0.000176734 0)
(0.00300658 0.000370571 0)
(0.00249792 0.000930911 0)
(0.00182442 0.00149857 0)
(0.000982288 0.00207006 0)
(-3.17683e-05 0.00264389 0)
(-0.00122085 0.00322019 0)
(-0.00258815 0.00380043 0)
(-0.0041371 0.004387 0)
(-0.0058715 0.00498283 0)
(-0.00779551 0.00559104 0)
(-0.00991359 0.0062146 0)
(-0.0122304 0.00685605 0)
(-0.0147504 0.00751722 0)
(-0.017478 0.00819912 0)
(-0.0204169 0.00890175 0)
(-0.0235701 0.00962406 0)
(-0.0269393 0.0103639 0)
(-0.0305249 0.0111182 0)
(-0.0343257 0.0118827 0)
(-0.0383385 0.0126524 0)
(-0.042558 0.0134212 0)
(-0.0469767 0.0141824 0)
(-0.0515847 0.0149286 0)
(-0.0563697 0.0156519 0)
(-0.0613168 0.0163439 0)
(-0.0664087 0.0169957 0)
(-0.0716257 0.0175985 0)
(-0.0769458 0.0181432 0)
(-0.0823449 0.0186208 0)
(-0.0877971 0.0190226 0)
(-0.0932748 0.0193402 0)
(-0.098749 0.0195656 0)
(-0.10419 0.0196915 0)
(-0.109566 0.0197113 0)
(-0.114848 0.0196194 0)
(-0.120002 0.0194108 0)
(-0.125 0.0190819 0)
(-0.129811 0.0186298 0)
(-0.134404 0.018053 0)
(-0.138753 0.017351 0)
(-0.142829 0.0165244 0)
(-0.146609 0.0155749 0)
(-0.150067 0.0145055 0)
(-0.153183 0.01332 0)
(-0.155937 0.0120233 0)
(-0.15831 0.0106214 0)
(-0.160287 0.00912104 0)
(-0.161854 0.00752999 0)
(-0.163 0.0058568 0)
(-0.163714 0.00411078 0)
(-0.163991 0.00230203 0)
(-0.163823 0.000441382 0)
(-0.163209 -0.00145965 0)
(-0.162146 -0.00338967 0)
(-0.160635 -0.00533559 0)
(-0.158681 -0.00728435 0)
(-0.156287 -0.00922248 0)
(-0.153462 -0.0111361 0)
(-0.150214 -0.013011 0)
(-0.146556 -0.0148327 0)
(-0.142501 -0.0165867 0)
(-0.138065 -0.0182584 0)
(-0.133268 -0.0198335 0)
(-0.128129 -0.0212977 0)
(-0.122673 -0.0226375 0)
(-0.116924 -0.0238398 0)
(-0.110912 -0.0248922 0)
(-0.104665 -0.0257837 0)
(-0.098216 -0.0265044 0)
(-0.0915994 -0.0270457 0)
(-0.0848511 -0.0274008 0)
(-0.0780087 -0.0275649 0)
(-0.0711113 -0.0275351 0)
(-0.0641987 -0.0273108 0)
(-0.0573116 -0.0268936 0)
(-0.0504909 -0.0262878 0)
(-0.0437775 -0.0254999 0)
(-0.0372115 -0.0245389 0)
(-0.030832 -0.0234163 0)
(-0.0246766 -0.0221458 0)
(-0.0187808 -0.020743 0)
(-0.0131776 -0.0192255 0)
(-0.00789718 -0.0176123 0)
(-0.0029662 -0.0159237 0)
(0.00159227 -0.0141806 0)
(0.00575924 -0.0124045 0)
(0.00951996 -0.0106167 0)
(0.0128641 -0.00883818 0)
(0.015786 -0.00708898 0)
(0.0182845 -0.00538788 0)
(0.0203627 -0.00375205 0)
(0.0220283 -0.00219675 0)
(0.023293 -0.000735045 0)
(0.0241723 0.000622331 0)
(0.0246852 0.0018671 0)
(0.0248535 0.00299346 0)
(0.0247015 0.00399801 0)
(0.0242558 0.00487957 0)
(0.0235441 0.00563895 0)
(0.0225956 0.00627854 0)
(0.0214399 0.00680193 0)
(0.0201068 0.00721331 0)
(0.0186263 0.00751687 0)
(0.0170281 0.00771616 0)
(0.0153419 0.00781334 0)
(0.0135971 0.0078086 0)
(0.0118232 0.00769953 0)
(0.0100501 0.00748076 0)
(0.00830847 0.00714394 0)
(0.00662998 0.00667815 0)
(0.00504822 0.00607092 0)
(0.00359944 0.00531021 0)
(0.00232238 0.00438738 0)
(0.00125761 0.0033012 0)
(0.000467629 0.00206283 0)
(7.58861e-05 0.00070517 0)
(4.37693e-05 -0.000651118 0)
(0.000242915 -0.00165016 0)
(0.00060858 -0.00236994 0)
(0.00105018 -0.00283407 0)
(0.00151309 -0.00306787 0)
(0.0019583 -0.0030985 0)
(0.00235178 -0.00295383 0)
(0.00266449 -0.00266131 0)
(0.00287227 -0.00224709 0)
(0.00295508 -0.0017353 0)
(0.00289646 -0.00114758 0)
(0.00268302 -0.000502749 0)
(0.00230398 0.00018341 0)
(0.0017507 0.000898181 0)
(0.0010162 0.00163188 0)
(9.47599e-05 0.00237769 0)
(-0.00101852 0.00313145 0)
(-0.00232807 0.00389131 0)
(-0.0038381 0.00465736 0)
(-0.0055529 0.00543119 0)
(-0.00747689 0.00621546 0)
(-0.00961473 0.00701338 0)
(-0.0119712 0.00782833 0)
(-0.0145513 0.00866337 0)
(-0.0173596 0.00952096 0)
(-0.0204005 0.0104026 0)
(-0.0236777 0.0113088 0)
(-0.0271939 0.0122385 0)
(-0.0309505 0.0131895 0)
(-0.0349474 0.0141583 0)
(-0.0391825 0.0151399 0)
(-0.0436517 0.0161282 0)
(-0.0483484 0.0171157 0)
(-0.0532637 0.0180942 0)
(-0.0583858 0.0190544 0)
(-0.0637004 0.0199863 0)
(-0.0691905 0.0208793 0)
(-0.0748363 0.0217225 0)
(-0.0806155 0.0225046 0)
(-0.0865036 0.0232142 0)
(-0.0924737 0.0238403 0)
(-0.0984973 0.0243719 0)
(-0.104544 0.0247987 0)
(-0.110583 0.0251109 0)
(-0.116581 0.0252996 0)
(-0.122506 0.025357 0)
(-0.128326 0.0252761 0)
(-0.134007 0.0250514 0)
(-0.139518 0.0246785 0)
(-0.144828 0.0241544 0)
(-0.149907 0.0234774 0)
(-0.154728 0.0226472 0)
(-0.159262 0.0216648 0)
(-0.163486 0.0205326 0)
(-0.167376 0.019254 0)
(-0.170912 0.017834 0)
(-0.174075 0.0162783 0)
(-0.176847 0.014594 0)
(-0.179214 0.012789 0)
(-0.181162 0.0108722 0)
(-0.182681 0.00885338 0)
(-0.183761 0.00674309 0)
(-0.184395 0.00455263 0)
(-0.184577 0.00229402 0)
(-0.184304 -1.99933e-05 0)
(-0.183574 -0.00237585 0)
(-0.182385 -0.00476003 0)
(-0.18074 -0.00715786 0)
(-0.178642 -0.00955431 0)
(-0.176095 -0.0119339 0)
(-0.173107 -0.0142807 0)
(-0.169686 -0.0165784 0)
(-0.165842 -0.0188105 0)
(-0.161588 -0.0209604 0)
(-0.156939 -0.0230111 0)
(-0.151912 -0.0249461 0)
(-0.146526 -0.0267489 0)
(-0.140802 -0.0284035 0)
(-0.134765 -0.0298945 0)
(-0.12844 -0.0312074 0)
(-0.121857 -0.0323287 0)
(-0.115045 -0.0332464 0)
(-0.10804 -0.03395 0)
(-0.100874 -0.0344307 0)
(-0.0935867 -0.0346822 0)
(-0.086216 -0.0347001 0)
(-0.0788024 -0.0344829 0)
(-0.0713871 -0.0340316 0)
(-0.0640124 -0.03335 0)
(-0.0567205 -0.0324449 0)
(-0.0495536 -0.0313261 0)
(-0.0425532 -0.030006 0)
(-0.0357597 -0.0284999 0)
(-0.0292115 -0.0268257 0)
(-0.0229453 -0.0250034 0)
(-0.0169946 -0.0230551 0)
(-0.0113902 -0.0210045 0)
(-0.00615914 -0.0188764 0)
(-0.0013246 -0.0166964 0)
(0.00309447 -0.01449 0)
(0.00708354 -0.0122828 0)
(0.0106327 -0.0100994 0)
(0.0137367 -0.00796326 0)
(0.0163951 -0.00589603 0)
(0.0186119 -0.00391738 0)
(0.0203955 -0.0020445 0)
(0.0217588 -0.000291971 0)
(0.0227181 0.00132846 0)
(0.0232937 0.00280799 0)
(0.0235086 0.00414062 0)
(0.0233886 0.00532311 0)
(0.0229616 0.00635465 0)
(0.022257 0.0072365 0)
(0.0213057 0.00797152 0)
(0.0201391 0.0085635 0)
(0.0187893 0.00901651 0)
(0.0172887 0.00933409 0)
(0.0156695 0.00951849 0)
(0.0139642 0.00956984 0)
(0.0122055 0.0094855 0)
(0.0104263 0.00925959 0)
(0.00866042 0.00888283 0)
(0.00694279 0.00834279 0)
(0.00531029 0.0076248 0)
(0.00380289 0.00671352 0)
(0.0024638 0.00559534 0)
(0.00133905 0.00426149 0)
(0.000499271 0.00271161 0)
(8.11717e-05 0.000959596 0)
(4.15804e-05 -0.000776688 0)
(0.000226795 -0.00194059 0)
(0.000560391 -0.00275673 0)
(0.000952618 -0.00326156 0)
(0.00134819 -0.00349009 0)
(0.00170743 -0.00347724 0)
(0.00199603 -0.00325722 0)
(0.00218501 -0.00286274 0)
(0.00225029 -0.0023244 0)
(0.00217193 -0.00167017 0)
(0.00193339 -0.000924945 0)
(0.00152104 -0.000110305 0)
(0.000923671 0.000755678 0)
(0.000131992 0.00165847 0)
(-0.000861763 0.00258698 0)
(-0.00206426 0.00353344 0)
(-0.00348143 0.00449305 0)
(-0.00511877 0.00546363 0)
(-0.00698159 0.00644521 0)
(-0.00907516 0.00743942 0)
(-0.0114048 0.00844905 0)
(-0.0139758 0.0094774 0)
(-0.0167934 0.0105278 0)
(-0.0198626 0.0116032 0)
(-0.0231879 0.0127056 0)
(-0.0267729 0.0138357 0)
(-0.0306202 0.0149929 0)
(-0.0347308 0.016175 0)
(-0.039104 0.0173781 0)
(-0.043737 0.0185965 0)
(-0.0486247 0.0198231 0)
(-0.0537593 0.0210493 0)
(-0.0591303 0.022265 0)
(-0.0647243 0.0234592 0)
(-0.070525 0.0246198 0)
(-0.0765131 0.025734 0)
(-0.0826668 0.0267884 0)
(-0.0889614 0.0277695 0)
(-0.0953697 0.0286636 0)
(-0.101863 0.0294572 0)
(-0.108409 0.0301373 0)
(-0.114977 0.0306916 0)
(-0.121533 0.0311084 0)
(-0.128042 0.0313774 0)
(-0.134472 0.0314893 0)
(-0.140787 0.0314363 0)
(-0.146955 0.031212 0)
(-0.152943 0.0308116 0)
(-0.15872 0.0302318 0)
(-0.164257 0.029471 0)
(-0.169526 0.0285291 0)
(-0.174501 0.0274076 0)
(-0.179159 0.0261094 0)
(-0.183476 0.0246388 0)
(-0.187435 0.0230015 0)
(-0.191016 0.0212042 0)
(-0.194204 0.0192549 0)
(-0.196985 0.0171625 0)
(-0.199347 0.0149368 0)
(-0.201279 0.0125886 0)
(-0.202773 0.0101295 0)
(-0.203821 0.00757159 0)
(-0.204417 0.00492795 0)
(-0.204558 0.00221219 0)
(-0.204239 -0.000561435 0)
(-0.20346 -0.00337805 0)
(-0.202219 -0.00622225 0)
(-0.200519 -0.00907795 0)
(-0.19836 -0.0119285 0)
(-0.195748 -0.0147569 0)
(-0.192687 -0.0175453 0)
(-0.189184 -0.0202758 0)
(-0.185248 -0.02293 0)
(-0.18089 -0.0254891 0)
(-0.176121 -0.0279343 0)
(-0.170958 -0.0302468 0)
(-0.165416 -0.0324077 0)
(-0.159515 -0.0343987 0)
(-0.153276 -0.0362021 0)
(-0.146724 -0.0378008 0)