/*--------------------------------*- C++ -*----------------------------------*\
| =========                 |                                                 |
| \\      /  F ield         | OpenFOAM: The Open Source CFD Toolbox           |
|  \\    /   O peration     | Version:  2112                                  |
|   \\  /    A nd           | Website:  www.openfoam.com                      |
|    \\/     M anipulation  |                                                 |
\*---------------------------------------------------------------------------*/
FoamFile
{
    version     2.0;
    format      ascii;
    arch        "LSB;label=32;scalar=64";
    class       volScalarField;
    location    "23";
    object      p;
}
// * * * * * * * * * * * * * * * * * * * * * * * * * * * * * * * * * * * * * //

dimensions      [0 2 -2 0 0 0 0];

internalField   nonuniform List<scalar> 
16641
(
7.02925e-07
1.26235e-05
2.25083e-05
2.73974e-05
2.47271e-05
1.32926e-05
-7.16276e-06
-3.63884e-05
-7.38927e-05
-0.000119064
-0.000171257
-0.000229849
-0.000294272
-0.00036403
-0.000438716
-0.000518013
-0.00060169
-0.000689602
-0.000781678
-0.000877914
-0.000978362
-0.00108311
-0.00119228
-0.001306
-0.0014244
-0.0015476
-0.0016757
-0.00180876
-0.0019468
-0.00208977
-0.00223757
-0.00239003
-0.00254691
-0.00270786
-0.00287246
-0.0030402
-0.00321045
-0.00338249
-0.0035555
-0.00372852
-0.00390053
-0.00407035
-0.00423673
-0.00439829
-0.0045536
-0.00470109
-0.00483917
-0.00496617
-0.00508039
-0.00518011
-0.00526363
-0.00532928
-0.00537546
-0.00540067
-0.00540353
-0.00538284
-0.00533759
-0.00526701
-0.00517058
-0.00504809
-0.00489966
-0.00472575
-0.00452721
-0.00430525
-0.00406152
-0.00379803
-0.00351723
-0.00322176
-0.00291499
-0.00260035
-0.0022816
-0.00196278
-0.0016481
-0.00134188
-0.00104851
-0.000772328
-0.000517586
-0.000288324
-8.8311e-05
7.90432e-05
0.000210763
0.000304376
0.000357978
0.000370273
0.000340616
0.000269024
0.000156187
3.45009e-06
-0.000187217
-0.00041327
-0.000671653
-0.00095885
-0.00127101
-0.00160401
-0.00195356
-0.0023153
-0.0026849
-0.00305814
-0.00343101
-0.00379975
-0.00416095
-0.00451157
-0.00484896
-0.0051709
-0.00547563
-0.00576177
-0.00602836
-0.00627483
-0.00650094
-0.00670674
-0.00689256
-0.0070589
-0.00720646
-0.00733601
-0.00744841
-0.00754451
-0.00762516
-0.00769113
-0.00774313
-0.00778175
-0.00780754
-0.00782102
-0.00782276
-0.00781358
-0.00779481
-0.0077687
-0.00773903
-0.00771136
-0.00769433
-9.802e-06
1.66397e-06
8.485e-06
9.88427e-06
4.77849e-06
-7.80901e-06
-2.82261e-05
-5.64144e-05
-9.20846e-05
-0.000134814
-0.000184124
-0.000239528
-0.000300557
-0.000366795
-0.000437893
-0.000513566
-0.000593608
-0.000677879
-0.000766306
-0.000858872
-0.000955609
-0.00105658
-0.00116189
-0.00127164
-0.00138594
-0.00150489
-0.00162857
-0.00175703
-0.00189027
-0.00202827
-0.00217092
-0.00231807
-0.00246948
-0.00262485
-0.00278378
-0.00294579
-0.00311032
-0.00327667
-0.00344409
-0.00361169
-0.00377848
-0.00394338
-0.0041052
-0.00426265
-0.00441434
-0.0045588
-0.00469452
-0.00481989
-0.00493328
-0.00503306
-0.00511757
-0.00518521
-0.00523442
-0.00526375
-0.00527184
-0.00525753
-0.0052198
-0.00515787
-0.00507123
-0.00495964
-0.00482316
-0.0046622
-0.00447754
-0.00427032
-0.00404206
-0.00379472
-0.00353053
-0.00325221
-0.00296273
-0.00266546
-0.00236403
-0.00206231
-0.00176433
-0.00147424
-0.00119627
-0.00093459
-0.000693277
-0.000476223
-0.00028705
-0.000129038
-5.04581e-06
8.25557e-05
0.000131939
0.000141865
0.000111722
4.15353e-05
-6.80237e-05
-0.000215656
-0.000399465
-0.000617001
-0.000865328
-0.00114109
-0.00144059
-0.00175988
-0.00209489
-0.00244144
-0.00279544
-0.00315286
-0.0035099
-0.00386302
-0.00420897
-0.00454489
-0.00486829
-0.00517708
-0.00546959
-0.00574453
-0.006001
-0.00623846
-0.00645666
-0.00665565
-0.00683573
-0.00699735
-0.00714116
-0.00726787
-0.00737828
-0.0074732
-0.00755344
-0.00761977
-0.00767291
-0.00771353
-0.00774225
-0.00775973
-0.00776669
-0.00776407
-0.00775316
-0.00773591
-0.00771518
-0.00769443
-0.00767732
-1.90242e-05
-4.72974e-06
1.99467e-06
2.23862e-06
-3.8629e-06
-1.69636e-05
-3.73356e-05
-6.4919e-05
-9.94733e-05
-0.000140656
-0.000188066
-0.000241286
-0.000299908
-0.000363569
-0.000431955
-0.000504813
-0.000581952
-0.000663246
-0.000748627
-0.00083808
-0.000931631
-0.00102934
-0.0011313
-0.00123762
-0.00134838
-0.0014637
-0.00158364
-0.00170826
-0.00183758
-0.00197157
-0.00211014
-0.00225316
-0.00240042
-0.00255164
-0.00270646
-0.00286445
-0.00302506
-0.00318768
-0.00335157
-0.00351591
-0.00367976
-0.00384209
-0.00400177
-0.00415755
-0.0043081
-0.00445201
-0.00458779
-0.00471389
-0.00482871
-0.00493064
-0.00501804
-0.00508934
-0.00514297
-0.00517748
-0.00519151
-0.00518386
-0.00515349
-0.0050996
-0.00502162
-0.00491924
-0.00479249
-0.00464171
-0.00446759
-0.00427121
-0.00405403
-0.00381789
-0.00356486
-0.00329773
-0.00301934
-0.00273295
-0.00244211
-0.00215059
-0.00186237
-0.00158152
-0.00131219
-0.00105849
-0.000824434
-0.00061387
-0.000430369
-0.000277169
-0.000157095
-7.24903e-05
-2.51624e-05
-1.63344e-05
-4.66131e-05
-0.000115971
-0.000223746
-0.000368652
-0.000548815
-0.000761818
-0.00100476
-0.00127433
-0.0015669
-0.00187859
-0.00220538
-0.0025432
-0.00288803
-0.00323596
-0.00358328
-0.00392655
-0.00426264
-0.00458878
-0.0049026
-0.0052021
-0.0054857
-0.00575219
-0.00600074
-0.00623085
-0.00644235
-0.0066353
-0.00681001
-0.00696696
-0.00710679
-0.00723021
-0.00733801
-0.007431
-0.00750998
-0.00757574
-0.00762901
-0.00767047
-0.00770079
-0.00772063
-0.0077307
-0.00773183
-0.00772508
-0.00771195
-0.00769447
-0.00767376
-0.00764951
-2.35268e-05
-5.80025e-06
1.89126e-06
1.97941e-06
-4.47093e-06
-1.78206e-05
-3.81867e-05
-6.54229e-05
-9.92731e-05
-0.000139409
-0.000185455
-0.000237026
-0.000293755
-0.00035531
-0.000421405
-0.00049181
-0.000566355
-0.00064493
-0.000727479
-0.000813996
-0.000904515
-0.000999107
-0.00109786
-0.00120089
-0.00130831
-0.00142021
-0.00153669
-0.00165781
-0.00178361
-0.00191407
-0.00204915
-0.00218872
-0.00233262
-0.00248061
-0.00263236
-0.00278747
-0.00294547
-0.00310576
-0.00326768
-0.00343043
-0.00359315
-0.00375483
-0.00391438
-0.00407061
-0.00422222
-0.00436781
-0.00450592
-0.00463502
-0.0047535
-0.00485975
-0.00495214
-0.00502905
-0.00508889
-0.00513017
-0.00515149
-0.00515159
-0.00512938
-0.00508398
-0.00501475
-0.00492133
-0.00480365
-0.004662
-0.00449699
-0.00430961
-0.00410128
-0.00387378
-0.00362902
-0.00336982
-0.00309897
-0.00281969
-0.00253547
-0.00225006
-0.0019674
-0.00169156
-0.00142668
-0.00117687
-0.000946153
-0.000738373
-0.000557122
-0.000405655
-0.000286817
-0.000202972
-0.000155945
-0.000146977
-0.000176691
-0.000245071
-0.000351459
-0.000494575
-0.000672543
-0.000882941
-0.00112286
-0.00138899
-0.00167768
-0.00198506
-0.00230711
-0.00263976
-0.002979
-0.00332096
-0.00366194
-0.00399856
-0.00432775
-0.00464679
-0.00495338
-0.00524559
-0.00552193
-0.00578126
-0.00602284
-0.00624624
-0.00645135
-0.0066383
-0.00680746
-0.00695936
-0.00709466
-0.00721413
-0.00731858
-0.00740884
-0.00748573
-0.00755006
-0.00760257
-0.00764395
-0.00767485
-0.00769587
-0.00770763
-0.00771077
-0.007706
-0.00769434
-0.00767711
-0.0076534
-0.00762
-2.05101e-05
-3.81919e-07
8.05384e-06
8.07205e-06
1.32919e-06
-1.23004e-05
-3.27787e-05
-5.98686e-05
-9.32712e-05
-0.000132644
-0.000177617
-0.000227824
-0.00028292
-0.000342593
-0.000406584
-0.000474684
-0.000546745
-0.000622676
-0.000702439
-0.000786043
-0.000873543
-0.000965023
-0.00106059
-0.00116037
-0.00126449
-0.00137308
-0.00148625
-0.00160408
-0.00172665
-0.00185396
-0.00198601
-0.00212271
-0.00226394
-0.0024095
-0.00255912
-0.00271245
-0.00286905
-0.00302839
-0.00318985
-0.00335269
-0.00351608
-0.00367906
-0.00384056
-0.00399942
-0.00415436
-0.00430399
-0.00444685
-0.00458138
-0.00470596
-0.00481895
-0.00491866
-0.00500343
-0.00507162
-0.00512165
-0.00515205
-0.00516147
-0.00514876
-0.00511295
-0.0050533
-0.00496937
-0.00486102
-0.00472844
-0.00457218
-0.00439316
-0.00419269
-0.00397237
-0.00373464
-0.00348171
-0.00321647
-0.00294215
-0.00266222
-0.00238045
-0.00210077
-0.00182729
-0.00156415
-0.00131551
-0.00108543
-0.000877801
-0.000696268
-0.000544138
-0.000424311
-0.000339204
-0.000290692
-0.000280061
-0.00030797
-0.000374432
-0.00047881
-0.000619829
-0.000795612
-0.00100372
-0.00124123
-0.00150479
-0.00179072
-0.00209509
-0.00241389
-0.00274294
-0.00307826
-0.00341591
-0.00375222
-0.00408378
-0.00440754
-0.00472081
-0.00502132
-0.00530721
-0.00557705
-0.00582977
-0.0060647
-0.00628151
-0.00648015
-0.00666086
-0.00682407
-0.00697039
-0.00710054
-0.00721536
-0.0073157
-0.00740244
-0.00747645
-0.00753854
-0.00758948
-0.00762995
-0.00766058
-0.00768189
-0.00769437
-0.00769843
-0.00769446
-0.00768304
-0.00766488
-0.00763743
-0.00759507
-8.53833e-06
1.26363e-05
2.12434e-05
2.09513e-05
1.3743e-05
-3.35603e-07
-2.11263e-05
-4.83068e-05
-8.15246e-05
-0.000120412
-0.000164596
-0.000213715
-0.000267435
-0.000325464
-0.000387559
-0.000453537
-0.000523272
-0.000596696
-0.000673793
-0.000754599
-0.000839193
-0.000927685
-0.00102021
-0.00111692
-0.00121797
-0.00132352
-0.00143373
-0.0015487
-0.00166855
-0.00179334
-0.0019231
-0.00205781
-0.00219738
-0.00234168
-0.00249049
-0.00264351
-0.00280036
-0.00296057
-0.00312355
-0.00328862
-0.00345497
-0.00362168
-0.0037877
-0.00395187
-0.00411289
-0.00426937
-0.00441981
-0.00456261
-0.00469611
-0.00481858
-0.00492827
-0.00502342
-0.00510231
-0.00516327
-0.00520472
-0.00522521
-0.00522348
-0.00519847
-0.00514935
-0.00507557
-0.00497691
-0.00485349
-0.00470577
-0.00453463
-0.00434133
-0.00412746
-0.00389522
-0.00364701
-0.00338567
-0.00311439
-0.00283668
-0.0025563
-0.00227723
-0.00200361
-0.00173963
-0.0014895
-0.00125737
-0.00104719
-0.000862697
-0.000707277
-0.000583916
-0.000495115
-0.000442832
-0.000428425
-0.00045262
-0.000515482
-0.000616414
-0.000754166
-0.000926869
-0.00113208
-0.00136684
-0.00162777
-0.00191113
-0.00221295
-0.0025291
-0.00285541
-0.00318777
-0.0035222
-0.00385496
-0.00418261
-0.00450208
-0.00481065
-0.00510608
-0.00538653
-0.00565059
-0.00589727
-0.00612596
-0.00633641
-0.00652867
-0.00670305
-0.00686007
-0.00700044
-0.00712497
-0.00723456
-0.00733015
-0.00741268
-0.00748306
-0.00754215
-0.00759073
-0.00762949
-0.007659
-0.00767974
-0.00769205
-0.00769614
-0.0076921
-0.00768014
-0.00766051
-0.0076294
-0.00757936
1.29224e-05
3.38208e-05
4.18892e-05
4.08786e-05
3.28957e-05
1.80984e-05
-3.26318e-06
-3.07942e-05
-6.40938e-05
-0.000102768
-0.000146435
-0.000194731
-0.00024733
-0.000303954
-0.000364381
-0.000428451
-0.000496062
-0.000567173
-0.000641801
-0.000720013
-0.00080192
-0.000887669
-0.000977433
-0.0010714
-0.00116978
-0.00127278
-0.00138057
-0.00149335
-0.00161127
-0.00173446
-0.00186299
-0.00199691
-0.0021362
-0.00228079
-0.00243052
-0.00258515
-0.00274436
-0.00290773
-0.00307472
-0.00324467
-0.00341679
-0.00359017
-0.00376377
-0.00393639
-0.00410671
-0.0042733
-0.00443458
-0.00458888
-0.00473445
-0.00486946
-0.00499206
-0.00510038
-0.00519257
-0.00526683
-0.00532148
-0.00535496
-0.00536587
-0.00535304
-0.00531556
-0.00525277
-0.00516438
-0.0050504
-0.00491126
-0.00474776
-0.00456116
-0.00435293
-0.00412527
-0.00388059
-0.00362173
-0.00335187
-0.00307453
-0.00279352
-0.00251285
-0.00223671
-0.00196936
-0.0017151
-0.00147815
-0.00126257
-0.0010722
-0.00091053
-0.000780669
-0.000685235
-0.000626297
-0.000605325
-0.00062314
-0.000679895
-0.000775062
-0.000907446
-0.00107521
-0.00127592
-0.00150661
-0.00176386
-0.00204389
-0.00234265
-0.00265594
-0.00297949
-0.0033091
-0.0036407
-0.00397047
-0.00429487
-0.00461077
-0.00491542
-0.00520653
-0.00548226
-0.00574121
-0.00598242
-0.00620533
-0.00640976
-0.00659583
-0.00676394
-0.00691471
-0.00704895
-0.00716755
-0.00727152
-0.00736188
-0.00743963
-0.00750577
-0.0075612
-0.00760672
-0.00764303
-0.00767069
-0.0076901
-0.0077015
-0.00770493
-0.00770022
-0.00768731
-0.0076661
-0.00763188
-0.00757593
4.39618e-05
6.33551e-05
7.01388e-05
6.7916e-05
5.87633e-05
4.29159e-05
2.06946e-05
-7.45423e-06
-4.1095e-05
-7.98121e-05
-0.000123211
-0.00017093
-0.00022265
-0.000278109
-0.000337107
-0.000399506
-0.000465234
-0.000534285
-0.000606713
-0.000682624
-0.000762174
-0.000845555
-0.00093299
-0.00102473
-0.00112102
-0.00122213
-0.00132833
-0.00143984
-0.0015569
-0.0016797
-0.0018084
-0.00194312
-0.00208391
-0.00223076
-0.00238359
-0.00254222
-0.00270639
-0.00287571
-0.00304967
-0.00322764
-0.00340883
-0.00359232
-0.00377703
-0.00396171
-0.00414499
-0.00432533
-0.00450108
-0.00467045
-0.00483156
-0.00498247
-0.00512117
-0.00524567
-0.00535397
-0.00544414
-0.00551436
-0.00556294
-0.00558836
-0.00558935
-0.00556488
-0.0055142
-0.00543693
-0.00533303
-0.00520282
-0.00504709
-0.00486703
-0.00466408
-0.00444041
-0.00419844
-0.00394096
-0.0036712
-0.00339269
-0.00310925
-0.00282495
-0.00254404
-0.00227085
-0.00200977
-0.00176512
-0.00154108
-0.00134161
-0.00117035
-0.00103054
-0.000924958
-0.000855822
-0.000824747
-0.000832694
-0.000879945
-0.000966083
-0.00109
-0.00124993
-0.00144349
-0.00166771
-0.00191918
-0.00219407
-0.00248827
-0.00279751
-0.0031174
-0.00344365
-0.00377207
-0.0040987
-0.00441993
-0.0047325
-0.00503359
-0.00532083
-0.00559234
-0.00584669
-0.00608294
-0.00630053
-0.00649933
-0.00667952
-0.00684158
-0.00698621
-0.00711432
-0.0072269
-0.00732505
-0.00740988
-0.00748249
-0.00754395
-0.00759521
-0.00763713
-0.00767043
-0.00769564
-0.00771313
-0.00772306
-0.00772535
-0.00771965
-0.00770565
-0.00768306
-0.00764655
-0.0075866
8.44265e-05
0.00010121
0.000105985
0.000102028
9.12783e-05
7.40293e-05
5.06517e-05
2.16199e-05
-1.26099e-05
-5.16081e-05
-9.49746e-05
-0.000142351
-0.000193431
-0.000247974
-0.0003058
-0.000366802
-0.000430945
-0.000498261
-0.000568849
-0.000642865
-0.000720518
-0.00080206
-0.000887777
-0.000977981
-0.001073
-0.00117318
-0.00127884
-0.00139032
-0.00150793
-0.00163194
-0.0017626
-0.00190012
-0.00204462
-0.00219617
-0.00235477
-0.00252029
-0.00269252
-0.00287109
-0.00305553
-0.00324518
-0.00343925
-0.00363676
-0.00383656
-0.00403735
-0.00423762
-0.00443575
-0.00462992
-0.00481823
-0.00499864
-0.00516904
-0.00532729
-0.0054712
-0.00559865
-0.00570756
-0.00579594
-0.00586199
-0.00590407
-0.00592077
-0.00591097
-0.00587384
-0.0058089
-0.00571603
-0.00559551
-0.00544802
-0.0052746
-0.00507706
-0.00485718
-0.00461741
-0.00436056
-0.00408985
-0.00380883
-0.00352135
-0.00323152
-0.00294363
-0.00266211
-0.00239142
-0.002136
-0.00190016
-0.00168801
-0.00150335
-0.00134961
-0.00122973
-0.00114613
-0.00110062
-0.00109435
-0.00112777
-0.00120063
-0.00131196
-0.00146012
-0.00164279
-0.00185708
-0.0020996
-0.00236649
-0.00265363
-0.00295664
-0.00327107
-0.00359248
-0.00391658
-0.00423927
-0.00455678
-0.00486574
-0.0051632
-0.00544668
-0.00571422
-0.00596434
-0.00619603
-0.00640874
-0.00660234
-0.00677706
-0.00693343
-0.00707221
-0.00719438
-0.00730105
-0.0073934
-0.00747264
-0.00753997
-0.00759651
-0.00764332
-0.00768129
-0.00771118
-0.00773354
-0.00774872
-0.00775684
-0.00775771
-0.00775087
-0.00773589
-0.00771228
-0.00767441
-0.00761235
0.000134029
0.000147208
0.000149289
0.000143087
0.000130321
0.000111327
8.65039e-05
5.63354e-05
2.12848e-05
-1.82161e-05
-6.1772e-05
-0.000109037
-0.000159726
-0.000213618
-0.000270566
-0.000330498
-0.000393421
-0.000459416
-0.000528635
-0.000601295
-0.000677669
-0.000758082
-0.000842896
-0.000932506
-0.00102733
-0.00112779
-0.00123433
-0.00134736
-0.0014673
-0.00159452
-0.00172937
-0.00187214
-0.00202306
-0.00218227
-0.00234982
-0.00252565
-0.00270956
-0.00290123
-0.00310014
-0.00330564
-0.00351685
-0.00373274
-0.00395205
-0.00417336
-0.00439504
-0.0046153
-0.00483217
-0.00504356
-0.00524727
-0.00544101
-0.00562246
-0.00578928
-0.00593915
-0.00606985
-0.00617926
-0.00626543
-0.00632659
-0.00636122
-0.00636811
-0.00634631
-0.00629527
-0.00621478
-0.00610507
-0.00596674
-0.00580081
-0.0056089
-0.00539288
-0.00515513
-0.00489845
-0.00462601
-0.00434136
-0.00404838
-0.00375119
-0.00345415
-0.00316173
-0.00287852
-0.00260905
-0.00235779
-0.00212899
-0.00192666
-0.00175442
-0.00161545
-0.0015124
-0.00144732
-0.00142158
-0.0014359
-0.00149023
-0.00158382
-0.00171517
-0.00188215
-0.00208195
-0.00231123
-0.00256621
-0.00284271
-0.00313633
-0.00344253
-0.00375677
-0.0040746
-0.00439179
-0.0047044
-0.0050089
-0.00530219
-0.00558165
-0.00584517
-0.00609118
-0.0063186
-0.00652682
-0.00671568
-0.00688539
-0.00703652
-0.00716989
-0.00728653
-0.00738761
-0.00747442
-0.00754824
-0.00761036
-0.00766201
-0.0077043
-0.0077382
-0.00776452
-0.00778383
-0.0077965
-0.00780263
-0.007802
-0.00779406
-0.0077783
-0.00775414
-0.00771585
-0.00765341
0.000192385
0.000201047
0.000199797
0.000190871
0.000175696
0.000154635
0.000128099
9.65624e-05
6.048e-05
2.02691e-05
-2.36931e-05
-7.10833e-05
-0.000121641
-0.00017518
-0.000231588
-0.00029084
-0.000352995
-0.000418189
-0.00048664
-0.000558635
-0.000634527
-0.000714726
-0.000799688
-0.000889905
-0.000985898
-0.0010882
-0.00119736
-0.00131391
-0.00143838
-0.00157126
-0.001713
-0.00186398
-0.00202452
-0.00219485
-0.00237506
-0.00256514
-0.00276489
-0.00297399
-0.00319188
-0.00341783
-0.00365091
-0.00388994
-0.00413355
-0.00438015
-0.00462795
-0.00487497
-0.00511906
-0.00535793
-0.00558918
-0.00581034
-0.0060189
-0.00621232
-0.00638815
-0.00654399
-0.00667757
-0.00678681
-0.00686982
-0.00692496
-0.0069509
-0.00694662
-0.00691145
-0.00684511
-0.00674773
-0.00661984
-0.00646243
-0.00627695
-0.00606527
-0.00582972
-0.00557301
-0.00529832
-0.00500915
-0.00470937
-0.00440312
-0.00409478
-0.00378891
-0.00349016
-0.00320319
-0.0029326
-0.00268286
-0.00245815
-0.00226234
-0.00209888
-0.00197068
-0.0018801
-0.00182881
-0.00181783
-0.00184739
-0.00191702
-0.00202547
-0.00217081
-0.00235041
-0.00256108
-0.00279909
-0.00306031
-0.00334032
-0.00363454
-0.0039383
-0.00424704
-0.00455637
-0.00486219
-0.00516075
-0.00544878
-0.00572348
-0.00598258
-0.00622434
-0.00644757
-0.00665155
-0.00683606
-0.00700126
-0.0071477
-0.00727621
-0.00738786
-0.00748388
-0.0075656
-0.0076344
-0.00769165
-0.00773865
-0.0077766
-0.00780655
-0.00782935
-0.00784564
-0.00785581
-0.00785997
-0.0078579
-0.00784903
-0.00783281
-0.0078086
-0.00777077
-0.0077095
0.000259018
0.000262315
0.000257145
0.000245058
0.000227117
0.0002037
0.000175215
0.000142107
0.0001048
6.36822e-05
1.90987e-05
-2.86611e-05
-7.93742e-05
-0.000132895
-0.000189163
-0.000248207
-0.000310143
-0.00037518
-0.00044361
-0.000515806
-0.000592216
-0.000673348
-0.000759769
-0.000852085
-0.000950939
-0.00105699
-0.00117091
-0.00129337
-0.00142502
-0.00156646
-0.00171827
-0.00188092
-0.00205481
-0.00224024
-0.00243734
-0.00264611
-0.00286635
-0.00309768
-0.00333949
-0.00359094
-0.00385097
-0.00411826
-0.00439127
-0.00466822
-0.00494712
-0.00522578
-0.00550184
-0.00577281
-0.00603607
-0.00628895
-0.00652875
-0.00675275
-0.00695833
-0.00714293
-0.00730414
-0.00743973
-0.0075477
-0.00762628
-0.00767404
-0.00768983
-0.0076729
-0.00762286
-0.00753974
-0.00742398
-0.00727648
-0.00709859
-0.00689209
-0.00665922
-0.00640265
-0.00612545
-0.00583109
-0.00552342
-0.00520656
-0.0048849
-0.00456305
-0.00424573
-0.00393772
-0.00364377
-0.00336852
-0.0031164
-0.00289153
-0.00269765
-0.00253802
-0.00241532
-0.00233161
-0.00228825
-0.00228586
-0.00232431
-0.00240269
-0.00251935
-0.00267193
-0.00285742
-0.00307226
-0.00331241
-0.00357349
-0.00385088
-0.00413986
-0.00443575
-0.00473399
-0.00503029
-0.00532073
-0.00560179
-0.00587047
-0.00612428
-0.0063613
-0.00658013
-0.00677994
-0.00696036
-0.00712148
-0.00726378
-0.00738806
-0.00749538
-0.007587
-0.00766428
-0.00772866
-0.00778158
-0.00782442
-0.00785844
-0.00788478
-0.00790434
-0.00791785
-0.00792572
-0.00792811
-0.00792482
-0.00791531
-0.007899
-0.00787526
-0.00783869
-0.00777991
0.000333357
0.000330493
0.000320856
0.000305214
0.000284191
0.000258169
0.000227534
0.000192675
0.000153971
0.000111757
6.63331e-05
1.79408e-05
-3.3248e-05
-8.71428e-05
-0.000143742
-0.000203139
-0.000265525
-0.000331188
-0.000400513
-0.000473971
-0.00055212
-0.000635587
-0.000725063
-0.000821289
-0.000925044
-0.00103713
-0.00115837
-0.00128956
-0.00143149
-0.00158489
-0.00175043
-0.00192871
-0.00212019
-0.0023252
-0.0025439
-0.00277628
-0.0030221
-0.00328089
-0.00355194
-0.00383428
-0.00412668
-0.00442764
-0.00473542
-0.00504801
-0.00536321
-0.0056786
-0.0059916
-0.00629947
-0.00659941
-0.00688853
-0.00716392
-0.00742271
-0.00766209
-0.00787934
-0.00807192
-0.00823745
-0.0083738
-0.00847909
-0.00855174
-0.00859052
-0.00859454
-0.00856331
-0.00849673
-0.00839514
-0.00825932
-0.0080905
-0.00789035
-0.00766099
-0.00740499
-0.00712535
-0.00682544
-0.00650904
-0.00618025
-0.00584344
-0.00550325
-0.00516444
-0.0048319
-0.00451052
-0.00420514
-0.0039204
-0.00366073
-0.00343018
-0.00323237
-0.00307039
-0.00294673
-0.00286318
-0.00282081
-0.00281994
-0.00286006
-0.00293992
-0.00305752
-0.00321013
-0.00339442
-0.00360653
-0.00384218
-0.00409678
-0.00436558
-0.00464381
-0.00492676
-0.00520997
-0.00548928
-0.00576095
-0.00602171
-0.00626883
-0.00650013
-0.00671402
-0.00690944
-0.00708584
-0.00724318
-0.00738182
-0.00750249
-0.00760619
-0.00769417
-0.00776779
-0.00782853
-0.00787786
-0.00791721
-0.00794793
-0.00797121
-0.00798804
-0.00799919
-0.00800515
-0.00800612
-0.00800197
-0.00799218
-0.00797621
-0.00795345
-0.00791884
-0.00786362
0.000414726
0.000404921
0.000390335
0.000370782
0.000346405
0.000317572
0.00028462
0.000247863
0.000207596
0.000164098
0.000117601
6.8284e-05
1.62515e-05
-3.84733e-05
-9.59606e-05
-0.000156382
-0.000220017
-0.000287248
-0.000358567
-0.000434563
-0.000515918
-0.000603396
-0.00069783
-0.000800113
-0.00091118
-0.00103199
-0.00116351
-0.0013067
-0.00146248
-0.0016317
-0.00181516
-0.00201351
-0.00222727
-0.00245681
-0.00270228
-0.0029636
-0.00324047
-0.00353231
-0.00383825
-0.00415716
-0.0044876
-0.00482787
-0.00517598
-0.0055297
-0.00588657
-0.00624394
-0.00659898
-0.00694875
-0.0072902
-0.00762024
-0.00793578
-0.00823375
-0.00851118
-0.00876521
-0.00899312
-0.0091924
-0.00936079
-0.00949629
-0.00959718
-0.00966211
-0.00969006
-0.00968041
-0.00963293
-0.00954783
-0.00942574
-0.00926776
-0.00907543
-0.00885073
-0.00859609
-0.00831437
-0.00800887
-0.00768325
-0.00734154
-0.00698807
-0.00662746
-0.00626452
-0.0059042
-0.00555152
-0.00521149
-0.00488899
-0.00458874
-0.00431513
-0.00407219
-0.00386344
-0.00369186
-0.00355974
-0.0034687
-0.00341956
-0.00341236
-0.00344634
-0.00351993
-0.00363082
-0.00377602
-0.00395193
-0.00415445
-0.00437911
-0.00462118
-0.00487582
-0.00513824
-0.00540378
-0.00566806
-0.00592708
-0.0061773
-0.00641568
-0.00663978
-0.0068477
-0.00703813
-0.00721031
-0.00736396
-0.00749929
-0.00761689
-0.00771767
-0.0078028
-0.00787362
-0.00793159
-0.00797821
-0.00801493
-0.00804315
-0.00806412
-0.00807889
-0.0080883
-0.0080929
-0.00809296
-0.0080884
-0.00807878
-0.0080636
-0.00804231
-0.00801024
-0.0079594
0.000502309
0.000484836
0.000464828
0.000441063
0.000413107
0.000381295
0.00034589
0.000307097
0.00026512
0.000220146
0.000172323
0.000121747
6.84448e-05
1.2356e-05
-4.66762e-05
-0.000108917
-0.000174747
-0.000244664
-0.00031928
-0.00039932
-0.000485609
-0.000579065
-0.000680685
-0.000791526
-0.000912693
-0.00104531
-0.00119052
-0.00134942
-0.00152307
-0.00171245
-0.00191844
-0.00214175
-0.00238295
-0.00264237
-0.00292014
-0.0032161
-0.00352982
-0.00386057
-0.0042073
-0.00456867
-0.00494302
-0.00532839
-0.00572254
-0.00612299
-0.00652702
-0.00693172
-0.00733403
-0.00773076
-0.00811865
-0.00849441
-0.00885474
-0.00919641
-0.00951626
-0.00981127
-0.0100786
-0.0103156
-0.0105198
-0.0106891
-0.0108217
-0.0109161
-0.010971
-0.0109859
-0.0109602
-0.0108941
-0.010788
-0.0106429
-0.0104601
-0.0102415
-0.0099893
-0.00970626
-0.00939551
-0.00906057
-0.00870538
-0.00833419
-0.00795156
-0.00756229
-0.00717138
-0.00678394
-0.00640512
-0.00604005
-0.00569369
-0.00537082
-0.00507585
-0.0048128
-0.00458516
-0.00439581
-0.00424696
-0.00414006
-0.00407577
-0.00405393
-0.00407357
-0.00413288
-0.00422933
-0.00435971
-0.0045202
-0.00470654
-0.0049141
-0.00513807
-0.00537356
-0.00561577
-0.00586012
-0.00610232
-0.00633854
-0.00656542
-0.00678016
-0.00698055
-0.00716494
-0.00733229
-0.00748205
-0.0076142
-0.00772913
-0.00782759
-0.00791065
-0.00797955
-0.00803569
-0.00808056
-0.00811562
-0.00814229
-0.00816184
-0.00817538
-0.00818381
-0.00818775
-0.00818753
-0.00818312
-0.00817418
-0.00816027
-0.00814087
-0.00811182
-0.00806594
0.000595145
0.000569297
0.000543444
0.000515205
0.000483489
0.000448565
0.000410596
0.000369653
0.000325814
0.000279154
0.000229717
0.000177499
0.00012243
6.43519e-05
3.0048e-06
-6.19867e-05
-0.000131122
-0.00020503
-0.000284463
-0.000370299
-0.000463526
-0.000565234
-0.000676597
-0.000798857
-0.000933298
-0.00108122
-0.00124393
-0.00142268
-0.00161867
-0.00183296
-0.00206651
-0.00232008
-0.00259423
-0.00288925
-0.00320518
-0.00354174
-0.00389835
-0.00427408
-0.00466767
-0.00507753
-0.00550175
-0.00593809
-0.00638405
-0.00683687
-0.00729357
-0.00775098
-0.00820578
-0.00865456
-0.00909382
-0.00952008
-0.00992983
-0.0103197
-0.0106863
-0.0110264
-0.0113372
-0.0116157
-0.0118595
-0.0120662
-0.0122339
-0.012361
-0.0124461
-0.0124883
-0.0124872
-0.0124427
-0.0123549
-0.0122248
-0.0120535
-0.0118426
-0.0115943
-0.011311
-0.0109958
-0.0106519
-0.0102832
-0.00989384
-0.00948819
-0.00907105
-0.0086474
-0.00822241
-0.00780134
-0.00738949
-0.0069921
-0.00661425
-0.00626078
-0.0059362
-0.00564455
-0.00538934
-0.00517345
-0.00499902
-0.00486745
-0.0047793
-0.00473429
-0.00473128
-0.00476833
-0.00484275
-0.00495115
-0.00508958
-0.00525362
-0.00543857
-0.00563954
-0.00585162
-0.00607002
-0.00629022
-0.00650805
-0.0067198
-0.0069223
-0.00711293
-0.00728969
-0.00745115
-0.00759644
-0.00772524
-0.00783768
-0.00793428
-0.00801593
-0.00808373
-0.008139
-0.00818314
-0.00821757
-0.00824371
-0.00826285
-0.00827613
-0.00828446
-0.00828854
-0.00828874
-0.00828513
-0.00827742
-0.00826525
-0.00824816
-0.00822248
-0.0081819
0.000692098
0.000657202
0.00062512
0.000592184
0.000556565
0.000518429
0.000477809
0.000434605
0.000388744
0.000340163
0.00028878
0.000234474
0.000177059
0.000116262
5.17028e-05
-1.71213e-05
-9.08479e-05
-0.000170253
-0.000256253
-0.000349893
-0.000452345
-0.000564889
-0.000688891
-0.000825787
-0.000977051
-0.00114417
-0.0013286
-0.00153174
-0.0017549
-0.00199925
-0.00226577
-0.00255523
-0.00286814
-0.00320474
-0.00356491
-0.00394824
-0.00435392
-0.00478082
-0.00522741
-0.00569183
-0.00617189
-0.00666508
-0.00716858
-0.00767937
-0.00819418
-0.00870957
-0.00922198
-0.00972775
-0.0102232
-0.0107045
-0.0111682
-0.0116104
-0.0120279
-0.0124172
-0.0127752
-0.0130989
-0.0133856
-0.0136331
-0.0138391
-0.0140018
-0.0141199
-0.0141924
-0.0142185
-0.0141979
-0.0141308
-0.0140179
-0.0138602
-0.0136589
-0.0134161
-0.0131341
-0.0128155
-0.0124636
-0.012082
-0.0116746
-0.0112457
-0.0108
-0.0103423
-0.00987791
-0.00941206
-0.00895018
-0.00849772
-0.00806007
-0.00764245
-0.00724983
-0.00688683
-0.00655759
-0.00626571
-0.00601411
-0.00580501
-0.00563978
-0.00551899
-0.00544229
-0.00540851
-0.0054156
-0.00546078
-0.00554055
-0.00565086
-0.0057872
-0.00594479
-0.00611868
-0.00630396
-0.00649584
-0.00668985
-0.00688191
-0.00706842
-0.00724634
-0.0074132
-0.00756716
-0.00770695
-0.00783185
-0.00794167
-0.00803664
-0.00811738
-0.00818482
-0.0082401
-0.0082845
-0.00831938
-0.00834608
-0.00836587
-0.0083799
-0.00838911
-0.00839422
-0.00839564
-0.00839351
-0.00838761
-0.00837765
-0.00836323
-0.00834118
-0.00830604
0.000791842
0.000747261
0.000708605
0.000670793
0.00063116
0.00058974
0.000546393
0.000500818
0.000452754
0.000401979
0.000348264
0.000291349
0.000230914
0.000166553
9.77482e-05
2.38485e-05
-5.59399e-05
-0.000142562
-0.000237111
-0.000340827
-0.000455079
-0.000581352
-0.000721219
-0.000876317
-0.00104831
-0.00123887
-0.0014496
-0.00168203
-0.00193757
-0.00221743
-0.00252261
-0.00285385
-0.00321158
-0.0035959
-0.00400655
-0.00444289
-0.00490389
-0.00538815
-0.00589386
-0.00641887
-0.00696066
-0.00751642
-0.00808306
-0.00865722
-0.00923536
-0.00981378
-0.0103886
-0.0109561
-0.0115121
-0.0120528
-0.0125744
-0.013073
-0.0135449
-0.0139868
-0.0143953
-0.0147674
-0.0151001
-0.0153911
-0.0156381
-0.0158392
-0.0159928
-0.0160979
-0.0161534
-0.0161592
-0.0161151
-0.0160215
-0.0158792
-0.0156896
-0.0154542
-0.0151751
-0.0148549
-0.0144964
-0.0141031
-0.0136786
-0.0132271
-0.0127531
-0.0122612
-0.0117566
-0.0112447
-0.0107307
-0.0102205
-0.00971943
-0.0092332
-0.00876719
-0.00832653
-0.00791602
-0.00753998
-0.00720217
-0.00690566
-0.00665277
-0.00644501
-0.00628299
-0.00616643
-0.00609415
-0.00606411
-0.00607346
-0.00611866
-0.00619559
-0.00629967
-0.00642605
-0.00656975
-0.0067258
-0.00688943
-0.00705618
-0.007222
-0.00738338
-0.00753736
-0.00768157
-0.00781426
-0.00793427
-0.00804097
-0.00813424
-0.00821437
-0.00828201
-0.00833807
-0.00838367
-0.00842001
-0.00844835
-0.0084699
-0.00848575
-0.00849685
-0.00850391
-0.00850739
-0.00850746
-0.00850397
-0.00849668
-0.00848525
-0.00846698
-0.00843723
0.000892847
0.000837986
0.000792455
0.000749623
0.0007059
0.000661143
0.000614999
0.000566926
0.000516452
0.000463164
0.000406664
0.000346534
0.000282301
0.000213406
0.000139173
5.87847e-05
-2.87288e-05
-0.000124501
-0.000229825
-0.00034615
-0.00047506
-0.000618257
-0.00077753
-0.000954718
-0.00115168
-0.00137025
-0.00161218
-0.00187911
-0.00217249
-0.00249357
-0.00284333
-0.00322241
-0.00363113
-0.00406941
-0.0045368
-0.00503241
-0.00555492
-0.00610264
-0.00667345
-0.00726487
-0.00787407
-0.0084979
-0.00913295
-0.00977556
-0.0104219
-0.011068
-0.0117097
-0.0123429
-0.0129634
-0.0135672
-0.0141501
-0.0147082
-0.0152378
-0.0157351
-0.0161967
-0.0166195
-0.0170007
-0.0173374
-0.0176275
-0.0178689
-0.01806
-0.0181995
-0.0182865
-0.0183204
-0.0183011
-0.0182288
-0.018104
-0.017928
-0.017702
-0.0174279
-0.017108
-0.0167449
-0.0163418
-0.015902
-0.0154294
-0.0149283
-0.0144032
-0.013859
-0.013301
-0.0127345
-0.0121652
-0.0115988
-0.0110411
-0.0104979
-0.00997483
-0.00947723
-0.00901015
-0.00857817
-0.0081853
-0.00783485
-0.00752938
-0.00727057
-0.00705922
-0.00689516
-0.00677731
-0.00670368
-0.00667144
-0.00667702
-0.00671627
-0.00678454
-0.00687692
-0.00698834
-0.00711379
-0.00724845
-0.00738783
-0.00752789
-0.00766512
-0.00779658
-0.00791995