/*--------------------------------*- C++ -*----------------------------------*\
| =========                 |                                                 |
| \\      /  F ield         | OpenFOAM: The Open Source CFD Toolbox           |
|  \\    /   O peration     | Version:  2112                                  |
|   \\  /    A nd           | Website:  www.openfoam.com                      |
|    \\/     M anipulation  |                                                 |
\*---------------------------------------------------------------------------*/
FoamFile
{
    version     2.0;
    format      ascii;
    arch        "LSB;label=32;scalar=64";
    class       surfaceScalarField;
    location    "23";
    object      phi;
}
// * * * * * * * * * * * * * * * * * * * * * * * * * * * * * * * * * * * * * //

dimensions      [0 3 -1 0 0 0 0];

oriented        oriented;

internalField   nonuniform List<scalar> 
33024
(
-1.0891e-09
6.0832e-10
2.17621e-08
-2.2853e-08
6.79888e-08
-4.62264e-08
1.30159e-07
-6.21702e-08
2.01356e-07
-7.11975e-08
2.76026e-07
-7.46692e-08
3.49919e-07
-7.38939e-08
4.19908e-07
-6.99878e-08
4.83753e-07
-6.38451e-08
5.39914e-07
-5.61609e-08
5.87384e-07
-4.74701e-08
6.25565e-07
-3.81811e-08
6.54163e-07
-2.85982e-08
6.73101e-07
-1.89378e-08
6.82446e-07
-9.34496e-09
6.82349e-07
9.71832e-11
6.73002e-07
9.34753e-09
6.54584e-07
1.84175e-08
6.27243e-07
2.73413e-08
5.91063e-07
3.618e-08
5.46051e-07
4.50116e-08
4.92126e-07
5.39253e-08
4.29111e-07
6.3015e-08
3.56738e-07
7.23732e-08
2.7465e-07
8.20875e-08
1.82413e-07
9.2237e-08
7.9525e-08
1.02888e-07
-3.45697e-08
1.14095e-07
-1.60462e-07
1.25892e-07
-2.98764e-07
1.38302e-07
-4.50088e-07
1.51325e-07
-6.15037e-07
1.64948e-07
-7.94176e-07
1.79139e-07
-9.88027e-07
1.93851e-07
-1.19704e-06
2.09017e-07
-1.4216e-06
2.24556e-07
-1.66197e-06
2.40371e-07
-1.91832e-06
2.56348e-07
-2.19068e-06
2.7236e-07
-2.47894e-06
2.8826e-07
-2.78283e-06
3.03891e-07
-3.10191e-06
3.19079e-07
-3.43554e-06
3.33637e-07
-3.78291e-06
3.47368e-07
-4.14298e-06
3.60062e-07
-4.51448e-06
3.71502e-07
-4.89594e-06
3.81464e-07
-5.28566e-06
3.89721e-07
-5.68171e-06
3.96043e-07
-6.08191e-06
4.00205e-07
-6.4839e-06
4.01987e-07
-6.88507e-06
4.01176e-07
-7.28265e-06
3.97575e-07
-7.67365e-06
3.91001e-07
-8.05494e-06
3.81294e-07
-8.42326e-06
3.68317e-07
-8.77522e-06
3.5196e-07
-9.10737e-06
3.32148e-07
-9.41621e-06
3.08838e-07
-9.69823e-06
2.82027e-07
-9.94999e-06
2.51753e-07
-1.01681e-05
2.18098e-07
-1.03493e-05
1.81192e-07
-1.04905e-05
1.41211e-07
-1.05889e-05
9.83886e-08
-1.06419e-05
5.29979e-08
-1.06474e-05
5.53713e-09
-1.06032e-05
-4.42048e-08
-1.05081e-05
-9.50896e-08
-1.03611e-05
-1.47003e-07
-1.01617e-05
-1.99391e-07
-9.91002e-06
-2.51704e-07
-9.60665e-06
-3.03368e-07
-9.25286e-06
-3.53786e-07
-8.85052e-06
-4.02349e-07
-8.40207e-06
-4.48442e-07
-7.91062e-06
-4.91458e-07
-7.37981e-06
-5.30808e-07
-6.81388e-06
-5.65932e-07
-6.21756e-06
-5.96313e-07
-5.59608e-06
-6.21489e-07
-4.95501e-06
-6.41064e-07
-4.30029e-06
-6.54723e-07
-3.63805e-06
-6.62237e-07
-2.97458e-06
-6.63473e-07
-2.31617e-06
-6.58404e-07
-1.66907e-06
-6.47106e-07
-1.0393e-06
-6.29768e-07
-4.32619e-07
-6.0668e-07
1.4562e-07
-5.78239e-07
6.90558e-07
-5.44938e-07
1.19789e-06
-5.07328e-07
1.66395e-06
-4.6606e-07
2.08577e-06
-4.21825e-07
2.46112e-06
-3.75348e-07
2.7885e-06
-3.27377e-07
3.06715e-06
-2.78655e-07
3.29706e-06
-2.29909e-07
3.47889e-06
-1.8183e-07
3.61394e-06
-1.35054e-07
3.7041e-06
-9.01581e-08
3.75174e-06
-4.76399e-08
3.75966e-06
-7.91627e-09
3.73097e-06
2.86862e-08
3.66904e-06
6.19273e-08
3.57739e-06
9.16586e-08
3.45957e-06
1.17816e-07
3.31916e-06
1.40413e-07
3.15962e-06
1.59538e-07
2.98428e-06
1.75338e-07
2.79627e-06
1.88013e-07
2.59847e-06
1.97798e-07
2.39352e-06
2.04952e-07
2.18377e-06
2.09742e-07
1.97135e-06
2.1242e-07
1.75815e-06
2.13208e-07
1.54588e-06
2.1227e-07
1.33619e-06
2.09685e-07
1.13077e-06
2.05419e-07
9.31481e-07
1.99291e-07
7.40544e-07
1.90937e-07
5.60763e-07
1.79781e-07
3.95753e-07
1.6501e-07
2.50168e-07
1.45585e-07
1.29812e-07
1.20357e-07
4.137e-08
8.84416e-08
-8.82045e-09
5.01905e-08
-1.87198e-08
9.89941e-09
-1.87198e-08
2.26448e-08
-2.20381e-08
9.69511e-08
-9.71584e-08
2.14681e-07
-1.63958e-07
3.63752e-07
-2.11242e-07
5.31515e-07
-2.38959e-07
7.06562e-07
-2.49717e-07
8.79375e-07
-2.46707e-07
1.0424e-06
-2.33009e-07
1.18985e-06
-2.11301e-07
1.31749e-06
-1.83799e-07
1.42231e-06
-1.52291e-07
1.50231e-06
-1.1818e-07
1.55625e-06
-8.25389e-08
1.58347e-06
-4.61528e-08
1.58368e-06
-9.5614e-09
1.55689e-06
2.68899e-08
1.50318e-06
6.30523e-08
1.4227e-06
9.89006e-08
1.31551e-06
1.34529e-07
1.18157e-06
1.7012e-07
1.02067e-06
2.05915e-07
8.324e-07
2.42197e-07
6.1615e-07
2.79265e-07
3.71107e-07
3.17416e-07
9.62648e-08
3.5693e-07
-2.09552e-07
3.98053e-07
-5.47655e-07
4.40991e-07
-9.19453e-07
4.85894e-07
-1.32642e-06
5.32854e-07
-1.77002e-06
5.81902e-07
-2.2517e-06
6.33004e-07
-2.77281e-06
6.8606e-07
-3.33457e-06
7.40902e-07
-3.93802e-06
7.97303e-07
-4.58397e-06
8.54968e-07
-5.27296e-06
9.13543e-07
-6.0052e-06
9.72612e-07
-6.78056e-06
1.0317e-06
-7.59849e-06
1.09029e-06
-8.45802e-06
1.14779e-06
-9.35769e-06
1.20356e-06
-1.02956e-05
1.25695e-06
-1.12691e-05
1.30721e-06
-1.22754e-05
1.35362e-06
-1.33107e-05
1.39538e-06
-1.43709e-05
1.43171e-06
-1.54512e-05
1.4618e-06
-1.65464e-05
1.48485e-06
-1.76504e-05
1.50007e-06
-1.87569e-05
1.50671e-06
-1.9859e-05
1.50404e-06
-2.09492e-05
1.49139e-06
-2.20197e-05
1.46814e-06
-2.30625e-05
1.43378e-06
-2.40691e-05
1.38784e-06
-2.50307e-05
1.33e-06
-2.59388e-05
1.26001e-06
-2.67844e-05
1.17776e-06
-2.75588e-05
1.08327e-06
-2.82535e-05
9.767e-07
-2.88601e-05
8.58343e-07
-2.93706e-05
7.28653e-07
-2.97777e-05
5.88233e-07
-3.00743e-05
4.37846e-07
-3.02544e-05
2.78429e-07
-3.03125e-05
1.11113e-07
-3.0244e-05
-6.29055e-08
-3.00456e-05
-2.42627e-07
-2.97147e-05
-4.26003e-07
-2.92501e-05
-6.11608e-07
-2.86518e-05
-7.97704e-07
-2.7921e-05
-9.82448e-07
-2.70605e-05
-1.16393e-06
-2.60741e-05
-1.34017e-06
-2.49672e-05
-1.5092e-06
-2.37467e-05
-1.66902e-06
-2.24204e-05
-1.81768e-06
-2.09979e-05
-1.95331e-06
-1.94897e-05
-2.07413e-06
-1.79075e-05
-2.17851e-06
-1.6264e-05
-2.26501e-06
-1.45727e-05
-2.33236e-06
-1.28479e-05
-2.37959e-06
-1.11041e-05
-2.40597e-06
-9.35651e-06
-2.41108e-06
-7.62009e-06
-2.39482e-06
-5.90979e-06
-2.35741e-06
-4.24013e-06
-2.29943e-06
-2.62505e-06
-2.22176e-06
-1.07764e-06
-2.12565e-06
3.90024e-07
-2.0126e-06
1.76711e-06
-1.88442e-06
3.04416e-06
-1.74311e-06
4.21324e-06
-1.5909e-06
5.26803e-06
-1.43014e-06
6.20392e-06
-1.26327e-06
7.01801e-06
-1.09275e-06
7.70911e-06
-9.21008e-07
8.27768e-06
-7.50403e-07
8.72577e-06
-5.83143e-07
9.05687e-06
-4.2126e-07
9.2758e-06
-2.66561e-07
9.38848e-06
-1.20604e-07
9.40184e-06
1.53316e-08
9.32351e-06
1.40253e-07
9.16171e-06
2.5346e-07
8.92498e-06
3.54541e-07
8.62204e-06
4.43354e-07
8.26157e-06
5.20013e-07
7.85205e-06
5.84852e-07
7.40168e-06
6.38392e-07
6.91818e-06
6.81296e-07
6.40881e-06
7.14324e-07
5.88028e-06
7.38269e-07
5.3388e-06
7.53899e-07
4.79013e-06
7.61881e-07
4.2397e-06
7.62701e-07
3.6928e-06
7.56578e-07
3.15485e-06
7.43373e-07
2.63164e-06
7.22495e-07
2.12976e-06
6.92824e-07
1.65688e-06
6.52663e-07
1.22212e-06
5.99762e-07
8.36215e-07
5.31493e-07
5.1121e-07
4.45361e-07
2.59439e-07
3.40213e-07
9.11254e-08
2.18505e-07
1.0219e-08
9.08058e-08
-8.50083e-09
4.62857e-08
-6.83234e-08
1.64273e-07
-2.15146e-07
3.36937e-07
-3.36622e-07
5.47621e-07
-4.21925e-07
7.80123e-07
-4.71462e-07
1.01972e-06
-4.89315e-07
1.25377e-06
-4.80751e-07
1.47185e-06
-4.51096e-07
1.66573e-06
-4.0518e-07
1.82909e-06
-3.4715e-07
1.95723e-06
-2.80438e-07
2.04685e-06
-2.07798e-07
2.09568e-06
-1.31373e-07
2.10229e-06
-5.27602e-08
2.06581e-06
2.69161e-08
1.98576e-06
1.0694e-07
1.86187e-06
1.86946e-07
1.69392e-06
2.66849e-07
1.48165e-06
3.46796e-07
1.22466e-06
4.2711e-07
9.22342e-07
5.08238e-07
5.73832e-07
5.90707e-07
1.78018e-07
6.75079e-07
-2.66474e-07
7.61908e-07
-7.61258e-07
8.51713e-07
-1.30814e-06
9.4494e-07
-1.9091e-06
1.04194e-06
-2.56617e-06
1.14297e-06
-3.28144e-06
1.24813e-06
-4.05694e-06
1.3574e-06
-4.89457e-06
1.47063e-06
-5.79602e-06
1.58752e-06
-6.76274e-06
1.70762e-06
-7.79579e-06
1.83035e-06
-8.89581e-06
1.95499e-06
-1.0063e-05
2.08069e-06
-1.12968e-05
2.20648e-06
-1.25964e-05
2.33126e-06
-1.39599e-05
2.45381e-06
-1.5385e-05
2.57283e-06
-1.68683e-05
2.68691e-06
-1.84059e-05
2.79455e-06
-1.99929e-05
2.8942e-06
-2.16235e-05
2.98426e-06
-2.32912e-05
3.06309e-06
-2.49886e-05
3.12903e-06
-2.67072e-05
3.18046e-06
-2.84381e-05
3.21576e-06
-3.01714e-05
3.23339e-06
-3.18966e-05
3.23189e-06
-3.36025e-05
3.20992e-06
-3.52774e-05
3.16627e-06
-3.69091e-05
3.09987e-06
-3.84852e-05
3.00987e-06
-3.9993e-05
2.89558e-06
-4.14195e-05
2.75657e-06
-4.27522e-05
2.59263e-06
-4.39782e-05
2.40382e-06
-4.50854e-05
2.19045e-06
-4.60618e-05
1.95313e-06
-4.68962e-05
1.69273e-06
-4.7578e-05
1.41042e-06
-4.80974e-05
1.10768e-06
-4.84458e-05
7.86252e-07
-4.86156e-05
4.48195e-07
-4.86006e-05
9.61095e-08
-4.83952e-05
-2.68273e-07
-4.79964e-05
-6.41451e-07
-4.7402e-05
-1.02042e-06
-4.66116e-05
-1.40199e-06
-4.56266e-05
-1.78273e-06
-4.445e-05
-2.15906e-06
-4.30866e-05
-2.52729e-06
-4.15431e-05
-2.88364e-06
-3.9828e-05
-3.22436e-06
-3.79513e-05
-3.54569e-06
-3.5925e-05
-3.84397e-06
-3.37626e-05
-4.11569e-06
-3.14792e-05
-4.35755e-06
-2.90912e-05
-4.56651e-06
-2.66164e-05
-4.73987e-06
-2.40734e-05
-4.87532e-06
-2.1482e-05
-4.971e-06
-1.88625e-05
-5.02554e-06
-1.62354e-05
-5.03813e-06
-1.36217e-05
-5.00855e-06
-1.10419e-05
-4.93716e-06
-8.51639e-06
-4.82496e-06
-6.06458e-06
-4.67357e-06
-3.70503e-06
-4.4852e-06
-1.45499e-06
-4.26264e-06
6.69769e-07
-4.00918e-06
2.65526e-06
-3.7286e-06
4.4894e-06
-3.42504e-06
6.16221e-06
-3.10295e-06
7.66594e-06
-2.76699e-06
8.9951e-06
-2.42191e-06
1.01466e-05
-2.07246e-06
1.11194e-05
-1.72327e-06
1.19151e-05
-1.37879e-06
1.2537e-05
-1.04315e-06
1.29905e-05
-7.20106e-07
1.32829e-05
-4.12961e-07
1.34227e-05
-1.24521e-07
1.342e-05
1.42944e-07
1.32858e-05
3.87734e-07
1.30316e-05
6.08693e-07
1.26697e-05
8.05216e-07
1.22126e-05
9.77204e-07
1.16724e-05
1.12502e-06
1.10614e-05
1.24942e-06
1.03912e-05
1.35146e-06
9.67309e-06
1.43244e-06
8.91763e-06
1.49373e-06
8.13483e-06
1.5367e-06
7.33417e-06
1.56254e-06
6.52475e-06
1.57213e-06
5.71548e-06
1.56584e-06
4.91543e-06
1.54343e-06
4.13412e-06
1.50381e-06
3.38194e-06
1.445e-06
2.67053e-06
1.36408e-06
2.013e-06
1.25729e-06
1.42399e-06
1.1205e-06
9.19239e-07
9.50117e-07
5.14354e-07
7.45097e-07
2.22701e-07
5.10158e-07
5.19466e-08
2.6156e-07
4.34457e-08
6.26388e-08
-1.30963e-07
2.12549e-07
-3.65056e-07
4.23763e-07
-5.47835e-07
6.7478e-07
-6.72944e-07
9.46396e-07
-7.43078e-07
1.22164e-06
-7.64555e-07
1.48591e-06
-7.45026e-07
1.72704e-06
-6.92225e-07
1.93515e-06
-6.13288e-07
2.10245e-06
-5.14452e-07
2.22298e-06
-4.00971e-07
2.29231e-06
-2.77124e-07
2.30722e-06
-1.46279e-07
2.26544e-06
-1.09846e-08
2.16541e-06
1.26946e-07
2.00601e-06
2.66337e-07
1.7864e-06
4.06555e-07
1.50583e-06
5.47419e-07
1.16352e-06
6.89111e-07
7.58531e-07
8.32097e-07
2.89732e-07
9.77038e-07
-2.44278e-07
1.12472e-06
-8.45173e-07
1.27597e-06
-1.51489e-06
1.43162e-06
-2.25559e-06
1.59242e-06
-3.06964e-06
1.75899e-06
-3.9595e-06
1.9318e-06
-4.92765e-06
2.11112e-06
-5.97653e-06
2.29701e-06
-7.10842e-06
2.48929e-06
-8.32533e-06
2.68754e-06
-9.62892e-06
2.89111e-06
-1.10204e-05
3.09908e-06
-1.25004e-05
3.31032e-06
-1.40688e-05
3.52344e-06
-1.5725e-05
3.73685e-06
-1.74672e-05
3.94875e-06
-1.92931e-05
4.15715e-06
-2.11992e-05
4.35987e-06
-2.31809e-05
4.55457e-06
-2.52328e-05
4.7388e-06
-2.73482e-05
4.90998e-06
-2.95195e-05
5.06547e-06
-3.17378e-05
5.20255e-06
-3.39932e-05
5.31853e-06
-3.62749e-05
5.41072e-06
-3.8571e-05
5.4765e-06
-4.08686e-05
5.51338e-06
-4.31542e-05
5.51899e-06
-4.54135e-05
5.49117e-06
-4.76315e-05
5.42798e-06
-4.9793e-05
5.32776e-06
-5.18823e-05
5.18911e-06
-5.38834e-05
5.01102e-06
-5.57806e-05
4.7928e-06
-5.75582e-05
4.53415e-06
-5.92007e-05
4.23517e-06
-6.06933e-05
3.89638e-06
-6.20216e-05
3.51873e-06
-6.3172e-05
3.1036e-06
-6.41321e-05
2.65278e-06
-6.48902e-05
2.16853e-06
-6.54361e-05
1.65352e-06
-6.57606e-05
1.11084e-06
-6.58564e-05
5.43919e-07
-6.57177e-05
-4.25978e-08
-6.53393e-05
-6.46604e-07
-6.47194e-05
-1.26141e-06
-6.38569e-05
-1.88293e-06
-6.27528e-05
-2.506e-06
-6.14103e-05
-3.12526e-06
-5.98342e-05
-3.7352e-06
-5.80313e-05
-4.33016e-06
-5.60105e-05
-4.90441e-06
-5.37826e-05
-5.45225e-06
-5.13603e-05
-5.96805e-06
-4.8758e-05
-6.44629e-06
-4.59919e-05
-6.88173e-06
-4.30801e-05
-7.26941e-06
-4.00418e-05
-7.60479e-06
-3.68978e-05
-7.88382e-06
-3.36701e-05
-8.103e-06
-3.03816e-05
-8.25951e-06
-2.70559e-05
-8.35126e-06
-2.37171e-05
-8.37693e-06
-2.03896e-05
-8.33609e-06
-1.70975e-05
-8.22917e-06
-1.3865e-05
-8.05755e-06
-1.0715e-05
-7.8235e-06
-7.67002e-06
-7.53021e-06
-4.75092e-06
-7.18174e-06
-1.97715e-06
-6.78294e-06
6.33663e-07
-6.33942e-06
3.06601e-06
-5.85739e-06
5.30659e-06
-5.34352e-06
7.34459e-06
-4.805e-06
9.17176e-06
-4.24908e-06
1.07825e-05
-3.68317e-06
1.21738e-05
-3.11457e-06
1.33453e-05
-2.55036e-06
1.42994e-05
-1.99724e-06
1.50407e-05
-1.46137e-06
1.5576e-05
-9.48298e-07
1.59144e-05
-4.62859e-07
1.60664e-05
-9.08189e-09
1.60442e-05
4.09867e-07
1.58613e-05
7.91645e-07
1.55317e-05
1.13479e-06
1.50703e-05
1.43863e-06
1.4492e-05
1.70327e-06
1.3812e-05
1.92945e-06
1.3045e-05
2.11845e-06
1.22055e-05
2.27194e-06
1.13075e-05
2.3918e-06
1.03642e-05
2.47995e-06
9.38867e-06
2.53807e-06
8.39337e-06
2.56742e-06
7.39065e-06
2.56857e-06
6.39292e-06
2.54115e-06
5.41308e-06
2.48365e-06
4.46479e-06
2.39329e-06
3.56286e-06
2.26601e-06
2.72343e-06
2.09672e-06
1.96399e-06
1.87994e-06
1.30303e-06
1.61108e-06
7.59276e-07
1.28885e-06
3.50545e-07
9.18888e-07
9.25884e-08
5.19516e-07
1.36034e-07
7.22057e-08
-2.03169e-07
2.41433e-07
-5.34283e-07
4.74775e-07
-7.81177e-07
7.46382e-07
-9.4455e-07
1.03441e-06
-1.0311e-06
1.32016e-06
-1.05031e-06
1.58775e-06
-1.01262e-06
1.82389e-06
-9.28365e-07
2.01767e-06
-8.07066e-07
2.16032e-06
-6.57101e-07
2.24493e-06
-4.85586e-07
2.26618e-06
-2.98373e-07
2.22001e-06
-1.00111e-07
2.10337e-06
1.05661e-07
1.91392e-06
3.16394e-07
1.64985e-06
5.30412e-07
1.30961e-06
7.46788e-07
8.91809e-07
9.65222e-07
3.95002e-07
1.18592e-06
-1.82367e-07
1.40947e-06
-8.42058e-07
1.63673e-06
-1.58607e-06
1.86873e-06
-2.41666e-06
2.10656e-06
-3.33629e-06
2.35126e-06
-4.34764e-06
2.60376e-06
-5.45346e-06
2.86481e-06
-6.65656e-06
3.1349e-06
-7.95966e-06
3.41422e-06
-9.36528e-06
3.70262e-06
-1.08756e-05
3.99963e-06
-1.24924e-05
4.30437e-06
-1.4217e-05
4.61563e-06
-1.60497e-05
4.93181e-06
-1.79903e-05
5.25095e-06
-2.00377e-05
5.57079e-06
-2.21895e-05
5.8887e-06
-2.44426e-05
6.20179e-06
-2.67923e-05
6.50689e-06
-2.9233e-05
6.8006e-06
-3.17578e-05
7.0793e-06
-3.43582e-05
7.33924e-06
-3.70248e-05
7.57656e-06
-3.97466e-05
7.78733e-06
-4.25117e-05
7.96761e-06
-4.53067e-05
8.11351e-06
-4.81173e-05
8.22128e-06
-5.09281e-05
8.28731e-06
-5.37229e-05
8.30823e-06
-5.64849e-05
8.28097e-06
-5.91965e-05
8.20278e-06
-6.18398e-05
8.07132e-06
-6.43968e-05
7.88469e-06
-6.68491e-05
7.64145e-06
-6.91788e-05
7.3407e-06
-7.1368e-05
6.98204e-06
-7.33995e-05
6.56565e-06
-7.52566e-05
6.09227e-06
-7.69235e-05
5.56324e-06
-7.83852e-05
4.98044e-06
-7.9628e-05
4.34635e-06
-8.06392e-05
3.66402e-06
-8.14077e-05
2.93702e-06
-8.19236e-05
2.16948e-06
-8.21789e-05
1.36606e-06
-8.21669e-05
5.31949e-07
-8.18822e-05
-3.27294e-07
-8.13226e-05
-1.20616e-06
-8.04864e-05
-2.09762e-06
-7.93743e-05
-2.99509e-06
-7.79887e-05
-3.89158e-06
-7.63342e-05
-4.77979e-06
-7.44171e-05
-5.65223e-06
-7.2246e-05
-6.50131e-06
-6.9831e-05
-7.31937e-06
-6.71845e-05
-8.09875e-06
-6.43206e-05
-8.83195e-06
-6.12553e-05
-9.51164e-06
-5.80062e-05
-1.01308e-05
-5.45927e-05
-1.06829e-05
-5.10358e-05
-1.11617e-05
-4.73578e-05
-1.15619e-05
-4.35821e-05
-1.18787e-05
-3.97334e-05
-1.21082e-05
-3.58372e-05
-1.22475e-05
-3.19194e-05
-1.22947e-05
-2.80065e-05
-1.2249e-05
-2.41248e-05
-1.21109e-05
-2.03006e-05
-1.18817e-05
-1.65596e-05
-1.15645e-05
-1.29267e-05
-1.11631e-05
-9.4255e-06
-1.06829e-05
-6.07838e-06
-1.01301e-05
-2.90582e-06
-9.51198e-06
7.3655e-08
-8.83686e-06
2.84388e-06
-8.11375e-06
5.39099e-06
-7.35211e-06
7.7039e-06
-6.56199e-06
9.77426e-06
-5.75352e-06
1.15966e-05
-4.93688e-06
1.31682e-05
-4.122e-06
1.44894e-05
-3.31843e-06
1.55631e-05
-2.5351e-06
1.6395e-05
-1.78018e-06
1.69931e-05
-1.06091e-06
1.73675e-05
-3.83523e-07
1.75305e-05
2.46888e-07
1.74958e-05
8.26381e-07
1.72784e-05
1.35218e-06
1.68943e-05
1.82265e-06
1.63604e-05
2.23724e-06
1.56935e-05
2.59633e-06
1.49108e-05
2.90112e-06
1.40293e-05
3.15342e-06
1.30657e-05
3.35541e-06
1.20363e-05
3.50937e-06
1.0957e-05
3.6174e-06
9.84331e-06
3.68107e-06
8.71076e-06
3.70112e-06
7.57482e-06
3.67709e-06
6.45133e-06
3.60714e-06
5.3568e-06
3.48781e-06
4.30873e-06
3.31408e-06
3.32578e-06
3.07967e-06
2.42789e-06
2.77783e-06
1.63621e-06
2.40276e-06
9.72985e-07
1.95207e-06
4.61532e-07
1.43034e-06
1.26977e-07
8.54072e-07
2.63011e-07
7.62082e-08
-2.79376e-07
2.52962e-07
-7.11038e-07
4.92797e-07
-1.02101e-06
7.66538e-07
-1.21829e-06
1.05023e-06
-1.31479e-06
1.32385e-06
-1.32394e-06
1.57066e-06
-1.25943e-06
1.77668e-06
-1.13438e-06
1.93035e-06
-9.60744e-07
2.0223e-06
-7.49047e-07
2.04495e-06
-5.08238e-07
1.99229e-06
-2.45708e-07
1.85953e-06
3.26437e-08
1.64289e-06
3.22299e-07
1.3393e-06
6.19986e-07
9.4618e-07
9.23534e-07
4.6125e-07
1.23172e-06
-1.17636e-07
1.54411e-06
-7.92631e-07
1.86091e-06
-1.56599e-06
2.18283e-06
-2.44014e-06
2.51088e-06
-3.4177e-06
2.84629e-06
-4.50149e-06
3.19034e-06
-5.69445e-06
3.54422e-06
-6.99964e-06
3.90896e-06
-8.42012e-06
4.28529e-06
-9.95882e-06
4.67359e-06
-1.16184e-05
5.07382e-06
-1.34013e-05
5.48546e-06
-1.53091e-05
5.90749e-06
-1.73432e-05
6.3384e-06
-1.95037e-05
6.77614e-06
-2.179e-05
7.21819e-06
-2.42006e-05
7.66152e-06
-2.67325e-05
8.10266e-06
-2.93815e-05
8.53773e-06
-3.21422e-05
8.96246e-06
-3.50075e-05
9.37225e-06
-3.79692e-05
9.76225e-06
-4.10173e-05
1.01274e-05
-4.41404e-05
1.04624e-05
-4.73259e-05
1.0762e-05
-5.05596e-05
1.1021e-05
-5.38261e-05
1.12341e-05
-5.71089e-05
1.13963e-05
-6.03905e-05
1.15029e-05
-6.36524e-05
1.15492e-05
-6.68756e-05
1.15314e-05
-7.00405e-05
1.14459e-05
-7.31273e-05
1.12895e-05
-7.61159e-05
1.10599e-05
-7.89864e-05
1.07552e-05
-8.17193e-05
1.03743e-05
-8.42954e-05
9.9168e-06
-8.66963e-05
9.38286e-06
-8.89041e-05
8.77353e-06
-9.09024e-05
8.0905e-06
-9.26753e-05
7.33621e-06
-9.42087e-05
6.51378e-06
-9.54893e-05
5.62701e-06
-9.65057e-05
4.68036e-06
-9.72476e-05
3.67893e-06
-9.77065e-05
2.62842e-06
-9.78756e-05
1.53511e-06
-9.77496e-05
4.05957e-07
-9.73247e-05
-7.52225e-07
-9.65994e-05
-1.93139e-06
-9.55738e-05
-3.12328e-06
-9.42495e-05
-4.31939e-06
-9.26302e-05
-5.51087e-06
-9.07214e-05
-6.6886e-06
-8.85304e-05
-7.84326e-06
-8.60663e-05
-8.96538e-06
-8.33402e-05
-1.00455e-05
-8.03649e-05
-1.1074e-05
-7.71551e-05
-1.20418e-05
-7.37271e-05
-1.29396e-05
-7.00992e-05
-1.37587e-05
-6.62911e-05
-1.4491e-05
-6.23241e-05
-1.51287e-05
-5.82211e-05
-1.56649e-05
-5.40061e-05
-1.60936e-05
-4.97045e-05
-1.64099e-05
-4.53423e-05
-1.66097e-05
-4.09466e-05
-1.66904e-05
-3.6545e-05
-1.66507e-05
-3.2165e-05
-1.64908e-05
-2.78346e-05
-1.62122e-05
-2.3581e-05
-1.58181e-05
-1.94311e-05
-1.5313e-05
-1.54107e-05
-1.47033e-05
-1.15444e-05
-1.39963e-05
-7.85526e-06
-1.32011e-05
-4.36434e-06
-1.23278e-05
-1.09069e-06
-1.13874e-05
1.94913e-06
-1.03919e-05
4.74113e-06
-9.35398e-06
7.27411e-06
-8.2865e-06
9.5398e-06
-7.20257e-06
1.15329e-05
-6.11512e-06
1.32512e-05
-5.03672e-06
1.46954e-05
-3.97928e-06
1.58691e-05
-2.95386e-06
1.67786e-05
-1.97046e-06
1.74329e-05
-1.03786e-06
1.78433e-05
-1.63469e-07
1.80229e-05
6.46745e-07
1.79868e-05
1.38828e-06
1.77514e-05
2.05809e-06
1.73341e-05
2.65456e-06
1.67531e-05
3.17732e-06
1.60271e-05
3.62712e-06
1.51749e-05
4.00557e-06
1.42155e-05
4.31486e-06
1.31674e-05
4.55744e-06
1.20492e-05
4.7356e-06
1.08791e-05
4.85115e-06
9.67535e-06
4.90491e-06
8.45606e-06
4.89639e-06
7.23977e-06
4.82344e-06
6.04553e-06
4.68205e-06
4.89323e-06
4.46637e-06
3.80387e-06
4.16904e-06
2.79977e-06
3.78193e-06
1.90491e-06
3.29761e-06
1.14537e-06
2.71161e-06
5.50286e-07
2.02543e-06
1.53774e-07
1.25058e-06
4.16785e-07
7.57297e-08
-3.55107e-07
2.49548e-07
-8.84855e-07
4.81484e-07
-1.25295e-06
7.40231e-07
-1.47704e-06
1.0004e-06
-1.57496e-06
1.24111e-06
-1.56465e-06
1.44509e-06
-1.46341e-06
1.598e-06
-1.28728e-06
1.68798e-06
-1.05072e-06
1.70526e-06
-7.66329e-07
1.64185e-06
-4.44822e-07
1.49119e-06
-9.5047e-08
1.2479e-06
2.75924e-07
9.07541e-07
6.62663e-07
4.66304e-07
1.06122e-06
-7.9134e-08
1.46897e-06
-7.3182e-07
1.8844e-06
-1.49467e-06
2.30696e-06
-2.37059e-06
2.73683e-06
-3.36256e-06
3.1748e-06
-4.47366e-06
3.62198e-06
-5.70712e-06
4.07975e-06
-7.06624e-06
4.54946e-06
-8.55437e-06
5.03236e-06
-1.01748e-05
5.52942e-06
-1.19307e-05
6.04121e-06
-1.3825e-05
6.56782e-06
-1.58599e-05
7.10874e-06
-1.80373e-05
7.66287e-06
-2.03582e-05
8.22842e-06
-2.28228e-05
8.80294e-06
-2.543e-05
9.38333e-06
-2.81776e-05
9.96581e-06
-3.10621e-05
1.0546e-05
-3.40785e-05
1.11191e-05
-3.72202e-05
1.16795e-05
-4.04792e-05
1.22214e-05
-4.38455e-05
1.27386e-05
-4.7308e-05
1.32247e-05
-5.08535e-05
1.36729e-05
-5.44676e-05
1.40765e-05
-5.81344e-05
1.44288e-05
-6.18364e-05
1.47231e-05
-6.55554e-05
1.49531e-05
-6.92719e-05
1.51128e-05
-7.29656e-05
1.51966e-05
-7.66158e-05
1.51994e-05
-8.02012e-05
1.51169e-05
-8.37005e-05
1.49452e-05
-8.70923e-05
1.46814e-05
-9.03557e-05
1.43233e-05
-9.347e-05
1.38695e-05
-9.64153e-05
1.33197e-05
-9.91725e-05
1.2674e-05
-0.000101724
1.19339e-05
-0.000104051
1.11013e-05
-0.00010614
1.01793e-05
-0.000107975
9.17145e-06
-0.000109544
8.08237e-06
-0.000110834
6.91729e-06
-0.000111836
5.68215e-06
-0.000112541
4.38357e-06
-0.000112941
3.02879e-06
-0.000113032
1.62565e-06
-0.000112809
1.82936e-07
-0.000112269
-1.29167e-06
-0.000111413
-2.78768e-06
-0.00011024
-4.29559e-06
-0.000108755
-5.80527e-06
-0.000106959
-7.30618e-06
-0.00010486
-8.78755e-06
-0.000102465
-1.02383e-05
-9.97832e-05
-1.16474e-05
-9.68251e-05
-1.30036e-05
-9.36035e-05
-1.42956e-05
-9.01328e-05
-1.55125e-05
-8.64291e-05
-1.66433e-05
-8.25101e-05
-1.76778e-05
-7.83952e-05
-1.86059e-05
-7.41055e-05
-1.94184e-05
-6.96635e-05
-2.01069e-05
-6.50932e-05
-2.06639e-05
-6.04198e-05
-2.10832e-05
-5.56699e-05
-2.13596e-05
-5.08707e-05
-2.14896e-05
-4.60503e-05
-2.14711e-05
-4.12374e-05
-2.13037e-05
-3.64608e-05
-2.09888e-05
-3.17491e-05
-2.05297e-05
-2.71308e-05
-1.99313e-05
-2.26336e-05
-1.92005e-05
-1.82841e-05
-1.83459e-05
-1.41075e-05
-1.73777e-05
-1.01275e-05
-1.63078e-05
-6.36561e-06
-1.51492e-05
-2.84128e-06
-1.39163e-05
4.28712e-07
-1.2624e-05
3.43032e-06
-1.12881e-05
6.15235e-06
-9.92461e-06
8.58671e-06
-8.54948e-06
1.07284e-05
-7.1784e-06
1.25755e-05
-5.82642e-06
1.41293e-05
-4.50767e-06
1.53941e-05
-3.23518e-06
1.63767e-05
-2.02054e-06
1.70871e-05
-8.73844e-07
1.75373e-05
1.96542e-07
1.77416e-05
1.18402e-06
1.77159e-05
2.08372e-06
1.7478e-05
2.89253e-06
1.70464e-05
3.60892e-06
1.64407e-05
4.2328e-06
1.56811e-05
4.7652e-06
1.4788e-05
5.208e-06
1.37819e-05
5.56351e-06
1.26835e-05
5.83403e-06
1.15132e-05
6.02139e-06
1.02917e-05
6.12645e-06
9.03946e-06
6.1486e-06
7.77745e-06
6.08545e-06
6.52703e-06
5.93248e-06
5.31033e-06
5.68307e-06
4.15062e-06
5.32875e-06
3.07267e-06
4.85987e-06
2.10338e-06
4.2669e-06
1.27274e-06
3.54226e-06
6.15332e-07
2.68283e-06
1.72979e-07
1.69294e-06
5.89764e-07
7.16146e-08
-4.26721e-07
2.3334e-07
-1.04658e-06
4.44315e-07
-1.46392e-06
6.72252e-07
-1.70498e-06
8.91084e-07
-1.79379e-06
1.07958e-06
-1.75314e-06
1.22029e-06
-1.60412e-06
1.29883e-06
-1.36583e-06
1.30326e-06
-1.05515e-06
1.22367e-06
-6.86732e-07
1.05177e-06
-2.72928e-07
7.80647e-07
1.7608e-07
4.04406e-07
6.52166e-07
-8.20181e-08
1.14909e-06
-6.83098e-07
1.6623e-06
-1.4029e-06
2.18877e-06
-2.24523e-06
2.72673e-06
-3.21377e-06
3.27551e-06
-4.31219e-06
3.83525e-06
-5.54414e-06
4.40675e-06
-6.91336e-06
4.9912e-06
-8.42358e-06
5.58997e-06
-1.00785e-05
6.20439e-06
-1.18818e-05
6.83562e-06
-1.38367e-05
7.48437e-06
-1.59464e-05
8.15087e-06
-1.82132e-05
8.83466e-06
-2.0639e-05
9.53455e-06
-2.32247e-05
1.02486e-05
-2.59702e-05
1.09739e-05
-2.8874e-05
1.17068e-05
-3.19335e-05
1.24429e-05
-3.51446e-05
1.31768e-05
-3.85012e-05
1.39027e-05
-4.1996e-05
1.46138e-05
-4.56196e-05
1.53031e-05
-4.93611e-05
1.59628e-05
-5.32075e-05
1.65851e-05
-5.71444e-05
1.71616e-05
-6.11557e-05
1.76842e-05
-6.52238e-05
1.81446e-05
-6.93297e-05
1.85347e-05
-7.34533e-05
1.88467e-05
-7.75737e-05
1.90735e-05
-8.16692e-05
1.92082e-05
-8.57174e-05
1.92448e-05
-8.96961e-05
1.91781e-05
-9.35827e-05
1.90035e-05
-9.7355e-05
1.87175e-05
-0.000100991
1.83178e-05
-0.000104471
1.78027e-05
-0.000107773
1.71716e-05
-0.000110878
1.64252e-05
-0.000113769
1.55649e-05
-0.000116429
1.45931e-05
-0.00011884
1.35133e-05
-0.000120991
1.23296e-05
-0.000122867
1.10474e-05
-0.000124457
9.67237e-06
-0.000125751
8.21129e-06
-0.00012674
6.67152e-06
-0.000127418
5.06108e-06
-0.000127777
3.38861e-06
-0.000127815
1.66331e-06
-0.000127528
-1.04368e-07
-0.000126913
-1.90602e-06
-0.000125972
-3.72905e-06
-0.000124705
-5.56292e-06
-0.000123114
-7.39601e-06
-0.000121204
-9.21636e-06
-0.00011898
-1.10117e-05
-0.000116448
-1.27695e-05
-0.000113619
-1.44772e-05
-0.000110501
-1.61217e-05
-0.000107106
-1.76904e-05
-0.000103448
-1.91706e-05
-9.95414e-05
-2.05496e-05
-9.54036e-05
-2.18155e-05
-9.1053e-05
-2.29565e-05
-8.65096e-05
-2.39617e-05
-8.17954e-05
-2.48211e-05
-7.69338e-05
-2.55256e-05
-7.19496e-05
-2.60673e-05
-6.68692e-05
-2.644e-05
-6.172e-05
-2.66388e-05
-5.65305e-05
-2.66606e-05
-5.13297e-05
-2.65044e-05
-4.61476e-05
-2.6171e-05
-4.1014e-05
-2.56634e-05
-3.59586e-05
-2.49866e-05
-3.1011e-05
-2.41481e-05
-2.61998e-05
-2.31572e-05
-2.15523e-05
-2.20252e-05
-1.70946e-05
-2.07654e-05
-1.2851e-05
-1.93929e-05
-8.84351e-06
-1.79238e-05
-5.09174e-06
-1.63758e-05
-1.6127e-06
-1.47671e-05
1.57953e-06
-1.31168e-05
4.47391e-06
-1.14439e-05
7.06257e-06
-9.76707e-06
9.3409e-06
-8.10475e-06
1.13075e-05
-6.47429e-06
1.29643e-05
-4.89191e-06
1.4316e-05
-3.37229e-06
1.53706e-05
-1.92845e-06
1.61386e-05
-5.71475e-07
1.66331e-05
6.89541e-07
1.68693e-05
1.84757e-06
1.68642e-05
2.89759e-06
1.66366e-05
3.83652e-06
1.62064e-05
4.66301e-06
1.55944e-05
5.37716e-06
1.48222e-05
5.98017e-06
1.39118e-05
6.47391e-06
1.28855e-05
6.86041e-06
1.17655e-05
7.14132e-06
1.05746e-05
7.31737e-06
9.33542e-06
7.38778e-06
8.07101e-06
7.34986e-06
6.80491e-06
7.19858e-06
5.56143e-06
6.92656e-06
4.36607e-06
6.52411e-06
3.24607e-06
5.97987e-06
2.23124e-06
5.28173e-06
1.35519e-06
4.41831e-06
6.57218e-07
3.3808e-06
1.85086e-07
2.16507e-06
7.7485e-07
6.4449e-08
-4.91169e-07
2.06013e-07
-1.18815e-06
3.84175e-07
-1.64208e-06
5.667e-07
-1.8875e-06
7.27607e-07
-1.9547e-06
8.45846e-07
-1.87138e-06
9.04225e-07
-1.6625e-06
8.8858e-07
-1.35018e-06
7.87128e-07
-9.537e-07
5.89977e-07
-4.89582e-07
2.88734e-07
2.83149e-08
-1.23819e-07
5.88633e-07
-6.53986e-07
1.18233e-06
-1.30738e-06
1.80249e-06
-2.08913e-06
2.44405e-06
-3.00399e-06
3.10363e-06
-4.05653e-06
3.77927e-06
-5.25115e-06
4.47013e-06
-6.59223e-06
5.17633e-06
-8.08408e-06
5.8986e-06
-9.73096e-06
6.63808e-06
-1.1537e-05
7.39604e-06
-1.35063e-05
8.17363e-06
-1.56423e-05
8.97168e-06
-1.79485e-05
9.79049e-06
-2.04272e-05
1.06296e-05
-2.30805e-05
1.14879e-05
-2.5909e-05
1.23631e-05
-2.89125e-05
1.32521e-05
-3.20893e-05
1.41507e-05
-3.54362e-05
1.50537e-05
-3.89484e-05
1.5955e-05
-4.26192e-05
1.68476e-05
-4.64402e-05
1.77237e-05
-5.0401e-05
1.85747e-05
-5.44894e-05
1.93915e-05
-5.86913e-05
2.01647e-05
-6.29908e-05
2.08845e-05
-6.73703e-05
2.15411e-05
-7.18107e-05
2.21247e-05
-7.62918e-05
2.26256e-05
-8.07919e-05
2.30348e-05
-8.52888e-05
2.33436e-05
-8.97595e-05
2.35442e-05
-9.41808e-05
2.36295e-05
-9.85293e-05
2.35934e-05
-0.000102782
2.34308e-05
-0.000106916
2.31376e-05
-0.00011091
2.27111e-05
-0.000114741
2.21495e-05
-0.000118391
2.14523e-05
-0.00012184
2.06201e-05
-0.000125069
1.96547e-05
-0.000128063
1.85588e-05
-0.000130806
1.73363e-05
-0.000133285
1.59918e-05
-0.000135486
1.45311e-05
-0.000137399
1.29606e-05
-0.000139015
1.12875e-05
-0.000140323
9.51975e-06
-0.000141318
7.66603e-06
-0.000141992
5.73557e-06
-0.000142342
3.73818e-06
-0.000142363
1.68427e-06
-0.000142052
-4.1505e-07
-0.000141409
-2.54915e-06
-0.000140432
-4.70535e-06
-0.000139124
-6.87152e-06
-0.000137485
-9.03489e-06
-0.000135519
-1.11823e-05
-0.000133231
-1.33001e-05
-0.000130626
-1.53746e-05
-0.000127711
-1.73915e-05
-0.000124496
-1.93367e-05
-0.000120991
-2.11956e-05
-0.000117208
-2.2954e-05
-0.00011316
-2.45976e-05
-0.000108863
-2.61126e-05
-0.000104334
-2.74856e-05
-9.95916e-05
-2.87037e-05
-9.46575e-05
-2.97552e-05
-8.95539e-05
-3.06292e-05
-8.4305e-05
-3.13162e-05
-7.89368e-05
-3.18082e-05
-7.34766e-05
-3.2099e-05
-6.79531e-05
-3.21841e-05
-6.2396e-05
-3.20615e-05
-5.68359e-05
-3.17312e-05
-5.13037e-05
-3.11955e-05
-4.58308e-05
-3.04596e-05
-4.04482e-05
-2.95306e-05
-3.51867e-05
-2.84187e-05
-3.00759e-05
-2.7136e-05
-2.51444e-05
-2.5697e-05
-2.04189e-05
-2.41183e-05
-1.59244e-05
-2.24183e-05
-1.16834e-05
-2.06168e-05
-7.71575e-06
-1.87347e-05
-4.03866e-06
-1.67939e-05
-6.66109e-07
-1.48164e-05
2.39113e-06
-1.28243e-05
5.12561e-06
-1.08392e-05
7.53322e-06
-8.88191e-06
9.61327e-06
-6.97196e-06
1.13683e-05
-5.12735e-06
1.28042e-05
-3.36427e-06
1.39295e-05
-1.69681e-06
1.47559e-05
-1.36874e-07
1.52974e-05
1.30603e-06
1.55704e-05
2.6246e-06
1.55931e-05
3.81384e-06
1.53854e-05
4.87075e-06
1.49684e-05
5.79413e-06
1.43644e-05
6.58415e-06
1.35964e-05
7.2419e-06
1.2688e-05
7.76885e-06
1.16631e-05
8.16627e-06
1.05459e-05
8.43454e-06
9.36109e-06
8.57258e-06
8.13365e-06
8.5773e-06
6.88911e-06
8.44313e-06
5.65387e-06
8.16179e-06
4.45564e-06
7.72234e-06
3.32404e-06
7.11147e-06
2.2916e-06
6.31418e-06
1.39509e-06
5.31482e-06
6.77523e-07
4.09837e-06
1.90769e-07
2.65182e-06
9.65619e-07
5.46151e-08
-5.45785e-07
1.68772e-07
-1.3023e-06
3.03274e-07
-1.77658e-06
4.26853e-07
-2.01108e-06
5.14351e-07
-2.0422e-06
5.45463e-07
-1.90249e-06
5.03656e-07
-1.62069e-06
3.75299e-07
-1.22182e-06
1.48989e-07
-7.27391e-07
-1.84973e-07
-1.5562e-07
-6.34985e-07
4.78327e-07
-1.20846e-06
1.1621e-06
-1.91205e-06
1.88593e-06
-2.75188e-06
2.64232e-06
-3.73366e-06
3.42583e-06
-4.86283e-06
4.23281e-06
-6.14464e-06