/*--------------------------------*- C++ -*----------------------------------*\
| =========                 |                                                 |
| \\      /  F ield         | OpenFOAM: The Open Source CFD Toolbox           |
|  \\    /   O peration     | Version:  2112                                  |
|   \\  /    A nd           | Website:  www.openfoam.com                      |
|    \\/     M anipulation  |                                                 |
\*---------------------------------------------------------------------------*/
FoamFile
{
    version     2.0;
    format      ascii;
    arch        "LSB;label=32;scalar=64";
    class       volVectorField;
    location    "23";
    object      U;
}
// * * * * * * * * * * * * * * * * * * * * * * * * * * * * * * * * * * * * * //

dimensions      [0 1 -1 0 0 0 0];

internalField   nonuniform List<vector> 
16641
(
(-5.36357e-06 5.06049e-06 0)
(5.5816e-06 -6.41586e-06 0)
(5.27844e-05 -1.86006e-05 0)
(0.000124597 -2.66492e-05 0)
(0.000212154 -3.10053e-05 0)
(0.000307548 -3.26226e-05 0)
(0.000404412 -3.23015e-05 0)
(0.000497999 -3.06549e-05 0)
(0.000584891 -2.8131e-05 0)
(0.000662695 -2.50528e-05 0)
(0.000729802 -2.16536e-05 0)
(0.000785209 -1.81035e-05 0)
(0.000828367 -1.45241e-05 0)
(0.000859059 -1.0998e-05 0)
(0.000877296 -7.57766e-06 0)
(0.000883237 -4.29175e-06 0)
(0.000877113 -1.14383e-06 0)
(0.000859177 1.8725e-06 0)
(0.000829647 4.77857e-06 0)
(0.000788678 7.60561e-06 0)
(0.000736334 1.0391e-05 0)
(0.000672569 1.31766e-05 0)
(0.000597217 1.60058e-05 0)
(0.000509991 1.89212e-05 0)
(0.000410486 2.19634e-05 0)
(0.000298187 2.51696e-05 0)
(0.000172487 2.85722e-05 0)
(3.26994e-05 3.21981e-05 0)
(-0.00012192 3.60683e-05 0)
(-0.000292152 4.01976e-05 0)
(-0.000478792 4.45941e-05 0)
(-0.00068263 4.92602e-05 0)
(-0.000904423 5.41922e-05 0)
(-0.00114488 5.93801e-05 0)
(-0.00140463 6.4808e-05 0)
(-0.00168422 7.04542e-05 0)
(-0.00198407 7.62912e-05 0)
(-0.00230446 8.22855e-05 0)
(-0.00264553 8.83974e-05 0)
(-0.00300723 9.45806e-05 0)
(-0.00338932 0.000100783 0)
(-0.00379135 0.000106946 0)
(-0.00421262 0.000113004 0)
(-0.00465221 0.000118885 0)
(-0.0051089 0.000124513 0)
(-0.00558122 0.000129805 0)
(-0.00606742 0.000134673 0)
(-0.00656543 0.000139025 0)
(-0.00707291 0.000142767 0)
(-0.00758721 0.000145801 0)
(-0.00810541 0.00014803 0)
(-0.00862429 0.000149357 0)
(-0.00914037 0.000149687 0)
(-0.00964993 0.000148929 0)
(-0.010149 0.000146997 0)
(-0.0106335 0.000143814 0)
(-0.0110991 0.00013931 0)
(-0.0115414 0.000133428 0)
(-0.0119558 0.000126123 0)
(-0.0123379 0.000117366 0)
(-0.0126832 0.000107143 0)
(-0.0129871 9.54591e-05 0)
(-0.0132456 8.234e-05 0)
(-0.0134543 6.78327e-05 0)
(-0.0136096 5.20101e-05 0)
(-0.0137079 3.49588e-05 0)
(-0.0137461 1.67778e-05 0)
(-0.0137216 -2.23157e-06 0)
(-0.013632 -2.21025e-05 0)
(-0.013476 -4.26053e-05 0)
(-0.0132526 -6.35033e-05 0)
(-0.0129614 -8.45613e-05 0)
(-0.0126031 -0.00010553 0)
(-0.0121787 -0.000126147 0)
(-0.0116903 -0.000146139 0)
(-0.0111407 -0.000165228 0)
(-0.0105335 -0.000183135 0)
(-0.00987298 -0.000199589 0)
(-0.00916429 -0.000214328 0)
(-0.00841321 -0.000227109 0)
(-0.00762619 -0.000237715 0)
(-0.00681021 -0.00024596 0)
(-0.00597272 -0.000251692 0)
(-0.00512152 -0.000254804 0)
(-0.00426466 -0.000255234 0)
(-0.00341028 -0.000252968 0)
(-0.00256649 -0.000248047 0)
(-0.00174123 -0.000240558 0)
(-0.000942132 -0.000230642 0)
(-0.000176379 -0.000218489 0)
(0.000549399 -0.000204332 0)
(0.00122927 -0.000188424 0)
(0.00185809 -0.000171071 0)
(0.00243157 -0.000152592 0)
(0.00294634 -0.000133314 0)
(0.00339999 -0.000113575 0)
(0.00379107 -9.37006e-05 0)
(0.00411907 -7.40077e-05 0)
(0.00438444 -5.4789e-05 0)
(0.00458845 -3.63093e-05 0)
(0.00473317 -1.87997e-05 0)
(0.00482137 -2.45324e-06 0)
(0.00485641 1.25773e-05 0)
(0.00484213 2.61799e-05 0)
(0.00478273 3.82851e-05 0)
(0.00468267 4.88618e-05 0)
(0.00454654 5.79156e-05 0)
(0.00437897 6.54852e-05 0)
(0.0041845 7.16386e-05 0)
(0.00396755 7.64675e-05 0)
(0.00373229 8.00829e-05 0)
(0.0034826 8.26088e-05 0)
(0.00322206 8.41766e-05 0)
(0.00295387 8.49181e-05 0)
(0.00268093 8.49581e-05 0)
(0.00240581 8.44054e-05 0)
(0.00213081 8.33427e-05 0)
(0.00185809 8.18141e-05 0)
(0.00158976 7.98102e-05 0)
(0.00132805 7.72501e-05 0)
(0.00107557 7.39592e-05 0)
(0.000835489 6.96438e-05 0)
(0.000611912 6.38624e-05 0)
(0.000410153 5.6003e-05 0)
(0.000237024 4.53049e-05 0)
(0.000100745 3.10443e-05 0)
(9.95876e-06 1.31255e-05 0)
(-2.81887e-05 -6.19889e-06 0)
(-1.66876e-05 -1.67266e-05 0)
(6.26983e-06 -6.04288e-06 0)
(6.16637e-05 -6.18978e-05 0)
(0.000189208 -0.000114707 0)
(0.000365719 -0.000151774 0)
(0.000573704 -0.000173272 0)
(0.00079795 -0.000181754 0)
(0.00102492 -0.000180017 0)
(0.00124359 -0.00017059 0)
(0.00144539 -0.000155571 0)
(0.00162396 -0.000136632 0)
(0.00177469 -0.000115084 0)
(0.00189442 -9.19361e-05 0)
(0.00198114 -6.79464e-05 0)
(0.00203365 -4.366e-05 0)
(0.00205142 -1.94456e-05 0)
(0.00203429 4.47768e-06 0)
(0.00198235 2.80129e-05 0)
(0.00189579 5.11619e-05 0)
(0.00177476 7.40075e-05 0)
(0.00161929 9.66931e-05 0)
(0.00142923 0.000119405 0)
(0.00120419 0.000142357 0)
(0.000943507 0.000165775 0)
(0.000646266 0.000189882 0)
(0.000311287 0.000214891 0)
(-6.28468e-05 0.00024099 0)
(-0.00047775 0.000268341 0)
(-0.00093519 0.000297068 0)
(-0.00143704 0.000327257 0)
(-0.00198521 0.00035895 0)
(-0.00258159 0.00039215 0)
(-0.00322801 0.000426811 0)
(-0.00392613 0.000462848 0)
(-0.00467744 0.000500132 0)
(-0.00548313 0.00053849 0)
(-0.00634408 0.000577712 0)
(-0.00726081 0.000617543 0)
(-0.00823337 0.00065769 0)
(-0.00926133 0.000697823 0)
(-0.0103437 0.00073757 0)
(-0.011479 0.000776526 0)
(-0.012665 0.00081425 0)
(-0.0138988 0.000850267 0)
(-0.0151769 0.000884078 0)
(-0.016495 0.000915155 0)
(-0.0178481 0.000942954 0)
(-0.0192304 0.000966915 0)
(-0.0206354 0.000986473 0)
(-0.0220558 0.00100106 0)
(-0.0234838 0.00101013 0)
(-0.0249106 0.00101313 0)
(-0.026327 0.00100955 0)
(-0.0277232 0.000998916 0)
(-0.029089 0.000980794 0)
(-0.0304135 0.000954803 0)
(-0.0316857 0.000920628 0)
(-0.0328944 0.000878025 0)
(-0.0340282 0.000826831 0)
(-0.0350758 0.000766973 0)
(-0.0360259 0.000698473 0)
(-0.0368677 0.000621458 0)
(-0.0375906 0.000536163 0)
(-0.0381846 0.000442938 0)
(-0.0386404 0.000342248 0)
(-0.0389495 0.000234685 0)
(-0.0391046 0.000120932 0)
(-0.039099 1.72729e-06 0)
(-0.0389277 -0.000121645 0)
(-0.0385867 -0.000248406 0)
(-0.0380737 -0.000377389 0)
(-0.0373878 -0.000507316 0)
(-0.0365299 -0.000636845 0)
(-0.0355024 -0.000764575 0)
(-0.0343096 -0.000889055 0)
(-0.0329575 -0.00100881 0)
(-0.031454 -0.00112235 0)
(-0.0298086 -0.00122821 0)
(-0.0280326 -0.00132499 0)
(-0.0261389 -0.00141132 0)
(-0.0241419 -0.00148598 0)
(-0.0220573 -0.00154785 0)
(-0.0199021 -0.001596 0)
(-0.0176943 -0.00162966 0)
(-0.0154526 -0.00164828 0)
(-0.0131961 -0.00165155 0)
(-0.0109444 -0.00163941 0)
(-0.00871675 -0.00161202 0)
(-0.00653235 -0.00156984 0)
(-0.00440957 -0.00151356 0)
(-0.0023659 -0.00144412 0)
(-0.000417646 -0.00136269 0)
(0.00142036 -0.00127062 0)
(0.00313499 -0.00116945 0)
(0.00471499 -0.00106084 0)
(0.00615115 -0.000946548 0)
(0.00743639 -0.000828388 0)
(0.00856586 -0.000708166 0)
(0.00953693 -0.000587654 0)
(0.0103491 -0.000468545 0)
(0.0110042 -0.000352413 0)
(0.0115056 -0.000240684 0)
(0.0118588 -0.000134602 0)
(0.0120708 -3.52192e-05 0)
(0.0121499 5.66275e-05 0)
(0.0121056 0.000140316 0)
(0.0119482 0.000215444 0)
(0.0116885 0.000281813 0)
(0.0113377 0.000339424 0)
(0.0109072 0.000388452 0)
(0.0104079 0.00042923 0)
(0.00985082 0.000462214 0)
(0.00924611 0.000487956 0)
(0.0086035 0.000507067 0)
(0.00793199 0.000520177 0)
(0.00723992 0.000527887 0)
(0.00653497 0.000530717 0)
(0.00582431 0.000529051 0)
(0.0051148 0.000523068 0)
(0.00441327 0.000512672 0)
(0.00372685 0.000497416 0)
(0.00306342 0.000476428 0)
(0.00243207 0.000448348 0)
(0.00184358 0.00041131 0)
(0.00131076 0.000363016 0)
(0.000848549 0.000301078 0)
(0.000473128 0.000223991 0)
(0.000199529 0.00013324 0)
(3.89703e-05 3.82025e-05 0)
(-5.97463e-06 -2.82488e-05 0)
(1.86141e-05 -5.3116e-05 0)
(0.000114978 -0.000189506 0)
(0.000307781 -0.000307223 0)
(0.000561373 -0.000390877 0)
(0.000852123 -0.000440125 0)
(0.00116086 -0.000459049 0)
(0.00146997 -0.000452974 0)
(0.00176452 -0.000427221 0)
(0.00203253 -0.000386527 0)
(0.00226468 -0.000334889 0)
(0.00245396 -0.00027557 0)
(0.00259531 -0.000211159 0)
(0.00268521 -0.000143648 0)
(0.00272135 -7.45083e-05 0)
(0.00270232 -4.76283e-06 0)
(0.0026273 6.495e-05 0)
(0.00249585 0.000134308 0)
(0.00230771 0.00020326 0)
(0.00206259 0.000271963 0)
(0.0017601 0.000340738 0)
(0.00139959 0.000410022 0)
(0.000980133 0.000480324 0)
(0.000500451 0.000552187 0)
(-4.10637e-05 0.00062615 0)
(-0.000646347 0.000702717 0)
(-0.00131762 0.000782335 0)
(-0.00205734 0.000865365 0)
(-0.00286811 0.000952071 0)
(-0.00375263 0.00104261 0)
(-0.00471356 0.00113701 0)
(-0.00575347 0.00123518 0)
(-0.00687471 0.00133692 0)
(-0.00807931 0.00144188 0)
(-0.00936891 0.00154961 0)
(-0.0107446 0.00165952 0)
(-0.0122071 0.0017709 0)
(-0.013756 0.00188296 0)
(-0.0153905 0.00199477 0)
(-0.0171089 0.0021053 0)
(-0.0189085 0.00221342 0)
(-0.0207857 0.00231792 0)
(-0.0227356 0.00241751 0)
(-0.0247528 0.00251081 0)
(-0.0268302 0.00259639 0)
(-0.0289599 0.00267278 0)
(-0.0311329 0.00273848 0)
(-0.0333391 0.00279199 0)
(-0.0355671 0.00283181 0)
(-0.0378048 0.00285649 0)
(-0.0400391 0.00286463 0)
(-0.0422558 0.00285491 0)
(-0.0444402 0.00282611 0)
(-0.0465769 0.00277716 0)
(-0.04865 0.00270712 0)
(-0.0506431 0.00261523 0)
(-0.0525397 0.00250092 0)
(-0.0543234 0.00236385 0)
(-0.0559777 0.00220389 0)
(-0.0574864 0.00202116 0)
(-0.0588339 0.00181605 0)
(-0.0600053 0.00158921 0)
(-0.0609863 0.00134157 0)
(-0.0617639 0.00107433 0)
(-0.0623261 0.000789002 0)
(-0.0626624 0.000487352 0)
(-0.0627639 0.000171427 0)
(-0.062623 -0.000156533 0)
(-0.062234 -0.00049374 0)
(-0.0615936 -0.000837456 0)
(-0.0607001 -0.00118469 0)
(-0.0595542 -0.00153223 0)
(-0.0581586 -0.00187668 0)
(-0.0565184 -0.00221454 0)
(-0.0546411 -0.00254222 0)
(-0.0525363 -0.00285609 0)
(-0.050216 -0.00315257 0)
(-0.0476946 -0.00342812 0)
(-0.0449885 -0.00367935 0)
(-0.042116 -0.00390307 0)
(-0.0390977 -0.00409634 0)
(-0.0359555 -0.00425654 0)
(-0.032713 -0.00438143 0)
(-0.0293952 -0.00446923 0)
(-0.0260278 -0.00451862 0)
(-0.0226373 -0.00452885 0)
(-0.0192506 -0.00449972 0)
(-0.0158945 -0.00443163 0)
(-0.0125955 -0.00432557 0)
(-0.00937916 -0.00418315 0)
(-0.00627026 -0.00400656 0)
(-0.00329191 -0.00379852 0)
(-0.000465483 -0.00356225 0)
(0.00218976 -0.00330139 0)
(0.00465694 -0.00301996 0)
(0.00692178 -0.0027222 0)
(0.00897282 -0.00241258 0)
(0.0108015 -0.00209558 0)
(0.0124023 -0.00177568 0)
(0.0137725 -0.0014572 0)
(0.0149126 -0.00114426 0)
(0.0158256 -0.000840638 0)
(0.0165174 -0.00054974 0)
(0.0169962 -0.000274516 0)
(0.0172721 -1.74219e-05 0)
(0.0173574 0.000219607 0)
(0.0172655 0.000435169 0)
(0.0170113 0.000628392 0)
(0.0166101 0.000798907 0)
(0.0160779 0.000946817 0)
(0.0154308 0.00107264 0)
(0.0146845 0.00117725 0)
(0.0138545 0.00126179 0)
(0.0129555 0.0013276 0)
(0.0120018 0.00137606 0)
(0.0110065 0.00140856 0)
(0.00998216 0.00142628 0)
(0.00894076 0.00143007 0)
(0.00789381 0.00142033 0)
(0.00685281 0.00139678 0)
(0.00582964 0.00135837 0)
(0.00483702 0.00130311 0)
(0.00388907 0.00122803 0)
(0.0030017 0.00112926 0)
(0.00219286 0.00100242 0)
(0.00148249 0.000843593 0)
(0.000891115 0.000651389 0)
(0.000436988 0.000430708 0)
(0.000137284 0.000199829 0)
(1.41518e-05 1.09886e-05 0)
(2.6911e-05 -0.000125229 0)
(0.000152947 -0.000366684 0)
(0.000393086 -0.000561155 0)
(0.000699192 -0.000696692 0)
(0.00104209 -0.000774687 0)
(0.00139972 -0.000801539 0)
(0.00175196 -0.000785438 0)
(0.00208144 -0.000734739 0)
(0.002374 -0.000657121 0)
(0.00261832 -0.000559246 0)
(0.00280563 -0.00044668 0)
(0.00292931 -0.000323926 0)
(0.00298452 -0.000194506 0)
(0.00296782 -6.10637e-05 0)
(0.0028768 7.45308e-05 0)
(0.00270979 0.000211076 0)
(0.00246561 0.000347941 0)
(0.00214326 0.000484964 0)
(0.00174179 0.000622362 0)
(0.00126012 0.000760647 0)
(0.000696953 0.000900536 0)
(5.06453e-05 0.00104288 0)
(-0.00068078 0.00118857 0)
(-0.00149966 0.00133851 0)
(-0.00240865 0.00149352 0)
(-0.0034107 0.00165431 0)
(-0.00450892 0.00182144 0)
(-0.00570655 0.00199525 0)
(-0.00700679 0.00217591 0)
(-0.00841271 0.00236332 0)
(-0.00992712 0.00255717 0)
(-0.0115524 0.00275689 0)
(-0.0132905 0.00296169 0)
(-0.0151425 0.00317051 0)
(-0.0171088 0.00338209 0)
(-0.0191891 0.00359495 0)
(-0.0213818 0.00380736 0)
(-0.0236843 0.00401743 0)
(-0.0260927 0.00422306 0)
(-0.028602 0.00442199 0)
(-0.0312057 0.00461181 0)
(-0.033896 0.00478997 0)
(-0.0366636 0.00495383 0)
(-0.039498 0.00510067 0)
(-0.0423869 0.00522775 0)
(-0.0453171 0.0053323 0)
(-0.0482737 0.0054116 0)
(-0.0512409 0.00546301 0)
(-0.0542016 0.00548401 0)
(-0.0571378 0.00547224 0)
(-0.0600305 0.00542553 0)
(-0.0628603 0.00534198 0)
(-0.0656071 0.00521996 0)
(-0.0682505 0.00505816 0)
(-0.0707699 0.00485561 0)
(-0.0731451 0.00461176 0)
(-0.0753559 0.00432642 0)
(-0.0773826 0.00399986 0)
(-0.0792064 0.0036328 0)
(-0.0808093 0.00322638 0)
(-0.0821743 0.00278225 0)
(-0.0832859 0.0023025 0)
(-0.0841299 0.00178969 0)
(-0.0846938 0.00124685 0)
(-0.0849669 0.000677409 0)
(-0.0849407 8.52649e-05 0)
(-0.0846081 -0.000524849 0)
(-0.0839646 -0.00114868 0)
(-0.0830082 -0.00178109 0)
(-0.0817391 -0.00241671 0)
(-0.0801597 -0.00304988 0)
(-0.0782751 -0.00367477 0)
(-0.0760931 -0.00428537 0)
(-0.0736237 -0.00487559 0)
(-0.0708795 -0.00543934 0)
(-0.0678758 -0.00597056 0)
(-0.06463 -0.00646337 0)
(-0.061162 -0.00691215 0)
(-0.0574939 -0.00731156 0)
(-0.0536498 -0.00765676 0)
(-0.0496556 -0.00794339 0)
(-0.045539 -0.00816774 0)
(-0.0413288 -0.00832682 0)
(-0.0370552 -0.00841841 0)
(-0.032749 -0.00844119 0)
(-0.0284417 -0.00839475 0)
(-0.0241646 -0.00827964 0)
(-0.0199489 -0.00809742 0)
(-0.015825 -0.00785063 0)
(-0.0118225 -0.00754278 0)
(-0.00796932 -0.00717829 0)
(-0.00429157 -0.00676244 0)
(-0.000813237 -0.00630127 0)
(0.00244423 -0.00580144 0)
(0.00546215 -0.00527011 0)
(0.00822496 -0.00471486 0)
(0.0107203 -0.0041434 0)
(0.0129393 -0.00356349 0)
(0.0148762 -0.00298274 0)
(0.0165291 -0.00240849 0)
(0.0178992 -0.00184758 0)
(0.018991 -0.00130631 0)
(0.0198121 -0.00079025 0)
(0.0203726 -0.000304175 0)
(0.0206854 0.000148001 0)
(0.0207652 0.000563262 0)
(0.0206286 0.000939513 0)
(0.0202934 0.00127554 0)
(0.0197785 0.00157098 0)
(0.0191032 0.00182624 0)
(0.0182868 0.00204237 0)
(0.0173488 0.00222096 0)
(0.0163081 0.00236399 0)
(0.015183 0.00247361 0)
(0.0139911 0.00255197 0)
(0.0127494 0.00260094 0)
(0.0114742 0.00262191 0)
(0.0101815 0.0026155 0)
(0.00888708 0.00258128 0)
(0.00760728 0.00251757 0)
(0.00635906 0.00242128 0)
(0.00516069 0.00228784 0)
(0.0040321 0.00211152 0)
(0.00299504 0.00188608 0)
(0.00207303 0.0016063 0)
(0.00129005 0.00127092 0)
(0.000668002 0.000887232 0)
(0.000233319 0.000478879 0)
(3.34519e-05 0.000105544 0)
(3.16253e-05 -0.000213744 0)
(0.000175613 -0.000576231 0)
(0.000444157 -0.00085299 0)
(0.000779156 -0.00103993 0)
(0.00114663 -0.00114266 0)
(0.00152211 -0.00117108 0)
(0.00188367 -0.00113672 0)
(0.00221244 -0.00105115 0)
(0.00249287 -0.000925107 0)
(0.00271236 -0.000767993 0)
(0.0028609 -0.000587787 0)
(0.00293069 -0.00039102 0)
(0.00291576 -0.000182862 0)
(0.00281162 3.2766e-05 0)
(0.00261487 0.000253056 0)
(0.0023229 0.000476174 0)
(0.00193361 0.000701118 0)
(0.00144515 0.000927582 0)
(0.000855725 0.00115582 0)
(0.000163431 0.00138653 0)
(-0.000633855 0.00162068 0)
(-0.00153855 0.00185947 0)
(-0.0025534 0.00210414 0)
(-0.00368145 0.00235592 0)
(-0.00492606 0.00261592 0)
(-0.00629073 0.00288504 0)
(-0.00777911 0.00316395 0)
(-0.00939477 0.00345299 0)
(-0.0111411 0.00375215 0)
(-0.0130213 0.00406107 0)
(-0.0150379 0.00437899 0)
(-0.0171928 0.00470476 0)
(-0.0194872 0.00503685 0)
(-0.0219213 0.00537335 0)
(-0.0244941 0.00571198 0)
(-0.0272035 0.00605012 0)
(-0.030046 0.00638483 0)
(-0.0330164 0.00671285 0)
(-0.0361084 0.00703067 0)
(-0.0393136 0.00733454 0)
(-0.0426223 0.0076205 0)
(-0.0460229 0.00788447 0)
(-0.0495022 0.00812222 0)
(-0.0530454 0.00832952 0)
(-0.0566361 0.00850212 0)
(-0.0602565 0.00863585 0)
(-0.0638875 0.0087267 0)
(-0.0675085 0.00877082 0)
(-0.0710982 0.00876466 0)
(-0.0746344 0.00870499 0)
(-0.0780942 0.00858896 0)
(-0.0814542 0.00841418 0)
(-0.084691 0.00817874 0)
(-0.0877811 0.00788126 0)
(-0.0907014 0.00752096 0)
(-0.0934292 0.00709763 0)
(-0.0959425 0.00661173 0)
(-0.0982203 0.00606434 0)
(-0.100243 0.00545718 0)
(-0.101991 0.00479265 0)
(-0.103449 0.00407379 0)
(-0.1046 0.0033043 0)
(-0.105431 0.0024885 0)
(-0.105931 0.00163131 0)
(-0.106089 0.000738214 0)
(-0.105899 -0.000184742 0)
(-0.105355 -0.00113062 0)
(-0.104455 -0.00209275 0)
(-0.103197 -0.00306358 0)
(-0.101585 -0.00403523 0)
(-0.0996222 -0.00499951 0)
(-0.0973161 -0.00594803 0)
(-0.0946761 -0.00687221 0)
(-0.0917144 -0.0077634 0)
(-0.0884456 -0.00861298 0)
(-0.0848865 -0.00941242 0)
(-0.0810568 -0.0101535 0)
(-0.0769782 -0.0108282 0)
(-0.0726745 -0.0114291 0)
(-0.0681719 -0.0119494 0)
(-0.0634982 -0.012383 0)
(-0.058683 -0.0127245 0)
(-0.0537576 -0.0129697 0)
(-0.0487541 -0.0131154 0)
(-0.0437059 -0.0131595 0)
(-0.0386468 -0.0131013 0)
(-0.0336111 -0.0129414 0)
(-0.0286327 -0.0126816 0)
(-0.0237452 -0.0123254 0)
(-0.0189814 -0.0118775 0)
(-0.0143726 -0.0113438 0)
(-0.00994872 -0.0107317 0)
(-0.00573729 -0.0100495 0)
(-0.0017636 -0.00930649 0)
(0.00194981 -0.0085129 0)
(0.00538352 -0.00767946 0)
(0.00852147 -0.00681731 0)
(0.011351 -0.00593776 0)
(0.0138633 -0.00505203 0)
(0.0160529 -0.00417105 0)
(0.0179185 -0.00330521 0)
(0.019462 -0.00246418 0)
(0.0206891 -0.00165669 0)
(0.0216086 -0.00089042 0)
(0.0222325 -0.000171856 0)
(0.0225751 0.000493784 0)
(0.0226533 0.0011026 0)
(0.0224857 0.00165198 0)
(0.0220926 0.0021406 0)
(0.0214952 0.00256826 0)
(0.0207152 0.00293583 0)
(0.0197747 0.00324501 0)
(0.0186959 0.00349812 0)
(0.0175005 0.00369789 0)
(0.0162098 0.00384705 0)
(0.0148446 0.00394812 0)
(0.0134251 0.00400294 0)
(0.0119713 0.00401236 0)
(0.0105031 0.00397585 0)
(0.00904053 0.00389121 0)
(0.00760441 0.00375439 0)
(0.0062166 0.00355948 0)
(0.00490033 0.00329913 0)
(0.00368054 0.00296544 0)
(0.00258396 0.00255185 0)
(0.00163816 0.00205633 0)
(0.000869673 0.00148613 0)
(0.000315717 0.000864891 0)
(4.92303e-05 0.000248927 0)
(3.36628e-05 -0.000310841 0)
(0.000185156 -0.000802757 0)
(0.000463984 -0.00116286 0)
(0.000805516 -0.00139727 0)
(0.00117211 -0.00151771 0)
(0.00153732 -0.00153874 0)
(0.00187791 -0.00147581 0)
(0.00217406 -0.00134397 0)
(0.00240941 -0.00115706 0)
(0.00257054 -0.000927275 0)
(0.00264664 -0.000664985 0)
(0.00262901 -0.000378752 0)
(0.0025108 -7.5396e-05 0)
(0.00228656 0.000239872 0)
(0.00195193 0.000563289 0)
(0.00150335 0.000892367 0)
(0.000937732 0.00122572 0)
(0.00025228 0.00156287 0)
(-0.000555746 0.0019041 0)
(-0.00148917 0.00225023 0)
(-0.00255099 0.00260252 0)
(-0.00374445 0.00296241 0)
(-0.00507308 0.00333147 0)
(-0.0065406 0.00371117 0)
(-0.00815092 0.0041028 0)
(-0.00990802 0.00450738 0)
(-0.0118158 0.0049255 0)
(-0.0138779 0.00535733 0)
(-0.0160976 0.0058025 0)
(-0.0184776 0.00626013 0)
(-0.0210199 0.00672876 0)
(-0.0237255 0.00720636 0)
(-0.0265941 0.00769036 0)
(-0.0296244 0.00817764 0)
(-0.0328135 0.00866459 0)
(-0.0361567 0.00914709 0)
(-0.039648 0.00962061 0)
(-0.0432793 0.0100802 0)
(-0.0470408 0.0105206 0)
(-0.0509205 0.0109363 0)
(-0.0549049 0.0113215 0)
(-0.0589784 0.0116703 0)
(-0.0631235 0.0119768 0)
(-0.0673214 0.0122351 0)
(-0.0715513 0.0124394 0)
(-0.0757911 0.0125841 0)
(-0.0800178 0.012664 0)
(-0.084207 0.0126742 0)
(-0.0883337 0.0126104 0)
(-0.0923725 0.0124686 0)
(-0.0962976 0.0122458 0)
(-0.100083 0.0119393 0)
(-0.103704 0.0115474 0)
(-0.107134 0.0110691 0)
(-0.11035 0.0105043 0)
(-0.113328 0.00985348 0)
(-0.116046 0.00911824 0)
(-0.118483 0.00830089 0)
(-0.12062 0.0074046 0)
(-0.122439 0.00643336 0)
(-0.123924 0.00539196 0)
(-0.125061 0.00428598 0)
(-0.125837 0.00312175 0)
(-0.126244 0.0019063 0)
(-0.126273 0.000647362 0)
(-0.125919 -0.000646821 0)
(-0.125177 -0.00196741 0)
(-0.124047 -0.00330481 0)
(-0.12253 -0.00464916 0)
(-0.12063 -0.00599017 0)
(-0.118352 -0.00731721 0)
(-0.115705 -0.00861938 0)
(-0.112699 -0.00988566 0)
(-0.109348 -0.0111049 0)
(-0.105666 -0.0122661 0)
(-0.101672 -0.0133583 0)
(-0.0973847 -0.0143709 0)
(-0.0928277 -0.0152938 0)
(-0.088025 -0.0161174 0)
(-0.0830032 -0.0168328 0)
(-0.0777907 -0.0174321 0)
(-0.0724179 -0.0179083 0)
(-0.0669166 -0.0182559 0)
(-0.0613202 -0.0184703 0)
(-0.0556629 -0.0185488 0)
(-0.04998 -0.0184899 0)
(-0.0443072 -0.0182942 0)
(-0.0386804 -0.0179637 0)
(-0.0331352 -0.0175023 0)
(-0.0277066 -0.0169158 0)
(-0.0224288 -0.0162114 0)
(-0.0173344 -0.0153981 0)
(-0.0124541 -0.0144866 0)
(-0.00781648 -0.0134888 0)
(-0.00344756 -0.0124175 0)
(0.000629616 -0.0112868 0)
(0.0043953 -0.0101111 0)
(0.00783319 -0.00890546 0)
(0.0109307 -0.00768482 0)
(0.013679 -0.0064639 0)
(0.0160733 -0.00525692 0)
(0.0181126 -0.00407727 0)
(0.0197997 -0.00293728 0)
(0.0211411 -0.00184798 0)
(0.0221467 -0.000818937 0)
(0.0228297 0.000141882 0)
(0.0232058 0.0010282 0)
(0.0232934 0.00183547 0)
(0.0231129 0.0025608 0)
(0.0226862 0.00320292 0)
(0.0220364 0.00376198 0)
(0.0211874 0.00423935 0)
(0.0201634 0.00463734 0)
(0.0189889 0.00495887 0)
(0.017688 0.00520707 0)
(0.0162848 0.00538485 0)
(0.014803 0.00549442 0)
(0.013266 0.00553682 0)
(0.0116971 0.00551144 0)
(0.0101201 0.00541569 0)
(0.00855897 0.00524472 0)
(0.00703883 0.0049915 0)
(0.00558591 0.00464723 0)
(0.00422814 0.00420236 0)
(0.00299548 0.00364852 0)
(0.00191945 0.00298163 0)
(0.00103192 0.00220617 0)
(0.000380717 0.00134108 0)
(6.1081e-05 0.000431988 0)
(3.37302e-05 -0.000410013 0)
(0.000183826 -0.0010319 0)
(0.000456433 -0.00147149 0)
(0.000783764 -0.00174598 0)
(0.00112588 -0.00187443 0)
(0.00145491 -0.00187693 0)
(0.00174678 -0.0017734 0)
(0.00198117 -0.0015826 0)
(0.00214129 -0.00132154 0)
(0.00221332 -0.00100517 0)
(0.0021859 -0.000646194 0)
(0.00204975 -0.000255117 0)
(0.00179724 0.000159662 0)
(0.00142214 0.000591703 0)
(0.000919164 0.00103633 0)
(0.000283803 0.00149043 0)
(-0.000488008 0.00195223 0)
(-0.00140007 0.0024211 0)
(-0.00245611 0.0028973 0)
(-0.00365991 0.00338179 0)
(-0.00501536 0.00387599 0)
(-0.00652653 0.00438158 0)
(-0.00819765 0.00490031 0)
(-0.010033 0.00543379 0)
(-0.012037 0.00598336 0)
(-0.0142138 0.00654993 0)
(-0.0165673 0.00713386 0)
(-0.0191009 0.00773487 0)
(-0.0218175 0.008352 0)
(-0.0247187 0.00898352 0)
(-0.0278055 0.00962696 0)
(-0.0310773 0.0102791 0)
(-0.0345321 0.010936 0)
(-0.0381662 0.0115929 0)
(-0.0419742 0.0122445 0)
(-0.0459486 0.0128849 0)
(-0.05008 0.0135077 0)
(-0.0543568 0.0141058 0)
(-0.0587654 0.0146721 0)
(-0.06329 0.0151989 0)
(-0.067913 0.0156786 0)
(-0.0726146 0.0161033 0)
(-0.0773733 0.0164654 0)
(-0.082166 0.0167574 0)
(-0.0869684 0.016972 0)
(-0.0917547 0.0171025 0)
(-0.0964983 0.0171427 0)
(-0.101172 0.0170868 0)
(-0.105749 0.0169303 0)
(-0.1102 0.0166689 0)
(-0.1145 0.0162996 0)
(-0.11862 0.0158202 0)
(-0.122535 0.0152296 0)
(-0.126219 0.0145276 0)
(-0.129648 0.0137151 0)
(-0.1328 0.0127941 0)
(-0.135654 0.0117673 0)
(-0.138189 0.0106388 0)
(-0.140388 0.00941347 0)
(-0.142235 0.0080971 0)
(-0.143717 0.00669643 0)
(-0.14482 0.00521901 0)
(-0.145534 0.00367323 0)
(-0.145852 0.00206821 0)
(-0.145768 0.000413831 0)
(-0.145276 -0.00127944 0)
(-0.144376 -0.00300059 0)
(-0.143067 -0.00473786 0)
(-0.141351 -0.00647912 0)
(-0.139233 -0.00821182 0)
(-0.136719 -0.00992306 0)
(-0.133817 -0.0115997 0)
(-0.130539 -0.0132283 0)
(-0.126897 -0.0147955 0)
(-0.122907 -0.016288 0)
(-0.118586 -0.0176926 0)
(-0.113953 -0.0189964 0)
(-0.10903 -0.0201871 0)
(-0.103842 -0.021253 0)
(-0.0984144 -0.0221833 0)
(-0.0927752 -0.0229679 0)
(-0.0869546 -0.0235983 0)
(-0.0809844 -0.0240673 0)
(-0.074898 -0.0243691 0)
(-0.0687302 -0.0244997 0)
(-0.0625167 -0.0244571 0)
(-0.0562943 -0.0242411 0)
(-0.0501 -0.0238538 0)
(-0.0439711 -0.0232993 0)
(-0.0379445 -0.0225839 0)
(-0.0320564 -0.0217162 0)
(-0.026342 -0.0207065 0)
(-0.0208348 -0.0195674 0)
(-0.0155665 -0.018313 0)
(-0.0105664 -0.016959 0)
(-0.00586094 -0.0155223 0)
(-0.0014735 -0.0140208 0)
(0.0025759 -0.0124731 0)
(0.00627092 -0.0108978 0)
(0.0095991 -0.00931372 0)
(0.012552 -0.0077389 0)
(0.0151251 -0.00619074 0)
(0.017318 -0.00468546 0)
(0.0191343 -0.0032378 0)
(0.0205814 -0.00186086 0)
(0.0216701 -0.000565797 0)
(0.0224145 0.000638224 0)
(0.0228319 0.00174415 0)
(0.0229418 0.00274704 0)
(0.022766 0.00364395 0)
(0.022328 0.00443378 0)
(0.0216526 0.00511709 0)
(0.0207654 0.00569569 0)
(0.0196928 0.00617232 0)
(0.0184611 0.00655015 0)
(0.0170971 0.00683222 0)
(0.0156271 0.00702092 0)
(0.0140777 0.00711738 0)
(0.0124754 0.00712093 0)
(0.0108469 0.00702862 0)
(0.00921932 0.00683496 0)
(0.00762065 0.00653189 0)
(0.00608004 0.00610922 0)
(0.00462838 0.00555556 0)
(0.00329902 0.00486012 0)
(0.00212763 0.00401542 0)
(0.00115147 0.00302082 0)
(0.000427766 0.00188706 0)
(6.92818e-05 0.000644743 0)
(3.23224e-05 -0.000506044 0)
(0.000173481 -0.001251 0)
(0.000425111 -0.0017611 0)
(0.000719221 -0.00206474 0)
(0.00101496 -0.0021889 0)
(0.00128373 -0.00215978 0)
(0.00150115 -0.00200209 0)
(0.00164678 -0.00173851 0)
(0.0017038 -0.00138924 0)
(0.00165824 -0.000971894 0)
(0.00149848 -0.000501399 0)
(0.0012148 9.93232e-06 0)
(0.000799019 0.000552256 0)
(0.000244153 0.00111801 0)
(-0.000455892 0.00170169 0)
(-0.00130657 0.00229962 0)
(-0.00231291 0.00290968 0)
(-0.00347972 0.00353108 0)
(-0.00481171 0.00416404 0)
(-0.00631358 0.0048096 0)
(-0.00799012 0.00546928 0)
(-0.00984613 0.00614486 0)
(-0.0118865 0.00683816 0)
(-0.0141159 0.00755075 0)
(-0.0165389 0.00828381 0)
(-0.0191596 0.00903791 0)
(-0.0219818 0.0098129 0)
(-0.0250081 0.0106078 0)
(-0.0282404 0.0114206 0)
(-0.0316792 0.0122486 0)
(-0.0353237 0.0130878 0)
(-0.0391712 0.0139334 0)
(-0.0432174 0.0147798 0)
(-0.0474557 0.0156203 0)
(-0.0518776 0.0164476 0)
(-0.0564723 0.0172535 0)
(-0.0612267 0.0180294 0)
(-0.0661254 0.0187663 0)
(-0.0711506 0.0194545 0)
(-0.0762827 0.0200846 0)
(-0.0814999 0.0206467 0)
(-0.0867785 0.0211312 0)
(-0.0920933 0.0215289 0)
(-0.0974177 0.0218308 0)
(-0.102724 0.0220286 0)
(-0.107984 0.0221146 0)
(-0.113169 0.0220821 0)
(-0.118249 0.0219252 0)
(-0.123196 0.0216391 0)
(-0.127982 0.0212201 0)
(-0.132578 0.0206658 0)
(-0.136959 0.0199747 0)
(-0.141097 0.0191468 0)
(-0.144971 0.0181833 0)
(-0.148556 0.0170865 0)
(-0.151831 0.0158598 0)
(-0.154778 0.0145079 0)
(-0.157379 0.0130365 0)
(-0.159618 0.0114523 0)
(-0.161481 0.00976303 0)
(-0.162956 0.00797736 0)
(-0.164033 0.00610477 0)
(-0.164704 0.00415554 0)
(-0.164961 0.00214071 0)
(-0.164801 7.20938e-05 0)
(-0.164219 -0.00203761 0)
(-0.163215 -0.0041757 0)
(-0.16179 -0.00632851 0)
(-0.159945 -0.00848188 0)
(-0.157686 -0.0106213 0)
(-0.155017 -0.0127317 0)
(-0.151947 -0.014798 0)
(-0.148486 -0.0168047 0)
(-0.144646 -0.0187363 0)
(-0.140441 -0.0205772 0)
(-0.135888 -0.0223122 0)
(-0.131003 -0.0239262 0)
(-0.125809 -0.0254046 0)
(-0.120328 -0.0267335 0)
(-0.114585 -0.0279001 0)
(-0.108607 -0.0288923 0)
(-0.102423 -0.0296997 0)
(-0.0960646 -0.0303131 0)
(-0.0895646 -0.0307252 0)
(-0.0829578 -0.0309308 0)
(-0.0762803 -0.0309266 0)
(-0.0695694 -0.0307117 0)
(-0.0628631 -0.0302877 0)
(-0.0562 -0.0296586 0)
(-0.0496188 -0.0288311 0)
(-0.0431578 -0.0278145 0)
(-0.0368544 -0.0266202 0)
(-0.030745 -0.0252625 0)
(-0.0248641 -0.0237575 0)
(-0.0192443 -0.0221234 0)
(-0.0139155 -0.0203798 0)
(-0.00890477 -0.018548 0)
(-0.00423573 -0.0166499 0)
(7.14687e-05 -0.014708 0)
(0.00400058 -0.0127449 0)
(0.00753937 -0.0107829 0)
(0.0106798 -0.00884331 0)
(0.0134179 -0.00694656 0)
(0.0157541 -0.00511142 0)
(0.0176927 -0.00335477 0)
(0.019242 -0.00169143 0)
(0.020414 -0.000133846 0)
(0.0212239 0.00130793 0)
(0.02169 0.00262636 0)
(0.0218334 0.00381631 0)
(0.0216771 0.00487494 0)
(0.0212463 0.00580143 0)
(0.0205672 0.00659662 0)
(0.0196674 0.00726263 0)
(0.018575 0.00780224 0)
(0.0173185 0.00821833 0)
(0.0159269 0.00851324 0)
(0.014429 0.00868801 0)
(0.0128542 0.00874181 0)
(0.0112318 0.00867137 0)
(0.0095918 0.00847056 0)
(0.00796502 0.00813034 0)
(0.00638338 0.00763905 0)
(0.00488074 0.0069832 0)
(0.00349384 0.00614896 0)
(0.00226244 0.00512429 0)
(0.00122882 0.00390175 0)
(0.000457716 0.00248167 0)
(7.42628e-05 0.000877584 0)
(2.97495e-05 -0.00059467 0)
(0.000155477 -0.001449 0)
(0.000372921 -0.00201568 0)
(0.000616383 -0.00233397 0)
(0.000845417 -0.00243896 0)
(0.00103145 -0.00236321 0)
(0.00115037 -0.00213644 0)
(0.00118209 -0.00178524 0)
(0.00111003 -0.00133298 0)
(0.000920371 -0.000799817 0)
(0.000601424 -0.000202708 0)
(0.000143215 0.000444399 0)
(-0.000462902 0.00113038 0)
(-0.00122455 0.00184671 0)
(-0.0021486 0.00258715 0)
(-0.00324139 0.00334756 0)
(-0.00450889 0.00412551 0)
(-0.00595686 0.00492003 0)
(-0.00759097 0.00573131 0)
(-0.0094168 0.00656036 0)
(-0.0114399 0.00740871 0)
(-0.0136657 0.00827812 0)
(-0.0160995 0.00917025 0)
(-0.0187463 0.0100864 0)
(-0.0216106 0.0110274 0)
(-0.0246961 0.0119932 0)
(-0.0280058 0.0129827 0)
(-0.0315415 0.0139938 0)
(-0.0353035 0.0150235 0)
(-0.0392906 0.0160672 0)
(-0.0434997 0.0171194 0)
(-0.0479256 0.0181733 0)
(-0.0525611 0.019221 0)
(-0.0573964 0.0202537 0)
(-0.0624194 0.0212617 0)
(-0.0676154 0.0222346 0)
(-0.0729676 0.0231613 0)
(-0.0784565 0.0240303 0)
(-0.0840604 0.02483 0)
(-0.0897557 0.0255487 0)
(-0.0955169 0.0261748 0)
(-0.101317 0.0266972 0)
(-0.107127 0.0271051 0)
(-0.112919 0.0273886 0)
(-0.118662 0.0275387 0)
(-0.124326 0.0275475 0)
(-0.129881 0.027408 0)
(-0.135298 0.0271147 0)
(-0.140548 0.0266634 0)
(-0.145602 0.0260512 0)
(-0.150433 0.0252767 0)
(-0.155018 0.02434 0)
(-0.159331 0.0232423 0)
(-0.16335 0.0219864 0)
(-0.167055 0.0205763 0)
(-0.170427 0.0190173 0)
(-0.173449 0.0173158 0)
(-0.176106 0.0154792 0)
(-0.178385 0.0135162 0)
(-0.180273 0.0114362 0)
(-0.18176 0.00924965 0)
(-0.182839 0.00696766 0)
(-0.1835 0.00460226 0)
(-0.18374 0.00216616 0)
(-0.183554 -0.000327209 0)
(-0.182939 -0.0028636 0)
(-0.181894 -0.00542857 0)
(-0.180419 -0.00800681 0)
(-0.178517 -0.0105825 0)
(-0.176191 -0.0131394 0)
(-0.173445 -0.0156607 0)
(-0.170286 -0.0181295 0)
(-0.166724 -0.0205283 0)
(-0.162767 -0.0228397 0)