/*--------------------------------*- C++ -*----------------------------------*\
| =========                 |                                                 |
| \\      /  F ield         | OpenFOAM: The Open Source CFD Toolbox           |
|  \\    /   O peration     | Version:  2112                                  |
|   \\  /    A nd           | Website:  www.openfoam.com                      |
|    \\/     M anipulation  |                                                 |
\*---------------------------------------------------------------------------*/
FoamFile
{
    version     2.0;
    format      ascii;
    arch        "LSB;label=32;scalar=64";
    class       volScalarField;
    location    "3";
    object      p;
}
// * * * * * * * * * * * * * * * * * * * * * * * * * * * * * * * * * * * * * //

dimensions      [0 2 -2 0 0 0 0];

internalField   nonuniform List<scalar> 
16641
(
-8.93207e-08
1.30021e-05
2.5947e-05
3.3744e-05
3.29043e-05
2.16602e-05
-5.33502e-07
-3.35221e-05
-7.67592e-05
-0.000129488
-0.000190873
-0.000260075
-0.000336302
-0.000418851
-0.000507141
-0.000600717
-0.00069926
-0.000802578
-0.000910596
-0.00102334
-0.00114094
-0.00126356
-0.00139145
-0.00152483
-0.00166397
-0.0018091
-0.0019604
-0.00211803
-0.00228207
-0.00245251
-0.0026293
-0.00281226
-0.00300111
-0.00319548
-0.00339489
-0.00359872
-0.00380624
-0.0040166
-0.0042288
-0.00444172
-0.00465409
-0.00486452
-0.00507149
-0.00527333
-0.00546829
-0.00565449
-0.00582997
-0.0059927
-0.00614062
-0.00627162
-0.00638362
-0.00647458
-0.00654253
-0.00658561
-0.00660214
-0.00659059
-0.0065497
-0.00647847
-0.0063762
-0.00624258
-0.00607764
-0.00588184
-0.0056561
-0.00540177
-0.00512069
-0.00481516
-0.00448794
-0.00414216
-0.00378168
-0.00341046
-0.0030329
-0.00265372
-0.00227784
-0.00191038
-0.00155648
-0.00122129
-0.000909861
-0.000627002
-0.00037723
-0.000164652
7.12667e-06
0.000135084
0.000216854
0.00025079
0.000236005
0.000172399
6.06685e-05
-9.77121e-05
-0.000300517
-0.000544824
-0.000827182
-0.0011434
-0.00148905
-0.00185931
-0.00224917
-0.0026535
-0.00306723
-0.00348541
-0.00390335
-0.00431664
-0.0047213
-0.00511377
-0.005491
-0.00585043
-0.00619003
-0.00650825
-0.00680404
-0.00707678
-0.00732626
-0.00755263
-0.00775633
-0.00793803
-0.00809861
-0.00823904
-0.00836038
-0.0084637
-0.00855003
-0.00862032
-0.00867543
-0.0087161
-0.00874297
-0.00875664
-0.00875777
-0.00874724
-0.00872646
-0.00869787
-0.00866551
-0.00863548
-0.00861702
-1.44066e-05
-9.23479e-07
8.19145e-06
1.14306e-05
7.21587e-06
-5.83792e-06
-2.834e-05
-6.03252e-05
-0.000101483
-0.000151302
-0.000209165
-0.000274417
-0.000346416
-0.000424581
-0.000508419
-0.00059754
-0.000691661
-0.000790606
-0.000894297
-0.00100275
-0.00111605
-0.00123435
-0.00135783
-0.00148672
-0.00162121
-0.00176151
-0.00190778
-0.00206016
-0.00221871
-0.00238345
-0.0025543
-0.00273112
-0.00291365
-0.00310155
-0.00329437
-0.00349155
-0.00369242
-0.00389617
-0.00410188
-0.0043085
-0.00451484
-0.00471958
-0.00492127
-0.00511836
-0.00530915
-0.00549187
-0.00566464
-0.00582551
-0.0059725
-0.00610358
-0.00621674
-0.00630999
-0.00638142
-0.00642922
-0.00645171
-0.00644742
-0.00641508
-0.00635368
-0.00626251
-0.0061412
-0.00598976
-0.00580858
-0.00559848
-0.00536073
-0.00509705
-0.00480967
-0.00450121
-0.00417465
-0.00383356
-0.00348185
-0.00312374
-0.00276376
-0.00240666
-0.00205734
-0.00172078
-0.00140193
-0.00110566
-0.000836604
-0.000599123
-0.00039717
-0.00023422
-0.000113181
-3.63257e-05
-5.23554e-06
-2.07555e-05
-8.29716e-05
-0.000191205
-0.000344026
-0.000539291
-0.00077419
-0.00104533
-0.00134883
-0.00168033
-0.00203524
-0.00240878
-0.00279606
-0.00319224
-0.00359263
-0.00399274
-0.00438843
-0.00477592
-0.00515185
-0.00551334
-0.00585799
-0.00618388
-0.00648956
-0.00677404
-0.00703675
-0.00727747
-0.00749634
-0.00769376
-0.00787035
-0.00802691
-0.00816435
-0.00828366
-0.00838583
-0.00847186
-0.00854268
-0.00859917
-0.00864211
-0.00867225
-0.00869033
-0.00869716
-0.00869374
-0.00868149
-0.00866248
-0.00863978
-0.00861713
-0.00859858
-2.82104e-05
-1.0554e-05
-1.31835e-06
5.00454e-07
-5.0538e-06
-1.89196e-05
-4.15512e-05
-7.29488e-05
-0.000112858
-0.00016086
-0.000216434
-0.000279014
-0.000348047
-0.000423024
-0.000503513
-0.000589168
-0.000679738
-0.000775064
-0.00087508
-0.000979802
-0.00108932
-0.00120376
-0.00132332
-0.00144818
-0.00157855
-0.00171461
-0.00185653
-0.00200444
-0.00215842
-0.00231848
-0.00248457
-0.00265657
-0.00283425
-0.00301731
-0.00320534
-0.00339783
-0.00359416
-0.00379358
-0.00399522
-0.00419809
-0.00440106
-0.00460289
-0.00480219
-0.00499745
-0.00518705
-0.00536926
-0.00554225
-0.00570413
-0.00585293
-0.00598666
-0.00610333
-0.00620096
-0.00627765
-0.00633157
-0.00636103
-0.00636453
-0.00634075
-0.00628865
-0.00620746
-0.00609675
-0.00595646
-0.00578691
-0.00558882
-0.00536338
-0.00511225
-0.00483761
-0.00454161
-0.00422772
-0.00389912
-0.00355962
-0.00321338
-0.00286483
-0.00251863
-0.00217962
-0.00185269
-0.00154273
-0.00125453
-0.000992688
-0.000761504
-0.00056489
-0.000406283
-0.000288565
-0.000213985
-0.00018411
-0.000199777
-0.000261071
-0.000367321
-0.000517112
-0.000708323
-0.000938179
-0.00120332
-0.0014999
-0.00182367
-0.00217008
-0.00253441
-0.00291189
-0.00329777
-0.00368747
-0.00407662
-0.00446119
-0.00483753
-0.0052024
-0.00555304
-0.00588717
-0.00620297
-0.00649908
-0.0067746
-0.00702902
-0.00726217
-0.00747424
-0.00766563
-0.00783699
-0.00798911
-0.0081229
-0.00823933
-0.00833939
-0.00842407
-0.00849429
-0.00855095
-0.00859486
-0.00862678
-0.00864748
-0.00865773
-0.00865844
-0.00865076
-0.00863628
-0.00861717
-0.00859457
-0.00856838
-3.67379e-05
-1.43161e-05
-3.55514e-06
-1.7702e-06
-7.72139e-06
-2.1943e-05
-4.46578e-05
-7.5742e-05
-0.000114903
-0.000161725
-0.000215711
-0.000276337
-0.000343092
-0.000415514
-0.00049321
-0.00057587
-0.00066327
-0.000755278
-0.000851847
-0.00095301
-0.00105887
-0.00116956
-0.00128529
-0.00140624
-0.00153263
-0.00166466
-0.00180249
-0.00194629
-0.00209613
-0.00225208
-0.00241409
-0.00258208
-0.00275587
-0.0029352
-0.0031197
-0.00330893
-0.0035023
-0.00369914
-0.00389863
-0.00409984
-0.0043017
-0.004503
-0.00470242
-0.00489849
-0.00508961
-0.0052741
-0.00545014
-0.00561583
-0.00576923
-0.00590833
-0.0060311
-0.00613555
-0.00621973
-0.00628175
-0.00631988
-0.00633253
-0.00631833
-0.00627615
-0.00620515
-0.00610481
-0.00597497
-0.00581587
-0.00562817
-0.00541296
-0.00517193
-0.00490747
-0.00462028
-0.00431511
-0.00399486
-0.00366319
-0.00332419
-0.00298228
-0.00264209
-0.00230844
-0.00198621
-0.00168032
-0.00139554
-0.00113651
-0.000907524
-0.000712536
-0.000555007
-0.000437844
-0.000363327
-0.000333045
-0.000347858
-0.000407866
-0.000512407
-0.000660074
-0.000848742
-0.00107563
-0.00133737
-0.0016301
-0.00194954
-0.0022912
-0.00265026
-0.003022
-0.00340168
-0.00378473
-0.00416681
-0.00454395
-0.00491254
-0.00526942
-0.00561191
-0.0059378
-0.00624537
-0.00653336
-0.00680095
-0.00704773
-0.00727361
-0.00747885
-0.00766392
-0.00782953
-0.0079765
-0.0081058
-0.00821842
-0.00831537
-0.00839767
-0.00846625
-0.00852203
-0.00856581
-0.00859834
-0.00862031
-0.00863241
-0.00863533
-0.00862982
-0.00861698
-0.00859817
-0.00857231
-0.00853623
-3.66099e-05
-1.0615e-05
1.46072e-06
3.36817e-06
-2.84629e-06
-1.74004e-05
-4.03126e-05
-7.13206e-05
-0.000110055
-0.000156067
-0.000208856
-0.000267907
-0.000332735
-0.000402906
-0.000478057
-0.000557907
-0.000642264
-0.000731025
-0.000824173
-0.000921769
-0.00102394
-0.00113085
-0.0012427
-0.00135974
-0.00148218
-0.00161025
-0.00174415
-0.00188406
-0.00203012
-0.00218238
-0.00234089
-0.00250559
-0.00267634
-0.00285296
-0.00303513
-0.00322245
-0.00341443
-0.00361043
-0.0038097
-0.00401136
-0.00421439
-0.00441763
-0.00461978
-0.00481941
-0.00501493
-0.00520465
-0.00538675
-0.0055593
-0.00572033
-0.00586777
-0.00599954
-0.00611358
-0.00620786
-0.0062804
-0.00632938
-0.00635312
-0.00635014
-0.00631921
-0.00625939
-0.00617007
-0.00605099
-0.00590231
-0.00572461
-0.00551892
-0.0052866
-0.00502912
-0.00475074
-0.00445268
-0.00413858
-0.00381226
-0.00347784
-0.00313971
-0.00280253
-0.00247114
-0.00215047
-0.00184544
-0.00156091
-0.00130155
-0.00107174
-0.000875492
-0.000716328
-0.000597227
-0.000520532
-0.00048789
-0.00050021
-0.000557631
-0.00065952
-0.000804482
-0.000990393
-0.00121446
-0.00147329
-0.00176298
-0.00207921
-0.0024174
-0.00277277
-0.00314047
-0.00351573
-0.00389396
-0.0042708
-0.00464225
-0.00500473
-0.0053551
-0.00569071
-0.00600943
-0.0063096
-0.00659005
-0.00685004
-0.00708927
-0.00730774
-0.00750581
-0.00768405
-0.00784323
-0.00798429
-0.00810822
-0.00821611
-0.008309
-0.00838795
-0.00845393
-0.00850786
-0.00855054
-0.00858269
-0.00860493
-0.00861778
-0.0086217
-0.00861708
-0.00860452
-0.00858474
-0.00855482
-0.00850908
-2.59549e-05
2.03139e-06
1.47495e-05
1.65235e-05
9.87501e-06
-5.19366e-06
-2.85351e-05
-5.97564e-05
-9.83993e-05
-0.000143963
-0.000195924
-0.000253764
-0.000317006
-0.000385232
-0.000458104
-0.000535367
-0.000616864
-0.000702525
-0.000792371
-0.000886502
-0.000985077
-0.00108831
-0.00119643
-0.00130972
-0.00142845
-0.00155287
-0.00168324
-0.00181978
-0.00196267
-0.00211204
-0.00226797
-0.00243046
-0.00259947
-0.00277484
-0.00295635
-0.00314367
-0.00333634
-0.00353381
-0.00373538
-0.00394022
-0.00414733
-0.00435559
-0.00456372
-0.00477026
-0.00497362
-0.00517208
-0.00536376
-0.00554669
-0.0057188
-0.00587794
-0.00602195
-0.00614863
-0.00625585
-0.00634152
-0.0064037
-0.00644058
-0.00645056
-0.00643232
-0.00638478
-0.00630725
-0.00619936
-0.0060612
-0.00589326
-0.00569652
-0.00547237
-0.00522251
-0.0049498
-0.00465682
-0.00434689
-0.00402377
-0.00369154
-0.00335463
-0.00301774
-0.00268575
-0.00236363
-0.0020564
-0.00176898
-0.00150613
-0.00127232
-0.00107166
-0.000907795
-0.000783791
-0.000702094
-0.000664447
-0.000671839
-0.000724483
-0.0008218
-0.000962431
-0.00114427
-0.00136452
-0.00161977
-0.00190607
-0.00221906
-0.00255406
-0.00290622
-0.00327062
-0.0036424
-0.00401687
-0.00438962
-0.00475659
-0.00511415
-0.00545915
-0.00578895
-0.00610143
-0.00639498
-0.00666849
-0.00692131
-0.0071532
-0.0073643
-0.00755505
-0.00772613
-0.00787843
-0.00801296
-0.00813084
-0.0082332
-0.00832119
-0.0083959
-0.00845837
-0.00850952
-0.00855016
-0.00858096
-0.00860247
-0.00861507
-0.00861899
-0.0086143
-0.00860118
-0.00857984
-0.00854598
-0.00849199
-3.94714e-06
2.44426e-05
3.6958e-05
3.81251e-05
3.06786e-05
1.47711e-05
-9.31637e-06
-4.10781e-05
-7.99717e-05
-0.000125441
-0.000176929
-0.000233906
-0.000295894
-0.000362485
-0.000433361
-0.000508297
-0.000587171
-0.000669956
-0.00075672
-0.000847608
-0.000942831
-0.00104265
-0.00114736
-0.00125729
-0.00137277
-0.00149412
-0.00162164
-0.00175563
-0.00189634
-0.00204396
-0.00219865
-0.00236049
-0.00252951
-0.00270563
-0.0028887
-0.00307846
-0.00327454
-0.00347641
-0.00368343
-0.0038948
-0.00410955
-0.00432654
-0.00454447
-0.00476187
-0.00497707
-0.00518828
-0.00539354
-0.00559078
-0.00577779
-0.00595232
-0.00611206
-0.00625467
-0.00637788
-0.00647946
-0.00655732
-0.00660953
-0.00663436
-0.00663035
-0.00659634
-0.00653151
-0.00643544
-0.00630809
-0.00614991
-0.00596181
-0.00574518
-0.00550173
-0.00523401
-0.00494482
-0.00463747
-0.00431568
-0.00398357
-0.00364559
-0.00330649
-0.00297118
-0.00264474
-0.00233224
-0.00203872
-0.00176904
-0.0015278
-0.00131924
-0.00114712
-0.00101467
-0.000924467
-0.000878385
-0.00087754
-0.000922254
-0.00101204
-0.00114562
-0.00132094
-0.00153521
-0.00178503
-0.00206642
-0.00237496
-0.00270591
-0.00305431
-0.00341515
-0.00378344
-0.00415441
-0.00452351
-0.00488659
-0.00523994
-0.00558034
-0.00590511
-0.00621211
-0.00649974
-0.00676691
-0.00701303
-0.00723796
-0.00744188
-0.00762536
-0.00778918
-0.00793435
-0.00806199
-0.00817332
-0.00826958
-0.008352
-0.00842175
-0.00847991
-0.00852746
-0.00856521
-0.0085938
-0.00861372
-0.00862522
-0.00862836
-0.00862292
-0.00860879
-0.00858578
-0.00854859
-0.00848832
2.96759e-05
5.69893e-05
6.84001e-05
6.83595e-05
5.96291e-05
4.24707e-05
1.7272e-05
-1.53732e-05
-5.48523e-05
-0.000100558
-0.000151903
-0.000208338
-0.000269385
-0.000334645
-0.000403821
-0.000476721
-0.000553264
-0.000633475
-0.000717475
-0.000805469
-0.000897732
-0.000994591
-0.00109642
-0.0012036
-0.00131656
-0.00143568
-0.00156137
-0.00169399
-0.00183388
-0.00198132
-0.00213656
-0.00229978
-0.00247109
-0.0026505
-0.00283794
-0.00303321
-0.003236
-0.00344583
-0.00366208
-0.00388397
-0.0041105
-0.00434051
-0.00457264
-0.00480533
-0.00503684
-0.00526524
-0.00548845
-0.00570425
-0.00591028
-0.00610412
-0.00628329
-0.0064453
-0.00658771
-0.00670813
-0.00680432
-0.0068742
-0.00691593
-0.00692792
-0.0069089
-0.00685797
-0.0067746
-0.0066587
-0.00651065
-0.00633127
-0.00612189
-0.00588437
-0.00562106
-0.00533476
-0.00502879
-0.00470687
-0.00437314
-0.00403208
-0.00368848
-0.00334732
-0.00301373
-0.00269291
-0.00238997
-0.00210993
-0.00185751
-0.00163712
-0.00145269
-0.00130762
-0.00120466
-0.00114588
-0.00113255
-0.00116518
-0.0012434
-0.00136607
-0.00153121
-0.00173613
-0.00197743
-0.00225114
-0.00255283
-0.00287767
-0.00322063
-0.00357657
-0.00394041
-0.0043072
-0.00467228
-0.00503137
-0.00538061
-0.00571669
-0.00603684
-0.00633885
-0.00662108
-0.00688245
-0.00712239
-0.00734075
-0.00753785
-0.00771429
-0.00787098
-0.00800902
-0.00812964
-0.00823419
-0.008324
-0.00840041
-0.00846469
-0.00851797
-0.00856129
-0.00859547
-0.00862118
-0.00863883
-0.0086486
-0.00865041
-0.00864385
-0.00862857
-0.0086041
-0.00856452
-0.00850008
7.48952e-05
9.9793e-05
0.000109202
0.000107306
9.67584e-05
7.79049e-05
5.12139e-05
1.73428e-05
-2.30433e-05
-6.92975e-05
-0.000120805
-0.000177004
-0.000237416
-0.000301659
-0.000369459
-0.000440664
-0.000515245
-0.000593284
-0.000674966
-0.000760569
-0.000850445
-0.000945008
-0.00104471
-0.00115005
-0.00126152
-0.00137962
-0.00150485
-0.00163769
-0.00177856
-0.00192789
-0.002086
-0.00225318
-0.00242964
-0.00261548
-0.0028107
-0.00301517
-0.00322862
-0.0034506
-0.00368049
-0.00391746
-0.0041605
-0.00440835
-0.00465955
-0.00491243
-0.0051651
-0.00541548
-0.0056613
-0.00590017
-0.00612954
-0.00634679
-0.00654927
-0.0067343
-0.00689926
-0.00704159
-0.00715892
-0.00724902
-0.00730991
-0.0073399
-0.00733763
-0.00730207
-0.00723265
-0.0071292
-0.00699202
-0.00682189
-0.00662004
-0.00638841
-0.00612921
-0.00584526
-0.00553982
-0.00521662
-0.00487982
-0.0045339
-0.00418369
-0.00383422
-0.00349069
-0.00315839
-0.00284257
-0.00254835
-0.00228065
-0.00204403
-0.00184264
-0.00168009
-0.00155937
-0.00148275
-0.00145176
-0.00146709
-0.00152862
-0.00163535
-0.00178549
-0.00197645
-0.00220492
-0.00246698
-0.00275818
-0.00307369
-0.00340839
-0.00375705
-0.00411445
-0.00447549
-0.00483537
-0.00518961
-0.00553423
-0.00586576
-0.00618128
-0.00647848
-0.00675565
-0.00701164
-0.00724585
-0.00745815
-0.00764888
-0.00781869
-0.00796858
-0.00809973
-0.00821349
-0.00831129
-0.0083946
-0.00846485
-0.00852339
-0.00857147
-0.00861016
-0.00864036
-0.00866271
-0.00867764
-0.00868529
-0.00868546
-0.00867762
-0.00866126
-0.00863575
-0.0085948
-0.00852829
0.000131529
0.000152792
0.000159344
0.000154949
0.000142055
0.000121067
9.25126e-05
5.70882e-05
1.54926e-05
-3.16012e-05
-8.35611e-05
-0.000139823
-0.000199915
-0.000263477
-0.000330272
-0.000400197
-0.00047328
-0.000549672
-0.000629635
-0.000713534
-0.000801815
-0.000894991
-0.000993627
-0.00109832
-0.00120969
-0.00132836
-0.00145495
-0.00159006
-0.00173424
-0.00188803
-0.00205189
-0.00222621
-0.0024113
-0.00260734
-0.00281442
-0.00303243
-0.00326112
-0.00350004
-0.00374854
-0.00400573
-0.00427049
-0.00454146
-0.00481702
-0.00509533
-0.00537432
-0.00565171
-0.00592502
-0.00619165
-0.00644884
-0.00669376
-0.00692355
-0.00713535
-0.00732635
-0.00749386
-0.00763533
-0.0077484
-0.00783098
-0.00788127
-0.0078978
-0.00787947
-0.00782562
-0.007736
-0.00761085
-0.0074509
-0.00725733
-0.00703195
-0.00677699
-0.00649518
-0.00618979
-0.00586449
-0.00552342
-0.00517107
-0.00481227
-0.00445211
-0.00409584
-0.00374884
-0.00341647
-0.00310401
-0.00281654
-0.00255885
-0.0023353
-0.00214976
-0.00200548
-0.00190505
-0.00185026
-0.0018421
-0.00188071
-0.00196536
-0.00209447
-0.00226564
-0.00247573
-0.00272092
-0.0029968
-0.00329856
-0.00362104
-0.00395893
-0.00430688
-0.00465965
-0.00501227
-0.00536008
-0.00569889
-0.00602506
-0.00633548
-0.00662771
-0.00689988
-0.00715074
-0.00737961
-0.00758634
-0.00777122
-0.00793496
-0.00807858
-0.00820331
-0.00831061
-0.00840199
-0.00847902
-0.00854324
-0.00859609
-0.00863891
-0.00867286
-0.00869888
-0.00871767
-0.00872967
-0.008735
-0.00873342
-0.00872434
-0.00870714
-0.00868109
-0.00863982
-0.00857316
0.000199275
0.000215779
0.000218675
0.000211177
0.000195436
0.000171902
0.000141139
0.00010386
6.07771e-05
1.25729e-05
-4.01187e-05
-9.67423e-05
-0.000156848
-0.000220108
-0.000286334
-0.000355482
-0.00042765
-0.000503067
-0.00058209
-0.000665184
-0.000752908
-0.000845893
-0.000944831
-0.00105045
-0.00116352
-0.00128478
-0.00141502
-0.00155495
-0.00170531
-0.00186673
-0.00203982
-0.00222507
-0.00242289
-0.00263355
-0.00285716
-0.00309365
-0.00334275
-0.00360397
-0.00387658
-0.00415957
-0.00445169
-0.00475141
-0.00505692
-0.00536616
-0.00567685
-0.00598647
-0.0062923
-0.00659151
-0.00688111
-0.00715807
-0.00741931
-0.00766178
-0.0078825
-0.00807863
-0.00824746
-0.00838653
-0.00849361
-0.00856681
-0.00860456
-0.00860568
-0.00856941
-0.00849544
-0.00838391
-0.00823548
-0.00805127
-0.00783298
-0.00758278
-0.00730334
-0.00699784
-0.00666992
-0.00632366
-0.00596354
-0.00559436
-0.00522124
-0.00484948
-0.00448451
-0.00413183
-0.00379686
-0.00348486
-0.00320085
-0.00294945
-0.00273482
-0.00256055
-0.00242953
-0.00234394
-0.00230512
-0.00231355
-0.00236886
-0.00246976
-0.00261414
-0.00279908
-0.00302092
-0.00327541
-0.00355778
-0.00386289
-0.00418537
-0.00451979
-0.00486077
-0.00520315
-0.00554208
-0.00587316
-0.00619252
-0.00649684
-0.00678347
-0.00705035
-0.00729609
-0.00751986
-0.00772143
-0.00790102
-0.0080593
-0.00819729
-0.00831628
-0.00841773
-0.00850327
-0.00857452
-0.00863311
-0.00868061
-0.00871841
-0.00874778
-0.00876972
-0.008785
-0.00879409
-0.00879713
-0.00879389
-0.00878374
-0.00876605
-0.00874002
-0.00869941
-0.00863432
0.00027773
0.000288425
0.000286926
0.000275769
0.000256723
0.000230272
0.000196995
0.000157592
0.000112773
6.32063e-05
9.50806e-06
-4.77907e-05
-0.000108277
-0.000171672
-0.000237848
-0.00030683
-0.000378802
-0.000454089
-0.000533155
-0.000616586
-0.000705069
-0.000799375
-0.000900343
-0.00100886
-0.00112583
-0.00125219
-0.00138886
-0.00153674
-0.00169669
-0.0018695
-0.0020559
-0.00225651
-0.00247179
-0.00270207
-0.00294748
-0.00320795
-0.00348315
-0.00377249
-0.00407512
-0.00438988
-0.00471531
-0.00504967
-0.00539093
-0.00573679
-0.00608469
-0.00643186
-0.00677534
-0.00711204
-0.00743875
-0.00775222
-0.00804916
-0.00832635
-0.00858064
-0.00880904
-0.00900871
-0.00917705
-0.00931175
-0.0094108
-0.00947253
-0.00949568
-0.00947939
-0.00942325
-0.00932733
-0.00919216
-0.00901879
-0.00880881
-0.00856428
-0.00828778
-0.00798239
-0.00765166
-0.00729961
-0.00693063
-0.00654952
-0.00616135
-0.00577147
-0.00538537
-0.00500863
-0.00464682
-0.00430539
-0.00398958
-0.00370432
-0.00345408
-0.00324281
-0.00307382
-0.00294968
-0.00287218
-0.00284226
-0.00285993
-0.00292434
-0.00303374
-0.00318553
-0.00337634
-0.0036021
-0.0038582
-0.00413956
-0.00444082
-0.00475649
-0.00508107
-0.00540923
-0.00573592
-0.00605652
-0.00636688
-0.00666345
-0.00694332
-0.0072042
-0.00744447
-0.00766314
-0.00785979
-0.00803454
-0.00818798
-0.00832107
-0.00843508
-0.00853149
-0.00861195
-0.00867816
-0.00873181
-0.00877454
-0.00880785
-0.00883307
-0.00885129
-0.00886335
-0.00886978
-0.00887077
-0.00886612
-0.00885524
-0.00883747
-0.00881204
-0.00877297
-0.00871087
0.000366385
0.000370275
0.000363694
0.000348375
0.000325621
0.000295931
0.000259877
0.000218124
0.000171344
0.000120173
6.51886e-05
6.87551e-06
-5.44081e-05
-0.000118449
-0.000185191
-0.000254751
-0.000327408
-0.000403604
-0.000483928
-0.000569104
-0.000659968
-0.000757452
-0.000862561
-0.000976354
-0.00109992
-0.00123438
-0.00138081
-0.00154029
-0.00171384
-0.00190239
-0.00210679
-0.00232775
-0.00256579
-0.00282125
-0.00309427
-0.00338469
-0.00369209
-0.00401575
-0.00435463
-0.00470737
-0.00507227
-0.00544735
-0.00583029
-0.00621852
-0.00660921
-0.00699931
-0.00738562
-0.00776478
-0.00813336
-0.00848789
-0.0088249
-0.00914099
-0.00943286
-0.00969735
-0.00993153
-0.0101327
-0.0102983
-0.0104264
-0.0105152
-0.0105633
-0.0105697
-0.0105339
-0.0104558
-0.010336
-0.0101753
-0.00997522
-0.00973762
-0.00946498
-0.00916027
-0.0088269
-0.00846878
-0.00809022
-0.00769593
-0.00729096
-0.00688062
-0.00647044
-0.00606608
-0.00567322
-0.00529751
-0.00494443
-0.00461918
-0.00432659
-0.00407102
-0.00385621
-0.00368524
-0.0035604
-0.00348313
-0.00345401
-0.00347267
-0.00353783
-0.00364735
-0.00379821
-0.00398668
-0.00420836
-0.00445833
-0.00473132
-0.00502181
-0.00532423
-0.00563311
-0.00594321
-0.00624963
-0.00654799
-0.00683443
-0.00710574
-0.00735936
-0.00759339
-0.00780659
-0.00799832
-0.00816853
-0.00831764
-0.00844652
-0.00855636
-0.00864863
-0.00872493
-0.00878701
-0.0088366
-0.0088754
-0.00890497
-0.00892672
-0.00894183
-0.0089512
-0.00895545
-0.00895481
-0.00894917
-0.00893797
-0.0089206
-0.00889631
-0.00885955
-0.00880162
0.000464603
0.000460731
0.000448419
0.000428498
0.000401691
0.000368494
0.00032945
0.000285153
0.00023621
0.000183196
0.000126627
6.69191e-05
4.35613e-06
-6.09299e-05
-0.000128977
-0.000200004
-0.000274413
-0.000352774
-0.000435825
-0.000524446
-0.000619646
-0.000722535
-0.000834306
-0.000956212
-0.00108954
-0.00123559
-0.00139564
-0.00157094
-0.00176266
-0.00197187
-0.00219952
-0.00244636
-0.00271297
-0.00299967
-0.0033065
-0.00363322
-0.00397926
-0.00434369
-0.00472526
-0.00512235
-0.005533
-0.00595491
-0.0063855
-0.00682188
-0.00726094
-0.00769937
-0.00813368
-0.00856027
-0.0089755
-0.00937569
-0.00975719
-0.0101164
-0.01045
-0.0107545
-0.011027
-0.0112646
-0.0114647
-0.0116252
-0.0117442
-0.0118203
-0.0118522
-0.0118395
-0.0117819
-0.0116798
-0.0115338
-0.0113454
-0.0111163
-0.0108488
-0.0105457
-0.0102102
-0.00984619
-0.00945773
-0.00904947
-0.00862635
-0.00819364
-0.00775687
-0.00732172
-0.006894
-0.00647948
-0.00608387
-0.00571268
-0.0053711
-0.00506389
-0.0047953
-0.00456893
-0.00438766
-0.00425355
-0.00416778
-0.00413061
-0.00414137
-0.00419845
-0.00429935
-0.00444077
-0.00461865
-0.00482835
-0.00506473
-0.00532237
-0.00559567
-0.00587905
-0.00616708
-0.00645464
-0.00673705
-0.00701014
-0.00727037
-0.00751483
-0.00774129
-0.0079482
-0.00813466
-0.00830033
-0.00844546
-0.00857071
-0.00867717
-0.00876619
-0.00883934
-0.00889832
-0.00894489
-0.00898075
-0.00900754
-0.00902672
-0.00903953
-0.00904696
-0.00904967
-0.00904801
-0.00904191
-0.0090309
-0.00901443
-0.00899181
-0.008958
-0.0089051
0.000571583
0.000559
0.000540398
0.000515474
0.000484325
0.00044741
0.000405204
0.000358199
0.000306901
0.000251798
0.000193314
0.000131776
6.73714e-05
1.31551e-07
-7.00942e-05
-0.000143652
-0.00022108
-0.000303103
-0.000390624
-0.000484705
-0.000586543
-0.000697451
-0.000818828
-0.000952136
-0.00109887
-0.00126053
-0.00143859
-0.00163445
-0.00184945
-0.00208476
-0.00234139
-0.00262013
-0.00292155
-0.00324588
-0.00359307
-0.00396271
-0.00435401
-0.00476583
-0.00519662
-0.00564449
-0.00610715
-0.00658201
-0.00706616
-0.00755641
-0.00804935
-0.0085414
-0.00902881
-0.00950775
-0.00997435
-0.0104247
-0.0108551
-0.0112617
-0.011641
-0.0119895
-0.012304
-0.0125817
-0.0128198
-0.0130161
-0.0131686
-0.0132757
-0.0133361
-0.0133493
-0.0133147
-0.0132327
-0.0131038
-0.0129291
-0.0127103
-0.0124495
-0.0121492
-0.0118126
-0.0114432
-0.011045
-0.0106225
-0.0101805
-0.00972413
-0.00925888
-0.00879043
-0.00832462
-0.00786738
-0.00742458
-0.00700201
-0.0066052
-0.00623935
-0.00590921
-0.00561896
-0.00537212
-0.00517143
-0.00501878
-0.00491518
-0.00486066
-0.0048543
-0.00489427
-0.0049778
-0.00510135
-0.00526064
-0.00545084
-0.00566668
-0.00590262
-0.00615303
-0.00641236
-0.00667526
-0.00693676
-0.00719236
-0.00743812
-0.00767078
-0.00788771
-0.00808699
-0.00826734
-0.00842815
-0.00856934
-0.00869136
-0.00879508
-0.0088817
-0.00895268
-0.00900965
-0.00905432
-0.00908839
-0.00911351
-0.00913116
-0.00914266
-0.00914904
-0.00915104
-0.00914908
-0.00914317
-0.00913293
-0.00911789
-0.00909744
-0.00906707
-0.00901979
0.000686324
0.000664144
0.000638693
0.000608439
0.000572721
0.000531926
0.000486427
0.000436569
0.000382727
0.000325264
0.000264489
0.000200613
0.000133709
6.36806e-05
-9.75581e-06
-8.70929e-05
-0.00016903
-0.000256467
-0.000350495
-0.000452376
-0.00056352
-0.000685458
-0.000819812
-0.000968264
-0.00113253
-0.0013143
-0.00151524
-0.00173692
-0.00198077
-0.00224805
-0.00253982
-0.00285686
-0.00319963
-0.00356828
-0.00396257
-0.00438188
-0.00482518
-0.00529102
-0.00577755
-0.00628255
-0.00680341
-0.0073372
-0.00788068
-0.00843036
-0.00898253
-0.00953334
-0.0100788
-0.0106148
-0.0111373
-0.0116423
-0.0121257
-0.0125836
-0.0130125
-0.0134087
-0.0137689
-0.01409
-0.0143695
-0.0146047
-0.0147937
-0.0149347
-0.0150265
-0.0150682
-0.0150593
-0.0149998
-0.0148901
-0.0147314
-0.0145248
-0.0142724
-0.0139766
-0.0136402
-0.0132665
-0.0128593
-0.0124229
-0.011962
-0.0114814
-0.0109866
-0.0104832
-0.00997703
-0.00947404
-0.00898029
-0.00850175
-0.00804429
-0.00761353
-0.0072147
-0.00685259
-0.00653138
-0.00625456
-0.00602482
-0.00584399
-0.00571294
-0.0056316
-0.00559891
-0.00561283
-0.00567048
-0.00576811
-0.00590132
-0.00606514
-0.00625421
-0.00646293
-0.00668568
-0.00691692
-0.00715142
-0.00738432
-0.00761132
-0.00782869
-0.00803339
-0.00822303
-0.00839594
-0.00855108
-0.00868803
-0.00880692
-0.00890834
-0.00899328
-0.00906301
-0.00911903
-0.00916294
-0.00919641
-0.00922105
-0.00923835
-0.00924964
-0.009256
-0.00925823
-0.0092568
-0.00925181
-0.00924297
-0.00922989
-0.00921203
-0.00918548
-0.00914415
0.000807609
0.000774971
0.000742179
0.000706318
0.000665857
0.000621065
0.000572169
0.000519323
0.000462731
0.000402601
0.000339099
0.000272294
0.000202117
0.000128323
5.04721e-05
-3.20987e-05
-0.000120272
-0.000215145
-0.000318018
-0.000430377
-0.000553861
-0.000690234
-0.000841354
-0.00100913
-0.00119549
-0.00140234
-0.00163148
-0.00188464
-0.00216332
-0.00246884
-0.00280222
-0.00316419
-0.00355509
-0.00397488
-0.0044231
-0.00489887
-0.00540084
-0.00592724
-0.0064759
-0.00704423
-0.00762926
-0.00822773
-0.00883607
-0.00945047
-0.0100669
-0.0106813
-0.0112894
-0.0118869
-0.0124695
-0.013033
-0.0135733
-0.0140863
-0.0145682
-0.0150153
-0.0154243
-0.015792
-0.0161156
-0.0163925
-0.0166207
-0.0167983
-0.0169238
-0.0169964
-0.0170155
-0.0169808
-0.0168926
-0.0167518
-0.0165596
-0.0163176
-0.0160281
-0.0156935
-0.0153171
-0.0149022
-0.014453
-0.0139738
-0.0134695
-0.0129451
-0.0124062
-0.0118584
-0.0113079
-0.0107606
-0.0102228
-0.00970046
-0.00919966
-0.00872609
-0.00828509
-0.00788154
-0.0075197
-0.00720312
-0.00693452
-0.00671575
-0.00654769
-0.00643021
-0.0063622
-0.00634157
-0.00636533
-0.00642965
-0.00653004
-0.00666144
-0.00681845
-0.00699543
-0.00718677
-0.00738697
-0.00759087
-0.00779374
-0.0079914
-0.00818031
-0.00835759
-0.00852105
-0.00866919
-0.00880115
-0.00891666
-0.00901595
-0.0090997
-0.00916895
-0.00922498
-0.00926926
-0.00930332
-0.0093287
-0.00934687
-0.00935913
-0.00936658
-0.00937006
-0.00937007
-0.00936678
-0.00936
-0.00934941
-0.00933453
-0.00931203
-0.00927674
0.000933968
0.000890059
0.000849486
0.000807797
0.000762466
0.000713596
0.000661214
0.00060524
0.000545667
0.000482515
0.000415774
0.000345346
0.000270992
0.000192299
0.000108643
1.91672e-05
-7.72165e-05
-0.000181825
-0.000296192
-0.000422041
-0.000561259
-0.000715856
-0.00088793
-0.00107962
-0.00129306
-0.00153032
-0.00179338
-0.00208403
-0.00240383
-0.0027541
-0.00313578
-0.00354947
-0.00399534
-0.00447311
-0.00498204
-0.00552094
-0.00608811
-0.00668143
-0.00729834
-0.00793589
-0.00859076
-0.00925931
-0.00993764
-0.0106216
-0.011307
-0.0119894
-0.0126642
-0.0133271
-0.0139734
-0.0145989
-0.0151993
-0.0157703
-0.0163081
-0.0168088
-0.0172691
-0.0176857
-0.0180557
-0.0183765
-0.0186459
-0.0188621
-0.0190234
-0.0191289
-0.0191778
-0.0191699
-0.0191051
-0.0189844
-0.0188085
-0.0185789
-0.0182977
-0.017967
-0.0175897
-0.0171691
-0.0167089
-0.016213
-0.0156862
-0.0151332
-0.0145594
-0.0139703
-0.0133719
-0.01277
-0.0121711
-0.0115813
-0.0110069
-0.010454
-0.00992859
-0.00943607
-0.0089815
-0.00856931
-0.00820321
-0.00788606
-0.00761983
-0.00740549
-0.00724299
-0.00713125
-0.00706821
-0.00705085
-0.00707534
-0.00713712
-0.00723112
-0.00735186
-0.00749372
-0.00765106
-0.00781841
-0.00799065
-0.00816313
-0.00833176
-0.0084931
-0.0086444
-0.00878359
-0.00890928
-0.00902071
-0.00911767
-0.00920047
-0.00926979
-0.00932665
-0.00937229
-0.00940808
-0.00943541
-0.00945567
-0.00947012
-0.00947981
-0.00948559
-0.00948799
-0.00948722
-0.00948316
-0.00947554
-0.00946398
-0.00944568
-0.00941632
0.00106367
0.00100773
0.000958989
0.0009113
0.000861014
0.000808007
0.000752057
0.000692799
0.000629975
0.00056338
0.000492798
0.000417937
0.000338363
0.000253466
0.000162416
6.41404e-05
-4.26803e-05
-0.000159604
-0.000288415
-0.000431094
-0.000589785
-0.000766751
-0.00096433
-0.00118488
-0.00143072
-0.00170409
-0.00200706
-0.00234147
-0.0027089
-0.00311057
-0.00354731
-0.00401954
-0.00452717
-0.00506965
-0.0056459
-0.00625436
-0.00689297
-0.00755922
-0.00825013
-0.00896238
-0.00969227
-0.0104358
-0.0111887
-0.0119467
-0.012705
-0.013459
-0.0142041
-0.0149355
-0.0156485
-0.0163386
-0.0170015
-0.0176327
-0.0182284
-0.0187846
-0.0192978
-0.0197648
-0.0201827
-0.0205487
-0.0208607
-0.0211167
-0.0213152
-0.0214549
-0.0215351
-0.0215554
-0.0215157
-0.0214167
-0.0212591
-0.0210439
-0.0207731
-0.0204485
-0.0200727
-0.0196487
-0.0191798
-0.0186698
-0.0181228
-0.0175434
-0.0169366
-0.0163078
-0.0156625
-0.0150068
-0.0143468
-0.0136887
-0.0130392
-0.0124044
-0.0117909
-0.0112046
-0.0106513
-0.0101363
-0.00966434
-0.00923929
-0.00886431
-0.00854159
-0.00827232
-0.00805662
-0.00789354
-0.00778113
-0.00771642
-0.00769561
-0.00771414
-0.00776691
-0.00784842
-0.007953
-0.00807497
-0.00820885
-0.00834952
-0.00849233
-0.00863322
-0.0087688
-0.00889637
-0.0090139
-0.00912005
-0.00921407
-0.00929579
-0.00936547
-0.00942377