/*--------------------------------*- C++ -*----------------------------------*\
| =========                 |                                                 |
| \\      /  F ield         | OpenFOAM: The Open Source CFD Toolbox           |
|  \\    /   O peration     | Version:  2112                                  |
|   \\  /    A nd           | Website:  www.openfoam.com                      |
|    \\/     M anipulation  |                                                 |
\*---------------------------------------------------------------------------*/
FoamFile
{
    version     2.0;
    format      ascii;
    arch        "LSB;label=32;scalar=64";
    class       volScalarField;
    location    "3";
    object      p;
}
// * * * * * * * * * * * * * * * * * * * * * * * * * * * * * * * * * * * * * //

dimensions      [0 2 -2 0 0 0 0];

internalField   nonuniform List<scalar> 
16641
(
3.71565e-09
-1.53676e-06
-4.86821e-06
-9.18428e-06
-1.36691e-05
-1.78323e-05
-2.12968e-05
-2.38031e-05
-2.51779e-05
-2.53079e-05
-2.41231e-05
-2.15847e-05
-1.76751e-05
-1.23915e-05
-5.74094e-06
2.2629e-06
1.16026e-05
2.22589e-05
3.42125e-05
4.74445e-05
6.19368e-05
7.76728e-05
9.46373e-05
0.000112817
0.000132201
0.000152779
0.000174543
0.000197485
0.0002216
0.00024688
0.000273322
0.000300918
0.000329665
0.000359556
0.000390586
0.000422749
0.00045604
0.000490451
0.000525975
0.000562604
0.000600328
0.000639137
0.000679018
0.00071996
0.000761949
0.000804969
0.000849005
0.000894039
0.000940051
0.000987022
0.00103493
0.00108375
0.00113345
0.00118402
0.00123541
0.0012876
0.00134056
0.00139424
0.00144862
0.00150366
0.00155931
0.00161552
0.00167227
0.00172949
0.00178714
0.00184517
0.00190353
0.00196215
0.002021
0.00207999
0.00213908
0.00219821
0.00225731
0.00231631
0.00237515
0.00243376
0.00249208
0.00255004
0.00260756
0.00266458
0.00272102
0.00277682
0.0028319
0.0028862
0.00293964
0.00299216
0.00304369
0.00309415
0.0031435
0.00319166
0.00323857
0.00328417
0.0033284
0.00337121
0.00341255
0.00345235
0.00349058
0.00352719
0.00356214
0.00359539
0.00362689
0.00365663
0.00368456
0.00371067
0.00373493
0.00375731
0.00377781
0.00379641
0.0038131
0.00382787
0.00384074
0.00385169
0.00386076
0.00386795
0.00387329
0.00387684
0.00387863
0.00387873
0.00387724
0.00387427
0.00386996
0.00386449
0.0038581
0.00385111
0.00384391
0.00383701
0.00383113
0.0038271
0.00382574
1.55774e-06
1.19755e-08
-2.60371e-06
-5.81816e-06
-9.13447e-06
-1.21555e-05
-1.45736e-05
-1.61603e-05
-1.67495e-05
-1.62228e-05
-1.44992e-05
-1.15264e-05
-7.27373e-06
-1.72555e-06
5.12303e-06
1.32695e-05
2.27064e-05
3.34227e-05
4.54059e-05
5.86431e-05
7.3121e-05
8.88272e-05
0.00010575
0.000123878
0.000143202
0.000163713
0.000185405
0.00020827
0.000232302
0.000257496
0.000283846
0.000311345
0.00033999
0.000369774
0.000400691
0.000432735
0.000465901
0.00050018
0.000535566
0.000572049
0.000609619
0.000648266
0.000687978
0.000728742
0.000770544
0.000813369
0.0008572
0.000902019
0.000947808
0.000994544
0.00104221
0.00109077
0.00114021
0.0011905
0.0012416
0.0012935
0.00134615
0.00139951
0.00145356
0.00150825
0.00156355
0.0016194
0.00167577
0.00173261
0.00178986
0.00184749
0.00190543
0.00196363
0.00202203
0.00208058
0.00213922
0.00219789
0.00225652
0.00231504
0.0023734
0.00243153
0.00248936
0.00254681
0.00260384
0.00266035
0.00271629
0.00277159
0.00282616
0.00287996
0.0029329
0.00298492
0.00303596
0.00308594
0.00313481
0.00318249
0.00322894
0.00327408
0.00331787
0.00336024
0.00340116
0.00344055
0.00347839
0.00351462
0.00354921
0.00358211
0.00361329
0.00364272
0.00367038
0.00369623
0.00372026
0.00374245
0.00376278
0.00378125
0.00379786
0.00381259
0.00382547
0.0038365
0.00384571
0.00385311
0.00385876
0.0038627
0.003865
0.00386572
0.00386498
0.0038629
0.00385963
0.00385534
0.00385029
0.00384474
0.00383905
0.00383364
0.00382899
0.00382574
0.00382439
4.91705e-06
2.63392e-06
6.92811e-09
-2.82206e-06
-5.59684e-06
-8.01249e-06
-9.82187e-06
-1.08346e-05
-1.09049e-05
-9.92338e-06
-7.81095e-06
-4.51275e-06
7.09065e-09
5.76985e-06
1.27864e-05
2.10603e-05
3.05899e-05
4.13699e-05
5.33926e-05
6.66487e-05
8.11287e-05
9.6823e-05
0.000113722
0.000131817
0.000151101
0.000171565
0.000193204
0.00021601
0.00023998
0.000265106
0.000291384
0.000318808
0.000347373
0.000377073
0.000407901
0.000439853
0.000472921
0.000507098
0.000542376
0.000578747
0.000616199
0.000654723
0.000694306
0.000734935
0.000776596
0.000819275
0.000862953
0.000907614
0.000953237
0.000999802
0.00104729
0.00109566
0.00114491
0.001195
0.0012459
0.00129758
0.00135001
0.00140315
0.00145696
0.00151141
0.00156646
0.00162206
0.00167816
0.00173473
0.00179171
0.00184905
0.0019067
0.00196461
0.00202271
0.00208096
0.00213928
0.00219763
0.00225594
0.00231414
0.00237217
0.00242996
0.00248745
0.00254457
0.00260125
0.00265742
0.00271301
0.00276796
0.00282219
0.00287564
0.00292824
0.00297992
0.00303061
0.00308025
0.00312878
0.00317614
0.00322226
0.00326708
0.00331055
0.00335262
0.00339323
0.00343234
0.00346989
0.00350585
0.00354017
0.00357282
0.00360377
0.00363298
0.00366042
0.00368608
0.00370994
0.00373198
0.00375218
0.00377055
0.00378708
0.00380178
0.00381466
0.00382573
0.00383502
0.00384257
0.00384842
0.00385263
0.00385526
0.0038564
0.00385616
0.00385465
0.00385204
0.00384849
0.00384423
0.00383951
0.00383462
0.0038299
0.00382573
0.00382249
0.0038204
9.28006e-06
5.85934e-06
2.8199e-06
-2.02739e-08
-2.61704e-06
-4.74047e-06
-6.19819e-06
-6.84144e-06
-6.5508e-06
-5.23327e-06
-2.81895e-06
7.4288e-07
5.48745e-06
1.14376e-05
1.8607e-05
2.7002e-05
3.66244e-05
4.74723e-05
5.95414e-05
7.28256e-05
8.73179e-05
0.000103011
0.000119898
0.000137971
0.000157224
0.000177651
0.000199247
0.000222005
0.000245921
0.000270989
0.000297205
0.000324564
0.000353059
0.000382685
0.000413437
0.000445308
0.000478292
0.000512381
0.000547567
0.000583841
0.000621194
0.000659613
0.000699088
0.000739605
0.000781151
0.000823709
0.000867263
0.000911795
0.000957285
0.00100371
0.00105105
0.00109929
0.00114838
0.00119831
0.00124905
0.00130057
0.00135282
0.00140579
0.00145942
0.00151369
0.00156855
0.00162395
0.00167986
0.00173623
0.001793
0.00185014
0.00190757
0.00196526
0.00202315
0.00208117
0.00213927
0.00219738
0.00225545
0.00231341
0.0023712
0.00242875
0.00248599
0.00254286
0.00259929
0.00265521
0.00271055
0.00276525
0.00281923
0.00287242
0.00292476
0.00297619
0.00302663
0.00307602
0.0031243
0.0031714
0.00321727
0.00326185
0.00330508
0.00334691
0.00338729
0.00342617
0.0034635
0.00349924
0.00353335
0.0035658
0.00359655
0.00362558
0.00365285
0.00367835
0.00370205
0.00372396
0.00374405
0.00376232
0.00377878
0.00379344
0.0038063
0.00381738
0.00382673
0.00383437
0.00384036
0.00384475
0.00384761
0.00384904
0.00384914
0.00384803
0.00384585
0.00384277
0.00383899
0.00383472
0.0038302
0.00382572
0.00382156
0.00381788
0.00381462
1.38311e-05
9.18601e-06
5.57055e-06
2.53047e-06
-7.41426e-08
-2.07277e-06
-3.32169e-06
-3.71298e-06
-3.15527e-06
-1.57408e-06
1.08824e-06
4.87497e-06
9.81753e-06
1.59377e-05
2.32495e-05
3.17609e-05
4.14755e-05
5.23935e-05
6.45129e-05
7.78301e-05
9.23403e-05
0.000108038
0.000124918
0.000142975
0.000162204
0.000182599
0.000204156
0.000226871
0.000250738
0.000275753
0.000301912
0.000329209
0.000357639
0.000387198
0.000417878
0.000449675
0.000482581
0.000516589
0.000551691
0.000587877
0.000625139
0.000663465
0.000702843
0.000743261
0.000784704
0.000827157
0.000870603
0.000915024
0.000960399
0.00100671
0.00105393
0.00110204
0.00115101
0.00120081
0.00125142
0.0013028
0.00135492
0.00140774
0.00146123
0.00151535
0.00157006
0.00162532
0.00168107
0.00173728
0.00179389
0.00185087
0.00190814
0.00196566
0.00202337
0.00208122
0.00213915
0.00219709
0.00225498
0.00231276
0.00237037
0.00242773
0.00248479
0.00254147
0.00259771
0.00265344
0.00270858
0.00276308
0.00281687
0.00286986
0.00292201
0.00297323
0.00302348
0.00307267
0.00312075
0.00316765
0.00321332
0.00325771
0.00330074
0.00334237
0.00338256
0.00342124
0.00345838
0.00349393
0.00352786
0.00356013
0.00359071
0.00361957
0.00364668
0.00367203
0.0036956
0.00371738
0.00373736
0.00375553
0.00377192
0.00378651
0.00379934
0.00381042
0.00381979
0.00382748
0.00383356
0.00383808
0.00384111
0.00384275
0.00384309
0.00384225
0.00384037
0.00383759
0.0038341
0.00383007
0.0038257
0.00382121
0.00381684
0.00381252
0.00380787
1.80678e-05
1.22022e-05
7.93745e-06
4.58159e-06
1.84008e-06
-1.60456e-07
-1.31601e-06
-1.55561e-06
-8.15154e-07
9.6084e-07
3.81672e-06
7.78666e-06
1.28964e-05
1.91644e-05
2.66036e-05
3.52219e-05
4.50235e-05
5.60098e-05
6.81801e-05
8.15325e-05
9.60638e-05
0.000111771
0.000128649
0.000146694
0.000165903
0.000186272
0.000207796
0.000230471
0.000254295
0.000279262
0.000305368
0.00033261
0.000360982
0.000390478
0.000421095
0.000452824
0.000485661
0.000519596
0.000554623
0.000590733
0.000627916
0.000666161
0.000705457
0.00074579
0.000787147
0.000829512
0.000872868
0.000917198
0.000962481
0.0010087
0.00105582
0.00110383
0.0011527
0.00120241
0.00125291
0.00130419
0.00135621
0.00140893
0.00146231
0.00151633
0.00157093
0.00162608
0.00168172
0.00173782
0.00179433
0.00185119
0.00190835
0.00196576
0.00202336
0.00208109
0.0021389
0.00219672
0.0022545
0.00231216
0.00236964
0.00242688
0.00248382
0.00254037
0.00259648
0.00265208
0.0027071
0.00276147
0.00281512
0.00286798
0.00291999
0.00297107
0.00302117
0.00307022
0.00311815
0.00316491
0.00321043
0.00325466
0.00329754
0.00333902
0.00337905
0.00341758
0.00345456
0.00348996
0.00352374
0.00355586
0.00358628
0.00361499
0.00364197
0.00366718
0.00369062
0.00371227
0.00373214
0.00375021
0.00376651
0.00378103
0.00379381
0.00380486
0.00381422
0.00382193
0.00382805
0.00383264
0.00383577
0.00383753
0.00383802
0.00383734
0.00383563
0.00383302
0.00382966
0.00382571
0.00382131
0.00381664
0.0038119
0.00380684
0.00380083
2.15888e-05
1.45754e-05
9.64751e-06
5.91338e-06
2.9521e-06
8.59417e-07
-2.91372e-07
-4.60567e-07
3.91269e-07
2.30123e-06
5.30022e-06
9.41285e-06
1.46581e-05
2.10503e-05
2.85995e-05
3.73123e-05
4.71928e-05
5.82426e-05
7.04618e-05
8.38493e-05
9.84032e-05
0.000114121
0.000131001
0.000149039
0.000168232
0.000188579
0.000210075
0.000232717
0.000256501
0.000281426
0.000307486
0.000334679
0.000362998
0.000392441
0.000423001
0.000454672
0.000487448
0.000521321
0.000556285
0.00059233
0.000629446
0.000667624
0.000706853
0.000747118
0.000788406
0.000830702
0.000873989
0.000918249
0.000963462
0.00100961
0.00105667
0.00110461
0.00115341
0.00120305
0.00125348
0.00130469
0.00135664
0.0014093
0.00146262
0.00151657
0.00157111
0.0016262
0.00168178
0.00173782
0.00179427
0.00185107
0.00190817
0.00196553
0.00202307
0.00208075
0.0021385
0.00219626
0.00225398
0.00231158
0.00236901
0.00242619
0.00248306
0.00253956
0.00259561
0.00265114
0.00270609
0.00276039
0.00281396
0.00286675
0.00291868
0.00296968
0.0030197
0.00306866
0.0031165
0.00316316
0.00320858
0.00325271
0.00329548
0.00333685
0.00337676
0.00341517
0.00345203
0.00348731
0.00352096
0.00355294
0.00358324
0.00361183
0.00363867
0.00366375
0.00368707
0.0037086
0.00372836
0.00374633
0.00376253
0.00377697
0.00378967
0.00380066
0.00380998
0.00381768
0.00382379
0.0038284
0.00383156
0.00383337
0.00383392
0.00383331
0.00383167
0.0038291
0.00382574
0.00382172
0.00381716
0.00381221
0.00380701
0.0038012
0.00379392
2.41001e-05
1.60437e-05
1.04766e-05
6.34202e-06
3.11702e-06
8.75866e-07
-3.31408e-07
-4.90488e-07
4.16926e-07
2.41125e-06
5.51057e-06
9.72996e-06
1.50815e-05
2.15746e-05
2.92159e-05
3.80101e-05
4.79599e-05
5.90667e-05
7.13308e-05
8.47515e-05
9.93277e-05
0.000115058
0.000131941
0.000149974
0.000169156
0.000189484
0.000210956
0.000233569
0.000257321
0.000282209
0.000308229
0.000335379
0.000363654
0.000393049
0.000423561
0.000455182
0.000487907
0.00052173
0.000556641
0.000592634
0.000629698
0.000667824
0.000707
0.000747214
0.000788452
0.000830698
0.000873936
0.000918149
0.000963317
0.00100942
0.00105643
0.00110434
0.0011531
0.0012027
0.0012531
0.00130428
0.00135621
0.00140883
0.00146213
0.00151607
0.00157059
0.00162566
0.00168123
0.00173726
0.0017937
0.00185049
0.00190759
0.00196494
0.00202248
0.00208016
0.00213791
0.00219568
0.0022534
0.00231101
0.00236844
0.00242562
0.0024825
0.00253899
0.00259504
0.00265057
0.00270551
0.0027598
0.00281336
0.00286613
0.00291804
0.00296902
0.00301901
0.00306793
0.00311573
0.00316235
0.00320772
0.00325178
0.00329449
0.00333578
0.00337562
0.00341394
0.00345071
0.00348589
0.00351944
0.00355132
0.00358151
0.00360998
0.0036367
0.00366167
0.00368486
0.00370628
0.00372592
0.00374378
0.00375987
0.00377421
0.00378683
0.00379774
0.00380699
0.00381462
0.00382069
0.00382526
0.0038284
0.0038302
0.00383073
0.00383011
0.00382844
0.00382582
0.00382236
0.00381819
0.00381339
0.00380808
0.0038024
0.00379587
0.00378746
2.53867e-05
1.64017e-05
1.02396e-05
5.70778e-06
2.20144e-06
-2.19662e-07
-1.5231e-06
-1.7149e-06
-7.94215e-07
1.24503e-06
4.40929e-06
8.70462e-06
1.41363e-05
2.07086e-05
2.84247e-05
3.72866e-05
4.72955e-05
5.84519e-05
7.07557e-05
8.42065e-05
9.88036e-05
0.000114546
0.000131434
0.000149464
0.000168637
0.000188951
0.000210403
0.000232992
0.000256715
0.000281572
0.000307558
0.000334672
0.000362909
0.000392266
0.000422738
0.000454319
0.000487004
0.000520786
0.000555658
0.000591612
0.000628638
0.000666727
0.000705868
0.000746048
0.000787254
0.000829471
0.000872682
0.000916871
0.000962018
0.0010081
0.0010551
0.00110299
0.00115175
0.00120135
0.00125175
0.00130294
0.00135487
0.00140751
0.00146083
0.00151478
0.00156933
0.00162443
0.00168004
0.00173611
0.00179259
0.00184943
0.00190658
0.00196398
0.00202158
0.00207931
0.00213713
0.00219496
0.00225274
0.00231041
0.0023679
0.00242515
0.00248209
0.00253865
0.00259475
0.00265034
0.00270534
0.00275968
0.00281329
0.0028661
0.00291805
0.00296906
0.00301907
0.00306801
0.00311581
0.00316243
0.00320779
0.00325184
0.00329452
0.00333578
0.00337557
0.00341384
0.00345055
0.00348565
0.00351912
0.00355092
0.00358101
0.00360937
0.00363599
0.00366085
0.00368393
0.00370523
0.00372474
0.00374248
0.00375846
0.00377269
0.00378519
0.00379599
0.00380514
0.00381268
0.00381867
0.00382316
0.00382622
0.00382794
0.0038284
0.0038277
0.00382592
0.00382318
0.00381956
0.00381516
0.00381007
0.00380438
0.00379822
0.00379103
0.00378165
2.5288e-05
1.54875e-05
8.7844e-06
3.87393e-06
8.55977e-08
-2.52987e-06
-3.95323e-06
-4.20675e-06
-3.30378e-06
-1.25024e-06
1.95029e-06
6.29564e-06
1.17847e-05
1.84168e-05
2.61913e-05
3.51077e-05
4.51653e-05
5.63633e-05
6.87012e-05
8.21782e-05
9.6794e-05
0.000112548
0.00012944
0.00014747
0.000166636
0.000186938
0.000208374
0.000230943
0.000254644
0.000279475
0.000305434
0.000332519
0.000360727
0.000390054
0.000420495
0.000452046
0.000484701
0.000518455
0.0005533
0.000589228
0.000626232
0.0006643
0.000703423
0.000743587
0.000784781
0.000826989
0.000870196
0.000914385
0.000959537
0.00100563
0.00105265
0.00110056
0.00114934
0.00119897
0.00124941
0.00130064
0.00135262
0.00140531
0.00145869
0.00151271
0.00156733
0.00162251
0.0016782
0.00173436
0.00179093
0.00184787
0.00190512
0.00196263
0.00202034
0.00207819
0.00213613
0.00219408
0.00225198
0.00230978
0.0023674
0.00242477
0.00248183
0.00253851
0.00259474
0.00265044
0.00270556
0.00276
0.00281372
0.00286663
0.00291867
0.00296976
0.00301984
0.00306885
0.00311671
0.00316337
0.00320877
0.00325284
0.00329553
0.00333679
0.00337657
0.00341482
0.00345149
0.00348655
0.00351996
0.00355168
0.00358169
0.00360997
0.00363649
0.00366123
0.0036842
0.00370537
0.00372477
0.00374238
0.00375822
0.00377231
0.00378468
0.00379536
0.00380438
0.00381179
0.00381765
0.00382202
0.00382496
0.00382656
0.00382689
0.00382604
0.00382411
0.00382118
0.00381735
0.00381269
0.00380727
0.0038012
0.00379458
0.00378681
0.00377663
2.36835e-05
1.31733e-05
5.98668e-06
7.25063e-07
-3.3349e-06
-6.14755e-06
-7.70311e-06
-8.03666e-06
-7.17308e-06
-5.12818e-06
-1.91401e-06
2.46012e-06
7.98722e-06
1.4662e-05
2.24803e-05
3.14389e-05
4.15351e-05
5.27669e-05
6.51328e-05
7.8632e-05
9.32639e-05
0.000109028
0.000125925
0.000143955
0.000163116
0.000183409
0.000204832
0.000227387
0.00025107
0.000275882
0.000301821
0.000328885
0.000357071
0.000386376
0.000416796
0.000448327
0.000480965
0.000514702
0.000549533
0.000585451
0.000622447
0.000660511
0.000699633
0.000739802
0.000781004
0.000823226
0.000866453
0.000910666
0.000955849
0.00100198
0.00104904
0.001097
0.00114584
0.00119553
0.00124605
0.00129736
0.00134943
0.00140222
0.0014557
0.00150983
0.00156457
0.00161987
0.00167569
0.00173199
0.00178871
0.0018458
0.00190321
0.00196088
0.00201876
0.00207679
0.00213489
0.00219303
0.00225111
0.00230909
0.0023669
0.00242446
0.0024817
0.00253857
0.00259498
0.00265086
0.00270614
0.00276076
0.00281464
0.0028677
0.00291988
0.00297111
0.00302132
0.00307044
0.00311841
0.00316516
0.00321063
0.00325476
0.00329751
0.0033388
0.0033786
0.00341685
0.00345351
0.00348854
0.00352191
0.00355358
0.00358352
0.00361171
0.00363813
0.00366277
0.00368562
0.00370667
0.00372593
0.0037434
0.0037591
0.00377304
0.00378525
0.00379577
0.00380464
0.00381189
0.00381759
0.0038218
0.00382458
0.003826
0.00382616
0.00382512
0.00382299
0.00381983
0.00381574
0.0038108
0.00380505
0.0037986
0.00379156
0.00378329
0.00377245
2.04825e-05
9.35886e-06
1.7451e-06
-3.83581e-06
-8.15032e-06
-1.11552e-05
-1.28471e-05
-1.3271e-05
-1.24611e-05
-1.04413e-05
-7.23077e-06
-2.84486e-06
2.70433e-06
9.40726e-06
1.72565e-05
2.62461e-05
3.63717e-05
4.76297e-05
6.00179e-05
7.3535e-05
8.81803e-05
0.000103954
0.000120855
0.000138885
0.000158043
0.00017833
0.000199745
0.000222289
0.000245961
0.000270759
0.000296685
0.000323735
0.000351907
0.0003812
0.000411609
0.000443131
0.000475762
0.000509497
0.000544328
0.00058025
0.000617255
0.000655332
0.000694473
0.000734665
0.000775898
0.000818156
0.000861426
0.000905691
0.000950932
0.000997129
0.00104426
0.00109231
0.00114124
0.00119103
0.00124166
0.00129308
0.00134528
0.00139821
0.00145184
0.00150612
0.00156102
0.0016165
0.00167251
0.00172899
0.00178591
0.00184321
0.00190083
0.00195872
0.00201683
0.00207508
0.00213343
0.0021918
0.00225013
0.00230835
0.0023664
0.00242421
0.0024817
0.00253881
0.00259546
0.00265158
0.0027071
0.00276194
0.00281603
0.0028693
0.00292168
0.0029731
0.00302349
0.00307277
0.00312088
0.00316777
0.00321336
0.00325759
0.00330042
0.00334178
0.00338162
0.0034199
0.00345658
0.0034916
0.00352494
0.00355657
0.00358645
0.00361456
0.00364089
0.00366543
0.00368815
0.00370907
0.00372819
0.0037455
0.00376104
0.00377481
0.00378685
0.00379719
0.00380586
0.00381293
0.00381843
0.00382244
0.00382502
0.00382624
0.00382617
0.00382491
0.00382254
0.00381912
0.00381476
0.00380951
0.00380344
0.00379662
0.0037892
0.0037805
0.00376913
1.56169e-05
3.96563e-06
-4.02255e-06
-9.8899e-06
-1.44383e-05
-1.76253e-05
-1.9452e-05
-1.9971e-05
-1.92235e-05
-1.72401e-05
-1.40458e-05
-9.66128e-06
-4.10294e-06
2.61599e-06
1.0485e-05
1.9496e-05
2.96425e-05
4.09199e-05
5.33251e-05
6.68562e-05
8.15121e-05
9.72928e-05
0.000114199
0.00013223
0.000151387
0.00017167
0.000193081
0.000215619
0.000239284
0.000264076
0.000289994
0.000317038
0.000345206
0.000374495
0.000404904
0.000436428
0.000469065
0.00050281
0.000537656
0.000573598
0.000610628
0.000648736
0.000687915
0.000728152
0.000769437
0.000811756
0.000855094
0.000899436
0.000944763
0.000991056
0.00103829
0.00108646
0.00113551
0.00118544
0.00123622
0.0012878
0.00134016
0.00139327
0.00144709
0.00150158
0.00155669
0.00161239
0.00166863
0.00172535
0.00178252
0.00184008
0.00189797
0.00195614
0.00201452
0.00207307
0.00213171
0.00219038
0.00224901
0.00230754
0.0023659
0.00242402
0.00248182
0.00253923
0.00259618
0.0026526
0.0027084
0.00276353
0.0028179
0.00287143
0.00292407
0.00297572
0.00302634
0.00307583
0.00312414
0.0031712
0.00321695
0.00326132
0.00330426
0.00334572
0.00338564
0.00342397
0.00346068
0.00349571
0.00352904
0.00356064
0.00359046
0.00361851
0.00364475
0.00366917
0.00369177
0.00371255
0.0037315
0.00374865
0.003764
0.00377759
0.00378942
0.00379955
0.00380802
0.00381486
0.00382014
0.00382391
0.00382625
0.00382722
0.00382691
0.00382539
0.00382275
0.00381905
0.0038144
0.00380884
0.00380244
0.0037953
0.00378754
0.00377847
0.00376668
9.03466e-06
-3.0683e-06
-1.13827e-05
-1.75047e-05
-2.22651e-05
-2.56214e-05
-2.75777e-05
-2.8192e-05
-2.75114e-05
-2.55716e-05
-2.24027e-05
-1.80294e-05
-1.2472e-05
-5.74702e-06
2.1326e-06
1.11565e-05
2.13168e-05
3.26076e-05
4.50249e-05
5.85664e-05
7.32306e-05
8.90175e-05
0.000105927
0.00012396
0.000143118
0.000163402
0.000184811
0.000207348
0.000231012
0.000255803
0.000281722
0.000308767
0.000336939
0.000366234
0.000396653
0.000428192
0.000460847
0.000494616
0.000529492
0.00056547
0.000602542
0.0006407
0.000679936
0.00072024
0.000761599
0.000804003
0.000847435
0.00089188
0.000937322
0.000983742
0.00103112
0.00107943
0.00112865
0.00117875
0.00122971
0.00128149
0.00133406
0.00138739
0.00144144
0.00149618
0.00155155
0.00160752
0.00166404
0.00172106
0.00177853
0.00183641
0.00189462
0.00195312
0.00201185
0.00207074
0.00212974
0.00218877
0.00224777
0.00230667
0.00236539
0.00242388
0.00248205
0.00253982
0.00259714
0.00265391
0.00271007
0.00276554
0.00282024
0.00287409
0.00292703
0.00297898
0.00302987
0.00307962
0.00312817
0.00317545
0.00322139
0.00326594
0.00330903
0.00335061
0.00339064
0.00342905
0.0034658
0.00350086
0.0035342
0.00356577
0.00359555
0.00362352
0.00364967
0.00367398
0.00369644
0.00371707
0.00373585
0.00375281
0.00376796
0.00378133
0.00379294
0.00380284
0.00381105
0.00381764
0.00382266
0.00382617
0.00382824
0.00382894
0.00382834
0.00382654
0.0038236
0.00381961
0.00381465
0.00380879
0.00380208
0.00379462
0.00378656
0.0037772
0.00376508
6.96501e-07
-1.1792e-05
-2.03892e-05
-2.67362e-05
-3.1687e-05
-3.51985e-05
-3.72767e-05
-3.79839e-05
-3.73715e-05
-3.54796e-05
-3.23419e-05
-2.79871e-05
-2.24385e-05
-1.57153e-05
-7.83266e-06
1.19724e-06
1.13651e-05
2.26641e-05
3.50895e-05
4.86382e-05
6.33088e-05
7.91008e-05
9.60146e-05
0.000114051
0.000133212
0.000153497
0.00017491
0.000197449
0.000221117
0.000245914
0.00027184
0.000298895
0.000327079
0.000356392
0.000386831
0.000418396
0.000451083
0.00048489
0.000519811
0.00055584
0.000592972
0.0006312
0.000670514
0.000710905
0.000752363
0.000794875
0.000838427
0.000883004
0.00092859
0.000975166
0.00102271
0.0010712
0.00112062
0.00117093
0.00122211
0.00127413
0.00132696
0.00138055
0.00143488
0.00148991
0.00154559
0.00160188
0.00165874
0.0017161
0.00177394
0.00183218
0.00189077
0.00194967
0.00200879
0.0020681
0.00212751
0.00218696
0.00224638
0.00230571
0.00236487
0.00242379
0.00248239
0.0025406
0.00259834
0.00265553
0.0027121
0.00276797
0.00282305
0.00287729
0.00293059
0.00298288
0.00303409
0.00308415
0.00313298
0.00318052
0.0032267
0.00327145
0.00331473
0.00335647
0.00339661
0.00343512
0.00347195
0.00350705
0.0035404
0.00357195
0.00360169
0.00362959
0.00365564
0.00367983
0.00370215
0.00372261
0.0037412
0.00375796
0.00377289
0.00378601
0.00379737
0.003807
0.00381494
0.00382125
0.00382597
0.00382919
0.00383095
0.00383134
0.00383044
0.00382833
0.00382508
0.00382078
0.00381551
0.00380934
0.00380233
0.00379459
0.00378626
0.00377665
0.00376428
-9.42708e-06
-2.22442e-05
-3.10859e-05
-3.76305e-05
-4.27514e-05
-4.64038e-05
-4.8595e-05
-4.93908e-05
-4.88459e-05
-4.70036e-05
-4.3901e-05
-3.95697e-05
-3.40357e-05
-2.73203e-05
-1.94407e-05
-1.04104e-05
-2.39961e-07
1.1063e-05
2.34929e-05
3.70464e-05
5.17217e-05
6.75182e-05
8.44363e-05
0.000102477
0.000121642
0.000141933
0.000163352
0.000185899
0.000209577
0.000234385
0.000260325
0.000287398
0.000315604
0.000344943
0.000375414
0.000407017
0.00043975
0.000473608
0.000508589
0.000544688
0.000581898
0.000620213
0.000659626
0.000700127
0.000741706
0.000784351
0.00082805
0.000872786
0.000918545
0.000965308
0.00101306
0.00106176
0.00111141
0.00116197
0.00121341
0.00126571
0.00131883
0.00137274
0.00142739
0.00148276
0.0015388
0.00159546
0.0016527
0.00171047
0.00176871
0.00182738
0.00188642
0.00194576
0.00200535
0.00206512
0.002125
0.00218494
0.00224486
0.00230468
0.00236433
0.00242375
0.00248284
0.00254155
0.00259977
0.00265745
0.00271449
0.00277082
0.00282635
0.00288102
0.00293473
0.00298742
0.00303901
0.00308942
0.00313858
0.00318641
0.00323287
0.00327787
0.00332136
0.00336328
0.00340358
0.00344221
0.00347912
0.00351428
0.00354764
0.00357918
0.00360888
0.00363671
0.00366266
0.00368671
0.00370888
0.00372915
0.00374754
0.00376407
0.00377875
0.00379161
0.00380268
0.00381202
0.00381965
0.00382564
0.00383004
0.00383293
0.00383436
0.00383442
0.00383318
0.00383073
0.00382716
0.00382254
0.00381696
0.00381049
0.00380319
0.00379519
0.00378662
0.0037768
0.00376423
-2.13579e-05
-3.44555e-05
-4.35083e-05
-5.0226e-05
-5.54979e-05
-5.92775e-05
-6.15726e-05
-6.24516e-05
-6.19719e-05
-6.01795e-05
-5.71141e-05
-5.28096e-05
-4.72944e-05
-4.05915e-05
-3.27195e-05
-2.36933e-05
-1.35242e-05
-2.22083e-06
1.02109e-05
2.37672e-05
3.8446e-05
5.42465e-05
7.11694e-05
8.92159e-05
0.000108388
0.000128687
0.000150115
0.000172674
0.000196366
0.000221192
0.000247153
0.000274252
0.000302488
0.000331864
0.000362379
0.000394033
0.000426823
0.000460749
0.000495805
0.000531989
0.000569295
0.000607718
0.000647249
0.000687882
0.000729606
0.00077241
0.000816281
0.000861205
0.000907166
0.000954147
0.00100213
0.00105109
0.001101
0.00115185
0.00120359
0.00125621
0.00130966
0.00136392
0.00141895
0.00147471
0.00153115
0.00158823
0.00164591
0.00170414
0.00176285
0.001822
0.00188153
0.00194139
0.0020015
0.0020618
0.00212223
0.00218271
0.00224318
0.00230356
0.00236378
0.00242375
0.00248341
0.00254267
0.00260145
0.00265967
0.00271724
0.00277409
0.00283014
0.00288529
0.00293948
0.00299262
0.00304463
0.00309544
0.00314497
0.00319315
0.00323991
0.0032852
0.00332893
0.00337106
0.00341154
0.0034503
0.00348732
0.00352254
0.00355593
0.00358747
0.00361712
0.00364487
0.00367071
0.00369462
0.00371661
0.00373668
0.00375484
0.00377112
0.00378552
0.00379808
0.00380885
0.00381785
0.00382515
0.00383079
0.00383483
0.00383736
0.00383843
0.00383813
0.00383653
0.00383373
0.00382982
0.00382487
0.00381897
0.0038122
0.00380463
0.00379638
0.0037876
0.0037776
0.00376489
-3.51119e-05
-4.84496e-05
-5.7685e-05
-6.45544e-05
-6.996e-05
-7.38539e-05
-7.6244e-05
-7.72004e-05
-7.6783e-05
-7.50396e-05
-7.20122e-05
-6.77368e-05
-6.22431e-05
-5.5556e-05
-4.76951e-05
-3.86763e-05
-2.85117e-05
-1.72105e-05
-4.77909e-06
8.7784e-06
2.34597e-05
3.92642e-05
5.61923e-05
7.42456e-05
9.34259e-05
0.000113736
0.000135177
0.000157752
0.000181463
0.000206312
0.000232302
0.000259435
0.000287712
0.000317135
0.000347704
0.00037942
0.000412282
0.000446288
0.000481436
0.000517722
0.000555142
0.000593691
0.000633362
0.000674148
0.00071604
0.000759027
0.000803097
0.000848236
0.00089443
0.000941661
0.000989909
0.00103915
0.00108937
0.00114054
0.00119262
0.0012456
0.00129944
0.00135409
0.00140954
0.00146573
0.00152263
0.00158019
0.00163836
0.00169709
0.00175633
0.00181602
0.00187611
0.00193654
0.00199723
0.00205813
0.00211916
0.00218026
0.00224135
0.00230235
0.0023632
0.00242381
0.00248409
0.00254397
0.00260337
0.0026622
0.00272037
0.00277781
0.00283442
0.00289012
0.00294484
0.00299848
0.00305097
0.00310222
0.00315217
0.00320074
0.00324785
0.00329344
0.00333746
0.00337982
0.0034205
0.00345942
0.00349655
0.00353184
0.00356527
0.0035968
0.00362641
0.00365407
0.00367979
0.00370354
0.00372534
0.00374519
0.0037631
0.00377909
0.00379319
0.00380542
0.00381584
0.00382448
0.0038314
0.00383666
0.00384032
0.00384245
0.00384313
0.00384244
0.00384047
0.0038373
0.00383302
0.00382773
0.00382151
0.00381445
0.00380661
0.00379812
0.00378915
0.003779
0.00376619
-5.0701e-05
-6.4245e-05
-7.36391e-05
-8.06416e-05
-8.61658e-05
-9.01623e-05
-9.26389e-05
-9.36672e-05
-9.33086e-05
-9.16129e-05
-8.86236e-05
-8.43782e-05
-7.89081e-05
-7.2239e-05
-6.43917e-05
-5.53828e-05
-4.5225e-05
-3.3928e-05
-2.14986e-05
-7.94108e-06
6.74215e-06
2.25504e-05
3.94845e-05
5.75457e-05
7.67365e-05
9.70593e-05
0.000118517
0.000141112
0.000164847
0.000189726
0.000215751
0.000242926
0.000271252
0.000300732
0.000331367
0.000363157
0.000396104
0.000430204
0.000465458
0.000501862
0.000539414
0.000578108
0.00061794
0.000658901
0.000700984
0.000744179
0.000788474
0.000833856
0.000880311
0.000927822
0.00097637
0.00102593
0.00107649
0.00112802
0.00118048
0.00123386
0.00128812
0.00134322
0.00139913
0.00145581
0.00151321
0.00157129
0.00163001
0.0016893
0.00174913
0.00180942
0.00187013
0.00193119
0.00199253
0.00205409
0.00211579
0.00217757
0.00223935
0.00230105
0.00236259
0.00242389
0.00248488
0.00254545
0.00260553
0.00266504
0.00272387
0.00278196
0.0028392
0.00289551
0.00295081
0.00300501
0.00305803
0.00310978
0.00316019
0.00320918
0.00325668
0.00330263
0.00334694
0.00338958
0.00343047
0.00346956
0.00350682
0.0035422
0.00357567
0.00360719
0.00363675
0.00366432
0.0036899
0.00371348
0.00373506
0.00375466
0.00377229
0.00378797
0.00380173
0.0038136
0.00382364
0.00383188
0.00383839
0.00384323
0.00384647
0.00384817
0.00384843
0.00384733
0.00384495
0.00384139
0.00383674
0.0038311
0.00382455
0.00381719
0.00380909
0.00380038
0.00379123
0.00378095
0.00376807
-6.81338e-05
-8.18564e-05
-9.13891e-05
-9.85091e-05
-0.000104139
-0.000108228
-0.000110783
-0.000111878
-0.000111575
-0.000109925
-0.000106974
-0.000102759
-9.73132e-05
-9.06636e-05
-8.28316e-05
-7.38344e-05
-6.36852e-05
-5.2394e-05
-3.99679e-05
-2.64113e-05
-1.17266e-05
4.08559e-06
2.1026e-05
3.90965e-05
5.82994e-05
7.86378e-05
0.000100115
0.000122734
0.000146499
0.000171413
0.00019748
0.000224704
0.000253087
0.000282634
0.000313344
0.000345221
0.000378264
0.000412473
0.000447848
0.000484387
0.000522087
0.000560945
0.000600957
0.000642115
0.000684412
0.000727839
0.000772385
0.000818037
0.000864782
0.000912603
0.000961482
0.0010114
0.00106233
0.00111425
0.00116714
0.00122096
0.00127568
0.00133127
0.00138769
0.0014449
0.00150286
0.00156152
0.00162084
0.00168076
0.00174122
0.00180218
0.00186357
0.00192532
0.00198737
0.00204966
0.0021121
0.00217463
0.00223717
0.00229963
0.00236194
0.00242401
0.00248576
0.0025471
0.00260794
0.00266818
0.00272775
0.00278655
0.00284448
0.00290146
0.00295741
0.00301222
0.00306582
0.00311812
0.00316904
0.0032185
0.00326643
0.00331276
0.00335741
0.00340033
0.00344146
0.00348075
0.00351815
0.00355362
0.00358713
0.00361864
0.00364814
0.00367561
0.00370103
0.00372442
0.00374577
0.00376509
0.0037824
0.00379774
0.00381112
0.0038226