/*--------------------------------*- C++ -*----------------------------------*\
| =========                 |                                                 |
| \\      /  F ield         | OpenFOAM: The Open Source CFD Toolbox           |
|  \\    /   O peration     | Version:  2112                                  |
|   \\  /    A nd           | Website:  www.openfoam.com                      |
|    \\/     M anipulation  |                                                 |
\*---------------------------------------------------------------------------*/
FoamFile
{
    version     2.0;
    format      ascii;
    arch        "LSB;label=32;scalar=64";
    class       surfaceScalarField;
    location    "3";
    object      phi;
}
// * * * * * * * * * * * * * * * * * * * * * * * * * * * * * * * * * * * * * //

dimensions      [0 3 -1 0 0 0 0];

oriented        oriented;

internalField   nonuniform List<scalar> 
33024
(
2.79789e-09
-2.80038e-09
3.94708e-09
-1.14925e-09
9.38829e-10
3.00815e-09
-6.60265e-09
7.54161e-09
-1.84632e-08
1.18607e-08
-3.41305e-08
1.56674e-08
-5.3031e-08
1.89007e-08
-7.46196e-08
2.15887e-08
-9.84071e-08
2.37874e-08
-1.23966e-07
2.55591e-08
-1.5093e-07
2.69646e-08
-1.7899e-07
2.806e-08
-2.07886e-07
2.88956e-08
-2.37402e-07
2.95158e-08
-2.67361e-07
2.9959e-08
-2.97619e-07
3.02585e-08
-3.28061e-07
3.04424e-08
-3.58596e-07
3.05346e-08
-3.8915e-07
3.05547e-08
-4.1967e-07
3.05191e-08
-4.5011e-07
3.04406e-08
-4.80439e-07
3.03292e-08
-5.10632e-07
3.01925e-08
-5.40668e-07
3.00364e-08
-5.70533e-07
2.98648e-08
-6.00214e-07
2.96806e-08
-6.29699e-07
2.94853e-08
-6.58979e-07
2.92797e-08
-6.88043e-07
2.9064e-08
-7.16881e-07
2.8838e-08
-7.45482e-07
2.8601e-08
-7.73834e-07
2.83524e-08
-8.01925e-07
2.80912e-08
-8.29742e-07
2.78165e-08
-8.57269e-07
2.7527e-08
-8.8449e-07
2.72217e-08
-9.1139e-07
2.68995e-08
-9.3795e-07
2.65596e-08
-9.6415e-07
2.62007e-08
-9.89973e-07
2.5822e-08
-1.0154e-06
2.54224e-08
-1.0404e-06
2.5001e-08
-1.06495e-06
2.45568e-08
-1.08904e-06
2.4089e-08
-1.11264e-06
2.35966e-08
-1.13572e-06
2.30789e-08
-1.15825e-06
2.25349e-08
-1.18022e-06
2.19639e-08
-1.20158e-06
2.13653e-08
-1.22232e-06
2.07381e-08
-1.2424e-06
2.0082e-08
-1.2618e-06
1.9396e-08
-1.28048e-06
1.86798e-08
-1.29841e-06
1.79328e-08
-1.31556e-06
1.71546e-08
-1.33191e-06
1.63448e-08
-1.34741e-06
1.55031e-08
-1.36204e-06
1.46293e-08
-1.37577e-06
1.37233e-08
-1.38855e-06
1.27849e-08
-1.40036e-06
1.18143e-08
-1.41118e-06
1.08116e-08
-1.42095e-06
9.77717e-09
-1.42966e-06
8.71136e-09
-1.43728e-06
7.61468e-09
-1.44377e-06
6.48781e-09
-1.4491e-06
5.33155e-09
-1.45325e-06
4.14683e-09
-1.45618e-06
2.93467e-09
-1.45788e-06
1.69627e-09
-1.45831e-06
4.33076e-10
-1.45746e-06
-8.53674e-10
-1.45529e-06
-2.16199e-09
-1.4518e-06
-3.49031e-09
-1.44697e-06
-4.83668e-09
-1.44077e-06
-6.19903e-09
-1.43319e-06
-7.57517e-09
-1.42423e-06
-8.96279e-09
-1.41387e-06
-1.03595e-08
-1.40211e-06
-1.17627e-08
-1.38894e-06
-1.31697e-08
-1.37436e-06
-1.45778e-08
-1.35838e-06
-1.59842e-08
-1.34099e-06
-1.7386e-08
-1.32221e-06
-1.87804e-08
-1.30205e-06
-2.01642e-08
-1.28051e-06
-2.15346e-08
-1.25762e-06
-2.28885e-08
-1.2334e-06
-2.4223e-08
-1.20786e-06
-2.55351e-08
-1.18104e-06
-2.68219e-08
-1.15296e-06
-2.80804e-08
-1.12365e-06
-2.93078e-08
-1.09315e-06
-3.05011e-08
-1.0615e-06
-3.16577e-08
-1.02872e-06
-3.27748e-08
-9.94871e-07
-3.38493e-08
-9.59993e-07
-3.48785e-08
-9.24133e-07
-3.58593e-08
-8.87345e-07
-3.67885e-08
-8.49683e-07
-3.76624e-08
-8.11206e-07
-3.84771e-08
-7.71978e-07
-3.92281e-08
-7.32067e-07
-3.99103e-08
-6.9155e-07
-4.05175e-08
-6.50508e-07
-4.10424e-08
-6.09031e-07
-4.14767e-08
-5.67221e-07
-4.18104e-08
-5.25189e-07
-4.20317e-08
-4.83062e-07
-4.21271e-08
-4.40981e-07
-4.20805e-08
-3.99107e-07
-4.18735e-08
-3.57622e-07
-4.14849e-08
-3.16732e-07
-4.08906e-08
-2.76668e-07
-4.00633e-08
-2.37696e-07
-3.89723e-08
-2.00113e-07
-3.75834e-08
-1.64254e-07
-3.58589e-08
-1.30496e-07
-3.37576e-08
-9.92604e-08
-3.12356e-08
-7.10129e-08
-2.82475e-08
-4.6263e-08
-2.47498e-08
-2.55554e-08
-2.07076e-08
-9.44547e-09
-1.611e-08
1.56554e-09
-1.1011e-08
7.18781e-09
-5.62225e-09
7.58911e-09
-4.01283e-10
3.93197e-09
3.65719e-09
3.93203e-09
1.16478e-09
-3.96521e-09
-3.63841e-09
3.65382e-09
-1.76951e-08
1.70645e-08
-4.2051e-08
3.18975e-08
-7.645e-08
4.62598e-08
-1.20065e-07
5.92825e-08
-1.71807e-07
7.06429e-08
-2.30524e-07
8.03063e-08
-2.95106e-07
8.83697e-08
-3.64532e-07
9.49856e-08
-4.37893e-07
1.00325e-07
-5.14391e-07
1.04559e-07
-5.93343e-07
1.07848e-07
-6.74167e-07
1.1034e-07
-7.56375e-07
1.12167e-07
-8.39563e-07
1.13446e-07
-9.23398e-07
1.14278e-07
-1.00761e-06
1.1475e-07
-1.09199e-06
1.14933e-07
-1.17636e-06
1.14888e-07
-1.26058e-06
1.14664e-07
-1.34456e-06
1.14301e-07
-1.42819e-06
1.13827e-07
-1.51142e-06
1.13267e-07
-1.59419e-06
1.12637e-07
-1.67646e-06
1.11948e-07
-1.75818e-06
1.11209e-07
-1.83933e-06
1.10424e-07
-1.91986e-06
1.09595e-07
-1.99974e-06
1.08722e-07
-2.07895e-06
1.07804e-07
-2.15743e-06
1.06838e-07
-2.23516e-06
1.05822e-07
-2.3121e-06
1.04754e-07
-2.3882e-06
1.03628e-07
-2.46342e-06
1.02442e-07
-2.53772e-06
1.01192e-07
-2.61103e-06
9.9875e-08
-2.68332e-06
9.84866e-08
-2.75452e-06
9.70235e-08
-2.82458e-06
9.54824e-08
-2.89344e-06
9.38598e-08
-2.96103e-06
9.21524e-08
-3.0273e-06
9.0357e-08
-3.09217e-06
8.84706e-08
-3.15558e-06
8.64901e-08
-3.21746e-06
8.44126e-08
-3.27773e-06
8.22354e-08
-3.33632e-06
7.99558e-08
-3.39316e-06
7.75715e-08
-3.44816e-06
7.508e-08
-3.50124e-06
7.24792e-08
-3.55233e-06
6.97671e-08
-3.60134e-06
6.69419e-08
-3.64818e-06
6.40023e-08
-3.69279e-06
6.09468e-08
-3.73506e-06
5.77746e-08
-3.77491e-06
5.44847e-08
-3.81227e-06
5.1077e-08
-3.84703e-06
4.75513e-08
-3.87913e-06
4.39079e-08
-3.90846e-06
4.01476e-08
-3.93496e-06
3.62716e-08
-3.95853e-06
3.22813e-08
-3.97909e-06
2.81787e-08
-3.99657e-06
2.39663e-08
-4.01088e-06
1.96469e-08
-4.02196e-06
1.5224e-08
-4.02973e-06
1.07016e-08
-4.03412e-06
6.08396e-09
-4.03506e-06
1.37603e-09
-4.0325e-06
-3.41668e-09
-4.02637e-06
-8.28829e-09
-4.01663e-06
-1.32323e-08
-4.00322e-06
-1.82417e-08
-3.98611e-06
-2.33091e-08
-3.96526e-06
-2.84266e-08
-3.94064e-06
-3.35857e-08
-3.91222e-06
-3.87777e-08
-3.87999e-06
-4.39934e-08
-3.84394e-06
-4.92232e-08
-3.80406e-06
-5.44572e-08
-3.76036e-06
-5.96853e-08
-3.71285e-06
-6.48972e-08
-3.66154e-06
-7.00822e-08
-3.60648e-06
-7.52296e-08
-3.54768e-06
-8.03287e-08
-3.4852e-06
-8.53685e-08
-3.41909e-06
-9.03383e-08
-3.3494e-06
-9.52272e-08
-3.27619e-06
-1.00025e-07
-3.19955e-06
-1.0472e-07
-3.11956e-06
-1.09302e-07
-3.0363e-06
-1.13761e-07
-2.94987e-06
-1.18086e-07
-2.86038e-06
-1.22267e-07
-2.76794e-06
-1.26293e-07
-2.67266e-06
-1.30152e-07
-2.57469e-06
-1.33834e-07
-2.47415e-06
-1.37324e-07
-2.3712e-06
-1.40611e-07
-2.26601e-06
-1.43677e-07
-2.15873e-06
-1.46506e-07
-2.04956e-06
-1.49077e-07
-1.93871e-06
-1.51366e-07
-1.82641e-06
-1.53346e-07
-1.7129e-06
-1.54985e-07
-1.59847e-06
-1.56243e-07
-1.48342e-06
-1.57077e-07
-1.36811e-06
-1.57436e-07
-1.25293e-06
-1.57259e-07
-1.13833e-06
-1.56478e-07
-1.0248e-06
-1.55015e-07
-9.12909e-07
-1.52782e-07
-8.03289e-07
-1.49682e-07
-6.96655e-07
-1.45607e-07
-5.93802e-07
-1.40436e-07
-4.95616e-07
-1.34045e-07
-4.03075e-07
-1.26299e-07
-3.17246e-07
-1.17065e-07
-2.39276e-07
-1.06217e-07
-1.70371e-07
-9.36547e-08
-1.11743e-07
-7.93356e-08
-6.45213e-08
-6.3332e-08
-2.95874e-08
-4.59448e-08
-7.31068e-09
-2.78988e-08
2.94895e-09
-1.06608e-08
3.62864e-09
2.97758e-09
7.56073e-09
-3.00878e-09
-9.56518e-10
-1.71246e-08
1.77698e-08
-4.49514e-08
4.48914e-08
-8.72529e-08
7.41991e-08
-1.43689e-07
1.02697e-07
-2.1325e-07
1.28843e-07
-2.94573e-07
1.51966e-07
-3.86165e-07
1.71898e-07
-4.86532e-07
1.88737e-07
-5.94262e-07
2.02716e-07
-7.08061e-07
2.14124e-07
-8.26774e-07
2.23272e-07
-9.49388e-07
2.30462e-07
-1.07503e-06
2.35981e-07
-1.20295e-06
2.4009e-07
-1.33253e-06
2.43024e-07
-1.46324e-06
2.44989e-07
-1.59466e-06
2.46165e-07
-1.72642e-06
2.46702e-07
-1.85826e-06
2.46728e-07
-1.98995e-06
2.46347e-07
-2.12129e-06
2.45643e-07
-2.25214e-06
2.44683e-07
-2.38239e-06
2.43518e-07
-2.51194e-06
2.42185e-07
-2.64071e-06
2.40711e-07
-2.76861e-06
2.39116e-07
-2.8956e-06
2.3741e-07
-3.0216e-06
2.356e-07
-3.14657e-06
2.33688e-07
-3.27044e-06
2.31672e-07
-3.39315e-06
2.29549e-07
-3.51464e-06
2.27314e-07
-3.63485e-06
2.24962e-07
-3.75371e-06
2.22486e-07
-3.87114e-06
2.19878e-07
-3.98708e-06
2.17132e-07
-4.10145e-06
2.1424e-07
-4.21415e-06
2.11195e-07
-4.32512e-06
2.0799e-07
-4.43426e-06
2.04618e-07
-4.54147e-06
2.01072e-07
-4.64666e-06
1.97345e-07
-4.74974e-06
1.93432e-07
-4.85059e-06
1.89324e-07
-4.94912e-06
1.85017e-07
-5.04521e-06
1.80504e-07
-5.13875e-06
1.7578e-07
-5.22964e-06
1.70839e-07
-5.31774e-06
1.65677e-07
-5.40295e-06
1.60288e-07
-5.48514e-06
1.54669e-07
-5.56419e-06
1.48815e-07
-5.63997e-06
1.42723e-07
-5.71236e-06
1.36389e-07
-5.78122e-06
1.29812e-07
-5.84643e-06
1.22989e-07
-5.90787e-06
1.15919e-07
-5.96539e-06
1.08602e-07
-6.01888e-06
1.01037e-07
-6.0682e-06
9.32249e-08
-6.11322e-06
8.51682e-08
-6.15381e-06
7.68689e-08
-6.18986e-06
6.83306e-08
-6.22124e-06
5.95573e-08
-6.24783e-06
5.05544e-08
-6.26951e-06
4.13281e-08
-6.28617e-06
3.18855e-08
-6.29771e-06
2.22351e-08
-6.30401e-06
1.23861e-08
-6.30498e-06
2.34891e-09
-6.30053e-06
-7.86504e-09
-6.29058e-06
-1.82433e-08
-6.27504e-06
-2.87722e-08
-6.25384e-06
-3.94373e-08
-6.22693e-06
-5.02228e-08
-6.19424e-06
-6.11123e-08
-6.15574e-06
-7.20882e-08
-6.11139e-06
-8.31321e-08
-6.06116e-06
-9.42251e-08
-6.00503e-06
-1.05347e-07
-5.94301e-06
-1.16477e-07
-5.8751e-06
-1.27595e-07
-5.80132e-06
-1.38678e-07
-5.7217e-06
-1.49705e-07
-5.63627e-06
-1.60653e-07
-5.5451e-06
-1.715e-07
-5.44825e-06
-1.82223e-07
-5.34579e-06
-1.92799e-07
-5.23781e-06
-2.03206e-07
-5.12441e-06
-2.13422e-07
-5.00571e-06
-2.23423e-07
-4.88182e-06
-2.33188e-07
-4.75289e-06
-2.42695e-07
-4.61905e-06
-2.5192e-07
-4.48048e-06
-2.60842e-07
-4.33733e-06
-2.69438e-07
-4.1898e-06
-2.77682e-07
-4.03808e-06
-2.8555e-07
-3.88239e-06
-2.93015e-07
-3.72296e-06
-3.00045e-07
-3.56003e-06
-3.06608e-07
-3.39387e-06
-3.12664e-07
-3.22478e-06
-3.18169e-07
-3.05307e-06
-3.23072e-07
-2.87911e-06
-3.27312e-07
-2.70327e-06
-3.30819e-07
-2.526e-06
-3.33512e-07
-2.34779e-06
-3.35295e-07
-2.16916e-06
-3.36058e-07
-1.99075e-06
-3.35675e-07
-1.81322e-06
-3.34002e-07
-1.63736e-06
-3.30876e-07
-1.46403e-06
-3.26116e-07
-1.29419e-06
-3.1952e-07
-1.12893e-06
-3.10869e-07
-9.69436e-07
-2.99927e-07
-8.17034e-07
-2.86448e-07
-6.73153e-07
-2.70179e-07
-5.39338e-07
-2.5088e-07
-4.17213e-07
-2.28342e-07
-3.0844e-07
-2.02427e-07
-2.1464e-07
-1.73136e-07
-1.3726e-07
-1.40712e-07
-7.73713e-08
-1.05833e-07
-3.53609e-08
-6.99091e-08
-1.04978e-08
-3.55239e-08
-3.82416e-10
-7.13769e-09
7.17835e-09
-7.61851e-09
6.66176e-09
-3.22445e-08
4.2396e-08
-7.48303e-08
8.74773e-08
-1.35441e-07
1.3481e-07
-2.13362e-07
1.80619e-07
-3.07342e-07
2.22823e-07
-4.15804e-07
2.60428e-07
-5.37029e-07
2.93123e-07
-6.69279e-07
3.20988e-07
-8.10882e-07
3.44319e-07
-9.60283e-07
3.63525e-07
-1.11607e-06
3.79059e-07
-1.27699e-06
3.91379e-07
-1.44194e-06
4.00929e-07
-1.60997e-06
4.0812e-07
-1.78027e-06
4.13327e-07
-1.95216e-06
4.16885e-07
-2.12509e-06
4.19086e-07
-2.29856e-06
4.20179e-07
-2.47221e-06
4.20378e-07
-2.64572e-06
4.19856e-07
-2.81884e-06
4.18757e-07
-2.99135e-06
4.17194e-07
-3.16308e-06
4.15255e-07
-3.33391e-06
4.13008e-07
-3.5037e-06
4.105e-07
-3.67235e-06
4.07766e-07
-3.83976e-06
4.04827e-07
-4.00586e-06
4.01697e-07
-4.17055e-06
3.9838e-07
-4.33376e-06
3.94878e-07
-4.49539e-06
3.91185e-07
-4.65538e-06
3.87295e-07
-4.81361e-06
3.832e-07
-4.97002e-06
3.78889e-07
-5.12449e-06
3.74351e-07
-5.27693e-06
3.69576e-07
-5.42724e-06
3.64551e-07
-5.57531e-06
3.59265e-07
-5.72103e-06
3.53706e-07
-5.86428e-06
3.47864e-07
-6.00493e-06
3.41727e-07
-6.14287e-06
3.35283e-07
-6.27796e-06
3.28523e-07
-6.41007e-06
3.21436e-07
-6.53907e-06
3.14012e-07
-6.66481e-06
3.06242e-07
-6.78714e-06
2.98116e-07
-6.90593e-06
2.89626e-07
-7.02101e-06
2.80763e-07
-7.13224e-06
2.7152e-07
-7.23946e-06
2.61889e-07
-7.34252e-06
2.51865e-07
-7.44123e-06
2.41442e-07
-7.53546e-06
2.30616e-07
-7.62503e-06
2.19381e-07
-7.70978e-06
2.07735e-07
-7.78953e-06
1.95677e-07
-7.86414e-06
1.83206e-07
-7.93342e-06
1.70321e-07
-7.99722e-06
1.57025e-07
-8.05538e-06
1.43321e-07
-8.10772e-06
1.29213e-07
-8.1541e-06
1.14706e-07
-8.19435e-06
9.98092e-08
-8.22832e-06
8.45302e-08
-8.25588e-06
6.888e-08
-8.27686e-06
5.28708e-08
-8.29114e-06
3.65166e-08
-8.29859e-06
1.98331e-08
-8.29908e-06
2.83774e-09
-8.29249e-06
-1.44504e-08
-8.27873e-06
-3.20104e-08
-8.25768e-06
-4.98194e-08
-8.22926e-06
-6.78532e-08
-8.1934e-06
-8.60857e-08
-8.15002e-06
-1.04489e-07
-8.09908e-06
-1.23035e-07
-8.04052e-06
-1.41692e-07
-7.97431e-06
-1.60429e-07
-7.90045e-06
-1.79212e-07
-7.81892e-06
-1.98007e-07
-7.72973e-06
-2.1678e-07
-7.63292e-06
-2.35493e-07
-7.52851e-06
-2.54112e-07
-7.41657e-06
-2.72597e-07
-7.29715e-06
-2.90913e-07
-7.17036e-06
-3.09022e-07
-7.03627e-06
-3.26884e-07
-6.89501e-06
-3.44464e-07
-6.74671e-06
-3.61724e-07
-6.59151e-06
-3.78625e-07
-6.42957e-06
-3.95131e-07
-6.26106e-06
-4.11204e-07
-6.08617e-06
-4.26806e-07
-5.90511e-06
-4.419e-07
-5.71811e-06
-4.56445e-07
-5.52539e-06
-4.70401e-07
-5.32721e-06
-4.83724e-07
-5.12386e-06
-4.96366e-07
-4.91563e-06
-5.08276e-07
-4.70284e-06
-5.19395e-07
-4.48585e-06
-5.29657e-07
-4.26503e-06
-5.38986e-07
-4.04081e-06
-5.47292e-07
-3.81365e-06
-5.54474e-07
-3.58406e-06
-5.60412e-07
-3.35261e-06
-5.64966e-07
-3.11992e-06
-5.67977e-07
-2.88672e-06
-5.6926e-07
-2.6538e-06
-5.68602e-07
-2.42203e-06
-5.65766e-07
-2.19243e-06
-5.60482e-07
-1.96609e-06
-5.52453e-07
-1.74426e-06
-5.41352e-07
-1.5283e-06
-5.26827e-07
-1.31972e-06
-5.08506e-07
-1.12016e-06
-4.86003e-07
-9.31401e-07
-4.58941e-07
-7.55313e-07
-4.26969e-07
-5.9385e-07
-3.89805e-07
-4.48977e-07
-3.473e-07
-3.22579e-07
-2.99534e-07
-2.16319e-07
-2.46973e-07
-1.31442e-07
-1.90709e-07
-6.85164e-08
-1.32835e-07
-2.71021e-08
-7.69381e-08
-5.42612e-09
-2.88136e-08
1.75223e-09
-1.2096e-08
1.87576e-08
-4.71674e-08
7.74677e-08
-1.0445e-07
1.4476e-07
-1.83009e-07
2.13369e-07
-2.81557e-07
2.79167e-07
-3.98494e-07
3.3976e-07
-5.32008e-07
3.93942e-07
-6.80187e-07
4.41302e-07
-8.41113e-07
4.81914e-07
-1.01293e-06
5.1614e-07
-1.19391e-06
5.44503e-07
-1.38245e-06
5.67601e-07
-1.57713e-06
5.86053e-07
-1.77667e-06
6.00467e-07
-1.97996e-06
6.11418e-07
-2.18607e-06
6.19434e-07
-2.39418e-06
6.2499e-07
-2.6036e-06
6.28507e-07
-2.81376e-06
6.30347e-07
-3.02421e-06
6.30819e-07
-3.23453e-06
6.30183e-07
-3.44442e-06
6.28649e-07
-3.65362e-06
6.26387e-07
-3.86189e-06
6.2353e-07
-4.06906e-06
6.20181e-07
-4.27498e-06
6.16414e-07
-4.4795e-06
6.12284e-07
-4.6825e-06
6.07826e-07
-4.88386e-06
6.03061e-07
-5.08348e-06
5.98002e-07
-5.28125e-06
5.9265e-07
-5.47707e-06
5.87002e-07
-5.67083e-06
5.81049e-07
-5.86241e-06
5.7478e-07
-6.0517e-06
5.68183e-07
-6.23859e-06
5.61241e-07
-6.42295e-06
5.53939e-07
-6.60466e-06
5.46261e-07
-6.78359e-06
5.3819e-07
-6.95959e-06
5.29711e-07
-7.13253e-06
5.20806e-07
-7.30227e-06
5.11461e-07
-7.46864e-06
5.01659e-07
-7.63151e-06
4.91384e-07
-7.79069e-06
4.80624e-07
-7.94604e-06
4.69362e-07
-8.09739e-06
4.57585e-07
-8.24455e-06
4.4528e-07
-8.38736e-06
4.32435e-07
-8.52564e-06
4.19038e-07
-8.65919e-06
4.05078e-07
-8.78785e-06
3.90544e-07
-8.91141e-06
3.75429e-07
-9.02969e-06
3.59725e-07
-9.1425e-06
3.43423e-07
-9.24964e-06
3.2652e-07
-9.35092e-06
3.09012e-07
-9.44614e-06
2.90895e-07
-9.5351e-06
2.72169e-07
-9.61761e-06
2.52836e-07
-9.69349e-06
2.32897e-07
-9.76252e-06
2.12358e-07
-9.82454e-06
1.91226e-07
-9.87934e-06
1.69509e-07
-9.92675e-06
1.47218e-07
-9.96659e-06
1.24368e-07
-9.99868e-06
1.00974e-07
-1.00229e-05
7.70544e-08
-1.0039e-05
5.26297e-08
-1.00469e-05
2.77235e-08
-1.00464e-05
2.36163e-09
-1.00374e-05
-2.34276e-08
-1.00198e-05
-4.96131e-08
-9.99347e-06
-7.61615e-08
-9.95829e-06
-1.03037e-07
-9.91417e-06
-1.302e-07
-9.86105e-06
-1.57612e-07
-9.79886e-06
-1.85229e-07
-9.72754e-06
-2.13005e-07
-9.64707e-06
-2.40895e-07
-9.55744e-06
-2.6885e-07
-9.45862e-06
-2.96819e-07
-9.35065e-06
-3.24751e-07
-9.23355e-06
-3.52593e-07
-9.10737e-06
-3.80291e-07
-8.97218e-06
-4.07792e-07
-8.82805e-06
-4.35039e-07
-8.6751e-06
-4.61978e-07
-8.51343e-06
-4.88553e-07
-8.34318e-06
-5.14709e-07
-8.16452e-06
-5.4039e-07
-7.9776e-06
-5.65541e-07
-7.78262e-06
-5.90107e-07
-7.5798e-06
-6.14033e-07
-7.36934e-06
-6.37261e-07
-7.15151e-06
-6.59736e-07
-6.92655e-06
-6.81398e-07
-6.69477e-06
-7.02185e-07
-6.45646e-06
-7.22031e-07
-6.21196e-06
-7.40867e-07
-5.96163e-06
-7.58612e-07
-5.70584e-06
-7.75178e-07
-5.44504e-06
-7.90466e-07
-5.17966e-06
-8.04362e-07
-4.91022e-06
-8.16731e-07
-4.63727e-06
-8.27421e-07
-4.36143e-06
-8.36252e-07
-4.08338e-06
-8.4302e-07
-3.80387e-06
-8.47485e-07
-3.52376e-06
-8.49375e-07
-3.24398e-06
-8.48382e-07
-2.96559e-06
-8.44154e-07
-2.68977e-06
-8.36305e-07
-2.41781e-06
-8.24403e-07
-2.15118e-06
-8.07984e-07
-1.89146e-06
-7.86548e-07
-1.64039e-06
-7.59577e-07
-1.39985e-06
-7.26542e-07
-1.17186e-06
-6.86934e-07
-9.58531e-07
-6.40298e-07
-7.62045e-07
-5.86291e-07
-5.84578e-07
-5.24766e-07
-4.28212e-07
-4.559e-07
-2.94803e-07
-3.80382e-07
-1.85824e-07
-2.99688e-07
-1.02176e-07
-2.16484e-07
-4.39874e-08
-1.35126e-07
-1.04752e-08
-6.23257e-08
-8.72299e-09
-1.61499e-08
3.49077e-08
-6.10465e-08
1.22365e-07
-1.3231e-07
2.16023e-07
-2.27936e-07
3.08996e-07
-3.45951e-07
3.97183e-07
-4.84322e-07
4.78131e-07
-6.40954e-07
5.50575e-07
-8.13737e-07
6.14084e-07
-1.00059e-06
6.68767e-07
-1.19952e-06
7.15071e-07
-1.40866e-06
7.53639e-07
-1.62627e-06
7.85218e-07
-1.85081e-06
8.1059e-07
-2.08088e-06
8.30535e-07
-2.31525e-06
8.45793e-07
-2.55287e-06
8.57055e-07
-2.79283e-06
8.64947e-07
-3.03435e-06
8.70024e-07
-3.27677e-06
8.72773e-07
-3.51956e-06
8.73608e-07
-3.76226e-06
8.72879e-07
-4.00448e-06
8.70875e-07
-4.24593e-06
8.67828e-07
-4.48632e-06
8.63923e-07
-4.72544e-06
8.59303e-07
-4.9631e-06
8.54073e-07
-5.19913e-06
8.48312e-07
-5.43337e-06
8.4207e-07
-5.66569e-06
8.35383e-07
-5.89596e-06
8.28267e-07
-6.12404e-06
8.20729e-07
-6.3498e-06
8.12767e-07
-6.57312e-06
8.04371e-07
-6.79387e-06
7.9553e-07
-7.01192e-06
7.86225e-07
-7.22711e-06
7.76437e-07
-7.43932e-06
7.66148e-07
-7.64839e-06
7.55335e-07
-7.85418e-06
7.43977e-07
-8.05652e-06
7.32053e-07
-8.25526e-06
7.19541e-07
-8.45022e-06
7.06421e-07
-8.64123e-06
6.92671e-07
-8.82812e-06
6.78272e-07
-9.0107e-06
6.63203e-07
-9.18878e-06
6.47447e-07
-9.36218e-06
6.30983e-07
-9.5307e-06
6.13796e-07
-9.69413e-06
5.95869e-07
-9.85228e-06
5.77186e-07
-1.00049e-05
5.57733e-07
-1.01519e-05
5.37496e-07
-1.02929e-05
5.16465e-07
-1.04278e-05
4.94629e-07
-1.05564e-05
4.71979e-07
-1.06784e-05
4.48509e-07
-1.07936e-05
4.24213e-07
-1.09018e-05
3.9909e-07
-1.10027e-05
3.73138e-07
-1.10963e-05
3.46359e-07
-1.11821e-05
3.18758e-07
-1.12601e-05
2.90342e-07
-1.133e-05
2.6112e-07
-1.13916e-05
2.31105e-07
-1.14447e-05
2.00313e-07
-1.14891e-05
1.68762e-07
-1.15246e-05
1.36475e-07
-1.1551e-05
1.03477e-07
-1.15682e-05
6.97957e-08
-1.15759e-05
3.54642e-08
-1.15741e-05
5.17883e-10
-1.15625e-05
-3.50048e-08
-1.1541e-05
-7.1061e-08
-1.15096e-05
-1.07605e-07
-1.1468e-05
-1.44588e-07
-1.14163e-05
-1.81958e-07
-1.13542e-05
-2.19659e-07
-1.12818e-05
-2.57632e-07
-1.1199e-05
-2.95818e-07
-1.11058e-05
-3.34151e-07
-1.10021e-05
-3.72566e-07
-1.08879e-05
-4.10995e-07
-1.07633e-05
-4.49367e-07
-1.06282e-05
-4.87612e-07
-1.04829e-05
-5.25655e-07
-1.03273e-05
-5.63424e-07
-1.01614e-05
-6.00842e-07
-9.98559e-06
-6.37836e-07
-9.79981e-06
-6.7433e-07
-9.60427e-06
-7.10248e-07
-9.39915e-06
-7.45515e-07
-9.18463e-06
-7.80056e-07
-8.96095e-06
-8.13794e-07
-8.72832e-06
-8.46655e-07
-8.48703e-06
-8.7856e-07
-8.23733e-06
-9.09431e-07
-7.97954e-06
-9.39188e-07
-7.71398e-06
-9.67744e-07
-7.441e-06
-9.95009e-07
-7.16099e-06
-1.02088e-06
-6.87434e-06
-1.04526e-06
-6.5815e-06
-1.06801e-06
-6.28296e-06
-1.08901e-06
-5.97924e-06
-1.10808e-06
-5.67092e-06
-1.12506e-06
-5.35862e-06
-1.13972e-06
-5.04305e-06
-1.15182e-06
-4.72499e-06
-1.16108e-06
-4.4053e-06
-1.16718e-06
-4.08492e-06
-1.16975e-06
-3.76495e-06
-1.16836e-06
-3.44654e-06
-1.16256e-06
-3.13104e-06
-1.15181e-06
-2.81989e-06
-1.13555e-06
-2.5147e-06
-1.11317e-06
-2.21723e-06
-1.08402e-06
-1.9294e-06
-1.04741e-06
-1.65325e-06
-1.00269e-06
-1.39098e-06
-9.49201e-07
-1.14488e-06
-8.864e-07
-9.1729e-07
-8.13881e-07
-7.10555e-07
-7.31501e-07
-5.26931e-07
-6.39524e-07
-3.68487e-07
-5.38825e-07
-2.36987e-07
-4.31188e-07
-1.33774e-07
-3.19697e-07
-5.96879e-08
-2.09212e-07
-1.50656e-08
-1.06948e-07
-2.37885e-08
-1.97155e-08
5.46234e-08
-7.35507e-08
1.762e-07
-1.57724e-07
3.00197e-07
-2.69203e-07
4.20475e-07
-4.05299e-07
5.33278e-07
-5.63494e-07
6.36326e-07
-7.41372e-07
7.28453e-07
-9.36599e-07
8.09311e-07
-1.14693e-06
8.79103e-07
-1.37026e-06
9.38392e-07
-1.60458e-06
9.87964e-07
-1.84808e-06
1.02872e-06
-2.09911e-06
1.06162e-06
-2.35618e-06
1.0876e-06
-2.61798e-06
1.10759e-06
-2.88337e-06
1.12244e-06
-3.15136e-06
1.13293e-06
-3.4211e-06
1.13976e-06
-3.69187e-06
1.14355e-06
-3.96307e-06
1.14481e-06
-4.23419e-06
1.144e-06
-4.5048e-06
1.14149e-06
-4.77455e-06
1.13757e-06
-5.04313e-06
1.1325e-06
-5.31028e-06
1.12645e-06
-5.57578e-06
1.11957e-06
-5.83943e-06
1.11196e-06
-6.10105e-06
1.1037e-06
-6.36049e-06
1.09482e-06
-6.61758e-06
1.08536e-06
-6.87217e-06
1.07532e-06
-7.12412e-06
1.06471e-06
-7.37327e-06
1.05353e-06
-7.61948e-06
1.04174e-06
-7.8626e-06
1.02934e-06
-8.10246e-06
1.0163e-06
-8.33892e-06
1.0026e-06
-8.57179e-06
9.88208e-07
-8.80091e-06
9.73102e-07
-9.02611e-06
9.57253e-07
-9.24721e-06
9.40635e-07
-9.46401e-06
9.23222e-07
-9.67633e-06
9.04988e-07
-9.88396e-06
8.85907e-07
-1.00867e-05
8.65955e-07
-1.02844e-05
8.45108e-07
-1.04767e-05
8.23344e-07
-1.06636e-05
8.0064e-07
-1.08447e-05
7.76975e-07
-1.10198e-05
7.52331e-07
-1.11888e-05
7.26689e-07
-1.13513e-05
7.00033e-07
-1.15072e-05
6.72349e-07
-1.16562e-05
6.43624e-07
-1.17981e-05
6.13848e-07
-1.19326e-05
5.83013e-07
-1.20595e-05
5.51112e-07
-1.21785e-05
5.18144e-07
-1.22895e-05
4.84108e-07
-1.23921e-05
4.49007e-07
-1.24862e-05
4.12848e-07
-1.25715e-05
3.75639e-07
-1.26478e-05
3.37394e-07
-1.27148e-05
2.9813e-07
-1.27724e-05
2.57867e-07
-1.28203e-05
2.16631e-07
-1.28582e-05
1.7445e-07
-1.28861e-05
1.31358e-07
-1.29037e-05
8.73914e-08
-1.29108e-05
4.25923e-08
-1.29073e-05
-2.99289e-09
-1.2893e-05
-4.93141e-08
-1.28678e-05
-9.63158e-08
-1.28314e-05
-1.43939e-07
-1.27839e-05
-1.9212e-07
-1.27251e-05
-2.40791e-07
-1.26548e-05
-2.89881e-07
-1.25732e-05
-3.39315e-07
-1.248e-05
-3.89013e-07
-1.23752e-05
-4.38893e-07
-1.22589e-05
-4.8887e-07
-1.21311e-05
-5.38856e-07
-1.19917e-05
-5.88761e-07
-1.18408e-05
-6.38492e-07
-1.16785e-05
-6.87956e-07
-1.15048e-05
-7.37057e-07
-1.132e-05
-7.85699e-07
-1.1124e-05
-8.33785e-07
-1.09172e-05
-8.81218e-07
-1.06995e-05
-9.279e-07
-1.04713e-05
-9.73735e-07
-1.02327e-05
-1.01862e-06
-9.98404e-06
-1.06247e-06
-9.72552e-06
-1.10517e-06
-9.45745e-06
-1.14664e-06
-9.18012e-06
-1.18675e-06
-8.89389e-06
-1.22542e-06
-8.5991e-06
-1.26253e-06
-8.29616e-06
-1.29795e-06
-7.98547e-06
-1.33157e-06
-7.6675e-06
-1.36323e-06
-7.34273e-06
-1.39278e-06
-7.01169e-06
-1.42004e-06
-6.67498e-06
-1.4448e-06
-6.33322e-06
-1.46681e-06
-5.98712e-06
-1.48582e-06
-5.63744e-06
-1.50149e-06
-5.28505e-06
-1.51348e-06
-4.93088e-06
-1.52135e-06
-4.57599e-06
-1.52464e-06
-4.22153e-06
-1.52281e-06
-3.86881e-06
-1.51528e-06
-3.51925e-06
-1.50137e-06
-3.17442e-06
-1.48038e-06
-2.83605e-06
-1.45154e-06
-2.50602e-06
-1.41404e-06
-2.18638e-06
-1.36705e-06
-1.87931e-06
-1.30976e-06
-1.58712e-06
-1.24139e-06
-1.31223e-06
-1.16129e-06
-1.05713e-06
-1.06899e-06
-8.24294e-07
-9.64332e-07
-6.16171e-07
-8.47646e-07
-4.35062e-07
-7.19934e-07
-2.83068e-07
-5.83183e-07
-1.62034e-07
-4.4073e-07
-7.35464e-08
-2.977e-07
-1.90117e-08
-1.61483e-07
-4.28001e-08
-2.28109e-08
7.74345e-08
-8.46161e-08
2.38005e-07
-1.80471e-07
3.96053e-07
-3.06415e-07
5.46419e-07
-4.59068e-07
6.85931e-07
-6.35416e-07
8.12674e-07
-8.32696e-07
9.25733e-07
-1.04833e-06
1.02495e-06
-1.27991e-06
1.11068e-06
-1.52519e-06
1.18367e-06
-1.78207e-06
1.24485e-06
-2.04866e-06
1.29531e-06
-2.32322e-06
1.33618e-06
-2.6042e-06
1.36859e-06
-2.89023e-06
1.39362e-06
-3.1801e-06
1.41231e-06
-3.47276e-06
1.42559e-06
-3.76731e-06
1.43431e-06
-4.06298e-06
1.43922e-06
-4.35911e-06
1.44095e-06
-4.65516e-06
1.44005e-06
-4.95066e-06
1.43698e-06
-5.24521e-06
1.43212e-06
-5.53847e-06
1.42576e-06
-5.83016e-06
1.41814e-06
-6.12003e-06
1.40944e-06
-6.40785e-06
1.39978e-06
-6.69342e-06
1.38927e-06
-6.97656e-06
1.37795e-06
-7.25708e-06
1.36588e-06
-7.53483e-06
1.35306e-06
-7.80962e-06
1.33951e-06
-8.0813e-06
1.32521e-06
-8.3497e-06
1.31014e-06
-8.61465e-06
1.29429e-06
-8.87598e-06
1.27763e-06
-9.1335e-06
1.26012e-06
-9.38704e-06
1.24175e-06
-9.63641e-06
1.22247e-06
-9.88142e-06
1.20226e-06
-1.01219e-05
1.18108e-06
-1.03576e-05
1.15891e-06
-1.05883e-05
1.1357e-06
-1.08138e-05
1.11144e-06
-1.10339e-05
1.08608e-06
-1.12484e-05
1.05961e-06
-1.14571e-05
1.03199e-06
-1.16596e-05
1.0032e-06
-1.18559e-05
9.73212e-07
-1.20456e-05
9.42003e-07
-1.22284e-05
9.09551e-07
-1.24042e-05
8.75838e-07
-1.25727e-05
8.40846e-07
-1.27337e-05
8.04561e-07
-1.28868e-05
7.6697e-07
-1.30318e-05
7.28063e-07
-1.31686e-05
6.87836e-07
-1.32967e-05
6.46284e-07
-1.3416e-05
6.03408e-07
-1.35262e-05
5.59213e-07
-1.36271e-05
5.13708e-07
-1.37183e-05
4.66904e-07
-1.37997e-05
4.18818e-07
-1.38711e-05
3.69473e-07
-1.39321e-05
3.18895e-07
-1.39826e-05
2.67115e-07
-1.40223e-05
2.14169e-07
-1.40511e-05
1.60099e-07
-1.40686e-05
1.04953e-07
-1.40748e-05
4.87819e-08
-1.40695e-05
-8.35592e-09
-1.40524e-05
-6.63974e-08
-1.40234e-05
-1.25274e-07
-1.39824e-05
-1.84911e-07
-1.39293e-05
-2.45231e-07
-1.3864e-05
-3.06148e-07
-1.37863e-05
-3.67575e-07
-1.36962e-05
-4.29416e-07
-1.35936e-05
-4.91574e-07
-1.34786e-05
-5.53947e-07
-1.3351e-05
-6.1643e-07
-1.32109e-05
-6.78912e-07
-1.30584e-05
-7.41282e-07
-1.28935e-05
-8.03426e-07
-1.27162e-05
-8.65227e-07
-1.25267e-05
-9.26567e-07
-1.23251e-05
-9.87326e-07
-1.21115e-05
-1.04738e-06
-1.18861e-05
-1.10662e-06
-1.16491e-05
-1.16492e-06
-1.14006e-05
-1.22215e-06
-1.11411e-05
-1.27819e-06
-1.08706e-05
-1.33294e-06
-1.05895e-05
-1.38625e-06
-1.02982e-05
-1.438e-06
-9.99685e-06
-1.48808e-06
-9.68593e-06
-1.53634e-06
-9.36582e-06
-1.58264e-06
-9.03693e-06
-1.62684e-06
-8.69972e-06
-1.66878e-06
-8.35469e-06
-1.70827e-06
-8.00236e-06
-1.74511e-06
-7.64331e-06
-1.77909e-06
-7.27818e-06
-1.80993e-06
-6.90765e-06
-1.83735e-06
-6.53247e-06
-1.86099e-06
-6.15349e-06
-1.88048e-06
-5.77161e-06
-1.89535e-06
-5.38785e-06
-1.90511e-06
-5.00333e-06
-1.90916e-06
-4.6193e-06
-1.90685e-06
-4.23711e-06
-1.89746e-06
-3.85829e-06
-1.88019e-06
-3.4845e-06
-1.85417e-06
-3.11756e-06
-1.81849e-06
-2.75944e-06
-1.77217e-06
-2.41227e-06
-1.71422e-06
-2.07834e-06
-1.64369e-06
-1.76006e-06
-1.55967e-06
-1.45995e-06
-1.46139e-06
-1.18063e-06
-1.34831e-06
-9.2471e-07
-1.22025e-06
-6.94827e-07
-1.07753e-06
-4.93539e-07
-9.21223e-07
-3.23307e-07
-7.53414e-07
-1.86487e-07
-5.7755e-07
-8.53676e-08
-3.98819e-07
-2.2293e-08
-2.24557e-07
-6.50931e-08
-2.54787e-08
1.02914e-07
-9.42988e-08
3.06826e-07
-2.00572e-07
5.02325e-07
-3.39533e-07
6.85381e-07
-5.07166e-07
8.53563e-07
-6.99976e-07
1.00548e-06
-9.14848e-07
1.14061e-06
-1.14895e-06
1.25905e-06
-1.3997e-06
1.36143e-06
-1.66471e-06
1.44867e-06
-1.94179e-06
1.52194e-06
-2.22897e-06
1.58249e-06
-2.52445e-06
1.63166e-06
-2.82662e-06
1.67075e-06
-3.13405e-06
1.70106e-06
-3.4455e-06
1.72376e-06
-3.75987e-06
1.73996e-06
-4.07622e-06
1.75066e-06
-4.39374e-06
1.75674e-06
-4.71174e-06
1.75894e-06
-5.02963e-06
1.75794e-06
-5.34691e-06
1.75427e-06
-5.66316e-06
1.74837e-06
-5.97802e-06
1.74062e-06
-6.29116e-06
1.73129e-06
-6.60233e-06
1.7206e-06
-6.91126e-06
1.70871e-06
-7.21773e-06
1.69574e-06
-7.52155e-06
1.68177e-06
-7.82252e-06
1.66685e-06
-8.12044e-06
1.65099e-06
-8.41514e-06
1.63421e-06
-8.70644e-06
1.6165e-06
-8.99414e-06
1.59785e-06
-9.27808e-06
1.57822e-06
-9.55805e-06
1.5576e-06
-9.83387e-06
1.53594e-06
-1.01053e-05
1.51322e-06
-1.03723e-05
1.48939e-06
-1.06344e-05
1.46442e-06
-1.08916e-05
1.43828e-06
-1.11436e-05
1.41092e-06
-1.13902e-05
1.38231e-06
-1.16312e-05
1.35241e-06
-1.18663e-05
1.32118e-06
-1.20953e-05
1.28861e-06
-1.23179e-05
1.25464e-06
-1.2534e-05
1.21925e-06
-1.27432e-05
1.18242e-06
-1.29453e-05
1.14411e-06
-1.314e-05
1.10429e-06
-1.33272e-05
1.06296e-06
-1.35064e-05
1.02008e-06
-1.36775e-05
9.75639e-07
-1.38401e-05
9.29624e-07
-1.39941e-05
8.82024e-07
-1.41391e-05
8.32833e-07
-1.42748e-05
7.82047e-07
-1.44011e-05
7.29668e-07
-1.45176e-05
6.75703e-07
-1.46241e-05
6.20161e-07
-1.47202e-05
5.6306e-07
-1.48058e-05
5.04419e-07
-1.48806e-05
4.44267e-07
-1.49443e-05
3.82635e-07
-1.49968e-05
3.19561e-07
-1.50377e-05
2.55091e-07
-1.50669e-05
1.89276e-07
-1.50841e-05
1.22172e-07
-1.50892e-05
5.38426e-08
-1.50819e-05
-1.56412e-08
-1.50621e-05
-8.62031e-08
-1.50296e-05
-1.5776e-07
-1.49843e-05
-2.30222e-07
-1.4926e-05
-3.03495e-07
-1.48547e-05
-3.77475e-07
-1.47702e-05
-4.52055e-07
-1.46725e-05
-5.27123e-07
-1.45615e-05
-6.02559e-07
-1.44372e-05
-6.78241e-07
-1.42996e-05
-7.54042e-07
-1.41487e-05
-8.29828e-07
-1.39845e-05
-9.05466e-07
-1.38071e-05
-9.80817e-07
-1.36166e-05
-1.05574e-06
-1.34131e-05
-1.13009e-06
-1.31967e-05
-1.20374e-06
-1.29675e-05
-1.27652e-06
-1.27259e-05
-1.3483e-06
-1.24719e-05
-1.41892e-06
-1.22057e-05
-1.48826e-06
-1.19278e-05
-1.55615e-06
-1.16383e-05
-1.62245e-06
-1.13375e-05
-1.68701e-06
-1.10259e-05
-1.74968e-06
-1.07036e-05
-1.8103e-06
-1.03712e-05
-1.86872e-06
-1.00291e-05
-1.92477e-06
-9.67771e-06
-1.97825e-06
-9.3175e-06
-2.02898e-06
-8.94903e-06
-2.07674e-06
-8.57285e-06
-2.12129e-06
-8.18959e-06
-2.16235e-06
-7.79992e-06
-2.1996e-06
-7.40457e-06
-2.2327e-06
-7.00434e-06
-2.26122e-06
-6.60011e-06
-2.28471e-06
-6.19285e-06
-2.30261e-06
-5.78363e-06
-2.31433e-06
-5.37363e-06
-2.31916e-06
-4.96414e-06
-2.31633e-06
-4.55662e-06
-2.30499e-06
-4.15262e-06
-2.28419e-06
-3.75388e-06
-2.25292e-06
-3.36228e-06
-2.21008e-06
-2.97987e-06
-2.15457e-06
-2.60886e-06
-2.08523e-06
-2.25161e-06
-2.00095e-06
-1.91061e-06
-1.90067e-06
-1.58848e-06
-1.78352e-06
-1.28794e-06
-1.64886e-06
-1.01176e-06
-1.49642e-06
-7.6277e-07
-1.32652e-06
-5.43785e-07
-1.14021e-06