/*--------------------------------*- C++ -*----------------------------------*\
| =========                 |                                                 |
| \\      /  F ield         | OpenFOAM: The Open Source CFD Toolbox           |
|  \\    /   O peration     | Version:  2112                                  |
|   \\  /    A nd           | Website:  www.openfoam.com                      |
|    \\/     M anipulation  |                                                 |
\*---------------------------------------------------------------------------*/
FoamFile
{
    version     2.0;
    format      ascii;
    arch        "LSB;label=32;scalar=64";
    class       surfaceScalarField;
    location    "3";
    object      phi;
}
// * * * * * * * * * * * * * * * * * * * * * * * * * * * * * * * * * * * * * //

dimensions      [0 3 -1 0 0 0 0];

oriented        oriented;

internalField   nonuniform List<scalar> 
33024
(
-3.17112e-11
3.23571e-11
2.28311e-10
-2.59983e-10
7.84678e-10
-5.56414e-10
1.55381e-09
-7.69111e-10
2.45212e-09
-8.98317e-10
3.40928e-09
-9.57166e-10
4.36933e-09
-9.60039e-10
5.28951e-09
-9.20167e-10
6.1382e-09
-8.48709e-10
6.89301e-09
-7.5481e-10
7.53895e-09
-6.45928e-10
8.06701e-09
-5.2806e-10
8.47292e-09
-4.05912e-10
8.75596e-09
-2.83036e-10
8.91791e-09
-1.61954e-10
8.9622e-09
-4.42767e-11
8.89297e-09
6.92328e-11
8.71455e-09
1.7842e-10
8.43079e-09
2.83761e-10
8.04463e-09
3.86151e-10
7.55782e-09
4.86807e-10
6.97067e-09
5.8714e-10
6.28204e-09
6.88649e-10
5.48924e-09
7.92809e-10
4.58824e-09
9.01001e-10
3.57379e-09
1.01445e-09
2.4396e-09
1.13418e-09
1.17862e-09
1.26096e-09
-2.16689e-10
1.39531e-09
-1.75417e-09
1.53748e-09
-3.44165e-09
1.68749e-09
-5.28676e-09
1.84512e-09
-7.29666e-09
2.0099e-09
-9.47787e-09
2.1812e-09
-1.18361e-08
2.35818e-09
-1.43759e-08
2.53981e-09
-1.71008e-08
2.72488e-09
-2.00128e-08
2.91201e-09
-2.31124e-08
3.09967e-09
-2.63986e-08
3.28612e-09
-2.9868e-08
3.46949e-09
-3.35158e-08
3.64774e-09
-3.73345e-08
3.8187e-09
-4.13146e-08
3.98007e-09
-4.5444e-08
4.12941e-09
-4.97082e-08
4.26423e-09
-5.40902e-08
4.38196e-09
-5.85701e-08
4.47998e-09
-6.31259e-08
4.5557e-09
-6.77324e-08
4.60656e-09
-7.23625e-08
4.63006e-09
-7.69863e-08
4.62384e-09
-8.1572e-08
4.58568e-09
-8.60855e-08
4.51354e-09
-9.04912e-08
4.40566e-09
-9.47517e-08
4.26051e-09
-9.88286e-08
4.07692e-09
-1.02683e-07
3.85403e-09
-1.06274e-07
3.59142e-09
-1.09563e-07
3.28907e-09
-1.12511e-07
2.94741e-09
-1.15078e-07
2.56737e-09
-1.17228e-07
2.15037e-09
-1.18927e-07
1.69845e-09
-1.20141e-07
1.21434e-09
-1.20842e-07
7.01205e-10
-1.21005e-07
1.629e-10
-1.20605e-07
-4.00586e-10
-1.19627e-07
-9.77695e-10
-1.1806e-07
-1.56714e-09
-1.15897e-07
-2.16261e-09
-1.13139e-07
-2.75798e-09
-1.09792e-07
-3.34682e-09
-1.0587e-07
-3.92239e-09
-1.01392e-07
-4.47782e-09
-9.6386e-08
-5.00611e-09
-9.08857e-08
-5.50033e-09
-8.4932e-08
-5.95373e-09
-7.85721e-08
-6.35984e-09
-7.18595e-08
-6.71266e-09
-6.48527e-08
-7.00678e-09
-5.76151e-08
-7.23753e-09
-5.0214e-08
-7.4011e-09
-4.27194e-08
-7.49469e-09
-3.52028e-08
-7.51659e-09
-2.77365e-08
-7.46629e-09
-2.0392e-08
-7.34449e-09
-1.32388e-08
-7.15316e-09
-6.34335e-09
-6.89545e-09
2.32482e-10
-6.57583e-09
6.43303e-09
-6.20055e-09
1.22075e-08
-5.7745e-09
1.75137e-08
-5.30613e-09
2.23169e-08
-4.80318e-09
2.6591e-08
-4.27414e-09
3.03186e-08
-3.72761e-09
3.34909e-08
-3.17229e-09
3.61075e-08
-2.61663e-09
3.81762e-08
-2.06871e-09
3.97122e-08
-1.53599e-09
4.07374e-08
-1.02519e-09
4.12796e-08
-5.4215e-10
4.13713e-08
-9.17261e-11
4.1049e-08
3.22306e-10
4.03518e-08
6.97143e-10
3.93207e-08
1.03111e-09
3.79972e-08
1.32351e-09
3.64226e-08
1.57458e-09
3.46372e-08
1.78542e-09
3.26794e-08
1.95783e-09
3.05851e-08
2.09424e-09
2.83876e-08
2.19752e-09
2.61168e-08
2.27079e-09
2.37995e-08
2.31732e-09
2.14593e-08
2.34021e-09
1.91171e-08
2.34223e-09
1.67915e-08
2.32552e-09
1.45003e-08
2.29128e-09
1.22608e-08
2.23944e-09
1.00926e-08
2.16825e-09
8.01865e-09
2.07392e-09
6.06839e-09
1.95026e-09
4.28e-09
1.78839e-09
2.7031e-09
1.57689e-09
1.40004e-09
1.30307e-09
4.42973e-10
9.57062e-10
-9.92521e-11
5.42223e-10
-2.03906e-10
1.04649e-10
-2.0391e-10
2.59339e-10
-2.26945e-10
1.14816e-09
-1.14886e-09
2.60057e-09
-2.00873e-09
4.47795e-09
-2.64653e-09
6.62671e-09
-3.0471e-09
8.90258e-09
-3.233e-09
1.11809e-08
-3.23834e-09
1.33597e-08
-3.09898e-09
1.5359e-08
-2.84805e-09
1.71187e-08
-2.51452e-09
1.85958e-08
-2.123e-09
1.97616e-08
-1.69382e-09
2.0599e-08
-1.24334e-09
2.11001e-08
-7.84117e-10
2.12634e-08
-3.25312e-10
2.10922e-08
1.26983e-10
2.05919e-08
5.69532e-10
1.97689e-08
1.0014e-09
1.8629e-08
1.42366e-09
1.71762e-08
1.83893e-09
1.54121e-08
2.25096e-09
1.3335e-08
2.66423e-09
1.09401e-08
3.08354e-09
8.21923e-09
3.51365e-09
5.16119e-09
3.95903e-09
1.75206e-09
4.42359e-09
-2.02424e-09
4.91048e-09
-6.1853e-09
5.42203e-09
-1.07496e-08
5.95962e-09
-1.57359e-08
6.52373e-09
-2.11622e-08
7.11386e-09
-2.70458e-08
7.72868e-09
-3.34019e-08
8.36597e-09
-4.02434e-08
9.02275e-09
-4.75805e-08
9.69528e-09
-5.54198e-08
1.03791e-08
-6.37642e-08
1.10692e-08
-7.26119e-08
1.17597e-08
-8.19566e-08
1.24444e-08
-9.17867e-08
1.31162e-08
-1.02085e-07
1.37678e-08
-1.12828e-07
1.43912e-08
-1.23988e-07
1.4978e-08
-1.35527e-07
1.55196e-08
-1.47405e-07
1.60069e-08
-1.59571e-07
1.64309e-08
-1.71972e-07
1.67824e-08
-1.84544e-07
1.70523e-08
-1.9722e-07
1.72318e-08
-2.09926e-07
1.73123e-08
-2.22582e-07
1.72858e-08
-2.35103e-07
1.7145e-08
-2.474e-07
1.68831e-08
-2.59381e-07
1.64943e-08
-2.70949e-07
1.5974e-08
-2.82007e-07
1.53185e-08
-2.92456e-07
1.45255e-08
-3.02196e-07
1.35938e-08
-3.11128e-07
1.2524e-08
-3.19157e-07
1.13179e-08
-3.26189e-07
9.97906e-09
-3.32134e-07
8.51265e-09
-3.36909e-07
6.92548e-09
-3.40437e-07
5.2262e-09
-3.42648e-07
3.4257e-09
-3.43483e-07
1.53592e-09
-3.42891e-07
-4.29321e-10
-3.40829e-07
-2.46208e-09
-3.37272e-07
-4.53492e-09
-3.32205e-07
-6.63414e-09
-3.25627e-07
-8.74035e-09
-3.17552e-07
-1.08331e-08
-3.08008e-07
-1.28909e-08
-2.97038e-07
-1.4892e-08
-2.84702e-07
-1.68138e-08
-2.71074e-07
-1.86342e-08
-2.56244e-07
-2.0331e-08
-2.40315e-07
-2.18828e-08
-2.23405e-07
-2.32695e-08
-2.05645e-07
-2.44722e-08
-1.87178e-07
-2.54742e-08
-1.68155e-07
-2.62608e-08
-1.48736e-07
-2.68203e-08
-1.29086e-07
-2.71439e-08
-1.09377e-07
-2.72262e-08
-8.97776e-08
-2.70655e-08
-7.04584e-08
-2.66637e-08
-5.15847e-08
-2.60268e-08
-3.33156e-08
-2.51646e-08
-1.58009e-08
-2.40905e-08
8.20242e-10
-2.28217e-08
1.64243e-08
-2.13786e-08
3.09015e-08
-1.97833e-08
4.41602e-08
-1.80618e-08
5.61272e-08
-1.62412e-08
6.6749e-08
-1.43493e-08
7.59913e-08
-1.24147e-08
8.38402e-08
-1.04654e-08
9.03004e-08
-8.5289e-09
9.53952e-08
-6.6308e-09
9.91647e-08
-4.79476e-09
1.01664e-07
-3.04187e-09
1.02963e-07
-1.39025e-09
1.0314e-07
1.45189e-10
1.02284e-07
1.55292e-09
1.00491e-07
2.82488e-09
9.78577e-08
3.95636e-09
9.44864e-08
4.94589e-09
9.04768e-08
5.79497e-09
8.59269e-08
6.50776e-09
8.09305e-08
7.09061e-09
7.55764e-08
7.55162e-09
6.99471e-08
7.90006e-09
6.41188e-08
8.14568e-09
5.8161e-08
8.29802e-09
5.21376e-08
8.36556e-09
4.61084e-08
8.35479e-09
4.01304e-08
8.26925e-09
3.42615e-08
8.10842e-09
2.8563e-08
7.86671e-09
2.31044e-08
7.53252e-09
1.7967e-08
7.08769e-09
1.32477e-08
6.50769e-09
9.06097e-09
5.76358e-09
5.53646e-09
4.82758e-09
2.80718e-09
3.68634e-09
9.83806e-10
2.3656e-09
1.08534e-10
9.79927e-10
-9.5379e-11
5.5599e-10
-7.82983e-10
2.01074e-09
-2.60354e-09
4.18295e-09
-4.18096e-09
6.87981e-09
-5.3434e-09
9.90341e-09
-6.07069e-09
1.30669e-08
-6.39652e-09
1.62048e-08
-6.3762e-09
1.9177e-08
-6.07124e-09
2.18703e-08
-5.54126e-09
2.4196e-08
-4.84027e-09
2.60884e-08
-4.01542e-09
2.7501e-08
-3.10642e-09
2.84034e-08
-2.14571e-09
2.87779e-08
-1.15863e-09
2.86165e-08
-1.63896e-10
2.79178e-08
8.2573e-10
2.66841e-08
1.80316e-09
2.49196e-08
2.7659e-09
2.26278e-08
3.71544e-09
1.98104e-08
4.65642e-09
1.64656e-08
5.59576e-09
1.2588e-08
6.54183e-09
8.16786e-09
7.50368e-09
3.19118e-09
8.49032e-09
-2.35991e-09
9.51011e-09
-8.5066e-09
1.05703e-08
-1.52726e-08
1.16765e-08
-2.26831e-08
1.28326e-08
-3.0764e-08
1.40406e-08
-3.95407e-08
1.53004e-08
-4.90369e-08
1.661e-08
-5.92738e-08
1.79656e-08
-7.02691e-08
1.93613e-08
-8.20361e-08
2.07897e-08
-9.45826e-08
2.22417e-08
-1.0791e-07
2.37068e-08
-1.22014e-07
2.5173e-08
-1.36881e-07
2.66269e-08
-1.52491e-07
2.80541e-08
-1.68814e-07
2.94389e-08
-1.85811e-07
3.07648e-08
-2.03434e-07
3.20142e-08
-2.21625e-07
3.31691e-08
-2.40316e-07
3.4211e-08
-2.5943e-07
3.51211e-08
-2.7888e-07
3.58806e-08
-2.98569e-07
3.64709e-08
-3.18391e-07
3.68742e-08
-3.38232e-07
3.70732e-08
-3.57972e-07
3.70519e-08
-3.77482e-07
3.67957e-08
-3.96628e-07
3.62914e-08
-4.15273e-07
3.55278e-08
-4.33274e-07
3.4496e-08
-4.50489e-07
3.31891e-08
-4.66774e-07
3.16031e-08
-4.81985e-07
2.97363e-08
-4.95981e-07
2.759e-08
-5.08626e-07
2.51685e-08
-5.19787e-07
2.24791e-08
-5.2934e-07
1.95319e-08
-5.37168e-07
1.63406e-08
-5.43164e-07
1.29215e-08
-5.47232e-07
9.29444e-09
-5.49289e-07
5.48326e-09
-5.49273e-07
1.51986e-09
-5.47114e-07
-2.58891e-09
-5.42782e-07
-6.79342e-09
-5.36256e-07
-1.10618e-08
-5.2753e-07
-1.53601e-08
-5.16619e-07
-1.96507e-08
-5.03558e-07
-2.38939e-08
-4.884e-07
-2.80488e-08
-4.71219e-07
-3.20737e-08
-4.52106e-07
-3.59265e-08
-4.31175e-07
-3.95654e-08
-4.08557e-07
-4.29494e-08
-3.844e-07
-4.60389e-08
-3.58874e-07
-4.87964e-08
-3.32158e-07
-5.11875e-08
-3.04451e-07
-5.3181e-08
-2.75962e-07
-5.47502e-08
-2.46909e-07
-5.5873e-08
-2.1752e-07
-5.65332e-08
-1.88026e-07
-5.67205e-08
-1.5866e-07
-5.64311e-08
-1.29656e-07
-5.56681e-08
-1.01241e-07
-5.44417e-08
-7.36361e-08
-5.27692e-08
-4.7052e-08
-5.06747e-08
-2.16846e-08
-4.81891e-08
2.28604e-09
-4.53493e-08
2.47005e-08
-4.21978e-08
4.54193e-08
-3.87806e-08
6.4328e-08
-3.51499e-08
8.13366e-08
-3.13579e-08
9.63812e-08
-2.74593e-08
1.09425e-07
-2.35088e-08
1.20455e-07
-1.95598e-08
1.29488e-07
-1.56637e-08
1.36562e-07
-1.18684e-08
1.41738e-07
-8.21749e-09
1.45097e-07
-4.74943e-09
1.46739e-07
-1.49681e-09
1.46778e-07
1.51399e-09
1.45339e-07
4.26322e-09
1.42558e-07
6.73756e-09
1.38574e-07
8.93014e-09
1.33529e-07
1.08401e-08
1.27565e-07
1.2472e-08
1.2082e-07
1.38351e-08
1.13429e-07
1.49426e-08
1.05519e-07
1.58101e-08
9.72098e-08
1.64548e-08
8.86141e-08
1.68937e-08
7.98374e-08
1.71422e-08
7.098e-08
1.72122e-08
6.21392e-08
1.711e-08
5.34127e-08
1.68349e-08
4.49025e-08
1.63769e-08
3.67192e-08
1.57157e-08
2.89868e-08
1.48201e-08
2.18451e-08
1.36494e-08
1.54508e-08
1.21579e-08
9.97273e-09
1.03056e-08
5.57938e-09
8.07969e-09
2.41515e-09
5.52982e-09
5.63154e-10
2.83193e-09
4.67774e-10
7.72574e-10
-1.55552e-09
2.6611e-09
-4.49211e-09
5.36841e-09
-6.88829e-09
8.63895e-09
-8.6139e-09
1.22354e-08
-9.66708e-09
1.59408e-08
-1.0102e-08
1.95636e-08
-9.999e-09
2.29397e-08
-9.44738e-09
2.59337e-08
-8.5352e-09
2.84373e-08
-7.3439e-09
3.03675e-08
-5.94559e-09
3.16631e-08
-4.40201e-09
3.22814e-08
-2.76408e-09
3.21949e-08
-1.0721e-09
3.13872e-08
6.43822e-10
2.98499e-08
2.363e-09
2.75797e-08
4.07338e-09
2.45753e-08
5.77035e-09
2.08351e-08
7.45556e-09
1.63559e-08
9.13565e-09
1.11308e-08
1.08209e-08
5.14873e-09
1.25239e-08
-1.60573e-09
1.42581e-08
-9.15262e-09
1.60372e-08
-1.75159e-08
1.78734e-08
-2.67228e-08
1.97771e-08
-3.68024e-08
2.17561e-08
-4.77851e-08
2.38153e-08
-5.97006e-08
2.5956e-08
-7.25767e-08
2.81765e-08
-8.64382e-08
3.04716e-08
-1.01305e-07
3.28326e-08
-1.17192e-07
3.52481e-08
-1.34106e-07
3.77036e-08
-1.52046e-07
4.01817e-08
-1.71002e-07
4.26628e-08
-1.90954e-07
4.51248e-08
-2.1187e-07
4.75436e-08
-2.33709e-07
4.98932e-08
-2.56416e-07
5.21458e-08
-2.79924e-07
5.42725e-08
-3.04153e-07
5.62434e-08
-3.29012e-07
5.80277e-08
-3.54395e-07
5.95946e-08
-3.80187e-07
6.09131e-08
-4.0626e-07
6.19533e-08
-4.32475e-07
6.26858e-08
-4.58684e-07
6.3083e-08
-4.8473e-07
6.31193e-08
-5.10449e-07
6.27713e-08
-5.35672e-07
6.20185e-08
-5.60224e-07
6.08435e-08
-5.83929e-07
5.92327e-08
-6.06609e-07
5.71758e-08
-6.28087e-07
5.46671e-08
-6.48189e-07
5.17048e-08
-6.66744e-07
4.82917e-08
-6.83589e-07
4.4435e-08
-6.98567e-07
4.01466e-08
-7.11531e-07
3.54428e-08
-7.22344e-07
3.03448e-08
-7.30881e-07
2.48782e-08
-7.37033e-07
1.9073e-08
-7.40702e-07
1.29636e-08
-7.41804e-07
6.58503e-09
-7.40306e-07
2.19802e-11
-7.36111e-07
-6.78368e-09
-7.29227e-07
-1.36779e-08
-7.1964e-07
-2.06483e-08
-7.07364e-07
-2.76358e-08
-6.92434e-07
-3.45816e-08
-6.74903e-07
-4.14249e-08
-6.54848e-07
-4.81036e-08
-6.32367e-07
-5.45548e-08
-6.07578e-07
-6.07156e-08
-5.8062e-07
-6.65233e-08
-5.51652e-07
-7.19169e-08
-5.20853e-07
-7.68377e-08
-4.8842e-07
-8.123e-08
-4.54565e-07
-8.50425e-08
-4.19517e-07
-8.82289e-08
-3.83518e-07
-9.07491e-08
-3.46821e-07
-9.25701e-08
-3.09687e-07
-9.36669e-08
-2.72385e-07
-9.40232e-08
-2.35184e-07
-9.36322e-08
-1.98355e-07
-9.24971e-08
-1.62165e-07
-9.06315e-08
-1.26874e-07
-8.80594e-08
-9.27338e-08
-8.48152e-08
-5.99796e-08
-8.09433e-08
-2.88315e-08
-7.64973e-08
5.10224e-10
-7.15396e-08
2.78701e-08
-6.61405e-08
5.30947e-08
-6.03745e-08
7.60598e-08
-5.4323e-08
9.66696e-08
-4.80691e-08
1.14858e-07
-4.16973e-08
1.3059e-07
-3.52912e-08
1.43858e-07
-2.89322e-08
1.54687e-07
-2.26976e-08
1.63128e-07
-1.66586e-08
1.69258e-07
-1.08795e-08
1.73178e-07
-5.41632e-09
1.75008e-07
-3.15877e-10
1.74886e-07
4.38494e-09
1.72965e-07
8.65907e-09
1.69405e-07
1.24896e-08
1.64376e-07
1.5869e-08
1.58049e-07
1.87989e-08
1.50596e-07
2.12885e-08
1.42185e-07
2.33537e-08
1.3298e-07
2.5015e-08
1.23139e-07
2.62958e-08
1.12812e-07
2.72203e-08
1.02144e-07
2.78105e-08
9.12729e-08
2.80835e-08
8.03337e-08
2.80492e-08
6.9462e-08
2.77067e-08
5.87965e-08
2.70424e-08
4.8484e-08
2.60282e-08
3.86829e-08
2.46212e-08
2.95661e-08
2.27662e-08
2.13211e-08
2.0403e-08
1.41465e-08
1.74802e-08
8.24422e-09
1.39819e-08
3.80704e-09
9.967e-09
1.00595e-09
5.63303e-09
1.47372e-09
9.09955e-10
-2.46549e-09
3.08544e-09
-6.66762e-09
6.13657e-09
-9.9394e-09
9.74907e-09
-1.22264e-08
1.36492e-08
-1.35672e-08
1.75959e-08
-1.40487e-08
2.13789e-08
-1.37821e-08
2.48188e-08
-1.28872e-08
2.77656e-08
-1.1482e-08
3.00979e-08
-9.67618e-09
3.17202e-08
-7.56791e-09
3.256e-08
-5.24183e-09
3.25643e-08
-2.76835e-09
3.16958e-08
-2.03613e-10
2.99296e-08
2.41007e-09
2.72492e-08
5.0434e-09
2.36437e-08
7.67888e-09
1.91046e-08
1.03094e-08
1.36237e-08
1.29365e-08
7.19071e-09
1.55687e-08
-2.07808e-10
1.82194e-08
-8.58932e-09
2.09054e-08
-1.79756e-08
2.36444e-08
-2.83924e-08
2.64541e-08
-3.98691e-08
2.93501e-08
-5.24373e-08
3.23452e-08
-6.61295e-08
3.54484e-08
-8.0978e-08
3.86637e-08
-9.70127e-08
4.19908e-08
-1.1426e-07
4.54238e-08
-1.3274e-07
4.8952e-08
-1.52468e-07
5.25599e-08
-1.73447e-07
5.62272e-08
-1.95673e-07
5.99294e-08
-2.19129e-07
6.36381e-08
-2.43787e-07
6.7321e-08
-2.69605e-07
7.09427e-08
-2.96527e-07
7.44652e-08
-3.24481e-07
7.78478e-08
-3.53384e-07
8.1048e-08
-3.83133e-07
8.40218e-08
-4.13614e-07
8.67244e-08
-4.44697e-07
8.91108e-08
-4.76239e-07
9.11364e-08
-5.08083e-07
9.27576e-08
-5.40063e-07
9.39325e-08
-5.71999e-07
9.46219e-08
-6.03705e-07
9.47892e-08
-6.34988e-07
9.44019e-08
-6.65648e-07
9.34316e-08
-6.95484e-07
9.18544e-08
-7.24292e-07
8.9652e-08
-7.51871e-07
8.68111e-08
-7.78019e-07
8.33245e-08
-8.02543e-07
7.91909e-08
-8.25253e-07
7.44151e-08
-8.4597e-07
6.90081e-08
-8.64522e-07
6.2987e-08
-8.8075e-07
5.6375e-08
-8.94509e-07
4.92012e-08
-9.05665e-07
4.15008e-08
-9.14101e-07
3.33144e-08
-9.19716e-07
2.46883e-08
-9.22426e-07
1.5674e-08
-9.22171e-07
6.3295e-09
-9.18869e-07
-3.2795e-09
-9.12544e-07
-1.31093e-08
-9.03154e-07
-2.3068e-08
-8.90714e-07
-3.30879e-08
-8.75256e-07
-4.30937e-08
-8.56831e-07
-5.30064e-08
-8.35512e-07
-6.27447e-08
-8.11389e-07
-7.22259e-08
-7.84578e-07
-8.13663e-08
-7.55211e-07
-9.00824e-08
-7.23443e-07
-9.82916e-08
-6.89446e-07
-1.05913e-07
-6.53415e-07
-1.12869e-07
-6.15558e-07
-1.19086e-07
-5.76105e-07
-1.24496e-07
-5.35297e-07
-1.29037e-07
-4.93392e-07
-1.32654e-07
-4.50658e-07
-1.35304e-07
-4.07375e-07
-1.3695e-07
-3.63827e-07
-1.37571e-07
-3.20306e-07
-1.37153e-07
-2.77104e-07
-1.357e-07
-2.3451e-07
-1.33226e-07
-1.9281e-07
-1.2976e-07
-1.5228e-07
-1.25344e-07
-1.13187e-07
-1.20036e-07
-7.57798e-08
-1.13905e-07
-4.02892e-08
-1.0703e-07
-6.92511e-09
-9.95045e-08
2.41283e-08
-9.1428e-08
5.27135e-08
-8.29082e-08
7.87022e-08
-7.40579e-08
1.01997e-07
-6.49923e-08
1.22533e-07
-5.58273e-08
1.40278e-07
-4.66765e-08
1.55229e-07
-3.76492e-08
1.67419e-07
-2.88483e-08
1.76908e-07
-2.0368e-08
1.83783e-07
-1.2292e-08
1.8816e-07
-4.69247e-09
1.90173e-07
2.37138e-09
1.89979e-07
8.85383e-09
1.87745e-07
1.47227e-08
1.83655e-07
1.99591e-08
1.77897e-07
2.45571e-08
1.70664e-07
2.85218e-08
1.62149e-07
3.18682e-08
1.52546e-07
3.46186e-08
1.42041e-07
3.68005e-08
1.30818e-07
3.84429e-08
1.19056e-07
3.95732e-08
1.06926e-07
4.02135e-08
9.45982e-08
4.03766e-08
8.22427e-08
4.00622e-08
7.00312e-08
3.9254e-08
5.8142e-08
3.79174e-08
4.67633e-08
3.59999e-08
3.60954e-08
3.3434e-08
2.63527e-08
3.01456e-08
1.77629e-08
2.60701e-08
1.05658e-08
2.1179e-08
5.01389e-09
1.55189e-08
1.38029e-09
9.26663e-09
2.85401e-09
9.80773e-10
-3.44627e-09
3.30311e-09
-8.98992e-09
6.5126e-09
-1.31489e-08
1.02477e-08
-1.59615e-08
1.42038e-08
-1.75233e-08
1.81198e-08
-1.79647e-08
2.1772e-08
-1.74343e-08
2.49703e-08
-1.60855e-08
2.75559e-08
-1.40676e-08
2.93987e-08
-1.1519e-08
3.03948e-08
-8.56403e-09
3.04632e-08
-5.31018e-09
2.95422e-08
-1.84733e-09
2.7586e-08
1.75254e-09
2.45612e-08
5.43489e-09
2.04429e-08
9.1617e-09
1.52118e-08
1.291e-08
8.85122e-09
1.66699e-08
1.34482e-09
2.04429e-08
-7.32541e-09
2.42389e-08
-1.71803e-08
2.80743e-08
-2.82442e-08
3.19693e-08
-4.0545e-08
3.59452e-08
-5.41139e-08
4.00229e-08
-6.89839e-08
4.42201e-08
-8.51893e-08
4.85506e-08
-1.02763e-07
5.30224e-08
-1.21737e-07
5.76373e-08
-1.42136e-07
6.23901e-08
-1.63981e-07
6.72689e-08
-1.87284e-07
7.22544e-08
-2.12045e-07
7.7321e-08
-2.38254e-07
8.24368e-08
-2.65889e-07
8.75638e-08
-2.9491e-07
9.26592e-08
-3.25264e-07
9.7675e-08
-3.56881e-07
1.0256e-07
-3.89674e-07
1.07258e-07
-4.23539e-07
1.11713e-07
-4.58355e-07
1.15864e-07
-4.93985e-07
1.19652e-07
-5.30275e-07
1.23014e-07
-5.67057e-07
1.25893e-07
-6.0415e-07
1.28229e-07
-6.4136e-07
1.29967e-07
-6.78482e-07
1.31055e-07
-7.15307e-07
1.31446e-07
-7.51615e-07
1.31097e-07
-7.87186e-07
1.29973e-07
-8.21796e-07
1.28042e-07
-8.55223e-07
1.25282e-07
-8.87248e-07
1.21677e-07
-9.17657e-07
1.1722e-07
-9.46243e-07
1.1191e-07
-9.72807e-07
1.05755e-07
-9.97161e-07
9.8769e-08
-1.01913e-06
9.09758e-08
-1.03855e-06
8.24054e-08
-1.05527e-06
7.30951e-08
-1.06915e-06
6.30893e-08
-1.08009e-06
5.24388e-08
-1.08798e-06
4.12009e-08
-1.09273e-06
2.94387e-08
-1.09428e-06
1.72214e-08
-1.09257e-06
4.62517e-09
-1.08758e-06
-8.2757e-09
-1.07929e-06
-2.13971e-08
-1.06771e-06
-3.46478e-08
-1.05286e-06
-4.79363e-08
-1.03479e-06
-6.11679e-08
-1.01355e-06
-7.42445e-08
-9.89227e-07
-8.70657e-08
-9.61924e-07
-9.95297e-08
-9.31756e-07
-1.11534e-07
-8.98864e-07
-1.22975e-07
-8.63405e-07
-1.33751e-07
-8.25554e-07
-1.43764e-07
-7.85508e-07
-1.52916e-07
-7.43478e-07
-1.61116e-07
-6.99694e-07
-1.6828e-07
-6.54402e-07
-1.74329e-07
-6.07861e-07
-1.79195e-07
-5.60346e-07
-1.82819e-07
-5.1214e-07
-1.85156e-07
-4.63536e-07
-1.86174e-07
-4.14835e-07
-1.85854e-07
-3.6634e-07
-1.84195e-07
-3.18356e-07
-1.8121e-07
-2.71183e-07
-1.76932e-07
-2.25119e-07
-1.71408e-07
-1.8045e-07
-1.64706e-07
-1.37449e-07
-1.56905e-07
-9.63743e-08
-1.48105e-07
-5.74625e-08
-1.38416e-07
-2.09282e-08
-1.27962e-07
1.30403e-08
-1.16877e-07
4.42832e-08
-1.05301e-07
7.2671e-08
-9.33802e-08
9.81071e-08
-8.12633e-08
1.20528e-07
-6.9097e-08
1.39903e-07
-5.70245e-08
1.56236e-07
-4.5182e-08
1.69565e-07
-3.36967e-08
1.79957e-07
-2.26835e-08
1.87508e-07
-1.22438e-08
1.92343e-07
-2.4634e-09
1.94608e-07
6.58846e-09
1.94471e-07
1.48596e-08
1.92115e-07
2.23149e-08
1.87737e-07
2.89357e-08
1.8154e-07
3.47184e-08
1.73735e-07
3.96729e-08
1.64535e-07
4.38193e-08
1.5415e-07
4.71855e-08
1.4279e-07
4.98029e-08
1.30661e-07
5.1702e-08
1.17966e-07
5.29084e-08
1.04906e-07
5.34371e-08
9.16794e-08
5.32884e-08
7.84891e-08
5.24442e-08
6.55415e-08
5.0865e-08
5.30515e-08
4.84899e-08
4.12454e-08
4.52402e-08
3.03636e-08
4.10274e-08
2.06645e-08
3.57692e-08
1.24299e-08
2.94137e-08
5.97504e-09
2.19737e-08
1.67103e-09
1.35706e-08
4.52504e-09
9.97406e-10
-4.44365e-09
3.34068e-09
-1.13332e-08
6.53583e-09
-1.63441e-08
1.01879e-08
-1.96136e-08
1.39691e-08
-2.13044e-08
1.76032e-08
-2.15989e-08
2.08572e-08
-2.06882e-08
2.35343e-08
-1.87627e-08
2.54706e-08
-1.60038e-08
2.65308e-08
-1.25792e-08
2.66056e-08
-8.63879e-09
2.56077e-08
-4.31227e-09
2.34687e-08
2.91698e-10
2.01353e-08
5.08593e-09
1.55659e-08
1.00042e-08
9.72747e-09
1.50002e-08
2.59191e-09
2.00455e-08
-5.86605e-09
2.51279e-08
-1.56713e-08
3.02482e-08
-2.68501e-08
3.54177e-08
-3.94308e-08
4.0655e-08
-5.34442e-08
4.59828e-08
-6.8924e-08
5.14249e-08
-8.59049e-08
5.70038e-08
-1.04423e-07
6.27377e-08
-1.24511e-07
6.86389e-08
-1.46201e-07
7.47124e-08
-1.69518e-07
8.09546e-08
-1.94481e-07
8.73529e-08
-2.21098e-07
9.38858e-08
-2.49366e-07
1.00522e-07
-2.79269e-07
1.07224e-07
-3.10775e-07
1.13943e-07
-3.43835e-07
1.20625e-07
-3.78385e-07
1.27209e-07
-4.1434e-07
1.3363e-07
-4.51596e-07
1.39816e-07
-4.90032e-07
1.45694e-07
-5.29506e-07
1.51188e-07
-5.69862e-07
1.56219e-07
-6.10922e-07
1.60712e-07
-6.52496e-07
1.64589e-07
-6.9438e-07
1.67777e-07
-7.36358e-07
1.70207e-07
-7.78205e-07
1.71814e-07
-8.19688e-07
1.72538e-07
-8.60571e-07
1.72329e-07
-9.00616e-07
1.71142e-07
-9.39584e-07
1.68941e-07
-9.77241e-07
1.65699e-07
-1.01336e-06
1.61399e-07
-1.04771e-06
1.56032e-07
-1.08009e-06
1.49601e-07
-1.1103e-06
1.42115e-07
-1.13814e-06
1.33595e-07
-1.16344e-06
1.24069e-07
-1.18604e-06
1.13574e-07
-1.20579e-06
1.02156e-07
-1.22256e-06
8.9868e-08
-1.23624e-06
7.67693e-08
-1.24673e-06
6.29271e-08
-1.25394e-06
4.8415e-08
-1.25782e-06
3.33123e-08
-1.2583e-06
1.7704e-08
-1.25536e-06
1.68481e-09
-1.24897e-06
-1.4662e-08
-1.23914e-06
-3.12264e-08
-1.22589e-06
-4.79063e-08
-1.20923e-06
-6.45934e-08
-1.18922e-06
-8.11762e-08
-1.16593e-06
-9.75396e-08
-1.13942e-06
-1.13566e-07
-1.10982e-06
-1.29137e-07
-1.07722e-06
-1.44132e-07
-1.04176e-06
-1.5843e-07
-1.0036e-06
-1.71911e-07
-9.6291e-07
-1.84458e-07
-9.19869e-07
-1.95956e-07
-8.74688e-07
-2.06298e-07
-8.2759e-07
-2.15378e-07
-7.78814e-07
-2.23105e-07
-7.28617e-07
-2.29391e-07
-6.7727e-07
-2.34167e-07
-6.25056e-07
-2.37371e-07
-5.72269e-07
-2.38961e-07
-5.19214e-07
-2.38909e-07
-4.66201e-07
-2.37208e-07
-4.13543e-07
-2.33868e-07
-3.61555e-07
-2.2892e-07
-3.10548e-07
-2.22416e-07
-2.60826e-07
-2.14428e-07
-2.12684e-07
-2.05048e-07
-1.66402e-07
-1.94387e-07
-1.22244e-07
-1.82574e-07
-8.04524e-08
-1.69754e-07
-4.12444e-08
-1.56085e-07
-4.81129e-09
-1.41734e-07
2.86862e-08
-1.26878e-07
5.91186e-08
-1.11696e-07
8.63904e-08
-9.63688e-08
1.1044e-07
-8.10743e-08
1.31242e-07
-6.59837e-08
1.48804e-07
-5.12584e-08
1.63168e-07
-3.70474e-08
1.74408e-07
-2.34843e-08
1.8263e-07
-1.0685e-08
1.87965e-07
1.25345e-09
1.90569e-07
1.2255e-08
1.90621e-07
2.2263e-08
1.88315e-07
3.12417e-08
1.8386e-07
3.91739e-08
1.77473e-07
4.60595e-08
1.6938e-07
5.19123e-08
1.59809e-07
5.67565e-08
1.4899e-07
6.06223e-08
1.37151e-07
6.35408e-08
1.24521e-07
6.55387e-08
1.11326e-07
6.66321e-08
9.77927e-08
6.68216e-08
8.41499e-08
6.6087e-08
7.06301e-08
6.43848e-08
5.74735e-08
6.16465e-08
4.49316e-08
5.77822e-08
3.32717e-08
5.26873e-08
2.27842e-08
4.62567e-08
1.3793e-08
3.8405e-08
6.67269e-09
2.9094e-08
1.87753e-09
1.83658e-08
6.40257e-09
9.69804e-10
-5.41346e-09
3.22305e-09
-1.35864e-08
6.24577e-09
-1.93668e-08
9.62334e-09
-2.29912e-08
1.30135e-08
-2.46945e-08
1.61311e-08
-2.47165e-08
1.87377e-08
-2.32949e-08
2.06339e-08
-2.06589e-08
2.16534e-08
-1.70233e-08
2.16587e-08
-1.25846e-08
2.05373e-08
-7.51734e-09
1.81976e-08
-1.97263e-09
1.4566e-08
3.92336e-09
9.58254e-09
1.00694e-08
3.1984e-09
1.63884e-08
-4.62775e-09
2.28263e-08
-1.39323e-08
2.93501e-08
-2.47494e-08
3.59449e-08
-3.71123e-08
4.26111e-08
-5.10551e-08
4.93605e-08
-6.66132e-08
5.62131e-08
-8.38235e-08
6.3193e-08
-1.02723e-07
7.03249e-08
-1.2335e-07
7.76304e-08
-1.45738e-07
8.51261e-08
-1.6992e-07
9.282e-08
-1.95918e-07
1.00711e-07
-2.2375e-07
1.08787e-07
-2.53422e-07
1.17024e-07
-2.84924e-07
1.25388e-07
-3.18235e-07
1.33833e-07
-3.53313e-07
1.42302e-07
-3.90101e-07
1.50731e-07
-4.28521e-07
1.59044e-07
-4.68474e-07
1.67162e-07
-5.09841e-07
1.74997e-07
-5.52482e-07
1.82457e-07
-5.96239e-07
1.89451e-07
-6.40932e-07
1.95881e-07
-6.86367e-07
2.01654e-07
-7.32332e-07
2.06676e-07
-7.78602e-07
2.10859e-07
-8.24943e-07
2.14118e-07
-8.71111e-07
2.16375e-07
-9.16858e-07
2.17561e-07
-9.61934e-07
2.17614e-07
-1.00609e-06
2.16482e-07
-1.04907e-06
2.14125e-07
-1.09064e-06
2.10513e-07
-1.13057e-06
2.05627e-07
-1.16863e-06
1.99459e-07
-1.20461e-06
1.92012e-07
-1.23831e-06
1.83302e-07
-1.26955e-06
1.73352e-07
-1.29815e-06
1.62197e-07
-1.32396e-06
1.49882e-07
-1.34684e-06
1.36457e-07
-1.36667e-06
1.21986e-07
-1.38334e-06
1.06534e-07
-1.39675e-06
9.01786e-08
-1.40682e-06
7.30002e-08
-1.41349e-06
5.50869e-08
-1.41671e-06
3.6532e-08
-1.41644e-06
1.74345e-08
-1.41266e-06
-2.0982e-09
-1.40536e-06
-2.1968e-08
-1.39453e-06
-4.20516e-08
-1.3802e-06
-6.2234e-08
-1.3624e-06
-8.23933e-08
-1.34118e-06
-1.02404e-07
-1.31658e-06
-1.22136e-07
-1.28869e-06
-1.41457e-07
-1.25759e-06
-1.60233e-07
-1.2234e-06
-1.78328e-07
-1.18622e-06
-1.95603e-07
-1.14621e-06
-2.11923e-07
-1.10352e-06
-2.27151e-07
-1.05832e-06
-2.41156e-07
-1.01081e-06
-2.5381e-07
-9.61193e-07
-2.64992e-07
-9.09708e-07
-2.7459e-07
-8.56598e-07
-2.82501e-07
-8.02129e-07
-2.88636e-07
-7.46578e-07
-2.92922e-07
-6.90239e-07
-2.95299e-07
-6.33417e-07
-2.95731e-07
-5.76427e-07
-2.94198e-07
-5.19589e-07
-2.90706e-07
-4.63228e-07
-2.85281e-07
-4.0767e-07
-2.77974e-07
-3.53235e-07
-2.68862e-07
-3.00239e-07
-2.58044e-07
-2.48984e-07
-2.45642e-07
-1.99758e-07
-2.318e-07
-1.52832e-07
-2.16681e-07
-1.08452e-07
-2.00465e-07
-6.6839e-08
-1.83347e-07
-2.81865e-08
-1.6553e-07
7.34448e-09
-1.47227e-07
3.96258e-08
-1.2865e-07
6.8564e-08
-1.10013e-07
9.41014e-08
-9.15212e-08
1.16216e-07
-7.33735e-08
1.34923e-07
-5.5754e-08
1.5027e-07
-3.88309e-08
1.62338e-07
-2.27533e-08
1.7124e-07
-7.649e-09
1.77118e-07
6.37738e-09
1.80137e-07
1.92445e-08
1.80484e-07
3.08946e-08
1.78365e-07
4.12925e-08
1.74001e-07
5.04234e-08
1.67623e-07
5.82902e-08
1.5947e-07
6.49093e-08
1.49787e-07
7.03061e-08
1.38819e-07
7.45087e-08
1.26815e-07
7.75425e-08
1.14024e-07
7.94228e-08
1.00697e-07
8.01491e-08
8.70845e-08
7.96991e-08
7.34448e-08
7.80245e-08
6.00417e-08
7.50496e-08
4.71515e-08
7.06723e-08
3.50688e-08
6.477e-08
2.41155e-08
5.721e-08
1.46547e-08
4.78657e-08
7.11182e-09
3.66368e-08
2.00479e-09
2.34728e-08
8.40736e-09
9.05011e-10
-6.31849e-09
2.96991e-09
-1.56513e-08
5.67572e-09
-2.20726e-08
8.60065e-09
-2.59161e-08
1.13972e-08
-2.7491e-08
1.37777e-08
-2.7097e-08
1.55034e-08
-2.50206e-08
1.63754e-08
-2.15309e-08
1.62283e-08
-1.68762e-08
1.49246e-08
-1.12809e-08
1.23507e-08
-4.94335e-09
8.41222e-09
1.96582e-09
3.03129e-09
9.30429e-09
-3.85741e-09
1.69581e-08
-1.23096e-08
2.48405e-08
-2.23741e-08
3.28908e-08
-3.40955e-08
4.10715e-08
-4.7516e-08
4.93655e-08
-6.2677e-08
5.7772e-08
-7.96197e-08
6.63032e-08
-9.83854e-08
7.49789e-08
-1.19015e-07
8.38229e-08
-1.41549e-07
9.28585e-08
-1.66023e-07
1.02104e-07
-1.92469e-07
1.11572e-07
-2.2091e-07
1.21262e-07
-2.51362e-07
1.31163e-07
-2.83827e-07
1.41251e-07
-3.18291e-07
1.51489e-07
-3.54726e-07
1.61823e-07
-3.93083e-07
1.7219e-07
-4.33293e-07
1.82512e-07
-4.75266e-07
1.92704e-07
-5.1889e-07
2.02668e-07
-5.64031e-07
2.12303e-07
-6.10532e-07
2.21498e-07
-6.58217e-07
2.30142e-07
-7.06889e-07
2.38122e-07
-7.56333e-07
2.45326e-07
-8.06322e-07
2.51642e-07
-8.56612e-07
2.56967e-07
-9.06953e-07
2.612e-07
-9.57087e-07
2.64252e-07
-1.00675e-06
2.66041e-07
-1.05569e-06
2.66498e-07
-1.10364e-06
2.65564e-07
-1.15035e-06
2.63193e-07
-1.19558e-06
2.59353e-07
-1.23909e-06
2.54024e-07
-1.28066e-06
2.47201e-07
-1.32009e-06
2.38888e-07
-1.35718e-06
2.29103e-07
-1.39176e-06
2.17878e-07
-1.42366e-06
2.05251e-07
-1.45273e-06
1.91272e-07
-1.47885e-06
1.76001e-07
-1.5019e-06
1.59506e-07
-1.52178e-06
1.41861e-07
-1.53839e-06
1.23147e-07
-1.55166e-06
1.03453e-07
-1.56154e-06
8.28738e-08
-1.56796e-06
6.15076e-08
-1.57089e-06
3.94594e-08
-1.57029e-06
1.6839e-08
-1.56615e-06
-6.2383e-09
-1.55846e-06
-2.96576e-08
-1.54722e-06
-5.32907e-08
-1.53245e-06
-7.70102e-08
-1.51416e-06
-1.00683e-07
-1.49239e-06
-1.24172e-07
-1.46719e-06
-1.47335e-07
-1.43862e-06
-1.70027e-07
-1.40675e-06
-1.92099e-07
-1.37168e-06
-2.134e-07
-1.33351e-06
-2.33778e-07
-1.29235e-06
-2.53077e-07
-1.24836e-06
-2.71146e-07
-1.20168e-06
-2.87834e-07
-1.15249e-06
-3.02995e-07
-1.101e-06
-3.16487e-07
-1.04741e-06
-3.28179e-07
-9.91961e-07
-3.37949e-07
-9.34909e-07
-3.45688e-07
-8.76525e-07
-3.51305e-07
-8.171e-07
-3.54725e-07
-7.56937e-07
-3.55894e-07
-6.96354e-07
-3.54781e-07
-6.3568e-07
-3.51381e-07
-5.75248e-07
-3.45713e-07
-5.15397e-07
-3.37825e-07
-4.56466e-07
-3.27793e-07
-3.9879e-07
-3.1572e-07
-3.42694e-07
-3.01738e-07
-2.88492e-07
-2.86001e-07
-2.36482e-07
-2.68691e-07
-1.8694e-07
-2.50007e-07
-1.40119e-07
-2.30168e-07
-9.6242e-08
-2.09407e-07
-5.55043e-08
-1.87964e-07
-1.80661e-08
-1.66088e-07
1.59467e-08
-1.44025e-07
4.6445e-08
-1.22019e-07
7.33763e-08
-1.00305e-07
9.67255e-08
-7.91032e-08
1.16514e-07
-5.86196e-08
1.32799e-07
-3.90383e-08
1.45671e-07
-2.05207e-08
1.55252e-07
-3.20338e-09
1.61692e-07
1.2804e-08
1.65169e-07
2.74179e-08
1.6588e-07
4.05807e-08
1.64045e-07
5.22591e-08
1.59894e-07
6.24405e-08
1.53674e-07
7.11295e-08
1.45638e-07
7.83424e-08
1.36045e-07
8.41014e-08
1.25161e-07
8.84272e-08
1.13251e-07
9.1332e-08
1.00588e-07
9.28126e-08
8.7444e-08
9.28431e-08
7.40985e-08
9.137e-08
6.0839e-08
8.83091e-08
4.79659e-08
8.35454e-08
3.58e-08
7.69359e-08
2.46925e-08
6.83175e-08
1.50408e-08
5.75174e-08
7.30954e-09
4.43681e-08
2.06014e-09
2.87222e-08
1.04675e-08
8.07612e-10
-7.12611e-09
2.59537e-09
-1.74391e-08
4.8512e-09
-2.43284e-08
7.15727e-09
-2.82222e-08
9.1698e-09
-2.95035e-08
1.06056e-08
-2.85328e-08
1.12305e-08
-2.56455e-08
1.08501e-08
-2.11506e-08
9.3028e-09
-1.53288e-08
6.45321e-09
-8.4313e-09
2.18804e-09
-6.7818e-10
-3.58817e-09
7.74204e-09
-1.09566e-08
1.66728e-08
-1.99874e-08
2.59888e-08
-3.07422e-08
3.55953e-08
-4.32769e-08
4.54255e-08
-5.76435e-08
5.54381e-08
-7.38917e-08
6.56136e-08
-9.20696e-08
7.595e-08