/*--------------------------------*- C++ -*----------------------------------*\
| =========                 |                                                 |
| \\      /  F ield         | OpenFOAM: The Open Source CFD Toolbox           |
|  \\    /   O peration     | Version:  2112                                  |
|   \\  /    A nd           | Website:  www.openfoam.com                      |
|    \\/     M anipulation  |                                                 |
\*---------------------------------------------------------------------------*/
FoamFile
{
    version     2.0;
    format      ascii;
    arch        "LSB;label=32;scalar=64";
    class       volVectorField;
    location    "3";
    object      U;
}
// * * * * * * * * * * * * * * * * * * * * * * * * * * * * * * * * * * * * * //

dimensions      [0 1 -1 0 0 0 0];

internalField   nonuniform List<vector> 
16641
(
(2.17721e-06 -2.17225e-06 0)
(5.2683e-06 -1.78785e-06 0)
(4.36333e-06 8.48988e-08 0)
(-2.38048e-06 2.15449e-06 0)
(-1.5015e-05 4.06636e-06 0)
(-3.29081e-05 5.68343e-06 0)
(-5.53488e-05 7.00111e-06 0)
(-8.16049e-05 8.05605e-06 0)
(-0.000111001 8.88977e-06 0)
(-0.000142943 9.54012e-06 0)
(-0.00017692 1.00398e-05 0)
(-0.000212495 1.04166e-05 0)
(-0.000249302 1.06935e-05 0)
(-0.000287038 1.089e-05 0)
(-0.000325448 1.10222e-05 0)
(-0.000364329 1.11038e-05 0)
(-0.000403513 1.11456e-05 0)
(-0.000442869 1.1157e-05 0)
(-0.000482293 1.11452e-05 0)
(-0.000521702 1.11164e-05 0)
(-0.000561033 1.10751e-05 0)
(-0.00060024 1.10246e-05 0)
(-0.000639284 1.09677e-05 0)
(-0.000678137 1.0906e-05 0)
(-0.000716779 1.08407e-05 0)
(-0.00075519 1.07726e-05 0)
(-0.000793356 1.0702e-05 0)
(-0.000831263 1.06291e-05 0)
(-0.000868898 1.05535e-05 0)
(-0.000906248 1.04749e-05 0)
(-0.0009433 1.03931e-05 0)
(-0.000980039 1.03075e-05 0)
(-0.00101645 1.02179e-05 0)
(-0.00105251 1.01237e-05 0)
(-0.00108822 1.00243e-05 0)
(-0.00112353 9.91933e-06 0)
(-0.00115845 9.80828e-06 0)
(-0.00119293 9.69081e-06 0)
(-0.00122697 9.56649e-06 0)
(-0.00126053 9.43486e-06 0)
(-0.00129359 9.29551e-06 0)
(-0.00132612 9.14807e-06 0)
(-0.00135809 8.9922e-06 0)
(-0.00138948 8.82755e-06 0)
(-0.00142024 8.65373e-06 0)
(-0.00145035 8.47036e-06 0)
(-0.00147978 8.27712e-06 0)
(-0.00150849 8.07371e-06 0)
(-0.00153645 7.85987e-06 0)
(-0.00156361 7.63533e-06 0)
(-0.00158995 7.39979e-06 0)
(-0.00161542 7.15296e-06 0)
(-0.00163999 6.89458e-06 0)
(-0.00166362 6.62447e-06 0)
(-0.00168626 6.3425e-06 0)
(-0.00170787 6.04852e-06 0)
(-0.00172843 5.74239e-06 0)
(-0.00174787 5.42396e-06 0)
(-0.00176617 5.09312e-06 0)
(-0.00178328 4.74987e-06 0)
(-0.00179915 4.39425e-06 0)
(-0.00181375 4.02637e-06 0)
(-0.00182704 3.64627e-06 0)
(-0.00183898 3.25407e-06 0)
(-0.00184952 2.84993e-06 0)
(-0.00185862 2.43413e-06 0)
(-0.00186625 2.00701e-06 0)
(-0.00187238 1.56893e-06 0)
(-0.00187695 1.12026e-06 0)
(-0.00187995 6.6143e-07 0)
(-0.00188133 1.92953e-07 0)
(-0.00188106 -2.84495e-07 0)
(-0.00187912 -7.70401e-07 0)
(-0.00187548 -1.26401e-06 0)
(-0.00187012 -1.76456e-06 0)
(-0.001863 -2.27127e-06 0)
(-0.00185412 -2.78331e-06 0)
(-0.00184346 -3.29979e-06 0)
(-0.001831 -3.81975e-06 0)
(-0.00181673 -4.34216e-06 0)
(-0.00180065 -4.86594e-06 0)
(-0.00178275 -5.39003e-06 0)
(-0.00176304 -5.91337e-06 0)
(-0.00174152 -6.43487e-06 0)
(-0.00171819 -6.95339e-06 0)
(-0.00169306 -7.4677e-06 0)
(-0.00166616 -7.97662e-06 0)
(-0.00163751 -8.47898e-06 0)
(-0.00160711 -8.97368e-06 0)
(-0.00157501 -9.4596e-06 0)
(-0.00154123 -9.93559e-06 0)
(-0.00150581 -1.04005e-05 0)
(-0.00146879 -1.08532e-05 0)
(-0.0014302 -1.12927e-05 0)
(-0.0013901 -1.17179e-05 0)
(-0.00134852 -1.21279e-05 0)
(-0.00130554 -1.25215e-05 0)
(-0.0012612 -1.28978e-05 0)
(-0.00121555 -1.32557e-05 0)
(-0.00116868 -1.35941e-05 0)
(-0.00112064 -1.39117e-05 0)
(-0.00107151 -1.42073e-05 0)
(-0.00102137 -1.44792e-05 0)
(-0.000970309 -1.47258e-05 0)
(-0.000918409 -1.4945e-05 0)
(-0.000865777 -1.51342e-05 0)
(-0.000812523 -1.52905e-05 0)
(-0.00075877 -1.54104e-05 0)
(-0.000704656 -1.54898e-05 0)
(-0.000650332 -1.55237e-05 0)
(-0.000595971 -1.55062e-05 0)
(-0.000541769 -1.54305e-05 0)
(-0.000487943 -1.52887e-05 0)
(-0.000434744 -1.50715e-05 0)
(-0.000382453 -1.47681e-05 0)
(-0.000331391 -1.43664e-05 0)
(-0.000281917 -1.38522e-05 0)
(-0.00023444 -1.32091e-05 0)
(-0.00018942 -1.24184e-05 0)
(-0.00014737 -1.14587e-05 0)
(-0.000108864 -1.03054e-05 0)
(-7.45329e-05 -8.93099e-06 0)
(-4.50654e-05 -7.30618e-06 0)
(-2.11787e-05 -5.40573e-06 0)
(-3.56039e-06 -3.2304e-06 0)
(7.16498e-06 -8.59224e-07 0)
(1.07809e-05 1.522e-06 0)
(8.20277e-06 3.24661e-06 0)
(2.78671e-06 2.79163e-06 0)
(1.80767e-06 -5.28172e-06 0)
(9.22473e-07 -9.03043e-07 0)
(-1.07134e-05 8.81519e-06 0)
(-3.54063e-05 1.96738e-05 0)
(-7.34648e-05 3.01008e-05 0)
(-0.000124072 3.94077e-05 0)
(-0.000185916 4.73974e-05 0)
(-0.000257506 5.40957e-05 0)
(-0.000337359 5.96123e-05 0)
(-0.000424091 6.4084e-05 0)
(-0.000516452 6.76513e-05 0)
(-0.000613341 7.0447e-05 0)
(-0.000713804 7.25923e-05 0)
(-0.000817026 7.41951e-05 0)
(-0.000922322 7.53504e-05 0)
(-0.00102912 7.61405e-05 0)
(-0.00113694 7.6636e-05 0)
(-0.00124541 7.68963e-05 0)
(-0.00135422 7.69711e-05 0)
(-0.00146311 7.6901e-05 0)
(-0.00157189 7.67187e-05 0)
(-0.00168041 7.64501e-05 0)
(-0.00178854 7.61149e-05 0)
(-0.00189618 7.57277e-05 0)
(-0.00200327 7.52991e-05 0)
(-0.00210974 7.48364e-05 0)
(-0.00221552 7.43439e-05 0)
(-0.00232059 7.38241e-05 0)
(-0.00242488 7.32778e-05 0)
(-0.00252836 7.27045e-05 0)
(-0.00263098 7.21028e-05 0)
(-0.0027327 7.14711e-05 0)
(-0.00283347 7.08073e-05 0)
(-0.00293325 7.01088e-05 0)
(-0.00303197 6.9373e-05 0)
(-0.00312959 6.85974e-05 0)
(-0.00322604 6.77792e-05 0)
(-0.00332126 6.6916e-05 0)
(-0.00341519 6.60053e-05 0)
(-0.00350776 6.50446e-05 0)
(-0.00359889 6.40313e-05 0)
(-0.00368851 6.29632e-05 0)
(-0.00377654 6.18379e-05 0)
(-0.00386291 6.06532e-05 0)
(-0.00394751 5.9407e-05 0)
(-0.00403028 5.8097e-05 0)
(-0.00411111 5.67213e-05 0)
(-0.00418992 5.5278e-05 0)
(-0.00426661 5.37651e-05 0)
(-0.00434108 5.21811e-05 0)
(-0.00441324 5.05242e-05 0)
(-0.00448298 4.87929e-05 0)
(-0.00455019 4.69858e-05 0)
(-0.00461478 4.51016e-05 0)
(-0.00467664 4.31393e-05 0)
(-0.00473565 4.1098e-05 0)
(-0.00479171 3.8977e-05 0)
(-0.00484471 3.67756e-05 0)
(-0.00489453 3.44936e-05 0)
(-0.00494108 3.21308e-05 0)
(-0.00498423 2.96874e-05 0)
(-0.00502388 2.7164e-05 0)
(-0.00505991 2.45612e-05 0)
(-0.00509223 2.18801e-05 0)
(-0.00512072 1.9122e-05 0)
(-0.00514528 1.62885e-05 0)
(-0.00516581 1.33815e-05 0)
(-0.00518221 1.04035e-05 0)
(-0.00519439 7.35706e-06 0)
(-0.00520225 4.24518e-06 0)
(-0.00520571 1.07125e-06 0)
(-0.00520468 -2.16098e-06 0)
(-0.0051991 -5.4475e-06 0)
(-0.00518888 -8.78385e-06 0)
(-0.00517396 -1.21652e-05 0)
(-0.00515429 -1.55864e-05 0)
(-0.00512982 -1.90421e-05 0)
(-0.00510049 -2.25264e-05 0)
(-0.00506629 -2.60333e-05 0)
(-0.00502717 -2.95566e-05 0)
(-0.00498313 -3.30895e-05 0)
(-0.00493416 -3.66252e-05 0)
(-0.00488025 -4.01567e-05 0)
(-0.00482141 -4.3677e-05 0)
(-0.00475767 -4.71786e-05 0)
(-0.00468905 -5.06544e-05 0)
(-0.0046156 -5.40966e-05 0)
(-0.00453736 -5.7498e-05 0)
(-0.0044544 -6.0851e-05 0)
(-0.00436679 -6.41482e-05 0)
(-0.0042746 -6.73824e-05 0)
(-0.00417793 -7.05463e-05 0)
(-0.00407687 -7.36325e-05 0)
(-0.00397154 -7.66341e-05 0)
(-0.00386206 -7.95438e-05 0)
(-0.00374856 -8.23548e-05 0)
(-0.00363118 -8.50597e-05 0)
(-0.00351006 -8.76512e-05 0)
(-0.00338537 -9.01216e-05 0)
(-0.00325729 -9.24625e-05 0)
(-0.00312599 -9.46648e-05 0)
(-0.00299169 -9.67185e-05 0)
(-0.00285458 -9.8612e-05 0)
(-0.00271491 -0.000100332 0)
(-0.00257294 -0.000101863 0)
(-0.00242893 -0.000103187 0)
(-0.0022832 -0.000104282 0)
(-0.00213608 -0.000105123 0)
(-0.00198796 -0.00010568 0)
(-0.00183927 -0.000105919 0)
(-0.00169047 -0.000105799 0)
(-0.00154212 -0.000105275 0)
(-0.0013948 -0.000104292 0)
(-0.00124922 -0.000102791 0)
(-0.00110613 -0.000100704 0)
(-0.000966414 -9.79532e-05 0)
(-0.000831032 -9.44557e-05 0)
(-0.000701072 -9.01188e-05 0)
(-0.000577736 -8.48428e-05 0)
(-0.000462344 -7.85236e-05 0)
(-0.000356331 -7.10566e-05 0)
(-0.000261225 -6.23475e-05 0)
(-0.000178608 -5.23313e-05 0)
(-0.000110026 -4.10151e-05 0)
(-5.68375e-05 -2.8571e-05 0)
(-1.9972e-05 -1.55211e-05 0)
(5.5668e-07 -2.96163e-06 0)
(6.6246e-06 6.65005e-06 0)
(3.21797e-06 8.18032e-06 0)
(-6.77763e-08 -4.39867e-06 0)
(-8.84381e-06 1.07327e-05 0)
(-3.54737e-05 3.53487e-05 0)
(-8.07478e-05 6.24523e-05 0)
(-0.000144658 8.8829e-05 0)
(-0.000226299 0.000112908 0)
(-0.00032407 0.000134057 0)
(-0.00043607 0.000152156 0)
(-0.00056034 0.000167339 0)
(-0.000694988 0.000179857 0)
(-0.00083826 0.000190005 0)
(-0.000988572 0.000198088 0)
(-0.00114453 0.000204396 0)
(-0.00130491 0.000209201 0)
(-0.00146867 0.000212745 0)
(-0.00163494 0.000215247 0)
(-0.00180298 0.000216894 0)
(-0.00197217 0.00021785 0)
(-0.00214203 0.00021825 0)
(-0.00231214 0.000218209 0)
(-0.00248217 0.00021782 0)
(-0.00265188 0.000217157 0)
(-0.00282104 0.000216278 0)
(-0.00298949 0.000215228 0)
(-0.00315709 0.000214039 0)
(-0.00332372 0.000212734 0)
(-0.00348929 0.000211329 0)
(-0.00365372 0.000209832 0)
(-0.00381692 0.000208248 0)
(-0.00397881 0.000206579 0)
(-0.00413933 0.000204821 0)
(-0.00429839 0.000202972 0)
(-0.00445592 0.000201027 0)
(-0.00461184 0.00019898 0)
(-0.00476606 0.000196824 0)
(-0.00491849 0.000194553 0)
(-0.00506904 0.00019216 0)
(-0.00521762 0.000189639 0)
(-0.00536411 0.000186983 0)
(-0.0055084 0.000184185 0)
(-0.0056504 0.000181239 0)
(-0.00578997 0.000178139 0)
(-0.005927 0.000174878 0)
(-0.00606137 0.000171451 0)
(-0.00619293 0.000167851 0)
(-0.00632157 0.000164073 0)
(-0.00644713 0.000160112 0)
(-0.00656948 0.000155963 0)
(-0.00668848 0.00015162 0)
(-0.00680396 0.000147079 0)
(-0.00691579 0.000142336 0)
(-0.0070238 0.000137387 0)
(-0.00712784 0.000132227 0)
(-0.00722774 0.000126854 0)
(-0.00732335 0.000121266 0)
(-0.0074145 0.000115458 0)
(-0.00750102 0.000109431 0)
(-0.00758275 0.000103182 0)
(-0.00765952 9.67111e-05 0)
(-0.00773116 9.00178e-05 0)
(-0.00779751 8.31029e-05 0)
(-0.0078584 7.59679e-05 0)
(-0.00791366 6.86149e-05 0)
(-0.00796313 6.10469e-05 0)
(-0.00800666 5.32676e-05 0)
(-0.00804409 4.52817e-05 0)
(-0.00807526 3.70945e-05 0)
(-0.00810003 2.87127e-05 0)
(-0.00811824 2.01436e-05 0)
(-0.00812978 1.13956e-05 0)
(-0.0081345 2.47782e-06 0)
(-0.00813229 -6.59943e-06 0)
(-0.00812303 -1.58249e-05 0)
(-0.0081066 -2.51864e-05 0)
(-0.00808293 -3.46708e-05 0)
(-0.00805192 -4.42641e-05 0)
(-0.00801349 -5.39515e-05 0)
(-0.00796759 -6.3717e-05 0)
(-0.00791416 -7.35444e-05 0)
(-0.00785316 -8.34162e-05 0)
(-0.00778456 -9.33146e-05 0)
(-0.00770836 -0.000103221 0)
(-0.00762455 -0.000113116 0)
(-0.00753315 -0.000122981 0)
(-0.00743419 -0.000132795 0)
(-0.00732772 -0.000142538 0)
(-0.0072138 -0.000152191 0)
(-0.0070925 -0.000161733 0)
(-0.00696392 -0.000171142 0)
(-0.00682816 -0.0001804 0)
(-0.00668533 -0.000189486 0)
(-0.00653559 -0.000198379 0)
(-0.00637908 -0.00020706 0)
(-0.00621597 -0.000215509 0)
(-0.00604643 -0.000223707 0)
(-0.00587068 -0.000231632 0)
(-0.00568891 -0.000239265 0)
(-0.00550137 -0.000246584 0)
(-0.00530829 -0.000253567 0)
(-0.00510994 -0.00026019 0)
(-0.00490661 -0.000266426 0)
(-0.0046986 -0.000272246 0)
(-0.00448625 -0.000277615 0)
(-0.00426992 -0.000282496 0)
(-0.00405 -0.000286842 0)
(-0.00382692 -0.000290602 0)
(-0.00360117 -0.000293712 0)
(-0.00337327 -0.0002961 0)
(-0.00314382 -0.000297683 0)
(-0.00291348 -0.000298361 0)
(-0.00268298 -0.000298022 0)
(-0.00245317 -0.000296538 0)
(-0.00222498 -0.00029376 0)
(-0.00199946 -0.000289524 0)
(-0.00177779 -0.000283648 0)
(-0.00156129 -0.000275928 0)
(-0.00135143 -0.000266146 0)
(-0.00114982 -0.000254069 0)
(-0.000958247 -0.000239455 0)
(-0.000778633 -0.000222067 0)
(-0.000613033 -0.000201687 0)
(-0.000463584 -0.000178158 0)
(-0.000332437 -0.000151437 0)
(-0.00022162 -0.000121707 0)
(-0.000132838 -8.95712e-05 0)
(-6.71493e-05 -5.6387e-05 0)
(-2.44387e-05 -2.47551e-05 0)
(-2.86135e-06 5.99046e-07 0)
(1.49963e-06 1.07229e-05 0)
(-2.16508e-06 2.37199e-06 0)
(-1.99001e-05 3.55845e-05 0)
(-6.31158e-05 8.07257e-05 0)
(-0.00012999 0.000129036 0)
(-0.00021967 0.000176012 0)
(-0.000330991 0.00021925 0)
(-0.000462094 0.000257649 0)
(-0.000610795 0.000290891 0)
(-0.000774829 0.000319091 0)
(-0.000951978 0.000342592 0)
(-0.00114015 0.000361846 0)
(-0.00133742 0.000377342 0)
(-0.00154207 0.000389569 0)
(-0.00175257 0.000398994 0)
(-0.00196762 0.000406046 0)
(-0.00218609 0.000411112 0)
(-0.002407 0.000414536 0)
(-0.00262958 0.000416615 0)
(-0.00285314 0.000417604 0)
(-0.00307715 0.000417716 0)
(-0.00330116 0.000417127 0)
(-0.0035248 0.000415979 0)
(-0.00374779 0.000414386 0)
(-0.00396988 0.000412434 0)
(-0.00419087 0.000410189 0)
(-0.0044106 0.000407697 0)
(-0.00462893 0.000404991 0)
(-0.00484572 0.000402092 0)
(-0.00506086 0.00039901 0)
(-0.00527425 0.00039575 0)
(-0.00548577 0.000392312 0)
(-0.00569532 0.000388689 0)
(-0.00590279 0.000384874 0)
(-0.00610807 0.000380858 0)
(-0.00631104 0.000376631 0)
(-0.00651159 0.000372179 0)
(-0.00670958 0.000367493 0)
(-0.00690489 0.00036256 0)
(-0.00709739 0.000357368 0)
(-0.00728691 0.000351905 0)
(-0.00747333 0.000346159 0)
(-0.00765649 0.000340119 0)
(-0.00783622 0.000333775 0)
(-0.00801237 0.000327114 0)
(-0.00818476 0.000320126 0)
(-0.00835321 0.000312802 0)
(-0.00851756 0.000305131 0)
(-0.00867762 0.000297104 0)
(-0.00883319 0.000288713 0)
(-0.00898408 0.000279948 0)
(-0.00913011 0.000270802 0)
(-0.00927106 0.000261268 0)
(-0.00940673 0.000251339 0)
(-0.00953693 0.000241009 0)
(-0.00966143 0.000230273 0)
(-0.00978003 0.000219128 0)
(-0.00989251 0.00020757 0)
(-0.00999867 0.000195598 0)
(-0.0100983 0.000183209 0)
(-0.0101911 0.000170404 0)
(-0.010277 0.000157186 0)
(-0.0103558 0.000143556 0)
(-0.0104271 0.000129519 0)
(-0.0104908 0.000115081 0)
(-0.0105467 0.000100249 0)
(-0.0105946 8.50323e-05 0)
(-0.0106344 6.94407e-05 0)
(-0.0106657 5.34866e-05 0)
(-0.0106885 3.71841e-05 0)
(-0.0107026 2.0549e-05 0)
(-0.0107077 3.59859e-06 0)
(-0.0107038 -1.36478e-05 0)
(-0.0106907 -3.11692e-05 0)
(-0.0106683 -4.89428e-05 0)
(-0.0106364 -6.69442e-05 0)
(-0.010595 -8.51471e-05 0)
(-0.0105439 -0.000103524 0)
(-0.0104831 -0.000122045 0)
(-0.0104125 -0.000140679 0)
(-0.010332 -0.000159396 0)
(-0.0102417 -0.00017816 0)
(-0.0101414 -0.000196938 0)
(-0.0100313 -0.000215694 0)
(-0.00991133 -0.000234392 0)
(-0.00978153 -0.000252995 0)
(-0.00964197 -0.000271466 0)
(-0.00949272 -0.000289766 0)
(-0.00933388 -0.000307859 0)
(-0.00916558 -0.000325705 0)
(-0.00898794 -0.000343267 0)
(-0.00880113 -0.000360508 0)
(-0.00860533 -0.000377389 0)
(-0.00840071 -0.000393873 0)
(-0.00818752 -0.000409922 0)
(-0.00796596 -0.0004255 0)
(-0.00773631 -0.000440567 0)
(-0.00749884 -0.000455084 0)
(-0.00725384 -0.000469011 0)
(-0.00700163 -0.000482304 0)
(-0.00674255 -0.000494917 0)
(-0.00647698 -0.000506798 0)
(-0.00620532 -0.00051789 0)
(-0.005928 -0.000528126 0)
(-0.00564548 -0.000537431 0)
(-0.00535829 -0.000545718 0)
(-0.005067 -0.000552884 0)
(-0.00477222 -0.000558812 0)
(-0.00447466 -0.000563361 0)
(-0.00417507 -0.000566371 0)
(-0.00387434 -0.000567657 0)
(-0.00357342 -0.000567006 0)
(-0.0032734 -0.000564177 0)
(-0.00297548 -0.000558897 0)
(-0.00268102 -0.000550863 0)
(-0.00239154 -0.00053974 0)
(-0.00210871 -0.000525165 0)
(-0.00183438 -0.00050675 0)
(-0.00157059 -0.000484093 0)
(-0.00131955 -0.000456787 0)
(-0.00108361 -0.000424452 0)
(-0.000865261 -0.000386766 0)
(-0.000667058 -0.00034354 0)
(-0.000491515 -0.000294818 0)
(-0.000340975 -0.00024105 0)
(-0.000217394 -0.000183381 0)
(-0.000122017 -0.000124093 0)
(-5.48958e-05 -6.72337e-05 0)
(-1.49681e-05 -1.95523e-05 0)
(-8.10286e-07 7.19937e-06 0)
(-4.1404e-06 1.51841e-05 0)
(-3.07221e-05 7.41902e-05 0)
(-9.0535e-05 0.000145275 0)
(-0.00017881 0.000219013 0)
(-0.000293518 0.00029017 0)
(-0.000433039 0.000355779 0)
(-0.00059518 0.000414375 0)
(-0.000777489 0.000465469 0)
(-0.000977466 0.00050915 0)
(-0.00119266 0.000545842 0)
(-0.00142075 0.00057614 0)
(-0.00165957 0.000600724 0)
(-0.00190718 0.000620286 0)
(-0.00216182 0.000635504 0)
(-0.00242198 0.00064701 0)
(-0.00268633 0.000655383 0)
(-0.00295373 0.000661144 0)
(-0.00322324 0.000664745 0)
(-0.00349404 0.000666581 0)
(-0.00376547 0.000666984 0)
(-0.00403698 0.000666229 0)
(-0.00430811 0.000664542 0)
(-0.0045785 0.000662104 0)
(-0.00484783 0.000659056 0)
(-0.00511585 0.000655503 0)
(-0.00538234 0.000651525 0)
(-0.00564711 0.000647176 0)
(-0.00590999 0.000642494 0)
(-0.00617084 0.000637499 0)
(-0.00642951 0.000632201 0)
(-0.00668587 0.000626602 0)
(-0.00693977 0.000620696 0)
(-0.00719107 0.000614474 0)
(-0.00743965 0.000607923 0)
(-0.00768535 0.000601027 0)
(-0.00792803 0.000593769 0)
(-0.00816753 0.000586133 0)
(-0.00840368 0.0005781 0)
(-0.00863634 0.000569653 0)
(-0.00886531 0.000560774 0)
(-0.00909043 0.000551444 0)
(-0.0093115 0.000541648 0)
(-0.00952834 0.000531367 0)
(-0.00974075 0.000520584 0)
(-0.00994852 0.000509285 0)
(-0.0101515 0.000497454 0)
(-0.0103493 0.000485075 0)
(-0.0105419 0.000472134 0)
(-0.010729 0.000458618 0)
(-0.0109104 0.000444514 0)
(-0.0110858 0.00042981 0)
(-0.0112549 0.000414496 0)
(-0.0114177 0.00039856 0)
(-0.0115737 0.000381996 0)
(-0.0117228 0.000364795 0)
(-0.0118648 0.000346952 0)
(-0.0119993 0.000328461 0)
(-0.0121261 0.000309321 0)
(-0.0122449 0.00028953 0)
(-0.0123556 0.000269089 0)
(-0.0124578 0.000248001 0)
(-0.0125513 0.000226271 0)
(-0.0126359 0.000203905 0)
(-0.0127113 0.000180913 0)
(-0.0127773 0.000157307 0)
(-0.0128336 0.000133101 0)
(-0.0128801 0.000108312 0)
(-0.0129164 8.29589e-05 0)
(-0.0129425 5.70642e-05 0)
(-0.012958 3.06526e-05 0)
(-0.0129628 3.75149e-06 0)
(-0.0129568 -2.36087e-05 0)
(-0.0129397 -5.13951e-05 0)
(-0.0129114 -7.95719e-05 0)
(-0.0128717 -0.000108101 0)
(-0.0128206 -0.000136941 0)
(-0.0127579 -0.000166049 0)
(-0.0126835 -0.000195378 0)
(-0.0125974 -0.000224882 0)
(-0.0124996 -0.000254509 0)
(-0.0123898 -0.000284208 0)
(-0.0122683 -0.000313924 0)
(-0.0121349 -0.000343604 0)
(-0.0119897 -0.00037319 0)
(-0.0118328 -0.000402624 0)
(-0.0116642 -0.000431849 0)
(-0.011484 -0.000460805 0)
(-0.0112923 -0.000489434 0)
(-0.0110894 -0.000517676 0)
(-0.0108752 -0.000545472 0)
(-0.0106501 -0.000572762 0)
(-0.0104143 -0.000599488 0)
(-0.0101679 -0.000625591 0)
(-0.00991123 -0.000651011 0)
(-0.00964459 -0.00067569 0)
(-0.00936826 -0.000699565 0)
(-0.00908258 -0.000722575 0)
(-0.00878789 -0.000744655 0)
(-0.00848458 -0.000765735 0)
(-0.00817306 -0.00078574 0)
(-0.00785377 -0.000804587 0)
(-0.0075272 -0.000822183 0)
(-0.00719386 -0.000838423 0)
(-0.00685432 -0.000853184 0)
(-0.00650919 -0.000866328 0)
(-0.00615917 -0.00087769 0)
(-0.005805 -0.000887081 0)
(-0.0054475 -0.000894282 0)
(-0.00508762 -0.000899039 0)
(-0.00472638 -0.00090106 0)
(-0.00436493 -0.000900014 0)
(-0.00400456 -0.000895524 0)
(-0.0036467 -0.000887171 0)
(-0.00329295 -0.000874489 0)
(-0.00294508 -0.000856971 0)
(-0.00260505 -0.000834071 0)
(-0.00227501 -0.000805216 0)
(-0.0019573 -0.00076982 0)
(-0.00165444 -0.000727309 0)
(-0.00136909 -0.000677164 0)
(-0.00110406 -0.000618978 0)
(-0.000862177 -0.000552559 0)
(-0.000646214 -0.000478073 0)
(-0.000458762 -0.000396271 0)
(-0.000302043 -0.000308832 0)
(-0.00017761 -0.00021887 0)
(-8.59441e-05 -0.000131597 0)
(-2.71794e-05 -5.52223e-05 0)
(-3.03772e-06 -3.09785e-06 0)
(-5.85986e-06 3.35164e-05 0)
(-4.06379e-05 0.000125996 0)
(-0.000116201 0.000228468 0)
(-0.000224874 0.000331692 0)
(-0.000363323 0.000430249 0)
(-0.000529332 0.000520934 0)
(-0.000720287 0.000602103 0)
(-0.000933437 0.000673178 0)
(-0.00116606 0.000734262 0)
(-0.00141551 0.000785868 0)
(-0.00167929 0.000828742 0)
(-0.00195507 0.00086375 0)
(-0.00224073 0.000891794 0)
(-0.00253437 0.000913767 0)
(-0.0028343 0.000930517 0)
(-0.00313905 0.000942826 0)
(-0.00344736 0.000951404 0)
(-0.00375814 0.000956878 0)
(-0.00407047 0.000959792 0)
(-0.0043836 0.000960611 0)
(-0.00469687 0.000959725 0)
(-0.00500975 0.000957455 0)
(-0.00532181 0.000954058 0)
(-0.00563267 0.000949738 0)
(-0.00594203 0.00094465 0)
(-0.00624961 0.00093891 0)
(-0.00655519 0.000932603 0)
(-0.00685856 0.000925784 0)
(-0.00715954 0.000918487 0)
(-0.00745795 0.000910731 0)
(-0.00775362 0.000902521 0)
(-0.00804639 0.000893854 0)
(-0.00833609 0.000884717 0)
(-0.00862256 0.000875095 0)
(-0.00890563 0.000864967 0)
(-0.00918511 0.000854313 0)
(-0.00946083 0.00084311 0)
(-0.00973261 0.000831332 0)
(-0.0100002 0.000818956 0)
(-0.0102635 0.000805957 0)
(-0.0105223 0.000792312 0)
(-0.0107763 0.000777996 0)
(-0.0110253 0.000762986 0)
(-0.0112691 0.000747259 0)
(-0.0115074 0.000730794 0)
(-0.0117401 0.000713568 0)
(-0.0119669 0.000695562 0)
(-0.0121875 0.000676755 0)
(-0.0124017 0.000657129 0)
(-0.0126092 0.000636666 0)
(-0.0128097 0.000615351 0)
(-0.013003 0.000593169 0)
(-0.0131888 0.000570105 0)
(-0.0133669 0.000546149 0)
(-0.0135369 0.000521291 0)
(-0.0136986 0.000495523 0)
(-0.0138516 0.000468839 0)
(-0.0139958 0.000441236 0)
(-0.0141308 0.000412713 0)
(-0.0142563 0.000383271 0)
(-0.014372 0.000352916 0)
(-0.0144778 0.000321654 0)
(-0.0145732 0.000289497 0)
(-0.0146581 0.000256457 0)
(-0.0147322 0.000222552 0)
(-0.0147951 0.000187803 0)
(-0.0148467 0.000152234 0)
(-0.0148867 0.000115872 0)
(-0.0149149 7.87495e-05 0)
(-0.014931 4.09015e-05 0)
(-0.0149348 2.36736e-06 0)
(-0.0149262 -3.68099e-05 0)
(-0.014905 -7.65835e-05 0)
(-0.0148709 -0.000116903 0)
(-0.0148238 -0.000157713 0)
(-0.0147637 -0.000198956 0)
(-0.0146903 -0.000240572 0)
(-0.0146036 -0.000282494 0)
(-0.0145035 -0.000324655 0)
(-0.0143899 -0.000366985 0)
(-0.0142629 -0.00040941 0)
(-0.0141224 -0.000451854 0)
(-0.0139683 -0.000494239 0)
(-0.0138008 -0.000536486 0)
(-0.01362 -0.000578514 0)
(-0.0134258 -0.00062024 0)
(-0.0132184 -0.000661582 0)
(-0.012998 -0.000702455 0)
(-0.0127647 -0.000742777 0)
(-0.0125187 -0.000782463 0)
(-0.0122602 -0.00082143 0)
(-0.0119895 -0.000859594 0)
(-0.0117068 -0.000896871 0)
(-0.0114124 -0.000933178 0)
(-0.0111066 -0.000968429 0)
(-0.0107898 -0.00100254 0)
(-0.0104624 -0.00103541 0)
(-0.0101248 -0.00106696 0)
(-0.00977728 -0.00109709 0)
(-0.00942048 -0.00112568 0)
(-0.00905484 -0.00115261 0)
(-0.00868093 -0.00117775 0)
(-0.00829933 -0.00120096 0)
(-0.0079107 -0.00122204 0)
(-0.00751574 -0.00124081 0)
(-0.00711522 -0.00125703 0)
(-0.00671002 -0.00127042 0)
(-0.00630107 -0.00128068 0)
(-0.00588942 -0.00128744 0)
(-0.00547626 -0.0012903 0)
(-0.00506287 -0.00128878 0)
(-0.00465072 -0.00128236 0)
(-0.00424141 -0.00127046 0)
(-0.00383673 -0.00125244 0)
(-0.00343865 -0.0012276 0)
(-0.00304935 -0.00119519 0)
(-0.00267119 -0.00115447 0)
(-0.00230674 -0.00110464 0)
(-0.00195875 -0.00104497 0)
(-0.0016301 -0.000974805 0)
(-0.00132382 -0.000893669 0)
(-0.00104293 -0.000801376 0)
(-0.000790447 -0.000698217 0)
(-0.000569185 -0.000585218 0)
(-0.000381683 -0.000464513 0)
(-0.000229922 -0.000339863 0)
(-0.000114989 -0.000217298 0)
(-3.83889e-05 -0.000105917 0)
(-4.98921e-06 -1.97323e-05 0)
(-7.31666e-06 5.67718e-05 0)
(-4.94428e-05 0.000189957 0)
(-0.000139467 0.000329089 0)
(-0.000267055 0.000465694 0)
(-0.000427581 0.000594622 0)
(-0.00061816 0.00071275 0)
(-0.000835693 0.000818462 0)
(-0.00107709 0.00091122 0)
(-0.00133938 0.000991202 0)
(-0.00161974 0.00105905 0)
(-0.00191554 0.00111567 0)
(-0.0022243 0.00116213 0)
(-0.00254377 0.00119955 0)
(-0.00287194 0.00122903 0)
(-0.00320701 0.00125165 0)
(-0.00354739 0.0012684 0)
(-0.00389171 0.00128018 0)
(-0.00423879 0.00128781 0)
(-0.00458764 0.00129199 0)
(-0.00493739 0.00129333 0)
(-0.00528734 0.00129233 0)
(-0.00563688 0.00128943 0)
(-0.00598551 0.00128497 0)
(-0.00633282 0.00127922 0)
(-0.00667844 0.00127239 0)
(-0.00702207 0.00126463 0)
(-0.00736343 0.00125608 0)
(-0.00770229 0.00124679 0)
(-0.00803842 0.00123684 0)
(-0.00837163 0.00122623 0)
(-0.00870171 0.00121499 0)
(-0.00902848 0.00120312 0)
(-0.00935174 0.0011906 0)
(-0.0096713 0.00117741 0)
(-0.00998696 0.00116353 0)
(-0.0102985 0.00114893 0)
(-0.0106058 0.00113358 0)
(-0.0109086 0.00111746 0)
(-0.0112066 0.00110054 0)
(-0.0114997 0.00108277 0)
(-0.0117876 0.00106414 0)
(-0.0120701 0.0010446 0)
(-0.012347 0.00102414 0)
(-0.0126179 0.00100271 0)
(-0.0128827 0.000980299 0)
(-0.013141 0.000956872 0)
(-0.0133927 0.000932402 0)
(-0.0136373 0.000906866 0)
(-0.0138747 0.000880239 0)
(-0.0141046 0.000852498 0)
(-0.0143266 0.000823623 0)
(-0.0145405 0.000793595 0)
(-0.0147459 0.000762398 0)
(-0.0149426 0.000730015 0)
(-0.0151303 0.000696436 0)
(-0.0153087 0.000661651 0)
(-0.0154773 0.000625652 0)
(-0.0156361 0.000588436 0)
(-0.0157845 0.000550003 0)
(-0.0159224 0.000510355 0)
(-0.0160493 0.0004695 0)
(-0.0161651 0.000427448 0)
(-0.0162694 0.000384213 0)
(-0.0163619 0.000339814 0)
(-0.0164423 0.000294275 0)
(-0.0165104 0.000247623 0)
(-0.0165658 0.000199892 0)
(-0.0166084 0.000151118 0)
(-0.0166378 0.000101344 0)
(-0.0166538 5.06174e-05 0)
(-0.0166561 -1.00981e-06 0)
(-0.0166447 -5.34799e-05 0)
(-0.0166192 -0.000106731 0)
(-0.0165795 -0.000160695 0)
(-0.0165255 -0.0002153 0)
(-0.0164569 -0.000270469 0)
(-0.0163737 -0.00032612 0)
(-0.0162757 -0.000382169 0)
(-0.0161629 -0.000438524 0)
(-0.0160353 -0.000495092 0)
(-0.0158927 -0.000551777 0)
(-0.0157352 -0.000608478 0)
(-0.0155628 -0.000665092 0)
(-0.0153756 -0.000721513 0)
(-0.0151736 -0.000777636 0)
(-0.0149569 -0.00083335 0)
(-0.0147256 -0.000888547 0)
(-0.0144799 -0.000943115 0)
(-0.01422 -0.000996945 0)
(-0.0139462 -0.00104993 0)
(-0.0136585 -0.00110195 0)
(-0.0133574 -0.00115289 0)
(-0.013043 -0.00120266 0)
(-0.0127158 -0.00125113 0)
(-0.012376 -0.00129819 0)
(-0.0120241 -0.00134373 0)
(-0.0116605 -0.00138762 0)
(-0.0112857 -0.00142974 0)
(-0.0109 -0.00146996 0)
(-0.0105041 -0.00150813 0)
(-0.0100984 -0.00154408 0)
(-0.00968369 -0.00157764 0)
(-0.00926052 -0.0016086 0)
(-0.00882963 -0.00163672 0)
(-0.0083918 -0.00166174 0)
(-0.0079479 -0.00168335 0)
(-0.00749886 -0.00170118 0)
(-0.00704574 -0.00171482 0)
(-0.00658969 -0.00172379 0)
(-0.006132 -0.00172755 0)
(-0.00567408 -0.00172549 0)
(-0.00521752 -0.00171693 0)
(-0.00476406 -0.00170111 0)
(-0.00431565 -0.00167719 0)
(-0.00387441 -0.0016443 0)
(-0.00344267 -0.00160148 0)
(-0.00302295 -0.00154778 0)
(-0.002618 -0.00148222 0)
(-0.00223071 -0.00140391 0)
(-0.00186416 -0.00131206 0)
(-0.00152151 -0.00120612 0)
(-0.001206 -0.0010859 0)
(-0.000920807 -0.000951784 0)
(-0.000669033 -0.000805018 0)
(-0.000453567 -0.000648063 0)
(-0.000276895 -0.000485113 0)
(-0.000140795 -0.000322678 0)
(-4.81287e-05 -0.000170266 0)
(-6.59938e-06 -4.18844e-05 0)
(-8.54251e-06 8.43225e-05 0)
(-5.71397e-05 0.000264837 0)
(-0.000160163 0.0004456 0)
(-0.000304949 0.000619286 0)
(-0.000485674 0.000781365 0)
(-0.000698768 0.000929075 0)
(-0.000940618 0.00106103 0)
(-0.00120776 0.00117687 0)
(-0.00149696 0.00127694 0)
(-0.00180523 0.00136205 0)
(-0.00212977 0.00143331 0)
(-0.00246799 0.001492 0)
(-0.00281756 0.00153945 0)
(-0.00317636 0.00157701 0)
(-0.00354249 0.00160597 0)
(-0.00391431 0.00162753 0)
(-0.00429035 0.00164282 0)
(-0.00466936 0.00165281 0)
(-0.00505028 0.00165839 0)
(-0.00543219 0.00166031 0)
(-0.00581431 0.00165922 0)
(-0.006196 0.00165564 0)
(-0.0065767 0.00165 0)
(-0.00695594 0.00164267 0)
(-0.00733332 0.0016339 0)
(-0.0077085 0.0016239 0)
(-0.00808118 0.00161282 0)
(-0.00845108 0.00160078 0)
(-0.00881795 0.00158783 0)
(-0.00918157 0.00157402 0)
(-0.0095417 0.00155937 0)
(-0.00989814 0.00154388 0)
(-0.0102507 0.00152754 0)
(-0.0105991 0.00151032 0)
(-0.0109431 0.00149221 0)
(-0.0112826 0.00147317 0)
(-0.0116174 0.00145316 0)
(-0.0119471 0.00143215 0)
(-0.0122715 0.0014101 0)
(-0.0125904 0.00138697 0)
(-0.0129036 0.00136273 0)
(-0.0132108 0.00133734 0)
(-0.0135117 0.00131076 0)
(-0.013806 0.00128296 0)
(-0.0140936 0.00125389 0)
(-0.014374 0.00122354 0)
(-0.014647 0.00119185 0)
(-0.0149123 0.00115881 0)
(-0.0151696 0.00112438 0)
(-0.0154186 0.00108854 0)
(-0.0156589 0.00105126 0)
(-0.0158904 0.00101251 0)
(-0.0161125 0.000972286 0)
(-0.0163251 0.000930557 0)
(-0.0165277 0.000887314 0)
(-0.0167201 0.000842543 0)
(-0.016902 0.000796239 0)
(-0.0170729 0.000748396 0)
(-0.0172326 0.000699016 0)
(-0.0173807 0.000648103 0)
(-0.0175169 0.000595665 0)
(-0.0176409 0.000541719 0)
(-0.0177523 0.000486281 0)
(-0.017851 0.000429378 0)
(-0.0179364 0.00037104 0)
(-0.0180084 0.000311303 0)
(-0.0180667 0.000250207 0)
(-0.0181109 0.000187803 0)
(-0.0181408 0.000124143 0)
(-0.0181562 5.92884e-05 0)
(-0.0181568 -6.69429e-06 0)
(-0.0181423 -7.37319e-05 0)
(-0.0181127 -0.000141745 0)
(-0.0180676 -0.000210648 0)
(-0.018007 -0.00028035 0)
(-0.0179306 -0.000350752 0)
(-0.0178384 -0.000421752 0)
(-0.0177302 -0.000493241 0)
(-0.0176059 -0.000565105 0)
(-0.0174656 -0.000637226 0)
(-0.0173091 -0.00070948 0)
(-0.0171364 -0.000781742 0)
(-0.0169477 -0.000853882 0)
(-0.0167429 -0.000925765 0)
(-0.0165222 -0.000997258 0)
(-0.0162856 -0.00106822 0)
(-0.0160333 -0.00113852 0)
(-0.0157654 -0.00120801 0)
(-0.0154822 -0.00127656 0)
(-0.0151838 -0.00134402 0)
(-0.0148707 -0.00141025 0)
(-0.0145429 -0.00147511 0)
(-0.014201 -0.00153847 0)
(-0.0138451 -0.00160017 0)
(-0.0134758 -0.00166008 0)
(-0.0130934 -0.00171804 0)
(-0.0126984 -0.00177391 0)
(-0.0122913 -0.00182752 0)
(-0.0118725 -0.0018787 0)
(-0.0114427 -0.00192726 0)
(-0.0110025 -0.001973 0)
(-0.0105525 -0.00201568 0)
(-0.0100935 -0.00205504 0)
(-0.00962621 -0.00209078 0)
(-0.00915148 -0.00212256 0)
(-0.00867025 -0.00214999 0)
(-0.00818354 -0.0021726 0)
(-0.00769247 -0.00218987 0)
(-0.0071983 -0.00220121 0)
(-0.00670238 -0.00220593 0)
(-0.00620624 -0.00220328 0)
(-0.00571157 -0.0021924 0)
(-0.00522022 -0.00217235 0)
(-0.00473423 -0.00214212 0)
(-0.00425585 -0.0021006 0)
(-0.00378752 -0.00204667 0)
(-0.0033319 -0.00197916 0)
(-0.00289184 -0.0018969 0)
(-0.00247037 -0.00179883 0)
(-0.00207068 -0.00168402 0)
(-0.0016961 -0.00155185 0)
(-0.00135002 -0.00140208 0)
(-0.00103584 -0.00123517 0)
(-0.000756913 -0.00105247 0)
(-0.000516536 -0.000856636 0)
(-0.000317724 -0.000652093 0)
(-0.000162952 -0.000445543 0)
(-5.63052e-05 -0.000246541 0)
(-7.88355e-06 -6.86978e-05 0)
(-9.57252e-06 0.000115582 0)
(-6.38071e-05 0.000349373 0)
(-0.000178347 0.000576363 0)
(-0.000338545 0.000790609 0)
(-0.000537508 0.000988452 0)
(-0.00077101 0.00116772 0)
(-0.00103492 0.00132744 0)
(-0.00132539 0.00146756 0)
(-0.00163892 0.00158869 0)