/*--------------------------------*- C++ -*----------------------------------*\
| =========                 |                                                 |
| \\      /  F ield         | OpenFOAM: The Open Source CFD Toolbox           |
|  \\    /   O peration     | Version:  2112                                  |
|   \\  /    A nd           | Website:  www.openfoam.com                      |
|    \\/     M anipulation  |                                                 |
\*---------------------------------------------------------------------------*/
FoamFile
{
    version     2.0;
    format      ascii;
    arch        "LSB;label=32;scalar=64";
    class       volVectorField;
    location    "3";
    object      U;
}
// * * * * * * * * * * * * * * * * * * * * * * * * * * * * * * * * * * * * * //

dimensions      [0 1 -1 0 0 0 0];

internalField   nonuniform List<vector> 
16641
(
(-7.14713e-06 7.14568e-06 0)
(3.6354e-06 -6.68536e-06 0)
(5.8663e-05 -2.19942e-05 0)
(0.000146376 -3.26644e-05 0)
(0.000255849 -3.88806e-05 0)
(0.000377212 -4.16073e-05 0)
(0.000502255 -4.17454e-05 0)
(0.000624605 -4.00348e-05 0)
(0.000739502 -3.70438e-05 0)
(0.000843505 -3.32051e-05 0)
(0.00093424 -2.88521e-05 0)
(0.0010102 -2.42424e-05 0)
(0.00107055 -1.95712e-05 0)
(0.00111501 -1.49809e-05 0)
(0.00114367 -1.05687e-05 0)
(0.0011569 -6.3927e-06 0)
(0.0011552 -2.47621e-06 0)
(0.00113913 1.18694e-06 0)
(0.00110925 4.62467e-06 0)
(0.00106599 7.8836e-06 0)
(0.00100967 1.1023e-05 0)
(0.000940424 1.41095e-05 0)
(0.000858202 1.72127e-05 0)
(0.000762755 2.04006e-05 0)
(0.000653647 2.37369e-05 0)
(0.000530271 2.72785e-05 0)
(0.000391878 3.10737e-05 0)
(0.000237601 3.51611e-05 0)
(6.64899e-05 3.95688e-05 0)
(-0.000122455 4.43147e-05 0)
(-0.000330252 4.94073e-05 0)
(-0.000557904 5.48466e-05 0)
(-0.000806372 6.06246e-05 0)
(-0.00107655 6.67266e-05 0)
(-0.00136922 7.31307e-05 0)
(-0.00168505 7.98086e-05 0)
(-0.00202459 8.67255e-05 0)
(-0.00238818 9.38398e-05 0)
(-0.00277599 0.000101103 0)
(-0.003188 0.000108461 0)
(-0.00362391 0.000115849 0)
(-0.00408322 0.0001232 0)
(-0.00456513 0.000130434 0)
(-0.00506854 0.000137469 0)
(-0.00559207 0.000144214 0)
(-0.006134 0.000150571 0)
(-0.00669229 0.000156437 0)
(-0.00726458 0.000161706 0)
(-0.00784814 0.000166267 0)
(-0.00843994 0.000170007 0)
(-0.0090366 0.000172814 0)
(-0.00963444 0.000174576 0)
(-0.0102295 0.000175183 0)
(-0.0108174 0.000174531 0)
(-0.0113938 0.000172521 0)
(-0.0119539 0.000169065 0)
(-0.0124928 0.000164082 0)
(-0.0130055 0.000157507 0)
(-0.0134869 0.000149289 0)
(-0.0139318 0.000139392 0)
(-0.0143351 0.000127801 0)
(-0.0146919 0.00011452 0)
(-0.0149972 9.95753e-05 0)
(-0.0152463 8.30198e-05 0)
(-0.015435 6.49466e-05 0)
(-0.0155593 4.54714e-05 0)
(-0.0156156 2.46816e-05 0)
(-0.0156007 2.82799e-06 0)
(-0.0155122 -2.00454e-05 0)
(-0.0153482 -4.3665e-05 0)
(-0.0151076 -6.77722e-05 0)
(-0.01479 -9.21047e-05 0)
(-0.0143959 -0.00011638 0)
(-0.0139265 -0.000140298 0)
(-0.013384 -0.000163545 0)
(-0.0127713 -0.000185798 0)
(-0.0120925 -0.000206735 0)
(-0.0113525 -0.000226037 0)
(-0.0105568 -0.000243398 0)
(-0.00971202 -0.00025853 0)
(-0.00882538 -0.000271173 0)
(-0.00790478 -0.000281103 0)
(-0.00695865 -0.000288135 0)
(-0.00599588 -0.000292134 0)
(-0.00502563 -0.000293018 0)
(-0.00405722 -0.000290762 0)
(-0.00309993 -0.000285403 0)
(-0.00216292 -0.000277036 0)
(-0.00125496 -0.000265815 0)
(-0.000384296 -0.000251961 0)
(0.000441318 -0.000235788 0)
(0.00121499 -0.000217491 0)
(0.00193083 -0.000197497 0)
(0.00258381 -0.000176168 0)
(0.00316999 -0.000153893 0)
(0.00368656 -0.000131066 0)
(0.00413182 -0.000108078 0)
(0.00450519 -8.53014e-05 0)
(0.00480716 -6.30864e-05 0)
(0.00503922 -4.17472e-05 0)
(0.00520379 -2.15578e-05 0)
(0.00530409 -2.74699e-06 0)
(0.00534406 1.45049e-05 0)
(0.00532815 3.0066e-05 0)
(0.00526129 4.38569e-05 0)
(0.00514866 5.58435e-05 0)
(0.00499561 6.60356e-05 0)
(0.00480751 7.44826e-05 0)
(0.00458964 8.12684e-05 0)
(0.0043471 8.65056e-05 0)
(0.00408471 9.0329e-05 0)
(0.00380693 9.28895e-05 0)
(0.00351784 9.43463e-05 0)
(0.00322111 9.486e-05 0)
(0.00291998 9.45831e-05 0)
(0.00261731 9.36507e-05 0)
(0.00231563 9.21685e-05 0)
(0.00201725 9.01985e-05 0)
(0.00172439 8.77426e-05 0)
(0.0014394 8.47214e-05 0)
(0.00116495 8.09502e-05 0)
(0.000904368 7.61097e-05 0)
(0.000661962 6.97152e-05 0)
(0.000443374 6.1092e-05 0)
(0.000255897 4.94031e-05 0)
(0.000108396 3.38522e-05 0)
(1.02814e-05 1.43143e-05 0)
(-3.07701e-05 -6.79152e-06 0)
(-1.8135e-05 -1.81849e-05 0)
(6.59362e-06 -3.54395e-06 0)
(7.1464e-05 -7.15619e-05 0)
(0.000226249 -0.00013899 0)
(0.00044622 -0.000188658 0)
(0.000710421 -0.000219493 0)
(0.000999846 -0.000233839 0)
(0.00129705 -0.000234734 0)
(0.00158732 -0.000225155 0)
(0.00185898 -0.000207712 0)
(0.00210305 -0.000184603 0)
(0.00231295 -0.000157646 0)
(0.00248415 -0.000128317 0)
(0.00261378 -9.77815e-05 0)
(0.00270029 -6.69258e-05 0)
(0.00274315 -3.63835e-05 0)
(0.00274254 -6.56361e-06 0)
(0.00269907 2.23231e-05 0)
(0.00261356 5.02369e-05 0)
(0.00248683 7.72779e-05 0)
(0.00231954 0.000103656 0)
(0.00211207 0.000129659 0)
(0.00186443 0.000155627 0)
(0.0015762 0.00018192 0)
(0.00124655 0.000208897 0)
(0.000874207 0.000236892 0)
(0.000457545 0.000266202 0)
(-5.39095e-06 0.000297071 0)
(-0.000516793 0.000329686 0)
(-0.00107901 0.000364167 0)
(-0.00169446 0.000400575 0)
(-0.00236554 0.000438903 0)
(-0.00309455 0.000479089 0)
(-0.0038836 0.000521012 0)
(-0.00473452 0.000564502 0)
(-0.00564883 0.000609337 0)
(-0.00662761 0.00065525 0)
(-0.00767149 0.000701928 0)
(-0.00878056 0.000749014 0)
(-0.00995432 0.00079611 0)
(-0.0111916 0.000842773 0)
(-0.0124906 0.000888523 0)
(-0.0138487 0.000932841 0)
(-0.0152625 0.000975174 0)
(-0.0167279 0.00101494 0)
(-0.0182398 0.00105152 0)
(-0.0197924 0.00108429 0)
(-0.0213789 0.00111262 0)
(-0.0229918 0.00113584 0)
(-0.0246226 0.00115332 0)
(-0.0262622 0.00116443 0)
(-0.0279006 0.00116856 0)
(-0.0295273 0.00116513 0)
(-0.031131 0.00115361 0)
(-0.0326999 0.00113352 0)
(-0.0342218 0.00110445 0)
(-0.0356843 0.00106603 0)
(-0.0370746 0.00101802 0)
(-0.0383798 0.000960237 0)
(-0.0395871 0.000892606 0)
(-0.040684 0.000815162 0)
(-0.0416581 0.000728053 0)
(-0.0424978 0.000631545 0)
(-0.0431916 0.000526029 0)
(-0.0437293 0.000412037 0)
(-0.0441013 0.00029028 0)
(-0.0442994 0.000161527 0)
(-0.0443163 2.62874e-05 0)
(-0.044146 -0.000113682 0)
(-0.0437841 -0.000257579 0)
(-0.043228 -0.000404113 0)
(-0.0424766 -0.000551861 0)
(-0.0415307 -0.000699326 0)
(-0.040393 -0.000844936 0)
(-0.0390682 -0.000987058 0)
(-0.0375629 -0.00112402 0)
(-0.0358856 -0.00125414 0)
(-0.034047 -0.00137574 0)
(-0.0320596 -0.00148721 0)
(-0.0299377 -0.00158698 0)
(-0.0276974 -0.00167364 0)
(-0.0253563 -0.00174588 0)
(-0.0229334 -0.00180258 0)
(-0.020449 -0.00184284 0)
(-0.017924 -0.00186599 0)
(-0.0153802 -0.00187162 0)
(-0.0128397 -0.0018596 0)
(-0.0103244 -0.0018301 0)
(-0.00785599 -0.00178358 0)
(-0.00545559 -0.0017208 0)
(-0.00314312 -0.00164281 0)
(-0.000937274 -0.001551 0)
(0.00114486 -0.00144679 0)
(0.00308819 -0.00133199 0)
(0.00487976 -0.00120852 0)
(0.00650886 -0.00107844 0)
(0.00796729 -0.00094383 0)
(0.00924939 -0.000806788 0)
(0.010352 -0.000669388 0)
(0.0112747 -0.000533606 0)
(0.0120191 -0.000401286 0)
(0.0125896 -0.000274092 0)
(0.0129921 -0.000153485 0)
(0.013235 -4.06894e-05 0)
(0.0133276 6.33157e-05 0)
(0.0132811 0.000157811 0)
(0.0131073 0.000242334 0)
(0.0128187 0.000316665 0)
(0.0124284 0.00038082 0)
(0.0119492 0.000435022 0)
(0.0113942 0.00047968 0)
(0.0107756 0.00051535 0)
(0.0101053 0.000542705 0)
(0.00939433 0.000562489 0)
(0.00865299 0.000575471 0)
(0.00789063 0.000582394 0)
(0.00711585 0.000583917 0)
(0.00633657 0.000580542 0)
(0.00556024 0.000572548 0)
(0.00479418 0.000559902 0)
(0.00404599 0.000542175 0)
(0.00332397 0.000518456 0)
(0.00263774 0.000487283 0)
(0.00199871 0.000446617 0)
(0.00142054 0.000393925 0)
(0.00091921 0.000326563 0)
(0.000512158 0.000242832 0)
(0.000215661 0.000144267 0)
(4.19409e-05 4.10153e-05 0)
(-6.51098e-06 -3.0833e-05 0)
(2.1901e-05 -5.83978e-05 0)
(0.000139071 -0.000226303 0)
(0.000378771 -0.000378285 0)
(0.000700405 -0.000491511 0)
(0.00107549 -0.000562996 0)
(0.00148002 -0.000596103 0)
(0.00189125 -0.000596457 0)
(0.00228934 -0.000570221 0)
(0.00265793 -0.000523243 0)
(0.00298409 -0.000460737 0)
(0.00325794 -0.000387185 0)
(0.00347234 -0.000306327 0)
(0.00362243 -0.000221186 0)
(0.00370522 -0.000134106 0)
(0.00371914 -4.68033e-05 0)
(0.00366367 3.95793e-05 0)
(0.00353896 0.000124404 0)
(0.00334548 0.000207476 0)
(0.0030838 0.00028897 0)
(0.00275427 0.000369347 0)
(0.00235694 0.000449282 0)
(0.00189135 0.000529581 0)
(0.00135654 0.000611115 0)
(0.000750962 0.000694751 0)
(7.25475e-05 0.0007813 0)
(-0.000681244 0.000871467 0)
(-0.00151334 0.000965822 0)
(-0.00242691 0.00106477 0)
(-0.00342531 0.00116856 0)
(-0.00451186 0.00127724 0)
(-0.00568976 0.00139069 0)
(-0.00696196 0.00150864 0)
(-0.00833098 0.00163064 0)
(-0.00979885 0.00175609 0)
(-0.011367 0.00188425 0)
(-0.013036 0.00201426 0)
(-0.0148056 0.00214512 0)
(-0.0166749 0.0022757 0)
(-0.0186415 0.00240477 0)
(-0.0207023 0.00253099 0)
(-0.0228529 0.00265293 0)
(-0.0250876 0.00276906 0)
(-0.0273997 0.00287779 0)
(-0.029781 0.00297745 0)
(-0.0322222 0.00306636 0)
(-0.0347126 0.00314279 0)
(-0.0372403 0.00320504 0)
(-0.0397923 0.00325142 0)
(-0.0423544 0.00328028 0)
(-0.0449114 0.00329008 0)
(-0.0474472 0.00327935 0)
(-0.0499449 0.00324677 0)
(-0.0523869 0.00319115 0)
(-0.0547551 0.0031115 0)
(-0.0570311 0.00300702 0)
(-0.0591964 0.00287713 0)
(-0.0612323 0.00272149 0)
(-0.0631205 0.00254001 0)
(-0.064843 0.00233288 0)
(-0.0663825 0.00210057 0)
(-0.0677222 0.00184386 0)
(-0.0688467 0.00156379 0)
(-0.0697414 0.00126175 0)
(-0.0703932 0.000939439 0)
(-0.0707905 0.000598934 0)
(-0.0709241 0.000242557 0)
(-0.0707851 -0.000128085 0)
(-0.0703672 -0.000508847 0)
(-0.069667 -0.00089695 0)
(-0.0686829 -0.00128918 0)
(-0.0674154 -0.00168196 0)
(-0.0658678 -0.00207154 0)
(-0.0640456 -0.00245402 0)
(-0.061957 -0.00282539 0)
(-0.0596127 -0.0031816 0)
(-0.057026 -0.00351862 0)
(-0.0542127 -0.00383246 0)
(-0.0511908 -0.00411928 0)
(-0.0479808 -0.00437544 0)
(-0.0446053 -0.00459759 0)
(-0.0410888 -0.00478268 0)
(-0.0374575 -0.00492812 0)
(-0.0337392 -0.00503179 0)
(-0.0299626 -0.00509211 0)
(-0.0261575 -0.0051081 0)
(-0.0223538 -0.00507944 0)
(-0.0185818 -0.00500647 0)
(-0.0148714 -0.00489021 0)
(-0.0112514 -0.00473241 0)
(-0.00774994 -0.00453546 0)
(-0.0043932 -0.00430243 0)
(-0.00120555 -0.00403691 0)
(0.00179102 -0.00374301 0)
(0.00457714 -0.00342527 0)
(0.00713641 -0.00308865 0)
(0.00945561 -0.0027382 0)
(0.0115248 -0.00237911 0)
(0.0133374 -0.00201655 0)
(0.0148903 -0.00165553 0)
(0.0161837 -0.00130082 0)
(0.0172212 -0.000956822 0)
(0.0180091 -0.000627498 0)
(0.0185569 -0.000316284 0)
(0.0188763 -2.60389e-05 0)
(0.018981 0.000240988 0)
(0.0188867 0.000483173 0)
(0.0186103 0.000699517 0)
(0.0181695 0.000889614 0)
(0.0175827 0.00105362 0)
(0.0168681 0.00119217 0)
(0.0160441 0.00130634 0)
(0.0151282 0.00139753 0)
(0.0141373 0.00146737 0)
(0.0130875 0.00151758 0)
(0.0119936 0.00154987 0)
(0.0108698 0.00156575 0)
(0.00972918 0.00156638 0)
(0.0085845 0.00155239 0)
(0.0074482 0.00152368 0)
(0.00633302 0.00147925 0)
(0.00525254 0.00141705 0)
(0.00422179 0.0013339 0)
(0.00325769 0.0012256 0)
(0.00237945 0.00108732 0)
(0.00160841 0.000914678 0)
(0.000966653 0.00070603 0)
(0.00047393 0.000466538 0)
(0.000149073 0.00021601 0)
(1.55569e-05 1.1536e-05 0)
(3.27585e-05 -0.000146211 0)
(0.000189718 -0.000446946 0)
(0.00049429 -0.000700364 0)
(0.000889572 -0.000885867 0)
(0.0013398 -0.00100125 0)
(0.00181715 -0.00105179 0)
(0.00229547 -0.00104604 0)
(0.00275166 -0.000993635 0)
(0.00316639 -0.000904049 0)
(0.00352402 -0.000785958 0)
(0.0038123 -0.000647 0)
(0.00402202 -0.000493661 0)
(0.0041466 -0.000331266 0)
(0.00418163 -0.000163997 0)
(0.00412436 5.03297e-06 0)
(0.00397332 0.000173711 0)
(0.00372784 0.000340817 0)
(0.00338769 0.000505909 0)
(0.00295276 0.000669203 0)
(0.0024228 0.000831426 0)
(0.00179717 0.000993688 0)
(0.00107475 0.00115734 0)
(0.000253823 0.00132384 0)
(-0.000667901 0.00149463 0)
(-0.00169328 0.00167108 0)
(-0.00282565 0.00185432 0)
(-0.00406868 0.00204524 0)
(-0.00542625 0.00224446 0)
(-0.00690227 0.00245222 0)
(-0.0085005 0.00266847 0)
(-0.0102244 0.0028928 0)
(-0.0120768 0.00312448 0)
(-0.0140602 0.00336248 0)
(-0.0161757 0.00360547 0)
(-0.018424 0.00385186 0)
(-0.0208044 0.00409979 0)
(-0.0233148 0.00434717 0)
(-0.0259521 0.00459168 0)
(-0.0287114 0.00483083 0)
(-0.0315867 0.00506192 0)
(-0.0345699 0.0052821 0)
(-0.0376518 0.00548839 0)
(-0.0408212 0.00567774 0)
(-0.0440654 0.00584701 0)
(-0.0473702 0.00599304 0)
(-0.0507199 0.00611271 0)
(-0.0540971 0.00620296 0)
(-0.0574834 0.00626084 0)
(-0.060859 0.00628356 0)
(-0.0642033 0.00626853 0)
(-0.0674946 0.00621344 0)
(-0.0707107 0.00611623 0)
(-0.0738289 0.00597522 0)
(-0.0768264 0.00578908 0)
(-0.0796802 0.00555686 0)
(-0.0823675 0.00527808 0)
(-0.0848662 0.0049527 0)
(-0.0871546 0.00458113 0)
(-0.0892119 0.00416429 0)
(-0.0910185 0.00370358 0)
(-0.0925562 0.00320091 0)
(-0.0938079 0.00265867 0)
(-0.0947584 0.00207978 0)
(-0.0953944 0.00146758 0)
(-0.0957044 0.000825751 0)
(-0.0956803 0.000158621 0)
(-0.095314 -0.00052734 0)
(-0.0945998 -0.00122882 0)
(-0.0935371 -0.00194001 0)
(-0.0921261 -0.00265486 0)
(-0.0903697 -0.00336715 0)
(-0.0882737 -0.00407043 0)
(-0.0858465 -0.00475807 0)
(-0.0830995 -0.00542333 0)
(-0.0800464 -0.00605945 0)
(-0.076704 -0.00665969 0)
(-0.0730914 -0.00721749 0)
(-0.0692306 -0.00772652 0)
(-0.0651457 -0.00818077 0)
(-0.0608632 -0.00857473 0)
(-0.0564117 -0.00890342 0)
(-0.0518215 -0.00916255 0)
(-0.0471246 -0.0093486 0)
(-0.0423543 -0.00945893 0)
(-0.0375449 -0.00949187 0)
(-0.032731 -0.00944676 0)
(-0.0279477 -0.00932406 0)
(-0.0232298 -0.00912533 0)
(-0.0186114 -0.00885327 0)
(-0.0141255 -0.00851169 0)
(-0.0098036 -0.00810547 0)
(-0.00567527 -0.00764049 0)
(-0.0017676 -0.0071235 0)
(0.00189492 -0.00656201 0)
(0.005291 -0.00596417 0)
(0.00840285 -0.00533857 0)
(0.0112161 -0.00469404 0)
(0.0137204 -0.00403949 0)
(0.0159091 -0.00338368 0)
(0.0177795 -0.00273505 0)
(0.0193328 -0.00210156 0)
(0.0205739 -0.00149049 0)
(0.0215111 -0.000908301 0)
(0.0221559 -0.00036055 0)
(0.0225228 0.000148211 0)
(0.0226284 0.00061448 0)
(0.0224918 0.00103583 0)
(0.022133 0.00141087 0)
(0.0215737 0.00173922 0)
(0.0208358 0.00202139 0)
(0.0199416 0.0022587 0)
(0.018913 0.00245309 0)
(0.0177716 0.002607 0)
(0.0165382 0.0027231 0)
(0.0152326 0.00280407 0)
(0.0138739 0.00285234 0)
(0.0124802 0.00286981 0)
(0.0110691 0.00285752 0)
(0.00965783 0.00281534 0)
(0.00826408 0.00274174 0)
(0.00690608 0.00263354 0)
(0.00560343 0.00248591 0)
(0.00437743 0.00229262 0)
(0.00325138 0.0020468 0)
(0.00225051 0.00174262 0)
(0.00140061 0.00137848 0)
(0.00072536 0.000962046 0)
(0.000253802 0.000518889 0)
(3.67271e-05 0.000114118 0)
(3.94111e-05 -0.000256572 0)
(0.000222503 -0.000713455 0)
(0.000569955 -0.0010778 0)
(0.00101131 -0.00133711 0)
(0.00150417 -0.00149314 0)
(0.00201735 -0.00155462 0)
(0.00252213 -0.00153369 0)
(0.00299328 -0.00144372 0)
(0.00340954 -0.00129795 0)
(0.0037535 -0.00110869 0)
(0.00401126 -0.000886906 0)
(0.00417208 -0.000642016 0)
(0.00422798 -0.000381835 0)
(0.00417325 -0.00011257 0)
(0.00400399 0.000161123 0)
(0.00371764 0.000436031 0)
(0.00331254 0.000710257 0)
(0.00278751 0.000983052 0)
(0.00214154 0.00125463 0)
(0.00137349 0.00152598 0)
(0.000481875 0.00179864 0)
(-0.000535291 0.0020745 0)
(-0.00168053 0.00235561 0)
(-0.00295694 0.00264398 0)
(-0.00436809 0.00294148 0)
(-0.00591795 0.00324961 0)
(-0.0076107 0.00356952 0)
(-0.00945058 0.00390182 0)
(-0.0114417 0.00424666 0)
(-0.0135876 0.00460362 0)
(-0.0158915 0.00497176 0)
(-0.0183556 0.00534961 0)
(-0.0209812 0.00573522 0)
(-0.0237683 0.00612616 0)
(-0.0267156 0.00651961 0)
(-0.0298202 0.00691231 0)
(-0.0330775 0.00730066 0)
(-0.0364813 0.00768075 0)
(-0.0400234 0.00804835 0)
(-0.0436938 0.00839903 0)
(-0.0474803 0.00872815 0)
(-0.0513692 0.00903093 0)
(-0.0553446 0.00930253 0)
(-0.0593888 0.0095381 0)
(-0.0634825 0.00973282 0)
(-0.0676048 0.00988203 0)
(-0.0717332 0.00998126 0)
(-0.0758443 0.0100263 0)
(-0.0799135 0.0100134 0)
(-0.0839153 0.00993899 0)
(-0.0878239 0.00980018 0)
(-0.0916129 0.00959452 0)
(-0.0952564 0.00932015 0)
(-0.0987281 0.00897583 0)
(-0.102003 0.00856095 0)
(-0.105055 0.00807558 0)
(-0.107862 0.00752049 0)
(-0.1104 0.00689712 0)
(-0.112648 0.00620763 0)
(-0.114586 0.00545486 0)
(-0.116197 0.00464236 0)
(-0.117464 0.00377432 0)
(-0.118373 0.00285561 0)
(-0.118912 0.00189168 0)
(-0.119072 0.000888456 0)
(-0.118844 -0.000147368 0)
(-0.118223 -0.00120692 0)
(-0.117209 -0.00228437 0)
(-0.115801 -0.00337127 0)
(-0.114 -0.00445889 0)
(-0.111812 -0.00553829 0)
(-0.109246 -0.00660028 0)
(-0.106311 -0.00763549 0)
(-0.103022 -0.00863442 0)
(-0.0993941 -0.00958759 0)
(-0.0954456 -0.0104856 0)
(-0.091198 -0.0113193 0)
(-0.0866749 -0.0120799 0)
(-0.0819022 -0.012759 0)
(-0.0769084 -0.0133489 0)
(-0.0717237 -0.0138427 0)
(-0.0663806 -0.0142342 0)
(-0.0609129 -0.0145185 0)
(-0.055356 -0.0146918 0)
(-0.0497465 -0.0147516 0)
(-0.0441216 -0.0146967 0)
(-0.0385188 -0.0145275 0)
(-0.032976 -0.0142459 0)
(-0.0275302 -0.0138554 0)
(-0.0222179 -0.0133611 0)
(-0.0170742 -0.0127695 0)
(-0.0121323 -0.0120885 0)
(-0.00742335 -0.0113275 0)
(-0.00297589 -0.010497 0)
(0.00118457 -0.0096083 0)
(0.00503593 -0.00867354 0)
(0.00855969 -0.00770541 0)
(0.0117413 -0.00671677 0)
(0.0145701 -0.00572046 0)
(0.01704 -0.004729 0)
(0.0191486 -0.00375437 0)
(0.020898 -0.0028077 0)
(0.022294 -0.00189911 0)
(0.0233465 -0.00103748 0)
(0.0240684 -0.00023036 0)
(0.0244761 0.000516201 0)
(0.0245883 0.00119766 0)
(0.0244262 0.00181102 0)
(0.0240125 0.00235473 0)
(0.0233712 0.00282865 0)
(0.022527 0.00323386 0)
(0.0215051 0.00357246 0)
(0.0203304 0.00384734 0)
(0.0190274 0.00406188 0)
(0.0176202 0.00421956 0)
(0.016132 0.00432365 0)
(0.0145853 0.0043767 0)
(0.0130024 0.00438019 0)
(0.0114048 0.00433403 0)
(0.00981454 0.00423627 0)
(0.00825412 0.00408282 0)
(0.00674705 0.00386747 0)
(0.00531831 0.00358227 0)
(0.00399469 0.00321856 0)
(0.0028049 0.002769 0)
(0.00177861 0.00223107 0)
(0.000944553 0.00161231 0)
(0.000343584 0.000938178 0)
(5.40442e-05 0.000269956 0)
(4.2826e-05 -0.00038017 0)
(0.000239605 -0.00100759 0)
(0.000608462 -0.00148719 0)
(0.00106936 -0.00181771 0)
(0.00157455 -0.00200742 0)
(0.00208988 -0.00207003 0)
(0.00258464 -0.0020221 0)
(0.00303209 -0.00188115 0)
(0.00340977 -0.00166436 0)
(0.00369914 -0.00138773 0)
(0.00388522 -0.0010656 0)
(0.00395617 -0.000710379 0)
(0.00390291 -0.00033241 0)
(0.00371863 6.00286e-05 0)
(0.00339832 0.000460686 0)
(0.00293832 0.000865211 0)
(0.00233588 0.00127099 0)
(0.00158878 0.00167694 0)
(0.000694933 0.00208325 0)
(-0.000347814 0.00249112 0)
(-0.00154194 0.0029025 0)
(-0.00289034 0.00331977 0)
(-0.00439641 0.00374551 0)
(-0.00606395 0.00418223 0)
(-0.00789717 0.00463214 0)
(-0.00990044 0.005097 0)
(-0.0120782 0.00557798 0)
(-0.0144346 0.00607555 0)
(-0.0169734 0.00658942 0)
(-0.0196977 0.00711853 0)
(-0.0226095 0.00766108 0)
(-0.0257098 0.0082145 0)
(-0.028998 0.00877553 0)
(-0.0324719 0.00934025 0)
(-0.0361277 0.00990416 0)
(-0.0399595 0.0104622 0)
(-0.0439592 0.0110089 0)
(-0.0481168 0.0115382 0)
(-0.0524199 0.0120439 0)
(-0.0568541 0.0125195 0)
(-0.0614027 0.0129582 0)
(-0.0660468 0.0133533 0)
(-0.0707657 0.013698 0)
(-0.0755367 0.0139856 0)
(-0.0803357 0.0142097 0)
(-0.0851369 0.0143641 0)
(-0.0899135 0.0144431 0)
(-0.0946377 0.0144417 0)
(-0.0992811 0.014355 0)
(-0.103815 0.0141794 0)
(-0.10821 0.0139116 0)
(-0.112439 0.0135492 0)
(-0.116473 0.0130908 0)
(-0.120285 0.0125358 0)
(-0.123848 0.0118843 0)
(-0.127138 0.0111377 0)
(-0.130131 0.0102979 0)
(-0.132805 0.00936791 0)
(-0.135141 0.00835162 0)
(-0.137119 0.0072537 0)
(-0.138723 0.00607966 0)
(-0.13994 0.00483579 0)
(-0.140758 0.00352917 0)
(-0.141165 0.0021676 0)
(-0.141156 0.000759648 0)
(-0.140725 -0.000685622 0)
(-0.139868 -0.00215945 0)
(-0.138586 -0.00365055 0)
(-0.13688 -0.00514838 0)
(-0.134754 -0.00664192 0)
(-0.132216 -0.0081197 0)
(-0.129275 -0.00956993 0)
(-0.125941 -0.0109806 0)
(-0.12223 -0.0123398 0)
(-0.118158 -0.0136353 0)
(-0.113744 -0.0148552 0)
(-0.10901 -0.0159879 0)
(-0.103979 -0.0170222 0)
(-0.0986781 -0.0179473 0)
(-0.0931357 -0.0187535 0)
(-0.0873824 -0.0194317 0)
(-0.0814509 -0.019974 0)
(-0.0753756 -0.0203739 0)
(-0.0691926 -0.0206262 0)
(-0.0629392 -0.0207273 0)
(-0.0566537 -0.0206754 0)
(-0.0503751 -0.0204707 0)
(-0.0441427 -0.020115 0)
(-0.0379957 -0.0196123 0)
(-0.0319729 -0.0189687 0)
(-0.0261117 -0.018192 0)
(-0.0204486 -0.0172921 0)
(-0.0150178 -0.0162806 0)
(-0.00985144 -0.0151705 0)
(-0.00497865 -0.0139765 0)
(-0.000425519 -0.0127142 0)
(0.0037854 -0.0113998 0)
(0.00763539 -0.0100503 0)
(0.0111098 -0.00868274 0)
(0.0141983 -0.00731387 0)
(0.0168948 -0.00595996 0)
(0.0191976 -0.00463637 0)
(0.0211094 -0.0033573 0)
(0.0226369 -0.00213549 0)
(0.0237908 -0.00098201 0)
(0.0245856 9.39067e-05 0)
(0.0250386 0.00108497 0)
(0.0251704 0.0019859 0)
(0.0250036 0.00279336 0)
(0.0245628 0.00350591 0)
(0.0238741 0.00412381 0)
(0.0229642 0.00464879 0)
(0.0218606 0.00508374 0)
(0.0205905 0.00543234 0)
(0.0191812 0.00569858 0)
(0.0176596 0.0058863 0)
(0.0160519 0.00599859 0)
(0.0143842 0.00603731 0)
(0.0126822 0.00600245 0)
(0.0109717 0.00589178 0)
(0.00927899 0.0057005 0)
(0.00763111 0.00542126 0)
(0.00605641 0.00504462 0)
(0.00458496 0.00456013 0)
(0.00324904 0.00395849 0)
(0.0020826 0.00323489 0)
(0.00112014 0.00239378 0)
(0.000414159 0.00145532 0)
(6.70308e-05 0.000468956 0)
(4.38268e-05 -0.000509178 0)
(0.000243555 -0.00131217 0)
(0.000614018 -0.00190552 0)
(0.00106959 -0.00230053 0)
(0.00155874 -0.00251365 0)
(0.002045 -0.00256484 0)
(0.00249615 -0.00247587 0)
(0.00288449 -0.00226882 0)
(0.00318684 -0.00196499 0)
(0.00338403 -0.00158411 0)
(0.0034604 -0.00114389 0)
(0.00340337 -0.000659642 0)
(0.00320302 -0.000144213 0)
(0.00285159 0.000392108 0)
(0.00234309 0.000941511 0)
(0.0016728 0.00149853 0)
(0.000836861 0.00205986 0)
(-0.000168085 0.00262405 0)
(-0.00134522 0.00319127 0)
(-0.00269779 0.00376289 0)
(-0.00422929 0.0043412 0)
(-0.00594356 0.00492899 0)
(-0.00784475 0.00552925 0)
(-0.00993731 0.00614478 0)
(-0.0122258 0.00677802 0)
(-0.0147149 0.0074307 0)
(-0.0174087 0.00810375 0)
(-0.0203109 0.00879717 0)
(-0.0234246 0.00950991 0)
(-0.0267514 0.0102399 0)
(-0.0302918 0.0109841 0)
(-0.0340446 0.0117383 0)
(-0.0380068 0.0124977 0)
(-0.0421732 0.0132562 0)
(-0.0465366 0.0140075 0)
(-0.0510872 0.0147441 0)
(-0.055813 0.0154583 0)
(-0.0606994 0.0161418 0)
(-0.0657295 0.016786 0)
(-0.070884 0.0173821 0)
(-0.0761413 0.0179211 0)
(-0.0814777 0.0183941 0)
(-0.0868677 0.0187926 0)
(-0.092284 0.0191082 0)
(-0.0976982 0.019333 0)
(-0.103081 0.0194598 0)
(-0.108401 0.0194819 0)
(-0.113629 0.0193938 0)
(-0.118732 0.0191904 0)
(-0.123682 0.0188681 0)
(-0.128448 0.0184241 0)
(-0.133 0.0178567 0)
(-0.137312 0.0171653 0)
(-0.141355 0.0163505 0)
(-0.145104 0.015414 0)
(-0.148537 0.0143585 0)
(-0.151631 0.0131878 0)
(-0.154367 0.0119068 0)
(-0.156727 0.0105213 0)
(-0.158694 0.00903794 0)
(-0.160256 0.00746443 0)
(-0.1614 0.00580921 0)
(-0.162117 0.00408151 0)
(-0.162399 0.00229134 0)
(-0.162241 0.000449451 0)
(-0.161639 -0.00143278 0)
(-0.160593 -0.00334397 0)
(-0.159103 -0.00527115 0)
(-0.157172 -0.00720134 0)
(-0.154805 -0.00912117 0)
(-0.152009 -0.0110168 0)
(-0.148795 -0.0128742 0)
(-0.145172 -0.014679 0)
(-0.141156 -0.0164167 0)
(-0.136762 -0.0180729 0)
(-0.132008 -0.0196333 0)
(-0.126917 -0.0210839 0)
(-0.12151 -0.0224111 0)
(-0.115813 -0.023602 0)
(-0.109853 -0.0246444 0)
(-0.103662 -0.0255274 0)
(-0.0972698 -0.026241 0)
(-0.0907116 -0.026777 0)
(-0.0840229 -0.0271285 0)
(-0.0772411 -0.0272909 0)
(-0.0704048 -0.0272612 0)
(-0.0635537 -0.0270388 0)
(-0.0567281 -0.0266256 0)
(-0.0499687 -0.0260256 0)
(-0.0433158 -0.0252454 0)
(-0.0368093 -0.024294 0)
(-0.030488 -0.0231826 0)
(-0.024389 -0.0219249 0)
(-0.0185475 -0.0205363 0)
(-0.0129963 -0.0190343 0)
(-0.00776518 -0.0174376 0)
(-0.00288052 -0.0157663 0)
(0.00163485 -0.0140412 0)
(0.00576216 -0.0122834 0)
(0.00948685 -0.010514 0)
(0.0127988 -0.00875379 0)
(0.0156922 -0.0070225 0)
(0.0181661 -0.00533871 0)
(0.0202237 -0.00371938 0)
(0.0218725 -0.00217957 0)
(0.0231242 -0.000732205 0)
(0.0239941 0.000612117 0)
(0.024501 0.00184521 0)
(0.0246664 0.00296134 0)
(0.0245146 0.00395713 0)
(0.0240717 0.00483139 0)
(0.0233653 0.00558489 0)
(0.022424 0.00621995 0)
(0.0212773 0.00674008 0)
(0.0199547 0.00714935 0)
(0.0184858 0.00745185 0)
(0.0169002 0.00765101 0)
(0.0152271 0.00774889 0)
(0.0134957 0.00774558 0)
(0.0117354 0.00763862 0)
(0.00997572 0.00742263 0)
(0.00824711 0.00708929 0)
(0.0065811 0.00662772 0)
(0.00501105 0.00602554 0)
(0.00357294 0.00527082 0)
(0.00230521 0.00435502 0)
(0.00124826 0.00327694 0)
(0.000464778 0.00204769 0)
(7.5951e-05 0.000700063 0)
(4.3009e-05 -0.000637273 0)
(0.000236536 -0.0016119 0)
(0.000590756 -0.00231137 0)
(0.00101799 -0.00275986 0)
(0.00146458 -0.00298292 0)
(0.00189252 -0.00300767 0)
(0.00226872 -0.00286167 0)
(0.00256502 -0.00257193 0)
(0.00275794 -0.00216399 0)
(0.00282806 -0.00166135 0)
(0.00275935 -0.00108496 0)
(0.00253879 -0.000452978 0)
(0.00215581 0.000219411 0)
(0.00160192 0.000920012 0)
(0.000870194 0.00163955 0)
(-4.50849e-05 0.00237154 0)
(-0.00114885 0.00311198 0)
(-0.00244558 0.00385914 0)
(-0.00393956 0.00461308 0)
(-0.00563513 0.00537534 0)
(-0.00753676 0.00614843 0)
(-0.0096491 0.00693541 0)
(-0.011977 0.00773947 0)
(-0.0145253 0.00856355 0)
(-0.0172987 0.00940996 0)
(-0.0203015 0.0102801 0)
(-0.0235374 0.0111744 0)
(-0.0270092 0.0120919 0)
(-0.0307182 0.0130303 0)
(-0.0346644 0.0139863 0)
(-0.0388459 0.0149549 0)
(-0.0432586 0.0159301 0)
(-0.0478962 0.0169048 0)
(-0.05275 0.0178707 0)
(-0.0578086 0.0188188 0)
(-0.063058 0.0197394 0)
(-0.0684814 0.0206219 0)
(-0.0740596 0.0214555 0)
(-0.0797708 0.0222293 0)
(-0.0855907 0.022932 0)
(-0.0914931 0.0235526 0)
(-0.0974498 0.0240803 0)
(-0.103431 0.0245049 0)
(-0.109406 0.0248166 0)
(-0.115343 0.0250067 0)
(-0.121209 0.0250672 0)
(-0.126972 0.0249914 0)
(-0.1326 0.0247735 0)
(-0.138062 0.0244091 0)
(-0.143326 0.0238952 0)
(-0.148363 0.0232299 0)
(-0.153146 0.022413 0)
(-0.157646 0.0214452 0)
(-0.16184 0.0203288 0)
(-0.165705 0.0190673 0)
(-0.169219 0.0176653 0)
(-0.172364 0.0161285 0)
(-0.175123 0.0144639 0)
(-0.17748 0.0126793 0)
(-0.179422 0.0107835 0)
(-0.180939 0.00878604 0)
(-0.182021 0.00669748 0)
(-0.18266 0.00452902 0)
(-0.182851 0.00229259 0)
(-0.18259 8.28676e-07 0)
(-0.181875 -0.00233281 0)
(-0.180705 -0.00469485 0)
(-0.179081 -0.00707071 0)
(-0.177008 -0.00944544 0)
(-0.174488 -0.0118036 0)
(-0.17153 -0.0141295 0)
(-0.168142 -0.0164068 0)
(-0.164334 -0.0186191 0)
(-0.160119 -0.0207499 0)
(-0.155512 -0.0227825 0)
(-0.150529 -0.0247003 0)
(-0.145189 -0.026487 0)
(-0.139514 -0.0281267 0)
(-0.133528 -0.0296042 0)
(-0.127256 -0.0309051 0)
(-0.120728 -0.032016 0)
(-0.113974 -0.032925 0)
(-0.107027 -0.0336218 0)
(-0.0999214 -0.0340978 0)
(-0.0926952 -0.0343466 0)
(-0.0853868 -0.034364 0)
(-0.078036 -0.0341485 0)
(-0.070684 -0.0337011 0)
(-0.0633725 -0.0330256 0)
(-0.0561436 -0.032129 0)
(-0.049039 -0.0310206 0)
(-0.0420999 -0.0297131 0)
(-0.0353663 -0.0282216 0)
(-0.0288764 -0.0265636 0)
(-0.0226662 -0.0247592 0)
(-0.0167693 -0.0228302 0)
(-0.011216 -0.0207999 0)
(-0.00603299 -0.018693 0)
(-0.00124327 -0.0165347 0)
(0.00313444 -0.0143504 0)
(0.00708579 -0.0121653 0)
(0.010601 -0.0100037 0)
(0.013675 -0.00788873 0)
(0.0163073 -0.00584192 0)
(0.0185018 -0.00388263 0)
(0.0202672 -0.00202788 0)
(0.0216159 -0.000292051 0)
(0.0225644 0.00131325 0)
(0.0231326 0.00277929 0)
(0.0233435 0.00410017 0)
(0.0232224 0.00527263 0)
(0.022797 0.00629586 0)
(0.0220966 0.00717107 0)
(0.0211515 0.00790101 0)
(0.0199931 0.00848939 0)
(0.018653 0.00894014 0)
(0.0171633 0.00925669 0)
(0.0155559 0.00944116 0)
(0.0138631 0.00949358 0)
(0.0121172 0.00941126 0)
(0.010351 0.00918827 0)
(0.00859794 0.00881535 0)
(0.00689272 0.00828014 0)
(0.00527199 0.00756806 0)
(0.00377543 0.0066639 0)
(0.00244592 0.00555418 0)
(0.00132926 0.00423021 0)
(0.000496288 0.00269171 0)
(8.12522e-05 0.000952583 0)
(4.07554e-05 -0.000759259 0)
(0.00022017 -0.00189334 0)
(0.000542066 -0.00268525 0)
(0.000919708 -0.00317186 0)
(0.00129893 -0.00338825 0)
(0.00164109 -0.00336917 0)
(0.00191292 -0.00314841 0)
(0.00208631 -0.00275807 0)
(0.00213792 -0.00222805 0)
(0.00204838 -0.00158552 0)
(0.00180163 -0.000854585 0)
(0.00138437 -5.60386e-05 0)
(0.00078561 0.000792747 0)
(-3.79812e-06 0.00167784 0)
(-0.000991561 0.00258864 0)
(-0.00218434 0.00351772 0)
(-0.00358809 0.00446051 0)
(-0.00520836 0.00541494 0)
(-0.0070505 0.006381 0)
(-0.00911982 0.00736028 0)
(-0.0114217 0.00835538 0)
(-0.0139613 0.00936946 0)
(-0.0167441 0.0104057 0)
(-0.019775 0.0114667 0)
(-0.0230584 0.0125546 0)
(-0.026598 0.0136698 0)
(-0.0303964 0.0148118 0)
(-0.0344547 0.0159784 0)
(-0.0387723 0.0171656 0)
(-0.0433466 0.0183681 0)
(-0.0481725 0.0195788 0)
(-0.0532426 0.0207893 0)
(-0.0585468 0.0219897 0)
(-0.0640718 0.0231693 0)
(-0.0698019 0.0243161 0)
(-0.0757183 0.0254176 0)
(-0.0817994 0.0264606 0)
(-0.0880212 0.0274318 0)
(-0.0943569 0.0283176 0)
(-0.100778 0.0291049 0)
(-0.107254 0.0297805 0)
(-0.113753 0.0303324 0)
(-0.120242 0.0307491 0)
(-0.126688 0.03102 0)
(-0.133056 0.0311361 0)
(-0.139314 0.0310894 0)
(-0.145427 0.0308735 0)
(-0.151365 0.0304835 0)
(-0.157096 0.0299161 0)
(-0.162591 0.0291695 0)
(-0.167822 0.0282435 0)
(-0.172764 0.0271394 0)
(-0.177392 0.02586 0)
(-0.181684 0.0244095 0)
(-0.185622 0.0227933 0)
(-0.189186 0.0210181 0)
(-0.19236 0.0190917 0)
(-0.195132 0.0170229 0)
(-0.197488 0.0148213 0)
(-0.199417 0.0124977 0)
(-0.200912 0.0100635 0)
(-0.201964 0.0075308 0)
(-0.202568 0.00491247 0)
(-0.202719 0.00222208 0)
(-0.202414 -0.000526187 0)
(-0.201651 -0.00331752 0)
(-0.200429 -0.00613661 0)
(-0.198751 -0.00896742 0)
(-0.196617 -0.0117934 0)
(-0.194031 -0.0145976 0)
(-0.191 -0.0173624 0)
(-0.18753 -0.0200698 0)
(-0.183629 -0.0227015 0)
(-0.179308 -0.025239 0)
(-0.17458 -0.0276635 0)
(-0.169459 -0.0299562 0)
(-0.163962 -0.0320986 0)
(-0.158109 -0.0340724 0)
(-0.15192 -0.03586 0)