/*--------------------------------*- C++ -*----------------------------------*\
| =========                 |                                                 |
| \\      /  F ield         | OpenFOAM: The Open Source CFD Toolbox           |
|  \\    /   O peration     | Version:  2112                                  |
|   \\  /    A nd           | Website:  www.openfoam.com                      |
|    \\/     M anipulation  |                                                 |
\*---------------------------------------------------------------------------*/
FoamFile
{
    version     2.0;
    format      ascii;
    arch        "LSB;label=32;scalar=64";
    class       volScalarField;
    location    "8";
    object      p;
}
// * * * * * * * * * * * * * * * * * * * * * * * * * * * * * * * * * * * * * //

dimensions      [0 2 -2 0 0 0 0];

internalField   nonuniform List<scalar> 
25600
(
7.53001e-14
1.27915e-13
1.50628e-13
1.6265e-13
1.71356e-13
1.78089e-13
1.83628e-13
1.88387e-13
1.92573e-13
1.96315e-13
1.99695e-13
2.02854e-13
2.05729e-13
2.08462e-13
2.11045e-13
2.13478e-13
2.159e-13
2.18253e-13
2.20511e-13
2.22653e-13
2.24708e-13
2.26731e-13
2.28707e-13
2.30637e-13
2.32512e-13
2.3424e-13
2.35875e-13
2.37617e-13
2.39262e-13
2.4081e-13
2.42316e-13
2.43759e-13
2.45259e-13
2.46791e-13
2.48256e-13
2.49678e-13
2.51106e-13
2.5254e-13
2.5389e-13
2.55166e-13
2.56475e-13
2.57705e-13
2.58986e-13
2.60165e-13
2.61269e-13
2.62524e-13
2.6375e-13
2.64907e-13
2.66063e-13
2.67325e-13
2.68588e-13
2.69685e-13
2.70895e-13
2.72076e-13
2.73186e-13
2.74434e-13
2.75561e-13
2.76694e-13
2.77844e-13
2.78898e-13
2.80075e-13
2.81075e-13
2.82072e-13
2.83114e-13
2.84084e-13
2.85162e-13
2.86188e-13
2.87176e-13
2.88089e-13
2.89075e-13
2.90127e-13
2.91183e-13
2.9212e-13
2.93048e-13
2.93853e-13
2.94875e-13
2.95782e-13
2.96469e-13
2.9729e-13
2.98085e-13
2.99031e-13
2.99873e-13
3.00409e-13
3.01021e-13
3.01758e-13
3.02709e-13
3.03598e-13
3.04158e-13
3.04606e-13
3.05227e-13
3.06128e-13
3.0694e-13
3.0739e-13
3.0782e-13
3.08616e-13
3.09432e-13
3.09905e-13
3.10441e-13
3.10963e-13
3.11725e-13
3.12591e-13
3.13062e-13
3.13553e-13
3.13993e-13
3.14602e-13
3.15362e-13
3.1598e-13
3.16357e-13
3.16803e-13
3.17412e-13
3.17938e-13
3.18571e-13
3.18652e-13
3.18838e-13
3.19466e-13
3.20083e-13
3.20422e-13
3.2041e-13
3.20597e-13
3.21114e-13
3.21648e-13
3.22061e-13
3.22086e-13
3.22149e-13
3.22632e-13
3.23141e-13
3.23463e-13
3.23419e-13
3.23386e-13
3.23804e-13
3.24239e-13
3.24448e-13
3.24407e-13
3.24524e-13
3.24953e-13
3.25259e-13
3.25589e-13
3.25728e-13
3.25813e-13
3.26096e-13
3.26348e-13
3.26574e-13
3.26666e-13
3.26809e-13
3.27139e-13
3.27326e-13
3.27639e-13
3.27791e-13
3.2789e-13
3.27906e-13
3.2799e-13
3.28427e-13
3.28584e-13
3.28385e-13
3.28346e-13
3.2852e-13
3.28836e-13
3.28962e-13
3.28878e-13
3.28909e-13
3.29086e-13
3.29624e-13
3.29783e-13
3.29809e-13
3.30157e-13
3.30199e-13
3.30507e-13
3.30743e-13
3.30702e-13
3.3093e-13
3.31108e-13
3.3148e-13
3.315e-13
3.31546e-13
3.31662e-13
3.31598e-13
3.31613e-13
3.31411e-13
3.31668e-13
3.31775e-13
3.31528e-13
3.31824e-13
3.31754e-13
3.31685e-13
3.3171e-13
3.31423e-13
3.31711e-13
3.31662e-13
3.31497e-13
3.31719e-13
3.31406e-13
3.31445e-13
3.31446e-13
3.31146e-13
3.31357e-13
3.31394e-13
3.3136e-13
3.31038e-13
3.30702e-13
3.31137e-13
3.31059e-13
3.30922e-13
3.30495e-13
3.30024e-13
3.30508e-13
3.30569e-13
3.30117e-13
3.29442e-13
3.29221e-13
3.29557e-13
3.29595e-13
3.2903e-13
3.28149e-13
3.28345e-13
3.28458e-13
3.27513e-13
3.27378e-13
3.27574e-13
3.27252e-13
3.26666e-13
3.25616e-13
3.25539e-13
3.2578e-13
3.25355e-13
3.24615e-13
3.23475e-13
3.23295e-13
3.2319e-13
3.22653e-13
3.2214e-13
3.21146e-13
3.20679e-13
3.20107e-13
3.19456e-13
3.1899e-13
3.17859e-13
3.1702e-13
3.16335e-13
3.15496e-13
3.14709e-13
3.13272e-13
3.12349e-13
3.11344e-13
3.1032e-13
3.09688e-13
3.0826e-13
3.06743e-13
3.05592e-13
3.0484e-13
3.03975e-13
3.02344e-13
3.01202e-13
3.00166e-13
2.99002e-13
2.97967e-13
2.96255e-13
2.95078e-13
2.93958e-13
2.92733e-13
2.91804e-13
2.90176e-13
2.88958e-13
2.87866e-13
2.86589e-13
2.85394e-13
2.83746e-13
2.82517e-13
2.81548e-13
2.80436e-13
2.79169e-13
2.77482e-13
2.76135e-13
2.74881e-13
2.73538e-13
2.72134e-13
2.70407e-13
2.68945e-13
2.6758e-13
2.65767e-13
2.64212e-13
2.62482e-13
2.60846e-13
2.59513e-13
2.57996e-13
2.56476e-13
2.54618e-13
2.5269e-13
2.51263e-13
2.49953e-13
2.48269e-13
2.46152e-13
2.44465e-13
2.43133e-13
2.41661e-13
2.39576e-13
2.37401e-13
2.35819e-13
2.34102e-13
2.32458e-13
2.30218e-13
2.27799e-13
2.25904e-13
2.23882e-13
2.21998e-13
2.19643e-13
2.16807e-13
2.13996e-13
2.11109e-13
2.0849e-13
2.05253e-13
2.01803e-13
1.98106e-13
1.93811e-13
1.89684e-13
1.8471e-13
1.78574e-13
1.7162e-13
1.62545e-13
1.50463e-13
1.27873e-13
1.32649e-13
1.44994e-13
1.5631e-13
1.65502e-13
1.72942e-13
1.79046e-13
1.84289e-13
1.88914e-13
1.92946e-13
1.96634e-13
1.99977e-13
2.03065e-13
2.05879e-13
2.08617e-13
2.11151e-13
2.13603e-13
2.15999e-13
2.18326e-13
2.20531e-13
2.22723e-13
2.248e-13
2.2682e-13
2.28775e-13
2.30634e-13
2.32485e-13
2.34307e-13
2.36052e-13
2.3767e-13
2.39242e-13
2.40842e-13
2.42396e-13
2.4381e-13
2.45263e-13
2.46843e-13
2.48308e-13
2.49764e-13
2.51138e-13
2.52551e-13
2.53932e-13
2.55266e-13
2.56506e-13
2.5778e-13
2.59065e-13
2.60152e-13
2.61303e-13
2.62497e-13
2.63782e-13
2.64958e-13
2.66056e-13
2.6729e-13
2.68519e-13
2.69752e-13
2.70964e-13
2.7216e-13
2.73303e-13
2.74411e-13
2.75556e-13
2.7669e-13
2.7789e-13
2.78923e-13
2.80099e-13
2.81115e-13
2.82116e-13
2.83153e-13
2.84149e-13
2.8517e-13
2.86188e-13
2.8715e-13
2.88118e-13
2.89133e-13
2.90091e-13
2.91173e-13
2.92137e-13
2.9306e-13
2.93902e-13
2.94874e-13
2.9575e-13
2.96499e-13
2.97333e-13
2.98118e-13
2.99015e-13
2.99796e-13
3.00444e-13
3.01069e-13
3.01839e-13
3.0271e-13
3.03404e-13
3.04179e-13
3.04788e-13
3.05405e-13
3.0609e-13
3.06768e-13
3.07379e-13
3.07959e-13
3.0859e-13
3.09276e-13
3.09841e-13
3.1049e-13
3.11151e-13
3.11781e-13
3.12356e-13
3.13015e-13
3.1357e-13
3.1411e-13
3.1463e-13
3.15245e-13
3.15881e-13
3.16517e-13
3.16875e-13
3.17389e-13
3.17945e-13
3.18434e-13
3.18765e-13
3.19056e-13
3.19459e-13
3.19936e-13
3.20395e-13
3.2051e-13
3.20667e-13
3.21075e-13
3.21645e-13
3.22008e-13
3.22126e-13
3.22283e-13
3.22679e-13
3.23032e-13
3.23472e-13
3.23434e-13
3.23472e-13
3.23815e-13
3.2415e-13
3.24396e-13
3.24498e-13
3.24531e-13
3.24872e-13
3.25239e-13
3.25598e-13
3.25807e-13
3.25815e-13
3.26017e-13
3.2637e-13
3.26608e-13
3.26679e-13
3.2683e-13
3.27173e-13
3.27364e-13
3.27525e-13
3.2768e-13
3.279e-13
3.28078e-13
3.28127e-13
3.2828e-13
3.28353e-13
3.28413e-13
3.28512e-13
3.28617e-13
3.28782e-13
3.28937e-13
3.28878e-13
3.28961e-13
3.29194e-13
3.29546e-13
3.29706e-13
3.29828e-13
3.30099e-13
3.30301e-13
3.30348e-13
3.30587e-13
3.30835e-13
3.31024e-13
3.31252e-13
3.31392e-13
3.31424e-13
3.31451e-13
3.31472e-13
3.31781e-13
3.31707e-13
3.31608e-13
3.31605e-13
3.31619e-13
3.31728e-13
3.31799e-13
3.31692e-13
3.31588e-13
3.31661e-13
3.31651e-13
3.31696e-13
3.3166e-13
3.31524e-13
3.31469e-13
3.31415e-13
3.31439e-13
3.31376e-13
3.31369e-13
3.31301e-13
3.31311e-13
3.31217e-13
3.3117e-13
3.31131e-13
3.30961e-13
3.30891e-13
3.30777e-13
3.30607e-13
3.30472e-13
3.3032e-13
3.3021e-13
3.30056e-13
3.2977e-13
3.29647e-13
3.29368e-13
3.2917e-13
3.28935e-13
3.28517e-13
3.28428e-13
3.28229e-13
3.27888e-13
3.27614e-13
3.27187e-13
3.26889e-13
3.26646e-13
3.26102e-13
3.2574e-13
3.2553e-13
3.25045e-13
3.24568e-13
3.23879e-13
3.23433e-13
3.23126e-13
3.22618e-13
3.22034e-13
3.21308e-13
3.20671e-13
3.20072e-13
3.19503e-13
3.18987e-13
3.1811e-13
3.17186e-13
3.16158e-13
3.15378e-13
3.14586e-13
3.1352e-13
3.12506e-13
3.11273e-13
3.10297e-13
3.09468e-13
3.08219e-13
3.06987e-13
3.0584e-13
3.04814e-13
3.03737e-13
3.02353e-13
3.01257e-13
3.00227e-13
2.99065e-13
2.9778e-13
2.96308e-13
2.9516e-13
2.94058e-13
2.92788e-13
2.91585e-13
2.90255e-13
2.89074e-13
2.87837e-13
2.86595e-13
2.85242e-13
2.83874e-13
2.8278e-13
2.8154e-13
2.80275e-13
2.79078e-13
2.77613e-13
2.76247e-13
2.74857e-13
2.73532e-13
2.72105e-13
2.70438e-13
2.6901e-13
2.67423e-13
2.65816e-13
2.64293e-13
2.62545e-13
2.60983e-13
2.59397e-13
2.57896e-13
2.56442e-13
2.5458e-13
2.52919e-13
2.51439e-13
2.4983e-13
2.48149e-13
2.46267e-13
2.44719e-13
2.43151e-13
2.41353e-13
2.39597e-13
2.37725e-13
2.35878e-13
2.34179e-13
2.32198e-13
2.30347e-13
2.28174e-13
2.26025e-13
2.24072e-13
2.21908e-13
2.1954e-13
2.16826e-13
2.14241e-13
2.11579e-13
2.08659e-13
2.05414e-13
2.02012e-13
1.98394e-13
1.94397e-13
1.90049e-13
1.85287e-13
1.797e-13
1.73269e-13
1.6537e-13
1.56155e-13
1.44795e-13
1.53202e-13
1.57227e-13
1.63574e-13
1.70063e-13
1.75856e-13
1.81091e-13
1.8587e-13
1.90063e-13
1.93944e-13
1.97427e-13
2.0055e-13
2.03563e-13
2.06363e-13
2.09052e-13
2.11567e-13
2.13829e-13
2.16195e-13
2.1854e-13
2.20713e-13
2.22966e-13
2.24993e-13
2.26984e-13
2.28854e-13
2.30702e-13
2.32685e-13
2.34399e-13
2.36184e-13
2.37729e-13
2.39311e-13
2.40951e-13
2.42495e-13
2.43931e-13
2.4543e-13
2.46893e-13
2.48379e-13
2.49788e-13
2.51216e-13
2.5266e-13
2.5406e-13
2.55414e-13
2.56571e-13
2.57932e-13
2.59181e-13
2.60201e-13
2.61357e-13
2.62495e-13
2.63757e-13
2.64946e-13
2.66155e-13
2.67337e-13
2.68496e-13
2.69769e-13
2.71055e-13
2.72255e-13
2.73365e-13
2.74386e-13
2.75569e-13
2.76787e-13
2.77881e-13
2.78951e-13
2.80086e-13
2.8119e-13
2.82144e-13
2.83166e-13
2.84215e-13
2.85185e-13
2.86125e-13
2.87179e-13
2.88137e-13
2.89119e-13
2.90118e-13
2.9113e-13
2.9217e-13
2.93119e-13
2.94012e-13
2.94866e-13
2.95731e-13
2.96626e-13
2.97383e-13
2.9816e-13
2.99094e-13
2.99802e-13
3.00482e-13
3.01131e-13
3.019e-13
3.02732e-13
3.03411e-13
3.04163e-13
3.04912e-13
3.05509e-13
3.06064e-13
3.06712e-13
3.07411e-13
3.07968e-13
3.08594e-13
3.0923e-13
3.09867e-13
3.10548e-13
3.11208e-13
3.11754e-13
3.12336e-13
3.13012e-13
3.13485e-13
3.14107e-13
3.14589e-13
3.15202e-13
3.1591e-13
3.16542e-13
3.16975e-13
3.17394e-13
3.17959e-13
3.18374e-13
3.18948e-13
3.19223e-13
3.19526e-13
3.19864e-13
3.20359e-13
3.20554e-13
3.20712e-13
3.21025e-13
3.2159e-13
3.21949e-13
3.22105e-13
3.22488e-13
3.22837e-13
3.23036e-13
3.23269e-13
3.23445e-13
3.23546e-13
3.23873e-13
3.24213e-13
3.24335e-13
3.24516e-13
3.24611e-13
3.2479e-13
3.25242e-13
3.25622e-13
3.25779e-13
3.25836e-13
3.25999e-13
3.26356e-13
3.26579e-13
3.26685e-13
3.26884e-13
3.27198e-13
3.27365e-13
3.27544e-13
3.27709e-13
3.27879e-13
3.28137e-13
3.28221e-13
3.28206e-13
3.28184e-13
3.28414e-13
3.28656e-13
3.28671e-13
3.28805e-13
3.28899e-13
3.2896e-13
3.29036e-13
3.29195e-13
3.29441e-13
3.29683e-13
3.2982e-13
3.30005e-13
3.30301e-13
3.30335e-13
3.30564e-13
3.30909e-13
3.31131e-13
3.31296e-13
3.31326e-13
3.31433e-13
3.31389e-13
3.31461e-13
3.31681e-13
3.31752e-13
3.31795e-13
3.31607e-13
3.31501e-13
3.3168e-13
3.31786e-13
3.31652e-13
3.31612e-13
3.31693e-13
3.3172e-13
3.31568e-13
3.31604e-13
3.31525e-13
3.31289e-13
3.31448e-13
3.31496e-13
3.31398e-13
3.31338e-13
3.3123e-13
3.31253e-13
3.31171e-13
3.31217e-13
3.31288e-13
3.31015e-13
3.30873e-13
3.30736e-13
3.30606e-13
3.30573e-13
3.30353e-13
3.30081e-13
3.29974e-13
3.29933e-13
3.29879e-13
3.29367e-13
3.28974e-13
3.2893e-13
3.28711e-13
3.28507e-13
3.2829e-13
3.28022e-13
3.27585e-13
3.27004e-13
3.26755e-13
3.26728e-13
3.26346e-13
3.25942e-13
3.25396e-13
3.24927e-13
3.24496e-13
3.24e-13
3.23595e-13
3.2325e-13
3.22643e-13
3.21929e-13
3.21256e-13
3.20705e-13
3.20212e-13
3.19633e-13
3.19021e-13
3.18193e-13
3.17288e-13
3.16175e-13
3.15423e-13
3.14584e-13
3.13426e-13
3.12521e-13
3.11375e-13
3.10307e-13
3.09297e-13
3.08218e-13
3.07162e-13
3.0603e-13
3.04793e-13
3.03708e-13
3.0249e-13
3.01297e-13
3.00166e-13
2.99027e-13
2.97771e-13
2.96425e-13
2.9524e-13
2.93966e-13
2.92748e-13
2.91698e-13
2.90445e-13
2.89191e-13
2.87655e-13
2.86446e-13
2.85171e-13
2.84057e-13
2.83024e-13
2.81645e-13
2.80213e-13
2.79101e-13
2.7769e-13
2.76325e-13
2.74962e-13
2.73533e-13
2.72152e-13
2.70446e-13
2.69034e-13
2.67463e-13
2.65906e-13
2.64378e-13
2.62499e-13
2.61083e-13
2.59488e-13
2.57862e-13
2.56463e-13
2.54588e-13
2.52974e-13
2.51622e-13
2.49905e-13
2.48198e-13
2.46359e-13
2.44693e-13
2.43085e-13
2.41477e-13
2.3984e-13
2.37878e-13
2.35972e-13
2.34278e-13
2.32341e-13
2.30588e-13
2.28511e-13
2.26396e-13
2.24344e-13
2.21953e-13
2.19603e-13
2.17031e-13
2.14761e-13
2.12156e-13
2.09161e-13
2.06069e-13
2.02618e-13
1.9926e-13
1.95511e-13
1.91133e-13
1.86824e-13
1.81815e-13
1.76292e-13
1.70012e-13
1.63512e-13
1.57135e-13
1.64811e-13
1.6671e-13
1.70543e-13
1.75074e-13
1.79511e-13
1.83867e-13
1.87943e-13
1.91722e-13
1.954e-13
1.98534e-13
2.01358e-13
2.04396e-13
2.07102e-13
2.0963e-13
2.12144e-13
2.14379e-13
2.16658e-13
2.18786e-13
2.21033e-13
2.23255e-13
2.25337e-13
2.27312e-13
2.29164e-13
2.3079e-13
2.32913e-13
2.34517e-13
2.36311e-13
2.3789e-13
2.39474e-13
2.41083e-13
2.42646e-13
2.43959e-13
2.45568e-13
2.47134e-13
2.48577e-13
2.49869e-13
2.51307e-13
2.5281e-13
2.54224e-13
2.55575e-13
2.56679e-13
2.58155e-13
2.59341e-13
2.60241e-13
2.61289e-13
2.62503e-13
2.63743e-13
2.64974e-13
2.66289e-13
2.67396e-13
2.68718e-13
2.69832e-13
2.71065e-13
2.72348e-13
2.73348e-13
2.74408e-13
2.75609e-13
2.76909e-13
2.77945e-13
2.79032e-13
2.8008e-13
2.81241e-13
2.82223e-13
2.83207e-13
2.84388e-13
2.8518e-13
2.86205e-13
2.87219e-13
2.8829e-13
2.89068e-13
2.90123e-13
2.91015e-13
2.92159e-13
2.93266e-13
2.94096e-13
2.94978e-13
2.95785e-13
2.96718e-13
2.97464e-13
2.98305e-13
2.99015e-13
2.99794e-13
3.00491e-13
3.01134e-13
3.02045e-13
3.02821e-13
3.03595e-13
3.04202e-13
3.04978e-13
3.05513e-13
3.06046e-13
3.06663e-13
3.07402e-13
3.07819e-13
3.08594e-13
3.09265e-13
3.09997e-13
3.10619e-13
3.11271e-13
3.11655e-13
3.12289e-13
3.12973e-13
3.13436e-13
3.14215e-13
3.14658e-13
3.15294e-13
3.15974e-13
3.16517e-13
3.17036e-13
3.17405e-13
3.17896e-13
3.18396e-13
3.19061e-13
3.19249e-13
3.19658e-13
3.19881e-13
3.20271e-13
3.20516e-13
3.20759e-13
3.21091e-13
3.21449e-13
3.21733e-13
3.22137e-13
3.22772e-13
3.22911e-13
3.23021e-13
3.23237e-13
3.23444e-13
3.23674e-13
3.2394e-13
3.24165e-13
3.2431e-13
3.2459e-13
3.24691e-13
3.24783e-13
3.25139e-13
3.25467e-13
3.25761e-13
3.25811e-13
3.25979e-13
3.26261e-13
3.265e-13
3.26838e-13
3.26941e-13
3.2717e-13
3.27523e-13
3.27608e-13
3.27758e-13
3.27956e-13
3.28059e-13
3.2812e-13
3.28186e-13
3.28265e-13
3.28443e-13
3.28581e-13
3.28729e-13
3.28757e-13
3.28747e-13
3.28952e-13
3.29151e-13
3.29202e-13
3.29294e-13
3.29531e-13
3.29866e-13
3.30043e-13
3.30245e-13
3.30387e-13
3.30549e-13
3.30917e-13
3.31183e-13
3.314e-13
3.31467e-13
3.31365e-13
3.31273e-13
3.31548e-13
3.31623e-13
3.31701e-13
3.31715e-13
3.31589e-13
3.31489e-13
3.31711e-13
3.3182e-13
3.31757e-13
3.3175e-13
3.31603e-13
3.31573e-13
3.31474e-13
3.31547e-13
3.31418e-13
3.31378e-13
3.31448e-13
3.31404e-13
3.31291e-13
3.31335e-13
3.31307e-13
3.3128e-13
3.31205e-13
3.31204e-13
3.31154e-13
3.31051e-13
3.30947e-13
3.30845e-13
3.30683e-13
3.30518e-13
3.30311e-13
3.3026e-13
3.29972e-13
3.29912e-13
3.29834e-13
3.29537e-13
3.29241e-13
3.29105e-13
3.28661e-13
3.2846e-13
3.28515e-13
3.28032e-13
3.27443e-13
3.27028e-13
3.26748e-13
3.26721e-13
3.26317e-13
3.26041e-13
3.25495e-13
3.24915e-13
3.24601e-13
3.24048e-13
3.23727e-13
3.23211e-13
3.22712e-13
3.2213e-13
3.21372e-13
3.20831e-13
3.20349e-13
3.19613e-13
3.18872e-13
3.18379e-13
3.17503e-13
3.16537e-13
3.15366e-13
3.14514e-13
3.13597e-13
3.12615e-13
3.11338e-13
3.10356e-13
3.09298e-13
3.08384e-13
3.07262e-13
3.05981e-13
3.04777e-13
3.03884e-13
3.02669e-13
3.01306e-13
3.00211e-13
2.98975e-13
2.97603e-13
2.96619e-13
2.95239e-13
2.93973e-13
2.9265e-13
2.91634e-13
2.90666e-13
2.89234e-13
2.8763e-13
2.86493e-13
2.85281e-13
2.84067e-13
2.83024e-13
2.81747e-13
2.80385e-13
2.79148e-13
2.77691e-13
2.76407e-13
2.75157e-13
2.73655e-13
2.72034e-13
2.7063e-13
2.69183e-13
2.67615e-13
2.66038e-13
2.64293e-13
2.62486e-13
2.61098e-13
2.59586e-13
2.57909e-13
2.56531e-13
2.5489e-13
2.53037e-13
2.51537e-13
2.49872e-13
2.4834e-13
2.46549e-13
2.44803e-13
2.43035e-13
2.41522e-13
2.39989e-13
2.38265e-13
2.36258e-13
2.34308e-13
2.32583e-13
2.30907e-13
2.28976e-13
2.26751e-13
2.24733e-13
2.22452e-13
2.20072e-13
2.17767e-13
2.15356e-13
2.12557e-13
2.0988e-13
2.06988e-13
2.0375e-13
2.00625e-13
1.96851e-13
1.92933e-13
1.88911e-13
1.84556e-13
1.80171e-13
1.75384e-13
1.70563e-13
1.66782e-13
1.73537e-13
1.74423e-13
1.76794e-13
1.80029e-13
1.83344e-13
1.86909e-13
1.9035e-13
1.93645e-13
1.9709e-13
2.00058e-13
2.02822e-13
2.05563e-13
2.08063e-13
2.10297e-13
2.12703e-13
2.1492e-13
2.17279e-13
2.19481e-13
2.21576e-13
2.23653e-13
2.25624e-13
2.27695e-13
2.29414e-13
2.31087e-13
2.33098e-13
2.34798e-13
2.36499e-13
2.38191e-13
2.39788e-13
2.41122e-13
2.42812e-13
2.44146e-13
2.45636e-13
2.47418e-13
2.48792e-13
2.50009e-13
2.51387e-13
2.53e-13
2.54456e-13
2.55783e-13
2.56988e-13
2.58284e-13
2.59308e-13
2.60372e-13
2.61421e-13
2.62545e-13
2.6388e-13
2.64987e-13
2.66339e-13
2.67582e-13
2.68783e-13
2.69841e-13
2.71063e-13
2.72307e-13
2.73452e-13
2.74384e-13
2.75565e-13
2.76784e-13
2.78017e-13
2.79224e-13
2.80303e-13
2.81379e-13
2.82337e-13
2.83115e-13
2.84265e-13
2.85389e-13
2.86362e-13
2.87217e-13
2.88095e-13
2.89092e-13
2.9028e-13
2.91098e-13
2.92297e-13
2.93456e-13
2.94163e-13
2.95066e-13
2.9596e-13
2.96649e-13
2.97535e-13
2.98285e-13
2.99018e-13
2.99866e-13
3.00532e-13
3.01157e-13
3.02067e-13
3.02844e-13
3.03642e-13
3.04259e-13
3.04885e-13
3.05519e-13
3.0615e-13
3.06662e-13
3.07292e-13
3.07867e-13
3.08459e-13
3.0916e-13
3.1016e-13
3.10635e-13
3.11233e-13
3.11748e-13
3.12351e-13
3.12935e-13
3.13566e-13
3.14272e-13
3.14922e-13
3.15298e-13
3.16019e-13
3.16717e-13
3.17109e-13
3.17316e-13
3.17866e-13
3.184e-13
3.18976e-13
3.19258e-13
3.19635e-13
3.20011e-13
3.20049e-13
3.20491e-13
3.20759e-13
3.21169e-13
3.21429e-13
3.21647e-13
3.22097e-13
3.22799e-13
3.22937e-13
3.23078e-13
3.23379e-13
3.23592e-13
3.23684e-13
3.23777e-13
3.24079e-13
3.24468e-13
3.24543e-13
3.24795e-13
3.24828e-13
3.25057e-13
3.25481e-13
3.25679e-13
3.25738e-13
3.25939e-13
3.2627e-13
3.26464e-13
3.26798e-13
3.26975e-13
3.27054e-13
3.2755e-13
3.2757e-13
3.2777e-13
3.27949e-13
3.28053e-13
3.28114e-13
3.28265e-13
3.28422e-13
3.28375e-13
3.28616e-13
3.28607e-13
3.28592e-13
3.28799e-13
3.29018e-13
3.2929e-13
3.29287e-13
3.29061e-13
3.29389e-13
3.2984e-13
3.30132e-13
3.30364e-13
3.30533e-13
3.30698e-13
3.30871e-13
3.31196e-13
3.31451e-13
3.31377e-13
3.31172e-13
3.31334e-13
3.31487e-13
3.31686e-13
3.31832e-13
3.31542e-13
3.31399e-13
3.31481e-13
3.31665e-13
3.31931e-13
3.31803e-13
3.31852e-13
3.31601e-13
3.31552e-13
3.31603e-13
3.31472e-13
3.31533e-13
3.31457e-13
3.31435e-13
3.31337e-13
3.31144e-13
3.31332e-13
3.31525e-13
3.3129e-13
3.31305e-13
3.31255e-13
3.31079e-13
3.312e-13
3.3108e-13
3.30849e-13
3.30824e-13
3.30636e-13
3.30318e-13
3.30252e-13
3.30236e-13
3.29963e-13
3.29819e-13
3.29623e-13
3.29327e-13
3.29114e-13
3.28861e-13
3.28511e-13
3.28522e-13
3.27966e-13
3.27523e-13
3.27149e-13
3.26898e-13
3.26757e-13
3.26354e-13
3.25898e-13
3.25447e-13
3.24941e-13
3.24553e-13
3.24226e-13
3.2373e-13
3.23255e-13
3.22992e-13
3.22325e-13
3.21444e-13
3.20787e-13
3.205e-13
3.19686e-13
3.19048e-13
3.18403e-13
3.17679e-13
3.16628e-13
3.1545e-13
3.14525e-13
3.1378e-13
3.12709e-13
3.11264e-13
3.10505e-13
3.09454e-13
3.0862e-13
3.07346e-13
3.06063e-13
3.04967e-13
3.03763e-13
3.02654e-13
3.01423e-13
3.00355e-13
2.99003e-13
2.97774e-13
2.96701e-13
2.95294e-13
2.93987e-13
2.9285e-13
2.91518e-13
2.90521e-13
2.89158e-13
2.87809e-13
2.86569e-13
2.85344e-13
2.8417e-13
2.829e-13
2.8183e-13
2.80381e-13
2.79073e-13
2.77945e-13
2.76542e-13
2.75332e-13
2.73695e-13
2.72144e-13
2.70841e-13
2.69241e-13
2.67783e-13
2.66079e-13
2.64189e-13
2.62646e-13
2.61265e-13
2.59694e-13
2.58142e-13
2.56419e-13
2.54988e-13
2.53304e-13
2.51486e-13
2.49953e-13
2.48261e-13
2.46676e-13
2.44902e-13
2.43254e-13
2.41784e-13
2.40034e-13
2.38623e-13
2.36531e-13
2.34509e-13
2.32741e-13
2.31192e-13
2.29343e-13
2.27059e-13
2.25284e-13
2.23181e-13
2.20754e-13
2.18594e-13
2.16146e-13
2.13415e-13
2.10836e-13
2.08174e-13
2.05199e-13
2.02087e-13
1.98588e-13
1.95141e-13
1.91438e-13
1.88e-13
1.84421e-13
1.80501e-13
1.77026e-13
1.7462e-13
1.80295e-13
1.80804e-13
1.82428e-13
1.84759e-13
1.87233e-13
1.90029e-13
1.92992e-13
1.95812e-13
1.99026e-13
2.016e-13
2.04321e-13
2.0699e-13
2.09239e-13
2.11391e-13
2.13638e-13
2.1564e-13
2.17963e-13
2.20204e-13
2.22127e-13
2.23983e-13
2.25844e-13
2.27913e-13
2.29767e-13
2.31722e-13
2.33443e-13
2.35154e-13
2.36827e-13
2.38444e-13
2.39948e-13
2.41396e-13
2.43002e-13
2.44369e-13
2.45939e-13
2.47722e-13
2.49016e-13
2.50293e-13
2.51654e-13
2.53131e-13
2.54551e-13
2.56074e-13
2.57257e-13
2.58432e-13
2.59528e-13
2.60669e-13
2.61639e-13
2.62748e-13
2.63926e-13
2.65093e-13
2.66336e-13
2.6775e-13
2.68856e-13
2.70058e-13
2.71156e-13
2.7228e-13
2.73408e-13
2.74465e-13
2.75652e-13
2.76998e-13
2.78065e-13
2.79403e-13
2.80417e-13
2.8151e-13
2.8243e-13
2.83312e-13
2.84457e-13
2.85435e-13
2.86264e-13
2.87099e-13
2.88203e-13
2.89263e-13
2.90432e-13
2.91334e-13
2.92383e-13
2.93358e-13
2.94326e-13
2.95267e-13
2.95989e-13
2.96595e-13
2.9754e-13
2.9835e-13
2.99121e-13
2.99838e-13
3.00683e-13
3.0153e-13
3.02129e-13
3.0283e-13
3.036e-13
3.04258e-13
3.04941e-13
3.0547e-13
3.06169e-13
3.06495e-13
3.07226e-13
3.07855e-13
3.08323e-13
3.09066e-13
3.10169e-13
3.10769e-13
3.11191e-13
3.11746e-13
3.12451e-13
3.12938e-13
3.1364e-13
3.14484e-13
3.15091e-13
3.15437e-13
3.16238e-13
3.1686e-13
3.17044e-13
3.1728e-13
3.17893e-13
3.18417e-13
3.18899e-13
3.19298e-13
3.19584e-13
3.19823e-13
3.20073e-13
3.2033e-13
3.20847e-13
3.21222e-13
3.21409e-13
3.21798e-13
3.22198e-13
3.22676e-13
3.22913e-13
3.2316e-13
3.23411e-13
3.23654e-13
3.23776e-13
3.23672e-13
3.24111e-13
3.24411e-13
3.24436e-13
3.24798e-13
3.24951e-13
3.25031e-13
3.25197e-13
3.25722e-13
3.25769e-13
3.25931e-13
3.26024e-13
3.26454e-13
3.26818e-13
3.27028e-13
3.27129e-13
3.27455e-13
3.27529e-13
3.27705e-13
3.27947e-13
3.28097e-13
3.2824e-13
3.28297e-13
3.28417e-13
3.28432e-13
3.28599e-13
3.28513e-13
3.28681e-13
3.28982e-13
3.29156e-13
3.29202e-13
3.2925e-13
3.29266e-13
3.29544e-13
3.29878e-13
3.30229e-13
3.3047e-13
3.30722e-13
3.30659e-13
3.30938e-13
3.31109e-13
3.31243e-13
3.31362e-13
3.31373e-13
3.31371e-13
3.31444e-13
3.3157e-13
3.31567e-13
3.3163e-13
3.31434e-13
3.3162e-13
3.3167e-13
3.31574e-13
3.31796e-13
3.31853e-13
3.31773e-13
3.31669e-13
3.317e-13
3.31618e-13
3.31571e-13
3.31419e-13
3.3134e-13
3.31438e-13
3.31224e-13
3.31218e-13
3.31378e-13
3.31291e-13
3.31285e-13
3.31444e-13
3.31342e-13
3.31382e-13
3.31177e-13
3.31011e-13
3.30867e-13
3.30586e-13
3.30392e-13
3.30378e-13
3.30317e-13
3.29921e-13
3.29951e-13
3.29899e-13
3.29562e-13
3.29285e-13
3.28878e-13
3.28605e-13
3.28394e-13
3.28084e-13
3.27635e-13
3.27196e-13
3.26928e-13
3.26786e-13
3.26239e-13
3.26071e-13
3.25707e-13
3.24794e-13
3.24439e-13
3.24213e-13
3.238e-13
3.23531e-13
3.22943e-13
3.22397e-13
3.21755e-13
3.20998e-13
3.20476e-13
3.19834e-13
3.19286e-13
3.18517e-13
3.17802e-13
3.16847e-13
3.15729e-13
3.14513e-13
3.13789e-13
3.12878e-13
3.11686e-13
3.10514e-13
3.09407e-13
3.08736e-13
3.07437e-13
3.06221e-13
3.05154e-13
3.04011e-13
3.02698e-13
3.01236e-13
3.00171e-13
2.99085e-13
2.97898e-13
2.96798e-13
2.95447e-13
2.94089e-13
2.92807e-13
2.91833e-13
2.90624e-13
2.89121e-13
2.87723e-13
2.86586e-13
2.85494e-13
2.83991e-13
2.82923e-13
2.81729e-13
2.80477e-13
2.79231e-13
2.77817e-13
2.76607e-13
2.75371e-13
2.73678e-13
2.72315e-13
2.71023e-13
2.69358e-13
2.6794e-13
2.66215e-13
2.64247e-13
2.62768e-13
2.61471e-13
2.59859e-13
2.58367e-13
2.56529e-13
2.55213e-13
2.53547e-13
2.51786e-13
2.49985e-13
2.48419e-13
2.46736e-13
2.45065e-13
2.434e-13
2.41928e-13
2.40305e-13
2.38515e-13
2.36822e-13
2.35086e-13
2.33328e-13
2.31396e-13
2.29683e-13
2.27714e-13
2.25736e-13
2.23561e-13
2.21409e-13
2.19471e-13
2.17379e-13
2.14687e-13
2.12055e-13
2.09477e-13
2.06583e-13
2.03731e-13
2.00801e-13
1.97553e-13
1.94255e-13
1.91254e-13
1.88473e-13
1.85522e-13
1.82873e-13
1.81135e-13
1.85949e-13
1.86258e-13
1.87479e-13
1.89136e-13
1.91049e-13
1.93085e-13
1.95793e-13
1.98181e-13
2.01071e-13
2.0347e-13
2.05956e-13
2.08481e-13
2.10403e-13
2.12521e-13
2.1469e-13
2.16796e-13
2.18771e-13
2.20755e-13
2.22748e-13
2.24427e-13
2.262e-13
2.28325e-13
2.30174e-13
2.32363e-13
2.33978e-13
2.35568e-13
2.37276e-13
2.38732e-13
2.40432e-13
2.41721e-13
2.4325e-13
2.44598e-13
2.46338e-13
2.48076e-13
2.49653e-13
2.50596e-13
2.51897e-13
2.53309e-13
2.54802e-13
2.56257e-13
2.5754e-13
2.58565e-13
2.59608e-13
2.6103e-13
2.61881e-13
2.62913e-13
2.63989e-13
2.65308e-13
2.66359e-13
2.67593e-13
2.69249e-13
2.70247e-13
2.71365e-13
2.72528e-13
2.73265e-13
2.74397e-13
2.7578e-13
2.76934e-13
2.7817e-13
2.79678e-13
2.80585e-13
2.81651e-13
2.82693e-13
2.83547e-13
2.84428e-13
2.85472e-13
2.86383e-13
2.87041e-13
2.88302e-13
2.89572e-13
2.90735e-13
2.91461e-13
2.92267e-13
2.93457e-13
2.94413e-13
2.95304e-13
2.96066e-13
2.96822e-13
2.97691e-13
2.98169e-13
2.99167e-13
3.00204e-13
3.00861e-13
3.01607e-13
3.02199e-13
3.02813e-13
3.03458e-13
3.04119e-13
3.04767e-13
3.05605e-13
3.06185e-13
3.06505e-13
3.07077e-13
3.07725e-13
3.08453e-13
3.09343e-13
3.1003e-13
3.1059e-13
3.11093e-13
3.11746e-13
3.12478e-13
3.13177e-13
3.13763e-13
3.14498e-13
3.15025e-13
3.15761e-13
3.16512e-13
3.167e-13
3.16934e-13
3.17367e-13
3.17885e-13
3.18349e-13
3.18805e-13
3.19203e-13
3.19504e-13
3.1969e-13
3.20094e-13
3.20381e-13
3.20748e-13
3.21146e-13
3.21331e-13
3.21644e-13
3.22194e-13
3.22535e-13
3.23029e-13
3.23116e-13
3.2351e-13
3.23693e-13
3.23835e-13
3.23694e-13
3.24107e-13
3.24501e-13
3.24466e-13
3.24938e-13
3.2488e-13
3.24973e-13
3.25239e-13
3.25491e-13
3.25626e-13
3.25711e-13
3.25906e-13
3.26479e-13
3.26888e-13
3.27052e-13
3.27e-13
3.27349e-13
3.27485e-13
3.27581e-13
3.27946e-13
3.27932e-13
3.28191e-13
3.28323e-13
3.28445e-13
3.2835e-13
3.2842e-13
3.28646e-13
3.28947e-13
3.29079e-13
3.29237e-13
3.29389e-13
3.29134e-13
3.29209e-13
3.297e-13
3.3008e-13
3.30235e-13
3.30426e-13
3.30617e-13
3.30753e-13
3.3094e-13
3.3114e-13
3.31004e-13
3.31293e-13
3.31616e-13
3.31567e-13
3.31306e-13
3.31453e-13
3.31384e-13
3.31405e-13
3.3148e-13
3.31845e-13
3.31657e-13
3.31323e-13
3.31734e-13
3.31728e-13
3.31788e-13
3.31715e-13
3.31756e-13
3.3166e-13
3.31662e-13
3.31293e-13
3.31284e-13
3.31584e-13
3.3144e-13
3.31185e-13
3.31397e-13
3.31274e-13
3.31375e-13
3.31211e-13
3.31391e-13
3.31711e-13
3.31452e-13
3.31355e-13
3.30745e-13
3.30545e-13
3.30559e-13
3.30348e-13
3.30415e-13
3.30178e-13
3.30066e-13
3.3017e-13
3.29756e-13
3.29479e-13
3.28943e-13
3.28701e-13
3.28679e-13
3.28085e-13
3.27811e-13
3.27347e-13
3.27127e-13
3.26879e-13
3.26452e-13
3.26041e-13
3.25769e-13
3.24846e-13
3.24414e-13
3.24076e-13
3.23874e-13
3.23494e-13
3.23192e-13
3.22362e-13
3.21986e-13
3.21246e-13
3.20598e-13
3.20046e-13
3.19327e-13
3.1858e-13
3.18009e-13
3.17161e-13
3.16075e-13
3.14821e-13
3.13859e-13
3.13111e-13
3.11714e-13
3.10792e-13
3.09175e-13
3.08635e-13
3.07641e-13
3.06366e-13
3.05428e-13
3.04e-13
3.02797e-13
3.0125e-13
3.00159e-13
2.99207e-13
2.97917e-13
2.9671e-13
2.95592e-13
2.94407e-13
2.92943e-13
2.91901e-13
2.90648e-13
2.89182e-13
2.87946e-13
2.86551e-13
2.85396e-13
2.84112e-13
2.83058e-13
2.81703e-13
2.80385e-13
2.79317e-13
2.77975e-13
2.76736e-13
2.75409e-13
2.73899e-13
2.72697e-13
2.7109e-13
2.69353e-13
2.67749e-13
2.66321e-13
2.645e-13
2.6311e-13
2.61795e-13
2.60063e-13
2.58565e-13
2.56885e-13
2.55469e-13
2.53836e-13
2.52099e-13
2.50141e-13
2.48505e-13
2.46737e-13
2.4535e-13
2.43758e-13
2.42139e-13
2.40574e-13
2.38641e-13
2.37124e-13
2.35508e-13
2.3384e-13
2.3196e-13
2.30372e-13
2.28646e-13
2.26519e-13
2.24525e-13
2.2231e-13
2.20642e-13
2.18331e-13
2.16087e-13
2.13348e-13
2.10944e-13
2.08385e-13
2.05557e-13
2.0298e-13
1.99951e-13
1.97162e-13
1.94765e-13
1.92449e-13
1.90187e-13
1.88015e-13
1.86754e-13
1.90984e-13
1.91195e-13
1.9207e-13
1.93194e-13
1.94634e-13
1.96465e-13
1.98615e-13
2.00662e-13
2.02977e-13
2.0544e-13
2.07723e-13
2.09982e-13
2.11863e-13
2.13942e-13
2.15965e-13
2.17774e-13
2.19616e-13
2.21615e-13
2.23261e-13
2.25015e-13
2.26966e-13
2.2867e-13
2.3069e-13
2.3291e-13
2.34396e-13
2.35876e-13
2.37892e-13
2.39359e-13
2.40503e-13
2.42319e-13
2.43646e-13
2.44899e-13
2.46585e-13
2.48091e-13
2.49741e-13
2.51023e-13
2.52128e-13
2.53589e-13
2.55021e-13
2.56369e-13
2.57646e-13
2.58609e-13
2.59918e-13
2.61182e-13
2.62129e-13
2.63047e-13
2.64407e-13
2.65521e-13
2.66404e-13
2.67833e-13
2.69214e-13
2.70503e-13
2.71884e-13
2.72671e-13
2.73321e-13
2.74624e-13
2.75908e-13
2.7694e-13
2.78375e-13
2.79924e-13
2.80886e-13
2.81679e-13
2.82742e-13
2.83853e-13
2.84438e-13
2.85736e-13
2.86413e-13
2.87081e-13
2.8847e-13
2.89742e-13
2.90821e-13
2.91709e-13
2.9235e-13
2.93616e-13
2.94683e-13
2.95548e-13
2.96404e-13
2.9685e-13
2.97618e-13
2.98153e-13
2.99267e-13
3.00205e-13
3.00862e-13
3.014e-13
3.02259e-13
3.028e-13
3.03276e-13
3.04118e-13
3.0491e-13
3.05906e-13
3.06108e-13
3.06164e-13
3.07138e-13
3.07674e-13
3.08649e-13
3.09588e-13
3.1002e-13
3.1048e-13
3.10967e-13
3.12024e-13
3.12569e-13
3.13486e-13
3.14166e-13
3.14812e-13
3.15213e-13
3.15813e-13
3.16492e-13
3.16772e-13
3.16907e-13
3.17306e-13
3.17902e-13
3.18422e-13
3.18847e-13
3.19155e-13
3.19289e-13
3.19487e-13
3.20148e-13
3.20615e-13
3.20669e-13
3.20982e-13
3.2145e-13
3.21771e-13
3.22081e-13
3.22485e-13
3.22719e-13
3.23056e-13
3.23656e-13
3.23753e-13
3.23603e-13
3.23635e-13
3.24326e-13
3.24946e-13
3.24635e-13
3.24863e-13
3.24823e-13
3.24996e-13
3.25304e-13
3.25664e-13
3.25214e-13
3.25684e-13
3.25992e-13
3.26397e-13
3.26613e-13
3.2706e-13
3.2707e-13
3.2723e-13
3.27445e-13
3.27382e-13
3.27867e-13
3.2789e-13
3.27977e-13
3.28281e-13
3.28657e-13
3.28054e-13
3.28365e-13
3.28654e-13
3.2898e-13
3.2913e-13
3.29167e-13
3.29446e-13
3.29169e-13
3.29363e-13
3.29815e-13
3.29728e-13
3.30139e-13
3.30733e-13
3.30737e-13
3.30966e-13
3.31161e-13
3.30704e-13
3.31146e-13
3.31287e-13
3.31581e-13
3.31667e-13
3.31474e-13
3.31259e-13
3.315e-13
3.3162e-13
3.31205e-13
3.31757e-13
3.31809e-13
3.31217e-13
3.31708e-13
3.31729e-13
3.31803e-13
3.31906e-13
3.31637e-13
3.31645e-13
3.31662e-13
3.3152e-13
3.31514e-13
3.31717e-13
3.31479e-13
3.31456e-13
3.3156e-13
3.3135e-13
3.31134e-13
3.31229e-13
3.31421e-13
3.31818e-13
3.31697e-13
3.31401e-13
3.30926e-13
3.30801e-13
3.30855e-13
3.30614e-13
3.30575e-13
3.302e-13
3.30256e-13
3.30157e-13