/*--------------------------------*- C++ -*----------------------------------*\
| =========                 |                                                 |
| \\      /  F ield         | OpenFOAM: The Open Source CFD Toolbox           |
|  \\    /   O peration     | Version:  2112                                  |
|   \\  /    A nd           | Website:  www.openfoam.com                      |
|    \\/     M anipulation  |                                                 |
\*---------------------------------------------------------------------------*/
FoamFile
{
    version     2.0;
    format      ascii;
    arch        "LSB;label=32;scalar=64";
    class       surfaceScalarField;
    location    "8";
    object      phi;
}
// * * * * * * * * * * * * * * * * * * * * * * * * * * * * * * * * * * * * * //

dimensions      [0 3 -1 0 0 0 0];

oriented        oriented;

internalField   nonuniform List<scalar> 
50800
(
4.7015e-05
-1.1666e-17
4.7015e-05
-4.41521e-18
4.7015e-05
-1.73102e-18
4.7015e-05
-8.81496e-19
4.7015e-05
-4.74245e-19
4.7015e-05
-2.70345e-19
4.7015e-05
-1.83795e-19
4.7015e-05
-1.30447e-19
4.7015e-05
-9.24433e-20
4.7015e-05
-8.30499e-20
4.7015e-05
-5.59065e-20
4.7015e-05
-6.15492e-20
4.7015e-05
-2.72633e-20
4.7015e-05
-2.88064e-20
4.7015e-05
-4.25443e-20
4.7015e-05
-1.54497e-20
4.7015e-05
-1.35025e-20
4.7015e-05
-3.16045e-20
4.7015e-05
-3.60361e-20
4.7015e-05
-5.05251e-20
4.7015e-05
-1.95968e-20
4.7015e-05
-2.27083e-20
4.7015e-05
-3.58957e-20
4.7015e-05
-3.78446e-20
4.7015e-05
-4.84616e-20
4.7015e-05
-3.81949e-20
4.7015e-05
6.93639e-21
4.7015e-05
-1.85867e-20
4.7015e-05
-4.5747e-20
4.7015e-05
-3.52942e-20
4.7015e-05
1.6205e-21
4.7015e-05
4.46502e-20
4.7015e-05
3.34136e-20
4.7015e-05
-6.15939e-21
4.7015e-05
-1.47549e-21
4.7015e-05
1.01357e-21
4.7015e-05
3.51155e-20
4.7015e-05
-9.33668e-21
4.7015e-05
-1.42111e-20
4.7015e-05
4.02377e-20
4.7015e-05
5.1544e-21
4.7015e-05
9.7546e-21
4.7015e-05
-1.96542e-20
4.7015e-05
-1.43291e-20
4.7015e-05
6.27872e-20
4.7015e-05
1.48986e-20
4.7015e-05
1.37703e-20
4.7015e-05
6.57943e-21
4.7015e-05
6.83482e-21
4.7015e-05
-6.66579e-21
4.7015e-05
-4.54894e-20
4.7015e-05
3.55544e-20
4.7015e-05
9.09587e-22
4.7015e-05
8.24235e-23
4.7015e-05
4.66975e-20
4.7015e-05
-2.99165e-20
4.7015e-05
7.92942e-21
4.7015e-05
3.21116e-21
4.7015e-05
8.61816e-21
4.7015e-05
5.75787e-20
4.7015e-05
-4.75814e-20
4.7015e-05
3.34751e-20
4.7015e-05
8.41734e-21
4.7015e-05
6.63217e-21
4.7015e-05
3.41667e-20
4.7015e-05
-3.69453e-20
4.7015e-05
-7.52622e-21
4.7015e-05
-6.90794e-22
4.7015e-05
1.40224e-20
4.7015e-05
1.26407e-20
4.7015e-05
-1.95438e-20
4.7015e-05
-1.61359e-20
4.7015e-05
-2.20448e-20
4.7015e-05
-2.36113e-20
4.7015e-05
6.21111e-20
4.7015e-05
-4.93652e-20
4.7015e-05
-8.28945e-20
4.7015e-05
3.93061e-20
4.7015e-05
8.68263e-21
4.7015e-05
5.59571e-20
4.7015e-05
-4.02835e-20
4.7015e-05
-9.9458e-20
4.7015e-05
2.14325e-20
4.7015e-05
5.78216e-20
4.7015e-05
6.82437e-20
4.7015e-05
1.66433e-21
4.7015e-05
-8.34131e-20
4.7015e-05
-6.24162e-20
4.7015e-05
4.67543e-20
4.7015e-05
8.79923e-20
4.7015e-05
-1.72579e-20
4.7015e-05
-9.0081e-20
4.7015e-05
9.91082e-21
4.7015e-05
9.06387e-20
4.7015e-05
3.87439e-21
4.7015e-05
-9.98747e-20
4.7015e-05
-1.48896e-20
4.7015e-05
-9.55665e-21
4.7015e-05
7.31639e-20
4.7015e-05
3.3629e-20
4.7015e-05
-1.36873e-19
4.7015e-05
-9.7514e-21
4.7015e-05
-4.37767e-20
4.7015e-05
3.94703e-20
4.7015e-05
2.89382e-20
4.7015e-05
-2.74398e-20
4.7015e-05
-6.65535e-20
4.7015e-05
-7.0037e-21
4.7015e-05
6.50783e-20
4.7015e-05
-2.31713e-21
4.7015e-05
2.73786e-20
4.7015e-05
-1.80713e-19
4.7015e-05
2.69696e-20
4.7015e-05
1.52714e-19
4.7015e-05
1.83314e-20
4.7015e-05
-4.00143e-20
4.7015e-05
-1.14909e-19
4.7015e-05
4.49412e-20
4.7015e-05
1.17917e-19
4.7015e-05
3.69023e-20
4.7015e-05
-3.66696e-20
4.7015e-05
-1.2215e-19
4.7015e-05
7.4393e-21
4.7015e-05
1.68824e-19
4.7015e-05
5.92046e-20
4.7015e-05
-7.00038e-20
4.7015e-05
-1.58241e-19
4.7015e-05
-1.15598e-20
4.7015e-05
1.47748e-19
4.7015e-05
1.67597e-20
4.7015e-05
-7.72721e-20
4.7015e-05
-1.02306e-19
4.7015e-05
4.38297e-20
4.7015e-05
1.14388e-19
4.7015e-05
-3.51136e-21
4.7015e-05
-1.55475e-20
4.7015e-05
-7.74834e-20
4.7015e-05
-1.03173e-20
4.7015e-05
9.22548e-20
4.7015e-05
4.15139e-20
4.7015e-05
-1.19255e-20
4.7015e-05
-7.3089e-20
4.7015e-05
1.67271e-20
4.7015e-05
5.61203e-20
4.7015e-05
-1.40595e-20
4.7015e-05
4.02136e-21
4.7015e-05
-7.82348e-20
4.7015e-05
-3.07143e-20
4.7015e-05
4.40762e-21
4.7015e-05
4.01156e-20
4.7015e-05
9.51298e-20
4.7015e-05
-1.21637e-19
4.7015e-05
-9.55909e-20
4.7015e-05
7.80475e-20
4.7015e-05
7.49784e-20
4.7015e-05
7.47395e-20
4.7015e-05
-5.68644e-20
4.7015e-05
-8.10158e-20
4.7015e-05
6.28574e-20
4.7015e-05
4.82522e-20
4.7015e-05
1.10106e-19
4.7015e-05
-1.13416e-19
4.7015e-05
-5.28019e-20
4.7015e-05
1.16047e-19
4.7015e-05
-9.26495e-20
4.7015e-05
5.12629e-20
4.7015e-05
-4.11438e-20
4.7015e-05
-1.07229e-19
4.7015e-05
7.18889e-20
4.7015e-05
1.07332e-20
4.7015e-05
2.36379e-20
4.7015e-05
-1.28511e-19
4.7015e-05
-2.22042e-20
4.7015e-05
2.0383e-20
4.7015e-05
-4.82653e-20
4.7015e-05
1.54942e-21
4.7015e-05
-7.55041e-20
4.7015e-05
1.62783e-19
4.7015e-05
-1.51545e-20
4.7015e-05
-8.86705e-20
4.7015e-05
1.51971e-19
4.7015e-05
-1.4483e-19
4.7015e-05
-2.01174e-20
4.7015e-05
3.82394e-20
4.7015e-05
-5.30957e-20
4.7015e-05
1.71365e-19
4.7015e-05
-1.05283e-19
4.7015e-05
-2.21948e-20
4.7015e-05
1.01314e-19
4.7015e-05
-1.50256e-19
4.7015e-05
6.75978e-20
4.7015e-05
-2.07812e-20
4.7015e-05
-8.48441e-20
4.7015e-05
1.65859e-19
4.7015e-05
-5.37655e-20
4.7015e-05
-1.36796e-20
4.7015e-05
-9.59167e-20
4.7015e-05
3.94262e-21
4.7015e-05
2.43297e-19
4.7015e-05
-1.46237e-19
4.7015e-05
-1.80734e-20
4.7015e-05
-8.96685e-20
4.7015e-05
2.54626e-20
4.7015e-05
2.649e-19
4.7015e-05
-9.48999e-20
4.7015e-05
-1.59499e-19
4.7015e-05
-7.68319e-20
4.7015e-05
1.34755e-19
4.7015e-05
1.74773e-19
4.7015e-05
-6.39891e-20
4.7015e-05
-1.8385e-19
4.7015e-05
-1.08163e-19
4.7015e-05
3.1561e-19
4.7015e-05
-2.41534e-21
4.7015e-05
-3.11886e-19
4.7015e-05
2.57482e-19
4.7015e-05
8.39443e-20
4.7015e-05
-1.40427e-19
4.7015e-05
-1.04852e-19
4.7015e-05
-1.36644e-19
4.7015e-05
3.09122e-19
4.7015e-05
1.28791e-19
4.7015e-05
-2.0261e-19
4.7015e-05
-1.34981e-19
4.7015e-05
-1.24478e-19
4.7015e-05
3.20128e-19
4.7015e-05
2.7947e-20
4.7015e-05
-1.43969e-19
4.7015e-05
1.14782e-20
4.7015e-05
-1.26596e-19
4.7015e-05
1.76e-19
4.7015e-05
-6.5418e-21
4.7015e-05
-2.89067e-20
4.7015e-05
6.28681e-20
4.7015e-05
-2.36467e-19
4.7015e-05
5.61497e-20
4.7015e-05
3.64705e-20
4.7015e-05
-2.64206e-21
4.7015e-05
4.39731e-20
4.7015e-05
-1.79188e-19
4.7015e-05
1.26048e-19
4.7015e-05
-4.30149e-20
4.7015e-05
-1.03866e-20
4.7015e-05
1.02313e-19
4.7015e-05
-2.81549e-19
4.7015e-05
-3.7639e-20
4.7015e-05
9.75816e-20
4.7015e-05
1.10523e-19
4.7015e-05
-8.10457e-21
4.7015e-05
-2.14952e-19
4.7015e-05
1.75156e-19
4.7015e-05
4.76689e-20
4.7015e-05
-3.83332e-20
4.7015e-05
2.49366e-20
4.7015e-05
-1.97995e-19
4.7015e-05
1.97645e-19
4.7015e-05
3.14371e-20
4.7015e-05
-3.38053e-20
4.7015e-05
7.03134e-20
4.7015e-05
-2.15437e-19
4.7015e-05
9.90217e-20
4.7015e-05
5.80009e-20
4.7015e-05
-4.89251e-20
4.7015e-05
2.24407e-20
4.7015e-05
-1.21035e-19
4.7015e-05
1.75506e-19
4.7015e-05
1.24532e-19
4.7015e-05
-1.3796e-20
4.7015e-05
-3.67016e-20
4.7015e-05
-1.48639e-19
4.7015e-05
9.25279e-20
4.7015e-05
5.87093e-20
4.7015e-05
-3.82071e-21
4.7015e-05
-3.17897e-20
4.7015e-05
-1.50354e-19
4.7015e-05
3.05436e-20
4.7015e-05
5.26487e-21
4.7015e-05
-1.26869e-19
4.7015e-05
8.35703e-20
4.7015e-05
-6.09464e-20
4.7015e-05
1.14519e-20
4.7015e-05
9.22036e-20
4.7015e-05
-4.90304e-20
4.7015e-05
-7.36855e-21
4.7015e-05
-1.25952e-19
4.7015e-05
6.70858e-21
4.7015e-05
1.77789e-19
4.7015e-05
3.61441e-20
4.7015e-05
-1.53319e-19
4.7015e-05
-1.37379e-19
4.7015e-05
1.43464e-19
4.7015e-05
8.19894e-20
4.7015e-05
-6.0755e-20
4.7015e-05
-1.51907e-19
4.7015e-05
-3.72527e-21
4.7015e-05
2.02226e-19
4.7015e-05
-4.65074e-20
4.7015e-05
7.45675e-21
4.7015e-05
-1.82442e-19
4.7015e-05
-4.11767e-20
4.7015e-05
2.15951e-19
4.7015e-05
-4.0241e-21
4.7015e-05
6.03545e-20
4.7015e-05
-1.71946e-19
4.7015e-05
-2.1435e-19
4.7015e-05
-2.92026e-20
4.7015e-05
-2.80352e-20
4.7015e-05
9.20565e-20
4.7015e-05
-1.93424e-19
4.7015e-05
-6.1149e-20
4.7015e-05
-4.07959e-20
4.7015e-05
-1.62366e-19
4.7015e-05
9.33517e-20
4.7015e-05
-2.10435e-19
4.7015e-05
-3.18204e-19
4.7015e-05
-2.18396e-19
4.7015e-05
-5.84191e-19
4.7015e-05
-8.08505e-19
4.7015e-05
-1.77003e-18
-4.47769e-18
0.000138692
-5.84265e-18
0.000138692
-3.95744e-18
0.000138692
-2.28571e-18
0.000138692
-1.37768e-18
0.000138692
-8.09435e-19
0.000138692
-5.21086e-19
0.000138692
-3.80189e-19
0.000138692
-2.38556e-19
0.000138692
-2.06103e-19
0.000138692
-1.68744e-19
0.000138692
-1.13888e-19
0.000138692
-1.03279e-19
0.000138692
-7.51019e-20
0.000138692
-7.6399e-20
0.000138692
-1.20883e-19
0.000138692
-3.82536e-20
0.000138692
-3.56745e-20
0.000138692
-6.87562e-20
0.000138692
-1.1523e-19
0.000138692
-1.21371e-19
0.000138692
-5.84619e-20
0.000138692
-8.66864e-20
0.000138692
-8.91559e-20
0.000138692
-8.24245e-20
0.000138692
-1.36521e-19
0.000138692
-8.46497e-20
0.000138692
-1.01059e-20
0.000138692
-2.08211e-20
0.000138692
-7.11675e-20
0.000138692
-7.08213e-20
0.000138692
7.17764e-21
0.000138692
1.06547e-19
0.000138692
5.39973e-20
0.000138692
1.84191e-20
0.000138692
1.44824e-20
0.000138692
4.58661e-20
0.000138692
8.31674e-20
0.000138692
1.74943e-20
0.000138692
-1.87892e-20
0.000138692
6.70641e-20
0.000138692
2.79865e-20
0.000138692
1.42451e-20
0.000138692
2.1532e-20
0.000138692
-1.00968e-20
0.000138692
5.65964e-20
0.000138692
7.97515e-20
0.000138692
7.8167e-20
0.000138692
5.37817e-20
0.000138692
4.04218e-21
0.000138692
-2.08925e-20
0.000138692
-3.92446e-20
0.000138692
3.61387e-20
0.000138692
9.24807e-21
0.000138692
2.51106e-20
0.000138692
1.03867e-19
0.000138692
1.30335e-20
0.000138692
2.57285e-20
0.000138692
1.54472e-20
0.000138692
6.19095e-20
0.000138692
8.06457e-20
0.000138692
-4.02962e-20
0.000138692
9.68533e-20
0.000138692
5.32668e-20
0.000138692
1.02596e-20
0.000138692
7.33942e-20
0.000138692
-5.62102e-20
0.000138692
1.4646e-20
0.000138692
6.70581e-21
0.000138692
3.16198e-20
0.000138692
5.69783e-20
0.000138692
-7.37861e-20
0.000138692
-5.07937e-20
0.000138692
-6.67082e-20
0.000138692
-2.01915e-20
0.000138692
9.95066e-20
0.000138692
-1.02107e-19
0.000138692
-1.56725e-19
0.000138692
1.22744e-20
0.000138692
7.40294e-21
0.000138692
7.19354e-20
0.000138692
-7.64132e-20
0.000138692
-1.48909e-19
0.000138692
4.18849e-20
0.000138692
1.03132e-19
0.000138692
8.70969e-20
0.000138692
-1.22324e-20
0.000138692
-7.79777e-20
0.000138692
-9.51538e-20
0.000138692
1.89567e-20
0.000138692
1.67605e-19
0.000138692
-2.05334e-20
0.000138692
-1.14649e-19
0.000138692
2.21543e-20
0.000138692
9.12305e-20
0.000138692
-9.72456e-21
0.000138692
-1.29849e-19
0.000138692
-7.72081e-20
0.000138692
-3.42552e-20
0.000138692
6.29286e-20
0.000138692
3.49613e-21
0.000138692
-1.77226e-19
0.000138692
-6.72217e-20
0.000138692
-8.82044e-20
0.000138692
-1.63054e-21
0.000138692
4.22819e-20
0.000138692
-2.55386e-20
0.000138692
-1.69497e-19
0.000138692
-6.66348e-20
0.000138692
1.00845e-19
0.000138692
9.52121e-20
0.000138692
1.10989e-20
0.000138692
-2.77742e-19
0.000138692
2.22889e-20
0.000138692
2.50807e-19
0.000138692
7.16686e-20
0.000138692
-2.77067e-20
0.000138692
-2.05372e-19
0.000138692
-1.12138e-20
0.000138692
2.84132e-19
0.000138692
1.52344e-19
0.000138692
-9.88574e-20
0.000138692
-2.05705e-19
0.000138692
5.43402e-20
0.000138692
3.22983e-19
0.000138692
1.7078e-19
0.000138692
-1.48214e-19
0.000138692
-3.23435e-19
0.000138692
-4.03851e-20
0.000138692
2.38687e-19
0.000138692
2.32514e-20
0.000138692
-1.6374e-19
0.000138692
-2.10695e-19
0.000138692
7.45779e-20
0.000138692
2.28874e-19
0.000138692
4.92896e-20
0.000138692
-5.17201e-20
0.000138692
-1.70155e-19
0.000138692
-3.32425e-20
0.000138692
2.31893e-19
0.000138692
1.30713e-19
0.000138692
-2.95303e-20
0.000138692
-1.52156e-19
0.000138692
1.45304e-20
0.000138692
1.19356e-19
0.000138692
1.36159e-20
0.000138692
-9.55729e-20
0.000138692
-1.94904e-19
0.000138692
1.00507e-20
0.000138692
4.30713e-20
0.000138692
4.47485e-20
0.000138692
1.30155e-19
0.000138692
-1.77212e-19
0.000138692
-1.45137e-19
0.000138692
1.11265e-19
0.000138692
1.29922e-19
0.000138692
1.55681e-19
0.000138692
-4.52467e-20
0.000138692
-1.23262e-19
0.000138692
5.80228e-20
0.000138692
1.30908e-19
0.000138692
1.93556e-19
0.000138692
-1.61898e-19
0.000138692
-1.00416e-19
0.000138692
1.64095e-19
0.000138692
-1.11488e-19
0.000138692
-7.40997e-22
0.000138692
-8.74767e-20
0.000138692
-1.83034e-19
0.000138692
6.81013e-20
0.000138692
1.63995e-20
0.000138692
-7.60139e-20
0.000138692
-1.95538e-19
0.000138692
-9.37457e-20
0.000138692
4.53148e-20
0.000138692
-6.17749e-21
0.000138692
-9.462e-20
0.000138692
-1.06372e-19
0.000138692
2.24349e-19
0.000138692
1.66024e-20
0.000138692
2.60803e-20
0.000138692
1.40256e-19
0.000138692
-3.05071e-19
0.000138692
-6.8275e-20
0.000138692
8.63382e-20
0.000138692
-8.15744e-21
0.000138692
2.09215e-19
0.000138692
-1.23167e-19
0.000138692
-7.61758e-20
0.000138692
1.21157e-19
0.000138692
-1.11052e-19
0.000138692
-1.19062e-20
0.000138692
-7.22198e-20
0.000138692
-1.08801e-19
0.000138692
1.84913e-19
0.000138692
1.56039e-21
0.000138692
-3.29707e-20
0.000138692
-9.55867e-20
0.000138692
2.88969e-20
0.000138692
2.35083e-19
0.000138692
-1.31732e-19
0.000138692
-5.61318e-20
0.000138692
-9.07356e-20
0.000138692
9.31974e-20
0.000138692
3.10273e-19
0.000138692
-8.75369e-20
0.000138692
-2.06529e-19
0.000138692
-1.25105e-19
0.000138692
1.57871e-19
0.000138692
1.7654e-19
0.000138692
-7.89486e-20
0.000138692
-1.91718e-19
0.000138692
-1.56235e-19
0.000138692
4.30051e-19
0.000138692
4.00232e-20
0.000138692
-4.17674e-19
0.000138692
3.17186e-19
0.000138692
8.04241e-20
0.000138692
-1.08801e-19
0.000138692
-1.8421e-19
0.000138692
-2.78412e-19
0.000138692
4.8164e-19
0.000138692
1.54753e-19
0.000138692
-2.25442e-19
0.000138692
-2.05783e-19
0.000138692
-2.26577e-19
0.000138692
5.12358e-19
0.000138692
5.61361e-20
0.000138692
-2.74892e-19
0.000138692
-3.68345e-20
0.000138692
-1.17669e-19
0.000138692
3.65702e-19
0.000138692
3.72373e-20
0.000138692
-4.0762e-20
0.000138692
2.09694e-21
0.000138692
-4.30601e-19
0.000138692
-7.9536e-21
0.000138692
2.46406e-20
0.000138692
1.45141e-19
0.000138692
1.29675e-19
0.000138692
-3.59912e-19
0.000138692
1.2312e-19
0.000138692
-1.0743e-19
0.000138692
-1.05253e-20
0.000138692
1.1875e-19
0.000138692
-5.34847e-19
0.000138692
-4.21952e-20
0.000138692
1.58325e-19
0.000138692
1.65031e-19
0.000138692
-5.9041e-21
0.000138692
-3.7058e-19
0.000138692
3.86644e-19
0.000138692
1.38415e-19
0.000138692
-1.22538e-19
0.000138692
-1.21467e-19
0.000138692
-3.00347e-19
0.000138692
5.20697e-19
0.000138692
7.47412e-20
0.000138692
-8.45421e-20
0.000138692
8.49163e-20
0.000138692
-3.89288e-19
0.000138692
1.78796e-19
0.000138692
7.22202e-20
0.000138692
-4.91182e-20
0.000138692
2.86304e-20
0.000138692
-1.34573e-19
0.000138692
3.85754e-19
0.000138692
1.85248e-19
0.000138692
2.29325e-20
0.000138692
-6.27733e-21
0.000138692
-3.10856e-19
0.000138692
1.30013e-19
0.000138692
7.99169e-20
0.000138692
7.37225e-20
0.000138692
-7.55517e-20
0.000138692
-4.2596e-19
0.000138692
4.59182e-20
0.000138692
-4.82063e-20
0.000138692
-1.34918e-19
0.000138692
6.27145e-20
0.000138692
-2.55594e-19
0.000138692
1.09123e-19
0.000138692
1.02157e-19
0.000138692
-1.17029e-20
0.000138692
-2.32006e-20
0.000138692
-3.26436e-19
0.000138692
1.3351e-19
0.000138692
2.90607e-19
0.000138692
-1.05361e-20
0.000138692
-2.88815e-19
0.000138692
-2.36011e-19
0.000138692
2.93634e-19
0.000138692
1.33045e-19
0.000138692
-1.624e-19
0.000138692
-1.44502e-19
0.000138692
-5.66061e-20
0.000138692
2.64202e-19
0.000138692
7.47009e-20
0.000138692
-1.59193e-19
0.000138692
-2.4343e-19
0.000138692
-1.23993e-19
0.000138692
3.34612e-19
0.000138692
1.80834e-19
0.000138692
2.3149e-20
0.000138692
-3.78623e-19
0.000138692
-4.34362e-19
0.000138692
-2.94248e-20
0.000138692
-6.72442e-20
0.000138692
-1.77328e-20
0.000138692
-3.77289e-19
0.000138692
-1.48875e-19
0.000138692
-6.35639e-20
0.000138692
-2.77764e-19
0.000138692
1.91899e-20
0.000138692
-3.55825e-19
0.000138692
-5.97555e-19
0.000138692
-5.79488e-19
0.000138692
-1.06762e-18
0.000138692
-1.27667e-18
0.000138692
-2.34685e-18
-4.14376e-18
0.000228013
-3.75518e-18
0.000228013
-3.09453e-18
0.000228013
-2.18574e-18
0.000228013
-1.47774e-18
0.000228013
-1.00537e-18
0.000228013
-6.84163e-19
0.000228013
-4.47939e-19
0.000228013
-3.20442e-19
0.000228013
-2.79039e-19
0.000228013
-1.98678e-19
0.000228013
-1.22457e-19
0.000228013
-1.56033e-19
0.000228013
-1.03473e-19
0.000228013
-1.06706e-19
0.000228013
-1.73684e-19
0.000228013
-1.35004e-19
0.000228013
-1.29134e-19
0.000228013
-1.11477e-19
0.000228013
-1.57923e-19
0.000228013
-1.57289e-19
0.000228013
-1.3149e-19
0.000228013
-1.70633e-19
0.000228013
-1.85073e-19
0.000228013
-1.47612e-19
0.000228013
-1.84328e-19
0.000228013
-1.1324e-19
0.000228013
-2.70821e-20
0.000228013
-5.92734e-20
0.000228013
-1.1054e-19
0.000228013
-7.23127e-20
0.000228013
6.31218e-20
0.000228013
2.04229e-19
0.000228013
1.17963e-19
0.000228013
-6.03131e-21
0.000228013
-5.20428e-21
0.000228013
5.32597e-20
0.000228013
1.49039e-19
0.000228013
1.02005e-19
0.000228013
1.62567e-20
0.000228013
8.67744e-20
0.000228013
8.51814e-20
0.000228013
5.04391e-20
0.000228013
5.97745e-20
0.000228013
1.91569e-20
0.000228013
9.24264e-20
0.000228013
1.36118e-19
0.000228013
1.25175e-19
0.000228013
8.84634e-20
0.000228013
2.64868e-20
0.000228013
1.17269e-20
0.000228013
-5.12208e-20
0.000228013
2.64132e-20
0.000228013
6.93679e-20
0.000228013
6.8184e-20
0.000228013
1.56418e-19
0.000228013
4.08179e-20
0.000228013
5.88258e-20
0.000228013
6.02221e-20
0.000228013
7.79844e-20
0.000228013
1.16364e-19
0.000228013
2.32972e-20
0.000228013
1.67428e-19
0.000228013
8.99491e-20
0.000228013
3.03147e-20
0.000228013
4.91303e-20
0.000228013
-9.09574e-20
0.000228013
1.17214e-20
0.000228013
2.65022e-20
0.000228013
2.8215e-20
0.000228013
8.81973e-20
0.000228013
-1.3851e-19
0.000228013
-6.62209e-20
0.000228013
-1.08319e-19
0.000228013
-2.54743e-20
0.000228013
1.03223e-19
0.000228013
-1.58733e-19
0.000228013
-1.51699e-19
0.000228013
-3.09963e-20
0.000228013
-3.36625e-20
0.000228013
5.26397e-20
0.000228013
-4.01048e-20
0.000228013
-1.15363e-19
0.000228013
9.30183e-20
0.000228013
1.48298e-19
0.000228013
5.46084e-20
0.000228013
-6.54913e-20
0.000228013
-6.67951e-20
0.000228013
-7.80936e-20
0.000228013
-6.06255e-20
0.000228013
1.57681e-19
0.000228013
2.63843e-20
0.000228013
-3.11132e-20
0.000228013
4.32441e-20
0.000228013
6.74654e-20
0.000228013
-2.62049e-20
0.000228013
-1.52053e-19
0.000228013
-1.04342e-19
0.000228013
-7.15659e-20
0.000228013
-6.48888e-20
0.000228013
-4.0159e-20
0.000228013
-1.37928e-19
0.000228013
-1.52202e-19
0.000228013
-1.92466e-19
0.000228013
-1.38346e-19
0.000228013
-1.66148e-20
0.000228013
-5.11414e-20
0.000228013
-2.66957e-19
0.000228013
-1.84959e-19
0.000228013
1.37785e-19
0.000228013
2.20719e-19
0.000228013
1.83314e-20
0.000228013
-3.04564e-19
0.000228013
2.97199e-20
0.000228013
2.94664e-19
0.000228013
1.82635e-19
0.000228013
5.03112e-20
0.000228013
-2.74968e-19
0.000228013
-7.1689e-20
0.000228013
4.03437e-19
0.000228013
2.82989e-19
0.000228013
-1.41747e-19
0.000228013
-2.75096e-19
0.000228013
1.08331e-19
0.000228013
4.62776e-19
0.000228013
2.84595e-19
0.000228013
-1.56152e-19
0.000228013
-5.10176e-19
0.000228013
-1.27299e-19
0.000228013
2.50125e-19
0.000228013
1.74839e-20
0.000228013
-1.70094e-19
0.000228013
-2.17487e-19
0.000228013
3.15707e-20
0.000228013
2.98771e-19
0.000228013
1.32337e-19
0.000228013
-4.36525e-20
0.000228013
-2.16875e-19
0.000228013
-4.3054e-20
0.000228013
3.98143e-19
0.000228013
2.09245e-19
0.000228013
-8.09287e-20
0.000228013
-2.35939e-19
0.000228013
4.64782e-20
0.000228013
1.75596e-19
0.000228013
-1.01267e-20
0.000228013
-1.60612e-19
0.000228013
-3.05246e-19
0.000228013
7.58008e-20
0.000228013
7.8444e-20
0.000228013
2.9738e-20
0.000228013
1.47738e-19
0.000228013
-1.74913e-19
0.000228013
-1.24602e-19
0.000228013
1.10783e-19
0.000228013
1.89522e-19
0.000228013
1.50065e-19
0.000228013
-4.12859e-20
0.000228013
-5.285e-20
0.000228013
1.48052e-19
0.000228013
1.91646e-19
0.000228013
1.81376e-19
0.000228013
-1.94659e-19
0.000228013
-7.24293e-20
0.000228013
1.75174e-19
0.000228013
-1.4507e-19
0.000228013
-8.4448e-20
0.000228013
-1.17182e-19
0.000228013
-1.32141e-19
0.000228013
-7.02905e-20
0.000228013
-9.02134e-20
0.000228013
-1.74848e-19
0.000228013
-2.93912e-19
0.000228013
-1.43339e-19
0.000228013
1.47081e-19
0.000228013
6.23166e-20
0.000228013
-2.00274e-19
0.000228013
-1.51362e-19
0.000228013
1.24889e-19
0.000228013
7.20583e-20
0.000228013
1.69449e-19
0.000228013
2.17007e-20
0.000228013
-4.02106e-19
0.000228013
-1.0623e-19
0.000228013
1.29675e-19
0.000228013
6.23403e-20
0.000228013
1.62485e-19
0.000228013
-1.20242e-19
0.000228013
-9.44389e-20
0.000228013
1.00728e-19
0.000228013
-1.17676e-19
0.000228013
-8.58869e-20
0.000228013
-7.16828e-20
0.000228013
-1.05158e-19
0.000228013
1.04774e-19
0.000228013
4.44418e-20
0.000228013
-9.1853e-20
0.000228013
-7.02528e-20
0.000228013
2.19311e-20
0.000228013
1.61637e-19
0.000228013
1.65341e-20
0.000228013
-4.87494e-20
0.000228013
-9.84413e-20
0.000228013
1.30178e-19
0.000228013
2.61859e-19
0.000228013
-1.84806e-20
0.000228013
-1.79919e-19
0.000228013
-1.56948e-19
0.000228013
1.24169e-19
0.000228013
1.19823e-19
0.000228013
-5.52782e-20
0.000228013
-1.51147e-19
0.000228013
-2.54438e-19
0.000228013
4.49061e-19
0.000228013
1.14946e-19
0.000228013
-3.76849e-19
0.000228013
2.58571e-19
0.000228013
1.83836e-21
0.000228013
3.16605e-20
0.000228013
-1.65755e-19
0.000228013
-3.4014e-19
0.000228013
5.10819e-19
0.000228013
1.14272e-19
0.000228013
-1.4328e-19
0.000228013
-1.55674e-19
0.000228013
-3.5098e-19
0.000228013
5.08844e-19
0.000228013
8.58025e-20
0.000228013
-3.28113e-19
0.000228013
-5.63693e-20
0.000228013
-4.92864e-20
0.000228013
5.25912e-19
0.000228013
8.63942e-20
0.000228013
-1.03447e-19
0.000228013
-6.33494e-20
0.000228013
-5.42552e-19
0.000228013
-1.70513e-19
0.000228013
-1.35685e-20
0.000228013
3.19137e-19
0.000228013
2.14905e-19
0.000228013
-4.75771e-19
0.000228013
4.85731e-20
0.000228013
-2.72705e-19
0.000228013
-1.13764e-19
0.000228013
3.77705e-20
0.000228013
-7.09494e-19
0.000228013
-2.15928e-20
0.000228013
1.07529e-19
0.000228013
1.52326e-19
0.000228013
3.79355e-20
0.000228013
-4.29201e-19
0.000228013
4.9002e-19
0.000228013
2.22042e-19
0.000228013
-1.51004e-19
0.000228013
-2.3425e-19
0.000228013
-2.6177e-19
0.000228013
7.14661e-19
0.000228013
1.2531e-19
0.000228013
-1.03218e-19
0.000228013
1.26994e-19
0.000228013
-4.21616e-19
0.000228013
1.47864e-19
0.000228013
-6.25796e-21
0.000228013
3.45961e-21
0.000228013
4.50647e-20
0.000228013
-1.12013e-19
0.000228013
5.74293e-19
0.000228013
1.6827e-19
0.000228013
1.82672e-19
0.000228013
5.66462e-20
0.000228013
-4.77302e-19
0.000228013
2.09991e-19
0.000228013
6.47318e-20
0.000228013
9.78435e-20
0.000228013
-9.77528e-20
0.000228013
-6.78136e-19
0.000228013
6.30324e-20
0.000228013
-1.48779e-19
0.000228013
-1.14063e-19
0.000228013
6.78043e-20
0.000228013
-5.02411e-19
0.000228013
2.20343e-19
0.000228013
1.97772e-20
0.000228013
7.01776e-22
0.000228013
5.72612e-20
0.000228013
-5.70055e-19
0.000228013
2.45432e-19
0.000228013
3.16453e-19
0.000228013
-1.47573e-19
0.000228013
-2.57796e-19
0.000228013
-2.83637e-19
0.000228013
4.78179e-19
0.000228013
1.54141e-19
0.000228013
-2.56753e-19
0.000228013
-8.76258e-20
0.000228013
-1.51863e-19
0.000228013
2.77084e-19
0.000228013
1.88199e-19
0.000228013
-2.91809e-19
0.000228013
-2.62194e-19
0.000228013
-2.05308e-19
0.000228013
3.78472e-19
0.000228013
2.84878e-19
0.000228013
-1.06668e-19
0.000228013
-5.1611e-19
0.000228013
-6.04121e-19
0.000228013
2.07474e-20
0.000228013
-1.87202e-19
0.000228013
-2.12149e-19
0.000228013
-4.02278e-19
0.000228013
-2.76789e-19
0.000228013
-3.83697e-21
0.000228013
-3.57337e-19
0.000228013
-1.65248e-19
0.000228013
-3.5792e-19
0.000228013
-8.42862e-19
0.000228013
-9.29227e-19
0.000228013
-1.31664e-18
0.000228013
-1.41844e-18
0.000228013
-2.20998e-18
-3.36482e-18
0.000314974
-2.7335e-18
0.000314974
-2.41461e-18
0.000314974
-1.91724e-18
0.000314974
-1.44482e-18
0.000314974
-1.0364e-18
0.000314974
-7.24444e-19
0.000314974
-5.19888e-19
0.000314974
-3.31484e-19
0.000314974
-2.76095e-19
0.000314974
-2.56195e-19
0.000314974
-2.39051e-19
0.000314974
-2.01339e-19
0.000314974
-1.46651e-19
0.000314974
-1.29764e-19
0.000314974
-1.87999e-19
0.000314974
-1.64932e-19
0.000314974
-1.88809e-19
0.000314974
-2.44651e-19
0.000314974
-2.38714e-19
0.000314974
-2.01925e-19
0.000314974
-1.53584e-19
0.000314974
-2.07148e-19
0.000314974
-2.26213e-19
0.000314974
-2.35722e-19
0.000314974
-2.17831e-19
0.000314974
-1.46742e-19
0.000314974
-2.10595e-20
0.000314974
-8.85515e-20
0.000314974
-1.38856e-19
0.000314974
-3.89968e-20
0.000314974
7.47366e-20
0.000314974
2.21431e-19
0.000314974
1.77051e-19
0.000314974
2.86582e-20
0.000314974
3.17685e-20
0.000314974
6.81911e-20
0.000314974
2.11147e-19
0.000314974
1.64615e-19
0.000314974
5.87396e-20
0.000314974
1.27345e-19
0.000314974
1.11738e-19
0.000314974
1.0462e-19
0.000314974
1.18948e-19
0.000314974
2.35878e-20
0.000314974
1.05508e-19
0.000314974
1.66707e-19
0.000314974
1.63396e-19
0.000314974
1.7493e-19
0.000314974
8.78582e-20
0.000314974
3.40762e-20
0.000314974
1.39376e-20
0.000314974
6.62335e-20
0.000314974
1.17432e-19
0.000314974
1.34097e-19
0.000314974
1.79817e-19
0.000314974
8.06558e-20
0.000314974
1.21083e-19
0.000314974
1.86333e-19
0.000314974
1.59489e-19
0.000314974
1.36725e-19
0.000314974
-2.82332e-20
0.000314974
2.20399e-19
0.000314974
1.4557e-19
0.000314974
8.87744e-20
0.000314974
9.33213e-20
0.000314974
-1.64701e-19
0.000314974
3.45177e-20
0.000314974
5.77196e-20
0.000314974
1.18962e-19
0.000314974
7.17445e-20
0.000314974
-1.45324e-19
0.000314974
-1.36066e-19
0.000314974
-1.68317e-19
0.000314974
-9.31439e-20
0.000314974
4.70481e-20
0.000314974
-1.49568e-19
0.000314974
-1.46459e-19
0.000314974
-7.17367e-21
0.000314974
-5.12769e-20
0.000314974
1.0193e-19
0.000314974
-2.19224e-20
0.000314974
-1.24344e-19
0.000314974
9.4394e-20
0.000314974
1.66741e-19
0.000314974
1.00888e-19
0.000314974
-7.37128e-20
0.000314974
-7.71162e-20
0.000314974
-2.58942e-20
0.000314974
-1.33645e-20
0.000314974
1.61568e-19
0.000314974
2.19385e-20
0.000314974
-7.07736e-20
0.000314974
4.00205e-20
0.000314974
5.6762e-20
0.000314974
3.13382e-20
0.000314974
-1.56707e-19
0.000314974
-1.61234e-19
0.000314974
-1.17129e-19
0.000314974
-1.27071e-19
0.000314974
-1.39862e-19
0.000314974
-1.95738e-19
0.000314974
-2.57018e-19
0.000314974
-3.53458e-19
0.000314974
-2.6005e-19
0.000314974
-1.35416e-19
0.000314974
-6.46872e-20
0.000314974
-3.15139e-19
0.000314974
-3.24927e-19
0.000314974
1.16214e-19
0.000314974
2.95147e-19
0.000314974
6.97072e-20
0.000314974
-2.93617e-19
0.000314974
3.33658e-20
0.000314974
3.68111e-19
0.000314974
3.10019e-19
0.000314974
3.28155e-20
0.000314974
-2.29438e-19
0.000314974
-4.64405e-20
0.000314974
4.97211e-19
0.000314974
3.1649e-19
0.000314974
-2.02437e-19
0.000314974
-3.05489e-19
0.000314974
9.79221e-20
0.000314974
5.87878e-19
0.000314974
4.11283e-19
0.000314974
-1.90155e-19
0.000314974
-5.91365e-19
0.000314974
-1.5737e-19
0.000314974
3.05293e-19
0.000314974
3.03613e-20
0.000314974
-1.69422e-19
0.000314974
-1.82149e-19
0.000314974
5.28433e-20
0.000314974
3.06185e-19
0.000314974
1.67422e-19
0.000314974
-3.76939e-20
0.000314974
-2.98792e-19
0.000314974
-4.93839e-20
0.000314974
4.10574e-19
0.000314974
2.45986e-19
0.000314974
-9.68558e-20
0.000314974
-2.31936e-19
0.000314974
1.31773e-19
0.000314974
1.77912e-19
0.000314974
-2.07066e-20
0.000314974
-1.47759e-19
0.000314974
-2.7088e-19
0.000314974
5.39337e-20
0.000314974
1.24866e-19
0.000314974
8.0977e-21
0.000314974
1.31483e-19
0.000314974
-1.55139e-19
0.000314974
-1.58827e-19
0.000314974
9.3302e-20
0.000314974
2.35552e-19
0.000314974
2.31688e-19
0.000314974
2.2704e-21
0.000314974
-8.19751e-20
0.000314974
1.08736e-19
0.000314974
2.13135e-19
0.000314974
2.24633e-19
0.000314974
-1.52953e-19
0.000314974
-5.34307e-20
0.000314974
1.17696e-19
0.000314974
-2.73713e-19
0.000314974
-1.63361e-19
0.000314974
-1.69955e-19
0.000314974
-1.6801e-19
0.000314974
-7.84702e-20
0.000314974
-1.30607e-19
0.000314974
-2.18399e-19
0.000314974
-4.47188e-19
0.000314974
-9.12069e-20
0.000314974
2.1425e-19
0.000314974
-6.29703e-20
0.000314974
-2.57565e-19
0.000314974
-2.19555e-19
0.000314974
4.09443e-20
0.000314974
6.38273e-20
0.000314974
2.35738e-19
0.000314974
7.70199e-20
0.000314974
-4.78986e-19
0.000314974
-1.19028e-19
0.000314974
1.56199e-19
0.000314974
4.50387e-20
0.000314974
1.71647e-20
0.000314974
-2.1298e-19
0.000314974
-3.14512e-20
0.000314974
4.28132e-20
0.000314974
-1.58267e-19
0.000314974
-1.33153e-19
0.000314974
-1.03443e-19
0.000314974
-1.04857e-19
0.000314974
3.90029e-20
0.000314974
3.7437e-20
0.000314974
-1.65405e-20
0.000314974
-9.97285e-20
0.000314974
-6.16381e-20
0.000314974
1.25794e-19
0.000314974
4.6122e-20
0.000314974
-1.59604e-20
0.000314974
-3.6848e-20
0.000314974
1.4482e-19
0.000314974
2.19806e-19
0.000314974
4.35997e-20
0.000314974
-9.13049e-20
0.000314974
-2.20628e-19
0.000314974
5.46357e-20
0.000314974
7.01082e-20
0.000314974
-3.67012e-20
0.000314974
-7.78616e-20
0.000314974
-2.13976e-19
0.000314974
3.8909e-19
0.000314974
1.20999e-19
0.000314974
-2.75791e-19
0.000314974
2.99736e-19
0.000314974
-3.92146e-20
0.000314974
2.45252e-20
0.000314974
-2.13937e-19
0.000314974
-4.06728e-19
0.000314974
4.68634e-19
0.000314974
1.90077e-19
0.000314974
2.47463e-20
0.000314974
-1.01331e-19
0.000314974
-4.00865e-19
0.000314974
4.19939e-19
0.000314974
1.44815e-19
0.000314974
-2.58725e-19
0.000314974
-3.31042e-20
0.000314974
-2.82677e-20
0.000314974
5.64091e-19
0.000314974
2.02309e-19
0.000314974
-1.94308e-19
0.000314974
-1.59497e-19
0.000314974
-6.17243e-19
0.000314974
-1.79481e-19
0.000314974
-6.69148e-20
0.000314974
4.17673e-19
0.000314974
2.99293e-19
0.000314974
-5.4082e-19
0.000314974
-1.59973e-19
0.000314974
-4.10997e-19
0.000314974