/*--------------------------------*- C++ -*----------------------------------*\
| =========                 |                                                 |
| \\      /  F ield         | OpenFOAM: The Open Source CFD Toolbox           |
|  \\    /   O peration     | Version:  2112                                  |
|   \\  /    A nd           | Website:  www.openfoam.com                      |
|    \\/     M anipulation  |                                                 |
\*---------------------------------------------------------------------------*/
FoamFile
{
    version     2.0;
    format      ascii;
    arch        "LSB;label=32;scalar=64";
    class       volVectorField;
    location    "8";
    object      U;
}
// * * * * * * * * * * * * * * * * * * * * * * * * * * * * * * * * * * * * * //

dimensions      [0 1 -1 0 0 0 0];

internalField   nonuniform List<vector> 
25600
(
(0.037612 -4.63135e-15 0)
(0.037612 -1.90164e-15 0)
(0.037612 -7.90096e-16 0)
(0.037612 -3.97146e-16 0)
(0.037612 -2.11261e-16 0)
(0.037612 -1.25053e-16 0)
(0.037612 -8.74855e-17 0)
(0.037612 -6.04715e-17 0)
(0.037612 -4.61119e-17 0)
(0.037612 -4.03335e-17 0)
(0.037612 -2.45703e-17 0)
(0.037612 -3.41651e-17 0)
(0.037612 -1.15659e-17 0)
(0.037612 -1.07323e-17 0)
(0.037612 -2.38632e-17 0)
(0.037612 -3.01626e-19 0)
(0.037612 -7.97497e-18 0)
(0.037612 -1.61169e-17 0)
(0.037612 -1.2562e-17 0)
(0.037612 -1.6569e-17 0)
(0.037612 -5.98877e-19 0)
(0.037612 4.211e-19 0)
(0.037612 -8.06911e-18 0)
(0.037612 -1.80614e-17 0)
(0.037612 -2.56446e-17 0)
(0.037612 -9.72348e-18 0)
(0.037612 2.60082e-17 0)
(0.037612 -4.72638e-18 0)
(0.037612 -3.40034e-17 0)
(0.037612 -1.13286e-17 0)
(0.037612 6.73924e-18 0)
(0.037612 1.52662e-17 0)
(0.037612 8.97403e-18 0)
(0.037612 -1.13388e-17 0)
(0.037612 -4.49604e-18 0)
(0.037612 -2.04315e-18 0)
(0.037612 2.98047e-18 0)
(0.037612 -7.99566e-18 0)
(0.037612 -6.49757e-18 0)
(0.037612 9.60805e-18 0)
(0.037612 1.70594e-18 0)
(0.037612 1.56912e-17 0)
(0.037612 -2.31912e-17 0)
(0.037612 -1.8098e-17 0)
(0.037612 3.91579e-17 0)
(0.037612 -9.73608e-18 0)
(0.037612 1.35105e-18 0)
(0.037612 2.15879e-18 0)
(0.037612 2.45859e-18 0)
(0.037612 -4.24923e-18 0)
(0.037612 -3.83778e-17 0)
(0.037612 3.10214e-17 0)
(0.037612 -8.4356e-20 0)
(0.037612 -1.68025e-18 0)
(0.037612 3.24823e-17 0)
(0.037612 -3.45475e-17 0)
(0.037612 -3.24831e-18 0)
(0.037612 -1.51942e-17 0)
(0.037612 3.80148e-18 0)
(0.037612 5.49558e-17 0)
(0.037612 -3.72147e-17 0)
(0.037612 8.85131e-19 0)
(0.037612 -7.04605e-19 0)
(0.037612 2.16743e-18 0)
(0.037612 2.12718e-17 0)
(0.037612 -2.39785e-17 0)
(0.037612 -8.63416e-18 0)
(0.037612 -1.49218e-17 0)
(0.037612 1.97068e-17 0)
(0.037612 6.86545e-18 0)
(0.037612 -5.83666e-18 0)
(0.037612 -4.54879e-18 0)
(0.037612 -4.53863e-18 0)
(0.037612 -5.79176e-18 0)
(0.037612 1.08566e-17 0)
(0.037612 -9.26354e-18 0)
(0.037612 -3.04263e-17 0)
(0.037612 1.76903e-17 0)
(0.037612 5.31135e-18 0)
(0.037612 3.86414e-17 0)
(0.037612 -4.08907e-17 0)
(0.037612 -5.02034e-17 0)
(0.037612 3.33066e-17 0)
(0.037612 1.70214e-17 0)
(0.037612 4.5603e-17 0)
(0.037612 -2.13209e-18 0)
(0.037612 -7.49606e-17 0)
(0.037612 -1.69666e-17 0)
(0.037612 3.68393e-17 0)
(0.037612 4.66844e-17 0)
(0.037612 -4.6859e-18 0)
(0.037612 -7.96523e-17 0)
(0.037612 3.03911e-18 0)
(0.037612 8.03348e-17 0)
(0.037612 1.38694e-18 0)
(0.037612 -7.94231e-17 0)
(0.037612 -4.74158e-18 0)
(0.037612 4.70865e-18 0)
(0.037612 7.35176e-17 0)
(0.037612 3.33867e-17 0)
(0.037612 -1.12079e-16 0)
(0.037612 -1.07731e-17 0)
(0.037612 -1.58665e-18 0)
(0.037612 7.05785e-17 0)
(0.037612 1.03537e-17 0)
(0.037612 -3.43707e-17 0)
(0.037612 -3.87935e-17 0)
(0.037612 2.32801e-17 0)
(0.037612 4.3127e-17 0)
(0.037612 -2.40637e-17 0)
(0.037612 2.10539e-17 0)
(0.037612 -1.22828e-16 0)
(0.037612 2.85324e-17 0)
(0.037612 8.8495e-17 0)
(0.037612 5.12485e-18 0)
(0.037612 -4.0184e-17 0)
(0.037612 -8.06627e-17 0)
(0.037612 6.62252e-17 0)
(0.037612 6.02111e-17 0)
(0.037612 1.5197e-17 0)
(0.037612 -1.62491e-17 0)
(0.037612 -8.64968e-17 0)
(0.037612 -4.87257e-19 0)
(0.037612 8.92047e-17 0)
(0.037612 1.2362e-17 0)
(0.037612 -4.55571e-17 0)
(0.037612 -6.54532e-17 0)
(0.037612 2.97e-18 0)
(0.037612 9.08662e-17 0)
(0.037612 3.87463e-18 0)
(0.037612 -4.90083e-17 0)
(0.037612 -4.69442e-17 0)
(0.037612 3.8402e-17 0)
(0.037612 5.17701e-17 0)
(0.037612 -2.93677e-17 0)
(0.037612 -3.86732e-17 0)
(0.037612 -1.35355e-17 0)
(0.037612 5.93498e-17 0)
(0.037612 2.40386e-17 0)
(0.037612 -2.64037e-17 0)
(0.037612 -4.1313e-17 0)
(0.037612 -1.1245e-17 0)
(0.037612 6.63295e-17 0)
(0.037612 1.33397e-17 0)
(0.037612 -6.22707e-17 0)
(0.037612 5.68699e-17 0)
(0.037612 -1.27891e-17 0)
(0.037612 -6.80188e-17 0)
(0.037612 -6.51091e-18 0)
(0.037612 5.96563e-18 0)
(0.037612 7.78563e-17 0)
(0.037612 -1.21716e-17 0)
(0.037612 -7.1031e-17 0)
(0.037612 1.33094e-17 0)
(0.037612 4.29906e-17 0)
(0.037612 4.21226e-17 0)
(0.037612 -4.2301e-17 0)
(0.037612 -4.99296e-17 0)
(0.037612 3.80992e-17 0)
(0.037612 1.91623e-17 0)
(0.037612 7.65463e-17 0)
(0.037612 -8.6009e-17 0)
(0.037612 -7.34625e-17 0)
(0.037612 8.37589e-17 0)
(0.037612 3.76936e-18 0)
(0.037612 6.83104e-17 0)
(0.037612 -5.82976e-17 0)
(0.037612 -2.60163e-17 0)
(0.037612 -2.23963e-18 0)
(0.037612 -5.62533e-17 0)
(0.037612 1.14264e-16 0)
(0.037612 -7.01927e-17 0)
(0.037612 -8.14525e-18 0)
(0.037612 3.39057e-18 0)
(0.037612 -5.03156e-17 0)
(0.037612 1.11844e-16 0)
(0.037612 -7.23258e-17 0)
(0.037612 7.2938e-18 0)
(0.037612 -9.26467e-18 0)
(0.037612 -5.93663e-17 0)
(0.037612 1.41943e-16 0)
(0.037612 -7.70198e-17 0)
(0.037612 -5.61362e-18 0)
(0.037612 5.38522e-18 0)
(0.037612 -6.10751e-17 0)
(0.037612 1.39697e-16 0)
(0.037612 -6.82095e-17 0)
(0.037612 -6.0095e-18 0)
(0.037612 7.08065e-17 0)
(0.037612 -1.34113e-16 0)
(0.037612 6.2624e-17 0)
(0.037612 -4.52655e-18 0)
(0.037612 -6.55515e-17 0)
(0.037612 1.39856e-16 0)
(0.037612 -5.53187e-17 0)
(0.037612 -1.36115e-17 0)
(0.037612 -7.86423e-17 0)
(0.037612 1.05557e-17 0)
(0.037612 2.09945e-16 0)
(0.037612 -1.31124e-16 0)
(0.037612 -1.83577e-17 0)
(0.037612 -7.5558e-17 0)
(0.037612 1.48989e-17 0)
(0.037612 2.141e-16 0)
(0.037612 -1.27611e-16 0)
(0.037612 -9.57758e-17 0)
(0.037612 -1.14428e-17 0)
(0.037612 9.29298e-17 0)
(0.037612 1.50497e-16 0)
(0.037612 -7.11444e-17 0)
(0.037612 -1.61748e-16 0)
(0.037612 -7.78263e-17 0)
(0.037612 2.35273e-16 0)
(0.037612 -4.1141e-18 0)
(0.037612 -2.33829e-16 0)
(0.037612 2.14936e-16 0)
(0.037612 8.30621e-17 0)
(0.037612 -1.37458e-16 0)
(0.037612 -9.1047e-17 0)
(0.037612 -8.34971e-17 0)
(0.037612 2.35014e-16 0)
(0.037612 9.13177e-17 0)
(0.037612 -1.59094e-16 0)
(0.037612 -9.96034e-17 0)
(0.037612 -7.80326e-17 0)
(0.037612 2.35218e-16 0)
(0.037612 1.65754e-17 0)
(0.037612 -9.52943e-17 0)
(0.037612 -1.90251e-17 0)
(0.037612 -1.31944e-16 0)
(0.037612 2.1437e-16 0)
(0.037612 1.02894e-17 0)
(0.037612 -1.29988e-16 0)
(0.037612 5.18424e-17 0)
(0.037612 -9.21405e-17 0)
(0.037612 1.23e-16 0)
(0.037612 1.13148e-17 0)
(0.037612 -5.88548e-17 0)
(0.037612 -7.34132e-18 0)
(0.037612 -1.42249e-16 0)
(0.037612 2.01653e-16 0)
(0.037612 3.76435e-18 0)
(0.037612 -5.68012e-17 0)
(0.037612 6.58329e-17 0)
(0.037612 -1.72463e-16 0)
(0.037612 -1.23544e-17 0)
(0.037612 8.13222e-17 0)
(0.037612 8.32343e-17 0)
(0.037612 -6.76915e-18 0)
(0.037612 -1.60057e-16 0)
(0.037612 8.59731e-17 0)
(0.037612 1.50881e-17 0)
(0.037612 -1.83116e-18 0)
(0.037612 5.45446e-17 0)
(0.037612 -1.5231e-16 0)
(0.037612 9.05299e-17 0)
(0.037612 9.25868e-18 0)
(0.037612 -3.86479e-18 0)
(0.037612 6.60441e-17 0)
(0.037612 -1.55088e-16 0)
(0.037612 6.35212e-17 0)
(0.037612 1.20743e-17 0)
(0.037612 1.96533e-18 0)
(0.037612 6.17785e-17 0)
(0.037612 -1.36355e-16 0)
(0.037612 8.69458e-17 0)
(0.037612 7.62159e-17 0)
(0.037612 -6.116e-17 0)
(0.037612 -1.19953e-17 0)
(0.037612 -8.53159e-17 0)
(0.037612 7.81967e-17 0)
(0.037612 6.34465e-17 0)
(0.037612 -1.15374e-16 0)
(0.037612 4.79058e-17 0)
(0.037612 -2.14173e-17 0)
(0.037612 1.5128e-17 0)
(0.037612 4.89194e-17 0)
(0.037612 -1.3687e-16 0)
(0.037612 6.56108e-17 0)
(0.037612 -1.19561e-17 0)
(0.037612 7.34106e-18 0)
(0.037612 6.16153e-17 0)
(0.037612 -1.21259e-16 0)
(0.037612 5.93123e-17 0)
(0.037612 -2.42484e-17 0)
(0.037612 -4.66681e-17 0)
(0.037612 1.42043e-16 0)
(0.037612 -5.30551e-17 0)
(0.037612 -4.15388e-17 0)
(0.037612 -8.93534e-17 0)
(0.037612 4.1594e-17 0)
(0.037612 2.08652e-16 0)
(0.037612 -1.1109e-17 0)
(0.037612 -2.15382e-16 0)
(0.037612 -2.7004e-17 0)
(0.037612 9.34184e-17 0)
(0.037612 1.36825e-17 0)
(0.037612 1.09066e-16 0)
(0.037612 -2.0544e-16 0)
(0.037612 -3.61324e-17 0)
(0.037612 8.76592e-17 0)
(0.037612 1.07676e-17 0)
(0.037612 5.929e-17 0)
(0.037612 -1.41361e-16 0)
(0.037612 1.47654e-17 0)
(0.037612 -1.93161e-18 0)
(0.037612 -7.42982e-17 0)
(0.037612 1.06169e-16 0)
(0.037612 -1.03799e-16 0)
(0.037612 -3.20523e-17 0)
(0.037612 -2.34996e-17 0)
(0.037612 -1.05337e-16 0)
(0.037612 9.8418e-17 0)
(0.037612 -1.268e-16 0)
(0.037612 -1.76889e-16 0)
(0.037612 -6.48232e-17 0)
(0.037612 -2.19071e-16 0)
(0.037612 -3.18558e-16 0)
(0.037612 -8.53817e-16 0)
(0.037612 -1.97262e-15 0)
(0.110954 -7.44422e-15 0)
(0.110954 -3.64979e-15 0)
(0.110954 -1.7078e-15 0)
(0.110954 -9.43001e-16 0)
(0.110954 -5.27506e-16 0)
(0.110954 -3.22736e-16 0)
(0.110954 -2.30106e-16 0)
(0.110954 -1.52268e-16 0)
(0.110954 -1.22197e-16 0)
(0.110954 -1.01706e-16 0)
(0.110954 -6.80244e-17 0)
(0.110954 -7.11294e-17 0)
(0.110954 -4.36571e-17 0)
(0.110954 -4.27672e-17 0)
(0.110954 -6.60109e-17 0)
(0.110954 -1.9193e-17 0)
(0.110954 -1.47454e-17 0)
(0.110954 -3.48026e-17 0)
(0.110954 -6.3716e-17 0)
(0.110954 -7.54155e-17 0)
(0.110954 -2.79831e-17 0)
(0.110954 -3.58649e-17 0)
(0.110954 -4.4445e-17 0)
(0.110954 -5.43976e-17 0)
(0.110954 -7.98907e-17 0)
(0.110954 -4.97872e-17 0)
(0.110954 1.13933e-17 0)
(0.110954 -1.49491e-17 0)
(0.110954 -5.03562e-17 0)
(0.110954 -4.89417e-17 0)
(0.110954 -8.25682e-19 0)
(0.110954 5.68976e-17 0)
(0.110954 3.1361e-17 0)
(0.110954 4.47381e-18 0)
(0.110954 5.26586e-18 0)
(0.110954 2.32405e-17 0)
(0.110954 4.95349e-17 0)
(0.110954 -1.77678e-17 0)
(0.110954 -1.99567e-17 0)
(0.110954 6.26447e-17 0)
(0.110954 1.95424e-18 0)
(0.110954 -2.82405e-19 0)
(0.110954 -3.82638e-18 0)
(0.110954 -1.07374e-17 0)
(0.110954 6.56726e-17 0)
(0.110954 2.77844e-17 0)
(0.110954 3.05763e-17 0)
(0.110954 2.12139e-17 0)
(0.110954 -1.75557e-18 0)
(0.110954 -1.75278e-17 0)
(0.110954 -4.86645e-17 0)
(0.110954 3.94439e-17 0)
(0.110954 5.60836e-18 0)
(0.110954 9.90567e-18 0)
(0.110954 6.84571e-17 0)
(0.110954 -1.77676e-17 0)
(0.110954 7.9698e-18 0)
(0.110954 9.07596e-18 0)
(0.110954 2.3958e-17 0)
(0.110954 4.56015e-17 0)
(0.110954 -3.85563e-17 0)
(0.110954 4.8318e-17 0)
(0.110954 2.52657e-17 0)
(0.110954 1.37386e-17 0)
(0.110954 3.55085e-17 0)
(0.110954 -3.5531e-17 0)
(0.110954 1.64722e-18 0)
(0.110954 4.553e-18 0)
(0.110954 1.35221e-17 0)
(0.110954 3.20852e-17 0)
(0.110954 -3.79893e-17 0)
(0.110954 -2.60531e-17 0)
(0.110954 -3.22904e-17 0)
(0.110954 -3.54621e-17 0)
(0.110954 9.19519e-17 0)
(0.110954 -6.90709e-17 0)
(0.110954 -1.16318e-16 0)
(0.110954 4.09384e-17 0)
(0.110954 1.28993e-17 0)
(0.110954 6.09543e-17 0)
(0.110954 -4.09623e-17 0)
(0.110954 -1.27892e-16 0)
(0.110954 3.70272e-18 0)
(0.110954 8.49434e-17 0)
(0.110954 8.19761e-17 0)
(0.110954 -2.86872e-18 0)
(0.110954 -1.08704e-16 0)
(0.110954 -7.94758e-17 0)
(0.110954 7.36162e-17 0)
(0.110954 1.30146e-16 0)
(0.110954 -2.9084e-17 0)
(0.110954 -1.07545e-16 0)
(0.110954 3.96651e-18 0)
(0.110954 1.02582e-16 0)
(0.110954 -1.17757e-18 0)
(0.110954 -1.19071e-16 0)
(0.110954 -4.2051e-17 0)
(0.110954 -1.27805e-17 0)
(0.110954 9.28189e-17 0)
(0.110954 3.43369e-17 0)
(0.110954 -1.65905e-16 0)
(0.110954 -1.57419e-17 0)
(0.110954 -5.90462e-17 0)
(0.110954 2.94157e-17 0)
(0.110954 4.81255e-17 0)
(0.110954 -3.84301e-17 0)
(0.110954 -9.46043e-17 0)
(0.110954 2.23937e-18 0)
(0.110954 7.22673e-17 0)
(0.110954 1.04226e-17 0)
(0.110954 2.06944e-17 0)
(0.110954 -1.97452e-16 0)
(0.110954 2.3342e-17 0)
(0.110954 1.92738e-16 0)
(0.110954 1.53262e-17 0)
(0.110954 -5.37135e-17 0)
(0.110954 -1.15478e-16 0)
(0.110954 3.28581e-17 0)
(0.110954 1.44499e-16 0)
(0.110954 3.82739e-17 0)
(0.110954 -3.86262e-17 0)
(0.110954 -1.1529e-16 0)
(0.110954 2.39705e-17 0)
(0.110954 1.92627e-16 0)
(0.110954 7.29679e-17 0)
(0.110954 -9.57129e-17 0)
(0.110954 -1.6368e-16 0)
(0.110954 -1.58798e-17 0)
(0.110954 1.5959e-16 0)
(0.110954 1.70403e-17 0)
(0.110954 -1.07273e-16 0)
(0.110954 -1.20637e-16 0)
(0.110954 5.25346e-17 0)
(0.110954 1.24437e-16 0)
(0.110954 1.30566e-17 0)
(0.110954 6.14775e-18 0)
(0.110954 -1.08474e-16 0)
(0.110954 -5.5486e-17 0)
(0.110954 1.2085e-16 0)
(0.110954 7.97375e-17 0)
(0.110954 2.43049e-17 0)
(0.110954 -9.94014e-17 0)
(0.110954 -3.69476e-17 0)
(0.110954 8.0686e-17 0)
(0.110954 4.79435e-17 0)
(0.110954 -4.12368e-17 0)
(0.110954 -1.477e-16 0)
(0.110954 -2.11409e-17 0)
(0.110954 1.92014e-17 0)
(0.110954 9.91283e-17 0)
(0.110954 1.01912e-16 0)
(0.110954 -2.08816e-16 0)
(0.110954 -1.20519e-16 0)
(0.110954 1.19647e-16 0)
(0.110954 1.07607e-16 0)
(0.110954 9.09909e-17 0)
(0.110954 -5.99922e-17 0)
(0.110954 -8.26006e-17 0)
(0.110954 5.71392e-17 0)
(0.110954 6.39817e-17 0)
(0.110954 1.29805e-16 0)
(0.110954 -1.10994e-16 0)
(0.110954 -2.85678e-17 0)
(0.110954 1.13243e-16 0)
(0.110954 -1.57714e-16 0)
(0.110954 3.84871e-17 0)
(0.110954 -4.30519e-17 0)
(0.110954 -1.836e-16 0)
(0.110954 1.40158e-16 0)
(0.110954 8.23582e-17 0)
(0.110954 -3.81905e-17 0)
(0.110954 -1.59484e-16 0)
(0.110954 -5.02805e-17 0)
(0.110954 1.28838e-17 0)
(0.110954 -7.25471e-17 0)
(0.110954 -4.92024e-17 0)
(0.110954 -2.34443e-17 0)
(0.110954 2.745e-16 0)
(0.110954 -3.3174e-17 0)
(0.110954 -1.15541e-16 0)
(0.110954 1.60114e-16 0)
(0.110954 -1.6035e-16 0)
(0.110954 -3.84941e-17 0)
(0.110954 2.52924e-17 0)
(0.110954 -4.76271e-17 0)
(0.110954 1.8761e-16 0)
(0.110954 -9.42403e-17 0)
(0.110954 -1.80905e-17 0)
(0.110954 9.82046e-17 0)
(0.110954 -1.57052e-16 0)
(0.110954 4.22976e-17 0)
(0.110954 -3.60054e-17 0)
(0.110954 -9.24652e-17 0)
(0.110954 1.91296e-16 0)
(0.110954 -4.14149e-17 0)
(0.110954 -2.65903e-17 0)
(0.110954 -1.0577e-16 0)
(0.110954 2.57256e-17 0)
(0.110954 2.75084e-16 0)
(0.110954 -1.5893e-16 0)
(0.110954 -5.31087e-17 0)
(0.110954 -1.01603e-16 0)
(0.110954 5.94397e-17 0)
(0.110954 3.17003e-16 0)
(0.110954 -8.47661e-17 0)
(0.110954 -2.37438e-16 0)
(0.110954 -1.26629e-16 0)
(0.110954 1.97618e-16 0)
(0.110954 2.14226e-16 0)
(0.110954 -8.52649e-17 0)
(0.110954 -2.2454e-16 0)
(0.110954 -1.19073e-16 0)
(0.110954 3.49575e-16 0)
(0.110954 1.32729e-17 0)
(0.110954 -3.35906e-16 0)
(0.110954 2.78978e-16 0)
(0.110954 1.17725e-16 0)
(0.110954 -1.61094e-16 0)
(0.110954 -1.60495e-16 0)
(0.110954 -1.52925e-16 0)
(0.110954 3.5822e-16 0)
(0.110954 1.49546e-16 0)
(0.110954 -2.21317e-16 0)
(0.110954 -1.8241e-16 0)
(0.110954 -1.29349e-16 0)
(0.110954 3.7049e-16 0)
(0.110954 4.25639e-17 0)
(0.110954 -1.68302e-16 0)
(0.110954 2.53857e-17 0)
(0.110954 -9.18914e-17 0)
(0.110954 1.12109e-16 0)
(0.110954 -2.99298e-17 0)
(0.110954 5.61495e-17 0)
(0.110954 4.76188e-17 0)
(0.110954 -2.92709e-16 0)
(0.110954 2.26168e-17 0)
(0.110954 7.57625e-17 0)
(0.110954 6.62305e-18 0)
(0.110954 3.18649e-17 0)
(0.110954 -1.78168e-16 0)
(0.110954 8.53708e-17 0)
(0.110954 -3.5134e-17 0)
(0.110954 7.15098e-18 0)
(0.110954 8.77161e-17 0)
(0.110954 -3.12584e-16 0)
(0.110954 -5.34532e-17 0)
(0.110954 1.15673e-16 0)
(0.110954 1.32194e-16 0)
(0.110954 -8.88237e-18 0)
(0.110954 -2.44955e-16 0)
(0.110954 1.79208e-16 0)
(0.110954 7.25367e-17 0)
(0.110954 -2.75655e-17 0)
(0.110954 1.0013e-17 0)
(0.110954 -2.16695e-16 0)
(0.110954 2.1876e-16 0)
(0.110954 5.54179e-17 0)
(0.110954 -1.28484e-17 0)
(0.110954 7.01694e-17 0)
(0.110954 -2.59934e-16 0)
(0.110954 8.7638e-17 0)
(0.110954 9.47042e-17 0)
(0.110954 -6.21106e-17 0)
(0.110954 -4.05718e-18 0)
(0.110954 -9.23201e-17 0)
(0.110954 2.03304e-16 0)
(0.110954 1.61757e-16 0)
(0.110954 2.3341e-17 0)
(0.110954 -7.94912e-17 0)
(0.110954 -1.793e-16 0)
(0.110954 9.80234e-17 0)
(0.110954 5.53047e-17 0)
(0.110954 8.62604e-17 0)
(0.110954 -1.05756e-16 0)
(0.110954 -2.31057e-16 0)
(0.110954 4.41668e-17 0)
(0.110954 -2.65531e-17 0)
(0.110954 -1.18427e-16 0)
(0.110954 6.96984e-17 0)
(0.110954 -7.38414e-17 0)
(0.110954 3.5185e-17 0)
(0.110954 1.12393e-16 0)
(0.110954 2.26938e-18 0)
(0.110954 -9.0519e-17 0)
(0.110954 -1.88642e-16 0)
(0.110954 4.52647e-17 0)
(0.110954 2.0111e-16 0)
(0.110954 1.28257e-16 0)
(0.110954 -2.46179e-16 0)
(0.110954 -1.69756e-16 0)
(0.110954 2.09139e-16 0)
(0.110954 -3.60536e-18 0)
(0.110954 -6.85435e-17 0)
(0.110954 -1.2784e-16 0)
(0.110954 -1.88189e-18 0)
(0.110954 2.94441e-16 0)
(0.110954 -8.90234e-17 0)
(0.110954 -8.36287e-17 0)
(0.110954 -1.71978e-16 0)
(0.110954 -3.19554e-17 0)
(0.110954 3.18234e-16 0)
(0.110954 -3.35413e-17 0)
(0.110954 5.42017e-17 0)
(0.110954 -1.62861e-16 0)
(0.110954 -3.89416e-16 0)
(0.110954 -6.76943e-17 0)
(0.110954 2.44152e-17 0)
(0.110954 8.97954e-17 0)
(0.110954 -2.19117e-16 0)
(0.110954 -9.76027e-17 0)
(0.110954 -5.54182e-17 0)
(0.110954 -1.82959e-16 0)
(0.110954 6.81883e-17 0)
(0.110954 -2.42e-16 0)
(0.110954 -3.81217e-16 0)
(0.110954 -2.5685e-16 0)
(0.110954 -6.99558e-16 0)
(0.110954 -9.21606e-16 0)
(0.110954 -1.71941e-15 0)
(0.110954 -3.72693e-15 0)
(0.18241 -3.96203e-15 0)
(0.18241 -2.83319e-15 0)
(0.18241 -1.81456e-15 0)
(0.18241 -1.16453e-15 0)
(0.18241 -7.36531e-16 0)
(0.18241 -4.87254e-16 0)
(0.18241 -3.37961e-16 0)
(0.18241 -2.25962e-16 0)
(0.18241 -1.98416e-16 0)
(0.18241 -1.54321e-16 0)
(0.18241 -1.01947e-16 0)
(0.18241 -1.00861e-16 0)
(0.18241 -7.0326e-17 0)
(0.18241 -7.12664e-17 0)
(0.18241 -1.10958e-16 0)
(0.18241 -7.20822e-17 0)
(0.18241 -5.87779e-17 0)
(0.18241 -7.0338e-17 0)
(0.18241 -1.13399e-16 0)
(0.18241 -1.07145e-16 0)
(0.18241 -7.27885e-17 0)
(0.18241 -1.1158e-16 0)
(0.18241 -1.16059e-16 0)
(0.18241 -7.80763e-17 0)
(0.18241 -1.18846e-16 0)
(0.18241 -8.26352e-17 0)
(0.18241 -3.19799e-17 0)
(0.18241 -3.19868e-17 0)
(0.18241 -6.97598e-17 0)
(0.18241 -6.36421e-17 0)
(0.18241 2.21928e-17 0)
(0.18241 1.36222e-16 0)
(0.18241 6.96488e-17 0)
(0.18241 1.95619e-18 0)
(0.18241 3.29108e-18 0)
(0.18241 3.36073e-17 0)
(0.18241 9.04036e-17 0)
(0.18241 4.81464e-17 0)
(0.18241 -1.33334e-18 0)
(0.18241 5.14349e-17 0)
(0.18241 4.50719e-17 0)
(0.18241 2.54944e-17 0)
(0.18241 4.11427e-17 0)
(0.18241 -1.95071e-18 0)
(0.18241 3.70461e-17 0)
(0.18241 9.9955e-17 0)
(0.18241 8.2099e-17 0)
(0.18241 5.14778e-17 0)
(0.18241 1.45867e-17 0)
(0.18241 -8.30425e-18 0)
(0.18241 -2.73851e-17 0)
(0.18241 8.8533e-18 0)
(0.18241 2.22007e-17 0)
(0.18241 3.74424e-17 0)
(0.18241 9.39541e-17 0)
(0.18241 2.86366e-17 0)
(0.18241 3.42433e-17 0)
(0.18241 2.67719e-17 0)
(0.18241 5.97431e-17 0)
(0.18241 7.19607e-17 0)
(0.18241 -2.05226e-17 0)
(0.18241 1.2415e-16 0)
(0.18241 4.8795e-17 0)
(0.18241 -1.58538e-18 0)
(0.18241 7.70853e-17 0)
(0.18241 -5.81072e-17 0)
(0.18241 -6.54327e-18 0)
(0.18241 1.6468e-17 0)
(0.18241 2.33288e-17 0)
(0.18241 4.99039e-17 0)
(0.18241 -7.69792e-17 0)
(0.18241 -4.4547e-17 0)
(0.18241 -6.60284e-17 0)
(0.18241 -1.05951e-19 0)
(0.18241 7.44543e-17 0)
(0.18241 -1.11036e-16 0)
(0.18241 -1.35089e-16 0)
(0.18241 -7.63686e-18 0)
(0.18241 -6.60811e-18 0)
(0.18241 3.60629e-17 0)
(0.18241 -4.83941e-17 0)
(0.18241 -9.869e-17 0)
(0.18241 6.68123e-17 0)
(0.18241 9.32141e-17 0)
(0.18241 4.83954e-17 0)
(0.18241 -1.87537e-17 0)
(0.18241 -2.08819e-17 0)
(0.18241 -9.37779e-17 0)
(0.18241 -5.08472e-17 0)
(0.18241 1.42053e-16 0)
(0.18241 -2.62541e-18 0)
(0.18241 -5.18538e-17 0)
(0.18241 4.357e-17 0)
(0.18241 3.59351e-17 0)
(0.18241 -1.50696e-17 0)
(0.18241 -8.11442e-17 0)
(0.18241 -7.57079e-17 0)
(0.18241 -4.94307e-17 0)
(0.18241 -1.13114e-17 0)
(0.18241 -2.33773e-17 0)
(0.18241 -9.08791e-17 0)
(0.18241 -8.78994e-17 0)
(0.18241 -9.26536e-17 0)
(0.18241 -6.08961e-17 0)
(0.18241 -7.18937e-18 0)
(0.18241 -9.96605e-18 0)
(0.18241 -1.65059e-16 0)
(0.18241 -1.13736e-16 0)
(0.18241 8.98543e-17 0)
(0.18241 1.41293e-16 0)
(0.18241 7.72521e-18 0)
(0.18241 -2.39845e-16 0)
(0.18241 2.62478e-17 0)
(0.18241 2.16126e-16 0)
(0.18241 9.81546e-17 0)
(0.18241 5.25536e-18 0)
(0.18241 -1.92188e-16 0)
(0.18241 -4.8266e-17 0)
(0.18241 2.9814e-16 0)
(0.18241 1.82063e-16 0)
(0.18241 -1.17678e-16 0)
(0.18241 -1.96111e-16 0)
(0.18241 5.23726e-17 0)
(0.18241 3.32351e-16 0)
(0.18241 2.31176e-16 0)
(0.18241 -1.30312e-16 0)
(0.18241 -4.09117e-16 0)
(0.18241 -5.52431e-17 0)
(0.18241 2.11362e-16 0)
(0.18241 2.49277e-17 0)
(0.18241 -1.18528e-16 0)
(0.18241 -2.24103e-16 0)
(0.18241 4.52439e-17 0)
(0.18241 2.45302e-16 0)
(0.18241 6.02578e-17 0)
(0.18241 -6.07659e-17 0)
(0.18241 -1.39636e-16 0)
(0.18241 -1.10298e-17 0)
(0.18241 2.46479e-16 0)
(0.18241 1.27834e-16 0)
(0.18241 -5.7338e-17 0)
(0.18241 -1.3608e-16 0)
(0.18241 3.88338e-17 0)
(0.18241 1.0535e-16 0)
(0.18241 -2.94996e-17 0)
(0.18241 -1.30598e-16 0)
(0.18241 -1.40065e-16 0)
(0.18241 6.38667e-17 0)
(0.18241 2.57835e-17 0)
(0.18241 -3.06889e-17 0)
(0.18241 1.27152e-16 0)
(0.18241 -7.19318e-17 0)
(0.18241 -1.36607e-16 0)
(0.18241 4.98546e-17 0)
(0.18241 1.0971e-16 0)
(0.18241 1.52271e-16 0)
(0.18241 -2.61991e-18 0)
(0.18241 -9.15673e-17 0)
(0.18241 5.78123e-17 0)
(0.18241 1.39627e-16 0)
(0.18241 1.60417e-16 0)
(0.18241 -1.33602e-16 0)
(0.18241 -1.08772e-16 0)
(0.18241 1.28624e-16 0)
(0.18241 -4.41691e-17 0)
(0.18241 -4.79371e-17 0)
(0.18241 -7.98646e-17 0)
(0.18241 -9.60329e-17 0)
(0.18241 -3.23081e-17 0)
(0.18241 -4.57639e-17 0)
(0.18241 -1.11563e-16 0)
(0.18241 -1.64677e-16 0)
(0.18241 -7.66992e-17 0)
(0.18241 6.31086e-17 0)
(0.18241 6.96211e-17 0)
(0.18241 -1.45342e-16 0)
(0.18241 -1.46638e-16 0)
(0.18241 1.3117e-16 0)
(0.18241 7.00408e-17 0)
(0.18241 1.5507e-16 0)
(0.18241 2.40604e-17 0)
(0.18241 -3.34907e-16 0)
(0.18241 -9.24398e-17 0)
(0.18241 1.13643e-16 0)
(0.18241 6.89838e-17 0)
(0.18241 1.59012e-16 0)
(0.18241 -1.15167e-16 0)
(0.18241 -1.14703e-16 0)
(0.18241 1.03319e-16 0)
(0.18241 -4.47689e-17 0)
(0.18241 -5.30967e-17 0)
(0.18241 -5.28729e-17 0)
(0.18241 -5.23834e-17 0)
(0.18241 6.44186e-17 0)
(0.18241 1.74067e-17 0)
(0.18241 -3.4611e-17 0)
(0.18241 -4.64292e-17 0)
(0.18241 1.89358e-17 0)
(0.18241 1.03829e-16 0)
(0.18241 -1.22783e-17 0)
(0.18241 -3.34588e-17 0)
(0.18241 -4.57816e-17 0)
(0.18241 6.40412e-17 0)
(0.18241 1.50498e-16 0)
(0.18241 -7.50226e-18 0)
(0.18241 -1.08527e-16 0)
(0.18241 -7.85655e-17 0)
(0.18241 5.47007e-17 0)
(0.18241 7.20575e-17 0)
(0.18241 -3.29153e-17 0)
(0.18241 -1.08903e-16 0)
(0.18241 -1.43193e-16 0)
(0.18241 3.36555e-16 0)
(0.18241 6.19366e-17 0)
(0.18241 -3.00175e-16 0)
(0.18241 2.22104e-16 0)
(0.18241 -1.17876e-17 0)
(0.18241 -3.30764e-17 0)
(0.18241 -1.2129e-16 0)
(0.18241 -2.59923e-16 0)
(0.18241 4.17916e-16 0)
(0.18241 1.07579e-16 0)
(0.18241 -1.49604e-16 0)
(0.18241 -1.35577e-16 0)
(0.18241 -2.45936e-16 0)
(0.18241 4.15073e-16 0)
(0.18241 6.04817e-17 0)
(0.18241 -2.22625e-16 0)
(0.18241 -8.53068e-17 0)
(0.18241 -1.31767e-16 0)
(0.18241 4.23923e-16 0)
(0.18241 8.80927e-17 0)
(0.18241 -9.47937e-17 0)
(0.18241 -9.58018e-18 0)
(0.18241 -3.74283e-16 0)
(0.18241 -6.67892e-17 0)
(0.18241 -5.98711e-17 0)
(0.18241 2.01198e-16 0)
(0.18241 2.19778e-16 0)
(0.18241 -3.67041e-16 0)
(0.18241 1.3919e-17 0)
(0.18241 -1.66928e-16 0)
(0.18241 2.86273e-17 0)
(0.18241 1.04233e-16 0)
(0.18241 -5.67926e-16 0)
(0.18241 -4.4074e-17 0)
(0.18241 1.39795e-16 0)
(0.18241 1.63402e-16 0)
(0.18241 -7.179e-18 0)
(0.18241 -3.46765e-16 0)
(0.18241 4.5641e-16 0)
(0.18241 1.46351e-16 0)
(0.18241 -2.05591e-16 0)
(0.18241 -2.21105e-16 0)
(0.18241 -2.09468e-16 0)
(0.18241 6.18746e-16 0)
(0.18241 7.462e-17 0)
(0.18241 -1.61741e-16 0)
(0.18241 5.42613e-17 0)
(0.18241 -3.01367e-16 0)
(0.18241 2.15846e-16 0)
(0.18241 4.02001e-17 0)
(0.18241 -5.48779e-17 0)
(0.18241 -6.20294e-18 0)
(0.18241 -1.38386e-16 0)
(0.18241 4.42011e-16 0)
(0.18241 1.7169e-16 0)
(0.18241 2.45497e-17 0)
(0.18241 4.89311e-17 0)
(0.18241 -3.03364e-16 0)
(0.18241 1.12285e-16 0)
(0.18241 6.92772e-17 0)
(0.18241 3.41715e-17 0)
(0.18241 -3.52915e-17 0)
(0.18241 -4.20435e-16 0)
(0.18241 -3.55948e-18 0)
(0.18241 -6.77426e-17 0)
(0.18241 -7.63032e-17 0)
(0.18241 3.86309e-17 0)
(0.18241 -3.01293e-16 0)
(0.18241 1.08976e-16 0)
(0.18241 5.05389e-17 0)
(0.18241 7.0919e-18 0)
(0.18241 3.96785e-17 0)
(0.18241 -3.28406e-16 0)
(0.18241 1.35034e-16 0)
(0.18241 2.37237e-16 0)
(0.18241 -9.90715e-17 0)
(0.18241 -1.77574e-16 0)
(0.18241 -1.9297e-16 0)
(0.18241 2.36669e-16 0)
(0.18241 1.46368e-16 0)
(0.18241 -2.08982e-16 0)
(0.18241 -2.39227e-17 0)
(0.18241 -4.75422e-17 0)
(0.18241 6.60531e-17 0)
(0.18241 1.90635e-16 0)
(0.18241 -1.59352e-16 0)
(0.18241 -1.75874e-16 0)
(0.18241 -1.54099e-16 0)
(0.18241 1.93579e-16 0)
(0.18241 3.56957e-16 0)
(0.18241 -2.39779e-17 0)
(0.18241 -4.8714e-16 0)
(0.18241 -3.43621e-16 0)
(0.18241 -1.98701e-17 0)
(0.18241 -9.63642e-17 0)
(0.18241 -7.09924e-17 0)
(0.18241 -3.71563e-16 0)
(0.18241 -1.16389e-16 0)
(0.18241 -7.80562e-17 0)
(0.18241 -2.63489e-16 0)
(0.18241 -5.40142e-18 0)
(0.18241 -3.33726e-16 0)
(0.18241 -5.20879e-16 0)
(0.18241 -6.46068e-16 0)
(0.18241 -9.82057e-16 0)
(0.18241 -1.0475e-15 0)
(0.18241 -1.89801e-15 0)
(0.18241 -3.02505e-15 0)
(0.251979 -2.51758e-15 0)
(0.251979 -2.17655e-15 0)
(0.251979 -1.64401e-15 0)
(0.251979 -1.17759e-15 0)
(0.251979 -8.28007e-16 0)
(0.251979 -5.72336e-16 0)
(0.251979 -3.88636e-16 0)
(0.251979 -2.63665e-16 0)
(0.251979 -2.26151e-16 0)
(0.251979 -1.82888e-16 0)
(0.251979 -1.41473e-16 0)
(0.251979 -1.4127e-16 0)
(0.251979 -9.46073e-17 0)
(0.251979 -8.91849e-17 0)
(0.251979 -1.45546e-16 0)
(0.251979 -1.09814e-16 0)
(0.251979 -1.33229e-16 0)
(0.251979 -1.45695e-16 0)
(0.251979 -1.50795e-16 0)
(0.251979 -1.45647e-16 0)
(0.251979 -1.25842e-16 0)
(0.251979 -1.44547e-16 0)
(0.251979 -1.6336e-16 0)
(0.251979 -1.6045e-16 0)
(0.251979 -1.7043e-16 0)
(0.251979 -1.02235e-16 0)
(0.251979 -1.4407e-17 0)
(0.251979 -7.14386e-17 0)
(0.251979 -1.10357e-16 0)
(0.251979 -3.27551e-17 0)
(0.251979 6.2869e-17 0)
(0.251979 1.54207e-16 0)
(0.251979 1.23168e-16 0)
(0.251979 1.09953e-17 0)
(0.251979 6.63976e-18 0)
(0.251979 4.5937e-17 0)
(0.251979 1.4962e-16 0)
(0.251979 1.21852e-16 0)
(0.251979 2.47862e-17 0)
(0.251979 8.09332e-17 0)
(0.251979 8.71238e-17 0)
(0.251979 6.05155e-17 0)
(0.251979 6.4713e-17 0)
(0.251979 2.78336e-17 0)
(0.251979 7.77977e-17 0)
(0.251979 1.14374e-16 0)
(0.251979 1.1328e-16 0)
(0.251979 9.86257e-17 0)
(0.251979 4.40653e-17 0)
(0.251979 2.15885e-17 0)
(0.251979 -2.28449e-17 0)
(0.251979 3.70251e-17 0)
(0.251979 7.9978e-17 0)
(0.251979 7.3569e-17 0)
(0.251979 1.32845e-16 0)
(0.251979 4.64752e-17 0)
(0.251979 6.61981e-17 0)
(0.251979 9.19364e-17 0)
(0.251979 8.01392e-17 0)
(0.251979 1.13276e-16 0)
(0.251979 2.17676e-17 0)
(0.251979 1.28296e-16 0)
(0.251979 1.01327e-16 0)
(0.251979 6.5474e-17 0)
(0.251979 3.441e-17 0)
(0.251979 -1.04238e-16 0)
(0.251979 3.694e-17 0)
(0.251979 2.52932e-17 0)
(0.251979 5.84704e-17 0)
(0.251979 8.05247e-17 0)
(0.251979 -1.37886e-16 0)
(0.251979 -9.178e-17 0)
(0.251979 -1.26511e-16 0)
(0.251979 -5.22918e-17 0)
(0.251979 8.17686e-17 0)
(0.251979 -1.22995e-16 0)
(0.251979 -1.09141e-16 0)
(0.251979 -2.50339e-17 0)
(0.251979 -3.69413e-17 0)
(0.251979 7.01511e-17 0)
(0.251979 -4.89411e-17 0)
(0.251979 -9.40076e-17 0)
(0.251979 9.05739e-17 0)
(0.251979 1.21914e-16 0)
(0.251979 4.79744e-17 0)
(0.251979 -6.72978e-17 0)
(0.251979 -3.63702e-17 0)
(0.251979 -1.50132e-17 0)
(0.251979 -3.29275e-17 0)
(0.251979 9.0297e-17 0)
(0.251979 2.99399e-17 0)
(0.251979 -7.33326e-18 0)
(0.251979 3.53993e-17 0)
(0.251979 4.39247e-17 0)
(0.251979 -1.27065e-17 0)
(0.251979 -1.36834e-16 0)
(0.251979 -8.88037e-17 0)
(0.251979 -5.34145e-17 0)
(0.251979 -9.12005e-17 0)
(0.251979 -7.38928e-17 0)
(0.251979 -1.297e-16 0)
(0.251979 -1.65958e-16 0)
(0.251979 -2.34602e-16 0)
(0.251979 -1.51996e-16 0)
(0.251979 -1.50463e-17 0)
(0.251979 -3.91087e-17 0)
(0.251979 -2.62994e-16 0)
(0.251979 -2.36065e-16 0)
(0.251979 1.23842e-16 0)
(0.251979 2.35874e-16 0)
(0.251979 1.33642e-17 0)
(0.251979 -2.4116e-16 0)
(0.251979 3.84729e-17 0)
(0.251979 2.41583e-16 0)
(0.251979 2.18163e-16 0)
(0.251979 9.29267e-17 0)
(0.251979 -2.44159e-16 0)
(0.251979 -8.60163e-17 0)
(0.251979 3.57829e-16 0)
(0.251979 2.93705e-16 0)
(0.251979 -1.33663e-16 0)
(0.251979 -2.83934e-16 0)
(0.251979 1.27013e-16 0)
(0.251979 4.30112e-16 0)
(0.251979 2.14929e-16 0)
(0.251979 -1.14437e-16 0)
(0.251979 -4.17967e-16 0)
(0.251979 -1.74996e-16 0)
(0.251979 2.13958e-16 0)
(0.251979 3.53276e-17 0)
(0.251979 -1.62372e-16 0)
(0.251979 -1.35123e-16 0)
(0.251979 3.30052e-17 0)
(0.251979 2.44022e-16 0)
(0.251979 1.49518e-16 0)
(0.251979 -4.67985e-17 0)
(0.251979 -2.49991e-16 0)
(0.251979 -5.33317e-17 0)
(0.251979 3.98866e-16 0)
(0.251979 2.17026e-16 0)
(0.251979 -1.01644e-16 0)
(0.251979 -2.5646e-16 0)
(0.251979 8.77411e-17 0)
(0.251979 1.75679e-16 0)
(0.251979 1.28442e-17 0)
(0.251979 -1.01677e-16 0)
(0.251979 -3.35729e-16 0)
(0.251979 4.24116e-17 0)
(0.251979 1.3148e-16 0)
(0.251979 5.35195e-17 0)
(0.251979 7.13882e-17 0)
(0.251979 -2.08105e-16 0)
(0.251979 -4.38528e-17 0)
(0.251979 1.28408e-16 0)
(0.251979 1.59307e-16 0)
(0.251979 1.30398e-16 0)
(0.251979 -4.14344e-17 0)
(0.251979 -4.86794e-17 0)
(0.251979 1.48513e-16 0)
(0.251979 1.71766e-16 0)
(0.251979 1.41596e-16 0)
(0.251979 -1.80417e-16 0)
(0.251979 -3.79123e-17 0)
(0.251979 1.70635e-16 0)
(0.251979 -1.72451e-16 0)
(0.251979 -1.1199e-16 0)
(0.251979 -1.19585e-16 0)
(0.251979 -1.20823e-16 0)
(0.251979 -7.34185e-17 0)
(0.251979 -1.02294e-16 0)
(0.251979 -1.62699e-16 0)
(0.251979 -2.51603e-16 0)
(0.251979 -1.50238e-16 0)
(0.251979 1.43552e-16 0)
(0.251979 5.91961e-17 0)
(0.251979 -1.90635e-16 0)
(0.251979 -1.3166e-16 0)
(0.251979 4.76223e-17 0)
(0.251979 7.0827e-17 0)
(0.251979 1.18867e-16 0)
(0.251979 1.82181e-17 0)
(0.251979 -2.97917e-16 0)
(0.251979 -4.02874e-17 0)
(0.251979 1.20147e-16 0)
(0.251979 1.80904e-19 0)
(0.251979 5.07142e-17 0)
(0.251979 -8.9542e-17 0)
(0.251979 -4.58053e-17 0)
(0.251979 1.72912e-17 0)
(0.251979 -9.31052e-17 0)
(0.251979 -8.36558e-17 0)
(0.251979 -8.48838e-17 0)
(0.251979 -1.22671e-16 0)
(0.251979 9.93159e-17 0)
(0.251979 7.47679e-17 0)
(0.251979 -8.13012e-17 0)
(0.251979 -6.20659e-17 0)