/*--------------------------------*- C++ -*----------------------------------*\
| =========                 |                                                 |
| \\      /  F ield         | OpenFOAM: The Open Source CFD Toolbox           |
|  \\    /   O peration     | Version:  2112                                  |
|   \\  /    A nd           | Website:  www.openfoam.com                      |
|    \\/     M anipulation  |                                                 |
\*---------------------------------------------------------------------------*/
FoamFile
{
    version     2.0;
    format      ascii;
    arch        "LSB;label=32;scalar=64";
    class       volScalarField;
    location    "4";
    object      p;
}
// * * * * * * * * * * * * * * * * * * * * * * * * * * * * * * * * * * * * * //

dimensions      [0 2 -2 0 0 0 0];

internalField   nonuniform List<scalar> 
25600
(
3.8125e-14
8.55649e-14
1.12231e-13
1.28528e-13
1.38359e-13
1.46803e-13
1.53296e-13
1.57671e-13
1.6174e-13
1.64823e-13
1.67129e-13
1.69102e-13
1.70104e-13
1.72584e-13
1.75435e-13
1.75544e-13
1.75945e-13
1.76557e-13
1.76575e-13
1.76649e-13
1.76381e-13
1.76747e-13
1.77726e-13
1.78364e-13
1.78592e-13
1.77844e-13
1.77105e-13
1.78055e-13
1.78203e-13
1.779e-13
1.76217e-13
1.75297e-13
1.76951e-13
1.77909e-13
1.77523e-13
1.77295e-13
1.76798e-13
1.7782e-13
1.78874e-13
1.78345e-13
1.79765e-13
1.79593e-13
1.80092e-13
1.81225e-13
1.80226e-13
1.81318e-13
1.82687e-13
1.83804e-13
1.85214e-13
1.86744e-13
1.87822e-13
1.86725e-13
1.88321e-13
1.8901e-13
1.88676e-13
1.91023e-13
1.90694e-13
1.91177e-13
1.90662e-13
1.89561e-13
1.90466e-13
1.87424e-13
1.87992e-13
1.88112e-13
1.86886e-13
1.88978e-13
1.87556e-13
1.87994e-13
1.88053e-13
1.87762e-13
1.88765e-13
1.88602e-13
1.89321e-13
1.88959e-13
1.87366e-13
1.9052e-13
1.9106e-13
1.88975e-13
1.89926e-13
1.8827e-13
1.89572e-13
1.90401e-13
1.86637e-13
1.85126e-13
1.84083e-13
1.84962e-13
1.85952e-13
1.84249e-13
1.82567e-13
1.81789e-13
1.86144e-13
1.89036e-13
1.87088e-13
1.8583e-13
1.88473e-13
1.91037e-13
1.89968e-13
1.90865e-13
1.91762e-13
1.94891e-13
1.99643e-13
1.99329e-13
2.01334e-13
2.0077e-13
2.01492e-13
2.04572e-13
2.07722e-13
2.07045e-13
2.06012e-13
2.07995e-13
2.09761e-13
2.15691e-13
2.11304e-13
2.09762e-13
2.14669e-13
2.19029e-13
2.23215e-13
2.21317e-13
2.20112e-13
2.24924e-13
2.30688e-13
2.33965e-13
2.31507e-13
2.28825e-13
2.3432e-13
2.41942e-13
2.45905e-13
2.42875e-13
2.40839e-13
2.46629e-13
2.51379e-13
2.53697e-13
2.51443e-13
2.51345e-13
2.56724e-13
2.59949e-13
2.63228e-13
2.62417e-13
2.61395e-13
2.66078e-13
2.69696e-13
2.7232e-13
2.70339e-13
2.71385e-13
2.76124e-13
2.78335e-13
2.81962e-13
2.81702e-13
2.82947e-13
2.84044e-13
2.84651e-13
2.91647e-13
2.92988e-13
2.90069e-13
2.90619e-13
2.92578e-13
2.97753e-13
3.00449e-13
2.98499e-13
2.99085e-13
3.00642e-13
3.08392e-13
3.08729e-13
3.07195e-13
3.14151e-13
3.13383e-13
3.17267e-13
3.20022e-13
3.18239e-13
3.21533e-13
3.23827e-13
3.28853e-13
3.28422e-13
3.29186e-13
3.33736e-13
3.36357e-13
3.38876e-13
3.36815e-13
3.44064e-13
3.47475e-13
3.47085e-13
3.5541e-13
3.53484e-13
3.52617e-13
3.56062e-13
3.54511e-13
3.61988e-13
3.61365e-13
3.60142e-13
3.66645e-13
3.64689e-13
3.67323e-13
3.69627e-13
3.66077e-13
3.71197e-13
3.73147e-13
3.75728e-13
3.75185e-13
3.72634e-13
3.80833e-13
3.81122e-13
3.83573e-13
3.81607e-13
3.7897e-13
3.87286e-13
3.9027e-13
3.89035e-13
3.84119e-13
3.84484e-13
3.90289e-13
3.93032e-13
3.91498e-13
3.82136e-13
3.90143e-13
3.98285e-13
3.87073e-13
3.92829e-13
3.97663e-13
3.98367e-13
3.98426e-13
3.866e-13
3.93103e-13
3.99836e-13
3.98654e-13
3.9837e-13
3.86182e-13
3.92227e-13
3.95559e-13
3.91118e-13
3.92811e-13
3.84735e-13
3.89581e-13
3.90641e-13
3.88603e-13
3.93743e-13
3.8548e-13
3.85439e-13
3.84837e-13
3.85927e-13
3.93624e-13
3.86408e-13
3.90036e-13
3.88965e-13
3.88038e-13
3.98656e-13
3.90037e-13
3.8629e-13
3.86354e-13
3.9094e-13
3.98309e-13
3.88759e-13
3.93331e-13
3.96373e-13
3.93866e-13
3.93987e-13
3.81246e-13
3.86653e-13
3.87821e-13
3.83698e-13
3.88693e-13
3.78713e-13
3.77987e-13
3.77246e-13
3.73674e-13
3.73902e-13
3.63199e-13
3.65315e-13
3.66943e-13
3.65787e-13
3.67123e-13
3.57184e-13
3.56829e-13
3.55415e-13
3.54026e-13
3.54955e-13
3.45101e-13
3.43692e-13
3.42439e-13
3.36777e-13
3.38023e-13
3.28916e-13
3.24957e-13
3.2416e-13
3.20103e-13
3.19881e-13
3.09896e-13
3.04105e-13
3.04266e-13
3.03511e-13
2.99754e-13
2.89222e-13
2.89048e-13
2.89737e-13
2.86867e-13
2.82421e-13
2.74195e-13
2.75131e-13
2.74878e-13
2.73935e-13
2.68202e-13
2.57749e-13
2.57699e-13
2.56975e-13
2.59575e-13
2.55749e-13
2.45207e-13
2.41106e-13
2.34974e-13
2.35339e-13
2.27173e-13
2.19667e-13
2.16426e-13
2.03339e-13
1.99053e-13
1.91059e-13
1.74571e-13
1.63635e-13
1.43809e-13
1.25532e-13
9.56172e-14
7.39372e-14
9.50794e-14
1.16206e-13
1.30211e-13
1.39362e-13
1.47445e-13
1.53708e-13
1.58079e-13
1.62259e-13
1.65277e-13
1.67373e-13
1.69162e-13
1.70422e-13
1.7292e-13
1.75468e-13
1.758e-13
1.76158e-13
1.76878e-13
1.76563e-13
1.76642e-13
1.76765e-13
1.76933e-13
1.77482e-13
1.78114e-13
1.78151e-13
1.77886e-13
1.77733e-13
1.77942e-13
1.77484e-13
1.77671e-13
1.76283e-13
1.75586e-13
1.77011e-13
1.77772e-13
1.77572e-13
1.77289e-13
1.76982e-13
1.77305e-13
1.78612e-13
1.78833e-13
1.79622e-13
1.79691e-13
1.79974e-13
1.80971e-13
1.80813e-13
1.80956e-13
1.82577e-13
1.83667e-13
1.85073e-13
1.86744e-13
1.86932e-13
1.87091e-13
1.88323e-13
1.88903e-13
1.89191e-13
1.90429e-13
1.90415e-13
1.91103e-13
1.90798e-13
1.90146e-13
1.89751e-13
1.87349e-13
1.87941e-13
1.88144e-13
1.87363e-13
1.88917e-13
1.87565e-13
1.87838e-13
1.88343e-13
1.88278e-13
1.88722e-13
1.88501e-13
1.8931e-13
1.88476e-13
1.87968e-13
1.90113e-13
1.90383e-13
1.89474e-13
1.90028e-13
1.88679e-13
1.89024e-13
1.89312e-13
1.8676e-13
1.85744e-13
1.85111e-13
1.85082e-13
1.84518e-13
1.83689e-13
1.83939e-13
1.83158e-13
1.85595e-13
1.87717e-13
1.87194e-13
1.87202e-13
1.8856e-13
1.8965e-13
1.89618e-13
1.90924e-13
1.93215e-13
1.95465e-13
1.97714e-13
1.9946e-13
2.01057e-13
2.01771e-13
2.01913e-13
2.04057e-13
2.07299e-13
2.07962e-13
2.06973e-13
2.07692e-13
2.09953e-13
2.13716e-13
2.11962e-13
2.11657e-13
2.14471e-13
2.18054e-13
2.22323e-13
2.22186e-13
2.20931e-13
2.24533e-13
2.30241e-13
2.32891e-13
2.31557e-13
2.30295e-13
2.34743e-13
2.41093e-13
2.45078e-13
2.43027e-13
2.4239e-13
2.46785e-13
2.50624e-13
2.53135e-13
2.52276e-13
2.51849e-13
2.56037e-13
2.59672e-13
2.62862e-13
2.62393e-13
2.61526e-13
2.6576e-13
2.69592e-13
2.72051e-13
2.70259e-13
2.7166e-13
2.75987e-13
2.7883e-13
2.81142e-13
2.80798e-13
2.82958e-13
2.84817e-13
2.85901e-13
2.90113e-13
2.91326e-13
2.90643e-13
2.91484e-13
2.93353e-13
2.97199e-13
2.99771e-13
2.99121e-13
2.99587e-13
3.02031e-13
3.07135e-13
3.08198e-13
3.08126e-13
3.13233e-13
3.14491e-13
3.16775e-13
3.19029e-13
3.1987e-13
3.22222e-13
3.24994e-13
3.27512e-13
3.28202e-13
3.28904e-13
3.32426e-13
3.37344e-13
3.38468e-13
3.38783e-13
3.43472e-13
3.45596e-13
3.49426e-13
3.54297e-13
3.53069e-13
3.52443e-13
3.55279e-13
3.56978e-13
3.61124e-13
3.61238e-13
3.61179e-13
3.64269e-13
3.65731e-13
3.6729e-13
3.68755e-13
3.68572e-13
3.70129e-13
3.72931e-13
3.74237e-13
3.75482e-13
3.76307e-13
3.78629e-13
3.80508e-13
3.82408e-13
3.81988e-13
3.82728e-13
3.85362e-13
3.87569e-13
3.88112e-13
3.86378e-13
3.8741e-13
3.88916e-13
3.89881e-13
3.90526e-13
3.85937e-13
3.90157e-13
3.94919e-13
3.90727e-13
3.94584e-13
3.94729e-13
3.9643e-13
3.97494e-13
3.90626e-13
3.9509e-13
3.97119e-13
3.96555e-13
3.97457e-13
3.90121e-13
3.9293e-13
3.94403e-13
3.91406e-13
3.91151e-13
3.8624e-13
3.89283e-13
3.90257e-13
3.89431e-13
3.9205e-13
3.87332e-13
3.86428e-13
3.83659e-13
3.85566e-13
3.92084e-13
3.88297e-13
3.9031e-13
3.88661e-13
3.88759e-13
3.96035e-13
3.89636e-13
3.87994e-13
3.88122e-13
3.90672e-13
3.95751e-13
3.89726e-13
3.93517e-13
3.96284e-13
3.94553e-13
3.91585e-13
3.82378e-13
3.87269e-13
3.88221e-13
3.84576e-13
3.86415e-13
3.79795e-13
3.79072e-13
3.76717e-13
3.73725e-13
3.72096e-13
3.64324e-13
3.67209e-13
3.66328e-13
3.64481e-13
3.65812e-13
3.58415e-13
3.57771e-13
3.54828e-13
3.53524e-13
3.54433e-13
3.45641e-13
3.44212e-13
3.40689e-13
3.37764e-13
3.38364e-13
3.2888e-13
3.26302e-13
3.23042e-13
3.19697e-13
3.19096e-13
3.09387e-13
3.06477e-13
3.05297e-13
3.01612e-13
2.98309e-13
2.90364e-13
2.90486e-13
2.89507e-13
2.84108e-13
2.82446e-13
2.76794e-13
2.74287e-13
2.7584e-13
2.71516e-13
2.68174e-13
2.60649e-13
2.57426e-13
2.58091e-13
2.5804e-13
2.5401e-13
2.45056e-13
2.41882e-13
2.37741e-13
2.34342e-13
2.27113e-13
2.19557e-13
2.15779e-13
2.0599e-13
1.98004e-13
1.90205e-13
1.76857e-13
1.6421e-13
1.45899e-13
1.28778e-13
1.03688e-13
9.8119e-14
1.06377e-13
1.21099e-13
1.32433e-13
1.40555e-13
1.48678e-13
1.54566e-13
1.58802e-13
1.62737e-13
1.65914e-13
1.67855e-13
1.69532e-13
1.70551e-13
1.73313e-13
1.75804e-13
1.76286e-13
1.76807e-13
1.77061e-13
1.76294e-13
1.76809e-13
1.77131e-13
1.77051e-13
1.7736e-13
1.77982e-13
1.7791e-13
1.77952e-13
1.78057e-13
1.77725e-13
1.77087e-13
1.77425e-13
1.75928e-13
1.75813e-13
1.77381e-13
1.77831e-13
1.77393e-13
1.77154e-13
1.77107e-13
1.76796e-13
1.78279e-13
1.79319e-13
1.79836e-13
1.79843e-13
1.79988e-13
1.81012e-13
1.80888e-13
1.80733e-13
1.82381e-13
1.83551e-13
1.85113e-13
1.86849e-13
1.86532e-13
1.8718e-13
1.88189e-13
1.8878e-13
1.89625e-13
1.90091e-13
1.90478e-13
1.91264e-13
1.90358e-13
1.90189e-13
1.89447e-13
1.87354e-13
1.87783e-13
1.88217e-13
1.8801e-13
1.88682e-13
1.87541e-13
1.87965e-13
1.887e-13
1.88578e-13
1.88522e-13
1.88453e-13
1.89211e-13
1.88316e-13
1.88428e-13
1.89642e-13
1.8955e-13
1.89918e-13
1.90281e-13
1.8917e-13
1.88681e-13
1.88534e-13
1.86902e-13
1.86045e-13
1.856e-13
1.85503e-13
1.84114e-13
1.83011e-13
1.84388e-13
1.83999e-13
1.85361e-13
1.87423e-13
1.87519e-13
1.87564e-13
1.88576e-13
1.89054e-13
1.89315e-13
1.90964e-13
1.93837e-13
1.95791e-13
1.97092e-13
1.99602e-13
2.00956e-13
2.02004e-13
2.02186e-13
2.0409e-13
2.07274e-13
2.08249e-13
2.07597e-13
2.07871e-13
2.09933e-13
2.12359e-13
2.12488e-13
2.13091e-13
2.14523e-13
2.17734e-13
2.21624e-13
2.22185e-13
2.2165e-13
2.24492e-13
2.29322e-13
2.31979e-13
2.3184e-13
2.31834e-13
2.3542e-13
2.40725e-13
2.43531e-13
2.42843e-13
2.4388e-13
2.47163e-13
2.50196e-13
2.52197e-13
2.52756e-13
2.52897e-13
2.55664e-13
2.59198e-13
2.62492e-13
2.62106e-13
2.62091e-13
2.65869e-13
2.69262e-13
2.71356e-13
2.70019e-13
2.71998e-13
2.76257e-13
2.78314e-13
2.80708e-13
2.81068e-13
2.82667e-13
2.85084e-13
2.8658e-13
2.88922e-13
2.90298e-13
2.91037e-13
2.91804e-13
2.94037e-13
2.96874e-13
2.9923e-13
2.9953e-13
3.001e-13
3.02767e-13
3.06434e-13
3.07567e-13
3.08649e-13
3.12885e-13
3.15097e-13
3.16821e-13
3.18594e-13
3.2131e-13
3.23149e-13
3.24846e-13
3.27065e-13
3.27791e-13
3.28634e-13
3.32294e-13
3.36673e-13
3.37869e-13
3.40831e-13
3.43554e-13
3.44911e-13
3.49922e-13
3.5324e-13
3.52929e-13
3.52681e-13
3.55214e-13
3.58581e-13
3.60539e-13
3.60693e-13
3.6173e-13
3.63479e-13
3.65857e-13
3.6722e-13
3.68609e-13
3.69823e-13
3.69749e-13
3.72665e-13
3.73725e-13
3.75699e-13
3.77777e-13
3.77787e-13
3.80147e-13
3.82157e-13
3.82151e-13
3.84187e-13
3.8479e-13
3.85911e-13
3.87364e-13
3.87677e-13
3.88875e-13
3.88271e-13
3.88307e-13
3.9005e-13
3.88114e-13
3.90271e-13
3.93084e-13
3.92698e-13
3.95207e-13
3.93057e-13
3.95293e-13
3.96686e-13
3.93419e-13
3.96303e-13
3.95516e-13
3.95198e-13
3.96717e-13
3.92858e-13
3.93504e-13
3.93688e-13
3.91665e-13
3.90248e-13
3.87043e-13
3.894e-13
3.90457e-13
3.89655e-13
3.9049e-13
3.87806e-13
3.8672e-13
3.83753e-13
3.86067e-13
3.90842e-13
3.885e-13
3.90326e-13
3.89149e-13
3.89358e-13
3.93634e-13
3.89444e-13
3.89333e-13
3.89321e-13
3.90293e-13
3.94254e-13
3.91515e-13
3.93753e-13
3.95461e-13
3.94017e-13
3.89985e-13
3.84611e-13
3.87716e-13
3.87431e-13
3.8478e-13
3.8532e-13
3.8159e-13
3.80055e-13
3.75688e-13
3.72979e-13
3.71118e-13
3.65779e-13
3.68424e-13
3.66012e-13
3.63781e-13
3.64756e-13
3.58733e-13
3.57957e-13
3.55329e-13
3.53173e-13
3.53612e-13
3.46018e-13
3.44403e-13
3.40221e-13
3.38337e-13
3.38122e-13
3.28852e-13
3.27112e-13
3.23039e-13
3.19017e-13
3.18102e-13
3.09784e-13
3.07786e-13
3.0603e-13
2.99938e-13
2.97531e-13
2.91375e-13
2.90717e-13
2.88345e-13
2.83084e-13
2.82971e-13
2.77943e-13
2.74418e-13
2.75473e-13
2.70767e-13
2.681e-13
2.62501e-13
2.58572e-13
2.58583e-13
2.56399e-13
2.52478e-13
2.45145e-13
2.43185e-13
2.39695e-13
2.33343e-13
2.27677e-13
2.19314e-13
2.15923e-13
2.08416e-13
1.9762e-13
1.90617e-13
1.78497e-13
1.64962e-13
1.49013e-13
1.32841e-13
1.13894e-13
1.15601e-13
1.17254e-13
1.27103e-13
1.35849e-13
1.42427e-13
1.50523e-13
1.55735e-13
1.59846e-13
1.63394e-13
1.66267e-13
1.68701e-13
1.69902e-13
1.70595e-13
1.73877e-13
1.76126e-13
1.77264e-13
1.77485e-13
1.7711e-13
1.76421e-13
1.76707e-13
1.77671e-13
1.77218e-13
1.77298e-13
1.78218e-13
1.78028e-13
1.78191e-13
1.78014e-13
1.77663e-13
1.77002e-13
1.76893e-13
1.7604e-13
1.75821e-13
1.77666e-13
1.77742e-13
1.77008e-13
1.76745e-13
1.77068e-13
1.76996e-13
1.78073e-13
1.79349e-13
1.80201e-13
1.79938e-13
1.80363e-13
1.81004e-13
1.80631e-13
1.80486e-13
1.82263e-13
1.83681e-13
1.85068e-13
1.87237e-13
1.86646e-13
1.86991e-13
1.87597e-13
1.88677e-13
1.89906e-13
1.90167e-13
1.90569e-13
1.9131e-13
1.90182e-13
1.90076e-13
1.89185e-13
1.87536e-13
1.87832e-13
1.87818e-13
1.88467e-13
1.88708e-13
1.87909e-13
1.87706e-13
1.88921e-13
1.89058e-13
1.88264e-13
1.88284e-13
1.89081e-13
1.88199e-13
1.88911e-13
1.89172e-13
1.89362e-13
1.89893e-13
1.90557e-13
1.89606e-13
1.88028e-13
1.88261e-13
1.87384e-13
1.86081e-13
1.85546e-13
1.85382e-13
1.85117e-13
1.82998e-13
1.83629e-13
1.83924e-13
1.85348e-13
1.87494e-13
1.87943e-13
1.87236e-13
1.88632e-13
1.8902e-13
1.89524e-13
1.91183e-13
1.93725e-13
1.95859e-13
1.97355e-13
1.99408e-13
2.00724e-13
2.02232e-13
2.0231e-13
2.04542e-13
2.06911e-13
2.08101e-13
2.08415e-13
2.0873e-13
2.09541e-13
2.11391e-13
2.1272e-13
2.1331e-13
2.14769e-13
2.18263e-13
2.20674e-13
2.21146e-13
2.22386e-13
2.25405e-13
2.28244e-13
2.3081e-13
2.32887e-13
2.332e-13
2.35475e-13
2.40675e-13
2.42513e-13
2.41997e-13
2.45069e-13
2.47384e-13
2.49871e-13
2.51634e-13
2.52984e-13
2.54062e-13
2.56391e-13
2.58163e-13
2.61747e-13
2.61458e-13
2.63513e-13
2.66469e-13
2.68609e-13
2.70038e-13
2.70235e-13
2.72647e-13
2.7614e-13
2.78247e-13
2.79724e-13
2.81728e-13
2.83176e-13
2.84653e-13
2.86203e-13
2.88405e-13
2.90802e-13
2.91159e-13
2.91486e-13
2.93922e-13
2.96625e-13
2.99256e-13
3.00051e-13
3.00569e-13
3.02716e-13
3.05484e-13
3.06938e-13
3.0908e-13
3.13257e-13
3.15518e-13
3.17257e-13
3.18914e-13
3.20822e-13
3.23486e-13
3.25068e-13
3.26793e-13
3.2674e-13
3.29025e-13
3.33426e-13
3.3573e-13
3.37468e-13
3.40827e-13
3.43815e-13
3.4527e-13
3.4915e-13
3.53046e-13
3.53119e-13
3.5382e-13
3.55239e-13
3.58849e-13
3.60501e-13
3.60104e-13
3.61607e-13
3.63982e-13
3.65618e-13
3.6694e-13
3.68414e-13
3.70349e-13
3.70134e-13
3.72322e-13
3.74172e-13
3.75757e-13
3.77046e-13
3.78199e-13
3.79765e-13
3.82184e-13
3.82511e-13
3.83921e-13
3.84656e-13
3.85864e-13
3.86986e-13
3.87318e-13
3.89089e-13
3.88962e-13
3.88903e-13
3.89376e-13
3.88641e-13
3.90106e-13
3.92268e-13
3.92687e-13
3.94801e-13
3.93871e-13
3.95193e-13
3.96391e-13
3.94337e-13
3.96175e-13
3.95913e-13
3.94673e-13
3.96232e-13
3.94346e-13
3.93851e-13
3.92127e-13
3.91893e-13
3.91221e-13
3.88566e-13
3.89407e-13
3.90424e-13
3.88942e-13
3.88485e-13
3.87345e-13
3.8762e-13
3.85369e-13
3.85471e-13
3.89447e-13
3.89807e-13
3.90016e-13
3.88355e-13
3.89716e-13
3.92397e-13
3.90239e-13
3.8998e-13
3.89016e-13
3.90161e-13
3.93648e-13
3.93192e-13
3.94064e-13
3.95187e-13
3.93144e-13
3.88491e-13
3.87042e-13
3.87713e-13
3.86628e-13
3.84691e-13
3.84478e-13
3.83072e-13
3.80143e-13
3.74939e-13
3.7315e-13
3.71368e-13
3.67064e-13
3.67119e-13
3.665e-13
3.64426e-13
3.63067e-13
3.58462e-13
3.57628e-13
3.56539e-13
3.54117e-13
3.51121e-13
3.47207e-13
3.44253e-13
3.40215e-13
3.38959e-13
3.35929e-13
3.30557e-13
3.26755e-13
3.23246e-13
3.19807e-13
3.15699e-13
3.11214e-13
3.08294e-13
3.0479e-13
2.99126e-13
2.9711e-13
2.93269e-13
2.9099e-13
2.86195e-13
2.82339e-13
2.82613e-13
2.79445e-13
2.75615e-13
2.73967e-13
2.70666e-13
2.68101e-13
2.63911e-13
2.59285e-13
2.58334e-13
2.56684e-13
2.51891e-13
2.47421e-13
2.43171e-13
2.38825e-13
2.33541e-13
2.27796e-13
2.20593e-13
2.16873e-13
2.09201e-13
1.99083e-13
1.91074e-13
1.7949e-13
1.67253e-13
1.53028e-13
1.38162e-13
1.23537e-13
1.27461e-13
1.26618e-13
1.3298e-13
1.39205e-13
1.4521e-13
1.52064e-13
1.57649e-13
1.61403e-13
1.64022e-13
1.67508e-13
1.69635e-13
1.70742e-13
1.71096e-13
1.74429e-13
1.76751e-13
1.77995e-13
1.78119e-13
1.77073e-13
1.76499e-13
1.77154e-13
1.77918e-13
1.77127e-13
1.77601e-13
1.78712e-13
1.78243e-13
1.78647e-13
1.7809e-13
1.77696e-13
1.77397e-13
1.76711e-13
1.75866e-13
1.7613e-13
1.77321e-13
1.77188e-13
1.76467e-13
1.7682e-13
1.77421e-13
1.76936e-13
1.77493e-13
1.79814e-13
1.80645e-13
1.79983e-13
1.80489e-13
1.81546e-13
1.80978e-13
1.79956e-13
1.82285e-13
1.83362e-13
1.8511e-13
1.87643e-13
1.8698e-13
1.86559e-13
1.87373e-13
1.89027e-13
1.90071e-13
1.90569e-13
1.90477e-13
1.91595e-13
1.90107e-13
1.90024e-13
1.88696e-13
1.88081e-13
1.8799e-13
1.87551e-13
1.88242e-13
1.88106e-13
1.88122e-13
1.88276e-13
1.89167e-13
1.88851e-13
1.88227e-13
1.87768e-13
1.89193e-13
1.88127e-13
1.89324e-13
1.89221e-13
1.89177e-13
1.89663e-13
1.90468e-13
1.90126e-13
1.88e-13
1.88245e-13
1.87925e-13
1.86009e-13
1.8523e-13
1.85052e-13
1.85494e-13
1.83553e-13
1.83173e-13
1.83309e-13
1.85237e-13
1.87904e-13
1.87604e-13
1.87505e-13
1.89056e-13
1.88615e-13
1.8965e-13
1.91562e-13
1.92952e-13
1.96351e-13
1.97195e-13
1.9954e-13
2.00416e-13
2.01533e-13
2.02439e-13
2.05285e-13
2.06706e-13
2.079e-13
2.09196e-13
2.08951e-13
2.09646e-13
2.10771e-13
2.12666e-13
2.13664e-13
2.14515e-13
2.17924e-13
2.19362e-13
2.20668e-13
2.23421e-13
2.25856e-13
2.27316e-13
2.30579e-13
2.33381e-13
2.34018e-13
2.35458e-13
2.40519e-13
2.42197e-13
2.42335e-13
2.45387e-13
2.46586e-13
2.48921e-13
2.5285e-13
2.53317e-13
2.54308e-13
2.56612e-13
2.58342e-13
2.60817e-13
2.61357e-13
2.63995e-13
2.66191e-13
2.68263e-13
2.69238e-13
2.70855e-13
2.73355e-13
2.75936e-13
2.77836e-13
2.79401e-13
2.82518e-13
2.83822e-13
2.842e-13
2.85351e-13
2.88146e-13
2.91389e-13
2.91917e-13
2.92033e-13
2.9283e-13
2.95579e-13
2.99656e-13
3.00416e-13
3.01127e-13
3.02756e-13
3.04838e-13
3.06703e-13
3.09445e-13
3.12826e-13
3.15747e-13
3.1795e-13
3.19021e-13
3.20977e-13
3.23727e-13
3.24862e-13
3.2556e-13
3.26235e-13
3.30246e-13
3.33449e-13
3.35497e-13
3.37577e-13
3.40609e-13
3.43631e-13
3.45636e-13
3.49424e-13
3.52562e-13
3.53361e-13
3.54685e-13
3.55304e-13
3.58172e-13
3.60522e-13
3.60766e-13
3.61679e-13
3.64123e-13
3.65476e-13
3.66612e-13
3.6789e-13
3.69852e-13
3.70862e-13
3.71501e-13
3.75388e-13
3.75974e-13
3.76017e-13
3.78798e-13
3.79701e-13
3.81713e-13
3.82905e-13
3.83782e-13
3.84892e-13
3.85946e-13
3.86673e-13
3.87229e-13
3.89153e-13
3.8915e-13
3.89298e-13
3.88774e-13
3.89245e-13
3.90296e-13
3.91401e-13
3.92466e-13
3.94624e-13
3.94492e-13
3.95385e-13
3.9594e-13
3.94861e-13
3.96514e-13
3.96481e-13
3.94796e-13
3.9537e-13
3.95181e-13
3.94242e-13
3.9127e-13
3.92309e-13
3.92071e-13
3.89393e-13
3.89447e-13
3.90169e-13
3.87793e-13
3.87394e-13
3.86823e-13
3.87795e-13
3.86723e-13
3.85416e-13
3.88062e-13
3.9048e-13
3.90055e-13
3.8699e-13
3.9009e-13
3.92158e-13
3.91433e-13
3.90478e-13
3.89283e-13
3.90552e-13
3.92997e-13
3.94061e-13
3.9486e-13
3.95104e-13
3.92937e-13
3.88544e-13
3.88278e-13
3.86966e-13
3.85937e-13
3.85686e-13
3.83704e-13
3.82007e-13
3.79981e-13
3.76053e-13
3.73494e-13
3.71095e-13
3.67675e-13
3.65978e-13
3.67496e-13
3.64354e-13
3.61164e-13
3.59265e-13
3.57589e-13
3.57145e-13
3.5442e-13
3.49417e-13
3.48242e-13
3.43694e-13
3.39992e-13
3.39577e-13
3.34636e-13
3.31804e-13
3.26282e-13
3.23798e-13
3.20087e-13
3.13783e-13
3.12023e-13
3.08613e-13
3.0439e-13
2.98632e-13
2.96192e-13
2.94424e-13
2.90895e-13
2.85762e-13
2.82392e-13
2.80896e-13
2.80637e-13
2.76309e-13
2.72751e-13
2.70728e-13
2.68389e-13
2.65188e-13
2.59379e-13
2.58816e-13
2.57246e-13
2.51247e-13
2.48574e-13
2.43274e-13
2.39121e-13
2.33549e-13
2.27857e-13
2.23114e-13
2.16656e-13
2.09741e-13
2.02131e-13
1.91405e-13
1.8076e-13
1.70276e-13
1.56682e-13
1.44771e-13
1.32891e-13
1.36792e-13
1.35133e-13
1.38405e-13
1.43117e-13
1.48225e-13
1.54126e-13
1.59265e-13
1.62448e-13
1.65316e-13
1.68449e-13
1.70785e-13
1.71208e-13
1.71207e-13
1.75288e-13
1.77919e-13
1.78466e-13
1.78729e-13
1.77659e-13
1.77135e-13
1.77332e-13
1.77876e-13
1.7685e-13
1.78098e-13
1.79407e-13
1.78778e-13
1.78778e-13
1.77771e-13
1.78053e-13
1.78174e-13
1.76733e-13
1.74924e-13
1.76297e-13
1.77015e-13
1.7644e-13
1.76404e-13
1.77228e-13
1.7763e-13
1.7694e-13
1.77442e-13
1.80027e-13
1.80357e-13
1.7956e-13
1.80756e-13
1.81963e-13
1.81497e-13
1.79709e-13
1.81563e-13
1.83831e-13
1.8574e-13
1.87385e-13
1.86844e-13
1.86369e-13
1.86863e-13
1.89323e-13
1.90206e-13
1.90999e-13
1.91045e-13
1.9216e-13
1.90295e-13
1.89602e-13
1.88317e-13
1.8781e-13
1.88136e-13
1.87253e-13
1.88481e-13
1.87676e-13
1.88222e-13
1.8835e-13
1.88861e-13
1.89447e-13
1.88864e-13
1.87841e-13
1.88834e-13
1.87654e-13
1.89128e-13
1.89773e-13
1.89216e-13
1.90208e-13
1.90821e-13
1.89849e-13
1.88383e-13
1.88444e-13
1.88776e-13
1.85835e-13
1.84428e-13
1.8534e-13
1.84985e-13
1.83237e-13
1.82987e-13
1.83618e-13
1.85124e-13
1.87607e-13
1.86998e-13
1.87489e-13
1.89588e-13
1.88844e-13
1.90108e-13
1.91545e-13
1.93247e-13
1.9602e-13
1.97639e-13
1.9874e-13
2.00046e-13
2.01064e-13
2.02497e-13
2.05844e-13
2.06844e-13
2.0836e-13
2.08636e-13
2.09034e-13
2.10194e-13
2.10775e-13
2.12449e-13
2.13748e-13
2.14119e-13
2.16941e-13
2.19035e-13
2.20929e-13
2.2339e-13
2.2539e-13
2.2633e-13
2.30998e-13
2.34187e-13
2.34223e-13
2.35994e-13
2.40541e-13
2.41143e-13
2.42712e-13
2.45088e-13
2.45982e-13
2.48793e-13
2.53006e-13
2.53556e-13
2.54741e-13
2.56349e-13
2.58904e-13
2.6054e-13
2.61023e-13
2.63929e-13
2.65759e-13
2.68688e-13
2.69316e-13
2.70779e-13
2.73641e-13
2.76175e-13
2.77494e-13
2.79799e-13
2.82483e-13
2.83889e-13
2.8381e-13
2.85925e-13
2.88305e-13
2.90293e-13
2.91464e-13
2.9296e-13
2.92918e-13
2.95615e-13
2.99307e-13
3.00275e-13
3.01454e-13
3.025e-13
3.05042e-13
3.06973e-13
3.09156e-13
3.1201e-13
3.15429e-13
3.18657e-13
3.19149e-13
3.21219e-13
3.23743e-13
3.23556e-13
3.24533e-13
3.27713e-13
3.30412e-13
3.33838e-13
3.35101e-13
3.37288e-13
3.41633e-13
3.43829e-13
3.46407e-13
3.48926e-13
3.516e-13
3.54009e-13
3.5513e-13
3.56332e-13
3.57149e-13
3.60195e-13
3.61529e-13
3.62497e-13
3.63605e-13
3.64765e-13
3.67206e-13
3.67757e-13
3.68831e-13
3.71097e-13
3.71834e-13
3.75077e-13
3.75187e-13
3.759e-13
3.78656e-13
3.80123e-13
3.81983e-13
3.82658e-13
3.8301e-13
3.85184e-13
3.85992e-13
3.86708e-13
3.88137e-13
3.88419e-13
3.89307e-13
3.88623e-13
3.8835e-13
3.90321e-13
3.90456e-13
3.90717e-13
3.92698e-13
3.93893e-13
3.94031e-13
3.95298e-13
3.96077e-13
3.96398e-13
3.97214e-13
3.96782e-13
3.93936e-13
3.94717e-13
3.96187e-13
3.94989e-13
3.92195e-13
3.91814e-13
3.91936e-13
3.89765e-13
3.89867e-13
3.89206e-13
3.87889e-13
3.87368e-13
3.86585e-13
3.87002e-13
3.86753e-13
3.86149e-13
3.86914e-13
3.88757e-13
3.8963e-13
3.88675e-13
3.90454e-13
3.90667e-13
3.91421e-13
3.914e-13
3.90039e-13
3.9128e-13
3.93187e-13
3.95557e-13
3.95244e-13
3.93708e-13
3.92736e-13
3.88888e-13
3.88541e-13
3.87238e-13
3.86148e-13
3.8586e-13
3.83151e-13
3.81667e-13
3.80538e-13
3.77021e-13
3.72955e-13
3.70126e-13
3.67916e-13
3.66449e-13
3.66725e-13
3.64422e-13
3.61177e-13
3.59098e-13
3.57814e-13
3.57479e-13
3.54313e-13
3.49316e-13
3.48519e-13
3.43058e-13
3.39981e-13
3.39753e-13
3.34077e-13
3.31718e-13
3.26868e-13
3.23813e-13
3.199e-13
3.1319e-13
3.11172e-13
3.0855e-13
3.03674e-13
2.98908e-13
2.96659e-13
2.93855e-13
2.90924e-13
2.85876e-13
2.82711e-13
2.79936e-13
2.79301e-13
2.77539e-13
2.73049e-13
2.70661e-13
2.68503e-13
2.65421e-13
2.609e-13
2.58805e-13
2.5589e-13
2.519e-13
2.4849e-13
2.44599e-13
2.40196e-13
2.33768e-13
2.28682e-13
2.24061e-13
2.17203e-13
2.11292e-13
2.03855e-13
1.93366e-13
1.82217e-13
1.73033e-13
1.61488e-13
1.50576e-13
1.41553e-13
1.45347e-13
1.43005e-13
1.43658e-13
1.47099e-13
1.51587e-13
1.56323e-13
1.60621e-13
1.64429e-13
1.6668e-13
1.69302e-13
1.71276e-13
1.71966e-13
1.7218e-13
1.75611e-13
1.79287e-13
1.79352e-13
1.79121e-13
1.78018e-13
1.77781e-13
1.77932e-13
1.77486e-13
1.76448e-13
1.78896e-13
1.7933e-13
1.78738e-13
1.78866e-13
1.78255e-13
1.78425e-13
1.78701e-13
1.77078e-13
1.7505e-13
1.75696e-13
1.76947e-13
1.75818e-13
1.76492e-13
1.77289e-13
1.773e-13
1.77246e-13
1.77059e-13
1.80055e-13
1.80446e-13
1.78977e-13
1.81e-13
1.82107e-13
1.81541e-13
1.79934e-13
1.80985e-13
1.83955e-13
1.85775e-13
1.87483e-13
1.87514e-13
1.85889e-13
1.86399e-13
1.89512e-13
1.90429e-13
1.90773e-13
1.91838e-13
1.92861e-13
1.90413e-13
1.89912e-13
1.87666e-13
1.87653e-13
1.88131e-13
1.86845e-13
1.87873e-13
1.87372e-13
1.87969e-13
1.88333e-13
1.88484e-13
1.90016e-13
1.89471e-13
1.87683e-13
1.88689e-13
1.88065e-13
1.89462e-13
1.90281e-13
1.89743e-13
1.90324e-13
1.90707e-13
1.90088e-13
1.89447e-13
1.88561e-13
1.88834e-13
1.86035e-13
1.84076e-13
1.84282e-13
1.84501e-13
1.83284e-13
1.82264e-13
1.84109e-13
1.85461e-13
1.87044e-13
1.86547e-13
1.87862e-13
1.89631e-13
1.88721e-13
1.90834e-13
1.91415e-13
1.94077e-13
1.95898e-13
1.98187e-13
1.98988e-13
1.9909e-13
1.99863e-13
2.02296e-13
2.05986e-13
2.07417e-13
2.0934e-13
2.07683e-13
2.09113e-13
2.10928e-13
2.1084e-13
2.12212e-13
2.13617e-13
2.14421e-13
2.15782e-13
2.18148e-13
2.21101e-13
2.23425e-13
2.25356e-13
2.26217e-13
2.30677e-13
2.34235e-13
2.34502e-13
2.36976e-13
2.40363e-13
2.39656e-13
2.42408e-13
2.45562e-13
2.45492e-13
2.48366e-13
2.5253e-13
2.54104e-13
2.54957e-13
2.56377e-13
2.58615e-13
2.60728e-13
2.60523e-13
2.63546e-13
2.6581e-13
2.68988e-13
2.69818e-13
2.71395e-13
2.73502e-13
2.75506e-13
2.77913e-13
2.80202e-13
2.82867e-13
2.83882e-13
2.82715e-13
2.86477e-13
2.88448e-13
2.89752e-13
2.91366e-13
2.9302e-13
2.93552e-13
2.95221e-13
2.98678e-13
3.00061e-13
3.01523e-13
3.02093e-13
3.04907e-13
3.07179e-13
3.09259e-13
3.11364e-13
3.14557e-13
3.19275e-13
3.1956e-13
3.21302e-13
3.23741e-13
3.21714e-13
3.24182e-13
3.29451e-13
3.30582e-13
3.33923e-13
3.34284e-13
3.37599e-13
3.41804e-13
3.43963e-13
3.47682e-13
3.4831e-13
3.50796e-13
3.54043e-13
3.55864e-13
3.57051e-13
3.55786e-13
3.59709e-13
3.62533e-13
3.62891e-13
3.63237e-13
3.63678e-13
3.67869e-13
3.6837e-13
3.68482e-13
3.712e-13
3.71989e-13
3.74786e-13
3.73906e-13
3.75428e-13
3.79403e-13
3.80204e-13
3.82091e-13
3.82256e-13
3.82658e-13
3.85311e-13
3.8526e-13
3.87015e-13
3.88085e-13
3.88324e-13
3.89712e-13
3.88478e-13
3.87947e-13
3.90811e-13
3.90984e-13
3.9098e-13
3.92148e-13
3.93545e-13
3.93488e-13
3.94853e-13
3.96591e-13
3.97825e-13
3.98133e-13
3.96634e-13
3.93847e-13
3.93672e-13
3.96636e-13
3.95377e-13
3.9293e-13
3.9185e-13
3.91694e-13
3.90411e-13
3.90556e-13
3.8795e-13
3.88037e-13
3.87659e-13
3.86294e-13
3.86105e-13
3.86845e-13
3.86672e-13
3.86299e-13
3.87159e-13
3.88938e-13
3.89049e-13
3.90607e-13
3.89866e-13
3.91859e-13
3.92516e-13
3.90651e-13
3.91857e-13
3.9347e-13
3.96902e-13
3.9582e-13
3.9235e-13
3.92857e-13
3.89198e-13
3.89071e-13
3.86951e-13
3.87103e-13
3.86437e-13
3.8244e-13
3.81414e-13
3.81014e-13
3.77287e-13
3.72953e-13
3.70422e-13
3.67008e-13
3.66839e-13
3.66152e-13
3.63791e-13
3.62119e-13
3.59318e-13
3.5795e-13
3.56959e-13
3.54757e-13
3.49088e-13
3.47852e-13
3.43109e-13
3.39514e-13
3.39886e-13
3.34271e-13
3.31465e-13
3.2731e-13
3.23868e-13
3.19783e-13
3.12359e-13
3.09909e-13
3.08373e-13
3.03453e-13
2.99861e-13
2.96863e-13
2.93645e-13
2.90488e-13
2.86184e-13
2.82977e-13
2.79838e-13
2.77435e-13
2.78197e-13
2.73646e-13
2.70496e-13
2.69026e-13
2.64955e-13
2.62205e-13
2.58774e-13
2.54923e-13
2.53077e-13
2.48517e-13
2.46122e-13
2.41073e-13
2.34691e-13
2.30412e-13
2.23665e-13
2.18502e-13
2.12966e-13
2.05632e-13
1.9598e-13
1.83633e-13
1.761e-13
1.67023e-13
1.56262e-13
1.48689e-13
1.52731e-13
1.50447e-13
1.48096e-13
1.50835e-13
1.54697e-13
1.58938e-13
1.6302e-13
1.66199e-13
1.67695e-13
1.70239e-13
1.72025e-13
1.72397e-13
1.73893e-13
1.76564e-13
1.79877e-13
1.79826e-13
1.79584e-13
1.78252e-13
1.78523e-13
1.78552e-13
1.76639e-13
1.76955e-13
1.79448e-13
1.79875e-13
1.79244e-13
1.78406e-13
1.79076e-13
1.78463e-13
1.78002e-13
1.77033e-13
1.74359e-13
1.75492e-13
1.76861e-13
1.76083e-13
1.76029e-13
1.76582e-13
1.77618e-13
1.77298e-13
1.76605e-13
1.79723e-13
1.80413e-13
1.78934e-13
1.81367e-13
1.82174e-13
1.81821e-13
1.80307e-13
1.80922e-13
1.8371e-13
1.85106e-13
1.87729e-13
1.87886e-13
1.85529e-13
1.86171e-13
1.89984e-13
1.907e-13
1.90894e-13
1.91548e-13
1.92987e-13
1.906e-13
1.90049e-13
1.8766e-13
1.87956e-13
1.88104e-13
1.85429e-13
1.87269e-13
1.8664e-13
1.87388e-13
1.89018e-13
1.88837e-13
1.89643e-13
1.90161e-13
1.87663e-13
1.88769e-13
1.88235e-13
1.89878e-13
1.90961e-13
1.90009e-13
1.90393e-13
1.90525e-13
1.90364e-13
1.9037e-13
1.89062e-13
1.8824e-13
1.85489e-13
1.83959e-13
1.83493e-13
1.84072e-13
1.82711e-13
1.81321e-13
1.84188e-13
1.85828e-13
1.871e-13
1.87163e-13
1.88749e-13
1.88731e-13
1.88295e-13
1.90938e-13
1.91655e-13
1.94867e-13
1.96627e-13
1.98277e-13
1.98199e-13
1.99293e-13
1.99977e-13
2.01673e-13
2.06338e-13
2.07455e-13
2.09486e-13
2.0746e-13
2.09047e-13
2.10365e-13
2.11071e-13
2.12812e-13
2.1324e-13
2.14418e-13
2.15273e-13
2.16625e-13
2.20845e-13
2.2341e-13
2.24787e-13
2.26864e-13
2.31474e-13
2.34095e-13
2.34351e-13
2.364e-13
2.39294e-13
2.40387e-13
2.42834e-13
2.4466e-13
2.44388e-13
2.48307e-13
2.52276e-13
2.5374e-13
2.55668e-13
2.56666e-13
2.59054e-13
2.60952e-13
2.60186e-13
2.62536e-13
2.65883e-13
2.69837e-13
2.70252e-13
2.71541e-13
2.73072e-13
2.75923e-13
2.78514e-13
2.80343e-13
2.83046e-13
2.83917e-13
2.82497e-13
2.85576e-13
2.88369e-13
2.90178e-13
2.91907e-13
2.92559e-13
2.93197e-13
2.95273e-13
2.989e-13
2.98809e-13
3.01479e-13
3.02256e-13
3.04727e-13
3.06854e-13
3.08314e-13
3.11404e-13
3.15091e-13
3.1785e-13
3.20159e-13
3.21036e-13
3.22839e-13
3.21942e-13
3.23514e-13
3.29528e-13
3.32296e-13
3.33853e-13
3.34651e-13
3.37526e-13
3.40764e-13
3.45336e-13
3.47817e-13
3.48554e-13
3.4991e-13
3.53819e-13
3.56957e-13
3.56464e-13
3.55353e-13
3.58996e-13
3.62604e-13
3.63729e-13
3.63235e-13
3.64387e-13
3.66654e-13
3.68622e-13
3.68783e-13
3.70852e-13
3.72475e-13
3.74157e-13
3.733e-13
3.75528e-13
3.79633e-13
3.80498e-13
3.80968e-13
3.82039e-13
3.82612e-13
3.84411e-13
3.86023e-13