/*--------------------------------*- C++ -*----------------------------------*\
| =========                 |                                                 |
| \\      /  F ield         | OpenFOAM: The Open Source CFD Toolbox           |
|  \\    /   O peration     | Version:  2112                                  |
|   \\  /    A nd           | Website:  www.openfoam.com                      |
|    \\/     M anipulation  |                                                 |
\*---------------------------------------------------------------------------*/
FoamFile
{
    version     2.0;
    format      ascii;
    arch        "LSB;label=32;scalar=64";
    class       volScalarField;
    location    "4";
    object      p;
}
// * * * * * * * * * * * * * * * * * * * * * * * * * * * * * * * * * * * * * //

dimensions      [0 2 -2 0 0 0 0];

internalField   nonuniform List<scalar> 
25600
(
2.24847e-14
4.01513e-14
4.25918e-14
4.33209e-14
4.34777e-14
4.36825e-14
4.38713e-14
4.38354e-14
4.39192e-14
4.39084e-14
4.36455e-14
4.34285e-14
4.31283e-14
4.28492e-14
4.25133e-14
4.20588e-14
4.17335e-14
4.15877e-14
4.1422e-14
4.12288e-14
4.09362e-14
4.08128e-14
4.06934e-14
4.05737e-14
4.05929e-14
4.03668e-14
4.00968e-14
4.01357e-14
4.01392e-14
3.9869e-14
3.95036e-14
3.94549e-14
3.96102e-14
3.97586e-14
3.97522e-14
3.97837e-14
3.96503e-14
3.98525e-14
3.99202e-14
3.95648e-14
3.96287e-14
3.97324e-14
3.98681e-14
4.00866e-14
3.99892e-14
4.01817e-14
4.02844e-14
4.06091e-14
4.09443e-14
4.11885e-14
4.16069e-14
4.14894e-14
4.16479e-14
4.17968e-14
4.18616e-14
4.25093e-14
4.26977e-14
4.28965e-14
4.30559e-14
4.32256e-14
4.39949e-14
4.37803e-14
4.41453e-14
4.45079e-14
4.45376e-14
4.5447e-14
4.55618e-14
4.58156e-14
4.60676e-14
4.62259e-14
4.67671e-14
4.70621e-14
4.74635e-14
4.7708e-14
4.7836e-14
4.8828e-14
4.91546e-14
4.88923e-14
4.9119e-14
4.89496e-14
4.94462e-14
4.97302e-14
4.91254e-14
4.88148e-14
4.84818e-14
4.86807e-14
4.88136e-14
4.85888e-14
4.7958e-14
4.74499e-14
4.8053e-14
4.84054e-14
4.82352e-14
4.80771e-14
4.85465e-14
4.92115e-14
4.8961e-14
4.89289e-14
4.86995e-14
4.89455e-14
4.97508e-14
4.96289e-14
5.00477e-14
4.99423e-14
4.98328e-14
5.01252e-14
5.04065e-14
5.00673e-14
4.9592e-14
4.97798e-14
5.01962e-14
5.13793e-14
5.04885e-14
5.0092e-14
5.11738e-14
5.20955e-14
5.3097e-14
5.30022e-14
5.27263e-14
5.36937e-14
5.5061e-14
5.60135e-14
5.58649e-14
5.53754e-14
5.62314e-14
5.76298e-14
5.85972e-14
5.80995e-14
5.7642e-14
5.8731e-14
5.98234e-14
6.05561e-14
6.02558e-14
6.00907e-14
6.09913e-14
6.17382e-14
6.26931e-14
6.27273e-14
6.26587e-14
6.38419e-14
6.49332e-14
6.57207e-14
6.55384e-14
6.55786e-14
6.64186e-14
6.69236e-14
6.77828e-14
6.78398e-14
6.81621e-14
6.83729e-14
6.83618e-14
6.97138e-14
6.99229e-14
6.93307e-14
6.94531e-14
6.98382e-14
7.08903e-14
7.13199e-14
7.10255e-14
7.12541e-14
7.14485e-14
7.29383e-14
7.2847e-14
7.23997e-14
7.384e-14
7.38531e-14
7.48456e-14
7.5656e-14
7.52976e-14
7.59491e-14
7.65314e-14
7.76681e-14
7.7598e-14
7.77812e-14
7.85606e-14
7.90378e-14
7.94225e-14
7.88342e-14
7.99228e-14
8.02335e-14
7.99466e-14
8.15751e-14
8.10575e-14
8.06904e-14
8.13121e-14
8.08109e-14
8.22746e-14
8.22819e-14
8.20177e-14
8.3425e-14
8.32825e-14
8.38124e-14
8.43438e-14
8.36422e-14
8.46148e-14
8.50055e-14
8.57302e-14
8.57143e-14
8.52785e-14
8.68656e-14
8.6943e-14
8.73783e-14
8.70717e-14
8.67094e-14
8.86548e-14
8.9478e-14
8.97395e-14
8.93155e-14
8.96134e-14
9.10677e-14
9.19029e-14
9.21935e-14
9.084e-14
9.27679e-14
9.46878e-14
9.29479e-14
9.43305e-14
9.53697e-14
9.57381e-14
9.60123e-14
9.41131e-14
9.54781e-14
9.72163e-14
9.74948e-14
9.77009e-14
9.53588e-14
9.66428e-14
9.76603e-14
9.74005e-14
9.83031e-14
9.71325e-14
9.82808e-14
9.85166e-14
9.79175e-14
9.90581e-14
9.75317e-14
9.75357e-14
9.73709e-14
9.72688e-14
9.85587e-14
9.70018e-14
9.77978e-14
9.77142e-14
9.73007e-14
9.90627e-14
9.72471e-14
9.64933e-14
9.63189e-14
9.65523e-14
9.74099e-14
9.50194e-14
9.53913e-14
9.58215e-14
9.52443e-14
9.52274e-14
9.2552e-14
9.33372e-14
9.32282e-14
9.22447e-14
9.31102e-14
9.10308e-14
9.08441e-14
9.06589e-14
9.00805e-14
9.02795e-14
8.8213e-14
8.83181e-14
8.84294e-14
8.82018e-14
8.83981e-14
8.61773e-14
8.57612e-14
8.52637e-14
8.49651e-14
8.53689e-14
8.35803e-14
8.35659e-14
8.37707e-14
8.30534e-14
8.40023e-14
8.29295e-14
8.25987e-14
8.26853e-14
8.24619e-14
8.31496e-14
8.16655e-14
8.06284e-14
8.08339e-14
8.07076e-14
7.97743e-14
7.72045e-14
7.67435e-14
7.68088e-14
7.62165e-14
7.49325e-14
7.29138e-14
7.26399e-14
7.22346e-14
7.19423e-14
7.06283e-14
6.82989e-14
6.7881e-14
6.72426e-14
6.74724e-14
6.64626e-14
6.4062e-14
6.2945e-14
6.14511e-14
6.15166e-14
5.9938e-14
5.84463e-14
5.77367e-14
5.49973e-14
5.41493e-14
5.26777e-14
5.00934e-14
4.89355e-14
4.62133e-14
4.45116e-14
4.13784e-14
3.48105e-14
4.0951e-14
4.25897e-14
4.33751e-14
4.34965e-14
4.36841e-14
4.38547e-14
4.38649e-14
4.39421e-14
4.39046e-14
4.36286e-14
4.33864e-14
4.31778e-14
4.28695e-14
4.24722e-14
4.21132e-14
4.17887e-14
4.15717e-14
4.13801e-14
4.12218e-14
4.09853e-14
4.08623e-14
4.06861e-14
4.0495e-14
4.05045e-14
4.04013e-14
4.02344e-14
4.0182e-14
4.00772e-14
3.98553e-14
3.95315e-14
3.95359e-14
3.96039e-14
3.96863e-14
3.97312e-14
3.98019e-14
3.96502e-14
3.97853e-14
3.98837e-14
3.96611e-14
3.95513e-14
3.97265e-14
3.98209e-14
4.00315e-14
4.00914e-14
4.01373e-14
4.02669e-14
4.05926e-14
4.09965e-14
4.11824e-14
4.15073e-14
4.16276e-14
4.16754e-14
4.1824e-14
4.19938e-14
4.23914e-14
4.26835e-14
4.28981e-14
4.30611e-14
4.32774e-14
4.38752e-14
4.37951e-14
4.41684e-14
4.44784e-14
4.4607e-14
4.53864e-14
4.55128e-14
4.57667e-14
4.61385e-14
4.62919e-14
4.67425e-14
4.7006e-14
4.74433e-14
4.76192e-14
4.79746e-14
4.87813e-14
4.90269e-14
4.90199e-14
4.91754e-14
4.90699e-14
4.93928e-14
4.94763e-14
4.91668e-14
4.89172e-14
4.86261e-14
4.86633e-14
4.84834e-14
4.84726e-14
4.82105e-14
4.7679e-14
4.79582e-14
4.80845e-14
4.81737e-14
4.83459e-14
4.856e-14
4.89321e-14
4.88524e-14
4.89507e-14
4.90132e-14
4.90468e-14
4.93381e-14
4.96252e-14
5.0025e-14
5.01689e-14
4.99143e-14
5.00072e-14
5.02827e-14
5.02187e-14
4.9703e-14
4.96677e-14
5.02464e-14
5.10471e-14
5.05976e-14
5.04585e-14
5.11572e-14
5.1871e-14
5.28996e-14
5.31765e-14
5.28914e-14
5.36483e-14
5.50332e-14
5.58162e-14
5.58883e-14
5.56738e-14
5.63045e-14
5.74606e-14
5.84275e-14
5.81432e-14
5.79106e-14
5.87911e-14
5.96513e-14
6.0453e-14
6.04046e-14
6.02355e-14
6.08574e-14
6.1731e-14
6.26424e-14
6.27502e-14
6.27052e-14
6.38373e-14
6.49521e-14
6.57024e-14
6.55302e-14
6.56272e-14
6.64052e-14
6.70081e-14
6.76597e-14
6.76927e-14
6.82147e-14
6.85216e-14
6.85813e-14
6.94173e-14
6.95968e-14
6.94434e-14
6.9644e-14
6.9974e-14
7.07743e-14
7.11329e-14
7.11141e-14
7.1359e-14
7.1714e-14
7.27196e-14
7.27174e-14
7.25655e-14
7.36102e-14
7.40222e-14
7.47037e-14
7.54157e-14
7.5577e-14
7.60582e-14
7.67101e-14
7.73802e-14
7.75491e-14
7.77556e-14
7.83146e-14
7.92679e-14
7.93761e-14
7.92551e-14
7.98071e-14
7.9848e-14
8.04205e-14
8.14175e-14
8.10421e-14
8.06749e-14
8.1134e-14
8.12849e-14
8.21129e-14
8.22777e-14
8.21939e-14
8.29536e-14
8.34952e-14
8.37958e-14
8.41604e-14
8.41003e-14
8.44023e-14
8.49253e-14
8.54657e-14
8.57838e-14
8.60059e-14
8.64306e-14
8.68342e-14
8.7128e-14
8.71515e-14
8.74774e-14
8.83321e-14
8.89311e-14
8.9587e-14
8.9784e-14
9.0192e-14
9.07726e-14
9.12549e-14
9.19689e-14
9.16369e-14
9.28017e-14
9.39666e-14
9.36872e-14
9.46453e-14
9.47706e-14
9.53352e-14
9.57733e-14
9.49741e-14
9.58506e-14
9.66648e-14
9.71059e-14
9.7517e-14
9.61509e-14
9.67175e-14
9.74262e-14
9.7438e-14
9.79337e-14
9.74087e-14
9.81844e-14
9.84446e-14
9.80716e-14
9.87136e-14
9.7859e-14
9.76748e-14
9.70888e-14
9.71671e-14
9.8193e-14
9.73918e-14
9.78474e-14
9.76699e-14
9.74641e-14
9.85022e-14
9.71435e-14
9.68429e-14
9.6691e-14
9.65035e-14
9.69497e-14
9.52494e-14
9.54515e-14
9.58307e-14
9.53709e-14
9.4756e-14
9.27895e-14
9.3462e-14
9.32694e-14
9.24113e-14
9.26414e-14
9.12287e-14
9.1065e-14
9.05633e-14
9.01116e-14
8.99075e-14
8.85196e-14
8.86936e-14
8.8317e-14
8.79873e-14
8.81628e-14
8.63919e-14
8.5904e-14
8.51657e-14
8.48834e-14
8.52493e-14
8.37064e-14
8.37109e-14
8.34097e-14
8.32281e-14
8.40982e-14
8.29678e-14
8.28764e-14
8.24259e-14
8.23463e-14
8.29792e-14
8.15482e-14
8.10613e-14
8.10502e-14
8.03719e-14
7.95109e-14
7.74153e-14
7.70284e-14
7.67829e-14
7.57407e-14
7.49421e-14
7.34261e-14
7.24585e-14
7.23857e-14
7.14507e-14
7.06161e-14
6.88275e-14
6.7762e-14
6.74186e-14
6.71059e-14
6.60651e-14
6.40064e-14
6.30825e-14
6.1989e-14
6.1307e-14
5.99007e-14
5.84135e-14
5.75928e-14
5.54963e-14
5.39097e-14
5.24471e-14
5.0478e-14
4.8928e-14
4.63562e-14
4.43819e-14
4.20747e-14
3.9158e-14
4.16523e-14
4.27817e-14
4.35103e-14
4.36049e-14
4.36987e-14
4.38456e-14
4.38918e-14
4.40105e-14
4.39114e-14
4.35758e-14
4.33806e-14
4.31807e-14
4.2865e-14
4.24639e-14
4.21008e-14
4.18034e-14
4.15728e-14
4.14145e-14
4.12189e-14
4.10205e-14
4.08315e-14
4.0629e-14
4.04645e-14
4.0455e-14
4.04296e-14
4.03065e-14
4.02669e-14
4.01217e-14
3.9801e-14
3.94979e-14
3.96087e-14
3.96105e-14
3.96376e-14
3.96914e-14
3.97605e-14
3.96649e-14
3.97514e-14
3.98565e-14
3.97073e-14
3.94466e-14
3.97035e-14
3.98108e-14
4.00161e-14
4.01025e-14
4.01711e-14
4.01698e-14
4.05588e-14
4.10861e-14
4.11033e-14
4.15141e-14
4.17238e-14
4.17052e-14
4.18582e-14
4.2055e-14
4.23094e-14
4.26541e-14
4.29538e-14
4.30616e-14
4.32259e-14
4.38198e-14
4.38458e-14
4.4203e-14
4.44633e-14
4.46275e-14
4.53503e-14
4.55092e-14
4.5838e-14
4.61197e-14
4.62956e-14
4.66848e-14
4.69466e-14
4.74114e-14
4.76031e-14
4.80591e-14
4.869e-14
4.88583e-14
4.91968e-14
4.92453e-14
4.90956e-14
4.93751e-14
4.93965e-14
4.91579e-14
4.89569e-14
4.86659e-14
4.86581e-14
4.83697e-14
4.83723e-14
4.82944e-14
4.77888e-14
4.78012e-14
4.79514e-14
4.81632e-14
4.84362e-14
4.85496e-14
4.88691e-14
4.88191e-14
4.89179e-14
4.91699e-14
4.90738e-14
4.91527e-14
4.96577e-14
5.00385e-14
5.02838e-14
4.99589e-14
4.99653e-14
5.02112e-14
5.02347e-14
4.97598e-14
4.96616e-14
5.02227e-14
5.08012e-14
5.07008e-14
5.07459e-14
5.11212e-14
5.17488e-14
5.27249e-14
5.3269e-14
5.30678e-14
5.36342e-14
5.49286e-14
5.56361e-14
5.59391e-14
5.59696e-14
5.64353e-14
5.7356e-14
5.81127e-14
5.81833e-14
5.82536e-14
5.88721e-14
5.95211e-14
6.02028e-14
6.05964e-14
6.04549e-14
6.07473e-14
6.16905e-14
6.26063e-14
6.26919e-14
6.27401e-14
6.38751e-14
6.49804e-14
6.56094e-14
6.55723e-14
6.57633e-14
6.64643e-14
6.69176e-14
6.76307e-14
6.77935e-14
6.82096e-14
6.85751e-14
6.86395e-14
6.91749e-14
6.93742e-14
6.95039e-14
6.96768e-14
7.01822e-14
7.06956e-14
7.09711e-14
7.11823e-14
7.14312e-14
7.18893e-14
7.25726e-14
7.25423e-14
7.26601e-14
7.35082e-14
7.40539e-14
7.46707e-14
7.52377e-14
7.57881e-14
7.62168e-14
7.67174e-14
7.72727e-14
7.74697e-14
7.7754e-14
7.83461e-14
7.91292e-14
7.93044e-14
7.97101e-14
7.97782e-14
7.97375e-14
8.05585e-14
8.12084e-14
8.10489e-14
8.08062e-14
8.10608e-14
8.15867e-14
8.19715e-14
8.21721e-14
8.22975e-14
8.27849e-14
8.36057e-14
8.37886e-14
8.40775e-14
8.43387e-14
8.43369e-14
8.4808e-14
8.53042e-14
8.5859e-14
8.63057e-14
8.6216e-14
8.68055e-14
8.70411e-14
8.71586e-14
8.78285e-14
8.82223e-14
8.86282e-14
8.95065e-14
8.99862e-14
9.04625e-14
9.06495e-14
9.0951e-14
9.18407e-14
9.21154e-14
9.28085e-14
9.35722e-14
9.41478e-14
9.47685e-14
9.44443e-14
9.50654e-14
9.55983e-14
9.55471e-14
9.6094e-14
9.63276e-14
9.69294e-14
9.73992e-14
9.66774e-14
9.6791e-14
9.72144e-14
9.74062e-14
9.77223e-14
9.75801e-14
9.81154e-14
9.84496e-14
9.81347e-14
9.84221e-14
9.78831e-14
9.77519e-14
9.70614e-14
9.72597e-14
9.7842e-14
9.74293e-14
9.78438e-14
9.78157e-14
9.76238e-14
9.79968e-14
9.70641e-14
9.71614e-14
9.69648e-14
9.64397e-14
9.66238e-14
9.56431e-14
9.55212e-14
9.56784e-14
9.52415e-14
9.44748e-14
9.32142e-14
9.35314e-14
9.31942e-14
9.24106e-14
9.23988e-14
9.16063e-14
9.12554e-14
9.0312e-14
8.99679e-14
8.97302e-14
8.88705e-14
8.89789e-14
8.82071e-14
8.78173e-14
8.80159e-14
8.65238e-14
8.60535e-14
8.52033e-14
8.48035e-14
8.50941e-14
8.37519e-14
8.37673e-14
8.33388e-14
8.32972e-14
8.4067e-14
8.30208e-14
8.30932e-14
8.23874e-14
8.21985e-14
8.27626e-14
8.16349e-14
8.12854e-14
8.11659e-14
8.00917e-14
7.93666e-14
7.76093e-14
7.71464e-14
7.659e-14
7.56705e-14
7.50681e-14
7.3668e-14
7.2385e-14
7.23963e-14
7.12841e-14
7.06092e-14
6.91822e-14
6.78451e-14
6.74735e-14
6.67604e-14
6.56913e-14
6.39635e-14
6.32827e-14
6.22866e-14
6.10425e-14
6.00506e-14
5.83378e-14
5.75703e-14
5.58864e-14
5.37417e-14
5.24239e-14
5.07021e-14
4.899e-14
4.66864e-14
4.44909e-14
4.26766e-14
4.09778e-14
4.22839e-14
4.30088e-14
4.37455e-14
4.37989e-14
4.37665e-14
4.38611e-14
4.39735e-14
4.40814e-14
4.38365e-14
4.35369e-14
4.34289e-14
4.3218e-14
4.28004e-14
4.24422e-14
4.21548e-14
4.1817e-14
4.15809e-14
4.14062e-14
4.12278e-14
4.11144e-14
4.07337e-14
4.05801e-14
4.03936e-14
4.04653e-14
4.05048e-14
4.03827e-14
4.02684e-14
4.00575e-14
3.98067e-14
3.94861e-14
3.95921e-14
3.96634e-14
3.97078e-14
3.96422e-14
3.96663e-14
3.96629e-14
3.98213e-14
3.98687e-14
3.96089e-14
3.9381e-14
3.97909e-14
3.97173e-14
3.99846e-14
4.00599e-14
4.02542e-14
4.00751e-14
4.04197e-14
4.11155e-14
4.11247e-14
4.15503e-14
4.17944e-14
4.17403e-14
4.18467e-14
4.20482e-14
4.22643e-14
4.2649e-14
4.30446e-14
4.3015e-14
4.32093e-14
4.37461e-14
4.38016e-14
4.41879e-14
4.44922e-14
4.46713e-14
4.54031e-14
4.56624e-14
4.58263e-14
4.60329e-14
4.62859e-14
4.65852e-14
4.68917e-14
4.73239e-14
4.75922e-14
4.81019e-14
4.86607e-14
4.8886e-14
4.92401e-14
4.93945e-14
4.91274e-14
4.93615e-14
4.93361e-14
4.92449e-14
4.90182e-14
4.85927e-14
4.85394e-14
4.84928e-14
4.84429e-14
4.81025e-14
4.7768e-14
4.764e-14
4.78858e-14
4.81878e-14
4.84264e-14
4.84882e-14
4.89645e-14
4.89122e-14
4.88998e-14
4.91361e-14
4.90408e-14
4.91644e-14
4.95406e-14
5.0068e-14
5.04387e-14
5.00352e-14
5.00374e-14
5.01326e-14
5.00034e-14
4.99045e-14
4.97736e-14
5.00801e-14
5.07343e-14
5.07751e-14
5.07992e-14
5.11319e-14
5.18234e-14
5.24814e-14
5.30549e-14
5.32494e-14
5.38951e-14
5.48162e-14
5.53569e-14
5.60742e-14
5.62624e-14
5.64559e-14
5.74132e-14
5.78933e-14
5.81795e-14
5.84856e-14
5.88429e-14
5.93349e-14
6.01707e-14
6.07578e-14
6.06056e-14
6.07627e-14
6.15635e-14
6.25194e-14
6.26512e-14
6.29354e-14
6.39372e-14
6.49065e-14
6.53731e-14
6.57045e-14
6.59999e-14
6.65171e-14
6.6913e-14
6.74474e-14
6.7936e-14
6.82976e-14
6.85204e-14
6.85593e-14
6.90635e-14
6.93485e-14
6.95292e-14
6.95887e-14
7.02419e-14
7.06827e-14
7.08841e-14
7.12627e-14
7.15555e-14
7.18965e-14
7.23459e-14
7.23865e-14
7.28233e-14
7.35281e-14
7.40338e-14
7.46527e-14
7.52671e-14
7.57148e-14
7.61746e-14
7.68304e-14
7.73531e-14
7.72971e-14
7.78214e-14
7.85345e-14
7.89915e-14
7.92154e-14
7.97182e-14
7.98807e-14
7.99051e-14
8.05542e-14
8.11163e-14
8.1137e-14
8.0925e-14
8.09246e-14
8.16596e-14
8.20516e-14
8.20533e-14
8.21911e-14
8.29719e-14
8.35724e-14
8.37534e-14
8.40124e-14
8.44635e-14
8.4517e-14
8.45989e-14
8.53419e-14
8.59743e-14
8.61829e-14
8.61691e-14
8.6761e-14
8.69741e-14
8.73298e-14
8.77787e-14
8.80883e-14
8.86673e-14
8.94486e-14
9.00121e-14
9.04178e-14
9.07027e-14
9.10724e-14
9.17351e-14
9.21882e-14
9.28228e-14
9.33721e-14
9.42265e-14
9.47729e-14
9.45594e-14
9.50553e-14
9.54425e-14
9.5726e-14
9.60807e-14
9.6321e-14
9.69649e-14
9.72196e-14
9.70638e-14
9.68256e-14
9.67199e-14
9.74244e-14
9.7931e-14
9.78883e-14
9.80172e-14
9.84297e-14
9.80162e-14
9.80226e-14
9.78285e-14
9.78612e-14
9.74838e-14
9.72703e-14
9.74523e-14
9.76486e-14
9.78008e-14
9.76465e-14
9.7784e-14
9.78246e-14
9.72206e-14
9.73161e-14
9.7e-14
9.64425e-14
9.65241e-14
9.58806e-14
9.55422e-14
9.57395e-14
9.50933e-14
9.41658e-14
9.36491e-14
9.35634e-14
9.30893e-14
9.2391e-14
9.22348e-14
9.19916e-14
9.11552e-14
9.02063e-14
8.99924e-14
8.98868e-14
8.91281e-14
8.86593e-14
8.83165e-14
8.79811e-14
8.76671e-14
8.66156e-14
8.60764e-14
8.54367e-14
8.48091e-14
8.46972e-14
8.40286e-14
8.36973e-14
8.3358e-14
8.33873e-14
8.36572e-14
8.33727e-14
8.30549e-14
8.23984e-14
8.23761e-14
8.23368e-14
8.21056e-14
8.14737e-14
8.08628e-14
7.98817e-14
7.93492e-14
7.80716e-14
7.72127e-14
7.62219e-14
7.55812e-14
7.50086e-14
7.40899e-14
7.25937e-14
7.2061e-14
7.13169e-14
7.05453e-14
6.94854e-14
6.78655e-14
6.73835e-14
6.67943e-14
6.5445e-14
6.42518e-14
6.32891e-14
6.19902e-14
6.10386e-14
6.01258e-14
5.85451e-14
5.77104e-14
5.60103e-14
5.38807e-14
5.22642e-14
5.07204e-14
4.91842e-14
4.72432e-14
4.48793e-14
4.32493e-14
4.23585e-14
4.29279e-14
4.33175e-14
4.40344e-14
4.41095e-14
4.39046e-14
4.39805e-14
4.40777e-14
4.40453e-14
4.37834e-14
4.37223e-14
4.34404e-14
4.32886e-14
4.28385e-14
4.2397e-14
4.20711e-14
4.17999e-14
4.14823e-14
4.12873e-14
4.12856e-14
4.11641e-14
4.07283e-14
4.04061e-14
4.04373e-14
4.04463e-14
4.06034e-14
4.04474e-14
4.02636e-14
4.001e-14
3.97623e-14
3.95066e-14
3.95776e-14
3.97501e-14
3.9749e-14
3.96563e-14
3.96039e-14
3.96271e-14
3.98448e-14
3.99092e-14
3.95688e-14
3.9439e-14
3.9765e-14
3.96491e-14
3.99099e-14
4.00984e-14
4.02801e-14
3.98802e-14
4.02338e-14
4.11482e-14
4.13674e-14
4.15822e-14
4.17528e-14
4.18009e-14
4.17675e-14
4.20662e-14
4.2299e-14
4.25396e-14
4.29789e-14
4.30639e-14
4.3241e-14
4.36064e-14
4.38498e-14
4.42095e-14
4.45389e-14
4.46712e-14
4.53011e-14
4.59133e-14
4.58813e-14
4.59797e-14
4.62076e-14
4.65037e-14
4.69656e-14
4.72021e-14
4.75519e-14
4.80419e-14
4.86457e-14
4.9105e-14
4.92395e-14
4.94435e-14
4.92926e-14
4.93542e-14
4.94465e-14
4.9346e-14
4.89387e-14
4.86296e-14
4.83396e-14
4.84601e-14
4.85361e-14
4.81244e-14
4.75917e-14
4.76986e-14
4.77664e-14
4.80947e-14
4.84402e-14
4.8453e-14
4.89793e-14
4.90825e-14
4.90526e-14
4.89477e-14
4.88225e-14
4.92283e-14
4.96023e-14
5.01091e-14
5.05047e-14
5.0105e-14
5.00681e-14
5.00163e-14
4.983e-14
5.00511e-14
4.98913e-14
4.99472e-14
5.06894e-14
5.07345e-14
5.07391e-14
5.11912e-14
5.18693e-14
5.2314e-14
5.29813e-14
5.3316e-14
5.39841e-14
5.47804e-14
5.5227e-14
5.60135e-14
5.6512e-14
5.65221e-14
5.74349e-14
5.7902e-14
5.82189e-14
5.85839e-14
5.85964e-14
5.92742e-14
6.03692e-14
6.07582e-14
6.06783e-14
6.07705e-14
6.15749e-14
6.23417e-14
6.25025e-14
6.3211e-14
6.40299e-14
6.49313e-14
6.5153e-14
6.5812e-14
6.62382e-14
6.65344e-14
6.67931e-14
6.72373e-14
6.81519e-14
6.84306e-14
6.84852e-14
6.84036e-14
6.89447e-14
6.95024e-14
6.9541e-14
6.97523e-14
7.00278e-14
7.04608e-14
7.08824e-14
7.13886e-14
7.17229e-14
7.19626e-14
7.21733e-14
7.22891e-14
7.28695e-14
7.34216e-14
7.40687e-14
7.47917e-14
7.5324e-14
7.55248e-14
7.60991e-14
7.69066e-14
7.73422e-14
7.72004e-14
7.80148e-14
7.86636e-14
7.89832e-14
7.9202e-14
7.95868e-14
7.99627e-14
8.02491e-14
8.05487e-14
8.09859e-14
8.12209e-14
8.09546e-14
8.0772e-14
8.16476e-14
8.19429e-14
8.21498e-14
8.21672e-14
8.29274e-14
8.35602e-14
8.3792e-14
8.41193e-14
8.4393e-14
8.45534e-14
8.44193e-14
8.53905e-14
8.60401e-14
8.59451e-14
8.6197e-14
8.65196e-14
8.69714e-14
8.75714e-14
8.77342e-14
8.7991e-14
8.87e-14
8.94242e-14
8.99474e-14
9.03552e-14
9.09435e-14
9.10583e-14
9.16516e-14
9.2297e-14
9.27854e-14
9.32536e-14
9.42855e-14
9.47997e-14
9.47937e-14
9.50368e-14
9.53297e-14
9.56947e-14
9.61984e-14
9.64987e-14
9.69298e-14
9.69885e-14
9.70507e-14
9.69123e-14
9.63881e-14
9.74249e-14
9.82683e-14
9.80146e-14
9.80209e-14
9.82527e-14
9.78513e-14
9.76891e-14
9.77251e-14
9.81625e-14
9.78832e-14
9.72279e-14
9.7243e-14
9.77307e-14
9.7666e-14
9.75641e-14
9.78942e-14
9.77754e-14
9.76251e-14
9.73799e-14
9.70254e-14
9.67008e-14
9.6239e-14
9.59477e-14
9.56452e-14
9.56459e-14
9.50976e-14
9.42177e-14
9.38386e-14
9.33482e-14
9.29775e-14
9.25369e-14
9.21681e-14
9.18366e-14
9.10966e-14
9.04264e-14
9.02068e-14
8.99204e-14
8.92216e-14
8.84731e-14
8.84751e-14
8.80358e-14
8.74498e-14
8.67903e-14
8.60178e-14
8.55161e-14
8.4708e-14
8.44654e-14
8.42235e-14
8.36035e-14
8.33799e-14
8.34985e-14
8.33566e-14
8.35487e-14
8.30767e-14
8.25173e-14
8.25089e-14
8.2046e-14
8.24624e-14
8.15495e-14
8.0668e-14
7.98875e-14
7.93199e-14
7.83568e-14
7.72561e-14
7.61658e-14
7.55555e-14
7.48663e-14
7.43679e-14
7.27019e-14
7.18815e-14
7.14621e-14
7.05499e-14
6.96304e-14
6.79097e-14
6.73829e-14
6.68019e-14
6.52584e-14
6.43871e-14
6.33259e-14
6.1902e-14
6.10661e-14
6.00738e-14
5.89356e-14
5.77231e-14
5.59328e-14
5.4312e-14
5.2189e-14
5.06648e-14
4.94101e-14
4.77475e-14
4.55132e-14
4.39824e-14
4.36462e-14
4.35572e-14
4.37772e-14
4.42632e-14
4.42772e-14
4.41668e-14
4.40214e-14
4.4166e-14
4.40048e-14
4.38699e-14
4.39203e-14
4.342e-14
4.32633e-14
4.28261e-14
4.25385e-14
4.2059e-14
4.1607e-14
4.15077e-14
4.1063e-14
4.1287e-14
4.11729e-14
4.05479e-14
4.03922e-14
4.04211e-14
4.04258e-14
4.07826e-14
4.0499e-14
4.01733e-14
4.00063e-14
3.97865e-14
3.95727e-14
3.96166e-14
3.9671e-14
3.97267e-14
3.97909e-14
3.95548e-14
3.96541e-14
3.97911e-14
4.0006e-14
3.962e-14
3.94056e-14
3.95637e-14
3.96659e-14
3.98305e-14
4.01732e-14
4.02988e-14
3.98129e-14
4.01668e-14
4.10324e-14
4.13984e-14
4.16125e-14
4.17837e-14
4.1649e-14
4.18446e-14
4.20893e-14
4.21283e-14
4.26672e-14
4.29282e-14
4.30013e-14
4.32243e-14
4.36592e-14
4.3926e-14
4.41703e-14
4.45648e-14
4.46948e-14
4.5276e-14
4.58932e-14
4.58439e-14
4.59996e-14
4.62199e-14
4.65357e-14
4.70639e-14
4.7064e-14
4.75411e-14
4.8105e-14
4.88812e-14
4.9213e-14
4.92158e-14
4.95597e-14
4.93428e-14
4.95782e-14
4.95285e-14
4.9323e-14
4.91094e-14
4.85759e-14
4.81848e-14
4.83785e-14
4.84452e-14
4.81187e-14
4.75798e-14
4.76275e-14
4.75916e-14
4.80166e-14
4.84407e-14
4.85321e-14
4.89763e-14
4.92334e-14
4.90678e-14
4.87717e-14
4.88945e-14
4.92676e-14
4.95976e-14
5.0166e-14
5.04004e-14
5.00363e-14
5.00877e-14
4.99678e-14
4.98516e-14
4.99983e-14
4.98664e-14
4.99182e-14
5.04274e-14
5.06341e-14
5.09187e-14
5.11825e-14
5.16892e-14
5.2222e-14
5.3032e-14
5.34541e-14
5.40511e-14
5.46041e-14
5.52477e-14
5.60968e-14
5.6603e-14
5.67244e-14
5.73305e-14
5.78532e-14
5.83227e-14
5.86799e-14
5.85222e-14
5.92242e-14
6.02809e-14
6.06446e-14
6.09051e-14
6.07888e-14
6.15954e-14
6.21647e-14
6.26521e-14
6.32968e-14
6.41232e-14
6.49897e-14
6.524e-14
6.56357e-14
6.62921e-14
6.64572e-14
6.68093e-14
6.73401e-14
6.81853e-14
6.8401e-14
6.85535e-14
6.86371e-14
6.89475e-14
6.93275e-14
6.96243e-14
6.98615e-14
6.99338e-14
7.01823e-14
7.09042e-14
7.13546e-14
7.17103e-14
7.19969e-14
7.207e-14
7.2447e-14
7.28733e-14
7.31195e-14
7.38221e-14
7.48658e-14
7.54812e-14
7.55253e-14
7.61767e-14
7.68299e-14
7.73755e-14
7.73668e-14
7.79427e-14
7.84513e-14
7.90582e-14
7.93732e-14
7.96935e-14
7.99827e-14
8.03602e-14
8.0521e-14
8.08352e-14
8.11947e-14
8.08849e-14
8.10556e-14
8.15329e-14
8.18423e-14
8.22568e-14
8.22852e-14
8.28104e-14
8.3338e-14
8.38869e-14
8.42629e-14
8.42461e-14
8.45856e-14
8.45232e-14
8.53168e-14
8.57783e-14
8.58929e-14
8.61582e-14
8.63934e-14
8.716e-14
8.74306e-14
8.76158e-14
8.80901e-14
8.85325e-14
8.93805e-14
9.00829e-14
9.04021e-14
9.09446e-14
9.10441e-14
9.17598e-14
9.2334e-14
9.27089e-14
9.32654e-14
9.43481e-14
9.48814e-14
9.47087e-14
9.49433e-14
9.53713e-14
9.59967e-14
9.62566e-14
9.65256e-14
9.68305e-14
9.66991e-14
9.70983e-14
9.69587e-14
9.63225e-14
9.72986e-14
9.81556e-14
9.81925e-14
9.80291e-14
9.8102e-14
9.77706e-14
9.76569e-14
9.78664e-14
9.8178e-14
9.80166e-14
9.73192e-14
9.69937e-14
9.77004e-14
9.7638e-14
9.77594e-14
9.80684e-14
9.75503e-14
9.76426e-14
9.76525e-14
9.73659e-14
9.67692e-14
9.62778e-14
9.60601e-14
9.55939e-14
9.52909e-14
9.49199e-14
9.46581e-14
9.39416e-14
9.32879e-14
9.29183e-14
9.25351e-14
9.20201e-14
9.17748e-14
9.11435e-14
9.05096e-14
9.02705e-14
8.97952e-14
8.94867e-14
8.87468e-14
8.83696e-14
8.79988e-14
8.73283e-14
8.6799e-14
8.60567e-14
8.5413e-14
8.47059e-14
8.43666e-14
8.41856e-14
8.36455e-14
8.34153e-14
8.3442e-14
8.32356e-14
8.34992e-14
8.30783e-14
8.27981e-14
8.26049e-14
8.2001e-14
8.24394e-14
8.17102e-14
8.06198e-14
8.0059e-14
7.94936e-14
7.83066e-14
7.71431e-14
7.62461e-14
7.56467e-14
7.48266e-14
7.41143e-14
7.29428e-14
7.2039e-14
7.13458e-14
7.05873e-14
6.96712e-14
6.83998e-14
6.73188e-14
6.63378e-14
6.52277e-14
6.43691e-14
6.32831e-14
6.19789e-14
6.10739e-14
6.02644e-14
5.91798e-14
5.77994e-14
5.61153e-14
5.44195e-14
5.24471e-14
5.0659e-14
4.93954e-14
4.82395e-14
4.61167e-14
4.48526e-14
4.46545e-14
4.43483e-14
4.44794e-14
4.45523e-14
4.45609e-14
4.42901e-14
4.41092e-14
4.42828e-14
4.39173e-14
4.39889e-14
4.41019e-14
4.34108e-14
4.31147e-14
4.27017e-14
4.25854e-14
4.21111e-14
4.15922e-14
4.15064e-14
4.09883e-14
4.1172e-14
4.09697e-14
4.03608e-14
4.0492e-14
4.04598e-14
4.03937e-14
4.08569e-14
4.06099e-14
4.01661e-14
3.99569e-14
3.98753e-14
3.96687e-14
3.95284e-14
3.96536e-14
3.9796e-14
3.97948e-14
3.97153e-14
3.96795e-14
3.97616e-14
4.00591e-14
3.96701e-14
3.93626e-14
3.9458e-14
3.96424e-14
3.9677e-14
4.01193e-14
4.02367e-14
3.98898e-14
4.0234e-14
4.09981e-14
4.13008e-14
4.15845e-14
4.18798e-14
4.17014e-14
4.19054e-14
4.19602e-14
4.20576e-14
4.25558e-14
4.2946e-14
4.31265e-14
4.32428e-14
4.36977e-14
4.40536e-14
4.42473e-14
4.45608e-14
4.48495e-14
4.53024e-14
4.58093e-14
4.5786e-14
4.60854e-14
4.61635e-14
4.66264e-14
4.70869e-14
4.70135e-14
4.74925e-14
4.82097e-14
4.89717e-14
4.93744e-14
4.92073e-14
4.95157e-14
4.95421e-14
4.9776e-14
4.96656e-14
4.94586e-14
4.92803e-14
4.84499e-14
4.81296e-14
4.82628e-14
4.84908e-14
4.82426e-14
4.76149e-14
4.7582e-14
4.74418e-14
4.78644e-14
4.83515e-14
4.85001e-14
4.91318e-14
4.94062e-14
4.90559e-14
4.87622e-14
4.87889e-14
4.93002e-14
4.95071e-14
5.01286e-14
5.03148e-14
4.99788e-14
4.98405e-14
5.00326e-14
5.00121e-14
4.99193e-14
4.97697e-14
4.98922e-14
5.01572e-14
5.07015e-14
5.09195e-14
5.1024e-14
5.17461e-14
5.22867e-14
5.30315e-14
5.36203e-14
5.39128e-14
5.4484e-14
5.51404e-14
5.61702e-14
5.68584e-14
5.67868e-14
5.7209e-14
5.77742e-14
5.84411e-14
5.87734e-14
5.85276e-14
5.91796e-14
6.01971e-14
6.07358e-14
6.09617e-14
6.06671e-14
6.13647e-14
6.21394e-14
6.26446e-14
6.35148e-14
6.43365e-14
6.48794e-14
6.53313e-14
6.55935e-14
6.63472e-14
6.64857e-14
6.67565e-14
6.72072e-14
6.82503e-14
6.84385e-14
6.85543e-14
6.88679e-14
6.91125e-14
6.91602e-14
6.95603e-14
6.98556e-14
6.99522e-14
7.00179e-14
7.08784e-14
7.1481e-14
7.16324e-14
7.18735e-14
7.2098e-14
7.24594e-14
7.28868e-14
7.29198e-14
7.35291e-14
7.4926e-14
7.56617e-14
7.54696e-14
7.62394e-14
7.6775e-14
7.74973e-14
7.77633e-14
7.77592e-14
7.83927e-14
7.90478e-14
7.94373e-14
7.9881e-14
8.00029e-14
8.04755e-14
8.04636e-14
8.07841e-14
8.11122e-14
8.0999e-14
8.12694e-14
8.13217e-14
8.17376e-14
8.23423e-14
8.25015e-14
8.27115e-14
8.31019e-14
8.39257e-14
8.44132e-14
8.41626e-14
8.45406e-14
8.46588e-14
8.52217e-14
8.56352e-14
8.57998e-14
8.6167e-14
8.63509e-14
8.72843e-14
8.72338e-14
8.74377e-14
8.81019e-14
8.83146e-14
8.95439e-14
9.02396e-14
9.04606e-14
9.09649e-14
9.08653e-14
9.1801e-14
9.24083e-14
9.25848e-14
9.33517e-14
9.4526e-14
9.4964e-14
9.46089e-14
9.49395e-14
9.55023e-14
9.61369e-14
9.63236e-14
9.64565e-14
9.67927e-14
9.66346e-14
9.71214e-14
9.69938e-14
9.62011e-14
9.72516e-14
9.81729e-14
9.81703e-14
9.79849e-14
9.78143e-14
9.7825e-14
9.74983e-14
9.80168e-14
9.82842e-14
9.81008e-14
9.75582e-14
9.67699e-14
9.73542e-14
9.76961e-14
9.80132e-14
9.83885e-14
9.75193e-14
9.73793e-14
9.79161e-14
9.77394e-14
9.69418e-14
9.62601e-14
9.62996e-14
9.55355e-14
9.49398e-14
9.48981e-14
9.48847e-14
9.41109e-14
9.3111e-14
9.28756e-14
9.26245e-14
9.18436e-14
9.1565e-14
9.12701e-14
9.07378e-14
9.00412e-14
8.98072e-14
8.97351e-14
8.90702e-14
8.82204e-14
8.79431e-14
8.72509e-14
8.68681e-14
8.61443e-14
8.51319e-14
8.4751e-14
8.443e-14
8.38693e-14
8.36311e-14
8.34265e-14
8.34369e-14
8.32568e-14
8.34634e-14
8.30947e-14
8.28748e-14
8.28096e-14
8.19425e-14
8.22659e-14
8.19537e-14
8.07385e-14
8.01168e-14
7.94376e-14
7.82051e-14
7.70061e-14
7.64324e-14
7.58074e-14
7.48063e-14
7.38673e-14
7.31322e-14
7.22077e-14
7.11394e-14
7.07808e-14
6.96214e-14
6.87101e-14
6.74101e-14
6.59701e-14
6.53513e-14
6.4212e-14
6.32178e-14
6.19541e-14
6.10645e-14
6.04754e-14
5.91966e-14
5.81416e-14
5.63812e-14
5.44014e-14
5.28242e-14
5.06556e-14
4.93433e-14
4.85317e-14
4.6627e-14
4.54808e-14
4.55328e-14
4.51058e-14
4.51535e-14
4.48984e-14
4.48043e-14
4.46029e-14
4.43277e-14
4.41465e-14
4.41216e-14
4.42328e-14
4.41875e-14
4.32738e-14
4.31086e-14
4.27157e-14
4.27579e-14
4.20751e-14
4.15032e-14
4.1481e-14
4.09726e-14
4.10328e-14
4.07371e-14
4.0319e-14
4.05836e-14
4.04301e-14
4.03291e-14
4.08104e-14
4.05545e-14
4.02206e-14
4.00536e-14
3.98436e-14
3.97914e-14
3.96121e-14
3.98366e-14
3.98472e-14
3.97322e-14
3.98354e-14
3.97613e-14
3.95947e-14
4.00965e-14
3.96734e-14
3.92828e-14
3.93948e-14
3.96052e-14
3.94984e-14
4.00815e-14
4.02879e-14
3.98063e-14
4.01118e-14
4.09057e-14
4.1145e-14
4.16855e-14
4.19365e-14
4.17868e-14
4.1817e-14
4.18424e-14
4.19279e-14
4.25523e-14
4.29664e-14
4.3145e-14
4.34076e-14
4.3846e-14
4.41836e-14
4.42277e-14
4.46242e-14
4.48323e-14
4.53958e-14
4.58476e-14
4.57038e-14
4.61721e-14
4.60836e-14
4.67791e-14
4.72137e-14
4.69752e-14
4.74767e-14
4.81291e-14
4.92994e-14
4.94481e-14
4.92582e-14
4.96845e-14
4.97015e-14
4.9835e-14
4.9806e-14
4.97242e-14
4.92155e-14
4.82544e-14
4.80161e-14
4.80951e-14
4.83692e-14
4.82777e-14
4.77603e-14
4.77008e-14
4.7296e-14
4.79404e-14
4.82925e-14
4.83783e-14
4.93263e-14
4.95234e-14
4.89512e-14
4.86071e-14
4.88089e-14
4.92203e-14
4.94808e-14
5.02188e-14
5.04312e-14
4.99939e-14
4.96119e-14
4.9804e-14
5.01639e-14
4.98974e-14
4.95746e-14
4.97161e-14
5.00845e-14
5.07676e-14
5.09915e-14
5.10183e-14
5.16412e-14
5.22747e-14
5.30415e-14
5.37002e-14
5.39e-14
5.41239e-14
5.52353e-14
5.63866e-14
5.69389e-14
5.66048e-14
5.70209e-14
5.79283e-14
5.86732e-14
5.85878e-14
5.84888e-14
5.92367e-14
6.02325e-14
6.08787e-14
6.08211e-14
6.08221e-14
6.13315e-14
6.1987e-14
6.26331e-14
6.37444e-14
6.46293e-14
6.4904e-14
6.52833e-14
6.56088e-14
6.63952e-14
6.65821e-14
6.68501e-14
6.72448e-14
6.83152e-14
6.8518e-14
6.87599e-14
6.87537e-14
6.89877e-14
6.92938e-14
6.95779e-14
7.00533e-14
6.99253e-14
6.99837e-14
7.09275e-14
7.12637e-14
7.1521e-14
7.20206e-14
7.21413e-14
7.24055e-14
7.29233e-14
7.30609e-14
7.34016e-14
7.47246e-14
7.58758e-14
7.57207e-14
7.61645e-14
7.67306e-14
7.74533e-14
7.80055e-14
7.80287e-14
7.83218e-14
7.90834e-14
7.95516e-14
7.99146e-14
7.99987e-14
8.02718e-14
8.05022e-14
8.0706e-14
8.1134e-14
8.11759e-14
8.13022e-14
8.11632e-14
8.16083e-14
8.23618e-14
8.26116e-14
8.26556e-14
8.32305e-14
8.3635e-14
8.44238e-14
8.41567e-14
8.44431e-14
8.46532e-14
8.52128e-14
8.55868e-14
8.57032e-14
8.61494e-14
8.65579e-14
8.70043e-14
8.71825e-14
8.75416e-14
8.79064e-14
8.83871e-14
8.96095e-14