/*--------------------------------*- C++ -*----------------------------------*\
| =========                 |                                                 |
| \\      /  F ield         | OpenFOAM: The Open Source CFD Toolbox           |
|  \\    /   O peration     | Version:  2112                                  |
|   \\  /    A nd           | Website:  www.openfoam.com                      |
|    \\/     M anipulation  |                                                 |
\*---------------------------------------------------------------------------*/
FoamFile
{
    version     2.0;
    format      ascii;
    arch        "LSB;label=32;scalar=64";
    class       volScalarField;
    location    "4";
    object      p;
}
// * * * * * * * * * * * * * * * * * * * * * * * * * * * * * * * * * * * * * //

dimensions      [0 2 -2 0 0 0 0];

internalField   nonuniform List<scalar> 
50000
(
2.40224e-14
3.35692e-14
3.63613e-14
3.74891e-14
3.80597e-14
3.83634e-14
3.85303e-14
3.862e-14
3.85299e-14
3.84398e-14
3.83469e-14
3.81267e-14
3.78967e-14
3.76045e-14
3.73608e-14
3.72223e-14
3.71642e-14
3.69518e-14
3.66346e-14
3.62627e-14
3.5834e-14
3.54442e-14
3.51545e-14
3.49669e-14
3.48188e-14
3.46375e-14
3.44431e-14
3.43131e-14
3.43442e-14
3.41996e-14
3.4097e-14
3.40513e-14
3.39087e-14
3.37127e-14
3.35054e-14
3.32585e-14
3.32414e-14
3.31718e-14
3.30239e-14
3.30636e-14
3.29783e-14
3.29578e-14
3.27444e-14
3.25624e-14
3.25371e-14
3.23458e-14
3.23088e-14
3.24948e-14
3.24138e-14
3.23136e-14
3.252e-14
3.28266e-14
3.31721e-14
3.33865e-14
3.36367e-14
3.40484e-14
3.42459e-14
3.46852e-14
3.51974e-14
3.54164e-14
3.58648e-14
3.63435e-14
3.67976e-14
3.72936e-14
3.79087e-14
3.83311e-14
3.89304e-14
3.9479e-14
3.9975e-14
4.07532e-14
4.13525e-14
4.1847e-14
4.24291e-14
4.32692e-14
4.38564e-14
4.41436e-14
4.48747e-14
4.57172e-14
4.60827e-14
4.64475e-14
4.70707e-14
4.78236e-14
4.83516e-14
4.91245e-14
4.99716e-14
5.0478e-14
5.1242e-14
5.20463e-14
5.27596e-14
5.34019e-14
5.39234e-14
5.45546e-14
5.52177e-14
5.58642e-14
5.64765e-14
5.73112e-14
5.75892e-14
5.79309e-14
5.88561e-14
5.93796e-14
5.9643e-14
6.01449e-14
6.08995e-14
6.14239e-14
6.17782e-14
6.23058e-14
6.27579e-14
6.2923e-14
6.29383e-14
6.32057e-14
6.39527e-14
6.45125e-14
6.46901e-14
6.47911e-14
6.54185e-14
6.63197e-14
6.68389e-14
6.71464e-14
6.78584e-14
6.89646e-14
6.99307e-14
7.06496e-14
7.13694e-14
7.24457e-14
7.35251e-14
7.41219e-14
7.50632e-14
7.61948e-14
7.68835e-14
7.77366e-14
7.85984e-14
7.939e-14
8.00151e-14
8.12831e-14
8.2097e-14
8.24642e-14
8.32075e-14
8.40803e-14
8.45481e-14
8.52757e-14
8.6349e-14
8.68809e-14
8.69893e-14
8.7446e-14
8.85153e-14
8.90351e-14
8.9363e-14
9.0584e-14
9.12702e-14
9.14062e-14
9.23017e-14
9.26565e-14
9.28269e-14
9.40671e-14
9.43902e-14
9.46156e-14
9.53923e-14
9.54037e-14
9.55081e-14
9.5534e-14
9.60319e-14
9.65281e-14
9.67548e-14
9.68393e-14
9.72443e-14
9.76401e-14
9.79514e-14
9.87443e-14
9.85066e-14
9.88127e-14
9.98884e-14
9.98905e-14
1.00138e-13
1.01047e-13
1.01472e-13
1.01701e-13
1.02069e-13
1.0293e-13
1.03546e-13
1.03638e-13
1.04601e-13
1.05293e-13
1.05748e-13
1.06419e-13
1.06748e-13
1.07711e-13
1.08664e-13
1.09007e-13
1.09554e-13
1.10254e-13
1.10924e-13
1.11325e-13
1.11495e-13
1.11445e-13
1.12112e-13
1.12821e-13
1.13143e-13
1.13973e-13
1.14988e-13
1.1503e-13
1.15016e-13
1.15678e-13
1.15282e-13
1.15657e-13
1.16028e-13
1.16384e-13
1.17497e-13
1.178e-13
1.1772e-13
1.18069e-13
1.18352e-13
1.18778e-13
1.1929e-13
1.19161e-13
1.19859e-13
1.19964e-13
1.2018e-13
1.2042e-13
1.20368e-13
1.2078e-13
1.21631e-13
1.22261e-13
1.22443e-13
1.22889e-13
1.22843e-13
1.23131e-13
1.23264e-13
1.23248e-13
1.23404e-13
1.23946e-13
1.24439e-13
1.2494e-13
1.24864e-13
1.24992e-13
1.25571e-13
1.25399e-13
1.25639e-13
1.25946e-13
1.26529e-13
1.26658e-13
1.26842e-13
1.2708e-13
1.26689e-13
1.26314e-13
1.26943e-13
1.26895e-13
1.26569e-13
1.27113e-13
1.26961e-13
1.26814e-13
1.26753e-13
1.26377e-13
1.25857e-13
1.26273e-13
1.26235e-13
1.25623e-13
1.25732e-13
1.256e-13
1.24894e-13
1.24887e-13
1.24245e-13
1.23608e-13
1.24273e-13
1.23658e-13
1.23908e-13
1.23515e-13
1.22323e-13
1.23143e-13
1.22486e-13
1.20953e-13
1.22226e-13
1.2205e-13
1.21025e-13
1.2113e-13
1.20465e-13
1.20749e-13
1.20235e-13
1.19253e-13
1.19225e-13
1.1973e-13
1.19763e-13
1.195e-13
1.1893e-13
1.18575e-13
1.19356e-13
1.18408e-13
1.18859e-13
1.19528e-13
1.18497e-13
1.18734e-13
1.19655e-13
1.19108e-13
1.18902e-13
1.18872e-13
1.17501e-13
1.1823e-13
1.19378e-13
1.18342e-13
1.18211e-13
1.18131e-13
1.16841e-13
1.17424e-13
1.17014e-13
1.15691e-13
1.16927e-13
1.17015e-13
1.1571e-13
1.16276e-13
1.16033e-13
1.14757e-13
1.15113e-13
1.15746e-13
1.14628e-13
1.14516e-13
1.1495e-13
1.14312e-13
1.14472e-13
1.14242e-13
1.13642e-13
1.13047e-13
1.12914e-13
1.13394e-13
1.13565e-13
1.12952e-13
1.11967e-13
1.12389e-13
1.12215e-13
1.11397e-13
1.10303e-13
1.10269e-13
1.11379e-13
1.10353e-13
1.09432e-13
1.09853e-13
1.08503e-13
1.08091e-13
1.09058e-13
1.07396e-13
1.07293e-13
1.08175e-13
1.07142e-13
1.06951e-13
1.06801e-13
1.05889e-13
1.05268e-13
1.05691e-13
1.05973e-13
1.06298e-13
1.05944e-13
1.05222e-13
1.05584e-13
1.0571e-13
1.04834e-13
1.04247e-13
1.04708e-13
1.05053e-13
1.05165e-13
1.04495e-13
1.03544e-13
1.0367e-13
1.03188e-13
1.03621e-13
1.0286e-13
1.01839e-13
1.0295e-13
1.0253e-13
1.01836e-13
1.01474e-13
1.00852e-13
9.95582e-14
9.9876e-14
1.00479e-13
9.99063e-14
9.9198e-14
9.82663e-14
9.83115e-14
9.77343e-14
9.76911e-14
9.65701e-14
9.65865e-14
9.70855e-14
9.66813e-14
9.59701e-14
9.56697e-14
9.57185e-14
9.46714e-14
9.51205e-14
9.38739e-14
9.31766e-14
9.33093e-14
9.27066e-14
9.17419e-14
9.14975e-14
9.12327e-14
8.93043e-14
8.89912e-14
8.95659e-14
8.8987e-14
8.785e-14
8.66741e-14
8.52771e-14
8.43877e-14
8.5777e-14
8.52466e-14
8.39766e-14
8.22619e-14
8.20999e-14
8.33186e-14
8.15599e-14
7.9884e-14
7.96204e-14
8.09109e-14
7.95404e-14
7.86453e-14
7.87503e-14
7.82389e-14
7.85757e-14
7.73814e-14
7.62314e-14
7.64994e-14
7.76452e-14
7.65973e-14
7.47123e-14
7.5852e-14
7.60498e-14
7.50875e-14
7.45242e-14
7.41777e-14
7.36238e-14
7.37586e-14
7.27364e-14
7.06397e-14
7.14559e-14
7.18484e-14
6.97245e-14
6.75793e-14
6.87361e-14
6.82445e-14
6.77176e-14
6.73965e-14
6.51924e-14
6.60245e-14
6.51999e-14
6.3985e-14
6.23994e-14
6.18937e-14
6.18058e-14
6.04231e-14
5.98302e-14
5.8205e-14
5.79627e-14
5.6938e-14
5.65151e-14
5.50501e-14
5.45989e-14
5.433e-14
5.30803e-14
5.28171e-14
5.26795e-14
5.35792e-14
5.11953e-14
5.06906e-14
5.03868e-14
5.03459e-14
5.158e-14
4.97805e-14
4.89835e-14
4.95478e-14
4.98769e-14
4.87787e-14
4.87822e-14
4.83277e-14
4.82273e-14
4.87502e-14
4.79324e-14
4.81712e-14
4.83003e-14
4.93572e-14
4.85511e-14
4.79449e-14
4.81463e-14
4.86842e-14
4.88527e-14
4.77596e-14
4.88649e-14
4.81043e-14
4.78471e-14
4.76424e-14
4.6606e-14
4.78106e-14
4.77356e-14
4.60199e-14
4.51781e-14
4.58239e-14
4.4595e-14
4.36491e-14
4.21511e-14
4.03037e-14
3.89894e-14
3.44085e-14
3.05502e-14
3.44084e-14
3.66426e-14
3.76115e-14
3.81138e-14
3.83561e-14
3.85112e-14
3.86226e-14
3.8531e-14
3.8418e-14
3.83582e-14
3.80904e-14
3.78911e-14
3.75841e-14
3.73379e-14
3.71817e-14
3.71578e-14
3.69484e-14
3.66342e-14
3.629e-14
3.58279e-14
3.53922e-14
3.51612e-14
3.49672e-14
3.48094e-14
3.46396e-14
3.443e-14
3.43183e-14
3.42984e-14
3.41908e-14
3.41228e-14
3.40223e-14
3.38962e-14
3.37704e-14
3.34686e-14
3.3186e-14
3.32467e-14
3.31701e-14
3.30087e-14
3.30373e-14
3.29978e-14
3.2924e-14
3.27933e-14
3.2628e-14
3.2501e-14
3.23733e-14
3.23539e-14
3.24524e-14
3.23837e-14
3.23183e-14
3.25326e-14
3.28603e-14
3.31235e-14
3.33481e-14
3.36931e-14
3.40436e-14
3.42076e-14
3.46316e-14
3.51587e-14
3.54324e-14
3.59262e-14
3.62609e-14
3.67855e-14
3.73325e-14
3.78484e-14
3.83616e-14
3.89253e-14
3.94657e-14
4.00453e-14
4.06841e-14
4.1297e-14
4.18975e-14
4.25339e-14
4.32451e-14
4.37812e-14
4.42537e-14
4.48597e-14
4.56431e-14
4.60931e-14
4.65013e-14
4.70599e-14
4.78246e-14
4.8406e-14
4.91189e-14
4.98657e-14
5.05737e-14
5.1279e-14
5.19382e-14
5.27945e-14
5.34017e-14
5.38819e-14
5.46234e-14
5.5245e-14
5.58519e-14
5.64695e-14
5.72328e-14
5.76222e-14
5.80149e-14
5.88463e-14
5.9393e-14
5.96783e-14
6.01965e-14
6.08732e-14
6.1422e-14
6.18428e-14
6.2173e-14
6.27704e-14
6.30285e-14
6.29331e-14
6.327e-14
6.39033e-14
6.43745e-14
6.47206e-14
6.48845e-14
6.54603e-14
6.62668e-14
6.66895e-14
6.71201e-14
6.79219e-14
6.89822e-14
6.9943e-14
7.06712e-14
7.147e-14
7.24306e-14
7.33414e-14
7.42193e-14
7.51733e-14
7.61406e-14
7.68923e-14
7.77069e-14
7.85139e-14
7.94109e-14
8.02021e-14
8.12215e-14
8.19942e-14
8.2543e-14
8.32707e-14
8.39995e-14
8.45728e-14
8.53237e-14
8.61862e-14
8.6814e-14
8.70063e-14
8.75746e-14
8.85707e-14
8.90488e-14
8.94642e-14
9.05584e-14
9.12234e-14
9.15459e-14
9.2225e-14
9.25878e-14
9.30088e-14
9.39646e-14
9.4345e-14
9.46898e-14
9.5216e-14
9.53718e-14
9.55925e-14
9.56214e-14
9.60173e-14
9.64467e-14
9.66943e-14
9.68557e-14
9.72386e-14
9.76554e-14
9.80075e-14
9.85264e-14
9.8608e-14
9.8934e-14
9.96459e-14
1.00109e-13
1.00316e-13
1.00731e-13
1.01488e-13
1.01753e-13
1.02119e-13
1.03005e-13
1.03505e-13
1.03637e-13
1.04517e-13
1.05229e-13
1.05751e-13
1.06416e-13
1.06921e-13
1.07732e-13
1.08512e-13
1.09095e-13
1.0954e-13
1.10253e-13
1.10905e-13
1.11266e-13
1.11387e-13
1.11543e-13
1.12335e-13
1.12784e-13
1.13169e-13
1.14151e-13
1.14797e-13
1.14785e-13
1.15125e-13
1.15659e-13
1.15395e-13
1.1578e-13
1.16035e-13
1.16295e-13
1.17406e-13
1.1787e-13
1.17801e-13
1.17982e-13
1.18429e-13
1.18693e-13
1.19155e-13
1.19376e-13
1.198e-13
1.19857e-13
1.20224e-13
1.20392e-13
1.20387e-13
1.20979e-13
1.21643e-13
1.22071e-13
1.22352e-13
1.22782e-13
1.2291e-13
1.2319e-13
1.23388e-13
1.2337e-13
1.2343e-13
1.24023e-13
1.24325e-13
1.24658e-13
1.25006e-13
1.24996e-13
1.2545e-13
1.25546e-13
1.25679e-13
1.26115e-13
1.26379e-13
1.26641e-13
1.26785e-13
1.26927e-13
1.26892e-13
1.26498e-13
1.26813e-13
1.26896e-13
1.26707e-13
1.26978e-13
1.26889e-13
1.26606e-13
1.26763e-13
1.26518e-13
1.26138e-13
1.26214e-13
1.26138e-13
1.25776e-13
1.25519e-13
1.25398e-13
1.2503e-13
1.24929e-13
1.24263e-13
1.2376e-13
1.23991e-13
1.23741e-13
1.23907e-13
1.23545e-13
1.22432e-13
1.22804e-13
1.22509e-13
1.21433e-13
1.21925e-13
1.21855e-13
1.21112e-13
1.21027e-13
1.20776e-13
1.20418e-13
1.20252e-13
1.19665e-13
1.19318e-13
1.19432e-13
1.19628e-13
1.19598e-13
1.18904e-13
1.18563e-13
1.19293e-13
1.18728e-13
1.18695e-13
1.19388e-13
1.18646e-13
1.1891e-13
1.19532e-13
1.19143e-13
1.18862e-13
1.18743e-13
1.17846e-13
1.18414e-13
1.18891e-13
1.18337e-13
1.18267e-13
1.17916e-13
1.17196e-13
1.171e-13
1.17085e-13
1.16198e-13
1.16633e-13
1.16848e-13
1.16017e-13
1.15997e-13
1.15773e-13
1.15171e-13
1.1512e-13
1.15396e-13
1.14724e-13
1.145e-13
1.1485e-13
1.14607e-13
1.14325e-13
1.14029e-13
1.13833e-13
1.13272e-13
1.12954e-13
1.13356e-13
1.13256e-13
1.12673e-13
1.12331e-13
1.12378e-13
1.12026e-13
1.11395e-13
1.10715e-13
1.10437e-13
1.10919e-13
1.10435e-13
1.09644e-13
1.09524e-13
1.08793e-13
1.08361e-13
1.08481e-13
1.0784e-13
1.07516e-13
1.07558e-13
1.07252e-13
1.07191e-13
1.06409e-13
1.06012e-13
1.05834e-13
1.05585e-13
1.05849e-13
1.06106e-13
1.05665e-13
1.05387e-13
1.05795e-13
1.053e-13
1.04945e-13
1.04823e-13
1.04626e-13
1.04897e-13
1.0492e-13
1.04275e-13
1.03864e-13
1.03679e-13
1.03142e-13
1.03544e-13
1.02928e-13
1.02152e-13
1.02642e-13
1.02501e-13
1.01882e-13
1.0137e-13
1.00854e-13
9.99859e-14
1.00093e-13
1.00179e-13
9.954e-14
9.91243e-14
9.85931e-14
9.8296e-14
9.7772e-14
9.74463e-14
9.67768e-14
9.68937e-14
9.6926e-14
9.64481e-14
9.59431e-14
9.57494e-14
9.58053e-14
9.46293e-14
9.48316e-14
9.43896e-14
9.32025e-14
9.29423e-14
9.28569e-14
9.19475e-14
9.12734e-14
9.10533e-14
8.95311e-14
8.9412e-14
8.95498e-14
8.83777e-14
8.75624e-14
8.68171e-14
8.55645e-14
8.47483e-14
8.54204e-14
8.4842e-14
8.41733e-14
8.28185e-14
8.19269e-14
8.28242e-14
8.18435e-14
8.01327e-14
7.95643e-14
8.0603e-14
7.95774e-14
7.87979e-14
7.87904e-14
7.83588e-14
7.8385e-14
7.72055e-14
7.66313e-14
7.66516e-14
7.71144e-14
7.64344e-14
7.53213e-14
7.55932e-14
7.5744e-14
7.5357e-14
7.45491e-14
7.42493e-14
7.37824e-14
7.35612e-14
7.26137e-14
7.105e-14
7.11245e-14
7.15215e-14
7.00847e-14
6.79157e-14
6.85081e-14
6.82121e-14
6.76441e-14
6.71442e-14
6.58082e-14
6.578e-14
6.51534e-14
6.38396e-14
6.25364e-14
6.20788e-14
6.15599e-14
6.04874e-14
5.96646e-14
5.839e-14
5.80998e-14
5.72151e-14
5.60354e-14
5.5119e-14
5.47423e-14
5.40801e-14
5.32191e-14
5.29617e-14
5.26413e-14
5.31454e-14
5.15857e-14
5.04425e-14
5.05922e-14
5.07371e-14
5.07473e-14
4.97016e-14
4.97023e-14
4.96268e-14
4.92263e-14
4.89956e-14
4.88141e-14
4.8311e-14
4.81575e-14
4.84617e-14
4.82538e-14
4.82511e-14
4.86309e-14
4.90185e-14
4.81626e-14
4.83175e-14
4.8544e-14
4.83091e-14
4.85227e-14
4.83972e-14
4.86875e-14
4.80575e-14
4.77748e-14
4.74059e-14
4.73005e-14
4.78552e-14
4.7031e-14
4.59793e-14
4.58583e-14
4.56015e-14
4.45783e-14
4.36694e-14
4.22701e-14
4.07599e-14
3.89664e-14
3.52452e-14
3.40412e-14
3.55823e-14
3.69932e-14
3.77065e-14
3.81587e-14
3.83271e-14
3.84418e-14
3.86056e-14
3.85024e-14
3.84036e-14
3.83476e-14
3.80492e-14
3.78713e-14
3.75777e-14
3.72541e-14
3.71627e-14
3.7133e-14
3.69164e-14
3.66254e-14
3.63593e-14
3.58359e-14
3.53508e-14
3.51934e-14
3.49512e-14
3.47938e-14
3.46017e-14
3.43918e-14
3.43389e-14
3.42811e-14
3.41384e-14
3.41276e-14
3.4036e-14
3.39105e-14
3.37458e-14
3.34486e-14
3.31782e-14
3.32494e-14
3.3167e-14
3.29851e-14
3.30572e-14
3.30348e-14
3.29136e-14
3.27733e-14
3.26899e-14
3.25328e-14
3.24195e-14
3.23923e-14
3.24094e-14
3.2349e-14
3.23486e-14
3.24674e-14
3.28123e-14
3.30716e-14
3.33459e-14
3.3721e-14
3.40165e-14
3.42401e-14
3.45829e-14
3.51305e-14
3.546e-14
3.59216e-14
3.61724e-14
3.66883e-14
3.74138e-14
3.78447e-14
3.8371e-14
3.88909e-14
3.94645e-14
4.01008e-14
4.06604e-14
4.12699e-14
4.19307e-14
4.2615e-14
4.32184e-14
4.36961e-14
4.43066e-14
4.48677e-14
4.56089e-14
4.61257e-14
4.65171e-14
4.70773e-14
4.78377e-14
4.8445e-14
4.91289e-14
4.97622e-14
5.05788e-14
5.12133e-14
5.19515e-14
5.28259e-14
5.34076e-14
5.37809e-14
5.46906e-14
5.53121e-14
5.59119e-14
5.64537e-14
5.7135e-14
5.76866e-14
5.81402e-14
5.88282e-14
5.93684e-14
5.97191e-14
6.02135e-14
6.08691e-14
6.14317e-14
6.18415e-14
6.21299e-14
6.28146e-14
6.30971e-14
6.29279e-14
6.33302e-14
6.38691e-14
6.4302e-14
6.47143e-14
6.50488e-14
6.54667e-14
6.61e-14
6.65775e-14
6.71543e-14
6.7903e-14
6.89816e-14
6.99357e-14
7.07173e-14
7.15846e-14
7.23856e-14
7.32564e-14
7.42784e-14
7.5128e-14
7.61579e-14
7.69661e-14
7.77052e-14
7.84885e-14
7.93939e-14
8.02917e-14
8.11979e-14
8.19457e-14
8.26031e-14
8.33136e-14
8.39171e-14
8.46215e-14
8.53775e-14
8.60654e-14
8.6756e-14
8.70858e-14
8.76859e-14
8.85773e-14
8.90217e-14
8.9585e-14
9.06481e-14
9.11232e-14
9.15721e-14
9.22046e-14
9.25549e-14
9.31235e-14
9.39167e-14
9.43106e-14
9.4711e-14
9.51805e-14
9.53563e-14
9.55919e-14
9.56117e-14
9.5991e-14
9.63868e-14
9.67589e-14
9.6882e-14
9.71482e-14
9.76821e-14
9.80306e-14
9.84498e-14
9.86206e-14
9.89913e-14
9.95721e-14
1.00131e-13
1.00406e-13
1.00655e-13
1.01401e-13
1.01735e-13
1.02255e-13
1.03051e-13
1.03444e-13
1.03657e-13
1.04474e-13
1.05174e-13
1.05661e-13
1.06348e-13
1.07175e-13
1.07788e-13
1.08355e-13
1.09162e-13
1.0959e-13
1.10219e-13
1.10886e-13
1.11194e-13
1.11378e-13
1.11647e-13
1.12397e-13
1.12849e-13
1.13268e-13
1.14103e-13
1.14644e-13
1.14677e-13
1.15165e-13
1.15652e-13
1.15601e-13
1.1583e-13
1.16014e-13
1.16375e-13
1.17273e-13
1.17824e-13
1.17809e-13
1.17974e-13
1.18487e-13
1.18703e-13
1.19002e-13
1.19421e-13
1.19842e-13
1.19781e-13
1.20157e-13
1.20398e-13
1.2049e-13
1.21097e-13
1.21575e-13
1.21878e-13
1.22405e-13
1.22668e-13
1.22943e-13
1.23316e-13
1.23427e-13
1.23577e-13
1.23575e-13
1.23908e-13
1.24147e-13
1.24529e-13
1.24985e-13
1.25106e-13
1.25432e-13
1.25628e-13
1.25719e-13
1.26139e-13
1.26341e-13
1.26684e-13
1.26677e-13
1.26787e-13
1.27026e-13
1.26649e-13
1.26839e-13
1.26768e-13
1.26808e-13
1.27034e-13
1.26766e-13
1.26484e-13
1.26798e-13
1.26568e-13
1.26358e-13
1.26142e-13
1.25921e-13
1.25957e-13
1.25508e-13
1.25265e-13
1.25059e-13
1.2497e-13
1.24297e-13
1.23847e-13
1.23898e-13
1.23747e-13
1.23736e-13
1.23511e-13
1.22616e-13
1.22519e-13
1.22507e-13
1.21807e-13
1.21799e-13
1.21658e-13
1.21006e-13
1.21068e-13
1.21064e-13
1.20083e-13
1.202e-13
1.20102e-13
1.19408e-13
1.19276e-13
1.19489e-13
1.19502e-13
1.18883e-13
1.1866e-13
1.1921e-13
1.18872e-13
1.18684e-13
1.19328e-13
1.18742e-13
1.18906e-13
1.19511e-13
1.19246e-13
1.18671e-13
1.18714e-13
1.18255e-13
1.18448e-13
1.18634e-13
1.18335e-13
1.18242e-13
1.17925e-13
1.17363e-13
1.16815e-13
1.17182e-13
1.1663e-13
1.16462e-13
1.16774e-13
1.16018e-13
1.15722e-13
1.15724e-13
1.15426e-13
1.14999e-13
1.1517e-13
1.14817e-13
1.14566e-13
1.14735e-13
1.14678e-13
1.14447e-13
1.13907e-13
1.13806e-13
1.13416e-13
1.13034e-13
1.13307e-13
1.12993e-13
1.12636e-13
1.12442e-13
1.12501e-13
1.11936e-13
1.11261e-13
1.10948e-13
1.1056e-13
1.10743e-13
1.10437e-13
1.09732e-13
1.09444e-13
1.09022e-13
1.08329e-13
1.08317e-13
1.08178e-13
1.0751e-13
1.07373e-13
1.07201e-13
1.07142e-13
1.06402e-13
1.06019e-13
1.06001e-13
1.05803e-13
1.05753e-13
1.05804e-13
1.0568e-13
1.05409e-13
1.057e-13
1.05348e-13
1.04964e-13
1.05039e-13
1.04762e-13
1.04742e-13
1.0468e-13
1.04156e-13
1.04184e-13
1.03732e-13
1.03056e-13
1.0347e-13
1.03007e-13
1.02351e-13
1.02525e-13
1.02434e-13
1.0176e-13
1.01442e-13
1.00841e-13
1.0033e-13
1.0024e-13
9.98678e-14
9.94005e-14
9.91437e-14
9.86053e-14
9.83048e-14
9.78612e-14
9.71819e-14
9.70364e-14
9.71467e-14
9.67297e-14
9.62264e-14
9.60381e-14
9.58719e-14
9.57394e-14
9.47768e-14
9.46238e-14
9.45148e-14
9.33531e-14
9.28179e-14
9.27955e-14
9.22182e-14
9.12072e-14
9.07087e-14
8.98822e-14
8.96253e-14
8.93542e-14
8.81773e-14
8.73412e-14
8.6764e-14
8.59088e-14
8.50619e-14
8.51399e-14
8.45519e-14
8.4106e-14
8.31028e-14
8.22121e-14
8.2382e-14
8.17096e-14
8.05358e-14
7.962e-14
8.01959e-14
7.98387e-14
7.89076e-14
7.87077e-14
7.84226e-14
7.81379e-14
7.7147e-14
7.69442e-14
7.67926e-14
7.67212e-14
7.63391e-14
7.55863e-14
7.5541e-14
7.57987e-14
7.53644e-14
7.43714e-14
7.44806e-14
7.39577e-14
7.32545e-14
7.26752e-14
7.14241e-14
7.09109e-14
7.11478e-14
7.01985e-14
6.83456e-14
6.85201e-14
6.82526e-14
6.74315e-14
6.69066e-14
6.62415e-14
6.55986e-14
6.49855e-14
6.38378e-14
6.26926e-14
6.228e-14
6.14215e-14
6.04348e-14
5.94176e-14
5.87469e-14
5.82084e-14
5.70299e-14
5.58326e-14
5.51679e-14
5.47615e-14
5.41541e-14
5.33123e-14
5.28513e-14
5.27726e-14
5.27695e-14
5.16378e-14
5.05409e-14
5.07962e-14
5.08168e-14
5.01392e-14
4.96699e-14
4.99366e-14
4.98624e-14
4.90378e-14
4.89016e-14
4.87079e-14
4.84525e-14
4.82439e-14
4.81764e-14
4.83758e-14
4.82585e-14
4.87889e-14
4.8816e-14
4.80273e-14
4.85374e-14
4.90023e-14
4.80737e-14
4.80664e-14
4.88268e-14
4.87433e-14
4.79546e-14
4.75845e-14
4.74494e-14
4.77355e-14
4.78392e-14
4.66491e-14
4.58301e-14
4.60417e-14
4.57809e-14
4.4723e-14
4.33594e-14
4.24623e-14
4.11642e-14
3.90711e-14
3.64018e-14
3.5886e-14
3.66224e-14
3.7417e-14
3.7816e-14
3.8163e-14
3.83417e-14
3.84331e-14
3.85314e-14
3.85004e-14
3.83882e-14
3.8346e-14
3.81357e-14
3.7853e-14
3.74975e-14
3.71903e-14
3.71346e-14
3.714e-14
3.68873e-14
3.66311e-14
3.6339e-14
3.58621e-14
3.54031e-14
3.51834e-14
3.49154e-14
3.46963e-14
3.46435e-14
3.43524e-14
3.43136e-14
3.43261e-14
3.41212e-14
3.4132e-14
3.40345e-14
3.39003e-14
3.36578e-14
3.34417e-14
3.32403e-14
3.32169e-14
3.31327e-14
3.29935e-14
3.30289e-14
3.30792e-14
3.29828e-14
3.28136e-14
3.26389e-14
3.25107e-14
3.24523e-14
3.24064e-14
3.23733e-14
3.23593e-14
3.23991e-14
3.24066e-14
3.27075e-14
3.30211e-14
3.32892e-14
3.36708e-14
3.40637e-14
3.43232e-14
3.45756e-14
3.50242e-14
3.54769e-14
3.58445e-14
3.61786e-14
3.66154e-14
3.73766e-14
3.78788e-14
3.83382e-14
3.8894e-14
3.94933e-14
4.01019e-14
4.06651e-14
4.12908e-14
4.19554e-14
4.26565e-14
4.31751e-14
4.35931e-14
4.44244e-14
4.4943e-14
4.55583e-14
4.60957e-14
4.65268e-14
4.71331e-14
4.78135e-14
4.84117e-14
4.91039e-14
4.9751e-14
5.0501e-14
5.11688e-14
5.20292e-14
5.28559e-14
5.33456e-14
5.37929e-14
5.47394e-14
5.53375e-14
5.59649e-14
5.64479e-14
5.70446e-14
5.77026e-14
5.83117e-14
5.87961e-14
5.92698e-14
5.97379e-14
6.02622e-14
6.08551e-14
6.13725e-14
6.17503e-14
6.21417e-14
6.28729e-14
6.30556e-14
6.2985e-14
6.34514e-14
6.38308e-14
6.43457e-14
6.46619e-14
6.51711e-14
6.54638e-14
6.58475e-14
6.64674e-14
6.7236e-14
6.79401e-14
6.89035e-14
6.98138e-14
7.07378e-14
7.1718e-14
7.23729e-14
7.32928e-14
7.4268e-14
7.50274e-14
7.62001e-14
7.70835e-14
7.7657e-14
7.8566e-14
7.93833e-14
8.02626e-14
8.11705e-14
8.19711e-14
8.26525e-14
8.32323e-14
8.38557e-14
8.46504e-14
8.54822e-14
8.60718e-14
8.66656e-14
8.71788e-14
8.78388e-14
8.84887e-14
8.89806e-14
8.97706e-14
9.06732e-14
9.10064e-14
9.16514e-14
9.21939e-14
9.25463e-14
9.32129e-14
9.39189e-14
9.43118e-14
9.47807e-14
9.51698e-14
9.52814e-14
9.55647e-14
9.56282e-14
9.59363e-14
9.63678e-14
9.67969e-14
9.67957e-14
9.71977e-14
9.76973e-14
9.79327e-14
9.83835e-14
9.86431e-14
9.89908e-14
9.95923e-14
1.00059e-13
1.00386e-13
1.00749e-13
1.01241e-13
1.01734e-13
1.02361e-13
1.02942e-13
1.03436e-13
1.03773e-13
1.04457e-13
1.05123e-13
1.05606e-13
1.06229e-13
1.07276e-13
1.07845e-13
1.08411e-13
1.09177e-13
1.09698e-13
1.10167e-13
1.10787e-13
1.11111e-13
1.11421e-13
1.11815e-13
1.12358e-13
1.12937e-13
1.13347e-13
1.13881e-13
1.14605e-13
1.14775e-13
1.15158e-13
1.15606e-13
1.15793e-13
1.1584e-13
1.16014e-13
1.16507e-13
1.17088e-13
1.17621e-13
1.17844e-13
1.18099e-13
1.18456e-13
1.18799e-13
1.18995e-13
1.19467e-13
1.1969e-13
1.19675e-13
1.20058e-13
1.2046e-13
1.20703e-13
1.21066e-13
1.21394e-13
1.21816e-13
1.22441e-13
1.22725e-13
1.23018e-13
1.23172e-13
1.23468e-13
1.23848e-13
1.23632e-13
1.23673e-13
1.24124e-13
1.24549e-13
1.24855e-13
1.25124e-13
1.2542e-13
1.25759e-13
1.25886e-13
1.26021e-13
1.26302e-13
1.26779e-13
1.2657e-13
1.26749e-13
1.2697e-13
1.26805e-13
1.26944e-13
1.26665e-13
1.26846e-13
1.27085e-13
1.2684e-13
1.2659e-13
1.26762e-13
1.26422e-13
1.26476e-13
1.26143e-13
1.25769e-13
1.26004e-13
1.2566e-13
1.25184e-13
1.24968e-13
1.24871e-13
1.24453e-13
1.23999e-13
1.2386e-13
1.23695e-13
1.23518e-13
1.23296e-13
1.22866e-13
1.22479e-13
1.22445e-13
1.22037e-13
1.21662e-13
1.21432e-13
1.21073e-13
1.2109e-13
1.21026e-13
1.20133e-13
1.20178e-13
1.20115e-13
1.19422e-13
1.19404e-13
1.194e-13
1.1926e-13
1.18976e-13
1.18755e-13
1.18991e-13
1.18964e-13
1.18895e-13
1.19204e-13
1.18907e-13
1.18795e-13
1.19303e-13
1.19302e-13
1.18724e-13
1.18773e-13
1.18588e-13
1.18297e-13
1.18545e-13
1.18524e-13
1.18096e-13
1.17898e-13
1.17411e-13
1.16857e-13
1.17252e-13
1.16873e-13
1.16391e-13
1.16647e-13
1.1602e-13
1.15527e-13
1.15783e-13
1.15433e-13
1.14845e-13
1.15063e-13
1.15003e-13
1.14539e-13
1.14722e-13
1.14636e-13
1.144e-13
1.13989e-13
1.13762e-13
1.13497e-13
1.13115e-13
1.13214e-13
1.12958e-13
1.12717e-13
1.12441e-13
1.12393e-13
1.11873e-13
1.11259e-13
1.11062e-13
1.10639e-13
1.10588e-13
1.10298e-13
1.09806e-13
1.09419e-13
1.09011e-13
1.08296e-13
1.08514e-13
1.08245e-13
1.07441e-13
1.0753e-13
1.07086e-13
1.0686e-13
1.06603e-13
1.0597e-13
1.05905e-13
1.06004e-13
1.0569e-13
1.05685e-13
1.05851e-13
1.05372e-13
1.05405e-13
1.05582e-13
1.05045e-13
1.04954e-13
1.04846e-13
1.04582e-13
1.04587e-13
1.04329e-13
1.04237e-13
1.03684e-13
1.03151e-13
1.03433e-13
1.02999e-13
1.0253e-13
1.02582e-13
1.02324e-13
1.01695e-13
1.01584e-13
1.00839e-13
1.00287e-13
1.00252e-13
9.97118e-14
9.95513e-14
9.92467e-14
9.84786e-14
9.8224e-14
9.80233e-14
9.72126e-14
9.71708e-14
9.70834e-14
9.64855e-14
9.62181e-14
9.62905e-14
9.58821e-14
9.5554e-14
9.5134e-14
9.46571e-14
9.42361e-14
9.35497e-14
9.30536e-14
9.25384e-14
9.21536e-14
9.15153e-14
9.06376e-14
9.01042e-14
8.95488e-14
8.89079e-14
8.82981e-14
8.74473e-14
8.67188e-14
8.60289e-14
8.52751e-14
8.48913e-14
8.45046e-14
8.38723e-14
8.31918e-14
8.25305e-14
8.20818e-14
8.13973e-14
8.09669e-14
7.99619e-14
7.98121e-14
7.98565e-14
7.89543e-14
7.86366e-14
7.83691e-14
7.79526e-14
7.73581e-14
7.71359e-14
7.68956e-14
7.64265e-14
7.62343e-14
7.58194e-14
7.56087e-14
7.57652e-14
7.52997e-14
7.44383e-14
7.45721e-14
7.40886e-14
7.30555e-14
7.26268e-14
7.18327e-14
7.08142e-14
7.06062e-14
7.01634e-14
6.9041e-14
6.87216e-14
6.81452e-14
6.71675e-14
6.68491e-14
6.63782e-14
6.54641e-14
6.4726e-14
6.38507e-14
6.31832e-14
6.22862e-14
6.11797e-14
6.05533e-14
5.95508e-14
5.8875e-14
5.79383e-14
5.66953e-14
5.60123e-14
5.54164e-14
5.45303e-14
5.40457e-14
5.35623e-14
5.29239e-14
5.27811e-14
5.22936e-14
5.15823e-14
5.10463e-14
5.09061e-14
5.03994e-14
4.98997e-14
4.99796e-14
4.98458e-14
4.97407e-14
4.91293e-14
4.88874e-14
4.86479e-14
4.85322e-14
4.83028e-14
4.81215e-14
4.84801e-14
4.82204e-14
4.84299e-14
4.87127e-14
4.85038e-14
4.85418e-14
4.90005e-14
4.8143e-14
4.79584e-14
4.88534e-14
4.85905e-14
4.78256e-14
4.76477e-14
4.78723e-14
4.78109e-14
4.76454e-14
4.6594e-14
4.59545e-14
4.58162e-14
4.57741e-14
4.47931e-14
4.32452e-14
4.27174e-14
4.14273e-14
3.94337e-14
3.74202e-14
3.71632e-14
3.74349e-14
3.78161e-14
3.79828e-14
3.81936e-14
3.83806e-14
3.84904e-14
3.84645e-14
3.84713e-14
3.84379e-14
3.84318e-14
3.81889e-14
3.78355e-14
3.74011e-14
3.70615e-14
3.71e-14
3.71471e-14
3.6829e-14
3.66523e-14
3.64789e-14
3.59175e-14
3.54275e-14
3.50895e-14
3.48574e-14
3.45721e-14
3.46675e-14
3.4225e-14
3.43623e-14
3.42946e-14
3.41158e-14
3.41455e-14
3.39987e-14
3.38378e-14
3.37085e-14
3.34228e-14
3.32292e-14
3.32648e-14
3.30816e-14
3.29507e-14
3.31073e-14
3.31227e-14
3.30506e-14
3.28796e-14
3.2576e-14
3.24563e-14
3.24785e-14
3.24338e-14
3.2284e-14
3.24323e-14
3.23653e-14
3.22828e-14
3.26432e-14
3.29927e-14
3.32618e-14
3.36044e-14
3.39952e-14
3.44136e-14
3.45947e-14
3.50612e-14
3.54159e-14
3.5744e-14
3.612e-14
3.65557e-14
3.74175e-14
3.78569e-14
3.8322e-14
3.89086e-14
3.95101e-14
4.00858e-14
4.06927e-14
4.12278e-14
4.19502e-14
4.26922e-14
4.31552e-14
4.34685e-14
4.44854e-14
4.49406e-14
4.56237e-14
4.60973e-14
4.64918e-14
4.71653e-14
4.77552e-14
4.84089e-14
4.90358e-14
4.97545e-14
5.04849e-14
5.11783e-14
5.20208e-14
5.28845e-14
5.33795e-14
5.37938e-14
5.46974e-14
5.52903e-14
5.60145e-14
5.63933e-14
5.70306e-14
5.77167e-14
5.84167e-14
5.87374e-14
5.91907e-14
5.97707e-14
6.03686e-14
6.09428e-14
6.13595e-14
6.17461e-14
6.2072e-14
6.28158e-14
6.30555e-14
6.3142e-14
6.34424e-14
6.38163e-14
6.44009e-14
6.46254e-14
6.51613e-14
6.53597e-14
6.57249e-14
6.64416e-14
6.72555e-14
6.79554e-14
6.88126e-14
6.97391e-14
7.07034e-14
7.17254e-14
7.24162e-14
7.33093e-14
7.419e-14
7.50256e-14
7.63204e-14
7.71277e-14
7.76211e-14
7.85487e-14
7.94555e-14
8.03116e-14
8.10983e-14
8.19357e-14
8.27296e-14
8.31223e-14
8.38333e-14
8.47018e-14
8.55127e-14
8.61281e-14
8.66051e-14
8.72614e-14
8.79178e-14
8.83364e-14
8.9004e-14
9.00076e-14
9.05989e-14
9.08695e-14
9.1758e-14
9.21963e-14
9.25089e-14
9.32645e-14
9.39598e-14
9.42877e-14
9.48728e-14
9.52308e-14
9.52354e-14
9.549e-14
9.56579e-14
9.59491e-14
9.6355e-14
9.66929e-14
9.66772e-14
9.7218e-14
9.77122e-14
9.79137e-14
9.82254e-14
9.85961e-14
9.9203e-14
9.96087e-14
1.00042e-13
1.0035e-13
1.00683e-13
1.01167e-13
1.0178e-13
1.02188e-13
1.02792e-13
1.03484e-13
1.0392e-13
1.04509e-13
1.05062e-13
1.05643e-13
1.06187e-13
1.07221e-13
1.07834e-13
1.08599e-13
1.09214e-13
1.09753e-13
1.10177e-13
1.10563e-13
1.11042e-13
1.1148e-13
1.11921e-13
1.12379e-13
1.13073e-13
1.13388e-13
1.13696e-13
1.14593e-13
1.14933e-13
1.15133e-13
1.15461e-13
1.15891e-13
1.15918e-13
1.16039e-13
1.16596e-13
1.16979e-13
1.17517e-13
1.17946e-13
1.18054e-13
1.1842e-13
1.18791e-13
1.19018e-13
1.19625e-13
1.19516e-13
1.19569e-13
1.19932e-13
1.20569e-13
1.2086e-13
1.21105e-13
1.21188e-13
1.21768e-13
1.2246e-13
1.22786e-13
1.23086e-13
1.23017e-13
1.2365e-13
1.23898e-13
1.23739e-13
1.23493e-13
1.2417e-13
1.24555e-13
1.24839e-13
1.25064e-13
1.25279e-13
1.25921e-13
1.26151e-13
1.25855e-13
1.26207e-13
1.26938e-13
1.26586e-13
1.2677e-13
1.26875e-13
1.26985e-13
1.26937e-13
1.26671e-13
1.26835e-13
1.27014e-13
1.26958e-13
1.26819e-13
1.26672e-13
1.26334e-13
1.26497e-13
1.26231e-13
1.25783e-13
1.25865e-13
1.25787e-13
1.25096e-13
1.24913e-13
1.2465e-13
1.24675e-13
1.24207e-13
1.23721e-13
1.23684e-13
1.23517e-13
1.2309e-13
1.23032e-13
1.22602e-13
1.22364e-13
1.22203e-13
1.21354e-13
1.2119e-13
1.21428e-13
1.20936e-13
1.20701e-13
1.20505e-13
1.20271e-13
1.19826e-13
1.19442e-13
1.19541e-13
1.19284e-13
1.1901e-13
1.19289e-13
1.18876e-13
1.18583e-13
1.19083e-13
1.19194e-13
1.19001e-13
1.19098e-13
1.18824e-13
1.18951e-13
1.1932e-13
1.19018e-13
1.18773e-13
1.18769e-13
1.18198e-13
1.1848e-13
1.18743e-13
1.1794e-13
1.1777e-13
1.17614e-13
1.17007e-13
1.17224e-13
1.17077e-13
1.16299e-13
1.16446e-13
1.16216e-13
1.15273e-13
1.15736e-13
1.1552e-13
1.14643e-13
1.14909e-13
1.15177e-13
1.14473e-13
1.14855e-13
1.14665e-13
1.14088e-13
1.1397e-13
1.13903e-13
1.13711e-13
1.13084e-13
1.13167e-13
1.13083e-13
1.12706e-13
1.12425e-13
1.12089e-13
1.11698e-13
1.1141e-13
1.11324e-13
1.10609e-13
1.10309e-13
1.10274e-13
1.09835e-13
1.09241e-13
1.09025e-13
1.08507e-13
1.08525e-13
1.0831e-13
1.07441e-13
1.07683e-13
1.07101e-13
1.06654e-13
1.06617e-13
1.06094e-13
1.0596e-13
1.05895e-13
1.05711e-13
1.0582e-13
1.0583e-13
1.0531e-13
1.0521e-13
1.05602e-13
1.05228e-13
1.04949e-13
1.04686e-13
1.04628e-13
1.04532e-13
1.04432e-13
1.04053e-13
1.03815e-13
1.03419e-13
1.03311e-13
1.0297e-13
1.02728e-13
1.02574e-13
1.02352e-13
1.01621e-13
1.01586e-13
1.01018e-13
1.00168e-13
1.00092e-13
9.9695e-14
9.97316e-14
9.92763e-14
9.86233e-14
9.80464e-14
9.79925e-14
9.75643e-14
9.71224e-14
9.67773e-14
9.63721e-14
9.63768e-14
9.62883e-14
9.58762e-14
9.54888e-14
9.54259e-14
9.48767e-14
9.3985e-14
9.36396e-14
9.33862e-14
9.23098e-14
9.1795e-14
9.185e-14
9.08922e-14
9.00772e-14
8.94385e-14
8.85082e-14
8.8333e-14
8.77079e-14
8.68562e-14
8.59918e-14
8.53235e-14
8.47924e-14
8.44974e-14
8.36313e-14
8.33437e-14
8.25459e-14
8.18605e-14
8.14121e-14
8.11995e-14
8.02842e-14
7.96356e-14
7.97195e-14
7.86804e-14
7.86613e-14
7.83998e-14
7.78785e-14
7.75101e-14
7.74019e-14
7.68403e-14
7.59967e-14
7.63018e-14
7.6207e-14
7.5597e-14
7.53352e-14
7.54104e-14
7.48867e-14
7.44089e-14
7.40257e-14
7.31677e-14
7.25222e-14
7.209e-14
7.07811e-14
7.0039e-14
7.02823e-14
6.98061e-14
6.87844e-14
6.79073e-14
6.7047e-14
6.70118e-14
6.64871e-14
6.52932e-14
6.44528e-14
6.39112e-14
6.36828e-14
6.20609e-14
6.08799e-14
6.08111e-14
5.99804e-14
5.86453e-14