/*--------------------------------*- C++ -*----------------------------------*\
| =========                 |                                                 |
| \\      /  F ield         | OpenFOAM: The Open Source CFD Toolbox           |
|  \\    /   O peration     | Version:  2112                                  |
|   \\  /    A nd           | Website:  www.openfoam.com                      |
|    \\/     M anipulation  |                                                 |
\*---------------------------------------------------------------------------*/
FoamFile
{
    version     2.0;
    format      ascii;
    arch        "LSB;label=32;scalar=64";
    class       surfaceScalarField;
    location    "4";
    object      phi;
}
// * * * * * * * * * * * * * * * * * * * * * * * * * * * * * * * * * * * * * //

dimensions      [0 3 -1 0 0 0 0];

oriented        oriented;

internalField   nonuniform List<scalar> 
50800
(
2.34419e-05
-3.78206e-18
2.34419e-05
-6.64135e-19
2.34419e-05
-1.25505e-19
2.34419e-05
-5.99921e-20
2.34419e-05
-4.5936e-21
2.34419e-05
-7.27872e-22
2.34419e-05
-1.02528e-20
2.34419e-05
-8.09172e-21
2.34419e-05
-1.44799e-20
2.34419e-05
-1.48943e-20
2.34419e-05
-1.29001e-21
2.34419e-05
-1.05752e-20
2.34419e-05
9.67899e-22
2.34419e-05
4.17842e-21
2.34419e-05
-5.41012e-21
2.34419e-05
2.28383e-20
2.34419e-05
1.15763e-20
2.34419e-05
-9.09206e-22
2.34419e-05
-1.2558e-21
2.34419e-05
-4.53224e-21
2.34419e-05
1.11036e-20
2.34419e-05
1.03486e-20
2.34419e-05
3.37626e-21
2.34419e-05
-4.43112e-22
2.34419e-05
-1.79604e-20
2.34419e-05
-1.21756e-20
2.34419e-05
3.10387e-20
2.34419e-05
5.16088e-21
2.34419e-05
-1.24875e-20
2.34419e-05
-4.34296e-21
2.34419e-05
1.78364e-20
2.34419e-05
3.30251e-20
2.34419e-05
6.45748e-21
2.34419e-05
-1.38365e-20
2.34419e-05
-1.52083e-20
2.34419e-05
-1.76881e-20
2.34419e-05
2.54712e-20
2.34419e-05
-1.96842e-20
2.34419e-05
-3.6245e-20
2.34419e-05
1.91274e-20
2.34419e-05
5.20476e-21
2.34419e-05
4.85246e-21
2.34419e-05
7.15996e-21
2.34419e-05
-2.45715e-20
2.34419e-05
1.32207e-20
2.34419e-05
-4.0901e-21
2.34419e-05
1.69001e-20
2.34419e-05
1.40293e-20
2.34419e-05
-4.14896e-21
2.34419e-05
1.13377e-20
2.34419e-05
-3.12252e-20
2.34419e-05
1.59754e-20
2.34419e-05
-4.30883e-22
2.34419e-05
6.32111e-21
2.34419e-05
4.6925e-20
2.34419e-05
-2.43446e-20
2.34419e-05
4.78572e-22
2.34419e-05
-5.18855e-21
2.34419e-05
4.73289e-22
2.34419e-05
3.4126e-20
2.34419e-05
-6.52115e-20
2.34419e-05
3.32162e-20
2.34419e-05
-1.10303e-22
2.34419e-05
-8.40893e-21
2.34419e-05
3.67448e-20
2.34419e-05
-4.30264e-20
2.34419e-05
2.95126e-21
2.34419e-05
-7.91751e-23
2.34419e-05
5.88759e-21
2.34419e-05
2.76338e-20
2.34419e-05
-2.47847e-20
2.34419e-05
-1.91796e-21
2.34419e-05
-2.07171e-20
2.34419e-05
-5.31357e-21
2.34419e-05
5.97495e-20
2.34419e-05
-3.71361e-20
2.34419e-05
-5.7355e-20
2.34419e-05
2.90793e-20
2.34419e-05
-1.46782e-20
2.34419e-05
4.05457e-20
2.34419e-05
-1.98607e-20
2.34419e-05
-6.76548e-20
2.34419e-05
-1.31007e-22
2.34419e-05
5.75742e-21
2.34419e-05
2.42607e-20
2.34419e-05
-9.78432e-21
2.34419e-05
-2.98715e-20
2.34419e-05
-2.86838e-20
2.34419e-05
8.98472e-21
2.34419e-05
7.4408e-20
2.34419e-05
-1.82126e-20
2.34419e-05
-5.09459e-20
2.34419e-05
1.07163e-20
2.34419e-05
4.21795e-20
2.34419e-05
2.14986e-21
2.34419e-05
-7.2259e-20
2.34419e-05
-3.59365e-21
2.34419e-05
-1.91628e-20
2.34419e-05
3.18528e-20
2.34419e-05
3.90714e-20
2.34419e-05
-5.58562e-20
2.34419e-05
2.46677e-20
2.34419e-05
-4.4242e-20
2.34419e-05
6.58903e-21
2.34419e-05
3.86642e-20
2.34419e-05
9.65637e-21
2.34419e-05
-6.21859e-20
2.34419e-05
-2.3152e-20
2.34419e-05
6.07458e-20
2.34419e-05
3.75302e-20
2.34419e-05
5.1921e-20
2.34419e-05
-1.42046e-19
2.34419e-05
2.25499e-20
2.34419e-05
1.08096e-19
2.34419e-05
2.31915e-20
2.34419e-05
3.64e-21
2.34419e-05
-1.07614e-19
2.34419e-05
-1.84234e-20
2.34419e-05
1.0415e-19
2.34419e-05
4.87419e-20
2.34419e-05
-3.92552e-20
2.34419e-05
-1.07832e-19
2.34419e-05
-2.23263e-20
2.34419e-05
1.22367e-19
2.34419e-05
7.21829e-20
2.34419e-05
-3.99946e-20
2.34419e-05
-1.31214e-19
2.34419e-05
1.83393e-21
2.34419e-05
1.34927e-19
2.34419e-05
1.37117e-20
2.34419e-05
-2.658e-20
2.34419e-05
-8.43907e-20
2.34419e-05
6.16142e-21
2.34419e-05
8.92838e-20
2.34419e-05
1.66996e-20
2.34419e-05
-6.77395e-22
2.34419e-05
-6.91044e-20
2.34419e-05
2.08576e-21
2.34419e-05
1.04544e-19
2.34419e-05
1.27462e-20
2.34419e-05
-3.41888e-20
2.34419e-05
-8.82878e-20
2.34419e-05
2.03141e-20
2.34419e-05
6.02046e-20
2.34419e-05
-8.50489e-21
2.34419e-05
9.37842e-21
2.34419e-05
-6.36996e-20
2.34419e-05
1.88801e-20
2.34419e-05
-1.6983e-21
2.34419e-05
4.30986e-23
2.34419e-05
7.23457e-20
2.34419e-05
-8.94081e-20
2.34419e-05
-7.04388e-20
2.34419e-05
4.61566e-20
2.34419e-05
3.56978e-20
2.34419e-05
4.39839e-20
2.34419e-05
-5.88913e-20
2.34419e-05
-7.03025e-20
2.34419e-05
2.72532e-20
2.34419e-05
2.21512e-20
2.34419e-05
8.62054e-20
2.34419e-05
-9.246e-20
2.34419e-05
-2.30176e-20
2.34419e-05
1.09826e-19
2.34419e-05
-8.88201e-20
2.34419e-05
4.80635e-20
2.34419e-05
-2.18589e-20
2.34419e-05
-7.70339e-20
2.34419e-05
5.96208e-20
2.34419e-05
2.29144e-22
2.34419e-05
1.51302e-20
2.34419e-05
-9.23225e-20
2.34419e-05
1.38754e-21
2.34419e-05
6.10842e-20
2.34419e-05
-3.62463e-21
2.34419e-05
-1.0994e-20
2.34419e-05
-6.81103e-20
2.34419e-05
9.00552e-20
2.34419e-05
-3.20973e-20
2.34419e-05
-1.0323e-20
2.34419e-05
1.14485e-19
2.34419e-05
-1.4873e-19
2.34419e-05
-6.68331e-21
2.34419e-05
7.22156e-20
2.34419e-05
-1.73465e-20
2.34419e-05
1.23516e-19
2.34419e-05
-9.01527e-20
2.34419e-05
-1.2387e-20
2.34419e-05
1.13523e-19
2.34419e-05
-8.42549e-20
2.34419e-05
2.38976e-20
2.34419e-05
-1.34858e-20
2.34419e-05
-7.31879e-20
2.34419e-05
1.06872e-19
2.34419e-05
-1.29959e-20
2.34419e-05
2.87913e-20
2.34419e-05
-5.75055e-20
2.34419e-05
-4.2869e-20
2.34419e-05
1.32938e-19
2.34419e-05
-7.22575e-20
2.34419e-05
1.29359e-20
2.34419e-05
-5.41736e-20
2.34419e-05
7.62751e-21
2.34419e-05
1.56094e-19
2.34419e-05
-4.44167e-20
2.34419e-05
-5.61149e-20
2.34419e-05
-6.51587e-20
2.34419e-05
4.649e-20
2.34419e-05
7.3082e-20
2.34419e-05
-2.82459e-20
2.34419e-05
-5.19482e-20
2.34419e-05
-9.87217e-20
2.34419e-05
2.2424e-19
2.34419e-05
1.65728e-20
2.34419e-05
-2.2456e-19
2.34419e-05
1.6278e-19
2.34419e-05
-2.24441e-20
2.34419e-05
-4.75416e-20
2.34419e-05
-2.8015e-20
2.34419e-05
-1.39808e-19
2.34419e-05
2.1329e-19
2.34419e-05
4.41284e-20
2.34419e-05
-8.35356e-20
2.34419e-05
-3.37931e-20
2.34419e-05
-1.56909e-19
2.34419e-05
2.26414e-19
2.34419e-05
1.15532e-20
2.34419e-05
-7.52081e-20
2.34419e-05
5.64155e-20
2.34419e-05
-1.31847e-19
2.34419e-05
1.26118e-19
2.34419e-05
-5.17942e-20
2.34419e-05
-5.84196e-20
2.34419e-05
7.9368e-20
2.34419e-05
-1.72492e-19
2.34419e-05
5.96506e-20
2.34419e-05
-4.3075e-21
2.34419e-05
2.31846e-20
2.34419e-05
9.06103e-20
2.34419e-05
-1.80693e-19
2.34419e-05
1.07341e-19
2.34419e-05
-5.02941e-20
2.34419e-05
-8.27518e-21
2.34419e-05
1.06027e-19
2.34419e-05
-2.51308e-19
2.34419e-05
3.48896e-20
2.34419e-05
5.01523e-20
2.34419e-05
4.90909e-20
2.34419e-05
3.18695e-20
2.34419e-05
-1.9223e-19
2.34419e-05
1.93788e-19
2.34419e-05
1.95981e-20
2.34419e-05
-1.00167e-19
2.34419e-05
-1.84807e-20
2.34419e-05
-1.51779e-19
2.34419e-05
2.52742e-19
2.34419e-05
-1.36901e-20
2.34419e-05
-4.66695e-20
2.34419e-05
1.01293e-19
2.34419e-05
-2.02111e-19
2.34419e-05
9.98963e-20
2.34419e-05
2.37876e-20
2.34419e-05
-1.11602e-20
2.34419e-05
4.22388e-20
2.34419e-05
-1.23677e-19
2.34419e-05
1.49886e-19
2.34419e-05
2.06134e-20
2.34419e-05
-2.22401e-20
2.34419e-05
5.79143e-21
2.34419e-05
-1.61094e-19
2.34419e-05
9.58799e-20
2.34419e-05
9.84644e-21
2.34419e-05
2.60095e-20
2.34419e-05
3.5432e-20
2.34419e-05
-1.33898e-19
2.34419e-05
1.11432e-19
2.34419e-05
3.03289e-20
2.34419e-05
-2.85131e-20
2.34419e-05
1.06503e-19
2.34419e-05
-1.39661e-19
2.34419e-05
3.38476e-20
2.34419e-05
3.25948e-20
2.34419e-05
-1.41408e-20
2.34419e-05
3.4789e-20
2.34419e-05
-1.56679e-19
2.34419e-05
2.03943e-20
2.34419e-05
9.39547e-20
2.34419e-05
-2.19118e-20
2.34419e-05
-9.44116e-20
2.34419e-05
-1.15321e-19
2.34419e-05
1.4703e-19
2.34419e-05
4.09513e-20
2.34419e-05
-4.69387e-20
2.34419e-05
-4.51125e-20
2.34419e-05
-4.02938e-20
2.34419e-05
1.23647e-19
2.34419e-05
1.43319e-20
2.34419e-05
-1.51723e-20
2.34419e-05
-9.4043e-20
2.34419e-05
-6.32647e-20
2.34419e-05
1.34633e-19
2.34419e-05
2.72135e-20
2.34419e-05
4.97735e-20
2.34419e-05
-1.20927e-19
2.34419e-05
-1.21049e-19
2.34419e-05
7.88883e-20
2.34419e-05
6.52059e-21
2.34419e-05
9.14745e-20
2.34419e-05
-1.08891e-19
2.34419e-05
-2.81011e-21
2.34419e-05
5.60049e-20
2.34419e-05
-1.0954e-19
2.34419e-05
1.10005e-19
2.34419e-05
-2.16778e-20
2.34419e-05
-7.44756e-20
2.34419e-05
5.82964e-20
2.34419e-05
-9.50878e-20
2.34419e-05
5.67248e-20
2.34419e-05
-8.90305e-20
-7.37056e-19
6.91534e-05
-2.45756e-18
6.91534e-05
-8.56254e-19
6.91534e-05
-2.80753e-19
6.91534e-05
-1.18671e-19
6.91534e-05
-2.71064e-20
6.91534e-05
-1.36141e-21
6.91534e-05
-1.96253e-20
6.91534e-05
-1.57769e-20
6.91534e-05
-3.87574e-20
6.91534e-05
-4.04942e-20
6.91534e-05
-2.15643e-20
6.91534e-05
-2.9805e-20
6.91534e-05
2.43156e-20
6.91534e-05
1.75576e-20
6.91534e-05
-2.62792e-21
6.91534e-05
8.54718e-20
6.91534e-05
4.89984e-20
6.91534e-05
4.88402e-21
6.91534e-05
-1.63133e-20
6.91534e-05
-3.17407e-21
6.91534e-05
3.70783e-20
6.91534e-05
4.06403e-20
6.91534e-05
1.41834e-20
6.91534e-05
-1.21502e-20
6.91534e-05
-4.23499e-20
6.91534e-05
-2.45808e-20
6.91534e-05
5.91954e-20
6.91534e-05
2.77845e-20
6.91534e-05
-2.10243e-20
6.91534e-05
-3.18892e-21
6.91534e-05
5.43174e-20
6.91534e-05
9.51646e-20
6.91534e-05
1.57416e-20
6.91534e-05
-4.12472e-20
6.91534e-05
-4.82772e-20
6.91534e-05
-3.06131e-20
6.91534e-05
4.42217e-20
6.91534e-05
-4.2277e-20
6.91534e-05
-9.27217e-20
6.91534e-05
2.7111e-20
6.91534e-05
1.96996e-20
6.91534e-05
-3.57442e-21
6.91534e-05
1.68349e-20
6.91534e-05
-5.15931e-20
6.91534e-05
4.7807e-21
6.91534e-05
7.47955e-22
6.91534e-05
5.60244e-20
6.91534e-05
3.52406e-20
6.91534e-05
3.15117e-21
6.91534e-05
3.66656e-20
6.91534e-05
-4.54425e-20
6.91534e-05
2.08444e-20
6.91534e-05
1.37492e-20
6.91534e-05
2.26706e-20
6.91534e-05
1.07729e-19
6.91534e-05
-2.21347e-20
6.91534e-05
-1.64059e-21
6.91534e-05
-1.69456e-20
6.91534e-05
2.0849e-21
6.91534e-05
5.24677e-20
6.91534e-05
-1.50711e-19
6.91534e-05
6.45288e-20
6.91534e-05
4.92581e-21
6.91534e-05
-3.17166e-20
6.91534e-05
9.19071e-20
6.91534e-05
-9.38851e-20
6.91534e-05
-9.20846e-21
6.91534e-05
-2.33557e-20
6.91534e-05
2.6281e-20
6.91534e-05
8.51257e-20
6.91534e-05
-4.6617e-20
6.91534e-05
-3.2082e-20
6.91534e-05
-6.55168e-20
6.91534e-05
-1.12828e-20
6.91534e-05
1.46767e-19
6.91534e-05
-7.7788e-20
6.91534e-05
-1.10145e-19
6.91534e-05
2.35214e-20
6.91534e-05
-2.74133e-20
6.91534e-05
8.15118e-20
6.91534e-05
-4.36786e-20
6.91534e-05
-1.8683e-19
6.91534e-05
-5.15169e-21
6.91534e-05
1.66507e-20
6.91534e-05
4.342e-20
6.91534e-05
-3.63789e-20
6.91534e-05
-5.60389e-20
6.91534e-05
-7.18317e-20
6.91534e-05
-1.37906e-21
6.91534e-05
1.76281e-19
6.91534e-05
-2.98354e-20
6.91534e-05
-1.24472e-19
6.91534e-05
4.3199e-21
6.91534e-05
6.79481e-20
6.91534e-05
6.54135e-21
6.91534e-05
-1.57859e-19
6.91534e-05
-6.14402e-20
6.91534e-05
-3.38254e-20
6.91534e-05
4.07312e-20
6.91534e-05
7.53546e-20
6.91534e-05
-7.60805e-20
6.91534e-05
7.4767e-21
6.91534e-05
-9.17737e-20
6.91534e-05
-3.60377e-21
6.91534e-05
9.84135e-20
6.91534e-05
6.27914e-20
6.91534e-05
-1.43275e-19
6.91534e-05
-8.58074e-20
6.91534e-05
1.4077e-19
6.91534e-05
1.41438e-19
6.91534e-05
8.39643e-20
6.91534e-05
-2.75597e-19
6.91534e-05
2.26297e-20
6.91534e-05
2.4385e-19
6.91534e-05
1.12812e-19
6.91534e-05
-1.81687e-21
6.91534e-05
-2.60731e-19
6.91534e-05
-1.10757e-19
6.91534e-05
2.71251e-19
6.91534e-05
1.68892e-19
6.91534e-05
-1.24835e-19
6.91534e-05
-2.58339e-19
6.91534e-05
-4.90807e-20
6.91534e-05
2.99272e-19
6.91534e-05
2.19165e-19
6.91534e-05
-9.76412e-20
6.91534e-05
-3.23399e-19
6.91534e-05
2.09814e-20
6.91534e-05
2.94371e-19
6.91534e-05
5.39141e-20
6.91534e-05
-6.21606e-20
6.91534e-05
-1.6445e-19
6.91534e-05
-1.13741e-20
6.91534e-05
2.19912e-19
6.91534e-05
7.02588e-20
6.91534e-05
-9.79191e-21
6.91534e-05
-1.72711e-19
6.91534e-05
-1.38999e-20
6.91534e-05
2.77112e-19
6.91534e-05
6.76905e-20
6.91534e-05
-1.06986e-19
6.91534e-05
-1.86581e-19
6.91534e-05
1.77478e-20
6.91534e-05
1.1163e-19
6.91534e-05
-7.61893e-21
6.91534e-05
-1.31188e-21
6.91534e-05
-1.60012e-19
6.91534e-05
4.6476e-20
6.91534e-05
4.38943e-20
6.91534e-05
-3.24216e-20
6.91534e-05
1.35583e-19
6.91534e-05
-1.80019e-19
6.91534e-05
-1.54526e-19
6.91534e-05
9.22223e-20
6.91534e-05
1.03089e-19
6.91534e-05
8.07554e-20
6.91534e-05
-1.23863e-19
6.91534e-05
-1.86426e-19
6.91534e-05
2.41722e-20
6.91534e-05
1.06474e-19
6.91534e-05
1.72617e-19
6.91534e-05
-1.90159e-19
6.91534e-05
-3.58756e-20
6.91534e-05
2.12557e-19
6.91534e-05
-1.65526e-19
6.91534e-05
3.47035e-20
6.91534e-05
-4.96525e-20
6.91534e-05
-1.31328e-19
6.91534e-05
9.58104e-20
6.91534e-05
2.78917e-20
6.91534e-05
-3.65187e-20
6.91534e-05
-2.13257e-19
6.91534e-05
-1.01804e-21
6.91534e-05
1.61874e-19
6.91534e-05
3.45516e-20
6.91534e-05
-7.15801e-20
6.91534e-05
-1.25855e-19
6.91534e-05
1.27719e-19
6.91534e-05
-4.67666e-20
6.91534e-05
7.20579e-20
6.91534e-05
1.83131e-19
6.91534e-05
-3.06048e-19
6.91534e-05
-2.33932e-20
6.91534e-05
1.74401e-19
6.91534e-05
4.62228e-20
6.91534e-05
1.98127e-19
6.91534e-05
-1.41008e-19
6.91534e-05
-2.74575e-20
6.91534e-05
2.16457e-19
6.91534e-05
-1.03566e-19
6.91534e-05
-4.86115e-21
6.91534e-05
-4.69068e-20
6.91534e-05
-1.08707e-19
6.91534e-05
1.55614e-19
6.91534e-05
4.42804e-20
6.91534e-05
5.85454e-20
6.91534e-05
-9.31233e-20
6.91534e-05
-8.80927e-20
6.91534e-05
1.8436e-19
6.91534e-05
-4.53148e-20
6.91534e-05
2.79108e-21
6.91534e-05
-9.89865e-20
6.91534e-05
5.54186e-20
6.91534e-05
2.4946e-19
6.91534e-05
-2.86901e-20
6.91534e-05
-1.1199e-19
6.91534e-05
-1.57891e-19
6.91534e-05
7.66624e-20
6.91534e-05
1.05459e-19
6.91534e-05
-3.86428e-20
6.91534e-05
-8.03349e-20
6.91534e-05
-1.91231e-19
6.91534e-05
4.36497e-19
6.91534e-05
6.06768e-20
6.91534e-05
-4.22195e-19
6.91534e-05
2.57008e-19
6.91534e-05
-1.02217e-19
6.91534e-05
-5.11691e-20
6.91534e-05
-7.18842e-20
6.91534e-05
-3.21568e-19
6.91534e-05
4.47238e-19
6.91534e-05
9.41344e-20
6.91534e-05
-1.23069e-19
6.91534e-05
-9.61805e-20
6.91534e-05
-3.51727e-19
6.91534e-05
4.63469e-19
6.91534e-05
6.05233e-20
6.91534e-05
-1.41342e-19
6.91534e-05
7.51366e-20
6.91534e-05
-2.67684e-19
6.91534e-05
2.49731e-19
6.91534e-05
-9.17164e-20
6.91534e-05
-1.17408e-19
6.91534e-05
9.5779e-20
6.91534e-05
-3.82549e-19
6.91534e-05
7.94938e-20
6.91534e-05
-3.96045e-20
6.91534e-05
1.25959e-19
6.91534e-05
1.86198e-19
6.91534e-05
-3.97782e-19
6.91534e-05
1.55438e-19
6.91534e-05
-1.29422e-19
6.91534e-05
7.63993e-21
6.91534e-05
1.88753e-19
6.91534e-05
-5.80461e-19
6.91534e-05
7.12258e-20
6.91534e-05
9.79388e-20
6.91534e-05
1.22946e-19
6.91534e-05
6.15097e-20
6.91534e-05
-3.83349e-19
6.91534e-05
4.44321e-19
6.91534e-05
6.56292e-20
6.91534e-05
-2.55176e-19
6.91534e-05
-1.44274e-19
6.91534e-05
-3.06579e-19
6.91534e-05
6.22136e-19
6.91534e-05
1.71281e-20
6.91534e-05
-1.02492e-19
6.91534e-05
1.92368e-19
6.91534e-05
-4.19313e-19
6.91534e-05
1.81802e-19
6.91534e-05
5.53851e-20
6.91534e-05
3.6626e-20
6.91534e-05
7.59597e-20
6.91534e-05
-2.49728e-19
6.91534e-05
3.67312e-19
6.91534e-05
2.37808e-20
6.91534e-05
-1.42233e-20
6.91534e-05
2.09566e-20
6.91534e-05
-4.05182e-19
6.91534e-05
1.93881e-19
6.91534e-05
-4.28559e-21
6.91534e-05
1.01972e-19
6.91534e-05
6.93347e-20
6.91534e-05
-3.45977e-19
6.91534e-05
2.95977e-19
6.91534e-05
5.9719e-20
6.91534e-05
1.72246e-21
6.91534e-05
2.02039e-19
6.91534e-05
-3.56074e-19
6.91534e-05
1.35107e-19
6.91534e-05
2.86364e-20
6.91534e-05
-4.69963e-21
6.91534e-05
6.67098e-20
6.91534e-05
-4.2582e-19
6.91534e-05
9.44156e-20
6.91534e-05
1.94797e-19
6.91534e-05
-8.51902e-20
6.91534e-05
-2.1132e-19
6.91534e-05
-2.75572e-19
6.91534e-05
3.28414e-19
6.91534e-05
8.40269e-20
6.91534e-05
-1.36834e-19
6.91534e-05
-3.45261e-20
6.91534e-05
-1.26046e-19
6.91534e-05
2.36608e-19
6.91534e-05
1.45606e-19
6.91534e-05
-1.50858e-19
6.91534e-05
-1.61702e-19
6.91534e-05
-1.89732e-19
6.91534e-05
2.57141e-19
6.91534e-05
1.89964e-19
6.91534e-05
3.25797e-20
6.91534e-05
-3.18649e-19
6.91534e-05
-3.02267e-19
6.91534e-05
2.14761e-19
6.91534e-05
5.58624e-20
6.91534e-05
1.28207e-19
6.91534e-05
-2.02315e-19
6.91534e-05
-3.76341e-20
6.91534e-05
1.68566e-19
6.91534e-05
-1.94755e-19
6.91534e-05
1.69352e-19
6.91534e-05
3.5682e-21
6.91534e-05
-1.57841e-19
6.91534e-05
6.60265e-20
6.91534e-05
-1.67655e-19
6.91534e-05
1.41027e-19
6.91534e-05
-1.8227e-19
-9.65664e-19
0.000113692
-1.7061e-18
0.000113692
-8.17425e-19
0.000113692
-3.40635e-19
0.000113692
-1.51274e-19
0.000113692
-5.29668e-20
0.000113692
-1.38529e-20
0.000113692
-1.73774e-20
0.000113692
-4.2732e-20
0.000113692
-5.63507e-20
0.000113692
-4.28113e-20
0.000113692
-6.03578e-20
0.000113692
-5.31152e-20
0.000113692
4.66069e-20
0.000113692
5.02047e-20
0.000113692
1.77692e-20
0.000113692
1.15276e-19
0.000113692
8.17897e-20
0.000113692
1.76058e-20
0.000113692
1.67074e-20
0.000113692
1.40654e-20
0.000113692
4.64086e-20
0.000113692
7.43031e-20
0.000113692
1.58421e-20
0.000113692
-1.0625e-20
0.000113692
-7.04659e-20
0.000113692
-3.96652e-20
0.000113692
8.26576e-20
0.000113692
8.19311e-20
0.000113692
1.96053e-20
0.000113692
-1.31349e-20
0.000113692
8.68624e-20
0.000113692
1.7947e-19
0.000113692
2.70623e-20
0.000113692
-9.52488e-20
0.000113692
-9.8007e-20
0.000113692
-6.76979e-20
0.000113692
6.1528e-20
0.000113692
-4.50191e-20
0.000113692
-1.57764e-19
0.000113692
2.30454e-20
0.000113692
2.86347e-20
0.000113692
-3.05491e-20
0.000113692
3.53707e-20
0.000113692
-5.7619e-20
0.000113692
-1.72365e-20
0.000113692
1.33457e-21
0.000113692
7.34614e-20
0.000113692
9.75898e-20
0.000113692
2.96282e-20
0.000113692
2.86888e-20
0.000113692
-2.71422e-20
0.000113692
3.12623e-20
0.000113692
4.37702e-20
0.000113692
4.86603e-20
0.000113692
1.6505e-19
0.000113692
-2.22339e-21
0.000113692
-9.24287e-21
0.000113692
-2.46989e-20
0.000113692
3.24454e-21
0.000113692
3.78576e-20
0.000113692
-2.10334e-19
0.000113692
1.02511e-19
0.000113692
4.02229e-20
0.000113692
-4.27831e-20
0.000113692
9.61107e-20
0.000113692
-1.46947e-19
0.000113692
-1.6147e-20
0.000113692
-1.97828e-20
0.000113692
3.88596e-20
0.000113692
1.20221e-19
0.000113692
-7.51779e-20
0.000113692
-6.86217e-20
0.000113692
-1.03531e-19
0.000113692
6.01183e-21
0.000113692
1.93575e-19
0.000113692
-1.27773e-19
0.000113692
-1.66587e-19
0.000113692
8.37329e-21
0.000113692
-8.26407e-20
0.000113692
1.00763e-19
0.000113692
-7.89032e-20
0.000113692
-2.53965e-19
0.000113692
-6.34125e-20
0.000113692
-1.47937e-20
0.000113692
6.1574e-20
0.000113692
-5.61155e-20
0.000113692
-7.75479e-20
0.000113692
-1.02903e-19
0.000113692
-3.18764e-20
0.000113692
2.07967e-19
0.000113692
-8.6322e-21
0.000113692
-1.40809e-19
0.000113692
-2.09536e-20
0.000113692
5.03143e-20
0.000113692
1.47654e-20
0.000113692
-2.37414e-19
0.000113692
-1.3229e-19
0.000113692
-5.08438e-20
0.000113692
2.32754e-20
0.000113692
7.17243e-20
0.000113692
-5.24783e-20
0.000113692
1.19628e-20
0.000113692
-1.33244e-19
0.000113692
-4.7753e-20
0.000113692
1.58186e-19
0.000113692
1.19095e-19
0.000113692
-2.13031e-19
0.000113692
-1.41912e-19
0.000113692
1.85081e-19
0.000113692
2.84666e-19
0.000113692
1.15095e-19
0.000113692
-3.88445e-19
0.000113692
2.47411e-20
0.000113692
3.71358e-19
0.000113692
2.40443e-19
0.000113692
-4.37548e-21
0.000113692
-4.17781e-19
0.000113692
-1.61276e-19
0.000113692
4.3736e-19
0.000113692
2.77072e-19
0.000113692
-2.40417e-19
0.000113692
-4.01335e-19
0.000113692
-6.89615e-20
0.000113692
4.56907e-19
0.000113692
3.88984e-19
0.000113692
-1.61038e-19
0.000113692
-5.07975e-19
0.000113692
4.46624e-20
0.000113692
4.795e-19
0.000113692
1.18056e-19
0.000113692
-8.90161e-20
0.000113692
-2.55739e-19
0.000113692
-3.68372e-20
0.000113692
3.53056e-19
0.000113692
1.46275e-19
0.000113692
-1.90943e-20
0.000113692
-2.57643e-19
0.000113692
-2.90076e-20
0.000113692
4.22314e-19
0.000113692
1.24749e-19
0.000113692
-1.97726e-19
0.000113692
-2.75009e-19
0.000113692
7.12991e-20
0.000113692
1.4705e-19
0.000113692
-1.52682e-20
0.000113692
-3.07688e-20
0.000113692
-2.29127e-19
0.000113692
8.59463e-20
0.000113692
7.94986e-20
0.000113692
-7.13196e-20
0.000113692
1.36163e-19
0.000113692
-2.46903e-19
0.000113692
-1.8152e-19
0.000113692
1.10136e-19
0.000113692
1.6107e-19
0.000113692
9.996e-20
0.000113692
-2.2581e-19
0.000113692
-2.90562e-19
0.000113692
2.66468e-20
0.000113692
1.71462e-19
0.000113692
2.42712e-19
0.000113692
-2.51448e-19
0.000113692
-5.78867e-20
0.000113692
2.64888e-19
0.000113692
-1.97002e-19
0.000113692
-1.68848e-20
0.000113692
-7.64438e-20
0.000113692
-1.34794e-19
0.000113692
9.157e-20
0.000113692
4.78204e-20
0.000113692
-1.20441e-19
0.000113692
-3.61651e-19
0.000113692
-3.01332e-21
0.000113692
3.1686e-19
0.000113692
9.87233e-20
0.000113692
-1.65806e-19
0.000113692
-1.86047e-19
0.000113692
1.01981e-19
0.000113692
-2.67066e-20
0.000113692
2.13124e-19
0.000113692
1.87328e-19
0.000113692
-4.59158e-19
0.000113692
-3.36767e-20
0.000113692
3.2362e-19
0.000113692
1.55548e-19
0.000113692
2.17902e-19
0.000113692
-1.80568e-19
0.000113692
-6.45791e-21
0.000113692
3.08585e-19
0.000113692
-1.02629e-19
0.000113692
-5.07299e-20
0.000113692
-7.32857e-20
0.000113692
-1.30987e-19
0.000113692
1.57994e-19
0.000113692
1.38591e-19
0.000113692
9.72111e-20
0.000113692
-1.34266e-19
0.000113692
-1.46307e-19
0.000113692
1.81285e-19
0.000113692
3.73305e-20
0.000113692
2.64441e-20
0.000113692
-1.08301e-19
0.000113692
8.54117e-20
0.000113692
3.0653e-19
0.000113692
1.33163e-20
0.000113692
-1.30155e-19
0.000113692
-2.34924e-19
0.000113692
4.65037e-20
0.000113692
9.45537e-20
0.000113692
-3.16429e-20
0.000113692
-5.52478e-20
0.000113692
-2.77139e-19
0.000113692
5.88603e-19
0.000113692
1.10986e-19
0.000113692
-5.13601e-19
0.000113692
2.72488e-19
0.000113692
-2.21103e-19
0.000113692
-1.51278e-20
0.000113692
-1.30732e-19
0.000113692
-4.8098e-19
0.000113692
6.03888e-19
0.000113692
1.26711e-19
0.000113692
-8.75202e-20
0.000113692
-1.14923e-19
0.000113692
-5.03662e-19
0.000113692
5.74899e-19
0.000113692
1.22907e-19
0.000113692
-1.53107e-19
0.000113692
4.20481e-20
0.000113692
-3.97059e-19
0.000113692
3.38315e-19
0.000113692
-9.04127e-20
0.000113692
-2.4311e-19
0.000113692
3.4359e-20
0.000113692
-5.21876e-19
0.000113692
4.974e-21
0.000113692
-1.05888e-19
0.000113692
2.62741e-19
0.000113692
2.85422e-19
0.000113692
-5.99088e-19
0.000113692
1.35177e-19
0.000113692
-2.28777e-19
0.000113692
3.68419e-20
0.000113692
2.12428e-19
0.000113692
-8.78938e-19
0.000113692
8.02108e-20
0.000113692
9.64038e-20
0.000113692
1.59194e-19
0.000113692
1.11627e-19
0.000113692
-5.20283e-19
0.000113692
6.75683e-19
0.000113692
1.35554e-19
0.000113692
-4.32787e-19
0.000113692
-3.14097e-19
0.000113692
-3.69005e-19
0.000113692
9.27934e-19
0.000113692
6.64924e-20
0.000113692
-8.99613e-20
0.000113692
2.6296e-19
0.000113692
-5.71471e-19
0.000113692
1.93877e-19
0.000113692
8.20531e-20
0.000113692
1.22614e-19
0.000113692
8.12074e-20
0.000113692
-3.60757e-19
0.000113692
5.70412e-19
0.000113692
5.58647e-20
0.000113692
8.24088e-21
0.000113692
-5.82212e-21
0.000113692
-6.07778e-19
0.000113692
3.00486e-19
0.000113692
9.53335e-21
0.000113692
1.26291e-19
0.000113692
1.27863e-19
0.000113692
-5.21028e-19
0.000113692
4.6301e-19
0.000113692
9.56829e-20
0.000113692
8.05548e-20
0.000113692
2.62246e-19
0.000113692
-5.88558e-19
0.000113692
2.437e-19
0.000113692
1.04859e-20
0.000113692
-6.93929e-22
0.000113692
9.35626e-20
0.000113692
-6.86097e-19
0.000113692
1.74755e-19
0.000113692
2.17837e-19
0.000113692
-2.19916e-19
0.000113692
-2.91982e-19
0.000113692
-4.47219e-19
0.000113692
4.51003e-19
0.000113692
1.56083e-19
0.000113692
-1.78992e-19
0.000113692
2.20423e-20
0.000113692
-2.2656e-19
0.000113692
2.88195e-19
0.000113692
2.70727e-19
0.000113692
-2.32011e-19
0.000113692
-2.18922e-19
0.000113692
-3.14186e-19
0.000113692
3.27489e-19
0.000113692
3.49408e-19
0.000113692
-3.34002e-20
0.000113692
-5.08135e-19
0.000113692
-4.51634e-19
0.000113692
3.30028e-19
0.000113692
8.26355e-20
0.000113692
1.31233e-19
0.000113692
-2.60843e-19
0.000113692
-9.21435e-20
0.000113692
3.18214e-19
0.000113692
-2.38916e-19
0.000113692
1.23631e-19
0.000113692
1.02766e-19
0.000113692
-2.21818e-19
0.000113692
4.20963e-20
0.000113692
-1.58407e-19
0.000113692
2.25947e-19
0.000113692
-1.659e-19
-9.66728e-19
0.000157059
-1.18813e-18
0.000157059
-7.27096e-19
0.000157059
-3.51535e-19
0.000157059
-1.50866e-19
0.000157059
-7.83932e-20
0.000157059
-3.57031e-20
0.000157059
-5.68354e-20
0.000157059
-4.68171e-20
0.000157059
-3.78844e-20
0.000157059
-9.38387e-20
0.000157059
-1.41987e-19
0.000157059
-4.4715e-20
0.000157059
6.01477e-20
0.000157059
7.31024e-20
0.000157059
3.64954e-20
0.000157059
1.739e-19
0.000157059
1.38331e-19
0.000157059
8.30224e-20
0.000157059
8.30639e-20
0.000157059
2.88472e-20
0.000157059
9.72503e-20
0.000157059
9.09873e-20
0.000157059
6.39231e-20
0.000157059
-4.90732e-20
0.000157059
-8.5681e-20
0.000157059
-5.46475e-20
0.000157059
1.17861e-19
0.000157059
1.29432e-19
0.000157059
4.00289e-20
0.000157059
-5.49917e-21
0.000157059
1.09507e-19
0.000157059
2.45848e-19
0.000157059
4.00137e-20
0.000157059
-1.04578e-19
0.000157059
-1.45591e-19
0.000157059
-1.14727e-19
0.000157059
6.43271e-20
0.000157059
-2.32585e-20
0.000157059
-2.10909e-19
0.000157059
-2.88925e-20
0.000157059
-6.5015e-22
0.000157059
4.62547e-21
0.000157059
1.54394e-20
0.000157059
-8.52582e-20
0.000157059
-9.87415e-21
0.000157059
-1.48873e-20
0.000157059
1.07917e-19
0.000157059
1.62433e-19
0.000157059
3.34349e-20
0.000157059
-7.41e-21
0.000157059
7.66784e-21
0.000157059
1.00982e-19
0.000157059
8.25298e-20
0.000157059
8.9704e-20
0.000157059
1.92212e-19
0.000157059
-6.32186e-21
0.000157059
2.89805e-20
0.000157059
7.26801e-21
0.000157059
-2.97758e-20
0.000157059
-2.79482e-21
0.000157059
-2.82158e-19
0.000157059
1.11519e-19
0.000157059
8.00078e-20
0.000157059
-4.14415e-20
0.000157059
1.03793e-19
0.000157059
-1.22027e-19
0.000157059
-1.50481e-20
0.000157059
-4.88836e-20
0.000157059
2.34032e-20
0.000157059
1.40601e-19
0.000157059
-1.11371e-19
0.000157059
-1.42094e-19
0.000157059
-1.24447e-19
0.000157059
1.69595e-20
0.000157059
2.09594e-19
0.000157059
-1.48403e-19
0.000157059
-2.15751e-19
0.000157059
-2.22109e-20
0.000157059
-1.14815e-19
0.000157059
4.936e-20
0.000157059
-9.35236e-20
0.000157059
-3.69005e-19
0.000157059
-1.37204e-19
0.000157059
2.77793e-20
0.000157059
3.95816e-20
0.000157059
-7.97594e-20
0.000157059
-8.37404e-20
0.000157059
-1.15419e-19
0.000157059
-1.43693e-19
0.000157059
2.61193e-19
0.000157059
-4.77689e-20
0.000157059
-1.70767e-19
0.000157059
-3.67463e-20
0.000157059
4.60022e-20
0.000157059
1.21736e-20
0.000157059
-2.98098e-19
0.000157059
-2.09511e-19
0.000157059
-1.43504e-19
0.000157059
4.25333e-20
0.000157059
1.29317e-19
0.000157059
-4.1962e-20
0.000157059
-4.4439e-20
0.000157059
-1.78989e-19
0.000157059
-5.58428e-20
0.000157059
1.95702e-19
0.000157059
1.7809e-19
0.000157059
-2.3858e-19
0.000157059
-2.14187e-19
0.000157059
2.34702e-19
0.000157059
4.05934e-19
0.000157059
1.90184e-19
0.000157059
-4.27154e-19
0.000157059
8.4239e-21
0.000157059
5.2069e-19
0.000157059
3.44074e-19
0.000157059
-4.68619e-20
0.000157059
-5.43364e-19
0.000157059
-2.42616e-19
0.000157059
5.79951e-19
0.000157059
3.87955e-19
0.000157059
-3.21144e-19
0.000157059
-5.19295e-19
0.000157059
-6.3686e-20
0.000157059
5.81111e-19
0.000157059
5.55563e-19
0.000157059
-1.77552e-19
0.000157059
-6.36937e-19
0.000157059
8.34128e-20
0.000157059
6.25449e-19
0.000157059
1.77608e-19
0.000157059
-1.52033e-19
0.000157059
-3.05314e-19
0.000157059
-2.82243e-20
0.000157059
4.16219e-19
0.000157059
2.24366e-19
0.000157059
-1.47271e-20
0.000157059
-2.72309e-19
0.000157059
-8.34067e-21
0.000157059
4.56995e-19
0.000157059
1.45915e-19
0.000157059
-2.56273e-19
0.000157059
-3.04132e-19
0.000157059
1.01898e-19
0.000157059
1.73704e-19
0.000157059
-1.97938e-20
0.000157059
-1.77384e-20
0.000157059
-2.57249e-19
0.000157059
3.98189e-20
0.000157059
7.9215e-20
0.000157059
-1.0634e-19
0.000157059
1.55186e-19
0.000157059
-2.30443e-19
0.000157059
-2.71142e-19
0.000157059
9.51756e-20
0.000157059
1.64734e-19
0.000157059
1.35766e-19
0.000157059
-2.82244e-19
0.000157059
-3.75331e-19
0.000157059
2.85792e-21
0.000157059
2.17196e-19
0.000157059
2.48695e-19
0.000157059
-2.95617e-19
0.000157059
-4.77489e-20
0.000157059
2.75236e-19
0.000157059
-2.33424e-19
0.000157059
-4.26735e-20
0.000157059
-1.31509e-19
0.000157059
-1.52462e-19
0.000157059
9.95071e-20
0.000157059
4.88156e-20
0.000157059
-1.43246e-19
0.000157059
-5.6858e-19
0.000157059
4.85212e-20
0.000157059
5.10177e-19
0.000157059
4.83219e-20
0.000157059
-1.9792e-19
0.000157059
-2.60348e-19
0.000157059
3.20129e-20
0.000157059
-5.51817e-21
0.000157059
3.49634e-19
0.000157059
2.66913e-19
0.000157059
-5.79529e-19
0.000157059
-6.19209e-20
0.000157059
4.45098e-19
0.000157059
2.65934e-19
0.000157059
2.3326e-19
0.000157059
-1.50739e-19
0.000157059
3.63797e-20
0.000157059
3.61756e-19
0.000157059
-8.23666e-20
0.000157059
-9.83315e-20
0.000157059
-9.54085e-20
0.000157059
-1.89898e-19
0.000157059
2.17641e-19
0.000157059
2.56966e-19
0.000157059
1.70437e-19
0.000157059
-1.78186e-19
0.000157059
-1.882e-19
0.000157059
2.32833e-19
0.000157059
7.43291e-20
0.000157059
9.64618e-20
0.000157059
-1.11106e-19
0.000157059
1.00326e-19
0.000157059
3.28815e-19
0.000157059
4.79587e-20
0.000157059
-1.32818e-19
0.000157059
-3.24435e-19
0.000157059
1.1541e-20
0.000157059
8.47671e-20
0.000157059
-6.18288e-20
0.000157059
1.56191e-20
0.000157059
-3.12568e-19
0.000157059
6.16891e-19
0.000157059
1.54143e-19
0.000157059
-5.8473e-19
0.000157059
2.61087e-19
0.000157059
-2.90234e-19
0.000157059
-6.64867e-20
0.000157059
-1.66703e-19
0.000157059
-5.92498e-19
0.000157059
7.20588e-19
0.000157059
1.31894e-19
0.000157059
-2.8644e-20
0.000157059
-5.8722e-20
0.000157059
-6.32191e-19
0.000157059
6.62033e-19
0.000157059
1.35161e-19
0.000157059
-1.59266e-19
0.000157059
3.81045e-20
0.000157059
-5.43193e-19
0.000157059
3.97614e-19
0.000157059
-1.22359e-19
0.000157059
-3.69678e-19