/*--------------------------------*- C++ -*----------------------------------*\
| =========                 |                                                 |
| \\      /  F ield         | OpenFOAM: The Open Source CFD Toolbox           |
|  \\    /   O peration     | Version:  2112                                  |
|   \\  /    A nd           | Website:  www.openfoam.com                      |
|    \\/     M anipulation  |                                                 |
\*---------------------------------------------------------------------------*/
FoamFile
{
    version     2.0;
    format      ascii;
    arch        "LSB;label=32;scalar=64";
    class       surfaceScalarField;
    location    "4";
    object      phi;
}
// * * * * * * * * * * * * * * * * * * * * * * * * * * * * * * * * * * * * * //

dimensions      [0 3 -1 0 0 0 0];

oriented        oriented;

internalField   nonuniform List<scalar> 
99400
(
3.1383e-05
-7.09118e-18
3.1383e-05
-1.38656e-18
3.1383e-05
-4.76561e-19
3.1383e-05
-1.86186e-19
3.1383e-05
-8.52517e-20
3.1383e-05
-5.98801e-20
3.1383e-05
-3.41177e-20
3.1383e-05
-4.34569e-20
3.1383e-05
-4.06575e-20
3.1383e-05
-2.0582e-20
3.1383e-05
-5.90085e-20
3.1383e-05
-4.83329e-20
3.1383e-05
-3.95247e-20
3.1383e-05
-1.59205e-20
3.1383e-05
2.78263e-21
3.1383e-05
-1.30209e-20
3.1383e-05
-3.43567e-20
3.1383e-05
-2.98472e-20
3.1383e-05
-1.85363e-20
3.1383e-05
-5.15622e-21
3.1383e-05
-1.00165e-20
3.1383e-05
9.09806e-21
3.1383e-05
2.96126e-20
3.1383e-05
1.03679e-20
3.1383e-05
-1.65736e-20
3.1383e-05
-2.82982e-20
3.1383e-05
-9.16903e-22
3.1383e-05
2.14233e-20
3.1383e-05
-2.95267e-20
3.1383e-05
-2.96294e-21
3.1383e-05
-8.3732e-21
3.1383e-05
-2.91417e-20
3.1383e-05
-4.85277e-21
3.1383e-05
-2.13552e-20
3.1383e-05
-3.07037e-20
3.1383e-05
2.08897e-20
3.1383e-05
-3.86532e-20
3.1383e-05
-2.06726e-20
3.1383e-05
1.02806e-20
3.1383e-05
-2.4915e-20
3.1383e-05
1.94416e-20
3.1383e-05
-2.43025e-20
3.1383e-05
2.83903e-21
3.1383e-05
3.45878e-20
3.1383e-05
5.23215e-21
3.1383e-05
4.79018e-20
3.1383e-05
3.38376e-20
3.1383e-05
-3.78303e-20
3.1383e-05
-8.5183e-21
3.1383e-05
4.14169e-20
3.1383e-05
1.5892e-20
3.1383e-05
1.03128e-20
3.1383e-05
-2.54714e-20
3.1383e-05
-1.02921e-20
3.1383e-05
3.50063e-20
3.1383e-05
-3.98004e-20
3.1383e-05
3.55376e-20
3.1383e-05
-1.37079e-20
3.1383e-05
-6.73073e-20
3.1383e-05
1.40735e-20
3.1383e-05
-4.01624e-21
3.1383e-05
4.54194e-21
3.1383e-05
-9.75355e-21
3.1383e-05
2.43902e-20
3.1383e-05
-1.75223e-20
3.1383e-05
3.64141e-20
3.1383e-05
-2.49413e-20
3.1383e-05
-1.8324e-20
3.1383e-05
4.59738e-20
3.1383e-05
4.06734e-21
3.1383e-05
-9.52561e-21
3.1383e-05
2.8284e-20
3.1383e-05
7.09009e-20
3.1383e-05
-4.33289e-20
3.1383e-05
-6.11476e-20
3.1383e-05
8.77927e-20
3.1383e-05
2.36729e-20
3.1383e-05
-7.72448e-20
3.1383e-05
-1.36088e-20
3.1383e-05
4.38081e-20
3.1383e-05
2.53491e-20
3.1383e-05
-1.36648e-20
3.1383e-05
3.581e-20
3.1383e-05
2.03061e-20
3.1383e-05
-5.80859e-20
3.1383e-05
3.6977e-20
3.1383e-05
-3.11202e-21
3.1383e-05
-2.86096e-20
3.1383e-05
-6.44358e-21
3.1383e-05
-1.09859e-20
3.1383e-05
3.03035e-20
3.1383e-05
9.67219e-21
3.1383e-05
-1.50824e-21
3.1383e-05
1.04435e-20
3.1383e-05
1.34389e-20
3.1383e-05
-9.12567e-20
3.1383e-05
1.93372e-20
3.1383e-05
1.07257e-19
3.1383e-05
-6.36249e-20
3.1383e-05
-5.07465e-20
3.1383e-05
7.58916e-20
3.1383e-05
6.36271e-20
3.1383e-05
-3.44767e-20
3.1383e-05
-3.57968e-20
3.1383e-05
2.93157e-20
3.1383e-05
-6.87385e-21
3.1383e-05
-5.31853e-20
3.1383e-05
-1.36275e-20
3.1383e-05
5.68083e-20
3.1383e-05
8.42502e-20
3.1383e-05
-3.73468e-20
3.1383e-05
-8.89487e-20
3.1383e-05
-1.37489e-20
3.1383e-05
1.15628e-19
3.1383e-05
6.554e-20
3.1383e-05
-8.21539e-20
3.1383e-05
-4.63576e-20
3.1383e-05
9.776e-20
3.1383e-05
6.97194e-20
3.1383e-05
-3.30654e-20
3.1383e-05
-4.28028e-20
3.1383e-05
6.86076e-21
3.1383e-05
4.59665e-20
3.1383e-05
-6.50422e-21
3.1383e-05
-5.06454e-20
3.1383e-05
7.87546e-20
3.1383e-05
3.76322e-20
3.1383e-05
-5.38237e-20
3.1383e-05
2.17261e-20
3.1383e-05
1.43406e-20
3.1383e-05
3.92062e-22
3.1383e-05
-2.19052e-20
3.1383e-05
9.23207e-20
3.1383e-05
-5.48321e-20
3.1383e-05
-8.1265e-20
3.1383e-05
4.09585e-20
3.1383e-05
-8.54753e-21
3.1383e-05
-7.74736e-20
3.1383e-05
7.10419e-20
3.1383e-05
5.1765e-20
3.1383e-05
-1.37314e-19
3.1383e-05
-8.59291e-20
3.1383e-05
1.06194e-19
3.1383e-05
1.5057e-19
3.1383e-05
-7.02949e-20
3.1383e-05
-3.88593e-21
3.1383e-05
1.82832e-19
3.1383e-05
-5.5386e-20
3.1383e-05
-1.0424e-19
3.1383e-05
1.16488e-19
3.1383e-05
-7.62622e-20
3.1383e-05
-1.67716e-20
3.1383e-05
1.51474e-19
3.1383e-05
-1.51138e-19
3.1383e-05
-4.27655e-20
3.1383e-05
6.36675e-20
3.1383e-05
-1.44106e-19
3.1383e-05
-3.22029e-20
3.1383e-05
-2.06881e-20
3.1383e-05
9.03472e-20
3.1383e-05
6.61034e-21
3.1383e-05
-5.83752e-20
3.1383e-05
-2.64786e-20
3.1383e-05
2.23572e-20
3.1383e-05
-1.43878e-20
3.1383e-05
-2.12327e-20
3.1383e-05
5.05538e-20
3.1383e-05
-1.81788e-19
3.1383e-05
1.23985e-19
3.1383e-05
1.37724e-19
3.1383e-05
-1.58582e-19
3.1383e-05
4.26114e-20
3.1383e-05
1.14405e-19
3.1383e-05
-8.47014e-20
3.1383e-05
-5.85288e-20
3.1383e-05
5.33641e-20
3.1383e-05
1.19386e-19
3.1383e-05
-2.90802e-20
3.1383e-05
-6.79893e-20
3.1383e-05
1.40151e-19
3.1383e-05
-3.13473e-20
3.1383e-05
-6.90243e-20
3.1383e-05
2.64042e-20
3.1383e-05
-5.1408e-20
3.1383e-05
1.18652e-19
3.1383e-05
-8.99653e-22
3.1383e-05
-1.23255e-19
3.1383e-05
1.17025e-20
3.1383e-05
1.40286e-20
3.1383e-05
1.75156e-20
3.1383e-05
-5.15113e-20
3.1383e-05
-3.45782e-20
3.1383e-05
-6.35803e-21
3.1383e-05
1.59973e-19
3.1383e-05
4.44634e-20
3.1383e-05
-2.16131e-20
3.1383e-05
1.20689e-19
3.1383e-05
-1.70694e-20
3.1383e-05
-1.90077e-19
3.1383e-05
-3.89537e-20
3.1383e-05
8.17908e-20
3.1383e-05
-1.4362e-19
3.1383e-05
1.37823e-19
3.1383e-05
3.35925e-20
3.1383e-05
6.62924e-20
3.1383e-05
1.36683e-19
3.1383e-05
-1.61837e-19
3.1383e-05
-1.16012e-19
3.1383e-05
3.21191e-20
3.1383e-05
7.55598e-21
3.1383e-05
4.69822e-20
3.1383e-05
2.80784e-20
3.1383e-05
-9.89299e-20
3.1383e-05
1.0908e-19
3.1383e-05
-9.45716e-20
3.1383e-05
1.00142e-20
3.1383e-05
-5.19089e-20
3.1383e-05
-5.36938e-20
3.1383e-05
1.16706e-19
3.1383e-05
1.00879e-19
3.1383e-05
-4.72041e-20
3.1383e-05
-8.81599e-20
3.1383e-05
3.08337e-20
3.1383e-05
-7.18784e-20
3.1383e-05
5.07759e-20
3.1383e-05
-7.39905e-21
3.1383e-05
-2.03633e-20
3.1383e-05
6.98961e-20
3.1383e-05
1.16416e-19
3.1383e-05
-1.12242e-20
3.1383e-05
-2.63886e-20
3.1383e-05
-1.06625e-19
3.1383e-05
-1.83026e-21
3.1383e-05
7.49114e-20
3.1383e-05
-9.54247e-20
3.1383e-05
9.16817e-20
3.1383e-05
3.32559e-20
3.1383e-05
4.53536e-20
3.1383e-05
-6.16413e-20
3.1383e-05
-1.52605e-20
3.1383e-05
-2.22279e-20
3.1383e-05
-1.31657e-19
3.1383e-05
8.14089e-21
3.1383e-05
1.65888e-19
3.1383e-05
-6.16136e-20
3.1383e-05
-5.23194e-20
3.1383e-05
1.19744e-19
3.1383e-05
-1.10805e-19
3.1383e-05
-1.29896e-20
3.1383e-05
-1.25676e-20
3.1383e-05
-4.89199e-20
3.1383e-05
-1.30511e-20
3.1383e-05
1.52762e-19
3.1383e-05
-5.47652e-20
3.1383e-05
-1.19962e-19
3.1383e-05
8.58342e-20
3.1383e-05
-2.869e-20
3.1383e-05
-9.95702e-20
3.1383e-05
5.67436e-20
3.1383e-05
-1.1187e-19
3.1383e-05
4.10395e-20
3.1383e-05
2.3355e-19
3.1383e-05
-1.70536e-19
3.1383e-05
7.86581e-20
3.1383e-05
-1.60179e-19
3.1383e-05
-1.53862e-19
3.1383e-05
3.18347e-19
3.1383e-05
-2.22259e-19
3.1383e-05
-1.27127e-19
3.1383e-05
4.51577e-19
3.1383e-05
-2.06248e-19
3.1383e-05
-1.58482e-19
3.1383e-05
1.50153e-19
3.1383e-05
-1.17423e-19
3.1383e-05
1.47167e-19
3.1383e-05
-1.26625e-19
3.1383e-05
-6.29285e-20
3.1383e-05
1.47691e-19
3.1383e-05
1.16232e-19
3.1383e-05
-6.32068e-20
3.1383e-05
-8.11352e-20
3.1383e-05
-1.09207e-19
3.1383e-05
8.04609e-20
3.1383e-05
2.18499e-19
3.1383e-05
-2.38476e-19
3.1383e-05
2.55924e-19
3.1383e-05
4.69763e-20
3.1383e-05
-2.63032e-19
3.1383e-05
2.23742e-19
3.1383e-05
1.02752e-19
3.1383e-05
-2.68878e-19
3.1383e-05
4.44888e-20
3.1383e-05
5.66341e-20
3.1383e-05
-1.62476e-19
3.1383e-05
3.73838e-19
3.1383e-05
7.18875e-20
3.1383e-05
-3.81414e-19
3.1383e-05
8.22604e-20
3.1383e-05
-1.57522e-20
3.1383e-05
-2.0479e-19
3.1383e-05
2.92178e-19
3.1383e-05
-1.24048e-19
3.1383e-05
-1.17032e-19
3.1383e-05
4.29253e-19
3.1383e-05
-1.78909e-19
3.1383e-05
-2.89258e-19
3.1383e-05
2.37779e-19
3.1383e-05
-1.47988e-19
3.1383e-05
-1.68505e-19
3.1383e-05
2.70272e-19
3.1383e-05
3.88304e-20
3.1383e-05
-2.87959e-19
3.1383e-05
1.32121e-19
3.1383e-05
8.35139e-20
3.1383e-05
-1.65199e-19
3.1383e-05
7.25005e-20
3.1383e-05
-8.96557e-20
3.1383e-05
-7.42141e-20
3.1383e-05
-6.42765e-21
3.1383e-05
1.63998e-19
3.1383e-05
1.43846e-19
3.1383e-05
-6.87287e-20
3.1383e-05
-1.93258e-19
3.1383e-05
-6.09828e-20
3.1383e-05
2.02538e-19
3.1383e-05
-1.28798e-19
3.1383e-05
-1.33035e-19
3.1383e-05
-1.83981e-20
3.1383e-05
2.45549e-19
3.1383e-05
2.19102e-19
3.1383e-05
-3.29644e-19
3.1383e-05
1.63524e-20
3.1383e-05
2.03303e-19
3.1383e-05
-2.55979e-19
3.1383e-05
1.59898e-19
3.1383e-05
2.54107e-19
3.1383e-05
-3.54151e-19
3.1383e-05
2.56901e-19
3.1383e-05
1.57214e-19
3.1383e-05
-3.02705e-19
3.1383e-05
6.28718e-20
3.1383e-05
-9.72279e-21
3.1383e-05
-9.6495e-20
3.1383e-05
1.01117e-19
3.1383e-05
2.1685e-19
3.1383e-05
3.45795e-20
3.1383e-05
-5.0292e-20
3.1383e-05
-1.70166e-19
3.1383e-05
-5.37684e-20
3.1383e-05
1.45997e-19
3.1383e-05
-8.23935e-20
3.1383e-05
-1.72518e-19
3.1383e-05
8.05852e-20
3.1383e-05
2.17227e-19
3.1383e-05
2.32837e-20
3.1383e-05
-6.86432e-20
3.1383e-05
-1.99794e-19
3.1383e-05
-8.64499e-20
3.1383e-05
1.58767e-19
3.1383e-05
-4.84281e-20
3.1383e-05
1.71242e-19
3.1383e-05
-2.10117e-19
3.1383e-05
-2.36768e-20
3.1383e-05
3.56379e-19
3.1383e-05
-2.33998e-19
3.1383e-05
-5.879e-20
3.1383e-05
2.34478e-20
3.1383e-05
-4.40471e-20
3.1383e-05
-7.45577e-20
3.1383e-05
3.22667e-19
3.1383e-05
5.98488e-20
3.1383e-05
-2.08612e-19
3.1383e-05
-3.93801e-20
3.1383e-05
-2.70898e-20
3.1383e-05
1.43017e-19
3.1383e-05
-1.10795e-19
3.1383e-05
6.21064e-20
3.1383e-05
-1.25098e-19
3.1383e-05
2.25386e-19
3.1383e-05
5.74191e-20
3.1383e-05
-1.70201e-19
3.1383e-05
-5.50133e-20
3.1383e-05
6.4449e-20
3.1383e-05
3.85311e-20
3.1383e-05
-1.47074e-19
3.1383e-05
2.71547e-19
3.1383e-05
-2.49018e-19
3.1383e-05
4.99321e-20
3.1383e-05
1.43226e-19
3.1383e-05
-1.00749e-19
3.1383e-05
-1.07437e-19
3.1383e-05
7.90298e-20
3.1383e-05
-3.57339e-20
3.1383e-05
-2.39328e-19
3.1383e-05
3.36577e-19
3.1383e-05
1.68808e-19
3.1383e-05
-2.53954e-19
3.1383e-05
-1.32056e-19
3.1383e-05
-7.12985e-20
3.1383e-05
-4.04223e-20
3.1383e-05
1.68111e-19
3.1383e-05
4.03675e-19
3.1383e-05
-2.965e-19
3.1383e-05
-1.82429e-19
3.1383e-05
-1.21741e-19
3.1383e-05
2.83453e-19
3.1383e-05
2.88148e-19
3.1383e-05
-5.21396e-19
3.1383e-05
-6.70068e-20
3.1383e-05
2.91018e-19
3.1383e-05
3.44573e-19
3.1383e-05
-4.11313e-19
3.1383e-05
4.32147e-20
3.1383e-05
1.65457e-19
3.1383e-05
-8.31436e-20
3.1383e-05
7.03347e-20
3.1383e-05
-2.67937e-19
3.1383e-05
4.46788e-20
3.1383e-05
2.84764e-19
3.1383e-05
1.47568e-19
3.1383e-05
-3.95938e-19
3.1383e-05
-1.37097e-19
3.1383e-05
5.05376e-19
3.1383e-05
-1.19508e-19
3.1383e-05
-2.20668e-19
3.1383e-05
2.2721e-20
3.1383e-05
6.0369e-20
3.1383e-05
8.25753e-21
3.1383e-05
6.26034e-20
3.1383e-05
-2.13607e-19
3.1383e-05
-1.78992e-19
3.1383e-05
4.8165e-19
3.1383e-05
-3.85244e-20
3.1383e-05
-4.8626e-19
3.1383e-05
-3.58092e-20
3.1383e-05
6.32211e-19
3.1383e-05
-1.56628e-19
3.1383e-05
-5.74208e-20
3.1383e-05
-1.61592e-21
3.1383e-05
-2.66057e-19
3.1383e-05
4.58985e-19
3.1383e-05
-2.59033e-19
3.1383e-05
-1.16796e-19
3.1383e-05
-6.75866e-20
3.1383e-05
2.13379e-19
3.1383e-05
1.05737e-19
3.1383e-05
-1.85469e-19
3.1383e-05
9.8902e-20
3.1383e-05
-1.41273e-19
3.1383e-05
2.34134e-19
3.1383e-05
-1.25335e-19
3.1383e-05
5.47042e-20
3.1383e-05
-1.35388e-19
3.1383e-05
1.66693e-19
3.1383e-05
1.65874e-20
3.1383e-05
-1.36609e-19
3.1383e-05
1.84553e-19
3.1383e-05
5.88533e-20
3.1383e-05
1.2141e-19
3.1383e-05
-5.89897e-19
3.1383e-05
2.79263e-19
3.1383e-05
1.60556e-19
3.1383e-05
5.10155e-20
3.1383e-05
9.55711e-20
3.1383e-05
-4.79069e-19
3.1383e-05
1.65685e-19
3.1383e-05
2.11835e-19
3.1383e-05
-3.49258e-20
3.1383e-05
-2.04294e-19
3.1383e-05
1.54364e-19
3.1383e-05
-8.90786e-20
3.1383e-05
5.25258e-20
3.1383e-05
1.10875e-19
3.1383e-05
-1.96422e-19
3.1383e-05
1.70594e-19
3.1383e-05
2.39079e-20
3.1383e-05
9.11201e-20
3.1383e-05
-3.04881e-19
3.1383e-05
5.88204e-20
3.1383e-05
1.47968e-19
3.1383e-05
4.41307e-20
3.1383e-05
-2.67988e-20
3.1383e-05
-1.41794e-19
3.1383e-05
3.01494e-19
3.1383e-05
-3.25479e-19
3.1383e-05
7.96441e-20
3.1383e-05
6.5755e-20
3.1383e-05
-6.88267e-20
3.1383e-05
3.12143e-19
3.1383e-05
-2.51847e-19
3.1383e-05
-2.57586e-19
3.1383e-05
1.8788e-19
3.1383e-05
2.02991e-19
3.1383e-05
-3.39838e-19
3.1383e-05
-1.37471e-21
3.1383e-05
-9.08554e-20
3.1383e-05
-9.27512e-20
3.1383e-05
-3.28582e-20
3.1383e-05
-6.96772e-19
-1.41102e-18
9.28815e-05
-4.26966e-18
9.28815e-05
-2.02386e-18
9.28815e-05
-8.77717e-19
9.28815e-05
-3.58807e-19
9.28815e-05
-1.86294e-19
9.28815e-05
-1.42299e-19
9.28815e-05
-9.20225e-20
9.28815e-05
-9.13579e-20
9.28815e-05
-8.41354e-20
9.28815e-05
-1.20807e-19
9.28815e-05
-1.361e-19
9.28815e-05
-1.40304e-19
9.28815e-05
-1.18137e-19
9.28815e-05
-7.98388e-20
9.28815e-05
-7.8473e-21
9.28815e-05
-5.02233e-20
9.28815e-05
-5.86528e-20
9.28815e-05
-7.80673e-20
9.28815e-05
-3.02567e-20
9.28815e-05
-3.77001e-20
9.28815e-05
-3.52847e-20
9.28815e-05
1.66766e-20
9.28815e-05
5.55872e-20
9.28815e-05
3.10249e-20
9.28815e-05
-2.45982e-20
9.28815e-05
-5.94636e-20
9.28815e-05
-2.45083e-20
9.28815e-05
3.52302e-20
9.28815e-05
-7.2553e-20
9.28815e-05
-1.91029e-20
9.28815e-05
-2.76265e-20
9.28815e-05
-4.53154e-20
9.28815e-05
-3.55858e-20
9.28815e-05
-6.99713e-20
9.28815e-05
-7.78951e-20
9.28815e-05
-1.38961e-20
9.28815e-05
-1.25821e-19
9.28815e-05
-6.29526e-20
9.28815e-05
1.3674e-20
9.28815e-05
-9.18277e-20
9.28815e-05
1.84188e-21
9.28815e-05
-3.33506e-20
9.28815e-05
3.06474e-20
9.28815e-05
9.96883e-20
9.28815e-05
8.22717e-20
9.28815e-05
1.09363e-19
9.28815e-05
1.03277e-19
9.28815e-05
-6.92089e-20
9.28815e-05
-2.81237e-20
9.28815e-05
8.34209e-20
9.28815e-05
7.52829e-20
9.28815e-05
6.27093e-21
9.28815e-05
-3.887e-20
9.28815e-05
1.78352e-21
9.28815e-05
5.91589e-20
9.28815e-05
-5.94275e-20
9.28815e-05
1.72322e-20
9.28815e-05
-8.88491e-20
9.28815e-05
-1.48014e-19
9.28815e-05
-2.26801e-20
9.28815e-05
-1.81019e-21
9.28815e-05
4.09344e-20
9.28815e-05
-6.13037e-21
9.28815e-05
2.14359e-20
9.28815e-05
2.40366e-20
9.28815e-05
7.45815e-20
9.28815e-05
-6.83025e-20
9.28815e-05
-7.15708e-20
9.28815e-05
1.00133e-19
9.28815e-05
3.86073e-20
9.28815e-05
3.45848e-20
9.28815e-05
9.20298e-20
9.28815e-05
1.69217e-19
9.28815e-05
-7.7453e-20
9.28815e-05
-1.66437e-19
9.28815e-05
1.87149e-19
9.28815e-05
9.35839e-20
9.28815e-05
-1.15536e-19
9.28815e-05
-7.6625e-20
9.28815e-05
7.63299e-20
9.28815e-05
8.14404e-20
9.28815e-05
-7.2047e-21
9.28815e-05
4.68404e-20
9.28815e-05
3.31127e-20
9.28815e-05
-2.92962e-20
9.28815e-05
4.23585e-20
9.28815e-05
-4.71854e-20
9.28815e-05
-2.9282e-20
9.28815e-05
-1.46767e-20
9.28815e-05
-2.75699e-20
9.28815e-05
1.00021e-19
9.28815e-05
-4.64114e-22
9.28815e-05
1.44842e-20
9.28815e-05
1.96886e-20
9.28815e-05
5.47565e-21
9.28815e-05
-1.58981e-19
9.28815e-05
-1.29375e-20
9.28815e-05
2.31648e-19
9.28815e-05
-1.08992e-19
9.28815e-05
-1.15802e-19
9.28815e-05
2.42034e-19
9.28815e-05
1.72954e-19
9.28815e-05
-5.7769e-20
9.28815e-05
-1.21876e-19
9.28815e-05
1.80353e-20
9.28815e-05
4.26916e-20
9.28815e-05
-9.69518e-20
9.28815e-05
-8.19224e-20
9.28815e-05
1.72108e-19
9.28815e-05
1.69597e-19
9.28815e-05
-9.29323e-20
9.28815e-05
-1.61457e-19
9.28815e-05
-5.96697e-20
9.28815e-05
2.51941e-19
9.28815e-05
1.84967e-19
9.28815e-05
-1.97476e-19
9.28815e-05
-7.42736e-20
9.28815e-05
2.41598e-19
9.28815e-05
1.52124e-19
9.28815e-05
-7.23741e-20
9.28815e-05
-9.85829e-20
9.28815e-05
3.9763e-20
9.28815e-05
8.57105e-20
9.28815e-05
-4.00831e-20
9.28815e-05
-6.49908e-20
9.28815e-05
1.85934e-19
9.28815e-05
9.25134e-20
9.28815e-05
-6.98033e-20
9.28815e-05
5.76824e-20
9.28815e-05
-2.41097e-21
9.28815e-05
4.41809e-20
9.28815e-05
-3.37699e-20
9.28815e-05
1.66686e-19
9.28815e-05
-9.74022e-20
9.28815e-05
-1.73065e-19
9.28815e-05
5.58262e-20
9.28815e-05
-1.06754e-19
9.28815e-05
-1.33726e-19
9.28815e-05
1.31719e-19
9.28815e-05
1.15e-19
9.28815e-05
-3.26241e-19
9.28815e-05
-2.382e-19
9.28815e-05
2.92398e-19
9.28815e-05
4.29211e-19
9.28815e-05
-1.3412e-19
9.28815e-05
1.45541e-20
9.28815e-05
4.68225e-19
9.28815e-05
-6.44533e-20
9.28815e-05
-2.08869e-19
9.28815e-05
1.86467e-19
9.28815e-05
-1.53199e-19
9.28815e-05
3.42127e-20
9.28815e-05
2.43418e-19
9.28815e-05
-3.34227e-19
9.28815e-05
-1.07678e-19
9.28815e-05
5.79458e-20
9.28815e-05
-3.22287e-19
9.28815e-05
-1.56112e-19
9.28815e-05
-9.60751e-20
9.28815e-05
2.35821e-19
9.28815e-05
5.03082e-20
9.28815e-05
-1.6347e-19
9.28815e-05
-8.0033e-20
9.28815e-05
-2.26577e-20
9.28815e-05
-7.50615e-21
9.28815e-05
-4.04599e-20
9.28815e-05
3.65312e-20
9.28815e-05
-3.26434e-19
9.28815e-05
1.89457e-19
9.28815e-05
2.92008e-19
9.28815e-05
-2.14267e-19
9.28815e-05
3.24882e-20
9.28815e-05
2.35471e-19
9.28815e-05
-9.17273e-20
9.28815e-05
-1.96731e-19
9.28815e-05
1.52845e-19
9.28815e-05
3.6284e-19
9.28815e-05
-8.69031e-20
9.28815e-05
-1.32357e-19
9.28815e-05
3.27141e-19
9.28815e-05
-5.24581e-20
9.28815e-05
-1.85092e-19
9.28815e-05
1.45678e-20
9.28815e-05
-7.0975e-20
9.28815e-05
1.9448e-19
9.28815e-05
1.68955e-21
9.28815e-05
-2.72104e-19
9.28815e-05
-6.45386e-20
9.28815e-05
8.92059e-20
9.28815e-05
3.44701e-20
9.28815e-05
-1.05838e-19
9.28815e-05
-8.43035e-20
9.28815e-05
4.71901e-20
9.28815e-05
4.10531e-19
9.28815e-05
8.86989e-20
9.28815e-05
2.14207e-20
9.28815e-05
3.40866e-19
9.28815e-05
-1.22893e-19
9.28815e-05
-4.43534e-19
9.28815e-05
-7.8644e-20
9.28815e-05
7.19492e-20
9.28815e-05
-2.70686e-19
9.28815e-05
3.37971e-19
9.28815e-05
9.84021e-20
9.28815e-05
2.14931e-19
9.28815e-05
3.60971e-19
9.28815e-05
-4.01164e-19
9.28815e-05
-3.7228e-19
9.28815e-05
3.57397e-20
9.28815e-05
6.48953e-20
9.28815e-05
7.05682e-20
9.28815e-05
1.37437e-19
9.28815e-05
-9.41583e-20
9.28815e-05
1.25196e-19
9.28815e-05
-2.46929e-19
9.28815e-05
5.0761e-20
9.28815e-05
-2.15922e-19
9.28815e-05
-1.83905e-19
9.28815e-05
3.70294e-19
9.28815e-05
1.98908e-19
9.28815e-05
-1.12453e-19
9.28815e-05
-1.29668e-19
9.28815e-05
8.06191e-20
9.28815e-05
-1.66832e-19
9.28815e-05
8.42817e-20
9.28815e-05
8.19962e-21
9.28815e-05
-4.67769e-20
9.28815e-05
1.76008e-19
9.28815e-05
3.06196e-19
9.28815e-05
-6.39028e-20
9.28815e-05
-4.64391e-21
9.28815e-05
-1.82786e-19
9.28815e-05
-1.37861e-19
9.28815e-05
1.71849e-19
9.28815e-05
-1.26115e-19
9.28815e-05
1.47913e-19
9.28815e-05
1.53163e-19
9.28815e-05
7.42941e-21
9.28815e-05
-8.84421e-20
9.28815e-05
-6.03863e-20
9.28815e-05
-1.13073e-19
9.28815e-05
-2.55889e-19
9.28815e-05
-4.0147e-20
9.28815e-05
3.69984e-19
9.28815e-05
-5.46567e-20
9.28815e-05
-1.11762e-19
9.28815e-05
1.85283e-19
9.28815e-05
-2.02454e-19
9.28815e-05
-8.74886e-20
9.28815e-05
1.08679e-20
9.28815e-05
-1.57237e-19
9.28815e-05
-4.52746e-20
9.28815e-05
2.89822e-19
9.28815e-05
-6.06906e-20
9.28815e-05
-2.63507e-19
9.28815e-05
8.57709e-20
9.28815e-05
-4.76499e-20
9.28815e-05
-1.90005e-19
9.28815e-05
2.91215e-20
9.28815e-05
-2.69708e-19
9.28815e-05
1.46332e-19
9.28815e-05
5.35004e-19
9.28815e-05
-2.37557e-19
9.28815e-05
3.97426e-20
9.28815e-05
-4.23775e-19
9.28815e-05
-3.93733e-19
9.28815e-05
6.90056e-19
9.28815e-05
-3.84332e-19
9.28815e-05
-3.12617e-19
9.28815e-05
8.88527e-19
9.28815e-05
-3.61072e-19
9.28815e-05
-3.34476e-19
9.28815e-05
2.54616e-19
9.28815e-05
-2.07002e-19
9.28815e-05
1.60556e-19
9.28815e-05
-7.57678e-20
9.28815e-05
-1.21032e-19
9.28815e-05
2.25883e-19
9.28815e-05
2.5781e-19
9.28815e-05
-6.02133e-20
9.28815e-05
-1.87439e-19
9.28815e-05
-3.44004e-19
9.28815e-05
2.12335e-19
9.28815e-05
5.71289e-19
9.28815e-05
-4.43757e-19
9.28815e-05
5.25811e-19
9.28815e-05
2.14786e-19
9.28815e-05
-6.18185e-19
9.28815e-05
5.26194e-19
9.28815e-05
1.85822e-19
9.28815e-05
-6.3226e-19
9.28815e-05
1.3384e-19
9.28815e-05
1.69505e-19
9.28815e-05
-2.78619e-19
9.28815e-05
7.82163e-19
9.28815e-05
9.216e-20
9.28815e-05
-7.4482e-19
9.28815e-05
9.66213e-20
9.28815e-05
-1.34894e-19
9.28815e-05
-4.01713e-19
9.28815e-05
4.81432e-19
9.28815e-05
-1.04178e-19
9.28815e-05
-2.47483e-19
9.28815e-05
8.50005e-19
9.28815e-05
-2.71554e-19
9.28815e-05
-7.12678e-19
9.28815e-05
3.31884e-19
9.28815e-05
-2.62358e-19
9.28815e-05
-3.43546e-19
9.28815e-05
4.36402e-19
9.28815e-05
1.54985e-19
9.28815e-05
-5.73625e-19
9.28815e-05
1.87365e-19
9.28815e-05
1.78537e-19
9.28815e-05
-2.83108e-19
9.28815e-05
-2.84619e-20
9.28815e-05
-2.13424e-19
9.28815e-05
-1.06254e-19
9.28815e-05
-3.60979e-20
9.28815e-05
4.23786e-19
9.28815e-05
4.16008e-19
9.28815e-05
-2.5732e-19
9.28815e-05
-4.3052e-19
9.28815e-05
-6.33726e-20
9.28815e-05
2.753e-19
9.28815e-05
-2.83763e-19
9.28815e-05
-2.66558e-19
9.28815e-05
2.29316e-20
9.28815e-05
5.41919e-19
9.28815e-05
4.77152e-19
9.28815e-05
-5.98981e-19
9.28815e-05
1.38751e-20
9.28815e-05
3.81975e-19
9.28815e-05
-3.95549e-19
9.28815e-05
2.95441e-19
9.28815e-05
4.94048e-19
9.28815e-05
-4.7515e-19
9.28815e-05
4.38666e-19
9.28815e-05
2.76023e-19
9.28815e-05
-5.34753e-19
9.28815e-05
5.05087e-20
9.28815e-05
-1.76918e-19
9.28815e-05
-1.53955e-20
9.28815e-05
2.99381e-19
9.28815e-05
3.87152e-19
9.28815e-05
2.21767e-19
9.28815e-05
-1.54137e-19
9.28815e-05
-4.87682e-19
9.28815e-05
-3.21444e-20
9.28815e-05
3.07829e-19
9.28815e-05
-3.89151e-19
9.28815e-05
-2.65981e-19
9.28815e-05
2.24908e-19
9.28815e-05
3.82314e-19
9.28815e-05
1.93665e-19
9.28815e-05
-2.08127e-19
9.28815e-05
-5.17787e-19
9.28815e-05
-1.69876e-19
9.28815e-05
1.80748e-19
9.28815e-05
-1.56433e-20
9.28815e-05
4.48369e-19
9.28815e-05
-5.02477e-19
9.28815e-05
-1.82304e-20
9.28815e-05
7.59847e-19
9.28815e-05
-4.20183e-19
9.28815e-05
-2.17563e-19
9.28815e-05
6.73353e-21
9.28815e-05
-6.64821e-20
9.28815e-05
-5.38587e-20
9.28815e-05
7.35187e-19
9.28815e-05
1.26862e-19
9.28815e-05
-4.47285e-19
9.28815e-05
-7.10944e-20
9.28815e-05
-3.72869e-20
9.28815e-05
2.0569e-19
9.28815e-05
-2.08661e-19
9.28815e-05
7.45688e-20
9.28815e-05
-1.42559e-19
9.28815e-05
5.45931e-19
9.28815e-05
1.55824e-20
9.28815e-05
-3.71699e-19
9.28815e-05
-8.50092e-20
9.28815e-05
1.4038e-19
9.28815e-05
9.06738e-21
9.28815e-05
-3.20978e-19
9.28815e-05
6.98674e-19
9.28815e-05
-4.29216e-19
9.28815e-05
-1.42067e-19
9.28815e-05
4.04195e-19
9.28815e-05
-1.30462e-19
9.28815e-05
-4.09766e-19
9.28815e-05
1.05684e-19
9.28815e-05
-2.1619e-20
9.28815e-05
-4.92311e-19
9.28815e-05
8.50295e-19
9.28815e-05
3.32854e-19
9.28815e-05
-7.08251e-19
9.28815e-05
-2.29182e-19
9.28815e-05
-1.74136e-19
9.28815e-05
-1.9549e-19
9.28815e-05
4.47374e-19
9.28815e-05
9.27686e-19
9.28815e-05
-6.45372e-19
9.28815e-05
-3.4802e-19
9.28815e-05
-3.72566e-19
9.28815e-05
5.58413e-19
9.28815e-05
8.10807e-19
9.28815e-05
-1.09314e-18
9.28815e-05
-3.85451e-19
9.28815e-05
7.31198e-19
9.28815e-05
9.19515e-19
9.28815e-05
-8.77472e-19
9.28815e-05
8.01776e-20
9.28815e-05
3.62922e-19
9.28815e-05
-1.5815e-19
9.28815e-05
2.41386e-21
9.28815e-05
-6.12528e-19
9.28815e-05
2.60305e-19
9.28815e-05
5.95695e-19
9.28815e-05
2.72232e-19
9.28815e-05
-7.93415e-19
9.28815e-05
-3.07539e-19
9.28815e-05
9.64909e-19
9.28815e-05
-7.15594e-20
9.28815e-05
-4.37588e-19
9.28815e-05
-1.82789e-19
9.28815e-05
2.49664e-19
9.28815e-05
6.09e-20
9.28815e-05
3.09813e-20
9.28815e-05
-5.15896e-19
9.28815e-05
-3.98376e-19
9.28815e-05
9.37851e-19
9.28815e-05
1.15535e-19
9.28815e-05
-1.12879e-18
9.28815e-05
-2.67553e-19
9.28815e-05
1.53968e-18
9.28815e-05
-1.55643e-19
9.28815e-05
-2.20443e-19
9.28815e-05
-7.11557e-20
9.28815e-05
-4.24613e-19
9.28815e-05
8.04508e-19
9.28815e-05
-4.42046e-19
9.28815e-05
-3.55716e-19
9.28815e-05
-8.91621e-20
9.28815e-05
4.85804e-19
9.28815e-05
1.89477e-19
9.28815e-05
-2.60279e-19
9.28815e-05
1.10177e-19
9.28815e-05
-2.13687e-19
9.28815e-05
5.08975e-19
9.28815e-05
-2.29877e-19
9.28815e-05
-4.98461e-20
9.28815e-05
-6.15297e-20
9.28815e-05
3.16744e-19
9.28815e-05
-6.25818e-20
9.28815e-05
-1.7863e-19
9.28815e-05
4.17578e-19
9.28815e-05
1.1076e-19
9.28815e-05
2.15471e-19
9.28815e-05
-1.24663e-18
9.28815e-05
4.44193e-19
9.28815e-05
7.18266e-19
9.28815e-05
6.55223e-20
9.28815e-05
-1.59477e-19
9.28815e-05
-7.97315e-19
9.28815e-05
4.19174e-19
9.28815e-05
2.2965e-19
9.28815e-05
-6.80189e-20
9.28815e-05
-1.24861e-19
9.28815e-05
1.61804e-19
9.28815e-05
-1.97717e-19
9.28815e-05
9.98297e-20
9.28815e-05
2.28097e-19
9.28815e-05
-2.52035e-19
9.28815e-05
2.99519e-19
9.28815e-05
1.45771e-19
9.28815e-05
2.79818e-21
9.28815e-05
-6.38274e-19
9.28815e-05
3.64165e-19
9.28815e-05
2.36882e-19
9.28815e-05
-1.03486e-19
9.28815e-05
1.06481e-19
9.28815e-05
-1.07614e-19
9.28815e-05
3.57781e-19
9.28815e-05
-5.99785e-19
9.28815e-05
2.06569e-19
9.28815e-05
1.68739e-19
9.28815e-05
1.1127e-19
9.28815e-05
4.70369e-19
9.28815e-05
-6.72678e-19
9.28815e-05
-3.23336e-19
9.28815e-05
5.39904e-19
9.28815e-05
1.84421e-19
9.28815e-05
-7.13582e-19
9.28815e-05
-4.83008e-20
9.28815e-05
-1.16917e-19
9.28815e-05
-1.41726e-19
9.28815e-05
-1.61614e-19
9.28815e-05
-1.19422e-18
-2.0228e-18
0.000153091
-3.01717e-18
0.000153091
-2.10834e-18
0.000153091
-1.182e-18
0.000153091
-5.32039e-19
0.000153091
-2.68328e-19
0.000153091
-2.64102e-19
0.000153091
-2.34775e-19
0.000153091
-1.03434e-19
0.000153091
-2.03629e-19
0.000153091
-2.59913e-19
0.000153091
-2.66137e-19
0.000153091
-3.20679e-19
0.000153091
-2.75114e-19
0.000153091
-1.08925e-19
0.000153091
-7.24689e-20
0.000153091
-9.31032e-20
0.000153091
-9.10561e-20
0.000153091
-1.29531e-19
0.000153091
-4.7542e-20
0.000153091
2.19251e-20
0.000153091
-8.06107e-20
0.000153091
-2.65374e-20
0.000153091
1.11847e-19
0.000153091
4.36039e-20
0.000153091
3.03925e-21
0.000153091
-1.47794e-19
0.000153091
-7.39797e-20
0.000153091
7.1584e-20
0.000153091
-1.10185e-19
0.000153091
-1.24694e-19
0.000153091
-6.52955e-20
0.000153091
-3.7e-20
0.000153091
-6.49013e-20
0.000153091
-1.12205e-19
0.000153091
-1.50761e-19
0.000153091
-9.40593e-20
0.000153091
-2.35092e-19
0.000153091
-9.0987e-20
0.000153091
-1.54971e-20
0.000153091
-1.27751e-19
0.000153091
-2.74083e-20
0.000153091
-5.16685e-20
0.000153091
1.51669e-20
0.000153091
2.08272e-19
0.000153091
2.6178e-19
0.000153091
2.33003e-19
0.000153091
1.5046e-19
0.000153091
-7.08366e-20
0.000153091
-3.21462e-20
0.000153091
1.08168e-19
0.000153091
1.08315e-19
0.000153091
1.18458e-20
0.000153091
-8.366e-20
0.000153091
3.92581e-20
0.000153091
1.14243e-19
0.000153091
-7.72329e-20
0.000153091
-5.5404e-20
0.000153091
-2.26647e-19
0.000153091
-1.74331e-19
0.000153091
-5.1759e-20
0.000153091
-2.14206e-20
0.000153091
1.45606e-20
0.000153091
-1.48579e-20
0.000153091
6.6703e-20
0.000153091
6.64557e-20
0.000153091
1.30636e-19
0.000153091
-1.14273e-19
0.000153091
-1.28046e-19
0.000153091
1.83662e-19
0.000153091
1.51592e-19
0.000153091
9.90866e-20
0.000153091
1.50498e-19
0.000153091
2.8022e-19
0.000153091
-8.34455e-20
0.000153091
-3.26895e-19
0.000153091
2.14975e-19
0.000153091
2.06161e-19
0.000153091
-6.3925e-20
0.000153091
-1.36836e-19
0.000153091
9.30231e-20
0.000153091
1.50065e-19
0.000153091
3.13787e-20
0.000153091
7.25091e-20
0.000153091
9.8352e-20
0.000153091
-1.49588e-20
0.000153091
-2.24762e-20
0.000153091
-1.49047e-19
0.000153091
-4.49642e-20
0.000153091
-4.64574e-20
0.000153091
2.83909e-20
0.000153091
1.31608e-19
0.000153091
-3.47591e-20
0.000153091
7.61406e-20
0.000153091
1.02406e-19
0.000153091
-3.16824e-20
0.000153091
-2.14901e-19
0.000153091
1.47046e-20
0.000153091
2.68514e-19
0.000153091
-1.43923e-19
0.000153091
-1.18544e-19
0.000153091
4.31499e-19
0.000153091
3.08483e-19
0.000153091
-3.56574e-20
0.000153091
-2.11007e-19
0.000153091
4.12678e-20
0.000153091
1.17425e-19
0.000153091
-1.72767e-19
0.000153091
-1.34901e-19
0.000153091
2.82678e-19
0.000153091
2.05275e-19
0.000153091
-1.321e-19
0.000153091
-1.86862e-19
0.000153091
-6.00226e-20
0.000153091
3.69907e-19
0.000153091
3.19252e-19
0.000153091
-1.87096e-19
0.000153091
-1.01794e-19
0.000153091
2.74961e-19
0.000153091
1.8061e-19
0.000153091
-6.78068e-20
0.000153091
-9.72076e-20
0.000153091
7.03329e-20
0.000153091
1.04357e-19
0.000153091
-8.06683e-20
0.000153091
-5.385e-20
0.000153091
2.52765e-19
0.000153091
1.48568e-19
0.000153091
-3.23212e-20
0.000153091
4.08422e-20
0.000153091
5.98998e-20
0.000153091
7.90192e-20
0.000153091
-4.74961e-20
0.000153091
1.77937e-19
0.000153091
-8.8422e-20
0.000153091
-2.32412e-19
0.000153091
6.05262e-20
0.000153091
-2.47793e-19
0.000153091
-1.69009e-19
0.000153091
2.2803e-19
0.000153091
2.27198e-20
0.000153091
-4.33906e-19
0.000153091
-3.39583e-19
0.000153091
5.09732e-19
0.000153091
7.1477e-19
0.000153091
-1.61041e-19
0.000153091
1.33713e-19
0.000153091
7.60745e-19
0.000153091
-5.0999e-20
0.000153091
-2.83617e-19
0.000153091
1.17144e-19
0.000153091
-1.84904e-19
0.000153091
1.47298e-19
0.000153091
2.17931e-19
0.000153091
-5.10932e-19
0.000153091
-1.4662e-19
0.000153091
-5.59318e-20
0.000153091
-4.77691e-19
0.000153091
-3.3883e-19
0.000153091
-2.67684e-19
0.000153091
3.69562e-19
0.000153091
1.49044e-19
0.000153091
-2.19973e-19
0.000153091
-1.91862e-19
0.000153091
-4.99781e-20
0.000153091
-3.84792e-20
0.000153091
-3.24869e-20
0.000153091
-2.95097e-20
0.000153091
-3.73036e-19
0.000153091
2.60527e-19
0.000153091
3.77363e-19
0.000153091
-2.13521e-19
0.000153091
3.9572e-20
0.000153091
3.09951e-19
0.000153091
-1.00871e-19
0.000153091
-2.50998e-19
0.000153091
2.72155e-19
0.000153091
5.93691e-19
0.000153091
-9.24748e-20
0.000153091
-2.1004e-19
0.000153091
4.92278e-19
0.000153091
-2.11156e-20
0.000153091
-3.51255e-19
0.000153091
-1.87983e-20
0.000153091
-6.24448e-20
0.000153091
1.88598e-19
0.000153091
-2.98398e-20
0.000153091
-3.91342e-19
0.000153091
-2.07169e-19
0.000153091
1.62891e-19
0.000153091
7.35235e-20
0.000153091
-1.40007e-19
0.000153091
-6.29582e-20
0.000153091
2.03209e-19
0.000153091
6.03864e-19
0.000153091
1.28962e-19
0.000153091
1.031e-19
0.000153091
5.44254e-19
0.000153091
-2.2839e-19
0.000153091
-7.20167e-19
0.000153091
-1.7273e-19
0.000153091
9.63557e-21
0.000153091
-2.46512e-19
0.000153091
5.08782e-19
0.000153091
1.62646e-19
0.000153091
4.89732e-19
0.000153091
5.65873e-19
0.000153091
-6.56744e-19
0.000153091
-6.1141e-19
0.000153091
-6.51269e-20
0.000153091
9.63947e-20
0.000153091