/*--------------------------------*- C++ -*----------------------------------*\
| =========                 |                                                 |
| \\      /  F ield         | OpenFOAM: The Open Source CFD Toolbox           |
|  \\    /   O peration     | Version:  2112                                  |
|   \\  /    A nd           | Website:  www.openfoam.com                      |
|    \\/     M anipulation  |                                                 |
\*---------------------------------------------------------------------------*/
FoamFile
{
    version     2.0;
    format      ascii;
    arch        "LSB;label=32;scalar=64";
    class       surfaceScalarField;
    location    "4";
    object      phi;
}
// * * * * * * * * * * * * * * * * * * * * * * * * * * * * * * * * * * * * * //

dimensions      [0 3 -1 0 0 0 0];

oriented        oriented;

internalField   nonuniform List<scalar> 
50800
(
2.34305e-05
-1.2033e-18
2.34305e-05
-2.59216e-19
2.34305e-05
-1.07384e-19
2.34305e-05
-5.55383e-20
2.34305e-05
-2.15912e-20
2.34305e-05
-2.08433e-20
2.34305e-05
-2.26361e-20
2.34305e-05
1.2889e-22
2.34305e-05
-3.74007e-22
2.34305e-05
-4.91379e-21
2.34305e-05
1.33738e-20
2.34305e-05
3.18673e-21
2.34305e-05
2.93498e-20
2.34305e-05
7.33676e-21
2.34305e-05
-2.58903e-20
2.34305e-05
1.32697e-20
2.34305e-05
1.58122e-20
2.34305e-05
3.81564e-21
2.34305e-05
6.00471e-22
2.34305e-05
6.51662e-21
2.34305e-05
1.01522e-20
2.34305e-05
3.17122e-21
2.34305e-05
-3.65759e-21
2.34305e-05
-1.79192e-20
2.34305e-05
-1.72084e-20
2.34305e-05
-1.34634e-20
2.34305e-05
1.12771e-20
2.34305e-05
-1.87368e-20
2.34305e-05
-3.19219e-20
2.34305e-05
-2.49091e-20
2.34305e-05
8.15716e-21
2.34305e-05
3.42681e-20
2.34305e-05
-6.56179e-22
2.34305e-05
-1.77473e-20
2.34305e-05
-8.48126e-21
2.34305e-05
-2.86154e-21
2.34305e-05
3.31639e-20
2.34305e-05
3.30898e-22
2.34305e-05
-2.70641e-20
2.34305e-05
1.40424e-20
2.34305e-05
-1.02293e-20
2.34305e-05
1.39408e-20
2.34305e-05
1.01603e-20
2.34305e-05
-2.27706e-20
2.34305e-05
1.55607e-20
2.34305e-05
6.33991e-21
2.34305e-05
-2.68526e-21
2.34305e-05
-1.04176e-20
2.34305e-05
-1.56712e-20
2.34305e-05
-2.17612e-20
2.34305e-05
-3.6792e-20
2.34305e-05
1.52233e-20
2.34305e-05
-1.98636e-20
2.34305e-05
-2.10858e-20
2.34305e-05
1.84738e-20
2.34305e-05
-4.5529e-20
2.34305e-05
1.90799e-21
2.34305e-05
-1.40655e-20
2.34305e-05
-1.30264e-20
2.34305e-05
1.80392e-20
2.34305e-05
-5.23327e-20
2.34305e-05
3.85658e-20
2.34305e-05
-4.78434e-21
2.34305e-05
-8.20473e-22
2.34305e-05
4.8989e-20
2.34305e-05
-2.73703e-20
2.34305e-05
2.32532e-20
2.34305e-05
1.62875e-20
2.34305e-05
1.32001e-20
2.34305e-05
1.38147e-20
2.34305e-05
-1.24501e-20
2.34305e-05
6.04191e-21
2.34305e-05
-1.49424e-20
2.34305e-05
3.99843e-22
2.34305e-05
5.07128e-20
2.34305e-05
-4.48675e-20
2.34305e-05
-5.17631e-20
2.34305e-05
2.56712e-20
2.34305e-05
-2.10928e-20
2.34305e-05
2.48423e-20
2.34305e-05
-2.8777e-20
2.34305e-05
-6.94009e-20
2.34305e-05
2.40674e-20
2.34305e-05
3.21085e-20
2.34305e-05
3.0696e-20
2.34305e-05
-2.19786e-21
2.34305e-05
-1.8605e-20
2.34305e-05
3.60656e-21
2.34305e-05
2.66058e-20
2.34305e-05
7.51617e-20
2.34305e-05
-8.85464e-21
2.34305e-05
-6.18681e-20
2.34305e-05
7.36417e-21
2.34305e-05
5.18475e-20
2.34305e-05
2.54726e-21
2.34305e-05
-4.89863e-20
2.34305e-05
1.76185e-20
2.34305e-05
5.51549e-24
2.34305e-05
2.72224e-20
2.34305e-05
1.73556e-20
2.34305e-05
-6.09127e-20
2.34305e-05
1.46162e-20
2.34305e-05
-3.42198e-20
2.34305e-05
2.05035e-20
2.34305e-05
4.2143e-20
2.34305e-05
1.4299e-20
2.34305e-05
-5.44322e-20
2.34305e-05
-3.81452e-21
2.34305e-05
6.94992e-20
2.34305e-05
3.1552e-20
2.34305e-05
3.43377e-20
2.34305e-05
-1.44113e-19
2.34305e-05
3.03895e-20
2.34305e-05
1.12954e-19
2.34305e-05
1.44788e-20
2.34305e-05
-1.54091e-20
2.34305e-05
-1.05664e-19
2.34305e-05
7.41872e-21
2.34305e-05
1.01544e-19
2.34305e-05
2.3719e-20
2.34305e-05
-6.38264e-20
2.34305e-05
-1.15496e-19
2.34305e-05
1.00761e-21
2.34305e-05
1.4834e-19
2.34305e-05
5.9993e-20
2.34305e-05
-6.62005e-20
2.34305e-05
-1.32296e-19
2.34305e-05
2.41546e-20
2.34305e-05
1.34445e-19
2.34305e-05
1.599e-20
2.34305e-05
-4.29219e-20
2.34305e-05
-8.27313e-20
2.34305e-05
2.30419e-20
2.34305e-05
8.90085e-20
2.34305e-05
-2.30211e-20
2.34305e-05
-3.33023e-20
2.34305e-05
-8.4358e-20
2.34305e-05
-5.63626e-21
2.34305e-05
8.12793e-20
2.34305e-05
-1.21422e-21
2.34305e-05
-3.77175e-20
2.34305e-05
-7.9701e-20
2.34305e-05
3.57221e-20
2.34305e-05
5.6407e-20
2.34305e-05
-1.68482e-20
2.34305e-05
-1.19764e-20
2.34305e-05
-6.18528e-20
2.34305e-05
1.60662e-20
2.34305e-05
-4.95109e-21
2.34305e-05
1.52978e-21
2.34305e-05
6.82557e-20
2.34305e-05
-8.41323e-20
2.34305e-05
-7.26107e-20
2.34305e-05
4.38354e-20
2.34305e-05
4.21549e-20
2.34305e-05
5.1304e-20
2.34305e-05
-4.34225e-20
2.34305e-05
-6.31953e-20
2.34305e-05
4.40374e-20
2.34305e-05
4.08603e-20
2.34305e-05
8.31091e-20
2.34305e-05
-7.91982e-20
2.34305e-05
-1.99877e-20
2.34305e-05
1.07643e-19
2.34305e-05
-7.91291e-20
2.34305e-05
5.64773e-20
2.34305e-05
1.48277e-21
2.34305e-05
-2.81497e-20
2.34305e-05
8.47416e-20
2.34305e-05
1.64123e-20
2.34305e-05
2.58056e-20
2.34305e-05
-6.84691e-20
2.34305e-05
2.63138e-20
2.34305e-05
6.75657e-20
2.34305e-05
-3.07808e-20
2.34305e-05
-3.49749e-20
2.34305e-05
-7.26397e-20
2.34305e-05
9.60777e-20
2.34305e-05
-3.08477e-20
2.34305e-05
-2.36616e-20
2.34305e-05
8.29379e-20
2.34305e-05
-1.60333e-19
2.34305e-05
-2.23856e-21
2.34305e-05
6.29982e-20
2.34305e-05
-2.96531e-20
2.34305e-05
1.10013e-19
2.34305e-05
-1.06873e-19
2.34305e-05
-1.31885e-20
2.34305e-05
1.06265e-19
2.34305e-05
-8.36057e-20
2.34305e-05
3.88733e-20
2.34305e-05
-1.02885e-20
2.34305e-05
-6.59478e-20
2.34305e-05
1.06188e-19
2.34305e-05
-1.01444e-20
2.34305e-05
1.35171e-20
2.34305e-05
-5.37112e-20
2.34305e-05
-2.48367e-20
2.34305e-05
1.38561e-19
2.34305e-05
-8.78893e-20
2.34305e-05
2.75986e-21
2.34305e-05
-7.09043e-20
2.34305e-05
3.00567e-21
2.34305e-05
1.4073e-19
2.34305e-05
-6.37489e-20
2.34305e-05
-7.89539e-20
2.34305e-05
-6.64232e-20
2.34305e-05
6.65827e-20
2.34305e-05
7.84397e-20
2.34305e-05
-2.93133e-20
2.34305e-05
-6.26399e-20
2.34305e-05
-9.3805e-20
2.34305e-05
2.26235e-19
2.34305e-05
4.82461e-21
2.34305e-05
-2.27102e-19
2.34305e-05
1.98226e-19
2.34305e-05
3.10347e-22
2.34305e-05
-4.41202e-20
2.34305e-05
-4.07828e-20
2.34305e-05
-1.43902e-19
2.34305e-05
2.43249e-19
2.34305e-05
2.95577e-20
2.34305e-05
-9.47223e-20
2.34305e-05
-2.76741e-20
2.34305e-05
-1.47506e-19
2.34305e-05
2.35449e-19
2.34305e-05
-8.64935e-21
2.34305e-05
-8.64401e-20
2.34305e-05
5.87647e-20
2.34305e-05
-9.08258e-20
2.34305e-05
1.85494e-19
2.34305e-05
-2.35088e-20
2.34305e-05
-3.64875e-20
2.34305e-05
7.33092e-20
2.34305e-05
-1.73695e-19
2.34305e-05
7.76763e-20
2.34305e-05
1.77173e-20
2.34305e-05
6.89078e-20
2.34305e-05
1.04476e-19
2.34305e-05
-1.93219e-19
2.34305e-05
1.02303e-19
2.34305e-05
-5.01972e-20
2.34305e-05
1.84735e-20
2.34305e-05
1.19959e-19
2.34305e-05
-2.66506e-19
2.34305e-05
3.84883e-20
2.34305e-05
6.78278e-20
2.34305e-05
7.88039e-20
2.34305e-05
3.31202e-20
2.34305e-05
-2.04477e-19
2.34305e-05
1.74601e-19
2.34305e-05
-2.991e-20
2.34305e-05
-1.20265e-19
2.34305e-05
-1.93495e-20
2.34305e-05
-1.30644e-19
2.34305e-05
2.61644e-19
2.34305e-05
-2.83351e-20
2.34305e-05
-6.67018e-20
2.34305e-05
9.40306e-20
2.34305e-05
-1.83716e-19
2.34305e-05
1.05658e-19
2.34305e-05
1.33845e-20
2.34305e-05
-3.02476e-20
2.34305e-05
3.04448e-20
2.34305e-05
-1.168e-19
2.34305e-05
1.77623e-19
2.34305e-05
1.17282e-20
2.34305e-05
-3.31311e-20
2.34305e-05
6.28199e-21
2.34305e-05
-1.5094e-19
2.34305e-05
1.19333e-19
2.34305e-05
5.62358e-21
2.34305e-05
3.65836e-21
2.34305e-05
4.42893e-21
2.34305e-05
-1.4569e-19
2.34305e-05
1.03774e-19
2.34305e-05
8.44468e-21
2.34305e-05
-5.04972e-20
2.34305e-05
7.38037e-20
2.34305e-05
-1.37702e-19
2.34305e-05
5.83768e-20
2.34305e-05
4.39518e-20
2.34305e-05
-2.46733e-20
2.34305e-05
3.08147e-20
2.34305e-05
-1.28027e-19
2.34305e-05
6.85363e-20
2.34305e-05
1.04239e-19
2.34305e-05
-1.99539e-20
2.34305e-05
-7.6117e-20
2.34305e-05
-9.60943e-20
2.34305e-05
1.44541e-19
2.34305e-05
1.59947e-20
2.34305e-05
-6.17391e-20
2.34305e-05
-3.71654e-20
2.34305e-05
-4.0389e-20
2.34305e-05
1.28378e-19
2.34305e-05
7.63168e-21
2.34305e-05
-3.44886e-20
2.34305e-05
-8.50454e-20
2.34305e-05
-4.3649e-20
2.34305e-05
1.58572e-19
2.34305e-05
3.68367e-20
2.34305e-05
5.24686e-20
2.34305e-05
-1.05935e-19
2.34305e-05
-1.02235e-19
2.34305e-05
8.91303e-20
2.34305e-05
5.41838e-21
2.34305e-05
6.93982e-20
2.34305e-05
-1.21624e-19
2.34305e-05
7.04394e-21
2.34305e-05
5.23426e-20
2.34305e-05
-1.18739e-19
2.34305e-05
1.00798e-19
2.34305e-05
-4.29986e-20
2.34305e-05
-1.11082e-19
2.34305e-05
3.56036e-20
2.34305e-05
-1.08541e-19
2.34305e-05
5.04366e-20
2.34305e-05
-1.17555e-19
-3.63807e-19
6.912e-05
-5.12898e-19
6.912e-05
-3.07191e-19
6.912e-05
-1.84612e-19
6.912e-05
-1.02615e-19
6.912e-05
-3.95418e-20
6.912e-05
-5.9375e-20
6.912e-05
-4.87185e-20
6.912e-05
3.54024e-21
6.912e-05
3.78775e-20
6.912e-05
4.03361e-21
6.912e-05
1.02162e-20
6.912e-05
1.62567e-20
6.912e-05
9.68968e-20
6.912e-05
2.43168e-20
6.912e-05
-4.78203e-20
6.912e-05
2.80958e-20
6.912e-05
3.51205e-20
6.912e-05
3.62602e-20
6.912e-05
3.34585e-20
6.912e-05
1.45345e-20
6.912e-05
4.89562e-20
6.912e-05
-3.86684e-21
6.912e-05
-4.06182e-20
6.912e-05
-5.0269e-20
6.912e-05
-4.98199e-20
6.912e-05
-4.10936e-20
6.912e-05
4.93312e-22
6.912e-05
-5.82751e-20
6.912e-05
-1.03101e-19
6.912e-05
-7.92891e-20
6.912e-05
3.39215e-20
6.912e-05
8.4336e-20
6.912e-05
-1.28199e-20
6.912e-05
-4.78486e-20
6.912e-05
-3.68978e-21
6.912e-05
-1.06488e-22
6.912e-05
6.77265e-20
6.912e-05
-2.86269e-23
6.912e-05
-5.69256e-20
6.912e-05
1.06999e-20
6.912e-05
-3.04202e-20
6.912e-05
1.17545e-20
6.912e-05
3.00332e-20
6.912e-05
-5.82941e-20
6.912e-05
1.52623e-20
6.912e-05
2.65706e-20
6.912e-05
-2.24319e-21
6.912e-05
-4.26473e-20
6.912e-05
-7.01993e-20
6.912e-05
-7.6052e-20
6.912e-05
-9.07347e-20
6.912e-05
-1.63553e-20
6.912e-05
-5.03444e-20
6.912e-05
-5.3108e-20
6.912e-05
1.36582e-21
6.912e-05
-9.66944e-20
6.912e-05
-4.32742e-20
6.912e-05
-3.79369e-20
6.912e-05
1.5638e-21
6.912e-05
2.82968e-20
6.912e-05
-1.28753e-19
6.912e-05
7.4946e-20
6.912e-05
-3.11012e-21
6.912e-05
-2.56862e-21
6.912e-05
1.1858e-19
6.912e-05
-2.60866e-20
6.912e-05
7.76802e-20
6.912e-05
3.84352e-20
6.912e-05
3.10702e-20
6.912e-05
7.61995e-20
6.912e-05
-2.12073e-20
6.912e-05
6.67891e-21
6.912e-05
-3.71471e-20
6.912e-05
2.26794e-21
6.912e-05
1.033e-19
6.912e-05
-1.15284e-19
6.912e-05
-1.04949e-19
6.912e-05
2.32406e-20
6.912e-05
-6.02234e-20
6.912e-05
4.13125e-21
6.912e-05
-8.14219e-20
6.912e-05
-1.62657e-19
6.912e-05
4.34791e-20
6.912e-05
1.09764e-19
6.912e-05
9.2228e-20
6.912e-05
-1.40147e-20
6.912e-05
1.17416e-21
6.912e-05
1.71868e-20
6.912e-05
6.42202e-20
6.912e-05
1.94638e-19
6.912e-05
-3.09468e-20
6.912e-05
-1.34528e-19
6.912e-05
2.95464e-20
6.912e-05
9.92576e-20
6.912e-05
1.87384e-20
6.912e-05
-8.15796e-20
6.912e-05
2.39214e-20
6.912e-05
1.14566e-20
6.912e-05
3.40342e-20
6.912e-05
1.14918e-20
6.912e-05
-9.91628e-20
6.912e-05
-8.8345e-21
6.912e-05
-8.02476e-20
6.912e-05
3.56553e-20
6.912e-05
1.16452e-19
6.912e-05
6.93659e-20
6.912e-05
-1.11303e-19
6.912e-05
-3.0185e-20
6.912e-05
1.93117e-19
6.912e-05
1.46542e-19
6.912e-05
2.58284e-20
6.912e-05
-3.06032e-19
6.912e-05
5.56343e-20
6.912e-05
2.61398e-19
6.912e-05
7.55499e-20
6.912e-05
-4.87969e-20
6.912e-05
-2.4986e-19
6.912e-05
-3.35247e-20
6.912e-05
2.7382e-19
6.912e-05
7.7916e-20
6.912e-05
-1.98466e-19
6.912e-05
-3.02214e-19
6.912e-05
-1.51012e-21
6.912e-05
3.48163e-19
6.912e-05
1.82707e-19
6.912e-05
-1.67837e-19
6.912e-05
-3.17843e-19
6.912e-05
9.43966e-20
6.912e-05
3.20502e-19
6.912e-05
3.8096e-20
6.912e-05
-1.03166e-19
6.912e-05
-1.83668e-19
6.912e-05
5.88608e-20
6.912e-05
1.91385e-19
6.912e-05
-4.09774e-20
6.912e-05
-1.14454e-19
6.912e-05
-2.24944e-19
6.912e-05
-5.88764e-20
6.912e-05
1.90337e-19
6.912e-05
1.01778e-20
6.912e-05
-1.09758e-19
6.912e-05
-1.84376e-19
6.912e-05
5.10194e-20
6.912e-05
1.23946e-19
6.912e-05
-4.19596e-20
6.912e-05
-4.64896e-20
6.912e-05
-1.6004e-19
6.912e-05
4.20632e-20
6.912e-05
2.2138e-20
6.912e-05
-3.71035e-20
6.912e-05
1.31639e-19
6.912e-05
-1.69487e-19
6.912e-05
-1.73874e-19
6.912e-05
7.45682e-20
6.912e-05
1.06694e-19
6.912e-05
1.25244e-19
6.912e-05
-7.19328e-20
6.912e-05
-1.34938e-19
6.912e-05
9.32733e-20
6.912e-05
1.5272e-19
6.912e-05
1.9899e-19
6.912e-05
-1.7177e-19
6.912e-05
-1.68616e-20
6.912e-05
2.3218e-19
6.912e-05
-1.18433e-19
6.912e-05
8.07775e-20
6.912e-05
5.16916e-20
6.912e-05
2.50947e-21
6.912e-05
1.69787e-19
6.912e-05
7.96036e-20
6.912e-05
3.18817e-20
6.912e-05
-1.34933e-19
6.912e-05
6.55787e-20
6.912e-05
1.64205e-19
6.912e-05
-3.49435e-20
6.912e-05
-1.46576e-19
6.912e-05
-1.53836e-19
6.912e-05
1.27022e-19
6.912e-05
-6.18901e-20
6.912e-05
3.9146e-20
6.912e-05
1.13305e-19
6.912e-05
-3.71974e-19
6.912e-05
-5.13917e-20
6.912e-05
1.68164e-19
6.912e-05
9.47025e-21
6.912e-05
1.54604e-19
6.912e-05
-1.91589e-19
6.912e-05
-3.67802e-20
6.912e-05
2.10514e-19
6.912e-05
-1.06547e-19
6.912e-05
4.33877e-20
6.912e-05
-2.68434e-20
6.912e-05
-8.8389e-20
6.912e-05
1.6993e-19
6.912e-05
4.54269e-20
6.912e-05
2.95858e-20
6.912e-05
-1.14877e-19
6.912e-05
-4.83892e-20
6.912e-05
1.87894e-19
6.912e-05
-1.11402e-19
6.912e-05
-3.62413e-20
6.912e-05
-1.37623e-19
6.912e-05
3.8357e-20
6.912e-05
2.16485e-19
6.912e-05
-1.11863e-19
6.912e-05
-1.7192e-19
6.912e-05
-1.49281e-19
6.912e-05
1.02139e-19
6.912e-05
1.15923e-19
6.912e-05
-1.95569e-20
6.912e-05
-8.86442e-20
6.912e-05
-1.76687e-19
6.912e-05
4.37981e-19
6.912e-05
7.26658e-21
6.912e-05
-4.07956e-19
6.912e-05
3.52923e-19
6.912e-05
-2.16913e-20
6.912e-05
-1.78982e-20
6.912e-05
-1.00728e-19
6.912e-05
-2.99758e-19
6.912e-05
4.90743e-19
6.912e-05
6.66282e-20
6.912e-05
-1.57704e-19
6.912e-05
-7.51488e-20
6.912e-05
-3.18739e-19
6.912e-05
4.91301e-19
6.912e-05
3.95372e-20
6.912e-05
-1.83194e-19
6.912e-05
9.34818e-20
6.912e-05
-1.33227e-19
6.912e-05
4.20025e-19
6.912e-05
-1.52898e-20
6.912e-05
-7.47108e-20
6.912e-05
1.17055e-19
6.912e-05
-3.60751e-19
6.912e-05
1.38229e-19
6.912e-05
7.14395e-20
6.912e-05
2.50575e-19
6.912e-05
2.35167e-19
6.912e-05
-4.12113e-19
6.912e-05
1.65548e-19
6.912e-05
-1.21951e-19
6.912e-05
8.17811e-20
6.912e-05
2.18049e-19
6.912e-05
-5.96538e-19
6.912e-05
7.67913e-20
6.912e-05
1.5637e-19
6.912e-05
1.89805e-19
6.912e-05
5.08002e-20
6.912e-05
-4.40006e-19
6.912e-05
3.79822e-19
6.912e-05
-7.87476e-20
6.912e-05
-3.32665e-19
6.912e-05
-1.47995e-19
6.912e-05
-2.40821e-19
6.912e-05
6.24208e-19
6.912e-05
-3.49876e-20
6.912e-05
-1.14983e-19
6.912e-05
1.71621e-19
6.912e-05
-3.88147e-19
6.912e-05
2.07898e-19
6.912e-05
2.93442e-20
6.912e-05
-2.31956e-20
6.912e-05
3.1018e-20
6.912e-05
-2.15476e-19
6.912e-05
4.11255e-19
6.912e-05
1.10984e-20
6.912e-05
-6.42966e-20
6.912e-05
-8.86135e-21
6.912e-05
-3.59981e-19
6.912e-05
2.67157e-19
6.912e-05
4.03257e-20
6.912e-05
2.68014e-20
6.912e-05
-2.32491e-20
6.912e-05
-3.73678e-19
6.912e-05
2.57026e-19
6.912e-05
-3.01094e-21
6.912e-05
-5.14076e-20
6.912e-05
1.23694e-19
6.912e-05
-3.68916e-19
6.912e-05
1.71169e-19
6.912e-05
5.71742e-20
6.912e-05
-1.22132e-20
6.912e-05
8.80809e-20
6.912e-05
-3.37997e-19
6.912e-05
2.20655e-19
6.912e-05
2.43849e-19
6.912e-05
-8.91636e-20
6.912e-05
-1.8251e-19
6.912e-05
-2.25315e-19
6.912e-05
3.31746e-19
6.912e-05
3.27508e-20
6.912e-05
-1.75296e-19
6.912e-05
-2.17365e-20
6.912e-05
-1.27655e-19
6.912e-05
2.53052e-19
6.912e-05
1.02613e-19
6.912e-05
-1.48855e-19
6.912e-05
-1.47356e-19
6.912e-05
-1.14318e-19
6.912e-05
3.49742e-19
6.912e-05
2.2012e-19
6.912e-05
6.83047e-20
6.912e-05
-2.51567e-19
6.912e-05
-2.41661e-19
6.912e-05
2.41805e-19
6.912e-05
4.12536e-20
6.912e-05
4.66489e-20
6.912e-05
-2.49699e-19
6.912e-05
-1.52678e-20
6.912e-05
1.42486e-19
6.912e-05
-2.31763e-19
6.912e-05
1.2226e-19
6.912e-05
-6.5921e-20
6.912e-05
-2.55048e-19
6.912e-05
-1.09275e-20
6.912e-05
-2.07348e-19
6.912e-05
1.14671e-19
6.912e-05
-1.87205e-19
-5.48157e-19
0.000113638
-2.41182e-19
0.000113638
-2.71355e-19
0.000113638
-2.29207e-19
0.000113638
-1.50821e-19
0.000113638
-8.36761e-20
0.000113638
-9.18389e-20
0.000113638
-4.76977e-20
0.000113638
2.08728e-20
0.000113638
8.27336e-20
0.000113638
5.28018e-20
0.000113638
8.45312e-21
0.000113638
6.34569e-20
0.000113638
1.67119e-19
0.000113638
4.06638e-20
0.000113638
-3.58018e-20
0.000113638
3.9723e-20
0.000113638
7.98905e-20
0.000113638
8.25894e-20
0.000113638
4.82321e-20
0.000113638
6.86822e-20
0.000113638
6.73779e-20
0.000113638
-1.47557e-20
0.000113638
-6.95008e-20
0.000113638
-1.10904e-19
0.000113638
-1.06135e-19
0.000113638
-8.42737e-20
0.000113638
-2.55049e-20
0.000113638
-1.27231e-19
0.000113638
-2.06259e-19
0.000113638
-1.20952e-19
0.000113638
1.4113e-20
0.000113638
1.19804e-19
0.000113638
2.41228e-21
0.000113638
-4.35954e-20
0.000113638
-1.36683e-20
0.000113638
-2.77529e-21
0.000113638
8.35969e-20
0.000113638
-1.14039e-20
0.000113638
-9.5321e-20
0.000113638
4.32893e-21
0.000113638
-2.00612e-20
0.000113638
2.01486e-20
0.000113638
1.21209e-20
0.000113638
-7.34798e-20
0.000113638
8.69402e-21
0.000113638
5.32033e-20
0.000113638
-9.06747e-21
0.000113638
-9.58159e-20
0.000113638
-1.35313e-19
0.000113638
-1.58369e-19
0.000113638
-1.65618e-19
0.000113638
-8.12943e-20
0.000113638
-6.6006e-20
0.000113638
-9.74209e-20
0.000113638
-3.10742e-20
0.000113638
-1.57506e-19
0.000113638
-9.27017e-20
0.000113638
-6.15068e-20
0.000113638
-4.46002e-20
0.000113638
2.96999e-20
0.000113638
-1.64639e-19
0.000113638
7.74253e-20
0.000113638
-4.19878e-21
0.000113638
4.05302e-20
0.000113638
1.78113e-19
0.000113638
-3.99238e-20
0.000113638
1.46385e-19
0.000113638
1.0553e-19
0.000113638
8.84032e-20
0.000113638
1.3235e-19
0.000113638
-4.25738e-20
0.000113638
1.50201e-20
0.000113638
-5.91216e-20
0.000113638
3.77119e-20
0.000113638
9.76086e-20
0.000113638
-1.8127e-19
0.000113638
-1.61026e-19
0.000113638
-2.62194e-20
0.000113638
-1.17874e-19
0.000113638
-6.23619e-21
0.000113638
-1.3739e-19
0.000113638
-2.4707e-19
0.000113638
5.72407e-20
0.000113638
1.9165e-19
0.000113638
1.66095e-19
0.000113638
1.0502e-20
0.000113638
1.43681e-20
0.000113638
6.27977e-20
0.000113638
1.10298e-19
0.000113638
2.74426e-19
0.000113638
-3.05609e-21
0.000113638
-1.20076e-19
0.000113638
3.43169e-20
0.000113638
1.28404e-19
0.000113638
4.54422e-20
0.000113638
-1.03649e-19
0.000113638
1.1062e-20
0.000113638
2.92586e-20
0.000113638
4.14518e-21
0.000113638
-1.71507e-21
0.000113638
-9.47431e-20
0.000113638
-5.24474e-20
0.000113638
-1.06997e-19
0.000113638
2.77728e-20
0.000113638
2.12584e-19
0.000113638
1.52444e-19
0.000113638
-1.25914e-19
0.000113638
-8.14425e-20
0.000113638
3.15775e-19
0.000113638
3.00376e-19
0.000113638
6.56203e-21
0.000113638
-4.14755e-19
0.000113638
7.09045e-20
0.000113638
4.15682e-19
0.000113638
1.99288e-19
0.000113638
-6.60617e-20
0.000113638
-4.00903e-19
0.000113638
-8.37586e-20
0.000113638
4.2745e-19
0.000113638
1.40123e-19
0.000113638
-3.70951e-19
0.000113638
-5.02405e-19
0.000113638
-1.46365e-20
0.000113638
5.31495e-19
0.000113638
3.24219e-19
0.000113638
-2.31966e-19
0.000113638
-4.88929e-19
0.000113638
1.7171e-19
0.000113638
5.01058e-19
0.000113638
6.89378e-20
0.000113638
-1.7971e-19
0.000113638
-2.50658e-19
0.000113638
4.69627e-20
0.000113638
2.75088e-19
0.000113638
-6.16191e-20
0.000113638
-2.06091e-19
0.000113638
-3.84687e-19
0.000113638
-8.60849e-20
0.000113638
2.93571e-19
0.000113638
1.50336e-20
0.000113638
-2.4366e-19
0.000113638
-3.21244e-19
0.000113638
7.64158e-20
0.000113638
1.62717e-19
0.000113638
-4.8252e-20
0.000113638
-1.13801e-19
0.000113638
-2.6189e-19
0.000113638
7.01415e-20
0.000113638
2.90785e-20
0.000113638
-6.98949e-20
0.000113638
1.48703e-19
0.000113638
-2.42309e-19
0.000113638
-2.33502e-19
0.000113638
8.56923e-20
0.000113638
1.65391e-19
0.000113638
1.8546e-19
0.000113638
-1.09924e-19
0.000113638
-1.74598e-19
0.000113638
1.69612e-19
0.000113638
2.85274e-19
0.000113638
2.96681e-19
0.000113638
-2.12898e-19
0.000113638
2.28084e-20
0.000113638
3.54429e-19
0.000113638
-1.04129e-19
0.000113638
1.06274e-19
0.000113638
1.1993e-19
0.000113638
1.3432e-19
0.000113638
2.81846e-19
0.000113638
1.19553e-19
0.000113638
2.84682e-21
0.000113638
-1.71856e-19
0.000113638
1.20776e-19
0.000113638
2.74104e-19
0.000113638
-6.2913e-20
0.000113638
-2.6487e-19
0.000113638
-2.50478e-19
0.000113638
6.57794e-20
0.000113638
-3.84284e-20
0.000113638
1.48229e-19
0.000113638
8.14148e-20
0.000113638
-5.87529e-19
0.000113638
-7.2139e-20
0.000113638
2.4376e-19
0.000113638
7.02806e-20
0.000113638
1.42506e-19
0.000113638
-2.36022e-19
0.000113638
-2.27254e-20
0.000113638
2.76234e-19
0.000113638
-9.33722e-20
0.000113638
-8.75684e-21
0.000113638
-3.61857e-20
0.000113638
-7.52964e-20
0.000113638
2.05657e-19
0.000113638
1.61227e-19
0.000113638
4.25441e-20
0.000113638
-1.59761e-19
0.000113638
-7.89664e-20
0.000113638
1.67731e-19
0.000113638
-9.20783e-20
0.000113638
-6.5268e-20
0.000113638
-1.77475e-19
0.000113638
8.82261e-20
0.000113638
2.18389e-19
0.000113638
-1.48463e-19
0.000113638
-2.36408e-19
0.000113638
-2.43776e-19
0.000113638
1.26355e-19
0.000113638
1.0414e-19
0.000113638
-2.04401e-20
0.000113638
-5.84651e-20
0.000113638
-2.29395e-19
0.000113638
5.69097e-19
0.000113638
4.35975e-20
0.000113638
-4.812e-19
0.000113638
4.2807e-19
0.000113638
-6.45223e-20
0.000113638
4.0875e-20
0.000113638
-1.48768e-19
0.000113638
-4.54687e-19
0.000113638
6.58046e-19
0.000113638
7.79418e-20
0.000113638
-1.69829e-19
0.000113638
-9.64147e-20
0.000113638
-4.82799e-19
0.000113638
6.77734e-19
0.000113638
1.08485e-19
0.000113638
-2.20795e-19
0.000113638
1.42725e-19
0.000113638
-1.35815e-19
0.000113638
6.17289e-19
0.000113638
5.53577e-20
0.000113638
-1.34023e-19
0.000113638
1.19265e-19
0.000113638
-4.61435e-19
0.000113638
1.4472e-19
0.000113638
7.70978e-20
0.000113638
5.05797e-19
0.000113638
3.99756e-19
0.000113638
-5.87307e-19
0.000113638
1.84899e-19
0.000113638
-1.80636e-19
0.000113638
1.40791e-19
0.000113638
2.54934e-19
0.000113638
-8.64203e-19
0.000113638
1.25519e-19
0.000113638
1.80175e-19
0.000113638
2.69201e-19
0.000113638
9.3345e-20
0.000113638
-5.93229e-19
0.000113638
5.10094e-19
0.000113638
-1.43651e-19
0.000113638
-5.67133e-19
0.000113638
-3.18221e-19
0.000113638
-2.64454e-19
0.000113638
9.28478e-19
0.000113638
-2.19564e-20
0.000113638
-1.37437e-19
0.000113638
2.24636e-19
0.000113638
-5.40525e-19
0.000113638
2.51957e-19
0.000113638
9.00255e-21
0.000113638
8.49102e-20
0.000113638
1.5678e-20
0.000113638
-2.91738e-19
0.000113638
6.14622e-19
0.000113638
3.21157e-21
0.000113638
-6.00485e-20
0.000113638
-4.72619e-20
0.000113638
-5.5577e-19
0.000113638
4.2442e-19
0.000113638
5.66946e-20
0.000113638
3.16849e-20
0.000113638
-6.31764e-20
0.000113638
-5.57748e-19
0.000113638
4.04627e-19
0.000113638
-2.18183e-20
0.000113638
-2.00129e-20
0.000113638
1.39931e-19
0.000113638
-6.20366e-19
0.000113638
2.61434e-19
0.000113638
5.3626e-20
0.000113638
1.44355e-20
0.000113638
1.39915e-19
0.000113638
-5.24793e-19
0.000113638
4.35516e-19
0.000113638
3.60217e-19
0.000113638
-2.01748e-19
0.000113638
-2.81064e-19
0.000113638
-3.48127e-19
0.000113638
4.82164e-19
0.000113638
5.60706e-20
0.000113638
-2.45176e-19
0.000113638
-1.31378e-20
0.000113638
-2.25161e-19
0.000113638
3.47554e-19
0.000113638
2.22282e-19
0.000113638
-2.6638e-19
0.000113638
-1.83419e-19
0.000113638
-1.87879e-19
0.000113638
5.25429e-19
0.000113638
4.6491e-19
0.000113638
6.07742e-20
0.000113638
-4.03362e-19
0.000113638
-3.39482e-19
0.000113638
3.71934e-19
0.000113638
7.69781e-20
0.000113638
-7.95427e-21
0.000113638
-3.3772e-19
0.000113638
-7.28691e-20
0.000113638
2.50059e-19
0.000113638
-3.12944e-19
0.000113638
5.29264e-20
0.000113638
-3.00751e-20
0.000113638
-4.11214e-19
0.000113638
-1.17241e-19
0.000113638
-2.96595e-19
0.000113638
1.79422e-19
0.000113638
-1.84914e-19
-6.064e-19
0.000156984
-1.46387e-19
0.000156984
-2.21097e-19
0.000156984
-2.06768e-19
0.000156984
-1.24435e-19
0.000156984
-1.42073e-19
0.000156984
-6.96005e-20
0.000156984
-5.78595e-20
0.000156984
3.86741e-20
0.000156984
1.41132e-19
0.000156984
5.40723e-20
0.000156984
4.05027e-20
0.000156984
7.91837e-20
0.000156984
1.98146e-19
0.000156984
8.71711e-20
0.000156984
-3.52398e-20
0.000156984
9.16323e-20
0.000156984
1.41077e-19
0.000156984
1.55202e-19
0.000156984
8.81852e-20
0.000156984
7.01609e-20
0.000156984
1.10017e-19
0.000156984
-2.00524e-21
0.000156984
-1.1954e-19
0.000156984
-1.65707e-19
0.000156984
-1.64328e-19
0.000156984
-1.54553e-19
0.000156984
-8.13179e-20
0.000156984
-1.90667e-19
0.000156984
-3.39235e-19
0.000156984
-2.23541e-19
0.000156984
2.97868e-20
0.000156984
1.38303e-19
0.000156984
3.85956e-20
0.000156984
-3.37672e-20
0.000156984
-2.4634e-20
0.000156984
-4.8606e-20
0.000156984
5.0702e-20
0.000156984
5.1513e-21
0.000156984
-9.34274e-20
0.000156984
-3.50394e-20
0.000156984
-3.79321e-20
0.000156984
3.16278e-20
0.000156984
8.25007e-21
0.000156984
-1.49958e-19
0.000156984
-8.63454e-21
0.000156984
6.98919e-20
0.000156984
-2.5382e-20
0.000156984
-8.94235e-20
0.000156984
-2.29848e-19
0.000156984
-2.53142e-19
0.000156984
-2.63931e-19
0.000156984
-1.47644e-19
0.000156984
-1.47973e-19
0.000156984
-1.81543e-19
0.000156984
-5.78436e-20
0.000156984
-2.46352e-19
0.000156984
-1.35858e-19
0.000156984
-1.11448e-19
0.000156984
-8.30824e-20
0.000156984
-4.92102e-21
0.000156984
-2.12558e-19
0.000156984
9.92572e-20
0.000156984
1.96662e-20
0.000156984
6.03272e-20
0.000156984
2.65303e-19
0.000156984
1.02654e-20
0.000156984
2.31061e-19
0.000156984
1.17416e-19
0.000156984
1.60889e-19
0.000156984
2.29167e-19
0.000156984
-5.42323e-20
0.000156984
2.13359e-20
0.000156984
-7.12289e-20
0.000156984
5.74082e-20
0.000156984
7.33633e-20
0.000156984
-2.71538e-19
0.000156984
-2.00806e-19
0.000156984
-1.0496e-19
0.000156984
-1.75485e-19
0.000156984
-3.48755e-20
0.000156984
-2.05994e-19
0.000156984
-3.25594e-19
0.000156984
4.67303e-20
0.000156984
3.07322e-19
0.000156984
2.79699e-19
0.000156984
3.2707e-20
0.000156984
4.92514e-20
0.000156984
1.22529e-19
0.000156984
1.48161e-19
0.000156984
3.73423e-19
0.000156984
3.8481e-20
0.000156984
-1.37549e-19
0.000156984
6.65202e-20
0.000156984
1.58705e-19
0.000156984
9.02506e-20
0.000156984
-1.04712e-19
0.000156984
4.74082e-21
0.000156984
2.71636e-20
0.000156984
2.7712e-20
0.000156984
-4.04899e-20
0.000156984
-8.85489e-20
0.000156984
-1.07872e-19
0.000156984
-1.19014e-19
0.000156984
1.01048e-19
0.000156984
2.68316e-19
0.000156984
1.92246e-19
0.000156984
-1.31495e-19
0.000156984
-5.83854e-20
0.000156984
4.39736e-19
0.000156984
4.71769e-19
0.000156984
1.11963e-20
0.000156984
-4.92816e-19
0.000156984
5.68192e-20
0.000156984
5.41973e-19
0.000156984
3.40747e-19
0.000156984
-7.41742e-20
0.000156984
-4.60478e-19
0.000156984
-1.44457e-19
0.000156984
4.97859e-19
0.000156984
1.60498e-19
0.000156984
-5.36922e-19
0.000156984
-6.70288e-19
0.000156984
-3.33716e-20
0.000156984
6.80333e-19
0.000156984
4.73462e-19
0.000156984
-2.90425e-19
0.000156984
-5.71032e-19
0.000156984
2.10942e-19
0.000156984
6.77824e-19
0.000156984
9.79382e-20
0.000156984
-2.08349e-19
0.000156984
-3.52383e-19
0.000156984
9.68753e-21
0.000156984
3.56439e-19
0.000156984
-2.38899e-20
0.000156984
-3.46113e-19
0.000156984
-5.28193e-19
0.000156984
-1.71356e-19
0.000156984
3.63286e-19
0.000156984
6.11771e-20
0.000156984
-3.51487e-19
0.000156984
-4.55589e-19
0.000156984
1.99119e-20
0.000156984
1.67426e-19
0.000156984
-6.77174e-20
0.000156984
-1.40821e-19
0.000156984
-3.68058e-19
0.000156984
3.43339e-20
0.000156984
2.47187e-20
0.000156984
-8.20008e-20
0.000156984
1.67281e-19
0.000156984
-2.64921e-19
0.000156984
-2.76478e-19
0.000156984
1.94651e-20
0.000156984
1.85243e-19
0.000156984
2.27504e-19
0.000156984
-9.48117e-20
0.000156984
-1.36915e-19
0.000156984
2.63468e-19
0.000156984
4.02906e-19
0.000156984
3.64473e-19
0.000156984
-2.07409e-19
0.000156984
1.01355e-19
0.000156984
4.1113e-19
0.000156984
-5.00825e-20
0.000156984
2.38572e-19
0.000156984
2.17136e-19
0.000156984
2.83071e-19
0.000156984
3.38012e-19
0.000156984
1.54018e-19
0.000156984
4.32744e-20
0.000156984
-2.81218e-19
0.000156984
2.04612e-19
0.000156984
4.14744e-19
0.000156984
-1.51678e-19
0.000156984
-3.32323e-19
0.000156984
-3.32041e-19
0.000156984
-5.94344e-20
0.000156984
-6.50534e-20
0.000156984
2.58544e-19
0.000156984
1.85327e-20
0.000156984
-7.49573e-19
0.000156984
-1.10398e-19
0.000156984
3.23052e-19
0.000156984
1.39172e-19
0.000156984
1.45147e-19
0.000156984
-2.9901e-19
0.000156984
8.41586e-21
0.000156984
3.45329e-19
0.000156984
-1.21807e-19
0.000156984
-7.18936e-20
0.000156984
-3.55099e-20
0.000156984
-3.59765e-20
0.000156984
2.89776e-19
0.000156984
2.29484e-19
0.000156984
1.50723e-19
0.000156984
-2.46995e-19
0.000156984
-1.43317e-19
0.000156984
1.76525e-19
0.000156984
-9.94968e-20
0.000156984
-1.27634e-19
0.000156984
-1.67909e-19
0.000156984
1.03176e-19
0.000156984
1.95426e-19
0.000156984
-1.74927e-19
0.000156984
-2.96641e-19
0.000156984
-3.41747e-19
0.000156984
6.93964e-20
0.000156984
1.22143e-19
0.000156984
4.17151e-20
0.000156984
-1.42306e-22
0.000156984
-2.49159e-19
0.000156984
5.97632e-19
0.000156984
4.70173e-20
0.000156984
-4.92591e-19
0.000156984
4.86343e-19
0.000156984
-1.02173e-19
0.000156984
6.66003e-20
0.000156984
-1.85667e-19
0.000156984
-5.18312e-19
0.000156984
7.62161e-19
0.000156984
5.79104e-20
0.000156984
-9.19301e-20
0.000156984
-1.17744e-19
0.000156984
-5.91379e-19
0.000156984
7.46102e-19
0.000156984
1.7839e-19
0.000156984
-1.84405e-19
0.000156984
2.24141e-19
0.000156984
-1.13534e-19
0.000156984
7.75025e-19
0.000156984
1.37654e-19
0.000156984
-1.97401e-19
0.000156984
1.38379e-19
0.000156984
-5.15502e-19
0.000156984
1.56325e-19
0.000156984
1.26747e-19
0.000156984
6.7139e-19
0.000156984
5.5286e-19
0.000156984
-6.4873e-19
0.000156984
1.10595e-19
0.000156984
-2.26147e-19
0.000156984
2.80899e-19
0.000156984
2.69426e-19
0.000156984
-1.08265e-18
0.000156984
6.24754e-20
0.000156984
1.41272e-19
0.000156984
3.20005e-19
0.000156984
1.23547e-19
0.000156984
-6.72859e-19
0.000156984
6.52692e-19
0.000156984
-2.58536e-19
0.000156984
-8.97798e-19
0.000156984
-4.74889e-19
0.000156984
-2.17357e-19
0.000156984
1.13503e-18
0.000156984
2.85232e-20
0.000156984
-1.00795e-19
0.000156984
2.47398e-19