/*--------------------------------*- C++ -*----------------------------------*\
| =========                 |                                                 |
| \\      /  F ield         | OpenFOAM: The Open Source CFD Toolbox           |
|  \\    /   O peration     | Version:  2112                                  |
|   \\  /    A nd           | Website:  www.openfoam.com                      |
|    \\/     M anipulation  |                                                 |
\*---------------------------------------------------------------------------*/
FoamFile
{
    version     2.0;
    format      ascii;
    arch        "LSB;label=32;scalar=64";
    class       volVectorField;
    location    "4";
    object      U;
}
// * * * * * * * * * * * * * * * * * * * * * * * * * * * * * * * * * * * * * //

dimensions      [0 1 -1 0 0 0 0];

internalField   nonuniform List<vector> 
25600
(
(0.037507 -1.55587e-15 0)
(0.037507 -3.04573e-16 0)
(0.037507 -4.06539e-17 0)
(0.037507 -2.28226e-17 0)
(0.037507 -6.78745e-19 0)
(0.037507 -4.28223e-19 0)
(0.037507 -5.98564e-18 0)
(0.037507 -1.88007e-18 0)
(0.037507 -6.14328e-18 0)
(0.037507 -6.6154e-18 0)
(0.037507 4.87208e-18 0)
(0.037507 -6.17534e-18 0)
(0.037507 3.20789e-18 0)
(0.037507 8.55261e-19 0)
(0.037507 -8.2613e-18 0)
(0.037507 9.0517e-18 0)
(0.037507 1.06562e-18 0)
(0.037507 -3.41564e-18 0)
(0.037507 -1.90388e-18 0)
(0.037507 2.41909e-19 0)
(0.037507 2.80311e-18 0)
(0.037507 7.02814e-18 0)
(0.037507 1.91828e-18 0)
(0.037507 -4.11269e-18 0)
(0.037507 -1.21398e-17 0)
(0.037507 -2.4756e-18 0)
(0.037507 2.54771e-17 0)
(0.037507 -1.45852e-18 0)
(0.037507 -1.66195e-17 0)
(0.037507 -1.44464e-18 0)
(0.037507 8.80693e-18 0)
(0.037507 8.60627e-18 0)
(0.037507 4.74227e-19 0)
(0.037507 -6.73364e-18 0)
(0.037507 -2.55988e-18 0)
(0.037507 -4.27866e-18 0)
(0.037507 6.87382e-18 0)
(0.037507 -6.91818e-18 0)
(0.037507 -9.59733e-18 0)
(0.037507 8.57249e-18 0)
(0.037507 2.49895e-18 0)
(0.037507 1.12287e-17 0)
(0.037507 -7.10272e-18 0)
(0.037507 -1.6367e-17 0)
(0.037507 2.1161e-17 0)
(0.037507 -1.27034e-17 0)
(0.037507 8.13128e-18 0)
(0.037507 3.15172e-18 0)
(0.037507 -3.69296e-18 0)
(0.037507 3.96972e-18 0)
(0.037507 -2.78918e-17 0)
(0.037507 2.17564e-17 0)
(0.037507 -5.93527e-19 0)
(0.037507 2.66213e-19 0)
(0.037507 2.85128e-17 0)
(0.037507 -2.65523e-17 0)
(0.037507 -5.84292e-19 0)
(0.037507 -1.09511e-17 0)
(0.037507 -6.6381e-19 0)
(0.037507 4.20228e-17 0)
(0.037507 -3.61067e-17 0)
(0.037507 8.01519e-18 0)
(0.037507 -9.59266e-19 0)
(0.037507 -1.70547e-18 0)
(0.037507 2.04425e-17 0)
(0.037507 -2.17802e-17 0)
(0.037507 3.93965e-18 0)
(0.037507 -1.09779e-17 0)
(0.037507 1.029e-17 0)
(0.037507 6.74137e-18 0)
(0.037507 -7.97764e-18 0)
(0.037507 2.00949e-18 0)
(0.037507 -4.04749e-18 0)
(0.037507 -1.87529e-18 0)
(0.037507 1.26898e-17 0)
(0.037507 -5.09599e-18 0)
(0.037507 -1.94173e-17 0)
(0.037507 1.47586e-17 0)
(0.037507 -7.78253e-18 0)
(0.037507 2.88717e-17 0)
(0.037507 -2.38976e-17 0)
(0.037507 -3.29689e-17 0)
(0.037507 1.96821e-17 0)
(0.037507 -1.43812e-21 0)
(0.037507 2.65596e-17 0)
(0.037507 -1.56925e-18 0)
(0.037507 -3.97206e-17 0)
(0.037507 -6.84156e-18 0)
(0.037507 1.59517e-17 0)
(0.037507 3.66287e-17 0)
(0.037507 -3.63722e-18 0)
(0.037507 -4.624e-17 0)
(0.037507 2.52203e-18 0)
(0.037507 4.82579e-17 0)
(0.037507 9.83034e-19 0)
(0.037507 -5.52289e-17 0)
(0.037507 4.10692e-18 0)
(0.037507 -4.36992e-18 0)
(0.037507 4.21432e-17 0)
(0.037507 2.79997e-17 0)
(0.037507 -7.00749e-17 0)
(0.037507 8.03128e-18 0)
(0.037507 -1.09344e-17 0)
(0.037507 3.72353e-17 0)
(0.037507 8.42622e-18 0)
(0.037507 -1.48244e-17 0)
(0.037507 -3.19948e-17 0)
(0.037507 1.16598e-17 0)
(0.037507 3.18843e-17 0)
(0.037507 -1.04267e-17 0)
(0.037507 3.21899e-17 0)
(0.037507 -8.90276e-17 0)
(0.037507 2.36559e-17 0)
(0.037507 5.79252e-17 0)
(0.037507 1.54178e-18 0)
(0.037507 -1.39695e-17 0)
(0.037507 -5.87155e-17 0)
(0.037507 3.28271e-17 0)
(0.037507 4.19495e-17 0)
(0.037507 1.31066e-17 0)
(0.037507 -9.15826e-18 0)
(0.037507 -5.6862e-17 0)
(0.037507 -7.11366e-18 0)
(0.037507 5.64596e-17 0)
(0.037507 1.516e-17 0)
(0.037507 -2.58192e-17 0)
(0.037507 -4.49701e-17 0)
(0.037507 6.92884e-19 0)
(0.037507 6.45432e-17 0)
(0.037507 -1.20475e-18 0)
(0.037507 -2.21428e-17 0)
(0.037507 -3.44701e-17 0)
(0.037507 1.66647e-17 0)
(0.037507 3.32896e-17 0)
(0.037507 -1.39649e-17 0)
(0.037507 -1.70747e-17 0)
(0.037507 -1.52184e-17 0)
(0.037507 4.0188e-17 0)
(0.037507 2.48505e-17 0)
(0.037507 -1.89823e-17 0)
(0.037507 -2.74884e-17 0)
(0.037507 -2.16718e-17 0)
(0.037507 4.61914e-17 0)
(0.037507 1.61374e-17 0)
(0.037507 -4.58646e-17 0)
(0.037507 4.34824e-17 0)
(0.037507 -1.50781e-17 0)
(0.037507 -3.41643e-17 0)
(0.037507 -6.75866e-19 0)
(0.037507 -4.45675e-18 0)
(0.037507 5.53998e-17 0)
(0.037507 -1.25093e-17 0)
(0.037507 -4.95317e-17 0)
(0.037507 7.109e-18 0)
(0.037507 2.33182e-17 0)
(0.037507 2.71005e-17 0)
(0.037507 -3.00914e-17 0)
(0.037507 -3.25e-17 0)
(0.037507 2.52603e-17 0)
(0.037507 2.39511e-18 0)
(0.037507 5.62556e-17 0)
(0.037507 -5.85807e-17 0)
(0.037507 -4.34429e-17 0)
(0.037507 6.67322e-17 0)
(0.037507 -1.76845e-17 0)
(0.037507 5.72974e-17 0)
(0.037507 -4.40422e-17 0)
(0.037507 -1.44262e-17 0)
(0.037507 5.99751e-18 0)
(0.037507 -4.69617e-17 0)
(0.037507 8.46216e-17 0)
(0.037507 -5.52756e-17 0)
(0.037507 1.51578e-18 0)
(0.037507 1.44964e-17 0)
(0.037507 -3.93715e-17 0)
(0.037507 8.01358e-17 0)
(0.037507 -5.62103e-17 0)
(0.037507 8.278e-18 0)
(0.037507 -1.01449e-17 0)
(0.037507 -3.61296e-17 0)
(0.037507 1.07072e-16 0)
(0.037507 -7.27633e-17 0)
(0.037507 -1.34916e-18 0)
(0.037507 1.9045e-17 0)
(0.037507 -4.64383e-17 0)
(0.037507 1.04276e-16 0)
(0.037507 -6.06029e-17 0)
(0.037507 -3.28385e-18 0)
(0.037507 6.62402e-17 0)
(0.037507 -9.47813e-17 0)
(0.037507 3.98085e-17 0)
(0.037507 4.01709e-19 0)
(0.037507 -5.70294e-17 0)
(0.037507 9.83297e-17 0)
(0.037507 -4.15455e-17 0)
(0.037507 8.71507e-18 0)
(0.037507 -4.88347e-17 0)
(0.037507 -1.23223e-17 0)
(0.037507 1.38523e-16 0)
(0.037507 -9.03196e-17 0)
(0.037507 4.61808e-18 0)
(0.037507 -4.93043e-17 0)
(0.037507 2.48592e-18 0)
(0.037507 1.4151e-16 0)
(0.037507 -8.72886e-17 0)
(0.037507 -3.95835e-17 0)
(0.037507 -1.18563e-17 0)
(0.037507 4.36234e-17 0)
(0.037507 8.54139e-17 0)
(0.037507 -4.37135e-17 0)
(0.037507 -7.52648e-17 0)
(0.037507 -6.50226e-17 0)
(0.037507 1.60924e-16 0)
(0.037507 2.67079e-18 0)
(0.037507 -1.66736e-16 0)
(0.037507 1.52365e-16 0)
(0.037507 2.87257e-17 0)
(0.037507 -7.69278e-17 0)
(0.037507 -3.73901e-17 0)
(0.037507 -7.5963e-17 0)
(0.037507 1.59888e-16 0)
(0.037507 4.1651e-17 0)
(0.037507 -9.09726e-17 0)
(0.037507 -3.6151e-17 0)
(0.037507 -8.03336e-17 0)
(0.037507 1.64647e-16 0)
(0.037507 -2.2331e-18 0)
(0.037507 -5.69049e-17 0)
(0.037507 1.95753e-17 0)
(0.037507 -1.1012e-16 0)
(0.037507 1.51817e-16 0)
(0.037507 -1.01957e-17 0)
(0.037507 -9.90554e-17 0)
(0.037507 5.94963e-17 0)
(0.037507 -7.32058e-17 0)
(0.037507 9.75447e-17 0)
(0.037507 -6.09914e-18 0)
(0.037507 -3.60398e-17 0)
(0.037507 2.37764e-17 0)
(0.037507 -1.22306e-16 0)
(0.037507 1.52651e-16 0)
(0.037507 -9.85266e-18 0)
(0.037507 -4.62985e-17 0)
(0.037507 6.6576e-17 0)
(0.037507 -1.34594e-16 0)
(0.037507 1.61638e-17 0)
(0.037507 4.37364e-17 0)
(0.037507 4.12968e-17 0)
(0.037507 1.54893e-17 0)
(0.037507 -1.25901e-16 0)
(0.037507 8.58304e-17 0)
(0.037507 4.96104e-19 0)
(0.037507 -2.13978e-17 0)
(0.037507 4.31938e-17 0)
(0.037507 -1.16265e-16 0)
(0.037507 9.92047e-17 0)
(0.037507 -1.13574e-17 0)
(0.037507 -1.21174e-17 0)
(0.037507 6.83436e-17 0)
(0.037507 -1.29528e-16 0)
(0.037507 5.91883e-17 0)
(0.037507 -2.47847e-18 0)
(0.037507 2.47689e-18 0)
(0.037507 5.94891e-17 0)
(0.037507 -1.10867e-16 0)
(0.037507 7.07315e-17 0)
(0.037507 3.34307e-17 0)
(0.037507 -4.47883e-17 0)
(0.037507 1.30389e-17 0)
(0.037507 -7.86501e-17 0)
(0.037507 6.52557e-17 0)
(0.037507 3.46264e-17 0)
(0.037507 -7.55851e-17 0)
(0.037507 5.63835e-17 0)
(0.037507 -3.2476e-17 0)
(0.037507 3.23935e-17 0)
(0.037507 3.91181e-17 0)
(0.037507 -8.39471e-17 0)
(0.037507 6.76941e-17 0)
(0.037507 -4.22133e-17 0)
(0.037507 1.0923e-17 0)
(0.037507 3.85337e-17 0)
(0.037507 -8.15646e-17 0)
(0.037507 5.91409e-17 0)
(0.037507 -3.69455e-17 0)
(0.037507 -3.0511e-17 0)
(0.037507 9.14459e-17 0)
(0.037507 -5.00971e-17 0)
(0.037507 -1.12102e-17 0)
(0.037507 -6.62939e-17 0)
(0.037507 3.51597e-17 0)
(0.037507 1.27703e-16 0)
(0.037507 -7.72994e-18 0)
(0.037507 -1.22397e-16 0)
(0.037507 -2.22076e-17 0)
(0.037507 6.0001e-17 0)
(0.037507 1.04298e-17 0)
(0.037507 7.72774e-17 0)
(0.037507 -1.2981e-16 0)
(0.037507 -2.23355e-17 0)
(0.037507 5.96767e-17 0)
(0.037507 5.92674e-18 0)
(0.037507 5.10308e-17 0)
(0.037507 -9.69123e-17 0)
(0.037507 2.49546e-17 0)
(0.037507 2.66204e-17 0)
(0.037507 -5.44406e-17 0)
(0.037507 9.27786e-17 0)
(0.037507 -6.04651e-17 0)
(0.037507 -5.90511e-18 0)
(0.037507 1.80763e-17 0)
(0.037507 -7.12437e-17 0)
(0.037507 9.4934e-17 0)
(0.037507 -3.80872e-17 0)
(0.037507 -6.10914e-17 0)
(0.037507 5.01393e-17 0)
(0.037507 -2.73771e-17 0)
(0.037507 4.53724e-17 0)
(0.037507 -6.64694e-17 0)
(0.037507 -3.59354e-16 0)
(0.110645 -2.67115e-15 0)
(0.110645 -6.84718e-16 0)
(0.110645 -1.79667e-16 0)
(0.110645 -7.64589e-17 0)
(0.110645 -1.10871e-17 0)
(0.110645 -1.76268e-18 0)
(0.110645 -1.33915e-17 0)
(0.110645 -8.16582e-18 0)
(0.110645 -2.03313e-17 0)
(0.110645 -1.98217e-17 0)
(0.110645 -3.1327e-18 0)
(0.110645 -1.77975e-17 0)
(0.110645 6.09572e-18 0)
(0.110645 1.01041e-17 0)
(0.110645 -8.07816e-18 0)
(0.110645 4.04499e-17 0)
(0.110645 2.49204e-17 0)
(0.110645 1.57908e-20 0)
(0.110645 -1.06879e-17 0)
(0.110645 -8.27531e-18 0)
(0.110645 1.8492e-17 0)
(0.110645 2.23481e-17 0)
(0.110645 8.32011e-18 0)
(0.110645 -9.21711e-18 0)
(0.110645 -2.95289e-17 0)
(0.110645 -1.41015e-17 0)
(0.110645 4.40832e-17 0)
(0.110645 1.08162e-17 0)
(0.110645 -2.02237e-17 0)
(0.110645 -2.99641e-18 0)
(0.110645 2.86096e-17 0)
(0.110645 5.11221e-17 0)
(0.110645 7.1318e-18 0)
(0.110645 -2.32212e-17 0)
(0.110645 -2.22608e-17 0)
(0.110645 -1.4681e-17 0)
(0.110645 3.3087e-17 0)
(0.110645 -3.59208e-17 0)
(0.110645 -5.33833e-17 0)
(0.110645 3.61965e-17 0)
(0.110645 1.24658e-18 0)
(0.110645 -1.67449e-18 0)
(0.110645 1.002e-17 0)
(0.110645 -3.22909e-17 0)
(0.110645 2.10598e-17 0)
(0.110645 -7.20797e-18 0)
(0.110645 2.58655e-17 0)
(0.110645 1.88958e-17 0)
(0.110645 -1.73806e-18 0)
(0.110645 1.91666e-17 0)
(0.110645 -4.28547e-17 0)
(0.110645 2.01985e-17 0)
(0.110645 3.29441e-18 0)
(0.110645 1.14626e-17 0)
(0.110645 6.77834e-17 0)
(0.110645 -2.70691e-17 0)
(0.110645 -4.90636e-19 0)
(0.110645 -4.37723e-18 0)
(0.110645 1.80759e-18 0)
(0.110645 3.2029e-17 0)
(0.110645 -8.65309e-17 0)
(0.110645 4.1428e-17 0)
(0.110645 2.05237e-18 0)
(0.110645 -1.37133e-17 0)
(0.110645 4.81692e-17 0)
(0.110645 -5.64162e-17 0)
(0.110645 -7.77721e-18 0)
(0.110645 -5.47837e-18 0)
(0.110645 1.40472e-17 0)
(0.110645 5.00302e-17 0)
(0.110645 -3.07302e-17 0)
(0.110645 -1.09034e-17 0)
(0.110645 -3.06229e-17 0)
(0.110645 -2.22448e-17 0)
(0.110645 1.0224e-16 0)
(0.110645 -5.45919e-17 0)
(0.110645 -8.14278e-17 0)
(0.110645 3.75261e-17 0)
(0.110645 -1.27807e-17 0)
(0.110645 5.87564e-17 0)
(0.110645 -1.82901e-17 0)
(0.110645 -1.16401e-16 0)
(0.110645 -1.26868e-17 0)
(0.110645 2.453e-17 0)
(0.110645 4.03867e-17 0)
(0.110645 -1.78391e-17 0)
(0.110645 -6.48478e-17 0)
(0.110645 -5.19382e-17 0)
(0.110645 4.24153e-17 0)
(0.110645 1.18351e-16 0)
(0.110645 -2.91299e-17 0)
(0.110645 -8.63495e-17 0)
(0.110645 3.19403e-18 0)
(0.110645 6.58052e-17 0)
(0.110645 7.032e-18 0)
(0.110645 -1.13318e-16 0)
(0.110645 -2.69809e-17 0)
(0.110645 -1.95805e-17 0)
(0.110645 5.70226e-17 0)
(0.110645 5.5604e-17 0)
(0.110645 -8.6561e-17 0)
(0.110645 2.87227e-17 0)
(0.110645 -6.5762e-17 0)
(0.110645 7.10877e-18 0)
(0.110645 6.42853e-17 0)
(0.110645 1.02804e-17 0)
(0.110645 -8.45436e-17 0)
(0.110645 -1.93567e-17 0)
(0.110645 8.29541e-17 0)
(0.110645 4.81668e-17 0)
(0.110645 6.36423e-17 0)
(0.110645 -1.80849e-16 0)
(0.110645 2.3262e-17 0)
(0.110645 1.60877e-16 0)
(0.110645 3.28482e-17 0)
(0.110645 -1.20323e-17 0)
(0.110645 -1.35662e-16 0)
(0.110645 -3.46306e-17 0)
(0.110645 1.36926e-16 0)
(0.110645 5.80336e-17 0)
(0.110645 -4.82411e-17 0)
(0.110645 -1.34456e-16 0)
(0.110645 -3.09779e-17 0)
(0.110645 1.6671e-16 0)
(0.110645 1.01023e-16 0)
(0.110645 -6.02344e-17 0)
(0.110645 -1.63098e-16 0)
(0.110645 6.28881e-18 0)
(0.110645 1.69955e-16 0)
(0.110645 2.53599e-17 0)
(0.110645 -4.17067e-17 0)
(0.110645 -9.48005e-17 0)
(0.110645 2.63196e-18 0)
(0.110645 1.14067e-16 0)
(0.110645 2.6271e-17 0)
(0.110645 1.96142e-17 0)
(0.110645 -1.01633e-16 0)
(0.110645 -2.5179e-17 0)
(0.110645 1.46444e-16 0)
(0.110645 3.36236e-17 0)
(0.110645 -2.75187e-17 0)
(0.110645 -1.14417e-16 0)
(0.110645 -1.86284e-17 0)
(0.110645 7.69564e-17 0)
(0.110645 2.29054e-17 0)
(0.110645 2.06748e-19 0)
(0.110645 -1.10513e-16 0)
(0.110645 2.12919e-17 0)
(0.110645 1.073e-17 0)
(0.110645 3.29603e-17 0)
(0.110645 9.70496e-17 0)
(0.110645 -1.66842e-16 0)
(0.110645 -1.05098e-16 0)
(0.110645 8.4233e-17 0)
(0.110645 6.75585e-17 0)
(0.110645 5.06263e-17 0)
(0.110645 -8.11069e-17 0)
(0.110645 -9.97489e-17 0)
(0.110645 2.99451e-17 0)
(0.110645 4.54287e-17 0)
(0.110645 1.16174e-16 0)
(0.110645 -1.17556e-16 0)
(0.110645 -7.66179e-19 0)
(0.110645 1.33858e-16 0)
(0.110645 -1.60289e-16 0)
(0.110645 5.36255e-17 0)
(0.110645 -1.9492e-17 0)
(0.110645 -1.40338e-16 0)
(0.110645 1.24276e-16 0)
(0.110645 5.11643e-17 0)
(0.110645 -2.17235e-17 0)
(0.110645 -1.39609e-16 0)
(0.110645 1.97199e-19 0)
(0.110645 7.80446e-17 0)
(0.110645 -2.20126e-17 0)
(0.110645 -3.34757e-17 0)
(0.110645 -5.27865e-17 0)
(0.110645 1.70963e-16 0)
(0.110645 -6.33336e-17 0)
(0.110645 -4.71556e-17 0)
(0.110645 1.59782e-16 0)
(0.110645 -1.74853e-16 0)
(0.110645 -1.35587e-17 0)
(0.110645 7.86077e-17 0)
(0.110645 -1.13758e-17 0)
(0.110645 1.60162e-16 0)
(0.110645 -1.03677e-16 0)
(0.110645 -4.63528e-18 0)
(0.110645 1.40629e-16 0)
(0.110645 -1.19954e-16 0)
(0.110645 2.98608e-17 0)
(0.110645 -2.33697e-17 0)
(0.110645 -8.95642e-17 0)
(0.110645 1.43901e-16 0)
(0.110645 -1.67637e-17 0)
(0.110645 3.42586e-17 0)
(0.110645 -8.15005e-17 0)
(0.110645 -5.0587e-17 0)
(0.110645 1.93618e-16 0)
(0.110645 -9.27954e-17 0)
(0.110645 -1.16615e-19 0)
(0.110645 -8.16557e-17 0)
(0.110645 2.49722e-17 0)
(0.110645 2.28792e-16 0)
(0.110645 -4.02561e-17 0)
(0.110645 -1.26826e-16 0)
(0.110645 -1.16719e-16 0)
(0.110645 1.04629e-16 0)
(0.110645 1.2201e-16 0)
(0.110645 -4.9831e-17 0)
(0.110645 -1.07059e-16 0)
(0.110645 -1.2421e-16 0)
(0.110645 3.07723e-16 0)
(0.110645 2.96308e-17 0)
(0.110645 -2.98818e-16 0)
(0.110645 2.11272e-16 0)
(0.110645 -1.01413e-17 0)
(0.110645 -8.69438e-17 0)
(0.110645 -6.12787e-17 0)
(0.110645 -1.78078e-16 0)
(0.110645 2.94786e-16 0)
(0.110645 8.0605e-17 0)
(0.110645 -1.20049e-16 0)
(0.110645 -7.91772e-17 0)
(0.110645 -1.9678e-16 0)
(0.110645 3.01449e-16 0)
(0.110645 2.99417e-17 0)
(0.110645 -8.72728e-17 0)
(0.110645 8.26681e-17 0)
(0.110645 -1.54861e-16 0)
(0.110645 8.56479e-17 0)
(0.110645 -8.56171e-17 0)
(0.110645 -1.01793e-17 0)
(0.110645 9.27855e-17 0)
(0.110645 -2.39662e-16 0)
(0.110645 6.26728e-17 0)
(0.110645 2.0576e-17 0)
(0.110645 1.62367e-17 0)
(0.110645 8.93651e-17 0)
(0.110645 -2.02459e-16 0)
(0.110645 9.66818e-17 0)
(0.110645 -5.84834e-17 0)
(0.110645 6.61577e-18 0)
(0.110645 1.17816e-16 0)
(0.110645 -3.26611e-16 0)
(0.110645 2.90135e-17 0)
(0.110645 7.24456e-17 0)
(0.110645 8.24311e-17 0)
(0.110645 3.38273e-17 0)
(0.110645 -2.40686e-16 0)
(0.110645 2.26343e-16 0)
(0.110645 3.47817e-17 0)
(0.110645 -1.20242e-16 0)
(0.110645 -2.9569e-17 0)
(0.110645 -1.92973e-16 0)
(0.110645 3.05408e-16 0)
(0.110645 7.4563e-18 0)
(0.110645 -4.18576e-17 0)
(0.110645 1.2605e-16 0)
(0.110645 -2.64131e-16 0)
(0.110645 9.96594e-17 0)
(0.110645 6.40558e-17 0)
(0.110645 -1.10154e-17 0)
(0.110645 3.186e-17 0)
(0.110645 -1.44331e-16 0)
(0.110645 1.90439e-16 0)
(0.110645 4.66163e-17 0)
(0.110645 -2.28389e-18 0)
(0.110645 -3.09361e-17 0)
(0.110645 -2.11982e-16 0)
(0.110645 1.20524e-16 0)
(0.110645 -3.36579e-18 0)
(0.110645 8.94074e-17 0)
(0.110645 -6.7109e-18 0)
(0.110645 -1.87479e-16 0)
(0.110645 1.66717e-16 0)
(0.110645 3.14537e-17 0)
(0.110645 -2.71237e-17 0)
(0.110645 1.29903e-16 0)
(0.110645 -1.57913e-16 0)
(0.110645 4.44105e-17 0)
(0.110645 4.77713e-17 0)
(0.110645 1.02032e-17 0)
(0.110645 -1.09268e-17 0)
(0.110645 -2.24817e-16 0)
(0.110645 2.78947e-17 0)
(0.110645 1.24082e-16 0)
(0.110645 4.54314e-17 0)
(0.110645 -1.75731e-16 0)
(0.110645 -1.58055e-16 0)
(0.110645 2.21212e-16 0)
(0.110645 -1.31588e-17 0)
(0.110645 -4.96257e-17 0)
(0.110645 -4.43945e-17 0)
(0.110645 -5.43743e-17 0)
(0.110645 2.18146e-16 0)
(0.110645 -1.68834e-17 0)
(0.110645 -6.808e-17 0)
(0.110645 -1.0574e-16 0)
(0.110645 -8.08458e-17 0)
(0.110645 2.26803e-16 0)
(0.110645 3.16021e-18 0)
(0.110645 5.75815e-17 0)
(0.110645 -1.33702e-16 0)
(0.110645 -2.55349e-16 0)
(0.110645 9.0831e-17 0)
(0.110645 6.91963e-17 0)
(0.110645 1.32277e-16 0)
(0.110645 -1.28704e-16 0)
(0.110645 -2.12052e-17 0)
(0.110645 7.41595e-17 0)
(0.110645 -1.32239e-16 0)
(0.110645 1.38125e-16 0)
(0.110645 -2.70193e-17 0)
(0.110645 -1.02792e-16 0)
(0.110645 9.81618e-17 0)
(0.110645 -1.30994e-16 0)
(0.110645 3.94044e-17 0)
(0.110645 -1.09858e-16 0)
(0.110645 -7.57291e-16 0)
(0.181908 -1.84159e-15 0)
(0.181908 -6.92493e-16 0)
(0.181908 -2.57079e-16 0)
(0.181908 -1.15036e-16 0)
(0.181908 -3.37462e-17 0)
(0.181908 -3.51088e-18 0)
(0.181908 -1.64352e-17 0)
(0.181908 -2.49063e-17 0)
(0.181908 -3.66785e-17 0)
(0.181908 -3.30042e-17 0)
(0.181908 -3.78124e-17 0)
(0.181908 -3.32411e-17 0)
(0.181908 2.72997e-17 0)
(0.181908 2.07985e-17 0)
(0.181908 9.19641e-18 0)
(0.181908 8.14449e-17 0)
(0.181908 5.19188e-17 0)
(0.181908 6.61702e-18 0)
(0.181908 -5.37348e-18 0)
(0.181908 1.69631e-18 0)
(0.181908 3.67262e-17 0)
(0.181908 4.03861e-17 0)
(0.181908 6.50771e-18 0)
(0.181908 -8.93306e-19 0)
(0.181908 -3.95575e-17 0)
(0.181908 -2.87971e-17 0)
(0.181908 4.63064e-17 0)
(0.181908 4.4737e-17 0)
(0.181908 7.48085e-18 0)
(0.181908 -1.29845e-17 0)
(0.181908 5.13398e-17 0)
(0.181908 1.15753e-16 0)
(0.181908 1.59398e-17 0)
(0.181908 -5.71277e-17 0)
(0.181908 -5.75804e-17 0)
(0.181908 -3.62199e-17 0)
(0.181908 4.20855e-17 0)
(0.181908 -3.93964e-17 0)
(0.181908 -9.88244e-17 0)
(0.181908 2.06613e-17 0)
(0.181908 2.46814e-17 0)
(0.181908 -1.75205e-17 0)
(0.181908 2.98244e-17 0)
(0.181908 -4.47386e-17 0)
(0.181908 -2.20408e-17 0)
(0.181908 1.2863e-17 0)
(0.181908 5.54835e-17 0)
(0.181908 4.88272e-17 0)
(0.181908 1.54494e-17 0)
(0.181908 2.44592e-17 0)
(0.181908 -2.3302e-17 0)
(0.181908 1.21636e-17 0)
(0.181908 1.57144e-17 0)
(0.181908 3.00326e-17 0)
(0.181908 1.04851e-16 0)
(0.181908 -6.46362e-18 0)
(0.181908 -4.35561e-18 0)
(0.181908 -1.812e-17 0)
(0.181908 7.0628e-18 0)
(0.181908 3.52104e-17 0)
(0.181908 -1.47192e-16 0)
(0.181908 7.69248e-17 0)
(0.181908 9.79845e-18 0)
(0.181908 -4.13647e-17 0)
(0.181908 9.59092e-17 0)
(0.181908 -9.86937e-17 0)
(0.181908 -2.16516e-17 0)
(0.181908 -1.24777e-17 0)
(0.181908 2.52126e-17 0)
(0.181908 7.79812e-17 0)
(0.181908 -3.86971e-17 0)
(0.181908 -3.98023e-17 0)
(0.181908 -6.88297e-17 0)
(0.181908 8.65265e-18 0)
(0.181908 1.33515e-16 0)
(0.181908 -8.22093e-17 0)
(0.181908 -1.21642e-16 0)
(0.181908 2.24767e-17 0)
(0.181908 -3.62934e-17 0)
(0.181908 6.109e-17 0)
(0.181908 -4.52055e-17 0)
(0.181908 -1.68977e-16 0)
(0.181908 -1.2042e-17 0)
(0.181908 -6.64041e-18 0)
(0.181908 3.13815e-17 0)
(0.181908 -2.75205e-17 0)
(0.181908 -2.76163e-17 0)
(0.181908 -8.23313e-17 0)
(0.181908 -3.4487e-17 0)
(0.181908 1.64979e-16 0)
(0.181908 -2.1409e-17 0)
(0.181908 -1.0107e-16 0)
(0.181908 8.69507e-18 0)
(0.181908 3.31503e-17 0)
(0.181908 4.06453e-18 0)
(0.181908 -1.30168e-16 0)
(0.181908 -7.87497e-17 0)
(0.181908 -3.94335e-17 0)
(0.181908 1.38385e-17 0)
(0.181908 5.73163e-17 0)
(0.181908 -3.02594e-17 0)
(0.181908 2.94188e-18 0)
(0.181908 -7.80003e-17 0)
(0.181908 -3.01795e-17 0)
(0.181908 8.64686e-17 0)
(0.181908 8.49162e-17 0)
(0.181908 -1.38003e-16 0)
(0.181908 -1.02551e-16 0)
(0.181908 1.24308e-16 0)
(0.181908 1.76001e-16 0)
(0.181908 7.56229e-17 0)
(0.181908 -2.68704e-16 0)
(0.181908 1.8353e-17 0)
(0.181908 2.43719e-16 0)
(0.181908 1.41983e-16 0)
(0.181908 -7.07428e-19 0)
(0.181908 -2.68623e-16 0)
(0.181908 -1.20602e-16 0)
(0.181908 2.98639e-16 0)
(0.181908 1.83433e-16 0)
(0.181908 -1.6059e-16 0)
(0.181908 -2.66508e-16 0)
(0.181908 -5.45126e-17 0)
(0.181908 3.13841e-16 0)
(0.181908 2.71284e-16 0)
(0.181908 -1.09839e-16 0)
(0.181908 -3.87015e-16 0)
(0.181908 3.57726e-17 0)
(0.181908 3.20433e-16 0)
(0.181908 7.60755e-17 0)
(0.181908 -4.4522e-17 0)
(0.181908 -2.09876e-16 0)
(0.181908 -1.2064e-17 0)
(0.181908 2.55597e-16 0)
(0.181908 7.34741e-17 0)
(0.181908 -2.71393e-17 0)
(0.181908 -1.6543e-16 0)
(0.181908 -1.0158e-17 0)
(0.181908 2.77783e-16 0)
(0.181908 7.47549e-17 0)
(0.181908 -1.29737e-16 0)
(0.181908 -1.72849e-16 0)
(0.181908 4.15665e-17 0)
(0.181908 9.62547e-17 0)
(0.181908 -2.5736e-17 0)
(0.181908 -3.14117e-17 0)
(0.181908 -1.17252e-16 0)
(0.181908 7.70524e-17 0)
(0.181908 3.77422e-17 0)
(0.181908 -8.52351e-17 0)
(0.181908 1.23821e-16 0)
(0.181908 -1.2871e-16 0)
(0.181908 -1.57298e-16 0)
(0.181908 5.97031e-17 0)
(0.181908 9.64269e-17 0)
(0.181908 9.97222e-17 0)
(0.181908 -1.17601e-16 0)
(0.181908 -2.04798e-16 0)
(0.181908 3.97671e-18 0)
(0.181908 1.18623e-16 0)
(0.181908 1.68586e-16 0)
(0.181908 -1.6863e-16 0)
(0.181908 -6.36466e-17 0)
(0.181908 1.88654e-16 0)
(0.181908 -1.05437e-16 0)
(0.181908 -9.26285e-18 0)
(0.181908 -4.76797e-17 0)
(0.181908 -8.67074e-17 0)
(0.181908 5.5081e-17 0)
(0.181908 2.38968e-17 0)
(0.181908 -7.00519e-17 0)
(0.181908 -2.03465e-16 0)
(0.181908 5.15283e-18 0)
(0.181908 1.72818e-16 0)
(0.181908 8.89626e-17 0)
(0.181908 -1.24649e-16 0)
(0.181908 -1.50273e-16 0)
(0.181908 9.32135e-17 0)
(0.181908 -1.45259e-17 0)
(0.181908 1.60935e-16 0)
(0.181908 1.1294e-16 0)
(0.181908 -3.35525e-16 0)
(0.181908 -3.26846e-17 0)
(0.181908 2.17597e-16 0)
(0.181908 1.07031e-16 0)
(0.181908 1.63419e-16 0)
(0.181908 -1.42551e-16 0)
(0.181908 -4.90711e-17 0)
(0.181908 2.20827e-16 0)
(0.181908 -4.92775e-17 0)
(0.181908 -3.38146e-17 0)
(0.181908 -5.06864e-17 0)
(0.181908 -7.34467e-17 0)
(0.181908 9.04396e-17 0)
(0.181908 7.7162e-17 0)
(0.181908 6.54898e-17 0)
(0.181908 -7.70722e-17 0)
(0.181908 -9.3078e-17 0)
(0.181908 1.00635e-16 0)
(0.181908 2.60573e-17 0)
(0.181908 1.08968e-17 0)
(0.181908 -5.81282e-17 0)
(0.181908 4.06429e-17 0)
(0.181908 1.67304e-16 0)
(0.181908 2.1203e-17 0)
(0.181908 -6.716e-17 0)
(0.181908 -1.29282e-16 0)
(0.181908 1.14607e-17 0)
(0.181908 4.73327e-17 0)
(0.181908 -1.22627e-17 0)
(0.181908 -3.5624e-17 0)
(0.181908 -1.76064e-16 0)
(0.181908 4.02524e-16 0)
(0.181908 6.69857e-17 0)
(0.181908 -3.61227e-16 0)
(0.181908 2.12029e-16 0)
(0.181908 -1.61284e-16 0)
(0.181908 -1.87891e-17 0)
(0.181908 -6.78002e-17 0)
(0.181908 -3.30053e-16 0)
(0.181908 4.34719e-16 0)
(0.181908 8.40726e-17 0)
(0.181908 -9.04357e-17 0)
(0.181908 -7.58864e-17 0)
(0.181908 -3.52044e-16 0)
(0.181908 4.28183e-16 0)
(0.181908 7.26891e-17 0)
(0.181908 -1.0209e-16 0)
(0.181908 1.98972e-17 0)
(0.181908 -3.04753e-16 0)
(0.181908 2.87924e-16 0)
(0.181908 -5.40927e-17 0)
(0.181908 -1.64657e-16 0)
(0.181908 7.25938e-17 0)
(0.181908 -3.55538e-16 0)
(0.181908 4.35849e-17 0)
(0.181908 -9.81057e-17 0)
(0.181908 1.6294e-16 0)
(0.181908 2.41761e-16 0)
(0.181908 -4.27448e-16 0)
(0.181908 8.643e-17 0)
(0.181908 -1.50151e-16 0)
(0.181908 6.55677e-17 0)
(0.181908 1.87974e-16 0)
(0.181908 -6.35114e-16 0)
(0.181908 5.45591e-17 0)
(0.181908 1.01704e-16 0)
(0.181908 1.34883e-16 0)
(0.181908 5.16572e-17 0)
(0.181908 -3.84147e-16 0)
(0.181908 5.25846e-16 0)
(0.181908 7.87358e-17 0)
(0.181908 -3.34653e-16 0)
(0.181908 -2.2949e-16 0)
(0.181908 -2.72692e-16 0)
(0.181908 7.12267e-16 0)
(0.181908 2.15863e-17 0)
(0.181908 -1.37754e-16 0)
(0.181908 1.68038e-16 0)
(0.181908 -3.89374e-16 0)
(0.181908 2.13213e-16 0)
(0.181908 5.84944e-17 0)
(0.181908 3.54351e-17 0)
(0.181908 4.50845e-17 0)
(0.181908 -2.70985e-16 0)
(0.181908 4.16672e-16 0)
(0.181908 4.83062e-17 0)
(0.181908 -4.79333e-17 0)
(0.181908 3.52374e-17 0)
(0.181908 -4.00238e-16 0)
(0.181908 1.8035e-16 0)
(0.181908 8.08204e-18 0)
(0.181908 6.88966e-17 0)
(0.181908 1.04772e-16 0)
(0.181908 -3.40173e-16 0)
(0.181908 2.70827e-16 0)
(0.181908 7.00453e-17 0)
(0.181908 5.13851e-17 0)
(0.181908 1.79116e-16 0)
(0.181908 -3.78946e-16 0)
(0.181908 1.37675e-16 0)
(0.181908 1.60442e-17 0)
(0.181908 4.37689e-18 0)
(0.181908 7.72249e-17 0)
(0.181908 -4.34666e-16 0)
(0.181908 1.01264e-16 0)
(0.181908 1.65954e-16 0)
(0.181908 -1.41603e-16 0)
(0.181908 -1.67226e-16 0)
(0.181908 -2.79657e-16 0)
(0.181908 2.69526e-16 0)
(0.181908 1.28673e-16 0)
(0.181908 -1.66049e-16 0)
(0.181908 4.14696e-17 0)
(0.181908 -1.14427e-16 0)
(0.181908 1.05118e-16 0)
(0.181908 2.35769e-16 0)
(0.181908 -1.53969e-16 0)
(0.181908 -1.35721e-16 0)
(0.181908 -2.16407e-16 0)
(0.181908 1.66501e-16 0)
(0.181908 3.34819e-16 0)
(0.181908 8.40013e-19 0)
(0.181908 -4.19235e-16 0)
(0.181908 -2.45125e-16 0)
(0.181908 2.13732e-16 0)
(0.181908 5.47836e-17 0)
(0.181908 1.1544e-16 0)
(0.181908 -2.31317e-16 0)
(0.181908 -9.19268e-18 0)
(0.181908 1.54691e-16 0)
(0.181908 -1.82774e-16 0)
(0.181908 1.55104e-16 0)
(0.181908 3.38023e-18 0)
(0.181908 -1.06201e-16 0)
(0.181908 1.39469e-17 0)
(0.181908 -1.49554e-16 0)
(0.181908 1.8115e-16 0)
(0.181908 -1.90617e-16 0)
(0.181908 -7.96839e-16 0)
(0.251294 -1.11318e-15 0)
(0.251294 -6.21478e-16 0)
(0.251294 -2.85588e-16 0)
(0.251294 -1.20291e-16 0)
(0.251294 -5.4561e-17 0)
(0.251294 -2.07605e-17 0)
(0.251294 -2.32907e-17 0)
(0.251294 -4.02518e-17 0)
(0.251294 -4.11213e-17 0)
(0.251294 -5.1645e-17 0)
(0.251294 -8.20014e-17 0)
(0.251294 -3.9312e-17 0)
(0.251294 4.29912e-17 0)
(0.251294 4.70792e-17 0)
(0.251294 1.94347e-17 0)
(0.251294 1.2068e-16 0)
(0.251294 8.07417e-17 0)
(0.251294 3.46896e-17 0)
(0.251294 3.86365e-17 0)
(0.251294 1.55526e-17 0)
(0.251294 5.01583e-17 0)
(0.251294 6.70436e-17 0)
(0.251294 3.26492e-17 0)
(0.251294 -2.93606e-17 0)
(0.251294 -6.67772e-17 0)
(0.251294 -3.5584e-17 0)
(0.251294 8.40553e-17 0)
(0.251294 8.16748e-17 0)
(0.251294 1.45865e-17 0)
(0.251294 2.78296e-18 0)
(0.251294 8.47735e-17 0)
(0.251294 1.57135e-16 0)
(0.251294 3.01615e-17 0)
(0.251294 -7.46386e-17 0)
(0.251294 -1.02422e-16 0)
(0.251294 -8.33266e-17 0)
(0.251294 5.69745e-17 0)
(0.251294 -1.47413e-17 0)
(0.251294 -1.49685e-16 0)
(0.251294 -8.78953e-18 0)
(0.251294 1.66881e-17 0)
(0.251294 -1.27451e-17 0)
(0.251294 1.64229e-17 0)
(0.251294 -4.44846e-17 0)
(0.251294 -1.27564e-17 0)
(0.251294 -6.85082e-18 0)
(0.251294 7.12437e-17 0)
(0.251294 1.02393e-16 0)
(0.251294 2.72034e-17 0)
(0.251294 8.66918e-18 0)
(0.251294 -1.23478e-17 0)
(0.251294 5.00051e-17 0)
(0.251294 5.23579e-17 0)
(0.251294 4.84792e-17 0)
(0.251294 1.4328e-16 0)
(0.251294 -4.23424e-18 0)
(0.251294 4.59965e-18 0)
(0.251294 -3.57772e-18 0)
(0.251294 -1.40143e-17 0)
(0.251294 2.6039e-17 0)
(0.251294 -1.81848e-16 0)
(0.251294 6.54557e-17 0)
(0.251294 4.7881e-17 0)
(0.251294 -2.47724e-17 0)
(0.251294 6.14543e-17 0)
(0.251294 -1.09207e-16 0)
(0.251294 4.27149e-18 0)
(0.251294 -3.50284e-17 0)
(0.251294 2.53426e-17 0)
(0.251294 1.22297e-16 0)
(0.251294 -8.89447e-17 0)
(0.251294 -8.38184e-17 0)
(0.251294 -9.92536e-17 0)
(0.251294 8.85019e-18 0)
(0.251294 1.79133e-16 0)
(0.251294 -1.14097e-16 0)
(0.251294 -1.42759e-16 0)
(0.251294 -1.58867e-17 0)
(0.251294 -7.83205e-17 0)
(0.251294 8.24838e-17 0)
(0.251294 -8.62678e-17 0)
(0.251294 -2.52251e-16 0)
(0.251294 -7.38571e-17 0)
(0.251294 -1.56456e-18 0)
(0.251294 3.76463e-17 0)
(0.251294 -6.01549e-17 0)
(0.251294 -4.76317e-17 0)
(0.251294 -6.51506e-17 0)
(0.251294 -7.21465e-17 0)
(0.251294 1.68474e-16 0)
(0.251294 -1.80715e-17 0)
(0.251294 -1.06216e-16 0)
(0.251294 -2.7853e-17 0)
(0.251294 3.19339e-17 0)
(0.251294 8.25227e-18 0)
(0.251294 -2.20185e-16 0)
(0.251294 -1.25419e-16 0)
(0.251294 -5.98877e-17 0)
(0.251294 1.37463e-17 0)
(0.251294 7.45592e-17 0)
(0.251294 -2.97081e-17 0)
(0.251294 -2.02228e-17 0)
(0.251294 -1.37876e-16 0)
(0.251294 -3.40895e-17 0)
(0.251294 1.7072e-16 0)
(0.251294 1.23264e-16 0)
(0.251294 -2.02328e-16 0)
(0.251294 -1.64919e-16 0)
(0.251294 1.84686e-16 0)
(0.251294 2.95248e-16 0)
(0.251294 9.19451e-17 0)
(0.251294 -3.37776e-16 0)
(0.251294 2.72505e-17 0)
(0.251294 3.37392e-16 0)
(0.251294 2.45594e-16 0)
(0.251294 2.11502e-17 0)
(0.251294 -4.18825e-16 0)
(0.251294 -1.87943e-16 0)
(0.251294 4.17714e-16 0)
(0.251294 3.06289e-16 0)
(0.251294 -2.31479e-16 0)
(0.251294 -4.07964e-16 0)
(0.251294 -1.88183e-17 0)
(0.251294 4.21824e-16 0)
(0.251294 3.30148e-16 0)
(0.251294 -1.20154e-16 0)
(0.251294 -4.40856e-16 0)
(0.251294 1.92662e-17 0)
(0.251294 4.51113e-16 0)
(0.251294 1.28472e-16 0)
(0.251294 -1.20527e-16 0)
(0.251294 -2.03329e-16 0)
(0.251294 -3.44282e-17 0)
(0.251294 3.10854e-16 0)
(0.251294 1.74878e-16 0)
(0.251294 -3.04223e-17 0)
(0.251294 -2.44952e-16 0)
(0.251294 -2.3802e-17 0)
(0.251294 4.12418e-16 0)
(0.251294 1.24966e-16 0)
(0.251294 -2.09134e-16 0)
(0.251294 -2.86575e-16 0)
(0.251294 8.70505e-17 0)
(0.251294 1.48661e-16 0)
(0.251294 3.00773e-18 0)
(0.251294 3.13552e-18 0)
(0.251294 -2.64987e-16 0)
(0.251294 5.78761e-17 0)
(0.251294 9.99649e-17 0)
(0.251294 -4.99196e-17 0)
(0.251294 8.1607e-17 0)
(0.251294 -2.45708e-16 0)
(0.251294 -1.26968e-16 0)
(0.251294 1.1579e-16 0)
(0.251294 1.20685e-16 0)
(0.251294 7.90735e-17 0)
(0.251294 -2.1643e-16 0)
(0.251294 -2.64529e-16 0)
(0.251294 3.7472e-17 0)
(0.251294 1.53826e-16 0)
(0.251294 1.91556e-16 0)
(0.251294 -2.485e-16 0)
(0.251294 -3.69474e-17 0)
(0.251294 2.56945e-16 0)
(0.251294 -1.78219e-16 0)
(0.251294 -3.13396e-17 0)
(0.251294 -8.43579e-17 0)
(0.251294 -1.07348e-16 0)
(0.251294 6.7167e-17 0)
(0.251294 3.30438e-17 0)
(0.251294 -1.10204e-16 0)
(0.251294 -3.37228e-16 0)
(0.251294 -2.74309e-17 0)
(0.251294 3.27026e-16 0)
(0.251294 1.02101e-16 0)
(0.251294 -1.62046e-16 0)
(0.251294 -1.62828e-16 0)
(0.251294 3.18679e-17 0)
(0.251294 -5.87102e-18 0)
(0.251294 1.94826e-16 0)
(0.251294 1.62604e-16 0)
(0.251294 -3.7943e-16 0)
(0.251294 -8.42107e-18 0)
(0.251294 3.10586e-16 0)
(0.251294 1.38716e-16 0)
(0.251294 1.6439e-16 0)