/*--------------------------------*- C++ -*----------------------------------*\
| =========                 |                                                 |
| \\      /  F ield         | OpenFOAM: The Open Source CFD Toolbox           |
|  \\    /   O peration     | Version:  2112                                  |
|   \\  /    A nd           | Website:  www.openfoam.com                      |
|    \\/     M anipulation  |                                                 |
\*---------------------------------------------------------------------------*/
FoamFile
{
    version     2.0;
    format      ascii;
    arch        "LSB;label=32;scalar=64";
    class       volVectorField;
    location    "4";
    object      U;
}
// * * * * * * * * * * * * * * * * * * * * * * * * * * * * * * * * * * * * * //

dimensions      [0 1 -1 0 0 0 0];

internalField   nonuniform List<vector> 
25600
(
(0.0374888 -2.72093e-16 0)
(0.0374888 -6.88762e-17 0)
(0.0374888 4.89138e-18 0)
(0.0374888 -3.63762e-18 0)
(0.0374888 3.13556e-18 0)
(0.0374888 -3.20765e-18 0)
(0.0374888 -7.5611e-18 0)
(0.0374888 4.13698e-18 0)
(0.0374888 -1.54942e-18 0)
(0.0374888 -3.01331e-18 0)
(0.0374888 7.76766e-18 0)
(0.0374888 -3.37728e-18 0)
(0.0374888 1.13168e-17 0)
(0.0374888 1.51945e-18 0)
(0.0374888 -1.30132e-17 0)
(0.0374888 7.7811e-18 0)
(0.0374888 1.20529e-18 0)
(0.0374888 -2.61667e-18 0)
(0.0374888 -2.05894e-18 0)
(0.0374888 3.02849e-18 0)
(0.0374888 1.75226e-18 0)
(0.0374888 4.62925e-18 0)
(0.0374888 3.43442e-18 0)
(0.0374888 -9.95165e-18 0)
(0.0374888 -9.644e-18 0)
(0.0374888 -1.83442e-19 0)
(0.0374888 2.19642e-17 0)
(0.0374888 -2.68043e-18 0)
(0.0374888 -2.00946e-17 0)
(0.0374888 -4.36129e-18 0)
(0.0374888 8.83948e-18 0)
(0.0374888 1.05559e-17 0)
(0.0374888 -3.04623e-19 0)
(0.0374888 -5.82355e-18 0)
(0.0374888 -4.48367e-18 0)
(0.0374888 -1.43796e-18 0)
(0.0374888 6.62557e-18 0)
(0.0374888 1.08792e-18 0)
(0.0374888 -9.24839e-18 0)
(0.0374888 6.04281e-18 0)
(0.0374888 -5.74425e-19 0)
(0.0374888 1.44324e-17 0)
(0.0374888 -7.63826e-18 0)
(0.0374888 -1.63605e-17 0)
(0.0374888 2.27388e-17 0)
(0.0374888 -3.30867e-18 0)
(0.0374888 -6.45557e-19 0)
(0.0374888 -4.05253e-18 0)
(0.0374888 -1.3233e-18 0)
(0.0374888 8.90541e-19 0)
(0.0374888 -2.60409e-17 0)
(0.0374888 2.0439e-17 0)
(0.0374888 -5.3968e-18 0)
(0.0374888 -3.73859e-18 0)
(0.0374888 2.35685e-17 0)
(0.0374888 -2.8834e-17 0)
(0.0374888 1.6529e-18 0)
(0.0374888 -1.2435e-17 0)
(0.0374888 -5.33934e-18 0)
(0.0374888 3.60633e-17 0)
(0.0374888 -2.92998e-17 0)
(0.0374888 9.92815e-18 0)
(0.0374888 -3.59148e-18 0)
(0.0374888 -5.87282e-19 0)
(0.0374888 1.97117e-17 0)
(0.0374888 -1.83552e-17 0)
(0.0374888 3.98313e-18 0)
(0.0374888 -2.73552e-18 0)
(0.0374888 1.27437e-17 0)
(0.0374888 2.49967e-19 0)
(0.0374888 -4.29926e-18 0)
(0.0374888 3.0949e-18 0)
(0.0374888 -1.74755e-18 0)
(0.0374888 2.66943e-19 0)
(0.0374888 6.68198e-18 0)
(0.0374888 -6.43848e-18 0)
(0.0374888 -1.67938e-17 0)
(0.0374888 1.38384e-17 0)
(0.0374888 -7.58801e-18 0)
(0.0374888 2.45016e-17 0)
(0.0374888 -2.50837e-17 0)
(0.0374888 -3.19273e-17 0)
(0.0374888 2.67253e-17 0)
(0.0374888 3.87806e-18 0)
(0.0374888 2.60197e-17 0)
(0.0374888 -2.22582e-18 0)
(0.0374888 -4.29187e-17 0)
(0.0374888 3.98785e-18 0)
(0.0374888 2.2647e-17 0)
(0.0374888 3.50383e-17 0)
(0.0374888 -8.67317e-19 0)
(0.0374888 -5.1134e-17 0)
(0.0374888 -2.92397e-18 0)
(0.0374888 4.99109e-17 0)
(0.0374888 -5.89623e-19 0)
(0.0374888 -5.10053e-17 0)
(0.0374888 8.32999e-18 0)
(0.0374888 -2.61569e-18 0)
(0.0374888 4.3162e-17 0)
(0.0374888 2.18104e-17 0)
(0.0374888 -6.86501e-17 0)
(0.0374888 5.25263e-18 0)
(0.0374888 -6.35015e-18 0)
(0.0374888 4.2677e-17 0)
(0.0374888 7.55706e-18 0)
(0.0374888 -1.40996e-17 0)
(0.0374888 -3.2336e-17 0)
(0.0374888 1.91967e-17 0)
(0.0374888 3.20769e-17 0)
(0.0374888 -1.27035e-17 0)
(0.0374888 2.83786e-17 0)
(0.0374888 -8.94868e-17 0)
(0.0374888 2.53664e-17 0)
(0.0374888 5.63087e-17 0)
(0.0374888 9.72554e-19 0)
(0.0374888 -1.80429e-17 0)
(0.0374888 -6.23406e-17 0)
(0.0374888 4.0195e-17 0)
(0.0374888 4.18008e-17 0)
(0.0374888 7.74558e-18 0)
(0.0374888 -1.11826e-17 0)
(0.0374888 -5.98809e-17 0)
(0.0374888 -8.65513e-19 0)
(0.0374888 6.7759e-17 0)
(0.0374888 1.02557e-17 0)
(0.0374888 -3.19466e-17 0)
(0.0374888 -4.5781e-17 0)
(0.0374888 4.14342e-18 0)
(0.0374888 6.36355e-17 0)
(0.0374888 1.41153e-18 0)
(0.0374888 -2.32065e-17 0)
(0.0374888 -3.16442e-17 0)
(0.0374888 1.95176e-17 0)
(0.0374888 3.55589e-17 0)
(0.0374888 -2.32772e-17 0)
(0.0374888 -2.40079e-17 0)
(0.0374888 -1.62852e-17 0)
(0.0374888 3.91761e-17 0)
(0.0374888 1.9787e-17 0)
(0.0374888 -2.41648e-17 0)
(0.0374888 -3.19854e-17 0)
(0.0374888 -1.61059e-17 0)
(0.0374888 5.37058e-17 0)
(0.0374888 1.51181e-17 0)
(0.0374888 -4.56573e-17 0)
(0.0374888 3.7138e-17 0)
(0.0374888 -1.26613e-17 0)
(0.0374888 -3.38812e-17 0)
(0.0374888 -5.18402e-18 0)
(0.0374888 -3.62189e-18 0)
(0.0374888 5.31233e-17 0)
(0.0374888 -1.0432e-17 0)
(0.0374888 -4.77877e-17 0)
(0.0374888 5.58389e-18 0)
(0.0374888 2.31617e-17 0)
(0.0374888 2.90816e-17 0)
(0.0374888 -2.85404e-17 0)
(0.0374888 -3.42749e-17 0)
(0.0374888 2.68505e-17 0)
(0.0374888 6.41762e-18 0)
(0.0374888 5.4975e-17 0)
(0.0374888 -5.47615e-17 0)
(0.0374888 -4.48834e-17 0)
(0.0374888 6.3477e-17 0)
(0.0374888 -1.38913e-17 0)
(0.0374888 4.9968e-17 0)
(0.0374888 -4.02113e-17 0)
(0.0374888 -4.93432e-18 0)
(0.0374888 1.06547e-17 0)
(0.0374888 -4.38012e-17 0)
(0.0374888 8.66276e-17 0)
(0.0374888 -4.93152e-17 0)
(0.0374888 3.38383e-18 0)
(0.0374888 1.70719e-17 0)
(0.0374888 -4.20806e-17 0)
(0.0374888 7.81899e-17 0)
(0.0374888 -5.39163e-17 0)
(0.0374888 8.47434e-18 0)
(0.0374888 -9.25202e-18 0)
(0.0374888 -3.66048e-17 0)
(0.0374888 9.59985e-17 0)
(0.0374888 -7.4311e-17 0)
(0.0374888 5.07874e-18 0)
(0.0374888 1.41429e-17 0)
(0.0374888 -4.90771e-17 0)
(0.0374888 9.86414e-17 0)
(0.0374888 -6.3154e-17 0)
(0.0374888 -2.12934e-18 0)
(0.0374888 6.3034e-17 0)
(0.0374888 -9.3339e-17 0)
(0.0374888 4.68509e-17 0)
(0.0374888 -2.38485e-18 0)
(0.0374888 -5.70266e-17 0)
(0.0374888 9.61241e-17 0)
(0.0374888 -3.91006e-17 0)
(0.0374888 2.84024e-18 0)
(0.0374888 -4.54415e-17 0)
(0.0374888 -8.0987e-18 0)
(0.0374888 1.4328e-16 0)
(0.0374888 -9.23191e-17 0)
(0.0374888 4.02294e-18 0)
(0.0374888 -5.48463e-17 0)
(0.0374888 7.91259e-19 0)
(0.0374888 1.39217e-16 0)
(0.0374888 -8.86778e-17 0)
(0.0374888 -4.59795e-17 0)
(0.0374888 -1.46456e-17 0)
(0.0374888 4.81803e-17 0)
(0.0374888 8.76797e-17 0)
(0.0374888 -4.35991e-17 0)
(0.0374888 -8.25976e-17 0)
(0.0374888 -6.55703e-17 0)
(0.0374888 1.64071e-16 0)
(0.0374888 2.84205e-18 0)
(0.0374888 -1.6723e-16 0)
(0.0374888 1.60486e-16 0)
(0.0374888 3.30956e-17 0)
(0.0374888 -7.92387e-17 0)
(0.0374888 -3.79968e-17 0)
(0.0374888 -7.9078e-17 0)
(0.0374888 1.67285e-16 0)
(0.0374888 3.7964e-17 0)
(0.0374888 -9.18602e-17 0)
(0.0374888 -3.47567e-17 0)
(0.0374888 -7.8172e-17 0)
(0.0374888 1.62786e-16 0)
(0.0374888 -7.12145e-18 0)
(0.0374888 -5.74805e-17 0)
(0.0374888 1.53939e-17 0)
(0.0374888 -1.0189e-16 0)
(0.0374888 1.65211e-16 0)
(0.0374888 -6.60874e-18 0)
(0.0374888 -9.3796e-17 0)
(0.0374888 5.40516e-17 0)
(0.0374888 -7.47089e-17 0)
(0.0374888 1.01212e-16 0)
(0.0374888 -5.53452e-18 0)
(0.0374888 -2.35972e-17 0)
(0.0374888 2.76948e-17 0)
(0.0374888 -1.28981e-16 0)
(0.0374888 1.47465e-16 0)
(0.0374888 -1.26157e-17 0)
(0.0374888 -4.08359e-17 0)
(0.0374888 7.26971e-17 0)
(0.0374888 -1.41593e-16 0)
(0.0374888 1.92753e-17 0)
(0.0374888 4.88109e-17 0)
(0.0374888 5.08688e-17 0)
(0.0374888 1.55094e-17 0)
(0.0374888 -1.29028e-16 0)
(0.0374888 7.95105e-17 0)
(0.0374888 -6.97497e-18 0)
(0.0374888 -2.42577e-17 0)
(0.0374888 4.2386e-17 0)
(0.0374888 -1.09112e-16 0)
(0.0374888 1.03052e-16 0)
(0.0374888 -1.64202e-17 0)
(0.0374888 -1.92912e-17 0)
(0.0374888 6.8716e-17 0)
(0.0374888 -1.22517e-16 0)
(0.0374888 6.16323e-17 0)
(0.0374888 -5.72379e-18 0)
(0.0374888 -1.89429e-18 0)
(0.0374888 5.50049e-17 0)
(0.0374888 -1.11107e-16 0)
(0.0374888 7.85744e-17 0)
(0.0374888 2.91423e-17 0)
(0.0374888 -4.37033e-17 0)
(0.0374888 1.09295e-17 0)
(0.0374888 -7.66776e-17 0)
(0.0374888 7.23829e-17 0)
(0.0374888 3.34033e-17 0)
(0.0374888 -8.01071e-17 0)
(0.0374888 4.84692e-17 0)
(0.0374888 -3.50344e-17 0)
(0.0374888 2.92879e-17 0)
(0.0374888 3.40657e-17 0)
(0.0374888 -8.82549e-17 0)
(0.0374888 5.69203e-17 0)
(0.0374888 -3.84106e-17 0)
(0.0374888 1.92631e-17 0)
(0.0374888 4.41826e-17 0)
(0.0374888 -8.34097e-17 0)
(0.0374888 5.39196e-17 0)
(0.0374888 -3.23366e-17 0)
(0.0374888 -2.21877e-17 0)
(0.0374888 9.15287e-17 0)
(0.0374888 -4.90659e-17 0)
(0.0374888 -4.426e-18 0)
(0.0374888 -6.19423e-17 0)
(0.0374888 3.44718e-17 0)
(0.0374888 1.24744e-16 0)
(0.0374888 -1.13622e-17 0)
(0.0374888 -1.15933e-16 0)
(0.0374888 -2.16761e-17 0)
(0.0374888 5.85754e-17 0)
(0.0374888 1.30072e-17 0)
(0.0374888 6.75377e-17 0)
(0.0374888 -1.27637e-16 0)
(0.0374888 -1.73464e-17 0)
(0.0374888 6.40468e-17 0)
(0.0374888 6.50867e-18 0)
(0.0374888 4.88384e-17 0)
(0.0374888 -9.434e-17 0)
(0.0374888 2.80921e-17 0)
(0.0374888 3.09122e-17 0)
(0.0374888 -5.07074e-17 0)
(0.0374888 9.0067e-17 0)
(0.0374888 -6.59354e-17 0)
(0.0374888 7.13285e-19 0)
(0.0374888 2.12646e-17 0)
(0.0374888 -6.99886e-17 0)
(0.0374888 9.49739e-17 0)
(0.0374888 -4.1357e-17 0)
(0.0374888 -6.49013e-17 0)
(0.0374888 5.02846e-17 0)
(0.0374888 -2.2925e-17 0)
(0.0374888 6.56393e-17 0)
(0.0374888 -3.21753e-17 0)
(0.0374888 -1.30349e-16 0)
(0.110592 -6.97813e-16 0)
(0.110592 -2.22339e-16 0)
(0.110592 -1.3407e-16 0)
(0.110592 -7.08297e-17 0)
(0.110592 -2.54457e-17 0)
(0.110592 -3.33219e-17 0)
(0.110592 -3.26064e-17 0)
(0.110592 -4.60722e-18 0)
(0.110592 1.08128e-17 0)
(0.110592 -1.12316e-18 0)
(0.110592 1.22018e-17 0)
(0.110592 2.03847e-18 0)
(0.110592 4.55709e-17 0)
(0.110592 1.44732e-17 0)
(0.110592 -3.50775e-17 0)
(0.110592 1.26416e-17 0)
(0.110592 1.73792e-17 0)
(0.110592 1.78522e-17 0)
(0.110592 8.79459e-18 0)
(0.110592 2.86631e-18 0)
(0.110592 2.16085e-17 0)
(0.110592 5.85889e-18 0)
(0.110592 -1.65121e-17 0)
(0.110592 -2.64874e-17 0)
(0.110592 -3.08076e-17 0)
(0.110592 -2.10246e-17 0)
(0.110592 1.48928e-17 0)
(0.110592 -2.69451e-17 0)
(0.110592 -5.1575e-17 0)
(0.110592 -3.8916e-17 0)
(0.110592 1.54505e-17 0)
(0.110592 5.07328e-17 0)
(0.110592 -7.0243e-18 0)
(0.110592 -2.96244e-17 0)
(0.110592 -2.85737e-18 0)
(0.110592 2.92331e-19 0)
(0.110592 5.09378e-17 0)
(0.110592 -9.9606e-18 0)
(0.110592 -3.71683e-17 0)
(0.110592 2.49366e-17 0)
(0.110592 -2.70959e-17 0)
(0.110592 8.78874e-18 0)
(0.110592 1.83117e-17 0)
(0.110592 -3.16999e-17 0)
(0.110592 2.56004e-17 0)
(0.110592 3.27178e-18 0)
(0.110592 -3.70283e-18 0)
(0.110592 -1.5543e-17 0)
(0.110592 -3.08206e-17 0)
(0.110592 -3.78459e-17 0)
(0.110592 -6.11209e-17 0)
(0.110592 1.73084e-17 0)
(0.110592 -2.2898e-17 0)
(0.110592 -3.10969e-17 0)
(0.110592 1.76529e-17 0)
(0.110592 -6.1329e-17 0)
(0.110592 -1.14069e-17 0)
(0.110592 -1.70664e-17 0)
(0.110592 2.96785e-19 0)
(0.110592 1.64356e-17 0)
(0.110592 -7.72721e-17 0)
(0.110592 4.84594e-17 0)
(0.110592 -2.4322e-18 0)
(0.110592 -9.05694e-19 0)
(0.110592 6.34626e-17 0)
(0.110592 -2.30118e-17 0)
(0.110592 3.40873e-17 0)
(0.110592 1.91416e-17 0)
(0.110592 1.24307e-17 0)
(0.110592 3.62229e-17 0)
(0.110592 -1.26598e-17 0)
(0.110592 3.50993e-18 0)
(0.110592 -1.98692e-17 0)
(0.110592 -1.62374e-17 0)
(0.110592 8.85245e-17 0)
(0.110592 -7.11595e-17 0)
(0.110592 -7.44584e-17 0)
(0.110592 3.73918e-17 0)
(0.110592 -2.82694e-17 0)
(0.110592 2.10829e-17 0)
(0.110592 -3.5812e-17 0)
(0.110592 -1.06565e-16 0)
(0.110592 1.36098e-17 0)
(0.110592 6.6537e-17 0)
(0.110592 5.50862e-17 0)
(0.110592 -6.55721e-18 0)
(0.110592 -3.83487e-17 0)
(0.110592 -5.30001e-18 0)
(0.110592 6.72512e-17 0)
(0.110592 1.22784e-16 0)
(0.110592 -3.07914e-17 0)
(0.110592 -9.66055e-17 0)
(0.110592 1.0724e-17 0)
(0.110592 8.29683e-17 0)
(0.110592 7.97762e-18 0)
(0.110592 -7.24464e-17 0)
(0.110592 1.23522e-17 0)
(0.110592 4.31823e-18 0)
(0.110592 4.73757e-17 0)
(0.110592 2.25867e-17 0)
(0.110592 -9.55915e-17 0)
(0.110592 1.99244e-17 0)
(0.110592 -5.74742e-17 0)
(0.110592 2.70304e-17 0)
(0.110592 7.11141e-17 0)
(0.110592 1.43511e-17 0)
(0.110592 -7.21603e-17 0)
(0.110592 5.88494e-18 0)
(0.110592 1.05077e-16 0)
(0.110592 4.60337e-17 0)
(0.110592 3.56172e-17 0)
(0.110592 -1.92468e-16 0)
(0.110592 3.86575e-17 0)
(0.110592 1.70373e-16 0)
(0.110592 1.25964e-17 0)
(0.110592 -4.06499e-17 0)
(0.110592 -1.27922e-16 0)
(0.110592 8.90503e-18 0)
(0.110592 1.3796e-16 0)
(0.110592 1.48812e-17 0)
(0.110592 -8.73515e-17 0)
(0.110592 -1.4849e-16 0)
(0.110592 -2.59204e-18 0)
(0.110592 1.94627e-16 0)
(0.110592 8.68488e-17 0)
(0.110592 -1.01031e-16 0)
(0.110592 -1.6313e-16 0)
(0.110592 4.53847e-17 0)
(0.110592 1.80915e-16 0)
(0.110592 2.16021e-17 0)
(0.110592 -6.70608e-17 0)
(0.110592 -1.01441e-16 0)
(0.110592 4.08087e-17 0)
(0.110592 1.02844e-16 0)
(0.110592 -3.36975e-17 0)
(0.110592 -2.95408e-17 0)
(0.110592 -1.25166e-16 0)
(0.110592 -4.20186e-17 0)
(0.110592 1.01993e-16 0)
(0.110592 6.26275e-18 0)
(0.110592 -2.44827e-17 0)
(0.110592 -1.06133e-16 0)
(0.110592 5.99856e-18 0)
(0.110592 7.8617e-17 0)
(0.110592 6.43957e-18 0)
(0.110592 -2.31176e-17 0)
(0.110592 -1.10361e-16 0)
(0.110592 1.45453e-17 0)
(0.110592 4.55286e-18 0)
(0.110592 3.2751e-17 0)
(0.110592 9.27978e-17 0)
(0.110592 -1.60586e-16 0)
(0.110592 -1.13429e-16 0)
(0.110592 7.93984e-17 0)
(0.110592 7.32543e-17 0)
(0.110592 6.91815e-17 0)
(0.110592 -5.66598e-17 0)
(0.110592 -8.24008e-17 0)
(0.110592 6.01345e-17 0)
(0.110592 6.75345e-17 0)
(0.110592 1.18804e-16 0)
(0.110592 -1.07664e-16 0)
(0.110592 5.35424e-18 0)
(0.110592 1.35969e-16 0)
(0.110592 -1.43286e-16 0)
(0.110592 7.28879e-17 0)
(0.110592 2.01724e-17 0)
(0.110592 -7.17309e-17 0)
(0.110592 1.59736e-16 0)
(0.110592 7.63129e-17 0)
(0.110592 7.76813e-18 0)
(0.110592 -1.06152e-16 0)
(0.110592 3.96586e-17 0)
(0.110592 8.55607e-17 0)
(0.110592 -6.01798e-17 0)
(0.110592 -7.53039e-17 0)
(0.110592 -6.54489e-17 0)
(0.110592 1.78918e-16 0)
(0.110592 -6.69839e-17 0)
(0.110592 -6.46409e-17 0)
(0.110592 1.24462e-16 0)
(0.110592 -2.04027e-16 0)
(0.110592 -2.24831e-17 0)
(0.110592 7.30115e-17 0)
(0.110592 -2.99208e-17 0)
(0.110592 1.43419e-16 0)
(0.110592 -1.30577e-16 0)
(0.110592 -1.08292e-17 0)
(0.110592 1.37849e-16 0)
(0.110592 -1.22379e-16 0)
(0.110592 5.62698e-17 0)
(0.110592 -1.36352e-17 0)
(0.110592 -8.23173e-17 0)
(0.110592 1.49493e-16 0)
(0.110592 -1.3098e-17 0)
(0.110592 1.61539e-17 0)
(0.110592 -9.16855e-17 0)
(0.110592 -2.4261e-17 0)
(0.110592 1.99036e-16 0)
(0.110592 -1.2167e-16 0)
(0.110592 -1.6643e-17 0)
(0.110592 -1.02742e-16 0)
(0.110592 1.64755e-17 0)
(0.110592 2.10474e-16 0)
(0.110592 -8.15318e-17 0)
(0.110592 -1.5464e-16 0)
(0.110592 -1.12513e-16 0)
(0.110592 1.22923e-16 0)
(0.110592 1.27216e-16 0)
(0.110592 -4.66463e-17 0)
(0.110592 -1.1367e-16 0)
(0.110592 -1.144e-16 0)
(0.110592 3.06832e-16 0)
(0.110592 2.91448e-18 0)
(0.110592 -2.94984e-16 0)
(0.110592 2.6412e-16 0)
(0.110592 2.68055e-17 0)
(0.110592 -7.57534e-17 0)
(0.110592 -8.21708e-17 0)
(0.110592 -1.7138e-16 0)
(0.110592 3.2596e-16 0)
(0.110592 6.43254e-17 0)
(0.110592 -1.36096e-16 0)
(0.110592 -6.61002e-17 0)
(0.110592 -1.79122e-16 0)
(0.110592 3.1452e-16 0)
(0.110592 9.06942e-18 0)
(0.110592 -1.12414e-16 0)
(0.110592 8.51798e-17 0)
(0.110592 -9.26531e-17 0)
(0.110592 1.76182e-16 0)
(0.110592 -4.63237e-17 0)
(0.110592 1.42062e-17 0)
(0.110592 9.25881e-17 0)
(0.110592 -2.37019e-16 0)
(0.110592 9.07409e-17 0)
(0.110592 6.84754e-17 0)
(0.110592 8.14426e-17 0)
(0.110592 1.11714e-16 0)
(0.110592 -2.15845e-16 0)
(0.110592 9.21636e-17 0)
(0.110592 -5.64804e-17 0)
(0.110592 4.53692e-17 0)
(0.110592 1.35276e-16 0)
(0.110592 -3.37859e-16 0)
(0.110592 3.00833e-17 0)
(0.110592 9.92964e-17 0)
(0.110592 1.21247e-16 0)
(0.110592 3.52538e-17 0)
(0.110592 -2.70387e-16 0)
(0.110592 1.97125e-16 0)
(0.110592 -3.91267e-17 0)
(0.110592 -1.51203e-16 0)
(0.110592 -3.04857e-17 0)
(0.110592 -1.6308e-16 0)
(0.110592 3.08543e-16 0)
(0.110592 -1.3916e-17 0)
(0.110592 -5.11385e-17 0)
(0.110592 1.14171e-16 0)
(0.110592 -2.41668e-16 0)
(0.110592 1.09522e-16 0)
(0.110592 4.92262e-17 0)
(0.110592 -4.35438e-17 0)
(0.110592 1.43024e-17 0)
(0.110592 -1.29078e-16 0)
(0.110592 2.17884e-16 0)
(0.110592 4.04667e-17 0)
(0.110592 -2.77049e-17 0)
(0.110592 -3.89541e-17 0)
(0.110592 -1.95014e-16 0)
(0.110592 1.63481e-16 0)
(0.110592 1.11095e-17 0)
(0.110592 4.86073e-17 0)
(0.110592 -5.41696e-17 0)
(0.110592 -2.00147e-16 0)
(0.110592 1.50589e-16 0)
(0.110592 -3.16593e-18 0)
(0.110592 -5.56126e-17 0)
(0.110592 8.88752e-17 0)
(0.110592 -1.61491e-16 0)
(0.110592 7.33964e-17 0)
(0.110592 6.3642e-17 0)
(0.110592 -3.76534e-18 0)
(0.110592 -5.4718e-18 0)
(0.110592 -1.81367e-16 0)
(0.110592 1.00394e-16 0)
(0.110592 1.43998e-16 0)
(0.110592 4.29609e-17 0)
(0.110592 -1.5689e-16 0)
(0.110592 -1.34388e-16 0)
(0.110592 2.20554e-16 0)
(0.110592 -4.36279e-17 0)
(0.110592 -6.88488e-17 0)
(0.110592 -3.63262e-17 0)
(0.110592 -5.48166e-17 0)
(0.110592 2.29349e-16 0)
(0.110592 -3.97543e-17 0)
(0.110592 -7.25071e-17 0)
(0.110592 -9.37003e-17 0)
(0.110592 -5.19533e-17 0)
(0.110592 2.67816e-16 0)
(0.110592 1.22601e-17 0)
(0.110592 7.04438e-17 0)
(0.110592 -1.00417e-16 0)
(0.110592 -2.28093e-16 0)
(0.110592 1.03065e-16 0)
(0.110592 6.02224e-17 0)
(0.110592 9.12736e-17 0)
(0.110592 -1.468e-16 0)
(0.110592 -6.37419e-18 0)
(0.110592 6.3917e-17 0)
(0.110592 -1.5117e-16 0)
(0.110592 1.19841e-16 0)
(0.110592 -6.28916e-17 0)
(0.110592 -1.60344e-16 0)
(0.110592 6.34348e-17 0)
(0.110592 -1.46119e-16 0)
(0.110592 2.52257e-17 0)
(0.110592 -1.24243e-16 0)
(0.110592 -3.62762e-16 0)
(0.181821 -2.6777e-16 0)
(0.181821 -2.17456e-16 0)
(0.181821 -1.63696e-16 0)
(0.181821 -1.09101e-16 0)
(0.181821 -4.92297e-17 0)
(0.181821 -6.27801e-17 0)
(0.181821 -4.1169e-17 0)
(0.181821 1.03369e-17 0)
(0.181821 4.48181e-17 0)
(0.181821 1.85675e-17 0)
(0.181821 1.04078e-18 0)
(0.181821 3.13295e-17 0)
(0.181821 1.0748e-16 0)
(0.181821 2.23316e-17 0)
(0.181821 -3.41914e-17 0)
(0.181821 2.53776e-17 0)
(0.181821 4.88941e-17 0)
(0.181821 3.9472e-17 0)
(0.181821 2.92551e-17 0)
(0.181821 3.18387e-17 0)
(0.181821 5.27479e-17 0)
(0.181821 -1.54196e-17 0)
(0.181821 -4.72559e-17 0)
(0.181821 -5.90747e-17 0)
(0.181821 -5.29443e-17 0)
(0.181821 -4.8243e-17 0)
(0.181821 -1.29249e-17 0)
(0.181821 -7.24703e-17 0)
(0.181821 -1.12927e-16 0)
(0.181821 -8.25875e-17 0)
(0.181821 1.8178e-17 0)
(0.181821 8.85848e-17 0)
(0.181821 -3.97786e-18 0)
(0.181821 -3.87335e-17 0)
(0.181821 -3.64134e-18 0)
(0.181821 2.46806e-18 0)
(0.181821 6.0837e-17 0)
(0.181821 -7.63515e-18 0)
(0.181821 -5.87795e-17 0)
(0.181821 3.93783e-18 0)
(0.181821 -1.63926e-17 0)
(0.181821 1.20802e-17 0)
(0.181821 2.40865e-17 0)
(0.181821 -5.32756e-17 0)
(0.181821 -6.20182e-18 0)
(0.181821 4.37576e-17 0)
(0.181821 -3.56988e-18 0)
(0.181821 -5.84864e-17 0)
(0.181821 -7.50614e-17 0)
(0.181821 -8.83016e-17 0)
(0.181821 -8.43869e-17 0)
(0.181821 -4.34949e-17 0)
(0.181821 -5.0751e-17 0)
(0.181821 -5.50648e-17 0)
(0.181821 -1.38295e-17 0)
(0.181821 -9.63616e-17 0)
(0.181821 -5.06618e-17 0)
(0.181821 -3.52281e-17 0)
(0.181821 -1.70843e-17 0)
(0.181821 1.9433e-17 0)
(0.181821 -1.20306e-16 0)
(0.181821 6.94342e-17 0)
(0.181821 -9.92254e-18 0)
(0.181821 8.34683e-18 0)
(0.181821 1.35073e-16 0)
(0.181821 -2.88109e-17 0)
(0.181821 7.96006e-17 0)
(0.181821 5.84366e-17 0)
(0.181821 4.16801e-17 0)
(0.181821 7.61203e-17 0)
(0.181821 -2.33522e-17 0)
(0.181821 1.14794e-17 0)
(0.181821 -4.09549e-17 0)
(0.181821 2.72935e-17 0)
(0.181821 7.33166e-17 0)
(0.181821 -1.15643e-16 0)
(0.181821 -1.12902e-16 0)
(0.181821 1.07098e-17 0)
(0.181821 -6.47048e-17 0)
(0.181821 -1.1474e-17 0)
(0.181821 -8.22323e-17 0)
(0.181821 -1.58567e-16 0)
(0.181821 4.79551e-17 0)
(0.181821 1.08109e-16 0)
(0.181821 9.24866e-17 0)
(0.181821 4.0899e-18 0)
(0.181821 3.0962e-17 0)
(0.181821 1.35396e-17 0)
(0.181821 4.2712e-17 0)
(0.181821 1.98408e-16 0)
(0.181821 -1.62939e-17 0)
(0.181821 -1.03218e-16 0)
(0.181821 4.01856e-17 0)
(0.181821 6.73497e-17 0)
(0.181821 1.94915e-17 0)
(0.181821 -5.19977e-17 0)
(0.181821 1.48596e-17 0)
(0.181821 9.22161e-18 0)
(0.181821 4.25211e-18 0)
(0.181821 -4.07599e-18 0)
(0.181821 -5.25631e-17 0)
(0.181821 -2.57347e-17 0)
(0.181821 -6.43506e-17 0)
(0.181821 1.09853e-17 0)
(0.181821 1.14722e-16 0)
(0.181821 9.93523e-17 0)
(0.181821 -8.85175e-17 0)
(0.181821 -5.74385e-17 0)
(0.181821 1.90756e-16 0)
(0.181821 1.83337e-16 0)
(0.181821 9.26815e-18 0)
(0.181821 -2.90814e-16 0)
(0.181821 5.37581e-17 0)
(0.181821 2.66343e-16 0)
(0.181821 1.09159e-16 0)
(0.181821 -4.23606e-17 0)
(0.181821 -2.60046e-16 0)
(0.181821 -5.89034e-17 0)
(0.181821 2.9737e-16 0)
(0.181821 9.44569e-17 0)
(0.181821 -2.37759e-16 0)
(0.181821 -3.24147e-16 0)
(0.181821 -1.25556e-17 0)
(0.181821 3.681e-16 0)
(0.181821 2.27516e-16 0)
(0.181821 -1.64126e-16 0)
(0.181821 -3.76298e-16 0)
(0.181821 1.13286e-16 0)
(0.181821 3.3781e-16 0)
(0.181821 4.91189e-17 0)
(0.181821 -9.23245e-17 0)
(0.181821 -2.11707e-16 0)
(0.181821 5.10218e-17 0)
(0.181821 2.14121e-16 0)
(0.181821 -5.09734e-17 0)
(0.181821 -1.44216e-16 0)
(0.181821 -2.25834e-16 0)
(0.181821 -5.04028e-17 0)
(0.181821 1.92008e-16 0)
(0.181821 8.4356e-18 0)
(0.181821 -1.48432e-16 0)
(0.181821 -1.83813e-16 0)
(0.181821 6.0435e-17 0)
(0.181821 1.13728e-16 0)
(0.181821 -5.46131e-17 0)
(0.181821 -8.63547e-17 0)
(0.181821 -1.22933e-16 0)
(0.181821 7.23005e-17 0)
(0.181821 4.31604e-18 0)
(0.181821 -8.86899e-17 0)
(0.181821 1.29484e-16 0)
(0.181821 -1.17925e-16 0)
(0.181821 -1.88497e-16 0)
(0.181821 4.22363e-17 0)
(0.181821 1.00429e-16 0)
(0.181821 1.48677e-16 0)
(0.181821 -5.44231e-17 0)
(0.181821 -1.44158e-16 0)
(0.181821 8.09881e-17 0)
(0.181821 1.78368e-16 0)
(0.181821 2.03414e-16 0)
(0.181821 -1.47974e-16 0)
(0.181821 -3.39739e-17 0)
(0.181821 2.26682e-16 0)
(0.181821 -5.09024e-17 0)
(0.181821 4.88058e-17 0)
(0.181821 6.68356e-17 0)
(0.181821 7.09252e-17 0)
(0.181821 1.5289e-16 0)
(0.181821 7.22662e-17 0)
(0.181821 2.86766e-18 0)
(0.181821 -9.38034e-17 0)
(0.181821 7.61486e-17 0)
(0.181821 1.61155e-16 0)
(0.181821 2.13612e-18 0)
(0.181821 -1.93651e-16 0)
(0.181821 -1.8961e-16 0)
(0.181821 7.71952e-17 0)
(0.181821 -2.04016e-17 0)
(0.181821 1.31176e-16 0)
(0.181821 4.25644e-17 0)
(0.181821 -4.11115e-16 0)
(0.181821 -6.23047e-17 0)
(0.181821 1.84947e-16 0)
(0.181821 6.06408e-17 0)
(0.181821 1.15703e-16 0)
(0.181821 -1.82452e-16 0)
(0.181821 -5.72415e-17 0)
(0.181821 2.03687e-16 0)
(0.181821 -4.16545e-17 0)
(0.181821 1.77772e-19 0)
(0.181821 -2.5225e-17 0)
(0.181821 -3.99186e-17 0)
(0.181821 1.09638e-16 0)
(0.181821 8.34103e-17 0)
(0.181821 3.20143e-17 0)
(0.181821 -9.10971e-17 0)
(0.181821 -5.07752e-17 0)
(0.181821 1.01056e-16 0)
(0.181821 -5.38498e-17 0)
(0.181821 -3.60953e-17 0)
(0.181821 -1.00748e-16 0)
(0.181821 3.49393e-17 0)
(0.181821 1.2142e-16 0)
(0.181821 -7.48883e-17 0)
(0.181821 -1.34609e-16 0)
(0.181821 -1.31102e-16 0)
(0.181821 5.71703e-17 0)
(0.181821 5.23427e-17 0)
(0.181821 7.48968e-19 0)
(0.181821 -4.24916e-17 0)
(0.181821 -1.51618e-16 0)
(0.181821 3.94519e-16 0)
(0.181821 1.81944e-17 0)
(0.181821 -3.45315e-16 0)
(0.181821 3.07807e-16 0)
(0.181821 -6.41857e-17 0)
(0.181821 1.74896e-17 0)
(0.181821 -8.49736e-17 0)
(0.181821 -3.17079e-16 0)
(0.181821 4.74575e-16 0)
(0.181821 5.6131e-17 0)
(0.181821 -1.38161e-16 0)
(0.181821 -5.5967e-17 0)
(0.181821 -3.32522e-16 0)
(0.181821 4.73232e-16 0)
(0.181821 5.74779e-17 0)
(0.181821 -1.49243e-16 0)
(0.181821 6.36178e-17 0)
(0.181821 -1.47965e-16 0)
(0.181821 4.60407e-16 0)
(0.181821 3.49859e-17 0)
(0.181821 -1.1294e-16 0)
(0.181821 1.03797e-16 0)
(0.181821 -3.26847e-16 0)
(0.181821 1.19014e-16 0)
(0.181821 1.4547e-17 0)
(0.181821 3.12703e-16 0)
(0.181821 3.12768e-16 0)
(0.181821 -4.31995e-16 0)
(0.181821 1.03334e-16 0)
(0.181821 -1.36782e-16 0)
(0.181821 1.37547e-16 0)
(0.181821 2.1707e-16 0)
(0.181821 -6.40882e-16 0)
(0.181821 7.23046e-17 0)
(0.181821 1.59898e-16 0)
(0.181821 2.05208e-16 0)
(0.181821 3.75433e-17 0)
(0.181821 -4.29931e-16 0)
(0.181821 4.34899e-16 0)
(0.181821 -8.73186e-17 0)
(0.181821 -4.14658e-16 0)
(0.181821 -2.28484e-16 0)
(0.181821 -2.04942e-16 0)
(0.181821 7.13708e-16 0)
(0.181821 -3.42089e-17 0)
(0.181821 -1.62532e-16 0)
(0.181821 1.51122e-16 0)
(0.181821 -3.56545e-16 0)
(0.181821 2.48441e-16 0)
(0.181821 1.74136e-17 0)
(0.181821 -1.31767e-17 0)
(0.181821 -6.95991e-18 0)
(0.181821 -2.26063e-16 0)
(0.181821 4.53378e-16 0)
(0.181821 2.3022e-17 0)
(0.181821 -8.82178e-17 0)
(0.181821 5.63733e-18 0)
(0.181821 -3.58282e-16 0)
(0.181821 2.55799e-16 0)
(0.181821 4.79436e-17 0)
(0.181821 3.34882e-18 0)
(0.181821 -1.06616e-17 0)
(0.181821 -3.63796e-16 0)
(0.181821 2.35931e-16 0)
(0.181821 -2.0192e-18 0)
(0.181821 -6.16538e-18 0)
(0.181821 9.78887e-17 0)
(0.181821 -3.94882e-16 0)
(0.181821 1.57824e-16 0)
(0.181821 4.33374e-17 0)
(0.181821 6.61624e-18 0)
(0.181821 1.04013e-16 0)
(0.181821 -3.30035e-16 0)
(0.181821 2.48742e-16 0)
(0.181821 2.39631e-16 0)
(0.181821 -1.43946e-16 0)
(0.181821 -1.50915e-16 0)
(0.181821 -2.18057e-16 0)
(0.181821 2.84728e-16 0)
(0.181821 6.4478e-17 0)
(0.181821 -2.09664e-16 0)
(0.181821 3.86838e-17 0)
(0.181821 -1.15778e-16 0)
(0.181821 1.30566e-16 0)
(0.181821 2.01835e-16 0)
(0.181821 -1.69846e-16 0)
(0.181821 -1.1657e-16 0)
(0.181821 -1.33819e-16 0)
(0.181821 2.76836e-16 0)
(0.181821 3.86285e-16 0)
(0.181821 4.20906e-17 0)
(0.181821 -3.52567e-16 0)
(0.181821 -1.77617e-16 0)
(0.181821 2.35449e-16 0)
(0.181821 5.20381e-17 0)
(0.181821 3.32307e-17 0)
(0.181821 -2.82435e-16 0)
(0.181821 9.11734e-18 0)
(0.181821 1.22419e-16 0)
(0.181821 -2.20982e-16 0)
(0.181821 1.10849e-16 0)
(0.181821 -7.17109e-17 0)
(0.181821 -2.16042e-16 0)
(0.181821 -8.06406e-17 0)
(0.181821 -2.1855e-16 0)
(0.181821 1.60993e-16 0)
(0.181821 -1.84096e-16 0)
(0.181821 -4.50699e-16 0)
(0.251175 -1.51495e-16 0)
(0.251175 -1.90333e-16 0)
(0.251175 -1.73826e-16 0)
(0.251175 -1.01849e-16 0)
(0.251175 -9.03924e-17 0)
(0.251175 -6.14459e-17 0)
(0.251175 -4.67612e-17 0)
(0.251175 1.82427e-17 0)
(0.251175 9.21751e-17 0)
(0.251175 3.71198e-17 0)
(0.251175 2.01219e-17 0)
(0.251175 5.93078e-17 0)
(0.251175 1.46458e-16 0)
(0.251175 4.65593e-17 0)
(0.251175 -2.9507e-17 0)
(0.251175 5.68419e-17 0)
(0.251175 8.08303e-17 0)
(0.251175 9.1875e-17 0)
(0.251175 5.9071e-17 0)
(0.251175 5.76767e-17 0)
(0.251175 6.57801e-17 0)
(0.251175 -6.95648e-21 0)
(0.251175 -7.06967e-17 0)
(0.251175 -1.16661e-16 0)
(0.251175 -1.09947e-16 0)
(0.251175 -8.87184e-17 0)
(0.251175 -3.88052e-17 0)
(0.251175 -1.30552e-16 0)
(0.251175 -2.21787e-16 0)
(0.251175 -1.25078e-16 0)
(0.251175 2.14641e-17 0)
(0.251175 9.01491e-17 0)
(0.251175 2.10872e-17 0)
(0.251175 -2.31936e-17 0)
(0.251175 -1.9691e-17 0)
(0.251175 -2.46021e-17 0)
(0.251175 5.81869e-17 0)
(0.251175 1.41239e-17 0)
(0.251175 -8.06266e-17 0)
(0.251175 -1.84963e-17 0)
(0.251175 -1.38645e-17 0)
(0.251175 2.07339e-17 0)
(0.251175 1.0589e-17 0)
(0.251175 -7.84375e-17 0)
(0.251175 -2.94292e-18 0)
(0.251175 4.76526e-17 0)
(0.251175 -1.24728e-17 0)
(0.251175 -7.75463e-17 0)
(0.251175 -1.44737e-16 0)
(0.251175 -1.59499e-16 0)
(0.251175 -1.73012e-16 0)
(0.251175 -8.78478e-17 0)
(0.251175 -7.4407e-17 0)
(0.251175 -1.11219e-16 0)
(0.251175 -3.67371e-17 0)
(0.251175 -1.53925e-16 0)
(0.251175 -9.27464e-17 0)
(0.251175 -7.21193e-17 0)
(0.251175 -5.12767e-17 0)
(0.251175 2.32977e-17 0)
(0.251175 -1.35529e-16 0)
(0.251175 4.92501e-17 0)
(0.251175 5.12329e-18 0)
(0.251175 4.32697e-17 0)
(0.251175 1.60933e-16 0)
(0.251175 -1.23831e-17 0)
(0.251175 1.67373e-16 0)
(0.251175 8.11261e-17 0)
(0.251175 9.67169e-17 0)
(0.251175 1.56773e-16 0)
(0.251175 -5.15994e-17 0)
(0.251175 1.77602e-17 0)
(0.251175 -6.05569e-17 0)
(0.251175 3.26662e-17 0)
(0.251175 8.51176e-17 0)
(0.251175 -1.86404e-16 0)
(0.251175 -1.30384e-16 0)
(0.251175 -5.97692e-17 0)
(0.251175 -1.14736e-16 0)
(0.251175 -2.40968e-18 0)
(0.251175 -1.59504e-16 0)
(0.251175 -2.29818e-16 0)
(0.251175 5.09425e-17 0)
(0.251175 1.94727e-16 0)
(0.251175 1.65243e-16 0)
(0.251175 5.47726e-18 0)
(0.251175 4.26825e-17 0)
(0.251175 8.86176e-17 0)
(0.251175 9.69843e-17 0)
(0.251175 2.31282e-16 0)
(0.251175 1.83373e-17 0)
(0.251175 -8.73522e-17 0)
(0.251175 3.52942e-17 0)
(0.251175 1.05961e-16 0)
(0.251175 4.46653e-17 0)
(0.251175 -9.04586e-17 0)
(0.251175 1.81371e-17 0)
(0.251175 3.79781e-17 0)
(0.251175 1.15022e-20 0)
(0.251175 -1.57789e-17 0)
(0.251175 -6.73169e-17 0)
(0.251175 -7.35942e-17 0)
(0.251175 -1.07862e-16 0)
(0.251175 5.51552e-17 0)
(0.251175 2.2287e-16 0)
(0.251175 1.47793e-16 0)
(0.251175 -1.24185e-16 0)
(0.251175 -8.23274e-17 0)
(0.251175 3.19213e-16 0)
(0.251175 3.2902e-16 0)
(0.251175 -1.94917e-17 0)
(0.251175 -3.72002e-16 0)
(0.251175 6.07503e-17 0)
(0.251175 3.65566e-16 0)
(0.251175 2.26272e-16 0)
(0.251175 -2.03804e-17 0)
(0.251175 -3.80369e-16 0)
(0.251175 -1.14758e-16 0)
(0.251175 3.80063e-16 0)
(0.251175 1.6504e-16 0)
(0.251175 -3.6326e-16 0)
(0.251175 -5.09568e-16 0)
(0.251175 2.17875e-17 0)
(0.251175 4.91863e-16 0)
(0.251175 2.77011e-16 0)
(0.251175 -1.9542e-16 0)
(0.251175 -4.10868e-16 0)
(0.251175 1.16647e-16 0)
(0.251175 4.7805e-16 0)
(0.251175 8.2303e-17 0)
(0.251175 -1.78047e-16 0)
(0.251175 -2.23694e-16 0)
(0.251175 1.62531e-17 0)
(0.251175 2.5055e-16 0)
(0.251175 -9.02882e-18 0)
(0.251175 -2.28361e-16 0)
(0.251175 -3.93584e-16 0)
(0.251175 -1.09188e-16 0)
(0.251175 3.20937e-16 0)
(0.251175 4.82155e-17 0)
(0.251175 -2.56692e-16 0)
(0.251175 -3.57929e-16 0)
(0.251175 6.2924e-17 0)
(0.251175 1.52764e-16 0)
(0.251175 -2.97664e-17 0)
(0.251175 -7.723e-17 0)
(0.251175 -3.25162e-16 0)
(0.251175 4.6083e-17 0)
(0.251175 5.84056e-17 0)
(0.251175 -3.90522e-17 0)
(0.251175 9.38587e-17 0)
(0.251175 -2.59187e-16 0)
(0.251175 -1.47941e-16 0)
(0.251175 7.31005e-17 0)
(0.251175 1.26433e-16 0)
(0.251175 1.52614e-16 0)
(0.251175 -1.0009e-16 0)
(0.251175 -1.30228e-16 0)
(0.251175 1.97059e-16 0)
(0.251175 2.74396e-16 0)
(0.251175 2.48925e-16 0)
(0.251175 -2.05887e-16 0)
(0.251175 5.89018e-17 0)
(0.251175 3.41359e-16 0)
(0.251175 -7.64696e-17 0)
(0.251175 1.20582e-16 0)
(0.251175 1.28131e-16 0)
(0.251175 1.67749e-16 0)
(0.251175 2.36672e-16 0)
(0.251175 1.05842e-16 0)
(0.251175 1.91905e-17 0)
(0.251175 -1.50627e-16 0)
(0.251175 8.78352e-17 0)