/*--------------------------------*- C++ -*----------------------------------*\
| =========                 |                                                 |
| \\      /  F ield         | OpenFOAM: The Open Source CFD Toolbox           |
|  \\    /   O peration     | Version:  2112                                  |
|   \\  /    A nd           | Website:  www.openfoam.com                      |
|    \\/     M anipulation  |                                                 |
\*---------------------------------------------------------------------------*/
FoamFile
{
    version     2.0;
    format      ascii;
    arch        "LSB;label=32;scalar=64";
    class       volVectorField;
    location    "4";
    object      U;
}
// * * * * * * * * * * * * * * * * * * * * * * * * * * * * * * * * * * * * * //

dimensions      [0 1 -1 0 0 0 0];

internalField   nonuniform List<vector> 
50000
(
(0.031383 -1.32369e-15 0)
(0.031383 -2.48526e-16 0)
(0.031383 2.66508e-17 0)
(0.031383 1.5813e-17 0)
(0.031383 1.30289e-17 0)
(0.031383 5.99642e-18 0)
(0.031383 7.99568e-18 0)
(0.031383 -2.97058e-18 0)
(0.031383 -2.14125e-18 0)
(0.031383 6.63085e-18 0)
(0.031383 -4.34716e-18 0)
(0.031383 -5.65874e-18 0)
(0.031383 -4.76971e-18 0)
(0.031383 3.05483e-18 0)
(0.031383 5.96456e-18 0)
(0.031383 -1.65264e-18 0)
(0.031383 -7.57285e-18 0)
(0.031383 -5.98306e-19 0)
(0.031383 -2.76255e-18 0)
(0.031383 -1.48801e-18 0)
(0.031383 2.31753e-18 0)
(0.031383 2.37804e-18 0)
(0.031383 2.55988e-18 0)
(0.031383 2.25265e-18 0)
(0.031383 -2.91163e-18 0)
(0.031383 -3.09927e-18 0)
(0.031383 1.95479e-18 0)
(0.031383 1.08083e-17 0)
(0.031383 -8.24528e-18 0)
(0.031383 1.64359e-18 0)
(0.031383 4.38521e-18 0)
(0.031383 -1.4516e-17 0)
(0.031383 -6.10714e-20 0)
(0.031383 5.77103e-18 0)
(0.031383 -7.37393e-18 0)
(0.031383 8.07312e-18 0)
(0.031383 -7.25748e-18 0)
(0.031383 -1.90922e-18 0)
(0.031383 4.48512e-18 0)
(0.031383 -8.99341e-18 0)
(0.031383 5.46237e-18 0)
(0.031383 -8.52785e-18 0)
(0.031383 1.35472e-17 0)
(0.031383 7.95313e-18 0)
(0.031383 -1.63281e-17 0)
(0.031383 6.09407e-18 0)
(0.031383 1.18774e-17 0)
(0.031383 -9.91092e-18 0)
(0.031383 -7.56243e-18 0)
(0.031383 1.16095e-17 0)
(0.031383 2.22751e-18 0)
(0.031383 1.19512e-17 0)
(0.031383 -1.11456e-17 0)
(0.031383 -1.181e-17 0)
(0.031383 1.17718e-17 0)
(0.031383 -7.504e-18 0)
(0.031383 1.77187e-17 0)
(0.031383 -9.12215e-18 0)
(0.031383 -2.11399e-17 0)
(0.031383 1.35268e-17 0)
(0.031383 7.57066e-18 0)
(0.031383 -5.32981e-18 0)
(0.031383 -4.67543e-19 0)
(0.031383 1.13821e-17 0)
(0.031383 -2.44094e-17 0)
(0.031383 3.77313e-18 0)
(0.031383 9.15571e-18 0)
(0.031383 8.11247e-18 0)
(0.031383 3.59395e-18 0)
(0.031383 -7.9509e-18 0)
(0.031383 -1.11906e-17 0)
(0.031383 9.28735e-19 0)
(0.031383 2.77717e-17 0)
(0.031383 -1.69225e-17 0)
(0.031383 -1.68561e-17 0)
(0.031383 3.23052e-17 0)
(0.031383 2.76916e-18 0)
(0.031383 -3.00198e-17 0)
(0.031383 -5.17585e-18 0)
(0.031383 1.5471e-17 0)
(0.031383 6.36217e-18 0)
(0.031383 -3.06525e-18 0)
(0.031383 4.00032e-18 0)
(0.031383 1.58258e-17 0)
(0.031383 -2.71198e-17 0)
(0.031383 1.33753e-17 0)
(0.031383 2.06249e-17 0)
(0.031383 -2.07495e-17 0)
(0.031383 -3.65524e-18 0)
(0.031383 -1.11462e-17 0)
(0.031383 8.17527e-18 0)
(0.031383 1.76968e-17 0)
(0.031383 -1.34743e-17 0)
(0.031383 2.65007e-18 0)
(0.031383 1.24733e-17 0)
(0.031383 -4.0954e-17 0)
(0.031383 1.07122e-17 0)
(0.031383 3.51913e-17 0)
(0.031383 -2.13201e-17 0)
(0.031383 -7.84089e-18 0)
(0.031383 1.1383e-17 0)
(0.031383 2.98339e-17 0)
(0.031383 -2.83189e-17 0)
(0.031383 -2.7297e-17 0)
(0.031383 4.55314e-17 0)
(0.031383 -1.50059e-17 0)
(0.031383 -3.10718e-17 0)
(0.031383 1.54762e-17 0)
(0.031383 1.0267e-17 0)
(0.031383 3.10128e-17 0)
(0.031383 -2.5262e-17 0)
(0.031383 -2.98261e-17 0)
(0.031383 1.85545e-17 0)
(0.031383 1.13976e-17 0)
(0.031383 2.74664e-17 0)
(0.031383 -6.11138e-18 0)
(0.031383 -4.44534e-17 0)
(0.031383 1.27226e-17 0)
(0.031383 2.84396e-17 0)
(0.031383 -4.07908e-18 0)
(0.031383 -8.17669e-18 0)
(0.031383 -3.00552e-20 0)
(0.031383 2.47724e-17 0)
(0.031383 1.19947e-18 0)
(0.031383 -4.67191e-17 0)
(0.031383 2.89392e-17 0)
(0.031383 2.7251e-17 0)
(0.031383 -2.82293e-17 0)
(0.031383 8.82069e-19 0)
(0.031383 1.37977e-18 0)
(0.031383 -1.85146e-17 0)
(0.031383 -5.14562e-18 0)
(0.031383 3.02109e-17 0)
(0.031383 -3.55096e-18 0)
(0.031383 -1.04018e-17 0)
(0.031383 4.17528e-18 0)
(0.031383 1.69985e-17 0)
(0.031383 -3.06392e-17 0)
(0.031383 1.05926e-17 0)
(0.031383 2.78049e-17 0)
(0.031383 -3.45415e-17 0)
(0.031383 -3.37547e-17 0)
(0.031383 1.31421e-17 0)
(0.031383 3.81657e-17 0)
(0.031383 -1.47153e-17 0)
(0.031383 -5.95787e-19 0)
(0.031383 4.81312e-17 0)
(0.031383 -3.46975e-17 0)
(0.031383 -3.40489e-17 0)
(0.031383 3.87056e-17 0)
(0.031383 -1.11199e-17 0)
(0.031383 5.08421e-19 0)
(0.031383 3.95158e-17 0)
(0.031383 -4.38173e-17 0)
(0.031383 -1.71436e-18 0)
(0.031383 3.12927e-17 0)
(0.031383 -6.16581e-17 0)
(0.031383 -2.34198e-17 0)
(0.031383 3.81587e-17 0)
(0.031383 5.65041e-17 0)
(0.031383 -3.81717e-17 0)
(0.031383 -6.59328e-18 0)
(0.031383 -3.23819e-18 0)
(0.031383 2.69189e-18 0)
(0.031383 -1.62259e-18 0)
(0.031383 -6.15704e-18 0)
(0.031383 8.31293e-18 0)
(0.031383 -6.29343e-17 0)
(0.031383 8.09848e-17 0)
(0.031383 1.71269e-17 0)
(0.031383 -8.28173e-17 0)
(0.031383 6.60151e-17 0)
(0.031383 3.25553e-17 0)
(0.031383 -6.80629e-17 0)
(0.031383 1.33761e-17 0)
(0.031383 6.89281e-18 0)
(0.031383 1.31893e-17 0)
(0.031383 -9.58003e-18 0)
(0.031383 -9.85827e-18 0)
(0.031383 4.32686e-17 0)
(0.031383 -4.62568e-17 0)
(0.031383 -8.61231e-18 0)
(0.031383 3.23631e-17 0)
(0.031383 -2.90757e-17 0)
(0.031383 5.19197e-17 0)
(0.031383 -1.3269e-18 0)
(0.031383 -5.44022e-17 0)
(0.031383 4.10884e-17 0)
(0.031383 3.10433e-18 0)
(0.031383 -1.74927e-17 0)
(0.031383 -4.09183e-18 0)
(0.031383 -3.14106e-18 0)
(0.031383 -4.18975e-17 0)
(0.031383 4.15249e-17 0)
(0.031383 3.87605e-17 0)
(0.031383 -2.68888e-17 0)
(0.031383 1.94295e-17 0)
(0.031383 3.80389e-17 0)
(0.031383 -6.33788e-17 0)
(0.031383 -3.91184e-17 0)
(0.031383 5.34786e-17 0)
(0.031383 -2.38837e-17 0)
(0.031383 1.53165e-17 0)
(0.031383 -3.04433e-18 0)
(0.031383 5.1109e-17 0)
(0.031383 -1.8715e-17 0)
(0.031383 -6.44392e-17 0)
(0.031383 2.56562e-17 0)
(0.031383 6.08451e-18 0)
(0.031383 4.41988e-18 0)
(0.031383 4.49561e-17 0)
(0.031383 -3.7735e-17 0)
(0.031383 -5.404e-17 0)
(0.031383 9.88967e-17 0)
(0.031383 -5.75402e-17 0)
(0.031383 -3.46355e-17 0)
(0.031383 3.56972e-17 0)
(0.031383 -6.64111e-18 0)
(0.031383 1.37218e-17 0)
(0.031383 4.89109e-17 0)
(0.031383 -5.93223e-18 0)
(0.031383 -4.86737e-17 0)
(0.031383 -3.41827e-17 0)
(0.031383 -6.02929e-18 0)
(0.031383 4.78818e-17 0)
(0.031383 -4.7858e-17 0)
(0.031383 3.66347e-17 0)
(0.031383 4.30149e-17 0)
(0.031383 -2.66983e-17 0)
(0.031383 4.08849e-17 0)
(0.031383 4.59348e-18 0)
(0.031383 -9.0334e-17 0)
(0.031383 3.6055e-17 0)
(0.031383 1.1678e-17 0)
(0.031383 -5.63179e-17 0)
(0.031383 5.0832e-17 0)
(0.031383 4.81032e-18 0)
(0.031383 4.39568e-17 0)
(0.031383 -4.59159e-17 0)
(0.031383 -4.48363e-18 0)
(0.031383 1.68222e-18 0)
(0.031383 -5.20974e-17 0)
(0.031383 3.42421e-17 0)
(0.031383 6.18753e-17 0)
(0.031383 -5.14956e-17 0)
(0.031383 -6.12379e-18 0)
(0.031383 5.9745e-17 0)
(0.031383 -5.96562e-17 0)
(0.031383 4.23131e-19 0)
(0.031383 -3.15061e-17 0)
(0.031383 -1.14112e-17 0)
(0.031383 -5.9557e-18 0)
(0.031383 1.01401e-16 0)
(0.031383 -4.33816e-18 0)
(0.031383 -5.44734e-17 0)
(0.031383 4.90268e-17 0)
(0.031383 -4.29244e-17 0)
(0.031383 -5.08702e-17 0)
(0.031383 5.06008e-17 0)
(0.031383 -2.34712e-17 0)
(0.031383 4.95809e-18 0)
(0.031383 7.50258e-17 0)
(0.031383 -1.05808e-16 0)
(0.031383 5.47238e-17 0)
(0.031383 -1.75202e-17 0)
(0.031383 -2.91989e-17 0)
(0.031383 4.86681e-17 0)
(0.031383 -6.06052e-17 0)
(0.031383 1.85568e-17 0)
(0.031383 1.39983e-16 0)
(0.031383 -1.12741e-16 0)
(0.031383 -5.98167e-17 0)
(0.031383 7.13309e-17 0)
(0.031383 -5.86725e-17 0)
(0.031383 9.25934e-17 0)
(0.031383 -8.80352e-17 0)
(0.031383 -1.01265e-17 0)
(0.031383 8.50748e-17 0)
(0.031383 1.32894e-17 0)
(0.031383 -4.02741e-17 0)
(0.031383 -3.83151e-18 0)
(0.031383 -1.71218e-17 0)
(0.031383 1.11234e-17 0)
(0.031383 3.61845e-17 0)
(0.031383 -8.58282e-17 0)
(0.031383 1.15162e-16 0)
(0.031383 -2.62869e-17 0)
(0.031383 -8.68076e-17 0)
(0.031383 7.52619e-17 0)
(0.031383 5.73321e-17 0)
(0.031383 -8.51618e-17 0)
(0.031383 -3.69156e-17 0)
(0.031383 6.16907e-17 0)
(0.031383 -2.7631e-17 0)
(0.031383 8.65541e-17 0)
(0.031383 4.62902e-17 0)
(0.031383 -1.7253e-16 0)
(0.031383 1.82244e-17 0)
(0.031383 4.29944e-17 0)
(0.031383 -7.46014e-17 0)
(0.031383 7.77237e-17 0)
(0.031383 -4.38557e-17 0)
(0.031383 1.73438e-17 0)
(0.031383 1.31824e-16 0)
(0.031383 -1.04308e-16 0)
(0.031383 -8.34525e-17 0)
(0.031383 1.213e-16 0)
(0.031383 -5.17634e-17 0)
(0.031383 -6.41918e-17 0)
(0.031383 7.09188e-17 0)
(0.031383 5.4176e-17 0)
(0.031383 -7.46965e-17 0)
(0.031383 1.49864e-17 0)
(0.031383 1.06249e-17 0)
(0.031383 -6.25504e-17 0)
(0.031383 8.7972e-17 0)
(0.031383 -9.68056e-17 0)
(0.031383 -7.13206e-19 0)
(0.031383 8.28477e-17 0)
(0.031383 1.41302e-17 0)
(0.031383 1.85986e-17 0)
(0.031383 -9.1281e-18 0)
(0.031383 -1.01299e-16 0)
(0.031383 -4.14835e-17 0)
(0.031383 1.46712e-16 0)
(0.031383 -1.09166e-16 0)
(0.031383 -1.2627e-17 0)
(0.031383 4.55704e-17 0)
(0.031383 6.49851e-17 0)
(0.031383 6.95523e-17 0)
(0.031383 -1.69426e-16 0)
(0.031383 1.25341e-18 0)
(0.031383 1.14141e-16 0)
(0.031383 -1.181e-16 0)
(0.031383 1.16848e-17 0)
(0.031383 1.62762e-16 0)
(0.031383 -1.68052e-16 0)
(0.031383 6.46316e-17 0)
(0.031383 1.0472e-16 0)
(0.031383 -1.5768e-16 0)
(0.031383 1.08494e-17 0)
(0.031383 7.8301e-17 0)
(0.031383 -9.00295e-17 0)
(0.031383 1.09645e-17 0)
(0.031383 1.41004e-16 0)
(0.031383 -4.09065e-17 0)
(0.031383 -4.53024e-17 0)
(0.031383 -1.44551e-17 0)
(0.031383 -4.42892e-17 0)
(0.031383 1.9917e-17 0)
(0.031383 6.74082e-17 0)
(0.031383 -9.97511e-17 0)
(0.031383 1.07862e-17 0)
(0.031383 1.38548e-16 0)
(0.031383 -4.00663e-17 0)
(0.031383 -4.73454e-17 0)
(0.031383 -5.92416e-17 0)
(0.031383 9.95721e-19 0)
(0.031383 9.23468e-17 0)
(0.031383 -1.00628e-16 0)
(0.031383 8.30692e-17 0)
(0.031383 1.25654e-17 0)
(0.031383 -9.71653e-17 0)
(0.031383 1.27686e-16 0)
(0.031383 -7.14063e-17 0)
(0.031383 -4.53234e-17 0)
(0.031383 5.24465e-17 0)
(0.031383 3.64045e-17 0)
(0.031383 -1.02728e-16 0)
(0.031383 7.32523e-17 0)
(0.031383 8.19318e-17 0)
(0.031383 -1.03447e-16 0)
(0.031383 -3.3883e-17 0)
(0.031383 -1.69477e-18 0)
(0.031383 5.91975e-17 0)
(0.031383 -1.80102e-17 0)
(0.031383 5.03573e-17 0)
(0.031383 -9.47959e-17 0)
(0.031383 6.81341e-17 0)
(0.031383 7.90961e-17 0)
(0.031383 -1.02766e-16 0)
(0.031383 -3.9777e-17 0)
(0.031383 5.23259e-17 0)
(0.031383 5.74938e-18 0)
(0.031383 -3.02039e-17 0)
(0.031383 4.49733e-17 0)
(0.031383 -1.14446e-16 0)
(0.031383 1.20643e-16 0)
(0.031383 2.13796e-17 0)
(0.031383 -8.91613e-17 0)
(0.031383 1.98457e-17 0)
(0.031383 4.87462e-18 0)
(0.031383 6.30004e-18 0)
(0.031383 -2.90871e-17 0)
(0.031383 4.14382e-17 0)
(0.031383 9.50897e-17 0)
(0.031383 -3.9378e-17 0)
(0.031383 -1.67502e-16 0)
(0.031383 1.7394e-18 0)
(0.031383 7.9202e-17 0)
(0.031383 8.17002e-18 0)
(0.031383 1.30256e-16 0)
(0.031383 -1.22476e-16 0)
(0.031383 -8.51847e-17 0)
(0.031383 6.31094e-17 0)
(0.031383 1.00256e-16 0)
(0.031383 -4.12405e-17 0)
(0.031383 -1.4706e-16 0)
(0.031383 7.54276e-17 0)
(0.031383 2.97659e-17 0)
(0.031383 1.44338e-16 0)
(0.031383 -1.40713e-16 0)
(0.031383 -8.40018e-17 0)
(0.031383 1.02612e-16 0)
(0.031383 -1.57722e-17 0)
(0.031383 1.42643e-17 0)
(0.031383 -3.34495e-17 0)
(0.031383 1.43554e-17 0)
(0.031383 2.35693e-17 0)
(0.031383 1.04714e-16 0)
(0.031383 -1.22584e-16 0)
(0.031383 -9.95671e-17 0)
(0.031383 2.2772e-16 0)
(0.031383 -1.00166e-16 0)
(0.031383 -1.14224e-16 0)
(0.031383 8.43488e-17 0)
(0.031383 1.55764e-17 0)
(0.031383 -6.77598e-18 0)
(0.031383 9.24965e-17 0)
(0.031383 -1.05613e-16 0)
(0.031383 -1.17943e-16 0)
(0.031383 2.27317e-16 0)
(0.031383 -7.4766e-17 0)
(0.031383 -1.4354e-16 0)
(0.031383 6.61312e-17 0)
(0.031383 1.71222e-16 0)
(0.031383 -1.14438e-16 0)
(0.031383 -1.0309e-17 0)
(0.031383 1.33079e-17 0)
(0.031383 -1.15373e-16 0)
(0.031383 2.20976e-16 0)
(0.031383 -1.17906e-16 0)
(0.031383 -1.32953e-17 0)
(0.031383 -9.1522e-17 0)
(0.031383 1.14415e-16 0)
(0.031383 8.82925e-17 0)
(0.031383 -1.91724e-16 0)
(0.031383 1.05088e-16 0)
(0.031383 -1.21199e-17 0)
(0.031383 2.56268e-17 0)
(0.031383 -3.04577e-17 0)
(0.031383 9.09602e-17 0)
(0.031383 -1.74565e-16 0)
(0.031383 1.09223e-16 0)
(0.031383 8.11964e-17 0)
(0.031383 -1.90814e-16 0)
(0.031383 1.09109e-16 0)
(0.031383 9.09256e-17 0)
(0.031383 -6.20244e-17 0)
(0.031383 -1.61681e-16 0)
(0.031383 2.04568e-16 0)
(0.031383 -1.41549e-16 0)
(0.031383 7.87919e-17 0)
(0.031383 1.79094e-16 0)
(0.031383 -2.98899e-16 0)
(0.031383 3.12626e-17 0)
(0.031383 1.79647e-16 0)
(0.031383 -1.73569e-17 0)
(0.031383 -1.8309e-16 0)
(0.031383 1.07872e-16 0)
(0.031383 -1.12638e-17 0)
(0.031383 4.28428e-18 0)
(0.031383 1.77641e-17 0)
(0.031383 -1.04533e-16 0)
(0.031383 1.02041e-16 0)
(0.031383 4.70401e-18 0)
(0.031383 9.12958e-17 0)
(0.031383 -1.25214e-16 0)
(0.031383 -6.01719e-17 0)
(0.031383 9.30534e-17 0)
(0.031383 6.813e-17 0)
(0.031383 -7.12044e-17 0)
(0.031383 -8.88492e-17 0)
(0.031383 1.9687e-16 0)
(0.031383 -1.33581e-16 0)
(0.031383 1.94495e-17 0)
(0.031383 1.55542e-17 0)
(0.031383 -9.20352e-17 0)
(0.031383 1.95763e-16 0)
(0.031383 -3.96882e-17 0)
(0.031383 -1.81074e-16 0)
(0.031383 4.23699e-17 0)
(0.031383 1.87789e-16 0)
(0.031383 -1.31637e-16 0)
(0.031383 1.11344e-17 0)
(0.031383 6.76404e-18 0)
(0.031383 4.72778e-18 0)
(0.031383 1.11347e-16 0)
(0.031383 -8.38991e-17 0)
(0.031383 -2.49043e-16 0)
(0.0928814 -2.96751e-15 0)
(0.0928814 -8.34699e-16 0)
(0.0928814 -3.693e-16 0)
(0.0928814 -1.48601e-16 0)
(0.0928814 -7.51996e-17 0)
(0.0928814 -5.46544e-17 0)
(0.0928814 -3.13841e-17 0)
(0.0928814 -3.5068e-17 0)
(0.0928814 -3.12342e-17 0)
(0.0928814 -2.8592e-17 0)
(0.0928814 -4.74906e-17 0)
(0.0928814 -4.64131e-17 0)
(0.0928814 -3.13149e-17 0)
(0.0928814 -2.16107e-17 0)
(0.0928814 1.08676e-18 0)
(0.0928814 -1.82313e-17 0)
(0.0928814 -2.54713e-17 0)
(0.0928814 -2.45511e-17 0)
(0.0928814 -1.42801e-17 0)
(0.0928814 -5.97024e-18 0)
(0.0928814 -1.19145e-17 0)
(0.0928814 -8.61577e-19 0)
(0.0928814 2.19952e-17 0)
(0.0928814 1.03494e-17 0)
(0.0928814 -1.1893e-17 0)
(0.0928814 -1.83294e-17 0)
(0.0928814 2.84538e-19 0)
(0.0928814 1.12411e-17 0)
(0.0928814 -3.1688e-17 0)
(0.0928814 2.61145e-18 0)
(0.0928814 -5.07969e-18 0)
(0.0928814 -2.83366e-17 0)
(0.0928814 -1.16112e-17 0)
(0.0928814 -6.11614e-18 0)
(0.0928814 -3.01101e-17 0)
(0.0928814 -3.1209e-18 0)
(0.0928814 -2.89363e-17 0)
(0.0928814 -1.90485e-17 0)
(0.0928814 3.15329e-18 0)
(0.0928814 -2.61666e-17 0)
(0.0928814 1.61091e-17 0)
(0.0928814 -2.68321e-17 0)
(0.0928814 6.66843e-18 0)
(0.0928814 4.2566e-17 0)
(0.0928814 5.99001e-18 0)
(0.0928814 4.20559e-17 0)
(0.0928814 3.24247e-17 0)
(0.0928814 -3.29939e-17 0)
(0.0928814 -8.43781e-18 0)
(0.0928814 2.6827e-17 0)
(0.0928814 2.42293e-17 0)
(0.0928814 1.71392e-17 0)
(0.0928814 -2.02584e-17 0)
(0.0928814 -9.55747e-18 0)
(0.0928814 3.52407e-17 0)
(0.0928814 -3.09082e-17 0)
(0.0928814 6.32251e-18 0)
(0.0928814 -1.313e-17 0)
(0.0928814 -5.38433e-17 0)
(0.0928814 5.99797e-19 0)
(0.0928814 5.07065e-18 0)
(0.0928814 8.74224e-19 0)
(0.0928814 9.99208e-19 0)
(0.0928814 1.4461e-17 0)
(0.0928814 -1.5721e-17 0)
(0.0928814 4.2225e-17 0)
(0.0928814 -2.74556e-17 0)
(0.0928814 -2.88903e-17 0)
(0.0928814 5.82222e-17 0)
(0.0928814 -7.33768e-18 0)
(0.0928814 -1.26882e-17 0)
(0.0928814 3.76406e-17 0)
(0.0928814 6.38322e-17 0)
(0.0928814 -3.20291e-17 0)
(0.0928814 -5.05187e-17 0)
(0.0928814 7.99057e-17 0)
(0.0928814 1.41774e-17 0)
(0.0928814 -6.7409e-17 0)
(0.0928814 -1.09019e-17 0)
(0.0928814 4.51783e-17 0)
(0.0928814 1.35702e-17 0)
(0.0928814 -1.55573e-17 0)
(0.0928814 4.25278e-17 0)
(0.0928814 2.73601e-18 0)
(0.0928814 -5.0556e-17 0)
(0.0928814 5.35118e-17 0)
(0.0928814 8.66887e-19 0)
(0.0928814 -4.29791e-17 0)
(0.0928814 1.05468e-18 0)
(0.0928814 -1.25983e-18 0)
(0.0928814 2.4293e-17 0)
(0.0928814 2.55583e-18 0)
(0.0928814 8.03569e-18 0)
(0.0928814 -5.77933e-18 0)
(0.0928814 3.28526e-18 0)
(0.0928814 -5.82501e-17 0)
(0.0928814 1.09604e-17 0)
(0.0928814 7.69461e-17 0)
(0.0928814 -4.45888e-17 0)
(0.0928814 -3.19192e-17 0)
(0.0928814 6.34754e-17 0)
(0.0928814 4.79313e-17 0)
(0.0928814 -1.39616e-17 0)
(0.0928814 -8.96283e-18 0)
(0.0928814 5.74133e-18 0)
(0.0928814 -2.67619e-17 0)
(0.0928814 -3.23126e-17 0)
(0.0928814 -2.67399e-18 0)
(0.0928814 4.81119e-17 0)
(0.0928814 6.58835e-17 0)
(0.0928814 -2.282e-17 0)
(0.0928814 -9.29489e-17 0)
(0.0928814 -1.85163e-17 0)
(0.0928814 1.09087e-16 0)
(0.0928814 5.01807e-17 0)
(0.0928814 -6.43339e-17 0)
(0.0928814 -3.3568e-17 0)
(0.0928814 7.00358e-17 0)
(0.0928814 6.40981e-17 0)
(0.0928814 -2.03228e-17 0)
(0.0928814 -2.81004e-17 0)
(0.0928814 6.76836e-18 0)
(0.0928814 3.56245e-17 0)
(0.0928814 -6.1749e-18 0)
(0.0928814 -5.19761e-17 0)
(0.0928814 7.20017e-17 0)
(0.0928814 5.37296e-17 0)
(0.0928814 -4.46858e-17 0)
(0.0928814 7.07512e-18 0)
(0.0928814 6.63742e-18 0)
(0.0928814 -7.70739e-18 0)
(0.0928814 -7.13206e-18 0)
(0.0928814 1.07584e-16 0)
(0.0928814 -6.61099e-17 0)
(0.0928814 -9.43152e-17 0)
(0.0928814 5.09383e-17 0)
(0.0928814 -9.40412e-18 0)
(0.0928814 -5.73787e-17 0)
(0.0928814 6.39639e-17 0)
(0.0928814 2.58718e-17 0)
(0.0928814 -1.34175e-16 0)
(0.0928814 -6.31396e-17 0)
(0.0928814 8.31451e-17 0)
(0.0928814 1.32852e-16 0)
(0.0928814 -3.83596e-17 0)
(0.0928814 9.63064e-18 0)
(0.0928814 1.46736e-16 0)
(0.0928814 -4.69389e-17 0)
(0.0928814 -6.80983e-17 0)
(0.0928814 1.1874e-16 0)
(0.0928814 -8.74155e-17 0)
(0.0928814 -3.64403e-17 0)
(0.0928814 1.49507e-16 0)
(0.0928814 -1.33911e-16 0)
(0.0928814 -5.12954e-17 0)
(0.0928814 5.5826e-17 0)
(0.0928814 -1.32472e-16 0)
(0.0928814 -1.95247e-17 0)
(0.0928814 -2.91829e-17 0)
(0.0928814 6.35353e-17 0)
(0.0928814 4.56242e-17 0)
(0.0928814 -6.56143e-17 0)
(0.0928814 -5.4784e-17 0)
(0.0928814 1.92212e-17 0)
(0.0928814 -2.11698e-18 0)
(0.0928814 -1.48726e-17 0)
(0.0928814 5.47324e-17 0)
(0.0928814 -1.77638e-16 0)
(0.0928814 7.78991e-17 0)
(0.0928814 1.50957e-16 0)
(0.0928814 -1.45103e-16 0)
(0.0928814 4.61848e-17 0)
(0.0928814 1.27172e-16 0)
(0.0928814 -1.09902e-16 0)
(0.0928814 -5.20915e-17 0)
(0.0928814 6.89716e-17 0)
(0.0928814 9.53602e-17 0)
(0.0928814 -2.87744e-18 0)
(0.0928814 -5.90225e-17 0)
(0.0928814 9.0838e-17 0)
(0.0928814 -4.99578e-18 0)
(0.0928814 -7.114e-17 0)
(0.0928814 1.22536e-17 0)
(0.0928814 -1.37286e-17 0)
(0.0928814 8.27995e-17 0)
(0.0928814 -2.67229e-18 0)
(0.0928814 -9.1513e-17 0)
(0.0928814 -8.26869e-18 0)
(0.0928814 -2.86314e-18 0)
(0.0928814 4.16088e-17 0)
(0.0928814 -5.17379e-17 0)
(0.0928814 -4.16967e-17 0)
(0.0928814 3.10597e-18 0)
(0.0928814 1.31501e-16 0)
(0.0928814 6.53992e-17 0)
(0.0928814 -1.87322e-17 0)
(0.0928814 8.98807e-17 0)
(0.0928814 1.56346e-17 0)
(0.0928814 -1.63573e-16 0)
(0.0928814 -6.34083e-17 0)
(0.0928814 6.09037e-17 0)
(0.0928814 -1.24063e-16 0)
(0.0928814 1.20422e-16 0)
(0.0928814 6.95347e-17 0)
(0.0928814 2.46601e-17 0)
(0.0928814 1.05637e-16 0)
(0.0928814 -1.0167e-16 0)
(0.0928814 -1.07371e-16 0)
(0.0928814 4.94161e-17 0)
(0.0928814 -2.48752e-17 0)
(0.0928814 1.72303e-17 0)
(0.0928814 3.37986e-17 0)
(0.0928814 -6.49763e-17 0)
(0.0928814 7.19332e-17 0)
(0.0928814 -6.3259e-17 0)
(0.0928814 2.36265e-17 0)
(0.0928814 -5.71816e-17 0)
(0.0928814 -5.76443e-17 0)
(0.0928814 9.12116e-17 0)
(0.0928814 9.72925e-17 0)
(0.0928814 -2.53403e-17 0)
(0.0928814 -6.99582e-17 0)
(0.0928814 2.19204e-17 0)
(0.0928814 -7.9636e-17 0)
(0.0928814 1.83594e-17 0)
(0.0928814 4.24588e-17 0)
(0.0928814 -2.06938e-17 0)
(0.0928814 2.90684e-17 0)
(0.0928814 1.28726e-16 0)
(0.0928814 -3.11575e-18 0)
(0.0928814 -4.30309e-17 0)
(0.0928814 -8.83573e-17 0)
(0.0928814 1.44391e-17 0)
(0.0928814 4.26269e-17 0)
(0.0928814 -7.93746e-17 0)
(0.0928814 7.81189e-17 0)
(0.0928814 3.53972e-17 0)
(0.0928814 5.3261e-17 0)
(0.0928814 -5.85635e-17 0)
(0.0928814 -2.85407e-17 0)
(0.0928814 -2.09179e-17 0)
(0.0928814 -1.06139e-16 0)
(0.0928814 1.99083e-17 0)
(0.0928814 1.38301e-16 0)
(0.0928814 -6.14625e-17 0)
(0.0928814 -2.17373e-17 0)
(0.0928814 8.85949e-17 0)
(0.0928814 -1.06559e-16 0)
(0.0928814 -1.70413e-17 0)
(0.0928814 -2.64681e-17 0)
(0.0928814 -4.54416e-17 0)
(0.0928814 3.29439e-17 0)
(0.0928814 1.07133e-16 0)
(0.0928814 -6.00081e-17 0)
(0.0928814 -5.69213e-17 0)
(0.0928814 5.15934e-17 0)
(0.0928814 -5.5166e-17 0)
(0.0928814 -8.66879e-17 0)
(0.0928814 4.88236e-17 0)
(0.0928814 -8.52048e-17 0)
(0.0928814 3.58966e-17 0)
(0.0928814 1.92411e-16 0)
(0.0928814 -1.43901e-16 0)
(0.0928814 5.17162e-17 0)
(0.0928814 -1.1207e-16 0)
(0.0928814 -1.0946e-16 0)
(0.0928814 2.71688e-16 0)
(0.0928814 -2.21559e-16 0)
(0.0928814 -1.41117e-16 0)
(0.0928814 4.01196e-16 0)
(0.0928814 -1.71622e-16 0)
(0.0928814 -1.27875e-16 0)
(0.0928814 1.27695e-16 0)
(0.0928814 -9.86387e-17 0)
(0.0928814 1.07366e-16 0)
(0.0928814 -9.00422e-17 0)
(0.0928814 -3.86408e-17 0)
(0.0928814 1.22151e-16 0)
(0.0928814 1.18968e-16 0)
(0.0928814 -9.28423e-17 0)
(0.0928814 -9.69404e-17 0)
(0.0928814 -4.84057e-17 0)
(0.0928814 6.86039e-17 0)
(0.0928814 1.62877e-16 0)
(0.0928814 -1.62815e-16 0)
(0.0928814 2.18704e-16 0)
(0.0928814 1.9813e-17 0)
(0.0928814 -2.09963e-16 0)
(0.0928814 1.80268e-16 0)
(0.0928814 1.04552e-16 0)
(0.0928814 -2.19202e-16 0)
(0.0928814 7.03076e-17 0)
(0.0928814 1.53586e-17 0)
(0.0928814 -1.70073e-16 0)
(0.0928814 3.31511e-16 0)
(0.0928814 7.96155e-17 0)
(0.0928814 -3.28239e-16 0)
(0.0928814 6.50349e-17 0)
(0.0928814 -3.1393e-17 0)
(0.0928814 -2.02644e-16 0)
(0.0928814 3.04052e-16 0)
(0.0928814 -1.36674e-16 0)
(0.0928814 -1.26752e-16 0)
(0.0928814 3.87858e-16 0)
(0.0928814 -1.42831e-16 0)
(0.0928814 -2.47107e-16 0)
(0.0928814 2.1737e-16 0)
(0.0928814 -1.40862e-16 0)
(0.0928814 -1.83483e-16 0)
(0.0928814 2.92444e-16 0)
(0.0928814 8.56603e-18 0)
(0.0928814 -2.89013e-16 0)
(0.0928814 1.29835e-16 0)
(0.0928814 6.02295e-17 0)
(0.0928814 -1.20835e-16 0)
(0.0928814 6.97075e-17 0)
(0.0928814 -6.19356e-17 0)
(0.0928814 -1.23081e-16 0)
(0.0928814 -2.06732e-17 0)
(0.0928814 1.99333e-16 0)
(0.0928814 1.27018e-16 0)
(0.0928814 -6.2538e-17 0)
(0.0928814 -1.51003e-16 0)
(0.0928814 -1.04566e-16 0)
(0.0928814 1.57793e-16 0)
(0.0928814 -4.51368e-17 0)
(0.0928814 -1.7098e-16 0)
(0.0928814 -3.75172e-17 0)
(0.0928814 2.74818e-16 0)
(0.0928814 1.82664e-16 0)
(0.0928814 -2.83269e-16 0)
(0.0928814 4.25428e-17 0)
(0.0928814 1.45091e-16 0)
(0.0928814 -2.36302e-16 0)
(0.0928814 2.08032e-16 0)
(0.0928814 1.93368e-16 0)
(0.0928814 -3.51022e-16 0)
(0.0928814 2.74655e-16 0)
(0.0928814 1.30828e-16 0)
(0.0928814 -3.15706e-16 0)
(0.0928814 9.99837e-17 0)
(0.0928814 -3.28011e-19 0)
(0.0928814 -1.40106e-16 0)
(0.0928814 1.32757e-16 0)
(0.0928814 2.37184e-16 0)
(0.0928814 3.23361e-18 0)
(0.0928814 -3.42775e-17 0)
(0.0928814 -1.64059e-16 0)
(0.0928814 -1.07403e-16 0)
(0.0928814 1.74763e-16 0)
(0.0928814 -5.96888e-17 0)
(0.0928814 -2.19123e-16 0)
(0.0928814 1.05672e-16 0)
(0.0928814 2.32023e-16 0)
(0.0928814 7.00205e-18 0)
(0.0928814 -4.2124e-17 0)
(0.0928814 -1.76703e-16 0)
(0.0928814 -1.40568e-16 0)
(0.0928814 1.17221e-16 0)
(0.0928814 4.54945e-17 0)
(0.0928814 8.76254e-17 0)
(0.0928814 -2.31049e-16 0)
(0.0928814 8.03637e-17 0)
(0.0928814 2.94692e-16 0)
(0.0928814 -2.42811e-16 0)
(0.0928814 -8.10121e-18 0)
(0.0928814 8.60469e-18 0)
(0.0928814 -1.28052e-16 0)
(0.0928814 3.02161e-17 0)
(0.0928814 3.25934e-16 0)
(0.0928814 2.43919e-17 0)
(0.0928814 -1.49766e-16 0)
(0.0928814 -9.79985e-17 0)
(0.0928814 -5.47957e-17 0)
(0.0928814 1.92665e-16 0)
(0.0928814 -1.00654e-16 0)
(0.0928814 3.92543e-18 0)
(0.0928814 -6.23405e-17 0)
(0.0928814 1.79606e-16 0)
(0.0928814 3.36336e-17 0)
(0.0928814 -8.34903e-17 0)
(0.0928814 -5.11822e-17 0)
(0.0928814 -1.88555e-17 0)
(0.0928814 4.36077e-17 0)
(0.0928814 -7.85407e-17 0)
(0.0928814 1.84234e-16 0)
(0.0928814 -1.93482e-16 0)
(0.0928814 8.04951e-17 0)
(0.0928814 1.02394e-16 0)
(0.0928814 -1.13246e-16 0)
(0.0928814 -6.28718e-17 0)
(0.0928814 9.72556e-17 0)
(0.0928814 -1.06158e-16 0)
(0.0928814 -2.08905e-16 0)
(0.0928814 3.08301e-16 0)
(0.0928814 1.73557e-16 0)
(0.0928814 -1.81026e-16 0)
(0.0928814 -1.37321e-16 0)
(0.0928814 -1.30734e-16 0)
(0.0928814 -5.64077e-17 0)
(0.0928814 1.95999e-16 0)
(0.0928814 3.30384e-16 0)
(0.0928814 -2.35443e-16 0)
(0.0928814 -1.80817e-16 0)
(0.0928814 -1.08034e-16 0)
(0.0928814 3.16323e-16 0)
(0.0928814 2.16971e-16 0)
(0.0928814 -4.58031e-16 0)
(0.0928814 -1.99857e-17 0)
(0.0928814 2.70417e-16 0)
(0.0928814 1.71391e-16 0)
(0.0928814 -3.00447e-16 0)
(0.0928814 9.11656e-17 0)
(0.0928814 9.5349e-17 0)
(0.0928814 -3.92291e-17 0)
(0.0928814 8.66394e-17 0)
(0.0928814 -2.53682e-16 0)
(0.0928814 -1.79801e-17 0)
(0.0928814 3.36209e-16 0)
(0.0928814 6.83447e-17 0)
(0.0928814 -3.78159e-16 0)
(0.0928814 -7.06603e-17 0)
(0.0928814 4.3075e-16 0)
(0.0928814 -9.97117e-17 0)
(0.0928814 -2.20573e-16 0)
(0.0928814 3.19821e-17 0)
(0.0928814 8.61011e-17 0)
(0.0928814 -1.90062e-18 0)
(0.0928814 -8.97036e-18 0)
(0.0928814 -1.18945e-16 0)
(0.0928814 -1.1488e-16 0)
(0.0928814 3.27461e-16 0)
(0.0928814 -3.57938e-17 0)
(0.0928814 -3.84288e-16 0)
(0.0928814 -6.73043e-19 0)
(0.0928814 4.94389e-16 0)
(0.0928814 -1.28132e-16 0)
(0.0928814 -6.38417e-17 0)
(0.0928814 2.36649e-18 0)
(0.0928814 -1.93014e-16 0)
(0.0928814 3.64706e-16 0)
(0.0928814 -1.88736e-16 0)
(0.0928814 -9.01909e-17 0)
(0.0928814 -2.3473e-17 0)
(0.0928814 1.18011e-16 0)
(0.0928814 4.02005e-17 0)
(0.0928814 -5.35742e-17 0)
(0.0928814 2.80788e-17 0)
(0.0928814 -1.40538e-16 0)
(0.0928814 2.02658e-16 0)
(0.0928814 -7.137e-17 0)
(0.0928814 9.17461e-17 0)
(0.0928814 -8.65818e-17 0)
(0.0928814 7.24173e-17 0)
(0.0928814 -1.98197e-17 0)
(0.0928814 -4.21173e-17 0)
(0.0928814 1.0422e-16 0)
(0.0928814 4.10487e-17 0)
(0.0928814 1.43243e-16 0)
(0.0928814 -5.02588e-16 0)
(0.0928814 1.98526e-16 0)
(0.0928814 2.02427e-16 0)
(0.0928814 -3.92675e-19 0)
(0.0928814 3.38801e-17 0)
(0.0928814 -3.51684e-16 0)
(0.0928814 1.14487e-16 0)
(0.0928814 2.29691e-16 0)
(0.0928814 -3.6288e-17 0)
(0.0928814 -2.06627e-16 0)
(0.0928814 1.37264e-16 0)
(0.0928814 -4.49389e-17 0)
(0.0928814 1.86061e-17 0)
(0.0928814 5.79419e-17 0)
(0.0928814 -1.42331e-16 0)
(0.0928814 1.55626e-16 0)
(0.0928814 4.74011e-17 0)
(0.0928814 8.49059e-17 0)
(0.0928814 -2.56358e-16 0)
(0.0928814 1.21794e-17 0)
(0.0928814 1.40222e-16 0)
(0.0928814 2.80016e-17 0)
(0.0928814 -3.93398e-17 0)
(0.0928814 -7.85929e-17 0)
(0.0928814 2.42608e-16 0)
(0.0928814 -2.61484e-16 0)
(0.0928814 6.40236e-17 0)
(0.0928814 6.52342e-17 0)
(0.0928814 -6.57839e-17 0)
(0.0928814 2.68974e-16 0)
(0.0928814 -1.94113e-16 0)
(0.0928814 -2.45374e-16 0)
(0.0928814 1.62078e-16 0)
(0.0928814 2.12723e-16 0)
(0.0928814 -3.12103e-16 0)
(0.0928814 -4.0089e-17 0)
(0.0928814 -2.74759e-17 0)
(0.0928814 -8.15267e-17 0)
(0.0928814 -3.65198e-17 0)
(0.0928814 -5.3491e-16 0)
(0.0928814 -8.53782e-16 0)
(0.153091 -1.73724e-15 0)
(0.153091 -9.90281e-16 0)
(0.153091 -5.08257e-16 0)
(0.153091 -2.17225e-16 0)
(0.153091 -1.09103e-16 0)
(0.153091 -9.72799e-17 0)
(0.153091 -8.0103e-17 0)
(0.153091 -4.33446e-17 0)
(0.153091 -6.38262e-17 0)
(0.153091 -9.55923e-17 0)
(0.153091 -9.95321e-17 0)
(0.153091 -1.07926e-16 0)
(0.153091 -9.44367e-17 0)
(0.153091 -4.41049e-17 0)
(0.153091 -1.68667e-17 0)
(0.153091 -2.83339e-17 0)
(0.153091 -3.82437e-17 0)
(0.153091 -5.93332e-17 0)
(0.153091 -1.59641e-17 0)
(0.153091 -1.02124e-17 0)
(0.153091 -3.35067e-17 0)
(0.153091 1.79071e-18 0)
(0.153091 4.84394e-17 0)
(0.153091 1.91601e-17 0)
(0.153091 -4.94188e-18 0)
(0.153091 -5.47936e-17 0)
(0.153091 -2.91915e-17 0)
(0.153091 2.9223e-17 0)
(0.153091 -4.35608e-17 0)
(0.153091 -3.5923e-17 0)
(0.153091 -2.29916e-17 0)
(0.153091 -7.5248e-18 0)
(0.153091 -1.80465e-17 0)
(0.153091 -6.34062e-17 0)
(0.153091 -5.09986e-17 0)
(0.153091 -1.49293e-17 0)
(0.153091 -9.20083e-17 0)
(0.153091 -3.95183e-17 0)
(0.153091 8.55067e-18 0)
(0.153091 -5.05692e-17 0)
(0.153091 -1.42581e-17 0)
(0.153091 -1.24516e-17 0)
(0.153091 -2.42596e-19 0)
(0.153091 7.303e-17 0)
(0.153091 9.09353e-17 0)
(0.153091 7.44865e-17 0)
(0.153091 7.19599e-17 0)
(0.153091 -4.16378e-17 0)
(0.153091 -1.53589e-17 0)
(0.153091 6.32492e-17 0)
(0.153091 3.82682e-17 0)
(0.153091 -1.72345e-17 0)
(0.153091 -2.12226e-17 0)
(0.153091 2.40442e-17 0)
(0.153091 3.40591e-17 0)
(0.153091 -3.49492e-17 0)
(0.153091 5.28228e-18 0)
(0.153091 -7.93716e-17 0)
(0.153091 -8.6099e-17 0)
(0.153091 -1.69033e-17 0)
(0.153091 -4.15884e-18 0)
(0.153091 2.1434e-17 0)
(0.153091 -2.11342e-17 0)
(0.153091 2.67928e-17 0)
(0.153091 4.53619e-17 0)
(0.153091 3.36199e-17 0)
(0.153091 -5.08844e-17 0)
(0.153091 -4.18006e-17 0)
(0.153091 4.38441e-17 0)
(0.153091 4.79452e-17 0)
(0.153091 4.74506e-17 0)
(0.153091 6.00707e-17 0)
(0.153091 1.02844e-16 0)
(0.153091 -4.20832e-17 0)
(0.153091 -1.20717e-16 0)
(0.153091 9.15998e-17 0)
(0.153091 7.78483e-17 0)
(0.153091 -3.58731e-17 0)
(0.153091 -5.06179e-17 0)
(0.153091 1.91184e-17 0)
(0.153091 6.53913e-17 0)
(0.153091 2.33137e-17 0)
(0.153091 1.03144e-17 0)
(0.153091 3.43033e-17 0)
(0.153091 9.05569e-18 0)
(0.153091 -1.52653e-17 0)
(0.153091 -6.42233e-17 0)
(0.153091 1.90794e-17 0)
(0.153091 -1.41529e-17 0)
(0.153091 -1.87508e-17 0)
(0.153091 5.19577e-17 0)
(0.153091 -2.2813e-19 0)
(0.153091 1.83946e-17 0)
(0.153091 3.74732e-17 0)
(0.153091 5.29133e-18 0)
(0.153091 -1.11235e-16 0)
(0.153091 -1.50853e-17 0)
(0.153091 1.54813e-16 0)
(0.153091 -5.83469e-17 0)
(0.153091 -8.14845e-17 0)
(0.153091 1.87692e-16 0)
(0.153091 1.09288e-16 0)
(0.153091 -4.30676e-17 0)
(0.153091 -9.75047e-17 0)
(0.153091 1.49783e-17 0)
(0.153091 7.2098e-17 0)
(0.153091 -5.63187e-17 0)
(0.153091 -7.09676e-17 0)
(0.153091 1.14455e-16 0)
(0.153091 9.29615e-17 0)
(0.153091 -6.6517e-17 0)
(0.153091 -7.729e-17 0)
(0.153091 -4.94698e-17 0)
(0.153091 1.6602e-16 0)
(0.153091 1.35328e-16 0)
(0.153091 -1.47186e-16 0)
(0.153091 -2.61529e-17 0)
(0.153091 1.76227e-16 0)
(0.153091 7.22354e-17 0)
(0.153091 -4.71993e-17 0)
(0.153091 -6.01683e-17 0)
(0.153091 3.98056e-17 0)
(0.153091 4.73975e-17 0)
(0.153091 -4.33534e-17 0)
(0.153091 -1.1457e-17 0)