/*--------------------------------*- C++ -*----------------------------------*\
| =========                 |                                                 |
| \\      /  F ield         | OpenFOAM: The Open Source CFD Toolbox           |
|  \\    /   O peration     | Version:  2112                                  |
|   \\  /    A nd           | Website:  www.openfoam.com                      |
|    \\/     M anipulation  |                                                 |
\*---------------------------------------------------------------------------*/
FoamFile
{
    version     2.0;
    format      ascii;
    arch        "LSB;label=32;scalar=64";
    class       volScalarField;
    location    "0.3";
    object      p;
}
// * * * * * * * * * * * * * * * * * * * * * * * * * * * * * * * * * * * * * //

dimensions      [0 2 -2 0 0 0 0];

internalField   nonuniform List<scalar> 
16641
(
-3.40029e-09
-5.31232e-07
1.08259e-05
3.88939e-05
6.76593e-05
9.00732e-05
0.000107178
0.000120871
0.000133118
0.000144479
0.000155907
0.000167595
0.000178913
0.000190359
0.000201819
0.000213292
0.000225288
0.00023804
0.000251545
0.000266174
0.000282408
0.000299864
0.000318453
0.000338004
0.000357944
0.000378144
0.000399028
0.000420913
0.00044361
0.000466874
0.000490891
0.000516061
0.000542653
0.000570823
0.000600632
0.000631746
0.000663573
0.000695963
0.000729395
0.000764292
0.000800532
0.000837756
0.000875832
0.000914741
0.000954243
0.000994036
0.00103416
0.00107501
0.00111686
0.00115977
0.0012038
0.00124925
0.00129632
0.00134484
0.0013944
0.00144484
0.00149635
0.00154917
0.00160327
0.00165849
0.00171481
0.00177234
0.00183107
0.0018907
0.00195088
0.00201151
0.00207274
0.00213465
0.00219699
0.00225926
0.00232106
0.00238228
0.00244286
0.00250264
0.00256132
0.00261872
0.00267493
0.00273018
0.00278463
0.0028382
0.00289067
0.00294194
0.0029921
0.00304138
0.00308986
0.00313748
0.00318407
0.00322959
0.00327412
0.00331768
0.0033602
0.00340145
0.00344126
0.00347958
0.00351656
0.00355236
0.00358703
0.00362042
0.00365231
0.00368256
0.00371116
0.00373816
0.0037636
0.00378739
0.00380937
0.00382946
0.0038477
0.00386422
0.0038791
0.00389233
0.00390381
0.00391348
0.00392139
0.00392769
0.00393257
0.00393614
0.00393834
0.00393908
0.00393827
0.00393599
0.00393246
0.00392798
0.00392279
0.00391708
0.00391102
0.00390493
0.00389944
0.00389552
0.00389408
2.98922e-06
1.95167e-05
3.90277e-05
6.58027e-05
8.97252e-05
0.000107553
0.000121248
0.000133297
0.000144153
0.000154934
0.000166073
0.000177034
0.000188405
0.000199837
0.00021135
0.000223205
0.000235515
0.000248342
0.000262104
0.00027702
0.000292923
0.000310096
0.000328566
0.000347987
0.000367885
0.000388021
0.000408616
0.000429991
0.000452333
0.000475778
0.000500405
0.000526112
0.00055285
0.000580866
0.000610377
0.000641154
0.000672763
0.000705151
0.000738658
0.000773469
0.000809428
0.000846395
0.00088435
0.000923109
0.000962276
0.00100165
0.00104147
0.00108214
0.0011238
0.00116643
0.00121023
0.00125557
0.00130252
0.00135075
0.00139988
0.00144992
0.00150117
0.0015538
0.00160764
0.00166253
0.00171857
0.0017759
0.00183438
0.00189362
0.00195334
0.00201356
0.0020745
0.00213617
0.00219818
0.00226001
0.00232134
0.00238211
0.00244227
0.00250156
0.00255965
0.00261644
0.00267212
0.00272693
0.00278095
0.002834
0.00288585
0.00293651
0.00298616
0.00303503
0.00308314
0.00313033
0.00317644
0.00322151
0.00326567
0.00330894
0.00335114
0.00339199
0.0034313
0.00346915
0.00350573
0.00354123
0.00357559
0.00360862
0.0036401
0.00366993
0.00369818
0.00372493
0.00375017
0.00377375
0.0037955
0.00381538
0.00383348
0.00384996
0.00386488
0.00387818
0.00388971
0.00389941
0.00390739
0.00391387
0.00391906
0.00392307
0.00392579
0.00392708
0.00392689
0.00392535
0.00392276
0.00391944
0.0039156
0.00391133
0.00390669
0.00390191
0.00389748
0.00389419
0.00389273
2.08861e-05
4.43792e-05
6.76161e-05
9.03214e-05
0.000109228
0.000122878
0.000134355
0.000144372
0.000154167
0.00016438
0.00017466
0.000185306
0.000196289
0.000207354
0.000218988
0.000231018
0.000243248
0.000256356
0.0002704
0.000285358
0.000301207
0.00031811
0.000336156
0.000355245
0.000375015
0.000395195
0.000415825
0.000437017
0.000459097
0.000482568
0.000507564
0.000533731
0.00056082
0.000589002
0.000618404
0.00064882
0.000680116
0.000712477
0.000746066
0.000780753
0.000816379
0.000853042
0.000890784
0.000929235
0.000967947
0.00100695
0.00104664
0.0010873
0.00112886
0.00117134
0.00121509
0.00126045
0.00130731
0.0013552
0.00140391
0.0014537
0.00150487
0.0015574
0.00161105
0.00166576
0.00172169
0.00177891
0.00183715
0.00189598
0.00195527
0.00201523
0.00207605
0.00213753
0.00219919
0.00226056
0.00232147
0.00238191
0.00244172
0.00250054
0.00255809
0.0026144
0.00266974
0.00272431
0.00277802
0.00283061
0.00288194
0.00293212
0.00298144
0.00303008
0.00307794
0.0031248
0.00317057
0.00321536
0.00325933
0.00330245
0.00334443
0.00338495
0.0034239
0.00346143
0.00349779
0.00353311
0.00356726
0.00359998
0.00363109
0.0036606
0.0036886
0.00371518
0.00374025
0.00376364
0.0037852
0.00380492
0.00382297
0.00383949
0.0038545
0.00386787
0.00387942
0.00388912
0.00389715
0.00390378
0.00390924
0.00391357
0.00391663
0.00391826
0.00391843
0.00391736
0.00391539
0.00391285
0.00390989
0.00390647
0.00390258
0.00389838
0.0038943
0.00389097
0.00388885
5.77978e-05
7.75771e-05
9.60982e-05
0.000112471
0.000125928
0.000136332
0.000145295
0.000153875
0.000162621
0.000171757
0.000181499
0.000192034
0.000202459
0.000213515
0.00022515
0.00023709
0.000249611
0.000262788
0.000276787
0.000291713
0.00030763
0.000324301
0.000341863
0.000360395
0.000379753
0.000399931
0.000420855
0.000442384
0.000464735
0.000488365
0.00051338
0.000539615
0.000567025
0.00059559
0.000625056
0.000655204
0.000686245
0.000718539
0.00075204
0.00078645
0.000821732
0.000858085
0.00089544
0.000933361
0.000971601
0.00101044
0.00105024
0.00109098
0.00113251
0.00117503
0.00121893
0.00126437
0.00131102
0.00135851
0.00140695
0.00145668
0.00150788
0.00156033
0.00161385
0.00166851
0.00172447
0.00178162
0.00183952
0.00189791
0.00195688
0.00201673
0.00207747
0.00213871
0.00219993
0.00226082
0.00232134
0.00238146
0.0024409
0.00249926
0.00255636
0.00261235
0.00266753
0.00272195
0.00277537
0.00282755
0.00287847
0.00292839
0.00297759
0.00302612
0.0030738
0.00312044
0.00316602
0.00321071
0.00325464
0.00329768
0.00333947
0.00337974
0.00341845
0.00345581
0.00349206
0.00352725
0.00356117
0.00359359
0.0036244
0.00365366
0.00368151
0.00370795
0.00373287
0.00375607
0.00377745
0.00379709
0.00381518
0.00383181
0.00384694
0.00386035
0.00387189
0.00388158
0.00388965
0.00389643
0.0039021
0.00390664
0.00390987
0.00391164
0.003912
0.00391122
0.00390964
0.00390757
0.00390507
0.00390206
0.00389844
0.00389434
0.00389016
0.00388633
0.0038831
9.59493e-05
0.000108623
0.000120984
0.000131416
0.000140398
0.000148305
0.000155497
0.000162822
0.000170271
0.000178446
0.000187767
0.000197432
0.000207785
0.000218846
0.000230363
0.000242552
0.000255369
0.000268588
0.000282506
0.00029724
0.000312867
0.000329313
0.000346538
0.000364579
0.000383532
0.000403505
0.000424493
0.0004465
0.000469589
0.000493721
0.000518817
0.000545024
0.000572565
0.000601258
0.000630664
0.000660698
0.000691698
0.000723865
0.000757008
0.000790977
0.000825927
0.000861932
0.000898717
0.000936007
0.000973934
0.00101286
0.00105287
0.00109373
0.00113539
0.00117815
0.00122233
0.00126778
0.0013141
0.00136125
0.00140959
0.00145941
0.00151063
0.001563
0.00161646
0.00167118
0.00172717
0.00178412
0.00184162
0.0018996
0.00195837
0.00201816
0.00207875
0.00213961
0.00220031
0.00226072
0.00232086
0.00238063
0.00243964
0.00249755
0.00255431
0.00261016
0.00266529
0.00271958
0.00277272
0.00282456
0.00287524
0.0029251
0.00297433
0.00302282
0.00307037
0.00311684
0.00316234
0.00320706
0.00325102
0.00329397
0.00333557
0.00337561
0.00341415
0.00345144
0.00348764
0.00352269
0.00355637
0.00358848
0.00361903
0.00364812
0.00367586
0.00370219
0.00372693
0.00374992
0.00377114
0.00379075
0.00380893
0.0038257
0.00384091
0.00385432
0.0038658
0.00387547
0.00388362
0.00389055
0.0038964
0.00390107
0.00390436
0.00390617
0.00390662
0.003906
0.00390468
0.00390288
0.00390059
0.00389769
0.00389407
0.00388984
0.00388536
0.00388083
0.00387631
0.000126631
0.000132593
0.000139592
0.000146241
0.000152515
0.000158183
0.000164499
0.000170571
0.000177145
0.000184561
0.000192744
0.000201873
0.000212092
0.000222897
0.000234489
0.000246972
0.00025995
0.000273399
0.000287304
0.000301832
0.000317
0.000332994
0.000349872
0.000367693
0.000386565
0.000406451
0.000427439
0.000449789
0.000473451
0.000498057
0.000523473
0.000549916
0.000577487
0.000605941
0.000635083
0.000665073
0.00069609
0.000728001
0.000760647
0.000794163
0.000828742
0.000864248
0.000900389
0.000937203
0.000975087
0.00101426
0.0010545
0.00109556
0.00113754
0.00118075
0.00122519
0.00127052
0.00131656
0.00136355
0.00141195
0.00146186
0.00151306
0.00156538
0.00161888
0.00167369
0.00172962
0.00178626
0.00184334
0.00190104
0.00195972
0.00201941
0.00207969
0.00214004
0.0022002
0.00226018
0.00231997
0.00237933
0.00243788
0.00249541
0.00255199
0.00260785
0.002663
0.00271719
0.00277011
0.00282177
0.00287244
0.00292242
0.00297177
0.00302028
0.00306773
0.00311411
0.00315962
0.00320442
0.00324842
0.00329128
0.00333269
0.00337253
0.00341098
0.00344825
0.00348441
0.00351933
0.00355277
0.00358464
0.003615
0.003644
0.00367166
0.00369787
0.00372241
0.00374519
0.00376627
0.00378587
0.00380413
0.00382101
0.00383625
0.00384961
0.00386102
0.00387067
0.00387891
0.003886
0.003892
0.00389674
0.00390003
0.00390179
0.00390223
0.00390167
0.00390046
0.00389873
0.00389643
0.00389341
0.00388958
0.00388506
0.00388016
0.00387488
0.00386908
0.000150093
0.000150913
0.000154449
0.000158028
0.000162283
0.000166982
0.000171671
0.000177038
0.00018292
0.000189392
0.000196783
0.000205448
0.000215116
0.000225786
0.000237559
0.000250147
0.000263245
0.00027683
0.000290815
0.000305212
0.00032006
0.000335567
0.000352009
0.000369661
0.000388589
0.000408678
0.00043001
0.000452713
0.000476592
0.000501382
0.000527116
0.000553841
0.000581341
0.000609445
0.000638317
0.000668195
0.00069902
0.000730527
0.000762714
0.000795845
0.00082997
0.000864845
0.000900426
0.000937081
0.000975172
0.00101463
0.00105512
0.00109653
0.00113903
0.00118272
0.00122732
0.00127252
0.00131841
0.00136545
0.00141399
0.00146395
0.00151509
0.0015674
0.00162103
0.0016759
0.00173165
0.0017879
0.00184464
0.00190221
0.00196085
0.00202034
0.00208017
0.00213993
0.00219958
0.00225918
0.00231862
0.00237755
0.00243568
0.00249293
0.00254948
0.00260544
0.00266066
0.00271478
0.00276763
0.00281932
0.00287019
0.00292044
0.00296995
0.00301848
0.00306588
0.00311226
0.00315786
0.00320276
0.00324677
0.00328951
0.00333073
0.00337045
0.00340886
0.00344616
0.00348229
0.00351708
0.00355033
0.00358204
0.00361232
0.00364129
0.0036689
0.00369497
0.00371929
0.00374186
0.00376284
0.00378244
0.00380076
0.00381767
0.00383288
0.00384614
0.00385748
0.00386715
0.00387551
0.00388276
0.00388887
0.00389362
0.00389683
0.00389848
0.00389882
0.00389821
0.00389695
0.00389511
0.00389261
0.00388928
0.00388508
0.00388017
0.00387481
0.00386881
0.00386186
0.00016796
0.000165489
0.000165861
0.000167506
0.000170299
0.00017366
0.000177614
0.000182155
0.000187058
0.000192809
0.000199733
0.000207717
0.000216858
0.000227465
0.000239276
0.000251893
0.000265141
0.000278748
0.000292772
0.00030709
0.000321796
0.0003371
0.000353338
0.000370835
0.000389736
0.000410125
0.000431995
0.000455074
0.000479058
0.000503932
0.000529803
0.000556503
0.000583733
0.000611543
0.000640238
0.000669877
0.000700252
0.000731281
0.000763125
0.000795904
0.000829491
0.000863783
0.000899074
0.000935854
0.000974262
0.001014
0.00105479
0.0010967
0.00113983
0.00118392
0.00122857
0.00127369
0.00131965
0.00136691
0.00141558
0.0014655
0.0015166
0.001569
0.00162277
0.00167762
0.0017331
0.00178902
0.00184559
0.00190315
0.00196172
0.00202088
0.00208016
0.00213936
0.00219857
0.00225782
0.00231688
0.00237537
0.00243313
0.00249024
0.00254687
0.00260298
0.00265827
0.00271241
0.00276533
0.00281727
0.00286853
0.00291911
0.00296878
0.00301731
0.0030647
0.00311117
0.00315692
0.00320193
0.00324589
0.00328849
0.00332955
0.00336921
0.00340767
0.00344502
0.00348114
0.00351582
0.00354895
0.0035806
0.0036109
0.00363991
0.00366748
0.00369339
0.00371749
0.00373987
0.00376076
0.00378037
0.00379873
0.00381562
0.00383073
0.00384389
0.00385518
0.00386491
0.0038734
0.00388079
0.00388695
0.00389163
0.00389469
0.00389616
0.00389634
0.00389557
0.00389411
0.00389199
0.00388912
0.00388536
0.00388071
0.00387535
0.00386955
0.00386292
0.003855
0.000181833
0.000176529
0.000174841
0.000174994
0.000176341
0.00017879
0.000182032
0.000185575
0.000189739
0.000194813
0.000201036
0.000208485
0.000217375
0.000227738
0.000239362
0.000252062
0.000265451
0.000279116
0.000293079
0.000307345
0.000322028
0.000337405
0.000353765
0.000371319
0.000390333
0.000411027
0.000433222
0.000456478
0.000480588
0.00050559
0.000531381
0.000557704
0.000584526
0.000612104
0.000640594
0.000669835
0.000699686
0.00073031
0.000761879
0.000794279
0.000827342
0.000861281
0.000896632
0.00093372
0.000972402
0.00101238
0.00105359
0.00109611
0.00113976
0.00118409
0.00122877
0.00127399
0.0013202
0.0013677
0.00141643
0.00146631
0.00151744
0.00157
0.00162389
0.00167865
0.00173389
0.00178966
0.00184625
0.00190387
0.00196229
0.00202102
0.00207974
0.00213846
0.00219733
0.00225625
0.00231488
0.00237295
0.00243043
0.00248752
0.00254428
0.00260053
0.00265589
0.00271011
0.00276328
0.00281565
0.00286737
0.00291827
0.00296807
0.00301662
0.00306407
0.0031107
0.00315664
0.00320172
0.00324561
0.00328805
0.00332903
0.00336873
0.0034073
0.00344474
0.00348085
0.00351547
0.00354856
0.00358025
0.00361066
0.00363975
0.00366729
0.00369303
0.00371693
0.00373915
0.00376
0.00377964
0.00379802
0.00381485
0.00382984
0.0038429
0.00385418
0.00386401
0.00387263
0.00388008
0.00388619
0.00389071
0.00389352
0.00389476
0.00389472
0.00389371
0.00389193
0.0038894
0.00388603
0.00388176
0.00387663
0.00387085
0.00386464
0.00385749
0.00384875
0.000192266
0.00018509
0.000181998
0.000180651
0.000180854
0.000182492
0.000184762
0.000187544
0.000191007
0.000195234
0.000200725
0.000207827
0.000216479
0.000226512
0.000237928
0.000250622
0.000264023
0.000277811
0.000291789
0.000306097
0.00032089
0.000336446
0.000353046
0.000370931
0.00039036
0.00041133
0.000433543
0.000456776
0.000480973
0.000505966
0.000531434
0.000557264
0.000583717
0.000611046
0.000639164
0.0006679
0.000697355
0.000727747
0.000759038
0.000791016
0.000823745
0.000857701
0.000893353
0.000930743
0.000969618
0.00100986
0.00105155
0.00109461
0.00113859
0.00118301
0.00122779
0.00127328
0.00131984
0.00136753
0.00141627
0.00146616
0.00151745
0.00157024
0.00162421
0.00167887
0.00173402
0.00178988
0.00184668
0.00190437
0.00196255
0.00202081
0.00207905
0.00213744
0.00219603
0.0022546
0.00231279
0.00237046
0.00242777
0.00248489
0.00254178
0.00259812
0.00265355
0.00270796
0.00276152
0.00281441
0.00286659
0.00291775
0.00296764
0.00301625
0.00306385
0.00311071
0.00315684
0.00320197
0.00324578
0.00328813
0.00332913
0.00336896
0.0034077
0.00344523
0.00348136
0.00351596
0.00354911
0.00358095
0.00361155
0.00364073
0.00366823
0.00369383
0.00371757
0.00373971
0.00376056
0.00378025
0.00379863
0.00381539
0.00383028
0.00384326
0.00385456
0.00386448
0.00387317
0.0038806
0.00388653
0.00389077
0.00389328
0.00389423
0.00389392
0.00389261
0.00389043
0.00388739
0.00388345
0.00387862
0.00387302
0.00386686
0.00386032
0.00385271
0.00384329
0.00020016
0.000191631
0.000187
0.00018471
0.000184202
0.000184523
0.000185879
0.000188085
0.000190769
0.000194236
0.000199133
0.000205734
0.000213999
0.000223829
0.000235104
0.000247585
0.000260901
0.000274741
0.000288874
0.000303399
0.000318468
0.000334296
0.000351216
0.000369576
0.000389457
0.000410588
0.00043273
0.000455898
0.000479996
0.000504653
0.000529631
0.00055508
0.000581267
0.000608231
0.000635856
0.000664183
0.000693436
0.000723676
0.000754684
0.000786365
0.000819079
0.000853345
0.000889359
0.000926943
0.000965953
0.00100649
0.00104862
0.001092
0.00113608
0.00118054
0.00122554
0.00127143
0.00131831
0.0013661
0.00141487
0.00146492
0.00151651
0.00156955
0.00162359
0.00167825
0.00173355
0.00178974
0.00184686
0.00190458
0.00196247
0.00202033
0.00207826
0.00213644
0.00219478
0.00225295
0.00231071
0.00236807
0.0024253
0.00248249
0.00253945
0.00259581
0.00265133
0.00270604
0.00276009
0.00281351
0.00286605
0.0029174
0.00296737
0.00301613
0.00306399
0.00311113
0.00315743
0.00320259
0.00324636
0.00328872
0.00332986
0.00336991
0.00340886
0.0034465
0.00348265
0.0035173
0.00355061
0.00358269
0.00361351
0.00364279
0.00367025
0.00369572
0.00371937
0.00374151
0.00376244
0.00378219
0.00380057
0.00381725
0.00383204
0.00384499
0.00385632
0.00386629
0.00387496
0.00388223
0.00388786
0.00389173
0.00389388
0.00389453
0.00389393
0.00389228
0.00388965
0.00388605
0.0038815
0.0038761
0.00387005
0.00386355
0.00385672
0.00384872
0.00383872
0.000205817
0.000195679
0.000190132
0.0001873
0.00018552
0.000184946
0.000185546
0.000186843
0.000188835
0.00019189
0.000196273
0.000202298
0.000210163
0.000219763
0.000230851
0.000243099
0.000256294
0.000270053
0.000284339
0.000299187
0.000314649
0.000330897
0.000348299
0.000367115
0.000387215
0.000408352
0.00043047
0.00045354
0.000477292
0.000501403
0.000525908
0.000551088
0.000577021
0.000603567
0.000630769
0.0006589
0.000688103
0.000718194
0.000748978
0.000780649
0.000813687
0.000848382
0.00088464
0.000922299
0.000961451
0.00100228
0.00104465
0.00108806
0.00113206
0.00117662
0.00122197
0.00126825
0.00131535
0.00136322
0.00141214
0.00146253
0.00151451
0.00156779
0.00162195
0.00167683
0.00173255
0.00178924
0.00184667
0.00190436
0.00196199
0.00201961
0.00207741
0.00213547
0.00219355
0.00225133
0.00230871
0.00236589
0.00242311
0.00248036
0.00253733
0.00259369
0.00264936
0.00270444
0.00275899
0.00281287
0.00286569
0.00291717
0.00296728
0.0030163
0.00306451
0.00311196
0.00315843
0.00320362
0.00324742
0.00328993
0.00333133
0.00337167
0.00341082
0.00344856
0.00348476
0.00351954
0.00355308
0.00358546
0.0036165
0.00364587
0.00367328
0.00369869
0.00372233
0.00374456
0.00376562
0.00378545
0.0038038
0.00382039
0.0038351
0.00384802
0.00385937
0.00386933
0.00387787
0.00388484
0.00389006
0.0038935
0.00389528
0.00389562
0.00389474
0.00389274
0.00388964
0.00388545
0.00388027
0.00387432
0.00386783
0.00386102
0.00385391
0.00384555
0.00383506
0.000208723
0.000197858
0.000191326
0.000187409
0.000185002
0.000183745
0.000183335
0.000183765
0.000185298
0.000188031
0.000192034
0.000197691
0.000205191
0.000214458
0.000225265
0.000237285
0.000250258
0.000263966
0.000278374
0.000293458
0.000309289
0.000326085
0.000344065
0.000363192
0.000383282
0.000404347
0.000426424
0.000449249
0.000472473
0.000496077
0.000520302
0.000545265
0.000570857
0.000597054
0.000624111
0.000652269
0.000681442
0.000711396
0.000742176
0.000774178
0.000807721
0.000842761
0.000879107
0.000916804
0.000956109
0.000997091
0.00103941
0.00108261
0.00112652
0.00117128
0.00121701
0.00126358
0.00131081
0.00135884
0.00140812
0.00145899
0.00151138
0.00156492
0.00161934
0.00167466
0.00173101
0.00178824
0.00184589
0.00190353
0.00196104
0.00201862
0.00207645
0.00213442
0.00219224
0.00224967
0.00230681
0.00236395
0.00242124
0.00247852
0.00253546
0.00259185
0.00264775
0.00270324
0.00275827
0.0028125
0.00286552
0.00291715
0.00296752
0.00301692
0.00306554
0.0031133
0.00315993
0.0032052
0.00324915
0.00329193
0.00333368
0.00337433
0.00341366
0.00345148
0.00348778
0.00352275
0.00355659
0.00358926
0.0036205
0.00364993
0.00367731
0.00370271
0.00372644
0.00374884
0.00377005
0.00378994
0.00380824
0.00382473
0.00383936
0.00385226
0.0038636
0.00387346
0.00388174
0.00388829
0.00389303
0.00389601
0.00389743
0.0038975
0.00389634
0.00389398
0.00389038
0.0038856
0.00387981
0.00387332
0.00386641
0.00385927
0.00385189
0.00384321
0.00383231
0.000209378
0.000197795
0.000190241
0.000185651
0.000182528
0.000180298
0.000179164
0.000179126
0.000180197
0.000182567
0.000186454
0.00019199
0.000199228
0.000208158
0.000218576
0.000230259
0.000242947
0.000256603
0.000271035
0.000286239
0.000302432
0.000319758
0.000338117
0.000357329
0.000377407
0.000398443
0.000420292
0.000442636
0.000465383
0.000488733
0.000512817
0.000537535
0.00056283
0.000588923
0.000616099
0.000644363
0.000673496
0.000703458
0.000734551
0.000767102
0.000801102
0.000836311
0.000872673
0.000910439
0.000949836
0.000990734
0.00103275
0.00107567
0.00111959
0.00116462
0.00121064
0.00125738
0.00130476
0.00135313
0.00140295
0.00145437
0.00150714
0.00156097
0.00161582
0.00167178
0.00172879
0.00178647
0.00184427
0.0019019
0.00195947
0.00201722
0.00207517
0.00213308
0.00219067
0.0022479
0.00230501
0.00236227
0.00241968
0.00247698
0.00253391
0.00259041
0.00264661
0.00270254
0.00275796
0.00281245
0.00286565
0.00291752
0.00296828
0.00301817
0.00306723
0.00311528
0.00316207
0.00320751
0.00325173
0.0032949
0.00333704
0.00337798
0.00341745
0.00345535
0.00349179
0.00352702
0.00356117
0.00359411
0.0036255
0.00365495
0.00368233
0.0037078
0.00373171
0.00375432
0.00377568
0.00379559
0.0038138
0.00383016
0.00384471
0.00385758
0.00386888
0.00387855
0.00388647
0.00389251
0.00389671
0.00389923
0.00390031
0.00390012
0.00389869
0.00389595
0.00389186
0.00388649
0.00388012
0.00387311
0.00386578
0.00385832
0.00385065
0.00384168
0.00383046
0.000207479
0.000195332
0.000187195
0.000181809
0.000177732
0.000174785
0.000173192
0.000172799
0.000173541
0.000175769
0.000179706
0.000185265
0.000192382
0.000200991
0.000210998
0.000222268
0.000234614
0.000247967
0.000262281
0.00027764
0.000294133
0.000311686
0.000330107
0.000349337
0.000369453
0.000390368
0.000411809
0.000433677
0.000456173
0.000479455
0.000503417
0.000527934
0.00055317
0.000579443
0.00060684
0.00063517
0.000664338
0.000694584
0.000726234
0.000759328
0.000793594
0.000828849
0.000865259
0.000903113
0.000942448
0.000983024
0.00102464
0.00106738
0.00111143
0.00115672
0.00120291
0.00124976
0.00129743
0.00134634
0.0013968
0.00144873
0.00150184
0.00155605
0.00161147
0.00166811
0.00172568
0.00178364
0.00184153
0.00189929
0.00195714
0.00201521
0.00207333
0.00213121
0.0021887
0.00224596
0.00230329
0.00236081
0.0024184
0.00247576
0.00253275
0.00258946
0.00264604
0.00270238
0.00275811
0.00281281
0.00286624
0.00291847
0.00296975
0.00302018
0.00306968
0.003118
0.00316498
0.00321068
0.0032553
0.00329893
0.00334147
0.00338264
0.00342223
0.00346024
0.00349689
0.00353242
0.00356689
0.00360005
0.0036315
0.00366097
0.00368839
0.00371402
0.00373816
0.00376098
0.00378244
0.00380231
0.00382039
0.00383662
0.00385109
0.00386392
0.00387511
0.00388452
0.003892
0.00389749
0.00390113
0.00390319
0.00390394
0.00390348
0.00390175
0.00389861
0.00389401
0.00388808
0.00388117
0.00387369
0.00386598
0.00385819
0.00385024
0.00384101
0.00382953
0.000202733
0.000190431
0.000181751
0.000175416
0.000170727
0.000167315
0.000165275
0.000164655
0.000165499
0.000167927
0.000171955
0.000177576
0.000184665
0.000193017
0.000202611
0.000213363
0.000225239
0.000238135
0.000252209
0.000267605
0.000284179
0.000301662
0.000319973
0.000339203
0.00035927
0.000379881
0.000400913
0.000422564
0.000445043
0.000468285
0.000492125
0.00051664
0.000542122
0.000568718
0.000596279
0.00062467
0.000654082
0.000684866
0.000717114
0.00075056
0.000784919
0.000820226
0.000856754
0.000894634
0.000933726
0.00097388
0.00101521
0.00105796
0.00110222
0.00114766
0.00119393
0.00124098
0.00128914
0.00133873
0.00138981
0.00144215
0.0014956
0.00155027
0.00160628
0.0016635
0.00172142
0.00177951
0.00183753
0.00189559
0.00195389
0.00201236
0.00207069
0.00212864
0.00218626
0.00224385
0.00230162
0.00235954
0.00241736
0.00247486
0.00253204
0.00258909
0.00264608
0.00270278
0.00275876
0.00281367
0.00286742
0.00292015
0.00297203
0.00302301
0.0030729
0.00312148
0.00316873
0.00321482
0.00325992
0.00330405
0.00334696
0.00338835
0.00342808
0.00346626
0.00350319
0.00353906
0.0035738
0.00360709
0.00363857
0.00366804
0.00369558
0.00372143
0.00374583
0.00376884
0.00379031
0.00381006
0.00382797
0.00384408
0.00385849
0.00387126
0.00388229
0.00389137
0.00389836
0.00390328
0.00390635
0.00390795
0.00390834
0.00390757
0.0039055
0.00390193
0.00389682
0.00389037
0.00388299
0.00387511
0.00386705
0.00385896
0.00385072
0.00384123
0.00382953
0.000195326
0.000182862
0.00017344
0.000166587
0.000161417
0.000157578
0.00015533
0.000154833
0.000156045
0.000158863
0.00016322
0.000169042
0.000176063
0.000184137
0.000193298
0.000203481
0.000214686
0.000227073
0.000240863
0.000256026
0.000272318
0.000289573
0.000307808
0.000326968
0.000346763
0.000366997
0.000387841
0.000409548
0.000432083
0.000455258
0.000479108
0.000503898
0.000529786
0.000556642
0.000584298
0.000612892
0.000642795
0.000674195
0.000706867
0.000740456
0.000774875
0.000810326
0.000846981
0.000884758
0.000923515
0.000963366
0.00100465
0.00104759
0.00109201
0.00113751
0.00118389
0.00123134
0.00128016
0.00133045
0.00138203
0.0014347
0.0014885
0.00154366
0.00160019
0.00165774
0.00171578
0.00177395
0.00183223
0.00189078
0.00194964
0.00200853
0.00206712
0.00212533
0.00218338
0.00224157
0.00229998
0.00235838
0.00241651
0.00247426
0.00253179
0.00258927
0.00264667
0.00270367
0.00275987
0.00281505
0.00286924
0.00292258
0.00297509
0.00302659
0.00307683
0.00312571
0.00317333
0.00321993
0.00326561
0.00331024
0.00335351
0.00339513
0.00343506
0.00347352
0.00351079
0.00354699
0.00358194
0.00361529
0.00364676
0.00367627
0.00370398
0.00373011
0.00375477
0.00377789
0.0037993
0.00381885
0.00383657
0.00385257
0.00386695
0.00387964
0.00389045
0.00389914
0.00390559
0.00390993
0.00391246
0.0039136
0.00391359
0.00391243
0.00390993
0.00390589
0.0039003
0.0038934
0.00388563
0.00387742
0.00386908
0.00386068
0.00385214
0.00384239
0.00383048
0.000185198
0.000172389
0.000162692
0.000155271
0.000149608
0.000145713
0.000143595
0.000143373
0.000145089
0.000148538
0.000153395
0.000159411
0.000166414
0.000174272
0.000182869
0.000192346
0.000202882
0.000214788
0.00022812
0.00024273
0.000258551
0.000275588
0.000293716
0.000312608
0.000332024
0.000352067
0.00037299
0.000394811
0.000417333
0.000440527
0.000464639
0.000489857
0.000516059
0.000543037
0.000570862
0.000599896
0.000630411
0.000662279
0.000695133
0.000728789
0.000763368
0.00079903
0.000835728
0.000873306
0.000911828
0.000951659
0.000993157
0.00103632
0.00108082
0.00112637
0.00117303
0.00122107
0.00127061
0.00132149
0.00137344
0.00142641
0.0014806
0.0015362
0.00159305
0.00165069
0.00170872
0.00176703
0.00182574
0.00188492
0.00194437
0.00200369
0.00206265
0.00212136
0.00218015
0.00223918
0.00229832
0.00235725
0.00241577
0.00247392
0.00253192
0.00258989
0.00264768
0.00270494
0.00276136
0.0028169
0.00287164
0.00292565
0.00297877
0.00303073
0.00308133
0.0031306
0.00317874
0.00322598
0.0032723
0.00331746
0.00336109
0.003403
0.00344325
0.00348209
0.00351977
0.00355626
0.00359134
0.00362469
0.00365614
0.00368575
0.00371369
0.00374012
0.003765
0.00378816
0.00380942
0.00382875
0.00384628
0.00386218
0.00387651
0.00388909
0.00389963
0.00390786
0.00391374
0.00391749
0.0039195
0.00392017
0.00391971
0.00391808
0.00391508
0.00391054
0.0039045
0.00389723
0.00388917
0.00388072
0.00387211
0.0038634
0.00385452
0.00384447
0.00383236
0.000172214
0.000159271
0.000149443
0.000141611
0.00013568
0.000131865
0.000130178
0.000130531
0.000132826
0.000136865
0.000142235
0.00014851
0.000155488
0.000163004
0.000171012
0.000179813
0.000189772
0.000201083
0.000213727
0.000227719
0.00024315
0.000259942
0.00027774
0.000296229
0.000315435
0.000335558
0.000356616
0.000378432
0.000400947
0.000424368
0.000448894
0.000474434
0.000500744
0.000527831
0.000556035
0.000585669
0.000616692
0.000648783
0.000681702
0.000715509
0.000750354
0.00078619
0.000822828
0.000860257
0.00089881
0.000938928
0.000980761
0.00102409
0.00106862
0.00111434
0.00116149
0.00121024
0.00126044
0.00131175
0.00136399
0.00141729
0.0014719
0.00152782
0.00158477
0.00164233
0.00170036
0.00175898
0.00181829
0.00187814
0.00193813
0.00199791
0.00205741
0.00211691
0.00217667
0.00223666
0.00229656
0.00235605
0.00241506
0.00247374
0.00253231
0.00259078
0.0026489
0.00270638
0.00276309
0.00281909
0.00287447
0.00292914
0.00298283
0.00303524
0.00308627
0.00313607
0.0031849
0.0032329
0.00327993
0.00332564
0.00336969
0.003412
0.00345271
0.00349205
0.00353014
0.00356688
0.00360201
0.00363532
0.0036668
0.00369656
0.00372479
0.00375149
0.00377651
0.00379962
0.00382069
0.00383979
0.00385715
0.00387295
0.00388719
0.00389958
0.00390976
0.00391748
0.00392278
0.00392597
0.00392748
0.00392767
0.00392672
0.00392454
0.00392096
0.00391591
0.00390945
0.0039019
0.00389364
0.003885
0.00387612
0.00386706
0.0038578
0.00384742
0.00383509
0.000156803
0.000143781
0.00013375
0.000125857
0.000119921
0.000116338
0.000115189
0.000116231
0.000119179
0.000123769
0.000129557
0.000136027
0.000142844
0.000149904
0.000157449
0.00016574
0.000175094
0.000185663
0.000197626
0.000211179
0.000226302
0.000242693
0.000260016
0.000278227
0.000297475
0.000317734
0.000338781
0.000360536
0.000383197
0.000406972
0.000431789
0.000457393
0.000483727
0.000511095
0.000539855
0.000570033
0.000601337
0.000633514
0.000666575
0.000700668
0.000735769
0.000771661
0.000808236
0.000845743
0.000884641
0.000925206
0.000967324
0.00101073
0.00105536
0.00110147
0.00114928
0.00119872
0.00124942
0.00130105
0.00135363
0.00140736
0.00146235
0.00151845
0.00157533
0.00163282
0.00169103
0.00175016
0.00181014
0.0018706
0.00193108
0.00199138
0.00205164
0.00211216
0.00217301
0.00223394
0.00229456
0.00235465
0.00241425
0.0024736
0.00253279
0.0025917
0.0026501
0.00270783
0.00276491
0.00282147
0.00287753
0.00293285
0.00298708
0.00303997
0.00309156
0.00314208
0.00319178
0.00324065
0.00328843
0.00333473
0.00337931
0.00342216
0.00346347
0.00350338
0.00354189
0.0035788
0.00361393
0.00364722
0.00367877
0.00370877
0.00373728
0.00376421
0.00378927
0.00381225
0.00383309
0.00385197
0.00386917
0.00388486
0.00389891
0.003911
0.00392073
0.00392791
0.00393265
0.00393532
0.00393634
0.00393605
0.00393455
0.00393176
0.00392758
0.00392199
0.00391517
0.0039074
0.00389899
0.00389017
0.003881
0.00387155
0.00386185
0.00385112
0.00383861
0.000139634
0.000125997
0.000115855
0.000108299
0.000102605
9.92999e-05