/*--------------------------------*- C++ -*----------------------------------*\
| =========                 |                                                 |
| \\      /  F ield         | OpenFOAM: The Open Source CFD Toolbox           |
|  \\    /   O peration     | Version:  2112                                  |
|   \\  /    A nd           | Website:  www.openfoam.com                      |
|    \\/     M anipulation  |                                                 |
\*---------------------------------------------------------------------------*/
FoamFile
{
    version     2.0;
    format      ascii;
    arch        "LSB;label=32;scalar=64";
    class       volScalarField;
    location    "0.3";
    object      p;
}
// * * * * * * * * * * * * * * * * * * * * * * * * * * * * * * * * * * * * * //

dimensions      [0 2 -2 0 0 0 0];

internalField   nonuniform List<scalar> 
16641
(
-5.21204e-09
-1.54504e-06
-4.86316e-06
-9.16302e-06
-1.36378e-05
-1.77926e-05
-2.12497e-05
-2.37492e-05
-2.5118e-05
-2.52433e-05
-2.40555e-05
-2.15157e-05
-1.76068e-05
-1.23254e-05
-5.67819e-06
2.32176e-06
1.16569e-05
2.23075e-05
3.42539e-05
4.74771e-05
6.19594e-05
7.76845e-05
9.46373e-05
0.000112805
0.000132175
0.000152738
0.000174486
0.000197411
0.000221507
0.000246767
0.000273187
0.00030076
0.000329482
0.000359348
0.000390352
0.000422487
0.000455748
0.000490128
0.000525619
0.000562213
0.0005999
0.000638669
0.00067851
0.00071941
0.000761356
0.000804332
0.000848322
0.000893308
0.000939271
0.00098619
0.00103404
0.00108281
0.00113246
0.00118296
0.0012343
0.00128643
0.00133932
0.00139295
0.00144726
0.00150223
0.00155782
0.00161397
0.00167065
0.0017278
0.00178539
0.00184335
0.00190164
0.0019602
0.00201897
0.0020779
0.00213692
0.00219598
0.00225501
0.00231395
0.00237272
0.00243127
0.00248953
0.00254742
0.00260488
0.00266183
0.00271822
0.00277396
0.00282898
0.00288322
0.00293661
0.00298907
0.00304055
0.00309097
0.00314026
0.00318837
0.00323523
0.00328079
0.00332498
0.00336774
0.00340903
0.00344879
0.00348698
0.00352356
0.00355847
0.00359167
0.00362315
0.00365285
0.00368075
0.00370682
0.00373105
0.0037534
0.00377387
0.00379244
0.0038091
0.00382384
0.00383668
0.00384762
0.00385666
0.00386383
0.00386916
0.00387268
0.00387446
0.00387455
0.00387306
0.00387007
0.00386576
0.00386028
0.0038539
0.0038469
0.00383971
0.00383282
0.00382694
0.00382291
0.00382153
1.54953e-06
7.75746e-09
-2.60513e-06
-5.81605e-06
-9.12931e-06
-1.21481e-05
-1.45646e-05
-1.61501e-05
-1.67383e-05
-1.62113e-05
-1.44882e-05
-1.15167e-05
-7.26608e-06
-1.72105e-06
5.12343e-06
1.32652e-05
2.26967e-05
3.3407e-05
4.53832e-05
5.86119e-05
7.308e-05
8.87752e-05
0.000105686
0.000123802
0.000143113
0.00016361
0.000185286
0.000208133
0.000232147
0.000257321
0.000283649
0.000311126
0.000339747
0.000369506
0.000400397
0.000432414
0.000465551
0.000499799
0.000535152
0.000571601
0.000609135
0.000647744
0.000687416
0.000728139
0.000769899
0.00081268
0.000856466
0.000901238
0.000946979
0.000993665
0.00104128
0.00108979
0.00113917
0.0011894
0.00124045
0.00129229
0.00134488
0.00139818
0.00145217
0.0015068
0.00156203
0.00161782
0.00167413
0.0017309
0.00178809
0.00184565
0.00190352
0.00196166
0.00202
0.00207849
0.00213706
0.00219566
0.00225422
0.00231269
0.00237098
0.00242905
0.00248682
0.00254422
0.00260118
0.00265764
0.00271352
0.00276876
0.00282328
0.00287702
0.00292991
0.00298188
0.00303287
0.0030828
0.00313162
0.00317926
0.00322566
0.00327076
0.00331451
0.00335684
0.00339771
0.00343707
0.00347487
0.00351106
0.00354561
0.00357848
0.00360963
0.00363903
0.00366665
0.00369247
0.00371647
0.00373862
0.00375893
0.00377737
0.00379395
0.00380866
0.00382151
0.00383252
0.0038417
0.00384908
0.00385471
0.00385863
0.00386091
0.00386162
0.00386087
0.00385877
0.00385549
0.00385119
0.00384613
0.00384057
0.00383488
0.00382947
0.00382482
0.00382156
0.0038202
4.90757e-06
2.63694e-06
1.07963e-08
-2.81422e-06
-5.58353e-06
-7.994e-06
-9.79904e-06
-1.08083e-05
-1.08758e-05
-9.8928e-06
-7.78022e-06
-4.48277e-06
3.56862e-08
5.79632e-06
1.28097e-05
2.10793e-05
3.06037e-05
4.13775e-05
5.33928e-05
6.66405e-05
8.11107e-05
9.67939e-05
0.000113681
0.000131764
0.000151033
0.000171483
0.000193106
0.000215895
0.000239845
0.000264951
0.000291208
0.000318609
0.000347149
0.000376823
0.000407625
0.000439549
0.000472587
0.000506733
0.000541979
0.000578314
0.000615729
0.000654215
0.000693758
0.000734346
0.000775965
0.000818599
0.000862231
0.000906844
0.000952418
0.000998932
0.00104636
0.00109469
0.00114388
0.00119391
0.00124475
0.00129637
0.00134874
0.00140182
0.00145557
0.00150996
0.00156494
0.00162048
0.00167652
0.00173302
0.00178994
0.00184721
0.0019048
0.00196264
0.00202068
0.00207886
0.00213712
0.0021954
0.00225364
0.00231178
0.00236974
0.00242748
0.0024849
0.00254196
0.00259858
0.00265469
0.00271023
0.00276512
0.0028193
0.00287269
0.00292524
0.00297687
0.00302751
0.0030771
0.00312559
0.00317289
0.00321897
0.00326374
0.00330717
0.0033492
0.00338977
0.00342883
0.00346635
0.00350227
0.00353655
0.00356917
0.00360008
0.00362925
0.00365667
0.00368229
0.00370612
0.00372812
0.0037483
0.00376664
0.00378314
0.00379781
0.00381067
0.00382172
0.00383099
0.00383852
0.00384435
0.00384854
0.00385116
0.00385228
0.00385203
0.00385051
0.00384789
0.00384434
0.00384007
0.00383535
0.00383045
0.00382573
0.00382157
0.00381834
0.00381625
9.26587e-06
5.86787e-06
2.82644e-06
-1.06128e-08
-2.60225e-06
-4.72076e-06
-6.17427e-06
-6.81411e-06
-6.5209e-06
-5.20187e-06
-2.78737e-06
7.73536e-07
5.51647e-06
1.14645e-05
1.8631e-05
2.70221e-05
3.66394e-05
4.74808e-05
5.95423e-05
7.28177e-05
8.73001e-05
0.000102982
0.000119857
0.000137917
0.000157156
0.000177568
0.000199147
0.000221888
0.000245785
0.000270833
0.000297026
0.000324361
0.000352832
0.000382432
0.000413157
0.000444999
0.000477953
0.000512011
0.000547164
0.000583403
0.000620718
0.000659099
0.000698534
0.00073901
0.000780512
0.000823025
0.000866532
0.000911016
0.000956456
0.00100283
0.00105012
0.0010983
0.00114734
0.00119721
0.00124789
0.00129935
0.00135155
0.00140445
0.00145802
0.00151223
0.00156702
0.00162237
0.00167821
0.00173451
0.00179122
0.00184829
0.00190566
0.00196329
0.00202111
0.00207906
0.0021371
0.00219515
0.00225315
0.00231105
0.00236878
0.00242627
0.00248345
0.00254026
0.00259663
0.00265249
0.00270778
0.00276241
0.00281634
0.00286948
0.00292177
0.00297314
0.00302353
0.00307287
0.00312111
0.00316816
0.00321399
0.00325852
0.00330171
0.0033435
0.00338383
0.00342267
0.00345996
0.00349566
0.00352974
0.00356215
0.00359287
0.00362186
0.00364909
0.00367456
0.00369824
0.00372011
0.00374017
0.00375841
0.00377485
0.00378947
0.00380231
0.00381338
0.0038227
0.00383032
0.00383629
0.00384067
0.00384352
0.00384494
0.00384503
0.0038439
0.00384172
0.00383863
0.00383485
0.00383057
0.00382606
0.00382157
0.00381742
0.00381375
0.0038105
1.38149e-05
9.19908e-06
5.57826e-06
2.54083e-06
-5.89698e-08
-2.05339e-06
-3.29879e-06
-3.68753e-06
-3.12814e-06
-1.54603e-06
1.11633e-06
4.90211e-06
9.8429e-06
1.59606e-05
2.32694e-05
3.17768e-05
4.14863e-05
5.23977e-05
6.45092e-05
7.78173e-05
9.23172e-05
0.000108004
0.000124872
0.000142915
0.00016213
0.000182509
0.00020405
0.000226747
0.000250594
0.000275588
0.000301724
0.000328997
0.000357402
0.000386934
0.000417587
0.000449354
0.00048223
0.000516206
0.000551275
0.000587426
0.000624651
0.000662938
0.000702276
0.000742652
0.000784051
0.000826458
0.000869857
0.000914229
0.000959554
0.00100581
0.00105298
0.00110103
0.00114995
0.00119969
0.00125024
0.00130156
0.00135362
0.00140639
0.00145982
0.00151388
0.00156852
0.00162371
0.00167941
0.00173555
0.0017921
0.00184901
0.00190622
0.00196368
0.00202133
0.00207911
0.00213697
0.00219485
0.00225268
0.0023104
0.00236795
0.00242525
0.00248225
0.00253887
0.00259505
0.00265072
0.00270581
0.00276026
0.00281399
0.00286693
0.00291903
0.0029702
0.00302039
0.00306954
0.00311757
0.00316443
0.00321005
0.00325439
0.00329738
0.00333897
0.00337911
0.00341775
0.00345485
0.00349037
0.00352426
0.00355649
0.00358704
0.00361586
0.00364294
0.00366825
0.00369179
0.00371354
0.00373349
0.00375163
0.00376799
0.00378256
0.00379536
0.00380642
0.00381577
0.00382345
0.00382951
0.00383401
0.00383703
0.00383866
0.00383899
0.00383814
0.00383626
0.00383348
0.00382998
0.00382596
0.00382159
0.0038171
0.00381272
0.00380839
0.00380378
1.805e-05
1.222e-05
7.9466e-06
4.59338e-06
1.85695e-06
-1.39681e-07
-1.29211e-06
-1.52962e-06
-7.88185e-07
9.88021e-07
3.84361e-06
7.81267e-06
1.29207e-05
1.91863e-05
2.66221e-05
3.52361e-05
4.50322e-05
5.60117e-05
6.81739e-05
8.15169e-05
9.60377e-05
0.000111733
0.000128599
0.00014663
0.000165825
0.000186177
0.000207684
0.000230341
0.000254145
0.00027909
0.000305174
0.000332391
0.000360736
0.000390206
0.000420794
0.000452494
0.000485299
0.000519202
0.000554196
0.00059027
0.000627415
0.000665621
0.000704876
0.000745167
0.000786479
0.000828797
0.000872106
0.000916386
0.000961618
0.00100778
0.00105485
0.00110281
0.00115162
0.00120127
0.00125172
0.00130294
0.0013549
0.00140756
0.00146088
0.00151484
0.00156938
0.00162446
0.00168005
0.00173608
0.00179253
0.00184932
0.00190642
0.00196377
0.0020213
0.00207898
0.00213672
0.00219448
0.0022522
0.0023098
0.00236722
0.00242441
0.00248128
0.00253778
0.00259384
0.00264938
0.00270434
0.00275865
0.00281225
0.00286506
0.00291701
0.00296805
0.0030181
0.0030671
0.00311498
0.00316169
0.00320717
0.00325135
0.00329419
0.00333563
0.00337561
0.0034141
0.00345104
0.0034864
0.00352014
0.00355222
0.00358261
0.00361129
0.00363822
0.0036634
0.00368681
0.00370843
0.00372827
0.00374632
0.00376259
0.00377709
0.00378984
0.00380087
0.00381021
0.00381791
0.00382401
0.00382859
0.00383171
0.00383346
0.00383394
0.00383326
0.00383155
0.00382893
0.00382557
0.00382161
0.00381722
0.00381255
0.00380781
0.00380274
0.00379676
2.15706e-05
1.45989e-05
9.65917e-06
5.92757e-06
2.97174e-06
8.82645e-07
-2.65509e-07
-4.32923e-07
4.1959e-07
2.32931e-06
5.32756e-06
9.43906e-06
1.46826e-05
2.10722e-05
2.86177e-05
3.73258e-05
4.72004e-05
5.8243e-05
7.04538e-05
8.38318e-05
9.8375e-05
0.000114081
0.000130948
0.000148972
0.00016815
0.00018848
0.000209958
0.000232581
0.000256346
0.000281248
0.000307285
0.000334452
0.000362745
0.00039216
0.00042269
0.000454331
0.000487075
0.000520915
0.000555844
0.000591853
0.000628932
0.00066707
0.000706256
0.000746478
0.000787721
0.000829969
0.000873207
0.000917417
0.000962579
0.00100867
0.00105567
0.00110356
0.00115231
0.00120189
0.00125227
0.00130342
0.00135531
0.00140791
0.00146117
0.00151506
0.00156954
0.00162457
0.00168009
0.00173607
0.00179246
0.00184919
0.00190624
0.00196353
0.00202101
0.00207862
0.00213631
0.00219402
0.00225168
0.00230922
0.00236659
0.00242372
0.00248053
0.00253697
0.00259296
0.00264844
0.00270334
0.00275758
0.0028111
0.00286384
0.00291571
0.00296667
0.00301663
0.00306554
0.00311334
0.00315995
0.00320533
0.00324941
0.00329213
0.00333346
0.00337333
0.00341169
0.00344852
0.00348375
0.00351736
0.00354931
0.00357957
0.00360812
0.00363492
0.00365998
0.00368326
0.00370476
0.00372449
0.00374243
0.00375861
0.00377302
0.0037857
0.00379668
0.00380598
0.00381366
0.00381976
0.00382436
0.00382751
0.00382932
0.00382986
0.00382925
0.0038276
0.00382503
0.00382167
0.00381765
0.0038131
0.00380815
0.00380295
0.00379712
0.00378987
2.40825e-05
1.60738e-05
1.0492e-05
6.35964e-06
3.1404e-06
9.02544e-07
-3.02758e-07
-4.60575e-07
4.47289e-07
2.44121e-06
5.5395e-06
9.75741e-06
1.51069e-05
2.15971e-05
2.92344e-05
3.80233e-05
4.79668e-05
5.9066e-05
7.13214e-05
8.47323e-05
9.92977e-05
0.000115016
0.000131885
0.000149904
0.00016907
0.000189381
0.000210835
0.000233428
0.000257159
0.000282024
0.000308021
0.000335145
0.000363392
0.000392759
0.00042324
0.00045483
0.000487522
0.000521311
0.000556187
0.000592142
0.000629168
0.000667253
0.000706386
0.000746556
0.000787747
0.000829945
0.000873134
0.000917296
0.000962412
0.00100846
0.00105542
0.00110327
0.00115198
0.00120152
0.00125187
0.00130299
0.00135485
0.00140742
0.00146066
0.00151454
0.001569
0.00162401
0.00167952
0.00173549
0.00179187
0.0018486
0.00190564
0.00196293
0.00202041
0.00207803
0.00213573
0.00219344
0.0022511
0.00230865
0.00236602
0.00242315
0.00247997
0.00253641
0.0025924
0.00264787
0.00270276
0.002757
0.00281051
0.00286323
0.00291509
0.00296602
0.00301595
0.00306482
0.00311258
0.00315914
0.00320446
0.00324848
0.00329115
0.0033324
0.00337219
0.00341047
0.0034472
0.00348233
0.00351584
0.00354768
0.00357783
0.00360626
0.00363295
0.00365789
0.00368105
0.00370244
0.00372204
0.00373988
0.00375595
0.00377027
0.00378286
0.00379375
0.00380299
0.00381061
0.00381667
0.00382123
0.00382437
0.00382615
0.00382669
0.00382606
0.00382438
0.00382176
0.00381831
0.00381414
0.00380934
0.00380403
0.00379835
0.0037918
0.00378343
2.53705e-05
1.64391e-05
1.02598e-05
5.72972e-06
2.22924e-06
-1.88695e-07
-1.4907e-06
-1.68186e-06
-7.61096e-07
1.27762e-06
4.44074e-06
8.73431e-06
1.41635e-05
2.07324e-05
2.84439e-05
3.73001e-05
4.73022e-05
5.84506e-05
7.07454e-05
8.41861e-05
9.87721e-05
0.000114502
0.000131376
0.000149392
0.000168548
0.000188843
0.000210276
0.000232845
0.000256547
0.000281381
0.000307343
0.00033443
0.00036264
0.000391967
0.000422407
0.000453956
0.000486607
0.000520353
0.000555189
0.000591104
0.00062809
0.000666138
0.000705235
0.000745369
0.000786528
0.000828696
0.000871858
0.000915996
0.00096109
0.00100712
0.00105407
0.0011019
0.0011506
0.00120014
0.00125049
0.00130162
0.0013535
0.00140608
0.00145934
0.00151324
0.00156773
0.00162277
0.00167832
0.00173433
0.00179075
0.00184753
0.00190462
0.00196196
0.0020195
0.00207718
0.00213494
0.00219271
0.00225044
0.00230805
0.00236549
0.00242268
0.00247957
0.00253607
0.00259212
0.00264765
0.0027026
0.00275688
0.00281044
0.0028632
0.00291509
0.00296605
0.00301601
0.0030649
0.00311266
0.00315923
0.00320454
0.00324854
0.00329117
0.00333239
0.00337213
0.00341036
0.00344703
0.00348209
0.00351552
0.00354727
0.00357732
0.00360565
0.00363223
0.00365705
0.0036801
0.00370137
0.00372086
0.00373858
0.00375453
0.00376873
0.00378122
0.00379201
0.00380114
0.00380867
0.00381465
0.00381913
0.00382219
0.00382391
0.00382436
0.00382366
0.00382188
0.00381913
0.00381552
0.00381112
0.00380603
0.00380034
0.00379418
0.00378697
0.00377764
2.52741e-05
1.55328e-05
8.81065e-06
3.90114e-06
1.18367e-07
-2.49413e-06
-3.91632e-06
-4.16965e-06
-3.26703e-06
-1.21424e-06
1.98502e-06
6.32841e-06
1.18146e-05
1.84427e-05
2.62121e-05
3.51222e-05
4.51724e-05
5.63621e-05
6.86906e-05
8.21573e-05
9.67616e-05
0.000112503
0.000129381
0.000147395
0.000166544
0.000186827
0.000208243
0.000230792
0.00025447
0.000279278
0.000305212
0.000332269
0.000360448
0.000389744
0.000420153
0.00045167
0.00048429
0.000518007
0.000552814
0.000588703
0.000625665
0.00066369
0.000702768
0.000742887
0.000784033
0.000826193
0.000869349
0.000913487
0.000958585
0.00100463
0.00105159
0.00109944
0.00114817
0.00119774
0.00124813
0.0012993
0.00135122
0.00140386
0.00145718
0.00151114
0.00156571
0.00162083
0.00167646
0.00173256
0.00178908
0.00184596
0.00190316
0.00196061
0.00201826
0.00207606
0.00213393
0.00219183
0.00224968
0.00230742
0.00236498
0.0024223
0.00247931
0.00253593
0.0025921
0.00264776
0.00270281
0.00275721
0.00281087
0.00286373
0.00291571
0.00296675
0.00301679
0.00306574
0.00311356
0.00316017
0.00320551
0.00324954
0.00329218
0.0033334
0.00337313
0.00341133
0.00344796
0.00348297
0.00351634
0.00354802
0.00357799
0.00360623
0.00363271
0.00365742
0.00368036
0.0037015
0.00372087
0.00373846
0.00375428
0.00376835
0.0037807
0.00379136
0.00380037
0.00380778
0.00381363
0.00381799
0.00382093
0.00382252
0.00382285
0.003822
0.00382007
0.00381714
0.00381331
0.00380865
0.00380324
0.00379716
0.00379054
0.00378275
0.00377262
2.36733e-05
1.32269e-05
6.01975e-06
7.58512e-07
-3.29647e-06
-6.10665e-06
-7.66125e-06
-7.99477e-06
-7.13179e-06
-5.08786e-06
-1.87514e-06
2.49678e-06
8.02065e-06
1.4691e-05
2.25036e-05
3.14553e-05
4.15436e-05
5.27665e-05
6.51227e-05
7.86112e-05
9.32312e-05
0.000108982
0.000125865
0.000143878
0.000163021
0.000183295
0.000204698
0.000227231
0.000250891
0.000275678
0.00030159
0.000328626
0.000356782
0.000386055
0.000416442
0.000447938
0.000480539
0.000514239
0.000549031
0.000584908
0.000621861
0.000659881
0.000698957
0.000739079
0.000780234
0.000822406
0.000865582
0.000909744
0.000954873
0.00100095
0.00104795
0.00109586
0.00114465
0.00119428
0.00124474
0.001296
0.00134801
0.00140075
0.00145417
0.00150824
0.00156293
0.00161817
0.00167394
0.00173018
0.00178685
0.00184388
0.00190124
0.00195885
0.00201668
0.00207464
0.0021327
0.00219077
0.00224881
0.00230673
0.00236448
0.00242199
0.00247918
0.00253599
0.00259234
0.00264817
0.0027034
0.00275796
0.00281179
0.0028648
0.00291692
0.0029681
0.00301826
0.00306733
0.00311524
0.00316194
0.00320737
0.00325145
0.00329414
0.00333539
0.00337514
0.00341334
0.00344996
0.00348495
0.00351827
0.0035499
0.0035798
0.00360795
0.00363434
0.00365894
0.00368176
0.00370278
0.00372201
0.00373946
0.00375514
0.00376906
0.00378126
0.00379177
0.00380062
0.00380787
0.00381356
0.00381776
0.00382054
0.00382196
0.00382211
0.00382108
0.00381894
0.00381579
0.0038117
0.00380675
0.00380101
0.00379456
0.00378751
0.00377922
0.00376843
2.04775e-05
9.42102e-06
1.78536e-06
-3.79549e-06
-8.10545e-06
-1.11085e-05
-1.27997e-05
-1.32237e-05
-1.24145e-05
-1.03958e-05
-7.18684e-06
-2.80339e-06
2.74217e-06
9.44018e-06
1.72832e-05
2.62654e-05
3.63824e-05
4.7631e-05
6.00091e-05
7.3515e-05
8.81479e-05
0.000103908
0.000120794
0.000138807
0.000157947
0.000178214
0.000199608
0.000222128
0.000245775
0.000270548
0.000296446
0.000323466
0.000351607
0.000380867
0.000411242
0.000442728
0.000475322
0.000509017
0.000543808
0.000579688
0.000616648
0.000654681
0.000693775
0.00073392
0.000775104
0.000817313
0.000860531
0.000904743
0.000949931
0.000996075
0.00104315
0.00109114
0.00114002
0.00118976
0.00124033
0.0012917
0.00134384
0.00139672
0.00145029
0.00150452
0.00155937
0.00161479
0.00167074
0.00172717
0.00178404
0.00184128
0.00189885
0.00195669
0.00201473
0.00207293
0.00213122
0.00218954
0.00224782
0.00230598
0.00236398
0.00242173
0.00247917
0.00253622
0.00259282
0.00264888
0.00270435
0.00275913
0.00281317
0.00286639
0.00291872
0.00297008
0.00302041
0.00306964
0.00311771
0.00316454
0.00321008
0.00325427
0.00329704
0.00333835
0.00337815
0.00341638
0.00345301
0.00348799
0.00352128
0.00355287
0.00358271
0.00361078
0.00363708
0.00366158
0.00368428
0.00370517
0.00372426
0.00374155
0.00375706
0.00377082
0.00378284
0.00379317
0.00380184
0.00380889
0.00381439
0.00381839
0.00382097
0.00382218
0.00382212
0.00382086
0.00381848
0.00381507
0.0038107
0.00380545
0.00379938
0.00379257
0.00378514
0.00377642
0.0037651
1.56184e-05
4.03681e-06
-3.97486e-06
-9.84238e-06
-1.43863e-05
-1.7572e-05
-1.93984e-05
-1.99174e-05
-1.91705e-05
-1.71883e-05
-1.39959e-05
-9.61405e-06
-4.0597e-06
2.65384e-06
1.05161e-05
1.95191e-05
2.96566e-05
4.0924e-05
5.33184e-05
6.68377e-05
8.14808e-05
9.72474e-05
0.000114137
0.000132151
0.000151289
0.000171552
0.00019294
0.000215454
0.000239093
0.000263857
0.000289746
0.000316759
0.000344895
0.00037415
0.000404523
0.000436011
0.00046861
0.000502314
0.000537118
0.000573017
0.000610001
0.000648064
0.000687195
0.000727384
0.00076862
0.000810888
0.000854175
0.000898464
0.000943739
0.000989978
0.00103716
0.00108527
0.00113427
0.00118415
0.00123487
0.0012864
0.00133871
0.00139176
0.00144553
0.00149996
0.00155502
0.00161067
0.00166685
0.00172352
0.00178064
0.00183814
0.00189598
0.00195409
0.00201243
0.00207092
0.0021295
0.00218812
0.00224669
0.00230517
0.00236347
0.00242153
0.00247928
0.00253663
0.00259353
0.00264989
0.00270565
0.00276072
0.00281503
0.00286851
0.00292109
0.00297269
0.00302325
0.00307269
0.00312095
0.00316795
0.00321365
0.00325797
0.00330086
0.00334227
0.00338214
0.00342043
0.00345708
0.00349207
0.00352536
0.00355691
0.0035867
0.0036147
0.00364091
0.0036653
0.00368787
0.00370862
0.00372755
0.00374468
0.00376002
0.00377358
0.0037854
0.00379552
0.00380397
0.00381081
0.00381608
0.00381985
0.00382219
0.00382316
0.00382284
0.00382132
0.00381867
0.00381498
0.00381032
0.00380476
0.00379836
0.00379122
0.00378345
0.00377437
0.00376264
9.04388e-06
-2.98749e-06
-1.13271e-05
-1.74496e-05
-2.22055e-05
-2.55605e-05
-2.75167e-05
-2.81312e-05
-2.74512e-05
-2.55127e-05
-2.23458e-05
-1.79755e-05
-1.24225e-05
-5.70331e-06
2.16906e-06
1.11845e-05
2.13351e-05
3.26153e-05
4.50213e-05
5.85503e-05
7.32012e-05
8.89732e-05
0.000105867
0.000123882
0.00014302
0.000163281
0.000184667
0.000207178
0.000230814
0.000255576
0.000281464
0.000308477
0.000336616
0.000365877
0.000396259
0.00042776
0.000460376
0.000494103
0.000528936
0.000564868
0.000601895
0.000640006
0.000679194
0.000719449
0.000760759
0.000803111
0.000846492
0.000890886
0.000936275
0.000982641
0.00102996
0.00107822
0.00112739
0.00117744
0.00122834
0.00128007
0.00133259
0.00138587
0.00143987
0.00149455
0.00154987
0.00160579
0.00166225
0.00171922
0.00177664
0.00183446
0.00189262
0.00195107
0.00200974
0.00206858
0.00212752
0.0021865
0.00224544
0.00230428
0.00236295
0.00242138
0.0024795
0.00253722
0.00259448
0.0026512
0.0027073
0.00276271
0.00281735
0.00287116
0.00292404
0.00297593
0.00302676
0.00307646
0.00312496
0.00317218
0.00321807
0.00326257
0.00330561
0.00334714
0.00338711
0.00342547
0.00346218
0.0034972
0.00353049
0.00356202
0.00359176
0.00361969
0.00364581
0.00367008
0.00369252
0.00371312
0.00373188
0.00374882
0.00376396
0.00377731
0.00378891
0.00379879
0.003807
0.00381358
0.00381859
0.00382209
0.00382416
0.00382485
0.00382425
0.00382244
0.0038195
0.00381551
0.00381055
0.00380468
0.00379797
0.00379052
0.00378245
0.00377306
0.00376101
7.13863e-07
-1.1701e-05
-2.03248e-05
-2.66728e-05
-3.16191e-05
-3.51291e-05
-3.72072e-05
-3.79147e-05
-3.7303e-05
-3.54125e-05
-3.22772e-05
-2.79258e-05
-2.23819e-05
-1.56649e-05
-7.78998e-06
1.23092e-06
1.13887e-05
2.26765e-05
3.50898e-05
4.86255e-05
6.32819e-05
7.90584e-05
9.59551e-05
0.000113973
0.000133112
0.000153375
0.000174762
0.000197274
0.000220913
0.000245679
0.000271573
0.000298595
0.000326745
0.000356022
0.000386424
0.00041795
0.000450596
0.00048436
0.000519236
0.00055522
0.000592305
0.000630485
0.00066975
0.000710092
0.0007515
0.000793961
0.000837462
0.000881987
0.000927521
0.000974044
0.00102154
0.00106998
0.00111934
0.0011696
0.00122073
0.0012727
0.00132547
0.00137902
0.0014333
0.00148827
0.0015439
0.00160014
0.00165694
0.00171426
0.00177204
0.00183022
0.00188877
0.00194761
0.00200668
0.00206593
0.00212528
0.00218468
0.00224405
0.00230332
0.00236242
0.00242128
0.00247983
0.00253798
0.00259566
0.0026528
0.00270931
0.00276512
0.00282015
0.00287433
0.00292757
0.00297981
0.00303097
0.00308097
0.00312974
0.00317723
0.00322335
0.00326806
0.00331128
0.00335297
0.00339306
0.00343153
0.0034683
0.00350336
0.00353666
0.00356817
0.00359787
0.00362574
0.00365176
0.00367591
0.00369821
0.00371864
0.00373722
0.00375395
0.00376886
0.00378198
0.00379332
0.00380294
0.00381087
0.00381717
0.00382188
0.00382509
0.00382685
0.00382723
0.00382633
0.00382421
0.00382095
0.00381665
0.00381138
0.00380521
0.0037982
0.00379046
0.00378213
0.00377249
0.00376018
-9.40124e-06
-2.21429e-05
-3.10118e-05
-3.75578e-05
-4.2674e-05
-4.63247e-05
-4.85158e-05
-4.9312e-05
-4.8768e-05
-4.69275e-05
-4.38276e-05
-3.95002e-05
-3.39714e-05
-2.72626e-05
-1.9391e-05
-1.03702e-05
-2.10391e-07
1.10808e-05
2.3498e-05
3.70377e-05
5.16979e-05
6.74779e-05
8.4378e-05
0.000102399
0.000121542
0.000141808
0.0001632
0.000185718
0.000209365
0.000234141
0.000260048
0.000287087
0.000315258
0.00034456
0.000374994
0.000406556
0.000439246
0.000473061
0.000507996
0.000544048
0.000581211
0.000619477
0.000658841
0.000699292
0.000740821
0.000783416
0.000827063
0.000871749
0.000917456
0.000964167
0.00101186
0.00106052
0.00111012
0.00116062
0.00121202
0.00126426
0.00131733
0.00137119
0.00142579
0.00148111
0.0015371
0.00159371
0.00165089
0.00170861
0.0017668
0.00182542
0.0018844
0.00194369
0.00200322
0.00206294
0.00212277
0.00218265
0.00224251
0.00230227
0.00236187
0.00242123
0.00248027
0.00253891
0.00259708
0.0026547
0.00271168
0.00276795
0.00282343
0.00287804
0.0029317
0.00298433
0.00303586
0.00308621
0.00313531
0.0031831
0.0032295
0.00327444
0.00331788
0.00335975
0.0034
0.00343858
0.00347545
0.00351056
0.00354388
0.00357538
0.00360504
0.00363284
0.00365875
0.00368278
0.00370492
0.00372517
0.00374354
0.00376004
0.00377471
0.00378755
0.00379862
0.00380793
0.00381556
0.00382154
0.00382593
0.00382881
0.00383023
0.00383028
0.00382904
0.00382659
0.00382301
0.00381838
0.0038128
0.00380633
0.00379903
0.00379103
0.00378246
0.00377261
0.00376012
-2.13229e-05
-3.43433e-05
-4.34235e-05
-5.01426e-05
-5.54098e-05
-5.91877e-05
-6.14825e-05
-6.23621e-05
-6.18838e-05
-6.00936e-05
-5.70314e-05
-5.27314e-05
-4.72218e-05
-4.05258e-05
-3.26622e-05
-2.36458e-05
-1.34879e-05
-2.19688e-06
1.02214e-05
2.3763e-05
3.84256e-05
5.42087e-05
7.11123e-05
8.91375e-05
0.000108286
0.000128559
0.000149959
0.000172488
0.000196147
0.00022094
0.000246868
0.000273931
0.000302132
0.00033147
0.000361945
0.000393557
0.000426304
0.000460184
0.000495194
0.00053133
0.000568588
0.000606962
0.000646445
0.000687027
0.000728701
0.000771454
0.000815275
0.000860149
0.000906059
0.00095299
0.00100092
0.00104983
0.00109969
0.00115049
0.00120218
0.00125475
0.00130816
0.00136237
0.00141734
0.00147305
0.00152944
0.00158647
0.0016441
0.00170227
0.00176093
0.00182003
0.00187951
0.0019393
0.00199936
0.0020596
0.00211998
0.0021804
0.00224082
0.00230114
0.0023613
0.00242122
0.00248082
0.00254002
0.00259874
0.0026569
0.00271442
0.00277121
0.00282719
0.00288229
0.00293642
0.0029895
0.00304146
0.00309221
0.00314168
0.00318981
0.00323652
0.00328174
0.00332543
0.00336751
0.00340793
0.00344665
0.00348362
0.00351879
0.00355214
0.00358364
0.00361326
0.00364098
0.00366678
0.00369067
0.00371263
0.00373268
0.00375082
0.00376708
0.00378146
0.00379401
0.00380476
0.00381375
0.00382103
0.00382666
0.0038307
0.00383321
0.00383427
0.00383396
0.00383236
0.00382956
0.00382564
0.00382068
0.00381478
0.00380801
0.00380045
0.0037922
0.00378342
0.00377339
0.00376076
-3.50665e-05
-4.83257e-05
-5.75887e-05
-6.44591e-05
-6.98599e-05
-7.37521e-05
-7.6142e-05
-7.70993e-05
-7.66837e-05
-7.49432e-05
-7.19197e-05
-6.76491e-05
-6.21615e-05
-5.54817e-05
-4.76296e-05
-3.8621e-05
-2.84681e-05
-1.71799e-05
-4.76284e-06
8.77896e-06
2.34431e-05
3.92288e-05
5.61364e-05
7.41671e-05
9.33225e-05
0.000113605
0.000135017
0.000157561
0.000181239
0.000206054
0.000232009
0.000259105
0.000287345
0.000316728
0.000347257
0.000378929
0.000411746
0.000445706
0.000480807
0.000517045
0.000554416
0.000592916
0.000632538
0.000673275
0.000715117
0.000758054
0.000802074
0.000847164
0.000893308
0.000940488
0.000988687
0.00103788
0.00108805
0.00113917
0.0011912
0.00124413
0.00129792
0.00135253
0.00140792
0.00146407
0.00152091
0.00157842
0.00163654
0.00169521
0.0017544
0.00181404
0.00187407
0.00193444
0.00199508
0.00205592
0.00211689
0.00217794
0.00223897
0.00229992
0.0023607
0.00242125
0.00248148
0.0025413
0.00260064
0.00265941
0.00271752
0.0027749
0.00283145
0.0028871
0.00294175
0.00299534
0.00304777
0.00309896
0.00314886
0.00319737
0.00324442
0.00328996
0.00333392
0.00337624
0.00341686
0.00345574
0.00349282
0.00352807
0.00356146
0.00359295
0.00362252
0.00365016
0.00367584
0.00369957
0.00372135
0.00374117
0.00375906
0.00377503
0.00378911
0.00380133
0.00381173
0.00382036
0.00382727
0.00383251
0.00383616
0.00383828
0.00383895
0.00383825
0.00383627
0.00383309
0.00382881
0.00382352
0.0038173
0.00381024
0.0038024
0.00379392
0.00378495
0.00377477
0.00376203
-5.06436e-05
-6.41082e-05
-7.35302e-05
-8.05334e-05
-8.60525e-05
-9.00473e-05
-9.2524e-05
-9.35536e-05
-9.31974e-05
-9.15052e-05
-8.85204e-05
-8.42804e-05
-7.88168e-05
-7.21555e-05
-6.43175e-05
-5.53192e-05
-4.51737e-05
-3.38905e-05
-2.14763e-05
-7.93555e-06
6.72933e-06
2.25176e-05
3.94298e-05
5.74672e-05
7.66318e-05
9.69263e-05
0.000118353
0.000140916
0.000164618
0.000189462
0.000215451
0.000242588
0.000270875
0.000300314
0.000330906
0.000362651
0.000395552
0.000429606
0.000464812
0.000501168
0.000538671
0.000577317
0.000617099
0.000658011
0.000700045
0.000743191
0.000787437
0.00083277
0.000879176
0.000926638
0.000975137
0.00102465
0.00107516
0.00112664
0.00117906
0.00123239
0.00128659
0.00134165
0.00139751
0.00145413
0.00151149
0.00156952
0.00162818
0.00168742
0.00174719
0.00180743
0.00186808
0.00192908
0.00199036
0.00205186
0.00211351
0.00217523
0.00223695
0.00229859
0.00236008
0.00242132
0.00248224
0.00254276
0.00260278
0.00266223
0.002721
0.00277903
0.00283621
0.00289246
0.0029477
0.00300184
0.0030548
0.0031065
0.00315685
0.00320578
0.00325323
0.00329912
0.00334338
0.00338596
0.0034268
0.00346586
0.00350307
0.00353841
0.00357183
0.00360332
0.00363284
0.00366038
0.00368593
0.00370948
0.00373105
0.00375062
0.00376823
0.00378389
0.00379763
0.00380949
0.00381951
0.00382773
0.00383423
0.00383905
0.00384228
0.00384397
0.00384422
0.00384311
0.00384072
0.00383716
0.00383251
0.00382686
0.00382032
0.00381296
0.00380486
0.00379615
0.003787
0.0037767
0.00376388
-6.8063e-05
-8.17053e-05
-9.12664e-05
-9.83869e-05
-0.000104011
-0.000108099
-0.000110655
-0.000111751
-0.000111451
-0.000109805
-0.000106859
-0.00010265
-9.72115e-05
-9.05702e-05
-8.2748e-05
-7.37621e-05
-6.36258e-05
-5.23492e-05
-3.99393e-05
-2.64006e-05
-1.17355e-05
4.05547e-06
2.09728e-05
3.90182e-05
5.81939e-05
7.85029e-05
9.99487e-05
0.000122535
0.000146265
0.000171143
0.000197173
0.000224358
0.000252701
0.000282204
0.00031287
0.000344701
0.000377697
0.000411859
0.000447186
0.000483677
0.000521329
0.000560138
0.000600101
0.00064121
0.000683459
0.000726837
0.000771335
0.000816939
0.000863636
0.00091141
0.000960241
0.00101011
0.00106099
0.00111287
0.00116571
0.00121948
0.00127415
0.00132969
0.00138607
0.00144323
0.00150113
0.00155974
0.001619
0.00167887
0.00173928
0.00180018
0.00186151
0.0019232
0.0019852
0.00204742
0.00210981
0.00217228
0.00223475
0.00229716
0.00235941
0.00242142
0.00248311
0.00254439
0.00260516
0.00266535
0.00272486
0.00278359
0.00284147
0.00289839
0.00295427
0.00300903
0.00306257
0.00311481
0.00316567
0.00321508
0.00326295
0.00330922
0.00335382
0.00339669
0.00343777
0.00347702
0.00351437
0.0035498
0.00358327
0.00361474
0.00364421
0.00367165
0.00369704
0.0037204
0.00374173
0.00376103
0.00377832