/*--------------------------------*- C++ -*----------------------------------*\
| =========                 |                                                 |
| \\      /  F ield         | OpenFOAM: The Open Source CFD Toolbox           |
|  \\    /   O peration     | Version:  2112                                  |
|   \\  /    A nd           | Website:  www.openfoam.com                      |
|    \\/     M anipulation  |                                                 |
\*---------------------------------------------------------------------------*/
FoamFile
{
    version     2.0;
    format      ascii;
    arch        "LSB;label=32;scalar=64";
    class       surfaceScalarField;
    location    "0.3";
    object      phi;
}
// * * * * * * * * * * * * * * * * * * * * * * * * * * * * * * * * * * * * * //

dimensions      [0 3 -1 0 0 0 0];

oriented        oriented;

internalField   nonuniform List<scalar> 
33024
(
2.7958e-11
-2.79172e-11
3.94358e-11
-1.14793e-11
9.41497e-12
3.00179e-11
-6.5933e-11
7.53458e-11
-1.84439e-10
1.18504e-10
-3.40999e-10
1.56558e-10
-5.29877e-10
1.88878e-10
-7.45613e-10
2.15736e-10
-9.83319e-10
2.37706e-10
-1.23874e-09
2.55418e-10
-1.50821e-09
2.69474e-10
-1.78864e-09
2.8043e-10
-2.07742e-09
2.88786e-10
-2.37241e-09
2.94986e-10
-2.67183e-09
2.99418e-10
-2.97424e-09
3.02412e-10
-3.27849e-09
3.04251e-10
-3.58367e-09
3.05174e-10
-3.88905e-09
3.05377e-10
-4.19407e-09
3.05022e-10
-4.49831e-09
3.04238e-10
-4.80143e-09
3.03124e-10
-5.10319e-09
3.01758e-10
-5.40339e-09
3.00197e-10
-5.70187e-09
2.98483e-10
-5.99851e-09
2.96641e-10
-6.2932e-09
2.94688e-10
-6.58583e-09
2.92632e-10
-6.87631e-09
2.90475e-10
-7.16452e-09
2.88214e-10
-7.45037e-09
2.85845e-10
-7.73373e-09
2.8336e-10
-8.01448e-09
2.80749e-10
-8.29248e-09
2.78002e-10
-8.56758e-09
2.75107e-10
-8.83964e-09
2.72053e-10
-9.10847e-09
2.68832e-10
-9.37391e-09
2.65434e-10
-9.63575e-09
2.61846e-10
-9.89381e-09
2.5806e-10
-1.01479e-08
2.54065e-10
-1.03977e-08
2.49852e-10
-1.06431e-08
2.45411e-10
-1.08839e-08
2.40733e-10
-1.11197e-08
2.35811e-10
-1.13503e-08
2.30635e-10
-1.15755e-08
2.25197e-10
-1.1795e-08
2.1949e-10
-1.20085e-08
2.13506e-10
-1.22157e-08
2.07237e-10
-1.24164e-08
2.00677e-10
-1.26102e-08
1.93821e-10
-1.27969e-08
1.86662e-10
-1.29761e-08
1.79196e-10
-1.31475e-08
1.71418e-10
-1.33108e-08
1.63325e-10
-1.34658e-08
1.54913e-10
-1.36119e-08
1.46179e-10
-1.37491e-08
1.37123e-10
-1.38768e-08
1.27745e-10
-1.39948e-08
1.18044e-10
-1.41029e-08
1.08023e-10
-1.42006e-08
9.76845e-11
-1.42876e-08
8.70328e-11
-1.43637e-08
7.6073e-11
-1.44285e-08
6.48116e-11
-1.44817e-08
5.32564e-11
-1.45231e-08
4.14165e-11
-1.45524e-08
2.93028e-11
-1.45694e-08
1.69273e-11
-1.45737e-08
4.30422e-12
-1.45651e-08
-8.55423e-12
-1.45435e-08
-2.16285e-11
-1.45086e-08
-3.49029e-11
-1.44602e-08
-4.83577e-11
-1.43983e-08
-6.19719e-11
-1.43225e-08
-7.57235e-11
-1.42329e-08
-8.95897e-11
-1.41294e-08
-1.03546e-10
-1.40118e-08
-1.17568e-10
-1.38802e-08
-1.31628e-10
-1.37345e-08
-1.45699e-10
-1.35748e-08
-1.59753e-10
-1.3401e-08
-1.73761e-10
-1.32133e-08
-1.87695e-10
-1.30118e-08
-2.01523e-10
-1.27966e-08
-2.15218e-10
-1.25678e-08
-2.28747e-10
-1.23257e-08
-2.42082e-10
-1.20705e-08
-2.55194e-10
-1.18025e-08
-2.68051e-10
-1.15218e-08
-2.80627e-10
-1.1229e-08
-2.92892e-10
-1.09241e-08
-3.04817e-10
-1.06078e-08
-3.16375e-10
-1.02802e-08
-3.27537e-10
-9.94195e-09
-3.38275e-10
-9.59339e-09
-3.4856e-10
-9.23503e-09
-3.58361e-10
-8.86739e-09
-3.67645e-10
-8.49101e-09
-3.76378e-10
-8.10649e-09
-3.84519e-10
-7.71447e-09
-3.92024e-10
-7.31563e-09
-3.98839e-10
-6.91072e-09
-4.04905e-10
-6.50057e-09
-4.1015e-10
-6.08608e-09
-4.14489e-10
-5.66826e-09
-4.17823e-10
-5.24822e-09
-4.20035e-10
-4.82724e-09
-4.20988e-10
-4.40672e-09
-4.20522e-10
-3.98826e-09
-4.18453e-10
-3.57369e-09
-4.14569e-10
-3.16507e-09
-4.08629e-10
-2.76471e-09
-4.0036e-10
-2.37525e-09
-3.89457e-10
-1.99967e-09
-3.75577e-10
-1.64133e-09
-3.58342e-10
-1.30398e-09
-3.37342e-10
-9.91848e-10
-3.12137e-10
-7.09574e-10
-2.82274e-10
-4.62254e-10
-2.47319e-10
-2.55329e-10
-2.06925e-10
-9.43462e-11
-1.60985e-10
1.56903e-11
-1.10037e-10
7.18597e-11
-5.61687e-11
7.58282e-11
-3.96861e-12
3.92416e-11
3.65859e-11
3.92414e-11
1.16995e-11
-3.96182e-11
-3.61882e-11
3.64018e-11
-1.76608e-10
1.70433e-10
-4.19941e-10
3.18675e-10
-7.63655e-10
4.62218e-10
-1.19949e-09
5.92391e-10
-1.71656e-09
7.05948e-10
-2.30335e-09
8.02529e-10
-2.94876e-09
8.83122e-10
-3.64261e-09
9.49259e-10
-4.37578e-09
1.00264e-09
-5.14032e-09
1.04497e-09
-5.92939e-09
1.07786e-09
-6.73718e-09
1.10277e-09
-7.5588e-09
1.12104e-09
-8.39023e-09
1.13383e-09
-9.22813e-09
1.14215e-09
-1.00698e-08
1.14687e-09
-1.09131e-08
1.1487e-09
-1.17564e-08
1.14826e-09
-1.25982e-08
1.14602e-09
-1.34374e-08
1.14239e-09
-1.42733e-08
1.13765e-09
-1.51052e-08
1.13205e-09
-1.59325e-08
1.12575e-09
-1.67547e-08
1.11887e-09
-1.75715e-08
1.11148e-09
-1.83825e-08
1.10363e-09
-1.91874e-08
1.09534e-09
-1.99858e-08
1.08661e-09
-2.07773e-08
1.07743e-09
-2.15617e-08
1.06778e-09
-2.23386e-08
1.05762e-09
-2.31076e-08
1.04694e-09
-2.38681e-08
1.03568e-09
-2.46199e-08
1.02382e-09
-2.53624e-08
1.01133e-09
-2.60951e-08
9.98157e-10
-2.68175e-08
9.84276e-10
-2.75291e-08
9.69649e-10
-2.82293e-08
9.54242e-10
-2.89175e-08
9.38019e-10
-2.9593e-08
9.2095e-10
-3.02553e-08
9.03001e-10
-3.09036e-08
8.84142e-10
-3.15373e-08
8.64344e-10
-3.21557e-08
8.43576e-10
-3.2758e-08
8.21813e-10
-3.33435e-08
7.99026e-10
-3.39115e-08
7.75192e-10
-3.44611e-08
7.50287e-10
-3.49916e-08
7.24291e-10
-3.55021e-08
6.97182e-10
-3.59919e-08
6.68945e-10
-3.646e-08
6.39563e-10
-3.69057e-08
6.09024e-10
-3.73281e-08
5.77317e-10
-3.77263e-08
5.44435e-10
-3.80996e-08
5.10375e-10
-3.8447e-08
4.75136e-10
-3.87677e-08
4.38723e-10
-3.90608e-08
4.01141e-10
-3.93255e-08
3.62402e-10
-3.9561e-08
3.22522e-10
-3.97664e-08
2.8152e-10
-3.9941e-08
2.39421e-10
-4.0084e-08
1.96255e-10
-4.01947e-08
1.52054e-10
-4.02722e-08
1.06858e-10
-4.0316e-08
6.07113e-11
-4.03254e-08
1.36621e-11
-4.02997e-08
-3.42341e-11
-4.02384e-08
-8.29185e-11
-4.0141e-08
-1.32326e-10
-4.0007e-08
-1.82386e-10
-3.98359e-08
-2.33026e-10
-3.96275e-08
-2.84166e-10
-3.93813e-08
-3.35721e-10
-3.90973e-08
-3.87605e-10
-3.87751e-08
-4.39726e-10
-3.84148e-08
-4.91987e-10
-3.80162e-08
-5.44291e-10
-3.75794e-08
-5.96536e-10
-3.71045e-08
-6.48618e-10
-3.65918e-08
-7.00431e-10
-3.60414e-08
-7.51869e-10
-3.54538e-08
-8.02823e-10
-3.48294e-08
-8.53185e-10
-3.41686e-08
-9.02846e-10
-3.34721e-08
-9.517e-10
-3.27405e-08
-9.99639e-10
-3.19746e-08
-1.04656e-09
-3.11751e-08
-1.09235e-09
-3.03431e-08
-1.1369e-09
-2.94793e-08
-1.18013e-09
-2.85849e-08
-1.2219e-09
-2.76611e-08
-1.26213e-09
-2.67089e-08
-1.3007e-09
-2.57298e-08
-1.33749e-09
-2.47251e-08
-1.37237e-09
-2.36963e-08
-1.40521e-09
-2.26449e-08
-1.43585e-09
-2.15729e-08
-1.46411e-09
-2.04819e-08
-1.4898e-09
-1.93741e-08
-1.51267e-09
-1.82518e-08
-1.53246e-09
-1.71175e-08
-1.54883e-09
-1.59739e-08
-1.5614e-09
-1.48242e-08
-1.56974e-09
-1.36719e-08
-1.57332e-09
-1.25208e-08
-1.57155e-09
-1.13756e-08
-1.56374e-09
-1.0241e-08
-1.54912e-09
-9.12282e-09
-1.52681e-09
-8.02734e-09
-1.49583e-09
-6.9617e-09
-1.4551e-09
-5.93385e-09
-1.40343e-09
-4.95263e-09
-1.33956e-09
-4.02782e-09
-1.26215e-09
-3.17009e-09
-1.16987e-09
-2.39091e-09
-1.06146e-09
-1.70232e-09
-9.35914e-10
-1.11642e-09
-7.92815e-10
-6.44531e-10
-6.3288e-10
-2.95457e-10
-4.59113e-10
-7.28731e-11
-2.78753e-10
2.96068e-11
-1.06449e-10
3.62772e-11
2.99153e-11
7.55194e-11
-3.0013e-11
-9.60805e-12
-1.71001e-10
1.77386e-10
-4.48998e-10
4.48425e-10
-8.71661e-10
7.41335e-10
-1.4356e-09
1.02615e-09
-2.1307e-09
1.2875e-09
-2.94338e-09
1.51862e-09
-3.8587e-09
1.71785e-09
-4.86175e-09
1.88617e-09
-5.9384e-09
2.02591e-09
-7.07572e-09
2.13996e-09
-8.26216e-09
2.23142e-09
-9.48761e-09
2.30331e-09
-1.07433e-08
2.35848e-09
-1.20218e-08
2.39957e-09
-1.33169e-08
2.4289e-09
-1.46233e-08
2.44856e-09
-1.59368e-08
2.46031e-09
-1.72538e-08
2.46569e-09
-1.85715e-08
2.46595e-09
-1.98876e-08
2.46215e-09
-2.12003e-08
2.45511e-09
-2.25082e-08
2.44552e-09
-2.381e-08
2.43387e-09
-2.51048e-08
2.42054e-09
-2.63917e-08
2.40581e-09
-2.76701e-08
2.38986e-09
-2.89393e-08
2.37281e-09
-3.01986e-08
2.35471e-09
-3.14476e-08
2.33559e-09
-3.26856e-08
2.31543e-09
-3.39121e-08
2.29421e-09
-3.51263e-08
2.27187e-09
-3.63277e-08
2.24835e-09
-3.75156e-08
2.22359e-09
-3.86893e-08
2.19751e-09
-3.9848e-08
2.17006e-09
-4.0991e-08
2.14114e-09
-4.21174e-08
2.1107e-09
-4.32264e-08
2.07866e-09
-4.43172e-08
2.04495e-09
-4.53886e-08
2.0095e-09
-4.64399e-08
1.97224e-09
-4.747e-08
1.93311e-09
-4.84779e-08
1.89205e-09
-4.94626e-08
1.849e-09
-5.04229e-08
1.80388e-09
-5.13578e-08
1.75666e-09
-5.2266e-08
1.70727e-09
-5.31465e-08
1.65567e-09
-5.3998e-08
1.60181e-09
-5.48194e-08
1.54564e-09
-5.56093e-08
1.48712e-09
-5.63666e-08
1.42623e-09
-5.70899e-08
1.36292e-09
-5.77781e-08
1.29718e-09
-5.84298e-08
1.22899e-09
-5.90437e-08
1.15832e-09
-5.96185e-08
1.08519e-09
-6.01529e-08
1.00958e-09
-6.06457e-08
9.31501e-10
-6.10955e-08
8.50978e-10
-6.15012e-08
7.68032e-10
-6.18613e-08
6.82697e-10
-6.21748e-08
5.95015e-10
-6.24404e-08
5.05039e-10
-6.2657e-08
4.12832e-10
-6.28234e-08
3.18465e-10
-6.29386e-08
2.2202e-10
-6.30015e-08
1.23592e-10
-6.30111e-08
2.32834e-11
-6.29665e-08
-7.87914e-11
-6.28669e-08
-1.82507e-10
-6.27115e-08
-2.87728e-10
-6.24996e-08
-3.94308e-10
-6.22306e-08
-5.02091e-10
-6.19038e-08
-6.10912e-10
-6.15189e-08
-7.20597e-10
-6.10756e-08
-8.30962e-10
-6.05735e-08
-9.41816e-10
-6.00125e-08
-1.05296e-09
-5.93926e-08
-1.16419e-09
-5.87139e-08
-1.27528e-09
-5.79764e-08
-1.38604e-09
-5.71806e-08
-1.49623e-09
-5.63269e-08
-1.60563e-09
-5.54157e-08
-1.71403e-09
-5.44477e-08
-1.82118e-09
-5.34237e-08
-1.92687e-09
-5.23445e-08
-2.03087e-09
-5.12112e-08
-2.13295e-09
-5.00248e-08
-2.23289e-09
-4.87867e-08
-2.33047e-09
-4.74982e-08
-2.42547e-09
-4.61606e-08
-2.51766e-09
-4.47757e-08
-2.60682e-09
-4.33451e-08
-2.69271e-09
-4.18707e-08
-2.77509e-09
-4.03545e-08
-2.85372e-09
-3.87986e-08
-2.9283e-09
-3.72052e-08
-2.99855e-09
-3.5577e-08
-3.06413e-09
-3.39164e-08
-3.12464e-09
-3.22266e-08
-3.17965e-09
-3.05106e-08
-3.22864e-09
-2.87721e-08
-3.271e-09
-2.70149e-08
-3.30605e-09
-2.52433e-08
-3.33295e-09
-2.34623e-08
-3.35076e-09
-2.16772e-08
-3.35839e-09
-1.98942e-08
-3.35455e-09
-1.81201e-08
-3.33783e-09
-1.63626e-08
-3.30659e-09
-1.46304e-08
-3.25901e-09
-1.29332e-08
-3.1931e-09
-1.12816e-08
-3.10664e-09
-9.68777e-09
-2.9973e-09
-8.16474e-09
-2.86259e-09
-6.72688e-09
-2.70001e-09
-5.3896e-09
-2.50714e-09
-4.16915e-09
-2.2819e-09
-3.08215e-09
-2.02292e-09
-2.14477e-09
-1.73019e-09
-1.37149e-09
-1.40616e-09
-7.73035e-10
-1.05757e-09
-3.53249e-10
-6.9854e-10
-1.04832e-10
-3.54865e-10
-3.78777e-12
-7.11284e-11
7.17322e-11
-7.61116e-11
6.65003e-11
-3.22125e-10
4.23397e-10
-7.47619e-10
8.73918e-10
-1.35325e-09
1.34697e-09
-2.1319e-09
1.8048e-09
-3.07104e-09
2.22663e-09
-4.15493e-09
2.60252e-09
-5.36641e-09
2.92932e-09
-6.6881e-09
3.20786e-09
-8.10329e-09
3.4411e-09
-9.59643e-09
3.63311e-09
-1.11534e-08
3.7884e-09
-1.27617e-08
3.91158e-09
-1.44103e-08
4.00705e-09
-1.60896e-08
4.07895e-09
-1.77918e-08
4.13102e-09
-1.95098e-08
4.1666e-09
-2.12381e-08
4.18861e-09
-2.2972e-08
4.19955e-09
-2.47076e-08
4.20154e-09
-2.64418e-08
4.19633e-09
-2.8172e-08
4.18535e-09
-2.98962e-08
4.16972e-09
-3.16127e-08
4.15034e-09
-3.332e-08
4.12788e-09
-3.5017e-08
4.1028e-09
-3.67026e-08
4.07547e-09
-3.83759e-08
4.04609e-09
-4.0036e-08
4.01479e-09
-4.1682e-08
3.98163e-09
-4.33132e-08
3.94661e-09
-4.49287e-08
3.90969e-09
-4.65276e-08
3.8708e-09
-4.81091e-08
3.82985e-09
-4.96723e-08
3.78675e-09
-5.12161e-08
3.74138e-09
-5.27397e-08
3.69363e-09
-5.4242e-08
3.64339e-09
-5.57218e-08
3.59055e-09
-5.71781e-08
3.53498e-09
-5.86097e-08
3.47657e-09
-6.00155e-08
3.41521e-09
-6.1394e-08
3.35079e-09
-6.27441e-08
3.28322e-09
-6.40644e-08
3.21237e-09
-6.53536e-08
3.13816e-09
-6.66102e-08
3.06048e-09
-6.78328e-08
2.97925e-09
-6.90199e-08
2.89438e-09
-7.017e-08
2.80578e-09
-7.12816e-08
2.71339e-09
-7.23531e-08
2.61713e-09
-7.33829e-08
2.51694e-09
-7.43694e-08
2.41275e-09
-7.5311e-08
2.30454e-09
-7.62061e-08
2.19224e-09
-7.70529e-08
2.07584e-09
-7.78499e-08
1.95532e-09
-7.85954e-08
1.83067e-09
-7.92877e-08
1.70189e-09
-7.99252e-08
1.569e-09
-8.05063e-08
1.43203e-09
-8.10293e-08
1.29103e-09
-8.14926e-08
1.14605e-09
-8.18948e-08
9.97162e-10
-8.22342e-08
8.44461e-10
-8.25094e-08
6.88053e-10
-8.2719e-08
5.28057e-10
-8.28616e-08
3.64615e-10
-8.29359e-08
1.97883e-10
-8.29406e-08
2.80355e-11
-8.28747e-08
-1.44738e-10
-8.2737e-08
-3.20225e-10
-8.25265e-08
-4.98201e-10
-8.22424e-08
-6.78421e-10
-8.18839e-08
-8.60626e-10
-8.14502e-08
-1.04454e-09
-8.0941e-08
-1.22987e-09
-8.03556e-08
-1.41632e-09
-7.96939e-08
-1.60356e-09
-7.89556e-08
-1.79126e-09
-7.81406e-08
-1.97909e-09
-7.72492e-08
-2.16669e-09
-7.62816e-08
-2.35369e-09
-7.52381e-08
-2.53975e-09
-7.41192e-08
-2.72448e-09
-7.29258e-08
-2.90751e-09
-7.16585e-08
-3.08846e-09
-7.03184e-08
-3.26697e-09
-6.89066e-08
-3.44264e-09
-6.74244e-08
-3.61511e-09
-6.58733e-08
-3.78401e-09
-6.42548e-08
-3.94895e-09
-6.25707e-08
-4.10957e-09
-6.08229e-08
-4.26548e-09
-5.90134e-08
-4.41631e-09
-5.71445e-08
-4.56166e-09
-5.52185e-08
-4.70111e-09
-5.32379e-08
-4.83424e-09
-5.12057e-08
-4.96057e-09
-4.91246e-08
-5.07958e-09
-4.69981e-08
-5.19068e-09
-4.48295e-08
-5.29322e-09
-4.26227e-08
-5.38643e-09
-4.03819e-08
-5.46943e-09
-3.81117e-08
-5.54119e-09
-3.58173e-08
-5.60052e-09
-3.35042e-08
-5.64602e-09
-3.11789e-08
-5.6761e-09
-2.88483e-08
-5.68891e-09
-2.65206e-08
-5.68233e-09
-2.42044e-08
-5.65398e-09
-2.19098e-08
-5.60117e-09
-1.96479e-08
-5.52093e-09
-1.7431e-08
-5.40998e-09
-1.52728e-08
-5.26483e-09
-1.31884e-08
-5.08173e-09
-1.11942e-08
-4.85685e-09
-9.30776e-09
-4.5864e-09
-7.54802e-09
-4.26688e-09
-5.93444e-09
-3.89548e-09
-4.48667e-09
-3.47069e-09
-3.22353e-09
-2.99333e-09
-2.16164e-09
-2.46805e-09
-1.31346e-09
-1.90576e-09
-6.84644e-10
-1.32736e-09
-2.70807e-10
-7.68702e-10
-5.42078e-11
-2.87726e-10
1.75242e-11
-1.20846e-10
1.87343e-10
-4.71262e-10
7.73812e-10
-1.04364e-09
1.44629e-09
-1.82865e-09
2.13199e-09
-2.81345e-09
2.7896e-09
-3.98203e-09
3.39521e-09
-5.3163e-09
3.93679e-09
-6.79717e-09
4.41019e-09
-8.40546e-09
4.81615e-09
-1.01227e-08
5.1583e-09
-1.19314e-08
5.44185e-09
-1.38158e-08
5.67277e-09
-1.57614e-08
5.85724e-09
-1.77557e-08
6.00136e-09
-1.97876e-08
6.11085e-09
-2.18476e-08
6.191e-09
-2.39276e-08
6.24656e-09
-2.60207e-08
6.28173e-09
-2.81213e-08
6.30014e-09
-3.02246e-08
6.30487e-09
-3.23268e-08
6.29852e-09
-3.44246e-08
6.28318e-09
-3.65155e-08
6.26057e-09
-3.85972e-08
6.23202e-09
-4.06678e-08
6.19853e-09
-4.27259e-08
6.16088e-09
-4.477e-08
6.11959e-09
-4.67989e-08
6.07501e-09
-4.88115e-08
6.02738e-09
-5.08067e-08
5.9768e-09
-5.27834e-08
5.92328e-09
-5.47405e-08
5.86681e-09
-5.6677e-08
5.80729e-09
-5.85917e-08
5.74462e-09
-6.04836e-08
5.67865e-09
-6.23515e-08
5.60924e-09
-6.41941e-08
5.53624e-09
-6.60102e-08
5.45947e-09
-6.77984e-08
5.37879e-09
-6.95575e-08
5.29401e-09
-7.12859e-08
5.20499e-09
-7.29822e-08
5.11156e-09
-7.4645e-08
5.01357e-09
-7.62727e-08
4.91086e-09
-7.78636e-08
4.80329e-09
-7.94161e-08
4.6907e-09
-8.09286e-08
4.57298e-09
-8.23994e-08
4.44998e-09
-8.38266e-08
4.32157e-09
-8.52084e-08
4.18766e-09
-8.65431e-08
4.04811e-09
-8.78289e-08
3.90284e-09
-8.90637e-08
3.75176e-09
-9.02457e-08
3.59478e-09
-9.1373e-08
3.43184e-09
-9.24437e-08
3.26289e-09
-9.34557e-08
3.08789e-09
-9.44072e-08
2.90681e-09
-9.52962e-08
2.71965e-09
-9.61207e-08
2.52641e-09
-9.68788e-08
2.32713e-09
-9.75686e-08
2.12185e-09
-9.81882e-08
1.91064e-09
-9.87358e-08
1.69359e-09
-9.92094e-08
1.47082e-09
-9.96074e-08
1.24245e-09
-9.9928e-08
1.00864e-09
-1.0017e-07
7.69589e-10
-1.0033e-07
5.2549e-10
-1.00409e-07
2.76579e-10
-1.00404e-07
2.31165e-11
-1.00314e-07
-2.34615e-10
-1.00138e-07
-4.96305e-10
-9.98748e-08
-7.61619e-10
-9.9523e-08
-1.0302e-09
-9.9082e-08
-1.30166e-09
-9.8551e-08
-1.5756e-09
-9.79292e-08
-1.85158e-09
-9.72164e-08
-2.12916e-09
-9.64121e-08
-2.40788e-09
-9.55161e-08
-2.68724e-09
-9.45285e-08
-2.96674e-09
-9.34493e-08
-3.24587e-09
-9.22789e-08
-3.5241e-09
-9.10177e-08
-3.80089e-09
-8.96665e-08
-4.07571e-09
-8.8226e-08
-4.34799e-09
-8.66973e-08
-4.61719e-09
-8.50815e-08
-4.88276e-09
-8.338e-08
-5.14414e-09
-8.15943e-08
-5.40077e-09
-7.97262e-08
-5.65211e-09
-7.77776e-08
-5.89759e-09
-7.57505e-08
-6.13668e-09
-7.36472e-08
-6.3688e-09
-7.14701e-08
-6.59339e-09
-6.92219e-08
-6.80985e-09
-6.69054e-08
-7.01757e-09
-6.45238e-08
-7.21589e-09
-6.20803e-08
-7.4041e-09
-5.95784e-08
-7.58142e-09
-5.70222e-08
-7.74696e-09
-5.44157e-08
-7.89972e-09
-5.17635e-08
-8.03856e-09
-4.90708e-08
-8.16215e-09
-4.6343e-08
-8.26896e-09
-4.35863e-08
-8.3572e-09
-4.08076e-08
-8.42482e-09
-3.80142e-08
-8.46942e-09
-3.52148e-08
-8.4883e-09
-3.24188e-08
-8.47835e-09
-2.96367e-08
-8.4361e-09
-2.68802e-08
-8.35764e-09
-2.41625e-08
-8.23869e-09
-2.14979e-08
-8.0746e-09
-1.89023e-08
-7.86037e-09
-1.63932e-08
-7.59083e-09
-1.39894e-08
-7.26069e-09
-1.17109e-08
-6.86486e-09
-9.57899e-09
-6.3988e-09
-7.6154e-09
-5.85907e-09
-5.84188e-09
-5.24421e-09
-4.27924e-09
-4.55598e-09
-2.94603e-09
-3.80126e-09
-1.85697e-09
-2.99482e-09
-1.02105e-09
-2.16328e-09
-4.39571e-10
-1.35018e-09
-1.04687e-10
-6.2261e-10
-8.71632e-11
-1.61367e-10
3.48709e-10
-6.09988e-10
1.22243e-09
-1.3221e-09
2.1584e-09
-2.27768e-09
3.08757e-09
-3.45704e-09
3.96895e-09
-4.83984e-09
4.77801e-09
-6.40518e-09
5.50213e-09
-8.13195e-09
6.13695e-09
-9.99938e-09
6.68358e-09
-1.19875e-08
7.14646e-09
-1.40777e-08
7.53203e-09
-1.62527e-08
7.84773e-09
-1.84968e-08
8.1014e-09
-2.07963e-08
8.30081e-09
-2.31388e-08
8.45337e-09
-2.55138e-08
8.56598e-09
-2.79121e-08
8.64489e-09
-3.03261e-08
8.69567e-09
-3.27491e-08
8.72316e-09
-3.51757e-08
8.73152e-09
-3.76015e-08
8.72425e-09
-4.00225e-08
8.70422e-09
-4.24357e-08
8.67376e-09
-4.48384e-08
8.63473e-09
-4.72284e-08
8.58854e-09
-4.96038e-08
8.53626e-09
-5.19629e-08
8.47865e-09
-5.43041e-08
8.41625e-09
-5.66261e-08
8.34939e-09
-5.89275e-08
8.27824e-09
-6.12071e-08
8.20288e-09
-6.34636e-08
8.12327e-09
-6.56956e-08
8.03933e-09
-6.79019e-08
7.95093e-09
-7.00812e-08
7.85789e-09
-7.2232e-08
7.76004e-09
-7.43529e-08
7.65716e-09
-7.64425e-08
7.54906e-09
-7.84992e-08
7.4355e-09
-8.05215e-08
7.31629e-09
-8.25077e-08
7.19121e-09
-8.44562e-08
7.06004e-09
-8.63652e-08
6.92259e-09
-8.8233e-08
6.77864e-09
-9.00577e-08
6.628e-09
-9.18375e-08
6.47049e-09
-9.35704e-08
6.30591e-09
-9.52545e-08
6.1341e-09
-9.68879e-08
5.9549e-09
-9.84683e-08
5.76814e-09
-9.99939e-08
5.57369e-09
-1.01462e-07
5.37141e-09
-1.02872e-07
5.16119e-09
-1.0422e-07
4.94292e-09
-1.05505e-07
4.71652e-09
-1.06724e-07
4.48193e-09
-1.07875e-07
4.23909e-09
-1.08956e-07
3.98798e-09
-1.09965e-07
3.72859e-09
-1.109e-07
3.46094e-09
-1.11758e-07
3.18508e-09
-1.12537e-07
2.90107e-09
-1.13235e-07
2.60901e-09
-1.13851e-07
2.30902e-09
-1.14381e-07
2.00127e-09
-1.14825e-07
1.68595e-09
-1.15179e-07
1.36326e-09
-1.15443e-07
1.03347e-09
-1.15614e-07
6.96864e-10
-1.15692e-07
3.53756e-10
-1.15673e-07
4.50543e-12
-1.15557e-07
-3.50502e-10
-1.15343e-07
-7.10839e-10
-1.15028e-07
-1.07605e-09
-1.14613e-07
-1.44565e-09
-1.14095e-07
-1.8191e-09
-1.13475e-07
-2.19587e-09
-1.12751e-07
-2.57536e-09
-1.11923e-07
-2.95696e-09
-1.10991e-07
-3.34004e-09
-1.09955e-07
-3.72393e-09
-1.08813e-07
-4.10797e-09
-1.07568e-07
-4.49143e-09
-1.06218e-07
-4.87362e-09
-1.04765e-07
-5.25379e-09
-1.0321e-07
-5.63122e-09
-1.01553e-07
-6.00515e-09
-9.9795e-08
-6.37484e-09
-9.79383e-08
-6.73952e-09
-9.59839e-08
-7.09846e-09
-9.39338e-08
-7.45088e-09
-9.17899e-08
-7.79605e-09
-8.95543e-08
-8.1332e-09
-8.72294e-08
-8.46157e-09
-8.48178e-08
-8.7804e-09
-8.23223e-08
-9.0889e-09
-7.97459e-08
-9.38625e-09
-7.70918e-08
-9.67161e-09
-7.43637e-08
-9.94405e-09
-7.15652e-08
-1.02026e-08
-6.87004e-08
-1.04462e-08
-6.57738e-08
-1.06736e-08
-6.27902e-08
-1.08833e-08
-5.97548e-08
-1.10739e-08
-5.66734e-08
-1.12435e-08
-5.35524e-08
-1.139e-08
-5.03987e-08
-1.15109e-08
-4.722e-08
-1.16035e-08
-4.4025e-08
-1.16644e-08
-4.08233e-08
-1.169e-08
-3.76255e-08
-1.16761e-08
-3.44435e-08
-1.16181e-08
-3.12904e-08
-1.15107e-08
-2.81809e-08
-1.13482e-08
-2.51309e-08
-1.11246e-08
-2.21581e-08
-1.08332e-08
-1.92816e-08
-1.04674e-08
-1.65219e-08
-1.00204e-08
-1.39009e-08
-9.48587e-09
-1.14414e-08
-8.85825e-09
-9.16695e-09
-8.13352e-09
-7.10092e-09
-7.31024e-09
-5.26587e-09
-6.39103e-09
-3.68246e-09
-5.38467e-09
-2.3683e-09
-4.30897e-09
-1.33685e-09
-3.19473e-09
-5.96482e-10
-2.09055e-09
-1.50555e-10
-1.06854e-09
-2.37717e-10
-1.97016e-10
5.45725e-10
-7.34984e-10
1.7604e-09
-1.57613e-09
2.99955e-09
-2.69015e-09
4.2016e-09
-4.05021e-09
5.32901e-09
-5.63116e-09
6.35896e-09
-7.40885e-09
7.27981e-09
-9.35996e-09
8.08806e-09
-1.14621e-08
8.78571e-09
-1.36941e-08
9.37841e-09
-1.6036e-08
9.87398e-09
-1.84697e-08
1.02815e-08
-2.09787e-08
1.06103e-08
-2.3548e-08
1.08701e-08
-2.61647e-08
1.107e-08
-2.88172e-08
1.12185e-08
-3.14957e-08
1.13234e-08
-3.41917e-08
1.13917e-08
-3.68981e-08
1.14295e-08
-3.96088e-08
1.14422e-08
-4.23186e-08
1.14341e-08
-4.50234e-08
1.1409e-08
-4.77195e-08
1.13699e-08
-5.04039e-08
1.13192e-08
-5.30741e-08
1.12587e-08
-5.57277e-08
1.11899e-08
-5.83629e-08
1.11138e-08
-6.09778e-08
1.10312e-08
-6.35709e-08
1.09424e-08
-6.61404e-08
1.08478e-08
-6.86851e-08
1.07475e-08
-7.12032e-08
1.06414e-08
-7.36935e-08
1.05296e-08
-7.61543e-08
1.04117e-08
-7.85842e-08
1.02878e-08
-8.09815e-08
1.01574e-08
-8.33448e-08
1.00204e-08
-8.56722e-08
9.87652e-09
-8.79622e-08
9.72549e-09
-9.02129e-08
9.56704e-09
-9.24226e-08
9.4009e-09
-9.45894e-08
9.22682e-09
-9.67114e-08
9.04453e-09
-9.87865e-08
8.85379e-09
-1.00813e-07
8.65433e-09
-1.02788e-07
8.44593e-09
-1.04711e-07
8.22836e-09
-1.06578e-07
8.0014e-09
-1.08388e-07
7.76485e-09
-1.10138e-07
7.5185e-09
-1.11827e-07
7.26218e-09
-1.13451e-07
6.99574e-09
-1.15009e-07
6.71901e-09
-1.16498e-07
6.43189e-09
-1.17916e-07
6.13427e-09
-1.1926e-07
5.82605e-09
-1.20528e-07
5.5072e-09
-1.21718e-07
5.17768e-09
-1.22827e-07
4.83749e-09
-1.23852e-07
4.48666e-09
-1.24792e-07
4.12525e-09
-1.25645e-07
3.75336e-09
-1.26407e-07
3.37111e-09
-1.27077e-07
2.97869e-09
-1.27652e-07
2.57629e-09
-1.2813e-07
2.16416e-09
-1.28509e-07
1.74259e-09
-1.28788e-07
1.31192e-09
-1.28963e-07
8.72513e-10
-1.29034e-07
4.2479e-10
-1.28999e-07
-3.07868e-11
-1.28856e-07
-4.93715e-10
-1.28603e-07
-9.63442e-10
-1.2824e-07
-1.43938e-09
-1.27765e-07
-1.92088e-09
-1.27176e-07
-2.40729e-09
-1.26474e-07
-2.89787e-09
-1.25658e-07
-3.39189e-09
-1.24726e-07
-3.88854e-09
-1.23679e-07
-4.38702e-09
-1.22517e-07
-4.88646e-09
-1.21239e-07
-5.38599e-09
-1.19845e-07
-5.8847e-09
-1.18337e-07
-6.38168e-09
-1.16715e-07
-6.87599e-09
-1.1498e-07
-7.36667e-09
-1.13132e-07
-7.85276e-09
-1.11174e-07
-8.33329e-09
-1.09106e-07
-8.8073e-09
-1.06931e-07
-9.2738e-09
-1.0465e-07
-9.73183e-09
-1.02265e-07
-1.01804e-08
-9.97799e-08
-1.06186e-08
-9.71961e-08
-1.10453e-08
-9.45169e-08
-1.14597e-08
-9.17452e-08
-1.18606e-08
-8.88845e-08
-1.2247e-08
-8.59383e-08
-1.26178e-08
-8.29106e-08
-1.29718e-08
-7.98056e-08
-1.33077e-08
-7.66277e-08
-1.36241e-08
-7.33819e-08
-1.39193e-08
-7.00735e-08
-1.41917e-08
-6.67084e-08
-1.44391e-08
-6.32929e-08
-1.46591e-08
-5.98339e-08
-1.4849e-08
-5.63393e-08
-1.50056e-08
-5.28175e-08
-1.51253e-08
-4.9278e-08
-1.52039e-08
-4.57312e-08
-1.52368e-08
-4.21889e-08
-1.52185e-08
-3.86639e-08
-1.51431e-08
-3.51704e-08
-1.50042e-08
-3.17242e-08
-1.47944e-08
-2.83426e-08
-1.45062e-08
-2.50444e-08
-1.41314e-08
-2.185e-08
-1.36618e-08
-1.87812e-08
-1.30892e-08
-1.58611e-08
-1.24059e-08
-1.3114e-08
-1.16054e-08
-1.05645e-08
-1.0683e-08
-8.2377e-09
-9.63708e-09
-6.15778e-09
-8.47095e-09
-4.34784e-09
-7.19462e-09
-2.82886e-09
-5.82794e-09
-1.6193e-09
-4.40429e-09
-7.34984e-10
-2.97486e-09
-1.89981e-10
-1.61354e-09
-4.27697e-10
-2.27956e-10
7.73683e-10
-8.4559e-10
2.37804e-09
-1.80349e-09
3.95745e-09
-3.0621e-09
5.46021e-09
-4.58765e-09
6.85455e-09
-6.35004e-09
8.12135e-09
-8.32166e-09
9.25143e-09
-1.04768e-08
1.02432e-08
-1.27913e-08
1.11002e-08
-1.52426e-08
1.18298e-08
-1.78101e-08
1.24415e-08
-2.04746e-08
1.29459e-08
-2.32188e-08
1.33545e-08
-2.60271e-08
1.36785e-08
-2.88859e-08
1.39288e-08
-3.17831e-08
1.41157e-08
-3.47083e-08
1.42485e-08
-3.76523e-08
1.43357e-08
-4.06075e-08
1.43848e-08
-4.35674e-08
1.44021e-08
-4.65265e-08
1.43931e-08
-4.948e-08
1.43625e-08
-5.2424e-08
1.43139e-08
-5.53552e-08
1.42504e-08
-5.82707e-08
1.41742e-08
-6.11679e-08
1.40872e-08
-6.40447e-08
1.39906e-08
-6.6899e-08
1.38855e-08
-6.97289e-08
1.37724e-08
-7.25327e-08
1.36516e-08
-7.53088e-08
1.35235e-08
-7.80553e-08
1.3388e-08
-8.07707e-08
1.3245e-08
-8.34533e-08
1.30943e-08
-8.61014e-08
1.29359e-08
-8.87133e-08
1.27693e-08
-9.12871e-08
1.25943e-08
-9.38212e-08
1.24106e-08
-9.63135e-08
1.22178e-08
-9.87623e-08
1.20158e-08
-1.01165e-07
1.18041e-08
-1.03521e-07
1.15824e-08
-1.05827e-07
1.13504e-08
-1.08081e-07
1.11078e-08
-1.10281e-07
1.08544e-08
-1.12425e-07
1.05897e-08
-1.1451e-07
1.03136e-08
-1.16534e-07
1.00258e-08
-1.18495e-07
9.72603e-09
-1.20391e-07
9.41406e-09
-1.22219e-07
9.08967e-09
-1.23975e-07
8.75268e-09
-1.25659e-07
8.40291e-09
-1.27268e-07
8.04021e-09
-1.28798e-07
7.66447e-09
-1.30247e-07
7.27558e-09
-1.31614e-07
6.87349e-09
-1.32894e-07
6.45817e-09
-1.34086e-07
6.02963e-09
-1.35188e-07
5.5879e-09
-1.36195e-07
5.13308e-09
-1.37107e-07
4.66528e-09
-1.37921e-07
4.18469e-09
-1.38634e-07
3.69151e-09
-1.39243e-07
3.186e-09
-1.39748e-07
2.66849e-09
-1.40145e-07
2.13933e-09
-1.40432e-07
1.59895e-09
-1.40607e-07
1.04781e-09
-1.40668e-07
4.86427e-10
-1.40615e-07
-8.46088e-11
-1.40444e-07
-6.64672e-10
-1.40154e-07
-1.25308e-09
-1.39744e-07
-1.84908e-09
-1.39213e-07
-2.4519e-09
-1.3856e-07
-3.06069e-09
-1.37783e-07
-3.67456e-09
-1.36883e-07
-4.29258e-09
-1.35857e-07
-4.91376e-09
-1.34707e-07
-5.53709e-09
-1.33432e-07
-6.1615e-09
-1.32032e-07
-6.78591e-09
-1.30508e-07
-7.40921e-09
-1.28859e-07
-8.03023e-09
-1.27087e-07
-8.64783e-09
-1.25193e-07
-9.26082e-09
-1.23178e-07
-9.868e-09
-1.21043e-07
-1.04682e-08
-1.1879e-07
-1.10602e-08
-1.16421e-07
-1.16427e-08
-1.13939e-07
-1.22146e-08
-1.11344e-07
-1.27747e-08
-1.08641e-07
-1.33217e-08
-1.05832e-07
-1.38545e-08
-1.0292e-07
-1.43717e-08
-9.99083e-08
-1.48721e-08
-9.6801e-08
-1.53544e-08
-9.36016e-08
-1.58171e-08
-9.03146e-08
-1.62588e-08
-8.69445e-08
-1.66778e-08
-8.34961e-08
-1.70724e-08
-7.99748e-08
-1.74406e-08
-7.63865e-08
-1.77801e-08
-7.27373e-08
-1.80883e-08
-6.90342e-08
-1.83622e-08
-6.52847e-08
-1.85985e-08
-6.14971e-08
-1.87931e-08
-5.76806e-08
-1.89418e-08
-5.38453e-08
-1.90392e-08
-5.00025e-08
-1.90796e-08
-4.61644e-08
-1.90565e-08
-4.23449e-08
-1.89627e-08
-3.85591e-08
-1.879e-08
-3.48235e-08
-1.853e-08
-3.11563e-08
-1.81734e-08
-2.75772e-08
-1.77104e-08
-2.41077e-08
-1.71313e-08
-2.07704e-08
-1.64264e-08
-1.75896e-08
-1.55868e-08
-1.45904e-08
-1.46046e-08
-1.17989e-08
-1.34745e-08
-9.24133e-09
-1.21947e-08
-6.94394e-09
-1.07683e-08
-4.93231e-09
-9.20625e-09
-3.23105e-09
-7.5292e-09
-1.8637e-09
-5.77164e-09
-8.53127e-10
-3.98542e-09
-2.22769e-10
-2.24389e-09
-6.50465e-10
-2.54612e-10
1.0283e-09
-9.42363e-10
3.06579e-09
-2.0044e-09
5.01948e-09
-3.39313e-09
6.84894e-09
-5.06841e-09
8.52984e-09
-6.99535e-09
1.00483e-08
-9.14281e-09
1.13989e-08
-1.14825e-08
1.25829e-08
-1.39886e-08
1.36063e-08
-1.66372e-08
1.44784e-08
-1.94066e-08
1.52108e-08
-2.22769e-08
1.58162e-08
-2.52302e-08
1.63078e-08
-2.82503e-08
1.66987e-08
-3.13231e-08
1.70016e-08
-3.4436e-08
1.72286e-08
-3.75782e-08
1.73907e-08
-4.07401e-08
1.74977e-08
-4.39138e-08
1.75584e-08
-4.70922e-08
1.75805e-08
-5.02696e-08
1.75705e-08
-5.34409e-08
1.75338e-08
-5.66018e-08
1.74749e-08
-5.97489e-08
1.73974e-08
-6.28788e-08
1.73041e-08
-6.59889e-08
1.71972e-08
-6.90767e-08
1.70784e-08
-7.21399e-08
1.69487e-08
-7.51766e-08
1.6809e-08
-7.81848e-08
1.66598e-08
-8.11625e-08
1.65013e-08
-8.4108e-08
1.63335e-08
-8.70195e-08
1.61564e-08
-8.98951e-08
1.59699e-08
-9.27329e-08
1.57737e-08
-9.55312e-08
1.55675e-08
-9.82879e-08
1.5351e-08
-1.01001e-07
1.51238e-08
-1.03669e-07
1.48856e-08
-1.06289e-07
1.4636e-08
-1.0886e-07
1.43746e-08
-1.11378e-07
1.41011e-08
-1.13843e-07
1.3815e-08
-1.16251e-07
1.35161e-08
-1.18601e-07
1.3204e-08
-1.2089e-07
1.28783e-08
-1.23115e-07
1.25388e-08
-1.25274e-07
1.2185e-08
-1.27365e-07
1.18168e-08
-1.29385e-07
1.14339e-08
-1.31331e-07
1.10359e-08
-1.33201e-07
1.06227e-08
-1.34992e-07
1.01941e-08
-1.36702e-07
9.74988e-09
-1.38327e-07
9.28994e-09
-1.39866e-07
8.81416e-09
-1.41315e-07
8.32247e-09
-1.42672e-07
7.81486e-09
-1.43933e-07
7.29133e-09
-1.45097e-07
6.75194e-09
-1.46161e-07
6.19681e-09
-1.47122e-07
5.62609e-09
-1.47977e-07
5.04e-09
-1.48724e-07
4.4388e-09
-1.49361e-07
3.82281e-09
-1.49885e-07
3.19243e-09
-1.50294e-07
2.54809e-09
-1.50585e-07
1.89031e-09
-1.50757e-07
1.21966e-09
-1.50807e-07
5.36768e-10
-1.50734e-07
-1.57657e-10
-1.50536e-07
-8.62853e-10
-1.50211e-07
-1.57799e-09
-1.49758e-07
-2.30217e-09
-1.49176e-07
-3.03443e-09
-1.48463e-07
-3.77377e-09
-1.47618e-07
-4.5191e-09
-1.46641e-07
-5.2693e-09
-1.45532e-07
-6.02319e-09
-1.4429e-07
-6.77952e-09
-1.42914e-07
-7.53703e-09
-1.41406e-07
-8.2944e-09
-1.39764e-07
-9.05028e-09
-1.37991e-07
-9.8033e-09
-1.36087e-07
-1.0552e-08
-1.34053e-07
-1.12951e-08
-1.3189e-07
-1.2031e-08
-1.296e-07
-1.27583e-08
-1.27184e-07
-1.34756e-08
-1.24645e-07
-1.41815e-08
-1.21986e-07
-1.48743e-08
-1.19208e-07
-1.55527e-08
-1.16314e-07
-1.62153e-08
-1.13308e-07
-1.68605e-08
-1.10193e-07
-1.74867e-08
-1.06973e-07
-1.80926e-08
-1.03651e-07
-1.86764e-08
-1.00231e-07
-1.92364e-08
-9.67193e-08
-1.97709e-08
-9.31193e-08
-2.02778e-08
-8.94367e-08
-2.07551e-08
-8.56771e-08
-2.12002e-08
-8.18467e-08
-2.16105e-08
-7.79522e-08
-2.19827e-08
-7.4001e-08
-2.23134e-08
-7.0001e-08
-2.25984e-08
-6.59611e-08
-2.28331e-08
-6.1891e-08
-2.30119e-08
-5.78012e-08
-2.3129e-08
-5.37036e-08
-2.31772e-08
-4.96113e-08
-2.31489e-08
-4.55384e-08
-2.30355e-08
-4.15009e-08
-2.28276e-08
-3.75159e-08
-2.2515e-08
-3.36023e-08
-2.20869e-08
-2.97805e-08
-2.15321e-08
-2.60727e-08
-2.08392e-08
-2.25023e-08
-1.99968e-08
-1.90944e-08
-1.89947e-08
-1.58751e-08
-1.78239e-08
-1.28715e-08
-1.64781e-08
-1.01114e-08
-1.49547e-08
-7.62303e-09
-1.32567e-08
-5.43451e-09
-1.13948e-08