/*--------------------------------*- C++ -*----------------------------------*\
| =========                 |                                                 |
| \\      /  F ield         | OpenFOAM: The Open Source CFD Toolbox           |
|  \\    /   O peration     | Version:  2112                                  |
|   \\  /    A nd           | Website:  www.openfoam.com                      |
|    \\/     M anipulation  |                                                 |
\*---------------------------------------------------------------------------*/
FoamFile
{
    version     2.0;
    format      ascii;
    arch        "LSB;label=32;scalar=64";
    class       surfaceScalarField;
    location    "0.3";
    object      phi;
}
// * * * * * * * * * * * * * * * * * * * * * * * * * * * * * * * * * * * * * //

dimensions      [0 3 -1 0 0 0 0];

oriented        oriented;

internalField   nonuniform List<scalar> 
33024
(
2.83385e-11
-2.82719e-11
-1.27418e-10
1.55758e-10
-6.04196e-10
4.76757e-10
-1.00141e-09
3.97235e-10
-1.26661e-09
2.65187e-10
-1.45707e-09
1.90457e-10
-1.61697e-09
1.59887e-10
-1.7741e-09
1.57147e-10
-1.94191e-09
1.67785e-10
-2.12598e-09
1.84095e-10
-2.32378e-09
1.97777e-10
-2.533e-09
2.09227e-10
-2.75635e-09
2.2334e-10
-2.99009e-09
2.33755e-10
-3.23408e-09
2.43983e-10
-3.48574e-09
2.51658e-10
-3.74329e-09
2.5755e-10
-4.00694e-09
2.63635e-10
-4.2739e-09
2.6695e-10
-4.54459e-09
2.70696e-10
-4.81743e-09
2.7284e-10
-5.09074e-09
2.73309e-10
-5.36324e-09
2.72512e-10
-5.63625e-09
2.72999e-10
-5.90869e-09
2.72452e-10
-6.18052e-09
2.71849e-10
-6.45304e-09
2.72531e-10
-6.72457e-09
2.71541e-10
-6.99348e-09
2.68927e-10
-7.26163e-09
2.68151e-10
-7.53072e-09
2.69086e-10
-7.79922e-09
2.68509e-10
-8.06502e-09
2.65802e-10
-8.32807e-09
2.63051e-10
-8.5885e-09
2.60436e-10
-8.84553e-09
2.57029e-10
-9.09928e-09
2.53744e-10
-9.35104e-09
2.51763e-10
-9.60098e-09
2.49952e-10
-9.8474e-09
2.46411e-10
-1.00888e-08
2.41422e-10
-1.03258e-08
2.36989e-10
-1.05592e-08
2.33379e-10
-1.07882e-08
2.2899e-10
-1.10115e-08
2.23347e-10
-1.12294e-08
2.17884e-10
-1.14429e-08
2.13498e-10
-1.1652e-08
2.09056e-10
-1.18553e-08
2.03372e-10
-1.20523e-08
1.96977e-10
-1.22432e-08
1.90864e-10
-1.24279e-08
1.84759e-10
-1.26055e-08
1.77548e-10
-1.27745e-08
1.6901e-10
-1.29348e-08
1.60382e-10
-1.30876e-08
1.52743e-10
-1.32331e-08
1.45507e-10
-1.33705e-08
1.37417e-10
-1.34989e-08
1.28355e-10
-1.3618e-08
1.19163e-10
-1.37282e-08
1.10206e-10
-1.38292e-08
1.0097e-10
-1.39201e-08
9.08906e-11
-1.40002e-08
8.0126e-11
-1.40697e-08
6.9467e-11
-1.41291e-08
5.93788e-11
-1.41783e-08
4.92326e-11
-1.42162e-08
3.79325e-11
-1.42415e-08
2.52779e-11
-1.42537e-08
1.21597e-11
-1.4253e-08
-6.30128e-13
-1.42398e-08
-1.32365e-11
-1.42136e-08
-2.62521e-11
-1.41737e-08
-3.98342e-11
-1.41202e-08
-5.35518e-11
-1.40532e-08
-6.69228e-11
-1.39733e-08
-7.99438e-11
-1.38802e-08
-9.309e-11
-1.37734e-08
-1.06785e-10
-1.36526e-08
-1.20879e-10
-1.35178e-08
-1.34724e-10
-1.337e-08
-1.47802e-10
-1.32098e-08
-1.60227e-10
-1.30372e-08
-1.72579e-10
-1.2852e-08
-1.85271e-10
-1.26538e-08
-1.9816e-10
-1.2443e-08
-2.10826e-10
-1.22199e-08
-2.23087e-10
-1.19847e-08
-2.3515e-10
-1.17374e-08
-2.47333e-10
-1.14777e-08
-2.59734e-10
-1.12056e-08
-2.72114e-10
-1.09215e-08
-2.84064e-10
-1.06261e-08
-2.9537e-10
-1.03199e-08
-3.06252e-10
-1.00027e-08
-3.17144e-10
-9.67451e-09
-3.28228e-10
-9.33526e-09
-3.3924e-10
-8.98556e-09
-3.49702e-10
-8.62628e-09
-3.59283e-10
-8.25831e-09
-3.67962e-10
-7.88237e-09
-3.75938e-10
-7.49899e-09
-3.83376e-10
-7.1088e-09
-3.90189e-10
-6.71274e-09
-3.96067e-10
-6.31198e-09
-4.00758e-10
-5.90771e-09
-4.04277e-10
-5.50089e-09
-4.06821e-10
-5.09237e-09
-4.08517e-10
-4.6831e-09
-4.09275e-10
-4.27429e-09
-4.08806e-10
-3.86756e-09
-4.06731e-10
-3.46483e-09
-4.02727e-10
-3.06817e-09
-3.96655e-10
-2.67967e-09
-3.88507e-10
-2.3015e-09
-3.78163e-10
-1.93631e-09
-3.65193e-10
-1.58739e-09
-3.48919e-10
-1.2587e-09
-3.2869e-10
-9.54638e-10
-3.04055e-10
-6.7994e-10
-2.74697e-10
-4.39587e-10
-2.40349e-10
-2.38757e-10
-2.00827e-10
-8.2714e-11
-1.56042e-10
2.35952e-11
-1.0631e-10
7.67832e-11
-5.31883e-11
7.80113e-11
-1.22712e-12
3.94631e-11
3.85503e-11
3.94661e-11
1.78251e-10
-2.06521e-10
1.32585e-10
2.01449e-10
-2.98777e-10
9.08103e-10
-8.49202e-10
9.47658e-10
-1.42424e-09
8.40198e-10
-1.9915e-09
7.57713e-10
-2.56915e-09
7.37553e-10
-3.16443e-09
7.524e-10
-3.78594e-09
7.8931e-10
-4.43454e-09
8.32671e-10
-5.11007e-09
8.73323e-10
-5.81411e-09
9.13268e-10
-6.53737e-09
9.46594e-10
-7.28112e-09
9.77498e-10
-8.03818e-09
1.00104e-09
-8.80767e-09
1.02116e-09
-9.58751e-09
1.03739e-09
-1.03722e-08
1.04833e-09
-1.11611e-08
1.05584e-09
-1.19529e-08
1.06248e-09
-1.27458e-08
1.06579e-09
-1.35386e-08
1.06613e-09
-1.43313e-08
1.06519e-09
-1.51211e-08
1.06275e-09
-1.59077e-08
1.05906e-09
-1.66917e-08
1.05581e-09
-1.74714e-08
1.05227e-09
-1.82463e-08
1.04642e-09
-1.90169e-08
1.0395e-09
-1.97827e-08
1.03393e-09
-2.05421e-08
1.02845e-09
-2.12946e-08
1.02105e-09
-2.20409e-08
1.01211e-09
-2.27807e-08
1.00286e-09
-2.35126e-08
9.92365e-10
-2.42359e-08
9.80276e-10
-2.49505e-08
9.68323e-10
-2.56561e-08
9.57391e-10
-2.63517e-08
9.45556e-10
-2.70366e-08
9.31322e-10
-2.77108e-08
9.1563e-10
-2.83739e-08
9.00056e-10
-2.90248e-08
8.84297e-10
-2.96627e-08
8.6691e-10
-3.02872e-08
8.47878e-10
-3.08978e-08
8.28499e-10
-3.14934e-08
8.09074e-10
-3.20727e-08
7.88324e-10
-3.26349e-08
7.65559e-10
-3.31797e-08
7.41771e-10
-3.37065e-08
7.17737e-10
-3.42145e-08
6.92661e-10
-3.47024e-08
6.65473e-10
-3.51698e-08
6.3641e-10
-3.56161e-08
6.06716e-10
-3.60405e-08
5.77104e-10
-3.64419e-08
5.46952e-10
-3.68197e-08
5.15236e-10
-3.71733e-08
4.81933e-10
-3.7502e-08
4.47854e-10
-3.7805e-08
4.13243e-10
-3.80814e-08
3.77398e-10
-3.83304e-08
3.39822e-10
-3.85513e-08
3.01055e-10
-3.87438e-08
2.62005e-10
-3.89072e-08
2.22767e-10
-3.90405e-08
1.82459e-10
-3.91427e-08
1.40167e-10
-3.92133e-08
9.58712e-11
-3.92515e-08
5.03573e-11
-3.92564e-08
4.31643e-12
-3.92274e-08
-4.22837e-11
-3.91637e-08
-8.98816e-11
-3.9065e-08
-1.38585e-10
-3.89306e-08
-1.87951e-10
-3.87601e-08
-2.37468e-10
-3.85529e-08
-2.87089e-10
-3.83088e-08
-3.37191e-10
-3.80276e-08
-3.88004e-10
-3.77093e-08
-4.39169e-10
-3.73541e-08
-4.89929e-10
-3.69621e-08
-5.39774e-10
-3.65336e-08
-5.88821e-10
-3.60686e-08
-6.37558e-10
-3.55676e-08
-6.86296e-10
-3.50309e-08
-7.34886e-10
-3.44587e-08
-7.8294e-10
-3.38516e-08
-8.3026e-10
-3.32097e-08
-8.76986e-10
-3.25337e-08
-9.23355e-10
-3.18241e-08
-9.69375e-10
-3.10814e-08
-1.01476e-09
-3.03063e-08
-1.05914e-09
-2.94994e-08
-1.10229e-09
-2.86614e-08
-1.14431e-09
-2.77931e-08
-1.1854e-09
-2.68957e-08
-1.22565e-09
-2.59702e-08
-1.26471e-09
-2.50179e-08
-1.30202e-09
-2.40401e-08
-1.33709e-09
-2.30383e-08
-1.36975e-09
-2.20142e-08
-1.40001e-09
-2.09697e-08
-1.42785e-09
-1.99069e-08
-1.45302e-09
-1.88279e-08
-1.4751e-09
-1.77349e-08
-1.49373e-09
-1.66305e-08
-1.50869e-09
-1.55174e-08
-1.51992e-09
-1.43986e-08
-1.52727e-09
-1.32776e-08
-1.53034e-09
-1.21579e-08
-1.52845e-09
-1.10439e-08
-1.52075e-09
-9.94025e-09
-1.50638e-09
-8.85235e-09
-1.48455e-09
-7.7864e-09
-1.45446e-09
-6.74937e-09
-1.41519e-09
-5.74905e-09
-1.36551e-09
-4.79403e-09
-1.30394e-09
-3.89379e-09
-1.22892e-09
-3.05879e-09
-1.13906e-09
-2.3003e-09
-1.03318e-09
-1.63027e-09
-9.10376e-10
-1.06082e-09
-7.70278e-10
-6.0335e-10
-6.13507e-10
-2.6688e-10
-4.42778e-10
-5.49823e-11
-2.65083e-10
3.88164e-11
-9.50205e-11
3.86177e-11
3.87553e-11
7.80865e-11
4.19926e-10
-6.26467e-10
5.81905e-10
3.94509e-11
3.20929e-10
1.16907e-09
-2.54603e-10
1.52321e-09
-1.0013e-09
1.5869e-09
-1.86718e-09
1.62361e-09
-2.81074e-09
1.68109e-09
-3.81781e-09
1.75951e-09
-4.87584e-09
1.84733e-09
-5.97927e-09
1.93614e-09
-7.12192e-09
2.01596e-09
-8.29743e-09
2.08877e-09
-9.49931e-09
2.14848e-09
-1.07238e-08
2.20191e-09
-1.19655e-08
2.24281e-09
-1.32199e-08
2.27554e-09
-1.4483e-08
2.30042e-09
-1.57514e-08
2.31677e-09
-1.70246e-08
2.32907e-09
-1.82963e-08
2.33418e-09
-1.95674e-08
2.33686e-09
-2.08356e-08
2.33436e-09
-2.20997e-08
2.32926e-09
-2.3359e-08
2.32209e-09
-2.46127e-08
2.31283e-09
-2.58592e-08
2.30231e-09
-2.70968e-08
2.28987e-09
-2.83258e-08
2.27547e-09
-2.95465e-08
2.26013e-09
-3.07572e-08
2.2447e-09
-3.1957e-08
2.22822e-09
-3.31457e-08
2.20979e-09
-3.43233e-08
2.18968e-09
-3.54884e-08
2.16791e-09
-3.664e-08
2.14402e-09
-3.77782e-08
2.11846e-09
-3.89022e-08
2.0923e-09
-4.00103e-08
2.06556e-09
-4.11016e-08
2.0368e-09
-4.21757e-08
2.00542e-09
-4.32325e-08
1.97242e-09
-4.42707e-08
1.93834e-09
-4.5289e-08
1.90253e-09
-4.62863e-08
1.86427e-09
-4.72623e-08
1.82386e-09
-4.82158e-08
1.78197e-09
-4.91451e-08
1.73838e-09
-5.0049e-08
1.6922e-09
-5.09267e-08
1.64331e-09
-5.17774e-08
1.59248e-09
-5.25997e-08
1.54e-09
-5.33921e-08
1.4851e-09
-5.41537e-08
1.42706e-09
-5.48836e-08
1.36629e-09
-5.55807e-08
1.30387e-09
-5.62437e-08
1.24003e-09
-5.68707e-08
1.17399e-09
-5.74607e-08
1.1052e-09
-5.80127e-08
1.034e-09
-5.85257e-08
9.60863e-10
-5.89982e-08
8.85693e-10
-5.94288e-08
8.08022e-10
-5.98167e-08
7.27707e-10
-6.01608e-08
6.45193e-10
-6.04599e-08
5.61102e-10
-6.07126e-08
4.75491e-10
-6.09178e-08
3.87666e-10
-6.10746e-08
2.96929e-10
-6.11821e-08
2.03378e-10
-6.12395e-08
1.07746e-10
-6.12458e-08
1.05538e-11
-6.11997e-08
-8.82876e-11
-6.11006e-08
-1.89066e-10
-6.09474e-08
-2.91696e-10
-6.07397e-08
-3.9568e-10
-6.04766e-08
-5.00541e-10
-6.01576e-08
-6.06177e-10
-5.9782e-08
-7.12753e-10
-5.93498e-08
-8.20263e-10
-5.88607e-08
-9.28247e-10
-5.83146e-08
-1.03598e-09
-5.77115e-08
-1.14293e-09
-5.70512e-08
-1.24911e-09
-5.63339e-08
-1.35481e-09
-5.55601e-08
-1.46015e-09
-5.47301e-08
-1.56484e-09
-5.38446e-08
-1.66843e-09
-5.29042e-08
-1.77067e-09
-5.19096e-08
-1.87158e-09
-5.08617e-08
-1.97125e-09
-4.97615e-08
-2.06962e-09
-4.86099e-08
-2.16633e-09
-4.74081e-08
-2.26095e-09
-4.61572e-08
-2.35316e-09
-4.48587e-08
-2.4429e-09
-4.35138e-08
-2.53021e-09
-4.21245e-08
-2.61497e-09
-4.06925e-08
-2.69672e-09
-3.92197e-08
-2.77483e-09
-3.77081e-08
-2.84873e-09
-3.61597e-08
-2.91805e-09
-3.45772e-08
-2.98255e-09
-3.29631e-08
-3.04194e-09
-3.13204e-08
-3.09578e-09
-2.9652e-08
-3.14342e-09
-2.79616e-08
-3.18419e-09
-2.62528e-08
-3.21748e-09
-2.453e-08
-3.24276e-09
-2.27979e-08
-3.25937e-09
-2.10618e-08
-3.26639e-09
-1.93277e-08
-3.26252e-09
-1.76023e-08
-3.24623e-09
-1.58928e-08
-3.21582e-09
-1.42078e-08
-3.16953e-09
-1.25568e-08
-3.10553e-09
-1.09502e-08
-3.02181e-09
-9.39962e-09
-2.91604e-09
-7.91793e-09
-2.78563e-09
-6.51895e-09
-2.62789e-09
-5.21769e-09
-2.44032e-09
-4.03005e-09
-2.22081e-09
-2.97243e-09
-1.968e-09
-2.06089e-09
-1.68181e-09
-1.30995e-09
-1.36445e-09
-7.30489e-10
-1.02224e-09
-3.26628e-10
-6.68939e-10
-9.11541e-11
-3.30488e-10
3.83873e-13
-5.2777e-11
7.84727e-11
2.54581e-10
-8.81026e-10
3.40187e-10
-4.61511e-11
8.91956e-11
1.42009e-09
-4.93576e-10
2.10596e-09
-1.34223e-09
2.43554e-09
-2.38606e-09
2.66743e-09
-3.57522e-09
2.87028e-09
-4.87626e-09
3.06052e-09
-6.26584e-09
3.23692e-09
-7.72301e-09
3.39328e-09
-9.24096e-09
3.53391e-09
-1.08034e-08
3.65124e-09
-1.24069e-08
3.75189e-09
-1.40371e-08
3.83211e-09
-1.569e-08
3.89572e-09
-1.73591e-08
3.94467e-09
-1.90396e-08
3.98095e-09
-2.07273e-08
4.00445e-09
-2.2417e-08
4.01871e-09
-2.41084e-08
4.02562e-09
-2.57964e-08
4.02485e-09
-2.74802e-08
4.01817e-09
-2.91576e-08
4.00666e-09
-3.08269e-08
3.99135e-09
-3.24876e-08
3.9735e-09
-3.41385e-08
3.95321e-09
-3.57782e-08
3.92964e-09
-3.74063e-08
3.90351e-09
-3.90218e-08
3.87562e-09
-4.06228e-08
3.84571e-09
-4.22083e-08
3.81378e-09
-4.37785e-08
3.77992e-09
-4.53329e-08
3.74412e-09
-4.68705e-08
3.70549e-09
-4.83901e-08
3.66365e-09
-4.9891e-08
3.61937e-09
-5.13721e-08
3.57338e-09
-5.28316e-08
3.52506e-09
-5.42685e-08
3.47369e-09
-5.56824e-08
3.41936e-09
-5.70726e-08
3.36261e-09
-5.84374e-08
3.30318e-09
-5.97752e-08
3.24027e-09
-6.10848e-08
3.17387e-09
-6.23655e-08
3.10458e-09
-6.3616e-08
3.03245e-09
-6.48343e-08
2.95675e-09
-6.6019e-08
2.87691e-09
-6.71691e-08
2.79337e-09
-6.82834e-08
2.70673e-09
-6.936e-08
2.61661e-09
-7.0397e-08
2.52218e-09
-7.13933e-08
2.42335e-09
-7.23478e-08
2.32081e-09
-7.3259e-08
2.21507e-09
-7.41249e-08
2.10588e-09
-7.49435e-08
1.99265e-09
-7.57135e-08
1.87519e-09
-7.64334e-08
1.75391e-09
-7.71017e-08
1.62918e-09
-7.77168e-08
1.50076e-09
-7.82769e-08
1.36811e-09
-7.87805e-08
1.23131e-09
-7.92263e-08
1.09104e-09
-7.9613e-08
9.47793e-10
-7.99388e-08
8.01294e-10
-8.02021e-08
6.50885e-10
-8.04015e-08
4.96337e-10
-8.05362e-08
3.38094e-10
-8.06052e-08
1.76775e-10
-8.06073e-08
1.26144e-11
-8.0541e-08
-1.54549e-10
-8.04053e-08
-3.24802e-10
-8.01992e-08
-4.97805e-10
-7.99219e-08
-6.72932e-10
-7.95727e-08
-8.49707e-10
-7.91509e-08
-1.02804e-09
-7.86557e-08
-1.20797e-09
-7.80867e-08
-1.38925e-09
-7.74437e-08
-1.5712e-09
-7.67267e-08
-1.75302e-09
-7.59353e-08
-1.93428e-09
-7.50696e-08
-2.11491e-09
-7.41294e-08
-2.29494e-09
-7.31154e-08
-2.47416e-09
-7.20282e-08
-2.65207e-09
-7.08685e-08
-2.82812e-09
-6.96372e-08
-3.00199e-09
-6.83352e-08
-3.17362e-09
-6.69634e-08
-3.34297e-09
-6.55233e-08
-3.50971e-09
-6.40164e-08
-3.67331e-09
-6.24441e-08
-3.83324e-09
-6.08081e-08
-3.98915e-09
-5.91101e-08
-4.14086e-09
-5.73522e-08
-4.28817e-09
-5.55364e-08
-4.43071e-09
-5.36653e-08
-4.56785e-09
-5.17413e-08
-4.69884e-09
-4.9767e-08
-4.82299e-09
-4.77453e-08
-4.93976e-09
-4.56792e-08
-5.04868e-09
-4.3572e-08
-5.14915e-09
-4.14274e-08
-5.24033e-09
-3.92496e-08
-5.32122e-09
-3.70431e-08
-5.39074e-09
-3.48127e-08
-5.44785e-09
-3.2564e-08
-5.49145e-09
-3.03032e-08
-5.5202e-09
-2.80371e-08
-5.53244e-09
-2.57737e-08
-5.52601e-09
-2.35214e-08
-5.49848e-09
-2.12901e-08
-5.44715e-09
-1.90904e-08
-5.3692e-09
-1.69344e-08
-5.26156e-09
-1.48353e-08
-5.12089e-09
-1.28078e-08
-4.94353e-09
-1.08678e-08
-4.7256e-09
-9.0326e-09
-4.46313e-09
-7.32038e-09
-4.15254e-09
-5.75024e-09
-3.79096e-09
-4.34142e-09
-3.37681e-09
-3.11252e-09
-2.91071e-09
-2.08011e-09
-2.39685e-09
-1.25688e-09
-1.84547e-09
-6.4889e-10
-1.27692e-09
-2.52128e-10
-7.27243e-10
-4.84116e-11
-2.56489e-10
3.00625e-11
3.20318e-11
-9.13061e-10
-6.04636e-11
4.6321e-11
-4.08091e-10
1.76773e-09
-1.06722e-09
2.76508e-09
-2.01819e-09
3.3865e-09
-3.20858e-09
3.85782e-09
-4.5913e-09
4.25299e-09
-6.12267e-09
4.59187e-09
-7.77484e-09
4.88909e-09
-9.52456e-09
5.14299e-09
-1.13511e-08
5.36048e-09
-1.32403e-08
5.54039e-09
-1.51784e-08
5.69001e-09
-1.71551e-08
5.80885e-09
-1.91612e-08
5.90181e-09
-2.11893e-08
5.9727e-09
-2.32302e-08
6.02187e-09
-2.52813e-08
6.05558e-09
-2.73364e-08
6.07382e-09
-2.9392e-08
6.08117e-09
-3.14442e-08
6.07711e-09
-3.34916e-08
6.06556e-09
-3.55314e-08
6.04641e-09
-3.75613e-08
6.02124e-09
-3.95797e-08
5.99199e-09
-4.15849e-08
5.95837e-09
-4.35761e-08
5.92082e-09
-4.55529e-08
5.88031e-09
-4.7514e-08
5.83676e-09
-4.94576e-08
5.78936e-09
-5.13825e-08
5.73866e-09
-5.32879e-08
5.68526e-09
-5.51725e-08
5.62876e-09
-5.70355e-08
5.56851e-09
-5.88764e-08
5.50455e-09
-6.06942e-08
5.43716e-09
-6.24871e-08
5.36632e-09
-6.42534e-08
5.29131e-09
-6.59918e-08
5.21215e-09
-6.77018e-08
5.12938e-09
-6.93821e-08
5.04286e-09
-7.10306e-08
4.95169e-09
-7.26457e-08
4.85541e-09
-7.42265e-08
4.7546e-09
-7.57715e-08
4.64961e-09
-7.72789e-08
4.53986e-09
-7.87467e-08
4.42461e-09
-8.01737e-08
4.30386e-09
-8.15584e-08
4.17808e-09
-8.2899e-08
4.04732e-09
-8.41934e-08
3.91098e-09
-8.54397e-08
3.76851e-09
-8.66365e-08
3.62012e-09
-8.77822e-08
3.46654e-09
-8.8875e-08
3.3079e-09
-8.99126e-08
3.14351e-09
-9.08929e-08
2.97287e-09
-9.18141e-08
2.79637e-09
-9.26747e-08
2.61456e-09
-9.34729e-08
2.42735e-09
-9.42063e-08
2.23418e-09
-9.48731e-08
2.03487e-09
-9.54716e-08
1.8299e-09
-9.60005e-08
1.61987e-09
-9.64576e-08
1.40494e-09
-9.6841e-08
1.18472e-09
-9.7149e-08
9.58829e-10
-9.73801e-08
7.27434e-10
-9.75331e-08
4.91148e-10
-9.76068e-08
2.50473e-10
-9.75997e-08
5.44762e-12
-9.75101e-08
-2.44074e-10
-9.7337e-08
-4.97913e-10
-9.70794e-08
-7.55441e-10
-9.67364e-08
-1.01595e-09
-9.63071e-08
-1.27904e-09
-9.57905e-08
-1.54464e-09
-9.51859e-08
-1.81255e-09
-9.44929e-08
-2.0822e-09
-9.37114e-08
-2.35273e-09
-9.28411e-08
-2.62334e-09
-9.18818e-08
-2.89359e-09
-9.08334e-08
-3.16333e-09
-8.9696e-08
-3.4323e-09
-8.84702e-08
-3.69993e-09
-8.71569e-08
-3.96543e-09
-8.57568e-08
-4.22818e-09
-8.4271e-08
-4.48784e-09
-8.27004e-08
-4.74422e-09
-8.10463e-08
-4.997e-09
-7.93104e-08
-5.24559e-09
-7.74945e-08
-5.48925e-09
-7.56004e-08
-5.72735e-09
-7.36301e-08
-5.95943e-09
-7.15858e-08
-6.1852e-09
-6.94697e-08
-6.40424e-09
-6.72845e-08
-6.61588e-09
-6.50332e-08
-6.81924e-09
-6.27186e-08
-7.01338e-09
-6.03441e-08
-7.19751e-09
-5.79129e-08
-7.37092e-09
-5.54288e-08
-7.53284e-09
-5.28956e-08
-7.68227e-09
-5.0318e-08
-7.81793e-09
-4.77009e-08
-7.93838e-09
-4.50495e-08
-8.04208e-09
-4.23699e-08
-8.12745e-09
-3.96686e-08
-8.19273e-09
-3.6953e-08
-8.23582e-09
-3.42313e-08
-8.25413e-09
-3.15128e-08
-8.24455e-09
-2.88077e-08
-8.20358e-09
-2.61275e-08
-8.12738e-09
-2.34848e-08
-8.0119e-09
-2.08936e-08
-7.85277e-09
-1.83693e-08
-7.64519e-09
-1.59288e-08
-7.38402e-09
-1.35904e-08
-7.06396e-09
-1.13737e-08
-6.67979e-09
-9.29938e-09
-6.22689e-09
-7.38855e-09
-5.70178e-09
-5.66253e-09
-5.10284e-09
-4.14179e-09
-4.43144e-09
-2.84482e-09
-3.69382e-09
-1.78649e-09
-2.9038e-09
-9.76256e-10
-2.08714e-09
-4.15967e-10
-1.28752e-09
-9.73284e-11
-5.75124e-10
-6.72657e-11
-1.18035e-10
-7.95025e-10
-4.01467e-10
3.29762e-10
-8.92404e-10
2.25868e-09
-1.6785e-09
3.55117e-09
-2.75824e-09
4.46625e-09
-4.09642e-09
5.19598e-09
-5.65007e-09
5.80666e-09
-7.38643e-09
6.32823e-09
-9.26459e-09
6.76724e-09
-1.12628e-08
7.14122e-09
-1.33535e-08
7.45115e-09
-1.55233e-08
7.71015e-09
-1.77518e-08
7.91852e-09
-2.00282e-08
8.0853e-09
-2.23411e-08
8.21465e-09
-2.46789e-08
8.31048e-09
-2.70362e-08
8.3792e-09
-2.94042e-08
8.42363e-09
-3.17788e-08
8.44841e-09
-3.41536e-08
8.45586e-09
-3.65257e-08
8.44929e-09
-3.88913e-08
8.43118e-09
-4.12486e-08
8.40365e-09
-4.35952e-08
8.36789e-09
-4.59282e-08
8.32499e-09
-4.82457e-08
8.27586e-09
-5.05467e-08
8.22183e-09
-5.28298e-08
8.16341e-09
-5.50935e-08
8.10043e-09
-5.73368e-08
8.03271e-09
-5.95588e-08
7.96061e-09
-6.17578e-08
7.88427e-09
-6.39321e-08
7.80305e-09
-6.60806e-08
7.71701e-09
-6.82027e-08
7.62665e-09
-7.02971e-08
7.5316e-09
-7.23619e-08
7.43111e-09
-7.43956e-08
7.32496e-09
-7.6397e-08
7.21356e-09
-7.83647e-08
7.09713e-09
-8.02969e-08
6.975e-09
-8.21916e-08
6.8464e-09
-8.40475e-08
6.71132e-09
-8.58631e-08
6.57027e-09
-8.76367e-08
6.42318e-09
-8.9366e-08
6.26919e-09
-9.10492e-08
6.10778e-09
-9.26847e-08
5.93937e-09
-9.42709e-08
5.76432e-09
-9.58057e-08
5.58207e-09
-9.72865e-08
5.39175e-09
-9.87114e-08
5.19341e-09
-1.00079e-07
4.98775e-09
-1.01387e-07
4.77496e-09
-1.02634e-07
4.55453e-09
-1.03816e-07
4.3259e-09
-1.04933e-07
4.08912e-09
-1.05981e-07
3.84467e-09
-1.06959e-07
3.59277e-09
-1.07865e-07
3.33309e-09
-1.08696e-07
3.06522e-09
-1.0945e-07
2.78927e-09
-1.10126e-07
2.50585e-09
-1.10722e-07
2.2154e-09
-1.11235e-07
1.91783e-09
-1.11663e-07
1.61278e-09
-1.12004e-07
1.30021e-09
-1.12257e-07
9.80664e-10
-1.12421e-07
6.54794e-10
-1.12493e-07
3.22901e-10
-1.12473e-07
-1.50871e-11
-1.12358e-07
-3.59117e-10
-1.12147e-07
-7.08659e-10
-1.1184e-07
-1.06289e-09
-1.11435e-07
-1.42114e-09
-1.10931e-07
-1.78306e-09
-1.10327e-07
-2.14845e-09
-1.09622e-07
-2.51685e-09
-1.08817e-07
-2.88737e-09
-1.07911e-07
-3.25899e-09
-1.06903e-07
-3.63092e-09
-1.05794e-07
-4.00275e-09
-1.04583e-07
-4.3741e-09
-1.03271e-07
-4.74433e-09
-1.01859e-07
-5.11255e-09
-1.00346e-07
-5.47781e-09
-9.87352e-08
-5.8394e-09
-9.70262e-08
-6.19685e-09
-9.52207e-08
-6.54976e-09
-9.33201e-08
-6.89754e-09
-9.13264e-08
-7.23932e-09
-8.92415e-08
-7.57415e-09
-8.70676e-08
-7.90127e-09
-8.48069e-08
-8.22013e-09
-8.24619e-08
-8.53023e-09
-8.00353e-08
-8.83086e-09
-7.75301e-08
-9.12105e-09
-7.49497e-08
-9.39968e-09
-7.22974e-08
-9.66568e-09
-6.95769e-08
-9.91804e-09
-6.6792e-08
-1.01558e-08
-6.3947e-08
-1.03778e-08
-6.10466e-08
-1.05827e-08
-5.80958e-08
-1.07687e-08
-5.51004e-08
-1.09339e-08
-5.20663e-08
-1.10761e-08
-4.90004e-08
-1.11934e-08
-4.59101e-08
-1.1283e-08
-4.28038e-08
-1.13421e-08
-3.96908e-08
-1.13671e-08
-3.65816e-08
-1.13538e-08
-3.34877e-08
-1.12975e-08
-3.04219e-08
-1.11932e-08
-2.73981e-08
-1.10356e-08
-2.44321e-08
-1.08188e-08
-2.15409e-08
-1.05365e-08
-1.87429e-08
-1.0182e-08
-1.60583e-08
-9.74855e-09
-1.35083e-08
-9.22979e-09
-1.11152e-08
-8.62006e-09
-8.90168e-09
-7.91528e-09
-6.89074e-09
-7.11378e-09
-5.10452e-09
-6.21766e-09
-3.56352e-09
-5.23481e-09
-2.28548e-09
-4.18183e-09
-1.28421e-09
-3.0884e-09
-5.68731e-10
-2.003e-09
-1.41849e-10
-1.002e-09
-2.09116e-10
-2.11694e-10
-5.83338e-10
-6.51549e-10
7.69632e-10
-1.30465e-09
2.91176e-09
-2.23996e-09
4.4865e-09
-3.4645e-09
5.69079e-09
-4.9581e-09
6.68961e-09
-6.68114e-09
7.5297e-09
-8.59774e-09
8.24482e-09
-1.06804e-08
8.84987e-09
-1.28948e-08
9.35561e-09
-1.52204e-08
9.7768e-09
-1.76324e-08
1.01222e-08
-2.01153e-08
1.04013e-08
-2.26532e-08
1.06233e-08
-2.52327e-08
1.07941e-08
-2.7843e-08
1.09208e-08
-3.04756e-08
1.10118e-08
-3.31215e-08
1.10696e-08
-3.57751e-08
1.1102e-08
-3.843e-08
1.11108e-08
-4.10824e-08
1.11016e-08
-4.37279e-08
1.10767e-08
-4.63635e-08
1.10393e-08
-4.89867e-08
1.09911e-08
-5.15949e-08
1.09332e-08
-5.41864e-08
1.08674e-08
-5.67594e-08
1.07948e-08
-5.93115e-08
1.07155e-08
-6.18411e-08
1.063e-08
-6.43473e-08
1.05389e-08
-6.68289e-08
1.04423e-08
-6.92842e-08
1.03395e-08
-7.17115e-08
1.02304e-08
-7.41099e-08
1.01154e-08
-7.64778e-08
9.99456e-09
-7.88135e-08
9.86729e-09
-8.11152e-08
9.73283e-09
-8.33817e-08
9.5915e-09
-8.56118e-08
9.4436e-09
-8.78033e-08
9.28863e-09
-8.99539e-08
9.12568e-09
-9.20621e-08
8.95456e-09
-9.41265e-08
8.77572e-09
-9.61454e-08
8.58913e-09
-9.81161e-08
8.39397e-09
-1.00037e-07
8.18964e-09
-1.01905e-07
7.97636e-09
-1.0372e-07
7.75442e-09
-1.05479e-07
7.52343e-09
-1.0718e-07
7.28264e-09
-1.0882e-07
7.0317e-09
-1.10397e-07
6.77096e-09
-1.1191e-07
6.50081e-09
-1.13357e-07
6.22105e-09
-1.14733e-07
5.93107e-09
-1.16038e-07
5.63054e-09
-1.17268e-07
5.31977e-09
-1.18423e-07
4.99921e-09
-1.19499e-07
4.66876e-09
-1.20494e-07
4.32795e-09
-1.21405e-07
3.9766e-09
-1.22231e-07
3.61517e-09
-1.22969e-07
3.24428e-09
-1.23618e-07
2.86408e-09
-1.24175e-07
2.47427e-09
-1.24637e-07
2.07472e-09
-1.25002e-07
1.66583e-09
-1.2527e-07
1.24834e-09
-1.25438e-07
8.22794e-10
-1.25504e-07
3.89328e-10
-1.25467e-07
-5.20527e-11
-1.25325e-07
-5.00998e-10
-1.25077e-07
-9.56681e-10
-1.24722e-07
-1.41817e-09
-1.24258e-07
-1.88484e-09
-1.23685e-07
-2.35639e-09
-1.23001e-07
-2.83238e-09
-1.22206e-07
-3.31196e-09
-1.21299e-07
-3.794e-09
-1.20281e-07
-4.27744e-09
-1.1915e-07
-4.76152e-09
-1.17907e-07
-5.24566e-09
-1.16552e-07
-5.7292e-09
-1.15086e-07
-6.21116e-09
-1.13508e-07
-6.69036e-09
-1.1182e-07
-7.1657e-09
-1.10023e-07
-7.63636e-09
-1.08118e-07
-8.10177e-09
-1.06106e-07
-8.56123e-09
-1.0399e-07
-9.01376e-09
-1.01771e-07
-9.45822e-09
-9.9452e-08
-9.89355e-09
-9.70344e-08
-1.03189e-08
-9.4521e-08
-1.07335e-08
-9.19147e-08
-1.11365e-08
-8.92186e-08
-1.1527e-08
-8.6436e-08
-1.19037e-08
-8.35706e-08
-1.22652e-08
-8.0626e-08
-1.26102e-08
-7.76064e-08
-1.29376e-08
-7.4516e-08
-1.32461e-08
-7.13597e-08
-1.35342e-08
-6.81425e-08
-1.37998e-08
-6.48703e-08
-1.40409e-08
-6.15492e-08
-1.4255e-08
-5.81859e-08
-1.44394e-08
-5.47879e-08
-1.45914e-08
-5.13633e-08
-1.47075e-08
-4.79215e-08
-1.47839e-08
-4.44727e-08
-1.4816e-08
-4.10281e-08
-1.47984e-08
-3.76003e-08
-1.47253e-08
-3.42031e-08
-1.45904e-08
-3.08517e-08
-1.4387e-08
-2.75629e-08
-1.41076e-08
-2.43549e-08
-1.37445e-08
-2.12475e-08
-1.32894e-08
-1.8262e-08
-1.27341e-08
-1.54209e-08
-1.20709e-08
-1.27476e-08
-1.12933e-08
-1.02662e-08
-1.03966e-08
-8.00115e-09
-9.37888e-09
-5.97618e-09
-8.24262e-09
-4.21417e-09
-6.99682e-09
-2.73608e-09
-5.65992e-09
-1.56065e-09
-4.26382e-09
-7.0429e-10
-2.85936e-09
-1.80461e-10
-1.52583e-09
-3.89577e-10
-2.70588e-10
-3.12742e-10
-8.37833e-10
1.33685e-09
-1.64062e-09
3.71459e-09
-2.72883e-09
5.57468e-09
-4.10852e-09
7.07046e-09
-5.75363e-09
8.33472e-09
-7.64154e-09
9.4176e-09
-9.73306e-09
1.03363e-08
-1.19982e-08
1.1115e-08
-1.44088e-08
1.17662e-08
-1.69391e-08
1.23071e-08
-1.95667e-08
1.27498e-08
-2.22723e-08
1.3107e-08
-2.50388e-08
1.33897e-08
-2.7852e-08
1.36072e-08
-3.07009e-08
1.37698e-08
-3.35734e-08
1.38843e-08
-3.64628e-08
1.39589e-08
-3.93598e-08
1.39991e-08
-4.22601e-08
1.40111e-08
-4.51576e-08
1.39991e-08
-4.80482e-08
1.39673e-08
-5.09281e-08
1.39191e-08
-5.37938e-08
1.38568e-08
-5.66431e-08
1.37825e-08
-5.9474e-08
1.36983e-08
-6.22841e-08
1.36049e-08
-6.50713e-08
1.35028e-08
-6.7834e-08
1.33927e-08
-7.05706e-08
1.32755e-08
-7.32791e-08
1.31508e-08
-7.59581e-08
1.30184e-08
-7.86063e-08
1.28787e-08
-8.12225e-08
1.27316e-08
-8.38044e-08
1.25765e-08
-8.63501e-08
1.2413e-08
-8.88583e-08
1.2241e-08
-9.13275e-08
1.20607e-08
-9.37559e-08
1.1872e-08
-9.6141e-08
1.16738e-08
-9.8481e-08
1.14657e-08
-1.00774e-07
1.12479e-08
-1.03019e-07
1.10205e-08
-1.05213e-07
1.0783e-08
-1.07354e-07
1.05346e-08
-1.09439e-07
1.02751e-08
-1.11467e-07
1.00047e-08
-1.13436e-07
9.72333e-09
-1.15343e-07
9.43044e-09
-1.17186e-07
9.12525e-09
-1.18962e-07
8.80775e-09
-1.20669e-07
8.47844e-09
-1.22306e-07
8.13737e-09
-1.23869e-07
7.78389e-09
-1.25355e-07
7.41746e-09
-1.26763e-07
7.03818e-09
-1.2809e-07
6.64653e-09
-1.29333e-07
6.24264e-09
-1.3049e-07
5.82607e-09
-1.31559e-07
5.39646e-09
-1.32536e-07
4.95406e-09
-1.33421e-07
4.49948e-09
-1.34209e-07
4.03312e-09
-1.349e-07
3.55485e-09
-1.3549e-07
3.06444e-09
-1.35978e-07
2.56209e-09
-1.3636e-07
2.04853e-09
-1.36637e-07
1.52453e-09
-1.36804e-07
9.90484e-10
-1.36861e-07
4.46453e-10
-1.36806e-07
-1.07328e-10
-1.36637e-07
-6.70129e-10
-1.36353e-07
-1.24092e-09
-1.35952e-07
-1.81882e-09
-1.35434e-07
-2.40325e-09
-1.34796e-07
-2.99375e-09
-1.34039e-07
-3.58953e-09
-1.33162e-07
-4.18947e-09
-1.32163e-07
-4.79225e-09
-1.31044e-07
-5.39677e-09
-1.29803e-07
-6.00224e-09
-1.28441e-07
-6.60789e-09
-1.26958e-07
-7.21269e-09
-1.25354e-07
-7.81528e-09
-1.2363e-07
-8.41428e-09
-1.21787e-07
-9.0085e-09
-1.19826e-07
-9.59704e-09
-1.17749e-07
-1.0179e-08
-1.15557e-07
-1.07534e-08
-1.13252e-07
-1.13189e-08
-1.10836e-07
-1.18742e-08
-1.08311e-07
-1.24179e-08
-1.05681e-07
-1.29491e-08
-1.02948e-07
-1.34669e-08
-1.00114e-07
-1.39701e-08
-9.71835e-08
-1.44574e-08
-9.416e-08
-1.49272e-08
-9.10473e-08
-1.53779e-08
-8.78495e-08
-1.5808e-08
-8.45709e-08
-1.62162e-08
-8.12164e-08
-1.66007e-08
-7.7791e-08
-1.69596e-08
-7.43005e-08
-1.72904e-08
-7.0751e-08
-1.75904e-08
-6.71492e-08
-1.78567e-08
-6.35025e-08
-1.80862e-08
-5.98187e-08
-1.82752e-08
-5.61068e-08
-1.84195e-08
-5.23765e-08
-1.85142e-08
-4.8639e-08
-1.85535e-08
-4.49062e-08
-1.85312e-08
-4.11915e-08
-1.844e-08
-3.75094e-08
-1.82725e-08
-3.38759e-08
-1.80204e-08
-3.03088e-08
-1.76747e-08
-2.68272e-08
-1.72261e-08
-2.34518e-08
-1.66648e-08
-2.02047e-08
-1.59811e-08
-1.71095e-08
-1.51661e-08
-1.41906e-08
-1.42122e-08
-1.14733e-08
-1.31139e-08
-8.98329e-09
-1.18689e-08
-6.74618e-09
-1.04797e-08
-4.78726e-09
-8.95573e-09
-3.13101e-09
-7.31616e-09
-1.80112e-09
-5.5937e-09
-8.2085e-10
-3.83963e-09
-2.12972e-10
-2.13371e-09
-6.02549e-10
-3.07557e-10
-5.20242e-12
-9.73875e-10
2.00318e-09
-1.91242e-09
4.65312e-09
-3.14601e-09
6.80828e-09
-4.67495e-09
8.5994e-09
-6.47613e-09
1.01359e-08
-8.51738e-09
1.14589e-08
-1.07717e-08
1.25907e-08
-1.32066e-08
1.35499e-08
-1.57946e-08
1.43542e-08
-1.85088e-08
1.50213e-08
-2.13267e-08
1.55677e-08
-2.42285e-08
1.60087e-08
-2.71961e-08
1.63573e-08
-3.02148e-08
1.6626e-08
-3.32717e-08
1.68267e-08
-3.63552e-08
1.69677e-08
-3.94568e-08
1.70605e-08
-4.25675e-08
1.71098e-08
-4.56815e-08
1.71251e-08
-4.87931e-08
1.71107e-08
-5.18975e-08
1.70718e-08
-5.49906e-08
1.70122e-08
-5.80687e-08
1.69349e-08
-6.11291e-08
1.68429e-08
-6.41692e-08
1.67383e-08
-6.71863e-08
1.6622e-08
-7.01787e-08
1.64952e-08
-7.31447e-08
1.63587e-08
-7.6082e-08
1.62128e-08
-7.89886e-08
1.60574e-08
-8.18631e-08
1.58929e-08
-8.4704e-08
1.57196e-08
-8.75094e-08
1.5537e-08
-9.02773e-08
1.53444e-08
-9.30059e-08
1.51416e-08
-9.56937e-08
1.49288e-08
-9.83387e-08
1.47058e-08
-1.00939e-07
1.44721e-08
-1.03492e-07
1.42269e-08
-1.05996e-07
1.39698e-08
-1.0845e-07
1.37013e-08
-1.1085e-07
1.3421e-08
-1.13195e-07
1.3128e-08
-1.15482e-07
1.28217e-08
-1.1771e-07
1.25024e-08
-1.19875e-07
1.21702e-08
-1.21976e-07
1.18245e-08
-1.2401e-07
1.14643e-08
-1.25974e-07
1.10894e-08
-1.27867e-07
1.07002e-08
-1.29685e-07
1.02969e-08
-1.31427e-07
9.87898e-09
-1.33089e-07
9.44571e-09
-1.34668e-07
8.99694e-09
-1.36163e-07
8.53306e-09
-1.37571e-07
8.05433e-09
-1.38889e-07
7.5605e-09
-1.40114e-07
7.05115e-09
-1.41243e-07
6.52622e-09
-1.42276e-07
5.9862e-09
-1.43208e-07
5.43165e-09
-1.44037e-07
4.86268e-09
-1.44762e-07
4.27907e-09
-1.45378e-07
3.68082e-09
-1.45884e-07
3.06852e-09
-1.46279e-07
2.44304e-09
-1.46559e-07
1.80502e-09
-1.46724e-07
1.15471e-09
-1.46769e-07
4.92332e-10
-1.46695e-07
-1.81539e-10
-1.46499e-07
-8.65911e-10
-1.46181e-07
-1.55967e-09
-1.45738e-07
-2.26196e-09
-1.45169e-07
-2.97219e-09
-1.44473e-07
-3.68966e-09
-1.43649e-07
-4.41322e-09
-1.42697e-07
-5.14142e-09
-1.41616e-07
-5.87288e-09
-1.40407e-07
-6.60652e-09
-1.39068e-07
-7.3414e-09
-1.37599e-07
-8.07644e-09
-1.36001e-07
-8.81022e-09
-1.34276e-07
-9.5411e-09
-1.32422e-07
-1.02675e-08
-1.30443e-07
-1.09883e-08
-1.28338e-07
-1.17021e-08
-1.26109e-07
-1.2408e-08
-1.23758e-07
-1.31045e-08
-1.21286e-07
-1.379e-08
-1.18698e-07
-1.44628e-08
-1.15994e-07
-1.51217e-08
-1.13178e-07
-1.57654e-08
-1.10252e-07
-1.63928e-08
-1.0722e-07
-1.70022e-08
-1.04085e-07
-1.7592e-08
-1.00852e-07
-1.81604e-08
-9.75242e-08
-1.87056e-08
-9.41064e-08
-1.92259e-08
-9.06031e-08
-1.97195e-08
-8.70194e-08
-2.01844e-08
-8.3361e-08
-2.0618e-08
-7.9634e-08
-2.10174e-08
-7.58448e-08
-2.13796e-08
-7.20006e-08
-2.17009e-08
-6.81092e-08
-2.19777e-08
-6.41789e-08
-2.22055e-08
-6.02192e-08
-2.23792e-08
-5.62405e-08
-2.24929e-08
-5.22543e-08
-2.25397e-08
-4.82733e-08
-2.25122e-08
-4.43113e-08
-2.2402e-08
-4.03836e-08
-2.22002e-08
-3.65069e-08
-2.18971e-08
-3.26994e-08
-2.14822e-08
-2.89811e-08
-2.09445e-08
-2.53733e-08
-2.02726e-08
-2.18989e-08
-1.94555e-08
-1.85822e-08
-1.84828e-08
-1.54486e-08
-1.73458e-08
-1.25244e-08
-1.60381e-08
-9.83672e-09
-1.45566e-08
-7.41313e-09
-1.29033e-08
-5.2814e-09
-1.10875e-08
-3.46942e-09