/*--------------------------------*- C++ -*----------------------------------*\
| =========                 |                                                 |
| \\      /  F ield         | OpenFOAM: The Open Source CFD Toolbox           |
|  \\    /   O peration     | Version:  2112                                  |
|   \\  /    A nd           | Website:  www.openfoam.com                      |
|    \\/     M anipulation  |                                                 |
\*---------------------------------------------------------------------------*/
FoamFile
{
    version     2.0;
    format      ascii;
    arch        "LSB;label=32;scalar=64";
    class       volVectorField;
    location    "0.3";
    object      U;
}
// * * * * * * * * * * * * * * * * * * * * * * * * * * * * * * * * * * * * * //

dimensions      [0 1 -1 0 0 0 0];

internalField   nonuniform List<vector> 
16641
(
(-5.17826e-06 -9.53385e-06 0)
(4.52177e-06 1.77699e-05 0)
(-4.972e-05 4.69049e-05 0)
(-0.00010148 3.52075e-05 0)
(-0.000148518 1.87235e-05 0)
(-0.000177099 1.03475e-05 0)
(-0.000198776 5.4207e-06 0)
(-0.000218849 4.80902e-06 0)
(-0.000238974 4.94604e-06 0)
(-0.000262254 5.49971e-06 0)
(-0.000286152 6.10425e-06 0)
(-0.000312771 6.06304e-06 0)
(-0.000340828 6.68617e-06 0)
(-0.000369996 7.71155e-06 0)
(-0.000401292 8.37457e-06 0)
(-0.00043342 8.64593e-06 0)
(-0.000466051 9.49317e-06 0)
(-0.000499603 9.75085e-06 0)
(-0.000534268 9.8749e-06 0)
(-0.000568641 1.02712e-05 0)
(-0.000603633 1.03284e-05 0)
(-0.000639203 1.00248e-05 0)
(-0.000674033 9.97092e-06 0)
(-0.000709259 1.02876e-05 0)
(-0.000744809 1.02157e-05 0)
(-0.000779926 9.93574e-06 0)
(-0.000814826 9.83404e-06 0)
(-0.000849879 9.59144e-06 0)
(-0.000884879 9.29335e-06 0)
(-0.000919589 9.55842e-06 0)
(-0.000954202 1.03207e-05 0)
(-0.000988874 1.07256e-05 0)
(-0.00102337 1.04691e-05 0)
(-0.00105741 1.00282e-05 0)
(-0.00109104 9.75652e-06 0)
(-0.00112445 9.58682e-06 0)
(-0.00115761 9.48217e-06 0)
(-0.00119028 9.53376e-06 0)
(-0.00122251 9.67691e-06 0)
(-0.00125444 9.61209e-06 0)
(-0.00128597 9.2919e-06 0)
(-0.00131689 9.04097e-06 0)
(-0.00134716 9.01796e-06 0)
(-0.00137693 8.99916e-06 0)
(-0.00140619 8.74518e-06 0)
(-0.00143479 8.37303e-06 0)
(-0.00146265 8.14926e-06 0)
(-0.00148984 8.05211e-06 0)
(-0.00151641 7.86796e-06 0)
(-0.00154231 7.56262e-06 0)
(-0.00156736 7.2825e-06 0)
(-0.0015915 7.09784e-06 0)
(-0.00161478 6.89938e-06 0)
(-0.00163718 6.55085e-06 0)
(-0.00165855 6.0964e-06 0)
(-0.00167879 5.7211e-06 0)
(-0.00169797 5.48672e-06 0)
(-0.00171615 5.25111e-06 0)
(-0.00173331 4.89636e-06 0)
(-0.00174935 4.48506e-06 0)
(-0.00176417 4.13387e-06 0)
(-0.00177772 3.84604e-06 0)
(-0.00179004 3.52399e-06 0)
(-0.00180112 3.10333e-06 0)
(-0.00181085 2.63763e-06 0)
(-0.00181918 2.23248e-06 0)
(-0.00182613 1.90461e-06 0)
(-0.00183169 1.55288e-06 0)
(-0.00183578 1.0842e-06 0)
(-0.00183828 5.22641e-07 0)
(-0.00183908 -3.63792e-08 0)
(-0.00183817 -5.46639e-07 0)
(-0.00183558 -1.04728e-06 0)
(-0.00183132 -1.59503e-06 0)
(-0.00182537 -2.19428e-06 0)
(-0.00181768 -2.7949e-06 0)
(-0.00180822 -3.34764e-06 0)
(-0.001797 -3.85994e-06 0)
(-0.00178405 -4.38821e-06 0)
(-0.00176936 -4.96857e-06 0)
(-0.00175292 -5.56903e-06 0)
(-0.00173474 -6.12098e-06 0)
(-0.00171485 -6.59031e-06 0)
(-0.00169332 -7.01032e-06 0)
(-0.0016702 -7.44567e-06 0)
(-0.00164548 -7.92794e-06 0)
(-0.00161914 -8.4305e-06 0)
(-0.00159117 -8.90449e-06 0)
(-0.00156158 -9.33202e-06 0)
(-0.00153041 -9.74374e-06 0)
(-0.00149769 -1.01893e-05 0)
(-0.00146342 -1.06881e-05 0)
(-0.00142759 -1.12056e-05 0)
(-0.00139024 -1.16852e-05 0)
(-0.00135141 -1.21073e-05 0)
(-0.00131115 -1.25078e-05 0)
(-0.00126947 -1.2937e-05 0)
(-0.00122641 -1.34075e-05 0)
(-0.001182 -1.38843e-05 0)
(-0.00113628 -1.43171e-05 0)
(-0.00108935 -1.46765e-05 0)
(-0.00104131 -1.49699e-05 0)
(-0.000992278 -1.5227e-05 0)
(-0.000942357 -1.54701e-05 0)
(-0.000891645 -1.56936e-05 0)
(-0.000840252 -1.58733e-05 0)
(-0.000788301 -1.59902e-05 0)
(-0.000735929 -1.6045e-05 0)
(-0.000683278 -1.6055e-05 0)
(-0.000630489 -1.60418e-05 0)
(-0.000577705 -1.60133e-05 0)
(-0.00052509 -1.5951e-05 0)
(-0.000472845 -1.58177e-05 0)
(-0.00042121 -1.55862e-05 0)
(-0.000370458 -1.52541e-05 0)
(-0.000320887 -1.48289e-05 0)
(-0.000272837 -1.43069e-05 0)
(-0.000226699 -1.36677e-05 0)
(-0.000182916 -1.28815e-05 0)
(-0.000141993 -1.19097e-05 0)
(-0.000104506 -1.07037e-05 0)
(-7.11006e-05 -9.23125e-06 0)
(-4.24618e-05 -7.49383e-06 0)
(-1.92988e-05 -5.50711e-06 0)
(-2.30488e-06 -3.28468e-06 0)
(7.92332e-06 -8.61312e-07 0)
(1.11427e-05 1.58035e-06 0)
(8.32365e-06 3.38866e-06 0)
(2.80019e-06 2.86206e-06 0)
(2.14246e-05 -5.72923e-06 0)
(2.52295e-05 2.32624e-05 0)
(-4.30247e-06 9.40124e-05 0)
(-6.87786e-05 8.651e-05 0)
(-0.000146618 6.42101e-05 0)
(-0.000220696 5.0206e-05 0)
(-0.000293902 4.48685e-05 0)
(-0.000368525 4.46134e-05 0)
(-0.00044794 4.68436e-05 0)
(-0.00052868 5.05314e-05 0)
(-0.000614747 5.391e-05 0)
(-0.000703935 5.61882e-05 0)
(-0.000795573 5.96506e-05 0)
(-0.000890728 6.16972e-05 0)
(-0.000987775 6.37609e-05 0)
(-0.00108615 6.59186e-05 0)
(-0.00118627 6.70929e-05 0)
(-0.00128748 6.82699e-05 0)
(-0.00138856 6.91215e-05 0)
(-0.00149083 7.00595e-05 0)
(-0.00159323 7.01545e-05 0)
(-0.00169514 7.04371e-05 0)
(-0.00179745 7.04722e-05 0)
(-0.00189964 7.03233e-05 0)
(-0.00200148 7.02293e-05 0)
(-0.0021029 7.01941e-05 0)
(-0.00220371 7.00556e-05 0)
(-0.00230394 6.95017e-05 0)
(-0.0024037 6.88265e-05 0)
(-0.0025028 6.85596e-05 0)
(-0.00260111 6.85808e-05 0)
(-0.00269867 6.84168e-05 0)
(-0.00279544 6.79169e-05 0)
(-0.00289124 6.73035e-05 0)
(-0.00298604 6.65476e-05 0)
(-0.00307995 6.56058e-05 0)
(-0.00317288 6.47699e-05 0)
(-0.00326454 6.42129e-05 0)
(-0.00335479 6.3643e-05 0)
(-0.0034438 6.27567e-05 0)
(-0.00353157 6.16206e-05 0)
(-0.00361785 6.05624e-05 0)
(-0.00370247 5.96171e-05 0)
(-0.00378556 5.85132e-05 0)
(-0.00386719 5.71758e-05 0)
(-0.00394709 5.58004e-05 0)
(-0.0040249 5.45162e-05 0)
(-0.00410056 5.31954e-05 0)
(-0.0041742 5.16729e-05 0)
(-0.00424573 5.00212e-05 0)
(-0.00431486 4.84102e-05 0)
(-0.00438146 4.67998e-05 0)
(-0.0044456 4.49911e-05 0)
(-0.00450735 4.29388e-05 0)
(-0.0045665 4.08279e-05 0)
(-0.00462271 3.88176e-05 0)
(-0.00467584 3.68466e-05 0)
(-0.00472602 3.47521e-05 0)
(-0.0047733 3.24918e-05 0)
(-0.00481744 3.01655e-05 0)
(-0.00485816 2.7848e-05 0)
(-0.00489543 2.54854e-05 0)
(-0.00492929 2.29812e-05 0)
(-0.00495971 2.03388e-05 0)
(-0.00498652 1.76693e-05 0)
(-0.00500949 1.50493e-05 0)
(-0.00502851 1.24044e-05 0)
(-0.0050436 9.58506e-06 0)
(-0.00505481 6.54301e-06 0)
(-0.005062 3.37529e-06 0)
(-0.00506487 1.95652e-07 0)
(-0.00506325 -2.98526e-06 0)
(-0.0050572 -6.23714e-06 0)
(-0.00504678 -9.60111e-06 0)
(-0.00503189 -1.3033e-05 0)
(-0.00501234 -1.64539e-05 0)
(-0.00498797 -1.98369e-05 0)
(-0.00495876 -2.32296e-05 0)
(-0.0049248 -2.66911e-05 0)
(-0.00488616 -3.02132e-05 0)
(-0.00484282 -3.37121e-05 0)
(-0.00479468 -3.71027e-05 0)
(-0.00474169 -4.03782e-05 0)
(-0.00468395 -4.36067e-05 0)
(-0.00462159 -4.68536e-05 0)
(-0.0045547 -5.01212e-05 0)
(-0.00448325 -5.33632e-05 0)
(-0.00440718 -5.65425e-05 0)
(-0.00432652 -5.96648e-05 0)
(-0.00424143 -6.27659e-05 0)
(-0.00415204 -6.58733e-05 0)
(-0.00405843 -6.89733e-05 0)
(-0.00396061 -7.20141e-05 0)
(-0.00385858 -7.49502e-05 0)
(-0.00375239 -7.77847e-05 0)
(-0.00364222 -8.05625e-05 0)
(-0.00352825 -8.33166e-05 0)
(-0.00341067 -8.60267e-05 0)
(-0.00328959 -8.86285e-05 0)
(-0.00316509 -9.10585e-05 0)
(-0.00303733 -9.32895e-05 0)
(-0.00290654 -9.53316e-05 0)
(-0.00277301 -9.72024e-05 0)
(-0.00263704 -9.88962e-05 0)
(-0.00249888 -0.000100379 0)
(-0.00235876 -0.000101613 0)
(-0.00221694 -0.000102581 0)
(-0.00207376 -0.000103288 0)
(-0.00192965 -0.000103737 0)
(-0.00178508 -0.000103915 0)
(-0.00164049 -0.000103778 0)
(-0.00149634 -0.000103259 0)
(-0.00135317 -0.000102283 0)
(-0.0012116 -0.000100791 0)
(-0.00107239 -9.87355e-05 0)
(-0.000936455 -9.60655e-05 0)
(-0.000804787 -9.26946e-05 0)
(-0.000678446 -8.85014e-05 0)
(-0.000558547 -8.33555e-05 0)
(-0.000446314 -7.71431e-05 0)
(-0.000343131 -6.97644e-05 0)
(-0.000250543 -6.11337e-05 0)
(-0.000170176 -5.1208e-05 0)
(-0.000103627 -4.00085e-05 0)
(-5.22825e-05 -2.76896e-05 0)
(-1.70425e-05 -1.47237e-05 0)
(2.14233e-06 -2.22412e-06 0)
(7.25057e-06 7.29676e-06 0)
(3.30395e-06 8.36655e-06 0)
(4.67026e-05 -5.81594e-05 0)
(7.70093e-05 1.64023e-05 0)
(6.84878e-05 0.000136692 0)
(1.25456e-05 0.000157969 0)
(-7.79422e-05 0.00015146 0)
(-0.000182529 0.000144375 0)
(-0.000299421 0.000145823 0)
(-0.000426268 0.000149353 0)
(-0.000558682 0.000156923 0)
(-0.000698603 0.000164894 0)
(-0.00084401 0.000171397 0)
(-0.000993319 0.000179596 0)
(-0.00114702 0.000184512 0)
(-0.0013039 0.000189886 0)
(-0.00146254 0.000194039 0)
(-0.00162437 0.00019714 0)
(-0.0017868 0.000199613 0)
(-0.00194969 0.000201615 0)
(-0.00211409 0.000202934 0)
(-0.00227827 0.000203506 0)
(-0.00244225 0.000204381 0)
(-0.00260604 0.000204226 0)
(-0.00276936 0.000203785 0)
(-0.00293211 0.000203297 0)
(-0.00309438 0.000202564 0)
(-0.00325572 0.000201878 0)
(-0.00341593 0.000201162 0)
(-0.0035752 0.000200055 0)
(-0.00373327 0.000198603 0)
(-0.00388989 0.000197213 0)
(-0.00404522 0.000195863 0)
(-0.00419942 0.000194366 0)
(-0.00435223 0.000192745 0)
(-0.00450326 0.000191043 0)
(-0.00465262 0.000189095 0)
(-0.00480044 0.000186832 0)
(-0.00494646 0.000184474 0)
(-0.00509035 0.000182233 0)
(-0.00523214 0.000179889 0)
(-0.00537193 0.00017719 0)
(-0.00550951 0.000174242 0)
(-0.00564454 0.00017125 0)
(-0.00577702 0.000168199 0)
(-0.00590713 0.000164871 0)
(-0.0060347 0.000161223 0)
(-0.00615928 0.000157479 0)
(-0.00628064 0.000153708 0)
(-0.00639881 0.000149706 0)
(-0.00651385 0.000145373 0)
(-0.00662549 0.000140849 0)
(-0.00673331 0.000136245 0)
(-0.00683727 0.000131475 0)
(-0.00693755 0.000126371 0)
(-0.00703399 0.000120908 0)
(-0.0071262 0.00011527 0)
(-0.00721387 0.00010962 0)
(-0.00729695 0.000103877 0)
(-0.00737546 9.78587e-05 0)
(-0.00744929 9.15475e-05 0)
(-0.00751811 8.50682e-05 0)
(-0.00758159 7.84694e-05 0)
(-0.00763972 7.16666e-05 0)
(-0.00769258 6.4577e-05 0)
(-0.00774 5.72414e-05 0)
(-0.00778161 4.97869e-05 0)
(-0.00781714 4.22708e-05 0)
(-0.00784653 3.45934e-05 0)
(-0.00786985 2.66013e-05 0)
(-0.00788704 1.82635e-05 0)
(-0.00789784 9.69811e-06 0)
(-0.00790197 1.02318e-06 0)
(-0.00789932 -7.76078e-06 0)
(-0.00788992 -1.67247e-05 0)
(-0.00787377 -2.58964e-05 0)
(-0.00785067 -3.52173e-05 0)
(-0.00782038 -4.45965e-05 0)
(-0.00778276 -5.39967e-05 0)
(-0.00773785 -6.34587e-05 0)
(-0.00768573 -7.30307e-05 0)
(-0.0076264 -8.26827e-05 0)
(-0.00755974 -9.23107e-05 0)
(-0.00748562 -0.00010182 0)
(-0.00740402 -0.000111198 0)
(-0.00731507 -0.000120501 0)
(-0.00721888 -0.000129785 0)
(-0.00711551 -0.000139039 0)
(-0.00700492 -0.000148206 0)
(-0.0068871 -0.000157239 0)
(-0.00676215 -0.000166142 0)
(-0.0066303 -0.000174941 0)
(-0.00649176 -0.000183651 0)
(-0.0063466 -0.000192242 0)
(-0.00619486 -0.000200658 0)
(-0.00603661 -0.000208847 0)
(-0.00587204 -0.000216806 0)
(-0.0057014 -0.00022456 0)
(-0.00552498 -0.000232119 0)
(-0.00534301 -0.000239441 0)
(-0.00515566 -0.000246446 0)
(-0.00496311 -0.000253059 0)
(-0.00476562 -0.000259233 0)
(-0.00456353 -0.000264958 0)
(-0.00435724 -0.000270224 0)
(-0.00414712 -0.000274997 0)
(-0.00393352 -0.000279211 0)
(-0.00371681 -0.000282796 0)
(-0.00349739 -0.0002857 0)
(-0.00327583 -0.000287887 0)
(-0.00305278 -0.000289312 0)
(-0.00282893 -0.000289902 0)
(-0.00260499 -0.000289546 0)
(-0.0023817 -0.000288098 0)
(-0.00215991 -0.000285396 0)
(-0.00194062 -0.000281272 0)
(-0.00172504 -0.000275566 0)
(-0.00151452 -0.000268103 0)
(-0.00131051 -0.00025867 0)
(-0.00111459 -0.000247012 0)
(-0.000928414 -0.000232859 0)
(-0.000753777 -0.00021596 0)
(-0.000592667 -0.000196098 0)
(-0.000447234 -0.000173118 0)
(-0.000319675 -0.000146983 0)
(-0.000212061 -0.000117864 0)
(-0.000126096 -8.63306e-05 0)
(-6.27858e-05 -5.36944e-05 0)
(-2.20093e-05 -2.25495e-05 0)
(-1.92996e-06 2.24287e-06 0)
(1.60888e-06 1.12489e-05 0)
(3.10643e-05 -9.74496e-05 0)
(4.83667e-05 -1.03531e-06 0)
(3.68402e-05 0.000167522 0)
(-1.6506e-05 0.00023271 0)
(-0.000112395 0.000255297 0)
(-0.000235796 0.000272737 0)
(-0.000380615 0.000286028 0)
(-0.000542175 0.000303264 0)
(-0.000716026 0.000318458 0)
(-0.0009004 0.000333026 0)
(-0.00109205 0.000347399 0)
(-0.00129128 0.000358865 0)
(-0.0014964 0.000368924 0)
(-0.0017044 0.000377544 0)
(-0.0019169 0.000383864 0)
(-0.00213121 0.000388782 0)
(-0.00234732 0.000393115 0)
(-0.00256493 0.000395228 0)
(-0.00278282 0.000396847 0)
(-0.00300082 0.000397658 0)
(-0.00321885 0.000397847 0)
(-0.00343657 0.000397361 0)
(-0.00365334 0.000396313 0)
(-0.00386928 0.000394738 0)
(-0.00408409 0.000392896 0)
(-0.00429758 0.000391023 0)
(-0.00450993 0.000388902 0)
(-0.004721 0.000386547 0)
(-0.00493024 0.000384066 0)
(-0.0051375 0.000381323 0)
(-0.005343 0.000378153 0)
(-0.00554663 0.000374694 0)
(-0.00574816 0.000371236 0)
(-0.00594757 0.000367655 0)
(-0.0061449 0.000363658 0)
(-0.00633991 0.000359298 0)
(-0.00653219 0.000354814 0)
(-0.0067217 0.000350176 0)
(-0.00690859 0.000345165 0)
(-0.00709268 0.000339757 0)
(-0.00727358 0.000334171 0)
(-0.00745111 0.000328407 0)
(-0.00762537 0.000322234 0)
(-0.00779637 0.000315601 0)
(-0.00796368 0.000308677 0)
(-0.00812691 0.000301575 0)
(-0.00828605 0.000294188 0)
(-0.00844114 0.000286326 0)
(-0.00859192 0.000277995 0)
(-0.008738 0.000269386 0)
(-0.00887916 0.000260537 0)
(-0.00901543 0.000251237 0)
(-0.00914676 0.000241369 0)
(-0.00927283 0.000231086 0)
(-0.00939323 0.000220567 0)
(-0.00950771 0.000209787 0)
(-0.0096163 0.000198596 0)
(-0.00971891 0.000186927 0)
(-0.0098152 0.000174861 0)
(-0.00990475 0.000162501 0)
(-0.00998742 0.000149812 0)
(-0.0100632 0.000136665 0)
(-0.010132 0.000123028 0)
(-0.0101934 0.00010903 0)
(-0.0102471 9.48018e-05 0)
(-0.010293 8.0316e-05 0)
(-0.0103309 6.54294e-05 0)
(-0.0103608 5.00562e-05 0)
(-0.0103825 3.42482e-05 0)
(-0.0103958 1.81228e-05 0)
(-0.0104003 1.74473e-06 0)
(-0.0103961 -1.49156e-05 0)
(-0.0103831 -3.19126e-05 0)
(-0.0103613 -4.92263e-05 0)
(-0.0103302 -6.67587e-05 0)
(-0.0102898 -8.44246e-05 0)
(-0.01024 -0.000102219 0)
(-0.0101808 -0.000120182 0)
(-0.0101122 -0.000138317 0)
(-0.0100342 -0.00015654 0)
(-0.00994651 -0.000174728 0)
(-0.00984916 -0.000192804 0)
(-0.00974216 -0.000210776 0)
(-0.00962561 -0.000228687 0)
(-0.0094996 -0.000246536 0)
(-0.00936415 -0.000264262 0)
(-0.00921924 -0.000281789 0)
(-0.00906492 -0.000299084 0)
(-0.00890137 -0.000316158 0)
(-0.00872883 -0.000333025 0)
(-0.0085475 -0.000349655 0)
(-0.00835749 -0.000365982 0)
(-0.00815889 -0.000381937 0)
(-0.00795185 -0.000397485 0)
(-0.00773665 -0.00041262 0)
(-0.00751361 -0.00042734 0)
(-0.00728306 -0.000441613 0)
(-0.00704526 -0.000455366 0)
(-0.00680045 -0.000468496 0)
(-0.0065489 -0.00048092 0)
(-0.006291 -0.000492588 0)
(-0.00602718 -0.000503466 0)
(-0.0057579 -0.000513504 0)
(-0.00548359 -0.000522613 0)
(-0.00520473 -0.000530682 0)
(-0.0049218 -0.000537596 0)
(-0.0046354 -0.000543254 0)
(-0.00434623 -0.000547561 0)
(-0.00405513 -0.000550403 0)
(-0.00376297 -0.000551615 0)
(-0.00347064 -0.000550976 0)
(-0.00317915 -0.000548226 0)
(-0.00288962 -0.000543091 0)
(-0.00260338 -0.000535282 0)
(-0.00232194 -0.000524492 0)
(-0.00204701 -0.000510382 0)
(-0.0017804 -0.000492574 0)
(-0.00152406 -0.000470649 0)
(-0.00128006 -0.000444171 0)
(-0.00105066 -0.000412746 0)
(-0.000838253 -0.00037606 0)
(-0.000645403 -0.000333925 0)
(-0.000474648 -0.000286364 0)
(-0.000328351 -0.000233776 0)
(-0.000208467 -0.000177231 0)
(-0.000116183 -0.000118963 0)
(-5.15686e-05 -6.3043e-05 0)
(-1.37039e-05 -1.64283e-05 0)
(-6.7554e-07 8.35358e-06 0)
(1.0959e-05 -0.000120163 0)
(5.73338e-06 -5.82234e-06 0)
(-2.13919e-05 0.000200265 0)
(-8.64376e-05 0.000309713 0)
(-0.000191039 0.000371313 0)
(-0.000330578 0.000414707 0)
(-0.00049815 0.000454053 0)
(-0.000686607 0.000486316 0)
(-0.000893647 0.00051632 0)
(-0.00111253 0.000542008 0)
(-0.00134403 0.000564599 0)
(-0.0015846 0.000582709 0)
(-0.00183128 0.000599127 0)
(-0.00208456 0.000611417 0)
(-0.00234161 0.000621267 0)
(-0.0026018 0.000629219 0)
(-0.0028647 0.000634349 0)
(-0.0031289 0.000638116 0)
(-0.00339381 0.000640114 0)
(-0.00365898 0.00064104 0)
(-0.00392393 0.000640552 0)
(-0.00418857 0.00063946 0)
(-0.00445234 0.000637591 0)
(-0.00471488 0.000635044 0)
(-0.00497596 0.000632088 0)
(-0.00523548 0.000628536 0)
(-0.00549336 0.000624449 0)
(-0.00574936 0.000620244 0)
(-0.00600333 0.000615986 0)
(-0.00625522 0.000611309 0)
(-0.00650487 0.000606129 0)
(-0.0067519 0.000600598 0)
(-0.00699622 0.000594747 0)
(-0.00723801 0.000588433 0)
(-0.00747714 0.000581687 0)
(-0.0077132 0.000574694 0)
(-0.00794596 0.000567447 0)
(-0.0081755 0.000559676 0)
(-0.00840176 0.000551326 0)
(-0.00862431 0.000542583 0)
(-0.00884287 0.000533552 0)
(-0.00905748 0.000524075 0)
(-0.00926813 0.000513944 0)
(-0.00947451 0.000503247 0)
(-0.00967619 0.000492198 0)
(-0.00987297 0.000480745 0)
(-0.0100649 0.000468663 0)
(-0.0102518 0.000455912 0)
(-0.0104333 0.000442649 0)
(-0.010609 0.000428929 0)
(-0.0107788 0.000414621 0)
(-0.0109428 0.000399586 0)
(-0.0111006 0.000383851 0)
(-0.0112519 0.000367581 0)
(-0.0113962 0.000350858 0)
(-0.0115335 0.000333568 0)
(-0.0116637 0.000315567 0)
(-0.0117865 0.000296887 0)
(-0.0119016 0.00027766 0)
(-0.0120085 0.000257914 0)
(-0.0121073 0.000237545 0)
(-0.0121977 0.000216472 0)
(-0.0122795 0.000194745 0)
(-0.0123524 0.000172486 0)
(-0.0124159 0.000149764 0)
(-0.01247 0.000126522 0)
(-0.0125146 0.000102655 0)
(-0.0125495 7.81373e-05 0)
(-0.0125745 5.30597e-05 0)
(-0.0125891 2.75264e-05 0)
(-0.0125933 1.55214e-06 0)
(-0.0125871 -2.49075e-05 0)
(-0.0125702 -5.18582e-05 0)
(-0.0125426 -7.92251e-05 0)
(-0.012504 -0.000106901 0)
(-0.0124541 -0.000134825 0)
(-0.012393 -0.000163007 0)
(-0.0123207 -0.000191463 0)
(-0.0122371 -0.000220141 0)
(-0.0121422 -0.000248918 0)
(-0.0120356 -0.000277673 0)
(-0.0119175 -0.000306346 0)
(-0.0117879 -0.000334937 0)
(-0.0116469 -0.000363456 0)
(-0.0114945 -0.000391858 0)
(-0.0113308 -0.000420046 0)
(-0.0111558 -0.000447927 0)
(-0.0109695 -0.000475457 0)
(-0.0107722 -0.000502635 0)
(-0.0105642 -0.000529453 0)
(-0.0103456 -0.000555856 0)
(-0.0101165 -0.000581747 0)
(-0.0098772 -0.000607037 0)
(-0.00962781 -0.000631676 0)
(-0.0093687 -0.00065565 0)
(-0.00910025 -0.000678933 0)
(-0.00882278 -0.000701452 0)
(-0.00853661 -0.000723104 0)
(-0.00824203 -0.000743776 0)
(-0.00793944 -0.000763368 0)
(-0.00762929 -0.000781805 0)
(-0.0073121 -0.000799012 0)
(-0.00698839 -0.000814898 0)
(-0.00665867 -0.00082933 0)
(-0.00632349 -0.000842144 0)
(-0.00598347 -0.000853161 0)
(-0.00563934 -0.000862213 0)
(-0.00529198 -0.000869126 0)
(-0.00494235 -0.000873695 0)
(-0.00459144 -0.00087565 0)
(-0.00424033 -0.000874651 0)
(-0.0038902 -0.000870306 0)
(-0.00354242 -0.000862196 0)
(-0.00319857 -0.000849881 0)
(-0.00286043 -0.00083289 0)
(-0.00252996 -0.000810706 0)
(-0.00220924 -0.000782767 0)
(-0.00190049 -0.000748481 0)
(-0.00160609 -0.000707251 0)
(-0.00132863 -0.000658539 0)
(-0.00107081 -0.000601937 0)
(-0.000835474 -0.000537245 0)
(-0.000625391 -0.000464597 0)
(-0.000443145 -0.000384666 0)
(-0.000290942 -0.000299017 0)
(-0.000170293 -0.000210671 0)
(-8.17237e-05 -0.000124875 0)
(-2.56235e-05 -5.01687e-05 0)
(-2.91397e-06 -1.06988e-06 0)
(-6.13733e-07 -0.000113654 0)
(-2.67917e-05 1.84562e-05 0)
(-7.63144e-05 0.000254308 0)
(-0.000155318 0.000402334 0)
(-0.00027881 0.000501797 0)
(-0.000434627 0.000578983 0)
(-0.000621954 0.000642914 0)
(-0.000836578 0.000697918 0)
(-0.00106955 0.000745005 0)
(-0.00132078 0.000785185 0)
(-0.00158506 0.000817948 0)
(-0.00186011 0.000846475 0)
(-0.0021445 0.000868904 0)
(-0.00243564 0.000887032 0)
(-0.00273162 0.00090137 0)
(-0.00303192 0.000911931 0)
(-0.00333518 0.00091933 0)
(-0.0036402 0.00092441 0)
(-0.00394619 0.000927141 0)
(-0.00425262 0.000928121 0)
(-0.00455902 0.000927344 0)
(-0.00486467 0.000925276 0)
(-0.00516943 0.000922246 0)
(-0.0054728 0.00091848 0)
(-0.00577464 0.000914051 0)
(-0.0060748 0.000908795 0)
(-0.00637278 0.000902876 0)
(-0.00666831 0.00089652 0)
(-0.00696154 0.000889707 0)
(-0.00725242 0.000882367 0)
(-0.00754054 0.00087465 0)
(-0.00782564 0.00086656 0)
(-0.00810771 0.000857834 0)
(-0.00838669 0.000848411 0)
(-0.00866224 0.00083851 0)
(-0.00893412 0.000828228 0)
(-0.00920234 0.000817403 0)
(-0.00946687 0.000805834 0)
(-0.00972733 0.000793616 0)
(-0.00998331 0.000780935 0)
(-0.0102347 0.000767672 0)
(-0.0104816 0.000753614 0)
(-0.0107238 0.000738783 0)
(-0.0109607 0.000723346 0)
(-0.0111921 0.000707318 0)
(-0.011418 0.00069054 0)
(-0.0116383 0.000672886 0)
(-0.0118525 0.000654415 0)
(-0.0120603 0.000635257 0)
(-0.0122615 0.000615369 0)
(-0.0124561 0.000594558 0)
(-0.0126437 0.00057276 0)
(-0.0128241 0.000550118 0)
(-0.0129967 0.000526756 0)
(-0.0131614 0.000502616 0)
(-0.013318 0.00047756 0)
(-0.0134664 0.000451545 0)
(-0.0136062 0.000424657 0)
(-0.0137369 0.000396978 0)
(-0.0138584 0.000368472 0)
(-0.0139705 0.00033904 0)
(-0.0140729 0.000308658 0)
(-0.0141654 0.00027743 0)
(-0.0142474 0.000245468 0)
(-0.0143188 0.000212767 0)
(-0.0143794 0.000179234 0)
(-0.0144292 0.000144821 0)
(-0.0144677 0.000109592 0)
(-0.0144947 7.36614e-05 0)
(-0.0145099 3.70904e-05 0)
(-0.0145132 -1.43627e-07 0)
(-0.0145045 -3.80728e-05 0)
(-0.0144836 -7.66493e-05 0)
(-0.0144504 -0.000115753 0)
(-0.0144044 -0.00015528 0)
(-0.0143457 -0.000195196 0)
(-0.0142742 -0.000235504 0)
(-0.0141899 -0.000276177 0)
(-0.0140927 -0.000317114 0)
(-0.0139824 -0.00035817 0)
(-0.0138589 -0.000399232 0)
(-0.0137222 -0.000440248 0)
(-0.0135725 -0.000481205 0)
(-0.0134098 -0.000522059 0)
(-0.0132342 -0.000562713 0)
(-0.0130455 -0.000603046 0)
(-0.012844 -0.00064296 0)
(-0.0126297 -0.000682401 0)
(-0.0124029 -0.000721343 0)
(-0.0121638 -0.000759735 0)
(-0.0119127 -0.000797486 0)
(-0.0116496 -0.00083448 0)
(-0.0113748 -0.000870617 0)
(-0.0110886 -0.000905835 0)
(-0.0107914 -0.000940087 0)
(-0.0104836 -0.000973311 0)
(-0.0101654 -0.0010054 0)
(-0.00983737 -0.00103622 0)
(-0.00949974 -0.00106565 0)
(-0.009153 -0.00109355 0)
(-0.00879772 -0.00111984 0)
(-0.00843445 -0.0011444 0)
(-0.00806379 -0.00116706 0)
(-0.00768629 -0.00118764 0)
(-0.00730259 -0.00120592 0)
(-0.00691342 -0.00122167 0)
(-0.00651965 -0.00123463 0)
(-0.00612227 -0.00124455 0)
(-0.00572235 -0.00125109 0)
(-0.00532099 -0.00125388 0)
(-0.0049194 -0.00125243 0)
(-0.00451892 -0.00124622 0)
(-0.00412112 -0.00123467 0)
(-0.00372776 -0.00121718 0)
(-0.00334084 -0.00119309 0)
(-0.00296249 -0.00116171 0)
(-0.00259501 -0.00112226 0)
(-0.00224082 -0.00107398 0)
(-0.00190252 -0.0010161 0)
(-0.00158291 -0.000947974 0)
(-0.00128495 -0.0008691 0)
(-0.00101167 -0.000779275 0)
(-0.000766054 -0.000678736 0)
(-0.000550877 -0.000568412 0)
(-0.000368635 -0.000450289 0)
(-0.000221284 -0.000327988 0)
(-0.000109989 -0.000207547 0)
(-3.65966e-05 -9.85422e-05 0)
(-4.89224e-06 -1.66277e-05 0)
(-8.58936e-06 -9.12244e-05 0)
(-4.86494e-05 6.62991e-05 0)
(-0.000117733 0.000328619 0)
(-0.000220008 0.000513429 0)
(-0.000358593 0.000649855 0)
(-0.000535702 0.000762018 0)
(-0.0007445 0.000854258 0)
(-0.000979398 0.000934298 0)
(-0.00123903 0.00100096 0)
(-0.00151682 0.00105719 0)
(-0.0018103 0.00110446 0)
(-0.00211641 0.00114287 0)
(-0.0024328 0.00117385 0)
(-0.00275694 0.00119891 0)
(-0.00308725 0.0012182 0)
(-0.0034225 0.00123224 0)
(-0.00376102 0.00124249 0)
(-0.00410162 0.00124894 0)
(-0.00444363 0.00125275 0)
(-0.00478625 0.0012537 0)
(-0.00512883 0.00125271 0)
(-0.0054707 0.00124985 0)
(-0.00581134 0.00124557 0)
(-0.00615042 0.00124018 0)
(-0.00648794 0.00123372 0)
(-0.00682356 0.00122641 0)
(-0.00715668 0.00121847 0)
(-0.00748715 0.00120976 0)
(-0.007815 0.00120018 0)
(-0.00813993 0.00118993 0)
(-0.00846163 0.00117917 0)
(-0.00878007 0.00116781 0)
(-0.00909518 0.00115564 0)
(-0.00940657 0.00114275 0)
(-0.00971394 0.00112928 0)
(-0.0100172 0.0011151 0)
(-0.0103164 0.00110003 0)
(-0.0106113 0.00108413 0)
(-0.0109014 0.00106754 0)
(-0.0111865 0.00105021 0)
(-0.0114666 0.00103198 0)
(-0.0117415 0.00101272 0)
(-0.0120108 0.000992549 0)
(-0.0122741 0.000971611 0)
(-0.0125314 0.00094979 0)
(-0.0127824 0.000926872 0)
(-0.013027 0.000902853 0)
(-0.0132647 0.000877879 0)
(-0.0134951 0.000851954 0)
(-0.0137183 0.000824917 0)
(-0.0139339 0.000796647 0)
(-0.0141417 0.000767203 0)
(-0.0143412 0.000736722 0)
(-0.014532 0.000705222 0)
(-0.0147139 0.000672576 0)
(-0.014887 0.000638675 0)
(-0.0150507 0.000603566 0)
(-0.0152046 0.000567368 0)
(-0.0153484 0.000530093 0)
(-0.015482 0.000491633 0)
(-0.0156051 0.000451915 0)
(-0.0157174 0.000411014 0)
(-0.0158184 0.000369063 0)
(-0.0159078 0.000326109 0)
(-0.0159854 0.000282089 0)
(-0.0160512 0.000236927 0)
(-0.0161048 0.000190644 0)
(-0.0161458 0.000143362 0)
(-0.0161739 9.51877e-05 0)
(-0.016189 4.61419e-05 0)
(-0.0161909 -3.80774e-06 0)
(-0.0161794 -5.46489e-05 0)
(-0.0161544 -0.000106285 0)
(-0.0161156 -0.000158581 0)
(-0.0160628 -0.000211447 0)
(-0.0159958 -0.000264856 0)
(-0.0159147 -0.000318792 0)
(-0.0158194 -0.000373174 0)
(-0.0157098 -0.000427852 0)
(-0.0155857 -0.000482671 0)
(-0.0154469 -0.000537534 0)
(-0.0152937 -0.000592395 0)
(-0.0151262 -0.000647207 0)
(-0.0149442 -0.000701868 0)
(-0.0147479 -0.000756228 0)
(-0.0145372 -0.000810142 0)
(-0.0143123 -0.000863514 0)
(-0.0140734 -0.000916287 0)
(-0.0138207 -0.000968395 0)
(-0.0135545 -0.00101974 0)
(-0.013275 -0.00107018 0)
(-0.0129822 -0.00111958 0)
(-0.0126765 -0.00116784 0)
(-0.0123583 -0.00121488 0)
(-0.012028 -0.00126062 0)
(-0.0116859 -0.00130496 0)
(-0.0113325 -0.00134774 0)
(-0.0109681 -0.0013888 0)
(-0.0105932 -0.001428 0)
(-0.0102083 -0.00146518 0)
(-0.00981401 -0.00150023 0)
(-0.00941098 -0.00153296 0)
(-0.0089998 -0.00156317 0)
(-0.0085811 -0.00159058 0)
(-0.00815561 -0.00161493 0)
(-0.00772416 -0.0016359 0)
(-0.00728771 -0.00165319 0)
(-0.00684735 -0.00166641 0)
(-0.00640423 -0.00167513 0)
(-0.00595955 -0.0016788 0)
(-0.00551461 -0.00167683 0)
(-0.0050709 -0.00166853 0)
(-0.00463013 -0.00165317 0)
(-0.00419424 -0.00162996 0)
(-0.00376535 -0.00159808 0)
(-0.00334574 -0.00155662 0)
(-0.00293783 -0.0015046 0)
(-0.00254422 -0.00144107 0)
(-0.00216767 -0.00136511 0)
(-0.00181116 -0.00127594 0)
(-0.00147781 -0.001173 0)
(-0.00117083 -0.00105606 0)
(-0.000893377 -0.000925438 0)
(-0.000648469 -0.000782238 0)
(-0.000438928 -0.000628755 0)
(-0.000267208 -0.000469005 0)
(-0.000135204 -0.000309457 0)
(-4.61961e-05 -0.00016025 0)
(-6.54739e-06 -3.7579e-05 0)
(-1.19166e-05 -5.94086e-05 0)
(-6.32679e-05 0.000132878 0)
(-0.000151778 0.000422276 0)
(-0.000271762 0.000643928 0)
(-0.000432413 0.000818397 0)
(-0.000628176 0.000963266 0)
(-0.000856772 0.00108836 0)
(-0.00111485 0.00119286 0)
(-0.0013968 0.00128191 0)
(-0.00169903 0.00135634 0)
(-0.00201843 0.00141817 0)
(-0.00235205 0.00146862 0)
(-0.00269639 0.00150955 0)
(-0.00304956 0.00154199 0)
(-0.00341008 0.00156679 0)
(-0.00377565 0.00158529 0)
(-0.00414502 0.00159859 0)
(-0.00451689 0.00160702 0)
(-0.00489027 0.00161166 0)
(-0.00526458 0.00161296 0)
(-0.00563875 0.00161157 0)
(-0.00601223 0.001608 0)
(-0.00638441 0.0016026 0)
(-0.00675502 0.00159545 0)
(-0.00712377 0.00158681 0)
(-0.00749018 0.00157718 0)
(-0.00785397 0.00156668 0)
(-0.00821508 0.00155512 0)
(-0.00857321 0.00154257 0)
(-0.00892794 0.00152924 0)
(-0.00927911 0.00151507 0)
(-0.00962673 0.00149993 0)
(-0.00997056 0.0014839 0)
(-0.0103101 0.00146712 0)
(-0.0106453 0.00144953 0)
(-0.010976 0.0014309 0)
(-0.0113022 0.00141113 0)
(-0.0116234 0.00139043 0)
(-0.0119393 0.0013689 0)
(-0.0122497 0.00134629 0)
(-0.0125546 0.00132242 0)
(-0.0128537 0.0012974 0)
(-0.0131465 0.00127135 0)
(-0.0134326 0.00124421 0)
(-0.0137122 0.00121579 0)
(-0.0139849 0.00118602 0)
(-0.0142504 0.00115499 0)
(-0.0145082 0.00112275 0)
(-0.0147581 0.00108921 0)
(-0.0150001 0.00105419 0)
(-0.0152338 0.00101765 0)
(-0.0154587 0.000979748 0)
(-0.0156744 0.000940563 0)
(-0.0158806 0.000899984 0)
(-0.0160773 0.000857857 0)
(-0.0162642 0.000814177 0)
(-0.0164407 0.000769057 0)
(-0.0166064 0.00072256 0)
(-0.0167613 0.000674623 0)
(-0.0169049 0.000625145 0)
(-0.0170371 0.000574124 0)
(-0.0171574 0.000521678 0)
(-0.0172653 0.000467912 0)
(-0.0173607 0.000412813 0)
(-0.0174432 0.000356301 0)
(-0.0175129 0.000298357 0)
(-0.0175692 0.000239071 0)
(-0.0176118 0.000178573 0)
(-0.0176404 0.000116943 0)
(-0.0176549 5.41773e-05 0)
(-0.0176551 -9.73735e-06 0)
(-0.0176407 -7.47366e-05 0)
(-0.0176116 -0.000140678 0)
(-0.0175675 -0.000207427 0)
(-0.0175081 -0.000274916 0)
(-0.0174335 -0.000343118 0)
(-0.0173437 -0.000411967 0)
(-0.0172384 -0.000481328 0)
(-0.0171175 -0.000551019 0)
(-0.0169809 -0.000620887 0)
(-0.0168285 -0.000690846 0)
(-0.0166606 -0.000760837 0)
(-0.0164771 -0.000830766 0)
(-0.016278 -0.000900472 0)
(-0.0160634 -0.000969767 0)
(-0.0158332 -0.00103849 0)
(-0.0155878 -0.00110654 0)
(-0.0153272 -0.00117385 0)
(-0.0150518 -0.00124029 0)
(-0.0147617 -0.00130573 0)
(-0.0144572 -0.00136999 0)
(-0.0141385 -0.00143291 0)
(-0.0138059 -0.00149438 0)
(-0.0134597 -0.00155428 0)
(-0.0131006 -0.00161252 0)
(-0.0127287 -0.00166894 0)
(-0.0123446 -0.00172334 0)
(-0.0119487 -0.00177554 0)
(-0.0115415 -0.00182536 0)
(-0.0111236 -0.00187263 0)
(-0.0106956 -0.00191717 0)
(-0.0102582 -0.00195876 0)
(-0.00981198 -0.00199712 0)
(-0.00935773 -0.00203193 0)
(-0.0088962 -0.00206282 0)
(-0.00842833 -0.00208943 0)
(-0.00795516 -0.00211136 0)
(-0.00747784 -0.00212812 0)
(-0.00699757 -0.00213914 0)
(-0.00651565 -0.00214375 0)
(-0.00603345 -0.00214118 0)
(-0.00555259 -0.00213061 0)
(-0.0050749 -0.00211115 0)
(-0.00460242 -0.00208183 0)
(-0.00413739 -0.00204161 0)
(-0.00368217 -0.00198938 0)
(-0.0032393 -0.00192398 0)
(-0.00281148 -0.00184426 0)
(-0.00240163 -0.00174914 0)
(-0.00201285 -0.00163771 0)
(-0.0016484 -0.00150932 0)
(-0.00131166 -0.00136371 0)
(-0.00100596 -0.00120122 0)
(-0.000734576 -0.00102304 0)
(-0.000500702 -0.000831652 0)
(-0.000307303 -0.000631255 0)
(-0.000156987 -0.00042848 0)
(-5.43364e-05 -0.000233647 0)
(-7.88624e-06 -6.31173e-05 0)
(-1.39849e-05 -2.10685e-05 0)
(-7.32736e-05 0.000212095 0)
(-0.000176663 0.000536178 0)
(-0.000316627 0.000794278 0)
(-0.000495327 0.00100533 0)
(-0.000710917 0.00118688 0)
(-0.000959951 0.00134138 0)