/*--------------------------------*- C++ -*----------------------------------*\
| =========                 |                                                 |
| \\      /  F ield         | OpenFOAM: The Open Source CFD Toolbox           |
|  \\    /   O peration     | Version:  2112                                  |
|   \\  /    A nd           | Website:  www.openfoam.com                      |
|    \\/     M anipulation  |                                                 |
\*---------------------------------------------------------------------------*/
FoamFile
{
    version     2.0;
    format      ascii;
    arch        "LSB;label=32;scalar=64";
    class       volVectorField;
    location    "0.3";
    object      U;
}
// * * * * * * * * * * * * * * * * * * * * * * * * * * * * * * * * * * * * * //

dimensions      [0 1 -1 0 0 0 0];

internalField   nonuniform List<vector> 
16641
(
(2.18064e-06 -2.16589e-06 0)
(5.26414e-06 -1.7818e-06 0)
(4.35477e-06 9.73674e-08 0)
(-2.37978e-06 2.18001e-06 0)
(-1.49979e-05 4.10443e-06 0)
(-3.2877e-05 5.73468e-06 0)
(-5.53019e-05 7.06336e-06 0)
(-8.15395e-05 8.1265e-06 0)
(-0.000110915 8.96713e-06 0)
(-0.000142835 9.62394e-06 0)
(-0.000176789 1.01294e-05 0)
(-0.000212342 1.05108e-05 0)
(-0.000249128 1.07913e-05 0)
(-0.000286842 1.09903e-05 0)
(-0.00032523 1.11243e-05 0)
(-0.000364089 1.12068e-05 0)
(-0.000403251 1.12494e-05 0)
(-0.000442585 1.12613e-05 0)
(-0.000481986 1.125e-05 0)
(-0.000521374 1.12213e-05 0)
(-0.000560684 1.11797e-05 0)
(-0.000599868 1.11288e-05 0)
(-0.000638891 1.10713e-05 0)
(-0.000677723 1.10091e-05 0)
(-0.000716343 1.09434e-05 0)
(-0.000754733 1.08747e-05 0)
(-0.000792877 1.08034e-05 0)
(-0.000830763 1.07296e-05 0)
(-0.000868377 1.06531e-05 0)
(-0.000905706 1.05738e-05 0)
(-0.000942737 1.04912e-05 0)
(-0.000979455 1.04049e-05 0)
(-0.00101584 1.03143e-05 0)
(-0.00105189 1.0219e-05 0)
(-0.00108757 1.01186e-05 0)
(-0.00112286 1.00124e-05 0)
(-0.00115776 9.90024e-06 0)
(-0.00119222 9.78158e-06 0)
(-0.00122624 9.65599e-06 0)
(-0.00125978 9.523e-06 0)
(-0.00129282 9.3822e-06 0)
(-0.00132533 9.23325e-06 0)
(-0.00135728 9.07578e-06 0)
(-0.00138864 8.90945e-06 0)
(-0.00141939 8.73387e-06 0)
(-0.00144948 8.54867e-06 0)
(-0.00147889 8.35353e-06 0)
(-0.00150758 8.14813e-06 0)
(-0.00153552 7.93221e-06 0)
(-0.00156266 7.70547e-06 0)
(-0.00158898 7.46759e-06 0)
(-0.00161444 7.21834e-06 0)
(-0.00163899 6.95749e-06 0)
(-0.00166259 6.68486e-06 0)
(-0.00168522 6.40025e-06 0)
(-0.00170682 6.10349e-06 0)
(-0.00172735 5.79442e-06 0)
(-0.00174678 5.47295e-06 0)
(-0.00176507 5.13901e-06 0)
(-0.00178216 4.79259e-06 0)
(-0.00179802 4.43368e-06 0)
(-0.00181261 4.06232e-06 0)
(-0.00182589 3.67863e-06 0)
(-0.00183781 3.28278e-06 0)
(-0.00184834 2.87496e-06 0)
(-0.00185744 2.45541e-06 0)
(-0.00186506 2.0244e-06 0)
(-0.00187118 1.58227e-06 0)
(-0.00187575 1.12946e-06 0)
(-0.00187874 6.66453e-07 0)
(-0.00188011 1.93776e-07 0)
(-0.00187985 -2.87943e-07 0)
(-0.00187791 -7.7823e-07 0)
(-0.00187426 -1.27634e-06 0)
(-0.0018689 -1.78147e-06 0)
(-0.00186179 -2.29278e-06 0)
(-0.00185291 -2.80941e-06 0)
(-0.00184225 -3.33049e-06 0)
(-0.0018298 -3.85507e-06 0)
(-0.00181554 -4.38215e-06 0)
(-0.00179946 -4.91066e-06 0)
(-0.00178158 -5.43951e-06 0)
(-0.00176187 -5.96757e-06 0)
(-0.00174036 -6.49374e-06 0)
(-0.00171704 -7.01688e-06 0)
(-0.00169193 -7.53582e-06 0)
(-0.00166505 -8.04936e-06 0)
(-0.00163641 -8.5563e-06 0)
(-0.00160604 -9.05548e-06 0)
(-0.00157395 -9.54576e-06 0)
(-0.0015402 -1.0026e-05 0)
(-0.0015048 -1.04951e-05 0)
(-0.0014678 -1.09519e-05 0)
(-0.00142923 -1.13954e-05 0)
(-0.00138915 -1.18246e-05 0)
(-0.00134761 -1.22383e-05 0)
(-0.00130465 -1.26356e-05 0)
(-0.00126034 -1.30154e-05 0)
(-0.00121473 -1.33766e-05 0)
(-0.00116788 -1.37181e-05 0)
(-0.00111988 -1.40387e-05 0)
(-0.00107078 -1.43369e-05 0)
(-0.00102067 -1.46114e-05 0)
(-0.000969641 -1.48602e-05 0)
(-0.000917775 -1.50814e-05 0)
(-0.000865178 -1.52723e-05 0)
(-0.00081196 -1.54301e-05 0)
(-0.000758243 -1.55511e-05 0)
(-0.000704165 -1.56311e-05 0)
(-0.000649878 -1.56653e-05 0)
(-0.000595554 -1.56477e-05 0)
(-0.000541388 -1.55713e-05 0)
(-0.000487599 -1.5428e-05 0)
(-0.000434436 -1.52086e-05 0)
(-0.000382181 -1.49023e-05 0)
(-0.000331153 -1.44968e-05 0)
(-0.000281713 -1.39776e-05 0)
(-0.000234269 -1.33284e-05 0)
(-0.00018928 -1.25303e-05 0)
(-0.000147259 -1.15618e-05 0)
(-0.00010878 -1.03981e-05 0)
(-7.44738e-05 -9.0118e-06 0)
(-4.50276e-05 -7.37391e-06 0)
(-2.11587e-05 -5.45942e-06 0)
(-3.55592e-06 -3.26883e-06 0)
(7.16008e-06 -8.79182e-07 0)
(1.07719e-05 1.5193e-06 0)
(8.19795e-06 3.25772e-06 0)
(2.78568e-06 2.79855e-06 0)
(1.81114e-06 -5.27214e-06 0)
(9.34334e-07 -9.03547e-07 0)
(-1.06828e-05 8.81631e-06 0)
(-3.53491e-05 1.96826e-05 0)
(-7.33744e-05 3.01163e-05 0)
(-0.000123945 3.94328e-05 0)
(-0.000185746 4.74309e-05 0)
(-0.000257287 5.41344e-05 0)
(-0.00033709 5.96554e-05 0)
(-0.000423768 6.41323e-05 0)
(-0.000516074 6.77047e-05 0)
(-0.000612906 7.05046e-05 0)
(-0.000713312 7.26529e-05 0)
(-0.000816476 7.42578e-05 0)
(-0.000921713 7.54147e-05 0)
(-0.00102845 7.6206e-05 0)
(-0.00113622 7.67022e-05 0)
(-0.00124463 7.69631e-05 0)
(-0.00135337 7.70382e-05 0)
(-0.00146221 7.69684e-05 0)
(-0.00157093 7.67862e-05 0)
(-0.00167939 7.65172e-05 0)
(-0.00178746 7.61816e-05 0)
(-0.00189505 7.5794e-05 0)
(-0.00200208 7.53651e-05 0)
(-0.00210849 7.49018e-05 0)
(-0.00221422 7.44088e-05 0)
(-0.00231922 7.38883e-05 0)
(-0.00242346 7.33412e-05 0)
(-0.00252688 7.27671e-05 0)
(-0.00262944 7.21648e-05 0)
(-0.00273111 7.15324e-05 0)
(-0.00283182 7.08678e-05 0)
(-0.00293154 7.01684e-05 0)
(-0.00303021 6.94317e-05 0)
(-0.00312777 6.8655e-05 0)
(-0.00322416 6.78358e-05 0)
(-0.00331933 6.69716e-05 0)
(-0.0034132 6.60598e-05 0)
(-0.00350571 6.5098e-05 0)
(-0.00359679 6.40835e-05 0)
(-0.00368636 6.30141e-05 0)
(-0.00377434 6.18875e-05 0)
(-0.00386065 6.07015e-05 0)
(-0.0039452 5.94539e-05 0)
(-0.00402791 5.81425e-05 0)
(-0.0041087 5.67654e-05 0)
(-0.00418746 5.53205e-05 0)
(-0.00426409 5.38062e-05 0)
(-0.00433852 5.22205e-05 0)
(-0.00441063 5.0562e-05 0)
(-0.00448032 4.8829e-05 0)
(-0.00454749 4.70201e-05 0)
(-0.00461203 4.51343e-05 0)
(-0.00467384 4.31703e-05 0)
(-0.00473281 4.11272e-05 0)
(-0.00478883 3.90042e-05 0)
(-0.00484179 3.68007e-05 0)
(-0.00489157 3.45166e-05 0)
(-0.00493808 3.21517e-05 0)
(-0.0049812 2.97063e-05 0)
(-0.00502082 2.71807e-05 0)
(-0.00505682 2.45757e-05 0)
(-0.00508911 2.18923e-05 0)
(-0.00511758 1.91319e-05 0)
(-0.00514211 1.6296e-05 0)
(-0.00516262 1.33868e-05 0)
(-0.00517901 1.04064e-05 0)
(-0.00519117 7.35757e-06 0)
(-0.00519901 4.24326e-06 0)
(-0.00520246 1.06686e-06 0)
(-0.00520143 -2.16786e-06 0)
(-0.00519583 -5.45689e-06 0)
(-0.00518561 -8.79577e-06 0)
(-0.0051707 -1.21797e-05 0)
(-0.00515103 -1.56035e-05 0)
(-0.00512657 -1.90617e-05 0)
(-0.00509725 -2.25486e-05 0)
(-0.00506306 -2.6058e-05 0)
(-0.00502397 -2.95838e-05 0)
(-0.00497995 -3.31192e-05 0)
(-0.00493099 -3.66575e-05 0)
(-0.00487711 -4.01916e-05 0)
(-0.0048183 -4.37144e-05 0)
(-0.0047546 -4.72186e-05 0)
(-0.00468602 -5.06968e-05 0)
(-0.00461261 -5.41415e-05 0)
(-0.00453442 -5.75453e-05 0)
(-0.00445151 -6.09006e-05 0)
(-0.00436394 -6.42001e-05 0)
(-0.00427181 -6.74366e-05 0)
(-0.00417519 -7.06026e-05 0)
(-0.0040742 -7.3691e-05 0)
(-0.00396894 -7.66947e-05 0)
(-0.00385952 -7.96066e-05 0)
(-0.00374609 -8.24196e-05 0)
(-0.00362878 -8.51264e-05 0)
(-0.00350774 -8.77197e-05 0)
(-0.00338313 -9.01917e-05 0)
(-0.00325513 -9.25341e-05 0)
(-0.00312392 -9.47379e-05 0)
(-0.00298969 -9.67928e-05 0)
(-0.00285268 -9.86875e-05 0)
(-0.0027131 -0.000100409 0)
(-0.00257121 -0.00010194 0)
(-0.0024273 -0.000103265 0)
(-0.00228166 -0.000104361 0)
(-0.00213464 -0.000105202 0)
(-0.00198662 -0.000105759 0)
(-0.00183803 -0.000105999 0)
(-0.00168933 -0.000105879 0)
(-0.00154107 -0.000105354 0)
(-0.00139385 -0.00010437 0)
(-0.00124836 -0.000102868 0)
(-0.00110537 -0.000100778 0)
(-0.000965744 -9.80258e-05 0)
(-0.000830451 -9.45255e-05 0)
(-0.000700576 -9.01849e-05 0)
(-0.00057732 -8.49045e-05 0)
(-0.000462004 -7.858e-05 0)
(-0.00035606 -7.11069e-05 0)
(-0.000261018 -6.23908e-05 0)
(-0.000178455 -5.23672e-05 0)
(-0.00010992 -4.10433e-05 0)
(-5.67694e-05 -2.85912e-05 0)
(-1.99332e-05 -1.55302e-05 0)
(5.73661e-07 -2.95968e-06 0)
(6.63138e-06 6.6615e-06 0)
(3.21679e-06 8.17638e-06 0)
(-7.80574e-08 -4.38932e-06 0)
(-8.84177e-06 1.07091e-05 0)
(-3.54274e-05 3.53072e-05 0)
(-8.06599e-05 6.23935e-05 0)
(-0.000144519 8.87532e-05 0)
(-0.000226101 0.00011282 0)
(-0.000323804 0.000133959 0)
(-0.000435729 0.000152049 0)
(-0.00055992 0.000167224 0)
(-0.000694486 0.000179737 0)
(-0.000837673 0.000189883 0)
(-0.000987897 0.000197963 0)
(-0.00114376 0.00020427 0)
(-0.00130405 0.000209073 0)
(-0.00146773 0.000212617 0)
(-0.00163391 0.000215119 0)
(-0.00180185 0.000216766 0)
(-0.00197096 0.000217721 0)
(-0.00214072 0.000218122 0)
(-0.00231074 0.000218081 0)
(-0.00248069 0.000217693 0)
(-0.0026503 0.00021703 0)
(-0.00281937 0.000216152 0)
(-0.00298773 0.000215102 0)
(-0.00315524 0.000213913 0)
(-0.00332179 0.000212609 0)
(-0.00348727 0.000211204 0)
(-0.00365161 0.000209707 0)
(-0.00381472 0.000208124 0)
(-0.00397653 0.000206455 0)
(-0.00413696 0.000204698 0)
(-0.00429593 0.00020285 0)
(-0.00445337 0.000200905 0)
(-0.0046092 0.000198858 0)
(-0.00476334 0.000196702 0)
(-0.00491568 0.000194432 0)
(-0.00506615 0.00019204 0)
(-0.00521463 0.000189519 0)
(-0.00536104 0.000186864 0)
(-0.00550525 0.000184067 0)
(-0.00564716 0.000181121 0)
(-0.00578665 0.000178022 0)
(-0.0059236 0.000174762 0)
(-0.00605788 0.000171336 0)
(-0.00618937 0.000167737 0)
(-0.00631792 0.000163961 0)
(-0.00644341 0.000160002 0)
(-0.00656568 0.000155854 0)
(-0.0066846 0.000151513 0)
(-0.00680001 0.000146974 0)
(-0.00691176 0.000142233 0)
(-0.0070197 0.000137286 0)
(-0.00712367 0.000132129 0)
(-0.0072235 0.000126759 0)
(-0.00731904 0.000121174 0)
(-0.00741013 0.00011537 0)
(-0.00749659 0.000109345 0)
(-0.00757826 0.0001031 0)
(-0.00765497 9.66324e-05 0)
(-0.00772656 8.99428e-05 0)
(-0.00779285 8.3032e-05 0)
(-0.00785369 7.59013e-05 0)
(-0.00790891 6.85528e-05 0)
(-0.00795834 6.09894e-05 0)
(-0.00800183 5.3215e-05 0)
(-0.00803922 4.52341e-05 0)
(-0.00807036 3.70523e-05 0)
(-0.0080951 2.86761e-05 0)
(-0.00811329 2.01128e-05 0)
(-0.00812481 1.13707e-05 0)
(-0.00812951 2.45899e-06 0)
(-0.00812729 -6.61206e-06 0)
(-0.00811802 -1.58311e-05 0)
(-0.00810159 -2.5186e-05 0)
(-0.00807792 -3.46636e-05 0)
(-0.00804692 -4.42501e-05 0)
(-0.0080085 -5.39304e-05 0)
(-0.00796261 -6.36889e-05 0)
(-0.0079092 -7.35091e-05 0)
(-0.00784823 -8.33736e-05 0)
(-0.00777966 -9.32646e-05 0)
(-0.0077035 -0.000103164 0)
(-0.00761973 -0.000113051 0)
(-0.00752838 -0.000122909 0)
(-0.00742948 -0.000132716 0)
(-0.00732307 -0.000142452 0)
(-0.00720921 -0.000152097 0)
(-0.00708798 -0.000161631 0)
(-0.00695947 -0.000171034 0)
(-0.00682378 -0.000180284 0)
(-0.00668104 -0.000189363 0)
(-0.00653139 -0.00019825 0)
(-0.00637497 -0.000206924 0)
(-0.00621195 -0.000215367 0)
(-0.00604252 -0.000223558 0)
(-0.00586687 -0.000231477 0)
(-0.00568522 -0.000239104 0)
(-0.00549779 -0.000246418 0)
(-0.00530483 -0.000253395 0)
(-0.0051066 -0.000260013 0)
(-0.0049034 -0.000266244 0)
(-0.00469552 -0.000272059 0)
(-0.00448331 -0.000277424 0)
(-0.00426711 -0.0002823 0)
(-0.00404733 -0.000286643 0)
(-0.0038244 -0.000290399 0)
(-0.00359879 -0.000293507 0)
(-0.00337104 -0.000295893 0)
(-0.00314174 -0.000297474 0)
(-0.00291154 -0.000298151 0)
(-0.0026812 -0.000297813 0)
(-0.00245153 -0.000296329 0)
(-0.00222349 -0.000293553 0)
(-0.00199812 -0.00028932 0)
(-0.00177659 -0.000283448 0)
(-0.00156023 -0.000275733 0)
(-0.00135051 -0.000265958 0)
(-0.00114903 -0.000253889 0)
(-0.000957587 -0.000239286 0)
(-0.000778091 -0.000221909 0)
(-0.000612599 -0.000201544 0)
(-0.00046325 -0.000178031 0)
(-0.00033219 -0.000151327 0)
(-0.000221447 -0.000121617 0)
(-0.000132728 -8.95033e-05 0)
(-6.70845e-05 -5.63403e-05 0)
(-2.44072e-05 -2.47254e-05 0)
(-2.86086e-06 6.16946e-07 0)
(1.49005e-06 1.07087e-05 0)
(-2.19004e-06 2.3679e-06 0)
(-1.99082e-05 3.55302e-05 0)
(-6.30538e-05 8.06418e-05 0)
(-0.000129873 0.000128924 0)
(-0.000219486 0.000175871 0)
(-0.000330728 0.000219087 0)
(-0.000461742 0.000257468 0)
(-0.000610346 0.000290695 0)
(-0.000774277 0.000318883 0)
(-0.000951319 0.000342376 0)
(-0.00113938 0.000361624 0)
(-0.00133654 0.000377116 0)
(-0.00154107 0.00038934 0)
(-0.00175146 0.000398763 0)
(-0.00196639 0.000405813 0)
(-0.00218474 0.000410879 0)
(-0.00240554 0.000414303 0)
(-0.00262799 0.000416383 0)
(-0.00285144 0.000417372 0)
(-0.00307533 0.000417484 0)
(-0.00329922 0.000416896 0)
(-0.00352275 0.000415749 0)
(-0.00374562 0.000414157 0)
(-0.00396759 0.000412206 0)
(-0.00418847 0.000409961 0)
(-0.00440809 0.00040747 0)
(-0.0046263 0.000404765 0)
(-0.00484297 0.000401866 0)
(-0.005058 0.000398785 0)
(-0.00527127 0.000395526 0)
(-0.00548268 0.000392088 0)
(-0.00569212 0.000388465 0)
(-0.00589947 0.000384651 0)
(-0.00610464 0.000380636 0)
(-0.0063075 0.000376409 0)
(-0.00650794 0.000371959 0)
(-0.00670582 0.000367274 0)
(-0.00690102 0.000362342 0)
(-0.0070934 0.000357151 0)
(-0.00728282 0.000351689 0)
(-0.00746913 0.000345945 0)
(-0.00765217 0.000339907 0)
(-0.0078318 0.000333564 0)
(-0.00800784 0.000326905 0)
(-0.00818013 0.00031992 0)
(-0.00834848 0.000312599 0)
(-0.00851273 0.000304931 0)
(-0.00867268 0.000296907 0)
(-0.00882815 0.000288519 0)
(-0.00897895 0.000279758 0)
(-0.00912488 0.000270616 0)
(-0.00926574 0.000261086 0)
(-0.00940132 0.000251161 0)
(-0.00953143 0.000240836 0)
(-0.00965585 0.000230106 0)
(-0.00977436 0.000218967 0)
(-0.00988677 0.000207415 0)
(-0.00999285 0.000195448 0)
(-0.0100924 0.000183066 0)
(-0.0101852 0.000170268 0)
(-0.010271 0.000157057 0)
(-0.0103497 0.000143435 0)
(-0.0104209 0.000129406 0)
(-0.0104846 0.000114977 0)
(-0.0105405 0.000100153 0)
(-0.0105883 8.49456e-05 0)
(-0.010628 6.93636e-05 0)
(-0.0106593 5.34196e-05 0)
(-0.0106821 3.71275e-05 0)
(-0.0106961 2.05031e-05 0)
(-0.0107013 3.56363e-06 0)
(-0.0106974 -1.36715e-05 0)
(-0.0106843 -3.11814e-05 0)
(-0.0106618 -4.89431e-05 0)
(-0.01063 -6.69322e-05 0)
(-0.0105885 -8.51226e-05 0)
(-0.0105374 -0.000103487 0)
(-0.0104766 -0.000121995 0)
(-0.0104061 -0.000140617 0)
(-0.0103256 -0.00015932 0)
(-0.0102353 -0.000178071 0)
(-0.0101351 -0.000196835 0)
(-0.0100251 -0.000215578 0)
(-0.00990516 -0.000234263 0)
(-0.00977543 -0.000252853 0)
(-0.00963593 -0.00027131 0)
(-0.00948677 -0.000289597 0)
(-0.00932802 -0.000307677 0)
(-0.00915981 -0.00032551 0)
(-0.00898227 -0.000343059 0)
(-0.00879557 -0.000360287 0)
(-0.00859988 -0.000377156 0)
(-0.00839539 -0.000393628 0)
(-0.00818231 -0.000409666 0)
(-0.00796089 -0.000425231 0)
(-0.00773138 -0.000440287 0)
(-0.00749404 -0.000454794 0)
(-0.00724919 -0.00046871 0)
(-0.00699713 -0.000481994 0)
(-0.00673822 -0.000494597 0)
(-0.00647281 -0.000506468 0)
(-0.00620132 -0.000517551 0)
(-0.00592417 -0.000527779 0)
(-0.00564183 -0.000537077 0)
(-0.00535482 -0.000545357 0)
(-0.00506371 -0.000552517 0)
(-0.00476912 -0.000558439 0)
(-0.00447174 -0.000562984 0)
(-0.00417235 -0.000565992 0)
(-0.00387181 -0.000567276 0)
(-0.00357108 -0.000566625 0)
(-0.00327125 -0.000563797 0)
(-0.00297352 -0.00055852 0)
(-0.00267926 -0.000550491 0)
(-0.00238996 -0.000539375 0)
(-0.00210731 -0.00052481 0)
(-0.00183316 -0.000506407 0)
(-0.00156955 -0.000483765 0)
(-0.00131866 -0.000456478 0)
(-0.00108288 -0.000424163 0)
(-0.000864673 -0.000386503 0)
(-0.0006666 -0.000343305 0)
(-0.000491173 -0.000294614 0)
(-0.000340734 -0.00024088 0)
(-0.000217238 -0.000183246 0)
(-0.000121925 -0.000123995 0)
(-5.48498e-05 -6.71691e-05 0)
(-1.49756e-05 -1.95151e-05 0)
(-8.30725e-07 7.18974e-06 0)
(-4.17785e-06 1.51622e-05 0)
(-3.0736e-05 7.40984e-05 0)
(-9.04545e-05 0.000145137 0)
(-0.000178664 0.000218834 0)
(-0.000293292 0.000289951 0)
(-0.000432716 0.000355526 0)
(-0.00059475 0.000414096 0)
(-0.000776943 0.000465168 0)
(-0.000976798 0.000508833 0)
(-0.00119187 0.000545512 0)
(-0.00141982 0.000575802 0)
(-0.00165851 0.000600379 0)
(-0.00190598 0.000619937 0)
(-0.00216049 0.000635152 0)
(-0.0024205 0.000646656 0)
(-0.00268471 0.000655029 0)
(-0.00295198 0.000660789 0)
(-0.00322134 0.000664391 0)
(-0.003492 0.000666228 0)
(-0.00376329 0.000666631 0)
(-0.00403466 0.000665877 0)
(-0.00430565 0.000664192 0)
(-0.0045759 0.000661755 0)
(-0.00484509 0.000658707 0)
(-0.00511297 0.000655156 0)
(-0.00537932 0.000651179 0)
(-0.00564395 0.000646831 0)
(-0.0059067 0.000642149 0)
(-0.00616742 0.000637155 0)
(-0.00642595 0.000631859 0)
(-0.00668217 0.00062626 0)
(-0.00693593 0.000620356 0)
(-0.00718711 0.000614135 0)
(-0.00743555 0.000607584 0)
(-0.00768112 0.000600689 0)
(-0.00792366 0.000593433 0)
(-0.00816302 0.000585798 0)
(-0.00839905 0.000577768 0)
(-0.00863157 0.000569322 0)
(-0.00886041 0.000560445 0)
(-0.0090854 0.000551118 0)
(-0.00930635 0.000541324 0)
(-0.00952306 0.000531046 0)
(-0.00973534 0.000520267 0)
(-0.00994299 0.000508971 0)
(-0.0101458 0.000497144 0)
(-0.0103435 0.000484769 0)
(-0.010536 0.000471833 0)
(-0.010723 0.000458322 0)
(-0.0109042 0.000444224 0)
(-0.0110795 0.000429526 0)
(-0.0112486 0.000414218 0)
(-0.0114112 0.00039829 0)
(-0.0115672 0.000381733 0)
(-0.0117162 0.00036454 0)
(-0.011858 0.000346705 0)
(-0.0119924 0.000328224 0)
(-0.0121191 0.000309093 0)
(-0.0122379 0.000289312 0)
(-0.0123485 0.000268881 0)
(-0.0124506 0.000247804 0)
(-0.0125441 0.000226086 0)
(-0.0126286 0.000203732 0)
(-0.0127039 0.000180753 0)
(-0.0127699 0.000157161 0)
(-0.0128261 0.000132969 0)
(-0.0128725 0.000108194 0)
(-0.0129088 8.28564e-05 0)
(-0.0129348 5.69774e-05 0)
(-0.0129503 3.05819e-05 0)
(-0.0129551 3.69754e-06 0)
(-0.0129491 -2.36456e-05 0)
(-0.012932 -5.14144e-05 0)
(-0.0129036 -7.95731e-05 0)
(-0.012864 -0.000108084 0)
(-0.0128129 -0.000136905 0)
(-0.0127502 -0.000165993 0)
(-0.0126759 -0.000195304 0)
(-0.0125898 -0.000224787 0)
(-0.012492 -0.000254395 0)
(-0.0123823 -0.000284073 0)
(-0.0122608 -0.00031377 0)
(-0.0121275 -0.000343429 0)
(-0.0119824 -0.000372995 0)
(-0.0118255 -0.000402409 0)
(-0.011657 -0.000431613 0)
(-0.0114769 -0.00046055 0)
(-0.0112853 -0.000489159 0)
(-0.0110825 -0.000517381 0)
(-0.0108685 -0.000545157 0)
(-0.0106435 -0.000572428 0)
(-0.0104078 -0.000599135 0)
(-0.0101615 -0.00062522 0)
(-0.00990503 -0.000650622 0)
(-0.00963854 -0.000675283 0)
(-0.00936238 -0.000699141 0)
(-0.00907686 -0.000722135 0)
(-0.00878235 -0.000744199 0)
(-0.00847922 -0.000765263 0)
(-0.00816789 -0.000785253 0)
(-0.00784879 -0.000804086 0)
(-0.00752242 -0.000821668 0)
(-0.00718928 -0.000837895 0)
(-0.00684994 -0.000852645 0)
(-0.00650503 -0.000865778 0)
(-0.00615523 -0.000877131 0)
(-0.00580127 -0.000886514 0)
(-0.00544401 -0.000893709 0)
(-0.00508435 -0.000898461 0)
(-0.00472334 -0.000900479 0)
(-0.00436212 -0.000899432 0)
(-0.00400197 -0.000894944 0)
(-0.00364434 -0.000886595 0)
(-0.00329081 -0.000873921 0)
(-0.00294316 -0.000856413 0)
(-0.00260335 -0.000833528 0)
(-0.00227353 -0.000804691 0)
(-0.00195602 -0.000769318 0)
(-0.00165335 -0.000726834 0)
(-0.00136819 -0.00067672 0)
(-0.00110333 -0.000618571 0)
(-0.000861604 -0.000552194 0)
(-0.000645781 -0.000477754 0)
(-0.000458452 -0.000396003 0)
(-0.000301837 -0.000308617 0)
(-0.000177486 -0.000218708 0)
(-8.58812e-05 -0.000131485 0)
(-2.71976e-05 -5.51558e-05 0)
(-3.0732e-06 -3.09748e-06 0)
(-5.9114e-06 3.34783e-05 0)
(-4.0661e-05 0.000125863 0)
(-0.000116106 0.000228267 0)
(-0.000224701 0.000331431 0)
(-0.00036306 0.000429933 0)
(-0.000528957 0.000520572 0)
(-0.00071979 0.000601703 0)
(-0.000932808 0.000672749 0)
(-0.00116529 0.00073381 0)
(-0.0014146 0.000785398 0)
(-0.00167823 0.00082826 0)
(-0.00195385 0.000863258 0)
(-0.00223936 0.000891296 0)
(-0.00253284 0.000913265 0)
(-0.00283261 0.000930012 0)
(-0.00313721 0.00094232 0)
(-0.00344535 0.000950898 0)
(-0.00375597 0.000956372 0)
(-0.00406815 0.000959287 0)
(-0.00438111 0.000960107 0)
(-0.00469422 0.000959223 0)
(-0.00500695 0.000956955 0)
(-0.00531885 0.000953559 0)
(-0.00562955 0.00094924 0)
(-0.00593875 0.000944154 0)
(-0.00624617 0.000938416 0)
(-0.0065516 0.00093211 0)
(-0.00685481 0.000925292 0)
(-0.00715564 0.000917997 0)
(-0.00745389 0.000910242 0)
(-0.00774941 0.000902034 0)
(-0.00804203 0.000893368 0)
(-0.00833158 0.000884232 0)
(-0.00861789 0.000874612 0)
(-0.0089008 0.000864486 0)
(-0.00918014 0.000853834 0)
(-0.00945571 0.000842633 0)
(-0.00972733 0.000830858 0)
(-0.00999482 0.000818484 0)
(-0.010258 0.000805489 0)
(-0.0105166 0.000791847 0)
(-0.0107704 0.000777535 0)
(-0.0110193 0.00076253 0)
(-0.0112629 0.000746808 0)
(-0.0115012 0.000730348 0)
(-0.0117337 0.000713128 0)
(-0.0119603 0.000695128 0)
(-0.0121808 0.000676327 0)
(-0.0123948 0.000656709 0)
(-0.0126022 0.000636255 0)
(-0.0128026 0.000614948 0)
(-0.0129958 0.000592775 0)
(-0.0131815 0.000569721 0)
(-0.0133594 0.000545776 0)
(-0.0135293 0.000520929 0)
(-0.0136909 0.000495173 0)
(-0.0138438 0.000468502 0)
(-0.0139879 0.000440912 0)
(-0.0141228 0.000412403 0)
(-0.0142482 0.000382977 0)
(-0.0143639 0.000352638 0)
(-0.0144695 0.000321393 0)
(-0.0145649 0.000289253 0)
(-0.0146497 0.000256231 0)
(-0.0147237 0.000222346 0)
(-0.0147866 0.000187617 0)
(-0.0148381 0.000152068 0)
(-0.0148781 0.000115728 0)
(-0.0149062 7.86274e-05 0)
(-0.0149223 4.08024e-05 0)
(-0.0149261 2.29184e-06 0)
(-0.0149175 -3.68611e-05 0)
(-0.0148962 -7.66097e-05 0)
(-0.0148621 -0.000116903 0)
(-0.0148151 -0.000157687 0)
(-0.0147549 -0.000198904 0)
(-0.0146816 -0.000240493 0)
(-0.0145949 -0.000282387 0)
(-0.0144948 -0.000324521 0)
(-0.0143813 -0.000366823 0)
(-0.0142543 -0.000409219 0)
(-0.0141139 -0.000451635 0)
(-0.0139599 -0.000493991 0)
(-0.0137925 -0.00053621 0)
(-0.0136117 -0.000578209 0)
(-0.0134177 -0.000619906 0)
(-0.0132104 -0.000661219 0)
(-0.0129901 -0.000702064 0)
(-0.0127569 -0.000742358 0)
(-0.0125111 -0.000782017 0)
(-0.0122527 -0.000820956 0)
(-0.0119821 -0.000859094 0)
(-0.0116996 -0.000896345 0)
(-0.0114054 -0.000932626 0)
(-0.0110998 -0.000967852 0)
(-0.0107832 -0.00100194 0)
(-0.0104559 -0.00103479 0)
(-0.0101185 -0.00106632 0)
(-0.0097712 -0.00109642 0)
(-0.0094146 -0.00112498 0)
(-0.00904918 -0.0011519 0)
(-0.0086755 -0.00117702 0)
(-0.00829413 -0.00120021 0)
(-0.00790573 -0.00122128 0)
(-0.00751101 -0.00124003 0)
(-0.00711074 -0.00125623 0)
(-0.00670578 -0.00126962 0)
(-0.00629708 -0.00127986 0)
(-0.00588569 -0.00128662 0)
(-0.00547278 -0.00128947 0)
(-0.00505966 -0.00128795 0)
(-0.00464776 -0.00128154 0)
(-0.0042387 -0.00126964 0)
(-0.00383428 -0.00125163 0)
(-0.00343645 -0.0012268 0)
(-0.0030474 -0.00119442 0)
(-0.00266948 -0.00115372 0)
(-0.00230526 -0.00110392 0)
(-0.00195749 -0.00104429 0)
(-0.00162905 -0.00097417 0)
(-0.00132296 -0.000893085 0)
(-0.00104226 -0.00080085 0)
(-0.000789931 -0.000697756 0)
(-0.000568813 -0.000584827 0)
(-0.000381432 -0.000464196 0)
(-0.000229766 -0.000339621 0)
(-0.000114908 -0.000217128 0)
(-3.8415e-05 -0.000105816 0)
(-5.0381e-06 -1.97179e-05 0)
(-7.3818e-06 5.67161e-05 0)
(-4.94765e-05 0.000189778 0)
(-0.000139362 0.000328816 0)
(-0.000266861 0.000465339 0)
(-0.000427286 0.000594195 0)
(-0.000617741 0.000712264 0)
(-0.000835138 0.000817927 0)
(-0.00107638 0.000910646 0)
(-0.00133852 0.000990599 0)
(-0.00161873 0.00105842 0)
(-0.00191436 0.00111503 0)
(-0.00222295 0.00116148 0)
(-0.00254226 0.00119889 0)
(-0.00287025 0.00122836 0)
(-0.00320514 0.00125098 0)
(-0.00354535 0.00126772 0)
(-0.00388949 0.00127951 0)
(-0.0042364 0.00128713 0)
(-0.00458507 0.00129131 0)
(-0.00493464 0.00129265 0)
(-0.00528442 0.00129166 0)
(-0.00563378 0.00128876 0)
(-0.00598225 0.0012843 0)
(-0.00632938 0.00127855 0)
(-0.00667483 0.00127172 0)
(-0.00701828 0.00126397 0)
(-0.00735947 0.00125542 0)
(-0.00769816 0.00124614 0)
(-0.00803412 0.00123618 0)
(-0.00836716 0.00122558 0)
(-0.00869707 0.00121434 0)
(-0.00902367 0.00120247 0)
(-0.00934676 0.00118995 0)
(-0.00966615 0.00117676 0)
(-0.00998165 0.00116288 0)
(-0.0102931 0.00114829 0)
(-0.0106002 0.00113295 0)
(-0.0109028 0.00111683 0)
(-0.0112007 0.00109991 0)
(-0.0114936 0.00108215 0)
(-0.0117813 0.00106352 0)
(-0.0120637 0.00104399 0)
(-0.0123404 0.00102353 0)
(-0.0126111 0.00100211 0)
(-0.0128758 0.000979705 0)
(-0.0131339 0.000956285 0)
(-0.0133854 0.000931825 0)
(-0.0136299 0.000906298 0)
(-0.0138672 0.000879681 0)
(-0.0140969 0.000851951 0)
(-0.0143188 0.000823088 0)
(-0.0145325 0.000793073 0)
(-0.0147379 0.000761888 0)
(-0.0149344 0.00072952 0)
(-0.015122 0.000695956 0)
(-0.0153002 0.000661186 0)
(-0.0154688 0.000625205 0)
(-0.0156274 0.000588007 0)
(-0.0157757 0.000549593 0)
(-0.0159135 0.000509966 0)
(-0.0160404 0.000469132 0)
(-0.016156 0.000427102 0)
(-0.0162603 0.00038389 0)
(-0.0163527 0.000339516 0)
(-0.016433 0.000294002 0)
(-0.016501 0.000247377 0)
(-0.0165564 0.000199673 0)
(-0.0165989 0.000150928 0)
(-0.0166282 0.000101184 0)
(-0.0166442 5.04873e-05 0)
(-0.0166466 -1.10854e-06 0)
(-0.0166351 -5.35464e-05 0)
(-0.0166096 -0.000106764 0)
(-0.0165699 -0.000160694 0)
(-0.0165159 -0.000215264 0)
(-0.0164473 -0.000270398 0)
(-0.0163641 -0.000326014 0)
(-0.0162662 -0.000382026 0)
(-0.0161535 -0.000438344 0)
(-0.0160258 -0.000494876 0)
(-0.0158833 -0.000551523 0)
(-0.0157259 -0.000608186 0)
(-0.0155536 -0.000664762 0)
(-0.0153665 -0.000721145 0)
(-0.0151645 -0.000777229 0)
(-0.0149479 -0.000832906 0)
(-0.0147168 -0.000888065 0)
(-0.0144712 -0.000942596 0)
(-0.0142115 -0.000996389 0)
(-0.0139378 -0.00104933 0)
(-0.0136503 -0.00110132 0)
(-0.0133493 -0.00115223 0)
(-0.0130351 -0.00120196 0)
(-0.0127081 -0.0012504 0)
(-0.0123685 -0.00129743 0)
(-0.0120168 -0.00134293 0)
(-0.0116534 -0.00138679 0)
(-0.0112787 -0.00142889 0)
(-0.0108933 -0.00146907 0)
(-0.0104976 -0.00150721 0)
(-0.0100922 -0.00154314 0)
(-0.00967772 -0.00157667 0)
(-0.0092548 -0.0016076 0)
(-0.00882416 -0.00163571 0)
(-0.0083866 -0.00166071 0)
(-0.00794296 -0.0016823 0)
(-0.0074942 -0.00170011 0)
(-0.00704135 -0.00171374 0)
(-0.00658558 -0.0017227 0)
(-0.00612816 -0.00172646 0)
(-0.00567052 -0.0017244 0)
(-0.00521425 -0.00171584 0)
(-0.00476107 -0.00170002 0)
(-0.00431294 -0.00167612 0)
(-0.00387197 -0.00164324 0)
(-0.0034405 -0.00160045 0)
(-0.00302105 -0.00154678 0)
(-0.00261635 -0.00148127 0)
(-0.0022293 -0.001403 0)
(-0.00186298 -0.00131121 0)
(-0.00152055 -0.00120534 0)
(-0.00120523 -0.00108519 0)
(-0.000920221 -0.00095116 0)
(-0.000668606 -0.000804485 0)
(-0.000453276 -0.000647627 0)
(-0.000276712 -0.000484777 0)
(-0.000140699 -0.00032244 0)
(-4.81619e-05 -0.000170122 0)
(-6.66048e-06 -4.18541e-05 0)
(-8.61842e-06 8.42476e-05 0)
(-5.71814e-05 0.000264606 0)
(-0.000160047 0.000445246 0)
(-0.000304736 0.000618828 0)
(-0.000485351 0.000780817 0)
(-0.000698312 0.000928453 0)
(-0.000940013 0.00106035 0)
(-0.00120699 0.00117614 0)
(-0.00149603 0.00127617 0)
(-0.00180413 0.00136125 0)
(-0.00212849 0.00143249 0)
(-0.00246653 0.00149117 0)
(-0.00281592 0.00153861 0)
(-0.00317453 0.00157616 0)
(-0.00354048 0.00160511 0)
(-0.0039121 0.00162668 0)
(-0.00428795 0.00164196 0)
(-0.00466678 0.00165195 0)
(-0.00504751 0.00165754 0)
(-0.00542923 0.00165946 0)
(-0.00581116 0.00165837 0)
(-0.00619266 0.00165479 0)
(-0.00657317 0.00164916 0)
(-0.00695222 0.00164182 0)
(-0.00732942 0.00163306 0)
(-0.00770441 0.00162306 0)
(-0.00807691 0.00161199 0)
(-0.00844662 0.00159994 0)
(-0.00881331 0.001587 0)
(-0.00917674 0.00157319 0)
(-0.0095367 0.00155854 0)
(-0.00989296 0.00154306 0)
(-0.0102453 0.00152672 0)
(-0.0105935 0.0015095 0)
(-0.0109374 0.00149139 0)
(-0.0112767 0.00147235 0)
(-0.0116113 0.00145235 0)
(-0.0119408 0.00143134 0)
(-0.0122651 0.0014093 0)
(-0.0125838 0.00138618 0)
(-0.0128968 0.00136195 0)
(-0.0132038 0.00133656 0)
(-0.0135046 0.00130999 0)
(-0.0137987 0.0012822 0)
(-0.0140861 0.00125314 0)
(-0.0143663 0.00122279 0)
(-0.0146392 0.00119112 0)
(-0.0149043 0.00115809 0)
(-0.0151615 0.00112368 0)
(-0.0154103 0.00108785 0)
(-0.0156505 0.00105058 0)
(-0.0158818 0.00101185 0)
(-0.0161038 0.000971641 0)
(-0.0163163 0.00092993 0)
(-0.0165188 0.000886706 0)
(-0.016711 0.000841956 0)
(-0.0168928 0.000795674 0)
(-0.0170636 0.000747854 0)
(-0.0172231 0.000698498 0)
(-0.0173711 0.000647611 0)
(-0.0175072 0.0005952 0)
(-0.0176311 0.000541282 0)
(-0.0177425 0.000485874 0)
(-0.017841 0.000429003 0)
(-0.0179264 0.000370697 0)
(-0.0179983 0.000310993 0)
(-0.0180565 0.000249933 0)
(-0.0181007 0.000187564 0)
(-0.0181306 0.000123942 0)
(-0.0181459 5.91256e-05 0)
(-0.0181465 -6.81737e-06 0)
(-0.018132 -7.38142e-05 0)
(-0.0181024 -0.000141785 0)
(-0.0180573 -0.000210646 0)
(-0.0179967 -0.000280304 0)
(-0.0179203 -0.000350661 0)
(-0.0178281 -0.000421616 0)
(-0.0177199 -0.000493059 0)
(-0.0175957 -0.000564876 0)
(-0.0174554 -0.00063695 0)
(-0.017299 -0.000709157 0)
(-0.0171265 -0.000781371 0)
(-0.0169378 -0.000853462 0)
(-0.0167331 -0.000925298 0)
(-0.0165125 -0.000996743 0)
(-0.016276 -0.00106766 0)
(-0.0160238 -0.00113791 0)
(-0.0157561 -0.00120735 0)
(-0.015473 -0.00127585 0)
(-0.0151748 -0.00134327 0)
(-0.0148618 -0.00140945 0)
(-0.0145343 -0.00147427 0)
(-0.0141925 -0.00153758 0)
(-0.0138369 -0.00159924 0)
(-0.0134677 -0.00165911 0)
(-0.0130856 -0.00171704 0)
(-0.0126908 -0.00177286 0)
(-0.0122838 -0.00182643 0)
(-0.0118653 -0.00187758 0)
(-0.0114358 -0.0019261 0)
(-0.0109958 -0.0019718 0)
(-0.0105461 -0.00201445 0)
(-0.0100874 -0.00205378 0)
(-0.00962033 -0.0020895 0)
(-0.00914588 -0.00212125 0)
(-0.00866494 -0.00214865 0)
(-0.00817852 -0.00217125 0)
(-0.00768775 -0.0021885 0)
(-0.00719387 -0.00219983 0)
(-0.00669825 -0.00220455 0)
(-0.00620242 -0.00220189 0)
(-0.00570804 -0.00219101 0)
(-0.00521699 -0.00217097 0)
(-0.0047313 -0.00214075 0)
(-0.00425321 -0.00209927 0)
(-0.00378517 -0.00204537 0)
(-0.00332983 -0.00197789 0)
(-0.00289004 -0.00189569 0)
(-0.00246883 -0.00179768 0)
(-0.00206939 -0.00168294 0)
(-0.00169505 -0.00155085 0)
(-0.00134918 -0.00140118 0)
(-0.00103519 -0.00123437 0)
(-0.00075644 -0.00105178 0)
(-0.000516213 -0.000856069 0)
(-0.000317519 -0.000651652 0)
(-0.000162842 -0.000445227 0)
(-5.63448e-05 -0.000246351 0)
(-7.95546e-06 -6.86482e-05 0)
(-9.65655e-06 0.000115486 0)
(-6.38539e-05 0.000349085 0)
(-0.000178221 0.000575922 0)
(-0.000338317 0.000790039 0)
(-0.000537161 0.000987774 0)
(-0.000770521 0.00116695 0)
(-0.00103427 0.0013266 0)