/*--------------------------------*- C++ -*----------------------------------*\
| =========                 |                                                 |
| \\      /  F ield         | OpenFOAM: The Open Source CFD Toolbox           |
|  \\    /   O peration     | Version:  2112                                  |
|   \\  /    A nd           | Website:  www.openfoam.com                      |
|    \\/     M anipulation  |                                                 |
\*---------------------------------------------------------------------------*/
FoamFile
{
    version     2.0;
    format      ascii;
    arch        "LSB;label=32;scalar=64";
    class       volScalarField;
    location    "6";
    object      p;
}
// * * * * * * * * * * * * * * * * * * * * * * * * * * * * * * * * * * * * * //

dimensions      [0 2 -2 0 0 0 0];

internalField   nonuniform List<scalar> 
16641
(
1.37825e-09
-1.82588e-06
-6.73866e-06
-1.36292e-05
-2.15803e-05
-2.9549e-05
-3.71281e-05
-4.38931e-05
-4.95517e-05
-5.3918e-05
-5.6882e-05
-5.83881e-05
-5.84164e-05
-5.69706e-05
-5.40704e-05
-4.97472e-05
-4.40388e-05
-3.69857e-05
-2.86267e-05
-1.8999e-05
-8.13696e-06
3.92887e-06
1.71722e-05
3.15711e-05
4.71084e-05
6.37706e-05
8.15478e-05
0.000100433
0.000120423
0.000141517
0.000163716
0.000187024
0.000211443
0.000236979
0.000263638
0.000291424
0.000320344
0.000350403
0.000381603
0.000413947
0.000447436
0.000482069
0.000517842
0.000554751
0.000592785
0.000631933
0.000672178
0.000713503
0.000755883
0.000799291
0.000843695
0.000889056
0.000935332
0.000982476
0.00103043
0.00107915
0.00112856
0.00117858
0.00122915
0.00128019
0.0013316
0.00138328
0.00143515
0.0014871
0.00153902
0.0015908
0.00164231
0.00169344
0.00174407
0.00179407
0.00184331
0.00189166
0.001939
0.0019852
0.00203013
0.00207368
0.00211572
0.00215614
0.00219483
0.00223169
0.00226662
0.00229954
0.00233037
0.00235903
0.00238548
0.00240965
0.00243152
0.00245105
0.00246823
0.00248306
0.00249555
0.00250571
0.00251358
0.0025192
0.00252263
0.00252392
0.00252316
0.00252042
0.00251581
0.00250941
0.00250135
0.00249174
0.0024807
0.00246836
0.00245486
0.00244032
0.0024249
0.00240873
0.00239196
0.00237475
0.00235723
0.00233957
0.0023219
0.0023044
0.00228719
0.00227046
0.00225435
0.00223902
0.00222465
0.0022114
0.00219944
0.00218896
0.00218014
0.00217313
0.00216809
0.00216511
0.00216411
0.00216484
0.00216677
1.58557e-06
-2.40529e-07
-4.224e-06
-9.65121e-06
-1.5813e-05
-2.20993e-05
-2.80764e-05
-3.33966e-05
-3.78013e-05
-4.11067e-05
-4.31907e-05
-4.39785e-05
-4.34307e-05
-4.15326e-05
-3.82861e-05
-3.37056e-05
-2.78139e-05
-2.06374e-05
-1.22037e-05
-2.54087e-06
8.32443e-06
2.03679e-05
3.35686e-05
4.79088e-05
6.33739e-05
7.99527e-05
9.76367e-05
0.00011642
0.000136298
0.000157272
0.000179342
0.00020251
0.000226779
0.000252154
0.000278637
0.000306234
0.00033495
0.000364786
0.000395746
0.000427831
0.000461039
0.000495368
0.000530815
0.000567371
0.000605026
0.000643768
0.000683579
0.000724439
0.000766325
0.000809207
0.000853053
0.000897824
0.000943479
0.000989969
0.00103724
0.00108524
0.00113389
0.00118314
0.0012329
0.00128309
0.00133364
0.00138444
0.00143539
0.00148641
0.00153738
0.00158819
0.00163872
0.00168887
0.00173851
0.00178751
0.00183576
0.00188313
0.0019295
0.00197475
0.00201875
0.00206139
0.00210255
0.00214212
0.00218
0.00221609
0.0022503
0.00228254
0.00231274
0.00234083
0.00236676
0.00239048
0.00241195
0.00243115
0.00244807
0.00246271
0.00247506
0.00248516
0.00249303
0.00249872
0.00250229
0.00250378
0.00250329
0.00250088
0.00249666
0.00249072
0.00248317
0.00247412
0.00246371
0.00245204
0.00243926
0.0024255
0.0024109
0.00239559
0.00237973
0.00236346
0.00234693
0.00233028
0.00231366
0.00229721
0.0022811
0.00226546
0.00225045
0.00223621
0.0022229
0.00221068
0.00219968
0.00219006
0.00218195
0.00217548
0.00217074
0.00216774
0.00216644
0.00216676
0.00216869
6.19409e-06
3.45626e-06
-5.06255e-07
-5.3841e-06
-1.07365e-05
-1.61127e-05
-2.11492e-05
-2.55617e-05
-2.91307e-05
-3.16928e-05
-3.31314e-05
-3.33699e-05
-3.23625e-05
-3.00866e-05
-2.65364e-05
-2.17179e-05
-1.56445e-05
-8.33413e-06
1.92521e-07
9.91381e-06
2.08084e-05
3.28568e-05
4.60421e-05
6.03499e-05
7.57679e-05
9.22867e-05
0.000109899
0.0001286
0.000148387
0.00016926
0.000191219
0.000214267
0.000238406
0.000263639
0.00028997
0.000317404
0.000345943
0.00037559
0.000406346
0.000438212
0.000471186
0.000505265
0.000540443
0.000576713
0.000614063
0.000652481
0.000691948
0.000732444
0.000773945
0.000816421
0.000859838
0.000904161
0.000949344
0.000995342
0.0010421
0.00108956
0.00113766
0.00118634
0.0012355
0.00128509
0.001335
0.00138516
0.00143546
0.00148581
0.0015361
0.00158622
0.00163606
0.00168551
0.00173445
0.00178276
0.00183031
0.001877
0.00192269
0.00196726
0.00201061
0.00205261
0.00209315
0.00213212
0.00216943
0.00220497
0.00223866
0.00227042
0.00230016
0.00232784
0.00235339
0.00237677
0.00239794
0.00241688
0.00243358
0.00244804
0.00246026
0.00247027
0.0024781
0.0024838
0.0024874
0.00248899
0.00248863
0.0024864
0.0024824
0.00247672
0.00246948
0.00246078
0.00245075
0.00243951
0.00242719
0.00241393
0.00239986
0.00238513
0.00236988
0.00235424
0.00233837
0.0023224
0.00230649
0.00229078
0.00227541
0.00226052
0.00224626
0.00223278
0.0022202
0.00220867
0.00219831
0.00218927
0.00218164
0.00217552
0.002171
0.00216809
0.00216674
0.00216708
0.00216942
1.28864e-05
8.65654e-06
4.12179e-06
-7.70236e-07
-5.85379e-06
-1.07827e-05
-1.52695e-05
-1.90902e-05
-2.20685e-05
-2.40696e-05
-2.49947e-05
-2.47754e-05
-2.33685e-05
-2.07506e-05
-1.69138e-05
-1.18603e-05
-5.59859e-06
1.85822e-06
1.04943e-05
2.02923e-05
3.12349e-05
4.33066e-05
5.64938e-05
7.07848e-05
8.61693e-05
0.00010264
0.000120191
0.000138818
0.00015852
0.000179297
0.00020115
0.000224082
0.000248095
0.000273191
0.000299375
0.000326651
0.000355021
0.000384487
0.00041505
0.00044671
0.000479465
0.000513312
0.000548245
0.000584255
0.000621332
0.000659461
0.000698624
0.000738801
0.000779968
0.000822094
0.000865147
0.00090909
0.000953878
0.000999466
0.0010458
0.00109282
0.00114047
0.00118868
0.00123737
0.00128647
0.00133589
0.00138554
0.00143532
0.00148515
0.00153491
0.0015845
0.00163381
0.00168272
0.00173113
0.0017789
0.00182593
0.00187209
0.00191726
0.00196133
0.00200417
0.00204569
0.00208576
0.00212427
0.00216114
0.00219626
0.00222955
0.00226092
0.00229031
0.00231766
0.00234289
0.00236599
0.0023869
0.00240561
0.00242211
0.0024364
0.00244848
0.00245837
0.00246612
0.00247176
0.00247535
0.00247694
0.00247663
0.00247447
0.00247058
0.00246504
0.00245797
0.00244948
0.00243969
0.00242872
0.0024167
0.00240378
0.00239007
0.00237574
0.0023609
0.00234572
0.00233032
0.00231485
0.00229946
0.00228429
0.00226946
0.00225514
0.00224144
0.00222851
0.00221647
0.00220545
0.00219556
0.00218693
0.00217965
0.0021738
0.00216945
0.00216664
0.00216533
0.00216579
0.00216848
2.08273e-05
1.46639e-05
9.2354e-06
4.02328e-06
-1.08121e-06
-5.81944e-06
-9.9752e-06
-1.33853e-05
-1.59168e-05
-1.74659e-05
-1.79562e-05
-1.73332e-05
-1.55616e-05
-1.26222e-05
-8.5079e-06
-3.21954e-06
3.23624e-06
1.08489e-05
1.96056e-05
2.94924e-05
4.04951e-05
5.26016e-05
6.58009e-05
8.00835e-05
9.54414e-05
0.000111869
0.000129361
0.000147917
0.000167535
0.000188215
0.000209961
0.000232774
0.000256657
0.000281613
0.000307646
0.00033476
0.000362957
0.00039224
0.000422609
0.000454063
0.000486601
0.00052022
0.000554912
0.00059067
0.000627483
0.000665336
0.000704212
0.000744089
0.000784944
0.000826748
0.000869467
0.000913063
0.000957496
0.00100272
0.00104867
0.00109531
0.00114257
0.00119037
0.00123865
0.00128733
0.00133632
0.00138554
0.0014349
0.00148429
0.00153361
0.00158276
0.00163163
0.0016801
0.00172807
0.00177541
0.00182201
0.00186774
0.0019125
0.00195615
0.0019986
0.00203972
0.0020794
0.00211755
0.00215406
0.00218883
0.00222178
0.00225284
0.00228192
0.00230898
0.00233394
0.00235678
0.00237746
0.00239595
0.00241225
0.00242635
0.00243827
0.00244803
0.00245566
0.00246121
0.00246472
0.00246627
0.00246593
0.00246378
0.00245991
0.00245443
0.00244744
0.00243906
0.0024294
0.0024186
0.00240678
0.00239408
0.00238063
0.00236658
0.00235205
0.0023372
0.00232216
0.00230707
0.00229208
0.00227733
0.00226294
0.00224906
0.00223581
0.00222332
0.00221171
0.0022011
0.00219159
0.00218329
0.00217627
0.00217063
0.00216642
0.00216367
0.00216239
0.00216287
0.00216565
2.89076e-05
2.08365e-05
1.43638e-05
8.62744e-06
3.28807e-06
-1.4613e-06
-5.46613e-06
-8.62098e-06
-1.0836e-05
-1.20386e-05
-1.21753e-05
-1.12088e-05
-9.11575e-06
-5.88416e-06
-1.51028e-06
4.00356e-06
1.06505e-05
1.84207e-05
2.73026e-05
3.72844e-05
4.83548e-05
6.05036e-05
7.37222e-05
8.8003e-05
0.00010334
0.000119728
0.000137166
0.000155652
0.000175186
0.000195771
0.000217409
0.000240102
0.000263854
0.000288668
0.000314549
0.0003415
0.000369525
0.000398625
0.000428801
0.000460053
0.000492379
0.000525775
0.000560236
0.000595754
0.000632317
0.000669911
0.000708519
0.00074812
0.000788691
0.000830202
0.000872622
0.000915912
0.000960031
0.00100493
0.00105057
0.00109688
0.0011438
0.00119126
0.0012392
0.00128754
0.00133619
0.00138506
0.00143407
0.00148311
0.00153209
0.0015809
0.00162943
0.00167757
0.0017252
0.00177221
0.00181848
0.00186389
0.00190833
0.00195168
0.00199382
0.00203464
0.00207404
0.0021119
0.00214813
0.00218263
0.00221532
0.00224612
0.00227496
0.00230177
0.0023265
0.00234912
0.00236958
0.00238787
0.00240397
0.00241789
0.00242964
0.00243924
0.00244672
0.00245213
0.00245552
0.00245697
0.00245654
0.00245432
0.0024504
0.00244489
0.0024379
0.00242954
0.00241992
0.00240919
0.00239746
0.00238487
0.00237156
0.00235767
0.00234334
0.00232871
0.00231391
0.00229909
0.00228438
0.00226993
0.00225586
0.00224231
0.00222939
0.00221724
0.00220596
0.00219565
0.00218643
0.00217837
0.00217155
0.00216605
0.00216192
0.00215919
0.00215789
0.00215829
0.00216092
3.66597e-05
2.66741e-05
1.90823e-05
1.2697e-05
6.9752e-06
2.063e-06
-1.93411e-06
-4.96214e-06
-6.97207e-06
-7.92198e-06
-7.7816e-06
-6.53216e-06
-4.16386e-06
-6.73668e-07
3.93634e-06
9.66025e-06
1.64892e-05
2.44124e-05
3.34187e-05
4.34974e-05
5.46386e-05
6.68338e-05
8.0076e-05
9.4359e-05
0.000109678
0.000126031
0.000143416
0.000161835
0.000181288
0.000201777
0.000223307
0.00024588
0.0002695
0.000294173
0.000319902
0.000346692
0.000374546
0.000403465
0.000433453
0.000464507
0.000496628
0.000529812
0.000564053
0.000599344
0.000635674
0.000673029
0.000711392
0.000750743
0.000791059
0.000832312
0.000874469
0.000917495
0.000961347
0.00100598
0.00105134
0.00109738
0.00114403
0.00119123
0.0012389
0.00128697
0.00133536
0.00138397
0.00143272
0.00148151
0.00153024
0.00157881
0.0016271
0.001675
0.0017224
0.00176918
0.00181523
0.00186043
0.00190465
0.00194779
0.00198973
0.00203035
0.00206954
0.00210721
0.00214324
0.00217755
0.00221005
0.00224066
0.0022693
0.00229593
0.00232047
0.0023429
0.00236317
0.00238127
0.00239718
0.00241092
0.00242248
0.0024319
0.0024392
0.00244444
0.00244767
0.00244896
0.00244838
0.00244602
0.00244199
0.00243637
0.00242929
0.00242085
0.00241119
0.00240042
0.00238868
0.0023761
0.00236283
0.002349
0.00233475
0.00232022
0.00230555
0.00229088
0.00227635
0.00226209
0.00224823
0.0022349
0.00222221
0.00221029
0.00219923
0.00218914
0.00218011
0.00217221
0.00216552
0.00216009
0.00215599
0.00215324
0.00215186
0.00215209
0.00215442
4.35662e-05
3.17354e-05
2.30124e-05
1.59161e-05
9.72394e-06
4.54764e-06
4.54515e-07
-2.54496e-06
-4.43823e-06
-5.21262e-06
-4.86149e-06
-3.3842e-06
-7.84577e-07
2.93026e-06
7.75087e-06
1.36662e-05
2.0664e-05
2.87315e-05
3.78572e-05
4.80304e-05
5.92421e-05
7.14845e-05
8.47516e-05
9.90385e-05
0.000114342
0.000130661
0.000147996
0.000166348
0.000185719
0.000206114
0.000227536
0.00024999
0.00027348
0.000298011
0.00032359
0.00035022
0.000377906
0.00040665
0.000436453
0.000467318
0.000499242
0.000532223
0.000566257
0.000601337
0.000637451
0.000674587
0.000712728
0.000751857
0.000791949
0.000832977
0.000874909
0.000917712
0.000961342
0.00100576
0.0010509
0.00109673
0.00114317
0.00119017
0.00123764
0.00128552
0.00133372
0.00138216
0.00143074
0.00147936
0.00152794
0.00157635
0.00162449
0.00167226
0.00171953
0.00176619
0.00181211
0.00185719
0.00190131
0.00194433
0.00198616
0.00202667
0.00206575
0.0021033
0.00213922
0.00217341
0.00220578
0.00223626
0.00226477
0.00229125
0.00231565
0.00233792
0.00235802
0.00237595
0.00239168
0.00240523
0.0024166
0.00242581
0.00243291
0.00243795
0.00244097
0.00244206
0.00244128
0.00243873
0.0024345
0.00242871
0.00242145
0.00241286
0.00240306
0.00239217
0.00238032
0.00236766
0.00235433
0.00234045
0.00232618
0.00231166
0.00229702
0.0022824
0.00226794
0.00225377
0.00224002
0.00222681
0.00221425
0.00220247
0.00219155
0.00218159
0.00217266
0.00216486
0.00215822
0.00215282
0.0021487
0.00214588
0.00214437
0.00214438
0.0021463
4.92199e-05
3.56502e-05
2.58214e-05
1.79921e-05
1.12833e-05
5.78051e-06
1.52042e-06
-1.52258e-06
-3.36775e-06
-4.02961e-06
-3.52372e-06
-1.86684e-06
9.23677e-07
4.83019e-06
9.83508e-06
1.59211e-05
2.30718e-05
3.1272e-05
4.05089e-05
5.07714e-05
6.20501e-05
7.43377e-05
8.76287e-05
0.000101919
0.000117207
0.000133492
0.000150777
0.000169064
0.000188355
0.000208655
0.00022997
0.000252305
0.000275666
0.000300059
0.000325489
0.000351963
0.000379484
0.000408057
0.000437684
0.000468366
0.000500103
0.000532895
0.000566735
0.000601619
0.000637537
0.000674475
0.000712421
0.000751354
0.000791252
0.00083209
0.000873837
0.000916458
0.000959913
0.00100416
0.00104914
0.00109481
0.00114111
0.00118797
0.00123532
0.00128308
0.00133117
0.00137951
0.001428
0.00147655
0.00152506
0.00157341
0.00162151
0.00166923
0.00171646
0.00176309
0.00180899
0.00185405
0.00189814
0.00194115
0.00198296
0.00202344
0.0020625
0.00210002
0.0021359
0.00217004
0.00220236
0.00223276
0.00226119
0.00228757
0.00231186
0.002334
0.00235396
0.00237173
0.00238729
0.00240065
0.00241181
0.00242082
0.00242769
0.00243249
0.00243527
0.0024361
0.00243507
0.00243227
0.00242779
0.00242175
0.00241425
0.00240543
0.0023954
0.00238431
0.00237227
0.00235944
0.00234595
0.00233194
0.00231756
0.00230294
0.00228823
0.00227357
0.00225909
0.00224491
0.00223118
0.00221801
0.0022055
0.00219377
0.0021829
0.00217299
0.00216412
0.00215634
0.00214971
0.00214429
0.0021401
0.00213717
0.0021355
0.00213525
0.00213673
5.32942e-05
3.81048e-05
2.72172e-05
1.86585e-05
1.1414e-05
5.54984e-06
1.07747e-06
-2.05977e-06
-3.9091e-06
-4.50885e-06
-3.89461e-06
-2.09956e-06
8.45657e-07
4.91279e-06
1.00757e-05
1.63109e-05
2.35972e-05
3.19166e-05
4.12544e-05
5.15982e-05
6.29382e-05
7.52667e-05
8.85785e-05
0.000102871
0.000118142
0.000134394
0.000151628
0.000169849
0.00018906
0.000209267
0.000230476
0.000252694
0.000275928
0.000300184
0.00032547
0.000351791
0.000379154
0.000407562
0.00043702
0.00046753
0.000499092
0.000531707
0.00056537
0.000600076
0.000635817
0.000672582
0.000710357
0.000749123
0.000788861
0.000829545
0.000871145
0.000913627
0.000956953
0.00100108
0.00104596
0.00109153
0.00113774
0.00118453
0.00123182
0.00127954
0.0013276
0.00137592
0.00142441
0.00147297
0.00152149
0.00156988
0.00161801
0.00166579
0.00171308
0.00175978
0.00180575
0.00185088
0.00189504
0.00193812
0.00198
0.00202055
0.00205966
0.00209722
0.00213313
0.0021673
0.00219962
0.00223001
0.00225841
0.00228473
0.00230894
0.00233099
0.00235083
0.00236846
0.00238385
0.00239702
0.00240797
0.00241675
0.00242337
0.0024279
0.0024304
0.00243094
0.00242961
0.0024265
0.00242171
0.00241536
0.00240755
0.00239843
0.0023881
0.00237672
0.00236441
0.00235132
0.00233759
0.00232336
0.00230878
0.00229399
0.00227913
0.00226433
0.00224974
0.00223549
0.00222169
0.00220846
0.00219593
0.00218417
0.00217329
0.00216337
0.00215448
0.00214667
0.00214001
0.00213452
0.00213024
0.00212718
0.00212533
0.00212482
0.00212587
5.55151e-05
3.88271e-05
2.69402e-05
1.76734e-05
9.89308e-06
3.65212e-06
-1.05917e-06
-4.32495e-06
-6.21664e-06
-6.79324e-06
-6.10822e-06
-4.21001e-06
-1.14192e-06
3.05729e-06
8.35323e-06
1.4716e-05
2.21202e-05
3.05443e-05
3.99712e-05
5.0387e-05
6.17806e-05
7.4144e-05
8.74724e-05
0.000101763
0.000117016
0.000133232
0.000150416
0.000168571
0.000187702
0.000207816
0.000228921
0.000251025
0.000274134
0.000298258
0.000323403
0.000349578
0.000376789
0.000405042
0.00043434
0.000464689
0.000496089
0.000528542
0.000562044
0.000596593
0.00063218
0.000668796
0.000706428
0.000745059
0.000784669
0.000825235
0.000866729
0.000909117
0.000952361
0.000996419
0.00104124
0.00108678
0.00113297
0.00117975
0.00122705
0.0012748
0.00132291
0.00137129
0.00141986
0.00146851
0.00151714
0.00156565
0.00161392
0.00166183
0.00170928
0.00175613
0.00180226
0.00184755
0.00189188
0.00193512
0.00197715
0.00201785
0.00205709
0.00209478
0.0021308
0.00216504
0.00219743
0.00222786
0.00225627
0.00228259
0.00230676
0.00232874
0.00234848
0.00236598
0.00238121
0.00239419
0.00240493
0.00241345
0.00241981
0.00242405
0.00242623
0.00242644
0.00242476
0.00242129
0.00241614
0.00240941
0.00240123
0.00239173
0.00238104
0.00236929
0.00235664
0.00234321
0.00232916
0.00231463
0.00229977
0.00228472
0.00226962
0.00225462
0.00223985
0.00222543
0.00221149
0.00219815
0.00218551
0.00217366
0.00216271
0.00215272
0.00214375
0.00213588
0.00212913
0.00212355
0.00211916
0.00211596
0.00211393
0.00211316
0.00211382
5.56491e-05
3.75796e-05
2.47584e-05
1.48162e-05
6.51364e-06
-1.0601e-07
-5.0699e-06
-8.48589e-06
-1.04465e-05
-1.1029e-05
-1.03029e-05
-8.3306e-06
-5.16737e-06
-8.61815e-07
4.54397e-06
1.10142e-05
1.85186e-05
2.70326e-05
3.6536e-05
4.70132e-05
5.84517e-05
7.08432e-05
8.41829e-05
9.84682e-05
0.000113699
0.000129879
0.00014701
0.000165099
0.000184151
0.000204174
0.000225177
0.000247168
0.000270157
0.000294153
0.000319164
0.0003452
0.000372267
0.000400373
0.000429524
0.000459724
0.000490977
0.000523285
0.000556646
0.000591058
0.000626515
0.000663009
0.000700526
0.000739054
0.000778573
0.000819061
0.000860489
0.000902828
0.000946039
0.000990081
0.00103491
0.00108047
0.0011267
0.00117354
0.00122092
0.00126877
0.001317
0.00136552
0.00141425
0.00146308
0.0015119
0.00156062
0.00160911
0.00165726
0.00170494
0.00175204
0.00179843
0.00184397
0.00188855
0.00193204
0.00197431
0.00201523
0.00205469
0.00209257
0.00212876
0.00216316
0.00219567
0.0022262
0.00225467
0.00228102
0.00230518
0.00232711
0.00234678
0.00236416
0.00237924
0.00239203
0.00240254
0.00241081
0.00241687
0.00242079
0.00242262
0.00242246
0.00242039
0.00241651
0.00241093
0.00240378
0.00239516
0.00238522
0.00237409
0.00236192
0.00234884
0.002335
0.00232056
0.00230565
0.00229044
0.00227506
0.00225965
0.00224437
0.00222934
0.00221469
0.00220054
0.00218701
0.00217421
0.00216222
0.00215113
0.00214101
0.00213194
0.00212396
0.0021171
0.00211141
0.00210689
0.00210354
0.00210135
0.00210036
0.00210069
5.34958e-05
3.41542e-05
2.04642e-05
9.8855e-06
1.08284e-06
-5.90814e-06
-1.11287e-05
-1.47068e-05
-1.67537e-05
-1.73631e-05
-1.6619e-05
-1.45966e-05
-1.13619e-05
-6.97259e-06
-1.47778e-06
5.08096e-06
1.2669e-05
2.1258e-05
3.08251e-05
4.13525e-05
5.28268e-05
6.5239e-05
7.8584e-05
9.28594e-05
0.000108066
0.000124205
0.000141284
0.000159306
0.000178279
0.000198213
0.000219116
0.000241
0.000263873
0.000287747
0.00031263
0.000338534
0.000365468
0.000393439
0.000422455
0.000452521
0.000483644
0.000515825
0.000549066
0.000583364
0.000618716
0.000655115
0.00069255
0.000731008
0.000770472
0.000810921
0.000852328
0.000894664
0.000937892
0.000981972
0.00102686
0.0010725
0.00111884
0.00116581
0.00121334
0.00126136
0.00130979
0.00135853
0.0014075
0.00145658
0.00150569
0.0015547
0.0016035
0.00165197
0.00169999
0.00174742
0.00179415
0.00184004
0.00188496
0.00192877
0.00197136
0.00201259
0.00205234
0.00209048
0.00212692
0.00216153
0.00219422
0.00222489
0.00225348
0.00227989
0.00230408
0.002326
0.00234561
0.00236288
0.00237781
0.00239041
0.00240069
0.00240868
0.00241443
0.002418
0.00241945
0.00241888
0.00241638
0.00241204
0.00240599
0.00239834
0.00238923
0.00237878
0.00236715
0.00235448
0.00234091
0.00232659
0.00231168
0.00229633
0.00228069
0.00226491
0.00224913
0.0022335
0.00221815
0.0022032
0.00218879
0.00217501
0.00216198
0.00214979
0.00213852
0.00212825
0.00211903
0.00211091
0.00210393
0.00209811
0.00209346
0.00208997
0.00208763
0.00208646
0.00208653
4.88796e-05
2.83669e-05
1.38715e-05
2.69708e-06
-6.5792e-06
-1.39277e-05
-1.94015e-05
-2.31465e-05
-2.52902e-05
-2.59412e-05
-2.51968e-05
-2.31437e-05
-1.98575e-05
-1.54038e-05
-9.83839e-06
-3.20824e-06
4.44768e-06
1.30973e-05
2.27153e-05
3.3282e-05
4.47828e-05
5.72081e-05
7.05523e-05
8.48129e-05
9.99907e-05
0.000116089
0.000133112
0.000151068
0.000169964
0.00018981
0.000210618
0.000232397
0.000255161
0.000278919
0.000303683
0.000329465
0.000356276
0.000384124
0.000413019
0.000442968
0.000473978
0.000506053
0.000539195
0.000573405
0.000608679
0.000645013
0.000682397
0.000720821
0.000760269
0.00080072
0.00084215
0.000884531
0.000927827
0.000971999
0.001017
0.00106278
0.00110929
0.00115646
0.00120421
0.00125248
0.00130118
0.00135022
0.00139951
0.00144894
0.00149841
0.0015478
0.001597
0.00164588
0.00169432
0.00174218
0.00178934
0.00183565
0.001881
0.00192523
0.00196822
0.00200983
0.00204994
0.00208842
0.00212516
0.00216005
0.00219298
0.00222385
0.00225258
0.00227911
0.00230336
0.00232528
0.00234485
0.00236203
0.00237682
0.00238922
0.00239925
0.00240696
0.00241237
0.00241556
0.00241661
0.00241559
0.0024126
0.00240776
0.00240118
0.00239299
0.00238332
0.00237231
0.00236011
0.00234687
0.00233274
0.00231788
0.00230244
0.00228658
0.00227045
0.00225421
0.00223799
0.00222194
0.00220621
0.00219091
0.00217617
0.00216209
0.00214879
0.00213635
0.00212486
0.00211439
0.00210499
0.00209672
0.00208959
0.00208364
0.00207886
0.00207526
0.0020728
0.00207149
0.00207139
4.16426e-05
2.0052e-05
4.81155e-06
-6.91824e-06
-1.66394e-05
-2.43274e-05
-3.00462e-05
-3.39573e-05
-3.62034e-05
-3.69061e-05
-3.61748e-05
-3.41062e-05
-3.07847e-05
-2.62831e-05
-2.06633e-05
-1.39772e-05
-6.26806e-06
2.42875e-06
1.20855e-05
2.26809e-05
3.41991e-05
4.66298e-05
5.9967e-05
7.42082e-05
8.93539e-05
0.000105408
0.000122376
0.000140265
0.000159085
0.000178847
0.000199562
0.000221243
0.000243903
0.000267554
0.000292208
0.000317878
0.000344578
0.000372317
0.000401107
0.000430956
0.000461872
0.000493861
0.000526929
0.000561076
0.000596301
0.000632601
0.000669969
0.000708395
0.000747866
0.000788362
0.000829861
0.000872335
0.000915751
0.000960071
0.00100525
0.00105124
0.00109798
0.00114541
0.00119345
0.00124205
0.00129109
0.00134051
0.0013902
0.00144006
0.00148998
0.00153984
0.00158952
0.0016389
0.00168785
0.00173622
0.0017839
0.00183073
0.00187658
0.00192131
0.00196478
0.00200685
0.0020474
0.00208629
0.00212341
0.00215862
0.00219184
0.00222296
0.00225189
0.00227856
0.0023029
0.00232486
0.0023444
0.0023615
0.00237615
0.00238835
0.00239813
0.00240553
0.00241059
0.00241338
0.00241397
0.00241247
0.00240896
0.00240356
0.0023964
0.00238761
0.00237733
0.00236569
0.00235287
0.002339
0.00232425
0.00230878
0.00229274
0.00227631
0.00225963
0.00224285
0.00222614
0.00220962
0.00219345
0.00217774
0.00216262
0.0021482
0.00213458
0.00212186
0.00211011
0.00209941
0.00208981
0.00208136
0.00207408
0.00206799
0.00206311
0.0020594
0.00205685
0.00205547
0.00205528
3.16415e-05
9.05843e-06
-6.87042e-06
-1.91157e-05
-2.92521e-05
-3.72596e-05
-4.32118e-05
-4.7285e-05
-4.96353e-05
-5.03963e-05
-4.96877e-05
-4.76155e-05
-4.4272e-05
-3.97363e-05
-3.40761e-05
-2.7348e-05
-1.95992e-05
-1.08677e-05
-1.18341e-06
9.43069e-06
2.09577e-05
3.33865e-05
4.67107e-05
6.09276e-05
7.60378e-05
9.20453e-05
0.000108957
0.000126781
0.000145527
0.000165207
0.000185835
0.000207423
0.000229986
0.000253537
0.000278091
0.000303662
0.000330264
0.000357909
0.00038661
0.000416377
0.00044722
0.000479147
0.000512164
0.000546275
0.000581481
0.000617779
0.000655166
0.000693632
0.000733167
0.000773752
0.000815366
0.000857984
0.000901573
0.000946096
0.00099151
0.00103776
0.0010848
0.00113256
0.00118098
0.00122996
0.00127944
0.00132931
0.00137949
0.00142986
0.00148031
0.00153072
0.00158097
0.00163094
0.00168048
0.00172946
0.00177774
0.00182517
0.00187161
0.00191692
0.00196096
0.00200357
0.00204463
0.00208399
0.00212154
0.00215716
0.00219072
0.00222213
0.0022513
0.00227815
0.00230261
0.00232462
0.00234416
0.00236118
0.0023757
0.0023877
0.00239722
0.0024043
0.00240898
0.00241134
0.00241145
0.00240941
0.00240534
0.00239934
0.00239155
0.00238211
0.00237115
0.00235883
0.00234532
0.00233076
0.00231532
0.00229918
0.00228249
0.00226542
0.00224812
0.00223077
0.00221349
0.00219646
0.00217979
0.00216362
0.00214807
0.00213326
0.00211929
0.00210625
0.00209422
0.00208327
0.00207345
0.00206481
0.00205737
0.00205116
0.00204617
0.00204239
0.00203979
0.00203838
0.00203819
1.8745e-05
-4.75229e-06
-2.13161e-05
-3.40383e-05
-4.45604e-05
-5.28665e-05
-5.90392e-05
-6.32684e-05
-6.57222e-05
-6.6545e-05
-6.58659e-05
-6.37992e-05
-6.04441e-05
-5.58861e-05
-5.01979e-05
-4.34404e-05
-3.56638e-05
-2.69089e-05
-1.72075e-05
-6.58401e-06
4.94366e-06
1.73636e-05
3.0669e-05
4.4857e-05
5.99286e-05
7.58881e-05
9.27429e-05
0.000110502
0.000129176
0.000148779
0.000169324
0.000190826
0.0002133
0.000236761
0.000261225
0.000286708
0.000313226
0.000340792
0.000369421
0.000399126
0.000429917
0.000461805
0.000494798
0.000528902
0.000564118
0.000600448
0.000637889
0.000676434
0.000716073
0.000756792
0.000798569
0.000841381
0.000885197
0.00092998
0.000975688
0.00102227
0.00106968
0.00111784
0.00116669
0.00121614
0.00126612
0.00131653
0.00136727
0.00141823
0.0014693
0.00152035
0.00157127
0.0016219
0.00167213
0.0017218
0.00177077
0.00181889
0.00186601
0.00191198
0.00195665
0.00199988
0.00204152
0.00208143
0.00211948
0.00215555
0.00218951
0.00222127
0.00225072
0.00227779
0.00230239
0.00232449
0.00234403
0.002361
0.00237538
0.00238718
0.00239643
0.00240316
0.00240744
0.00240934
0.00240893
0.00240633
0.00240165
0.002395
0.00238653
0.00237637
0.00236468
0.00235162
0.00233736
0.00232205
0.00230587
0.00228899
0.00227159
0.00225382
0.00223586
0.00221786
0.00219998
0.00218236
0.00216515
0.00214848
0.00213247
0.00211723
0.00210286
0.00208947
0.00207713
0.00206591
0.00205586
0.00204702
0.00203942
0.00203309
0.00202801
0.00202419
0.00202158
0.0020202
0.0020201
2.8333e-06
-2.15064e-05
-3.86557e-05
-5.18181e-05
-6.26973e-05
-7.12813e-05
-7.76612e-05
-8.20388e-05
-8.45935e-05
-8.54795e-05
-8.48344e-05
-8.278e-05
-7.94222e-05
-7.4852e-05
-6.91466e-05
-6.23705e-05
-5.4577e-05
-4.58088e-05
-3.60997e-05
-2.54754e-05
-1.39547e-05
-1.55024e-06
1.17309e-05
2.58859e-05
4.09159e-05
5.6826e-05
7.36239e-05
9.13195e-05
0.000109925
0.000129453
0.000149921
0.000171343
0.000193735
0.000217116
0.000241501
0.000266909
0.000293357
0.000320861
0.000349437
0.000379098
0.000409859
0.000441733
0.000474727
0.000508852
0.00054411
0.000580505
0.000618037
0.000656699
0.000696485
0.000737381
0.000779369
0.000822426
0.000866521
0.000911621
0.000957684
0.00100466
0.0010525
0.00110113
0.00115048
0.00120048
0.00125104
0.00130206
0.00135345
0.00140508
0.00145686
0.00150864
0.00156029
0.00161169
0.00166269
0.00171314
0.00176288
0.00181177
0.00185965
0.00190637
0.00195176
0.00199568
0.00203798
0.0020785
0.00211712
0.0021537
0.00218812
0.00222027
0.00225005
0.00227737
0.00230215
0.00232435
0.00234392
0.00236083
0.00237508
0.00238668
0.00239564
0.00240202
0.00240588
0.00240728
0.00240633
0.00240312
0.00239778
0.00239043
0.00238122
0.0023703
0.00235783
0.00234397
0.00232889
0.00231277
0.00229579
0.00227812
0.00225995
0.00224143
0.00222274
0.00220405
0.0021855
0.00216726
0.00214946
0.00213224
0.00211572
0.00210002
0.00208524
0.00207147
0.00205879
0.00204728
0.00203698
0.00202795
0.0020202
0.00201375
0.00200861
0.00200476
0.00200218
0.00200089
0.00200095
-1.62036e-05
-4.132e-05
-5.90091e-05
-7.25777e-05
-8.3787e-05
-9.2629e-05
-9.92023e-05
-0.00010372
-0.000106372
-0.000107321
-0.000106713
-0.000104676
-0.000101323
-9.67492e-05
-9.1036e-05
-8.4251e-05
-7.64499e-05
-6.76777e-05
-5.79696e-05
-4.73525e-05
-3.5846e-05
-2.34632e-05
-1.02114e-05
3.90671e-06
1.88926e-05
3.47518e-05
5.14927e-05
6.91261e-05
8.76646e-05
0.000107123
0.000127518
0.000148867
0.000171186
0.000194496
0.000218814
0.000244159
0.000270552
0.00029801
0.00032655
0.000356188
0.000386941
0.000418823
0.000451846
0.00048602
0.000521351
0.000557845
0.000595503
0.000634323
0.000674297
0.000715415
0.000757661
0.000801012
0.000845441
0.000890914
0.000937391
0.000984822
0.00103315
0.00108232
0.00113225
0.00118287
0.00123408
0.0012858
0.00133791
0.00139031
0.00144286
0.00149546
0.00154795
0.00160019
0.00165205
0.00170336
0.00175397
0.00180372
0.00185244
0.00189998
0.00194618
0.00199087
0.00203389
0.0020751
0.00211435
0.00215151
0.00218644
0.00221903
0.00224917
0.00227678
0.00230178
0.00232411
0.00234372
0.00236059
0.00237472
0.0023861
0.00239477
0.00240078
0.00240419
0.00240508
0.00240354
0.00239968
0.00239364
0.00238555
0.00237555
0.00236381
0.00235049
0.00233577
0.00231982
0.00230283
0.00228499
0.00226647
0.00224746
0.00222814
0.00220867
0.00218923
0.00216998
0.00215107
0.00213264
0.00211483
0.00209777
0.00208157
0.00206634
0.00205217
0.00203914
0.00202733
0.00201678
0.00200753
0.00199963
0.00199309
0.0019879
0.00198407
0.00198155
0.00198039
0.00198071
-3.84674e-05
-6.43007e-05
-8.24877e-05
-9.64311e-05
-0.000107945
-0.000117026
-0.00012378
-0.000128429
-0.000131173
-0.000132184
-0.000131615
-0.000129601
-0.000126258
-0.000121688
-0.000115976
-0.00010919
-0.00010139
-9.26223e-05
-8.29233e-05
-7.23208e-05
-6.08353e-05
-4.84801e-05
-3.52625e-05
-2.1185e-05
-6.24582e-06
9.5611e-06
2.62449e-05
4.38172e-05
6.22914e-05
8.16836e-05
0.000102011
0.000123293
0.000145547
0.000168795
0.000193056
0.000218353
0.000244704
0.000272131
0.000300653
0.000330288
0.000361055
0.00039297
0.000426046
0.000460297
0.000495732
0.000532358
0.000570178
0.000609192
0.000649396
0.00069078
0.00073333
0.000777026
0.000821841
0.000867742
0.00091469
0.000962638
0.00101153
0.0010613
0.00111188
0.00116319
0.00121513
0.00126762
0.00132054
0.00137377
0.0014272
0.00148069
0.0015341
0.00158728
0.00164008
0.00169234
0.0017439
0.00179459
0.00184425
0.0018927
0.00193978
0.00198531
0.00202914
0.0020711
0.00211105
0.00214884
0.00218434
0.00221743
0.00224799
0.00227593
0.00230117
0.00232365
0.00234333
0.00236017
0.00237417
0.00238535
0.00239372
0.00239934
0.00240228
0.00240261
0.00240045
0.00239591
0.00238912
0.00238023
0.00236939