/*--------------------------------*- C++ -*----------------------------------*\
| =========                 |                                                 |
| \\      /  F ield         | OpenFOAM: The Open Source CFD Toolbox           |
|  \\    /   O peration     | Version:  2112                                  |
|   \\  /    A nd           | Website:  www.openfoam.com                      |
|    \\/     M anipulation  |                                                 |
\*---------------------------------------------------------------------------*/
FoamFile
{
    version     2.0;
    format      ascii;
    arch        "LSB;label=32;scalar=64";
    class       surfaceScalarField;
    location    "6";
    object      phi;
}
// * * * * * * * * * * * * * * * * * * * * * * * * * * * * * * * * * * * * * //

dimensions      [0 3 -1 0 0 0 0];

oriented        oriented;

internalField   nonuniform List<scalar> 
33024
(
4.55951e-09
-4.56173e-09
8.49812e-09
-3.93878e-09
7.40941e-09
1.08893e-09
6.91877e-11
7.34005e-09
-1.34322e-08
1.35015e-08
-3.26964e-08
1.92642e-08
-5.69861e-08
2.42897e-08
-8.55242e-08
2.85379e-08
-1.1758e-07
3.20558e-08
-1.52498e-07
3.49172e-08
-1.89703e-07
3.72054e-08
-2.28705e-07
3.90025e-08
-2.69091e-07
4.03854e-08
-3.10514e-07
4.14238e-08
-3.52694e-07
4.21788e-08
-3.95398e-07
4.27042e-08
-4.38443e-07
4.30458e-08
-4.81685e-07
4.3242e-08
-5.2501e-07
4.33245e-08
-5.68329e-07
4.33191e-08
-6.11576e-07
4.32468e-08
-6.54699e-07
4.31238e-08
-6.97662e-07
4.29629e-08
-7.40435e-07
4.27731e-08
-7.82997e-07
4.25611e-08
-8.25328e-07
4.23312e-08
-8.67414e-07
4.20856e-08
-9.09239e-07
4.18255e-08
-9.5079e-07
4.15507e-08
-9.9205e-07
4.12599e-08
-1.033e-06
4.09507e-08
-1.07362e-06
4.06205e-08
-1.11389e-06
4.02663e-08
-1.15377e-06
3.98845e-08
-1.19324e-06
3.94714e-08
-1.23227e-06
3.90229e-08
-1.2708e-06
3.8535e-08
-1.30881e-06
3.80033e-08
-1.34623e-06
3.74238e-08
-1.38302e-06
3.6792e-08
-1.41912e-06
3.61039e-08
-1.45448e-06
3.53552e-08
-1.48902e-06
3.4542e-08
-1.52268e-06
3.36604e-08
-1.55539e-06
3.27063e-08
-1.58706e-06
3.16762e-08
-1.61763e-06
3.05667e-08
-1.64701e-06
2.9375e-08
-1.6751e-06
2.8098e-08
-1.70184e-06
2.67334e-08
-1.72712e-06
2.52789e-08
-1.75085e-06
2.37329e-08
-1.77294e-06
2.20943e-08
-1.79331e-06
2.03626e-08
-1.81184e-06
1.85375e-08
-1.82846e-06
1.66198e-08
-1.84307e-06
1.46105e-08
-1.85559e-06
1.25115e-08
-1.86591e-06
1.03256e-08
-1.87397e-06
8.05627e-09
-1.87968e-06
5.70775e-09
-1.88296e-06
3.28501e-09
-1.88376e-06
7.94017e-10
-1.882e-06
-1.75926e-09
-1.87763e-06
-4.36658e-09
-1.87061e-06
-7.02003e-09
-1.8609e-06
-9.71047e-09
-1.84847e-06
-1.24282e-08
-1.83331e-06
-1.51629e-08
-1.8154e-06
-1.79035e-08
-1.79477e-06
-2.06385e-08
-1.77141e-06
-2.33558e-08
-1.74537e-06
-2.60431e-08
-1.71668e-06
-2.86879e-08
-1.6854e-06
-3.12772e-08
-1.6516e-06
-3.37982e-08
-1.61536e-06
-3.62384e-08
-1.57678e-06
-3.85851e-08
-1.53595e-06
-4.08259e-08
-1.493e-06
-4.2949e-08
-1.44806e-06
-4.49433e-08
-1.40126e-06
-4.6798e-08
-1.35276e-06
-4.85032e-08
-1.30271e-06
-5.005e-08
-1.25128e-06
-5.14303e-08
-1.19864e-06
-5.26368e-08
-1.14498e-06
-5.36635e-08
-1.09047e-06
-5.45054e-08
-1.03532e-06
-5.51589e-08
-9.79694e-07
-5.5621e-08
-9.23804e-07
-5.58902e-08
-8.67838e-07
-5.59658e-08
-8.1199e-07
-5.58484e-08
-7.5645e-07
-5.55396e-08
-7.01408e-07
-5.50418e-08
-6.4705e-07
-5.43581e-08
-5.93557e-07
-5.34929e-08
-5.41107e-07
-5.24505e-08
-4.89871e-07
-5.12364e-08
-4.40015e-07
-4.9856e-08
-3.917e-07
-4.83156e-08
-3.45078e-07
-4.66217e-08
-3.00297e-07
-4.47806e-08
-2.57499e-07
-4.2799e-08
-2.16815e-07
-4.06836e-08
-1.78374e-07
-3.84411e-08
-1.42295e-07
-3.60785e-08
-1.08693e-07
-3.36024e-08
-7.76734e-08
-3.10197e-08
-4.9336e-08
-2.83376e-08
-2.37724e-08
-2.55635e-08
-1.0669e-09
-2.27056e-08
1.87073e-08
-1.97742e-08
3.54854e-08
-1.67781e-08
4.92158e-08
-1.37306e-08
5.98638e-08
-1.06482e-08
6.7414e-08
-7.55043e-09
7.18768e-08
-4.46306e-09
7.32972e-08
-1.42038e-09
7.1764e-08
1.53331e-09
6.74292e-08
4.33487e-09
6.0528e-08
6.9013e-09
5.14137e-08
9.1144e-09
4.06066e-08
1.08073e-08
2.88633e-08
1.17434e-08
1.72667e-08
1.15967e-08
7.33981e-09
9.92691e-09
1.09935e-09
6.24059e-09
1.09949e-09
3.92046e-09
-8.48235e-09
2.1657e-09
-2.18345e-09
-1.12627e-08
1.45167e-08
-3.8931e-08
3.50083e-08
-8.13385e-08
5.59093e-08
-1.37639e-07
7.55649e-08
-2.06506e-07
9.31572e-08
-2.86365e-07
1.08398e-07
-3.75602e-07
1.21292e-07
-4.72675e-07
1.3199e-07
-5.76179e-07
1.40709e-07
-6.84868e-07
1.47691e-07
-7.97658e-07
1.53176e-07
-9.13626e-07
1.57392e-07
-1.03199e-06
1.60547e-07
-1.15212e-06
1.62826e-07
-1.27346e-06
1.64391e-07
-1.3956e-06
1.65379e-07
-1.51818e-06
1.65907e-07
-1.64093e-06
1.6607e-07
-1.76363e-06
1.65947e-07
-1.88611e-06
1.65601e-07
-2.00823e-06
1.65081e-07
-2.12988e-06
1.64423e-07
-2.25097e-06
1.63655e-07
-2.37143e-06
1.62795e-07
-2.4912e-06
1.61854e-07
-2.61022e-06
1.6084e-07
-2.72842e-06
1.59752e-07
-2.84575e-06
1.58587e-07
-2.96214e-06
1.5734e-07
-3.07752e-06
1.56002e-07
-3.19182e-06
1.54563e-07
-3.30494e-06
1.5301e-07
-3.4168e-06
1.5133e-07
-3.52729e-06
1.49511e-07
-3.63629e-06
1.47536e-07
-3.74368e-06
1.45392e-07
-3.84932e-06
1.43063e-07
-3.95306e-06
1.40533e-07
-4.05474e-06
1.37789e-07
-4.1542e-06
1.34815e-07
-4.25126e-06
1.31596e-07
-4.34572e-06
1.28119e-07
-4.43738e-06
1.24371e-07
-4.52604e-06
1.20337e-07
-4.61148e-06
1.16008e-07
-4.69348e-06
1.11371e-07
-4.7718e-06
1.06417e-07
-4.8462e-06
1.01138e-07
-4.91645e-06
9.55274e-08
-4.9823e-06
8.9579e-08
-5.04349e-06
8.32896e-08
-5.09979e-06
7.66577e-08
-5.15093e-06
6.96841e-08
-5.19669e-06
6.23716e-08
-5.2368e-06
5.47257e-08
-5.27105e-06
4.67541e-08
-5.29919e-06
3.84675e-08
-5.32101e-06
2.98791e-08
-5.33631e-06
2.10052e-08
-5.34489e-06
1.18649e-08
-5.34657e-06
2.48015e-09
-5.34121e-06
-7.12395e-09
-5.32866e-06
-1.69202e-08
-5.3088e-06
-2.68776e-08
-5.28155e-06
-3.69629e-08
-5.24683e-06
-4.71404e-08
-5.20462e-06
-5.73719e-08
-5.15491e-06
-6.76172e-08
-5.09771e-06
-7.78344e-08
-5.03309e-06
-8.79798e-08
-4.96112e-06
-9.80086e-08
-4.88194e-06
-1.07875e-07
-4.79568e-06
-1.17533e-07
-4.70254e-06
-1.26937e-07
-4.60274e-06
-1.36039e-07
-4.49653e-06
-1.44796e-07
-4.3842e-06
-1.53163e-07
-4.26605e-06
-1.61097e-07
-4.14243e-06
-1.68557e-07
-4.01373e-06
-1.75507e-07
-3.88032e-06
-1.81909e-07
-3.74264e-06
-1.87732e-07
-3.60112e-06
-1.92946e-07
-3.45623e-06
-1.97526e-07
-3.30845e-06
-2.01449e-07
-3.15826e-06
-2.04697e-07
-3.00616e-06
-2.07255e-07
-2.85267e-06
-2.09114e-07
-2.69829e-06
-2.10266e-07
-2.54355e-06
-2.1071e-07
-2.38895e-06
-2.10445e-07
-2.23501e-06
-2.09478e-07
-2.08224e-06
-2.07814e-07
-1.93113e-06
-2.05465e-07
-1.78218e-06
-2.02444e-07
-1.63587e-06
-1.98767e-07
-1.49265e-06
-1.94452e-07
-1.35299e-06
-1.89517e-07
-1.21732e-06
-1.83983e-07
-1.08607e-06
-1.77873e-07
-9.59644e-07
-1.71207e-07
-8.38433e-07
-1.6401e-07
-7.22812e-07
-1.56305e-07
-6.13139e-07
-1.48114e-07
-5.09754e-07
-1.39463e-07
-4.12981e-07
-1.30376e-07
-3.23122e-07
-1.20878e-07
-2.40464e-07
-1.10996e-07
-1.65268e-07
-1.00759e-07
-9.77727e-08
-9.02008e-08
-3.81899e-08
-7.93571e-08
1.33037e-08
-6.82717e-08
5.65722e-08
-5.69992e-08
9.15261e-08
-4.56021e-08
1.18141e-07
-3.41649e-08
1.3647e-07
-2.27924e-08
1.4667e-07
-1.16203e-08
1.4903e-07
-8.26022e-10
1.44007e-07
9.35823e-09
1.32283e-07
1.86258e-08
1.14828e-07
2.65693e-08
9.2985e-08
3.26504e-08
6.85618e-08
3.61669e-08
4.39194e-08
3.62392e-08
2.20039e-08
3.18423e-08
6.20295e-09
2.20412e-08
7.30248e-09
-1.06226e-09
-7.41985e-09
-1.46433e-08
1.13974e-08
-4.63296e-08
4.6203e-08
-9.84932e-08
8.71718e-08
-1.71551e-07
1.28967e-07
-2.64581e-07
1.68594e-07
-3.75905e-07
2.04481e-07
-5.03481e-07
2.35973e-07
-6.45145e-07
2.62957e-07
-7.98777e-07
2.85622e-07
-9.62388e-07
3.04321e-07
-1.13418e-06
3.1948e-07
-1.31255e-06
3.31548e-07
-1.49612e-06
3.4096e-07
-1.68369e-06
3.48124e-07
-1.87428e-06
3.5341e-07
-2.06703e-06
3.57143e-07
-2.26126e-06
3.59608e-07
-2.4564e-06
3.61045e-07
-2.65198e-06
3.61656e-07
-2.84764e-06
3.61607e-07
-3.04308e-06
3.61033e-07
-3.23804e-06
3.60041e-07
-3.43232e-06
3.58711e-07
-3.62577e-06
3.57104e-07
-3.81824e-06
3.55264e-07
-4.0096e-06
3.53218e-07
-4.19975e-06
3.50981e-07
-4.38855e-06
3.48558e-07
-4.57591e-06
3.45947e-07
-4.76171e-06
3.43135e-07
-4.94581e-06
3.40108e-07
-5.1281e-06
3.36845e-07
-5.30841e-06
3.33323e-07
-5.48659e-06
3.29515e-07
-5.66247e-06
3.25392e-07
-5.83586e-06
3.20926e-07
-6.00656e-06
3.16085e-07
-6.17433e-06
3.1084e-07
-6.33896e-06
3.05158e-07
-6.50018e-06
2.99009e-07
-6.65773e-06
2.92361e-07
-6.81131e-06
2.85186e-07
-6.96065e-06
2.77455e-07
-7.10542e-06
2.69139e-07
-7.2453e-06
2.60214e-07
-7.37994e-06
2.50655e-07
-7.50901e-06
2.4044e-07
-7.63214e-06
2.2955e-07
-7.74897e-06
2.17968e-07
-7.85913e-06
2.05682e-07
-7.96223e-06
1.92682e-07
-8.0579e-06
1.7896e-07
-8.14576e-06
1.64517e-07
-8.22543e-06
1.49354e-07
-8.29654e-06
1.33479e-07
-8.35872e-06
1.16905e-07
-8.41161e-06
9.96497e-08
-8.45488e-06
8.17373e-08
-8.4882e-06
6.31969e-08
-8.51126e-06
4.40641e-08
-8.52378e-06
2.43801e-08
-8.52549e-06
4.19286e-09
-8.51617e-06
-1.64451e-08
-8.49561e-06
-3.74738e-08
-8.46366e-06
-5.88281e-08
-8.42019e-06
-8.04378e-08
-8.3651e-06
-1.02227e-07
-8.29836e-06
-1.24115e-07
-8.21996e-06
-1.46019e-07
-8.12994e-06
-1.67848e-07
-8.02841e-06
-1.89513e-07
-7.9155e-06
-2.10919e-07
-7.7914e-06
-2.31971e-07
-7.65636e-06
-2.52573e-07
-7.51067e-06
-2.72629e-07
-7.35467e-06
-2.92042e-07
-7.18874e-06
-3.1072e-07
-7.01334e-06
-3.2857e-07
-6.82893e-06
-3.45504e-07
-6.63605e-06
-3.61439e-07
-6.43526e-06
-3.76294e-07
-6.22717e-06
-3.89997e-07
-6.01242e-06
-4.0248e-07
-5.79169e-06
-4.13681e-07
-5.56567e-06
-4.23548e-07
-5.33508e-06
-4.32034e-07
-5.10068e-06
-4.39101e-07
-4.86321e-06
-4.44719e-07
-4.62346e-06
-4.48866e-07
-4.3822e-06
-4.51527e-07
-4.14021e-06
-4.52696e-07
-3.89829e-06
-4.52373e-07
-3.6572e-06
-4.50567e-07
-3.41772e-06
-4.47293e-07
-3.18061e-06
-4.4257e-07
-2.94663e-06
-4.36425e-07
-2.71651e-06
-4.28888e-07
-2.49097e-06
-4.19995e-07
-2.2707e-06
-4.09784e-07
-2.05639e-06
-3.98295e-07
-1.84869e-06
-3.85572e-07
-1.64824e-06
-3.7166e-07
-1.45564e-06
-3.56605e-07
-1.27149e-06
-3.40454e-07
-1.09635e-06
-3.23256e-07
-9.30756e-07
-3.0506e-07
-7.75214e-07
-2.85917e-07
-6.30209e-07
-2.65883e-07
-4.96191e-07
-2.45014e-07
-3.73576e-07
-2.23375e-07
-2.62741e-07
-2.01036e-07
-1.64015e-07
-1.78082e-07
-7.76761e-08
-1.54611e-07
-3.93266e-09
-1.30743e-07
5.70897e-08
-1.06625e-07
1.05365e-07
-8.24402e-08
1.40996e-07
-5.84235e-08
1.64247e-07
-3.48711e-08
1.75584e-07
-1.21622e-08
1.75726e-07
9.21586e-09
1.65712e-07
2.864e-08
1.46972e-07
4.5309e-08
1.21414e-07
5.82084e-08
9.15057e-08
6.60758e-08
6.03409e-08
6.7404e-08
3.1661e-08
6.05223e-08
9.8121e-09
4.38902e-08
1.71145e-08
-7.46749e-09
4.7186e-11
-3.58351e-08
3.97651e-08
-8.87886e-08
9.91567e-08
-1.67789e-07
1.66173e-07
-2.72748e-07
2.33927e-07
-4.02416e-07
2.98262e-07
-5.54813e-07
3.56878e-07
-7.27565e-07
4.08725e-07
-9.18141e-07
4.53533e-07
-1.12403e-06
4.91508e-07
-1.34283e-06
5.23127e-07
-1.57236e-06
5.49005e-07
-1.81063e-06
5.69815e-07
-2.05589e-06
5.86226e-07
-2.30665e-06
5.98877e-07
-2.56159e-06
6.08353e-07
-2.81963e-06
6.1518e-07
-3.07984e-06
6.19818e-07
-3.34145e-06
6.22662e-07
-3.60384e-06
6.24048e-07
-3.86649e-06
6.24253e-07
-4.12896e-06
6.23503e-07
-4.3909e-06
6.2198e-07
-4.65201e-06
6.19825e-07
-4.91205e-06
6.17144e-07
-5.1708e-06
6.14011e-07
-5.42806e-06
6.1048e-07
-5.68366e-06
6.06579e-07
-5.93742e-06
6.02321e-07
-6.18918e-06
5.97703e-07
-6.43876e-06
5.9271e-07
-6.68597e-06
5.87319e-07
-6.93062e-06
5.81497e-07
-7.1725e-06
5.75209e-07
-7.4114e-06
5.68411e-07
-7.64707e-06
5.61057e-07
-7.87924e-06
5.531e-07
-8.10764e-06
5.4449e-07
-8.33198e-06
5.35175e-07
-8.55193e-06
5.25105e-07
-8.76715e-06
5.14229e-07
-8.97728e-06
5.02497e-07
-9.18195e-06
4.8986e-07
-9.38077e-06
4.7627e-07
-9.57332e-06
4.61685e-07
-9.75916e-06
4.4606e-07
-9.93787e-06
4.29359e-07
-1.0109e-05
4.11545e-07
-1.0272e-05
3.92588e-07
-1.04265e-05
3.72462e-07
-1.0572e-05
3.51147e-07
-1.07079e-05
3.28629e-07
-1.08339e-05
3.04899e-07
-1.09493e-05
2.79958e-07
-1.10538e-05
2.53812e-07
-1.11467e-05
2.26476e-07
-1.12278e-05
1.97973e-07
-1.12965e-05
1.68338e-07
-1.13524e-05
1.37611e-07
-1.1395e-05
1.05844e-07
-1.14241e-05
7.3099e-08
-1.14391e-05
3.9447e-08
-1.14399e-05
4.97021e-09
-1.14261e-05
-3.02423e-08
-1.13975e-05
-6.60877e-08
-1.13539e-05
-1.02456e-07
-1.12951e-05
-1.39229e-07
-1.1221e-05
-1.76278e-07
-1.11317e-05
-2.1347e-07
-1.1027e-05
-2.50661e-07
-1.09072e-05
-2.87706e-07
-1.07722e-05
-3.2445e-07
-1.06224e-05
-3.60739e-07
-1.0458e-05
-3.96413e-07
-1.02792e-05
-4.31313e-07
-1.00866e-05
-4.65279e-07
-9.88047e-06
-4.98153e-07
-9.66141e-06
-5.29779e-07
-9.42997e-06
-5.60007e-07
-9.18679e-06
-5.8869e-07
-8.93254e-06
-6.1569e-07
-8.66796e-06
-6.40875e-07
-8.39383e-06
-6.64126e-07
-8.11098e-06
-6.85329e-07
-7.82027e-06
-7.04386e-07
-7.52261e-06
-7.21206e-07
-7.21893e-06
-7.35715e-07
-6.91019e-06
-7.47849e-07
-6.59735e-06
-7.57557e-07
-6.28141e-06
-7.64803e-07
-5.96338e-06
-7.69561e-07
-5.64425e-06
-7.71821e-07
-5.32504e-06
-7.71582e-07
-5.00676e-06
-7.68856e-07
-4.69038e-06
-7.63666e-07
-4.37691e-06
-7.56044e-07
-4.0673e-06
-7.46031e-07
-3.76251e-06
-7.33676e-07
-3.46348e-06
-7.19033e-07
-3.17109e-06
-7.02165e-07
-2.88625e-06
-6.83136e-07
-2.60981e-06
-6.62016e-07
-2.34259e-06
-6.38878e-07
-2.0854e-06
-6.13796e-07
-1.83901e-06
-5.86847e-07
-1.60415e-06
-5.5811e-07
-1.38154e-06
-5.27668e-07
-1.17186e-06
-4.95606e-07
-9.75723e-07
-4.62016e-07
-7.93742e-07
-4.26996e-07
-6.2646e-07
-3.90656e-07
-4.74374e-07
-3.53122e-07
-3.37917e-07
-3.1454e-07
-2.17446e-07
-2.75082e-07
-1.13231e-07
-2.34958e-07
-2.54265e-08
-1.94429e-07
4.59463e-08
-1.53813e-07
1.01036e-07
-1.13513e-07
1.40196e-07
-7.40313e-08
1.64037e-07
-3.60031e-08
1.73479e-07
-2.26358e-10
1.69821e-07
3.22985e-08
1.54809e-07
6.03213e-08
1.30716e-07
8.23016e-08
1.00414e-07
9.63771e-08
6.74461e-08
1.00372e-07
3.60829e-08
9.18857e-08
1.14328e-08
6.85405e-08
2.85473e-08
-1.40422e-08
1.40893e-08
-5.82912e-08
8.40145e-08
-1.33799e-07
1.74665e-07
-2.40678e-07
2.73051e-07
-3.77986e-07
3.71235e-07
-5.43944e-07
4.64221e-07
-7.36201e-07
5.49135e-07
-9.52068e-07
6.24592e-07
-1.18873e-06
6.90192e-07
-1.44337e-06
7.46155e-07
-1.71333e-06
7.93082e-07
-1.99611e-06
8.31781e-07
-2.28944e-06
8.63153e-07
-2.59133e-06
8.88113e-07
-2.9e-06
9.07547e-07
-3.21392e-06
9.22277e-07
-3.53179e-06
9.33048e-07
-3.85249e-06
9.40516e-07
-4.17508e-06
9.45254e-07
-4.49878e-06
9.47748e-07
-4.82293e-06
9.48404e-07
-5.14699e-06
9.47558e-07
-5.47049e-06
9.45478e-07
-5.79304e-06
9.42377e-07
-6.11431e-06
9.38414e-07
-6.434e-06
9.33708e-07
-6.75186e-06
9.28338e-07
-7.06764e-06
9.22354e-07
-7.38109e-06
9.15777e-07
-7.692e-06
9.08609e-07
-8.00012e-06
9.00832e-07
-8.30522e-06
8.92413e-07
-8.60703e-06
8.8331e-07
-8.90529e-06
8.73469e-07
-9.19971e-06
8.62831e-07
-9.48998e-06
8.5133e-07
-9.77578e-06
8.38897e-07
-1.00567e-05
8.2546e-07
-1.03325e-05
8.10945e-07
-1.06027e-05
7.9528e-07
-1.08669e-05
7.78389e-07
-1.11246e-05
7.60202e-07
-1.13753e-05
7.40647e-07
-1.16187e-05
7.19656e-07
-1.18542e-05
6.97166e-07
-1.20813e-05
6.73117e-07
-1.22994e-05
6.47452e-07
-1.25079e-05
6.20124e-07
-1.27064e-05
5.91088e-07
-1.28943e-05
5.6031e-07
-1.30709e-05
5.27763e-07
-1.32357e-05
4.93428e-07
-1.33881e-05
4.57297e-07
-1.35275e-05
4.19373e-07
-1.36534e-05
3.79668e-07
-1.37651e-05
3.38208e-07
-1.38622e-05
2.95033e-07
-1.3944e-05
2.50194e-07
-1.40102e-05
2.03755e-07
-1.40601e-05
1.55798e-07
-1.40934e-05
1.06416e-07
-1.41097e-05
5.57167e-08
-1.41086e-05
3.8256e-09
-1.40897e-05
-4.91239e-08
-1.40528e-05
-1.02977e-07
-1.39977e-05
-1.5757e-07
-1.39242e-05
-2.12726e-07
-1.38322e-05
-2.68255e-07
-1.37217e-05
-3.23957e-07
-1.35928e-05
-3.79622e-07
-1.34454e-05
-4.35033e-07
-1.32799e-05
-4.89965e-07
-1.30965e-05
-5.44188e-07
-1.28954e-05
-5.9747e-07
-1.26771e-05
-6.49575e-07
-1.24422e-05
-7.0027e-07
-1.2191e-05
-7.49323e-07
-1.19243e-05
-7.96507e-07
-1.16427e-05
-8.41603e-07
-1.1347e-05
-8.84396e-07
-1.1038e-05
-9.24686e-07
-1.07166e-05
-9.62281e-07
-1.03837e-05
-9.97005e-07
-1.00403e-05
-1.0287e-06
-9.68749e-06
-1.05721e-06
-9.32628e-06
-1.08241e-06
-8.9578e-06
-1.1042e-06
-8.58317e-06
-1.12247e-06
-8.20356e-06
-1.13717e-06
-7.82015e-06
-1.14822e-06
-7.43411e-06
-1.1556e-06
-7.04665e-06
-1.15928e-06
-6.65896e-06
-1.15927e-06
-6.27224e-06
-1.15559e-06
-5.88765e-06
-1.14825e-06
-5.50637e-06
-1.13732e-06
-5.12956e-06
-1.12284e-06
-4.75835e-06
-1.10489e-06
-4.39384e-06
-1.08354e-06
-4.03712e-06
-1.05889e-06
-3.68924e-06
-1.03102e-06
-3.35122e-06
-1.00003e-06
-3.02407e-06
-9.66029e-07
-2.70874e-06
-9.29124e-07
-2.40617e-06
-8.89424e-07
-2.11723e-06
-8.47046e-07
-1.84279e-06
-8.0211e-07
-1.58365e-06
-7.54742e-07
-1.34059e-06
-7.05079e-07
-1.11431e-06
-6.53269e-07
-9.05492e-07
-5.99478e-07
-7.14716e-07
-5.43898e-07
-5.42504e-07
-4.86752e-07
-3.8928e-07
-4.28305e-07
-2.55358e-07
-3.6888e-07
-1.40917e-07
-3.08869e-07
-4.59715e-08
-2.48759e-07
2.96639e-08
-1.89148e-07
8.64163e-08
-1.30784e-07
1.25003e-07
-7.45894e-08
1.46489e-07
-2.17126e-08
1.52352e-07
2.64356e-08
1.44546e-07
6.81274e-08
1.25574e-07
1.01274e-07
9.85577e-08
1.23394e-07
6.73175e-08
1.31612e-07
3.64747e-08
1.22728e-07
1.16416e-08
9.33736e-08
4.01891e-08
-2.05169e-08
3.46062e-08
-8.04917e-08
1.43989e-07
-1.78629e-07
2.72803e-07
-3.13399e-07
4.07821e-07
-4.82788e-07
5.40623e-07
-6.84316e-07
6.65748e-07
-9.15155e-07
7.79974e-07
-1.17227e-06
8.81712e-07
-1.45258e-06
9.70493e-07
-1.75302e-06
1.04659e-06
-2.07069e-06
1.11075e-06
-2.40288e-06
1.16398e-06
-2.74714e-06
1.20741e-06
-3.10123e-06
1.24221e-06
-3.46321e-06
1.26952e-06
-3.83135e-06
1.29042e-06
-4.20419e-06
1.30588e-06
-4.58044e-06
1.31677e-06
-4.95903e-06
1.32384e-06
-5.33903e-06
1.32775e-06
-5.71968e-06
1.32905e-06
-6.10032e-06
1.32819e-06
-6.48038e-06
1.32554e-06
-6.85939e-06
1.32139e-06
-7.23693e-06
1.31596e-06
-7.61263e-06
1.30941e-06
-7.98616e-06
1.30187e-06
-8.35721e-06
1.2934e-06
-8.72548e-06
1.28405e-06
-9.09067e-06
1.2738e-06
-9.45249e-06
1.26265e-06
-9.81064e-06
1.25056e-06
-1.01648e-05
1.23747e-06
-1.05146e-05
1.2233e-06
-1.08598e-05
1.20799e-06
-1.11999e-05
1.19145e-06
-1.15346e-05
1.17358e-06
-1.18634e-05
1.15428e-06
-1.21859e-05
1.13347e-06
-1.25017e-05
1.11103e-06
-1.28102e-05
1.08688e-06
-1.31109e-05
1.06091e-06
-1.34033e-05
1.03304e-06
-1.36868e-05
1.00316e-06
-1.39608e-05
9.71204e-07
-1.42248e-05
9.37082e-07
-1.4478e-05
9.00725e-07
-1.472e-05
8.62068e-07
-1.495e-05
8.21055e-07
-1.51673e-05
7.77643e-07
-1.53713e-05
7.31798e-07
-1.55614e-05
6.83499e-07
-1.57368e-05
6.32739e-07
-1.5897e-05
5.79525e-07
-1.60412e-05
5.2388e-07
-1.61688e-05
4.65845e-07
-1.62793e-05
4.05476e-07
-1.63719e-05
3.42848e-07
-1.64462e-05
2.78056e-07
-1.65017e-05
2.11213e-07
-1.65377e-05
1.42452e-07
-1.65539e-05
7.19248e-08
-1.65499e-05
-1.93478e-10
-1.65253e-05
-7.37197e-08
-1.64798e-05
-1.48436e-07
-1.64133e-05
-2.24118e-07
-1.63255e-05
-3.00521e-07
-1.62164e-05
-3.77383e-07
-1.60859e-05
-4.54432e-07
-1.59341e-05
-5.3138e-07
-1.57612e-05
-6.07928e-07
-1.55674e-05
-6.83771e-07
-1.5353e-05
-7.58597e-07
-1.51184e-05
-8.32087e-07
-1.4864e-05
-9.03925e-07
-1.45905e-05
-9.73793e-07
-1.42985e-05
-1.04138e-06
-1.39886e-05
-1.10637e-06
-1.36617e-05
-1.16848e-06
-1.33187e-05
-1.22741e-06
-1.29605e-05
-1.2829e-06
-1.25881e-05
-1.33468e-06
-1.22026e-05
-1.38252e-06
-1.18051e-05
-1.4262e-06
-1.13968e-05
-1.46553e-06
-1.09789e-05
-1.50032e-06
-1.05526e-05
-1.53045e-06
-1.01193e-05
-1.55577e-06
-9.68029e-06
-1.57619e-06
-9.23687e-06
-1.59164e-06
-8.79039e-06
-1.60207e-06
-8.34222e-06
-1.60746e-06
-7.8937e-06
-1.60779e-06
-7.44618e-06
-1.6031e-06
-7.001e-06
-1.59343e-06
-6.55949e-06
-1.57883e-06
-6.12295e-06
-1.55938e-06
-5.69267e-06
-1.53517e-06
-5.2699e-06
-1.50631e-06
-4.85587e-06
-1.47291e-06
-4.45179e-06
-1.4351e-06
-4.05881e-06
-1.39301e-06
-3.67807e-06
-1.34677e-06
-3.31066e-06
-1.29653e-06
-2.95765e-06
-1.24244e-06
-2.62004e-06
-1.18466e-06
-2.29881e-06
-1.12334e-06
-1.99488e-06
-1.05867e-06
-1.70913e-06
-9.90828e-07
-1.44238e-06
-9.20022e-07
-1.19537e-06
-8.46485e-07
-9.68783e-07
-7.70484e-07
-7.63202e-07
-6.92333e-07
-5.79103e-07
-6.12404e-07
-4.16834e-07
-5.31149e-07
-2.7659e-07
-4.49114e-07
-1.58378e-07
-3.6697e-07
-6.19848e-08
-2.85541e-07
1.30705e-08
-2.05839e-07
6.75839e-08
-1.29103e-07
1.02719e-07
-5.68478e-08
1.2007e-07
9.08449e-09
1.21721e-07
6.64759e-08
1.10315e-07
1.12681e-07
8.91171e-08
1.44591e-07
6.21098e-08
1.5862e-07
3.41058e-08
1.50733e-07
1.09536e-08
1.16526e-07
5.11428e-08
-2.65521e-08
6.11583e-08
-1.01651e-07
2.19088e-07
-2.2178e-07
3.92932e-07
-3.8376e-07
5.69802e-07
-5.84404e-07
7.41266e-07
-8.20419e-07
9.01763e-07
-1.08841e-06
1.04797e-06
-1.38496e-06
1.17826e-06
-1.70667e-06
1.2922e-06
-2.05026e-06
1.39018e-06
-2.41263e-06
1.47312e-06
-2.79089e-06
1.54224e-06
-3.18242e-06
1.59894e-06
-3.58485e-06
1.64463e-06
-3.99605e-06
1.68073e-06
-4.41419e-06
1.70856e-06
-4.83764e-06
1.72933e-06
-5.265e-06
1.74413e-06
-5.69508e-06
1.75392e-06
-6.12685e-06
1.75952e-06
-6.55942e-06
1.76162e-06
-6.99205e-06
1.76082e-06
-7.42408e-06
1.75758e-06
-7.85497e-06
1.75227e-06
-8.2842e-06
1.74519e-06
-8.71136e-06
1.73656e-06
-9.13602e-06
1.72653e-06
-9.55781e-06
1.7152e-06
-9.97638e-06
1.70261e-06
-1.03914e-05
1.68878e-06
-1.08024e-05
1.6737e-06
-1.12091e-05
1.6573e-06
-1.16112e-05
1.63953e-06
-1.20082e-05
1.6203e-06
-1.23997e-05
1.59951e-06
-1.27853e-05
1.57705e-06
-1.31645e-05
1.5528e-06
-1.35369e-05
1.52665e-06
-1.39019e-05
1.49847e-06
-1.4259e-05
1.46813e-06
-1.46076e-05
1.43551e-06
-1.49472e-05
1.40049e-06
-1.52771e-05
1.36295e-06
-1.55967e-05
1.32277e-06
-1.59054e-05
1.27986e-06
-1.62024e-05
1.2341e-06
-1.64871e-05
1.1854e-06
-1.67587e-05
1.1337e-06
-1.70166e-05
1.07892e-06
-1.726e-05
1.02101e-06
-1.74881e-05
9.5993e-07
-1.77003e-05
8.95659e-07
-1.78957e-05
8.28192e-07
-1.80737e-05
7.57546e-07
-1.82336e-05
6.83755e-07
-1.83746e-05
6.06876e-07
-1.84962e-05
5.26991e-07
-1.85975e-05
4.44201e-07
-1.86781e-05
3.58636e-07
-1.87373e-05
2.70446e-07
-1.87747e-05
1.79809e-07
-1.87897e-05
8.69287e-08
-1.87819e-05
-7.96647e-09
-1.8751e-05
-1.0463e-07
-1.86966e-05
-2.02781e-07
-1.86186e-05
-3.02122e-07
-1.85168e-05
-4.02334e-07
-1.83911e-05
-5.03079e-07
-1.82416e-05
-6.03998e-07
-1.80682e-05
-7.04719e-07
-1.78713e-05
-8.04856e-07
-1.76511e-05
-9.04013e-07
-1.74079e-05
-1.00179e-06
-1.71422e-05
-1.09777e-06
-1.68546e-05
-1.19155e-06
-1.65456e-05
-1.28272e-06
-1.62161e-05
-1.37088e-06
-1.58669e-05
-1.45563e-06
-1.54988e-05
-1.5366e-06
-1.51128e-05
-1.61341e-06
-1.47099e-05
-1.68572e-06
-1.42914e-05
-1.75321e-06
-1.38584e-05
-1.81556e-06
-1.34121e-05
-1.8725e-06
-1.29538e-05
-1.92378e-06
-1.24849e-05
-1.96919e-06
-1.20069e-05
-2.00852e-06
-1.1521e-05
-2.04164e-06
-1.10288e-05
-2.0684e-06
-1.05317e-05
-2.08872e-06
-1.00313e-05
-2.10253e-06
-9.52891e-06
-2.10981e-06
-9.02615e-06
-2.11055e-06
-8.52447e-06
-2.10479e-06
-8.02533e-06
-2.09256e-06
-7.53021e-06
-2.07396e-06
-7.04052e-06
-2.04907e-06
-6.55769e-06
-2.01801e-06
-6.08309e-06
-1.98091e-06
-5.61807e-06
-1.93793e-06
-5.16396e-06
-1.88922e-06
-4.72203e-06
-1.83494e-06
-4.29353e-06
-1.77527e-06
-3.87966e-06
-1.7104e-06
-3.48158e-06
-1.64052e-06
-3.10041e-06
-1.56583e-06
-2.73722e-06
-1.48653e-06
-2.39302e-06
-1.40287e-06
-2.06878e-06
-1.31507e-06
-1.76538e-06
-1.22342e-06
-1.48366e-06
-1.12821e-06
-1.22434e-06
-1.02981e-06
-9.88053e-07
-9.28617e-07
-7.75321e-07
-8.25136e-07
-5.86513e-07
-7.19956e-07
-4.21834e-07
-6.13793e-07
-2.81284e-07
-5.0752e-07
-1.64626e-07
-4.02199e-07
-7.1341e-08
-2.99124e-07
-5.8132e-10
-1.99863e-07
4.88835e-08
-1.06313e-07
7.87182e-08
-2.07504e-08
9.10835e-08
5.41105e-08
8.8695e-08
1.15069e-07
7.48919e-08
1.58394e-07
5.37213e-08
1.7979e-07
3.00532e-08
1.74401e-07
9.75391e-09
1.36825e-07
6.08966e-08
-3.20971e-08
9.32554e-08
-1.21441e-07
3.08432e-07
-2.62525e-07
5.34015e-07
-4.50593e-07
7.5787e-07
-6.81269e-07
9.71943e-07
-9.50393e-07
1.17089e-06
-1.25395e-06
1.35153e-06
-1.58807e-06
1.51238e-06
-1.94904e-06
1.65317e-06
-2.33334e-06
1.77448e-06
-2.73768e-06
1.87746e-06
-3.15901e-06
1.96358e-06
-3.59457e-06
2.0345e-06
-4.04186e-06
2.09192e-06
-4.49865e-06
2.13753e-06
-4.96299e-06
2.17289e-06
-5.43314e-06
2.19948e-06
-5.90761e-06
2.2186e-06
-6.3851e-06
2.23141e-06
-6.8645e-06
2.23891e-06
-7.34483e-06
2.24195e-06
-7.82526e-06
2.24125e-06
-8.30507e-06
2.23738e-06
-8.78362e-06
2.23082e-06
-9.26035e-06
2.22192e-06
-9.73475e-06
2.21096e-06
-1.02064e-05
2.19814e-06
-1.06747e-05
2.18357e-06
-1.11394e-05
2.16732e-06
-1.16001e-05
2.14942e-06
-1.20562e-05
2.12985e-06
-1.25075e-05
2.10855e-06
-1.29534e-05
2.08543e-06
-1.33935e-05
2.06041e-06
-1.38273e-05
2.03336e-06
-1.42544e-05
2.00414e-06
-1.46743e-05
1.97262e-06
-1.50863e-05
1.93865e-06
-1.54899e-05
1.90208e-06
-1.58845e-05
1.86275e-06
-1.62695e-05
1.82052e-06
-1.66442e-05
1.77522e-06
-1.7008e-05
1.72673e-06
-1.73601e-05
1.6749e-06
-1.76999e-05
1.6196e-06
-1.80265e-05
1.56072e-06
-1.83392e-05
1.49814e-06
-1.86373e-05
1.43177e-06
-1.89199e-05
1.36153e-06
-1.91863e-05
1.28737e-06
-1.94356e-05
1.20924e-06
-1.9667e-05
1.12711e-06
-1.98798e-05
1.041e-06
-2.00732e-05
9.50927e-07
-2.02464e-05
8.56939e-07
-2.03987e-05
7.59118e-07
-2.05292e-05
6.57569e-07
-2.06375e-05
5.52429e-07
-2.07227e-05
4.43863e-07
-2.07843e-05
3.32067e-07
-2.08218e-05
2.1727e-07
-2.08346e-05
9.97304e-08
-2.08223e-05
-2.02625e-08
-2.07845e-05
-1.42391e-07
-2.0721e-05
-2.66306e-07
-2.06315e-05
-3.91631e-07
-2.05159e-05
-5.17964e-07
-2.0374e-05
-6.44881e-07
-2.02061e-05
-7.71933e-07
-2.00122e-05
-8.98656e-07
-1.97925e-05
-1.02457e-06
-1.95473e-05
-1.14918e-06
-1.92771e-05
-1.27198e-06
-1.89824e-05
-1.39247e-06
-1.86638e-05
-1.51014e-06
-1.83221e-05
-1.62448e-06
-1.79579e-05
-1.735e-06
-1.75724e-05
-1.84121e-06
-1.71663e-05
-1.94264e-06
-1.67409e-05
-2.03884e-06
-1.62972e-05
-2.12938e-06
-1.58366e-05
-2.21386e-06
-1.53602e-05
-2.2919e-06
-1.48696e-05
-2.36317e-06
-1.4366e-05
-2.42736e-06
-1.3851e-05
-2.48421e-06
-1.3326e-05
-2.53347e-06
-1.27927e-05
-2.57496e-06
-1.22526e-05
-2.60853e-06
-1.17072e-05
-2.63407e-06
-1.11582e-05
-2.65149e-06
-1.06073e-05
-2.66077e-06
-1.00559e-05
-2.66191e-06
-9.50577e-06
-2.65494e-06
-8.95841e-06
-2.63992e-06
-8.41541e-06
-2.61695e-06
-7.87832e-06
-2.58616e-06
-7.34865e-06
-2.54768e-06
-6.82789e-06
-2.50167e-06
-6.3175e-06
-2.44832e-06
-5.81888e-06
-2.38783e-06
-5.33342e-06
-2.3204e-06
-4.86245e-06
-2.24624e-06
-4.40725e-06
-2.16559e-06
-3.96908e-06
-2.07869e-06
-3.54913e-06
-1.98578e-06
-3.14854e-06
-1.88712e-06
-2.7684e-06
-1.78301e-06
-2.40973e-06
-1.67374e-06
-2.07348e-06
-1.55967e-06
-1.76052e-06
-1.44117e-06
-1.47163e-06
-1.31869e-06
-1.20748e-06
-1.19277e-06
-9.68605e-07
-1.06401e-06
-7.55392e-07
-9.33169e-07
-5.68048e-07
-8.01137e-07
-4.06567e-07
-6.69001e-07
-2.70691e-07
-5.38074e-07
-1.59875e-07
-4.09939e-07
-7.32354e-08
-2.86503e-07
-9.50207e-09
-1.70046e-07
3.30305e-08
-6.32832e-08
5.65597e-08
3.05814e-08
6.383e-08
1.07799e-07
5.81963e-08
1.64028e-07
4.36997e-08
1.94287e-07
2.51632e-08
1.92938e-07
8.32106e-09
1.53668e-07
6.92177e-08
-3.71704e-08
1.30426e-07
-1.39779e-07
4.11041e-07
-3.00576e-07
6.94811e-07
-5.13352e-07
9.70646e-07
-7.72583e-07
1.23117e-06
-1.07323e-06
1.47153e-06
-1.41063e-06
1.68893e-06
-1.78042e-06
1.88217e-06
-2.17855e-06
2.0513e-06
-2.60124e-06
2.19717e-06
-3.045e-06
2.32122e-06
-3.50666e-06
2.42523e-06
-3.9833e-06
2.51114e-06
-4.47233e-06
2.58095e-06
-4.97143e-06
2.63662e-06
-5.47854e-06
2.68001e-06
-5.99186e-06
2.7128e-06
-6.50981e-06
2.73655e-06
-7.03102e-06
2.75262e-06
-7.55429e-06
2.76218e-06
-8.07858e-06
2.76625e-06
-8.603e-06
2.76566e-06
-9.12674e-06
2.76112e-06
-9.6491e-06
2.75319e-06
-1.01695e-05
2.74229e-06
-1.06873e-05
2.72877e-06
-1.1202e-05
2.71285e-06
-1.17131e-05
2.69469e-06
-1.22202e-05
2.67437e-06
-1.27227e-05
2.65193e-06
-1.32202e-05
2.62735e-06
-1.37122e-05
2.60056e-06
-1.41982e-05
2.57147e-06
-1.46778e-05
2.53996e-06
-1.51503e-05
2.5059e-06
-1.56153e-05
2.46913e-06
-1.60721e-05
2.42947e-06
-1.65203e-05
2.38676e-06
-1.6959e-05
2.34082e-06
-1.73877e-05
2.29146e-06
-1.78057e-05
2.23851e-06
-1.82122e-05
2.18178e-06
-1.86066e-05
2.12112e-06
-1.89881e-05
2.05635e-06
-1.93558e-05
1.98733e-06
-1.9709e-05
1.91391e-06
-2.00468e-05
1.83597e-06
-2.03685e-05
1.75341e-06
-2.06731e-05
1.66613e-06
-2.09598e-05
1.57407e-06
-2.12277e-05
1.47718e-06
-2.1476e-05
1.37545e-06
-2.17039e-05
1.26888e-06
-2.19105e-05
1.15751e-06
-2.2095e-05
1.04142e-06
-2.22566e-05
9.20704e-07
-2.23945e-05
7.95501e-07
-2.25081e-05
6.65983e-07
-2.25966e-05
5.32359e-07
-2.26594e-05
3.94875e-07
-2.26959e-05
2.53814e-07
-2.27057e-05
1.09496e-07
-2.26882e-05
-3.77226e-08
-2.26432e-05
-1.87449e-07
-2.25702e-05
-3.39255e-07
-2.24692e-05
-4.92682e-07
-2.23399e-05
-6.47239e-07
-2.21823e-05
-8.02407e-07
-2.19966e-05
-9.57643e-07
-2.17829e-05
-1.11238e-06
-2.15414e-05
-1.26604e-06
-2.12726e-05
-1.41802e-06
-2.09769e-05
-1.56771e-06
-2.06548e-05
-1.71451e-06
-2.03072e-05
-1.8578e-06
-1.99347e-05
-1.99697e-06
-1.95382e-05
-2.13143e-06
-1.91188e-05
-2.26059e-06
-1.86776e-05
-2.38389e-06
-1.82156e-05
-2.50079e-06
-1.77343e-05
-2.61077e-06
-1.72348e-05
-2.71335e-06
-1.67186e-05
-2.80809e-06
-1.61872e-05
-2.89459e-06
-1.56421e-05
-2.97247e-06
-1.50848e-05
-3.04143e-06
-1.45171e-05
-3.10118e-06
-1.39406e-05
-3.15151e-06
-1.33569e-05
-3.19223e-06
-1.27678e-05
-3.22321e-06
-1.21749e-05
-3.24437e-06
-1.158e-05
-3.25566e-06
-1.09848e-05
-3.2571e-06
-1.0391e-05
-3.24873e-06
-9.80031e-06
-3.23062e-06
-9.21437e-06
-3.20289e-06
-8.63483e-06
-3.1657e-06
-8.0633e-06
-3.11921e-06
-7.50135e-06
-3.06362e-06
-6.95051e-06
-2.99916e-06
-6.41229e-06
-2.92605e-06
-5.88814e-06
-2.84455e-06
-5.37946e-06
-2.75492e-06
-4.88761e-06
-2.65745e-06
-4.41389e-06
-2.5524e-06
-3.95957e-06
-2.4401e-06
-3.52583e-06
-2.32086e-06
-3.11382e-06
-2.19502e-06
-2.72459e-06
-2.06297e-06
-2.35915e-06
-1.92511e-06
-2.01839e-06
-1.78193e-06
-1.70312e-06
-1.63397e-06
-1.41402e-06
-1.48187e-06
-1.15164e-06
-1.32639e-06
-9.16373e-07
-1.16843e-06
-7.08424e-07
-1.00909e-06
-5.27775e-07
-8.49651e-07
-3.74153e-07
-6.91697e-07
-2.46988e-07
-5.37104e-07
-1.45375e-07
-3.88116e-07
-6.80216e-08
-2.474e-07
-1.32018e-08
-1.18103e-07
2.12917e-08
-3.91194e-09
3.82003e-08
9.08907e-08
4.08558e-08
1.61372e-07
3.32415e-08
2.01901e-07
2.00658e-08
2.06114e-07
6.8483e-09
1.66885e-07
7.60661e-08