/*--------------------------------*- C++ -*----------------------------------*\
| =========                 |                                                 |
| \\      /  F ield         | OpenFOAM: The Open Source CFD Toolbox           |
|  \\    /   O peration     | Version:  2112                                  |
|   \\  /    A nd           | Website:  www.openfoam.com                      |
|    \\/     M anipulation  |                                                 |
\*---------------------------------------------------------------------------*/
FoamFile
{
    version     2.0;
    format      ascii;
    arch        "LSB;label=32;scalar=64";
    class       volVectorField;
    location    "6";
    object      U;
}
// * * * * * * * * * * * * * * * * * * * * * * * * * * * * * * * * * * * * * //

dimensions      [0 1 -1 0 0 0 0];

internalField   nonuniform List<vector> 
16641
(
(3.22763e-06 -3.31817e-06 0)
(9.38673e-06 -3.69856e-06 0)
(1.17489e-05 -1.47135e-06 0)
(6.71132e-06 1.38921e-06 0)
(-6.77035e-06 4.07458e-06 0)
(-2.81937e-05 6.5283e-06 0)
(-5.6489e-05 8.59269e-06 0)
(-9.07606e-05 1.02707e-05 0)
(-0.000130035 1.16083e-05 0)
(-0.000173407 1.26569e-05 0)
(-0.00022008 1.3466e-05 0)
(-0.000269368 1.40784e-05 0)
(-0.000320688 1.45303e-05 0)
(-0.00037355 1.48524e-05 0)
(-0.000427553 1.50707e-05 0)
(-0.000482367 1.52077e-05 0)
(-0.000537728 1.52821e-05 0)
(-0.000593425 1.53092e-05 0)
(-0.000649294 1.53009e-05 0)
(-0.000705205 1.52668e-05 0)
(-0.00076106 1.5214e-05 0)
(-0.000816785 1.51487e-05 0)
(-0.000872323 1.5075e-05 0)
(-0.000927632 1.4996e-05 0)
(-0.000982681 1.49137e-05 0)
(-0.00103744 1.4829e-05 0)
(-0.0010919 1.47422e-05 0)
(-0.00114603 1.46535e-05 0)
(-0.00119981 1.45626e-05 0)
(-0.00125323 1.44687e-05 0)
(-0.00130626 1.43705e-05 0)
(-0.00135888 1.42666e-05 0)
(-0.00141106 1.41558e-05 0)
(-0.00146277 1.40365e-05 0)
(-0.00151397 1.39073e-05 0)
(-0.00156461 1.37664e-05 0)
(-0.00161464 1.36123e-05 0)
(-0.00166403 1.34431e-05 0)
(-0.00171269 1.32571e-05 0)
(-0.00176058 1.30527e-05 0)
(-0.00180761 1.28282e-05 0)
(-0.00185372 1.25819e-05 0)
(-0.00189883 1.23125e-05 0)
(-0.00194284 1.20181e-05 0)
(-0.00198567 1.16971e-05 0)
(-0.00202722 1.13482e-05 0)
(-0.00206739 1.09699e-05 0)
(-0.00210608 1.05611e-05 0)
(-0.00214318 1.01206e-05 0)
(-0.00217857 9.64735e-06 0)
(-0.00221214 9.14025e-06 0)
(-0.00224378 8.59861e-06 0)
(-0.00227337 8.0219e-06 0)
(-0.00230078 7.40981e-06 0)
(-0.0023259 6.76216e-06 0)
(-0.00234861 6.07898e-06 0)
(-0.00236878 5.36052e-06 0)
(-0.0023863 4.60738e-06 0)
(-0.00240105 3.82048e-06 0)
(-0.00241293 3.00107e-06 0)
(-0.00242183 2.15069e-06 0)
(-0.00242766 1.27105e-06 0)
(-0.00243031 3.64261e-07 0)
(-0.0024297 -5.67076e-07 0)
(-0.00242576 -1.52053e-06 0)
(-0.00241843 -2.49281e-06 0)
(-0.00240765 -3.48044e-06 0)
(-0.00239338 -4.47976e-06 0)
(-0.00237558 -5.48681e-06 0)
(-0.00235425 -6.4974e-06 0)
(-0.00232939 -7.50706e-06 0)
(-0.00230101 -8.51109e-06 0)
(-0.00226913 -9.50473e-06 0)
(-0.00223382 -1.04831e-05 0)
(-0.00219512 -1.14411e-05 0)
(-0.00215312 -1.23738e-05 0)
(-0.00210792 -1.32762e-05 0)
(-0.00205963 -1.41434e-05 0)
(-0.00200838 -1.49705e-05 0)
(-0.00195431 -1.57528e-05 0)
(-0.00189758 -1.6486e-05 0)
(-0.00183836 -1.71658e-05 0)
(-0.00177685 -1.77884e-05 0)
(-0.00171323 -1.83503e-05 0)
(-0.00164772 -1.88483e-05 0)
(-0.00158055 -1.92796e-05 0)
(-0.00151193 -1.96419e-05 0)
(-0.00144211 -1.99332e-05 0)
(-0.00137131 -2.01523e-05 0)
(-0.0012998 -2.02982e-05 0)
(-0.00122782 -2.03703e-05 0)
(-0.00115562 -2.03686e-05 0)
(-0.00108344 -2.02933e-05 0)
(-0.00101154 -2.01454e-05 0)
(-0.000940155 -1.99259e-05 0)
(-0.000869536 -1.96365e-05 0)
(-0.000799918 -1.92789e-05 0)
(-0.000731532 -1.88552e-05 0)
(-0.000664603 -1.83676e-05 0)
(-0.000599349 -1.78185e-05 0)
(-0.00053598 -1.72106e-05 0)
(-0.000474699 -1.65468e-05 0)
(-0.000415701 -1.58298e-05 0)
(-0.00035917 -1.50623e-05 0)
(-0.000305283 -1.4247e-05 0)
(-0.000254209 -1.33867e-05 0)
(-0.000206107 -1.24843e-05 0)
(-0.000161128 -1.15423e-05 0)
(-0.000119414 -1.05634e-05 0)
(-8.10986e-05 -9.55007e-06 0)
(-4.63044e-05 -8.50495e-06 0)
(-1.51446e-05 -7.43079e-06 0)
(1.22767e-05 -6.33122e-06 0)
(3.58701e-05 -5.20822e-06 0)
(5.55614e-05 -4.06577e-06 0)
(7.12927e-05 -2.90932e-06 0)
(8.30305e-05 -1.74442e-06 0)
(9.07691e-05 -5.78758e-07 0)
(9.45414e-05 5.76779e-07 0)
(9.44297e-05 1.70665e-06 0)
(9.05837e-05 2.79001e-06 0)
(8.32456e-05 3.79453e-06 0)
(7.27842e-05 4.67125e-06 0)
(5.9749e-05 5.34388e-06 0)
(4.49506e-05 5.69274e-06 0)
(2.95593e-05 5.53501e-06 0)
(1.51938e-05 4.59698e-06 0)
(4.12407e-06 2.56537e-06 0)
(-1.26112e-07 -1.19594e-07 0)
(3.60007e-06 -9.39348e-06 0)
(6.86841e-06 -6.94817e-06 0)
(-1.81574e-06 4.92559e-06 0)
(-2.78854e-05 1.9867e-05 0)
(-7.31368e-05 3.48948e-05 0)
(-0.000137134 4.89326e-05 0)
(-0.000218311 6.13122e-05 0)
(-0.000314725 7.18785e-05 0)
(-0.000424274 8.06957e-05 0)
(-0.000544896 8.79154e-05 0)
(-0.000674677 9.37243e-05 0)
(-0.000811903 9.83148e-05 0)
(-0.00095507 0.000101871 0)
(-0.00110289 0.000104562 0)
(-0.00125426 0.000106537 0)
(-0.00140827 0.000107929 0)
(-0.00156417 0.000108851 0)
(-0.00172134 0.000109399 0)
(-0.00187928 0.000109654 0)
(-0.0020376 0.000109679 0)
(-0.00219598 0.000109528 0)
(-0.00235417 0.000109242 0)
(-0.00251197 0.000108855 0)
(-0.00266924 0.000108388 0)
(-0.00282583 0.00010786 0)
(-0.00298166 0.000107283 0)
(-0.00313663 0.000106661 0)
(-0.00329067 0.000106 0)
(-0.00344369 0.000105298 0)
(-0.00359563 0.000104552 0)
(-0.0037464 0.000103758 0)
(-0.00389592 0.000102908 0)
(-0.00404409 0.000101996 0)
(-0.0041908 0.000101013 0)
(-0.00433595 9.995e-05 0)
(-0.0044794 9.87962e-05 0)
(-0.00462101 9.7542e-05 0)
(-0.00476062 9.61768e-05 0)
(-0.00489807 9.46902e-05 0)
(-0.00503317 9.30717e-05 0)
(-0.00516572 9.13107e-05 0)
(-0.00529551 8.93968e-05 0)
(-0.00542232 8.73202e-05 0)
(-0.00554591 8.50711e-05 0)
(-0.00566602 8.26398e-05 0)
(-0.0057824 8.00176e-05 0)
(-0.00589477 7.71959e-05 0)
(-0.00600283 7.41674e-05 0)
(-0.00610631 7.0925e-05 0)
(-0.00620489 6.74627e-05 0)
(-0.00629827 6.37753e-05 0)
(-0.00638613 5.98589e-05 0)
(-0.00646815 5.57106e-05 0)
(-0.00654401 5.13292e-05 0)
(-0.00661339 4.67145e-05 0)
(-0.00667596 4.18682e-05 0)
(-0.00673142 3.67934e-05 0)
(-0.00677946 3.14951e-05 0)
(-0.00681976 2.59801e-05 0)
(-0.00685206 2.02571e-05 0)
(-0.00687606 1.43369e-05 0)
(-0.00689152 8.23208e-06 0)
(-0.00689819 1.95738e-06 0)
(-0.00689587 -4.47068e-06 0)
(-0.00688435 -1.10334e-05 0)
(-0.00686347 -1.771e-05 0)
(-0.00683311 -2.44778e-05 0)
(-0.00679316 -3.13125e-05 0)
(-0.00674355 -3.81881e-05 0)
(-0.00668426 -4.50772e-05 0)
(-0.00661529 -5.1951e-05 0)
(-0.00653669 -5.87796e-05 0)
(-0.00644856 -6.55321e-05 0)
(-0.00635102 -7.21772e-05 0)
(-0.00624426 -7.8683e-05 0)
(-0.00612849 -8.50175e-05 0)
(-0.00600397 -9.11491e-05 0)
(-0.00587101 -9.70466e-05 0)
(-0.00572995 -0.000102679 0)
(-0.00558119 -0.000108018 0)
(-0.00542514 -0.000113034 0)
(-0.00526227 -0.000117701 0)
(-0.00509308 -0.000121996 0)
(-0.00491809 -0.000125894 0)
(-0.00473787 -0.000129376 0)
(-0.00455299 -0.000132425 0)
(-0.00436406 -0.000135025 0)
(-0.00417171 -0.000137163 0)
(-0.00397658 -0.00013883 0)
(-0.00377932 -0.000140019 0)
(-0.00358058 -0.000140726 0)
(-0.00338104 -0.000140949 0)
(-0.00318135 -0.000140689 0)
(-0.00298219 -0.00013995 0)
(-0.0027842 -0.000138738 0)
(-0.00258805 -0.00013706 0)
(-0.00239436 -0.000134927 0)
(-0.00220376 -0.000132349 0)
(-0.00201687 -0.00012934 0)
(-0.00183427 -0.000125914 0)
(-0.00165655 -0.000122084 0)
(-0.00148426 -0.000117868 0)
(-0.00131793 -0.000113281 0)
(-0.00115808 -0.000108339 0)
(-0.00100521 -0.000103059 0)
(-0.000859781 -9.7457e-05 0)
(-0.000722253 -9.15502e-05 0)
(-0.000593051 -8.53555e-05 0)
(-0.000472579 -7.88902e-05 0)
(-0.000361218 -7.21723e-05 0)
(-0.000259321 -6.52208e-05 0)
(-0.000167213 -5.80568e-05 0)
(-8.51845e-05 -5.07049e-05 0)
(-1.34876e-05 -4.31912e-05 0)
(4.76708e-05 -3.55499e-05 0)
(9.81417e-05 -2.78219e-05 0)
(0.00013785 -2.00597e-05 0)
(0.000166806 -1.23306e-05 0)
(0.000185139 -4.72248e-06 0)
(0.000193124 2.6475e-06 0)
(0.00019123 9.62294e-06 0)
(0.000180173 1.59911e-05 0)
(0.000160997 2.14598e-05 0)
(0.000135169 2.5626e-05 0)
(0.000104703 2.79379e-05 0)
(7.22506e-05 2.76651e-05 0)
(4.11085e-05 2.38948e-05 0)
(1.56897e-05 1.57574e-05 0)
(2.5314e-06 4.11404e-06 0)
(1.50863e-06 -1.18123e-05 0)
(-4.96198e-06 1.78408e-06 0)
(-3.31107e-05 3.28048e-05 0)
(-8.68411e-05 7.03974e-05 0)
(-0.000167705 0.000108873 0)
(-0.000275248 0.000145252 0)
(-0.000407645 0.000178003 0)
(-0.000562401 0.000206547 0)
(-0.000736737 0.000230831 0)
(-0.00092785 0.000251084 0)
(-0.00113307 0.000267672 0)
(-0.00134994 0.000281021 0)
(-0.00157626 0.000291562 0)
(-0.00181012 0.000299712 0)
(-0.00204986 0.000305852 0)
(-0.00229406 0.000310325 0)
(-0.00254156 0.000313431 0)
(-0.00279136 0.00031543 0)
(-0.00304267 0.000316539 0)
(-0.00329482 0.00031694 0)
(-0.00354728 0.000316781 0)
(-0.00379962 0.000316182 0)
(-0.0040515 0.000315237 0)
(-0.00430262 0.000314016 0)
(-0.00455276 0.000312573 0)
(-0.00480172 0.000310943 0)
(-0.00504933 0.00030915 0)
(-0.00529544 0.000307205 0)
(-0.0055399 0.000305112 0)
(-0.00578256 0.000302866 0)
(-0.00602329 0.000300457 0)
(-0.00626192 0.000297868 0)
(-0.00649828 0.000295081 0)
(-0.00673221 0.000292073 0)
(-0.00696349 0.000288822 0)
(-0.00719192 0.0002853 0)
(-0.00741726 0.00028148 0)
(-0.00763927 0.000277336 0)
(-0.00785765 0.000272838 0)
(-0.00807213 0.000267958 0)
(-0.00828238 0.000262668 0)
(-0.00848807 0.000256941 0)
(-0.00868885 0.000250748 0)
(-0.00888433 0.000244065 0)
(-0.00907413 0.000236866 0)
(-0.00925783 0.000229127 0)
(-0.00943501 0.000220826 0)
(-0.00960522 0.000211944 0)
(-0.009768 0.000202461 0)
(-0.0099229 0.000192363 0)
(-0.0100694 0.000181637 0)
(-0.0102071 0.000170274 0)
(-0.0103354 0.000158267 0)
(-0.0104539 0.000145615 0)
(-0.0105621 0.000132317 0)
(-0.0106595 0.000118382 0)
(-0.0107455 0.000103818 0)
(-0.0108199 8.86417e-05 0)
(-0.010882 7.28733e-05 0)
(-0.0109315 5.65382e-05 0)
(-0.010968 3.96674e-05 0)
(-0.010991 2.22972e-05 0)
(-0.0110002 4.46933e-06 0)
(-0.0109954 -1.37692e-05 0)
(-0.0109762 -3.23652e-05 0)
(-0.0109424 -5.12611e-05 0)
(-0.0108938 -7.03941e-05 0)
(-0.0108302 -8.96966e-05 0)
(-0.0107516 -0.000109097 0)
(-0.010658 -0.000128519 0)
(-0.0105494 -0.000147884 0)
(-0.0104258 -0.000167109 0)
(-0.0102874 -0.000186111 0)
(-0.0101345 -0.000204804 0)
(-0.00996724 -0.0002231 0)
(-0.00978607 -0.000240914 0)
(-0.00959136 -0.000258158 0)
(-0.00938358 -0.000274748 0)
(-0.00916328 -0.000290601 0)
(-0.00893104 -0.000305638 0)
(-0.00868752 -0.000319781 0)
(-0.00843341 -0.000332961 0)
(-0.00816949 -0.000345109 0)
(-0.00789656 -0.000356164 0)
(-0.00761545 -0.000366073 0)
(-0.00732707 -0.000374785 0)
(-0.00703233 -0.000382261 0)
(-0.00673217 -0.000388464 0)
(-0.00642757 -0.000393369 0)
(-0.00611952 -0.000396955 0)
(-0.00580902 -0.00039921 0)
(-0.00549708 -0.000400129 0)
(-0.00518471 -0.000399712 0)
(-0.00487292 -0.000397968 0)
(-0.00456271 -0.000394911 0)
(-0.00425507 -0.00039056 0)
(-0.00395099 -0.000384939 0)
(-0.00365141 -0.000378078 0)
(-0.00335728 -0.000370008 0)
(-0.00306952 -0.000360765 0)
(-0.002789 -0.000350387 0)
(-0.0025166 -0.000338914 0)
(-0.00225314 -0.000326388 0)
(-0.00199944 -0.000312851 0)
(-0.00175625 -0.000298346 0)
(-0.00152433 -0.000282918 0)
(-0.00130439 -0.000266611 0)
(-0.0010971 -0.000249472 0)
(-0.000903094 -0.000231548 0)
(-0.000722985 -0.000212892 0)
(-0.000557328 -0.000193558 0)
(-0.000406638 -0.00017361 0)
(-0.000271373 -0.000153118 0)
(-0.000151926 -0.000132169 0)
(-4.86167e-05 -0.000110864 0)
(3.83339e-05 -8.93303e-05 0)
(0.000108821 -6.77278e-05 0)
(0.000162885 -4.626e-05 0)
(0.000200752 -2.51879e-05 0)
(0.000222877 -4.84919e-06 0)
(0.000230007 1.43157e-05 0)
(0.000223255 3.17323e-05 0)
(0.000204186 4.66511e-05 0)
(0.000174931 5.80986e-05 0)
(0.000138298 6.48354e-05 0)
(9.7826e-05 6.53507e-05 0)
(5.77257e-05 5.79454e-05 0)
(2.36727e-05 4.11102e-05 0)
(4.5054e-06 1.50797e-05 0)
(-1.37303e-06 -6.72854e-06 0)
(-2.03378e-05 2.82551e-05 0)
(-7.20637e-05 8.68066e-05 0)
(-0.000157171 0.000154667 0)
(-0.00027606 0.000223781 0)
(-0.000427908 0.00028944 0)
(-0.000610541 0.000349112 0)
(-0.000821048 0.000401688 0)
(-0.0010562 0.000446924 0)
(-0.0013127 0.000485075 0)
(-0.00158736 0.000516679 0)
(-0.0018772 0.000542407 0)
(-0.00217951 0.000562976 0)
(-0.00249191 0.000579095 0)
(-0.00281229 0.00059143 0)
(-0.00313885 0.000600591 0)
(-0.00347004 0.000607118 0)
(-0.00380458 0.000611481 0)
(-0.00414138 0.000614084 0)
(-0.00447955 0.000615265 0)
(-0.00481835 0.000615305 0)
(-0.00515718 0.00061443 0)
(-0.00549553 0.000612821 0)
(-0.00583298 0.000610617 0)
(-0.0061692 0.000607922 0)
(-0.00650389 0.00060481 0)
(-0.00683678 0.000601331 0)
(-0.00716763 0.000597511 0)
(-0.00749622 0.00059336 0)
(-0.00782234 0.000588874 0)
(-0.00814575 0.000584037 0)
(-0.00846624 0.000578822 0)
(-0.00878355 0.000573198 0)
(-0.00909744 0.000567124 0)
(-0.00940762 0.000560559 0)
(-0.00971379 0.000553454 0)
(-0.0100156 0.00054576 0)
(-0.0103128 0.000537427 0)
(-0.0106049 0.000528403 0)
(-0.0108916 0.000518636 0)
(-0.0111724 0.000508074 0)
(-0.0114469 0.000496667 0)
(-0.0117145 0.000484364 0)
(-0.0119749 0.000471118 0)
(-0.0122275 0.000456883 0)
(-0.0124717 0.000441616 0)
(-0.0127069 0.000425278 0)
(-0.0129327 0.000407832 0)
(-0.0131484 0.000389246 0)
(-0.0133534 0.000369493 0)
(-0.013547 0.000348552 0)
(-0.0137287 0.000326407 0)
(-0.0138977 0.000303049 0)
(-0.0140536 0.000278476 0)
(-0.0141956 0.000252693 0)
(-0.0143231 0.000225714 0)
(-0.0144355 0.000197561 0)
(-0.0145322 0.000168266 0)
(-0.0146127 0.00013787 0)
(-0.0146764 0.000106422 0)
(-0.0147227 7.39831e-05 0)
(-0.0147513 4.06237e-05 0)
(-0.0147616 6.42437e-06 0)
(-0.0147533 -2.85246e-05 0)
(-0.014726 -6.41227e-05 0)
(-0.0146794 -0.00010026 0)
(-0.0146134 -0.000136818 0)
(-0.0145278 -0.000173669 0)
(-0.0144224 -0.000210678 0)
(-0.0142972 -0.000247703 0)
(-0.0141524 -0.000284595 0)
(-0.013988 -0.000321201 0)
(-0.0138043 -0.000357364 0)
(-0.0136015 -0.000392925 0)
(-0.01338 -0.000427721 0)
(-0.0131403 -0.000461593 0)
(-0.012883 -0.000494378 0)
(-0.0126086 -0.000525922 0)
(-0.0123178 -0.000556069 0)
(-0.0120115 -0.000584674 0)
(-0.0116904 -0.000611596 0)
(-0.0113555 -0.000636701 0)
(-0.0110078 -0.000659867 0)
(-0.0106483 -0.000680981 0)
(-0.010278 -0.000699941 0)
(-0.00989824 -0.000716658 0)
(-0.00951008 -0.000731054 0)
(-0.00911476 -0.000743065 0)
(-0.00871352 -0.000752641 0)
(-0.00830765 -0.000759744 0)
(-0.00789842 -0.00076435 0)
(-0.00748713 -0.000766448 0)
(-0.00707508 -0.000766037 0)
(-0.00666358 -0.000763132 0)
(-0.00625391 -0.000757755 0)
(-0.00584735 -0.000749941 0)
(-0.00544515 -0.000739731 0)
(-0.00504857 -0.000727176 0)
(-0.00465881 -0.000712334 0)
(-0.00427706 -0.000695267 0)
(-0.00390447 -0.000676043 0)
(-0.00354218 -0.000654733 0)
(-0.00319125 -0.000631412 0)
(-0.00285276 -0.000606156 0)
(-0.0025277 -0.000579044 0)
(-0.00221707 -0.000550156 0)
(-0.00192178 -0.000519575 0)
(-0.00164274 -0.000487388 0)
(-0.00138079 -0.000453685 0)
(-0.00113672 -0.000418566 0)
(-0.000911274 -0.000382137 0)
(-0.00070513 -0.000344523 0)
(-0.000518891 -0.000305865 0)
(-0.00035307 -0.000266333 0)
(-0.000208076 -0.000226133 0)
(-8.41914e-05 -0.000185518 0)
(1.84617e-05 -0.000144803 0)
(9.9954e-05 -0.000104387 0)
(0.000160596 -6.47725e-05 0)
(0.000200994 -2.6599e-05 0)
(0.000222114 9.31932e-06 0)
(0.000225366 4.19479e-05 0)
(0.000212688 6.9979e-05 0)
(0.000186652 9.17754e-05 0)
(0.000150568 0.000105332 0)
(0.000108511 0.000108288 0)
(6.52644e-05 9.80458e-05 0)
(2.73765e-05 7.21392e-05 0)
(5.38451e-06 2.92407e-05 0)
(-4.2031e-06 7.10288e-06 0)
(-3.64193e-05 7.49503e-05 0)
(-0.000113475 0.000169472 0)
(-0.000231622 0.000274415 0)
(-0.000389577 0.000380034 0)
(-0.000585835 0.000480306 0)
(-0.000817699 0.000571827 0)
(-0.00108183 0.00065299 0)
(-0.00137461 0.000723347 0)
(-0.00169238 0.000783167 0)
(-0.00203158 0.000833142 0)
(-0.00238885 0.000874188 0)
(-0.00276112 0.000907315 0)
(-0.00314565 0.000933546 0)
(-0.00353998 0.000953858 0)
(-0.00394201 0.000969154 0)
(-0.0043499 0.00098025 0)
(-0.00476211 0.000987859 0)
(-0.0051773 0.000992601 0)
(-0.00559439 0.000995 0)
(-0.00601245 0.000995493 0)
(-0.00643071 0.000994438 0)
(-0.00684851 0.000992121 0)
(-0.00726533 0.000988767 0)
(-0.0076807 0.000984544 0)
(-0.00809421 0.000979576 0)
(-0.00850552 0.000973946 0)
(-0.00891429 0.000967701 0)
(-0.00932022 0.000960865 0)
(-0.00972301 0.000953435 0)
(-0.0101224 0.000945389 0)
(-0.010518 0.000936693 0)
(-0.0109095 0.000927297 0)
(-0.0112966 0.000917143 0)
(-0.011679 0.000906168 0)
(-0.0120562 0.000894298 0)
(-0.0124279 0.00088146 0)
(-0.0127936 0.000867575 0)
(-0.0131528 0.000852564 0)
(-0.0135051 0.000836347 0)
(-0.0138499 0.000818845 0)
(-0.0141866 0.00079998 0)
(-0.0145147 0.000779676 0)
(-0.0148336 0.000757858 0)
(-0.0151427 0.000734458 0)
(-0.0154412 0.00070941 0)
(-0.0157285 0.000682654 0)
(-0.0160039 0.000654136 0)
(-0.0162666 0.000623808 0)
(-0.016516 0.000591632 0)
(-0.0167513 0.000557576 0)
(-0.0169717 0.000521619 0)
(-0.0171764 0.00048375 0)
(-0.0173648 0.00044397 0)
(-0.0175361 0.000402291 0)
(-0.0176895 0.000358738 0)
(-0.0178244 0.000313351 0)
(-0.0179399 0.000266181 0)
(-0.0180356 0.000217297 0)
(-0.0181106 0.000166781 0)
(-0.0181644 0.000114733 0)
(-0.0181965 6.12653e-05 0)
(-0.0182064 6.50794e-06 0)
(-0.0181936 -4.93947e-05 0)
(-0.0181577 -0.000106282 0)
(-0.0180984 -0.00016398 0)
(-0.0180155 -0.0002223 0)
(-0.0179088 -0.000281041 0)
(-0.0177782 -0.000339991 0)
(-0.0176237 -0.000398925 0)
(-0.0174455 -0.000457611 0)
(-0.0172436 -0.00051581 0)
(-0.0170184 -0.000573275 0)
(-0.0167703 -0.000629758 0)
(-0.0164997 -0.000685007 0)
(-0.0162072 -0.000738772 0)
(-0.0158935 -0.000790804 0)
(-0.0155592 -0.00084086 0)
(-0.0152053 -0.000888702 0)
(-0.0148327 -0.000934103 0)
(-0.0144424 -0.000976844 0)
(-0.0140355 -0.00101672 0)
(-0.0136132 -0.00105354 0)
(-0.0131767 -0.00108714 0)
(-0.0127273 -0.00111735 0)
(-0.0122664 -0.00114403 0)
(-0.0117954 -0.00116707 0)
(-0.0113157 -0.00118637 0)
(-0.0108289 -0.00120184 0)
(-0.0103363 -0.00121343 0)
(-0.00983966 -0.00122111 0)
(-0.00934038 -0.00122484 0)
(-0.00884003 -0.00122464 0)
(-0.00834015 -0.00122052 0)
(-0.00784228 -0.00121251 0)
(-0.00734793 -0.00120066 0)
(-0.0068586 -0.00118504 0)
(-0.00637577 -0.00116572 0)
(-0.00590087 -0.00114278 0)
(-0.00543534 -0.00111633 0)
(-0.00498053 -0.00108647 0)
(-0.00453781 -0.00105329 0)
(-0.00410847 -0.00101691 0)
(-0.00369376 -0.000977459 0)
(-0.00329492 -0.000935044 0)
(-0.00291312 -0.000889792 0)
(-0.00254947 -0.000841832 0)
(-0.00220506 -0.0007913 0)
(-0.0018809 -0.00073834 0)
(-0.00157795 -0.000683109 0)
(-0.00129711 -0.000625782 0)
(-0.00103919 -0.000566559 0)
(-0.00080491 -0.000505673 0)
(-0.000594882 -0.000443403 0)
(-0.00040959 -0.000380087 0)
(-0.00024936 -0.000316136 0)
(-0.000114328 -0.000252063 0)
(-4.39573e-06 -0.000188506 0)
(8.08174e-05 -0.000126261 0)
(0.000142032 -6.63241e-05 0)
(0.000180379 -9.94007e-06 0)
(0.000197477 4.13424e-05 0)
(0.000195516 8.56099e-05 0)
(0.00017735 0.000120526 0)
(0.0001466 0.000143294 0)
(0.000107672 0.000150663 0)
(6.5728e-05 0.000139037 0)
(2.78676e-05 0.00010473 0)
(5.52051e-06 4.44152e-05 0)
(-6.93101e-06 2.96027e-05 0)
(-5.22278e-05 0.000142287 0)
(-0.000154615 0.000281573 0)
(-0.00030592 0.00043039 0)
(-0.000502837 0.000578021 0)
(-0.000742905 0.000717604 0)
(-0.00102273 0.000845126 0)
(-0.00133846 0.000958617 0)
(-0.00168608 0.00105749 0)
(-0.00206162 0.00114204 0)
(-0.0024612 0.00121314 0)
(-0.00288119 0.00127193 0)
(-0.00331825 0.00131975 0)
(-0.00376936 0.00135792 0)
(-0.00423181 0.00138775 0)
(-0.00470326 0.00141046 0)
(-0.00518163 0.00142716 0)
(-0.00566517 0.00143883 0)
(-0.00615236 0.00144632 0)
(-0.00664192 0.00145036 0)
(-0.00713278 0.00145156 0)
(-0.007624 0.00145043 0)
(-0.00811481 0.00144739 0)
(-0.00860455 0.00144274 0)
(-0.00909266 0.00143674 0)
(-0.00957861 0.00142957 0)
(-0.010062 0.00142135 0)
(-0.0105423 0.00141215 0)
(-0.0110193 0.00140202 0)
(-0.0114925 0.00139096 0)
(-0.0119615 0.00137894 0)
(-0.012426 0.00136591 0)
(-0.0128855 0.00135182 0)
(-0.0133397 0.00133658 0)
(-0.0137881 0.00132011 0)
(-0.0142302 0.00130231 0)
(-0.0146656 0.00128306 0)
(-0.0150937 0.00126228 0)
(-0.0155139 0.00123984 0)
(-0.0159258 0.00121564 0)
(-0.0163286 0.00118956 0)
(-0.0167217 0.0011615 0)
(-0.0171044 0.00113135 0)
(-0.017476 0.00109901 0)
(-0.0178358 0.00106438 0)
(-0.018183 0.00102738 0)
(-0.0185169 0.000987921 0)
(-0.0188365 0.000945928 0)
(-0.0191411 0.000901342 0)
(-0.0194298 0.000854109 0)
(-0.0197018 0.000804191 0)
(-0.0199562 0.000751561 0)
(-0.0201922 0.00069621 0)
(-0.0204088 0.000638142 0)
(-0.0206054 0.00057738 0)
(-0.0207809 0.000513966 0)
(-0.0209347 0.000447959 0)
(-0.0210658 0.000379441 0)
(-0.0211737 0.000308512 0)
(-0.0212575 0.000235296 0)
(-0.0213167 0.000159936 0)
(-0.0213505 8.25992e-05 0)
(-0.0213585 3.47289e-06 0)
(-0.0213401 -7.72322e-05 0)
(-0.021295 -0.000159287 0)
(-0.0212228 -0.00024244 0)
(-0.0211233 -0.000326422 0)
(-0.0209963 -0.000410946 0)
(-0.0208418 -0.000495709 0)
(-0.0206597 -0.000580392 0)
(-0.0204502 -0.000664667 0)
(-0.0202136 -0.000748192 0)
(-0.0199502 -0.000830623 0)
(-0.0196605 -0.000911606 0)
(-0.0193449 -0.000990787 0)
(-0.0190042 -0.00106782 0)
(-0.0186392 -0.00114234 0)
(-0.0182507 -0.00121402 0)
(-0.0178398 -0.00128252 0)
(-0.0174074 -0.00134753 0)
(-0.0169548 -0.00140874 0)
(-0.0164832 -0.00146586 0)
(-0.015994 -0.00151862 0)
(-0.0154886 -0.00156679 0)
(-0.0149685 -0.00161015 0)
(-0.0144352 -0.00164849 0)
(-0.0138903 -0.00168166 0)
(-0.0133355 -0.00170952 0)
(-0.0127724 -0.00173195 0)
(-0.0122028 -0.00174887 0)
(-0.0116284 -0.00176023 0)
(-0.0110509 -0.00176601 0)
(-0.0104721 -0.00176619 0)
(-0.00989371 -0.00176081 0)
(-0.00931749 -0.0017499 0)
(-0.00874516 -0.00173354 0)
(-0.0081784 -0.00171182 0)
(-0.0076189 -0.00168483 0)
(-0.00706828 -0.00165269 0)
(-0.00652816 -0.00161553 0)
(-0.0060001 -0.0015735 0)
(-0.00548563 -0.00152673 0)
(-0.00498622 -0.00147539 0)
(-0.00450332 -0.00141963 0)
(-0.00403832 -0.00135963 0)
(-0.00359255 -0.00129555 0)
(-0.00316729 -0.00122757 0)
(-0.00276377 -0.0011559 0)
(-0.00238315 -0.00108073 0)
(-0.00202654 -0.0010023 0)
(-0.00169493 -0.000920852 0)
(-0.00138926 -0.000836683 0)
(-0.00111034 -0.000750136 0)
(-0.000858855 -0.000661619 0)
(-0.000635356 -0.000571623 0)
(-0.000440197 -0.000480752 0)
(-0.000273521 -0.000389744 0)
(-0.000135205 -0.000299511 0)
(-2.48181e-05 -0.000211181 0)
(5.84464e-05 -0.000126144 0)
(0.000115834 -4.61102e-05 0)
(0.000149105 2.68249e-05 0)
(0.000160608 9.01188e-05 0)
(0.000153374 0.00014072 0)
(0.000131205 0.000175022 0)
(9.87034e-05 0.000188861 0)
(6.1263e-05 0.00017757 0)
(2.62373e-05 0.000136125 0)
(5.22095e-06 5.91783e-05 0)
(-9.3947e-06 6.00775e-05 0)
(-6.71061e-05 0.00022963 0)
(-0.000194017 0.000422623 0)
(-0.00037765 0.000622093 0)
(-0.000612593 0.000817033 0)
(-0.000895272 0.00100023 0)
(-0.00122146 0.00116737 0)
(-0.0015867 0.00131633 0)
(-0.00198655 0.00144649 0)
(-0.00241669 0.00155826 0)
(-0.002873 0.00165269 0)
(-0.00335159 0.00173121 0)
(-0.00384892 0.00179544 0)
(-0.00436174 0.00184706 0)
(-0.00488716 0.0018877 0)
(-0.00542265 0.00191891 0)
(-0.00596595 0.0019421 0)
(-0.00651515 0.00195852 0)
(-0.00706855 0.00196929 0)
(-0.00762475 0.00197535 0)
(-0.00818251 0.0019775 0)
(-0.00874079 0.0019764 0)
(-0.00929869 0.00197261 0)
(-0.00985544 0.00196654 0)
(-0.0104104 0.00195853 0)
(-0.0109629 0.00194883 0)
(-0.0115124 0.00193759 0)
(-0.0120585 0.00192494 0)
(-0.0126007 0.00191093 0)
(-0.0131384 0.00189556 0)
(-0.0136713 0.00187882 0)
(-0.0141989 0.00186064 0)
(-0.0147207 0.00184095 0)
(-0.0152362 0.00181965 0)
(-0.0157449 0.00179662 0)
(-0.0162463 0.00177174 0)
(-0.0167398 0.00174487 0)
(-0.0172247 0.00171587 0)
(-0.0177005 0.00168461 0)
(-0.0181664 0.00165093 0)
(-0.0186218 0.00161469 0)
(-0.0190659 0.00157575 0)
(-0.0194979 0.00153398 0)
(-0.0199171 0.00148925 0)
(-0.0203225 0.00144142 0)
(-0.0207134 0.00139039 0)
(-0.0210888 0.00133605 0)
(-0.0214479 0.0012783 0)
(-0.0217896 0.00121708 0)
(-0.0221132 0.00115231 0)
(-0.0224175 0.00108395 0)
(-0.0227017 0.00101196 0)
(-0.0229649 0.000936354 0)
(-0.023206 0.00085713 0)
(-0.0234242 0.00077433 0)
(-0.0236185 0.000688013 0)
(-0.023788 0.000598268 0)
(-0.023932 0.000505209 0)
(-0.0240495 0.000408976 0)
(-0.0241399 0.00030974 0)
(-0.0242023 0.000207697 0)
(-0.0242362 0.000103077 0)
(-0.024241 -3.86722e-06 0)
(-0.0242162 -0.000112849 0)
(-0.0241613 -0.00022356 0)
(-0.024076 -0.000335663 0)
(-0.02396 -0.000448796 0)
(-0.0238133 -0.000562574 0)
(-0.0236357 -0.000676594 0)
(-0.0234274 -0.000790431 0)
(-0.0231885 -0.000903648 0)
(-0.0229193 -0.00101579 0)
(-0.0226203 -0.00112641 0)
(-0.0222919 -0.00123503 0)
(-0.0219348 -0.00134118 0)
(-0.0215498 -0.00144441 0)
(-0.0211378 -0.00154425 0)
(-0.0206997 -0.00164025 0)
(-0.0202367 -0.00173198 0)
(-0.01975 -0.00181901 0)
(-0.0192409 -0.00190095 0)
(-0.0187107 -0.00197743 0)
(-0.0181611 -0.00204809 0)
(-0.0175935 -0.00211262 0)
(-0.0170096 -0.00217072 0)
(-0.0164112 -0.00222216 0)
(-0.0157999 -0.0022667 0)
(-0.0151777 -0.00230418 0)
(-0.0145464 -0.00233444 0)
(-0.0139079 -0.00235738 0)
(-0.013264 -0.00237293 0)
(-0.0126167 -0.00238104 0)
(-0.0119679 -0.00238173 0)
(-0.0113196 -0.00237502 0)
(-0.0106736 -0.00236097 0)
(-0.0100318 -0.00233966 0)
(-0.00939618 -0.00231121 0)
(-0.00876846 -0.00227576 0)
(-0.00815048 -0.00223344 0)
(-0.007544 -0.00218444 0)
(-0.00695074 -0.00212892 0)
(-0.00637239 -0.00206709 0)
(-0.00581057 -0.00199914 0)
(-0.00526686 -0.00192529 0)
(-0.00474278 -0.00184575 0)
(-0.00423982 -0.00176076 0)
(-0.00375937 -0.00167054 0)
(-0.00330279 -0.00157537 0)
(-0.00287134 -0.00147551 0)
(-0.00246624 -0.00137128 0)
(-0.00208859 -0.00126301 0)
(-0.00173939 -0.00115111 0)
(-0.00141953 -0.00103603 0)
(-0.00112977 -0.000918344 0)
(-0.00087068 -0.000798709 0)
(-0.000642642 -0.00067794 0)
(-0.0004458 -0.000557028 0)
(-0.000280016 -0.000437185 0)
(-0.000144815 -0.000319893 0)
(-3.93322e-05 -0.000206961 0)
(3.77551e-05 -0.000100587 0)
(8.82957e-05 -3.42463e-06 0)
(0.000114737 8.1343e-05 0)
(0.000120206 0.000149945 0)
(0.000108598 0.000197965 0)
(8.46102e-05 0.000220315 0)
(5.37432e-05 0.00021125 0)
(2.3359e-05 0.000164416 0)
(4.69447e-06 7.26418e-05 0)
(-1.15974e-05 9.80244e-05 0)
(-8.08713e-05 0.000335974 0)
(-0.000231033 0.000591464 0)
(-0.000445583 0.000848278 0)
(-0.000717053 0.00109568 0)
(-0.00104069 0.00132653 0)
(-0.00141134 0.00153657 0)
(-0.00182387 0.00172373 0)
(-0.00227337 0.00188751 0)
(-0.00275517 0.00202853 0)
(-0.00326486 0.00214807 0)
(-0.00379835 0.00224788 0)
(-0.00435189 0.00232991 0)
(-0.00492209 0.00239619 0)
(-0.0055059 0.00244868 0)
(-0.00610062 0.00248927 0)
(-0.00670388 0.00251967 0)
(-0.00731361 0.00254144 0)
(-0.00792801 0.00255593 0)
(-0.00854554 0.00256432 0)
(-0.00916485 0.00256761 0)
(-0.00978479 0.00256662 0)
(-0.0104044 0.00256205 0)
(-0.0110227 0.00255443 0)
(-0.011639 0.00254419 0)
(-0.0122527 0.00253163 0)
(-0.012863 0.00251698 0)
(-0.0134694 0.00250039 0)
(-0.0140714 0.00248193 0)
(-0.0146684 0.00246162 0)
(-0.0152598 0.00243944 0)
(-0.0158452 0.00241531 0)
(-0.016424 0.00238915 0)
(-0.0169957 0.00236084 0)
(-0.0175595 0.00233022 0)
(-0.018115 0.00229716 0)
(-0.0186614 0.00226147 0)
(-0.0191982 0.002223 0)
(-0.0197244 0.00218155 0)
(-0.0202395 0.00213696 0)
(-0.0207425 0.00208904 0)
(-0.0212328 0.00203763 0)
(-0.0217093 0.00198254 0)
(-0.0221713 0.00192362 0)
(-0.0226178 0.00186071 0)
(-0.0230479 0.00179368 0)
(-0.0234605 0.0017224 0)
(-0.0238547 0.00164675 0)
(-0.0242295 0.00156664 0)
(-0.0245838 0.001482 0)
(-0.0249167 0.00139278 0)
(-0.0252271 0.00129894 0)
(-0.0255139 0.00120048 0)
(-0.0257761 0.00109744 0)
(-0.0260128 0.000989858 0)
(-0.0262229 0.000877828 0)
(-0.0264056 0.000761469 0)
(-0.0265598 0.000640932 0)
(-0.0266848 0.000516406 0)
(-0.0267797 0.000388114 0)
(-0.0268438 0.000256316 0)
(-0.0268763 0.000121306 0)
(-0.0268768 -1.6583e-05 0)
(-0.0268446 -0.000156985 0)
(-0.0267794 -0.000299501 0)
(-0.0266807 -0.000443696 0)
(-0.0265484 -0.000589109 0)
(-0.0263824 -0.000735248 0)
(-0.0261826 -0.000881596 0)
(-0.0259491 -0.00102762 0)
(-0.0256822 -0.00117275 0)
(-0.0253822 -0.00131643 0)
(-0.0250497 -0.00145806 0)
(-0.0246851 -0.00159707 0)
(-0.0242894 -0.00173287 0)
(-0.0238632 -0.00186486 0)
(-0.0234076 -0.00199247 0)
(-0.0229238 -0.00211513 0)
(-0.0224128 -0.00223229 0)
(-0.0218762 -0.00234343 0)
(-0.0213152 -0.00244805 0)
(-0.0207316 -0.00254568 0)
(-0.0201268 -0.00263589 0)
(-0.0195026 -0.00271827 0)
(-0.0188608 -0.00279247 0)
(-0.0182034 -0.00285818 0)
(-0.0175321 -0.00291512 0)
(-0.016849 -0.00296307 0)
(-0.0161561 -0.00300185 0)
(-0.0154555 -0.00303133 0)
(-0.0147491 -0.00305143 0)
(-0.0140392 -0.00306209 0)
(-0.0133277 -0.00306332 0)
(-0.0126167 -0.00305516 0)
(-0.0119083 -0.00303767 0)
(-0.0112045 -0.00301098 0)
(-0.0105073 -0.00297522 0)
(-0.0098188 -0.00293055 0)
(-0.00914081 -0.00287717 0)
(-0.00847526 -0.00281528 0)
(-0.007824 -0.00274512 0)
(-0.00718883 -0.00266692 0)
(-0.00657151 -0.00258093 0)
(-0.00597373 -0.00248742 0)
(-0.00539712 -0.00238667 0)
(-0.00484325 -0.00227897 0)
(-0.00431365 -0.00216461 0)
(-0.00380973 -0.00204393 0)
(-0.00333288 -0.00191728 0)
(-0.00288436 -0.00178506 0)
(-0.00246535 -0.0016477 0)
(-0.00207692 -0.00150573 0)
(-0.00172002 -0.00135975 0)
(-0.00139541 -0.00121046 0)
(-0.00110371 -0.00105874 0)
(-0.000845314 -0.00090562 0)
(-0.000620356 -0.000752357 0)
(-0.000428683 -0.000600482 0)
(-0.00026979 -0.000451848 0)
(-0.000142769 -0.000308696 0)
(-4.6249e-05 -0.000173721 0)
(2.16724e-05 -5.01408e-05 0)
(6.34936e-05 5.82243e-05 0)
(8.23853e-05 0.000146888 0)
(8.22719e-05 0.000210637 0)
(6.78666e-05 0.00024348 0)
(4.46736e-05 0.000238627 0)
(1.98881e-05 0.000188487 0)
(4.07862e-06 8.43431e-05 0)
(-1.35724e-05 0.000142827 0)
(-9.35211e-05 0.000460084 0)
(-0.000265447 0.000786578 0)
(-0.00050919 0.00110728 0)
(-0.000815341 0.00141217 0)
(-0.00117796 0.00169457 0)
(-0.00159095 0.00195056 0)
(-0.00204845 0.00217837 0)
(-0.00254502 0.00237781 0)
(-0.00307562 0.00254977 0)
(-0.00363556 0.00269589 0)
(-0.00422053 0.00281826 0)
(-0.00482662 0.0029192 0)
(-0.00545027 0.00300108 0)
(-0.00608832 0.00306624 0)
(-0.00673795 0.0031169 0)