/*--------------------------------*- C++ -*----------------------------------*\
| =========                 |                                                 |
| \\      /  F ield         | OpenFOAM: The Open Source CFD Toolbox           |
|  \\    /   O peration     | Version:  2112                                  |
|   \\  /    A nd           | Website:  www.openfoam.com                      |
|    \\/     M anipulation  |                                                 |
\*---------------------------------------------------------------------------*/
FoamFile
{
    version     2.0;
    format      ascii;
    arch        "LSB;label=32;scalar=64";
    class       volScalarField;
    location    "15";
    object      p;
}
// * * * * * * * * * * * * * * * * * * * * * * * * * * * * * * * * * * * * * //

dimensions      [0 2 -2 0 0 0 0];

internalField   nonuniform List<scalar> 
50000
(
1.63006e-14
4.03026e-14
6.32425e-14
7.92667e-14
9.05077e-14
9.9174e-14
1.06459e-13
1.1274e-13
1.1817e-13
1.23021e-13
1.27428e-13
1.31455e-13
1.35186e-13
1.38592e-13
1.41746e-13
1.44682e-13
1.47424e-13
1.4986e-13
1.52155e-13
1.54262e-13
1.56291e-13
1.58324e-13
1.60238e-13
1.62257e-13
1.64146e-13
1.65876e-13
1.67433e-13
1.68962e-13
1.70576e-13
1.71909e-13
1.73171e-13
1.74474e-13
1.75631e-13
1.76699e-13
1.77787e-13
1.78784e-13
1.79866e-13
1.80824e-13
1.81747e-13
1.82752e-13
1.83646e-13
1.84701e-13
1.85666e-13
1.86605e-13
1.87544e-13
1.88295e-13
1.89149e-13
1.90128e-13
1.90845e-13
1.91436e-13
1.92273e-13
1.9319e-13
1.94065e-13
1.94737e-13
1.95415e-13
1.96361e-13
1.97072e-13
1.97953e-13
1.98877e-13
1.99458e-13
2.00216e-13
2.00985e-13
2.01664e-13
2.02293e-13
2.02987e-13
2.03549e-13
2.04201e-13
2.04695e-13
2.05057e-13
2.0564e-13
2.06086e-13
2.0633e-13
2.06525e-13
2.07028e-13
2.07346e-13
2.07233e-13
2.07579e-13
2.08017e-13
2.07974e-13
2.07908e-13
2.08141e-13
2.08386e-13
2.08349e-13
2.08518e-13
2.08737e-13
2.08656e-13
2.08699e-13
2.08724e-13
2.08731e-13
2.08685e-13
2.08565e-13
2.08546e-13
2.08535e-13
2.08512e-13
2.08511e-13
2.08685e-13
2.08324e-13
2.07965e-13
2.08169e-13
2.0806e-13
2.07586e-13
2.07388e-13
2.07554e-13
2.07539e-13
2.07289e-13
2.07352e-13
2.07354e-13
2.07174e-13
2.06913e-13
2.06793e-13
2.07105e-13
2.07144e-13
2.06777e-13
2.06392e-13
2.06421e-13
2.06552e-13
2.06264e-13
2.05704e-13
2.05383e-13
2.05349e-13
2.05139e-13
2.0468e-13
2.04319e-13
2.04244e-13
2.04071e-13
2.03498e-13
2.03282e-13
2.03145e-13
2.02632e-13
2.02271e-13
2.01876e-13
2.01456e-13
2.01019e-13
2.01087e-13
2.00747e-13
1.99922e-13
1.99471e-13
1.99066e-13
1.98225e-13
1.97728e-13
1.97596e-13
1.9678e-13
1.95549e-13
1.94727e-13
1.94598e-13
1.93771e-13
1.92768e-13
1.92642e-13
1.92096e-13
1.90901e-13
1.90539e-13
1.89742e-13
1.88825e-13
1.88824e-13
1.87977e-13
1.87002e-13
1.86622e-13
1.8562e-13
1.84709e-13
1.83776e-13
1.83357e-13
1.82979e-13
1.82235e-13
1.81418e-13
1.80742e-13
1.7998e-13
1.79126e-13
1.78788e-13
1.77503e-13
1.76744e-13
1.76588e-13
1.75435e-13
1.74733e-13
1.74678e-13
1.74058e-13
1.73288e-13
1.72559e-13
1.72287e-13
1.71857e-13
1.71035e-13
1.70993e-13
1.70802e-13
1.70302e-13
1.70105e-13
1.69675e-13
1.69926e-13
1.70141e-13
1.69675e-13
1.69443e-13
1.69357e-13
1.69252e-13
1.68871e-13
1.68414e-13
1.67735e-13
1.67747e-13
1.67928e-13
1.67724e-13
1.67975e-13
1.6839e-13
1.67917e-13
1.67253e-13
1.67159e-13
1.66132e-13
1.65859e-13
1.65638e-13
1.65513e-13
1.66023e-13
1.65705e-13
1.65109e-13
1.64835e-13
1.64459e-13
1.64366e-13
1.64383e-13
1.63628e-13
1.63738e-13
1.63359e-13
1.63116e-13
1.62724e-13
1.62039e-13
1.61751e-13
1.61878e-13
1.61704e-13
1.61057e-13
1.60785e-13
1.60168e-13
1.59855e-13
1.59425e-13
1.58857e-13
1.58443e-13
1.58349e-13
1.5813e-13
1.57841e-13
1.56992e-13
1.56308e-13
1.55995e-13
1.54877e-13
1.54274e-13
1.53778e-13
1.53449e-13
1.52729e-13
1.52111e-13
1.51542e-13
1.5031e-13
1.49224e-13
1.49167e-13
1.48531e-13
1.47599e-13
1.4743e-13
1.46585e-13
1.45932e-13
1.45324e-13
1.44522e-13
1.43712e-13
1.43759e-13
1.43417e-13
1.42564e-13
1.42487e-13
1.42227e-13
1.4146e-13
1.41351e-13
1.40595e-13
1.39939e-13
1.40504e-13
1.39914e-13
1.40097e-13
1.39693e-13
1.38447e-13
1.39158e-13
1.38442e-13
1.3707e-13
1.38421e-13
1.38332e-13
1.37512e-13
1.37667e-13
1.36997e-13
1.37253e-13
1.36672e-13
1.35627e-13
1.35474e-13
1.3582e-13
1.35647e-13
1.35316e-13
1.34667e-13
1.34308e-13
1.34938e-13
1.33835e-13
1.34109e-13
1.34568e-13
1.33344e-13
1.33449e-13
1.34115e-13
1.3325e-13
1.32906e-13
1.32786e-13
1.31434e-13
1.32186e-13
1.33344e-13
1.32402e-13
1.32309e-13
1.32276e-13
1.31009e-13
1.31446e-13
1.3109e-13
1.30002e-13
1.31481e-13
1.31778e-13
1.30842e-13
1.31629e-13
1.31613e-13
1.30656e-13
1.31328e-13
1.32185e-13
1.3159e-13
1.31871e-13
1.32602e-13
1.32429e-13
1.3299e-13
1.33293e-13
1.3328e-13
1.33215e-13
1.33774e-13
1.34774e-13
1.35568e-13
1.35623e-13
1.35437e-13
1.36573e-13
1.37138e-13
1.37197e-13
1.36823e-13
1.37447e-13
1.3899e-13
1.38471e-13
1.38209e-13
1.39135e-13
1.38493e-13
1.38607e-13
1.39938e-13
1.38789e-13
1.39254e-13
1.40616e-13
1.40069e-13
1.40175e-13
1.40308e-13
1.39817e-13
1.39489e-13
1.40049e-13
1.4047e-13
1.40925e-13
1.40747e-13
1.40304e-13
1.40797e-13
1.40977e-13
1.40154e-13
1.39703e-13
1.40326e-13
1.40793e-13
1.41204e-13
1.40805e-13
1.39991e-13
1.40169e-13
1.39884e-13
1.40624e-13
1.40265e-13
1.39649e-13
1.41079e-13
1.41063e-13
1.40963e-13
1.41136e-13
1.41104e-13
1.40311e-13
1.4108e-13
1.42132e-13
1.42094e-13
1.41826e-13
1.41478e-13
1.41936e-13
1.41746e-13
1.42102e-13
1.41406e-13
1.41788e-13
1.42694e-13
1.42716e-13
1.4234e-13
1.42425e-13
1.42835e-13
1.42147e-13
1.43086e-13
1.42409e-13
1.42284e-13
1.43057e-13
1.43035e-13
1.42617e-13
1.43006e-13
1.43393e-13
1.42205e-13
1.42662e-13
1.44179e-13
1.44496e-13
1.44151e-13
1.43775e-13
1.43216e-13
1.43077e-13
1.45058e-13
1.45245e-13
1.44826e-13
1.44068e-13
1.44747e-13
1.46888e-13
1.46192e-13
1.45452e-13
1.46e-13
1.48211e-13
1.47854e-13
1.4793e-13
1.48882e-13
1.49181e-13
1.50155e-13
1.49662e-13
1.49244e-13
1.50067e-13
1.51826e-13
1.51403e-13
1.50067e-13
1.5171e-13
1.52322e-13
1.51863e-13
1.51914e-13
1.52259e-13
1.52509e-13
1.53443e-13
1.53199e-13
1.51806e-13
1.5325e-13
1.54238e-13
1.52755e-13
1.51286e-13
1.52957e-13
1.53119e-13
1.53227e-13
1.53543e-13
1.52055e-13
1.53364e-13
1.53179e-13
1.52614e-13
1.51608e-13
1.51709e-13
1.52185e-13
1.51567e-13
1.51686e-13
1.50757e-13
1.51116e-13
1.50826e-13
1.50994e-13
1.50095e-13
1.50014e-13
1.49964e-13
1.48901e-13
1.48525e-13
1.48382e-13
1.49308e-13
1.47157e-13
1.46687e-13
1.4654e-13
1.46584e-13
1.47662e-13
1.45745e-13
1.44783e-13
1.45069e-13
1.45131e-13
1.43787e-13
1.43391e-13
1.42502e-13
1.41814e-13
1.41731e-13
1.40155e-13
1.39597e-13
1.39049e-13
1.39155e-13
1.37491e-13
1.35963e-13
1.35175e-13
1.34604e-13
1.33452e-13
1.31055e-13
1.30735e-13
1.28544e-13
1.26726e-13
1.24745e-13
1.21719e-13
1.20741e-13
1.18265e-13
1.13772e-13
1.09776e-13
1.06695e-13
1.01308e-13
9.54542e-14
8.75355e-14
7.69503e-14
6.27708e-14
4.02021e-14
3.27525e-14
4.73974e-14
6.64206e-14
8.06711e-14
9.13105e-14
9.96646e-14
1.06793e-13
1.12984e-13
1.18367e-13
1.23167e-13
1.2751e-13
1.3152e-13
1.35268e-13
1.38656e-13
1.41818e-13
1.44726e-13
1.47457e-13
1.49888e-13
1.5219e-13
1.54316e-13
1.56297e-13
1.58318e-13
1.6026e-13
1.62273e-13
1.64155e-13
1.65909e-13
1.67465e-13
1.68975e-13
1.70556e-13
1.71932e-13
1.73219e-13
1.74424e-13
1.75636e-13
1.76758e-13
1.77748e-13
1.78748e-13
1.79861e-13
1.80822e-13
1.81739e-13
1.82714e-13
1.83668e-13
1.84649e-13
1.8568e-13
1.8667e-13
1.87513e-13
1.88321e-13
1.892e-13
1.90093e-13
1.90851e-13
1.91445e-13
1.92297e-13
1.93242e-13
1.94027e-13
1.94701e-13
1.95455e-13
1.9634e-13
1.97091e-13
1.97927e-13
1.98847e-13
1.99479e-13
2.00267e-13
2.00947e-13
2.01654e-13
2.02325e-13
2.02912e-13
2.03595e-13
2.04205e-13
2.04687e-13
2.05134e-13
2.05589e-13
2.06041e-13
2.06371e-13
2.06603e-13
2.07016e-13
2.07352e-13
2.0735e-13
2.07572e-13
2.07951e-13
2.0798e-13
2.07954e-13
2.08128e-13
2.08398e-13
2.08382e-13
2.08507e-13
2.08621e-13
2.08772e-13
2.08752e-13
2.08636e-13
2.08758e-13
2.08667e-13
2.08542e-13
2.08619e-13
2.08552e-13
2.08497e-13
2.08511e-13
2.08601e-13
2.08346e-13
2.08058e-13
2.08162e-13
2.0806e-13
2.07601e-13
2.07402e-13
2.07547e-13
2.07562e-13
2.07331e-13
2.07224e-13
2.07315e-13
2.07279e-13
2.06944e-13
2.0687e-13
2.07063e-13
2.07004e-13
2.06812e-13
2.06511e-13
2.06499e-13
2.0649e-13
2.06121e-13
2.05712e-13
2.05487e-13
2.05389e-13
2.05146e-13
2.04701e-13
2.04415e-13
2.04222e-13
2.03889e-13
2.03589e-13
2.03384e-13
2.03109e-13
2.02633e-13
2.0228e-13
2.01793e-13
2.01456e-13
2.01194e-13
2.01026e-13
2.00665e-13
2.00001e-13
1.9956e-13
1.99011e-13
1.98267e-13
1.9776e-13
1.97465e-13
1.96711e-13
1.95541e-13
1.94823e-13
1.94648e-13
1.93778e-13
1.92829e-13
1.92579e-13
1.92042e-13
1.91039e-13
1.9045e-13
1.89644e-13
1.88993e-13
1.88717e-13
1.87946e-13
1.87085e-13
1.86473e-13
1.85622e-13
1.84796e-13
1.83876e-13
1.83331e-13
1.82944e-13
1.82212e-13
1.8143e-13
1.80737e-13
1.79997e-13
1.79204e-13
1.78554e-13
1.77662e-13
1.76881e-13
1.76352e-13
1.75612e-13
1.7491e-13
1.74394e-13
1.7404e-13
1.73357e-13
1.72602e-13
1.72334e-13
1.71794e-13
1.71032e-13
1.70907e-13
1.70752e-13
1.70296e-13
1.70054e-13
1.69843e-13
1.6993e-13
1.70009e-13
1.69771e-13
1.69385e-13
1.69338e-13
1.69208e-13
1.68786e-13
1.683e-13
1.67822e-13
1.67925e-13
1.67873e-13
1.67753e-13
1.68133e-13
1.68207e-13
1.67698e-13
1.6738e-13
1.67136e-13
1.66217e-13
1.65962e-13
1.65644e-13
1.65403e-13
1.6593e-13
1.65762e-13
1.65192e-13
1.6477e-13
1.6451e-13
1.64283e-13
1.64247e-13
1.63813e-13
1.63659e-13
1.63251e-13
1.63192e-13
1.62742e-13
1.62067e-13
1.61962e-13
1.61927e-13
1.61531e-13
1.60936e-13
1.60668e-13
1.60234e-13
1.59937e-13
1.59536e-13
1.58988e-13
1.58494e-13
1.58425e-13
1.57998e-13
1.57581e-13
1.57102e-13
1.56323e-13
1.55874e-13
1.55008e-13
1.54332e-13
1.53936e-13
1.5331e-13
1.52707e-13
1.52076e-13
1.51402e-13
1.50504e-13
1.49388e-13
1.49045e-13
1.48521e-13
1.47727e-13
1.47309e-13
1.46499e-13
1.45729e-13
1.45296e-13
1.44649e-13
1.43984e-13
1.43717e-13
1.43325e-13
1.42695e-13
1.42295e-13
1.42031e-13
1.41565e-13
1.41395e-13
1.40634e-13
1.4006e-13
1.40221e-13
1.40001e-13
1.40084e-13
1.39736e-13
1.38542e-13
1.38849e-13
1.38455e-13
1.37516e-13
1.38176e-13
1.38135e-13
1.37586e-13
1.37535e-13
1.37295e-13
1.36953e-13
1.36692e-13
1.36023e-13
1.35551e-13
1.3554e-13
1.35513e-13
1.35365e-13
1.3466e-13
1.34307e-13
1.34884e-13
1.3414e-13
1.33943e-13
1.34444e-13
1.33464e-13
1.33609e-13
1.34013e-13
1.33239e-13
1.32853e-13
1.32653e-13
1.31749e-13
1.32342e-13
1.32861e-13
1.32399e-13
1.32355e-13
1.32074e-13
1.31371e-13
1.31144e-13
1.31127e-13
1.30446e-13
1.31204e-13
1.31598e-13
1.31165e-13
1.31371e-13
1.3137e-13
1.31046e-13
1.31363e-13
1.31858e-13
1.31715e-13
1.31856e-13
1.32472e-13
1.32688e-13
1.32839e-13
1.33088e-13
1.33425e-13
1.33422e-13
1.33826e-13
1.34743e-13
1.3525e-13
1.35365e-13
1.35812e-13
1.36574e-13
1.36961e-13
1.37215e-13
1.37213e-13
1.37641e-13
1.38546e-13
1.3848e-13
1.38401e-13
1.38782e-13
1.38797e-13
1.38886e-13
1.39383e-13
1.39188e-13
1.39459e-13
1.40069e-13
1.40185e-13
1.40371e-13
1.39897e-13
1.39937e-13
1.40013e-13
1.39977e-13
1.40325e-13
1.40741e-13
1.40493e-13
1.40487e-13
1.41013e-13
1.40592e-13
1.40243e-13
1.40213e-13
1.40246e-13
1.40648e-13
1.40971e-13
1.40628e-13
1.40327e-13
1.40147e-13
1.39815e-13
1.40545e-13
1.40348e-13
1.39939e-13
1.40774e-13
1.41002e-13
1.41019e-13
1.41054e-13
1.41088e-13
1.40728e-13
1.41286e-13
1.41849e-13
1.41752e-13
1.41734e-13
1.41796e-13
1.41923e-13
1.41786e-13
1.41897e-13
1.41597e-13
1.42038e-13
1.42524e-13
1.42499e-13
1.4231e-13
1.42531e-13
1.42916e-13
1.42115e-13
1.42842e-13
1.42904e-13
1.42295e-13
1.42695e-13
1.43166e-13
1.42812e-13
1.42796e-13
1.43211e-13
1.42425e-13
1.43055e-13
1.4416e-13
1.43947e-13
1.43879e-13
1.43905e-13
1.43481e-13
1.43396e-13
1.44718e-13
1.44837e-13
1.44998e-13
1.44599e-13
1.44567e-13
1.46404e-13
1.4648e-13
1.4569e-13
1.45949e-13
1.47904e-13
1.47877e-13
1.48078e-13
1.48919e-13
1.49317e-13
1.49974e-13
1.4949e-13
1.49633e-13
1.50208e-13
1.51326e-13
1.51266e-13
1.50641e-13
1.51444e-13
1.52026e-13
1.5218e-13
1.51944e-13
1.52324e-13
1.52641e-13
1.53281e-13
1.53118e-13
1.52234e-13
1.5296e-13
1.53925e-13
1.53076e-13
1.51615e-13
1.52756e-13
1.53077e-13
1.53149e-13
1.5329e-13
1.52629e-13
1.53153e-13
1.53124e-13
1.52497e-13
1.5173e-13
1.51857e-13
1.51926e-13
1.51644e-13
1.51531e-13
1.50935e-13
1.5125e-13
1.5112e-13
1.50565e-13
1.50201e-13
1.50146e-13
1.49714e-13
1.49039e-13
1.48705e-13
1.4836e-13
1.48904e-13
1.47549e-13
1.46442e-13
1.46757e-13
1.47012e-13
1.46868e-13
1.45675e-13
1.45481e-13
1.45135e-13
1.44507e-13
1.44003e-13
1.4342e-13
1.42525e-13
1.41778e-13
1.41475e-13
1.40483e-13
1.39746e-13
1.39399e-13
1.38826e-13
1.37134e-13
1.36333e-13
1.35566e-13
1.34285e-13
1.33137e-13
1.31644e-13
1.30557e-13
1.28553e-13
1.2672e-13
1.24549e-13
1.22417e-13
1.20862e-13
1.17683e-13
1.13875e-13
1.10572e-13
1.067e-13
1.01582e-13
9.59413e-14
8.83546e-14
7.86443e-14
6.55926e-14
4.71519e-14
4.81319e-14
5.64231e-14
7.0441e-14
8.27135e-14
9.25112e-14
1.00438e-13
1.07344e-13
1.13378e-13
1.18646e-13
1.2339e-13
1.27677e-13
1.31643e-13
1.35335e-13
1.38771e-13
1.4195e-13
1.448e-13
1.4757e-13
1.4991e-13
1.52272e-13
1.54406e-13
1.56331e-13
1.58317e-13
1.60291e-13
1.62313e-13
1.64163e-13
1.65985e-13
1.67459e-13
1.68983e-13
1.70568e-13
1.7194e-13
1.73235e-13
1.74423e-13
1.75656e-13
1.76791e-13
1.77691e-13
1.78735e-13
1.79884e-13
1.80832e-13
1.81703e-13
1.82695e-13
1.83686e-13
1.84613e-13
1.8567e-13
1.86691e-13
1.87493e-13
1.88335e-13
1.89256e-13
1.90102e-13
1.90871e-13
1.91475e-13
1.92275e-13
1.93241e-13
1.94019e-13
1.94723e-13
1.95441e-13
1.96337e-13
1.97124e-13
1.97903e-13
1.98834e-13
1.99506e-13
2.0026e-13
2.00907e-13
2.01643e-13
2.02334e-13
2.0289e-13
2.03632e-13
2.04248e-13
2.0471e-13
2.05183e-13
2.05599e-13
2.06056e-13
2.0638e-13
2.06673e-13
2.07019e-13
2.07361e-13
2.07404e-13
2.07561e-13
2.07953e-13
2.08015e-13
2.07953e-13
2.08119e-13
2.08424e-13
2.08418e-13
2.08478e-13
2.08554e-13
2.08794e-13
2.08776e-13
2.0865e-13
2.08785e-13
2.08611e-13
2.08524e-13
2.08684e-13
2.08604e-13
2.08558e-13
2.08522e-13
2.08486e-13
2.08346e-13
2.08183e-13
2.08183e-13
2.08019e-13
2.07624e-13
2.07386e-13
2.07559e-13
2.07593e-13
2.07305e-13
2.07173e-13
2.07286e-13
2.07272e-13
2.07027e-13
2.06905e-13
2.07041e-13
2.0695e-13
2.06809e-13
2.06663e-13
2.06589e-13
2.06326e-13
2.06061e-13
2.05822e-13
2.0553e-13
2.05376e-13
2.05114e-13
2.04732e-13
2.04457e-13
2.0419e-13
2.03857e-13
2.03641e-13
2.0337e-13
2.03156e-13
2.02678e-13
2.0227e-13
2.01796e-13
2.01453e-13
2.01272e-13
2.0098e-13
2.00625e-13
2.00054e-13
1.99639e-13
1.98961e-13
1.98282e-13
1.97856e-13
1.97347e-13
1.96681e-13
1.95579e-13
1.94939e-13
1.94656e-13
1.93703e-13
1.92902e-13
1.9259e-13
1.91921e-13
1.91084e-13
1.90393e-13
1.89599e-13
1.89101e-13
1.88677e-13
1.87904e-13
1.87104e-13
1.86414e-13
1.85665e-13
1.84858e-13
1.83892e-13
1.83317e-13
1.82939e-13
1.82281e-13
1.8144e-13
1.80692e-13
1.80009e-13
1.79228e-13
1.78491e-13
1.77677e-13
1.76994e-13
1.76267e-13
1.7558e-13
1.75018e-13
1.74336e-13
1.73936e-13
1.73388e-13
1.72716e-13
1.72316e-13
1.71714e-13
1.71085e-13
1.70815e-13
1.70718e-13
1.70198e-13
1.69944e-13
1.70018e-13
1.70009e-13
1.69842e-13
1.69814e-13
1.69399e-13
1.69266e-13
1.69183e-13
1.68682e-13
1.68236e-13
1.67943e-13
1.67967e-13
1.67929e-13
1.67863e-13
1.68053e-13
1.68049e-13
1.67679e-13
1.67421e-13
1.67103e-13
1.66402e-13
1.66e-13
1.65592e-13
1.65461e-13
1.65812e-13
1.65691e-13
1.65233e-13
1.64777e-13
1.64507e-13
1.6435e-13
1.64114e-13
1.63842e-13
1.63623e-13
1.63204e-13
1.63134e-13
1.62762e-13
1.62234e-13
1.62089e-13
1.61895e-13
1.61396e-13
1.60963e-13
1.60575e-13
1.60288e-13
1.59998e-13
1.59534e-13
1.592e-13
1.58614e-13
1.5832e-13
1.57876e-13
1.57504e-13
1.57075e-13
1.56462e-13
1.55861e-13
1.55069e-13
1.54384e-13
1.53979e-13
1.5327e-13
1.52776e-13
1.5198e-13
1.5127e-13
1.50626e-13
1.49495e-13
1.49077e-13
1.48393e-13
1.47856e-13
1.47346e-13
1.46379e-13
1.45567e-13
1.45273e-13
1.44674e-13
1.4419e-13
1.43682e-13
1.43115e-13
1.42869e-13
1.42263e-13
1.41837e-13
1.41573e-13
1.415e-13
1.40707e-13
1.40115e-13
1.40119e-13
1.39931e-13
1.39976e-13
1.3972e-13
1.38773e-13
1.38611e-13
1.38439e-13
1.37904e-13
1.38019e-13
1.37936e-13
1.37522e-13
1.37523e-13
1.37492e-13
1.36678e-13
1.36676e-13
1.36404e-13
1.35644e-13
1.35361e-13
1.35375e-13
1.35303e-13
1.34621e-13
1.34336e-13
1.34865e-13
1.3434e-13
1.33903e-13
1.34326e-13
1.33601e-13
1.33612e-13
1.33967e-13
1.33236e-13
1.32672e-13
1.32625e-13
1.32091e-13
1.32394e-13
1.326e-13
1.32341e-13
1.32286e-13
1.32051e-13
1.3153e-13
1.30875e-13
1.31131e-13
1.30821e-13
1.31063e-13
1.31517e-13
1.31243e-13
1.31136e-13
1.31317e-13
1.31292e-13
1.3124e-13
1.31657e-13
1.31867e-13
1.31832e-13
1.32363e-13
1.32725e-13
1.32881e-13
1.32961e-13
1.33391e-13
1.33601e-13
1.33881e-13
1.3471e-13
1.34963e-13
1.35307e-13
1.35921e-13
1.36745e-13
1.36895e-13
1.37151e-13
1.3744e-13
1.37794e-13
1.38379e-13
1.38454e-13
1.38446e-13
1.38679e-13
1.38979e-13
1.38798e-13
1.3925e-13
1.39532e-13
1.39437e-13
1.3992e-13
1.40205e-13
1.40308e-13
1.39852e-13
1.3992e-13
1.40117e-13
1.40192e-13
1.40264e-13
1.40475e-13
1.40485e-13
1.40587e-13
1.4096e-13
1.40576e-13
1.40225e-13
1.40356e-13
1.40391e-13
1.40511e-13
1.40718e-13
1.40518e-13
1.40625e-13
1.4019e-13
1.3971e-13
1.40446e-13
1.40416e-13
1.401e-13
1.40674e-13
1.40869e-13
1.40927e-13
1.41123e-13
1.41125e-13
1.41073e-13
1.41415e-13
1.416e-13
1.41578e-13
1.41717e-13
1.41816e-13
1.41963e-13
1.41872e-13
1.41685e-13
1.41805e-13
1.42218e-13
1.42323e-13
1.42296e-13
1.42431e-13
1.4262e-13
1.42854e-13
1.42231e-13
1.42665e-13
1.43025e-13
1.42404e-13
1.42507e-13
1.43118e-13
1.43054e-13
1.42763e-13
1.42926e-13
1.42746e-13
1.43244e-13
1.43946e-13
1.43809e-13
1.43685e-13
1.43785e-13
1.43815e-13
1.43731e-13
1.44329e-13
1.44578e-13
1.44921e-13
1.44897e-13
1.44786e-13
1.45999e-13
1.46323e-13
1.46088e-13
1.45998e-13
1.47475e-13
1.48107e-13
1.48243e-13
1.48854e-13
1.494e-13
1.49754e-13
1.49448e-13
1.49935e-13
1.50332e-13
1.50996e-13
1.51115e-13
1.50935e-13
1.51378e-13
1.5206e-13
1.52235e-13
1.51777e-13
1.52546e-13
1.5278e-13
1.53013e-13
1.53211e-13
1.52599e-13
1.52808e-13
1.53601e-13
1.53123e-13
1.52066e-13
1.52769e-13
1.53083e-13
1.52946e-13
1.53108e-13
1.53111e-13
1.52951e-13
1.52973e-13
1.52487e-13
1.5185e-13
1.52006e-13
1.51818e-13
1.51537e-13
1.5129e-13
1.51302e-13
1.51377e-13
1.50995e-13
1.50406e-13
1.50259e-13
1.50211e-13
1.49794e-13
1.49131e-13
1.48663e-13
1.48505e-13
1.48508e-13
1.47616e-13
1.46547e-13
1.47029e-13
1.47131e-13
1.46306e-13
1.45651e-13
1.45765e-13
1.45376e-13
1.44341e-13
1.43934e-13
1.43285e-13
1.42707e-13
1.41904e-13
1.41301e-13
1.40629e-13
1.39845e-13
1.39592e-13
1.3861e-13
1.3707e-13
1.36574e-13
1.35994e-13
1.34096e-13
1.32764e-13
1.32031e-13
1.30602e-13
1.28553e-13
1.26609e-13
1.24716e-13
1.22947e-13
1.20956e-13
1.17484e-13
1.13957e-13
1.11002e-13
1.07205e-13
1.02178e-13
9.64293e-14
8.96741e-14
8.0861e-14
6.93388e-14
5.58443e-14
6.10961e-14
6.52889e-14
7.51883e-14
8.5263e-14
9.40802e-14
1.0153e-13
1.08063e-13
1.13828e-13
1.1903e-13
1.23751e-13
1.27973e-13
1.31859e-13
1.35489e-13
1.38898e-13
1.42084e-13
1.44933e-13
1.47711e-13
1.50051e-13
1.52324e-13
1.54415e-13
1.56475e-13
1.58404e-13
1.60289e-13
1.62314e-13
1.64204e-13
1.6606e-13
1.67428e-13
1.68994e-13
1.7057e-13
1.72027e-13
1.73252e-13
1.74468e-13
1.7571e-13
1.7676e-13
1.77717e-13
1.78727e-13
1.79872e-13
1.80804e-13
1.81671e-13
1.82624e-13
1.83702e-13
1.84636e-13
1.85674e-13
1.86695e-13
1.87536e-13
1.88372e-13
1.89293e-13
1.90106e-13
1.90823e-13
1.91512e-13
1.92298e-13
1.93204e-13
1.93928e-13
1.94739e-13
1.95443e-13
1.96321e-13
1.97169e-13
1.97875e-13
1.98802e-13
1.99476e-13
2.00219e-13
2.00924e-13
2.01622e-13
2.02346e-13
2.02894e-13
2.03675e-13
2.04301e-13
2.04707e-13
2.05189e-13
2.05657e-13
2.06079e-13
2.06391e-13
2.06787e-13
2.07028e-13
2.07317e-13
2.07485e-13
2.07557e-13
2.0792e-13
2.08014e-13
2.07956e-13
2.08145e-13
2.08384e-13
2.08468e-13
2.08477e-13
2.08616e-13
2.0876e-13
2.0875e-13
2.08711e-13
2.08777e-13
2.08557e-13
2.0854e-13
2.08747e-13
2.08643e-13
2.0862e-13
2.08546e-13
2.08385e-13
2.08398e-13
2.08325e-13
2.08177e-13
2.07961e-13
2.0765e-13
2.07381e-13
2.0751e-13
2.07632e-13
2.07229e-13
2.07136e-13
2.07239e-13
2.07179e-13
2.07074e-13
2.07026e-13
2.07029e-13
2.06984e-13
2.06854e-13
2.06775e-13
2.06618e-13
2.06221e-13
2.06051e-13
2.0597e-13
2.05631e-13
2.05302e-13
2.05026e-13
2.04785e-13
2.04501e-13
2.04159e-13
2.03887e-13
2.03647e-13
2.03356e-13
2.03208e-13
2.02779e-13
2.02231e-13
2.01839e-13
2.01496e-13
2.01348e-13
2.00983e-13
2.0062e-13
2.00086e-13
1.9961e-13
1.98976e-13
1.98279e-13
1.97891e-13
1.97341e-13
1.966e-13
1.95629e-13
1.95092e-13
1.94595e-13
1.93675e-13
1.92992e-13
1.92586e-13
1.91815e-13
1.91102e-13
1.90427e-13
1.89586e-13
1.89169e-13
1.8864e-13
1.87854e-13
1.8713e-13
1.86418e-13
1.85578e-13
1.84843e-13
1.8406e-13
1.8333e-13
1.82894e-13
1.82314e-13
1.81422e-13
1.80701e-13
1.80001e-13
1.79192e-13
1.78502e-13
1.77722e-13
1.76988e-13
1.76286e-13
1.75536e-13
1.75026e-13
1.74429e-13
1.73845e-13
1.73335e-13
1.72745e-13
1.72218e-13
1.71662e-13
1.71161e-13
1.7076e-13
1.70673e-13
1.70103e-13
1.69905e-13
1.70035e-13
1.70014e-13
1.69782e-13
1.69846e-13
1.69459e-13
1.69183e-13
1.69132e-13
1.68586e-13
1.68209e-13
1.68008e-13
1.67942e-13
1.68056e-13
1.67954e-13
1.67816e-13
1.67958e-13
1.67846e-13
1.67417e-13
1.67066e-13
1.66556e-13
1.65991e-13
1.65655e-13
1.65536e-13
1.65662e-13
1.65576e-13
1.65237e-13
1.64818e-13
1.64435e-13
1.64376e-13
1.64176e-13
1.63847e-13
1.63466e-13
1.63166e-13
1.63081e-13
1.62845e-13
1.62459e-13
1.62105e-13
1.61814e-13
1.61312e-13
1.60977e-13
1.6058e-13
1.60351e-13
1.59924e-13
1.59586e-13
1.59413e-13
1.58729e-13
1.58178e-13
1.57868e-13
1.57597e-13
1.56958e-13
1.56503e-13
1.55877e-13
1.55177e-13
1.54549e-13
1.53912e-13
1.5324e-13
1.52883e-13
1.51891e-13
1.51271e-13
1.50567e-13
1.49604e-13
1.49136e-13
1.48315e-13
1.47878e-13
1.47416e-13
1.46348e-13
1.45595e-13
1.45223e-13
1.4453e-13
1.4427e-13
1.43694e-13
1.42941e-13
1.42921e-13
1.42353e-13
1.41764e-13
1.41523e-13
1.415e-13
1.40791e-13
1.4022e-13
1.40092e-13
1.39875e-13
1.39822e-13
1.39586e-13
1.39038e-13
1.38692e-13
1.38331e-13
1.38022e-13
1.37917e-13
1.37792e-13
1.37527e-13
1.37534e-13
1.37449e-13
1.36668e-13
1.36704e-13
1.36422e-13
1.35653e-13
1.35479e-13
1.3528e-13
1.3505e-13
1.34675e-13
1.3445e-13
1.34609e-13
1.34436e-13
1.34064e-13
1.34172e-13
1.33785e-13
1.33516e-13
1.33794e-13
1.33249e-13
1.32588e-13
1.32638e-13
1.32394e-13
1.32247e-13
1.32526e-13
1.32485e-13
1.3212e-13
1.32016e-13
1.31494e-13
1.30828e-13
1.31045e-13
1.31056e-13
1.30994e-13
1.3142e-13
1.31272e-13
1.31005e-13
1.31391e-13
1.3125e-13
1.31094e-13
1.31606e-13
1.31946e-13
1.31757e-13
1.32313e-13
1.32708e-13
1.32762e-13
1.32992e-13
1.33345e-13
1.33755e-13
1.33971e-13
1.34561e-13
1.34862e-13
1.35358e-13
1.35899e-13
1.36704e-13
1.36899e-13
1.37148e-13
1.37635e-13
1.37866e-13
1.38366e-13
1.38456e-13
1.38468e-13
1.38664e-13
1.38866e-13
1.38709e-13
1.3938e-13
1.39628e-13
1.39416e-13
1.40129e-13
1.40134e-13
1.39969e-13
1.40037e-13
1.39818e-13
1.40004e-13
1.40454e-13
1.40221e-13
1.40382e-13
1.40688e-13
1.40508e-13
1.40698e-13
1.40803e-13
1.40228e-13
1.40223e-13
1.405e-13
1.40317e-13
1.4063e-13
1.40597e-13
1.40622e-13
1.40209e-13
1.39785e-13
1.40274e-13
1.40421e-13
1.40263e-13
1.40706e-13
1.4074e-13
1.40778e-13
1.4137e-13
1.41155e-13
1.41126e-13
1.41419e-13
1.41438e-13
1.41716e-13
1.41822e-13
1.41666e-13
1.41883e-13
1.4198e-13
1.41696e-13
1.41986e-13
1.42194e-13
1.42046e-13
1.4226e-13
1.42626e-13
1.42579e-13
1.42634e-13
1.42543e-13
1.42655e-13
1.42701e-13
1.42512e-13
1.42744e-13
1.42855e-13
1.42943e-13
1.43086e-13
1.42857e-13
1.42912e-13
1.4317e-13
1.43527e-13
1.43875e-13
1.43839e-13
1.43668e-13
1.43903e-13
1.43904e-13
1.44043e-13
1.44503e-13
1.44656e-13
1.44982e-13
1.45091e-13
1.45675e-13
1.46084e-13
1.46433e-13
1.4628e-13
1.47088e-13
1.48192e-13
1.48249e-13
1.48789e-13
1.49392e-13
1.49597e-13
1.49629e-13
1.50061e-13
1.50451e-13
1.5078e-13
1.51005e-13
1.51161e-13
1.51472e-13
1.52033e-13
1.52151e-13
1.51766e-13
1.52628e-13
1.52862e-13
1.52843e-13
1.53251e-13
1.52926e-13
1.52838e-13
1.53113e-13
1.53108e-13
1.52734e-13
1.52891e-13
1.53004e-13
1.52667e-13
1.53096e-13
1.53293e-13
1.52701e-13
1.52691e-13
1.52546e-13
1.52287e-13
1.52099e-13
1.51539e-13
1.51527e-13
1.51418e-13
1.51415e-13
1.51158e-13
1.50678e-13
1.50601e-13
1.50486e-13
1.50093e-13
1.49789e-13
1.49381e-13
1.48672e-13
1.48528e-13
1.48066e-13
1.47639e-13
1.47082e-13
1.47196e-13
1.46757e-13
1.46174e-13
1.45952e-13
1.45656e-13
1.45286e-13
1.44475e-13
1.43937e-13
1.43259e-13
1.42859e-13
1.42076e-13
1.41335e-13
1.40784e-13
1.39813e-13
1.39276e-13
1.38593e-13
1.37575e-13
1.36631e-13
1.36067e-13
1.34182e-13
1.32697e-13
1.32218e-13
1.30432e-13
1.2845e-13
1.26779e-13
1.25228e-13
1.23184e-13
1.20842e-13
1.17651e-13
1.14367e-13
1.11256e-13
1.07737e-13
1.02877e-13
9.72192e-14
9.14287e-14
8.35071e-14
7.38824e-14
6.4372e-14
7.02416e-14
7.29167e-14
8.00395e-14
8.81368e-14
9.60358e-14
1.02875e-13
1.08907e-13
1.14472e-13
1.19515e-13
1.24215e-13
1.2836e-13
1.32224e-13
1.35777e-13
1.39043e-13
1.42166e-13
1.45128e-13
1.47846e-13
1.50265e-13
1.5238e-13
1.54461e-13
1.56667e-13
1.58418e-13
1.60299e-13
1.62289e-13
1.64263e-13
1.66081e-13
1.67467e-13
1.69027e-13
1.70605e-13
1.72073e-13
1.73285e-13
1.74508e-13
1.75741e-13
1.76822e-13
1.77648e-13
1.78713e-13
1.79887e-13
1.80873e-13
1.81556e-13
1.82553e-13
1.83675e-13
1.84656e-13
1.85724e-13
1.86691e-13
1.87528e-13
1.88409e-13
1.89296e-13
1.90051e-13
1.90821e-13
1.91532e-13
1.92344e-13
1.93233e-13
1.93891e-13
1.94703e-13
1.95492e-13
1.96267e-13
1.97176e-13
1.97879e-13
1.98874e-13
1.99411e-13
2.00139e-13
2.01e-13
2.01601e-13
2.02408e-13
2.02899e-13
2.03688e-13
2.04248e-13
2.0471e-13
2.05275e-13
2.05778e-13
2.06013e-13
2.06397e-13
2.06919e-13
2.07026e-13
2.07249e-13
2.07585e-13
2.07556e-13
2.07956e-13
2.08e-13
2.07988e-13
2.08112e-13
2.0834e-13
2.08507e-13
2.08439e-13
2.08696e-13
2.08748e-13
2.08756e-13
2.08715e-13
2.08785e-13
2.08496e-13
2.08597e-13
2.0874e-13
2.08684e-13
2.08725e-13
2.08505e-13
2.08382e-13
2.08419e-13
2.08397e-13
2.08141e-13
2.07936e-13
2.07702e-13
2.07427e-13
2.07522e-13
2.07586e-13
2.07242e-13
2.07095e-13
2.07136e-13
2.07059e-13
2.07131e-13
2.0707e-13
2.07036e-13
2.07045e-13
2.06886e-13
2.06842e-13
2.06655e-13
2.06168e-13
2.06032e-13
2.06185e-13
2.05735e-13
2.05247e-13
2.04897e-13
2.04686e-13
2.04469e-13
2.04224e-13
2.03887e-13
2.03659e-13
2.03431e-13
2.03264e-13
2.02823e-13
2.02213e-13
2.01872e-13
2.01663e-13
2.01504e-13
2.00951e-13
2.00549e-13
2.00102e-13
1.9965e-13
1.99029e-13
1.98286e-13
1.97748e-13
1.97427e-13
1.96616e-13
1.95681e-13
1.95266e-13
1.9446e-13
1.9371e-13
1.93118e-13
1.92495e-13
1.91711e-13
1.91159e-13
1.90418e-13
1.89551e-13
1.8927e-13
1.8864e-13
1.87822e-13
1.87066e-13
1.86375e-13
1.85552e-13
1.84884e-13
1.84185e-13
1.83415e-13
1.82911e-13
1.82195e-13
1.81426e-13
1.80792e-13
1.79958e-13
1.79134e-13
1.78396e-13
1.77848e-13
1.77058e-13
1.76264e-13
1.75459e-13
1.7501e-13
1.74417e-13
1.73857e-13
1.73319e-13
1.72595e-13
1.72057e-13
1.71702e-13
1.71231e-13
1.70765e-13
1.70561e-13
1.70032e-13
1.69892e-13
1.69941e-13
1.7006e-13
1.69973e-13
1.69897e-13
1.69428e-13
1.69208e-13
1.68967e-13
1.6845e-13
1.68279e-13
1.68003e-13
1.67853e-13
1.6821e-13
1.68021e-13
1.67651e-13
1.67891e-13
1.67957e-13
1.67384e-13
1.66994e-13
1.66568e-13
1.66111e-13
1.65749e-13
1.65646e-13
1.65588e-13
1.65433e-13
1.65254e-13
1.648e-13
1.6442e-13
1.64255e-13
1.64217e-13
1.64031e-13
1.6336e-13
1.63155e-13
1.63024e-13
1.62967e-13
1.62656e-13
1.62069e-13
1.61714e-13
1.6127e-13
1.60977e-13
1.60653e-13
1.60337e-13
1.59835e-13
1.59732e-13
1.5945e-13
1.58884e-13
1.58126e-13
1.57842e-13
1.57756e-13
1.56971e-13
1.56392e-13
1.55758e-13
1.55275e-13
1.54783e-13
1.53912e-13
1.53195e-13
1.52963e-13
1.51912e-13
1.51325e-13
1.50423e-13
1.49759e-13
1.49068e-13
1.48413e-13
1.47871e-13
1.47349e-13
1.46452e-13
1.45696e-13
1.4514e-13
1.44462e-13
1.44209e-13
1.43685e-13
1.42939e-13
1.42737e-13
1.42381e-13
1.41808e-13
1.41527e-13
1.4132e-13
1.40931e-13
1.40335e-13
1.39966e-13
1.39992e-13
1.39778e-13
1.39383e-13
1.39195e-13
1.38866e-13
1.38232e-13
1.38027e-13
1.37703e-13
1.3764e-13
1.37739e-13
1.37454e-13
1.37155e-13
1.36931e-13
1.36813e-13
1.36202e-13
1.3564e-13
1.3563e-13
1.35183e-13
1.34882e-13
1.34844e-13
1.34506e-13
1.3425e-13
1.34466e-13
1.3429e-13
1.33862e-13
1.33941e-13
1.3362e-13
1.33436e-13
1.33294e-13
1.32738e-13
1.3262e-13
1.32548e-13
1.32071e-13
1.32346e-13
1.32809e-13
1.31969e-13
1.31795e-13
1.31566e-13
1.30915e-13
1.3093e-13
1.31274e-13
1.30888e-13
1.31215e-13
1.31476e-13
1.30843e-13
1.31302e-13
1.31325e-13
1.30912e-13
1.31446e-13
1.31911e-13
1.31588e-13
1.32454e-13
1.32692e-13
1.3252e-13
1.32939e-13
1.33414e-13
1.33979e-13
1.34054e-13
1.34345e-13
1.34882e-13
1.3538e-13
1.35877e-13
1.36469e-13
1.36741e-13
1.37344e-13
1.38018e-13
1.37986e-13
1.3822e-13
1.38529e-13
1.3851e-13
1.38494e-13
1.38796e-13
1.38782e-13
1.39306e-13
1.39732e-13
1.39492e-13
1.40196e-13
1.40204e-13
1.39687e-13
1.3994e-13
1.39898e-13
1.40116e-13
1.40377e-13
1.40197e-13
1.40539e-13
1.40674e-13
1.40431e-13
1.40562e-13
1.40871e-13
1.40401e-13
1.40169e-13
1.40371e-13
1.40281e-13
1.40666e-13
1.40704e-13
1.40365e-13
1.40211e-13
1.39957e-13
1.40105e-13
1.40446e-13
1.4033e-13
1.40732e-13
1.4073e-13
1.40678e-13
1.41395e-13
1.41397e-13
1.41078e-13
1.41182e-13
1.41339e-13
1.41842e-13
1.41968e-13
1.41854e-13
1.41647e-13
1.4199e-13
1.42032e-13
1.41967e-13
1.41961e-13
1.41963e-13
1.42416e-13
1.42692e-13
1.42478e-13
1.42472e-13
1.42729e-13
1.42814e-13
1.42468e-13
1.42457e-13
1.43051e-13
1.42594e-13
1.42665e-13
1.43333e-13
1.43072e-13
1.42899e-13
1.43061e-13
1.43197e-13
1.43819e-13
1.44155e-13
1.43621e-13
1.43857e-13
1.43895e-13
1.43867e-13
1.44562e-13
1.44424e-13
1.45072e-13
1.45091e-13
1.45446e-13
1.46096e-13
1.46534e-13
1.46642e-13
1.46921e-13
1.48046e-13
1.48055e-13
1.48862e-13
1.49426e-13
1.49501e-13
1.49761e-13
1.50289e-13
1.50438e-13
1.50411e-13
1.51045e-13
1.51556e-13
1.5148e-13
1.51599e-13
1.52177e-13
1.52116e-13
1.52505e-13
1.52887e-13
1.52972e-13
1.53245e-13
1.53214e-13
1.52787e-13
1.52648e-13
1.53193e-13
1.53401e-13
1.52928e-13
1.52754e-13
1.52543e-13
1.53291e-13
1.53368e-13
1.52348e-13
1.52373e-13
1.52664e-13
1.52871e-13