/*--------------------------------*- C++ -*----------------------------------*\
| =========                 |                                                 |
| \\      /  F ield         | OpenFOAM: The Open Source CFD Toolbox           |
|  \\    /   O peration     | Version:  2112                                  |
|   \\  /    A nd           | Website:  www.openfoam.com                      |
|    \\/     M anipulation  |                                                 |
\*---------------------------------------------------------------------------*/
FoamFile
{
    version     2.0;
    format      ascii;
    arch        "LSB;label=32;scalar=64";
    class       surfaceScalarField;
    location    "15";
    object      phi;
}
// * * * * * * * * * * * * * * * * * * * * * * * * * * * * * * * * * * * * * //

dimensions      [0 3 -1 0 0 0 0];

oriented        oriented;

internalField   nonuniform List<scalar> 
99400
(
2.99949e-05
-3.67908e-18
2.99949e-05
-8.96155e-19
2.99949e-05
-5.27052e-19
2.99949e-05
-1.97678e-19
2.99949e-05
-1.01929e-19
2.99949e-05
-5.77785e-20
2.99949e-05
-3.71204e-20
2.99949e-05
-3.32973e-20
2.99949e-05
-3.91162e-20
2.99949e-05
-3.01719e-20
2.99949e-05
-3.11296e-20
2.99949e-05
-4.0541e-20
2.99949e-05
-3.62418e-20
2.99949e-05
-1.94838e-20
2.99949e-05
-1.31762e-20
2.99949e-05
-2.43209e-20
2.99949e-05
-3.79853e-20
2.99949e-05
-1.95863e-20
2.99949e-05
-1.03998e-20
2.99949e-05
-3.62243e-21
2.99949e-05
3.66262e-22
2.99949e-05
6.13608e-21
2.99949e-05
3.32181e-20
2.99949e-05
-5.08591e-21
2.99949e-05
-2.45269e-20
2.99949e-05
-2.93117e-20
2.99949e-05
-5.9928e-21
2.99949e-05
3.48939e-20
2.99949e-05
-2.55021e-20
2.99949e-05
-1.33148e-20
2.99949e-05
-3.02031e-21
2.99949e-05
-2.00046e-20
2.99949e-05
-1.48768e-20
2.99949e-05
-1.51658e-20
2.99949e-05
-2.85673e-20
2.99949e-05
7.67801e-21
2.99949e-05
-3.83443e-20
2.99949e-05
-3.3657e-20
2.99949e-05
6.83023e-22
2.99949e-05
-2.37151e-20
2.99949e-05
1.46848e-20
2.99949e-05
-2.17496e-20
2.99949e-05
-9.11258e-21
2.99949e-05
1.01677e-20
2.99949e-05
-3.57731e-21
2.99949e-05
3.98937e-20
2.99949e-05
3.17294e-20
2.99949e-05
-4.08574e-20
2.99949e-05
-2.49493e-20
2.99949e-05
4.26724e-20
2.99949e-05
2.42353e-20
2.99949e-05
6.37992e-21
2.99949e-05
-3.5492e-20
2.99949e-05
-9.55071e-21
2.99949e-05
4.46746e-20
2.99949e-05
-1.79189e-20
2.99949e-05
3.23094e-20
2.99949e-05
-1.63648e-20
2.99949e-05
-6.50483e-20
2.99949e-05
1.6058e-20
2.99949e-05
-2.40022e-21
2.99949e-05
-1.16142e-20
2.99949e-05
-1.11987e-20
2.99949e-05
1.25813e-20
2.99949e-05
-1.1958e-20
2.99949e-05
1.15747e-20
2.99949e-05
-4.14743e-20
2.99949e-05
-2.21917e-20
2.99949e-05
4.72533e-20
2.99949e-05
-1.58899e-20
2.99949e-05
-3.18783e-20
2.99949e-05
2.3007e-21
2.99949e-05
6.86402e-20
2.99949e-05
-1.68278e-20
2.99949e-05
-5.94892e-20
2.99949e-05
9.59369e-20
2.99949e-05
3.88616e-20
2.99949e-05
-6.74467e-20
2.99949e-05
-1.56106e-20
2.99949e-05
4.40515e-20
2.99949e-05
4.58141e-21
2.99949e-05
-4.26806e-20
2.99949e-05
1.87904e-20
2.99949e-05
1.11988e-21
2.99949e-05
-5.77277e-20
2.99949e-05
3.83053e-20
2.99949e-05
5.18582e-21
2.99949e-05
-1.51778e-20
2.99949e-05
1.9237e-21
2.99949e-05
-3.28766e-21
2.99949e-05
2.61234e-20
2.99949e-05
2.09763e-20
2.99949e-05
1.59826e-20
2.99949e-05
5.28068e-21
2.99949e-05
5.74074e-21
2.99949e-05
-9.93811e-20
2.99949e-05
8.91248e-23
2.99949e-05
9.52897e-20
2.99949e-05
-5.21498e-20
2.99949e-05
-5.35752e-20
2.99949e-05
5.89833e-20
2.99949e-05
6.01964e-20
2.99949e-05
-2.99702e-20
2.99949e-05
-3.49374e-20
2.99949e-05
4.88451e-20
2.99949e-05
1.1037e-21
2.99949e-05
-1.64576e-20
2.99949e-05
-1.07894e-20
2.99949e-05
2.97722e-20
2.99949e-05
6.63608e-20
2.99949e-05
-4.17133e-20
2.99949e-05
-7.75936e-20
2.99949e-05
-5.02296e-21
2.99949e-05
9.86192e-20
2.99949e-05
3.63718e-20
2.99949e-05
-8.89216e-20
2.99949e-05
-6.53805e-20
2.99949e-05
6.24477e-20
2.99949e-05
6.67157e-20
2.99949e-05
-1.26857e-20
2.99949e-05
-2.25161e-20
2.99949e-05
1.89294e-20
2.99949e-05
5.31722e-20
2.99949e-05
-1.89922e-20
2.99949e-05
-6.01603e-20
2.99949e-05
6.97238e-20
2.99949e-05
2.75128e-20
2.99949e-05
-4.77595e-20
2.99949e-05
3.08389e-20
2.99949e-05
1.71254e-20
2.99949e-05
1.81932e-20
2.99949e-05
5.15913e-21
2.99949e-05
8.99247e-20
2.99949e-05
-6.75667e-20
2.99949e-05
-8.13576e-20
2.99949e-05
5.09458e-20
2.99949e-05
-2.61322e-21
2.99949e-05
-6.33251e-20
2.99949e-05
7.87333e-20
2.99949e-05
6.02007e-20
2.99949e-05
-1.4003e-19
2.99949e-05
-8.1806e-20
2.99949e-05
1.01579e-19
2.99949e-05
1.27309e-19
2.99949e-05
-1.07461e-19
2.99949e-05
-2.27314e-20
2.99949e-05
1.81312e-19
2.99949e-05
-4.82583e-20
2.99949e-05
-1.23452e-19
2.99949e-05
1.02857e-19
2.99949e-05
-6.6692e-20
2.99949e-05
-4.08401e-21
2.99949e-05
1.27238e-19
2.99949e-05
-1.58116e-19
2.99949e-05
-4.21934e-20
2.99949e-05
7.7782e-20
2.99949e-05
-1.03896e-19
2.99949e-05
4.8001e-21
2.99949e-05
2.51438e-20
2.99949e-05
1.21256e-19
2.99949e-05
4.10129e-20
2.99949e-05
-5.69646e-20
2.99949e-05
-3.37843e-20
2.99949e-05
6.04177e-21
2.99949e-05
-2.81363e-20
2.99949e-05
-8.34439e-21
2.99949e-05
6.04135e-20
2.99949e-05
-1.33428e-19
2.99949e-05
1.18882e-19
2.99949e-05
1.29382e-19
2.99949e-05
-1.48235e-19
2.99949e-05
6.80529e-20
2.99949e-05
1.19916e-19
2.99949e-05
-8.87379e-20
2.99949e-05
-6.10509e-20
2.99949e-05
2.4055e-20
2.99949e-05
8.90795e-20
2.99949e-05
-3.14121e-20
2.99949e-05
-6.95398e-20
2.99949e-05
1.28587e-19
2.99949e-05
-1.69719e-20
2.99949e-05
-6.87205e-20
2.99949e-05
2.41607e-20
2.99949e-05
-3.47626e-20
2.99949e-05
9.57495e-20
2.99949e-05
-1.33541e-20
2.99949e-05
-1.365e-19
2.99949e-05
-2.46983e-21
2.99949e-05
6.57525e-21
2.99949e-05
-1.87415e-20
2.99949e-05
-8.26202e-20
2.99949e-05
-4.42702e-20
2.99949e-05
-1.67262e-20
2.99949e-05
1.57671e-19
2.99949e-05
5.26906e-20
2.99949e-05
-3.51001e-20
2.99949e-05
8.20605e-20
2.99949e-05
-1.55775e-20
2.99949e-05
-1.85751e-19
2.99949e-05
-6.47851e-20
2.99949e-05
5.51802e-20
2.99949e-05
-1.49191e-19
2.99949e-05
1.39647e-19
2.99949e-05
4.54714e-20
2.99949e-05
4.25532e-20
2.99949e-05
9.49924e-20
2.99949e-05
-1.76873e-19
2.99949e-05
-1.0996e-19
2.99949e-05
2.92255e-20
2.99949e-05
7.65373e-21
2.99949e-05
4.2721e-20
2.99949e-05
1.33065e-20
2.99949e-05
-1.10806e-19
2.99949e-05
9.89877e-20
2.99949e-05
-8.84797e-20
2.99949e-05
8.99992e-21
2.99949e-05
-5.76829e-20
2.99949e-05
-5.36711e-20
2.99949e-05
1.37714e-19
2.99949e-05
1.05485e-19
2.99949e-05
-5.10786e-20
2.99949e-05
-7.69614e-20
2.99949e-05
5.45132e-20
2.99949e-05
-5.84492e-20
2.99949e-05
4.45274e-20
2.99949e-05
-1.06847e-20
2.99949e-05
1.08483e-21
2.99949e-05
6.81704e-20
2.99949e-05
9.69474e-20
2.99949e-05
-1.48386e-20
2.99949e-05
-3.34756e-20
2.99949e-05
-1.32159e-19
2.99949e-05
-1.55585e-20
2.99949e-05
4.38622e-20
2.99949e-05
-1.03627e-19
2.99949e-05
9.76596e-20
2.99949e-05
2.66714e-20
2.99949e-05
3.20642e-20
2.99949e-05
-5.92131e-20
2.99949e-05
5.83913e-21
2.99949e-05
-2.2513e-21
2.99949e-05
-1.07711e-19
2.99949e-05
2.67843e-20
2.99949e-05
1.84985e-19
2.99949e-05
-4.57445e-20
2.99949e-05
-4.39699e-20
2.99949e-05
8.97396e-20
2.99949e-05
-1.19016e-19
2.99949e-05
1.06489e-20
2.99949e-05
4.08318e-21
2.99949e-05
-4.13905e-20
2.99949e-05
-1.07905e-20
2.99949e-05
1.59119e-19
2.99949e-05
-4.20667e-20
2.99949e-05
-8.37994e-20
2.99949e-05
1.07881e-19
2.99949e-05
-3.69798e-20
2.99949e-05
-9.69298e-20
2.99949e-05
5.30859e-20
2.99949e-05
-1.09669e-19
2.99949e-05
4.29896e-20
2.99949e-05
2.22757e-19
2.99949e-05
-1.52373e-19
2.99949e-05
7.69987e-20
2.99949e-05
-1.65192e-19
2.99949e-05
-1.51058e-19
2.99949e-05
3.20271e-19
2.99949e-05
-2.0771e-19
2.99949e-05
-9.35141e-20
2.99949e-05
4.60999e-19
2.99949e-05
-2.15637e-19
2.99949e-05
-1.54488e-19
2.99949e-05
1.19122e-19
2.99949e-05
-1.4619e-19
2.99949e-05
1.21488e-19
2.99949e-05
-1.26922e-19
2.99949e-05
-6.59376e-20
2.99949e-05
1.45496e-19
2.99949e-05
1.09723e-19
2.99949e-05
-7.76499e-20
2.99949e-05
-9.23207e-20
2.99949e-05
-1.03392e-19
2.99949e-05
7.03203e-20
2.99949e-05
1.98382e-19
2.99949e-05
-2.35423e-19
2.99949e-05
2.3692e-19
2.99949e-05
3.71278e-20
2.99949e-05
-2.68107e-19
2.99949e-05
2.12174e-19
2.99949e-05
8.16091e-20
2.99949e-05
-2.74739e-19
2.99949e-05
6.08442e-20
2.99949e-05
4.75416e-20
2.99949e-05
-1.59441e-19
2.99949e-05
3.53955e-19
2.99949e-05
7.74222e-20
2.99949e-05
-3.46631e-19
2.99949e-05
8.04814e-20
2.99949e-05
-2.49325e-20
2.99949e-05
-2.00332e-19
2.99949e-05
2.73498e-19
2.99949e-05
-1.19593e-19
2.99949e-05
-9.69811e-20
2.99949e-05
4.23136e-19
2.99949e-05
-1.71862e-19
2.99949e-05
-2.64586e-19
2.99949e-05
2.17688e-19
2.99949e-05
-1.40833e-19
2.99949e-05
-1.56673e-19
2.99949e-05
2.90393e-19
2.99949e-05
7.44009e-20
2.99949e-05
-2.33628e-19
2.99949e-05
1.23724e-19
2.99949e-05
7.13894e-20
2.99949e-05
-1.53412e-19
2.99949e-05
7.35846e-20
2.99949e-05
-8.7843e-20
2.99949e-05
-7.61642e-20
2.99949e-05
2.0157e-21
2.99949e-05
1.61821e-19
2.99949e-05
1.28167e-19
2.99949e-05
-4.58817e-20
2.99949e-05
-1.48493e-19
2.99949e-05
-4.21845e-20
2.99949e-05
2.11618e-19
2.99949e-05
-8.91993e-20
2.99949e-05
-1.00167e-19
2.99949e-05
-4.60689e-20
2.99949e-05
1.99062e-19
2.99949e-05
1.75005e-19
2.99949e-05
-3.33156e-19
2.99949e-05
1.32957e-20
2.99949e-05
1.65482e-19
2.99949e-05
-2.3389e-19
2.99949e-05
1.36374e-19
2.99949e-05
2.32667e-19
2.99949e-05
-3.30552e-19
2.99949e-05
2.62035e-19
2.99949e-05
1.39002e-19
2.99949e-05
-3.19098e-19
2.99949e-05
4.57071e-20
2.99949e-05
-3.1377e-20
2.99949e-05
-1.04186e-19
2.99949e-05
5.88854e-20
2.99949e-05
1.7563e-19
2.99949e-05
1.10258e-20
2.99949e-05
-2.40153e-20
2.99949e-05
-1.6252e-19
2.99949e-05
-5.80008e-20
2.99949e-05
1.42686e-19
2.99949e-05
-7.92926e-20
2.99949e-05
-1.75854e-19
2.99949e-05
7.44005e-20
2.99949e-05
2.19711e-19
2.99949e-05
2.3049e-20
2.99949e-05
-4.57602e-20
2.99949e-05
-1.92253e-19
2.99949e-05
-9.52678e-20
2.99949e-05
1.57935e-19
2.99949e-05
-3.19748e-20
2.99949e-05
1.84679e-19
2.99949e-05
-1.81202e-19
2.99949e-05
-2.33022e-20
2.99949e-05
3.45166e-19
2.99949e-05
-2.33122e-19
2.99949e-05
-5.16504e-20
2.99949e-05
1.80628e-20
2.99949e-05
-4.91296e-20
2.99949e-05
-6.92133e-20
2.99949e-05
2.94438e-19
2.99949e-05
5.96902e-20
2.99949e-05
-1.97417e-19
2.99949e-05
-4.45625e-20
2.99949e-05
-3.10425e-20
2.99949e-05
1.30892e-19
2.99949e-05
-1.09711e-19
2.99949e-05
7.67137e-20
2.99949e-05
-1.22715e-19
2.99949e-05
2.02943e-19
2.99949e-05
5.78937e-20
2.99949e-05
-1.7186e-19
2.99949e-05
-7.00826e-20
2.99949e-05
7.57727e-20
2.99949e-05
5.33048e-20
2.99949e-05
-1.06584e-19
2.99949e-05
3.07084e-19
2.99949e-05
-2.31494e-19
2.99949e-05
5.6848e-20
2.99949e-05
1.4602e-19
2.99949e-05
-1.12841e-19
2.99949e-05
-1.13991e-19
2.99949e-05
7.66795e-20
2.99949e-05
-2.71704e-20
2.99949e-05
-2.14409e-19
2.99949e-05
3.42731e-19
2.99949e-05
1.94576e-19
2.99949e-05
-2.30984e-19
2.99949e-05
-1.58564e-19
2.99949e-05
-7.0535e-20
2.99949e-05
-5.04592e-20
2.99949e-05
1.22867e-19
2.99949e-05
3.65471e-19
2.99949e-05
-2.88449e-19
2.99949e-05
-1.56669e-19
2.99949e-05
-9.19174e-20
2.99949e-05
2.86588e-19
2.99949e-05
2.75195e-19
2.99949e-05
-5.15453e-19
2.99949e-05
-8.52213e-20
2.99949e-05
2.79684e-19
2.99949e-05
3.44197e-19
2.99949e-05
-3.79028e-19
2.99949e-05
2.2409e-20
2.99949e-05
1.40603e-19
2.99949e-05
-9.3211e-20
2.99949e-05
3.75463e-20
2.99949e-05
-2.62021e-19
2.99949e-05
4.07399e-20
2.99949e-05
2.65181e-19
2.99949e-05
1.46079e-19
2.99949e-05
-3.77822e-19
2.99949e-05
-1.37352e-19
2.99949e-05
5.01303e-19
2.99949e-05
-1.07283e-19
2.99949e-05
-1.95669e-19
2.99949e-05
3.96691e-20
2.99949e-05
1.01242e-19
2.99949e-05
3.19143e-20
2.99949e-05
8.26194e-20
2.99949e-05
-2.0878e-19
2.99949e-05
-1.68785e-19
2.99949e-05
4.9164e-19
2.99949e-05
-3.46509e-20
2.99949e-05
-4.68555e-19
2.99949e-05
-8.89225e-21
2.99949e-05
6.1068e-19
2.99949e-05
-1.40611e-19
2.99949e-05
-4.5529e-20
2.99949e-05
-2.17285e-20
2.99949e-05
-2.72426e-19
2.99949e-05
4.20296e-19
2.99949e-05
-2.44225e-19
2.99949e-05
-8.19857e-20
2.99949e-05
-6.38728e-20
2.99949e-05
1.8542e-19
2.99949e-05
8.48369e-20
2.99949e-05
-1.73883e-19
2.99949e-05
8.72551e-20
2.99949e-05
-1.59651e-19
2.99949e-05
2.35676e-19
2.99949e-05
-8.6057e-20
2.99949e-05
6.86391e-20
2.99949e-05
-1.30831e-19
2.99949e-05
1.42184e-19
2.99949e-05
-1.75288e-20
2.99949e-05
-1.70046e-19
2.99949e-05
1.40389e-19
2.99949e-05
7.19912e-20
2.99949e-05
1.58149e-19
2.99949e-05
-5.27028e-19
2.99949e-05
2.81584e-19
2.99949e-05
1.71653e-19
2.99949e-05
6.13922e-20
2.99949e-05
8.04315e-20
2.99949e-05
-4.78923e-19
2.99949e-05
1.54632e-19
2.99949e-05
1.84545e-19
2.99949e-05
-3.05383e-20
2.99949e-05
-2.05716e-19
2.99949e-05
1.26891e-19
2.99949e-05
-8.89916e-20
2.99949e-05
3.19671e-20
2.99949e-05
1.09064e-19
2.99949e-05
-1.79654e-19
2.99949e-05
2.07705e-19
2.99949e-05
4.82925e-20
2.99949e-05
8.99875e-20
2.99949e-05
-2.93027e-19
2.99949e-05
4.96577e-20
2.99949e-05
1.3499e-19
2.99949e-05
2.98774e-20
2.99949e-05
-6.2914e-20
2.99949e-05
-1.67473e-19
2.99949e-05
2.7018e-19
2.99949e-05
-3.15809e-19
2.99949e-05
5.42523e-20
2.99949e-05
2.92699e-20
2.99949e-05
-9.1654e-20
2.99949e-05
2.98007e-19
2.99949e-05
-2.5139e-19
2.99949e-05
-2.54574e-19
2.99949e-05
1.70648e-19
2.99949e-05
1.84793e-19
2.99949e-05
-3.11294e-19
2.99949e-05
4.96849e-21
2.99949e-05
-1.30097e-19
2.99949e-05
-1.30599e-19
2.99949e-05
-4.89409e-20
2.99949e-05
-7.08448e-19
-9.01352e-19
8.87849e-05
-1.71655e-18
8.87849e-05
-1.32302e-18
8.87849e-05
-6.75986e-19
8.87849e-05
-2.77465e-19
8.87849e-05
-1.17502e-19
8.87849e-05
-7.68908e-20
8.87849e-05
-6.27257e-20
8.87849e-05
-3.93185e-20
8.87849e-05
-4.9223e-20
8.87849e-05
-8.26212e-20
8.87849e-05
-9.74054e-20
8.87849e-05
-9.61632e-20
8.87849e-05
-7.35007e-20
8.87849e-05
-6.44639e-20
8.87849e-05
-4.35133e-20
8.87849e-05
-5.09696e-20
8.87849e-05
-1.00957e-19
8.87849e-05
-5.27934e-20
8.87849e-05
-2.01012e-20
8.87849e-05
-1.10172e-20
8.87849e-05
-1.15475e-20
8.87849e-05
3.44881e-20
8.87849e-05
6.68056e-20
8.87849e-05
-2.09937e-20
8.87849e-05
-3.12285e-20
8.87849e-05
-7.60779e-20
8.87849e-05
-4.36843e-21
8.87849e-05
7.03183e-20
8.87849e-05
-5.54367e-20
8.87849e-05
-3.29713e-20
8.87849e-05
-1.18149e-21
8.87849e-05
-4.71459e-20
8.87849e-05
-5.25274e-20
8.87849e-05
-7.92993e-20
8.87849e-05
-6.42118e-20
8.87849e-05
-1.33877e-20
8.87849e-05
-1.50534e-19
8.87849e-05
-9.9019e-20
8.87849e-05
-3.82786e-21
8.87849e-05
-8.16147e-20
8.87849e-05
-5.80554e-21
8.87849e-05
-4.15122e-20
8.87849e-05
-3.73291e-20
8.87849e-05
3.8614e-20
8.87849e-05
6.2646e-20
8.87849e-05
1.05859e-19
8.87849e-05
7.60406e-20
8.87849e-05
-9.57422e-20
8.87849e-05
-4.80411e-20
8.87849e-05
9.31041e-20
8.87849e-05
9.51568e-20
8.87849e-05
1.50919e-20
8.87849e-05
-7.79451e-20
8.87849e-05
-1.71562e-20
8.87849e-05
9.28207e-20
8.87849e-05
-3.34283e-20
8.87849e-05
5.57019e-20
8.87849e-05
-7.47934e-20
8.87849e-05
-1.41884e-19
8.87849e-05
-4.46754e-21
8.87849e-05
-5.10209e-21
8.87849e-05
1.86639e-20
8.87849e-05
-4.08778e-20
8.87849e-05
4.7374e-21
8.87849e-05
1.3937e-20
8.87849e-05
1.2474e-22
8.87849e-05
-1.37683e-19
8.87849e-05
-9.53401e-20
8.87849e-05
9.17123e-20
8.87849e-05
-6.75366e-21
8.87849e-05
-3.61945e-20
8.87849e-05
2.67891e-20
8.87849e-05
1.51664e-19
8.87849e-05
-1.69962e-20
8.87849e-05
-1.21567e-19
8.87849e-05
2.34989e-19
8.87849e-05
1.55899e-19
8.87849e-05
-1.07174e-19
8.87849e-05
-8.9886e-20
8.87849e-05
5.80996e-20
8.87849e-05
2.9069e-20
8.87849e-05
-7.71978e-20
8.87849e-05
-1.10584e-20
8.87849e-05
-9.94591e-21
8.87849e-05
-7.10554e-20
8.87849e-05
6.95915e-20
8.87849e-05
-3.22585e-20
8.87849e-05
7.48247e-21
8.87849e-05
6.29856e-21
8.87849e-05
3.07181e-21
8.87849e-05
7.24198e-20
8.87849e-05
3.5739e-20
8.87849e-05
4.83781e-20
8.87849e-05
1.42077e-20
8.87849e-05
-1.87823e-20
8.87849e-05
-1.94512e-19
8.87849e-05
-2.60262e-20
8.87849e-05
2.09198e-19
8.87849e-05
-1.14842e-19
8.87849e-05
-1.34488e-19
8.87849e-05
1.85463e-19
8.87849e-05
1.40859e-19
8.87849e-05
-3.9029e-20
8.87849e-05
-1.04546e-19
8.87849e-05
6.44279e-20
8.87849e-05
6.01156e-20
8.87849e-05
-1.17287e-20
8.87849e-05
-3.46916e-20
8.87849e-05
9.73525e-20
8.87849e-05
1.47736e-19
8.87849e-05
-1.06192e-19
8.87849e-05
-1.61706e-19
8.87849e-05
-3.97179e-20
8.87849e-05
2.41628e-19
8.87849e-05
1.17851e-19
8.87849e-05
-2.18311e-19
8.87849e-05
-1.49958e-19
8.87849e-05
1.52538e-19
8.87849e-05
1.75448e-19
8.87849e-05
2.18915e-20
8.87849e-05
-3.89181e-20
8.87849e-05
7.71216e-20
8.87849e-05
1.339e-19
8.87849e-05
-6.08391e-20
8.87849e-05
-1.12177e-19
8.87849e-05
1.36181e-19
8.87849e-05
5.95426e-20
8.87849e-05
-4.86726e-20
8.87849e-05
9.47364e-20
8.87849e-05
6.25866e-20
8.87849e-05
9.06789e-20
8.87849e-05
8.27433e-21
8.87849e-05
1.56744e-19
8.87849e-05
-1.18409e-19
8.87849e-05
-1.50001e-19
8.87849e-05
8.79519e-20
8.87849e-05
-7.48478e-20
8.87849e-05
-1.08225e-19
8.87849e-05
1.85623e-19
8.87849e-05
1.19283e-19
8.87849e-05
-2.96198e-19
8.87849e-05
-2.3542e-19
8.87849e-05
2.70218e-19
8.87849e-05
3.2002e-19
8.87849e-05
-2.46647e-19
8.87849e-05
-3.8906e-20
8.87849e-05
4.18622e-19
8.87849e-05
-6.05394e-20
8.87849e-05
-2.60376e-19
8.87849e-05
1.53136e-19
8.87849e-05
-1.23838e-19
8.87849e-05
3.00944e-20
8.87849e-05
1.90572e-19
8.87849e-05
-3.64292e-19
8.87849e-05
-9.20668e-20
8.87849e-05
1.29675e-19
8.87849e-05
-1.69984e-19
8.87849e-05
-2.51167e-20
8.87849e-05
2.19977e-20
8.87849e-05
3.40024e-19
8.87849e-05
1.22807e-19
8.87849e-05
-1.33072e-19
8.87849e-05
-6.37459e-20
8.87849e-05
-4.94201e-20
8.87849e-05
-5.74787e-20
8.87849e-05
1.40268e-20
8.87849e-05
1.20134e-19
8.87849e-05
-2.31027e-19
8.87849e-05
2.59985e-19
8.87849e-05
2.70693e-19
8.87849e-05
-1.85309e-19
8.87849e-05
8.20207e-20
8.87849e-05
2.3352e-19
8.87849e-05
-9.77522e-20
8.87849e-05
-2.32321e-19
8.87849e-05
7.21766e-20
8.87849e-05
2.80706e-19
8.87849e-05
-1.0346e-19
8.87849e-05
-1.6184e-19
8.87849e-05
2.88855e-19
8.87849e-05
-9.47549e-21
8.87849e-05
-1.89587e-19
8.87849e-05
1.28113e-20
8.87849e-05
-7.07865e-20
8.87849e-05
1.68727e-19
8.87849e-05
-7.03747e-20
8.87849e-05
-2.80232e-19
8.87849e-05
-1.09386e-19
8.87849e-05
2.02015e-20
8.87849e-05
-6.91476e-20
8.87849e-05
-2.1797e-19
8.87849e-05
-1.21496e-19
8.87849e-05
3.29807e-20
8.87849e-05
3.95102e-19
8.87849e-05
7.31619e-20
8.87849e-05
-3.9077e-20
8.87849e-05
2.46784e-19
8.87849e-05
-1.24922e-19
8.87849e-05
-4.51721e-19
8.87849e-05
-1.61573e-19
8.87849e-05
3.85574e-20
8.87849e-05
-2.95919e-19
8.87849e-05
3.10316e-19
8.87849e-05
8.68872e-20
8.87849e-05
1.55371e-19
8.87849e-05
2.65269e-19
8.87849e-05
-4.59795e-19
8.87849e-05
-3.65848e-19
8.87849e-05
2.37738e-20
8.87849e-05
7.14846e-20
8.87849e-05
5.07843e-20
8.87849e-05
6.83393e-20
8.87849e-05
-1.51821e-19
8.87849e-05
9.16886e-20
8.87849e-05
-2.2674e-19
8.87849e-05
2.83066e-20
8.87849e-05
-1.82251e-19
8.87849e-05
-1.13674e-19
8.87849e-05
3.90724e-19
8.87849e-05
2.34665e-19
8.87849e-05
-8.67384e-20
8.87849e-05
-1.14788e-19
8.87849e-05
1.12489e-19
8.87849e-05
-1.33768e-19
8.87849e-05
6.97513e-20
8.87849e-05
3.69744e-20
8.87849e-05
6.46347e-21
8.87849e-05
1.83178e-19
8.87849e-05
2.97482e-19
8.87849e-05
-8.3667e-20
8.87849e-05
-8.10304e-20
8.87849e-05
-2.81078e-19
8.87849e-05
-1.99604e-19
8.87849e-05
9.86926e-20
8.87849e-05
-1.46789e-19
8.87849e-05
1.57712e-19
8.87849e-05
1.43311e-19
8.87849e-05
-2.18148e-20
8.87849e-05
-7.65371e-20
8.87849e-05
-2.17368e-20
8.87849e-05
-3.11274e-20
8.87849e-05
-1.71997e-19
8.87849e-05
1.9756e-20
8.87849e-05
4.26121e-19
8.87849e-05
-1.17852e-20
8.87849e-05
-1.07375e-19
8.87849e-05
1.12326e-19
8.87849e-05
-2.11887e-19
8.87849e-05
-4.1785e-20
8.87849e-05
7.91729e-20
8.87849e-05
-1.21084e-19
8.87849e-05
-2.64147e-20
8.87849e-05
3.13903e-19
8.87849e-05
-1.05785e-20
8.87849e-05
-1.65333e-19
8.87849e-05
1.35393e-19
8.87849e-05
-4.31482e-20
8.87849e-05
-1.87295e-19
8.87849e-05
4.03525e-21
8.87849e-05
-2.86788e-19
8.87849e-05
1.54414e-19
8.87849e-05
5.07071e-19
8.87849e-05
-2.12341e-19
8.87849e-05
6.6332e-20
8.87849e-05
-4.62888e-19
8.87849e-05
-3.68738e-19
8.87849e-05
6.8416e-19
8.87849e-05
-3.45821e-19
8.87849e-05
-2.15128e-19
8.87849e-05
8.92242e-19
8.87849e-05
-3.31437e-19
8.87849e-05
-3.56136e-19
8.87849e-05
1.47243e-19
8.87849e-05
-3.06297e-19
8.87849e-05
1.12332e-19
8.87849e-05
-9.99273e-20
8.87849e-05
-1.34659e-19
8.87849e-05
2.41644e-19
8.87849e-05
2.36824e-19
8.87849e-05
-9.16321e-20
8.87849e-05
-2.43945e-19
8.87849e-05
-3.80162e-19
8.87849e-05
1.91542e-19
8.87849e-05
5.50774e-19
8.87849e-05
-4.63575e-19
8.87849e-05
4.665e-19
8.87849e-05
1.98833e-19
8.87849e-05
-6.02083e-19
8.87849e-05
4.42391e-19
8.87849e-05
1.26678e-19
8.87849e-05
-6.31474e-19
8.87849e-05
1.69362e-19
8.87849e-05
1.37054e-19
8.87849e-05
-2.95523e-19
8.87849e-05
7.43947e-19
8.87849e-05
7.78037e-20
8.87849e-05
-6.86218e-19
8.87849e-05
1.15123e-19
8.87849e-05
-1.40127e-19
8.87849e-05
-3.58057e-19
8.87849e-05
4.62384e-19
8.87849e-05
-9.83695e-20
8.87849e-05
-1.97135e-19
8.87849e-05
8.20729e-19
8.87849e-05
-2.67135e-19
8.87849e-05
-6.56353e-19
8.87849e-05
2.92927e-19
8.87849e-05
-2.30376e-19
8.87849e-05
-2.89851e-19
8.87849e-05
5.09837e-19
8.87849e-05
2.6297e-19
8.87849e-05
-4.40159e-19
8.87849e-05
1.84365e-19
8.87849e-05
1.94452e-19
8.87849e-05
-2.76704e-19
8.87849e-05
-1.69218e-20
8.87849e-05
-1.98972e-19
8.87849e-05
-1.24474e-19
8.87849e-05
-4.23312e-20
8.87849e-05
3.81581e-19
8.87849e-05
4.0217e-19
8.87849e-05
-1.81953e-19
8.87849e-05
-3.21731e-19
8.87849e-05
5.37284e-21
8.87849e-05
3.58155e-19
8.87849e-05
-1.91434e-19
8.87849e-05
-1.87156e-19
8.87849e-05
-6.29024e-20
8.87849e-05
4.18819e-19
8.87849e-05
3.81637e-19
8.87849e-05
-6.19601e-19
8.87849e-05
-7.32382e-20
8.87849e-05
2.98941e-19
8.87849e-05
-3.86042e-19
8.87849e-05
2.64804e-19
8.87849e-05
4.88052e-19
8.87849e-05
-4.49064e-19
8.87849e-05
4.3243e-19
8.87849e-05
2.25832e-19
8.87849e-05
-5.65813e-19
8.87849e-05
-3.8884e-20
8.87849e-05
-2.47743e-19
8.87849e-05
-7.49794e-20
8.87849e-05
1.85649e-19
8.87849e-05
2.90804e-19
8.87849e-05
1.66343e-19
8.87849e-05
-1.37257e-19
8.87849e-05
-4.7368e-19
8.87849e-05
-3.33928e-20
8.87849e-05
2.96846e-19
8.87849e-05
-3.68912e-19
8.87849e-05
-2.42886e-19
8.87849e-05
2.02686e-19
8.87849e-05
3.70235e-19
8.87849e-05
1.95248e-19
8.87849e-05
-1.80205e-19
8.87849e-05
-4.94914e-19
8.87849e-05
-1.40612e-19
8.87849e-05
2.16565e-19
8.87849e-05
-7.86292e-21
8.87849e-05
4.71256e-19
8.87849e-05
-4.23486e-19
8.87849e-05
1.06925e-20
8.87849e-05
7.39372e-19
8.87849e-05
-4.58839e-19
8.87849e-05
-2.01879e-19
8.87849e-05
-7.29128e-21
8.87849e-05
-7.54374e-20
8.87849e-05
-9.14369e-20
8.87849e-05
6.78819e-19
8.87849e-05
1.20344e-19
8.87849e-05
-4.32905e-19
8.87849e-05
-5.66804e-20
8.87849e-05
-6.22074e-20
8.87849e-05
1.77092e-19
8.87849e-05
-2.13963e-19
8.87849e-05
1.19986e-19
8.87849e-05
-1.25528e-19
8.87849e-05
4.9358e-19
8.87849e-05
-1.53053e-21
8.87849e-05
-3.94475e-19
8.87849e-05
-1.06811e-19
8.87849e-05
1.52581e-19
8.87849e-05
9.74421e-20
8.87849e-05
-1.91931e-19
8.87849e-05
8.0638e-19
8.87849e-05
-3.5506e-19
8.87849e-05
-9.81922e-20
8.87849e-05
4.06001e-19
8.87849e-05
-1.30586e-19
8.87849e-05
-4.42597e-19
8.87849e-05
1.07824e-19
8.87849e-05
-3.18094e-21
8.87849e-05
-4.52928e-19
8.87849e-05
8.81156e-19
8.87849e-05
3.95503e-19
8.87849e-05
-6.5411e-19
8.87849e-05
-2.76756e-19
8.87849e-05
-1.91208e-19
8.87849e-05
-1.97801e-19
8.87849e-05
3.10041e-19
8.87849e-05
7.73144e-19
8.87849e-05
-5.92812e-19
8.87849e-05
-3.04668e-19
8.87849e-05
-2.94284e-19
8.87849e-05
5.44509e-19
8.87849e-05
7.81456e-19
8.87849e-05
-1.11134e-18
8.87849e-05
-3.75513e-19
8.87849e-05
6.98319e-19
8.87849e-05
9.13694e-19
8.87849e-05
-8.14761e-19
8.87849e-05
1.62167e-20
8.87849e-05
2.68584e-19
8.87849e-05
-1.99904e-19
8.87849e-05
-5.28236e-20
8.87849e-05
-6.09707e-19
8.87849e-05
2.34059e-19
8.87849e-05
5.68607e-19
8.87849e-05
2.74404e-19
8.87849e-05
-7.6918e-19
8.87849e-05
-2.37998e-19
8.87849e-05
9.56747e-19
8.87849e-05
-5.27111e-20
8.87849e-05
-3.75259e-19
8.87849e-05
-7.64755e-20
8.87849e-05
3.54268e-19
8.87849e-05
1.16212e-19
8.87849e-05
9.08944e-20
8.87849e-05
-4.70816e-19
8.87849e-05
-3.32356e-19
8.87849e-05
1.02254e-18
8.87849e-05
1.30158e-19
8.87849e-05
-1.09175e-18
8.87849e-05
-1.83772e-19
8.87849e-05
1.48431e-18
8.87849e-05
-9.0918e-20
8.87849e-05
-2.00826e-19
8.87849e-05
-1.36857e-19
8.87849e-05
-4.74581e-19
8.87849e-05
6.72141e-19
8.87849e-05
-3.82841e-19
8.87849e-05
-2.60845e-19
8.87849e-05
-6.31705e-20
8.87849e-05
4.15968e-19
8.87849e-05
1.23666e-19
8.87849e-05
-3.00334e-19
8.87849e-05
1.101e-19
8.87849e-05
-2.62264e-19
8.87849e-05
5.03799e-19
8.87849e-05
-1.30367e-19
8.87849e-05
-3.3996e-21
8.87849e-05
-3.61117e-20
8.87849e-05
3.03318e-19
8.87849e-05
-1.76846e-19
8.87849e-05
-3.05003e-19
8.87849e-05
3.2089e-19
8.87849e-05
1.69884e-19
8.87849e-05
3.37944e-19
8.87849e-05
-1.06434e-18
8.87849e-05
4.65591e-19
8.87849e-05
7.17488e-19
8.87849e-05
9.56311e-20
8.87849e-05
-1.36239e-19
8.87849e-05
-8.12477e-19
8.87849e-05
3.83235e-19
8.87849e-05
1.75305e-19
8.87849e-05
-9.83431e-20
8.87849e-05
-1.68096e-19
8.87849e-05
9.37755e-20
8.87849e-05
-1.95607e-19
8.87849e-05
7.50675e-20
8.87849e-05
2.26938e-19
8.87849e-05
-2.31129e-19
8.87849e-05
4.10947e-19
8.87849e-05
2.40487e-19
8.87849e-05
2.30244e-20
8.87849e-05
-6.01699e-19
8.87849e-05
3.10825e-19
8.87849e-05
1.93155e-19
8.87849e-05
-1.20355e-19
8.87849e-05
2.18652e-20
8.87849e-05
-2.36432e-19
8.87849e-05
2.67914e-19
8.87849e-05
-6.2622e-19
8.87849e-05
1.23636e-19
8.87849e-05
7.30223e-20
8.87849e-05
-1.1266e-20
8.87849e-05
4.05794e-19
8.87849e-05
-6.49654e-19
8.87849e-05
-3.22213e-19
8.87849e-05
5.01903e-19
8.87849e-05
1.71103e-19
8.87849e-05
-6.28091e-19
8.87849e-05
-6.33775e-21
8.87849e-05
-1.82541e-19
8.87849e-05
-1.60371e-19
8.87849e-05
-6.63917e-20
8.87849e-05
-9.79941e-19
-1.27814e-18
0.000146375
-9.22211e-19
0.000146375
-1.34228e-18
0.000146375
-7.88183e-19
0.000146375
-2.88259e-19
0.000146375
-9.09824e-20
0.000146375
-1.04837e-19
0.000146375
-7.08375e-20
0.000146375
1.11046e-20
0.000146375
-7.37963e-20
0.000146375
-1.7699e-19
0.000146375
-1.91265e-19
0.000146375
-1.93307e-19
0.000146375
-1.93715e-19
0.000146375
-1.06948e-19
0.000146375
-6.80897e-20
0.000146375
-9.62687e-20
0.000146375
-9.75974e-20
0.000146375
-1.43105e-19
0.000146375
-7.15391e-21
0.000146375
4.52364e-20
0.000146375
-6.23216e-20
0.000146375
2.61439e-20
0.000146375
1.27198e-19
0.000146375
-9.51072e-21
0.000146375
-6.10245e-20
0.000146375
-9.97099e-20
0.000146375
-1.87297e-20
0.000146375
1.11271e-19
0.000146375
-5.63047e-20
0.000146375
-1.20317e-19
0.000146375
-4.63304e-20
0.000146375
-7.55842e-20
0.000146375
-1.01093e-19
0.000146375
-1.22052e-19
0.000146375
-1.75299e-19
0.000146375
-9.08254e-20
0.000146375
-2.76538e-19
0.000146375
-1.48528e-19
0.000146375
-5.19171e-20
0.000146375
-1.27459e-19
0.000146375
-4.22986e-20
0.000146375
-1.04891e-19
0.000146375
-8.10494e-20
0.000146375
4.75872e-20
0.000146375
1.48752e-19
0.000146375
1.64869e-19
0.000146375
1.02396e-19
0.000146375
-9.39746e-20
0.000146375
-4.40921e-23
0.000146375
1.43707e-19
0.000146375
1.36571e-19
0.000146375
3.4113e-20
0.000146375
-8.64753e-20
0.000146375
-8.22097e-21
0.000146375
1.07759e-19
0.000146375
-1.11001e-20
0.000146375
3.88366e-20
0.000146375
-1.62401e-19
0.000146375
-1.85315e-19
0.000146375
-3.0221e-20
0.000146375
-3.60342e-20
0.000146375
3.54262e-22
0.000146375
-5.40842e-20
0.000146375
-1.89513e-20
0.000146375
3.04022e-20
0.000146375
-2.83234e-21
0.000146375
-1.98897e-19
0.000146375
-1.44644e-19
0.000146375
1.34388e-19
0.000146375
5.44634e-20
0.000146375
6.0915e-21
0.000146375
1.96815e-20
0.000146375
2.18579e-19
0.000146375
2.54964e-20
0.000146375
-1.99959e-19
0.000146375
3.41451e-19
0.000146375
3.01688e-19
0.000146375
-6.4517e-20
0.000146375
-1.64656e-19
0.000146375
5.30214e-20
0.000146375
4.68777e-20
0.000146375
-9.99576e-20
0.000146375
-9.05317e-20
0.000146375
-1.2215e-20
0.000146375
-8.78898e-20
0.000146375
4.33033e-20
0.000146375
-4.93781e-20
0.000146375
4.96743e-20
0.000146375
8.00263e-21
0.000146375
7.21266e-21
0.000146375
1.44003e-19
0.000146375
2.56498e-20
0.000146375
1.16158e-19
0.000146375
8.18901e-20
0.000146375
-5.86987e-20
0.000146375
-2.58457e-19
0.000146375
-5.6989e-20
0.000146375
2.6051e-19
0.000146375
-1.63079e-19
0.000146375
-1.9743e-19
0.000146375
2.78271e-19
0.000146375
2.42739e-19
0.000146375
6.32836e-21
0.000146375
-2.12116e-19
0.000146375
8.34756e-20
0.000146375
1.85633e-19
0.000146375
-2.86175e-20
0.000146375
-7.67523e-20
0.000146375
2.48136e-19
0.000146375
1.48498e-19
0.000146375
-1.77658e-19
0.000146375
-1.98204e-19
0.000146375
-5.35708e-20
0.000146375
3.19773e-19
0.000146375
2.3731e-19
0.000146375
-2.7956e-19
0.000146375
-2.41847e-19
0.000146375
1.89328e-19
0.000146375
2.40269e-19
0.000146375
1.29692e-19
0.000146375
1.03292e-21
0.000146375
1.06352e-19
0.000146375
1.72044e-19
0.000146375
-7.4599e-20
0.000146375
-8.12022e-20
0.000146375
1.6073e-19
0.000146375
6.6791e-20
0.000146375
3.0932e-20
0.000146375
1.232e-19
0.000146375
1.59931e-19
0.000146375
2.03168e-19
0.000146375
-7.61514e-21
0.000146375
1.1552e-19
0.000146375
-1.22308e-19
0.000146375
-1.68841e-19
0.000146375
1.29043e-19
0.000146375
-2.0005e-19
0.000146375
-1.4032e-19
0.000146375
3.1931e-19
0.000146375
1.10909e-19
0.000146375
-3.7162e-19
0.000146375
-3.33088e-19
0.000146375
4.4121e-19
0.000146375
5.29863e-19
0.000146375
-3.76357e-19
0.000146375
-5.84767e-20
0.000146375
6.45735e-19
0.000146375
-1.25869e-19
0.000146375
-3.71207e-19
0.000146375
1.04692e-19
0.000146375
-1.75633e-19
0.000146375
1.34264e-19
0.000146375
1.49797e-19
0.000146375
-5.08756e-19
0.000146375
-9.315e-20
0.000146375
1.12576e-19
0.000146375
-2.24383e-19
0.000146375
-5.26763e-20
0.000146375
3.58528e-20
0.000146375
5.51637e-19
0.000146375
2.72053e-19
0.000146375
-1.36861e-19
0.000146375
-1.59621e-19
0.000146375
-1.29888e-19
0.000146375
-5.38357e-20
0.000146375
6.53201e-20
0.000146375
1.29375e-19
0.000146375
-1.97431e-19
0.000146375
3.87522e-19
0.000146375
4.05737e-19
0.000146375
-2.02182e-19
0.000146375
5.54115e-20
0.000146375
3.18353e-19
0.000146375
-1.32308e-19
0.000146375
-3.76821e-19
0.000146375
1.62381e-19
0.000146375
4.67631e-19
0.000146375
-1.77347e-19
0.000146375
-2.38156e-19
0.000146375
4.49641e-19
0.000146375
6.10548e-21
0.000146375
-3.3012e-19
0.000146375
-8.50174e-21
0.000146375
-1.31233e-19
0.000146375
1.29554e-19
0.000146375
-1.06756e-19
0.000146375
-3.97929e-19
0.000146375
-3.0626e-19
0.000146375
-1.70571e-21
0.000146375