/*--------------------------------*- C++ -*----------------------------------*\
| =========                 |                                                 |
| \\      /  F ield         | OpenFOAM: The Open Source CFD Toolbox           |
|  \\    /   O peration     | Version:  2112                                  |
|   \\  /    A nd           | Website:  www.openfoam.com                      |
|    \\/     M anipulation  |                                                 |
\*---------------------------------------------------------------------------*/
FoamFile
{
    version     2.0;
    format      ascii;
    arch        "LSB;label=32;scalar=64";
    class       volVectorField;
    location    "15";
    object      U;
}
// * * * * * * * * * * * * * * * * * * * * * * * * * * * * * * * * * * * * * //

dimensions      [0 1 -1 0 0 0 0];

internalField   nonuniform List<vector> 
50000
(
(0.0299949 -3.3421e-17 0)
(0.0299949 3.87793e-17 0)
(0.0299949 -4.01445e-17 0)
(0.0299949 -2.21804e-17 0)
(0.0299949 -1.37268e-17 0)
(0.0299949 -6.57074e-18 0)
(0.0299949 -3.57367e-18 0)
(0.0299949 -7.32139e-18 0)
(0.0299949 -6.89429e-18 0)
(0.0299949 3.70932e-19 0)
(0.0299949 -3.83673e-18 0)
(0.0299949 -6.81799e-18 0)
(0.0299949 -5.59049e-18 0)
(0.0299949 -1.90829e-18 0)
(0.0299949 5.23819e-19 0)
(0.0299949 -5.05649e-18 0)
(0.0299949 -9.10066e-18 0)
(0.0299949 -1.0958e-18 0)
(0.0299949 -1.84028e-18 0)
(0.0299949 -2.47978e-18 0)
(0.0299949 5.39075e-18 0)
(0.0299949 -1.12363e-20 0)
(0.0299949 2.9377e-18 0)
(0.0299949 -1.04054e-18 0)
(0.0299949 -3.84046e-18 0)
(0.0299949 -4.35402e-18 0)
(0.0299949 -1.4851e-18 0)
(0.0299949 1.26721e-17 0)
(0.0299949 -9.60882e-18 0)
(0.0299949 -1.28035e-18 0)
(0.0299949 5.861e-18 0)
(0.0299949 -1.41664e-17 0)
(0.0299949 -3.75641e-18 0)
(0.0299949 6.13904e-18 0)
(0.0299949 -5.6444e-18 0)
(0.0299949 5.18523e-18 0)
(0.0299949 -5.10597e-18 0)
(0.0299949 -4.74039e-18 0)
(0.0299949 2.39169e-18 0)
(0.0299949 -8.48186e-18 0)
(0.0299949 5.86016e-18 0)
(0.0299949 -5.5889e-18 0)
(0.0299949 9.6331e-18 0)
(0.0299949 4.84488e-18 0)
(0.0299949 -1.66037e-17 0)
(0.0299949 5.35344e-18 0)
(0.0299949 1.40699e-17 0)
(0.0299949 -1.1398e-17 0)
(0.0299949 -1.05867e-17 0)
(0.0299949 1.05687e-17 0)
(0.0299949 4.15651e-18 0)
(0.0299949 8.73579e-18 0)
(0.0299949 -1.41941e-17 0)
(0.0299949 -1.07262e-17 0)
(0.0299949 1.45495e-17 0)
(0.0299949 -3.14167e-18 0)
(0.0299949 1.52369e-17 0)
(0.0299949 -9.04497e-18 0)
(0.0299949 -1.87982e-17 0)
(0.0299949 1.20235e-17 0)
(0.0299949 7.40598e-18 0)
(0.0299949 -9.1787e-18 0)
(0.0299949 1.82051e-19 0)
(0.0299949 9.8015e-18 0)
(0.0299949 -1.97676e-17 0)
(0.0299949 4.51177e-19 0)
(0.0299949 5.465e-18 0)
(0.0299949 8.14379e-18 0)
(0.0299949 4.74935e-18 0)
(0.0299949 -1.24635e-17 0)
(0.0299949 -1.4008e-17 0)
(0.0299949 -2.43444e-18 0)
(0.0299949 2.76343e-17 0)
(0.0299949 -1.16153e-17 0)
(0.0299949 -1.82979e-17 0)
(0.0299949 3.1478e-17 0)
(0.0299949 5.92848e-18 0)
(0.0299949 -2.91273e-17 0)
(0.0299949 -3.95021e-18 0)
(0.0299949 1.63776e-17 0)
(0.0299949 2.96544e-18 0)
(0.0299949 -7.97495e-18 0)
(0.0299949 2.67637e-18 0)
(0.0299949 1.2396e-17 0)
(0.0299949 -2.56559e-17 0)
(0.0299949 1.27022e-17 0)
(0.0299949 1.94433e-17 0)
(0.0299949 -1.84649e-17 0)
(0.0299949 -3.04903e-18 0)
(0.0299949 -9.33302e-18 0)
(0.0299949 7.48426e-18 0)
(0.0299949 1.87042e-17 0)
(0.0299949 -9.87982e-18 0)
(0.0299949 5.98757e-19 0)
(0.0299949 1.11474e-17 0)
(0.0299949 -4.14713e-17 0)
(0.0299949 8.38152e-18 0)
(0.0299949 3.06242e-17 0)
(0.0299949 -1.76633e-17 0)
(0.0299949 -7.69039e-18 0)
(0.0299949 1.05974e-17 0)
(0.0299949 2.89798e-17 0)
(0.0299949 -2.57248e-17 0)
(0.0299949 -2.77052e-17 0)
(0.0299949 4.87298e-17 0)
(0.0299949 -1.47136e-17 0)
(0.0299949 -2.28486e-17 0)
(0.0299949 1.44176e-17 0)
(0.0299949 4.09e-18 0)
(0.0299949 2.72959e-17 0)
(0.0299949 -2.57907e-17 0)
(0.0299949 -2.68162e-17 0)
(0.0299949 1.84755e-17 0)
(0.0299949 7.82362e-18 0)
(0.0299949 2.22544e-17 0)
(0.0299949 -8.16424e-18 0)
(0.0299949 -4.50294e-17 0)
(0.0299949 5.92619e-18 0)
(0.0299949 2.51767e-17 0)
(0.0299949 -2.8645e-18 0)
(0.0299949 -4.97292e-18 0)
(0.0299949 1.60032e-18 0)
(0.0299949 2.57506e-17 0)
(0.0299949 -3.32143e-18 0)
(0.0299949 -4.6668e-17 0)
(0.0299949 2.91117e-17 0)
(0.0299949 2.42025e-17 0)
(0.0299949 -2.72805e-17 0)
(0.0299949 1.27379e-18 0)
(0.0299949 3.65069e-19 0)
(0.0299949 -1.8432e-17 0)
(0.0299949 2.06067e-18 0)
(0.0299949 2.97047e-17 0)
(0.0299949 -6.36635e-18 0)
(0.0299949 -1.08937e-17 0)
(0.0299949 5.51087e-18 0)
(0.0299949 1.62236e-17 0)
(0.0299949 -2.71965e-17 0)
(0.0299949 1.11036e-17 0)
(0.0299949 2.78472e-17 0)
(0.0299949 -3.69693e-17 0)
(0.0299949 -3.10396e-17 0)
(0.0299949 1.32491e-17 0)
(0.0299949 3.48633e-17 0)
(0.0299949 -2.02964e-17 0)
(0.0299949 -9.64193e-19 0)
(0.0299949 4.75422e-17 0)
(0.0299949 -2.97344e-17 0)
(0.0299949 -3.7366e-17 0)
(0.0299949 3.59059e-17 0)
(0.0299949 -8.03052e-18 0)
(0.0299949 3.97933e-18 0)
(0.0299949 3.49723e-17 0)
(0.0299949 -4.27478e-17 0)
(0.0299949 -2.99126e-18 0)
(0.0299949 2.86715e-17 0)
(0.0299949 -5.39554e-17 0)
(0.0299949 -1.85945e-17 0)
(0.0299949 4.0934e-17 0)
(0.0299949 5.7439e-17 0)
(0.0299949 -3.26526e-17 0)
(0.0299949 -8.71715e-18 0)
(0.0299949 -4.89161e-18 0)
(0.0299949 -5.9075e-20 0)
(0.0299949 -3.79752e-18 0)
(0.0299949 -3.42531e-18 0)
(0.0299949 8.03034e-18 0)
(0.0299949 -5.58384e-17 0)
(0.0299949 7.61078e-17 0)
(0.0299949 1.50606e-17 0)
(0.0299949 -7.9202e-17 0)
(0.0299949 6.82564e-17 0)
(0.0299949 3.32028e-17 0)
(0.0299949 -6.6833e-17 0)
(0.0299949 1.17589e-17 0)
(0.0299949 3.86459e-18 0)
(0.0299949 1.02204e-17 0)
(0.0299949 -7.01647e-18 0)
(0.0299949 -9.88418e-18 0)
(0.0299949 4.19438e-17 0)
(0.0299949 -4.10729e-17 0)
(0.0299949 -8.16201e-18 0)
(0.0299949 3.0687e-17 0)
(0.0299949 -2.43036e-17 0)
(0.0299949 4.68062e-17 0)
(0.0299949 -2.53387e-18 0)
(0.0299949 -5.51964e-17 0)
(0.0299949 3.88376e-17 0)
(0.0299949 4.03526e-18 0)
(0.0299949 -1.99646e-17 0)
(0.0299949 -9.47583e-18 0)
(0.0299949 -2.12056e-18 0)
(0.0299949 -4.08668e-17 0)
(0.0299949 4.03286e-17 0)
(0.0299949 4.05776e-17 0)
(0.0299949 -2.73749e-17 0)
(0.0299949 1.18491e-17 0)
(0.0299949 3.77953e-17 0)
(0.0299949 -5.9445e-17 0)
(0.0299949 -4.27183e-17 0)
(0.0299949 4.83945e-17 0)
(0.0299949 -2.49738e-17 0)
(0.0299949 1.70032e-17 0)
(0.0299949 1.22961e-18 0)
(0.0299949 4.55212e-17 0)
(0.0299949 -2.24366e-17 0)
(0.0299949 -6.49583e-17 0)
(0.0299949 2.58573e-17 0)
(0.0299949 4.90107e-18 0)
(0.0299949 4.71785e-18 0)
(0.0299949 4.44867e-17 0)
(0.0299949 -3.73489e-17 0)
(0.0299949 -5.3498e-17 0)
(0.0299949 9.45044e-17 0)
(0.0299949 -5.30248e-17 0)
(0.0299949 -3.47845e-17 0)
(0.0299949 2.98063e-17 0)
(0.0299949 -8.93347e-18 0)
(0.0299949 1.68145e-17 0)
(0.0299949 4.8166e-17 0)
(0.0299949 -7.67896e-18 0)
(0.0299949 -4.63684e-17 0)
(0.0299949 -2.81542e-17 0)
(0.0299949 -4.23241e-18 0)
(0.0299949 4.5024e-17 0)
(0.0299949 -4.67114e-17 0)
(0.0299949 3.90342e-17 0)
(0.0299949 3.92097e-17 0)
(0.0299949 -3.10504e-17 0)
(0.0299949 3.85468e-17 0)
(0.0299949 5.58849e-18 0)
(0.0299949 -9.13256e-17 0)
(0.0299949 3.46781e-17 0)
(0.0299949 6.16924e-18 0)
(0.0299949 -5.56564e-17 0)
(0.0299949 5.06718e-17 0)
(0.0299949 2.9052e-18 0)
(0.0299949 4.09559e-17 0)
(0.0299949 -4.3768e-17 0)
(0.0299949 -1.41925e-18 0)
(0.0299949 3.7951e-18 0)
(0.0299949 -4.95175e-17 0)
(0.0299949 3.6171e-17 0)
(0.0299949 6.36991e-17 0)
(0.0299949 -4.73847e-17 0)
(0.0299949 -4.22757e-18 0)
(0.0299949 4.99802e-17 0)
(0.0299949 -5.99767e-17 0)
(0.0299949 5.7048e-18 0)
(0.0299949 -2.91229e-17 0)
(0.0299949 -9.84371e-18 0)
(0.0299949 -5.73521e-18 0)
(0.0299949 9.78032e-17 0)
(0.0299949 -3.11925e-18 0)
(0.0299949 -4.62983e-17 0)
(0.0299949 4.95316e-17 0)
(0.0299949 -4.32878e-17 0)
(0.0299949 -4.73623e-17 0)
(0.0299949 5.00421e-17 0)
(0.0299949 -2.17315e-17 0)
(0.0299949 4.77585e-18 0)
(0.0299949 7.18078e-17 0)
(0.0299949 -9.90459e-17 0)
(0.0299949 5.26217e-17 0)
(0.0299949 -1.98334e-17 0)
(0.0299949 -2.7851e-17 0)
(0.0299949 4.87834e-17 0)
(0.0299949 -6.05117e-17 0)
(0.0299949 2.28382e-17 0)
(0.0299949 1.38751e-16 0)
(0.0299949 -1.10482e-16 0)
(0.0299949 -5.6498e-17 0)
(0.0299949 6.48001e-17 0)
(0.0299949 -6.07446e-17 0)
(0.0299949 8.74422e-17 0)
(0.0299949 -8.37064e-17 0)
(0.0299949 -1.29055e-17 0)
(0.0299949 8.30947e-17 0)
(0.0299949 1.1844e-17 0)
(0.0299949 -4.06998e-17 0)
(0.0299949 -4.26477e-18 0)
(0.0299949 -1.4516e-17 0)
(0.0299949 1.12228e-17 0)
(0.0299949 3.25657e-17 0)
(0.0299949 -8.35072e-17 0)
(0.0299949 1.06972e-16 0)
(0.0299949 -2.63947e-17 0)
(0.0299949 -8.60023e-17 0)
(0.0299949 7.25176e-17 0)
(0.0299949 5.16025e-17 0)
(0.0299949 -8.39697e-17 0)
(0.0299949 -2.79994e-17 0)
(0.0299949 5.62983e-17 0)
(0.0299949 -2.64094e-17 0)
(0.0299949 8.33875e-17 0)
(0.0299949 4.45658e-17 0)
(0.0299949 -1.62243e-16 0)
(0.0299949 1.76639e-17 0)
(0.0299949 3.97953e-17 0)
(0.0299949 -6.94478e-17 0)
(0.0299949 7.14396e-17 0)
(0.0299949 -4.14775e-17 0)
(0.0299949 1.98457e-17 0)
(0.0299949 1.29669e-16 0)
(0.0299949 -1.00003e-16 0)
(0.0299949 -7.78827e-17 0)
(0.0299949 1.12592e-16 0)
(0.0299949 -4.96176e-17 0)
(0.0299949 -6.22642e-17 0)
(0.0299949 7.05009e-17 0)
(0.0299949 5.73228e-17 0)
(0.0299949 -6.37804e-17 0)
(0.0299949 1.23013e-17 0)
(0.0299949 7.69271e-18 0)
(0.0299949 -6.05784e-17 0)
(0.0299949 8.52307e-17 0)
(0.0299949 -9.04042e-17 0)
(0.0299949 -2.13998e-18 0)
(0.0299949 7.8964e-17 0)
(0.0299949 1.57728e-17 0)
(0.0299949 1.48986e-17 0)
(0.0299949 -8.5599e-18 0)
(0.0299949 -9.07789e-17 0)
(0.0299949 -3.75708e-17 0)
(0.0299949 1.41087e-16 0)
(0.0299949 -1.00609e-16 0)
(0.0299949 -6.86445e-18 0)
(0.0299949 3.73968e-17 0)
(0.0299949 5.75466e-17 0)
(0.0299949 6.07402e-17 0)
(0.0299949 -1.6322e-16 0)
(0.0299949 3.31875e-18 0)
(0.0299949 1.04386e-16 0)
(0.0299949 -1.10218e-16 0)
(0.0299949 8.30333e-18 0)
(0.0299949 1.55654e-16 0)
(0.0299949 -1.59064e-16 0)
(0.0299949 6.53748e-17 0)
(0.0299949 9.83992e-17 0)
(0.0299949 -1.56282e-16 0)
(0.0299949 9.27253e-18 0)
(0.0299949 7.26129e-17 0)
(0.0299949 -8.47338e-17 0)
(0.0299949 6.59478e-18 0)
(0.0299949 1.30506e-16 0)
(0.0299949 -4.40271e-17 0)
(0.0299949 -3.66916e-17 0)
(0.0299949 -1.34514e-17 0)
(0.0299949 -4.38155e-17 0)
(0.0299949 1.92412e-17 0)
(0.0299949 6.31997e-17 0)
(0.0299949 -9.8168e-17 0)
(0.0299949 1.06694e-17 0)
(0.0299949 1.36937e-16 0)
(0.0299949 -3.94106e-17 0)
(0.0299949 -4.0309e-17 0)
(0.0299949 -5.66894e-17 0)
(0.0299949 -4.06411e-18 0)
(0.0299949 8.94078e-17 0)
(0.0299949 -9.25775e-17 0)
(0.0299949 8.15579e-17 0)
(0.0299949 1.47638e-17 0)
(0.0299949 -9.16075e-17 0)
(0.0299949 1.23919e-16 0)
(0.0299949 -6.94465e-17 0)
(0.0299949 -3.96324e-17 0)
(0.0299949 4.76504e-17 0)
(0.0299949 3.41882e-17 0)
(0.0299949 -9.68532e-17 0)
(0.0299949 6.69512e-17 0)
(0.0299949 8.05977e-17 0)
(0.0299949 -1.00307e-16 0)
(0.0299949 -3.31631e-17 0)
(0.0299949 -9.32798e-19 0)
(0.0299949 5.46166e-17 0)
(0.0299949 -1.77134e-17 0)
(0.0299949 5.30265e-17 0)
(0.0299949 -9.3133e-17 0)
(0.0299949 6.26028e-17 0)
(0.0299949 7.76873e-17 0)
(0.0299949 -1.001e-16 0)
(0.0299949 -4.26884e-17 0)
(0.0299949 5.29881e-17 0)
(0.0299949 6.73398e-18 0)
(0.0299949 -2.56121e-17 0)
(0.0299949 5.12749e-17 0)
(0.0299949 -1.10213e-16 0)
(0.0299949 1.15891e-16 0)
(0.0299949 2.26734e-17 0)
(0.0299949 -8.86538e-17 0)
(0.0299949 1.93532e-17 0)
(0.0299949 3.18016e-18 0)
(0.0299949 7.23657e-18 0)
(0.0299949 -2.69723e-17 0)
(0.0299949 4.27633e-17 0)
(0.0299949 9.80181e-17 0)
(0.0299949 -3.68226e-17 0)
(0.0299949 -1.66783e-16 0)
(0.0299949 3.55892e-18 0)
(0.0299949 7.45438e-17 0)
(0.0299949 2.276e-18 0)
(0.0299949 1.23376e-16 0)
(0.0299949 -1.15946e-16 0)
(0.0299949 -8.02367e-17 0)
(0.0299949 6.39807e-17 0)
(0.0299949 1.00663e-16 0)
(0.0299949 -3.88926e-17 0)
(0.0299949 -1.45068e-16 0)
(0.0299949 6.83876e-17 0)
(0.0299949 2.73109e-17 0)
(0.0299949 1.40832e-16 0)
(0.0299949 -1.30153e-16 0)
(0.0299949 -8.15712e-17 0)
(0.0299949 9.55783e-17 0)
(0.0299949 -1.54673e-17 0)
(0.0299949 7.43025e-18 0)
(0.0299949 -3.2408e-17 0)
(0.0299949 1.39686e-17 0)
(0.0299949 1.98223e-17 0)
(0.0299949 1.00202e-16 0)
(0.0299949 -1.17653e-16 0)
(0.0299949 -9.76422e-17 0)
(0.0299949 2.2024e-16 0)
(0.0299949 -9.49345e-17 0)
(0.0299949 -1.06131e-16 0)
(0.0299949 8.12008e-17 0)
(0.0299949 2.1501e-17 0)
(0.0299949 -2.74702e-18 0)
(0.0299949 9.23911e-17 0)
(0.0299949 -1.0366e-16 0)
(0.0299949 -1.16242e-16 0)
(0.0299949 2.21087e-16 0)
(0.0299949 -7.32955e-17 0)
(0.0299949 -1.38688e-16 0)
(0.0299949 6.84681e-17 0)
(0.0299949 1.6416e-16 0)
(0.0299949 -1.09252e-16 0)
(0.0299949 -6.33631e-18 0)
(0.0299949 8.04849e-18 0)
(0.0299949 -1.14238e-16 0)
(0.0299949 2.07006e-16 0)
(0.0299949 -1.10773e-16 0)
(0.0299949 -9.77192e-18 0)
(0.0299949 -8.75318e-17 0)
(0.0299949 1.07401e-16 0)
(0.0299949 8.32788e-17 0)
(0.0299949 -1.80132e-16 0)
(0.0299949 9.87835e-17 0)
(0.0299949 -1.67323e-17 0)
(0.0299949 2.79332e-17 0)
(0.0299949 -2.41372e-17 0)
(0.0299949 8.78289e-17 0)
(0.0299949 -1.69559e-16 0)
(0.0299949 1.01101e-16 0)
(0.0299949 7.19291e-17 0)
(0.0299949 -1.86974e-16 0)
(0.0299949 9.71811e-17 0)
(0.0299949 8.81193e-17 0)
(0.0299949 -5.20158e-17 0)
(0.0299949 -1.49378e-16 0)
(0.0299949 1.95086e-16 0)
(0.0299949 -1.32508e-16 0)
(0.0299949 7.54254e-17 0)
(0.0299949 1.67681e-16 0)
(0.0299949 -2.88531e-16 0)
(0.0299949 3.01204e-17 0)
(0.0299949 1.68427e-16 0)
(0.0299949 -1.43994e-17 0)
(0.0299949 -1.76351e-16 0)
(0.0299949 9.90728e-17 0)
(0.0299949 -9.90398e-18 0)
(0.0299949 -6.19493e-19 0)
(0.0299949 1.49944e-17 0)
(0.0299949 -1.00076e-16 0)
(0.0299949 1.04908e-16 0)
(0.0299949 6.09024e-18 0)
(0.0299949 8.46567e-17 0)
(0.0299949 -1.19676e-16 0)
(0.0299949 -5.80253e-17 0)
(0.0299949 8.83593e-17 0)
(0.0299949 6.45164e-17 0)
(0.0299949 -7.54758e-17 0)
(0.0299949 -8.86829e-17 0)
(0.0299949 1.8591e-16 0)
(0.0299949 -1.27149e-16 0)
(0.0299949 1.57818e-17 0)
(0.0299949 8.80133e-18 0)
(0.0299949 -9.22265e-17 0)
(0.0299949 1.87808e-16 0)
(0.0299949 -4.40815e-17 0)
(0.0299949 -1.78187e-16 0)
(0.0299949 3.62965e-17 0)
(0.0299949 1.73429e-16 0)
(0.0299949 -1.29114e-16 0)
(0.0299949 4.83851e-18 0)
(0.0299949 -1.48618e-17 0)
(0.0299949 -2.3855e-17 0)
(0.0299949 7.23499e-17 0)
(0.0299949 -1.37858e-16 0)
(0.0299949 4.2971e-17 0)
(0.0887849 -1.44162e-15 0)
(0.0887849 -4.96468e-16 0)
(0.0887849 -3.12106e-16 0)
(0.0887849 -1.27757e-16 0)
(0.0887849 -6.45956e-17 0)
(0.0887849 -4.00241e-17 0)
(0.0887849 -2.70666e-17 0)
(0.0887849 -2.10917e-17 0)
(0.0887849 -2.40915e-17 0)
(0.0887849 -2.5167e-17 0)
(0.0887849 -3.26998e-17 0)
(0.0887849 -3.55595e-17 0)
(0.0887849 -2.0967e-17 0)
(0.0887849 -1.88328e-17 0)
(0.0887849 -1.40351e-17 0)
(0.0887849 -2.15162e-17 0)
(0.0887849 -3.72547e-17 0)
(0.0887849 -1.45556e-17 0)
(0.0887849 -1.01458e-17 0)
(0.0887849 5.23436e-19 0)
(0.0887849 -5.896e-18 0)
(0.0887849 3.02086e-18 0)
(0.0887849 2.73679e-17 0)
(0.0887849 -5.63162e-18 0)
(0.0887849 -1.74161e-17 0)
(0.0887849 -2.42672e-17 0)
(0.0887849 4.21354e-18 0)
(0.0887849 2.3425e-17 0)
(0.0887849 -2.49917e-17 0)
(0.0887849 -6.4526e-18 0)
(0.0887849 2.34564e-18 0)
(0.0887849 -2.36233e-17 0)
(0.0887849 -1.68068e-17 0)
(0.0887849 -7.52131e-18 0)
(0.0887849 -2.59263e-17 0)
(0.0887849 -4.87273e-18 0)
(0.0887849 -3.52945e-17 0)
(0.0887849 -3.07115e-17 0)
(0.0887849 -2.48468e-18 0)
(0.0887849 -2.32914e-17 0)
(0.0887849 1.34194e-17 0)
(0.0887849 -2.4895e-17 0)
(0.0887849 -1.0905e-17 0)
(0.0887849 2.07268e-17 0)
(0.0887849 2.77046e-18 0)
(0.0887849 4.11223e-17 0)
(0.0887849 2.52517e-17 0)
(0.0887849 -3.97357e-17 0)
(0.0887849 -1.91062e-17 0)
(0.0887849 2.85695e-17 0)
(0.0887849 3.01577e-17 0)
(0.0887849 1.72526e-17 0)
(0.0887849 -3.18466e-17 0)
(0.0887849 -1.39306e-17 0)
(0.0887849 4.54993e-17 0)
(0.0887849 -1.83022e-17 0)
(0.0887849 1.55044e-17 0)
(0.0887849 -1.264e-17 0)
(0.0887849 -5.22827e-17 0)
(0.0887849 7.03505e-18 0)
(0.0887849 4.21775e-18 0)
(0.0887849 -8.40611e-18 0)
(0.0887849 -7.87673e-18 0)
(0.0887849 7.22969e-18 0)
(0.0887849 -1.53703e-17 0)
(0.0887849 1.91233e-17 0)
(0.0887849 -4.91074e-17 0)
(0.0887849 -3.50588e-17 0)
(0.0887849 5.82948e-17 0)
(0.0887849 -2.0837e-17 0)
(0.0887849 -3.58201e-17 0)
(0.0887849 1.45371e-17 0)
(0.0887849 5.88917e-17 0)
(0.0887849 -1.16798e-17 0)
(0.0887849 -4.15627e-17 0)
(0.0887849 9.13032e-17 0)
(0.0887849 3.30668e-17 0)
(0.0887849 -6.07641e-17 0)
(0.0887849 -1.54528e-17 0)
(0.0887849 4.19975e-17 0)
(0.0887849 -2.40734e-18 0)
(0.0887849 -3.73628e-17 0)
(0.0887849 2.48577e-17 0)
(0.0887849 -1.05159e-17 0)
(0.0887849 -6.06763e-17 0)
(0.0887849 5.77861e-17 0)
(0.0887849 3.49006e-18 0)
(0.0887849 -2.91719e-17 0)
(0.0887849 7.40396e-18 0)
(0.0887849 9.67527e-18 0)
(0.0887849 1.63241e-17 0)
(0.0887849 1.47059e-17 0)
(0.0887849 2.08322e-17 0)
(0.0887849 -8.38702e-18 0)
(0.0887849 -6.0809e-18 0)
(0.0887849 -6.85886e-17 0)
(0.0887849 -4.05095e-19 0)
(0.0887849 7.04021e-17 0)
(0.0887849 -4.15918e-17 0)
(0.0887849 -3.7096e-17 0)
(0.0887849 4.87746e-17 0)
(0.0887849 4.12335e-17 0)
(0.0887849 -9.35413e-18 0)
(0.0887849 -7.21358e-18 0)
(0.0887849 2.24643e-17 0)
(0.0887849 -1.79092e-17 0)
(0.0887849 -3.67761e-18 0)
(0.0887849 8.57593e-18 0)
(0.0887849 2.23789e-17 0)
(0.0887849 5.66133e-17 0)
(0.0887849 -2.65923e-17 0)
(0.0887849 -8.78531e-17 0)
(0.0887849 -1.07973e-17 0)
(0.0887849 1.02298e-16 0)
(0.0887849 2.56522e-17 0)
(0.0887849 -7.02293e-17 0)
(0.0887849 -5.63617e-17 0)
(0.0887849 3.78863e-17 0)
(0.0887849 6.75555e-17 0)
(0.0887849 5.60842e-18 0)
(0.0887849 -1.0735e-17 0)
(0.0887849 1.78316e-17 0)
(0.0887849 4.77555e-17 0)
(0.0887849 -1.61647e-17 0)
(0.0887849 -6.52813e-17 0)
(0.0887849 5.82804e-17 0)
(0.0887849 4.24189e-17 0)
(0.0887849 -3.81651e-17 0)
(0.0887849 1.81222e-17 0)
(0.0887849 2.09426e-17 0)
(0.0887849 8.21458e-18 0)
(0.0887849 9.03627e-18 0)
(0.0887849 1.04563e-16 0)
(0.0887849 -7.58512e-17 0)
(0.0887849 -8.98852e-17 0)
(0.0887849 5.92279e-17 0)
(0.0887849 -2.19142e-19 0)
(0.0887849 -4.54537e-17 0)
(0.0887849 7.775e-17 0)
(0.0887849 2.5679e-17 0)
(0.0887849 -1.26324e-16 0)
(0.0887849 -6.199e-17 0)
(0.0887849 7.83593e-17 0)
(0.0887849 1.03293e-16 0)
(0.0887849 -7.29411e-17 0)
(0.0887849 -6.48714e-18 0)
(0.0887849 1.40039e-16 0)
(0.0887849 -3.94044e-17 0)
(0.0887849 -8.65098e-17 0)
(0.0887849 1.055e-16 0)
(0.0887849 -7.78039e-17 0)
(0.0887849 -3.17175e-17 0)
(0.0887849 1.28618e-16 0)
(0.0887849 -1.45049e-16 0)
(0.0887849 -4.73174e-17 0)
(0.0887849 7.42174e-17 0)
(0.0887849 -8.84201e-17 0)
(0.0887849 1.73238e-17 0)
(0.0887849 5.74701e-18 0)
(0.0887849 9.44987e-17 0)
(0.0887849 6.88571e-17 0)
(0.0887849 -5.88305e-17 0)
(0.0887849 -5.17068e-17 0)
(0.0887849 7.36971e-18 0)
(0.0887849 -1.80237e-17 0)
(0.0887849 -7.8601e-19 0)
(0.0887849 7.19458e-17 0)
(0.0887849 -1.425e-16 0)
(0.0887849 9.2105e-17 0)
(0.0887849 1.40657e-16 0)
(0.0887849 -1.33051e-16 0)
(0.0887849 6.45103e-17 0)
(0.0887849 1.26937e-16 0)
(0.0887849 -1.07506e-16 0)
(0.0887849 -5.86494e-17 0)
(0.0887849 4.1819e-17 0)
(0.0887849 6.97891e-17 0)
(0.0887849 -6.7263e-18 0)
(0.0887849 -6.52299e-17 0)
(0.0887849 7.94242e-17 0)
(0.0887849 9.67423e-18 0)
(0.0887849 -7.32539e-17 0)
(0.0887849 1.17166e-17 0)
(0.0887849 -9.1388e-18 0)
(0.0887849 7.16625e-17 0)
(0.0887849 -2.22289e-17 0)
(0.0887849 -9.62046e-17 0)
(0.0887849 -2.11665e-17 0)
(0.0887849 -1.54847e-17 0)
(0.0887849 9.41832e-18 0)
(0.0887849 -8.35331e-17 0)
(0.0887849 -5.1873e-17 0)
(0.0887849 -3.2581e-18 0)
(0.0887849 1.28344e-16 0)
(0.0887849 6.3919e-17 0)
(0.0887849 -3.50308e-17 0)
(0.0887849 5.86996e-17 0)
(0.0887849 1.50967e-17 0)
(0.0887849 -1.61414e-16 0)
(0.0887849 -8.8995e-17 0)
(0.0887849 4.45003e-17 0)
(0.0887849 -1.29874e-16 0)
(0.0887849 1.18378e-16 0)
(0.0887849 7.18306e-17 0)
(0.0887849 5.95246e-18 0)
(0.0887849 7.15576e-17 0)
(0.0887849 -1.19604e-16 0)
(0.0887849 -1.02897e-16 0)
(0.0887849 4.48068e-17 0)
(0.0887849 -2.05469e-17 0)
(0.0887849 1.44356e-17 0)
(0.0887849 1.45274e-17 0)
(0.0887849 -8.14747e-17 0)
(0.0887849 6.1485e-17 0)
(0.0887849 -5.63755e-17 0)
(0.0887849 1.75237e-17 0)
(0.0887849 -5.3664e-17 0)
(0.0887849 -4.41755e-17 0)
(0.0887849 1.00954e-16 0)
(0.0887849 1.05812e-16 0)
(0.0887849 -2.24288e-17 0)
(0.0887849 -6.22884e-17 0)
(0.0887849 3.6959e-17 0)
(0.0887849 -7.11026e-17 0)
(0.0887849 1.07087e-17 0)
(0.0887849 4.8593e-17 0)
(0.0887849 -1.06259e-18 0)
(0.0887849 3.21836e-17 0)
(0.0887849 1.20772e-16 0)
(0.0887849 -7.48933e-18 0)
(0.0887849 -5.9601e-17 0)
(0.0887849 -1.15355e-16 0)
(0.0887849 -5.84403e-18 0)
(0.0887849 1.76325e-17 0)
(0.0887849 -8.49914e-17 0)
(0.0887849 8.04715e-17 0)
(0.0887849 3.169e-17 0)
(0.0887849 3.9363e-17 0)
(0.0887849 -5.47894e-17 0)
(0.0887849 -1.23438e-17 0)
(0.0887849 1.56746e-18 0)
(0.0887849 -8.20607e-17 0)
(0.0887849 3.60533e-17 0)
(0.0887849 1.56739e-16 0)
(0.0887849 -4.47366e-17 0)
(0.0887849 -1.83114e-17 0)
(0.0887849 6.06271e-17 0)
(0.0887849 -1.11658e-16 0)
(0.0887849 -4.76005e-19 0)
(0.0887849 -6.02215e-18 0)
(0.0887849 -3.59942e-17 0)
(0.0887849 3.28893e-17 0)
(0.0887849 1.13971e-16 0)
(0.0887849 -4.47853e-17 0)
(0.0887849 -2.71619e-17 0)
(0.0887849 7.01497e-17 0)
(0.0887849 -5.3099e-17 0)
(0.0887849 -8.28644e-17 0)
(0.0887849 4.00539e-17 0)
(0.0887849 -9.13506e-17 0)
(0.0887849 3.89466e-17 0)
(0.0887849 1.82615e-16 0)
(0.0887849 -1.3198e-16 0)
(0.0887849 5.98116e-17 0)
(0.0887849 -1.26137e-16 0)
(0.0887849 -1.056e-16 0)
(0.0887849 2.6669e-16 0)
(0.0887849 -2.06537e-16 0)
(0.0887849 -1.0785e-16 0)
(0.0887849 4.03231e-16 0)
(0.0887849 -1.64024e-16 0)
(0.0887849 -1.30848e-16 0)
(0.0887849 9.37601e-17 0)
(0.0887849 -1.26333e-16 0)
(0.0887849 9.04418e-17 0)
(0.0887849 -9.38434e-17 0)
(0.0887849 -4.30634e-17 0)
(0.0887849 1.23619e-16 0)
(0.0887849 1.12258e-16 0)
(0.0887849 -1.00172e-16 0)
(0.0887849 -1.09987e-16 0)
(0.0887849 -5.73607e-17 0)
(0.0887849 6.29111e-17 0)
(0.0887849 1.56049e-16 0)
(0.0887849 -1.6509e-16 0)
(0.0887849 2.00308e-16 0)
(0.0887849 1.4895e-17 0)
(0.0887849 -2.07626e-16 0)
(0.0887849 1.58647e-16 0)
(0.0887849 8.25046e-17 0)
(0.0887849 -2.20937e-16 0)
(0.0887849 8.16048e-17 0)
(0.0887849 7.21943e-18 0)
(0.0887849 -1.69019e-16 0)
(0.0887849 3.15776e-16 0)
(0.0887849 7.66046e-17 0)
(0.0887849 -3.01042e-16 0)
(0.0887849 7.01757e-17 0)
(0.0887849 -3.43841e-17 0)
(0.0887849 -1.90343e-16 0)
(0.0887849 2.88833e-16 0)
(0.0887849 -1.32248e-16 0)
(0.0887849 -1.0649e-16 0)
(0.0887849 3.75775e-16 0)
(0.0887849 -1.39218e-16 0)
(0.0887849 -2.28267e-16 0)
(0.0887849 1.97694e-16 0)
(0.0887849 -1.31763e-16 0)
(0.0887849 -1.68308e-16 0)
(0.0887849 3.0651e-16 0)
(0.0887849 4.65621e-17 0)
(0.0887849 -2.396e-16 0)
(0.0887849 1.22265e-16 0)
(0.0887849 5.96403e-17 0)
(0.0887849 -1.15632e-16 0)
(0.0887849 7.12113e-17 0)
(0.0887849 -5.72293e-17 0)
(0.0887849 -1.23166e-16 0)
(0.0887849 -1.86907e-17 0)
(0.0887849 1.86863e-16 0)
(0.0887849 1.18114e-16 0)
(0.0887849 -4.01852e-17 0)
(0.0887849 -1.12809e-16 0)
(0.0887849 -8.14591e-17 0)
(0.0887849 1.75187e-16 0)
(0.0887849 -1.80756e-17 0)
(0.0887849 -1.41332e-16 0)
(0.0887849 -6.32505e-17 0)
(0.0887849 2.30402e-16 0)
(0.0887849 1.49496e-16 0)
(0.0887849 -2.86537e-16 0)
(0.0887849 2.12462e-17 0)
(0.0887849 1.16442e-16 0)
(0.0887849 -2.22247e-16 0)
(0.0887849 1.91964e-16 0)
(0.0887849 1.86408e-16 0)
(0.0887849 -3.31872e-16 0)
(0.0887849 2.70885e-16 0)
(0.0887849 1.13244e-16 0)
(0.0887849 -3.21263e-16 0)
(0.0887849 7.29353e-17 0)
(0.0887849 -2.31114e-17 0)
(0.0887849 -1.49647e-16 0)
(0.0887849 9.50851e-17 0)
(0.0887849 2.02383e-16 0)
(0.0887849 -1.20571e-17 0)
(0.0887849 -2.26917e-17 0)
(0.0887849 -1.58015e-16 0)
(0.0887849 -1.02289e-16 0)
(0.0887849 1.66992e-16 0)
(0.0887849 -5.8076e-17 0)
(0.0887849 -2.09695e-16 0)
(0.0887849 9.85505e-17 0)
(0.0887849 2.26713e-16 0)
(0.0887849 9.4521e-18 0)
(0.0887849 -2.77596e-17 0)
(0.0887849 -1.68423e-16 0)
(0.0887849 -1.31726e-16 0)
(0.0887849 1.24327e-16 0)
(0.0887849 4.74328e-17 0)
(0.0887849 9.90637e-17 0)
(0.0887849 -2.01558e-16 0)
(0.0887849 8.0553e-17 0)
(0.0887849 2.85432e-16 0)
(0.0887849 -2.46223e-16 0)
(0.0887849 -5.78756e-18 0)
(0.0887849 4.16841e-18 0)
(0.0887849 -1.27516e-16 0)
(0.0887849 2.1606e-17 0)
(0.0887849 3.02183e-16 0)
(0.0887849 2.39573e-17 0)
(0.0887849 -1.43979e-16 0)
(0.0887849 -9.44286e-17 0)
(0.0887849 -5.83222e-17 0)
(0.0887849 1.79629e-16 0)
(0.0887849 -1.02486e-16 0)
(0.0887849 2.02412e-17 0)
(0.0887849 -5.70664e-17 0)
(0.0887849 1.61273e-16 0)
(0.0887849 3.00196e-17 0)
(0.0887849 -9.02208e-17 0)
(0.0887849 -6.1835e-17 0)
(0.0887849 -1.03526e-17 0)
(0.0887849 6.37952e-17 0)
(0.0887849 -4.20447e-17 0)
(0.0887849 2.21636e-16 0)
(0.0887849 -1.71589e-16 0)
(0.0887849 8.59846e-17 0)
(0.0887849 1.04649e-16 0)
(0.0887849 -1.13745e-16 0)
(0.0887849 -7.62765e-17 0)
(0.0887849 9.45276e-17 0)
(0.0887849 -9.81177e-17 0)
(0.0887849 -1.95411e-16 0)
(0.0887849 3.14215e-16 0)
(0.0887849 1.9514e-16 0)
(0.0887849 -1.6087e-16 0)
(0.0887849 -1.54536e-16 0)
(0.0887849 -1.29847e-16 0)
(0.0887849 -5.73241e-17 0)
(0.0887849 1.5057e-16 0)
(0.0887849 2.83837e-16 0)
(0.0887849 -2.20201e-16 0)
(0.0887849 -1.60376e-16 0)
(0.0887849 -8.16797e-17 0)
(0.0887849 3.08641e-16 0)
(0.0887849 2.11318e-16 0)
(0.0887849 -4.58084e-16 0)
(0.0887849 -2.74832e-17 0)
(0.0887849 2.57132e-16 0)
(0.0887849 1.77751e-16 0)
(0.0887849 -2.73978e-16 0)
(0.0887849 6.83575e-17 0)
(0.0887849 6.94675e-17 0)
(0.0887849 -5.13043e-17 0)
(0.0887849 6.14697e-17 0)
(0.0887849 -2.50835e-16 0)
(0.0887849 -2.16134e-17 0)
(0.0887849 3.18103e-16 0)
(0.0887849 7.05159e-17 0)
(0.0887849 -3.64725e-16 0)
(0.0887849 -5.90205e-17 0)
(0.0887849 4.23311e-16 0)
(0.0887849 -9.29262e-17 0)
(0.0887849 -1.99145e-16 0)
(0.0887849 5.63618e-17 0)
(0.0887849 1.20608e-16 0)
(0.0887849 1.79625e-17 0)
(0.0887849 9.6217e-18 0)
(0.0887849 -1.12177e-16 0)
(0.0887849 -9.89838e-17 0)
(0.0887849 3.50702e-16 0)
(0.0887849 -3.21241e-17 0)
(0.0887849 -3.75529e-16 0)
(0.0887849 2.24995e-17 0)
(0.0887849 4.76758e-16 0)
(0.0887849 -1.05958e-16 0)
(0.0887849 -5.56041e-17 0)
(0.0887849 -1.80701e-17 0)
(0.0887849 -2.07556e-16 0)
(0.0887849 3.19088e-16 0)
(0.0887849 -1.7006e-16 0)
(0.0887849 -6.05621e-17 0)
(0.0887849 -1.61287e-17 0)
(0.0887849 9.83921e-17 0)
(0.0887849 2.17338e-17 0)
(0.0887849 -6.11427e-17 0)
(0.0887849 2.97978e-17 0)
(0.0887849 -1.52053e-16 0)
(0.0887849 2.00217e-16 0)
(0.0887849 -3.97215e-17 0)
(0.0887849 1.00886e-16 0)
(0.0887849 -7.76528e-17 0)
(0.0887849 6.66535e-17 0)
(0.0887849 -5.531e-17 0)
(0.0887849 -8.40707e-17 0)
(0.0887849 6.99412e-17 0)
(0.0887849 5.64726e-17 0)
(0.0887849 1.77251e-16 0)
(0.0887849 -4.40694e-16 0)
(0.0887849 2.04213e-16 0)
(0.0887849 2.05052e-16 0)
(0.0887849 8.87645e-18 0)
(0.0887849 3.29199e-17 0)
(0.0887849 -3.57192e-16 0)
(0.0887849 1.03796e-16 0)
(0.0887849 2.04346e-16 0)
(0.0887849 -3.85439e-17 0)
(0.0887849 -2.09697e-16 0)
(0.0887849 1.12266e-16 0)
(0.0887849 -4.42266e-17 0)
(0.0887849 6.1936e-18 0)
(0.0887849 5.94122e-17 0)
(0.0887849 -1.33612e-16 0)
(0.0887849 1.90698e-16 0)
(0.0887849 7.47152e-17 0)
(0.0887849 8.63629e-17 0)
(0.0887849 -2.45388e-16 0)
(0.0887849 6.32945e-19 0)
(0.0887849 1.26267e-16 0)
(0.0887849 1.95797e-17 0)
(0.0887849 -6.45093e-17 0)
(0.0887849 -1.13239e-16 0)
(0.0887849 2.11662e-16 0)
(0.0887849 -2.59085e-16 0)
(0.0887849 4.09131e-17 0)
(0.0887849 3.46538e-17 0)
(0.0887849 -9.63947e-17 0)
(0.0887849 2.45789e-16 0)
(0.0887849 -1.88329e-16 0)
(0.0887849 -2.38978e-16 0)
(0.0887849 1.4942e-16 0)
(0.0887849 1.9968e-16 0)
(0.0887849 -2.79222e-16 0)
(0.0887849 -2.59472e-17 0)
(0.0887849 -5.52656e-17 0)
(0.0887849 -9.66775e-17 0)
(0.0887849 -1.41639e-17 0)
(0.0887849 -4.60589e-16 0)
(0.0887849 -5.01508e-16 0)
(0.146375 -3.55992e-16 0)
(0.146375 -6.13108e-16 0)
(0.146375 -3.46264e-16 0)
(0.146375 -1.3297e-16 0)
(0.146375 -4.76776e-17 0)
(0.146375 -4.09312e-17 0)
(0.146375 -3.25241e-17 0)
(0.146375 -4.78634e-18 0)
(0.146375 -2.54934e-17 0)
(0.146375 -6.64466e-17 0)
(0.146375 -7.05383e-17 0)
(0.146375 -6.89909e-17 0)
(0.146375 -6.56965e-17 0)
(0.146375 -3.9672e-17 0)
(0.146375 -2.37942e-17 0)
(0.146375 -2.99228e-17 0)
(0.146375 -5.4333e-17 0)
(0.146375 -5.66911e-17 0)
(0.146375 -2.04397e-18 0)
(0.146375 4.40846e-18 0)
(0.146375 -2.23038e-17 0)
(0.146375 1.96775e-17 0)
(0.146375 5.29e-17 0)
(0.146375 -7.73926e-18 0)
(0.146375 -2.25606e-17 0)
(0.146375 -4.71166e-17 0)
(0.146375 -9.84611e-18 0)
(0.146375 4.92471e-17 0)
(0.146375 -2.79113e-17 0)
(0.146375 -3.78573e-17 0)
(0.146375 -1.22339e-17 0)
(0.146375 -2.14046e-17 0)
(0.146375 -3.22877e-17 0)
(0.146375 -6.35231e-17 0)
(0.146375 -5.39665e-17 0)
(0.146375 -1.32539e-17 0)
(0.146375 -1.0788e-16 0)
(0.146375 -6.1115e-17 0)
(0.146375 -3.08568e-18 0)
(0.146375 -4.8844e-17 0)
(0.146375 -1.80196e-17 0)
(0.146375 -2.59514e-17 0)
(0.146375 -3.73327e-17 0)
(0.146375 1.70015e-17 0)
(0.146375 5.96258e-17 0)
(0.146375 5.84303e-17 0)
(0.146375 5.31686e-17 0)
(0.146375 -5.31101e-17 0)
(0.146375 -1.32518e-17 0)
(0.146375 7.1593e-17 0)
(0.146375 4.91049e-17 0)
(0.146375 -8.38248e-18 0)
(0.146375 -3.17748e-17 0)
(0.146375 7.73739e-18 0)
(0.146375 4.11735e-17 0)
(0.146375 -1.45731e-17 0)
(0.146375 3.85736e-17 0)
(0.146375 -5.97884e-17 0)
(0.146375 -8.60051e-17 0)
(0.146375 -6.82293e-18 0)
(0.146375 -9.1245e-18 0)
(0.146375 1.42048e-17 0)
(0.146375 -3.85687e-17 0)
(0.146375 -3.7955e-19 0)
(0.146375 3.46938e-17 0)
(0.146375 -1.61897e-17 0)
(0.146375 -8.55488e-17 0)
(0.146375 -5.19827e-17 0)
(0.146375 3.04768e-17 0)
(0.146375 1.38328e-17 0)
(0.146375 7.75975e-18 0)
(0.146375 1.1047e-17 0)
(0.146375 8.19303e-17 0)
(0.146375 7.15808e-19 0)
(0.146375 -8.11348e-17 0)
(0.146375 1.33325e-16 0)
(0.146375 1.18566e-16 0)
(0.146375 -3.35594e-17 0)
(0.146375 -6.18786e-17 0)
(0.146375 7.8396e-18 0)
(0.146375 2.90055e-17 0)
(0.146375 -2.56976e-17 0)
(0.146375 -4.15322e-17 0)
(0.146375 -5.42147e-18 0)
(0.146375 -2.06301e-17 0)
(0.146375 6.41222e-18 0)
(0.146375 -3.5384e-17 0)
(0.146375 4.81473e-17 0)
(0.146375 2.85192e-18 0)
(0.146375 -1.70748e-17 0)
(0.146375 4.85903e-17 0)
(0.146375 2.28981e-17 0)
(0.146375 3.729e-17 0)
(0.146375 3.04542e-17 0)
(0.146375 -7.14518e-18 0)
(0.146375 -1.29092e-16 0)
(0.146375 -3.6772e-17 0)
(0.146375 1.45464e-16 0)
(0.146375 -6.32972e-17 0)
(0.146375 -1.02424e-16 0)
(0.146375 1.36421e-16 0)
(0.146375 8.40933e-17 0)
(0.146375 -2.60786e-17 0)
(0.146375 -9.2894e-17 0)
(0.146375 3.69114e-17 0)
(0.146375 9.12216e-17 0)