/*--------------------------------*- C++ -*----------------------------------*\
| =========                 |                                                 |
| \\      /  F ield         | OpenFOAM: The Open Source CFD Toolbox           |
|  \\    /   O peration     | Version:  2112                                  |
|   \\  /    A nd           | Website:  www.openfoam.com                      |
|    \\/     M anipulation  |                                                 |
\*---------------------------------------------------------------------------*/
FoamFile
{
    version     2.0;
    format      ascii;
    arch        "LSB;label=32;scalar=64";
    class       volScalarField;
    location    "3";
    object      p;
}
// * * * * * * * * * * * * * * * * * * * * * * * * * * * * * * * * * * * * * //

dimensions      [0 2 -2 0 0 0 0];

internalField   nonuniform List<scalar> 
25600
(
1.61383e-14
3.0538e-14
3.0942e-14
3.022e-14
2.96307e-14
2.92212e-14
2.90228e-14
2.88151e-14
2.88085e-14
2.89768e-14
2.90225e-14
2.89557e-14
2.8677e-14
2.86041e-14
2.85932e-14
2.83956e-14
2.8415e-14
2.84935e-14
2.85784e-14
2.84137e-14
2.83622e-14
2.85115e-14
2.86993e-14
2.89527e-14
2.9267e-14
2.92981e-14
2.93124e-14
2.95005e-14
2.96249e-14
2.95754e-14
2.94081e-14
2.9439e-14
2.97214e-14
3.00262e-14
3.02287e-14
3.03512e-14
3.04272e-14
3.07532e-14
3.08119e-14
3.04176e-14
3.06539e-14
3.06083e-14
3.05993e-14
3.06134e-14
3.01467e-14
2.99258e-14
2.96547e-14
2.9458e-14
2.93632e-14
2.91953e-14
2.91736e-14
2.85994e-14
2.83187e-14
2.81333e-14
2.7733e-14
2.80095e-14
2.79882e-14
2.78629e-14
2.76686e-14
2.73661e-14
2.76553e-14
2.70399e-14
2.69844e-14
2.67135e-14
2.62111e-14
2.64699e-14
2.6037e-14
2.57814e-14
2.56625e-14
2.56407e-14
2.61223e-14
2.6344e-14
2.64956e-14
2.63845e-14
2.62241e-14
2.69582e-14
2.73053e-14
2.70412e-14
2.73631e-14
2.72974e-14
2.81269e-14
2.89744e-14
2.88787e-14
2.91591e-14
2.94134e-14
3.0055e-14
3.05759e-14
3.07742e-14
3.07725e-14
3.07606e-14
3.16962e-14
3.24771e-14
3.24743e-14
3.23895e-14
3.32052e-14
3.42233e-14
3.42817e-14
3.47663e-14
3.50786e-14
3.59551e-14
3.7377e-14
3.78774e-14
3.89137e-14
3.92527e-14
3.97429e-14
4.06049e-14
4.16059e-14
4.17468e-14
4.17386e-14
4.21967e-14
4.27445e-14
4.40969e-14
4.36674e-14
4.35957e-14
4.48416e-14
4.59157e-14
4.69731e-14
4.70197e-14
4.68588e-14
4.77025e-14
4.90945e-14
5.021e-14
5.017e-14
4.97364e-14
5.07091e-14
5.22156e-14
5.32029e-14
5.26965e-14
5.21886e-14
5.32587e-14
5.43725e-14
5.50771e-14
5.48762e-14
5.49989e-14
5.611e-14
5.69195e-14
5.7948e-14
5.81516e-14
5.81865e-14
5.93806e-14
6.05049e-14
6.13541e-14
6.15385e-14
6.19732e-14
6.28654e-14
6.34408e-14
6.43816e-14
6.45108e-14
6.50021e-14
6.55925e-14
6.58807e-14
6.74537e-14
6.77803e-14
6.73603e-14
6.77145e-14
6.83846e-14
6.96401e-14
7.02245e-14
7.00047e-14
7.02679e-14
7.05204e-14
7.21328e-14
7.22966e-14
7.21876e-14
7.37989e-14
7.38971e-14
7.49538e-14
7.58134e-14
7.5619e-14
7.64783e-14
7.72466e-14
7.85449e-14
7.85789e-14
7.86313e-14
7.9353e-14
7.98541e-14
8.05551e-14
8.00852e-14
8.13216e-14
8.1896e-14
8.16322e-14
8.33524e-14
8.30932e-14
8.295e-14
8.37952e-14
8.37652e-14
8.55466e-14
8.58016e-14
8.58771e-14
8.76591e-14
8.76469e-14
8.84638e-14
8.93268e-14
8.91478e-14
9.06098e-14
9.13504e-14
9.24636e-14
9.29593e-14
9.28048e-14
9.47366e-14
9.51206e-14
9.57629e-14
9.5603e-14
9.54057e-14
9.75653e-14
9.86797e-14
9.90339e-14
9.86281e-14
9.90996e-14
1.00659e-13
1.01681e-13
1.02134e-13
1.00745e-13
1.02678e-13
1.04665e-13
1.02793e-13
1.04155e-13
1.05268e-13
1.05508e-13
1.05804e-13
1.03745e-13
1.05072e-13
1.06658e-13
1.06714e-13
1.06777e-13
1.04362e-13
1.05537e-13
1.06427e-13
1.05836e-13
1.0651e-13
1.05043e-13
1.05854e-13
1.05737e-13
1.0514e-13
1.06266e-13
1.04672e-13
1.04511e-13
1.04108e-13
1.03616e-13
1.0447e-13
1.02291e-13
1.02401e-13
1.01716e-13
1.00659e-13
1.0199e-13
9.9825e-14
9.87354e-14
9.81826e-14
9.82809e-14
9.88426e-14
9.60737e-14
9.61951e-14
9.63994e-14
9.55255e-14
9.5217e-14
9.21307e-14
9.25007e-14
9.20994e-14
9.0792e-14
9.15988e-14
8.94328e-14
8.89387e-14
8.84784e-14
8.76508e-14
8.7722e-14
8.55051e-14
8.56441e-14
8.57679e-14
8.55008e-14
8.56229e-14
8.35659e-14
8.31914e-14
8.28017e-14
8.24523e-14
8.26533e-14
8.06525e-14
8.0319e-14
8.01775e-14
7.89597e-14
7.95338e-14
7.79596e-14
7.70826e-14
7.65364e-14
7.55043e-14
7.5443e-14
7.3227e-14
7.14786e-14
7.10561e-14
7.06067e-14
6.92527e-14
6.62699e-14
6.54487e-14
6.50927e-14
6.40645e-14
6.24084e-14
6.00575e-14
5.96515e-14
5.90578e-14
5.84847e-14
5.67439e-14
5.40952e-14
5.3352e-14
5.23687e-14
5.2373e-14
5.10623e-14
4.84043e-14
4.70177e-14
4.51191e-14
4.48294e-14
4.31855e-14
4.17772e-14
4.10993e-14
3.85848e-14
3.80292e-14
3.69333e-14
3.48026e-14
3.42543e-14
3.26733e-14
3.27396e-14
3.17907e-14
2.64063e-14
3.09446e-14
3.06459e-14
3.01245e-14
2.9573e-14
2.91929e-14
2.89845e-14
2.88101e-14
2.88144e-14
2.89997e-14
2.90712e-14
2.89588e-14
2.86721e-14
2.86455e-14
2.86054e-14
2.84616e-14
2.84484e-14
2.85008e-14
2.85232e-14
2.8416e-14
2.83941e-14
2.85661e-14
2.86965e-14
2.8908e-14
2.91708e-14
2.93087e-14
2.95096e-14
2.95424e-14
2.95553e-14
2.95567e-14
2.94393e-14
2.95144e-14
2.97231e-14
2.9957e-14
3.0187e-14
3.037e-14
3.04849e-14
3.06778e-14
3.07964e-14
3.05058e-14
3.06252e-14
3.06305e-14
3.05677e-14
3.05747e-14
3.02379e-14
2.98739e-14
2.96836e-14
2.94833e-14
2.94098e-14
2.91682e-14
2.90385e-14
2.87105e-14
2.83419e-14
2.81756e-14
2.78756e-14
2.79062e-14
2.79821e-14
2.78224e-14
2.76922e-14
2.74413e-14
2.75448e-14
2.70179e-14
2.7011e-14
2.67094e-14
2.62564e-14
2.64198e-14
2.59886e-14
2.57136e-14
2.56995e-14
2.56992e-14
2.61182e-14
2.62939e-14
2.65082e-14
2.62708e-14
2.63514e-14
2.68841e-14
2.71577e-14
2.71298e-14
2.73915e-14
2.73998e-14
2.80275e-14
2.87413e-14
2.88915e-14
2.92767e-14
2.95691e-14
3.0047e-14
3.02633e-14
3.06291e-14
3.10311e-14
3.10416e-14
3.16125e-14
3.2159e-14
3.24343e-14
3.26533e-14
3.31747e-14
3.39279e-14
3.41923e-14
3.47639e-14
3.5353e-14
3.6068e-14
3.70068e-14
3.7894e-14
3.89274e-14
3.94586e-14
3.98263e-14
4.04875e-14
4.14928e-14
4.18533e-14
4.19093e-14
4.21044e-14
4.27905e-14
4.3722e-14
4.38175e-14
4.39868e-14
4.48148e-14
4.57123e-14
4.67713e-14
4.71989e-14
4.70536e-14
4.76296e-14
4.90098e-14
5.00007e-14
5.02215e-14
5.00405e-14
5.0781e-14
5.20562e-14
5.30251e-14
5.27485e-14
5.24577e-14
5.3332e-14
5.42133e-14
5.49214e-14
5.5016e-14
5.5143e-14
5.60235e-14
5.69016e-14
5.78762e-14
5.81553e-14
5.82481e-14
5.93598e-14
6.05194e-14
6.1262e-14
6.15735e-14
6.20863e-14
6.28298e-14
6.35498e-14
6.42407e-14
6.4332e-14
6.50333e-14
6.58104e-14
6.61167e-14
6.71652e-14
6.74217e-14
6.74478e-14
6.79175e-14
6.85338e-14
6.95146e-14
7.00099e-14
7.00998e-14
7.03624e-14
7.0781e-14
7.1897e-14
7.21553e-14
7.23742e-14
7.35571e-14
7.40756e-14
7.48023e-14
7.55518e-14
7.58954e-14
7.65686e-14
7.7415e-14
7.82776e-14
7.85846e-14
7.85849e-14
7.91074e-14
8.00933e-14
8.05146e-14
8.04804e-14
8.12174e-14
8.15371e-14
8.20931e-14
8.31563e-14
8.30729e-14
8.28902e-14
8.36261e-14
8.42739e-14
8.53687e-14
8.57921e-14
8.6107e-14
8.71748e-14
8.78123e-14
8.84408e-14
8.91151e-14
8.96253e-14
9.04364e-14
9.12808e-14
9.21855e-14
9.30685e-14
9.35326e-14
9.43054e-14
9.50222e-14
9.54992e-14
9.5671e-14
9.61942e-14
9.7249e-14
9.81734e-14
9.88728e-14
9.90958e-14
9.97017e-14
1.00366e-13
1.01018e-13
1.01915e-13
1.01559e-13
1.02707e-13
1.03934e-13
1.03536e-13
1.04472e-13
1.04647e-13
1.05085e-13
1.05611e-13
1.04593e-13
1.05459e-13
1.06092e-13
1.06294e-13
1.0659e-13
1.05127e-13
1.05677e-13
1.06259e-13
1.05823e-13
1.06114e-13
1.05323e-13
1.05804e-13
1.05591e-13
1.05279e-13
1.05905e-13
1.05033e-13
1.04705e-13
1.03874e-13
1.03505e-13
1.04157e-13
1.02654e-13
1.02462e-13
1.01648e-13
1.0078e-13
1.0142e-13
9.97049e-14
9.90764e-14
9.85578e-14
9.826e-14
9.83586e-14
9.63166e-14
9.62718e-14
9.64167e-14
9.5639e-14
9.47652e-14
9.23664e-14
9.26478e-14
9.21059e-14
9.09414e-14
9.11138e-14
8.9673e-14
8.91494e-14
8.83701e-14
8.76764e-14
8.73593e-14
8.57478e-14
8.60125e-14
8.56512e-14
8.52955e-14
8.53701e-14
8.37699e-14
8.33667e-14
8.27081e-14
8.2387e-14
8.2572e-14
8.0768e-14
8.04645e-14
7.98255e-14
7.91303e-14
7.96082e-14
7.80137e-14
7.73677e-14
7.63124e-14
7.5368e-14
7.53028e-14
7.31047e-14
7.18984e-14
7.12385e-14
7.02892e-14
6.89617e-14
6.64769e-14
6.57699e-14
6.5062e-14
6.35181e-14
6.24237e-14
6.05773e-14
5.94836e-14
5.922e-14
5.79934e-14
5.67496e-14
5.46545e-14
5.32484e-14
5.25618e-14
5.20276e-14
5.06701e-14
4.8355e-14
4.71698e-14
4.56696e-14
4.46329e-14
4.31537e-14
4.17564e-14
4.09662e-14
3.90818e-14
3.77973e-14
3.66644e-14
3.51313e-14
3.41865e-14
3.26611e-14
3.23726e-14
3.2016e-14
2.90676e-14
3.08584e-14
3.06235e-14
3.01909e-14
2.9629e-14
2.9275e-14
2.90254e-14
2.88555e-14
2.88775e-14
2.91116e-14
2.90939e-14
2.89621e-14
2.86977e-14
2.87814e-14
2.86745e-14
2.85019e-14
2.85241e-14
2.85272e-14
2.8507e-14
2.84088e-14
2.84649e-14
2.85774e-14
2.8645e-14
2.88759e-14
2.91244e-14
2.93733e-14
2.96501e-14
2.95951e-14
2.95342e-14
2.94734e-14
2.9428e-14
2.96204e-14
2.97808e-14
2.98545e-14
3.01268e-14
3.03675e-14
3.0533e-14
3.06543e-14
3.08077e-14
3.05651e-14
3.0636e-14
3.06509e-14
3.05857e-14
3.05561e-14
3.02604e-14
2.98823e-14
2.96562e-14
2.94902e-14
2.94704e-14
2.91221e-14
2.90233e-14
2.88019e-14
2.83878e-14
2.81792e-14
2.7892e-14
2.78974e-14
2.79559e-14
2.78342e-14
2.76706e-14
2.74035e-14
2.74622e-14
2.70754e-14
2.70159e-14
2.66491e-14
2.6293e-14
2.63656e-14
2.59772e-14
2.56962e-14
2.56472e-14
2.56747e-14
2.6116e-14
2.62825e-14
2.65013e-14
2.6232e-14
2.644e-14
2.67484e-14
2.6965e-14
2.72572e-14
2.74652e-14
2.73751e-14
2.796e-14
2.85322e-14
2.89789e-14
2.93614e-14
2.958e-14
3.00469e-14
3.01553e-14
3.05176e-14
3.1121e-14
3.11839e-14
3.15353e-14
3.19885e-14
3.24965e-14
3.26836e-14
3.30914e-14
3.38211e-14
3.41192e-14
3.47281e-14
3.54858e-14
3.60991e-14
3.68367e-14
3.78924e-14
3.89379e-14
3.95167e-14
3.99462e-14
4.04349e-14
4.14716e-14
4.18956e-14
4.20546e-14
4.20387e-14
4.2774e-14
4.34953e-14
4.39211e-14
4.42676e-14
4.48386e-14
4.56377e-14
4.65889e-14
4.72988e-14
4.7223e-14
4.75907e-14
4.88726e-14
4.97852e-14
5.03437e-14
5.03778e-14
5.09002e-14
5.19299e-14
5.27323e-14
5.28513e-14
5.27365e-14
5.34089e-14
5.41126e-14
5.46884e-14
5.51146e-14
5.53244e-14
5.59727e-14
5.68769e-14
5.77658e-14
5.80558e-14
5.82698e-14
5.9339e-14
6.05605e-14
6.12025e-14
6.15891e-14
6.21806e-14
6.28205e-14
6.35316e-14
6.41608e-14
6.43358e-14
6.50043e-14
6.5871e-14
6.62916e-14
6.69719e-14
6.71679e-14
6.75512e-14
6.79773e-14
6.87081e-14
6.94488e-14
6.98083e-14
7.01629e-14
7.04327e-14
7.09343e-14
7.17338e-14
7.199e-14
7.24612e-14
7.34159e-14
7.40931e-14
7.47783e-14
7.53259e-14
7.60994e-14
7.6703e-14
7.73796e-14
7.82243e-14
7.85866e-14
7.85578e-14
7.9137e-14
7.99631e-14
8.04447e-14
8.09125e-14
8.12128e-14
8.14161e-14
8.22354e-14
8.292e-14
8.31186e-14
8.28915e-14
8.35909e-14
8.45327e-14
8.52598e-14
8.57412e-14
8.6276e-14
8.69817e-14
8.78402e-14
8.83749e-14
8.90256e-14
8.98394e-14
9.03979e-14
9.12076e-14
9.20463e-14
9.32172e-14
9.38852e-14
9.40977e-14
9.49912e-14
9.54164e-14
9.56927e-14
9.65122e-14
9.71689e-14
9.78501e-14
9.87752e-14
9.93203e-14
1.00007e-13
1.00232e-13
1.00605e-13
1.01849e-13
1.02067e-13
1.02755e-13
1.03476e-13
1.03925e-13
1.04605e-13
1.04317e-13
1.0478e-13
1.05482e-13
1.05206e-13
1.05696e-13
1.05753e-13
1.0608e-13
1.06537e-13
1.0559e-13
1.05827e-13
1.06085e-13
1.05751e-13
1.05887e-13
1.05565e-13
1.058e-13
1.05559e-13
1.05298e-13
1.05629e-13
1.05148e-13
1.04802e-13
1.03888e-13
1.0358e-13
1.03907e-13
1.02768e-13
1.02386e-13
1.01793e-13
1.00906e-13
1.00846e-13
9.95532e-14
9.93589e-14
9.88079e-14
9.81696e-14
9.80161e-14
9.66837e-14
9.64315e-14
9.62897e-14
9.55067e-14
9.44563e-14
9.28215e-14
9.27341e-14
9.19592e-14
9.09436e-14
9.08951e-14
9.00034e-14
8.9307e-14
8.80696e-14
8.75189e-14
8.72389e-14
8.60895e-14
8.61998e-14
8.55814e-14
8.51638e-14
8.51556e-14
8.38582e-14
8.34586e-14
8.27804e-14
8.23585e-14
8.24525e-14
8.0914e-14
8.05689e-14
7.9638e-14
7.91819e-14
7.9624e-14
7.81626e-14
7.75264e-14
7.63138e-14
7.52227e-14
7.51482e-14
7.31917e-14
7.21224e-14
7.14017e-14
6.99901e-14
6.87789e-14
6.67092e-14
6.58801e-14
6.4873e-14
6.34094e-14
6.24895e-14
6.07473e-14
5.94223e-14
5.91901e-14
5.78793e-14
5.67974e-14
5.50526e-14
5.33155e-14
5.26276e-14
5.17021e-14
5.03231e-14
4.84008e-14
4.73616e-14
4.60386e-14
4.45117e-14
4.3241e-14
4.17021e-14
4.10175e-14
3.95429e-14
3.768e-14
3.66782e-14
3.53677e-14
3.41867e-14
3.29507e-14
3.23014e-14
3.18207e-14
2.99098e-14
3.08778e-14
3.06483e-14
3.03066e-14
2.98147e-14
2.94097e-14
2.90929e-14
2.89019e-14
2.89477e-14
2.91771e-14
2.92069e-14
2.90637e-14
2.87911e-14
2.88332e-14
2.87446e-14
2.8518e-14
2.85642e-14
2.86456e-14
2.85124e-14
2.84432e-14
2.84609e-14
2.85423e-14
2.86464e-14
2.8922e-14
2.91504e-14
2.94896e-14
2.97086e-14
2.95754e-14
2.95212e-14
2.95014e-14
2.94034e-14
2.96501e-14
2.97851e-14
2.98648e-14
3.01329e-14
3.04185e-14
3.0599e-14
3.07132e-14
3.08647e-14
3.04317e-14
3.06551e-14
3.07544e-14
3.06383e-14
3.05063e-14
3.02276e-14
2.99591e-14
2.96634e-14
2.94688e-14
2.94885e-14
2.9179e-14
2.908e-14
2.88968e-14
2.84145e-14
2.8138e-14
2.78261e-14
2.77675e-14
2.79219e-14
2.7892e-14
2.76019e-14
2.73544e-14
2.74174e-14
2.70716e-14
2.69927e-14
2.66238e-14
2.63473e-14
2.63407e-14
2.61119e-14
2.56139e-14
2.54851e-14
2.56718e-14
2.59835e-14
2.62607e-14
2.63945e-14
2.62633e-14
2.65224e-14
2.66267e-14
2.69341e-14
2.7294e-14
2.7386e-14
2.73443e-14
2.78625e-14
2.83946e-14
2.90812e-14
2.94837e-14
2.94059e-14
2.99941e-14
3.0359e-14
3.05826e-14
3.09615e-14
3.11746e-14
3.1362e-14
3.19808e-14
3.25865e-14
3.25086e-14
3.30635e-14
3.3884e-14
3.40743e-14
3.46976e-14
3.53731e-14
3.60477e-14
3.6896e-14
3.77522e-14
3.89633e-14
3.96593e-14
4.00181e-14
4.05677e-14
4.13737e-14
4.17923e-14
4.2225e-14
4.21745e-14
4.25934e-14
4.3402e-14
4.39603e-14
4.43056e-14
4.48951e-14
4.56795e-14
4.64354e-14
4.72212e-14
4.74489e-14
4.77583e-14
4.87462e-14
4.95328e-14
5.05324e-14
5.0552e-14
5.08465e-14
5.20275e-14
5.26964e-14
5.28446e-14
5.29008e-14
5.33999e-14
5.3954e-14
5.4515e-14
5.5235e-14
5.5515e-14
5.59708e-14
5.67804e-14
5.75696e-14
5.80596e-14
5.84015e-14
5.93211e-14
6.04922e-14
6.09583e-14
6.17427e-14
6.24003e-14
6.28002e-14
6.34934e-14
6.39613e-14
6.44982e-14
6.5048e-14
6.57935e-14
6.62265e-14
6.68794e-14
6.71927e-14
6.76466e-14
6.78923e-14
6.86924e-14
6.93819e-14
6.97229e-14
7.02588e-14
7.05293e-14
7.09324e-14
7.16029e-14
7.17672e-14
7.26634e-14
7.33714e-14
7.41488e-14
7.47539e-14
7.53287e-14
7.59807e-14
7.66915e-14
7.73681e-14
7.83441e-14
7.85202e-14
7.85559e-14
7.93776e-14
7.97723e-14
8.03758e-14
8.09396e-14
8.13133e-14
8.15229e-14
8.21195e-14
8.28016e-14
8.32307e-14
8.2926e-14
8.34076e-14
8.45594e-14
8.53262e-14
8.56311e-14
8.62563e-14
8.70331e-14
8.78125e-14
8.83339e-14
8.89808e-14
8.98991e-14
9.05104e-14
9.11019e-14
9.20998e-14
9.33692e-14
9.37891e-14
9.41328e-14
9.49575e-14
9.54029e-14
9.5795e-14
9.64867e-14
9.71618e-14
9.78185e-14
9.87304e-14
9.92886e-14
9.99543e-14
1.00279e-13
1.00721e-13
1.01804e-13
1.02212e-13
1.02694e-13
1.03306e-13
1.03983e-13
1.04573e-13
1.04413e-13
1.04773e-13
1.05404e-13
1.0537e-13
1.0564e-13
1.05813e-13
1.06038e-13
1.06509e-13
1.05901e-13
1.05872e-13
1.05619e-13
1.05705e-13
1.06152e-13
1.06011e-13
1.05717e-13
1.05498e-13
1.05177e-13
1.05341e-13
1.05042e-13
1.04918e-13
1.04338e-13
1.03509e-13
1.03669e-13
1.03054e-13
1.02334e-13
1.01561e-13
1.0089e-13
1.0065e-13
9.96775e-14
9.94671e-14
9.87852e-14
9.82362e-14
9.78245e-14
9.68029e-14
9.65925e-14
9.63632e-14
9.54393e-14
9.42336e-14
9.31762e-14
9.267e-14
9.17985e-14
9.09084e-14
9.0636e-14
9.03471e-14
8.92225e-14
8.79124e-14
8.74705e-14
8.73699e-14
8.63602e-14
8.60095e-14
8.5685e-14
8.52408e-14
8.47537e-14
8.38267e-14
8.34318e-14
8.30641e-14
8.23847e-14
8.20687e-14
8.13447e-14
8.06474e-14
7.95758e-14
7.92937e-14
7.92677e-14
7.8619e-14
7.75029e-14
7.62542e-14
7.54106e-14
7.48078e-14
7.36098e-14
7.2277e-14
7.11085e-14
6.98453e-14
6.87015e-14
6.71605e-14
6.59945e-14
6.45176e-14
6.3259e-14
6.24808e-14
6.1115e-14
5.95042e-14
5.88286e-14
5.79553e-14
5.6846e-14
5.5355e-14
5.32656e-14
5.25575e-14
5.17806e-14
5.01638e-14
4.87283e-14
4.74009e-14
4.58486e-14
4.46541e-14
4.33985e-14
4.18559e-14
4.12065e-14
3.9774e-14
3.78021e-14
3.66539e-14
3.5367e-14
3.44468e-14
3.33516e-14
3.24505e-14
3.16814e-14
3.0864e-14
3.11443e-14
3.08961e-14
3.05226e-14
2.99874e-14
2.94812e-14
2.92004e-14
2.90523e-14
2.90102e-14
2.92597e-14
2.94072e-14
2.92547e-14
2.90095e-14
2.90225e-14
2.88006e-14
2.85038e-14
2.85327e-14
2.87397e-14
2.85945e-14
2.8438e-14
2.85012e-14
2.85763e-14
2.86959e-14
2.89665e-14
2.91763e-14
2.95455e-14
2.96341e-14
2.96061e-14
2.95156e-14
2.94833e-14
2.94013e-14
2.95926e-14
2.98795e-14
2.99085e-14
3.02745e-14
3.04735e-14
3.05917e-14
3.07785e-14
3.08157e-14
3.04103e-14
3.06675e-14
3.06523e-14
3.06315e-14
3.05604e-14
3.03604e-14
3.00198e-14
2.97258e-14
2.94784e-14
2.94619e-14
2.92719e-14
2.91177e-14
2.88384e-14
2.84239e-14
2.8166e-14
2.78753e-14
2.77182e-14
2.78586e-14
2.78214e-14
2.75163e-14
2.73196e-14
2.74029e-14
2.72055e-14
2.70114e-14
2.65963e-14
2.62702e-14
2.61599e-14
2.6159e-14
2.56657e-14
2.54033e-14
2.55246e-14
2.57762e-14
2.63003e-14
2.62542e-14
2.62337e-14
2.65927e-14
2.66372e-14
2.69181e-14
2.72273e-14
2.72053e-14
2.74725e-14
2.77806e-14
2.83522e-14
2.90879e-14
2.94919e-14
2.94992e-14
2.98069e-14
3.03711e-14
3.07e-14
3.09298e-14
3.09995e-14
3.13118e-14
3.19315e-14
3.25729e-14
3.24234e-14
3.30493e-14
3.38256e-14
3.41944e-14
3.46842e-14
3.51737e-14
3.59641e-14
3.69109e-14
3.76391e-14
3.90302e-14
3.97233e-14
4.00682e-14
4.06792e-14
4.13396e-14
4.17206e-14
4.23657e-14
4.2258e-14
4.2523e-14
4.34613e-14
4.38862e-14
4.43653e-14
4.50403e-14
4.55878e-14
4.626e-14
4.7119e-14
4.75969e-14
4.783e-14
4.87142e-14
4.95109e-14
5.06656e-14
5.06663e-14
5.07655e-14
5.20047e-14
5.2721e-14
5.29563e-14
5.29832e-14
5.32556e-14
5.38863e-14
5.45661e-14
5.53263e-14
5.54525e-14
5.59297e-14
5.67854e-14
5.73909e-14
5.80251e-14
5.84859e-14
5.93665e-14
6.04798e-14
6.06821e-14
6.17491e-14
6.25885e-14
6.28702e-14
6.33909e-14
6.38018e-14
6.45548e-14
6.51459e-14
6.58558e-14
6.62092e-14
6.67429e-14
6.72281e-14
6.75988e-14
6.80639e-14
6.85943e-14
6.91626e-14
6.96383e-14
7.03653e-14
7.06516e-14
7.10212e-14
7.1422e-14
7.17311e-14
7.26338e-14
7.33281e-14
7.42296e-14
7.48629e-14
7.53498e-14
7.57411e-14
7.66602e-14
7.7574e-14
7.82164e-14
7.83677e-14
7.87088e-14
7.95647e-14
7.96875e-14
8.05449e-14
8.07885e-14
8.12812e-14
8.15774e-14
8.22105e-14
8.26704e-14
8.32218e-14
8.3019e-14
8.31605e-14
8.45164e-14
8.538e-14
8.57409e-14
8.61892e-14
8.70478e-14
8.78858e-14
8.82916e-14
8.8927e-14
8.99079e-14
9.06295e-14
9.10539e-14
9.23276e-14
9.34266e-14
9.3649e-14
9.41973e-14
9.488e-14
9.54038e-14
9.59096e-14
9.6556e-14
9.69492e-14
9.79977e-14
9.86867e-14
9.93144e-14
9.99107e-14
1.00332e-13
1.00874e-13
1.01781e-13
1.02219e-13
1.02718e-13
1.03225e-13
1.04003e-13
1.04556e-13
1.04685e-13
1.04754e-13
1.05228e-13
1.05578e-13
1.05667e-13
1.05956e-13
1.06011e-13
1.06269e-13
1.06053e-13
1.05918e-13
1.0532e-13
1.05875e-13
1.06486e-13
1.06143e-13
1.05644e-13
1.05424e-13
1.05067e-13
1.05032e-13
1.05017e-13
1.051e-13
1.04712e-13
1.03545e-13
1.03427e-13
1.03098e-13
1.02214e-13
1.0144e-13
1.00899e-13
1.00492e-13
9.98194e-14
9.93732e-14
9.87763e-14
9.84573e-14
9.76521e-14
9.70338e-14
9.67282e-14
9.62978e-14
9.54198e-14
9.42989e-14
9.33766e-14
9.24867e-14
9.16686e-14
9.10672e-14
9.04758e-14
9.00411e-14
8.89338e-14
8.81932e-14
8.75756e-14
8.73184e-14
8.65304e-14
8.57681e-14
8.57552e-14
8.52382e-14
8.44969e-14
8.39097e-14
8.35292e-14
8.32199e-14
8.23934e-14
8.17865e-14
8.1668e-14
8.06489e-14
7.96835e-14
7.93766e-14
7.89214e-14
7.88415e-14
7.74711e-14
7.62472e-14
7.56106e-14
7.44788e-14
7.40179e-14
7.24608e-14
7.09285e-14
6.97852e-14
6.85251e-14
6.74843e-14
6.59625e-14
6.44304e-14
6.34442e-14
6.21109e-14
6.14044e-14
5.9642e-14
5.85654e-14
5.79081e-14
5.69033e-14
5.55237e-14
5.33869e-14
5.25823e-14
5.19128e-14
5.01106e-14
4.9123e-14
4.72896e-14
4.57465e-14
4.47729e-14
4.35696e-14
4.22956e-14
4.115e-14
3.98591e-14
3.83765e-14
3.66923e-14
3.53782e-14
3.46115e-14
3.38826e-14
3.28952e-14
3.20203e-14
3.16867e-14
3.14545e-14
3.11304e-14
3.07288e-14
3.01795e-14
2.95645e-14
2.92876e-14
2.92814e-14
2.9152e-14
2.94997e-14
2.96492e-14
2.9312e-14
2.90737e-14
2.91526e-14
2.89812e-14
2.85923e-14
2.86552e-14
2.88057e-14
2.84082e-14
2.8523e-14
2.85354e-14
2.84303e-14
2.86448e-14
2.90214e-14
2.94318e-14
2.95659e-14
2.96858e-14
2.95518e-14
2.93964e-14
2.94306e-14
2.93058e-14
2.96566e-14
2.99775e-14
2.99909e-14
3.03545e-14
3.06367e-14
3.06611e-14
3.07943e-14
3.07451e-14
3.03969e-14
3.06447e-14
3.05795e-14
3.06637e-14
3.05318e-14
3.04096e-14
3.01385e-14
2.97327e-14
2.95164e-14
2.95174e-14
2.93439e-14
2.92183e-14
2.86422e-14
2.83574e-14
2.81398e-14
2.788e-14
2.77002e-14
2.79329e-14
2.78621e-14
2.74451e-14
2.73249e-14
2.7438e-14
2.7319e-14
2.68786e-14
2.66333e-14
2.61876e-14
2.59752e-14
2.59315e-14
2.57099e-14
2.54287e-14
2.53628e-14
2.5683e-14
2.63165e-14
2.60099e-14
2.61837e-14
2.67086e-14
2.67427e-14
2.68967e-14
2.71254e-14
2.70824e-14
2.74664e-14
2.76703e-14
2.84239e-14
2.91028e-14
2.96573e-14
2.93914e-14
2.97432e-14
3.02867e-14
3.05422e-14
3.08449e-14
3.09909e-14
3.1323e-14
3.17572e-14
3.24048e-14
3.23796e-14
3.30629e-14
3.38505e-14
3.41612e-14
3.47686e-14
3.50688e-14
3.58588e-14
3.68068e-14
3.77142e-14
3.89479e-14
3.97317e-14
4.01207e-14
4.06968e-14
4.13949e-14
4.18534e-14
4.24264e-14
4.22884e-14
4.25151e-14
4.33049e-14
4.3936e-14
4.44812e-14
4.48913e-14
4.54815e-14
4.62482e-14
4.71515e-14
4.76478e-14
4.77543e-14
4.86036e-14
4.96494e-14
5.07646e-14
5.08444e-14
5.08527e-14
5.18384e-14
5.2628e-14
5.3033e-14
5.3177e-14
5.33556e-14
5.3782e-14
5.45211e-14
5.53681e-14
5.55684e-14
5.5946e-14
5.6615e-14
5.72465e-14
5.80332e-14
5.83964e-14
5.95918e-14
6.05451e-14
6.06563e-14
6.16397e-14
6.25215e-14
6.28827e-14
6.32799e-14
6.38883e-14
6.46322e-14
6.50024e-14
6.57896e-14
6.62823e-14
6.6685e-14
6.72877e-14
6.76019e-14
6.8137e-14
6.858e-14
6.8943e-14
6.96448e-14
7.02719e-14
7.0833e-14
7.09987e-14
7.13669e-14
7.18097e-14
7.26252e-14
7.31864e-14
7.40154e-14
7.50392e-14
7.53494e-14
7.57505e-14
7.66926e-14
7.74944e-14
7.81663e-14
7.8607e-14
7.86097e-14
7.93927e-14
7.97902e-14
8.05583e-14
8.10311e-14
8.12788e-14
8.16901e-14
8.21074e-14
8.25997e-14
8.30951e-14
8.28926e-14
8.32288e-14
8.43826e-14
8.53925e-14
8.58888e-14
8.62204e-14
8.70209e-14
8.7768e-14
8.8325e-14
8.89512e-14
8.9977e-14
9.0636e-14
9.11769e-14
9.23859e-14
9.32861e-14
9.37336e-14
9.42281e-14
9.48756e-14
9.54978e-14
9.58869e-14
9.65018e-14
9.70206e-14
9.79857e-14
9.86275e-14
9.94092e-14
9.99245e-14
1.00419e-13
1.00837e-13
1.01811e-13
1.02224e-13
1.02772e-13
1.03271e-13
1.04199e-13
1.04752e-13
1.04713e-13
1.04733e-13
1.05211e-13
1.05744e-13
1.05723e-13
1.05918e-13
1.06074e-13
1.05953e-13
1.06223e-13
1.05956e-13
1.0523e-13
1.05856e-13
1.06564e-13
1.06286e-13
1.05605e-13
1.05223e-13
1.05075e-13
1.04982e-13
1.05011e-13
1.05141e-13
1.05027e-13
1.0364e-13
1.03234e-13
1.0283e-13
1.02198e-13
1.01678e-13
1.00902e-13
1.00217e-13
9.98526e-14
9.94288e-14
9.89516e-14
9.84373e-14
9.76288e-14
9.73276e-14
9.67786e-14
9.60998e-14
9.52887e-14
9.44187e-14
9.36324e-14
9.24569e-14
9.15695e-14
9.10044e-14
9.03075e-14
8.97688e-14
8.89457e-14
8.81822e-14
8.75298e-14
8.73732e-14
8.66844e-14
8.57453e-14
8.5653e-14
8.51364e-14
8.44845e-14
8.40507e-14
8.3679e-14
8.3161e-14
8.2275e-14
8.18266e-14
8.16213e-14
8.06901e-14
7.98172e-14
7.93783e-14
7.88923e-14
7.87684e-14
7.75169e-14
7.6507e-14
7.56704e-14
7.44482e-14
7.41115e-14
7.2683e-14
7.08406e-14
6.97364e-14
6.85419e-14
6.72416e-14
6.59406e-14
6.46701e-14
6.36181e-14
6.19039e-14
6.10524e-14
5.98778e-14
5.87664e-14
5.78654e-14
5.69381e-14
5.55346e-14
5.37595e-14
5.25786e-14
5.16937e-14
5.02606e-14
4.92123e-14
4.73675e-14
4.58223e-14
4.49274e-14
4.37971e-14
4.25336e-14
4.12367e-14
4.00902e-14
3.87222e-14
3.71832e-14
3.54435e-14
3.47816e-14
3.42664e-14
3.33691e-14
3.25435e-14
3.23532e-14
3.1925e-14
3.14813e-14
3.09332e-14
3.03784e-14
2.97271e-14
2.93993e-14
2.96466e-14
2.93005e-14
2.97258e-14
2.97684e-14
2.9468e-14
2.91565e-14
2.91897e-14
2.91538e-14
2.8734e-14
2.8792e-14
2.88831e-14
2.8347e-14
2.84063e-14
2.85072e-14
2.83412e-14
2.85686e-14
2.90745e-14
2.96411e-14
2.96167e-14
2.9709e-14
2.94698e-14
2.93894e-14
2.93509e-14
2.91562e-14
2.97485e-14
3.02146e-14
3.00927e-14
3.03941e-14
3.08029e-14
3.06965e-14
3.08501e-14
3.06007e-14
3.04104e-14
3.07557e-14
3.04524e-14
3.05957e-14
3.04947e-14
3.05235e-14
3.01964e-14
2.97104e-14
2.95508e-14
2.96676e-14
2.9371e-14
2.93679e-14
2.84945e-14
2.81311e-14
2.82537e-14
2.78583e-14
2.75778e-14
2.80666e-14
2.80421e-14
2.72592e-14
2.74169e-14
2.75407e-14
2.73298e-14
2.66647e-14
2.66739e-14
2.61553e-14
2.58192e-14
2.57134e-14
2.54494e-14
2.53723e-14
2.52862e-14
2.56124e-14
2.64176e-14
2.5856e-14
2.5992e-14
2.67841e-14
2.68427e-14
2.66424e-14
2.71497e-14
2.70813e-14
2.74282e-14
2.76347e-14
2.84711e-14
2.93318e-14
2.97199e-14
2.92016e-14
2.94897e-14
3.01623e-14
3.04698e-14
3.06507e-14
3.12082e-14
3.14067e-14
3.15357e-14
3.21582e-14
3.23594e-14
3.31005e-14
3.38131e-14
3.4183e-14
3.47644e-14
3.49544e-14
3.57171e-14
3.68071e-14
3.7739e-14
3.89215e-14
3.96829e-14
4.00818e-14
4.07406e-14
4.15538e-14
4.21678e-14
4.24022e-14
4.23347e-14
4.25275e-14
4.30915e-14
4.41313e-14
4.44116e-14
4.47823e-14
4.53786e-14
4.62359e-14
4.70258e-14
4.77437e-14
4.78309e-14
4.84675e-14
4.97865e-14
5.08897e-14
5.10311e-14
5.10054e-14
5.16159e-14
5.23933e-14
5.31653e-14
5.33956e-14
5.33897e-14
5.38404e-14
5.43764e-14
5.5439e-14
5.56875e-14
5.5896e-14
5.63966e-14
5.72012e-14
5.80981e-14
5.84808e-14
5.97996e-14
6.05366e-14
6.07065e-14
6.1518e-14
6.23478e-14
6.28842e-14
6.32379e-14
6.38489e-14
6.46235e-14
6.50739e-14
6.55837e-14
6.63699e-14
6.66979e-14
6.71322e-14
6.76805e-14
6.81898e-14
6.85483e-14
6.88581e-14
6.95871e-14
7.03881e-14
7.07914e-14
7.08912e-14
7.12985e-14
7.19354e-14
7.25071e-14
7.29494e-14
7.37329e-14
7.52102e-14
7.55871e-14
7.57469e-14
7.65884e-14
7.74784e-14
7.82874e-14
7.87389e-14
7.83641e-14
7.916e-14
7.98586e-14
8.07365e-14
8.1192e-14
8.13163e-14
8.1665e-14
8.21094e-14
8.26166e-14
8.304e-14
8.27403e-14
8.31804e-14
8.40171e-14
8.53625e-14
8.6074e-14
8.63079e-14
8.69741e-14
8.76453e-14
8.84319e-14
8.90049e-14
8.99771e-14
9.08201e-14
9.13514e-14
9.23707e-14
9.30938e-14
9.37845e-14
9.43681e-14
9.4969e-14
9.54809e-14
9.58507e-14
9.64609e-14
9.70096e-14
9.78406e-14
9.88489e-14
9.9523e-14
9.97964e-14
1.00427e-13
1.00869e-13
1.01898e-13
1.0237e-13
1.02865e-13
1.03271e-13
1.04444e-13
1.04797e-13
1.04745e-13
1.04695e-13
1.0513e-13
1.05882e-13
1.05701e-13
1.05949e-13
1.06172e-13
1.05823e-13
1.06311e-13
1.05912e-13
1.05331e-13
1.05981e-13
1.06578e-13
1.06329e-13
1.054e-13
1.05168e-13
1.0527e-13
1.04964e-13
1.05079e-13
1.05137e-13
1.05056e-13
1.03683e-13
1.03217e-13
1.02606e-13
1.02087e-13
1.01847e-13
1.01147e-13
9.99971e-14
9.95326e-14
9.95165e-14
9.93002e-14
9.83604e-14
9.75744e-14
9.76579e-14
9.70329e-14
9.58121e-14
9.51e-14
9.4605e-14
9.36371e-14
9.22778e-14
9.15096e-14
9.09734e-14
9.013e-14
8.9574e-14
8.90383e-14
8.81531e-14
8.74596e-14
8.74547e-14
8.69581e-14
8.58283e-14
8.5434e-14
8.48626e-14
8.46292e-14
8.42178e-14
8.37956e-14
8.28798e-14
8.23011e-14
8.2041e-14
8.13646e-14
8.06365e-14
8.00235e-14
7.94461e-14
7.89264e-14
7.86359e-14
7.7528e-14
7.66456e-14
7.58615e-14
7.44632e-14
7.40563e-14
7.30103e-14
7.10858e-14
6.97795e-14
6.83137e-14
6.70014e-14
6.58778e-14
6.49255e-14
6.37937e-14
6.16834e-14
6.07323e-14
6.01048e-14
5.89099e-14
5.79721e-14
5.70416e-14
5.55622e-14
5.41771e-14
5.26184e-14
5.15151e-14
5.0551e-14
4.91718e-14
4.75895e-14
4.59221e-14
4.49805e-14
4.42003e-14
4.25341e-14
4.14808e-14
4.04911e-14
3.90554e-14
3.75897e-14
3.55515e-14
3.50571e-14
3.45983e-14
3.37812e-14
3.29606e-14
3.29749e-14
3.25213e-14
3.18564e-14
3.12698e-14
3.07906e-14
3.00073e-14
2.95339e-14
2.99716e-14
2.95316e-14
2.99081e-14
2.98382e-14
2.95018e-14
2.94067e-14
2.93913e-14
2.95328e-14
2.89138e-14
2.87444e-14
2.89505e-14
2.84274e-14
2.82893e-14
2.83666e-14
2.8318e-14
2.8639e-14
2.91927e-14
2.99227e-14
2.96824e-14
2.96978e-14
2.93981e-14
2.93433e-14
2.92623e-14
2.91494e-14
2.98591e-14
3.03347e-14
3.02649e-14
3.04724e-14
3.09495e-14
3.09252e-14
3.06303e-14
3.05244e-14
3.06733e-14
3.06173e-14
3.06824e-14
3.0519e-14
3.04579e-14
3.03742e-14
3.02249e-14
2.97788e-14
2.96472e-14
2.97512e-14
2.95177e-14
2.94296e-14
2.84941e-14
2.78627e-14
2.83246e-14
2.79625e-14
2.75618e-14
2.82649e-14
2.79942e-14
2.72983e-14
2.75202e-14
2.77427e-14
2.72217e-14
2.63757e-14
2.672e-14
2.62006e-14
2.58047e-14
2.55772e-14
2.49568e-14
2.52415e-14
2.53541e-14
2.56589e-14
2.63897e-14
2.59572e-14
2.59765e-14
2.67151e-14
2.67615e-14
2.65293e-14
2.70822e-14
2.71922e-14
2.74547e-14
2.76129e-14
2.86456e-14
2.94627e-14
2.95819e-14
2.91609e-14
2.94575e-14
2.98508e-14
3.06226e-14
3.07508e-14
3.12287e-14
3.13846e-14
3.12255e-14
3.21233e-14
3.23904e-14
3.31031e-14
3.3702e-14
3.40088e-14
3.48464e-14
3.48459e-14
3.53787e-14
3.69721e-14
3.77828e-14
3.90094e-14
3.9608e-14
4.01921e-14
4.0595e-14
4.16227e-14
4.23517e-14
4.25759e-14
4.23329e-14
4.24833e-14
4.31337e-14
4.42689e-14
4.43258e-14
4.461e-14
4.53531e-14
4.61998e-14
4.6766e-14
4.78308e-14
4.79499e-14
4.86071e-14
4.99428e-14
5.12775e-14
5.11934e-14
5.0888e-14
5.14771e-14
5.25306e-14
5.31924e-14
5.34887e-14
5.33482e-14
5.38451e-14
5.43794e-14
5.55353e-14
5.56125e-14
5.5773e-14
5.62003e-14
5.71209e-14
5.82097e-14
5.85946e-14
5.98975e-14
6.04568e-14
6.07863e-14
6.15832e-14
6.22539e-14
6.2898e-14
6.31005e-14
6.36665e-14
6.46969e-14
6.50465e-14
6.56274e-14
6.61582e-14
6.66569e-14
6.70457e-14
6.7541e-14
6.84454e-14
6.8472e-14
6.90231e-14
6.9599e-14
7.03742e-14
7.07935e-14
7.08112e-14
7.12198e-14
7.17817e-14
7.22411e-14
7.30785e-14
7.36835e-14
7.48905e-14
7.54753e-14
7.60759e-14
7.66062e-14
7.72313e-14
7.80916e-14
7.87579e-14
7.85295e-14
7.89891e-14
7.99355e-14
8.07991e-14
8.12857e-14
8.13763e-14
8.16799e-14
8.22341e-14
8.2437e-14
8.30606e-14
8.28314e-14
8.3089e-14
8.37405e-14
8.50519e-14
8.63872e-14
8.65922e-14
8.69227e-14
8.76345e-14
8.84284e-14
8.91834e-14
9.02334e-14
9.09348e-14
9.127e-14
9.24055e-14
9.30909e-14
9.38615e-14
9.45458e-14
9.51062e-14
9.53925e-14
9.56697e-14
9.66431e-14
9.70211e-14
9.78331e-14
9.8913e-14
9.94997e-14
9.98665e-14
1.00384e-13