/*--------------------------------*- C++ -*----------------------------------*\
| =========                 |                                                 |
| \\      /  F ield         | OpenFOAM: The Open Source CFD Toolbox           |
|  \\    /   O peration     | Version:  2112                                  |
|   \\  /    A nd           | Website:  www.openfoam.com                      |
|    \\/     M anipulation  |                                                 |
\*---------------------------------------------------------------------------*/
FoamFile
{
    version     2.0;
    format      ascii;
    arch        "LSB;label=32;scalar=64";
    class       volScalarField;
    location    "3";
    object      p;
}
// * * * * * * * * * * * * * * * * * * * * * * * * * * * * * * * * * * * * * //

dimensions      [0 2 -2 0 0 0 0];

internalField   nonuniform List<scalar> 
50000
(
2.61207e-15
-7.82753e-15
-1.79793e-14
-2.49484e-14
-2.98311e-14
-3.34394e-14
-3.62568e-14
-3.85931e-14
-4.07333e-14
-4.25563e-14
-4.41136e-14
-4.5479e-14
-4.67424e-14
-4.79447e-14
-4.89778e-14
-4.98008e-14
-5.05202e-14
-5.12868e-14
-5.20638e-14
-5.28036e-14
-5.34233e-14
-5.39468e-14
-5.44383e-14
-5.47737e-14
-5.49661e-14
-5.51873e-14
-5.54883e-14
-5.56824e-14
-5.57051e-14
-5.59198e-14
-5.60534e-14
-5.60891e-14
-5.61379e-14
-5.62887e-14
-5.63331e-14
-5.64198e-14
-5.62898e-14
-5.63215e-14
-5.63754e-14
-5.63622e-14
-5.64462e-14
-5.64069e-14
-5.64099e-14
-5.64231e-14
-5.62644e-14
-5.63006e-14
-5.61682e-14
-5.58611e-14
-5.59739e-14
-5.61596e-14
-5.5986e-14
-5.57241e-14
-5.54285e-14
-5.52896e-14
-5.51528e-14
-5.4842e-14
-5.48916e-14
-5.45185e-14
-5.41128e-14
-5.39023e-14
-5.36112e-14
-5.32795e-14
-5.31231e-14
-5.31089e-14
-5.29607e-14
-5.2903e-14
-5.27228e-14
-5.25489e-14
-5.24977e-14
-5.22478e-14
-5.2101e-14
-5.2205e-14
-5.21929e-14
-5.18691e-14
-5.18597e-14
-5.22748e-14
-5.21716e-14
-5.20454e-14
-5.23124e-14
-5.25135e-14
-5.22301e-14
-5.1855e-14
-5.17264e-14
-5.14472e-14
-5.11471e-14
-5.13216e-14
-5.12382e-14
-5.11939e-14
-5.11991e-14
-5.11845e-14
-5.12099e-14
-5.11285e-14
-5.10162e-14
-5.08689e-14
-5.06409e-14
-5.0207e-14
-5.03582e-14
-5.02914e-14
-4.96094e-14
-4.92934e-14
-4.93938e-14
-4.92234e-14
-4.87598e-14
-4.8466e-14
-4.83668e-14
-4.8027e-14
-4.78085e-14
-4.78414e-14
-4.79714e-14
-4.79098e-14
-4.73318e-14
-4.69855e-14
-4.70522e-14
-4.71958e-14
-4.69398e-14
-4.66389e-14
-4.68356e-14
-4.72617e-14
-4.72828e-14
-4.70582e-14
-4.72071e-14
-4.76577e-14
-4.8052e-14
-4.80219e-14
-4.80573e-14
-4.86254e-14
-4.88182e-14
-4.88982e-14
-4.93577e-14
-4.97407e-14
-5.01923e-14
-5.06652e-14
-5.14127e-14
-5.15464e-14
-5.19971e-14
-5.30303e-14
-5.36557e-14
-5.41946e-14
-5.50938e-14
-5.56321e-14
-5.57734e-14
-5.66575e-14
-5.7991e-14
-5.8841e-14
-5.90378e-14
-5.9921e-14
-6.09597e-14
-6.10719e-14
-6.16338e-14
-6.27629e-14
-6.31083e-14
-6.39106e-14
-6.47625e-14
-6.45349e-14
-6.5188e-14
-6.59998e-14
-6.61958e-14
-6.69914e-14
-6.7584e-14
-6.8325e-14
-6.86245e-14
-6.88522e-14
-6.94082e-14
-7.01242e-14
-7.07278e-14
-7.12688e-14
-7.18259e-14
-7.20008e-14
-7.32687e-14
-7.3926e-14
-7.3878e-14
-7.50403e-14
-7.59414e-14
-7.61681e-14
-7.69176e-14
-7.77453e-14
-7.85031e-14
-7.87821e-14
-7.92663e-14
-8.03196e-14
-8.04856e-14
-8.09106e-14
-8.17018e-14
-8.22636e-14
-8.33848e-14
-8.37109e-14
-8.39598e-14
-8.49112e-14
-8.55401e-14
-8.60131e-14
-8.64353e-14
-8.71158e-14
-8.79174e-14
-8.90591e-14
-8.94652e-14
-8.97689e-14
-9.06203e-14
-9.09028e-14
-9.09677e-14
-9.19014e-14
-9.30284e-14
-9.35268e-14
-9.49725e-14
-9.56869e-14
-9.64732e-14
-9.7282e-14
-9.74897e-14
-9.86157e-14
-1.00115e-13
-1.0123e-13
-1.02448e-13
-1.03364e-13
-1.04174e-13
-1.05632e-13
-1.06134e-13
-1.07214e-13
-1.08179e-13
-1.09291e-13
-1.10837e-13
-1.11902e-13
-1.12499e-13
-1.13332e-13
-1.14745e-13
-1.15916e-13
-1.17609e-13
-1.1905e-13
-1.20623e-13
-1.22368e-13
-1.23867e-13
-1.24937e-13
-1.26138e-13
-1.27415e-13
-1.29264e-13
-1.30896e-13
-1.32032e-13
-1.3396e-13
-1.3536e-13
-1.36711e-13
-1.37804e-13
-1.39403e-13
-1.40966e-13
-1.4247e-13
-1.44496e-13
-1.46448e-13
-1.47434e-13
-1.48863e-13
-1.50639e-13
-1.51515e-13
-1.52989e-13
-1.54419e-13
-1.55826e-13
-1.57312e-13
-1.58914e-13
-1.59588e-13
-1.60762e-13
-1.62531e-13
-1.63446e-13
-1.64491e-13
-1.66175e-13
-1.67049e-13
-1.68527e-13
-1.69889e-13
-1.70069e-13
-1.71345e-13
-1.71688e-13
-1.72651e-13
-1.74313e-13
-1.73854e-13
-1.75004e-13
-1.77049e-13
-1.76085e-13
-1.76717e-13
-1.78106e-13
-1.78466e-13
-1.79774e-13
-1.80114e-13
-1.81238e-13
-1.82793e-13
-1.83492e-13
-1.83741e-13
-1.84588e-13
-1.85711e-13
-1.87043e-13
-1.8815e-13
-1.88075e-13
-1.89869e-13
-1.90156e-13
-1.90249e-13
-1.9203e-13
-1.9249e-13
-1.92158e-13
-1.93457e-13
-1.94297e-13
-1.94828e-13
-1.96682e-13
-1.96413e-13
-1.95715e-13
-1.972e-13
-1.97618e-13
-1.9788e-13
-1.99344e-13
-1.98793e-13
-1.99387e-13
-2.00828e-13
-1.9956e-13
-1.99425e-13
-2.00881e-13
-2.00428e-13
-2.00767e-13
-2.02174e-13
-2.01708e-13
-2.00909e-13
-2.01883e-13
-2.01948e-13
-2.01573e-13
-2.02085e-13
-2.01657e-13
-2.01531e-13
-2.01754e-13
-2.02048e-13
-2.01665e-13
-2.00659e-13
-1.99948e-13
-2.00115e-13
-2.00542e-13
-1.99389e-13
-1.98846e-13
-1.99077e-13
-1.99476e-13
-1.98757e-13
-1.96826e-13
-1.97113e-13
-1.97237e-13
-1.95917e-13
-1.96398e-13
-1.96029e-13
-1.94286e-13
-1.95127e-13
-1.94252e-13
-1.92267e-13
-1.92275e-13
-1.91483e-13
-1.90588e-13
-1.90426e-13
-1.89813e-13
-1.88254e-13
-1.86733e-13
-1.85161e-13
-1.84295e-13
-1.83857e-13
-1.8223e-13
-1.80883e-13
-1.80602e-13
-1.80057e-13
-1.78329e-13
-1.76707e-13
-1.75193e-13
-1.74501e-13
-1.74106e-13
-1.72558e-13
-1.71744e-13
-1.69948e-13
-1.6947e-13
-1.69363e-13
-1.66966e-13
-1.66053e-13
-1.65312e-13
-1.64251e-13
-1.63403e-13
-1.63473e-13
-1.61746e-13
-1.59702e-13
-1.5886e-13
-1.58196e-13
-1.57676e-13
-1.56219e-13
-1.55387e-13
-1.53951e-13
-1.53832e-13
-1.52438e-13
-1.50512e-13
-1.4954e-13
-1.4888e-13
-1.47756e-13
-1.46309e-13
-1.46032e-13
-1.44195e-13
-1.4389e-13
-1.42893e-13
-1.4104e-13
-1.39929e-13
-1.3922e-13
-1.37787e-13
-1.36302e-13
-1.36573e-13
-1.35109e-13
-1.328e-13
-1.31713e-13
-1.31027e-13
-1.30405e-13
-1.30051e-13
-1.2929e-13
-1.26402e-13
-1.25296e-13
-1.24839e-13
-1.24888e-13
-1.23457e-13
-1.20477e-13
-1.20436e-13
-1.20503e-13
-1.19228e-13
-1.16397e-13
-1.16302e-13
-1.15833e-13
-1.14255e-13
-1.13362e-13
-1.11787e-13
-1.11734e-13
-1.11617e-13
-1.10143e-13
-1.07825e-13
-1.07856e-13
-1.08751e-13
-1.065e-13
-1.05334e-13
-1.05261e-13
-1.04685e-13
-1.03763e-13
-1.03004e-13
-1.01317e-13
-1.0069e-13
-1.01303e-13
-9.89676e-14
-9.69671e-14
-9.76924e-14
-9.83121e-14
-9.54723e-14
-9.43365e-14
-9.32928e-14
-9.19088e-14
-9.23246e-14
-8.97553e-14
-8.88132e-14
-8.82571e-14
-8.82144e-14
-8.69364e-14
-8.51438e-14
-8.46412e-14
-8.33937e-14
-8.32495e-14
-8.16336e-14
-8.0787e-14
-7.9473e-14
-7.94235e-14
-7.83506e-14
-7.71449e-14
-7.70318e-14
-7.60704e-14
-7.49205e-14
-7.2643e-14
-7.38109e-14
-7.30445e-14
-7.19946e-14
-7.06607e-14
-6.81655e-14
-6.88101e-14
-6.84459e-14
-6.68094e-14
-6.5366e-14
-6.52756e-14
-6.40322e-14
-6.34696e-14
-6.26252e-14
-6.10625e-14
-6.0849e-14
-5.95264e-14
-5.83662e-14
-5.63628e-14
-5.63484e-14
-5.60634e-14
-5.4883e-14
-5.33417e-14
-5.21417e-14
-5.21937e-14
-4.9875e-14
-4.94748e-14
-4.85034e-14
-4.74202e-14
-4.72568e-14
-4.45015e-14
-4.28164e-14
-4.27181e-14
-4.14139e-14
-3.82662e-14
-3.6478e-14
-3.36551e-14
-3.05932e-14
-2.63655e-14
-1.86399e-14
-8.87906e-15
-4.56589e-15
-1.09173e-14
-1.91926e-14
-2.54877e-14
-3.01251e-14
-3.36149e-14
-3.63899e-14
-3.86746e-14
-4.07879e-14
-4.26114e-14
-4.41781e-14
-4.55336e-14
-4.67782e-14
-4.79795e-14
-4.8989e-14
-4.98405e-14
-5.05397e-14
-5.12897e-14
-5.20709e-14
-5.28152e-14
-5.34561e-14
-5.39795e-14
-5.44235e-14
-5.47864e-14
-5.49844e-14
-5.51892e-14
-5.55001e-14
-5.56714e-14
-5.57551e-14
-5.59272e-14
-5.60351e-14
-5.61401e-14
-5.61441e-14
-5.62396e-14
-5.63783e-14
-5.64587e-14
-5.62745e-14
-5.63314e-14
-5.63986e-14
-5.64085e-14
-5.64335e-14
-5.64795e-14
-5.6401e-14
-5.63777e-14
-5.63206e-14
-5.62887e-14
-5.61347e-14
-5.58633e-14
-5.5968e-14
-5.61563e-14
-5.59951e-14
-5.57014e-14
-5.54633e-14
-5.53034e-14
-5.50881e-14
-5.48351e-14
-5.4912e-14
-5.45751e-14
-5.41609e-14
-5.38744e-14
-5.35658e-14
-5.33061e-14
-5.31185e-14
-5.30549e-14
-5.30376e-14
-5.28787e-14
-5.27002e-14
-5.2562e-14
-5.24348e-14
-5.22985e-14
-5.21536e-14
-5.21835e-14
-5.2094e-14
-5.18895e-14
-5.18959e-14
-5.21383e-14
-5.21565e-14
-5.21184e-14
-5.22929e-14
-5.24944e-14
-5.22382e-14
-5.18655e-14
-5.16615e-14
-5.14568e-14
-5.12995e-14
-5.1207e-14
-5.1182e-14
-5.13095e-14
-5.12015e-14
-5.12196e-14
-5.12143e-14
-5.10571e-14
-5.10165e-14
-5.08946e-14
-5.06403e-14
-5.03178e-14
-5.0326e-14
-5.01936e-14
-4.96137e-14
-4.92713e-14
-4.9412e-14
-4.91811e-14
-4.87863e-14
-4.84341e-14
-4.82909e-14
-4.81736e-14
-4.78523e-14
-4.77386e-14
-4.79377e-14
-4.78023e-14
-4.73795e-14
-4.71463e-14
-4.70292e-14
-4.7075e-14
-4.6871e-14
-4.67275e-14
-4.69763e-14
-4.72923e-14
-4.7198e-14
-4.70225e-14
-4.72075e-14
-4.76471e-14
-4.79718e-14
-4.80285e-14
-4.82495e-14
-4.85335e-14
-4.86978e-14
-4.89375e-14
-4.93591e-14
-4.97245e-14
-5.02671e-14
-5.06161e-14
-5.12226e-14
-5.15969e-14
-5.20891e-14
-5.29508e-14
-5.35676e-14
-5.42621e-14
-5.5069e-14
-5.55956e-14
-5.59274e-14
-5.6705e-14
-5.79812e-14
-5.87315e-14
-5.89849e-14
-5.98965e-14
-6.08551e-14
-6.11288e-14
-6.16969e-14
-6.2629e-14
-6.32078e-14
-6.40178e-14
-6.45564e-14
-6.46457e-14
-6.52541e-14
-6.58817e-14
-6.63534e-14
-6.70332e-14
-6.75008e-14
-6.82319e-14
-6.86347e-14
-6.88742e-14
-6.94349e-14
-7.00951e-14
-7.07437e-14
-7.12353e-14
-7.17677e-14
-7.22421e-14
-7.31288e-14
-7.38217e-14
-7.41159e-14
-7.48458e-14
-7.5734e-14
-7.64923e-14
-7.69355e-14
-7.76698e-14
-7.84726e-14
-7.87202e-14
-7.92967e-14
-8.03119e-14
-8.05748e-14
-8.09469e-14
-8.16798e-14
-8.22739e-14
-8.31709e-14
-8.36879e-14
-8.40719e-14
-8.47923e-14
-8.55796e-14
-8.60339e-14
-8.6485e-14
-8.71974e-14
-8.80363e-14
-8.89507e-14
-8.92675e-14
-8.98306e-14
-9.05802e-14
-9.07516e-14
-9.11867e-14
-9.2135e-14
-9.28978e-14
-9.35567e-14
-9.485e-14
-9.55527e-14
-9.64603e-14
-9.7352e-14
-9.75636e-14
-9.85274e-14
-1.00044e-13
-1.01296e-13
-1.02365e-13
-1.03439e-13
-1.04334e-13
-1.05439e-13
-1.06208e-13
-1.07324e-13
-1.08118e-13
-1.09255e-13
-1.10799e-13
-1.11709e-13
-1.12493e-13
-1.13543e-13
-1.14871e-13
-1.16028e-13
-1.17541e-13
-1.1899e-13
-1.20513e-13
-1.22225e-13
-1.2383e-13
-1.24844e-13
-1.26278e-13
-1.27712e-13
-1.29162e-13
-1.30901e-13
-1.32178e-13
-1.3382e-13
-1.353e-13
-1.3654e-13
-1.37968e-13
-1.39404e-13
-1.41013e-13
-1.42658e-13
-1.44299e-13
-1.4628e-13
-1.47581e-13
-1.4886e-13
-1.50482e-13
-1.51657e-13
-1.53066e-13
-1.54645e-13
-1.55863e-13
-1.57181e-13
-1.58657e-13
-1.59671e-13
-1.60865e-13
-1.62383e-13
-1.63644e-13
-1.64681e-13
-1.66033e-13
-1.6701e-13
-1.68487e-13
-1.69725e-13
-1.70369e-13
-1.71276e-13
-1.71696e-13
-1.72606e-13
-1.7422e-13
-1.74212e-13
-1.74972e-13
-1.7657e-13
-1.76391e-13
-1.76925e-13
-1.78019e-13
-1.7856e-13
-1.79469e-13
-1.80474e-13
-1.81213e-13
-1.82354e-13
-1.83374e-13
-1.84034e-13
-1.84726e-13
-1.85625e-13
-1.87037e-13
-1.88189e-13
-1.88116e-13
-1.8951e-13
-1.90345e-13
-1.90421e-13
-1.91903e-13
-1.92305e-13
-1.92289e-13
-1.93458e-13
-1.94358e-13
-1.9494e-13
-1.9631e-13
-1.96228e-13
-1.96251e-13
-1.97213e-13
-1.97554e-13
-1.98104e-13
-1.98989e-13
-1.99123e-13
-1.99358e-13
-2.00325e-13
-1.99861e-13
-1.99607e-13
-2.00552e-13
-2.00693e-13
-2.01016e-13
-2.01751e-13
-2.01702e-13
-2.01264e-13
-2.01724e-13
-2.0194e-13
-2.01697e-13
-2.01801e-13
-2.01828e-13
-2.01745e-13
-2.01564e-13
-2.01834e-13
-2.01642e-13
-2.00709e-13
-2.003e-13
-2.00391e-13
-2.00161e-13
-1.99397e-13
-1.99033e-13
-1.99082e-13
-1.99027e-13
-1.98576e-13
-1.9732e-13
-1.97064e-13
-1.9706e-13
-1.96335e-13
-1.96104e-13
-1.95721e-13
-1.94933e-13
-1.9471e-13
-1.9401e-13
-1.92866e-13
-1.9215e-13
-1.91246e-13
-1.91009e-13
-1.90303e-13
-1.89225e-13
-1.88326e-13
-1.86916e-13
-1.8536e-13
-1.84613e-13
-1.83692e-13
-1.81979e-13
-1.813e-13
-1.8049e-13
-1.79467e-13
-1.78417e-13
-1.76848e-13
-1.75442e-13
-1.74739e-13
-1.7378e-13
-1.7253e-13
-1.71822e-13
-1.70026e-13
-1.69369e-13
-1.69069e-13
-1.67313e-13
-1.66112e-13
-1.65252e-13
-1.64347e-13
-1.63412e-13
-1.63061e-13
-1.61538e-13
-1.59999e-13
-1.59222e-13
-1.58265e-13
-1.57319e-13
-1.56227e-13
-1.55363e-13
-1.5421e-13
-1.53633e-13
-1.52161e-13
-1.50693e-13
-1.49766e-13
-1.48927e-13
-1.47663e-13
-1.46256e-13
-1.4608e-13
-1.44474e-13
-1.43357e-13
-1.4286e-13
-1.41441e-13
-1.39771e-13
-1.38996e-13
-1.38008e-13
-1.36487e-13
-1.36335e-13
-1.34659e-13
-1.328e-13
-1.32347e-13
-1.31353e-13
-1.30258e-13
-1.29737e-13
-1.28923e-13
-1.26761e-13
-1.25709e-13
-1.2463e-13
-1.24313e-13
-1.23639e-13
-1.21028e-13
-1.20136e-13
-1.20246e-13
-1.1928e-13
-1.1675e-13
-1.1628e-13
-1.15647e-13
-1.14179e-13
-1.13191e-13
-1.11989e-13
-1.11927e-13
-1.11238e-13
-1.09954e-13
-1.0838e-13
-1.08028e-13
-1.08083e-13
-1.0679e-13
-1.05679e-13
-1.04975e-13
-1.04677e-13
-1.03726e-13
-1.02873e-13
-1.01533e-13
-1.00812e-13
-1.00844e-13
-9.93069e-14
-9.73197e-14
-9.73364e-14
-9.79571e-14
-9.57244e-14
-9.43761e-14
-9.33584e-14
-9.21905e-14
-9.16912e-14
-9.00062e-14
-8.88988e-14
-8.84104e-14
-8.8082e-14
-8.67629e-14
-8.54113e-14
-8.45848e-14
-8.35677e-14
-8.30338e-14
-8.14897e-14
-8.04749e-14
-7.99502e-14
-7.93132e-14
-7.81827e-14
-7.74205e-14
-7.68675e-14
-7.59027e-14
-7.49785e-14
-7.3094e-14
-7.33843e-14
-7.32952e-14
-7.1769e-14
-7.0227e-14
-6.90419e-14
-6.88706e-14
-6.76859e-14
-6.67372e-14
-6.60453e-14
-6.506e-14
-6.40137e-14
-6.347e-14
-6.26641e-14
-6.13535e-14
-6.05259e-14
-5.94128e-14
-5.79964e-14
-5.67193e-14
-5.67551e-14
-5.56808e-14
-5.44982e-14
-5.37306e-14
-5.25109e-14
-5.15724e-14
-5.01173e-14
-4.95529e-14
-4.85643e-14
-4.77211e-14
-4.65953e-14
-4.45024e-14
-4.35958e-14
-4.28021e-14
-4.07844e-14
-3.85906e-14
-3.66476e-14
-3.38584e-14
-3.08241e-14
-2.65593e-14
-2.01668e-14
-1.19349e-14
-1.11679e-14
-1.4741e-14
-2.08935e-14
-2.64003e-14
-3.06276e-14
-3.39395e-14
-3.66341e-14
-3.885e-14
-4.09386e-14
-4.27151e-14
-4.42904e-14
-4.5594e-14
-4.68149e-14
-4.8072e-14
-4.90296e-14
-4.9888e-14
-5.05547e-14
-5.13105e-14
-5.20975e-14
-5.28003e-14
-5.35297e-14
-5.40332e-14
-5.44256e-14
-5.48216e-14
-5.50075e-14
-5.52016e-14
-5.5543e-14
-5.56688e-14
-5.57828e-14
-5.59288e-14
-5.60364e-14
-5.61655e-14
-5.6142e-14
-5.62057e-14
-5.64429e-14
-5.65096e-14
-5.62787e-14
-5.63276e-14
-5.63795e-14
-5.63785e-14
-5.64518e-14
-5.65608e-14
-5.64527e-14
-5.63676e-14
-5.63591e-14
-5.62582e-14
-5.60962e-14
-5.5873e-14
-5.59481e-14
-5.61238e-14
-5.6004e-14
-5.57657e-14
-5.54962e-14
-5.52586e-14
-5.50428e-14
-5.48578e-14
-5.49235e-14
-5.4659e-14
-5.42034e-14
-5.38179e-14
-5.35111e-14
-5.33043e-14
-5.3179e-14
-5.29771e-14
-5.30526e-14
-5.28407e-14
-5.27281e-14
-5.25912e-14
-5.23966e-14
-5.22975e-14
-5.2175e-14
-5.21708e-14
-5.20551e-14
-5.18681e-14
-5.1933e-14
-5.20623e-14
-5.21197e-14
-5.21597e-14
-5.23171e-14
-5.25316e-14
-5.2238e-14
-5.1834e-14
-5.16064e-14
-5.1466e-14
-5.13576e-14
-5.11681e-14
-5.11823e-14
-5.1334e-14
-5.12295e-14
-5.13012e-14
-5.12577e-14
-5.10246e-14
-5.09537e-14
-5.08527e-14
-5.06257e-14
-5.04654e-14
-5.03143e-14
-5.00596e-14
-4.96165e-14
-4.93226e-14
-4.93341e-14
-4.9192e-14
-4.87901e-14
-4.84004e-14
-4.83122e-14
-4.82375e-14
-4.78442e-14
-4.76833e-14
-4.78927e-14
-4.77124e-14
-4.7413e-14
-4.72309e-14
-4.7055e-14
-4.68649e-14
-4.67986e-14
-4.69678e-14
-4.70946e-14
-4.71978e-14
-4.71563e-14
-4.70306e-14
-4.72551e-14
-4.76091e-14
-4.79152e-14
-4.80378e-14
-4.83051e-14
-4.84596e-14
-4.8729e-14
-4.88989e-14
-4.9263e-14
-4.9714e-14
-5.02593e-14
-5.05954e-14
-5.11168e-14
-5.16502e-14
-5.21135e-14
-5.28443e-14
-5.35587e-14
-5.43234e-14
-5.50155e-14
-5.54987e-14
-5.60758e-14
-5.68183e-14
-5.78589e-14
-5.861e-14
-5.90496e-14
-5.99209e-14
-6.07252e-14
-6.10874e-14
-6.17882e-14
-6.25733e-14
-6.32724e-14
-6.4091e-14
-6.44179e-14
-6.46722e-14
-6.53191e-14
-6.5825e-14
-6.63901e-14
-6.70357e-14
-6.75111e-14
-6.82601e-14
-6.86638e-14
-6.88729e-14
-6.9344e-14
-7.00512e-14
-7.07825e-14
-7.1193e-14
-7.17256e-14
-7.23123e-14
-7.31282e-14
-7.37564e-14
-7.41655e-14
-7.48495e-14
-7.56353e-14
-7.65521e-14
-7.70222e-14
-7.77103e-14
-7.83638e-14
-7.87078e-14
-7.93353e-14
-8.02849e-14
-8.06543e-14
-8.09556e-14
-8.1719e-14
-8.22619e-14
-8.29145e-14
-8.36302e-14
-8.41983e-14
-8.47103e-14
-8.55589e-14
-8.60805e-14
-8.65208e-14
-8.73012e-14
-8.81059e-14
-8.88104e-14
-8.92343e-14
-8.97377e-14
-9.04677e-14
-9.08668e-14
-9.13914e-14
-9.22331e-14
-9.28629e-14
-9.35835e-14
-9.46e-14
-9.54774e-14
-9.64924e-14
-9.72453e-14
-9.76363e-14
-9.86144e-14
-9.99782e-14
-1.01291e-13
-1.02316e-13
-1.03382e-13
-1.04485e-13
-1.05453e-13
-1.06176e-13
-1.07399e-13
-1.08188e-13
-1.09199e-13
-1.10635e-13
-1.11602e-13
-1.12547e-13
-1.13726e-13
-1.14822e-13
-1.16176e-13
-1.1751e-13
-1.18909e-13
-1.20496e-13
-1.21999e-13
-1.23673e-13
-1.2493e-13
-1.26422e-13
-1.27846e-13
-1.29256e-13
-1.30791e-13
-1.32234e-13
-1.33743e-13
-1.35179e-13
-1.36522e-13
-1.38056e-13
-1.39341e-13
-1.41101e-13
-1.42848e-13
-1.44199e-13
-1.46135e-13
-1.47605e-13
-1.49026e-13
-1.50361e-13
-1.51594e-13
-1.53156e-13
-1.54805e-13
-1.5587e-13
-1.5716e-13
-1.58477e-13
-1.59731e-13
-1.61125e-13
-1.62217e-13
-1.63635e-13
-1.6481e-13
-1.66047e-13
-1.66949e-13
-1.68438e-13
-1.6962e-13
-1.70485e-13
-1.71294e-13
-1.71874e-13
-1.72621e-13
-1.7404e-13
-1.74521e-13
-1.74953e-13
-1.76121e-13
-1.76536e-13
-1.77143e-13
-1.78133e-13
-1.7853e-13
-1.792e-13
-1.80836e-13
-1.8124e-13
-1.81893e-13
-1.83263e-13
-1.84156e-13
-1.8487e-13
-1.85681e-13
-1.87099e-13
-1.88115e-13
-1.8817e-13
-1.89319e-13
-1.90381e-13
-1.9052e-13
-1.9182e-13
-1.92342e-13
-1.9233e-13
-1.9337e-13
-1.9457e-13
-1.95005e-13
-1.95892e-13
-1.96168e-13
-1.96523e-13
-1.97274e-13
-1.97641e-13
-1.98149e-13
-1.98824e-13
-1.99417e-13
-1.99358e-13
-1.99891e-13
-2.00016e-13
-1.99728e-13
-2.00474e-13
-2.00942e-13
-2.01117e-13
-2.01452e-13
-2.01772e-13
-2.01532e-13
-2.01519e-13
-2.01891e-13
-2.01813e-13
-2.0178e-13
-2.01769e-13
-2.01846e-13
-2.01602e-13
-2.01635e-13
-2.01593e-13
-2.00793e-13
-2.00602e-13
-2.00441e-13
-2.00054e-13
-1.993e-13
-1.99104e-13
-1.99183e-13
-1.98745e-13
-1.98458e-13
-1.97541e-13
-1.97106e-13
-1.97018e-13
-1.96508e-13
-1.95908e-13
-1.95769e-13
-1.95106e-13
-1.9437e-13
-1.94089e-13
-1.9306e-13
-1.9216e-13
-1.91311e-13
-1.91032e-13
-1.90334e-13
-1.89075e-13
-1.88074e-13
-1.87037e-13
-1.85696e-13
-1.84626e-13
-1.83618e-13
-1.8205e-13
-1.81274e-13
-1.80466e-13
-1.79277e-13
-1.78288e-13
-1.77038e-13
-1.75711e-13
-1.74844e-13
-1.7346e-13
-1.72426e-13
-1.71944e-13
-1.70142e-13
-1.6921e-13
-1.68894e-13
-1.67467e-13
-1.66257e-13
-1.65364e-13
-1.64286e-13
-1.63384e-13
-1.62697e-13
-1.61373e-13
-1.60348e-13
-1.59402e-13
-1.58243e-13
-1.57262e-13
-1.56205e-13
-1.55256e-13
-1.54466e-13
-1.53361e-13
-1.51957e-13
-1.50977e-13
-1.50001e-13
-1.48859e-13
-1.47576e-13
-1.46315e-13
-1.45919e-13
-1.44668e-13
-1.43268e-13
-1.42721e-13
-1.41619e-13
-1.39815e-13
-1.38698e-13
-1.38077e-13
-1.36849e-13
-1.35989e-13
-1.34403e-13
-1.33e-13
-1.32515e-13
-1.31615e-13
-1.304e-13
-1.29355e-13
-1.28514e-13
-1.27153e-13
-1.25957e-13
-1.24696e-13
-1.23948e-13
-1.23382e-13
-1.21523e-13
-1.20288e-13
-1.19796e-13
-1.19246e-13
-1.17176e-13
-1.16043e-13
-1.15496e-13
-1.14246e-13
-1.13093e-13
-1.12199e-13
-1.11975e-13
-1.10937e-13
-1.09838e-13
-1.08745e-13
-1.08156e-13
-1.07745e-13
-1.06903e-13
-1.05617e-13
-1.05001e-13
-1.04893e-13
-1.03612e-13
-1.02765e-13
-1.01828e-13
-1.0072e-13
-1.00463e-13
-9.95118e-14
-9.77242e-14
-9.72883e-14
-9.75195e-14
-9.57083e-14
-9.43483e-14
-9.36076e-14
-9.24796e-14
-9.12109e-14
-9.01979e-14
-8.91297e-14
-8.83836e-14
-8.79413e-14
-8.65764e-14
-8.55277e-14
-8.46422e-14
-8.38169e-14
-8.26391e-14
-8.1351e-14
-8.06078e-14
-8.01008e-14
-7.92252e-14
-7.81347e-14
-7.73648e-14
-7.67291e-14
-7.59619e-14
-7.48885e-14
-7.34826e-14
-7.32872e-14
-7.31856e-14
-7.15072e-14
-7.00789e-14
-6.96412e-14
-6.89336e-14
-6.74081e-14
-6.64822e-14
-6.62291e-14
-6.51699e-14
-6.41029e-14
-6.32991e-14
-6.26119e-14
-6.16129e-14
-6.03928e-14
-5.9356e-14
-5.7773e-14
-5.69704e-14
-5.69223e-14
-5.54572e-14
-5.40801e-14
-5.39987e-14
-5.29857e-14
-5.1204e-14
-5.01495e-14
-4.96413e-14
-4.879e-14
-4.7704e-14
-4.6195e-14
-4.45552e-14
-4.40313e-14
-4.30539e-14
-4.07535e-14
-3.85895e-14
-3.67317e-14
-3.44521e-14
-3.11246e-14
-2.71341e-14
-2.20872e-14
-1.5717e-14
-1.69591e-14
-1.85212e-14
-2.28842e-14
-2.75422e-14
-3.13377e-14
-3.43296e-14
-3.70132e-14
-3.91928e-14
-4.11988e-14
-4.28202e-14
-4.43086e-14
-4.56457e-14
-4.69004e-14
-4.8225e-14
-4.90971e-14
-4.98897e-14
-5.05904e-14
-5.13873e-14
-5.21672e-14
-5.28292e-14
-5.34965e-14
-5.41028e-14
-5.44403e-14
-5.48857e-14
-5.50192e-14
-5.52313e-14
-5.55482e-14
-5.565e-14
-5.57857e-14
-5.59719e-14
-5.60659e-14
-5.61022e-14
-5.61321e-14
-5.62053e-14
-5.64295e-14
-5.65187e-14
-5.63628e-14
-5.63358e-14
-5.63651e-14
-5.63419e-14
-5.63978e-14
-5.65382e-14
-5.6518e-14
-5.64849e-14
-5.6415e-14
-5.62267e-14
-5.60362e-14
-5.59053e-14
-5.59187e-14
-5.61378e-14
-5.60158e-14
-5.58373e-14
-5.5584e-14
-5.51949e-14
-5.49959e-14
-5.48819e-14
-5.49081e-14
-5.47668e-14
-5.4256e-14
-5.38061e-14
-5.34155e-14
-5.32035e-14
-5.32127e-14
-5.30359e-14
-5.29134e-14
-5.28237e-14
-5.27511e-14
-5.26088e-14
-5.23968e-14
-5.22685e-14
-5.22217e-14
-5.21803e-14
-5.19323e-14
-5.18483e-14
-5.1972e-14
-5.20001e-14
-5.20715e-14
-5.22856e-14
-5.23767e-14
-5.25035e-14
-5.21904e-14
-5.18697e-14
-5.1584e-14
-5.14775e-14
-5.1347e-14
-5.12145e-14
-5.12009e-14
-5.1313e-14
-5.12962e-14
-5.13674e-14
-5.12179e-14
-5.09725e-14
-5.08903e-14
-5.08039e-14
-5.06761e-14
-5.06016e-14
-5.03714e-14
-4.98486e-14
-4.95929e-14
-4.94432e-14
-4.92409e-14
-4.91259e-14
-4.87905e-14
-4.84762e-14
-4.83323e-14
-4.82111e-14
-4.78269e-14
-4.77477e-14
-4.78429e-14
-4.76807e-14
-4.74294e-14
-4.7183e-14
-4.70457e-14
-4.6757e-14
-4.67346e-14
-4.72164e-14
-4.71631e-14
-4.71558e-14
-4.70867e-14
-4.7108e-14
-4.72921e-14
-4.7602e-14
-4.78509e-14
-4.80565e-14
-4.82513e-14
-4.83924e-14
-4.88059e-14
-4.88387e-14
-4.91841e-14
-4.97183e-14
-5.01596e-14
-5.05452e-14
-5.11173e-14
-5.17232e-14
-5.2093e-14
-5.27663e-14
-5.36054e-14
-5.43073e-14
-5.49877e-14
-5.53893e-14
-5.61028e-14
-5.69526e-14
-5.77705e-14
-5.84741e-14
-5.91716e-14
-5.99081e-14
-6.05498e-14
-6.11019e-14
-6.19053e-14
-6.25291e-14
-6.32593e-14
-6.4076e-14
-6.4358e-14
-6.46813e-14
-6.53783e-14
-6.58233e-14
-6.63607e-14
-6.70713e-14
-6.75315e-14
-6.82096e-14
-6.87055e-14
-6.89519e-14
-6.92533e-14
-6.99949e-14
-7.08103e-14
-7.11585e-14
-7.18276e-14
-7.23277e-14
-7.30835e-14
-7.37116e-14
-7.40737e-14
-7.48287e-14
-7.56819e-14
-7.65332e-14
-7.72393e-14
-7.7796e-14
-7.82308e-14
-7.88159e-14
-7.93008e-14
-8.01604e-14
-8.07527e-14
-8.09192e-14
-8.16922e-14
-8.23545e-14
-8.28216e-14
-8.3512e-14
-8.42535e-14
-8.4714e-14
-8.54749e-14
-8.6117e-14
-8.65631e-14
-8.74022e-14
-8.81217e-14
-8.8747e-14
-8.92873e-14
-8.96853e-14
-9.04376e-14
-9.10507e-14
-9.14715e-14
-9.21558e-14
-9.29507e-14
-9.35744e-14
-9.43216e-14
-9.53767e-14
-9.64547e-14
-9.71279e-14
-9.77608e-14
-9.87245e-14
-9.99041e-14
-1.01212e-13
-1.02302e-13
-1.03338e-13
-1.04531e-13
-1.05521e-13
-1.0625e-13
-1.07474e-13
-1.08369e-13
-1.09058e-13
-1.1041e-13
-1.1161e-13
-1.12664e-13
-1.13774e-13
-1.14804e-13
-1.16158e-13
-1.17444e-13
-1.19004e-13
-1.20413e-13
-1.21787e-13
-1.23452e-13
-1.25112e-13
-1.26498e-13
-1.27819e-13
-1.29388e-13
-1.30809e-13
-1.32305e-13
-1.33633e-13
-1.34954e-13
-1.36663e-13
-1.38129e-13
-1.39249e-13
-1.41152e-13
-1.42949e-13
-1.44244e-13
-1.45983e-13
-1.47574e-13
-1.4922e-13
-1.50369e-13
-1.5154e-13
-1.53132e-13
-1.54752e-13
-1.55864e-13
-1.57303e-13
-1.5841e-13
-1.5978e-13
-1.61396e-13
-1.62158e-13
-1.63454e-13
-1.64824e-13
-1.6617e-13
-1.6702e-13
-1.68336e-13
-1.69553e-13
-1.70545e-13
-1.71325e-13
-1.72104e-13
-1.72849e-13
-1.73819e-13
-1.74551e-13
-1.74931e-13
-1.75848e-13
-1.76656e-13
-1.77363e-13
-1.78116e-13
-1.78462e-13
-1.79239e-13
-1.8081e-13
-1.81215e-13
-1.81813e-13
-1.83197e-13
-1.84005e-13
-1.84927e-13
-1.85912e-13
-1.87015e-13
-1.88036e-13
-1.88418e-13
-1.89208e-13
-1.90191e-13
-1.90639e-13
-1.91607e-13
-1.92442e-13
-1.92546e-13
-1.93347e-13
-1.94582e-13
-1.95005e-13
-1.95575e-13
-1.96348e-13
-1.96582e-13
-1.97151e-13
-1.97846e-13
-1.98207e-13
-1.98786e-13
-1.99473e-13
-1.99374e-13
-1.99656e-13
-2.00117e-13
-1.99765e-13
-2.00422e-13
-2.01173e-13
-2.01103e-13
-2.01426e-13
-2.01856e-13
-2.01539e-13
-2.01445e-13
-2.01949e-13
-2.01839e-13
-2.01833e-13
-2.01856e-13
-2.01804e-13
-2.01616e-13
-2.01472e-13
-2.01514e-13
-2.00928e-13
-2.00701e-13
-2.00377e-13
-2.00145e-13
-1.99333e-13
-1.99196e-13
-1.99182e-13
-1.98569e-13
-1.9837e-13
-1.97673e-13
-1.97144e-13
-1.96994e-13
-1.96587e-13
-1.9599e-13
-1.95846e-13
-1.94919e-13
-1.94292e-13
-1.94194e-13
-1.92889e-13
-1.92316e-13
-1.91616e-13
-1.90876e-13
-1.90431e-13
-1.89184e-13
-1.87851e-13
-1.87066e-13
-1.85838e-13
-1.84411e-13
-1.83658e-13
-1.82337e-13
-1.80976e-13
-1.80418e-13
-1.79442e-13
-1.78247e-13
-1.77257e-13
-1.75749e-13
-1.74744e-13
-1.73422e-13
-1.72438e-13
-1.71824e-13
-1.70218e-13
-1.6923e-13
-1.68762e-13
-1.67405e-13
-1.66426e-13
-1.65505e-13
-1.64163e-13
-1.63366e-13
-1.62633e-13
-1.61304e-13
-1.60524e-13
-1.59301e-13
-1.58096e-13
-1.57438e-13
-1.56353e-13
-1.55107e-13
-1.54449e-13
-1.5323e-13
-1.52038e-13
-1.51299e-13
-1.5004e-13
-1.4864e-13
-1.4763e-13
-1.46539e-13
-1.45648e-13
-1.44598e-13
-1.43537e-13
-1.42602e-13
-1.41412e-13
-1.40101e-13
-1.38822e-13
-1.3778e-13
-1.36926e-13
-1.35763e-13
-1.34476e-13
-1.33448e-13
-1.32397e-13
-1.3147e-13
-1.30549e-13
-1.29173e-13
-1.28244e-13
-1.27384e-13
-1.26042e-13
-1.24857e-13
-1.23901e-13
-1.23027e-13
-1.21856e-13
-1.20609e-13
-1.19386e-13
-1.18845e-13
-1.17567e-13
-1.15966e-13
-1.15455e-13
-1.14402e-13
-1.13089e-13
-1.1225e-13
-1.11786e-13
-1.10743e-13
-1.09771e-13
-1.09095e-13
-1.08247e-13
-1.07483e-13
-1.0677e-13
-1.05715e-13
-1.05215e-13
-1.04928e-13
-1.03559e-13
-1.02689e-13
-1.02051e-13
-1.00743e-13
-1.00083e-13
-9.95573e-14
-9.83286e-14
-9.7339e-14
-9.68283e-14
-9.56219e-14
-9.44351e-14
-9.39225e-14
-9.25602e-14
-9.09667e-14
-9.04039e-14
-8.95026e-14
-8.83642e-14
-8.74993e-14
-8.65334e-14
-8.57651e-14
-8.45254e-14
-8.36537e-14
-8.24206e-14
-8.1594e-14
-8.09163e-14
-7.99021e-14
-7.88902e-14
-7.82847e-14
-7.75034e-14
-7.65032e-14
-7.58634e-14
-7.47833e-14
-7.40077e-14
-7.33198e-14
-7.25963e-14
-7.13689e-14
-7.04834e-14
-6.98644e-14
-6.85987e-14
-6.74885e-14
-6.66881e-14
-6.61116e-14
-6.51167e-14
-6.41546e-14
-6.3172e-14
-6.24759e-14
-6.17122e-14
-6.02651e-14
-5.9373e-14
-5.81777e-14
-5.70964e-14
-5.64642e-14
-5.5422e-14
-5.41117e-14
-5.40076e-14
-5.30518e-14
-5.11657e-14
-5.03995e-14
-4.9844e-14
-4.87336e-14
-4.73326e-14
-4.61877e-14
-4.49033e-14
-4.42727e-14
-4.30471e-14
-4.10044e-14
-3.86805e-14
-3.69321e-14
-3.5068e-14
-3.15666e-14
-2.80594e-14
-2.411e-14
-1.94706e-14
-2.10002e-14
-2.1831e-14
-2.50114e-14
-2.88594e-14
-3.21517e-14
-3.49302e-14
-3.74188e-14
-3.95124e-14
-4.1566e-14
-4.30045e-14
-4.43977e-14
-4.55865e-14
-4.69421e-14
-4.83858e-14
-4.92261e-14
-4.99868e-14
-5.06713e-14
-5.1463e-14
-5.22568e-14
-5.28678e-14
-5.34173e-14
-5.41052e-14
-5.45124e-14
-5.50368e-14
-5.50523e-14
-5.52418e-14
-5.5553e-14
-5.56257e-14
-5.57372e-14
-5.59702e-14
-5.60535e-14
-5.60861e-14
-5.6078e-14
-5.62586e-14
-5.64572e-14
-5.65763e-14
-5.64217e-14
-5.62619e-14
-5.63835e-14
-5.63079e-14
-5.63966e-14
-5.65707e-14
-5.65291e-14
-5.65897e-14
-5.64439e-14
-5.62388e-14
-5.5975e-14
-5.58596e-14
-5.59411e-14
-5.61241e-14
-5.61097e-14
-5.58757e-14
-5.55835e-14
-5.52118e-14
-5.50123e-14
-5.49272e-14
-5.49259e-14
-5.47431e-14
-5.42369e-14
-5.38436e-14
-5.33878e-14
-5.31176e-14
-5.31836e-14
-5.30871e-14
-5.28237e-14
-5.2715e-14
-5.27493e-14
-5.26247e-14
-5.24202e-14
-5.23189e-14
-5.2301e-14
-5.21478e-14
-5.17762e-14
-5.18296e-14
-5.206e-14
-5.1881e-14
-5.20263e-14
-5.23323e-14
-5.24625e-14
-5.24679e-14
-5.21628e-14
-5.19759e-14
-5.15833e-14
-5.14601e-14
-5.12785e-14
-5.11882e-14
-5.11549e-14
-5.14109e-14
-5.14099e-14
-5.13796e-14
-5.11053e-14
-5.09507e-14
-5.08753e-14
-5.08004e-14
-5.07671e-14
-5.07343e-14
-5.03657e-14
-4.97402e-14
-4.95702e-14
-4.9584e-14
-4.91644e-14
-4.90264e-14
-4.87904e-14
-4.84844e-14
-4.83113e-14
-4.82638e-14
-4.78572e-14
-4.77123e-14
-4.78464e-14
-4.76476e-14
-4.7467e-14
-4.70821e-14
-4.70207e-14
-4.6728e-14
-4.67696e-14
-4.72689e-14
-4.72076e-14
-4.71938e-14
-4.70859e-14
-4.71682e-14
-4.7283e-14
-4.77343e-14
-4.77997e-14
-4.79556e-14
-4.82425e-14
-4.835e-14
-4.88104e-14
-4.87656e-14
-4.92078e-14
-4.97007e-14
-5.0029e-14
-5.04476e-14
-5.09857e-14
-5.18291e-14
-5.22024e-14
-5.27732e-14
-5.35983e-14
-5.42088e-14
-5.48687e-14
-5.5411e-14
-5.61138e-14
-5.701e-14
-5.77617e-14
-5.8421e-14
-5.93192e-14
-5.9916e-14
-6.02471e-14
-6.12414e-14
-6.20438e-14
-6.24554e-14
-6.33143e-14
-6.39979e-14
-6.41961e-14
-6.47396e-14
-6.5429e-14
-6.58171e-14
-6.63654e-14
-6.71709e-14
-6.75651e-14
-6.80963e-14
-6.86788e-14
-6.90243e-14
-6.93878e-14
-6.99177e-14
-7.07729e-14
-7.11499e-14
-7.18264e-14
-7.24155e-14
-7.29448e-14
-7.35784e-14
-7.40931e-14
-7.47241e-14
-7.56689e-14
-7.66204e-14
-7.74435e-14
-7.77712e-14
-7.82906e-14
-7.8944e-14
-7.92095e-14
-7.99832e-14
-8.07632e-14
-8.09979e-14
-8.15609e-14
-8.22828e-14
-8.29485e-14
-8.34716e-14
-8.41013e-14
-8.47326e-14
-8.54398e-14
-8.61132e-14
-8.67248e-14
-8.74617e-14
-8.80735e-14
-8.8735e-14
-8.93131e-14
-8.96795e-14
-9.03991e-14
-9.11547e-14
-9.15378e-14
-9.21133e-14
-9.30574e-14
-9.36013e-14
-9.41827e-14
-9.51874e-14
-9.63509e-14
-9.70194e-14
-9.78893e-14
-9.88203e-14
-9.97848e-14
-1.012e-13
-1.02371e-13
-1.03345e-13
-1.0458e-13
-1.05407e-13
-1.06446e-13
-1.07532e-13
-1.08536e-13
-1.08895e-13
-1.10193e-13
-1.11613e-13
-1.12711e-13
-1.13813e-13
-1.14766e-13
-1.16054e-13
-1.17435e-13
-1.19088e-13
-1.20202e-13
-1.21735e-13
-1.23447e-13
-1.2515e-13
-1.26509e-13
-1.278e-13
-1.29293e-13
-1.30963e-13
-1.32453e-13
-1.33484e-13
-1.34814e-13
-1.36767e-13
-1.38142e-13
-1.39259e-13
-1.41087e-13
-1.42903e-13
-1.44408e-13
-1.45869e-13
-1.47685e-13
-1.49298e-13
-1.5047e-13
-1.51605e-13
-1.52967e-13
-1.54579e-13
-1.55975e-13
-1.57324e-13
-1.58463e-13
-1.5983e-13
-1.61463e-13
-1.62271e-13
-1.6336e-13
-1.64791e-13
-1.66239e-13
-1.67317e-13
-1.68166e-13