/*--------------------------------*- C++ -*----------------------------------*\
| =========                 |                                                 |
| \\      /  F ield         | OpenFOAM: The Open Source CFD Toolbox           |
|  \\    /   O peration     | Version:  2112                                  |
|   \\  /    A nd           | Website:  www.openfoam.com                      |
|    \\/     M anipulation  |                                                 |
\*---------------------------------------------------------------------------*/
FoamFile
{
    version     2.0;
    format      ascii;
    arch        "LSB;label=32;scalar=64";
    class       volScalarField;
    location    "3";
    object      p;
}
// * * * * * * * * * * * * * * * * * * * * * * * * * * * * * * * * * * * * * //

dimensions      [0 2 -2 0 0 0 0];

internalField   nonuniform List<scalar> 
25600
(
2.14865e-13
4.56794e-13
5.56512e-13
6.14903e-13
6.56874e-13
6.90909e-13
7.19085e-13
7.43061e-13
7.64357e-13
7.84295e-13
8.02194e-13
8.19079e-13
8.34226e-13
8.49243e-13
8.6488e-13
8.77982e-13
8.9107e-13
9.04667e-13
9.18134e-13
9.29979e-13
9.4114e-13
9.52556e-13
9.64523e-13
9.76591e-13
9.87826e-13
9.97742e-13
1.00699e-12
1.01754e-12
1.02762e-12
1.03574e-12
1.04181e-12
1.04752e-12
1.05554e-12
1.06292e-12
1.06943e-12
1.07652e-12
1.08261e-12
1.09045e-12
1.09768e-12
1.10367e-12
1.11108e-12
1.11699e-12
1.1226e-12
1.12976e-12
1.13528e-12
1.14154e-12
1.14728e-12
1.15241e-12
1.1576e-12
1.16268e-12
1.16702e-12
1.16927e-12
1.17368e-12
1.17734e-12
1.17946e-12
1.18347e-12
1.18459e-12
1.18756e-12
1.1898e-12
1.19218e-12
1.19701e-12
1.1976e-12
1.20105e-12
1.20355e-12
1.20401e-12
1.20841e-12
1.20977e-12
1.21192e-12
1.2133e-12
1.21411e-12
1.21704e-12
1.21838e-12
1.22018e-12
1.22093e-12
1.22064e-12
1.2248e-12
1.22651e-12
1.22541e-12
1.22708e-12
1.22674e-12
1.22976e-12
1.23134e-12
1.22821e-12
1.22679e-12
1.22621e-12
1.22765e-12
1.2283e-12
1.22706e-12
1.22469e-12
1.22314e-12
1.22665e-12
1.22806e-12
1.22483e-12
1.22285e-12
1.22441e-12
1.22648e-12
1.22432e-12
1.22385e-12
1.22316e-12
1.2249e-12
1.22928e-12
1.22808e-12
1.22947e-12
1.22923e-12
1.22981e-12
1.23291e-12
1.23587e-12
1.2354e-12
1.23474e-12
1.23744e-12
1.23984e-12
1.24549e-12
1.2407e-12
1.23797e-12
1.24174e-12
1.24482e-12
1.24608e-12
1.24228e-12
1.23897e-12
1.24156e-12
1.24533e-12
1.24681e-12
1.24235e-12
1.23805e-12
1.24241e-12
1.24824e-12
1.24988e-12
1.24501e-12
1.24126e-12
1.24518e-12
1.24825e-12
1.24931e-12
1.24663e-12
1.24557e-12
1.24992e-12
1.25167e-12
1.25353e-12
1.2516e-12
1.24894e-12
1.25216e-12
1.25411e-12
1.25417e-12
1.25053e-12
1.2506e-12
1.2539e-12
1.25441e-12
1.25638e-12
1.25482e-12
1.25443e-12
1.25421e-12
1.25336e-12
1.25826e-12
1.25693e-12
1.25174e-12
1.25002e-12
1.24901e-12
1.25094e-12
1.25035e-12
1.24541e-12
1.24358e-12
1.2425e-12
1.24659e-12
1.24311e-12
1.23802e-12
1.24154e-12
1.2379e-12
1.23795e-12
1.23749e-12
1.23272e-12
1.23292e-12
1.23259e-12
1.23485e-12
1.23116e-12
1.22942e-12
1.23108e-12
1.22967e-12
1.22864e-12
1.22247e-12
1.22493e-12
1.22418e-12
1.22062e-12
1.22512e-12
1.21926e-12
1.21469e-12
1.21435e-12
1.20888e-12
1.21212e-12
1.20704e-12
1.20158e-12
1.20399e-12
1.19816e-12
1.19656e-12
1.19446e-12
1.18649e-12
1.18714e-12
1.18493e-12
1.18352e-12
1.17889e-12
1.17243e-12
1.17648e-12
1.17232e-12
1.1703e-12
1.16426e-12
1.15714e-12
1.16123e-12
1.15973e-12
1.15479e-12
1.14648e-12
1.14328e-12
1.14579e-12
1.14512e-12
1.14022e-12
1.12768e-12
1.13293e-12
1.1381e-12
1.12444e-12
1.12708e-12
1.12889e-12
1.12609e-12
1.12368e-12
1.10995e-12
1.11433e-12
1.11919e-12
1.11669e-12
1.11492e-12
1.10126e-12
1.10658e-12
1.10948e-12
1.10419e-12
1.1046e-12
1.09558e-12
1.09936e-12
1.09873e-12
1.09537e-12
1.09941e-12
1.09071e-12
1.08941e-12
1.08749e-12
1.08727e-12
1.09331e-12
1.08407e-12
1.08511e-12
1.08121e-12
1.07747e-12
1.08513e-12
1.07489e-12
1.06875e-12
1.06562e-12
1.06725e-12
1.07145e-12
1.05894e-12
1.06101e-12
1.06191e-12
1.05734e-12
1.0558e-12
1.04111e-12
1.04385e-12
1.04215e-12
1.03562e-12
1.03857e-12
1.02664e-12
1.02421e-12
1.02138e-12
1.01623e-12
1.01479e-12
1.00198e-12
1.00262e-12
1.00316e-12
1.00041e-12
1.00033e-12
9.8923e-13
9.87592e-13
9.86449e-13
9.8408e-13
9.83468e-13
9.72666e-13
9.70241e-13
9.67979e-13
9.61711e-13
9.62984e-13
9.54514e-13
9.50748e-13
9.49808e-13
9.45414e-13
9.44835e-13
9.35277e-13
9.29774e-13
9.30436e-13
9.29738e-13
9.24741e-13
9.12333e-13
9.10689e-13
9.10588e-13
9.06384e-13
8.99834e-13
8.89357e-13
8.87659e-13
8.8405e-13
8.79072e-13
8.69086e-13
8.54418e-13
8.49976e-13
8.45064e-13
8.43296e-13
8.348e-13
8.19985e-13
8.10902e-13
7.99527e-13
7.94311e-13
7.79702e-13
7.64445e-13
7.53387e-13
7.31488e-13
7.17381e-13
6.98365e-13
6.68354e-13
6.40592e-13
5.98307e-13
5.47187e-13
4.55013e-13
3.75978e-13
4.85735e-13
5.64394e-13
6.18096e-13
6.5881e-13
6.92149e-13
7.19943e-13
7.43914e-13
7.64969e-13
7.84902e-13
8.02486e-13
8.19331e-13
8.34702e-13
8.49393e-13
8.64911e-13
8.78399e-13
8.91337e-13
9.04825e-13
9.18229e-13
9.29936e-13
9.4149e-13
9.52804e-13
9.64448e-13
9.76205e-13
9.87443e-13
9.97869e-13
1.00769e-12
1.01745e-12
1.02713e-12
1.03571e-12
1.04204e-12
1.04789e-12
1.05558e-12
1.06268e-12
1.06937e-12
1.0766e-12
1.08294e-12
1.09007e-12
1.09738e-12
1.10418e-12
1.11114e-12
1.11713e-12
1.1223e-12
1.12953e-12
1.136e-12
1.14137e-12
1.1473e-12
1.15227e-12
1.15737e-12
1.16262e-12
1.16623e-12
1.16981e-12
1.17371e-12
1.17741e-12
1.17998e-12
1.18269e-12
1.18425e-12
1.18746e-12
1.1898e-12
1.19266e-12
1.19625e-12
1.19772e-12
1.20124e-12
1.2036e-12
1.20433e-12
1.2083e-12
1.20978e-12
1.21195e-12
1.21362e-12
1.21453e-12
1.21689e-12
1.21827e-12
1.22017e-12
1.22074e-12
1.2211e-12
1.22428e-12
1.2257e-12
1.22599e-12
1.2272e-12
1.2272e-12
1.2293e-12
1.23036e-12
1.22845e-12
1.22736e-12
1.22706e-12
1.2279e-12
1.22692e-12
1.22653e-12
1.226e-12
1.22442e-12
1.22642e-12
1.22659e-12
1.22476e-12
1.22422e-12
1.22464e-12
1.22513e-12
1.22411e-12
1.22395e-12
1.22453e-12
1.22527e-12
1.22734e-12
1.22814e-12
1.22926e-12
1.23035e-12
1.23028e-12
1.23239e-12
1.23527e-12
1.23613e-12
1.2356e-12
1.23719e-12
1.2402e-12
1.24359e-12
1.24147e-12
1.24e-12
1.24172e-12
1.24384e-12
1.24497e-12
1.24317e-12
1.23978e-12
1.24139e-12
1.24484e-12
1.24576e-12
1.24224e-12
1.23939e-12
1.24285e-12
1.24759e-12
1.24909e-12
1.24516e-12
1.24273e-12
1.24546e-12
1.24724e-12
1.24849e-12
1.24738e-12
1.24614e-12
1.24936e-12
1.25144e-12
1.25313e-12
1.25161e-12
1.24913e-12
1.25196e-12
1.25413e-12
1.25387e-12
1.25041e-12
1.25084e-12
1.25385e-12
1.25476e-12
1.25557e-12
1.25391e-12
1.25447e-12
1.25528e-12
1.2546e-12
1.25694e-12
1.2553e-12
1.25233e-12
1.25114e-12
1.24982e-12
1.25051e-12
1.24972e-12
1.24606e-12
1.24412e-12
1.24386e-12
1.24558e-12
1.2425e-12
1.23916e-12
1.24052e-12
1.23893e-12
1.23746e-12
1.23655e-12
1.23432e-12
1.23363e-12
1.23381e-12
1.23378e-12
1.23109e-12
1.22922e-12
1.22988e-12
1.2306e-12
1.22826e-12
1.2245e-12
1.22435e-12
1.22219e-12
1.22286e-12
1.22401e-12
1.21885e-12
1.21454e-12
1.21344e-12
1.21138e-12
1.21115e-12
1.20701e-12
1.20274e-12
1.20144e-12
1.19917e-12
1.19667e-12
1.19377e-12
1.18892e-12
1.18609e-12
1.18455e-12
1.18218e-12
1.17937e-12
1.17615e-12
1.17417e-12
1.17167e-12
1.16903e-12
1.16477e-12
1.16108e-12
1.15939e-12
1.15699e-12
1.15379e-12
1.14872e-12
1.1462e-12
1.1444e-12
1.14203e-12
1.13904e-12
1.1315e-12
1.13306e-12
1.13476e-12
1.12824e-12
1.12898e-12
1.12596e-12
1.12408e-12
1.12273e-12
1.11409e-12
1.11609e-12
1.11636e-12
1.11457e-12
1.11386e-12
1.10519e-12
1.10728e-12
1.1085e-12
1.10429e-12
1.10293e-12
1.09701e-12
1.09929e-12
1.09823e-12
1.09625e-12
1.09774e-12
1.09255e-12
1.09056e-12
1.08629e-12
1.08694e-12
1.09185e-12
1.08642e-12
1.08565e-12
1.08095e-12
1.07816e-12
1.08234e-12
1.07452e-12
1.07048e-12
1.06734e-12
1.06705e-12
1.06886e-12
1.05993e-12
1.06118e-12
1.06171e-12
1.05796e-12
1.05346e-12
1.04228e-12
1.04445e-12
1.0423e-12
1.03643e-12
1.03617e-12
1.02776e-12
1.02538e-12
1.02084e-12
1.01653e-12
1.01296e-12
1.00323e-12
1.00449e-12
1.00248e-12
9.99266e-13
9.99109e-13
9.90349e-13
9.88559e-13
9.85902e-13
9.83801e-13
9.82907e-13
9.73272e-13
9.70684e-13
9.66097e-13
9.62508e-13
9.63299e-13
9.54552e-13
9.52061e-13
9.48974e-13
9.45058e-13
9.43943e-13
9.34842e-13
9.3209e-13
9.31342e-13
9.28073e-13
9.23376e-13
9.13432e-13
9.1213e-13
9.10367e-13
9.03584e-13
9.00093e-13
8.92142e-13
8.86956e-13
8.84955e-13
8.76584e-13
8.6919e-13
8.57298e-13
8.49729e-13
8.46149e-13
8.41626e-13
8.33118e-13
8.19889e-13
8.1177e-13
8.02281e-13
7.9338e-13
7.79815e-13
7.64364e-13
7.52787e-13
7.34242e-13
7.16604e-13
6.97913e-13
6.71302e-13
6.41994e-13
6.01836e-13
5.5439e-13
4.82543e-13
4.58675e-13
5.17397e-13
5.77593e-13
6.24346e-13
6.62807e-13
6.9477e-13
7.21851e-13
7.45796e-13
7.66245e-13
7.85745e-13
8.03016e-13
8.19747e-13
8.35581e-13
8.49836e-13
8.65072e-13
8.79092e-13
8.91831e-13
9.04861e-13
9.18208e-13
9.30173e-13
9.41982e-13
9.5297e-13
9.64429e-13
9.76125e-13
9.87421e-13
9.9813e-13
1.00791e-12
1.01755e-12
1.02698e-12
1.03559e-12
1.04241e-12
1.04835e-12
1.05564e-12
1.06266e-12
1.06941e-12
1.0767e-12
1.08305e-12
1.08992e-12
1.09739e-12
1.10479e-12
1.11125e-12
1.11725e-12
1.1221e-12
1.12943e-12
1.13623e-12
1.14163e-12
1.14734e-12
1.15217e-12
1.15731e-12
1.16237e-12
1.16596e-12
1.16971e-12
1.17387e-12
1.17777e-12
1.18021e-12
1.18215e-12
1.18383e-12
1.18714e-12
1.18963e-12
1.19277e-12
1.19596e-12
1.19788e-12
1.20122e-12
1.20344e-12
1.20482e-12
1.2083e-12
1.21006e-12
1.2122e-12
1.21385e-12
1.21461e-12
1.21698e-12
1.21821e-12
1.21999e-12
1.22084e-12
1.22158e-12
1.2236e-12
1.2248e-12
1.22668e-12
1.22775e-12
1.22723e-12
1.22898e-12
1.22983e-12
1.22872e-12
1.22786e-12
1.22765e-12
1.22811e-12
1.22654e-12
1.22593e-12
1.22644e-12
1.22533e-12
1.22616e-12
1.22601e-12
1.22504e-12
1.2247e-12
1.22469e-12
1.2246e-12
1.22388e-12
1.22393e-12
1.2251e-12
1.22557e-12
1.22656e-12
1.22826e-12
1.2292e-12
1.23077e-12
1.23057e-12
1.23237e-12
1.23462e-12
1.23621e-12
1.23634e-12
1.23738e-12
1.24066e-12
1.24217e-12
1.24208e-12
1.24162e-12
1.24201e-12
1.24342e-12
1.24414e-12
1.24316e-12
1.24079e-12
1.24129e-12
1.24414e-12
1.24476e-12
1.24205e-12
1.24079e-12
1.24375e-12
1.2475e-12
1.24768e-12
1.24524e-12
1.24407e-12
1.2458e-12
1.2466e-12
1.24721e-12
1.24785e-12
1.24744e-12
1.24894e-12
1.25104e-12
1.25269e-12
1.25139e-12
1.24964e-12
1.25208e-12
1.25404e-12
1.25331e-12
1.25011e-12
1.25116e-12
1.25397e-12
1.2544e-12
1.25521e-12
1.25421e-12
1.25454e-12
1.25552e-12
1.25545e-12
1.25607e-12
1.2541e-12
1.25273e-12
1.2518e-12
1.25073e-12
1.25049e-12
1.2492e-12
1.24641e-12
1.24487e-12
1.24492e-12
1.24485e-12
1.24209e-12
1.24001e-12
1.23975e-12
1.23938e-12
1.23766e-12
1.23603e-12
1.23561e-12
1.23452e-12
1.23381e-12
1.2335e-12
1.23102e-12
1.22914e-12
1.22997e-12
1.22971e-12
1.2279e-12
1.2265e-12
1.22413e-12
1.2216e-12
1.22337e-12
1.22298e-12
1.21872e-12
1.21496e-12
1.21325e-12
1.21266e-12
1.2106e-12
1.20665e-12
1.20335e-12
1.20049e-12
1.1995e-12
1.19682e-12
1.19383e-12
1.18986e-12
1.18588e-12
1.18433e-12
1.18154e-12
1.17951e-12
1.17777e-12
1.17322e-12
1.17119e-12
1.16874e-12
1.16522e-12
1.16293e-12
1.15864e-12
1.1551e-12
1.15315e-12
1.1499e-12
1.14758e-12
1.14387e-12
1.14055e-12
1.13846e-12
1.13367e-12
1.13322e-12
1.13299e-12
1.13007e-12
1.12968e-12
1.12458e-12
1.12309e-12
1.12199e-12
1.1165e-12
1.11714e-12
1.11479e-12
1.1133e-12
1.11314e-12
1.10768e-12
1.10787e-12
1.10773e-12
1.10404e-12
1.10216e-12
1.09806e-12
1.09923e-12
1.09851e-12
1.09648e-12
1.09649e-12
1.0933e-12
1.09084e-12
1.08654e-12
1.08737e-12
1.09078e-12
1.08694e-12
1.0859e-12
1.08155e-12
1.07889e-12
1.08007e-12
1.07434e-12
1.07191e-12
1.06876e-12
1.06642e-12
1.06723e-12
1.06134e-12
1.06124e-12
1.06079e-12
1.05737e-12
1.05188e-12
1.04459e-12
1.04486e-12
1.04171e-12
1.03653e-12
1.0348e-12
1.02968e-12
1.02641e-12
1.01982e-12
1.01618e-12
1.01211e-12
1.00475e-12
1.00582e-12
1.00209e-12
9.98437e-13
9.9796e-13
9.90895e-13
9.8885e-13
9.86289e-13
9.83617e-13
9.81941e-13
9.7349e-13
9.70921e-13
9.65418e-13
9.63014e-13
9.63135e-13
9.54341e-13
9.52777e-13
9.49315e-13
9.44322e-13
9.42921e-13
9.35293e-13
9.33618e-13
9.32272e-13
9.26435e-13
9.22365e-13
9.14612e-13
9.12354e-13
9.09358e-13
9.02955e-13
9.00912e-13
8.9351e-13
8.87257e-13
8.84927e-13
8.75876e-13
8.6908e-13
8.59187e-13
8.50592e-13
8.46768e-13
8.40353e-13
8.3181e-13
8.20204e-13
8.13082e-13
8.04055e-13
7.92546e-13
7.80781e-13
7.64358e-13
7.53106e-13
7.36968e-13
7.17036e-13
6.99559e-13
6.74525e-13
6.451e-13
6.08912e-13
5.66801e-13
5.12684e-13
5.1388e-13
5.4811e-13
5.93262e-13
6.33848e-13
6.68739e-13
6.98822e-13
7.2506e-13
7.4809e-13
7.67751e-13
7.86603e-13
8.0421e-13
8.20632e-13
8.36311e-13
8.50643e-13
8.65754e-13
8.79973e-13
8.92324e-13
9.05226e-13
9.18403e-13
9.3046e-13
9.42436e-13
9.52976e-13
9.64401e-13
9.76657e-13
9.87426e-13
9.98504e-13
1.00837e-12
1.01757e-12
1.02681e-12
1.03593e-12
1.04291e-12
1.04865e-12
1.05571e-12
1.06286e-12
1.06953e-12
1.07628e-12
1.0834e-12
1.09031e-12
1.09735e-12
1.10468e-12
1.11185e-12
1.11752e-12
1.12205e-12
1.12929e-12
1.13623e-12
1.14208e-12
1.14765e-12
1.1523e-12
1.15727e-12
1.16236e-12
1.1659e-12
1.16934e-12
1.17407e-12
1.17835e-12
1.18051e-12
1.1819e-12
1.18329e-12
1.18673e-12
1.18922e-12
1.19295e-12
1.19592e-12
1.19787e-12
1.2011e-12
1.20335e-12
1.20506e-12
1.20844e-12
1.21077e-12
1.21228e-12
1.21429e-12
1.21495e-12
1.21659e-12
1.2182e-12
1.21955e-12
1.22104e-12
1.22196e-12
1.22321e-12
1.22452e-12
1.22672e-12
1.22757e-12
1.22755e-12
1.22882e-12
1.22946e-12
1.22965e-12
1.2282e-12
1.22766e-12
1.22825e-12
1.22746e-12
1.22594e-12
1.22574e-12
1.22538e-12
1.22614e-12
1.22593e-12
1.2254e-12
1.2246e-12
1.22463e-12
1.22466e-12
1.22404e-12
1.22421e-12
1.22468e-12
1.22567e-12
1.22645e-12
1.22829e-12
1.22927e-12
1.23109e-12
1.23128e-12
1.23224e-12
1.23424e-12
1.23578e-12
1.23685e-12
1.23819e-12
1.24086e-12
1.24161e-12
1.24263e-12
1.24223e-12
1.24274e-12
1.24393e-12
1.24301e-12
1.24262e-12
1.24188e-12
1.24189e-12
1.24312e-12
1.2434e-12
1.24287e-12
1.24184e-12
1.24385e-12
1.2479e-12
1.24659e-12
1.24512e-12
1.24531e-12
1.24617e-12
1.24599e-12
1.2463e-12
1.24797e-12
1.24864e-12
1.24947e-12
1.25031e-12
1.25149e-12
1.25128e-12
1.25103e-12
1.25257e-12
1.25313e-12
1.2522e-12
1.25081e-12
1.25129e-12
1.25418e-12
1.25427e-12
1.25449e-12
1.25466e-12
1.25524e-12
1.25546e-12
1.25559e-12
1.25571e-12
1.25488e-12
1.25324e-12
1.25151e-12
1.25108e-12
1.2502e-12
1.24918e-12
1.24719e-12
1.24544e-12
1.24501e-12
1.24405e-12
1.24177e-12
1.24113e-12
1.23996e-12
1.23962e-12
1.23793e-12
1.23632e-12
1.23561e-12
1.23493e-12
1.23381e-12
1.23414e-12
1.23036e-12
1.22924e-12
1.23138e-12
1.22891e-12
1.22784e-12
1.2267e-12
1.22448e-12
1.22196e-12
1.22281e-12
1.22239e-12
1.21921e-12
1.21573e-12
1.21338e-12
1.21266e-12
1.21052e-12
1.2062e-12
1.20356e-12
1.20086e-12
1.1994e-12
1.19678e-12
1.19395e-12
1.19012e-12
1.18646e-12
1.18334e-12
1.18209e-12
1.17978e-12
1.17726e-12
1.17321e-12
1.17162e-12
1.1686e-12
1.16575e-12
1.16328e-12
1.15811e-12
1.15523e-12
1.15277e-12
1.14965e-12
1.14731e-12
1.14466e-12
1.14118e-12
1.13794e-12
1.13413e-12
1.13323e-12
1.1321e-12
1.13018e-12
1.12973e-12
1.12534e-12
1.1233e-12
1.12149e-12
1.11674e-12
1.11694e-12
1.11488e-12
1.11282e-12
1.11236e-12
1.10869e-12
1.10771e-12
1.10645e-12
1.10393e-12
1.10325e-12
1.09986e-12
1.09919e-12
1.09836e-12
1.09591e-12
1.09456e-12
1.09311e-12
1.0918e-12
1.08845e-12
1.08709e-12
1.08988e-12
1.08803e-12
1.08594e-12
1.08083e-12
1.07927e-12
1.07933e-12
1.07538e-12
1.07266e-12
1.06862e-12
1.06604e-12
1.06647e-12
1.06218e-12
1.0613e-12
1.06067e-12
1.05667e-12
1.05053e-12
1.04686e-12
1.04469e-12
1.04112e-12
1.0363e-12
1.03411e-12
1.03155e-12
1.02626e-12
1.01896e-12
1.01654e-12
1.01293e-12
1.00591e-12
1.00491e-12
1.00273e-12
9.98839e-13
9.95922e-13
9.90924e-13
9.88584e-13
9.87558e-13
9.84347e-13
9.79936e-13
9.74485e-13
9.70802e-13
9.65613e-13
9.6353e-13
9.61312e-13
9.55526e-13
9.52613e-13
9.49668e-13
9.44977e-13
9.41026e-13
9.37201e-13
9.34544e-13
9.3064e-13
9.25212e-13
9.22067e-13
9.17029e-13
9.1284e-13
9.07218e-13
9.02653e-13
9.01104e-13
8.95523e-13
8.88457e-13
8.83512e-13
8.76181e-13
8.69231e-13
8.60482e-13
8.51325e-13
8.46368e-13
8.40954e-13
8.31778e-13
8.22685e-13
8.12914e-13
8.03517e-13
7.93172e-13
7.81552e-13
7.6625e-13
7.54806e-13
7.38701e-13
7.19568e-13
7.01678e-13
6.7748e-13
6.50894e-13
6.19005e-13
5.82986e-13
5.42567e-13
5.54738e-13
5.75951e-13
6.09994e-13
6.44488e-13
6.76224e-13
7.04107e-13
7.28957e-13
7.50859e-13
7.70032e-13
7.88902e-13
8.06054e-13
8.21688e-13
8.36733e-13
8.51659e-13
8.66845e-13
8.8068e-13
8.92345e-13
9.05903e-13
9.18062e-13
9.30605e-13
9.43032e-13
9.53641e-13
9.64779e-13
9.77009e-13
9.87748e-13
9.98847e-13
1.00862e-12
1.0177e-12
1.02681e-12
1.03605e-12
1.04344e-12
1.04949e-12
1.05611e-12
1.06253e-12
1.06953e-12
1.07623e-12
1.08379e-12
1.09019e-12
1.09706e-12
1.10536e-12
1.11197e-12
1.11748e-12
1.1221e-12
1.12945e-12
1.13622e-12
1.14163e-12
1.14808e-12
1.15307e-12
1.15746e-12
1.16221e-12
1.16583e-12
1.16933e-12
1.17397e-12
1.1784e-12
1.18071e-12
1.18179e-12
1.18324e-12
1.18629e-12
1.18845e-12
1.19299e-12
1.19631e-12
1.19852e-12
1.20133e-12
1.20308e-12
1.205e-12
1.20817e-12
1.21134e-12
1.21283e-12
1.21431e-12
1.21524e-12
1.21668e-12
1.21811e-12
1.21912e-12
1.22136e-12
1.22238e-12
1.22294e-12
1.22473e-12
1.22618e-12
1.22755e-12
1.22784e-12
1.2289e-12
1.2299e-12
1.23038e-12
1.22808e-12
1.22756e-12
1.228e-12
1.22756e-12
1.22683e-12
1.22538e-12
1.22528e-12
1.22607e-12
1.22594e-12
1.22512e-12
1.22531e-12
1.22491e-12
1.22426e-12
1.22397e-12
1.22432e-12
1.2239e-12
1.22578e-12
1.22716e-12
1.22873e-12
1.22953e-12
1.23105e-12
1.23141e-12
1.23225e-12
1.2338e-12
1.23553e-12
1.23697e-12
1.23902e-12
1.24131e-12
1.24147e-12
1.24289e-12
1.24285e-12
1.24305e-12
1.24414e-12
1.24247e-12
1.24256e-12
1.24336e-12
1.24213e-12
1.24201e-12
1.24269e-12
1.24338e-12
1.24261e-12
1.24417e-12
1.24729e-12
1.24667e-12
1.24587e-12
1.24578e-12
1.24521e-12
1.24571e-12
1.24727e-12
1.24802e-12
1.24892e-12
1.2494e-12
1.24969e-12
1.25086e-12
1.25087e-12
1.25176e-12
1.25316e-12
1.2526e-12
1.25127e-12
1.25142e-12
1.25195e-12
1.25396e-12
1.25433e-12
1.25333e-12
1.25511e-12
1.25635e-12
1.25567e-12
1.25562e-12
1.25547e-12
1.25613e-12
1.25409e-12
1.25187e-12
1.25017e-12
1.2495e-12
1.24914e-12
1.24801e-12
1.24653e-12
1.24528e-12
1.2432e-12
1.24237e-12
1.24137e-12
1.23996e-12
1.24024e-12
1.23827e-12
1.23659e-12
1.2353e-12
1.23518e-12
1.234e-12
1.23389e-12
1.23017e-12
1.23018e-12
1.23177e-12
1.22868e-12
1.22811e-12
1.22674e-12
1.22437e-12
1.22282e-12
1.22258e-12
1.22165e-12
1.21975e-12
1.21648e-12
1.2131e-12
1.21211e-12
1.21074e-12
1.20659e-12
1.20355e-12
1.20153e-12
1.199e-12
1.19659e-12
1.1933e-12
1.18998e-12
1.18727e-12
1.18246e-12
1.18267e-12
1.18053e-12
1.17651e-12
1.17385e-12
1.17175e-12
1.16815e-12
1.16614e-12
1.16386e-12
1.15848e-12
1.15488e-12
1.15243e-12
1.14951e-12
1.14741e-12
1.14453e-12
1.14168e-12
1.13745e-12
1.13476e-12
1.13361e-12
1.13157e-12
1.13017e-12
1.1292e-12
1.12618e-12
1.12352e-12
1.12083e-12
1.11681e-12
1.11703e-12
1.11507e-12
1.11217e-12
1.11179e-12
1.10927e-12
1.10806e-12
1.10529e-12
1.10462e-12
1.10401e-12
1.10035e-12
1.09923e-12
1.0979e-12
1.0948e-12
1.09354e-12
1.09261e-12
1.09319e-12
1.09086e-12
1.08726e-12
1.08852e-12
1.0887e-12
1.0863e-12
1.08019e-12
1.07946e-12
1.07932e-12
1.07654e-12
1.0727e-12
1.06826e-12
1.06649e-12
1.06545e-12
1.06248e-12
1.06143e-12
1.06069e-12
1.0569e-12
1.0506e-12
1.04812e-12
1.04423e-12
1.04053e-12
1.03728e-12
1.03345e-12
1.03093e-12
1.02571e-12
1.0202e-12
1.0172e-12
1.01325e-12
1.00685e-12
1.00404e-12
1.00324e-12
9.98294e-13
9.94185e-13
9.91637e-13
9.88915e-13
9.8813e-13
9.84529e-13
9.78224e-13
9.76172e-13
9.70398e-13
9.65741e-13
9.64548e-13
9.59497e-13
9.56144e-13
9.5228e-13
9.49751e-13
9.45955e-13
9.39359e-13
9.38536e-13
9.34983e-13
9.29964e-13
9.24949e-13
9.2134e-13
9.18492e-13
9.12269e-13
9.0685e-13
9.03126e-13
9.00069e-13
8.97836e-13
8.89378e-13
8.82297e-13
8.76424e-13
8.69467e-13
8.61892e-13
8.51763e-13
8.46586e-13
8.42038e-13
8.31639e-13
8.24619e-13
8.13152e-13
8.03411e-13
7.94247e-13
7.8275e-13
7.69551e-13
7.5544e-13
7.40346e-13
7.2449e-13
7.04429e-13
6.82153e-13
6.57661e-13
6.29748e-13
6.00784e-13
5.709e-13
5.86252e-13
6.005e-13
6.26645e-13
6.56996e-13
6.8455e-13
7.1031e-13
7.33091e-13
7.54438e-13
7.72536e-13
7.91932e-13
8.0853e-13
8.22516e-13
8.36895e-13
8.52492e-13
8.6805e-13
8.80986e-13
8.92902e-13
9.06645e-13
9.18186e-13
9.31223e-13
9.43729e-13
9.5412e-13
9.65499e-13
9.77629e-13
9.88285e-13
9.98921e-13
1.00843e-12
1.01833e-12
1.02749e-12
1.03619e-12
1.04394e-12
1.05051e-12
1.05595e-12
1.0623e-12
1.06974e-12
1.07707e-12
1.08387e-12
1.08998e-12
1.09684e-12
1.10527e-12
1.11208e-12
1.11706e-12
1.12219e-12
1.13006e-12
1.13626e-12
1.14122e-12
1.14795e-12
1.15378e-12
1.15776e-12
1.16261e-12
1.16556e-12
1.1691e-12
1.17393e-12
1.17836e-12
1.18051e-12
1.18229e-12
1.18337e-12
1.18656e-12
1.18889e-12
1.19251e-12
1.19578e-12
1.19967e-12
1.20221e-12
1.20272e-12
1.20589e-12
1.20804e-12
1.21105e-12
1.21321e-12
1.21443e-12
1.21522e-12
1.21702e-12
1.21783e-12
1.21971e-12
1.22114e-12
1.22226e-12
1.22315e-12
1.2247e-12
1.22596e-12
1.2274e-12
1.22801e-12
1.22935e-12
1.23041e-12
1.23118e-12
1.22822e-12
1.22767e-12
1.22826e-12
1.22721e-12
1.2264e-12
1.22515e-12
1.22634e-12
1.22637e-12
1.22582e-12
1.22477e-12
1.2254e-12
1.22475e-12
1.22364e-12
1.22405e-12
1.22425e-12
1.22413e-12
1.22588e-12
1.228e-12
1.22963e-12
1.22929e-12
1.23022e-12
1.23154e-12
1.23249e-12
1.23381e-12
1.23614e-12
1.23688e-12
1.23895e-12
1.2418e-12
1.24178e-12
1.24316e-12
1.2435e-12
1.24305e-12
1.24379e-12
1.2426e-12
1.24327e-12
1.2444e-12
1.24195e-12
1.24087e-12
1.24283e-12
1.24351e-12
1.24291e-12
1.24545e-12
1.24677e-12
1.24585e-12
1.24635e-12
1.24663e-12
1.24467e-12
1.24572e-12
1.24715e-12
1.24813e-12
1.24932e-12
1.24885e-12
1.24941e-12
1.25045e-12
1.25049e-12
1.25224e-12
1.25233e-12
1.25257e-12
1.25168e-12
1.25166e-12
1.25247e-12
1.25346e-12
1.2539e-12
1.25412e-12
1.25539e-12
1.25656e-12
1.25538e-12
1.25666e-12
1.25604e-12
1.25559e-12
1.25407e-12
1.25265e-12
1.25023e-12
1.25006e-12
1.24919e-12
1.24868e-12
1.2471e-12
1.24505e-12
1.24346e-12
1.24317e-12
1.24171e-12
1.23993e-12
1.2393e-12
1.23903e-12
1.23688e-12
1.23576e-12
1.23554e-12
1.23381e-12
1.23361e-12
1.2315e-12
1.23042e-12
1.23129e-12
1.22875e-12
1.22828e-12
1.22743e-12
1.22439e-12
1.22366e-12
1.222e-12
1.22064e-12
1.21983e-12
1.21666e-12
1.21419e-12
1.212e-12
1.21043e-12
1.20745e-12
1.20436e-12
1.20174e-12
1.19864e-12
1.19707e-12
1.19316e-12
1.18964e-12
1.18683e-12
1.18281e-12
1.18269e-12
1.18014e-12
1.1768e-12
1.17414e-12
1.17163e-12
1.16938e-12
1.1661e-12
1.16276e-12
1.15963e-12
1.15456e-12
1.15245e-12
1.14973e-12
1.14661e-12
1.14424e-12
1.14099e-12
1.13756e-12
1.13579e-12
1.13343e-12
1.13149e-12
1.13074e-12
1.12842e-12
1.12549e-12
1.12356e-12
1.12051e-12
1.1177e-12
1.11742e-12
1.11585e-12
1.11162e-12
1.10987e-12
1.10983e-12
1.10856e-12
1.1053e-12
1.10445e-12
1.10336e-12
1.10086e-12
1.0995e-12
1.09746e-12
1.0951e-12
1.09355e-12
1.09243e-12
1.0929e-12
1.09186e-12
1.08847e-12
1.08792e-12
1.08817e-12
1.08654e-12
1.08169e-12
1.08045e-12
1.07811e-12
1.077e-12
1.07322e-12
1.0682e-12
1.06653e-12
1.06546e-12
1.06386e-12
1.06154e-12
1.05885e-12
1.05628e-12
1.0515e-12
1.04899e-12
1.04467e-12
1.04068e-12
1.0372e-12
1.03303e-12
1.03123e-12
1.02676e-12
1.02064e-12
1.01681e-12
1.01268e-12
1.00784e-12
1.00418e-12
1.00215e-12
9.98317e-13
9.93565e-13
9.91546e-13
9.89403e-13
9.8822e-13
9.84501e-13
9.78424e-13
9.7592e-13
9.70378e-13
9.66069e-13
9.64717e-13
9.59467e-13
9.56174e-13
9.52513e-13
9.49993e-13
9.45991e-13
9.39182e-13
9.38312e-13
9.35082e-13
9.29555e-13
9.25976e-13
9.22034e-13
9.17668e-13
9.1281e-13
9.07697e-13
9.03694e-13
8.99043e-13
8.96941e-13
8.90809e-13
8.82962e-13
8.77631e-13
8.70147e-13
8.61689e-13
8.54104e-13
8.47384e-13
8.40645e-13
8.32119e-13
8.25225e-13
8.14487e-13
8.05201e-13
7.95571e-13
7.84452e-13
7.7142e-13
7.57592e-13
7.43483e-13
7.28633e-13
7.09562e-13
6.87448e-13
6.64917e-13
6.42237e-13
6.1834e-13
5.96723e-13
6.12508e-13
6.23172e-13
6.43198e-13
6.68697e-13
6.93773e-13
7.17382e-13
7.38058e-13
7.58836e-13
7.75937e-13
7.94351e-13
8.10702e-13
8.23616e-13
8.37264e-13
8.5351e-13
8.69007e-13
8.81899e-13
8.93913e-13
9.06762e-13
9.19227e-13
9.31827e-13
9.44025e-13
9.54847e-13
9.66026e-13
9.78174e-13
9.88927e-13
9.98828e-13
1.00904e-12
1.01877e-12
1.02833e-12
1.03713e-12
1.04432e-12
1.05102e-12
1.05635e-12
1.0622e-12
1.06918e-12
1.07693e-12
1.08429e-12
1.0907e-12
1.09607e-12
1.10499e-12
1.11217e-12
1.11672e-12
1.12245e-12
1.13024e-12
1.13664e-12
1.141e-12
1.14788e-12
1.15455e-12
1.15794e-12
1.16272e-12
1.1659e-12
1.16919e-12
1.17365e-12
1.17826e-12
1.18042e-12
1.18239e-12
1.1841e-12
1.18661e-12
1.18934e-12
1.19301e-12
1.19561e-12
1.20082e-12
1.20291e-12
1.20312e-12
1.20609e-12
1.20762e-12
1.21068e-12
1.21311e-12
1.21509e-12
1.21559e-12
1.21754e-12
1.21718e-12
1.21952e-12
1.22115e-12
1.22288e-12
1.22297e-12
1.22445e-12
1.22555e-12
1.22679e-12
1.22838e-12
1.23059e-12
1.23082e-12
1.23139e-12
1.22829e-12
1.22744e-12
1.22816e-12
1.22732e-12
1.22646e-12
1.22499e-12
1.22725e-12
1.2264e-12
1.22634e-12
1.22483e-12
1.22476e-12
1.22428e-12
1.22361e-12
1.22358e-12
1.22365e-12
1.22471e-12
1.22698e-12
1.22901e-12
1.23064e-12
1.2289e-12
1.22844e-12
1.23112e-12
1.23369e-12
1.2345e-12
1.23657e-12
1.23625e-12
1.23838e-12
1.24271e-12
1.24217e-12
1.24393e-12
1.24392e-12
1.24344e-12
1.24394e-12
1.24237e-12
1.24374e-12
1.24502e-12
1.2426e-12
1.24018e-12
1.24234e-12
1.24362e-12
1.24407e-12
1.24617e-12
1.24623e-12
1.24452e-12
1.24656e-12
1.24698e-12
1.2447e-12
1.24558e-12
1.24721e-12
1.24925e-12
1.24934e-12
1.24816e-12
1.24913e-12
1.2501e-12
1.2495e-12
1.25234e-12
1.25182e-12
1.25242e-12
1.2522e-12
1.25244e-12
1.25272e-12
1.25274e-12
1.25443e-12
1.25479e-12
1.25616e-12
1.25721e-12
1.25475e-12
1.25743e-12
1.25659e-12
1.2553e-12
1.25463e-12
1.25316e-12
1.25106e-12
1.25005e-12
1.2489e-12
1.2488e-12
1.24757e-12
1.24565e-12
1.24367e-12
1.2444e-12
1.24205e-12
1.24008e-12
1.23817e-12
1.2399e-12
1.23736e-12
1.23587e-12
1.23561e-12
1.23299e-12
1.23401e-12
1.23334e-12
1.23057e-12
1.2313e-12
1.22868e-12
1.22895e-12
1.22756e-12
1.22421e-12
1.22472e-12
1.2216e-12
1.21988e-12
1.21979e-12
1.21704e-12
1.21438e-12
1.21139e-12
1.21052e-12
1.20904e-12
1.20511e-12
1.20159e-12
1.19815e-12
1.19793e-12
1.19338e-12
1.18956e-12
1.18693e-12
1.183e-12
1.18258e-12
1.1791e-12
1.17697e-12
1.1744e-12
1.17154e-12
1.17022e-12
1.16574e-12
1.16208e-12
1.15986e-12
1.15377e-12
1.15323e-12
1.14974e-12
1.14547e-12
1.14351e-12
1.14041e-12
1.13781e-12
1.1363e-12
1.13388e-12
1.13199e-12
1.13124e-12
1.12775e-12
1.12549e-12
1.12298e-12
1.12009e-12
1.1191e-12
1.11779e-12
1.11609e-12
1.11082e-12
1.10839e-12
1.11044e-12
1.10883e-12
1.10553e-12
1.10438e-12
1.10329e-12
1.1012e-12
1.09989e-12
1.09688e-12
1.09508e-12
1.09381e-12
1.09243e-12
1.09235e-12
1.09248e-12
1.09004e-12
1.08808e-12
1.08704e-12
1.08586e-12
1.08306e-12
1.08164e-12
1.07776e-12
1.07715e-12
1.07309e-12
1.06868e-12
1.0665e-12
1.06539e-12
1.06523e-12
1.06228e-12
1.0575e-12
1.05563e-12
1.05207e-12
1.05008e-12
1.04567e-12
1.04085e-12
1.03762e-12
1.0327e-12
1.03082e-12
1.02781e-12
1.02166e-12
1.01621e-12
1.01219e-12
1.00825e-12
1.00436e-12
1.00097e-12
9.97781e-13
9.94022e-13
9.91867e-13
9.89675e-13
9.88108e-13
9.85137e-13
9.78506e-13
9.75891e-13
9.70315e-13
9.6555e-13
9.65162e-13
9.60494e-13
9.55962e-13
9.52765e-13
9.49684e-13
9.46095e-13
9.39759e-13
9.38173e-13
9.35223e-13
9.29134e-13
9.26575e-13
9.22354e-13
9.17387e-13
9.12943e-13
9.08538e-13
9.038e-13
8.98897e-13
8.95104e-13
8.91527e-13
8.85033e-13
8.78668e-13
8.70757e-13
8.61555e-13
8.55967e-13
8.47765e-13
8.39889e-13
8.33093e-13
8.25702e-13
8.16345e-13
8.07847e-13
7.97291e-13
7.86525e-13
7.72967e-13
7.60692e-13
7.46726e-13
7.33063e-13
7.15575e-13
6.93806e-13
6.73396e-13
6.54532e-13
6.35168e-13
6.193e-13
6.35321e-13
6.43699e-13
6.58788e-13
6.79849e-13
7.03191e-13
7.2476e-13
7.43858e-13
7.63253e-13
7.79077e-13
7.96446e-13
8.12789e-13
8.26459e-13
8.38667e-13
8.55134e-13
8.69751e-13
8.82758e-13
8.94694e-13
9.07472e-13
9.20291e-13
9.32672e-13
9.44313e-13
9.56103e-13
9.67013e-13
9.79527e-13
9.90144e-13
9.98523e-13
1.00953e-12
1.01951e-12
1.02929e-12
1.03821e-12
1.04445e-12
1.05029e-12
1.05628e-12
1.06286e-12
1.06854e-12
1.0769e-12
1.08542e-12
1.09083e-12
1.09554e-12
1.10539e-12
1.11191e-12
1.11642e-12
1.12253e-12
1.13004e-12
1.13664e-12
1.14125e-12
1.1476e-12
1.15502e-12
1.15771e-12
1.16312e-12
1.16536e-12
1.16911e-12
1.17421e-12
1.17766e-12
1.18124e-12
1.18332e-12
1.18379e-12
1.18637e-12
1.18969e-12
1.1937e-12
1.19664e-12
1.20183e-12
1.20403e-12
1.20343e-12
1.20563e-12
1.20724e-12
1.2107e-12
1.21338e-12
1.21556e-12
1.21577e-12
1.21752e-12
1.21743e-12
1.21951e-12
1.22128e-12
1.22289e-12
1.22288e-12
1.22414e-12
1.22543e-12
1.22685e-12
1.22898e-12
1.2312e-12
1.23095e-12
1.23124e-12
1.22812e-12
1.22815e-12
1.22768e-12
1.22752e-12
1.22689e-12
1.22559e-12
1.22703e-12
1.22625e-12
1.22651e-12
1.22509e-12
1.22484e-12
1.22456e-12
1.22264e-12
1.22252e-12
1.22348e-12
1.22545e-12
1.22814e-12
1.22909e-12
1.2306e-12
1.22942e-12
1.22812e-12
1.23133e-12
1.23296e-12
1.23501e-12
1.23696e-12
1.23587e-12
1.23813e-12
1.24248e-12
1.24296e-12
1.24501e-12
1.2443e-12
1.24419e-12
1.24318e-12
1.24197e-12
1.2444e-12
1.24548e-12
1.24305e-12
1.24062e-12
1.24293e-12
1.24412e-12
1.24455e-12
1.24542e-12
1.24458e-12
1.24591e-12
1.24663e-12
1.24597e-12
1.2452e-12
1.24636e-12
1.24751e-12
1.24893e-12
1.24933e-12
1.2481e-12
1.24946e-12
1.24932e-12
1.24875e-12
1.25205e-12
1.25144e-12
1.25308e-12
1.25255e-12
1.25263e-12
1.2521e-12
1.25261e-12
1.25512e-12
1.25612e-12
1.25759e-12
1.25726e-12
1.25507e-12
1.25742e-12
1.25688e-12
1.25623e-12
1.25506e-12
1.25413e-12
1.25176e-12
1.24977e-12
1.24931e-12
1.24877e-12
1.24842e-12
1.24666e-12
1.2444e-12
1.24398e-12
1.24166e-12
1.24096e-12
1.23892e-12
1.23914e-12
1.23756e-12
1.23709e-12
1.23543e-12
1.23362e-12
1.23363e-12
1.23382e-12
1.23203e-12
1.23186e-12
1.22974e-12
1.22843e-12
1.22763e-12
1.22557e-12
1.22545e-12
1.22263e-12
1.21905e-12
1.22009e-12
1.21672e-12
1.21413e-12
1.2111e-12
1.20999e-12
1.21088e-12
1.20562e-12
1.202e-12
1.19899e-12
1.19691e-12
1.19347e-12
1.19087e-12
1.18658e-12
1.18284e-12
1.1815e-12
1.17894e-12
1.177e-12
1.17425e-12
1.17179e-12
1.16998e-12
1.16541e-12
1.16187e-12
1.15861e-12
1.15473e-12
1.15267e-12
1.14991e-12