/*--------------------------------*- C++ -*----------------------------------*\
| =========                 |                                                 |
| \\      /  F ield         | OpenFOAM: The Open Source CFD Toolbox           |
|  \\    /   O peration     | Version:  2112                                  |
|   \\  /    A nd           | Website:  www.openfoam.com                      |
|    \\/     M anipulation  |                                                 |
\*---------------------------------------------------------------------------*/
FoamFile
{
    version     2.0;
    format      ascii;
    arch        "LSB;label=32;scalar=64";
    class       surfaceScalarField;
    location    "3";
    object      phi;
}
// * * * * * * * * * * * * * * * * * * * * * * * * * * * * * * * * * * * * * //

dimensions      [0 3 -1 0 0 0 0];

oriented        oriented;

internalField   nonuniform List<scalar> 
99400
(
3.27436e-05
-1.62078e-18
3.27436e-05
-2.51665e-19
3.27436e-05
6.57167e-20
3.27436e-05
6.76872e-20
3.27436e-05
6.84277e-20
3.27436e-05
3.12311e-20
3.27436e-05
3.69557e-20
3.27436e-05
1.7823e-20
3.27436e-05
1.74321e-21
3.27436e-05
3.81283e-21
3.27436e-05
-9.65427e-21
3.27436e-05
-2.46062e-20
3.27436e-05
-1.47705e-20
3.27436e-05
1.82359e-21
3.27436e-05
1.90967e-20
3.27436e-05
9.42553e-21
3.27436e-05
-1.78497e-20
3.27436e-05
-7.71771e-21
3.27436e-05
-3.39634e-21
3.27436e-05
1.0923e-20
3.27436e-05
8.73954e-21
3.27436e-05
2.91389e-21
3.27436e-05
3.45218e-20
3.27436e-05
3.33229e-20
3.27436e-05
-9.3865e-21
3.27436e-05
-3.43611e-20
3.27436e-05
-1.06135e-20
3.27436e-05
8.80831e-21
3.27436e-05
-3.10122e-20
3.27436e-05
-6.17742e-21
3.27436e-05
1.56799e-20
3.27436e-05
-1.4745e-20
3.27436e-05
-9.27543e-21
3.27436e-05
2.90705e-21
3.27436e-05
-1.06316e-20
3.27436e-05
1.97027e-20
3.27436e-05
-2.82459e-20
3.27436e-05
-2.23567e-20
3.27436e-05
-6.70001e-22
3.27436e-05
-4.27206e-20
3.27436e-05
4.43595e-21
3.27436e-05
-3.77282e-20
3.27436e-05
-2.12539e-20
3.27436e-05
2.2399e-20
3.27436e-05
-4.1659e-21
3.27436e-05
3.56609e-20
3.27436e-05
3.62078e-20
3.27436e-05
-6.5278e-20
3.27436e-05
-2.01729e-20
3.27436e-05
5.29854e-20
3.27436e-05
2.15885e-20
3.27436e-05
1.66037e-20
3.27436e-05
-2.77882e-20
3.27436e-05
-6.97505e-21
3.27436e-05
4.29345e-20
3.27436e-05
-4.63302e-20
3.27436e-05
3.84373e-20
3.27436e-05
-3.80988e-21
3.27436e-05
-5.84132e-20
3.27436e-05
7.33208e-21
3.27436e-05
-3.08353e-21
3.27436e-05
-2.94859e-20
3.27436e-05
-6.16298e-21
3.27436e-05
2.57438e-20
3.27436e-05
-8.22587e-21
3.27436e-05
4.50108e-20
3.27436e-05
-2.7674e-20
3.27436e-05
-1.79281e-20
3.27436e-05
5.1945e-20
3.27436e-05
-2.29322e-20
3.27436e-05
-2.27918e-20
3.27436e-05
2.40939e-20
3.27436e-05
6.223e-20
3.27436e-05
-5.56882e-20
3.27436e-05
-6.56982e-20
3.27436e-05
1.08099e-19
3.27436e-05
4.95293e-20
3.27436e-05
-4.25205e-20
3.27436e-05
1.27683e-20
3.27436e-05
7.79236e-20
3.27436e-05
1.5116e-20
3.27436e-05
-3.59643e-20
3.27436e-05
2.04676e-20
3.27436e-05
-4.87609e-21
3.27436e-05
-5.67032e-20
3.27436e-05
3.02227e-20
3.27436e-05
-2.38765e-20
3.27436e-05
-3.16123e-20
3.27436e-05
1.80351e-21
3.27436e-05
-1.71836e-20
3.27436e-05
9.69795e-21
3.27436e-05
1.63663e-20
3.27436e-05
2.3512e-20
3.27436e-05
1.41128e-20
3.27436e-05
1.87096e-20
3.27436e-05
-8.70602e-20
3.27436e-05
3.33596e-20
3.27436e-05
1.16921e-19
3.27436e-05
-5.36068e-20
3.27436e-05
-6.49534e-20
3.27436e-05
7.88264e-20
3.27436e-05
6.73026e-20
3.27436e-05
-2.22036e-20
3.27436e-05
-5.15715e-20
3.27436e-05
2.18655e-20
3.27436e-05
-1.10204e-20
3.27436e-05
-2.96399e-20
3.27436e-05
-8.81704e-21
3.27436e-05
6.48413e-20
3.27436e-05
1.07942e-19
3.27436e-05
-2.10725e-20
3.27436e-05
-8.49722e-20
3.27436e-05
-3.41004e-20
3.27436e-05
6.34276e-20
3.27436e-05
1.08678e-20
3.27436e-05
-1.13003e-19
3.27436e-05
-6.82907e-20
3.27436e-05
8.4247e-20
3.27436e-05
3.59007e-20
3.27436e-05
-7.46239e-20
3.27436e-05
-5.45244e-20
3.27436e-05
5.11388e-21
3.27436e-05
5.89151e-20
3.27436e-05
-2.62952e-20
3.27436e-05
-6.87465e-20
3.27436e-05
7.47713e-20
3.27436e-05
3.05873e-20
3.27436e-05
-4.80507e-20
3.27436e-05
4.08295e-20
3.27436e-05
1.40905e-20
3.27436e-05
4.84398e-21
3.27436e-05
-2.49654e-20
3.27436e-05
1.10016e-19
3.27436e-05
-4.23835e-20
3.27436e-05
-8.00477e-20
3.27436e-05
5.06168e-20
3.27436e-05
7.86897e-21
3.27436e-05
-5.30814e-20
3.27436e-05
8.70111e-20
3.27436e-05
4.28696e-20
3.27436e-05
-1.5562e-19
3.27436e-05
-8.8281e-20
3.27436e-05
1.04926e-19
3.27436e-05
1.5426e-19
3.27436e-05
-8.27254e-20
3.27436e-05
-1.4146e-20
3.27436e-05
1.92653e-19
3.27436e-05
-3.41077e-20
3.27436e-05
-1.19327e-19
3.27436e-05
1.119e-19
3.27436e-05
-6.8633e-20
3.27436e-05
9.03439e-21
3.27436e-05
1.65902e-19
3.27436e-05
-1.54602e-19
3.27436e-05
-4.15383e-20
3.27436e-05
6.95438e-20
3.27436e-05
-1.15504e-19
3.27436e-05
-1.86827e-21
3.27436e-05
5.8388e-23
3.27436e-05
1.14677e-19
3.27436e-05
4.04012e-20
3.27436e-05
-5.0167e-20
3.27436e-05
-2.81012e-20
3.27436e-05
1.02154e-20
3.27436e-05
-1.08018e-21
3.27436e-05
-2.17941e-20
3.27436e-05
4.83016e-20
3.27436e-05
-1.73909e-19
3.27436e-05
1.09727e-19
3.27436e-05
1.25091e-19
3.27436e-05
-1.98105e-19
3.27436e-05
3.05105e-20
3.27436e-05
1.01973e-19
3.27436e-05
-8.1412e-20
3.27436e-05
-3.42092e-20
3.27436e-05
3.34519e-20
3.27436e-05
1.04518e-19
3.27436e-05
-2.54273e-20
3.27436e-05
-7.88505e-20
3.27436e-05
1.41654e-19
3.27436e-05
-2.35438e-20
3.27436e-05
-8.07218e-20
3.27436e-05
7.29732e-21
3.27436e-05
-4.4076e-20
3.27436e-05
1.46816e-19
3.27436e-05
3.41217e-20
3.27436e-05
-1.04513e-19
3.27436e-05
3.60919e-20
3.27436e-05
3.44983e-20
3.27436e-05
1.13883e-20
3.27436e-05
-5.05742e-20
3.27436e-05
-3.81215e-20
3.27436e-05
-2.41405e-20
3.27436e-05
1.61737e-19
3.27436e-05
2.28686e-20
3.27436e-05
-5.65726e-20
3.27436e-05
9.91579e-20
3.27436e-05
6.2226e-21
3.27436e-05
-1.87399e-19
3.27436e-05
-4.46804e-20
3.27436e-05
8.42546e-20
3.27436e-05
-1.47109e-19
3.27436e-05
1.34256e-19
3.27436e-05
2.73343e-20
3.27436e-05
5.89412e-20
3.27436e-05
1.22413e-19
3.27436e-05
-1.7835e-19
3.27436e-05
-1.22029e-19
3.27436e-05
4.84939e-20
3.27436e-05
1.09636e-20
3.27436e-05
6.13374e-20
3.27436e-05
2.99507e-20
3.27436e-05
-7.92364e-20
3.27436e-05
1.20775e-19
3.27436e-05
-1.13478e-19
3.27436e-05
3.64696e-21
3.27436e-05
-5.40232e-20
3.27436e-05
-8.0134e-20
3.27436e-05
1.18362e-19
3.27436e-05
1.10178e-19
3.27436e-05
-5.52819e-20
3.27436e-05
-1.06941e-19
3.27436e-05
1.52975e-20
3.27436e-05
-9.4961e-20
3.27436e-05
2.28921e-20
3.27436e-05
-1.87249e-20
3.27436e-05
-1.57091e-20
3.27436e-05
7.66515e-20
3.27436e-05
1.20264e-19
3.27436e-05
-1.18498e-20
3.27436e-05
-2.72971e-20
3.27436e-05
-1.3329e-19
3.27436e-05
-1.41746e-20
3.27436e-05
5.86693e-20
3.27436e-05
-1.05886e-19
3.27436e-05
1.02228e-19
3.27436e-05
3.15409e-20
3.27436e-05
4.37823e-20
3.27436e-05
-7.31438e-20
3.27436e-05
-1.70145e-20
3.27436e-05
-1.49564e-20
3.27436e-05
-1.22044e-19
3.27436e-05
6.77218e-21
3.27436e-05
1.75983e-19
3.27436e-05
-4.04e-20
3.27436e-05
-3.8232e-20
3.27436e-05
1.29195e-19
3.27436e-05
-1.01822e-19
3.27436e-05
-9.51576e-21
3.27436e-05
-1.82297e-20
3.27436e-05
-4.78728e-20
3.27436e-05
-4.43328e-20
3.27436e-05
1.38511e-19
3.27436e-05
-7.25706e-20
3.27436e-05
-1.08346e-19
3.27436e-05
1.18374e-19
3.27436e-05
-2.53737e-20
3.27436e-05
-9.87782e-20
3.27436e-05
8.71608e-20
3.27436e-05
-9.55171e-20
3.27436e-05
6.46899e-20
3.27436e-05
2.70175e-19
3.27436e-05
-1.4714e-19
3.27436e-05
1.05243e-19
3.27436e-05
-1.64922e-19
3.27436e-05
-1.6506e-19
3.27436e-05
3.35026e-19
3.27436e-05
-2.41141e-19
3.27436e-05
-1.42274e-19
3.27436e-05
4.76812e-19
3.27436e-05
-2.26472e-19
3.27436e-05
-1.7041e-19
3.27436e-05
1.41011e-19
3.27436e-05
-1.60773e-19
3.27436e-05
1.42194e-19
3.27436e-05
-1.18627e-19
3.27436e-05
-7.30792e-20
3.27436e-05
1.31961e-19
3.27436e-05
1.15453e-19
3.27436e-05
-7.46274e-20
3.27436e-05
-7.93617e-20
3.27436e-05
-9.34603e-20
3.27436e-05
7.45993e-20
3.27436e-05
2.36222e-19
3.27436e-05
-2.44443e-19
3.27436e-05
2.52147e-19
3.27436e-05
5.8321e-20
3.27436e-05
-2.82201e-19
3.27436e-05
2.35319e-19
3.27436e-05
9.91398e-20
3.27436e-05
-2.90702e-19
3.27436e-05
4.86024e-20
3.27436e-05
5.51917e-20
3.27436e-05
-1.60987e-19
3.27436e-05
3.89619e-19
3.27436e-05
7.27672e-20
3.27436e-05
-3.81368e-19
3.27436e-05
1.03788e-19
3.27436e-05
-6.16177e-21
3.27436e-05
-1.9735e-19
3.27436e-05
3.05122e-19
3.27436e-05
-1.65104e-19
3.27436e-05
-1.24357e-19
3.27436e-05
4.6308e-19
3.27436e-05
-1.91098e-19
3.27436e-05
-3.13999e-19
3.27436e-05
2.48048e-19
3.27436e-05
-1.39796e-19
3.27436e-05
-1.71567e-19
3.27436e-05
3.19273e-19
3.27436e-05
7.09484e-20
3.27436e-05
-2.76269e-19
3.27436e-05
1.29984e-19
3.27436e-05
8.73737e-20
3.27436e-05
-1.34728e-19
3.27436e-05
1.19235e-19
3.27436e-05
-6.79897e-20
3.27436e-05
-9.28242e-20
3.27436e-05
-1.32105e-20
3.27436e-05
1.63247e-19
3.27436e-05
1.44718e-19
3.27436e-05
-7.42748e-20
3.27436e-05
-1.81542e-19
3.27436e-05
-5.06474e-20
3.27436e-05
2.31712e-19
3.27436e-05
-1.2325e-19
3.27436e-05
-1.31268e-19
3.27436e-05
-8.56755e-21
3.27436e-05
2.37181e-19
3.27436e-05
2.18588e-19
3.27436e-05
-3.43922e-19
3.27436e-05
-1.22894e-20
3.27436e-05
1.78704e-19
3.27436e-05
-2.7213e-19
3.27436e-05
1.17956e-19
3.27436e-05
2.12916e-19
3.27436e-05
-3.77183e-19
3.27436e-05
2.71254e-19
3.27436e-05
1.82153e-19
3.27436e-05
-3.03103e-19
3.27436e-05
7.27134e-20
3.27436e-05
-4.20567e-21
3.27436e-05
-8.69516e-20
3.27436e-05
1.29081e-19
3.27436e-05
2.28358e-19
3.27436e-05
2.35646e-20
3.27436e-05
-2.91804e-20
3.27436e-05
-1.93028e-19
3.27436e-05
-8.62213e-20
3.27436e-05
1.41906e-19
3.27436e-05
-7.96246e-20
3.27436e-05
-1.7154e-19
3.27436e-05
9.18501e-20
3.27436e-05
2.43101e-19
3.27436e-05
4.44946e-20
3.27436e-05
-4.36973e-20
3.27436e-05
-1.96672e-19
3.27436e-05
-8.80147e-20
3.27436e-05
1.72632e-19
3.27436e-05
-6.67019e-20
3.27436e-05
1.70488e-19
3.27436e-05
-2.41762e-19
3.27436e-05
-4.7248e-20
3.27436e-05
3.97908e-19
3.27436e-05
-2.22975e-19
3.27436e-05
-6.98703e-20
3.27436e-05
1.99825e-21
3.27436e-05
-6.00408e-20
3.27436e-05
-9.70423e-20
3.27436e-05
3.39611e-19
3.27436e-05
6.94447e-20
3.27436e-05
-2.24435e-19
3.27436e-05
-4.33685e-20
3.27436e-05
-2.65746e-20
3.27436e-05
1.52893e-19
3.27436e-05
-9.06271e-20
3.27436e-05
7.52036e-20
3.27436e-05
-1.53663e-19
3.27436e-05
2.1768e-19
3.27436e-05
6.86205e-20
3.27436e-05
-1.81645e-19
3.27436e-05
-8.24747e-20
3.27436e-05
6.91822e-20
3.27436e-05
2.94472e-20
3.27436e-05
-1.47103e-19
3.27436e-05
2.97713e-19
3.27436e-05
-2.34104e-19
3.27436e-05
8.32624e-20
3.27436e-05
1.59006e-19
3.27436e-05
-1.01186e-19
3.27436e-05
-1.24734e-19
3.27436e-05
9.97344e-20
3.27436e-05
-8.8359e-21
3.27436e-05
-2.41018e-19
3.27436e-05
3.54379e-19
3.27436e-05
1.85173e-19
3.27436e-05
-2.46704e-19
3.27436e-05
-1.37944e-19
3.27436e-05
-5.33575e-20
3.27436e-05
-4.46337e-20
3.27436e-05
1.25009e-19
3.27436e-05
4.03493e-19
3.27436e-05
-2.83997e-19
3.27436e-05
-1.67391e-19
3.27436e-05
-1.07014e-19
3.27436e-05
3.17514e-19
3.27436e-05
2.9671e-19
3.27436e-05
-5.58634e-19
3.27436e-05
-9.78328e-20
3.27436e-05
2.7777e-19
3.27436e-05
3.17726e-19
3.27436e-05
-4.4536e-19
3.27436e-05
4.08718e-20
3.27436e-05
1.88953e-19
3.27436e-05
-6.91577e-20
3.27436e-05
4.8531e-20
3.27436e-05
-3.01029e-19
3.27436e-05
2.60785e-20
3.27436e-05
2.99617e-19
3.27436e-05
1.37704e-19
3.27436e-05
-4.10018e-19
3.27436e-05
-1.46393e-19
3.27436e-05
5.23224e-19
3.27436e-05
-1.05358e-19
3.27436e-05
-2.1462e-19
3.27436e-05
2.54217e-20
3.27436e-05
5.85019e-20
3.27436e-05
1.91282e-20
3.27436e-05
9.78497e-20
3.27436e-05
-2.18328e-19
3.27436e-05
-1.87181e-19
3.27436e-05
5.0512e-19
3.27436e-05
-3.7186e-20
3.27436e-05
-4.98536e-19
3.27436e-05
-1.74915e-20
3.27436e-05
6.53309e-19
3.27436e-05
-1.68465e-19
3.27436e-05
-5.58081e-20
3.27436e-05
3.83792e-21
3.27436e-05
-2.58497e-19
3.27436e-05
4.54342e-19
3.27436e-05
-2.97007e-19
3.27436e-05
-1.02852e-19
3.27436e-05
-8.73352e-20
3.27436e-05
2.20721e-19
3.27436e-05
1.07771e-19
3.27436e-05
-1.98588e-19
3.27436e-05
8.80516e-20
3.27436e-05
-1.54512e-19
3.27436e-05
2.35432e-19
3.27436e-05
-1.17373e-19
3.27436e-05
5.60478e-20
3.27436e-05
-1.55614e-19
3.27436e-05
1.67575e-19
3.27436e-05
-1.47796e-21
3.27436e-05
-1.53534e-19
3.27436e-05
1.652e-19
3.27436e-05
6.45766e-20
3.27436e-05
1.49943e-19
3.27436e-05
-6.046e-19
3.27436e-05
3.04597e-19
3.27436e-05
1.88403e-19
3.27436e-05
5.97012e-20
3.27436e-05
9.87938e-20
3.27436e-05
-4.95495e-19
3.27436e-05
1.59464e-19
3.27436e-05
1.90207e-19
3.27436e-05
-3.11069e-20
3.27436e-05
-1.90759e-19
3.27436e-05
1.52241e-19
3.27436e-05
-1.16084e-19
3.27436e-05
4.59315e-20
3.27436e-05
1.3985e-19
3.27436e-05
-1.76874e-19
3.27436e-05
1.88932e-19
3.27436e-05
5.5563e-21
3.27436e-05
8.34269e-20
3.27436e-05
-3.16335e-19
3.27436e-05
6.5257e-20
3.27436e-05
1.28826e-19
3.27436e-05
4.63691e-20
3.27436e-05
-3.78034e-20
3.27436e-05
-1.61254e-19
3.27436e-05
3.0361e-19
3.27436e-05
-3.43818e-19
3.27436e-05
7.22611e-20
3.27436e-05
2.37135e-20
3.27436e-05
-6.32831e-20
3.27436e-05
3.57591e-19
3.27436e-05
-2.46363e-19
3.27436e-05
-2.45898e-19
3.27436e-05
2.18045e-19
3.27436e-05
2.62452e-19
3.27436e-05
-2.79438e-19
3.27436e-05
6.01815e-20
3.27436e-05
-2.57112e-20
3.27436e-05
5.1768e-20
3.27436e-05
2.50226e-19
3.27436e-05
-1.13154e-19
-1.61312e-19
9.68961e-05
-1.59877e-18
9.68961e-05
-4.42648e-19
9.68961e-05
-7.5809e-20
9.68961e-05
9.04127e-20
9.68961e-05
1.10712e-19
9.68961e-05
5.5512e-20
9.68961e-05
6.75925e-20
9.68961e-05
6.55477e-20
9.68961e-05
2.71633e-20
9.68961e-05
-3.04769e-20
9.68961e-05
-4.5342e-20
9.68961e-05
-8.75905e-20
9.68961e-05
-7.55761e-20
9.68961e-05
-5.27158e-21
9.68961e-05
3.56641e-20
9.68961e-05
1.93879e-20
9.68961e-05
-2.48824e-20
9.68961e-05
-2.94254e-20
9.68961e-05
6.98486e-21
9.68961e-05
2.58465e-21
9.68961e-05
1.2785e-20
9.68961e-05
3.558e-20
9.68961e-05
9.78646e-20
9.68961e-05
7.76469e-20
9.68961e-05
-6.91181e-21
9.68961e-05
-7.8807e-20
9.68961e-05
-6.10039e-20
9.68961e-05
5.30079e-21
9.68961e-05
-8.44407e-20
9.68961e-05
-4.41177e-20
9.68961e-05
2.0051e-20
9.68961e-05
-8.82587e-21
9.68961e-05
-2.12305e-20
9.68961e-05
-3.81959e-20
9.68961e-05
-1.59329e-20
9.68961e-05
3.1584e-20
9.68961e-05
-8.71783e-20
9.68961e-05
-6.48867e-20
9.68961e-05
-5.20146e-20
9.68961e-05
-1.59141e-19
9.68961e-05
-3.45897e-20
9.68961e-05
-7.87921e-20
9.68961e-05
-6.3899e-20
9.68961e-05
3.9627e-20
9.68961e-05
4.70063e-20
9.68961e-05
6.29609e-20
9.68961e-05
6.73017e-20
9.68961e-05
-1.08694e-19
9.68961e-05
-3.8809e-20
9.68961e-05
1.05261e-19
9.68961e-05
4.55216e-20
9.68961e-05
2.53269e-20
9.68961e-05
-3.52937e-20
9.68961e-05
1.17493e-20
9.68961e-05
7.2874e-20
9.68961e-05
-3.94531e-20
9.68961e-05
5.42067e-20
9.68961e-05
-4.98409e-20
9.68961e-05
-1.30277e-19
9.68961e-05
-3.59358e-20
9.68961e-05
-5.08611e-20
9.68961e-05
-2.44092e-20
9.68961e-05
-2.0503e-21
9.68961e-05
4.07884e-20
9.68961e-05
4.67865e-20
9.68961e-05
7.36994e-20
9.68961e-05
-5.42949e-20
9.68961e-05
-5.01218e-20
9.68961e-05
9.75739e-20
9.68961e-05
-5.64742e-21
9.68961e-05
-1.17203e-20
9.68961e-05
5.88293e-20
9.68961e-05
1.49e-19
9.68961e-05
-1.10074e-19
9.68961e-05
-1.47127e-19
9.68961e-05
2.67908e-19
9.68961e-05
1.8988e-19
9.68961e-05
-2.12679e-20
9.68961e-05
2.97453e-20
9.68961e-05
1.38012e-19
9.68961e-05
7.04421e-20
9.68961e-05
-6.8707e-20
9.68961e-05
-1.26026e-20
9.68961e-05
-2.84678e-20
9.68961e-05
-9.46835e-20
9.68961e-05
1.39352e-20
9.68961e-05
-1.07424e-19
9.68961e-05
-4.90773e-20
9.68961e-05
5.04916e-22
9.68961e-05
-2.38685e-20
9.68961e-05
5.93024e-20
9.68961e-05
2.59476e-20
9.68961e-05
3.62627e-20
9.68961e-05
2.51126e-20
9.68961e-05
7.33522e-21
9.68961e-05
-1.41058e-19
9.68961e-05
4.3246e-20
9.68961e-05
2.67695e-19
9.68961e-05
-7.88578e-20
9.68961e-05
-1.304e-19
9.68961e-05
1.84179e-19
9.68961e-05
1.77316e-19
9.68961e-05
-3.46717e-20
9.68961e-05
-1.31012e-19
9.68961e-05
2.07105e-20
9.68961e-05
4.12457e-20
9.68961e-05
-4.60043e-20
9.68961e-05
-6.27518e-20
9.68961e-05
2.13314e-19
9.68961e-05
2.45983e-19
9.68961e-05
-4.24497e-20
9.68961e-05
-1.78349e-19
9.68961e-05
-1.22252e-19
9.68961e-05
1.14504e-19
9.68961e-05
1.96718e-20
9.68961e-05
-2.78836e-19
9.68961e-05
-1.26769e-19
9.68961e-05
1.66404e-19
9.68961e-05
4.25226e-20
9.68961e-05
-1.62906e-19
9.68961e-05
-1.36551e-19
9.68961e-05
8.49335e-21
9.68961e-05
9.22462e-20
9.68961e-05
-8.33392e-20
9.68961e-05
-1.19084e-19
9.68961e-05
1.52315e-19
9.68961e-05
7.8471e-20
9.68961e-05
-4.4985e-20
9.68961e-05
1.01677e-19
9.68961e-05
4.15602e-20
9.68961e-05
6.52602e-20
9.68961e-05
-2.1363e-20
9.68961e-05
2.06514e-19
9.68961e-05
-3.33746e-20
9.68961e-05
-1.66518e-19
9.68961e-05
6.28452e-20
9.68961e-05
-3.06673e-20
9.68961e-05
-8.00856e-20
9.68961e-05
1.83781e-19
9.68961e-05
7.46679e-20
9.68961e-05
-3.39686e-19
9.68961e-05
-2.12423e-19
9.68961e-05
2.71354e-19
9.68961e-05
4.03965e-19
9.68961e-05
-1.48743e-19
9.68961e-05
-1.51283e-20
9.68961e-05
4.81048e-19
9.68961e-05
-2.32448e-20
9.68961e-05
-2.58908e-19
9.68961e-05
1.47761e-19
9.68961e-05
-1.20988e-19
9.68961e-05
7.34741e-20
9.68961e-05
2.91907e-19
9.68961e-05
-3.38133e-19
9.68961e-05
-8.3831e-20
9.68961e-05
1.05128e-19
9.68961e-05
-2.30457e-19
9.68961e-05
-6.79331e-20
9.68961e-05
-2.22379e-20
9.68961e-05
3.10599e-19
9.68961e-05
1.44285e-19
9.68961e-05
-9.45843e-20
9.68961e-05
-4.09198e-20
9.68961e-05
-2.40135e-20
9.68961e-05
-1.68336e-20
9.68961e-05
-3.16295e-20
9.68961e-05
2.35544e-20
9.68961e-05
-3.27777e-19
9.68961e-05
1.81823e-19
9.68961e-05
2.32599e-19
9.68961e-05
-3.18217e-19
9.68961e-05
-4.19824e-20
9.68961e-05
2.0168e-19
9.68961e-05
-7.79219e-20
9.68961e-05
-1.74192e-19
9.68961e-05
1.245e-19
9.68961e-05
3.20431e-19
9.68961e-05
-8.86949e-20
9.68961e-05
-1.58402e-19
9.68961e-05
3.51536e-19
9.68961e-05
-1.67775e-20
9.68961e-05
-2.15189e-19
9.68961e-05
-3.40807e-20
9.68961e-05
-7.01295e-20
9.68961e-05
3.08147e-19
9.68961e-05
1.13941e-19
9.68961e-05
-1.68292e-19
9.68961e-05
1.23231e-20
9.68961e-05
1.34296e-19
9.68961e-05
8.78969e-21
9.68961e-05
-1.30951e-19
9.68961e-05
-8.94959e-20
9.68961e-05
2.60915e-20
9.68961e-05
3.88539e-19
9.68961e-05
1.14268e-21
9.68961e-05
-1.04195e-19
9.68961e-05
3.19087e-19
9.68961e-05
-9.03632e-20
9.68961e-05
-4.42856e-19
9.68961e-05
-6.11925e-20
9.68961e-05
9.42889e-20
9.68961e-05
-2.75241e-19
9.68961e-05
3.00732e-19
9.68961e-05
7.20947e-20
9.68961e-05
2.13428e-19
9.68961e-05
3.47807e-19
9.68961e-05
-4.46708e-19
9.68961e-05
-3.54587e-19
9.68961e-05
4.14772e-20
9.68961e-05
1.00986e-19
9.68961e-05
1.15352e-19
9.68961e-05
1.31751e-19
9.68961e-05
-8.07952e-20
9.68961e-05
1.4908e-19
9.68961e-05
-3.07102e-19
9.68961e-05
2.62499e-20
9.68961e-05
-1.98195e-19
9.68961e-05
-1.94972e-19
9.68961e-05
3.52816e-19
9.68961e-05
2.07292e-19
9.68961e-05
-1.54256e-19
9.68961e-05
-2.03342e-19
9.68961e-05
1.86e-21
9.68961e-05
-2.24668e-19
9.68961e-05
2.00861e-20
9.68961e-05
-1.87612e-20
9.68961e-05
-3.81174e-20
9.68961e-05
1.97989e-19
9.68961e-05
3.49103e-19
9.68961e-05
-7.09385e-20
9.68961e-05
-5.19825e-20
9.68961e-05
-2.60967e-19
9.68961e-05
-2.09193e-19
9.68961e-05
1.20887e-19
9.68961e-05
-1.4393e-19
9.68961e-05
1.64373e-19
9.68961e-05
1.38197e-19
9.68961e-05
4.88149e-21
9.68961e-05
-9.72337e-20
9.68961e-05
-5.95525e-20
9.68961e-05
-1.06939e-19
9.68961e-05
-2.35525e-19
9.68961e-05
-4.99372e-20
9.68961e-05
3.732e-19
9.68961e-05
2.14287e-20
9.68961e-05
-5.27882e-20
9.68961e-05
2.30416e-19
9.68961e-05
-1.85612e-19
9.68961e-05
-9.64622e-20
9.68961e-05
-3.84301e-21
9.68961e-05
-1.72226e-19
9.68961e-05
-1.24996e-19
9.68961e-05
2.19029e-19
9.68961e-05
-1.21941e-19
9.68961e-05
-2.11387e-19
9.68961e-05
1.72267e-19
9.68961e-05
-3.8066e-21
9.68961e-05
-1.88459e-19
9.68961e-05
1.198e-19
9.68961e-05
-2.20668e-19
9.68961e-05
2.40908e-19
9.68961e-05
6.23345e-19
9.68961e-05
-1.52298e-19
9.68961e-05
9.39863e-20
9.68961e-05
-4.57561e-19
9.68961e-05
-4.08436e-19
9.68961e-05
7.25649e-19
9.68961e-05
-4.28346e-19
9.68961e-05
-3.50152e-19
9.68961e-05
8.98631e-19
9.68961e-05
-3.89253e-19
9.68961e-05
-3.84646e-19
9.68961e-05
2.15616e-19
9.68961e-05
-3.01257e-19
9.68961e-05
1.23571e-19
9.68961e-05
-6.9348e-20
9.68961e-05
-1.49467e-19
9.68961e-05
2.02118e-19
9.68961e-05
2.7709e-19
9.68961e-05
-7.50731e-20
9.68961e-05
-1.83933e-19
9.68961e-05
-3.35652e-19
9.68961e-05
2.43232e-19
9.68961e-05
5.99392e-19
9.68961e-05
-4.44724e-19
9.68961e-05
5.40704e-19
9.68961e-05
2.28679e-19
9.68961e-05
-6.83571e-19
9.68961e-05
5.16037e-19
9.68961e-05
1.88349e-19
9.68961e-05
-6.74818e-19
9.68961e-05
1.11552e-19
9.68961e-05
1.68468e-19
9.68961e-05
-2.45438e-19
9.68961e-05
8.37633e-19
9.68961e-05
8.96647e-20
9.68961e-05
-7.82026e-19
9.68961e-05
1.41878e-19
9.68961e-05
-7.62988e-20
9.68961e-05
-3.5339e-19
9.68961e-05
4.96123e-19
9.68961e-05
-1.89233e-19
9.68961e-05
-2.83064e-19
9.68961e-05
8.90884e-19
9.68961e-05
-3.0826e-19
9.68961e-05
-7.51139e-19
9.68961e-05
3.22496e-19
9.68961e-05
-2.1093e-19
9.68961e-05
-2.70345e-19
9.68961e-05
5.39962e-19
9.68961e-05
2.16974e-19
9.68961e-05
-4.98937e-19
9.68961e-05
2.07113e-19
9.68961e-05
2.37827e-19
9.68961e-05
-2.05225e-19
9.68961e-05
8.35023e-20
9.68961e-05
-1.62568e-19
9.68961e-05
-1.60262e-19
9.68961e-05
-5.92143e-20
9.68961e-05
3.84849e-19
9.68961e-05
4.12031e-19
9.68961e-05
-2.54529e-19
9.68961e-05
-4.14506e-19
9.68961e-05
-2.19384e-21
9.68961e-05
3.52843e-19
9.68961e-05
-2.5823e-19
9.68961e-05
-2.54996e-19
9.68961e-05
1.33984e-20
9.68961e-05
5.26971e-19
9.68961e-05
5.04124e-19
9.68961e-05
-6.3002e-19
9.68961e-05
-1.1534e-19
9.68961e-05
2.7933e-19
9.68961e-05
-4.9603e-19
9.68961e-05
1.69165e-19
9.68961e-05
3.94979e-19
9.68961e-05
-5.73754e-19
9.68961e-05
4.40005e-19
9.68961e-05
3.71642e-19
9.68961e-05
-4.8343e-19
9.68961e-05
5.17827e-20
9.68961e-05
-1.56076e-19
9.68961e-05
1.9046e-20
9.68961e-05
3.71247e-19
9.68961e-05
4.33511e-19
9.68961e-05
2.07977e-19
9.68961e-05
-1.53453e-19
9.68961e-05
-5.51794e-19
9.68961e-05
-1.09799e-19
9.68961e-05
2.65411e-19
9.68961e-05
-3.78913e-19
9.68961e-05
-2.23527e-19
9.68961e-05
2.62936e-19
9.68961e-05
4.55757e-19
9.68961e-05
2.69401e-19
9.68961e-05
-1.23775e-19
9.68961e-05
-5.06127e-19
9.68961e-05
-1.73795e-19
9.68961e-05
1.98691e-19
9.68961e-05
-7.14913e-20
9.68961e-05
4.50798e-19
9.68961e-05
-5.55752e-19
9.68961e-05
-8.054e-20
9.68961e-05
8.29114e-19
9.68961e-05
-4.23051e-19
9.68961e-05
-2.44234e-19
9.68961e-05
-4.62431e-20
9.68961e-05
-1.06805e-19
9.68961e-05
-1.28804e-19
9.68961e-05
7.36316e-19
9.68961e-05
1.07403e-19
9.68961e-05
-4.65811e-19
9.68961e-05
-2.32288e-20
9.68961e-05
-1.40283e-20
9.68961e-05
2.37711e-19
9.68961e-05
-1.57525e-19
9.68961e-05
7.63732e-20
9.68961e-05
-2.16965e-19
9.68961e-05
4.9341e-19
9.68961e-05
2.32425e-20
9.68961e-05
-3.79871e-19
9.68961e-05
-1.48861e-19
9.68961e-05
1.33929e-19
9.68961e-05
5.45224e-21
9.68961e-05
-3.34205e-19
9.68961e-05
7.7413e-19
9.68961e-05
-3.61657e-19
9.68961e-05
-4.05455e-20
9.68961e-05
4.69029e-19
9.68961e-05
-1.08283e-19
9.68961e-05
-4.61392e-19
9.68961e-05
1.36697e-19
9.68961e-05
5.3775e-20
9.68961e-05
-4.70031e-19
9.68961e-05
9.13424e-19
9.68961e-05
3.94344e-19
9.68961e-05
-6.84377e-19
9.68961e-05
-2.39468e-19
9.68961e-05
-1.55067e-19
9.68961e-05
-1.77324e-19
9.68961e-05
3.25886e-19
9.68961e-05
8.68942e-19
9.68961e-05
-5.60972e-19
9.68961e-05
-3.04512e-19
9.68961e-05
-3.18253e-19
9.68961e-05
5.93552e-19
9.68961e-05
8.44382e-19
9.68961e-05
-1.21523e-18
9.68961e-05
-4.89809e-19
9.68961e-05
6.79655e-19
9.68961e-05
8.58811e-19
9.68961e-05
-9.94381e-19
9.68961e-05
7.69559e-20
9.68961e-05
4.37394e-19
9.68961e-05
-8.36518e-20
9.68961e-05
-1.85869e-20
9.68961e-05
-7.35743e-19
9.68961e-05
1.8842e-19
9.68961e-05
5.90368e-19
9.68961e-05
2.94784e-19
9.68961e-05
-8.33131e-19
9.68961e-05
-3.14736e-19
9.68961e-05
1.00491e-18
9.68961e-05
-2.53921e-20
9.68961e-05
-4.47873e-19
9.68961e-05
-1.60896e-19
9.68961e-05
2.46012e-19
9.68961e-05
9.59258e-20
9.68961e-05
1.23113e-19
9.68961e-05
-5.36903e-19
9.68961e-05
-4.00545e-19
9.68961e-05
1.01893e-18
9.68961e-05
1.19344e-19
9.68961e-05
-1.16435e-18
9.68961e-05
-2.10953e-19
9.68961e-05
1.61017e-18
9.68961e-05
-1.72551e-19
9.68961e-05
-2.23989e-19
9.68961e-05
-3.81497e-20
9.68961e-05
-3.94146e-19
9.68961e-05
7.43184e-19
9.68961e-05
-5.32036e-19
9.68961e-05
-3.45891e-19
9.68961e-05
-1.32023e-19
9.68961e-05
4.90289e-19
9.68961e-05
1.77407e-19
9.68961e-05
-3.29728e-19
9.68961e-05
6.61357e-20
9.68961e-05
-2.54458e-19
9.68961e-05
5.13025e-19
9.68961e-05
-2.11806e-19
9.68961e-05
-5.86075e-20
9.68961e-05
-9.28937e-20
9.68961e-05
3.35517e-19
9.68961e-05
-1.08734e-19
9.68961e-05
-2.37173e-19
9.68961e-05
3.72391e-19
9.68961e-05
1.17479e-19
9.68961e-05
2.92744e-19
9.68961e-05
-1.2656e-18
9.68961e-05
4.9322e-19
9.68961e-05
7.89483e-19
9.68961e-05
1.00361e-19
9.68961e-05
-1.4715e-19
9.68961e-05
-8.4272e-19
9.68961e-05
4.35195e-19
9.68961e-05
1.68137e-19
9.68961e-05
-8.47838e-20
9.68961e-05
-1.13042e-19
9.68961e-05
1.36537e-19
9.68961e-05
-2.93714e-19
9.68961e-05
9.70493e-20
9.68961e-05
3.56358e-19
9.68961e-05
-1.80006e-19
9.68961e-05
3.34834e-19
9.68961e-05
1.09773e-19
9.68961e-05
-2.93482e-20
9.68961e-05
-6.38798e-19
9.68961e-05
3.6901e-19
9.68961e-05
1.69178e-19
9.68961e-05
-1.20302e-19
9.68961e-05
9.8936e-20
9.68961e-05
-1.80196e-19
9.68961e-05
3.21343e-19
9.68961e-05
-6.92211e-19
9.68961e-05
1.19352e-19
9.68961e-05
8.97638e-20
9.68961e-05
9.87802e-20
9.68961e-05
5.31352e-19
9.68961e-05
-6.87102e-19
9.68961e-05
-3.07473e-19
9.68961e-05
6.30744e-19
9.68961e-05
3.20908e-19
9.68961e-05
-5.60915e-19
9.68961e-05
6.76738e-20
9.68961e-05
-3.96934e-20
9.68961e-05
1.21552e-19
9.68961e-05
3.28266e-19
9.68961e-05
-3.30693e-19
-2.58779e-19
0.000159671
-1.5159e-18
0.000159671
-5.65848e-19
0.000159671
-1.75172e-19
0.000159671
5.98571e-20
0.000159671
1.35297e-19
0.000159671
2.30731e-20
0.000159671
8.04086e-20
0.000159671
1.4631e-19
0.000159671
4.74319e-20
0.000159671
-1.2128e-19
0.000159671
-1.90989e-19
0.000159671
-1.80809e-19
0.000159671
-1.50353e-19
0.000159671
-3.40035e-20
0.000159671
2.90575e-20
0.000159671
-1.18017e-20
0.000159671
2.38702e-20
0.000159671
5.79394e-21
0.000159671
4.82607e-20
0.000159671
4.46391e-20
0.000159671
-5.06054e-20
0.000159671
6.33254e-20
0.000159671
1.63184e-19
0.000159671
1.20284e-19
0.000159671
3.6473e-20
0.000159671
-1.19278e-19
0.000159671
-1.7381e-19
0.000159671
1.60597e-22
0.000159671
-1.26779e-19
0.000159671
-1.03435e-19
0.000159671
-1.80543e-21
0.000159671
-5.31052e-20
0.000159671
-3.77181e-20
0.000159671
-6.14923e-20
0.000159671
-8.78116e-20
0.000159671
1.44227e-21
0.000159671
-1.37615e-19
0.000159671
-1.10462e-19
0.000159671
-1.11016e-19
0.000159671
-2.92627e-19
0.000159671
-1.31335e-19
0.000159671
-1.83667e-19
0.000159671
-1.15135e-19
0.000159671
6.83067e-20
0.000159671
1.35792e-19
0.000159671
1.01676e-19
0.000159671
7.09929e-20
0.000159671
-8.30311e-20
0.000159671
-4.71087e-20
0.000159671
1.53899e-19
0.000159671
9.83906e-20
0.000159671
3.20778e-20
0.000159671
-4.31352e-20
0.000159671
3.18668e-20
0.000159671
1.12008e-19
0.000159671
-1.77551e-20
0.000159671
1.46808e-20
0.000159671
-1.58306e-19
0.000159671
-1.78659e-19
0.000159671
-6.09359e-20
0.000159671
-1.16786e-19
0.000159671
-6.40443e-20
0.000159671
-1.8817e-20
0.000159671
1.2431e-19
0.000159671
6.57426e-20
0.000159671
1.34676e-19
0.000159671
-6.6193e-20
0.000159671
-8.90879e-20
0.000159671
1.62168e-19
0.000159671
8.3494e-20
0.000159671
5.05463e-20
0.000159671
6.0934e-20
0.000159671
1.53276e-19
0.000159671
-1.18823e-19
0.000159671
-2.34609e-19
0.000159671
4.07906e-19
0.000159671
3.92192e-19
0.000159671
1.13725e-19
0.000159671
3.15362e-20
0.000159671
1.81377e-19
0.000159671
1.20595e-19
0.000159671
-8.78204e-20
0.000159671
-6.12573e-20
0.000159671
-2.65876e-20
0.000159671
-1.00723e-19
0.000159671
-6.7003e-20
0.000159671
-2.3201e-19
0.000159671
-4.19893e-20
0.000159671
-7.15922e-21
0.000159671
-3.22513e-20
0.000159671
6.74467e-20
0.000159671
-3.24576e-20
0.000159671
1.10977e-19
0.000159671
1.03756e-19
0.000159671
-1.38683e-20
0.000159671
-1.79351e-19
0.000159671
1.14752e-19
0.000159671
3.40859e-19
0.000159671
-1.23759e-19
0.000159671
-1.46659e-19
0.000159671
3.07687e-19
0.000159671
2.77643e-19
0.000159671
3.26404e-22
0.000159671
-2.11126e-19
0.000159671
7.97379e-21
0.000159671
1.45115e-19
0.000159671
-1.10764e-19
0.000159671
-9.28537e-20
0.000159671
4.02745e-19
0.000159671
3.79885e-19
0.000159671
-7.94219e-20
0.000159671
-2.3415e-19
0.000159671
-2.03811e-19
0.000159671
1.36773e-19
0.000159671
2.29973e-20
0.000159671
-3.76371e-19
0.000159671
-2.42988e-19
0.000159671
1.90877e-19
0.000159671
-9.17749e-21
0.000159671
-2.52127e-19
0.000159671
-2.3719e-19
0.000159671
1.55138e-20
0.000159671
4.94427e-20
0.000159671
-1.47484e-19
0.000159671
-9.82732e-20
0.000159671
1.98337e-19
0.000159671
1.33347e-19
0.000159671
1.54791e-20
0.000159671
1.64477e-19
0.000159671
1.20332e-19
0.000159671
1.55307e-19
0.000159671
-2.97638e-20
0.000159671
2.49762e-19
0.000159671
3.14972e-20
0.000159671
-1.54398e-19
0.000159671
1.17093e-19
0.000159671
-1.72204e-19
0.000159671
-1.00214e-19
0.000159671
2.97615e-19
0.000159671
6.86467e-22
0.000159671
-4.40292e-19
0.000159671
-3.08045e-19
0.000159671
4.92805e-19
0.000159671
6.58249e-19
0.000159671
-2.36049e-19
0.000159671
4.5393e-20
0.000159671
7.77458e-19
0.000159671
-1.81036e-21
0.000159671
-3.2113e-19
0.000159671
9.32326e-20
0.000159671
-2.01458e-19
0.000159671
1.95611e-19
0.000159671
3.25994e-19
0.000159671
-4.38468e-19
0.000159671
-6.38384e-20
0.000159671
7.66402e-20
0.000159671
-3.17924e-19
0.000159671
-1.69714e-19
0.000159671
-1.07138e-19
0.000159671
5.11654e-19
0.000159671
3.05575e-19
0.000159671
-2.9653e-20
0.000159671
-1.20871e-19
0.000159671
-7.63812e-20
0.000159671
2.58184e-20
0.000159671
-5.94763e-20
0.000159671
-5.17907e-20
0.000159671
-4.00852e-19
0.000159671
2.37435e-19
0.000159671
2.66374e-19
0.000159671
-4.15054e-19
0.000159671
-1.72308e-19
0.000159671
2.66862e-19
0.000159671
-3.22278e-20
0.000159671
-2.02536e-19
0.000159671
2.38726e-19
0.000159671
4.73917e-19
0.000159671
-1.18296e-19
0.000159671
-2.08392e-19
0.000159671
5.40316e-19
0.000159671
4.29272e-20
0.000159671
-3.99829e-19
0.000159671
-6.65042e-20
0.000159671
3.66636e-20
0.000159671
3.94054e-19
0.000159671
1.53391e-19
0.000159671
-1.54412e-19
0.000159671
-4.67367e-20
0.000159671
2.43937e-19
0.000159671
2.9759e-20
0.000159671
-2.11594e-19
0.000159671
-1.1918e-19