/*--------------------------------*- C++ -*----------------------------------*\
| =========                 |                                                 |
| \\      /  F ield         | OpenFOAM: The Open Source CFD Toolbox           |
|  \\    /   O peration     | Version:  2112                                  |
|   \\  /    A nd           | Website:  www.openfoam.com                      |
|    \\/     M anipulation  |                                                 |
\*---------------------------------------------------------------------------*/
FoamFile
{
    version     2.0;
    format      ascii;
    arch        "LSB;label=32;scalar=64";
    class       surfaceScalarField;
    location    "3";
    object      phi;
}
// * * * * * * * * * * * * * * * * * * * * * * * * * * * * * * * * * * * * * //

dimensions      [0 3 -1 0 0 0 0];

oriented        oriented;

internalField   nonuniform List<scalar> 
50800
(
2.3501e-05
-2.87485e-18
2.3501e-05
-4.89417e-19
2.3501e-05
-5.47566e-20
2.3501e-05
-2.78346e-20
2.3501e-05
4.81303e-21
2.3501e-05
6.23734e-21
2.3501e-05
-4.22447e-22
2.3501e-05
9.1716e-21
2.3501e-05
7.97708e-21
2.3501e-05
-5.59051e-21
2.3501e-05
-8.52428e-21
2.3501e-05
-1.98284e-20
2.3501e-05
1.61631e-20
2.3501e-05
9.6031e-21
2.3501e-05
-1.19061e-20
2.3501e-05
3.02315e-20
2.3501e-05
1.6247e-20
2.3501e-05
-3.09619e-21
2.3501e-05
-1.1389e-20
2.3501e-05
-8.38216e-21
2.3501e-05
2.27066e-20
2.3501e-05
1.19223e-20
2.3501e-05
9.77146e-21
2.3501e-05
-3.99858e-21
2.3501e-05
-1.63099e-20
2.3501e-05
-7.53996e-21
2.3501e-05
2.48675e-20
2.3501e-05
3.86972e-21
2.3501e-05
-7.93506e-21
2.3501e-05
1.40693e-21
2.3501e-05
1.58139e-20
2.3501e-05
2.84168e-20
2.3501e-05
-2.36573e-21
2.3501e-05
-1.48342e-20
2.3501e-05
-1.04244e-20
2.3501e-05
-1.56736e-20
2.3501e-05
1.47936e-20
2.3501e-05
-1.55801e-20
2.3501e-05
-3.76109e-20
2.3501e-05
3.55473e-20
2.3501e-05
-2.69937e-21
2.3501e-05
8.44901e-21
2.3501e-05
-2.33741e-21
2.3501e-05
-3.88696e-20
2.3501e-05
1.12111e-20
2.3501e-05
-2.29398e-21
2.3501e-05
2.03395e-20
2.3501e-05
1.81993e-20
2.3501e-05
5.38449e-23
2.3501e-05
-1.04349e-22
2.3501e-05
-3.53765e-20
2.3501e-05
1.67861e-20
2.3501e-05
9.5353e-22
2.3501e-05
-3.02647e-21
2.3501e-05
5.12082e-20
2.3501e-05
-1.35871e-20
2.3501e-05
-4.74527e-21
2.3501e-05
-3.14953e-21
2.3501e-05
-4.93383e-21
2.3501e-05
3.37689e-20
2.3501e-05
-6.15981e-20
2.3501e-05
3.57104e-20
2.3501e-05
-6.4396e-21
2.3501e-05
-1.05606e-20
2.3501e-05
3.81133e-20
2.3501e-05
-4.84976e-20
2.3501e-05
1.14792e-20
2.3501e-05
6.23504e-21
2.3501e-05
1.45915e-20
2.3501e-05
3.65246e-20
2.3501e-05
-2.2026e-20
2.3501e-05
-6.58532e-21
2.3501e-05
-2.21494e-20
2.3501e-05
1.1407e-21
2.3501e-05
5.77488e-20
2.3501e-05
-3.79852e-20
2.3501e-05
-5.49894e-20
2.3501e-05
3.68994e-20
2.3501e-05
-1.09049e-20
2.3501e-05
4.42237e-20
2.3501e-05
-9.3403e-21
2.3501e-05
-6.33562e-20
2.3501e-05
1.37645e-20
2.3501e-05
-1.18309e-21
2.3501e-05
2.10496e-20
2.3501e-05
-8.89011e-21
2.3501e-05
-3.16609e-20
2.3501e-05
-1.92833e-20
2.3501e-05
2.91807e-21
2.3501e-05
5.67805e-20
2.3501e-05
-1.72264e-20
2.3501e-05
-5.60773e-20
2.3501e-05
6.4232e-21
2.3501e-05
4.78561e-20
2.3501e-05
5.84972e-21
2.3501e-05
-6.75038e-20
2.3501e-05
-8.83634e-22
2.3501e-05
-1.46351e-20
2.3501e-05
4.26755e-20
2.3501e-05
3.84387e-20
2.3501e-05
-5.89799e-20
2.3501e-05
2.78318e-20
2.3501e-05
-4.53583e-20
2.3501e-05
1.02825e-20
2.3501e-05
3.39004e-20
2.3501e-05
9.73352e-21
2.3501e-05
-6.6345e-20
2.3501e-05
-2.37415e-20
2.3501e-05
4.16026e-20
2.3501e-05
3.45841e-20
2.3501e-05
5.70316e-20
2.3501e-05
-1.3211e-19
2.3501e-05
1.29375e-20
2.3501e-05
1.04152e-19
2.3501e-05
2.26531e-20
2.3501e-05
-7.55378e-22
2.3501e-05
-1.03718e-19
2.3501e-05
-1.96264e-20
2.3501e-05
9.32632e-20
2.3501e-05
5.55082e-20
2.3501e-05
-3.29441e-20
2.3501e-05
-1.10312e-19
2.3501e-05
-2.47361e-20
2.3501e-05
1.31922e-19
2.3501e-05
7.17893e-20
2.3501e-05
-4.40208e-20
2.3501e-05
-1.32513e-19
2.3501e-05
-3.45917e-21
2.3501e-05
1.36363e-19
2.3501e-05
1.21582e-20
2.3501e-05
-3.56077e-20
2.3501e-05
-7.51875e-20
2.3501e-05
1.81458e-20
2.3501e-05
8.91392e-20
2.3501e-05
-2.05807e-22
2.3501e-05
-1.73277e-22
2.3501e-05
-6.47402e-20
2.3501e-05
-4.3082e-21
2.3501e-05
9.35417e-20
2.3501e-05
1.37607e-20
2.3501e-05
-3.62739e-20
2.3501e-05
-6.08159e-20
2.3501e-05
2.15782e-20
2.3501e-05
4.1204e-20
2.3501e-05
-1.10656e-20
2.3501e-05
3.11487e-21
2.3501e-05
-5.39629e-20
2.3501e-05
2.66829e-20
2.3501e-05
4.52053e-21
2.3501e-05
-1.03983e-20
2.3501e-05
7.89407e-20
2.3501e-05
-9.074e-20
2.3501e-05
-6.79446e-20
2.3501e-05
4.88743e-20
2.3501e-05
3.81249e-20
2.3501e-05
4.36494e-20
2.3501e-05
-6.44961e-20
2.3501e-05
-7.39574e-20
2.3501e-05
2.20327e-20
2.3501e-05
2.32293e-20
2.3501e-05
9.25336e-20
2.3501e-05
-8.98041e-20
2.3501e-05
-2.60007e-20
2.3501e-05
1.02201e-19
2.3501e-05
-8.59685e-20
2.3501e-05
4.03397e-20
2.3501e-05
-2.25476e-20
2.3501e-05
-7.1802e-20
2.3501e-05
6.16288e-20
2.3501e-05
-7.69517e-22
2.3501e-05
1.06314e-20
2.3501e-05
-1.01726e-19
2.3501e-05
-5.94132e-21
2.3501e-05
7.1196e-20
2.3501e-05
1.00856e-22
2.3501e-05
-4.43224e-21
2.3501e-05
-6.69712e-20
2.3501e-05
9.47813e-20
2.3501e-05
-3.69776e-20
2.3501e-05
-1.11321e-20
2.3501e-05
1.21005e-19
2.3501e-05
-1.37738e-19
2.3501e-05
-4.86755e-21
2.3501e-05
7.89669e-20
2.3501e-05
-1.62072e-20
2.3501e-05
1.09744e-19
2.3501e-05
-9.33585e-20
2.3501e-05
-8.1851e-21
2.3501e-05
1.08343e-19
2.3501e-05
-8.18475e-20
2.3501e-05
2.76548e-20
2.3501e-05
-1.48359e-20
2.3501e-05
-7.12543e-20
2.3501e-05
9.85796e-20
2.3501e-05
-1.59701e-20
2.3501e-05
3.05499e-20
2.3501e-05
-4.51126e-20
2.3501e-05
-4.99877e-20
2.3501e-05
1.35835e-19
2.3501e-05
-7.40025e-20
2.3501e-05
8.40076e-21
2.3501e-05
-5.35421e-20
2.3501e-05
1.18486e-20
2.3501e-05
1.58343e-19
2.3501e-05
-4.76814e-20
2.3501e-05
-6.85644e-20
2.3501e-05
-6.51614e-20
2.3501e-05
5.69618e-20
2.3501e-05
7.33656e-20
2.3501e-05
-2.79426e-20
2.3501e-05
-5.30417e-20
2.3501e-05
-1.00992e-19
2.3501e-05
2.1935e-19
2.3501e-05
1.59833e-20
2.3501e-05
-2.30213e-19
2.3501e-05
1.67814e-19
2.3501e-05
-2.48806e-20
2.3501e-05
-5.34023e-20
2.3501e-05
-1.77874e-20
2.3501e-05
-1.4804e-19
2.3501e-05
2.25561e-19
2.3501e-05
3.89429e-20
2.3501e-05
-8.3325e-20
2.3501e-05
-2.68276e-20
2.3501e-05
-1.63833e-19
2.3501e-05
2.31507e-19
2.3501e-05
3.96602e-21
2.3501e-05
-9.13015e-20
2.3501e-05
6.11165e-20
2.3501e-05
-1.31527e-19
2.3501e-05
1.30952e-19
2.3501e-05
-5.58369e-20
2.3501e-05
-3.88616e-20
2.3501e-05
7.52452e-20
2.3501e-05
-1.78311e-19
2.3501e-05
5.18258e-20
2.3501e-05
-1.44528e-20
2.3501e-05
1.96593e-20
2.3501e-05
9.53131e-20
2.3501e-05
-1.92577e-19
2.3501e-05
1.0442e-19
2.3501e-05
-5.66131e-20
2.3501e-05
-3.40716e-21
2.3501e-05
1.25847e-19
2.3501e-05
-2.50914e-19
2.3501e-05
3.20943e-20
2.3501e-05
4.48192e-20
2.3501e-05
5.34229e-20
2.3501e-05
2.79129e-20
2.3501e-05
-1.85822e-19
2.3501e-05
2.03006e-19
2.3501e-05
1.39463e-20
2.3501e-05
-1.00009e-19
2.3501e-05
-8.09087e-21
2.3501e-05
-1.50439e-19
2.3501e-05
2.52547e-19
2.3501e-05
-1.82454e-20
2.3501e-05
-4.13387e-20
2.3501e-05
1.06612e-19
2.3501e-05
-1.93213e-19
2.3501e-05
9.32073e-20
2.3501e-05
2.18754e-20
2.3501e-05
-9.98172e-21
2.3501e-05
4.43913e-20
2.3501e-05
-1.24714e-19
2.3501e-05
1.61692e-19
2.3501e-05
2.30178e-20
2.3501e-05
-3.13831e-20
2.3501e-05
8.17696e-22
2.3501e-05
-1.57015e-19
2.3501e-05
1.03863e-19
2.3501e-05
6.08557e-21
2.3501e-05
1.87785e-20
2.3501e-05
3.18812e-20
2.3501e-05
-1.4449e-19
2.3501e-05
1.06556e-19
2.3501e-05
2.57016e-20
2.3501e-05
-3.21634e-20
2.3501e-05
1.0208e-19
2.3501e-05
-1.35282e-19
2.3501e-05
2.84224e-20
2.3501e-05
2.52572e-20
2.3501e-05
-2.89472e-20
2.3501e-05
4.09037e-20
2.3501e-05
-1.55898e-19
2.3501e-05
3.14946e-20
2.3501e-05
9.77576e-20
2.3501e-05
-1.81646e-20
2.3501e-05
-9.88687e-20
2.3501e-05
-1.11573e-19
2.3501e-05
1.42654e-19
2.3501e-05
3.81677e-20
2.3501e-05
-4.7607e-20
2.3501e-05
-3.54267e-20
2.3501e-05
-4.52429e-20
2.3501e-05
1.2938e-19
2.3501e-05
1.17712e-20
2.3501e-05
-1.6006e-20
2.3501e-05
-9.73126e-20
2.3501e-05
-6.51382e-20
2.3501e-05
1.34365e-19
2.3501e-05
3.30933e-20
2.3501e-05
5.18282e-20
2.3501e-05
-1.20976e-19
2.3501e-05
-1.15673e-19
2.3501e-05
7.83282e-20
2.3501e-05
3.74963e-21
2.3501e-05
9.37235e-20
2.3501e-05
-1.0243e-19
2.3501e-05
1.41315e-20
2.3501e-05
6.38151e-20
2.3501e-05
-1.07506e-19
2.3501e-05
1.16471e-19
2.3501e-05
-1.78737e-20
2.3501e-05
-6.07605e-20
2.3501e-05
7.55797e-20
2.3501e-05
-8.10035e-20
2.3501e-05
8.8703e-20
2.3501e-05
-3.6154e-20
-5.45517e-19
6.93269e-05
-1.98228e-18
6.93269e-05
-5.90248e-19
6.93269e-05
-1.67852e-19
6.93269e-05
-6.30081e-20
6.93269e-05
-4.77242e-21
6.93269e-05
2.60858e-21
6.93269e-05
-3.48367e-21
6.93269e-05
1.16824e-20
6.93269e-05
9.52573e-21
6.93269e-05
-2.5139e-20
6.93269e-05
-2.117e-20
6.93269e-05
-2.45692e-20
6.93269e-05
3.00699e-20
6.93269e-05
4.04029e-21
6.93269e-05
-8.7411e-21
6.93269e-05
8.87729e-20
6.93269e-05
5.10993e-20
6.93269e-05
-3.33286e-21
6.93269e-05
-2.32258e-20
6.93269e-05
-8.95747e-21
6.93269e-05
4.55038e-20
6.93269e-05
4.02417e-20
6.93269e-05
3.25308e-20
6.93269e-05
-1.11244e-21
6.93269e-05
-4.14044e-20
6.93269e-05
-2.55703e-20
6.93269e-05
5.69558e-20
6.93269e-05
3.0679e-20
6.93269e-05
4.13342e-22
6.93269e-05
1.04108e-20
6.93269e-05
4.55666e-20
6.93269e-05
7.34046e-20
6.93269e-05
-1.24164e-20
6.93269e-05
-3.98936e-20
6.93269e-05
-3.46966e-20
6.93269e-05
-3.5117e-20
6.93269e-05
3.31622e-20
6.93269e-05
-4.27692e-20
6.93269e-05
-8.8868e-20
6.93269e-05
6.00846e-20
6.93269e-05
-7.5807e-22
6.93269e-05
4.82928e-21
6.93269e-05
-2.73926e-21
6.93269e-05
-8.01142e-20
6.93269e-05
-7.24064e-21
6.93269e-05
7.71981e-21
6.93269e-05
6.10988e-20
6.93269e-05
5.64282e-20
6.93269e-05
7.29727e-21
6.93269e-05
-1.18929e-21
6.93269e-05
-6.47007e-20
6.93269e-05
1.48685e-20
6.93269e-05
7.16961e-21
6.93269e-05
2.3807e-20
6.93269e-05
1.25215e-19
6.93269e-05
-1.62463e-20
6.93269e-05
8.2594e-22
6.93269e-05
-1.68207e-20
6.93269e-05
1.40751e-21
6.93269e-05
5.9511e-20
6.93269e-05
-1.36272e-19
6.93269e-05
6.26746e-20
6.93269e-05
3.98561e-21
6.93269e-05
-2.17027e-20
6.93269e-05
8.13758e-20
6.93269e-05
-9.26017e-20
6.93269e-05
5.92278e-21
6.93269e-05
2.68641e-21
6.93269e-05
4.72647e-20
6.93269e-05
1.07517e-19
6.93269e-05
-5.42609e-20
6.93269e-05
-4.13576e-20
6.93269e-05
-5.6654e-20
6.93269e-05
2.17284e-21
6.93269e-05
1.35684e-19
6.93269e-05
-8.11575e-20
6.93269e-05
-1.08876e-19
6.93269e-05
2.56946e-20
6.93269e-05
-3.45925e-20
6.93269e-05
9.6652e-20
6.93269e-05
-2.81873e-20
6.93269e-05
-1.33618e-19
6.93269e-05
-1.58005e-20
6.93269e-05
-3.1654e-21
6.93269e-05
4.60884e-20
6.93269e-05
-2.74482e-20
6.93269e-05
-4.73197e-20
6.93269e-05
-6.22213e-20
6.93269e-05
-9.89571e-21
6.93269e-05
1.50436e-19
6.93269e-05
-5.16138e-20
6.93269e-05
-1.25443e-19
6.93269e-05
-8.50981e-21
6.93269e-05
8.45001e-20
6.93269e-05
2.02038e-20
6.93269e-05
-1.43156e-19
6.93269e-05
-4.42439e-20
6.93269e-05
-2.55565e-20
6.93269e-05
5.82237e-20
6.93269e-05
7.08768e-20
6.93269e-05
-6.07572e-20
6.93269e-05
3.23154e-20
6.93269e-05
-8.69794e-20
6.93269e-05
1.19825e-21
6.93269e-05
8.12379e-20
6.93269e-05
5.87128e-20
6.93269e-05
-1.63669e-19
6.93269e-05
-1.08286e-19
6.93269e-05
1.07917e-19
6.93269e-05
1.57054e-19
6.93269e-05
8.62468e-20
6.93269e-05
-2.82654e-19
6.93269e-05
2.70431e-20
6.93269e-05
2.41585e-19
6.93269e-05
9.10881e-20
6.93269e-05
-1.53882e-20
6.93269e-05
-2.52632e-19
6.93269e-05
-1.12443e-19
6.93269e-05
2.73021e-19
6.93269e-05
1.71607e-19
6.93269e-05
-1.2734e-19
6.93269e-05
-2.59308e-19
6.93269e-05
-4.82936e-20
6.93269e-05
3.02613e-19
6.93269e-05
2.19987e-19
6.93269e-05
-9.31317e-20
6.93269e-05
-3.34901e-19
6.93269e-05
1.77897e-21
6.93269e-05
3.10916e-19
6.93269e-05
5.27527e-20
6.93269e-05
-8.52775e-20
6.93269e-05
-1.66399e-19
6.93269e-05
2.67296e-20
6.93269e-05
2.17835e-19
6.93269e-05
4.51526e-20
6.93269e-05
-1.75881e-20
6.93269e-05
-1.61815e-19
6.93269e-05
-2.54076e-20
6.93269e-05
2.64511e-19
6.93269e-05
7.49887e-20
6.93269e-05
-1.0918e-19
6.93269e-05
-1.68917e-19
6.93269e-05
4.52664e-20
6.93269e-05
1.1193e-19
6.93269e-05
-7.48224e-21
6.93269e-05
-2.46406e-20
6.93269e-05
-1.41594e-19
6.93269e-05
7.39083e-20
6.93269e-05
5.21749e-20
6.93269e-05
-1.96536e-20
6.93269e-05
1.30078e-19
6.93269e-05
-1.89759e-19
6.93269e-05
-1.55131e-19
6.93269e-05
7.57793e-20
6.93269e-05
1.01561e-19
6.93269e-05
8.5175e-20
6.93269e-05
-1.38027e-19
6.93269e-05
-1.9585e-19
6.93269e-05
1.7385e-20
6.93269e-05
1.11377e-19
6.93269e-05
1.90021e-19
6.93269e-05
-1.91213e-19
6.93269e-05
-5.39251e-20
6.93269e-05
2.07854e-19
6.93269e-05
-1.51342e-19
6.93269e-05
2.9072e-20
6.93269e-05
-6.16471e-20
6.93269e-05
-1.18237e-19
6.93269e-05
9.70065e-20
6.93269e-05
1.84474e-20
6.93269e-05
-4.80116e-20
6.93269e-05
-2.34346e-19
6.93269e-05
-1.94435e-20
6.93269e-05
1.76342e-19
6.93269e-05
5.21234e-20
6.93269e-05
-4.32474e-20
6.93269e-05
-1.13445e-19
6.93269e-05
1.25435e-19
6.93269e-05
-5.71378e-20
6.93269e-05
7.59876e-20
6.93269e-05
2.04309e-19
6.93269e-05
-2.84498e-19
6.93269e-05
-2.87604e-20
6.93269e-05
2.02778e-19
6.93269e-05
4.38716e-20
6.93269e-05
1.90663e-19
6.93269e-05
-1.65156e-19
6.93269e-05
-3.15797e-20
6.93269e-05
2.13319e-19
6.93269e-05
-9.99789e-20
6.93269e-05
5.35789e-21
6.93269e-05
-4.6656e-20
6.93269e-05
-1.2786e-19
6.93269e-05
1.4791e-19
6.93269e-05
3.84459e-20
6.93269e-05
5.88774e-20
6.93269e-05
-7.83346e-20
6.93269e-05
-1.02102e-19
6.93269e-05
1.7703e-19
6.93269e-05
-4.81664e-20
6.93269e-05
-7.14719e-21
6.93269e-05
-9.82127e-20
6.93269e-05
6.08282e-20
6.93269e-05
2.7242e-19
6.93269e-05
-3.61063e-20
6.93269e-05
-1.23765e-19
6.93269e-05
-1.57102e-19
6.93269e-05
8.70705e-20
6.93269e-05
1.07284e-19
6.93269e-05
-3.40225e-20
6.93269e-05
-6.27595e-20
6.93269e-05
-2.04742e-19
6.93269e-05
4.33409e-19
6.93269e-05
3.90947e-20
6.93269e-05
-4.17332e-19
6.93269e-05
2.75539e-19
6.93269e-05
-1.11884e-19
6.93269e-05
-7.05165e-20
6.93269e-05
-5.47363e-20
6.93269e-05
-3.22301e-19
6.93269e-05
4.62279e-19
6.93269e-05
9.46044e-20
6.93269e-05
-1.23703e-19
6.93269e-05
-8.2172e-20
6.93269e-05
-3.77098e-19
6.93269e-05
4.7387e-19
6.93269e-05
4.01634e-20
6.93269e-05
-1.60672e-19
6.93269e-05
7.28909e-20
6.93269e-05
-2.65719e-19
6.93269e-05
2.47181e-19
6.93269e-05
-9.86533e-20
6.93269e-05
-1.10849e-19
6.93269e-05
9.42997e-20
6.93269e-05
-4.06203e-19
6.93269e-05
5.12297e-20
6.93269e-05
-4.36839e-20
6.93269e-05
1.30914e-19
6.93269e-05
1.9242e-19
6.93269e-05
-4.28402e-19
6.93269e-05
1.23739e-19
6.93269e-05
-1.17437e-19
6.93269e-05
1.11263e-20
6.93269e-05
2.13557e-19
6.93269e-05
-5.62452e-19
6.93269e-05
7.63813e-20
6.93269e-05
9.74541e-20
6.93269e-05
1.37525e-19
6.93269e-05
6.86413e-20
6.93269e-05
-3.78022e-19
6.93269e-05
4.74391e-19
6.93269e-05
4.93702e-20
6.93269e-05
-2.48286e-19
6.93269e-05
-1.24451e-19
6.93269e-05
-2.80374e-19
6.93269e-05
6.11412e-19
6.93269e-05
1.49148e-20
6.93269e-05
-9.26144e-20
6.93269e-05
1.9723e-19
6.93269e-05
-4.14152e-19
6.93269e-05
1.9381e-19
6.93269e-05
6.24445e-20
6.93269e-05
4.14217e-20
6.93269e-05
7.12323e-20
6.93269e-05
-2.58285e-19
6.93269e-05
3.72331e-19
6.93269e-05
4.79156e-20
6.93269e-05
-4.29106e-20
6.93269e-05
1.00738e-21
6.93269e-05
-3.85348e-19
6.93269e-05
2.04548e-19
6.93269e-05
1.56673e-20
6.93269e-05
9.39903e-20
6.93269e-05
5.7417e-20
6.93269e-05
-3.58796e-19
6.93269e-05
2.54765e-19
6.93269e-05
4.42855e-20
6.93269e-05
1.64658e-20
6.93269e-05
1.96583e-19
6.93269e-05
-3.69401e-19
6.93269e-05
9.92877e-20
6.93269e-05
2.41077e-20
6.93269e-05
-2.76061e-20
6.93269e-05
6.74414e-20
6.93269e-05
-4.22732e-19
6.93269e-05
1.1186e-19
6.93269e-05
2.01749e-19
6.93269e-05
-9.62333e-20
6.93269e-05
-2.13258e-19
6.93269e-05
-2.65199e-19
6.93269e-05
3.06249e-19
6.93269e-05
9.50428e-20
6.93269e-05
-1.3818e-19
6.93269e-05
-3.45193e-20
6.93269e-05
-1.15759e-19
6.93269e-05
2.60751e-19
6.93269e-05
1.3892e-19
6.93269e-05
-1.4563e-19
6.93269e-05
-1.68772e-19
6.93269e-05
-2.00937e-19
6.93269e-05
2.62194e-19
6.93269e-05
2.13703e-19
6.93269e-05
4.97872e-20
6.93269e-05
-3.15191e-19
6.93269e-05
-2.9979e-19
6.93269e-05
1.99586e-19
6.93269e-05
7.12463e-20
6.93269e-05
1.28675e-19
6.93269e-05
-2.15411e-19
6.93269e-05
1.15585e-20
6.93269e-05
1.8959e-19
6.93269e-05
-1.86212e-19
6.93269e-05
1.75142e-19
6.93269e-05
1.71408e-20
6.93269e-05
-1.43476e-19
6.93269e-05
8.78468e-20
6.93269e-05
-1.28725e-19
6.93269e-05
1.84585e-19
6.93269e-05
-8.95223e-20
-7.25015e-19
0.000113975
-1.44406e-18
0.000113975
-5.74405e-19
0.000113975
-2.09707e-19
0.000113975
-7.77179e-20
0.000113975
-2.80734e-20
0.000113975
2.36615e-22
0.000113975
8.55521e-21
0.000113975
2.77104e-20
0.000113975
2.47154e-20
0.000113975
-1.45196e-20
0.000113975
-5.28721e-20
0.000113975
-4.93532e-20
0.000113975
4.17294e-20
0.000113975
5.11769e-20
0.000113975
2.0297e-20
0.000113975
1.51048e-19
0.000113975
1.02818e-19
0.000113975
-7.68201e-21
0.000113975
-7.59334e-22
0.000113975
-2.67393e-21
0.000113975
9.49254e-20
0.000113975
8.95017e-20
0.000113975
3.55366e-20
0.000113975
-1.83998e-20
0.000113975
-7.02349e-20
0.000113975
-4.08458e-20
0.000113975
9.58811e-20
0.000113975
8.19729e-20
0.000113975
3.21174e-20
0.000113975
-6.35631e-21
0.000113975
7.10513e-20
0.000113975
1.35475e-19
0.000113975
8.22528e-21
0.000113975
-9.93098e-20
0.000113975
-9.59609e-20
0.000113975
-8.52057e-20
0.000113975
2.65697e-20
0.000113975
-4.67073e-20
0.000113975
-1.34675e-19
0.000113975
7.22829e-20
0.000113975
2.12055e-20
0.000113975
-9.62746e-21
0.000113975
-1.57358e-20
0.000113975
-9.26999e-20
0.000113975
-3.73542e-20
0.000113975
7.03722e-21
0.000113975
7.78585e-20
0.000113975
1.15469e-19
0.000113975
3.37943e-20
0.000113975
-2.83717e-20
0.000113975
-7.14416e-20
0.000113975
2.09879e-20
0.000113975
4.1965e-20
0.000113975
4.86569e-20
0.000113975
1.89692e-19
0.000113975
4.59351e-20
0.000113975
9.04042e-21
0.000113975
-3.24002e-20
0.000113975
-1.03391e-21
0.000113975
5.54931e-20
0.000113975
-1.96566e-19
0.000113975
1.00669e-19
0.000113975
3.47585e-20
0.000113975
-3.92262e-20
0.000113975
8.4581e-20
0.000113975
-1.36512e-19
0.000113975
9.09422e-21
0.000113975
1.79403e-20
0.000113975
7.12253e-20
0.000113975
1.38875e-19
0.000113975
-7.00582e-20
0.000113975
-7.55022e-20
0.000113975
-6.80684e-20
0.000113975
2.40919e-20
0.000113975
1.61061e-19
0.000113975
-1.2222e-19
0.000113975
-1.6645e-19
0.000113975
-8.2384e-21
0.000113975
-3.53109e-20
0.000113975
1.13815e-19
0.000113975
-5.24277e-20
0.000113975
-2.01639e-19
0.000113975
-5.17388e-20
0.000113975
-2.99153e-20
0.000113975
7.99264e-20
0.000113975
-6.19753e-20
0.000113975
-8.11444e-20
0.000113975
-9.46174e-20
0.000113975
-4.00338e-20
0.000113975
1.73054e-19
0.000113975
-1.6214e-20
0.000113975
-1.59406e-19
0.000113975
-3.39198e-20
0.000113975
8.72468e-20
0.000113975
-1.66205e-21
0.000113975
-2.30662e-19
0.000113975
-8.60641e-20
0.000113975
-3.68311e-20
0.000113975
5.46561e-20
0.000113975
8.13141e-20
0.000113975
-3.54341e-20
0.000113975
4.04216e-20
0.000113975
-1.25149e-19
0.000113975
-6.33924e-20
0.000113975
1.51165e-19
0.000113975
9.93692e-20
0.000113975
-2.21157e-19
0.000113975
-2.02021e-19
0.000113975
1.71829e-19
0.000113975
2.77213e-19
0.000113975
1.25065e-19
0.000113975
-3.83717e-19
0.000113975
2.48158e-20
0.000113975
3.66623e-19
0.000113975
2.11209e-19
0.000113975
-2.94775e-22
0.000113975
-4.31722e-19
0.000113975
-1.78979e-19
0.000113975
4.33288e-19
0.000113975
2.94082e-19
0.000113975
-2.46826e-19
0.000113975
-4.30549e-19
0.000113975
-4.67427e-20
0.000113975
5.04396e-19
0.000113975
3.94834e-19
0.000113975
-1.59654e-19
0.000113975
-5.40163e-19
0.000113975
2.93731e-20
0.000113975
4.95471e-19
0.000113975
1.05543e-19
0.000113975
-1.19166e-19
0.000113975
-2.24492e-19
0.000113975
-2.27932e-20
0.000113975
3.21721e-19
0.000113975
1.35758e-19
0.000113975
-3.56815e-20
0.000113975
-2.53329e-19
0.000113975
-6.21429e-20
0.000113975
4.1165e-19
0.000113975
1.35996e-19
0.000113975
-1.93354e-19
0.000113975
-2.45005e-19
0.000113975
8.98234e-20
0.000113975
1.43035e-19
0.000113975
-2.06406e-20
0.000113975
-2.76554e-20
0.000113975
-2.24857e-19
0.000113975
8.26705e-20
0.000113975
1.00024e-19
0.000113975
-4.09749e-20
0.000113975
1.63558e-19
0.000113975
-2.40294e-19
0.000113975
-1.99487e-19
0.000113975
7.27706e-20
0.000113975
1.52969e-19
0.000113975
1.21736e-19
0.000113975
-2.23891e-19
0.000113975
-3.04642e-19
0.000113975
7.02763e-21
0.000113975
1.86804e-19
0.000113975
2.52282e-19
0.000113975
-2.91621e-19
0.000113975
-5.62854e-20
0.000113975
2.52034e-19
0.000113975
-1.72634e-19
0.000113975
-4.43358e-20
0.000113975
-9.7343e-20
0.000113975
-1.36054e-19
0.000113975
1.03963e-19
0.000113975
1.30055e-20
0.000113975
-1.30644e-19
0.000113975
-3.81936e-19
0.000113975
-2.37707e-20
0.000113975
3.54355e-19
0.000113975
1.1606e-19
0.000113975
-9.79267e-20
0.000113975
-1.60357e-19
0.000113975
9.04402e-20
0.000113975
-3.17964e-20
0.000113975
2.2811e-19
0.000113975
2.42692e-19
0.000113975
-4.19919e-19
0.000113975
-2.26782e-20
0.000113975
3.52992e-19
0.000113975
1.71894e-19
0.000113975
1.96653e-19
0.000113975
-2.05548e-19
0.000113975
1.74999e-21
0.000113975
2.95169e-19
0.000113975
-6.68841e-20
0.000113975
-6.65659e-20
0.000113975
-9.93545e-20
0.000113975
-1.72288e-19
0.000113975
1.50657e-19
0.000113975
1.46094e-19
0.000113975
7.337e-20
0.000113975
-1.09706e-19
0.000113975
-1.33123e-19
0.000113975
1.87099e-19
0.000113975
2.22173e-20
0.000113975
6.612e-21
0.000113975
-1.11138e-19
0.000113975
1.08488e-19
0.000113975
3.07608e-19
0.000113975
-6.58058e-21
0.000113975
-1.25355e-19
0.000113975
-2.29783e-19
0.000113975
6.34205e-20
0.000113975
1.02937e-19
0.000113975
-2.6842e-20
0.000113975
-6.68251e-20
0.000113975
-2.7567e-19
0.000113975
5.71016e-19
0.000113975
9.90297e-20
0.000113975
-5.30536e-19
0.000113975
2.73688e-19
0.000113975
-2.25037e-19
0.000113975
-3.93842e-20
0.000113975
-1.29912e-19
0.000113975
-4.74929e-19
0.000113975
6.45286e-19
0.000113975
1.48074e-19
0.000113975
-1.06389e-19
0.000113975
-9.0305e-20
0.000113975
-5.45329e-19
0.000113975
5.8355e-19
0.000113975
1.00872e-19
0.000113975
-1.83478e-19
0.000113975
4.50061e-20
0.000113975
-4.20293e-19
0.000113975
3.14501e-19
0.000113975
-9.51124e-20
0.000113975
-2.37464e-19
0.000113975
3.05296e-20
0.000113975
-5.78981e-19
0.000113975
-5.59831e-21
0.000113975
-1.11014e-19
0.000113975
2.63241e-19
0.000113975
3.04479e-19
0.000113975
-6.51036e-19
0.000113975
1.12617e-19
0.000113975
-2.38546e-19
0.000113975
5.63755e-20
0.000113975
2.76452e-19
0.000113975
-8.71877e-19
0.000113975
8.79403e-20
0.000113975
1.0124e-19
0.000113975
1.79201e-19
0.000113975
9.10341e-20
0.000113975
-4.90052e-19
0.000113975
7.3584e-19
0.000113975
1.17625e-19
0.000113975
-4.14516e-19
0.000113975
-2.96139e-19
0.000113975
-3.54262e-19
0.000113975
9.45986e-19
0.000113975
8.76011e-20
0.000113975
-7.42707e-20
0.000113975
2.73895e-19
0.000113975
-5.40232e-19
0.000113975
1.90474e-19
0.000113975
6.57837e-20
0.000113975
1.39515e-19
0.000113975
8.0725e-20
0.000113975
-3.48338e-19
0.000113975
5.7639e-19
0.000113975
2.04552e-20
0.000113975
-1.20651e-20
0.000113975
1.51886e-21
0.000113975
-5.9487e-19
0.000113975
3.17011e-19
0.000113975
2.93264e-20
0.000113975
1.20003e-19
0.000113975
1.32373e-19
0.000113975
-5.29532e-19
0.000113975
4.02206e-19
0.000113975
4.86971e-20
0.000113975
7.2909e-20
0.000113975
2.30905e-19
0.000113975
-6.04952e-19
0.000113975
2.0341e-19
0.000113975
-1.79032e-20
0.000113975
-2.02101e-20
0.000113975
8.15639e-20
0.000113975
-6.85084e-19
0.000113975
2.08295e-19
0.000113975
2.52003e-19
0.000113975
-2.15523e-19
0.000113975
-3.09867e-19
0.000113975
-4.277e-19
0.000113975
4.38667e-19
0.000113975
1.52887e-19
0.000113975
-1.85446e-19
0.000113975
3.11507e-20
0.000113975
-2.40788e-19
0.000113975
3.09633e-19
0.000113975
2.82925e-19
0.000113975
-2.33258e-19
0.000113975
-2.16706e-19
0.000113975
-3.35445e-19
0.000113975
3.52918e-19
0.000113975
3.98833e-19
0.000113975
-2.69231e-21
0.000113975
-5.05161e-19
0.000113975
-4.51162e-19
0.000113975
3.39821e-19
0.000113975
1.00075e-19
0.000113975
1.30401e-19
0.000113975
-2.67608e-19
0.000113975
-5.02917e-20
0.000113975
3.75478e-19
0.000113975
-2.08325e-19
0.000113975
1.38148e-19
0.000113975
1.46941e-19
0.000113975
-2.11389e-19
0.000113975
8.69522e-20
0.000113975
-1.3887e-19
0.000113975
3.04794e-19
0.000113975
-5.43177e-20
-7.53221e-19
0.000157444
-1.02337e-18
0.000157444
-5.09578e-19
0.000157444
-2.56541e-19
0.000157444
-9.07249e-20
0.000157444
-1.19409e-20
0.000157444
2.73652e-20
0.000157444
1.85342e-20
0.000157444
3.01691e-20
0.000157444
4.8404e-20
0.000157444
-2.74736e-20
0.000157444
-9.14004e-20
0.000157444
-5.89843e-20
0.000157444
5.0717e-20
0.000157444
6.12052e-20
0.000157444
5.64264e-20
0.000157444
2.02154e-19
0.000157444
1.82277e-19
0.000157444
4.03749e-20
0.000157444
2.96219e-20
0.000157444
5.12125e-20
0.000157444
1.13162e-19
0.000157444
1.18139e-19
0.000157444
6.40863e-20
0.000157444
-1.38028e-20
0.000157444
-8.09101e-20
0.000157444
-3.48412e-20
0.000157444
1.54828e-19
0.000157444
1.17804e-19
0.000157444
5.93484e-20
0.000157444
-1.13302e-20
0.000157444
8.05694e-20
0.000157444
2.03122e-19
0.000157444
-4.31067e-21
0.000157444
-1.26756e-19
0.000157444
-1.63049e-19
0.000157444
-1.26813e-19
0.000157444
3.45325e-20
0.000157444
-3.88996e-20
0.000157444
-1.29682e-19
0.000157444
1.66279e-20
0.000157444
1.51602e-20
0.000157444
4.3849e-20
0.000157444
-1.34584e-20
0.000157444
-1.59532e-19
0.000157444
-7.28947e-20
0.000157444
7.2094e-21
0.000157444
8.56167e-20
0.000157444
1.53381e-19
0.000157444
5.7412e-20
0.000157444
-2.81249e-20
0.000157444
-4.56252e-20
0.000157444
9.51268e-20
0.000157444
8.72091e-20
0.000157444
6.19123e-20
0.000157444
2.20507e-19
0.000157444
4.36041e-20
0.000157444
2.42339e-20
0.000157444
-2.16378e-21
0.000157444
-8.21309e-21
0.000157444
3.01629e-20
0.000157444
-2.84742e-19
0.000157444
9.81151e-20
0.000157444
6.95473e-20
0.000157444
-4.26691e-20
0.000157444
1.11543e-19
0.000157444
-1.15726e-19
0.000157444
6.03506e-20
0.000157444
-1.26167e-20
0.000157444
3.02775e-20
0.000157444
1.70752e-19
0.000157444
-7.89137e-20
0.000157444
-1.38884e-19
0.000157444
-7.16413e-20
0.000157444
4.2883e-20
0.000157444
1.60883e-19
0.000157444
-1.7577e-19
0.000157444
-1.79272e-19
0.000157444
-2.46799e-20
0.000157444
-7.04242e-20
0.000157444
6.77572e-20
0.000157444
-5.72798e-20
0.000157444
-3.10389e-19
0.000157444
-9.54735e-20
0.000157444
2.36084e-20
0.000157444
2.68996e-20
0.000157444
-8.20261e-20
0.000157444
-8.40255e-20
0.000157444
-1.14647e-19
0.000157444
-1.34541e-19
0.000157444
2.17522e-19
0.000157444
-4.14783e-20
0.000157444
-1.88687e-19
0.000157444
-6.2122e-20
0.000157444
5.22393e-20
0.000157444
-4.63845e-21
0.000157444
-2.69332e-19
0.000157444
-1.80378e-19
0.000157444
-7.09572e-20
0.000157444
5.3864e-20
0.000157444
1.03907e-19
0.000157444
-1.36485e-20
0.000157444
2.74224e-20
0.000157444
-1.72226e-19
0.000157444
-8.11228e-20
0.000157444
1.83955e-19
0.000157444
1.46276e-19
0.000157444
-2.708e-19
0.000157444
-2.72721e-19
0.000157444
2.28829e-19
0.000157444
4.02162e-19
0.000157444
1.74608e-19
0.000157444
-4.5347e-19
0.000157444
5.0919e-21
0.000157444
4.66276e-19
0.000157444
2.96296e-19
0.000157444
-1.16527e-20
0.000157444
-5.30899e-19
0.000157444
-2.04466e-19
0.000157444
5.74496e-19
0.000157444
3.79962e-19
0.000157444
-3.34256e-19
0.000157444
-5.50637e-19
0.000157444
-7.6168e-20
0.000157444
6.2542e-19
0.000157444
5.80555e-19
0.000157444
-1.62142e-19
0.000157444
-6.18758e-19
0.000157444
5.03341e-20
0.000157444
6.37765e-19
0.000157444
1.40952e-19
0.000157444
-1.78655e-19
0.000157444
-2.74511e-19
0.000157444
-8.19763e-20
0.000157444
4.25875e-19
0.000157444
2.11223e-19
0.000157444
-3.24654e-20
0.000157444
-2.96333e-19
0.000157444
-6.3933e-20
0.000157444
4.90942e-19
0.000157444
1.54733e-19
0.000157444
-2.42534e-19
0.000157444
-2.75259e-19
0.000157444
1.45613e-19
0.000157444
1.76284e-19
0.000157444
-5.90144e-20
0.000157444
-3.1406e-20
0.000157444
-2.73658e-19
0.000157444
7.05236e-20
0.000157444
1.09643e-19
0.000157444
-8.14603e-20
0.000157444
1.64095e-19
0.000157444
-2.15024e-19
0.000157444
-2.41498e-19
0.000157444
7.33378e-20
0.000157444
1.34557e-19
0.000157444
1.05578e-19
0.000157444
-2.75864e-19
0.000157444
-3.47539e-19
0.000157444
-1.15141e-20
0.000157444
2.2884e-19
0.000157444
2.33198e-19
0.000157444
-3.24225e-19
0.000157444
-6.60187e-20
0.000157444
2.93016e-19
0.000157444
-2.56325e-19
0.000157444
-7.7743e-20
0.000157444
-1.58614e-19
0.000157444
-1.58686e-19
0.000157444
1.13062e-19
0.000157444
7.0797e-22
0.000157444
-2.23401e-19
0.000157444
-5.64035e-19
0.000157444
6.1661e-20
0.000157444
5.62235e-19
0.000157444
7.99479e-20
0.000157444
-1.04772e-19
0.000157444
-2.57013e-19
0.000157444
3.6431e-20
0.000157444
2.05343e-20
0.000157444
4.31271e-19
0.000157444
2.76638e-19
0.000157444
-5.28952e-19
0.000157444
-1.61601e-20
0.000157444
4.45164e-19
0.000157444
3.00358e-19
0.000157444
1.87577e-19
0.000157444
-2.33039e-19
0.000157444
4.52674e-20
0.000157444
3.93206e-19
0.000157444
-9.34038e-20
0.000157444
-1.4429e-19
0.000157444
-1.18316e-19
0.000157444
-1.89996e-19
0.000157444
1.57251e-19
0.000157444
2.15976e-19
0.000157444
1.30679e-19
0.000157444
-1.86311e-19
0.000157444
-1.40965e-19
0.000157444
2.35171e-19
0.000157444
7.44833e-20
0.000157444
3.96475e-20
0.000157444
-1.08377e-19
0.000157444
1.28979e-19
0.000157444
3.03256e-19
0.000157444
1.09022e-19
0.000157444
-1.67023e-19
0.000157444
-3.0853e-19
0.000157444
-1.31464e-20
0.000157444
7.36775e-20
0.000157444
-4.45478e-21
0.000157444
-4.34226e-20
0.000157444
-3.00643e-19
0.000157444
6.47469e-19
0.000157444
1.03539e-19
0.000157444
-6.06199e-19
0.000157444
2.52049e-19
0.000157444
-3.07964e-19
0.000157444
-1.00471e-19
0.000157444
-1.71928e-19
0.000157444
-5.36028e-19
0.000157444
7.10655e-19
0.000157444
1.70208e-19
0.000157444
-1.13743e-20
0.000157444
-5.66722e-20
0.000157444
-6.5408e-19
0.000157444
6.11208e-19
0.000157444
1.11745e-19
0.000157444
-1.94359e-19
0.000157444
-2.16816e-20
0.000157444
-5.58837e-19
0.000157444
3.99669e-19
0.000157444
-1.11372e-19
0.000157444
-3.98263e-19
0.000157444
-7.7614e-20
0.000157444
-6.63736e-19
0.000157444
-9.99087e-20
0.000157444
-2.17494e-19
0.000157444
3.38668e-19
0.000157444
4.2807e-19
0.000157444
-7.48368e-19
0.000157444
6.96636e-21
0.000157444
-3.15937e-19
0.000157444
6.14132e-20
0.000157444
2.73459e-19
0.000157444
-1.05405e-18
0.000157444