/*--------------------------------*- C++ -*----------------------------------*\
| =========                 |                                                 |
| \\      /  F ield         | OpenFOAM: The Open Source CFD Toolbox           |
|  \\    /   O peration     | Version:  2112                                  |
|   \\  /    A nd           | Website:  www.openfoam.com                      |
|    \\/     M anipulation  |                                                 |
\*---------------------------------------------------------------------------*/
FoamFile
{
    version     2.0;
    format      ascii;
    arch        "LSB;label=32;scalar=64";
    class       surfaceScalarField;
    location    "3";
    object      phi;
}
// * * * * * * * * * * * * * * * * * * * * * * * * * * * * * * * * * * * * * //

dimensions      [0 3 -1 0 0 0 0];

oriented        oriented;

internalField   nonuniform List<scalar> 
50800
(
2.34351e-05
-8.09344e-18
2.34351e-05
-1.48546e-18
2.34351e-05
-4.31362e-19
2.34351e-05
-1.856e-19
2.34351e-05
-9.15586e-20
2.34351e-05
-6.26013e-20
2.34351e-05
-4.48746e-20
2.34351e-05
-2.86231e-20
2.34351e-05
-1.11295e-20
2.34351e-05
-2.17784e-20
2.34351e-05
2.71755e-21
2.34351e-05
-5.00881e-21
2.34351e-05
1.55431e-20
2.34351e-05
2.0175e-20
2.34351e-05
-2.36851e-20
2.34351e-05
3.23126e-21
2.34351e-05
1.56052e-20
2.34351e-05
8.77985e-21
2.34351e-05
-1.056e-20
2.34351e-05
-5.29119e-22
2.34351e-05
9.51104e-21
2.34351e-05
5.87567e-21
2.34351e-05
-5.69571e-21
2.34351e-05
-1.56723e-20
2.34351e-05
-2.76521e-20
2.34351e-05
-2.06837e-20
2.34351e-05
1.38701e-20
2.34351e-05
-1.84843e-20
2.34351e-05
-5.14892e-20
2.34351e-05
-3.8828e-20
2.34351e-05
-5.03246e-22
2.34351e-05
3.49346e-20
2.34351e-05
6.62281e-21
2.34351e-05
-1.2618e-20
2.34351e-05
-4.01404e-21
2.34351e-05
-4.23996e-22
2.34351e-05
2.87804e-20
2.34351e-05
-6.51026e-21
2.34351e-05
-2.00097e-20
2.34351e-05
1.85441e-20
2.34351e-05
-1.27157e-20
2.34351e-05
7.0511e-21
2.34351e-05
1.31947e-20
2.34351e-05
-2.77282e-20
2.34351e-05
4.57764e-21
2.34351e-05
-5.5976e-21
2.34351e-05
-6.62672e-21
2.34351e-05
-1.27621e-20
2.34351e-05
-1.4756e-20
2.34351e-05
-2.4856e-20
2.34351e-05
-3.59575e-20
2.34351e-05
9.65589e-21
2.34351e-05
-1.49043e-20
2.34351e-05
-1.97875e-20
2.34351e-05
1.00729e-20
2.34351e-05
-3.43636e-20
2.34351e-05
6.28861e-21
2.34351e-05
-1.1168e-20
2.34351e-05
-5.325e-21
2.34351e-05
2.27281e-20
2.34351e-05
-4.86092e-20
2.34351e-05
3.0487e-20
2.34351e-05
-6.65303e-21
2.34351e-05
-4.97924e-21
2.34351e-05
5.57227e-20
2.34351e-05
-2.90744e-20
2.34351e-05
1.86285e-20
2.34351e-05
8.59542e-21
2.34351e-05
1.09679e-20
2.34351e-05
2.5955e-20
2.34351e-05
-1.69333e-20
2.34351e-05
1.47648e-21
2.34351e-05
-1.45542e-20
2.34351e-05
-1.11057e-20
2.34351e-05
4.74993e-20
2.34351e-05
-3.97487e-20
2.34351e-05
-5.02566e-20
2.34351e-05
2.27764e-20
2.34351e-05
-1.47401e-20
2.34351e-05
2.91457e-20
2.34351e-05
-2.89418e-20
2.34351e-05
-7.06732e-20
2.34351e-05
1.83565e-20
2.34351e-05
3.59795e-20
2.34351e-05
4.19829e-20
2.34351e-05
-1.18475e-20
2.34351e-05
-2.36294e-20
2.34351e-05
-5.26947e-21
2.34351e-05
2.57945e-20
2.34351e-05
7.76919e-20
2.34351e-05
-2.92993e-20
2.34351e-05
-5.62292e-20
2.34351e-05
2.0122e-20
2.34351e-05
5.13711e-20
2.34351e-05
8.85072e-21
2.34351e-05
-4.52732e-20
2.34351e-05
1.4734e-20
2.34351e-05
-5.74212e-21
2.34351e-05
2.92811e-20
2.34351e-05
2.82839e-20
2.34351e-05
-6.63904e-20
2.34351e-05
1.74478e-20
2.34351e-05
-3.08857e-20
2.34351e-05
2.22003e-20
2.34351e-05
4.05437e-20
2.34351e-05
1.21124e-20
2.34351e-05
-5.36444e-20
2.34351e-05
-8.8907e-21
2.34351e-05
6.64892e-20
2.34351e-05
3.40965e-20
2.34351e-05
2.78521e-20
2.34351e-05
-1.41943e-19
2.34351e-05
2.19848e-20
2.34351e-05
1.10048e-19
2.34351e-05
1.29917e-20
2.34351e-05
-2.27865e-20
2.34351e-05
-1.01618e-19
2.34351e-05
-4.76256e-21
2.34351e-05
1.00179e-19
2.34351e-05
2.27503e-20
2.34351e-05
-5.8199e-20
2.34351e-05
-1.14428e-19
2.34351e-05
5.17558e-21
2.34351e-05
1.53486e-19
2.34351e-05
4.95875e-20
2.34351e-05
-6.85053e-20
2.34351e-05
-1.20364e-19
2.34351e-05
3.22982e-20
2.34351e-05
1.36197e-19
2.34351e-05
1.02648e-21
2.34351e-05
-4.85066e-20
2.34351e-05
-7.72678e-20
2.34351e-05
2.06306e-20
2.34351e-05
8.84e-20
2.34351e-05
-2.45213e-20
2.34351e-05
-2.92279e-20
2.34351e-05
-8.45158e-20
2.34351e-05
-1.12483e-20
2.34351e-05
7.97846e-20
2.34351e-05
-1.013e-20
2.34351e-05
-4.06141e-20
2.34351e-05
-6.64922e-20
2.34351e-05
3.95165e-20
2.34351e-05
5.14992e-20
2.34351e-05
-2.99113e-20
2.34351e-05
-1.14068e-20
2.34351e-05
-6.14055e-20
2.34351e-05
2.26345e-20
2.34351e-05
1.80798e-21
2.34351e-05
-1.35749e-20
2.34351e-05
6.15107e-20
2.34351e-05
-8.69386e-20
2.34351e-05
-6.8316e-20
2.34351e-05
5.0667e-20
2.34351e-05
3.80752e-20
2.34351e-05
5.50427e-20
2.34351e-05
-4.03754e-20
2.34351e-05
-6.00837e-20
2.34351e-05
5.01767e-20
2.34351e-05
4.18689e-20
2.34351e-05
7.89204e-20
2.34351e-05
-9.09753e-20
2.34351e-05
-1.72277e-20
2.34351e-05
1.05603e-19
2.34351e-05
-7.65188e-20
2.34351e-05
5.63419e-20
2.34351e-05
8.06406e-21
2.34351e-05
-3.24389e-20
2.34351e-05
8.69532e-20
2.34351e-05
1.46828e-20
2.34351e-05
2.43013e-20
2.34351e-05
-7.38156e-20
2.34351e-05
3.44733e-20
2.34351e-05
6.00302e-20
2.34351e-05
-3.96461e-20
2.34351e-05
-2.63387e-20
2.34351e-05
-7.53165e-20
2.34351e-05
8.8851e-20
2.34351e-05
-2.75776e-20
2.34351e-05
-1.63825e-20
2.34351e-05
8.60029e-20
2.34351e-05
-1.61368e-19
2.34351e-05
-3.26168e-21
2.34351e-05
6.22147e-20
2.34351e-05
-3.11894e-20
2.34351e-05
1.03251e-19
2.34351e-05
-1.0233e-19
2.34351e-05
-1.09304e-20
2.34351e-05
9.41663e-20
2.34351e-05
-8.45208e-20
2.34351e-05
3.83343e-20
2.34351e-05
-1.20146e-20
2.34351e-05
-6.61784e-20
2.34351e-05
1.12396e-19
2.34351e-05
-1.01362e-20
2.34351e-05
1.86015e-20
2.34351e-05
-6.14573e-20
2.34351e-05
-2.96447e-20
2.34351e-05
1.3595e-19
2.34351e-05
-8.7718e-20
2.34351e-05
2.4885e-21
2.34351e-05
-6.6576e-20
2.34351e-05
-1.46547e-21
2.34351e-05
1.4011e-19
2.34351e-05
-6.30252e-20
2.34351e-05
-7.75135e-20
2.34351e-05
-5.96534e-20
2.34351e-05
6.13668e-20
2.34351e-05
7.7926e-20
2.34351e-05
-2.38705e-20
2.34351e-05
-6.20119e-20
2.34351e-05
-8.50388e-20
2.34351e-05
2.34021e-19
2.34351e-05
9.3474e-21
2.34351e-05
-2.24841e-19
2.34351e-05
1.9442e-19
2.34351e-05
-2.04217e-21
2.34351e-05
-4.24914e-20
2.34351e-05
-2.63208e-20
2.34351e-05
-1.37921e-19
2.34351e-05
2.37538e-19
2.34351e-05
2.54641e-20
2.34351e-05
-9.55412e-20
2.34351e-05
-2.94877e-20
2.34351e-05
-1.47405e-19
2.34351e-05
2.4685e-19
2.34351e-05
-8.93352e-21
2.34351e-05
-1.04436e-19
2.34351e-05
6.09467e-20
2.34351e-05
-9.73844e-20
2.34351e-05
1.842e-19
2.34351e-05
-3.01751e-20
2.34351e-05
-3.59597e-20
2.34351e-05
7.22509e-20
2.34351e-05
-1.69919e-19
2.34351e-05
7.22789e-20
2.34351e-05
1.69742e-20
2.34351e-05
6.57123e-20
2.34351e-05
1.07532e-19
2.34351e-05
-1.83599e-19
2.34351e-05
9.6236e-20
2.34351e-05
-5.2749e-20
2.34351e-05
2.20834e-20
2.34351e-05
1.25101e-19
2.34351e-05
-2.58934e-19
2.34351e-05
3.02552e-20
2.34351e-05
5.91854e-20
2.34351e-05
8.14239e-20
2.34351e-05
3.08851e-20
2.34351e-05
-2.02381e-19
2.34351e-05
1.76163e-19
2.34351e-05
-2.25954e-20
2.34351e-05
-1.22931e-19
2.34351e-05
-1.83161e-20
2.34351e-05
-1.40614e-19
2.34351e-05
2.5404e-19
2.34351e-05
-3.05622e-20
2.34351e-05
-5.82948e-20
2.34351e-05
9.45042e-20
2.34351e-05
-1.86095e-19
2.34351e-05
1.04846e-19
2.34351e-05
1.26284e-20
2.34351e-05
-2.12712e-20
2.34351e-05
2.60042e-20
2.34351e-05
-1.11314e-19
2.34351e-05
1.81009e-19
2.34351e-05
1.58625e-20
2.34351e-05
-3.51614e-20
2.34351e-05
-1.98766e-21
2.34351e-05
-1.44812e-19
2.34351e-05
1.24791e-19
2.34351e-05
1.88553e-20
2.34351e-05
-2.94762e-21
2.34351e-05
-4.93594e-21
2.34351e-05
-1.49528e-19
2.34351e-05
9.96648e-20
2.34351e-05
1.86737e-20
2.34351e-05
-4.95639e-20
2.34351e-05
8.39465e-20
2.34351e-05
-1.37972e-19
2.34351e-05
4.68695e-20
2.34351e-05
3.69707e-20
2.34351e-05
-2.67364e-20
2.34351e-05
4.07511e-20
2.34351e-05
-1.1286e-19
2.34351e-05
6.36438e-20
2.34351e-05
1.03141e-19
2.34351e-05
-1.79186e-20
2.34351e-05
-9.3371e-20
2.34351e-05
-1.09668e-19
2.34351e-05
1.45506e-19
2.34351e-05
1.9859e-20
2.34351e-05
-6.41616e-20
2.34351e-05
-3.5222e-20
2.34351e-05
-4.53482e-20
2.34351e-05
1.24291e-19
2.34351e-05
-8.53673e-23
2.34351e-05
-3.15714e-20
2.34351e-05
-9.07717e-20
2.34351e-05
-4.66376e-20
2.34351e-05
1.60075e-19
2.34351e-05
4.58078e-20
2.34351e-05
4.37509e-20
2.34351e-05
-1.1254e-19
2.34351e-05
-1.04781e-19
2.34351e-05
8.49541e-20
2.34351e-05
-7.56478e-22
2.34351e-05
6.23998e-20
2.34351e-05
-1.34227e-19
2.34351e-05
-1.03126e-20
2.34351e-05
4.48554e-20
2.34351e-05
-1.32755e-19
2.34351e-05
8.6636e-20
2.34351e-05
-6.26165e-20
2.34351e-05
-1.34412e-19
2.34351e-05
-3.06934e-21
2.34351e-05
-1.68727e-19
2.34351e-05
-8.42145e-20
2.34351e-05
-4.38625e-19
-1.57862e-18
6.91336e-05
-4.87711e-18
6.91336e-05
-1.9134e-18
6.91336e-05
-8.07937e-19
6.91336e-05
-3.80198e-19
6.91336e-05
-2.20313e-19
6.91336e-05
-1.44471e-19
6.91336e-05
-9.97827e-20
6.91336e-05
-7.26447e-20
6.91336e-05
-2.04436e-20
6.91336e-05
-2.47147e-20
6.91336e-05
1.40426e-21
6.91336e-05
1.97381e-20
6.91336e-05
4.71697e-20
6.91336e-05
3.16865e-20
6.91336e-05
-3.14824e-20
6.91336e-05
1.14308e-20
6.91336e-05
4.86908e-20
6.91336e-05
4.49817e-20
6.91336e-05
1.08575e-20
6.91336e-05
-4.19793e-23
6.91336e-05
3.28508e-20
6.91336e-05
5.85372e-21
6.91336e-05
-3.52001e-20
6.91336e-05
-5.57624e-20
6.91336e-05
-7.37797e-20
6.91336e-05
-5.59451e-20
6.91336e-05
1.75202e-20
6.91336e-05
-7.83274e-20
6.91336e-05
-1.40126e-19
6.91336e-05
-9.94627e-20
6.91336e-05
-5.5139e-21
6.91336e-05
8.92357e-20
6.91336e-05
1.62174e-20
6.91336e-05
-3.41632e-20
6.91336e-05
-1.64906e-20
6.91336e-05
-3.98604e-21
6.91336e-05
7.67495e-20
6.91336e-05
-5.3619e-21
6.91336e-05
-7.31956e-20
6.91336e-05
1.69329e-20
6.91336e-05
-1.67332e-20
6.91336e-05
7.6985e-21
6.91336e-05
3.17264e-20
6.91336e-05
-5.35351e-20
6.91336e-05
-1.20507e-20
6.91336e-05
-9.90772e-21
6.91336e-05
-1.46607e-20
6.91336e-05
-4.53548e-20
6.91336e-05
-6.72667e-20
6.91336e-05
-6.20694e-20
6.91336e-05
-9.55367e-20
6.91336e-05
4.09428e-21
6.91336e-05
-4.4549e-20
6.91336e-05
-6.14197e-20
6.91336e-05
2.85319e-21
6.91336e-05
-8.54221e-20
6.91336e-05
-1.29554e-20
6.91336e-05
-7.85968e-21
6.91336e-05
-5.48436e-21
6.91336e-05
2.68952e-20
6.91336e-05
-1.2776e-19
6.91336e-05
7.79841e-20
6.91336e-05
-1.78659e-23
6.91336e-05
8.01454e-22
6.91336e-05
1.25771e-19
6.91336e-05
-4.45506e-20
6.91336e-05
5.02451e-20
6.91336e-05
3.21761e-20
6.91336e-05
4.0312e-20
6.91336e-05
9.47003e-20
6.91336e-05
-4.71367e-20
6.91336e-05
-1.41146e-20
6.91336e-05
-3.24417e-20
6.91336e-05
-6.74957e-21
6.91336e-05
8.60823e-20
6.91336e-05
-1.0828e-19
6.91336e-05
-1.10969e-19
6.91336e-05
1.15838e-20
6.91336e-05
-6.44431e-20
6.91336e-05
4.77998e-20
6.91336e-05
-7.28523e-20
6.91336e-05
-1.70252e-19
6.91336e-05
4.05771e-20
6.91336e-05
1.04697e-19
6.91336e-05
9.54952e-20
6.91336e-05
-1.20474e-20
6.91336e-05
-1.60076e-20
6.91336e-05
-2.61584e-21
6.91336e-05
6.67418e-20
6.91336e-05
1.9124e-19
6.91336e-05
-4.24975e-20
6.91336e-05
-1.17375e-19
6.91336e-05
3.6279e-20
6.91336e-05
9.35545e-20
6.91336e-05
4.34738e-20
6.91336e-05
-6.20892e-20
6.91336e-05
2.36452e-20
6.91336e-05
5.55729e-21
6.91336e-05
2.76822e-20
6.91336e-05
1.40429e-20
6.91336e-05
-9.63418e-20
6.91336e-05
1.88258e-21
6.91336e-05
-7.13366e-20
6.91336e-05
3.50493e-20
6.91336e-05
1.16141e-19
6.91336e-05
6.4962e-20
6.91336e-05
-9.37501e-20
6.91336e-05
-4.40067e-20
6.91336e-05
1.77186e-19
6.91336e-05
1.55557e-19
6.91336e-05
8.9509e-22
6.91336e-05
-2.96447e-19
6.91336e-05
5.15097e-20
6.91336e-05
2.55656e-19
6.91336e-05
7.43546e-20
6.91336e-05
-5.92918e-20
6.91336e-05
-2.57484e-19
6.91336e-05
-5.54034e-20
6.91336e-05
2.49782e-19
6.91336e-05
9.00517e-20
6.91336e-05
-1.89011e-19
6.91336e-05
-2.82975e-19
6.91336e-05
1.54527e-20
6.91336e-05
3.49961e-19
6.91336e-05
1.59078e-19
6.91336e-05
-1.7694e-19
6.91336e-05
-2.97179e-19
6.91336e-05
9.52581e-20
6.91336e-05
3.2666e-19
6.91336e-05
2.60067e-20
6.91336e-05
-1.19433e-19
6.91336e-05
-1.82896e-19
6.91336e-05
4.19158e-20
6.91336e-05
1.85357e-19
6.91336e-05
-2.90341e-20
6.91336e-05
-1.02296e-19
6.91336e-05
-2.30553e-19
6.91336e-05
-6.85068e-20
6.91336e-05
1.90292e-19
6.91336e-05
5.52923e-22
6.91336e-05
-1.17906e-19
6.91336e-05
-1.68023e-19
6.91336e-05
6.36173e-20
6.91336e-05
1.20794e-19
6.91336e-05
-5.52661e-20
6.91336e-05
-7.39265e-20
6.91336e-05
-1.71227e-19
6.91336e-05
5.14941e-20
6.91336e-05
1.58782e-20
6.91336e-05
-3.57824e-20
6.91336e-05
1.03723e-19
6.91336e-05
-1.81594e-19
6.91336e-05
-1.39939e-19
6.91336e-05
9.08144e-20
6.91336e-05
1.03847e-19
6.91336e-05
1.24245e-19
6.91336e-05
-8.10309e-20
6.91336e-05
-1.18578e-19
6.91336e-05
1.14482e-19
6.91336e-05
1.46796e-19
6.91336e-05
1.76848e-19
6.91336e-05
-1.68677e-19
6.91336e-05
-2.68499e-20
6.91336e-05
2.27502e-19
6.91336e-05
-9.96076e-20
6.91336e-05
8.54059e-20
6.91336e-05
4.68446e-20
6.91336e-05
1.32421e-21
6.91336e-05
1.85531e-19
6.91336e-05
8.48421e-20
6.91336e-05
3.00577e-20
6.91336e-05
-1.33799e-19
6.91336e-05
7.02838e-20
6.91336e-05
1.55513e-19
6.91336e-05
-4.62624e-20
6.91336e-05
-1.19512e-19
6.91336e-05
-1.63643e-19
6.91336e-05
1.25965e-19
6.91336e-05
-4.08218e-20
6.91336e-05
3.42298e-20
6.91336e-05
1.10525e-19
6.91336e-05
-3.75307e-19
6.91336e-05
-4.78603e-20
6.91336e-05
1.4934e-19
6.91336e-05
4.87668e-21
6.91336e-05
1.70807e-19
6.91336e-05
-1.97854e-19
6.91336e-05
-4.09091e-20
6.91336e-05
1.88413e-19
6.91336e-05
-1.15794e-19
6.91336e-05
2.68469e-20
6.91336e-05
-2.53353e-20
6.91336e-05
-8.86201e-20
6.91336e-05
1.91106e-19
6.91336e-05
4.4824e-20
6.91336e-05
2.04031e-20
6.91336e-05
-1.14389e-19
6.91336e-05
-4.40696e-20
6.91336e-05
1.82111e-19
6.91336e-05
-1.07544e-19
6.91336e-05
-3.62711e-20
6.91336e-05
-1.35528e-19
6.91336e-05
2.34067e-20
6.91336e-05
2.08805e-19
6.91336e-05
-9.30966e-20
6.91336e-05
-1.57485e-19
6.91336e-05
-1.52691e-19
6.91336e-05
9.98511e-20
6.91336e-05
1.19697e-19
6.91336e-05
-1.91125e-20
6.91336e-05
-8.30068e-20
6.91336e-05
-1.69171e-19
6.91336e-05
4.552e-19
6.91336e-05
3.60349e-20
6.91336e-05
-3.98667e-19
6.91336e-05
3.74947e-19
6.91336e-05
-1.60204e-20
6.91336e-05
-2.45385e-20
6.91336e-05
-9.31307e-20
6.91336e-05
-3.02898e-19
6.91336e-05
5.15871e-19
6.91336e-05
4.76383e-20
6.91336e-05
-1.71138e-19
6.91336e-05
-9.27214e-20
6.91336e-05
-3.34172e-19
6.91336e-05
5.14039e-19
6.91336e-05
3.33132e-20
6.91336e-05
-1.92884e-19
6.91336e-05
1.04237e-19
6.91336e-05
-1.58447e-19
6.91336e-05
4.00077e-19
6.91336e-05
-5.16277e-21
6.91336e-05
-8.33458e-20
6.91336e-05
1.15196e-19
6.91336e-05
-3.65702e-19
6.91336e-05
1.16618e-19
6.91336e-05
7.06991e-20
6.91336e-05
2.41169e-19
6.91336e-05
2.55862e-19
6.91336e-05
-3.89886e-19
6.91336e-05
1.79928e-19
6.91336e-05
-1.12115e-19
6.91336e-05
8.19715e-20
6.91336e-05
2.1672e-19
6.91336e-05
-6.04057e-19
6.91336e-05
7.40435e-20
6.91336e-05
1.42523e-19
6.91336e-05
1.71422e-19
6.91336e-05
6.80142e-20
6.91336e-05
-4.32859e-19
6.91336e-05
4.11331e-19
6.91336e-05
-4.65942e-20
6.91336e-05
-3.37277e-19
6.91336e-05
-1.64867e-19
6.91336e-05
-2.6385e-19
6.91336e-05
6.1106e-19
6.91336e-05
-3.99696e-20
6.91336e-05
-1.30239e-19
6.91336e-05
1.6354e-19
6.91336e-05
-3.90523e-19
6.91336e-05
1.94246e-19
6.91336e-05
3.1215e-20
6.91336e-05
3.28918e-21
6.91336e-05
3.65768e-20
6.91336e-05
-2.14779e-19
6.91336e-05
4.23599e-19
6.91336e-05
5.75619e-21
6.91336e-05
-6.45921e-20
6.91336e-05
-5.26264e-21
6.91336e-05
-3.35584e-19
6.91336e-05
2.62512e-19
6.91336e-05
4.65703e-20
6.91336e-05
2.24541e-20
6.91336e-05
-3.58306e-20
6.91336e-05
-3.71128e-19
6.91336e-05
2.62577e-19
6.91336e-05
2.35329e-21
6.91336e-05
-5.24207e-20
6.91336e-05
1.32418e-19
6.91336e-05
-3.73133e-19
6.91336e-05
1.71411e-19
6.91336e-05
4.65642e-20
6.91336e-05
-1.05328e-20
6.91336e-05
1.13508e-19
6.91336e-05
-3.16104e-19
6.91336e-05
2.23901e-19
6.91336e-05
2.23559e-19
6.91336e-05
-9.66097e-20
6.91336e-05
-2.07489e-19
6.91336e-05
-2.38265e-19
6.91336e-05
3.1517e-19
6.91336e-05
4.20616e-20
6.91336e-05
-1.8462e-19
6.91336e-05
-3.98079e-20
6.91336e-05
-1.1942e-19
6.91336e-05
2.5162e-19
6.91336e-05
9.61115e-20
6.91336e-05
-1.66728e-19
6.91336e-05
-1.5748e-19
6.91336e-05
-1.1204e-19
6.91336e-05
3.51015e-19
6.91336e-05
2.47415e-19
6.91336e-05
5.29916e-20
6.91336e-05
-2.99015e-19
6.91336e-05
-2.55018e-19
6.91336e-05
2.29087e-19
6.91336e-05
3.05911e-20
6.91336e-05
4.50065e-20
6.91336e-05
-2.78838e-19
6.91336e-05
-4.69934e-20
6.91336e-05
1.15321e-19
6.91336e-05
-2.61717e-19
6.91336e-05
9.03467e-20
6.91336e-05
-1.25047e-19
6.91336e-05
-3.23913e-19
6.91336e-05
-9.45285e-20
6.91336e-05
-3.52682e-19
6.91336e-05
-1.78009e-19
6.91336e-05
-8.05935e-19
-2.1115e-18
0.00011366
-3.23912e-18
0.00011366
-1.86792e-18
0.00011366
-9.60492e-19
0.00011366
-5.57411e-19
0.00011366
-3.44232e-19
0.00011366
-2.12479e-19
0.00011366
-1.44775e-19
0.00011366
-6.72759e-20
0.00011366
5.81291e-21
0.00011366
-1.02903e-21
0.00011366
-1.20395e-20
0.00011366
4.36654e-20
0.00011366
1.14791e-19
0.00011366
4.25351e-20
0.00011366
-4.09238e-20
0.00011366
4.88e-20
0.00011366
9.72427e-20
0.00011366
7.026e-20
0.00011366
3.51673e-20
0.00011366
2.44297e-20
0.00011366
5.38647e-20
0.00011366
1.06824e-20
0.00011366
-6.31838e-20
0.00011366
-1.2316e-19
0.00011366
-1.15795e-19
0.00011366
-9.6758e-20
0.00011366
-4.21584e-20
0.00011366
-1.44726e-19
0.00011366
-2.33744e-19
0.00011366
-1.95025e-19
0.00011366
-7.2402e-21
0.00011366
1.28878e-19
0.00011366
3.29138e-20
0.00011366
-4.35339e-20
0.00011366
-3.49938e-20
0.00011366
2.10282e-20
0.00011366
8.19171e-20
0.00011366
-9.14671e-21
0.00011366
-9.65535e-20
0.00011366
3.22422e-20
0.00011366
-2.75113e-20
0.00011366
3.38129e-21
0.00011366
2.13949e-20
0.00011366
-6.97859e-20
0.00011366
-3.42051e-20
0.00011366
-1.07213e-20
0.00011366
-4.24811e-20
0.00011366
-9.76975e-20
0.00011366
-1.33609e-19
0.00011366
-1.41655e-19
0.00011366
-1.58487e-19
0.00011366
-4.2146e-20
0.00011366
-6.75785e-20
0.00011366
-1.23734e-19
0.00011366
-3.42002e-20
0.00011366
-1.48023e-19
0.00011366
-4.6064e-20
0.00011366
-3.3826e-20
0.00011366
-2.12458e-20
0.00011366
2.11778e-20
0.00011366
-1.77501e-19
0.00011366
9.28191e-20
0.00011366
1.20028e-20
0.00011366
2.40449e-20
0.00011366
1.91685e-19
0.00011366
-5.28819e-20
0.00011366
1.11055e-19
0.00011366
8.61608e-20
0.00011366
8.19168e-20
0.00011366
1.40725e-19
0.00011366
-4.92502e-20
0.00011366
-2.89411e-20
0.00011366
-4.42847e-20
0.00011366
1.97901e-20
0.00011366
9.89126e-20
0.00011366
-1.88608e-19
0.00011366
-1.67912e-19
0.00011366
-2.59606e-20
0.00011366
-8.23766e-20
0.00011366
1.80246e-20
0.00011366
-1.43968e-19
0.00011366
-2.28116e-19
0.00011366
2.85702e-20
0.00011366
1.83383e-19
0.00011366
1.78357e-19
0.00011366
-1.50703e-20
0.00011366
-4.09999e-21
0.00011366
3.82171e-20
0.00011366
1.12767e-19
0.00011366
2.73518e-19
0.00011366
-1.23989e-20
0.00011366
-1.13946e-19
0.00011366
3.31772e-20
0.00011366
1.25932e-19
0.00011366
9.08642e-20
0.00011366
-7.31304e-20
0.00011366
3.80362e-20
0.00011366
4.25934e-21
0.00011366
-2.62337e-21
0.00011366
-1.02982e-20
0.00011366
-6.53381e-20
0.00011366
-4.53979e-20
0.00011366
-1.08768e-19
0.00011366
3.02694e-20
0.00011366
1.74998e-19
0.00011366
1.69918e-19
0.00011366
-1.47783e-19
0.00011366
-9.4157e-20
0.00011366
3.21927e-19
0.00011366
3.06604e-19
0.00011366
-2.60789e-20
0.00011366
-4.28154e-19
0.00011366
5.4027e-20
0.00011366
3.91864e-19
0.00011366
1.87375e-19
0.00011366
-6.65106e-20
0.00011366
-4.10227e-19
0.00011366
-1.4197e-19
0.00011366
3.89357e-19
0.00011366
1.62358e-19
0.00011366
-3.43424e-19
0.00011366
-4.64423e-19
0.00011366
-2.14018e-20
0.00011366
5.487e-19
0.00011366
3.11118e-19
0.00011366
-2.51124e-19
0.00011366
-4.4317e-19
0.00011366
1.49302e-19
0.00011366
4.92218e-19
0.00011366
4.77156e-20
0.00011366
-1.95126e-19
0.00011366
-2.63008e-19
0.00011366
2.45736e-20
0.00011366
2.77025e-19
0.00011366
-3.421e-20
0.00011366
-2.00274e-19
0.00011366
-3.56603e-19
0.00011366
-1.29234e-19
0.00011366
2.89361e-19
0.00011366
1.25374e-20
0.00011366
-2.23904e-19
0.00011366
-3.01698e-19
0.00011366
5.30304e-20
0.00011366
1.83596e-19
0.00011366
-9.65362e-20
0.00011366
-1.35249e-19
0.00011366
-2.90143e-19
0.00011366
9.6745e-20
0.00011366
3.21655e-20
0.00011366
-9.73215e-20
0.00011366
1.08958e-19
0.00011366
-2.44298e-19
0.00011366
-2.18419e-19
0.00011366
9.10497e-20
0.00011366
1.89657e-19
0.00011366
1.75267e-19
0.00011366
-9.60536e-20
0.00011366
-1.40353e-19
0.00011366
1.87818e-19
0.00011366
2.90661e-19
0.00011366
2.87958e-19
0.00011366
-2.13322e-19
0.00011366
7.08278e-21
0.00011366
3.29035e-19
0.00011366
-9.2016e-20
0.00011366
1.16263e-19
0.00011366
1.24885e-19
0.00011366
1.30063e-19
0.00011366
2.66498e-19
0.00011366
1.29541e-19
0.00011366
3.30956e-20
0.00011366
-2.05468e-19
0.00011366
1.21346e-19
0.00011366
3.02394e-19
0.00011366
-6.18935e-20
0.00011366
-2.54582e-19
0.00011366
-2.71034e-19
0.00011366
5.78339e-20
0.00011366
-4.31019e-20
0.00011366
1.52312e-19
0.00011366
7.37622e-20
0.00011366
-5.6558e-19
0.00011366
-9.3778e-20
0.00011366
2.49619e-19
0.00011366
6.81538e-20
0.00011366
1.6098e-19
0.00011366
-2.39958e-19
0.00011366
-3.70771e-20
0.00011366
2.28339e-19
0.00011366
-1.06229e-19
0.00011366
-3.02888e-20
0.00011366
-2.71889e-20
0.00011366
-7.17262e-20
0.00011366
2.28996e-19
0.00011366
1.56989e-19
0.00011366
6.24085e-20
0.00011366
-1.82109e-19
0.00011366
-9.92832e-20
0.00011366
1.617e-19
0.00011366
-6.98548e-20
0.00011366
-1.13489e-19
0.00011366
-1.61713e-19
0.00011366
7.27338e-20
0.00011366
2.00217e-19
0.00011366
-1.20775e-19
0.00011366
-2.45071e-19
0.00011366
-2.3929e-19
0.00011366
1.202e-19
0.00011366
1.28931e-19
0.00011366
-1.71084e-20
0.00011366
-4.35915e-20
0.00011366
-2.22674e-19
0.00011366
5.99807e-19
0.00011366
7.54618e-20
0.00011366
-4.50459e-19
0.00011366
4.44479e-19
0.00011366
-6.96591e-20
0.00011366
6.667e-20
0.00011366
-1.38881e-19
0.00011366
-4.41427e-19
0.00011366
6.94054e-19
0.00011366
4.37101e-20
0.00011366
-1.66284e-19
0.00011366
-1.09631e-19
0.00011366
-4.82776e-19
0.00011366
6.82574e-19
0.00011366
1.22938e-19
0.00011366
-2.50614e-19
0.00011366
1.36073e-19
0.00011366
-1.77365e-19
0.00011366
5.85386e-19
0.00011366
5.72392e-20
0.00011366
-1.3014e-19
0.00011366
1.10693e-19
0.00011366
-4.48056e-19
0.00011366
1.29227e-19
0.00011366
6.47645e-20
0.00011366
4.94385e-19
0.00011366
4.19509e-19
0.00011366
-5.58853e-19
0.00011366
2.40423e-19
0.00011366
-1.71647e-19
0.00011366
1.3871e-19
0.00011366
2.57112e-19
0.00011366
-8.89939e-19
0.00011366
1.13298e-19
0.00011366
1.62872e-19
0.00011366
2.53217e-19
0.00011366
1.10433e-19
0.00011366
-5.71434e-19
0.00011366
5.84667e-19
0.00011366
-1.03439e-19
0.00011366
-5.85923e-19
0.00011366
-3.61598e-19
0.00011366
-3.13188e-19
0.00011366
9.10587e-19
0.00011366
-2.00067e-20
0.00011366
-1.58092e-19
0.00011366
2.07735e-19
0.00011366
-5.79793e-19
0.00011366
2.12411e-19
0.00011366
5.2884e-20
0.00011366
1.30343e-19
0.00011366
4.12164e-20
0.00011366
-3.09952e-19
0.00011366
6.44059e-19
0.00011366
-1.32644e-20
0.00011366
-7.03036e-20
0.00011366
-2.65755e-20
0.00011366
-5.17214e-19
0.00011366
4.21164e-19
0.00011366
5.65728e-20
0.00011366
2.67266e-21
0.00011366
-6.94121e-20
0.00011366
-5.84855e-19
0.00011366
4.12483e-19
0.00011366
-1.6429e-20
0.00011366
-3.64165e-20
0.00011366
1.4283e-19
0.00011366
-6.36401e-19
0.00011366
2.94891e-19
0.00011366
2.48004e-20
0.00011366
2.52437e-20
0.00011366
1.77385e-19
0.00011366
-5.19379e-19
0.00011366
4.26954e-19
0.00011366
3.3507e-19
0.00011366
-1.74945e-19
0.00011366
-2.97794e-19
0.00011366
-4.01289e-19
0.00011366
4.45116e-19
0.00011366
4.36873e-20
0.00011366
-2.48236e-19
0.00011366
-2.08251e-20
0.00011366
-2.08275e-19
0.00011366
3.42986e-19
0.00011366
2.29709e-19
0.00011366
-2.7337e-19
0.00011366
-2.09805e-19
0.00011366
-2.01682e-19
0.00011366
5.44902e-19
0.00011366
4.66605e-19
0.00011366
6.10391e-20
0.00011366
-4.44323e-19
0.00011366
-3.88302e-19
0.00011366
3.59154e-19
0.00011366
5.7492e-20
0.00011366
-4.59966e-20
0.00011366
-3.88388e-19
0.00011366
-1.25331e-19
0.00011366
1.98378e-19
0.00011366
-3.88823e-19
0.00011366
-2.64187e-20
0.00011366
-1.11336e-19
0.00011366
-5.06101e-19
0.00011366
-2.27067e-19
0.00011366
-5.12583e-19
0.00011366
-2.45794e-19
0.00011366
-9.87934e-19
-2.19348e-18
0.000157014
-2.38444e-18
0.000157014
-1.70023e-18
0.000157014
-1.01594e-18
0.000157014
-6.1557e-19
0.000157014
-4.46774e-19
0.000157014
-2.67733e-19
0.000157014
-1.5467e-19
0.000157014
-4.89645e-20
0.000157014
7.96532e-21
0.000157014
-4.17219e-20
0.000157014
-6.33678e-21
0.000157014
7.25527e-20
0.000157014
1.81165e-19
0.000157014
7.24388e-20
0.000157014
-2.6118e-20
0.000157014
1.10436e-19
0.000157014
1.95891e-19
0.000157014
1.1813e-19
0.000157014
1.07588e-19
0.000157014
6.32532e-20
0.000157014
6.05631e-20
0.000157014
-4.15564e-20
0.000157014
-1.21606e-19
0.000157014
-1.61547e-19
0.000157014
-1.85498e-19
0.000157014
-1.48214e-19
0.000157014
-9.07903e-20
0.000157014
-2.1714e-19
0.000157014
-3.43859e-19
0.000157014
-2.68369e-19
0.000157014
-2.08935e-20
0.000157014
1.37229e-19
0.000157014
2.43508e-20
0.000157014
-1.92099e-20
0.000157014
-3.27787e-20
0.000157014
3.19268e-21
0.000157014
8.47317e-20
0.000157014
5.9811e-21
0.000157014
-1.0172e-19
0.000157014
-2.34713e-20
0.000157014
-3.19009e-21
0.000157014
2.10933e-20
0.000157014
-1.1756e-20
0.000157014
-1.31675e-19
0.000157014
-1.62098e-20
0.000157014
2.33677e-20
0.000157014
-5.92979e-20
0.000157014
-1.65704e-19
0.000157014
-2.39763e-19
0.000157014
-2.12443e-19
0.000157014
-2.41377e-19
0.000157014
-1.22366e-19
0.000157014
-9.9366e-20
0.000157014
-1.46979e-19
0.000157014
-5.65023e-20
0.000157014
-2.29069e-19
0.000157014
-1.28207e-19
0.000157014
-7.07404e-20
0.000157014
-3.92422e-20
0.000157014
5.96844e-21
0.000157014
-2.57196e-19
0.000157014
7.37962e-20
0.000157014
1.9806e-20
0.000157014
7.85816e-20
0.000157014
2.54656e-19
0.000157014
-2.30925e-20
0.000157014
1.90396e-19
0.000157014
1.1117e-19
0.000157014
1.71081e-19
0.000157014
1.84742e-19
0.000157014
-8.60769e-20
0.000157014
-3.05837e-20
0.000157014
-5.30475e-20
0.000157014
3.33573e-20
0.000157014
9.12368e-20
0.000157014
-2.47569e-19
0.000157014
-2.41132e-19
0.000157014
-7.58481e-20
0.000157014
-1.64863e-19
0.000157014
8.11225e-23
0.000157014
-1.89295e-19
0.000157014
-3.37015e-19
0.000157014
2.94256e-20
0.000157014
3.1853e-19
0.000157014
2.87145e-19
0.000157014
2.51458e-20
0.000157014
4.33517e-20
0.000157014
7.31141e-20
0.000157014
1.47754e-19
0.000157014
3.6529e-19
0.000157014
4.08368e-20
0.000157014
-1.35302e-19
0.000157014
5.58303e-20
0.000157014
1.53848e-19
0.000157014
1.38987e-19
0.000157014
-6.67134e-20
0.000157014
5.69269e-20
0.000157014
1.47264e-20
0.000157014
4.77564e-21
0.000157014
-3.57701e-20
0.000157014
-1.13266e-19
0.000157014
-9.6128e-20
0.000157014
-1.27063e-19
0.000157014
6.56174e-20
0.000157014
2.67626e-19
0.000157014
2.1273e-19
0.000157014
-1.46917e-19
0.000157014
-9.01286e-20
0.000157014
4.6193e-19
0.000157014
4.32756e-19
0.000157014
-1.24392e-20
0.000157014
-5.05233e-19
0.000157014
2.82826e-20
0.000157014
5.19429e-19
0.000157014
3.19441e-19
0.000157014
-8.82309e-20
0.000157014
-5.22165e-19
0.000157014
-1.90243e-19
0.000157014
4.61413e-19
0.000157014
1.72235e-19
0.000157014
-4.96545e-19
0.000157014
-6.09755e-19
0.000157014
-5.58593e-20
0.000157014
6.8794e-19
0.000157014
4.57797e-19
0.000157014
-2.64776e-19
0.000157014
-5.61719e-19
0.000157014
1.93901e-19
0.000157014
6.68889e-19
0.000157014
9.87463e-20
0.000157014
-2.82474e-19
0.000157014
-3.86927e-19
0.000157014
-2.2251e-20
0.000157014
3.38731e-19
0.000157014
2.32468e-20
0.000157014
-2.76864e-19
0.000157014
-5.18661e-19
0.000157014
-1.57371e-19
0.000157014
3.50917e-19
0.000157014
1.12305e-20
0.000157014
-3.47923e-19
0.000157014
-4.29535e-19
0.000157014
1.37246e-20
0.000157014
1.63213e-19
0.000157014
-8.07948e-20
0.000157014
-2.07286e-19
0.000157014
-3.37474e-19
0.000157014
6.07892e-20
0.000157014
7.6313e-21
0.000157014
-1.33172e-19
0.000157014
1.27065e-19
0.000157014
-2.63393e-19
0.000157014
-3.01982e-19
0.000157014
5.01606e-20
0.000157014
2.25442e-19
0.000157014
2.44438e-19
0.000157014
-9.31427e-20
0.000157014
-6.72067e-20
0.000157014
2.82734e-19
0.000157014
3.92622e-19
0.000157014
3.39712e-19
0.000157014
-1.88812e-19
0.000157014
6.96203e-20
0.000157014
4.41472e-19
0.000157014
-5.43501e-20
0.000157014
2.10251e-19
0.000157014
2.29168e-19
0.000157014
2.66507e-19
0.000157014
3.80143e-19
0.000157014
1.86556e-19
0.000157014
4.79467e-20
0.000157014
-3.14328e-19
0.000157014
2.13365e-19
0.000157014
4.48781e-19
0.000157014
-1.50683e-19
0.000157014
-3.11848e-19
0.000157014
-3.50184e-19
0.000157014
-5.50106e-20
0.000157014
-5.23732e-20
0.000157014
2.44807e-19
0.000157014
6.83402e-20
0.000157014
-7.37877e-19
0.000157014
-1.41425e-19
0.000157014
3.23829e-19
0.000157014
1.79431e-19
0.000157014
1.41724e-19
0.000157014
-3.25525e-19
0.000157014
-2.50867e-21
0.000157014
3.1143e-19
0.000157014
-1.66323e-19
0.000157014
-6.57673e-20
0.000157014
-2.7281e-20
0.000157014
5.38198e-21
0.000157014
2.85605e-19
0.000157014
2.17769e-19
0.000157014
1.13437e-19
0.000157014
-2.37536e-19
0.000157014
-1.81677e-19
0.000157014
1.70058e-19
0.000157014
-9.86855e-20
0.000157014
-1.27873e-19
0.000157014
-1.5159e-19
0.000157014
8.32412e-20
0.000157014
1.5632e-19
0.000157014
-1.79215e-19
0.000157014
-2.72002e-19
0.000157014
-3.39555e-19
0.000157014
8.04986e-20
0.000157014
1.20095e-19
0.000157014
7.64816e-20
0.000157014
2.023e-20
0.000157014
-2.21352e-19
0.000157014
6.39615e-19
0.000157014
7.74002e-20
0.000157014
-4.74583e-19
0.000157014
5.03306e-19
0.000157014
-3.40498e-20
0.000157014
9.82454e-20
0.000157014
-1.44494e-19
0.000157014
-5.01806e-19
0.000157014
7.63058e-19
0.000157014
3.25496e-20
0.000157014
-8.60913e-20
0.000157014
-8.37383e-20
0.000157014
-6.24332e-19
0.000157014
7.11702e-19
0.000157014
1.40693e-19
0.000157014
-1.86917e-19
0.000157014
1.68858e-19
0.000157014
-1.58163e-19
0.000157014
7.74242e-19
0.000157014
1.35279e-19
0.000157014
-1.77976e-19
0.000157014
1.30856e-19
0.000157014
-5.10988e-19
0.000157014
1.75309e-19
0.000157014
4.92884e-20
0.000157014
6.21889e-19
0.000157014
5.92144e-19
0.000157014
-5.84197e-19
0.000157014
1.76524e-19
0.000157014
-2.09816e-19
0.000157014
2.29538e-19
0.000157014
2.73033e-19
0.000157014
-1.0994e-18