/*--------------------------------*- C++ -*----------------------------------*\
| =========                 |                                                 |
| \\      /  F ield         | OpenFOAM: The Open Source CFD Toolbox           |
|  \\    /   O peration     | Version:  2112                                  |
|   \\  /    A nd           | Website:  www.openfoam.com                      |
|    \\/     M anipulation  |                                                 |
\*---------------------------------------------------------------------------*/
FoamFile
{
    version     2.0;
    format      ascii;
    arch        "LSB;label=32;scalar=64";
    class       volVectorField;
    location    "3";
    object      U;
}
// * * * * * * * * * * * * * * * * * * * * * * * * * * * * * * * * * * * * * //

dimensions      [0 1 -1 0 0 0 0];

internalField   nonuniform List<vector> 
25600
(
(0.0376016 -1.28069e-15 0)
(0.0376016 -2.48931e-16 0)
(0.0376016 -5.90925e-17 0)
(0.0376016 -3.34059e-17 0)
(0.0376016 -9.5771e-18 0)
(0.0376016 -5.40401e-18 0)
(0.0376016 -9.39838e-18 0)
(0.0376016 -4.63594e-19 0)
(0.0376016 -4.8086e-20 0)
(0.0376016 -6.74183e-18 0)
(0.0376016 1.39023e-18 0)
(0.0376016 -1.10532e-17 0)
(0.0376016 7.03848e-18 0)
(0.0376016 1.80276e-18 0)
(0.0376016 -1.15636e-17 0)
(0.0376016 1.19373e-17 0)
(0.0376016 7.80921e-19 0)
(0.0376016 -4.5198e-18 0)
(0.0376016 -5.41361e-18 0)
(0.0376016 -2.86266e-18 0)
(0.0376016 9.03398e-18 0)
(0.0376016 6.03836e-18 0)
(0.0376016 2.66233e-18 0)
(0.0376016 -6.42578e-18 0)
(0.0376016 -1.35352e-17 0)
(0.0376016 -1.87389e-19 0)
(0.0376016 2.21901e-17 0)
(0.0376016 -2.62193e-18 0)
(0.0376016 -1.74142e-17 0)
(0.0376016 2.85168e-18 0)
(0.0376016 1.03368e-17 0)
(0.0376016 9.4376e-18 0)
(0.0376016 -1.835e-18 0)
(0.0376016 -7.79149e-18 0)
(0.0376016 -2.59416e-18 0)
(0.0376016 -4.6354e-18 0)
(0.0376016 2.46757e-18 0)
(0.0376016 -4.787e-18 0)
(0.0376016 -9.90488e-18 0)
(0.0376016 1.24061e-17 0)
(0.0376016 -2.08135e-18 0)
(0.0376016 1.32671e-17 0)
(0.0376016 -8.90516e-18 0)
(0.0376016 -2.00623e-17 0)
(0.0376016 2.30738e-17 0)
(0.0376016 -1.00415e-17 0)
(0.0376016 6.44773e-18 0)
(0.0376016 4.29183e-18 0)
(0.0376016 -9.67948e-19 0)
(0.0376016 2.06075e-18 0)
(0.0376016 -2.99581e-17 0)
(0.0376016 2.08279e-17 0)
(0.0376016 -7.12606e-19 0)
(0.0376016 -2.0268e-18 0)
(0.0376016 3.00459e-17 0)
(0.0376016 -2.25411e-17 0)
(0.0376016 -3.54386e-18 0)
(0.0376016 -8.14275e-18 0)
(0.0376016 3.28123e-19 0)
(0.0376016 3.8056e-17 0)
(0.0376016 -3.51477e-17 0)
(0.0376016 8.86298e-18 0)
(0.0376016 -2.13572e-18 0)
(0.0376016 -1.92237e-18 0)
(0.0376016 1.88092e-17 0)
(0.0376016 -2.52351e-17 0)
(0.0376016 6.57447e-18 0)
(0.0376016 -6.05848e-18 0)
(0.0376016 1.33596e-17 0)
(0.0376016 8.03772e-18 0)
(0.0376016 -8.31151e-18 0)
(0.0376016 1.18654e-19 0)
(0.0376016 -3.86667e-18 0)
(0.0376016 1.51819e-18 0)
(0.0376016 1.08178e-17 0)
(0.0376016 -5.85353e-18 0)
(0.0376016 -1.72249e-17 0)
(0.0376016 1.67382e-17 0)
(0.0376016 -6.57814e-18 0)
(0.0376016 3.01306e-17 0)
(0.0376016 -2.08604e-17 0)
(0.0376016 -3.20752e-17 0)
(0.0376016 2.52268e-17 0)
(0.0376016 -2.54928e-18 0)
(0.0376016 2.61548e-17 0)
(0.0376016 -1.67999e-18 0)
(0.0376016 -4.46412e-17 0)
(0.0376016 -1.72962e-18 0)
(0.0376016 1.67225e-17 0)
(0.0376016 3.18192e-17 0)
(0.0376016 -1.77948e-18 0)
(0.0376016 -4.82768e-17 0)
(0.0376016 -1.75441e-19 0)
(0.0376016 4.91651e-17 0)
(0.0376016 1.80614e-18 0)
(0.0376016 -5.41817e-17 0)
(0.0376016 7.41451e-18 0)
(0.0376016 -3.90511e-18 0)
(0.0376016 4.62238e-17 0)
(0.0376016 2.69835e-17 0)
(0.0376016 -7.35103e-17 0)
(0.0376016 8.41689e-18 0)
(0.0376016 -7.9388e-18 0)
(0.0376016 3.89559e-17 0)
(0.0376016 6.51136e-18 0)
(0.0376016 -1.45897e-17 0)
(0.0376016 -3.2251e-17 0)
(0.0376016 1.41541e-17 0)
(0.0376016 2.4474e-17 0)
(0.0376016 -1.25196e-17 0)
(0.0376016 3.34274e-17 0)
(0.0376016 -8.27402e-17 0)
(0.0376016 2.11474e-17 0)
(0.0376016 5.41368e-17 0)
(0.0376016 2.93074e-18 0)
(0.0376016 -1.59493e-17 0)
(0.0376016 -5.93106e-17 0)
(0.0376016 3.24607e-17 0)
(0.0376016 3.696e-17 0)
(0.0376016 1.55407e-17 0)
(0.0376016 -3.05157e-18 0)
(0.0376016 -5.93433e-17 0)
(0.0376016 -1.11486e-17 0)
(0.0376016 6.22129e-17 0)
(0.0376016 1.27541e-17 0)
(0.0376016 -2.81136e-17 0)
(0.0376016 -4.36921e-17 0)
(0.0376016 -4.5846e-19 0)
(0.0376016 6.38305e-17 0)
(0.0376016 -1.91979e-18 0)
(0.0376016 -2.33242e-17 0)
(0.0376016 -3.10048e-17 0)
(0.0376016 2.05098e-17 0)
(0.0376016 3.70828e-17 0)
(0.0376016 -2.10602e-17 0)
(0.0376016 -1.95246e-17 0)
(0.0376016 -1.25604e-17 0)
(0.0376016 3.87033e-17 0)
(0.0376016 2.21987e-17 0)
(0.0376016 -2.03122e-17 0)
(0.0376016 -2.97306e-17 0)
(0.0376016 -1.33528e-17 0)
(0.0376016 4.66931e-17 0)
(0.0376016 8.95228e-18 0)
(0.0376016 -4.65827e-17 0)
(0.0376016 4.43613e-17 0)
(0.0376016 -9.43661e-18 0)
(0.0376016 -3.13464e-17 0)
(0.0376016 -5.25732e-19 0)
(0.0376016 -9.79454e-18 0)
(0.0376016 5.94158e-17 0)
(0.0376016 -1.15417e-17 0)
(0.0376016 -4.85516e-17 0)
(0.0376016 6.69036e-18 0)
(0.0376016 2.38814e-17 0)
(0.0376016 2.92602e-17 0)
(0.0376016 -3.18385e-17 0)
(0.0376016 -3.37335e-17 0)
(0.0376016 2.28936e-17 0)
(0.0376016 2.8118e-18 0)
(0.0376016 6.04441e-17 0)
(0.0376016 -5.99787e-17 0)
(0.0376016 -4.38376e-17 0)
(0.0376016 6.46948e-17 0)
(0.0376016 -1.68719e-17 0)
(0.0376016 5.28632e-17 0)
(0.0376016 -4.27764e-17 0)
(0.0376016 -1.23733e-17 0)
(0.0376016 8.38191e-18 0)
(0.0376016 -4.76991e-17 0)
(0.0376016 8.31757e-17 0)
(0.0376016 -5.78902e-17 0)
(0.0376016 -7.08872e-19 0)
(0.0376016 1.61868e-17 0)
(0.0376016 -3.69246e-17 0)
(0.0376016 8.40082e-17 0)
(0.0376016 -5.6806e-17 0)
(0.0376016 8.86748e-18 0)
(0.0376016 -1.27756e-17 0)
(0.0376016 -3.71663e-17 0)
(0.0376016 1.08562e-16 0)
(0.0376016 -6.9043e-17 0)
(0.0376016 -1.82945e-18 0)
(0.0376016 1.94648e-17 0)
(0.0376016 -4.51027e-17 0)
(0.0376016 1.00715e-16 0)
(0.0376016 -5.97486e-17 0)
(0.0376016 -2.8264e-18 0)
(0.0376016 6.32234e-17 0)
(0.0376016 -9.59265e-17 0)
(0.0376016 4.2941e-17 0)
(0.0376016 -4.13207e-19 0)
(0.0376016 -5.36135e-17 0)
(0.0376016 9.41287e-17 0)
(0.0376016 -3.98803e-17 0)
(0.0376016 8.00916e-18 0)
(0.0376016 -4.47936e-17 0)
(0.0376016 -1.42371e-17 0)
(0.0376016 1.38981e-16 0)
(0.0376016 -9.1215e-17 0)
(0.0376016 3.03476e-18 0)
(0.0376016 -4.79093e-17 0)
(0.0376016 3.12688e-18 0)
(0.0376016 1.41847e-16 0)
(0.0376016 -8.77869e-17 0)
(0.0376016 -4.38972e-17 0)
(0.0376016 -1.12873e-17 0)
(0.0376016 4.75677e-17 0)
(0.0376016 8.70724e-17 0)
(0.0376016 -4.36185e-17 0)
(0.0376016 -7.77506e-17 0)
(0.0376016 -6.72668e-17 0)
(0.0376016 1.58957e-16 0)
(0.0376016 5.48969e-18 0)
(0.0376016 -1.69645e-16 0)
(0.0376016 1.54549e-16 0)
(0.0376016 2.68158e-17 0)
(0.0376016 -7.92692e-17 0)
(0.0376016 -3.31097e-17 0)
(0.0376016 -7.87234e-17 0)
(0.0376016 1.62009e-16 0)
(0.0376016 3.88314e-17 0)
(0.0376016 -8.87183e-17 0)
(0.0376016 -3.43317e-17 0)
(0.0376016 -8.46754e-17 0)
(0.0376016 1.65675e-16 0)
(0.0376016 -3.84954e-18 0)
(0.0376016 -6.11246e-17 0)
(0.0376016 1.80893e-17 0)
(0.0376016 -1.08984e-16 0)
(0.0376016 1.53088e-16 0)
(0.0376016 -1.12888e-17 0)
(0.0376016 -9.18472e-17 0)
(0.0376016 6.1727e-17 0)
(0.0376016 -7.57358e-17 0)
(0.0376016 9.36121e-17 0)
(0.0376016 -7.07602e-18 0)
(0.0376016 -3.59635e-17 0)
(0.0376016 2.51904e-17 0)
(0.0376016 -1.26272e-16 0)
(0.0376016 1.515e-16 0)
(0.0376016 -1.36406e-17 0)
(0.0376016 -4.51238e-17 0)
(0.0376016 7.45314e-17 0)
(0.0376016 -1.36265e-16 0)
(0.0376016 1.53313e-17 0)
(0.0376016 4.0978e-17 0)
(0.0376016 4.49347e-17 0)
(0.0376016 1.32737e-17 0)
(0.0376016 -1.25747e-16 0)
(0.0376016 8.74304e-17 0)
(0.0376016 -2.60584e-19 0)
(0.0376016 -2.35268e-17 0)
(0.0376016 4.51488e-17 0)
(0.0376016 -1.15092e-16 0)
(0.0376016 9.78294e-17 0)
(0.0376016 -1.24474e-17 0)
(0.0376016 -1.0824e-17 0)
(0.0376016 7.23529e-17 0)
(0.0376016 -1.26778e-16 0)
(0.0376016 5.70618e-17 0)
(0.0376016 -3.54696e-18 0)
(0.0376016 4.56902e-18 0)
(0.0376016 6.04468e-17 0)
(0.0376016 -1.11772e-16 0)
(0.0376016 7.34549e-17 0)
(0.0376016 3.32886e-17 0)
(0.0376016 -4.60651e-17 0)
(0.0376016 8.60698e-18 0)
(0.0376016 -7.67303e-17 0)
(0.0376016 6.91374e-17 0)
(0.0376016 3.65101e-17 0)
(0.0376016 -7.95741e-17 0)
(0.0376016 5.41035e-17 0)
(0.0376016 -3.58278e-17 0)
(0.0376016 2.95538e-17 0)
(0.0376016 3.87798e-17 0)
(0.0376016 -8.47331e-17 0)
(0.0376016 6.51764e-17 0)
(0.0376016 -4.1384e-17 0)
(0.0376016 1.11548e-17 0)
(0.0376016 3.7159e-17 0)
(0.0376016 -8.74175e-17 0)
(0.0376016 6.14887e-17 0)
(0.0376016 -3.66411e-17 0)
(0.0376016 -2.88223e-17 0)
(0.0376016 9.39162e-17 0)
(0.0376016 -4.79258e-17 0)
(0.0376016 -1.33032e-17 0)
(0.0376016 -6.38028e-17 0)
(0.0376016 3.39201e-17 0)
(0.0376016 1.26347e-16 0)
(0.0376016 -1.03324e-17 0)
(0.0376016 -1.18432e-16 0)
(0.0376016 -2.38531e-17 0)
(0.0376016 6.33412e-17 0)
(0.0376016 1.04612e-17 0)
(0.0376016 7.48105e-17 0)
(0.0376016 -1.30107e-16 0)
(0.0376016 -2.0932e-17 0)
(0.0376016 5.79761e-17 0)
(0.0376016 6.29333e-18 0)
(0.0376016 5.1037e-17 0)
(0.0376016 -9.67081e-17 0)
(0.0376016 2.47976e-17 0)
(0.0376016 2.54754e-17 0)
(0.0376016 -5.29428e-17 0)
(0.0376016 9.03817e-17 0)
(0.0376016 -6.05975e-17 0)
(0.0376016 -1.63042e-18 0)
(0.0376016 1.9938e-17 0)
(0.0376016 -7.39973e-17 0)
(0.0376016 9.47978e-17 0)
(0.0376016 -4.17607e-17 0)
(0.0376016 -6.04298e-17 0)
(0.0376016 4.76329e-17 0)
(0.0376016 -3.543e-17 0)
(0.0376016 3.64923e-17 0)
(0.0376016 -9.07236e-17 0)
(0.0376016 -2.94349e-16 0)
(0.110923 -2.11877e-15 0)
(0.110923 -5.19985e-16 0)
(0.110923 -9.08302e-17 0)
(0.110923 -3.29232e-17 0)
(0.110923 4.15086e-18 0)
(0.110923 3.90489e-18 0)
(0.110923 -1.0825e-18 0)
(0.110923 1.09401e-17 0)
(0.110923 7.35509e-18 0)
(0.110923 -9.94707e-18 0)
(0.110923 -8.04936e-18 0)
(0.110923 -2.04972e-17 0)
(0.110923 1.57642e-17 0)
(0.110923 7.54504e-18 0)
(0.110923 -1.27703e-17 0)
(0.110923 4.64553e-17 0)
(0.110923 2.40216e-17 0)
(0.110923 -2.10982e-18 0)
(0.110923 -2.20864e-17 0)
(0.110923 -1.06354e-17 0)
(0.110923 2.67928e-17 0)
(0.110923 2.32846e-17 0)
(0.110923 1.73018e-17 0)
(0.110923 -5.9139e-18 0)
(0.110923 -2.77506e-17 0)
(0.110923 -1.59007e-17 0)
(0.110923 4.29001e-17 0)
(0.110923 1.12817e-17 0)
(0.110923 -6.58754e-18 0)
(0.110923 3.84808e-18 0)
(0.110923 2.30607e-17 0)
(0.110923 3.96605e-17 0)
(0.110923 -7.51431e-18 0)
(0.110923 -1.93953e-17 0)
(0.110923 -1.49052e-17 0)
(0.110923 -1.67521e-17 0)
(0.110923 2.57673e-17 0)
(0.110923 -3.35849e-17 0)
(0.110923 -5.4779e-17 0)
(0.110923 5.62025e-17 0)
(0.110923 -9.8211e-18 0)
(0.110923 2.3186e-18 0)
(0.110923 -1.72657e-18 0)
(0.110923 -4.87413e-17 0)
(0.110923 1.40618e-17 0)
(0.110923 -5.75781e-18 0)
(0.110923 3.30127e-17 0)
(0.110923 2.74315e-17 0)
(0.110923 2.8773e-18 0)
(0.110923 -1.50343e-18 0)
(0.110923 -5.27995e-17 0)
(0.110923 1.88818e-17 0)
(0.110923 2.34189e-18 0)
(0.110923 5.61771e-18 0)
(0.110923 7.92846e-17 0)
(0.110923 -1.94912e-17 0)
(0.110923 -3.59341e-18 0)
(0.110923 -6.97405e-18 0)
(0.110923 -1.23409e-18 0)
(0.110923 3.66752e-17 0)
(0.110923 -7.81611e-17 0)
(0.110923 3.83454e-17 0)
(0.110923 -2.72539e-18 0)
(0.110923 -8.79159e-18 0)
(0.110923 4.6094e-17 0)
(0.110923 -5.77851e-17 0)
(0.110923 3.74867e-18 0)
(0.110923 4.50646e-18 0)
(0.110923 2.47409e-17 0)
(0.110923 6.39101e-17 0)
(0.110923 -2.821e-17 0)
(0.110923 -1.86353e-17 0)
(0.110923 -2.8691e-17 0)
(0.110923 -1.6844e-17 0)
(0.110923 9.81456e-17 0)
(0.110923 -5.58844e-17 0)
(0.110923 -8.07316e-17 0)
(0.110923 4.68143e-17 0)
(0.110923 -1.45442e-17 0)
(0.110923 6.53068e-17 0)
(0.110923 -7.39872e-18 0)
(0.110923 -9.46922e-17 0)
(0.110923 -8.20112e-18 0)
(0.110923 1.38085e-17 0)
(0.110923 3.831e-17 0)
(0.110923 -1.40856e-17 0)
(0.110923 -6.0389e-17 0)
(0.110923 -4.37648e-17 0)
(0.110923 3.22618e-17 0)
(0.110923 1.00432e-16 0)
(0.110923 -3.53554e-17 0)
(0.110923 -8.87403e-17 0)
(0.110923 -4.25514e-18 0)
(0.110923 7.91162e-17 0)
(0.110923 1.07213e-17 0)
(0.110923 -1.03418e-16 0)
(0.110923 -2.01364e-17 0)
(0.110923 -1.59552e-17 0)
(0.110923 6.69567e-17 0)
(0.110923 5.42723e-17 0)
(0.110923 -7.94182e-17 0)
(0.110923 3.9098e-17 0)
(0.110923 -6.39181e-17 0)
(0.110923 1.20281e-17 0)
(0.110923 5.38755e-17 0)
(0.110923 9.62295e-18 0)
(0.110923 -9.39521e-17 0)
(0.110923 -3.36944e-17 0)
(0.110923 6.0314e-17 0)
(0.110923 5.49673e-17 0)
(0.110923 6.94733e-17 0)
(0.110923 -1.79287e-16 0)
(0.110923 1.91468e-17 0)
(0.110923 1.61149e-16 0)
(0.110923 2.49599e-17 0)
(0.110923 -1.94194e-17 0)
(0.110923 -1.28471e-16 0)
(0.110923 -3.67096e-17 0)
(0.110923 1.32504e-16 0)
(0.110923 6.2804e-17 0)
(0.110923 -4.95379e-17 0)
(0.110923 -1.35765e-16 0)
(0.110923 -3.21893e-17 0)
(0.110923 1.7259e-16 0)
(0.110923 1.02608e-16 0)
(0.110923 -6.14774e-17 0)
(0.110923 -1.68648e-16 0)
(0.110923 -4.71255e-18 0)
(0.110923 1.78004e-16 0)
(0.110923 2.67929e-17 0)
(0.110923 -5.55215e-17 0)
(0.110923 -9.26291e-17 0)
(0.110923 2.63734e-17 0)
(0.110923 1.11836e-16 0)
(0.110923 7.50114e-18 0)
(0.110923 1.97557e-17 0)
(0.110923 -9.32066e-17 0)
(0.110923 -3.33405e-17 0)
(0.110923 1.36196e-16 0)
(0.110923 4.02541e-17 0)
(0.110923 -3.01326e-17 0)
(0.110923 -9.474e-17 0)
(0.110923 -6.48665e-18 0)
(0.110923 6.79374e-17 0)
(0.110923 2.15963e-17 0)
(0.110923 -1.30296e-17 0)
(0.110923 -9.90143e-17 0)
(0.110923 3.58005e-17 0)
(0.110923 1.78339e-17 0)
(0.110923 3.09599e-17 0)
(0.110923 9.71906e-17 0)
(0.110923 -1.72237e-16 0)
(0.110923 -1.05356e-16 0)
(0.110923 8.02381e-17 0)
(0.110923 7.28945e-17 0)
(0.110923 5.27547e-17 0)
(0.110923 -9.02894e-17 0)
(0.110923 -1.04917e-16 0)
(0.110923 2.4474e-17 0)
(0.110923 4.64487e-17 0)
(0.110923 1.23795e-16 0)
(0.110923 -1.14629e-16 0)
(0.110923 -7.95878e-18 0)
(0.110923 1.2796e-16 0)
(0.110923 -1.55188e-16 0)
(0.110923 4.82847e-17 0)
(0.110923 -2.29046e-17 0)
(0.110923 -1.3283e-16 0)
(0.110923 1.24779e-16 0)
(0.110923 4.86747e-17 0)
(0.110923 -2.61555e-17 0)
(0.110923 -1.54518e-16 0)
(0.110923 -8.30114e-18 0)
(0.110923 8.97156e-17 0)
(0.110923 -1.77321e-17 0)
(0.110923 -2.40035e-17 0)
(0.110923 -4.91299e-17 0)
(0.110923 1.73448e-16 0)
(0.110923 -6.90616e-17 0)
(0.110923 -4.27059e-17 0)
(0.110923 1.6799e-16 0)
(0.110923 -1.65078e-16 0)
(0.110923 -1.47746e-17 0)
(0.110923 9.28081e-17 0)
(0.110923 -1.20117e-17 0)
(0.110923 1.50892e-16 0)
(0.110923 -1.14385e-16 0)
(0.110923 -4.25807e-18 0)
(0.110923 1.38593e-16 0)
(0.110923 -1.16071e-16 0)
(0.110923 3.32739e-17 0)
(0.110923 -2.19239e-17 0)
(0.110923 -9.50599e-17 0)
(0.110923 1.39879e-16 0)
(0.110923 -1.75e-17 0)
(0.110923 3.48339e-17 0)
(0.110923 -6.94704e-17 0)
(0.110923 -6.04432e-17 0)
(0.110923 1.91801e-16 0)
(0.110923 -9.49668e-17 0)
(0.110923 -6.50518e-18 0)
(0.110923 -8.25742e-17 0)
(0.110923 2.82238e-17 0)
(0.110923 2.4083e-16 0)
(0.110923 -4.75589e-17 0)
(0.110923 -1.35309e-16 0)
(0.110923 -1.17041e-16 0)
(0.110923 1.1485e-16 0)
(0.110923 1.22479e-16 0)
(0.110923 -4.83908e-17 0)
(0.110923 -9.88311e-17 0)
(0.110923 -1.32406e-16 0)
(0.110923 3.04796e-16 0)
(0.110923 2.22028e-17 0)
(0.110923 -3.00504e-16 0)
(0.110923 2.24218e-16 0)
(0.110923 -1.45854e-17 0)
(0.110923 -9.77004e-17 0)
(0.110923 -5.03779e-17 0)
(0.110923 -1.82521e-16 0)
(0.110923 3.05547e-16 0)
(0.110923 7.82794e-17 0)
(0.110923 -1.22737e-16 0)
(0.110923 -7.06615e-17 0)
(0.110923 -2.08474e-16 0)
(0.110923 3.09996e-16 0)
(0.110923 2.08673e-17 0)
(0.110923 -1.01793e-16 0)
(0.110923 8.62627e-17 0)
(0.110923 -1.5546e-16 0)
(0.110923 8.58909e-17 0)
(0.110923 -8.76306e-17 0)
(0.110923 3.19768e-18 0)
(0.110923 8.71776e-17 0)
(0.110923 -2.53156e-16 0)
(0.110923 5.15784e-17 0)
(0.110923 1.48656e-17 0)
(0.110923 1.55684e-17 0)
(0.110923 9.52743e-17 0)
(0.110923 -2.19549e-16 0)
(0.110923 8.11202e-17 0)
(0.110923 -5.49977e-17 0)
(0.110923 9.15608e-18 0)
(0.110923 1.37644e-16 0)
(0.110923 -3.192e-16 0)
(0.110923 2.69076e-17 0)
(0.110923 6.98301e-17 0)
(0.110923 9.01911e-17 0)
(0.110923 3.70074e-17 0)
(0.110923 -2.34754e-16 0)
(0.110923 2.44458e-16 0)
(0.110923 2.15188e-17 0)
(0.110923 -1.1647e-16 0)
(0.110923 -1.71687e-17 0)
(0.110923 -1.86223e-16 0)
(0.110923 3.01342e-16 0)
(0.110923 3.7035e-18 0)
(0.110923 -3.52201e-17 0)
(0.110923 1.30098e-16 0)
(0.110923 -2.58546e-16 0)
(0.110923 1.00947e-16 0)
(0.110923 6.59744e-17 0)
(0.110923 -9.46942e-18 0)
(0.110923 3.45656e-17 0)
(0.110923 -1.48889e-16 0)
(0.110923 1.96601e-16 0)
(0.110923 5.91535e-17 0)
(0.110923 -2.0155e-17 0)
(0.110923 -3.87196e-17 0)
(0.110923 -2.0213e-16 0)
(0.110923 1.30729e-16 0)
(0.110923 1.81672e-18 0)
(0.110923 8.01054e-17 0)
(0.110923 -1.40551e-17 0)
(0.110923 -1.97602e-16 0)
(0.110923 1.49227e-16 0)
(0.110923 2.13031e-17 0)
(0.110923 -2.04374e-17 0)
(0.110923 1.27705e-16 0)
(0.110923 -1.60892e-16 0)
(0.110923 2.79486e-17 0)
(0.110923 4.43871e-17 0)
(0.110923 -6.03934e-18 0)
(0.110923 -7.35539e-18 0)
(0.110923 -2.24306e-16 0)
(0.110923 4.37986e-17 0)
(0.110923 1.25186e-16 0)
(0.110923 4.02857e-17 0)
(0.110923 -1.76288e-16 0)
(0.110923 -1.55071e-16 0)
(0.110923 2.11549e-16 0)
(0.110923 -1.05978e-17 0)
(0.110923 -4.94812e-17 0)
(0.110923 -4.03207e-17 0)
(0.110923 -5.38834e-17 0)
(0.110923 2.32708e-16 0)
(0.110923 -2.06891e-17 0)
(0.110923 -6.23416e-17 0)
(0.110923 -1.14273e-16 0)
(0.110923 -8.7483e-17 0)
(0.110923 2.28278e-16 0)
(0.110923 1.60604e-17 0)
(0.110923 6.3983e-17 0)
(0.110923 -1.31673e-16 0)
(0.110923 -2.51053e-16 0)
(0.110923 8.40214e-17 0)
(0.110923 6.91232e-17 0)
(0.110923 1.33782e-16 0)
(0.110923 -1.29888e-16 0)
(0.110923 6.22939e-18 0)
(0.110923 8.47771e-17 0)
(0.110923 -1.30622e-16 0)
(0.110923 1.42126e-16 0)
(0.110923 -1.98773e-17 0)
(0.110923 -9.1397e-17 0)
(0.110923 1.19881e-16 0)
(0.110923 -1.05022e-16 0)
(0.110923 7.52282e-17 0)
(0.110923 -3.79752e-17 0)
(0.110923 -5.90495e-16 0)
(0.18236 -1.59628e-15 0)
(0.18236 -5.10419e-16 0)
(0.18236 -1.65035e-16 0)
(0.18236 -6.23958e-17 0)
(0.18236 -1.49405e-17 0)
(0.18236 2.89161e-18 0)
(0.18236 2.09808e-19 0)
(0.18236 1.25673e-17 0)
(0.18236 1.45268e-17 0)
(0.18236 -1.40211e-17 0)
(0.18236 -3.63849e-17 0)
(0.18236 -3.03682e-17 0)
(0.18236 2.73323e-17 0)
(0.18236 1.82008e-17 0)
(0.18236 5.24069e-18 0)
(0.18236 9.35286e-17 0)
(0.18236 6.39549e-17 0)
(0.18236 -8.07267e-18 0)
(0.18236 -1.31258e-17 0)
(0.18236 -8.46337e-18 0)
(0.18236 5.8268e-17 0)
(0.18236 4.24612e-17 0)
(0.18236 2.46696e-17 0)
(0.18236 -2.72309e-18 0)
(0.18236 -3.88065e-17 0)
(0.18236 -2.59972e-17 0)
(0.18236 5.04626e-17 0)
(0.18236 4.65494e-17 0)
(0.18236 1.37059e-17 0)
(0.18236 -4.19806e-18 0)
(0.18236 4.68671e-17 0)
(0.18236 9.19873e-17 0)
(0.18236 -2.61042e-18 0)
(0.18236 -6.19875e-17 0)
(0.18236 -5.05723e-17 0)
(0.18236 -4.53241e-17 0)
(0.18236 2.63617e-17 0)
(0.18236 -3.94443e-17 0)
(0.18236 -9.10715e-17 0)
(0.18236 5.8252e-17 0)
(0.18236 1.13695e-17 0)
(0.18236 -4.89251e-18 0)
(0.18236 6.22302e-19 0)
(0.18236 -7.16838e-17 0)
(0.18236 -3.23086e-17 0)
(0.18236 1.77123e-17 0)
(0.18236 5.78807e-17 0)
(0.18236 6.79243e-17 0)
(0.18236 1.40895e-17 0)
(0.18236 -1.63834e-17 0)
(0.18236 -4.56421e-17 0)
(0.18236 2.84097e-18 0)
(0.18236 1.45602e-17 0)
(0.18236 3.1159e-17 0)
(0.18236 1.17764e-16 0)
(0.18236 1.57507e-17 0)
(0.18236 5.42086e-18 0)
(0.18236 -1.75004e-17 0)
(0.18236 3.2102e-18 0)
(0.18236 4.31602e-17 0)
(0.18236 -1.39586e-16 0)
(0.18236 7.92682e-17 0)
(0.18236 9.86869e-18 0)
(0.18236 -3.62802e-17 0)
(0.18236 8.57001e-17 0)
(0.18236 -9.39547e-17 0)
(0.18236 -7.17674e-18 0)
(0.18236 1.26873e-17 0)
(0.18236 5.08255e-17 0)
(0.18236 9.72575e-17 0)
(0.18236 -4.55808e-17 0)
(0.18236 -4.45772e-17 0)
(0.18236 -5.18061e-17 0)
(0.18236 2.2716e-17 0)
(0.18236 1.13577e-16 0)
(0.18236 -8.28098e-17 0)
(0.18236 -1.16654e-16 0)
(0.18236 9.81068e-18 0)
(0.18236 -1.72414e-17 0)
(0.18236 7.54872e-17 0)
(0.18236 -3.0151e-17 0)
(0.18236 -1.24815e-16 0)
(0.18236 -1.55394e-17 0)
(0.18236 -2.39138e-17 0)
(0.18236 3.86572e-17 0)
(0.18236 -2.22211e-17 0)
(0.18236 -2.5394e-17 0)
(0.18236 -7.68438e-17 0)
(0.18236 -3.96112e-17 0)
(0.18236 1.43385e-16 0)
(0.18236 -3.52224e-17 0)
(0.18236 -1.12955e-16 0)
(0.18236 -5.84974e-19 0)
(0.18236 5.23344e-17 0)
(0.18236 9.79384e-18 0)
(0.18236 -1.22026e-16 0)
(0.18236 -5.29294e-17 0)
(0.18236 -3.03769e-17 0)
(0.18236 3.52701e-17 0)
(0.18236 5.70641e-17 0)
(0.18236 -1.86212e-17 0)
(0.18236 2.60499e-17 0)
(0.18236 -7.63533e-17 0)
(0.18236 -3.21415e-17 0)
(0.18236 8.08236e-17 0)
(0.18236 7.33485e-17 0)
(0.18236 -1.50591e-16 0)
(0.18236 -1.28975e-16 0)
(0.18236 1.0311e-16 0)
(0.18236 1.7862e-16 0)
(0.18236 7.9228e-17 0)
(0.18236 -2.72339e-16 0)
(0.18236 2.55323e-17 0)
(0.18236 2.41868e-16 0)
(0.18236 1.21442e-16 0)
(0.18236 -7.05409e-18 0)
(0.18236 -2.73589e-16 0)
(0.18236 -1.29739e-16 0)
(0.18236 2.96949e-16 0)
(0.18236 1.9092e-16 0)
(0.18236 -1.63154e-16 0)
(0.18236 -2.75415e-16 0)
(0.18236 -4.50121e-17 0)
(0.18236 3.33167e-16 0)
(0.18236 2.75417e-16 0)
(0.18236 -1.07156e-16 0)
(0.18236 -4.09231e-16 0)
(0.18236 2.40998e-17 0)
(0.18236 3.34607e-16 0)
(0.18236 6.75216e-17 0)
(0.18236 -6.78622e-17 0)
(0.18236 -1.94023e-16 0)
(0.18236 1.28662e-17 0)
(0.18236 2.42755e-16 0)
(0.18236 6.20686e-17 0)
(0.18236 -3.87686e-17 0)
(0.18236 -1.60287e-16 0)
(0.18236 -2.75057e-17 0)
(0.18236 2.67409e-16 0)
(0.18236 7.76641e-17 0)
(0.18236 -1.27354e-16 0)
(0.18236 -1.50495e-16 0)
(0.18236 6.03918e-17 0)
(0.18236 9.52391e-17 0)
(0.18236 -2.7897e-17 0)
(0.18236 -4.13579e-17 0)
(0.18236 -1.03968e-16 0)
(0.18236 8.60813e-17 0)
(0.18236 4.87481e-17 0)
(0.18236 -6.46945e-17 0)
(0.18236 1.30382e-16 0)
(0.18236 -1.31342e-16 0)
(0.18236 -1.66047e-16 0)
(0.18236 4.14786e-17 0)
(0.18236 8.9838e-17 0)
(0.18236 1.07166e-16 0)
(0.18236 -1.21204e-16 0)
(0.18236 -2.19363e-16 0)
(0.18236 -6.65048e-18 0)
(0.18236 1.2621e-16 0)
(0.18236 1.86818e-16 0)
(0.18236 -1.84721e-16 0)
(0.18236 -7.48645e-17 0)
(0.18236 1.81284e-16 0)
(0.18236 -8.66257e-17 0)
(0.18236 -2.29308e-17 0)
(0.18236 -6.02094e-17 0)
(0.18236 -7.79076e-17 0)
(0.18236 5.98924e-17 0)
(0.18236 5.82612e-18 0)
(0.18236 -8.08605e-17 0)
(0.18236 -2.17841e-16 0)
(0.18236 -1.33612e-17 0)
(0.18236 1.90864e-16 0)
(0.18236 1.06443e-16 0)
(0.18236 -8.45363e-17 0)
(0.18236 -1.35251e-16 0)
(0.18236 8.57601e-17 0)
(0.18236 -2.32747e-17 0)
(0.18236 1.6582e-16 0)
(0.18236 1.45998e-16 0)
(0.18236 -3.07921e-16 0)
(0.18236 -3.34209e-17 0)
(0.18236 2.3789e-16 0)
(0.18236 1.1248e-16 0)
(0.18236 1.55104e-16 0)
(0.18236 -1.63307e-16 0)
(0.18236 -4.73996e-17 0)
(0.18236 2.15473e-16 0)
(0.18236 -3.46845e-17 0)
(0.18236 -3.5824e-17 0)
(0.18236 -5.97166e-17 0)
(0.18236 -9.86798e-17 0)
(0.18236 8.32797e-17 0)
(0.18236 7.4615e-17 0)
(0.18236 6.21809e-17 0)
(0.18236 -6.19176e-17 0)
(0.18236 -9.68627e-17 0)
(0.18236 9.90153e-17 0)
(0.18236 1.83939e-17 0)
(0.18236 3.70469e-19 0)
(0.18236 -5.98704e-17 0)
(0.18236 5.54257e-17 0)
(0.18236 1.78133e-16 0)
(0.18236 1.07153e-17 0)
(0.18236 -7.59129e-17 0)
(0.18236 -1.30978e-16 0)
(0.18236 2.74918e-17 0)
(0.18236 5.29829e-17 0)
(0.18236 -7.57598e-18 0)
(0.18236 -3.45964e-17 0)
(0.18236 -1.80358e-16 0)
(0.18236 3.93847e-16 0)
(0.18236 5.30037e-17 0)
(0.18236 -3.64219e-16 0)
(0.18236 2.16855e-16 0)
(0.18236 -1.65959e-16 0)
(0.18236 -3.52522e-17 0)
(0.18236 -5.71781e-17 0)
(0.18236 -3.30755e-16 0)
(0.18236 4.58881e-16 0)
(0.18236 8.92131e-17 0)
(0.18236 -9.70696e-17 0)
(0.18236 -5.99451e-17 0)
(0.18236 -3.81257e-16 0)
(0.18236 4.34281e-16 0)
(0.18236 5.79958e-17 0)
(0.18236 -1.22199e-16 0)
(0.18236 2.05371e-17 0)
(0.18236 -3.12311e-16 0)
(0.18236 2.81006e-16 0)
(0.18236 -5.8323e-17 0)
(0.18236 -1.6085e-16 0)
(0.18236 6.88824e-17 0)
(0.18236 -3.84472e-16 0)
(0.18236 2.55147e-17 0)
(0.18236 -1.03279e-16 0)
(0.18236 1.69961e-16 0)
(0.18236 2.51156e-16 0)
(0.18236 -4.5949e-16 0)
(0.18236 6.35642e-17 0)
(0.18236 -1.50235e-16 0)
(0.18236 7.81735e-17 0)
(0.18236 2.21412e-16 0)
(0.18236 -6.23193e-16 0)
(0.18236 5.85369e-17 0)
(0.18236 1.00485e-16 0)
(0.18236 1.4994e-16 0)
(0.18236 4.40126e-17 0)
(0.18236 -3.70297e-16 0)
(0.18236 5.59783e-16 0)
(0.18236 6.7345e-17 0)
(0.18236 -3.25421e-16 0)
(0.18236 -2.166e-16 0)
(0.18236 -2.51338e-16 0)
(0.18236 7.13272e-16 0)
(0.18236 2.84541e-17 0)
(0.18236 -1.30987e-16 0)
(0.18236 1.70544e-16 0)
(0.18236 -3.68714e-16 0)
(0.18236 2.2214e-16 0)
(0.18236 5.5282e-17 0)
(0.18236 3.85883e-17 0)
(0.18236 4.05804e-17 0)
(0.18236 -2.66192e-16 0)
(0.18236 4.22251e-16 0)
(0.18236 4.48041e-17 0)
(0.18236 -6.69606e-17 0)
(0.18236 2.61562e-17 0)
(0.18236 -3.85785e-16 0)
(0.18236 1.92503e-16 0)
(0.18236 2.25801e-17 0)
(0.18236 6.69696e-17 0)
(0.18236 1.01108e-16 0)
(0.18236 -3.49252e-16 0)
(0.18236 2.28104e-16 0)
(0.18236 4.73887e-17 0)
(0.18236 5.36755e-17 0)
(0.18236 1.65347e-16 0)
(0.18236 -3.88836e-16 0)
(0.18236 1.06165e-16 0)
(0.18236 -1.06141e-19 0)
(0.18236 -6.69702e-18 0)
(0.18236 7.55491e-17 0)
(0.18236 -4.29549e-16 0)
(0.18236 1.15489e-16 0)
(0.18236 1.82589e-16 0)
(0.18236 -1.43548e-16 0)
(0.18236 -1.79631e-16 0)
(0.18236 -2.66547e-16 0)
(0.18236 2.51984e-16 0)
(0.18236 1.35819e-16 0)
(0.18236 -1.69324e-16 0)
(0.18236 4.24199e-17 0)
(0.18236 -1.13738e-16 0)
(0.18236 1.18157e-16 0)
(0.18236 2.38565e-16 0)
(0.18236 -1.52845e-16 0)
(0.18236 -1.34654e-16 0)
(0.18236 -2.28825e-16 0)
(0.18236 1.78568e-16 0)
(0.18236 3.63151e-16 0)
(0.18236 1.89397e-17 0)
(0.18236 -4.20883e-16 0)
(0.18236 -2.44502e-16 0)
(0.18236 2.087e-16 0)
(0.18236 7.22485e-17 0)
(0.18236 1.17986e-16 0)
(0.18236 -2.39105e-16 0)
(0.18236 2.57473e-17 0)
(0.18236 1.84724e-16 0)
(0.18236 -1.6496e-16 0)
(0.18236 1.64901e-16 0)
(0.18236 2.83145e-17 0)
(0.18236 -9.75011e-17 0)
(0.18236 3.78797e-17 0)
(0.18236 -1.24371e-16 0)
(0.18236 2.32898e-16 0)
(0.18236 -1.10765e-16 0)
(0.18236 -6.38144e-16 0)
(0.25191 -9.2069e-16 0)
(0.25191 -4.32455e-16 0)
(0.25191 -1.94888e-16 0)
(0.25191 -6.86859e-17 0)
(0.25191 -1.80209e-17 0)
(0.25191 1.15801e-17 0)
(0.25191 1.21392e-17 0)
(0.25191 2.06022e-17 0)
(0.25191 2.52569e-17 0)
(0.25191 -1.74934e-17 0)
(0.25191 -5.39402e-17 0)
(0.25191 -4.48316e-17 0)
(0.25191 3.8373e-17 0)
(0.25191 3.83777e-17 0)
(0.25191 2.90138e-17 0)
(0.25191 1.46954e-16 0)
(0.25191 1.09459e-16 0)
(0.25191 4.92609e-18 0)
(0.25191 7.2392e-18 0)
(0.25191 1.32971e-17 0)
(0.25191 7.98481e-17 0)
(0.25191 8.73633e-17 0)
(0.25191 3.70148e-17 0)
(0.25191 -1.79882e-17 0)
(0.25191 -6.85466e-17 0)
(0.25191 -2.78606e-17 0)
(0.25191 1.04408e-16 0)
(0.25191 7.62473e-17 0)
(0.25191 3.75706e-17 0)
(0.25191 9.6385e-18 0)
(0.25191 6.10433e-17 0)
(0.25191 1.18397e-16 0)
(0.25191 6.65056e-18 0)
(0.25191 -8.61903e-17 0)
(0.25191 -1.08083e-16 0)
(0.25191 -8.65271e-17 0)
(0.25191 2.42408e-17 0)
(0.25191 -2.40981e-17 0)
(0.25191 -1.06713e-16 0)
(0.25191 2.52387e-17 0)
(0.25191 2.23543e-17 0)
(0.25191 1.85695e-17 0)
(0.25191 -1.82286e-17 0)
(0.25191 -9.20395e-17 0)
(0.25191 -4.80824e-17 0)
(0.25191 4.56953e-18 0)
(0.25191 6.58971e-17 0)
(0.25191 1.08074e-16 0)
(0.25191 4.19728e-17 0)
(0.25191 -2.0304e-17 0)
(0.25191 -5.62479e-17 0)
(0.25191 4.72675e-17 0)
(0.25191 5.08735e-17 0)
(0.25191 3.6377e-17 0)
(0.25191 1.60867e-16 0)
(0.25191 3.87699e-17 0)
(0.25191 1.0604e-17 0)
(0.25191 -1.68143e-17 0)
(0.25191 -6.57454e-18 0)
(0.25191 4.75615e-17 0)
(0.25191 -1.78732e-16 0)
(0.25191 5.70385e-17 0)
(0.25191 3.90758e-17 0)
(0.25191 -2.48062e-17 0)
(0.25191 6.36042e-17 0)
(0.25191 -1.02596e-16 0)
(0.25191 4.56318e-17 0)
(0.25191 -4.42666e-18 0)
(0.25191 4.0624e-17 0)
(0.25191 1.42038e-16 0)
(0.25191 -7.08494e-17 0)
(0.25191 -8.31681e-17 0)
(0.25191 -6.34038e-17 0)
(0.25191 2.76899e-17 0)
(0.25191 1.45827e-16 0)
(0.25191 -1.23543e-16 0)
(0.25191 -1.32945e-16 0)
(0.25191 -2.03027e-17 0)
(0.25191 -4.59596e-17 0)
(0.25191 8.73201e-17 0)
(0.25191 -5.83412e-17 0)
(0.25191 -2.00422e-16 0)
(0.25191 -4.83628e-17 0)
(0.25191 -1.08602e-17 0)
(0.25191 3.95693e-17 0)
(0.25191 -6.82295e-17 0)
(0.25191 -4.99668e-17 0)
(0.25191 -5.99207e-17 0)
(0.25191 -6.84986e-17 0)
(0.25191 1.33034e-16 0)
(0.25191 -1.31927e-17 0)
(0.25191 -1.19277e-16 0)
(0.25191 -4.01221e-17 0)
(0.25191 5.33817e-17 0)
(0.25191 -9.52568e-18 0)
(0.25191 -2.11736e-16 0)
(0.25191 -9.74102e-17 0)
(0.25191 -2.64339e-17 0)
(0.25191 3.11493e-17 0)
(0.25191 7.11289e-17 0)
(0.25191 -1.10147e-17 0)
(0.25191 2.35126e-17 0)
(0.25191 -1.31475e-16 0)
(0.25191 -5.6192e-17 0)
(0.25191 1.63456e-16 0)
(0.25191 1.06302e-16 0)
(0.25191 -2.17419e-16 0)
(0.25191 -2.17105e-16 0)
(0.25191 1.81801e-16 0)
(0.25191 2.90962e-16 0)
(0.25191 9.20919e-17 0)
(0.25191 -3.4488e-16 0)
(0.25191 2.23586e-17 0)
(0.25191 3.15153e-16 0)
(0.25191 2.12605e-16 0)
(0.25191 4.0744e-17 0)
(0.25191 -4.17061e-16 0)
(0.25191 -1.82573e-16 0)
(0.25191 4.10393e-16 0)
(0.25191 3.16985e-16 0)
(0.25191 -2.40501e-16 0)
(0.25191 -4.40422e-16 0)
(0.25191 -1.35092e-17 0)
(0.25191 4.59047e-16 0)
(0.25191 3.40438e-16 0)
(0.25191 -1.09892e-16 0)
(0.25191 -4.41381e-16 0)
(0.25191 -4.25848e-18 0)
(0.25191 4.5797e-16 0)
(0.25191 1.11821e-16 0)
(0.25191 -1.39864e-16 0)
(0.25191 -1.8163e-16 0)
(0.25191 -5.07083e-17 0)
(0.25191 3.02948e-16 0)
(0.25191 1.66633e-16 0)
(0.25191 -4.13305e-17 0)
(0.25191 -2.53714e-16 0)
(0.25191 -6.23214e-17 0)
(0.25191 4.16245e-16 0)
(0.25191 1.35987e-16 0)
(0.25191 -2.0079e-16 0)
(0.25191 -2.60837e-16 0)
(0.25191 1.15412e-16 0)
(0.25191 1.49937e-16 0)
(0.25191 -1.61857e-17 0)
(0.25191 6.44456e-19 0)
(0.25191 -2.73552e-16 0)
(0.25191 7.35002e-17 0)
(0.25191 1.16071e-16 0)
(0.25191 -2.88789e-17 0)
(0.25191 9.87367e-17 0)
(0.25191 -2.38746e-16 0)
(0.25191 -1.20979e-16 0)
(0.25191 8.89088e-17 0)
(0.25191 1.07997e-16 0)
(0.25191 7.77897e-17 0)
(0.25191 -2.2082e-16 0)
(0.25191 -2.60531e-16 0)
(0.25191 2.78322e-17 0)
(0.25191 1.72254e-16 0)
(0.25191 1.84991e-16 0)
(0.25191 -2.77785e-16 0)
(0.25191 -4.34549e-17 0)
(0.25191 2.59817e-16 0)
(0.25191 -1.73511e-16 0)
(0.25191 -5.4097e-17 0)
(0.25191 -1.06412e-16 0)
(0.25191 -1.14114e-16 0)
(0.25191 7.76578e-17 0)
(0.25191 -1.67723e-18 0)
(0.25191 -1.46534e-16 0)
(0.25191 -3.42346e-16 0)
(0.25191 -2.86751e-17 0)
(0.25191 3.64563e-16 0)
(0.25191 1.18427e-16 0)
(0.25191 -9.45989e-17 0)
(0.25191 -1.50799e-16 0)
(0.25191 2.70537e-17 0)
(0.25191 3.22452e-18 0)
(0.25191 2.31768e-16 0)
(0.25191 1.91161e-16 0)
(0.25191 -3.48133e-16 0)
(0.25191 1.58886e-17 0)
(0.25191 3.28608e-16 0)
(0.25191 1.5817e-16 0)
(0.25191 1.33738e-16 0)
(0.25191 -1.40728e-16 0)
(0.25191 1.96517e-17 0)
(0.25191 2.43224e-16 0)
(0.25191 -4.25599e-17 0)
(0.25191 -8.62951e-17 0)
(0.25191 -9.33428e-17 0)