/*--------------------------------*- C++ -*----------------------------------*\
| =========                 |                                                 |
| \\      /  F ield         | OpenFOAM: The Open Source CFD Toolbox           |
|  \\    /   O peration     | Version:  2112                                  |
|   \\  /    A nd           | Website:  www.openfoam.com                      |
|    \\/     M anipulation  |                                                 |
\*---------------------------------------------------------------------------*/
FoamFile
{
    version     2.0;
    format      ascii;
    arch        "LSB;label=32;scalar=64";
    class       volVectorField;
    location    "3";
    object      U;
}
// * * * * * * * * * * * * * * * * * * * * * * * * * * * * * * * * * * * * * //

dimensions      [0 1 -1 0 0 0 0];

internalField   nonuniform List<vector> 
50000
(
(0.0327435 -6.61469e-16 0)
(0.0327435 -1.43587e-16 0)
(0.0327435 4.2291e-17 0)
(0.0327435 2.54094e-17 0)
(0.0327435 1.88198e-17 0)
(0.0327435 9.32336e-18 0)
(0.0327435 9.35177e-18 0)
(0.0327435 1.94907e-18 0)
(0.0327435 -5.38916e-19 0)
(0.0327435 7.35588e-18 0)
(0.0327435 1.55973e-18 0)
(0.0327435 -3.36342e-18 0)
(0.0327435 -2.61813e-18 0)
(0.0327435 4.99701e-18 0)
(0.0327435 6.50643e-18 0)
(0.0327435 8.53687e-19 0)
(0.0327435 -5.17199e-18 0)
(0.0327435 2.93717e-19 0)
(0.0327435 -8.48839e-19 0)
(0.0327435 2.81247e-18 0)
(0.0327435 6.74822e-18 0)
(0.0327435 -1.18752e-18 0)
(0.0327435 2.7785e-18 0)
(0.0327435 6.75629e-18 0)
(0.0327435 -1.66326e-18 0)
(0.0327435 -5.49144e-18 0)
(0.0327435 1.65157e-18 0)
(0.0327435 7.62734e-18 0)
(0.0327435 -9.89659e-18 0)
(0.0327435 -9.60039e-20 0)
(0.0327435 8.29589e-18 0)
(0.0327435 -1.50146e-17 0)
(0.0327435 -2.44443e-18 0)
(0.0327435 1.03983e-17 0)
(0.0327435 -4.18922e-18 0)
(0.0327435 6.3289e-18 0)
(0.0327435 -4.11378e-18 0)
(0.0327435 -2.09693e-18 0)
(0.0327435 1.45101e-18 0)
(0.0327435 -1.21362e-17 0)
(0.0327435 5.86479e-18 0)
(0.0327435 -8.23259e-18 0)
(0.0327435 9.218e-18 0)
(0.0327435 8.19972e-18 0)
(0.0327435 -1.63272e-17 0)
(0.0327435 4.28473e-18 0)
(0.0327435 1.60128e-17 0)
(0.0327435 -1.71881e-17 0)
(0.0327435 -8.73279e-18 0)
(0.0327435 1.17988e-17 0)
(0.0327435 3.38705e-18 0)
(0.0327435 1.43223e-17 0)
(0.0327435 -1.42544e-17 0)
(0.0327435 -1.10444e-17 0)
(0.0327435 1.33309e-17 0)
(0.0327435 -9.71764e-18 0)
(0.0327435 1.92872e-17 0)
(0.0327435 -7.68771e-18 0)
(0.0327435 -1.90948e-17 0)
(0.0327435 1.19828e-17 0)
(0.0327435 9.19919e-18 0)
(0.0327435 -1.32966e-17 0)
(0.0327435 3.42473e-19 0)
(0.0327435 1.08634e-17 0)
(0.0327435 -2.40484e-17 0)
(0.0327435 5.99595e-18 0)
(0.0327435 8.40345e-18 0)
(0.0327435 8.30779e-18 0)
(0.0327435 5.40987e-18 0)
(0.0327435 -1.39643e-17 0)
(0.0327435 -1.32956e-17 0)
(0.0327435 3.30519e-18 0)
(0.0327435 2.81172e-17 0)
(0.0327435 -2.02164e-17 0)
(0.0327435 -1.94768e-17 0)
(0.0327435 3.49887e-17 0)
(0.0327435 6.95324e-18 0)
(0.0327435 -2.71966e-17 0)
(0.0327435 -1.93688e-19 0)
(0.0327435 2.11083e-17 0)
(0.0327435 3.99732e-18 0)
(0.0327435 -6.61141e-18 0)
(0.0327435 2.14727e-18 0)
(0.0327435 1.17798e-17 0)
(0.0327435 -2.6231e-17 0)
(0.0327435 1.33742e-17 0)
(0.0327435 1.50575e-17 0)
(0.0327435 -2.1666e-17 0)
(0.0327435 -2.13131e-18 0)
(0.0327435 -1.29978e-17 0)
(0.0327435 6.4875e-18 0)
(0.0327435 2.11052e-17 0)
(0.0327435 -8.0618e-18 0)
(0.0327435 2.03266e-18 0)
(0.0327435 1.42168e-17 0)
(0.0327435 -4.15026e-17 0)
(0.0327435 1.49239e-17 0)
(0.0327435 3.66117e-17 0)
(0.0327435 -2.10661e-17 0)
(0.0327435 -1.20691e-17 0)
(0.0327435 1.32425e-17 0)
(0.0327435 3.11544e-17 0)
(0.0327435 -2.805e-17 0)
(0.0327435 -2.87352e-17 0)
(0.0327435 4.68769e-17 0)
(0.0327435 -1.90363e-17 0)
(0.0327435 -2.57156e-17 0)
(0.0327435 1.39869e-17 0)
(0.0327435 8.07861e-18 0)
(0.0327435 3.55686e-17 0)
(0.0327435 -2.4306e-17 0)
(0.0327435 -2.78108e-17 0)
(0.0327435 1.37567e-17 0)
(0.0327435 2.70965e-18 0)
(0.0327435 2.34613e-17 0)
(0.0327435 -1.02002e-17 0)
(0.0327435 -4.87739e-17 0)
(0.0327435 1.17301e-17 0)
(0.0327435 2.3962e-17 0)
(0.0327435 -1.00844e-17 0)
(0.0327435 -6.94318e-18 0)
(0.0327435 3.10325e-20 0)
(0.0327435 3.04531e-17 0)
(0.0327435 -3.71255e-18 0)
(0.0327435 -5.12435e-17 0)
(0.0327435 3.1292e-17 0)
(0.0327435 2.4316e-17 0)
(0.0327435 -2.85765e-17 0)
(0.0327435 3.3849e-18 0)
(0.0327435 -1.12083e-19 0)
(0.0327435 -1.90111e-17 0)
(0.0327435 -7.32269e-18 0)
(0.0327435 3.37607e-17 0)
(0.0327435 -1.21923e-18 0)
(0.0327435 -1.04095e-17 0)
(0.0327435 5.33052e-18 0)
(0.0327435 1.98851e-17 0)
(0.0327435 -2.81539e-17 0)
(0.0327435 1.28436e-17 0)
(0.0327435 2.74069e-17 0)
(0.0327435 -4.00541e-17 0)
(0.0327435 -3.22785e-17 0)
(0.0327435 1.33137e-17 0)
(0.0327435 4.05667e-17 0)
(0.0327435 -1.64277e-17 0)
(0.0327435 -7.62763e-19 0)
(0.0327435 4.97224e-17 0)
(0.0327435 -2.91239e-17 0)
(0.0327435 -3.83572e-17 0)
(0.0327435 3.85675e-17 0)
(0.0327435 -8.25601e-18 0)
(0.0327435 5.72867e-18 0)
(0.0327435 4.1607e-17 0)
(0.0327435 -4.47212e-17 0)
(0.0327435 -2.4142e-18 0)
(0.0327435 2.98708e-17 0)
(0.0327435 -5.86086e-17 0)
(0.0327435 -2.16916e-17 0)
(0.0327435 4.14012e-17 0)
(0.0327435 6.23593e-17 0)
(0.0327435 -3.57495e-17 0)
(0.0327435 -9.13718e-18 0)
(0.0327435 -5.12884e-18 0)
(0.0327435 -3.51746e-18 0)
(0.0327435 3.77382e-18 0)
(0.0327435 -5.81314e-18 0)
(0.0327435 7.83015e-18 0)
(0.0327435 -6.31581e-17 0)
(0.0327435 8.14511e-17 0)
(0.0327435 1.58425e-17 0)
(0.0327435 -9.16457e-17 0)
(0.0327435 6.88447e-17 0)
(0.0327435 3.07673e-17 0)
(0.0327435 -6.9975e-17 0)
(0.0327435 1.87566e-17 0)
(0.0327435 3.29318e-18 0)
(0.0327435 1.11992e-17 0)
(0.0327435 -5.56632e-18 0)
(0.0327435 -1.31306e-17 0)
(0.0327435 4.41767e-17 0)
(0.0327435 -4.63427e-17 0)
(0.0327435 -9.50797e-18 0)
(0.0327435 2.76944e-17 0)
(0.0327435 -3.02764e-17 0)
(0.0327435 5.44557e-17 0)
(0.0327435 3.53736e-18 0)
(0.0327435 -5.62612e-17 0)
(0.0327435 4.60471e-17 0)
(0.0327435 6.91941e-18 0)
(0.0327435 -1.98381e-17 0)
(0.0327435 -6.06336e-18 0)
(0.0327435 -1.66298e-18 0)
(0.0327435 -4.52441e-17 0)
(0.0327435 4.39463e-17 0)
(0.0327435 3.72412e-17 0)
(0.0327435 -3.29938e-17 0)
(0.0327435 1.33659e-17 0)
(0.0327435 4.60764e-17 0)
(0.0327435 -6.32877e-17 0)
(0.0327435 -4.40528e-17 0)
(0.0327435 5.47509e-17 0)
(0.0327435 -2.43478e-17 0)
(0.0327435 1.43852e-17 0)
(0.0327435 -2.02278e-18 0)
(0.0327435 5.08183e-17 0)
(0.0327435 -2.25786e-17 0)
(0.0327435 -6.82848e-17 0)
(0.0327435 2.48953e-17 0)
(0.0327435 9.68296e-18 0)
(0.0327435 4.04024e-18 0)
(0.0327435 4.89474e-17 0)
(0.0327435 -4.04079e-17 0)
(0.0327435 -5.13101e-17 0)
(0.0327435 1.05322e-16 0)
(0.0327435 -6.07746e-17 0)
(0.0327435 -3.95578e-17 0)
(0.0327435 3.59364e-17 0)
(0.0327435 -1.42702e-17 0)
(0.0327435 1.37324e-17 0)
(0.0327435 5.31513e-17 0)
(0.0327435 -2.95479e-18 0)
(0.0327435 -5.45908e-17 0)
(0.0327435 -3.82085e-17 0)
(0.0327435 -8.13785e-18 0)
(0.0327435 4.4979e-17 0)
(0.0327435 -4.94376e-17 0)
(0.0327435 4.07738e-17 0)
(0.0327435 4.51872e-17 0)
(0.0327435 -3.09143e-17 0)
(0.0327435 4.12169e-17 0)
(0.0327435 6.26947e-18 0)
(0.0327435 -9.81525e-17 0)
(0.0327435 3.76335e-17 0)
(0.0327435 9.44279e-18 0)
(0.0327435 -5.80046e-17 0)
(0.0327435 5.38189e-17 0)
(0.0327435 2.20608e-18 0)
(0.0327435 4.685e-17 0)
(0.0327435 -5.00096e-17 0)
(0.0327435 -6.74628e-18 0)
(0.0327435 3.61357e-18 0)
(0.0327435 -5.11573e-17 0)
(0.0327435 3.62457e-17 0)
(0.0327435 6.50984e-17 0)
(0.0327435 -4.89024e-17 0)
(0.0327435 -2.66181e-18 0)
(0.0327435 5.93619e-17 0)
(0.0327435 -5.89144e-17 0)
(0.0327435 8.0396e-19 0)
(0.0327435 -3.64372e-17 0)
(0.0327435 -8.09255e-18 0)
(0.0327435 -1.02848e-17 0)
(0.0327435 1.03874e-16 0)
(0.0327435 -6.79077e-18 0)
(0.0327435 -5.31783e-17 0)
(0.0327435 5.35967e-17 0)
(0.0327435 -4.59537e-17 0)
(0.0327435 -5.13414e-17 0)
(0.0327435 5.79837e-17 0)
(0.0327435 -2.06294e-17 0)
(0.0327435 5.92376e-18 0)
(0.0327435 8.01104e-17 0)
(0.0327435 -1.04525e-16 0)
(0.0327435 6.13953e-17 0)
(0.0327435 -1.91996e-17 0)
(0.0327435 -3.06372e-17 0)
(0.0327435 5.13802e-17 0)
(0.0327435 -6.56185e-17 0)
(0.0327435 1.78901e-17 0)
(0.0327435 1.46226e-16 0)
(0.0327435 -1.18863e-16 0)
(0.0327435 -6.19314e-17 0)
(0.0327435 7.36615e-17 0)
(0.0327435 -6.82765e-17 0)
(0.0327435 9.4483e-17 0)
(0.0327435 -8.66662e-17 0)
(0.0327435 -1.24383e-17 0)
(0.0327435 8.48968e-17 0)
(0.0327435 1.25044e-17 0)
(0.0327435 -4.81373e-17 0)
(0.0327435 -1.70556e-18 0)
(0.0327435 -1.51159e-17 0)
(0.0327435 1.03449e-17 0)
(0.0327435 3.8273e-17 0)
(0.0327435 -8.70941e-17 0)
(0.0327435 1.14479e-16 0)
(0.0327435 -2.50694e-17 0)
(0.0327435 -9.09647e-17 0)
(0.0327435 8.04038e-17 0)
(0.0327435 6.14595e-17 0)
(0.0327435 -9.10497e-17 0)
(0.0327435 -3.50395e-17 0)
(0.0327435 6.15711e-17 0)
(0.0327435 -2.58759e-17 0)
(0.0327435 8.96007e-17 0)
(0.0327435 4.56108e-17 0)
(0.0327435 -1.75699e-16 0)
(0.0327435 2.2907e-17 0)
(0.0327435 4.59719e-17 0)
(0.0327435 -7.24531e-17 0)
(0.0327435 8.05223e-17 0)
(0.0327435 -4.98297e-17 0)
(0.0327435 1.91203e-17 0)
(0.0327435 1.42319e-16 0)
(0.0327435 -1.10263e-16 0)
(0.0327435 -8.97234e-17 0)
(0.0327435 1.23433e-16 0)
(0.0327435 -5.20995e-17 0)
(0.0327435 -6.69306e-17 0)
(0.0327435 7.80609e-17 0)
(0.0327435 5.9304e-17 0)
(0.0327435 -7.19488e-17 0)
(0.0327435 1.16266e-17 0)
(0.0327435 8.77813e-18 0)
(0.0327435 -5.82676e-17 0)
(0.0327435 9.77668e-17 0)
(0.0327435 -9.56225e-17 0)
(0.0327435 -3.48285e-18 0)
(0.0327435 8.47764e-17 0)
(0.0327435 1.33044e-17 0)
(0.0327435 1.9618e-17 0)
(0.0327435 -1.17256e-17 0)
(0.0327435 -1.0115e-16 0)
(0.0327435 -4.30622e-17 0)
(0.0327435 1.54978e-16 0)
(0.0327435 -1.11661e-16 0)
(0.0327435 -1.13945e-17 0)
(0.0327435 4.96017e-17 0)
(0.0327435 6.42286e-17 0)
(0.0327435 7.01888e-17 0)
(0.0327435 -1.74725e-16 0)
(0.0327435 -6.05922e-19 0)
(0.0327435 1.15561e-16 0)
(0.0327435 -1.20349e-16 0)
(0.0327435 6.68605e-18 0)
(0.0327435 1.65571e-16 0)
(0.0327435 -1.75217e-16 0)
(0.0327435 6.79787e-17 0)
(0.0327435 1.12408e-16 0)
(0.0327435 -1.62495e-16 0)
(0.0327435 1.13433e-17 0)
(0.0327435 8.13324e-17 0)
(0.0327435 -9.09618e-17 0)
(0.0327435 1.81137e-17 0)
(0.0327435 1.44575e-16 0)
(0.0327435 -4.57834e-17 0)
(0.0327435 -3.98286e-17 0)
(0.0327435 -1.60676e-17 0)
(0.0327435 -5.16076e-17 0)
(0.0327435 1.97552e-17 0)
(0.0327435 7.00178e-17 0)
(0.0327435 -1.03947e-16 0)
(0.0327435 1.20166e-17 0)
(0.0327435 1.47701e-16 0)
(0.0327435 -4.0555e-17 0)
(0.0327435 -4.49702e-17 0)
(0.0327435 -5.98836e-17 0)
(0.0327435 4.58938e-19 0)
(0.0327435 9.98261e-17 0)
(0.0327435 -1.0789e-16 0)
(0.0327435 8.37082e-17 0)
(0.0327435 7.95688e-18 0)
(0.0327435 -1.03135e-16 0)
(0.0327435 1.41477e-16 0)
(0.0327435 -7.03593e-17 0)
(0.0327435 -4.86192e-17 0)
(0.0327435 5.0023e-17 0)
(0.0327435 3.74815e-17 0)
(0.0327435 -1.10453e-16 0)
(0.0327435 7.75654e-17 0)
(0.0327435 8.92448e-17 0)
(0.0327435 -1.091e-16 0)
(0.0327435 -3.71122e-17 0)
(0.0327435 -1.40526e-18 0)
(0.0327435 5.73771e-17 0)
(0.0327435 -1.34145e-17 0)
(0.0327435 5.63941e-17 0)
(0.0327435 -1.04581e-16 0)
(0.0327435 6.86177e-17 0)
(0.0327435 8.5407e-17 0)
(0.0327435 -1.08514e-16 0)
(0.0327435 -4.5238e-17 0)
(0.0327435 5.76775e-17 0)
(0.0327435 4.16156e-18 0)
(0.0327435 -3.18961e-17 0)
(0.0327435 4.75891e-17 0)
(0.0327435 -1.14617e-16 0)
(0.0327435 1.28386e-16 0)
(0.0327435 2.26018e-17 0)
(0.0327435 -9.2342e-17 0)
(0.0327435 1.90787e-17 0)
(0.0327435 6.91883e-18 0)
(0.0327435 1.11461e-17 0)
(0.0327435 -3.14245e-17 0)
(0.0327435 4.32098e-17 0)
(0.0327435 9.94402e-17 0)
(0.0327435 -3.80992e-17 0)
(0.0327435 -1.76039e-16 0)
(0.0327435 7.37849e-18 0)
(0.0327435 8.2139e-17 0)
(0.0327435 -5.50022e-20 0)
(0.0327435 1.34425e-16 0)
(0.0327435 -1.22216e-16 0)
(0.0327435 -8.71302e-17 0)
(0.0327435 6.85804e-17 0)
(0.0327435 1.08037e-16 0)
(0.0327435 -4.53404e-17 0)
(0.0327435 -1.54997e-16 0)
(0.0327435 7.60764e-17 0)
(0.0327435 2.71889e-17 0)
(0.0327435 1.44533e-16 0)
(0.0327435 -1.47319e-16 0)
(0.0327435 -8.77377e-17 0)
(0.0327435 1.07599e-16 0)
(0.0327435 -1.27995e-17 0)
(0.0327435 8.26536e-18 0)
(0.0327435 -3.75685e-17 0)
(0.0327435 1.10357e-17 0)
(0.0327435 2.63802e-17 0)
(0.0327435 1.06819e-16 0)
(0.0327435 -1.27973e-16 0)
(0.0327435 -1.03656e-16 0)
(0.0327435 2.36625e-16 0)
(0.0327435 -1.01674e-16 0)
(0.0327435 -1.14757e-16 0)
(0.0327435 8.66318e-17 0)
(0.0327435 1.61929e-17 0)
(0.0327435 -4.18511e-18 0)
(0.0327435 1.0411e-16 0)
(0.0327435 -1.11639e-16 0)
(0.0327435 -1.24288e-16 0)
(0.0327435 2.37942e-16 0)
(0.0327435 -7.80942e-17 0)
(0.0327435 -1.4825e-16 0)
(0.0327435 7.31482e-17 0)
(0.0327435 1.78827e-16 0)
(0.0327435 -1.23315e-16 0)
(0.0327435 -9.85676e-18 0)
(0.0327435 1.34365e-17 0)
(0.0327435 -1.17514e-16 0)
(0.0327435 2.26796e-16 0)
(0.0327435 -1.26311e-16 0)
(0.0327435 -8.95021e-18 0)
(0.0327435 -9.97526e-17 0)
(0.0327435 1.19333e-16 0)
(0.0327435 9.53083e-17 0)
(0.0327435 -1.98808e-16 0)
(0.0327435 1.05683e-16 0)
(0.0327435 -1.47911e-17 0)
(0.0327435 2.50542e-17 0)
(0.0327435 -3.00461e-17 0)
(0.0327435 9.48463e-17 0)
(0.0327435 -1.86072e-16 0)
(0.0327435 1.12584e-16 0)
(0.0327435 8.0491e-17 0)
(0.0327435 -1.98288e-16 0)
(0.0327435 1.07678e-16 0)
(0.0327435 9.39062e-17 0)
(0.0327435 -5.8399e-17 0)
(0.0327435 -1.68127e-16 0)
(0.0327435 2.14381e-16 0)
(0.0327435 -1.44946e-16 0)
(0.0327435 8.03675e-17 0)
(0.0327435 1.84737e-16 0)
(0.0327435 -3.08719e-16 0)
(0.0327435 2.93742e-17 0)
(0.0327435 1.79534e-16 0)
(0.0327435 -1.54163e-17 0)
(0.0327435 -1.86103e-16 0)
(0.0327435 1.10569e-16 0)
(0.0327435 -1.51611e-17 0)
(0.0327435 2.49342e-18 0)
(0.0327435 2.00083e-17 0)
(0.0327435 -1.05611e-16 0)
(0.0327435 1.07122e-16 0)
(0.0327435 -1.66363e-19 0)
(0.0327435 9.33642e-17 0)
(0.0327435 -1.32027e-16 0)
(0.0327435 -6.11731e-17 0)
(0.0327435 9.32206e-17 0)
(0.0327435 7.40721e-17 0)
(0.0327435 -7.6937e-17 0)
(0.0327435 -9.60105e-17 0)
(0.0327435 2.04769e-16 0)
(0.0327435 -1.38969e-16 0)
(0.0327435 1.85386e-17 0)
(0.0327435 7.32611e-18 0)
(0.0327435 -9.4307e-17 0)
(0.0327435 2.10451e-16 0)
(0.0327435 -4.08352e-17 0)
(0.0327435 -1.88954e-16 0)
(0.0327435 4.15282e-17 0)
(0.0327435 1.99648e-16 0)
(0.0327435 -1.29851e-16 0)
(0.0327435 1.28049e-17 0)
(0.0327435 3.97397e-18 0)
(0.0327435 7.40831e-18 0)
(0.0327435 1.26497e-16 0)
(0.0327435 -6.41175e-17 0)
(0.0327435 -1.25374e-16 0)
(0.096896 -8.46307e-16 0)
(0.096896 -2.23421e-16 0)
(0.096896 -1.44673e-17 0)
(0.096896 4.01666e-17 0)
(0.096896 4.64571e-17 0)
(0.096896 2.27492e-17 0)
(0.096896 3.02604e-17 0)
(0.096896 1.95929e-17 0)
(0.096896 6.64341e-18 0)
(0.096896 -1.45535e-18 0)
(0.096896 -1.10611e-17 0)
(0.096896 -2.71459e-17 0)
(0.096896 -1.41935e-17 0)
(0.096896 4.58555e-19 0)
(0.096896 1.54964e-17 0)
(0.096896 4.17691e-18 0)
(0.096896 -1.52984e-17 0)
(0.096896 -6.82503e-18 0)
(0.096896 -1.19205e-18 0)
(0.096896 5.26612e-18 0)
(0.096896 4.05324e-18 0)
(0.096896 2.8913e-18 0)
(0.096896 3.3106e-17 0)
(0.096896 2.76365e-17 0)
(0.096896 -8.71907e-18 0)
(0.096896 -2.39328e-17 0)
(0.096896 -9.24084e-18 0)
(0.096896 1.98969e-18 0)
(0.096896 -3.29241e-17 0)
(0.096896 -6.50567e-18 0)
(0.096896 1.43269e-17 0)
(0.096896 -1.28241e-17 0)
(0.096896 -9.47209e-18 0)
(0.096896 6.21881e-18 0)
(0.096896 -1.08235e-17 0)
(0.096896 7.79509e-18 0)
(0.096896 -1.80299e-17 0)
(0.096896 -2.15435e-17 0)
(0.096896 -1.3653e-17 0)
(0.096896 -4.66232e-17 0)
(0.096896 3.8536e-18 0)
(0.096896 -3.97173e-17 0)
(0.096896 -1.94076e-17 0)
(0.096896 2.71599e-17 0)
(0.096896 -2.74655e-19 0)
(0.096896 2.95637e-17 0)
(0.096896 2.51231e-17 0)
(0.096896 -4.8788e-17 0)
(0.096896 -1.58437e-17 0)
(0.096896 3.60655e-17 0)
(0.096896 2.00614e-17 0)
(0.096896 2.25789e-17 0)
(0.096896 -1.95447e-17 0)
(0.096896 -7.37136e-18 0)
(0.096896 3.93643e-17 0)
(0.096896 -2.80439e-17 0)
(0.096896 1.65176e-17 0)
(0.096896 -1.43665e-18 0)
(0.096896 -4.73306e-17 0)
(0.096896 -4.84302e-18 0)
(0.096896 -6.71019e-18 0)
(0.096896 -2.48004e-17 0)
(0.096896 3.70391e-18 0)
(0.096896 1.82957e-17 0)
(0.096896 -8.27888e-18 0)
(0.096896 4.5561e-17 0)
(0.096896 -2.70458e-17 0)
(0.096896 -2.49432e-17 0)
(0.096896 6.02252e-17 0)
(0.096896 -2.50962e-17 0)
(0.096896 -2.67391e-17 0)
(0.096896 2.85914e-17 0)
(0.096896 5.88032e-17 0)
(0.096896 -4.43269e-17 0)
(0.096896 -5.04739e-17 0)
(0.096896 1.01412e-16 0)
(0.096896 4.22387e-17 0)
(0.096896 -3.39888e-17 0)
(0.096896 2.06903e-17 0)
(0.096896 6.98152e-17 0)
(0.096896 8.0405e-18 0)
(0.096896 -3.76434e-17 0)
(0.096896 2.99475e-17 0)
(0.096896 -1.77382e-17 0)
(0.096896 -6.82238e-17 0)
(0.096896 4.79584e-17 0)
(0.096896 -1.67282e-17 0)
(0.096896 -4.82162e-17 0)
(0.096896 6.47027e-18 0)
(0.096896 -1.83477e-18 0)
(0.096896 8.53441e-18 0)
(0.096896 1.14288e-17 0)
(0.096896 2.07675e-17 0)
(0.096896 -3.86643e-18 0)
(0.096896 5.89333e-18 0)
(0.096896 -5.36954e-17 0)
(0.096896 2.76587e-17 0)
(0.096896 8.60402e-17 0)
(0.096896 -3.66804e-17 0)
(0.096896 -3.73704e-17 0)
(0.096896 5.17031e-17 0)
(0.096896 5.18552e-17 0)
(0.096896 -3.30479e-18 0)
(0.096896 -1.67785e-17 0)
(0.096896 4.1404e-18 0)
(0.096896 -3.18703e-17 0)
(0.096896 -1.62771e-17 0)
(0.096896 3.74927e-18 0)
(0.096896 5.92543e-17 0)
(0.096896 9.11061e-17 0)
(0.096896 -5.46137e-18 0)
(0.096896 -9.61689e-17 0)
(0.096896 -3.49104e-17 0)
(0.096896 6.57376e-17 0)
(0.096896 -2.62881e-18 0)
(0.096896 -8.89249e-17 0)
(0.096896 -4.9528e-17 0)
(0.096896 4.8559e-17 0)
(0.096896 2.99417e-17 0)
(0.096896 -5.07323e-17 0)
(0.096896 -3.78307e-17 0)
(0.096896 4.64353e-19 0)
(0.096896 4.42107e-17 0)
(0.096896 -2.17558e-17 0)
(0.096896 -7.23728e-17 0)
(0.096896 6.21335e-17 0)
(0.096896 5.03324e-17 0)
(0.096896 -3.79576e-17 0)
(0.096896 2.09062e-17 0)
(0.096896 1.7453e-17 0)
(0.096896 -4.04569e-18 0)
(0.096896 -5.16569e-18 0)
(0.096896 1.22219e-16 0)
(0.096896 -5.0327e-17 0)
(0.096896 -9.70973e-17 0)
(0.096896 5.23813e-17 0)
(0.096896 1.56396e-17 0)
(0.096896 -3.57497e-17 0)
(0.096896 8.00172e-17 0)
(0.096896 9.63252e-18 0)
(0.096896 -1.42206e-16 0)
(0.096896 -5.66653e-17 0)
(0.096896 7.70731e-17 0)
(0.096896 1.28969e-16 0)
(0.096896 -4.25251e-17 0)
(0.096896 -2.8607e-20 0)
(0.096896 1.5507e-16 0)
(0.096896 -3.14571e-17 0)
(0.096896 -8.50453e-17 0)
(0.096896 1.09048e-16 0)
(0.096896 -7.97037e-17 0)
(0.096896 -2.03981e-17 0)
(0.096896 1.66501e-16 0)
(0.096896 -1.41539e-16 0)
(0.096896 -4.87435e-17 0)
(0.096896 6.91921e-17 0)
(0.096896 -1.05867e-16 0)
(0.096896 6.67286e-18 0)
(0.096896 -1.04862e-17 0)
(0.096896 8.48093e-17 0)
(0.096896 7.89373e-17 0)
(0.096896 -4.74845e-17 0)
(0.096896 -4.94146e-17 0)
(0.096896 1.48032e-17 0)
(0.096896 -1.77181e-18 0)
(0.096896 -1.21451e-17 0)
(0.096896 5.282e-17 0)
(0.096896 -1.76112e-16 0)
(0.096896 7.19783e-17 0)
(0.096896 1.35667e-16 0)
(0.096896 -1.80154e-16 0)
(0.096896 2.90223e-17 0)
(0.096896 1.19446e-16 0)
(0.096896 -1.08415e-16 0)
(0.096896 -3.91741e-17 0)
(0.096896 5.74759e-17 0)
(0.096896 8.17315e-17 0)
(0.096896 -1.02431e-18 0)
(0.096896 -6.96317e-17 0)
(0.096896 9.5597e-17 0)
(0.096896 7.33968e-18 0)
(0.096896 -8.36123e-17 0)
(0.096896 -6.80629e-18 0)
(0.096896 -1.40907e-17 0)
(0.096896 1.16638e-16 0)
(0.096896 2.88937e-17 0)
(0.096896 -6.19413e-17 0)
(0.096896 1.58964e-17 0)
(0.096896 1.15966e-17 0)
(0.096896 3.38824e-17 0)
(0.096896 -5.70341e-17 0)
(0.096896 -4.30813e-17 0)
(0.096896 -5.6618e-18 0)
(0.096896 1.29963e-16 0)
(0.096896 4.24081e-17 0)
(0.096896 -5.98421e-17 0)
(0.096896 7.82477e-17 0)
(0.096896 3.04687e-17 0)
(0.096896 -1.60509e-16 0)
(0.096896 -6.14128e-17 0)
(0.096896 6.86291e-17 0)
(0.096896 -1.26517e-16 0)
(0.096896 1.13835e-16 0)
(0.096896 6.26993e-17 0)
(0.096896 1.94458e-17 0)
(0.096896 9.811e-17 0)
(0.096896 -1.17487e-16 0)
(0.096896 -1.04725e-16 0)
(0.096896 5.39166e-17 0)
(0.096896 -1.77027e-17 0)
(0.096896 3.03858e-17 0)
(0.096896 3.25633e-17 0)
(0.096896 -5.50927e-17 0)
(0.096896 8.24768e-17 0)
(0.096896 -8.10884e-17 0)
(0.096896 1.86761e-17 0)
(0.096896 -5.49441e-17 0)
(0.096896 -6.74196e-17 0)
(0.096896 8.73988e-17 0)
(0.096896 1.03512e-16 0)
(0.096896 -3.60721e-17 0)
(0.096896 -9.09094e-17 0)
(0.096896 1.65897e-18 0)
(0.096896 -9.84772e-17 0)
(0.096896 -5.49334e-18 0)
(0.096896 3.70767e-17 0)
(0.096896 -1.92864e-17 0)
(0.096896 3.18153e-17 0)
(0.096896 1.38117e-16 0)
(0.096896 -3.30977e-18 0)
(0.096896 -5.48519e-17 0)
(0.096896 -1.12499e-16 0)
(0.096896 1.42883e-18 0)
(0.096896 2.82677e-17 0)
(0.096896 -8.69994e-17 0)
(0.096896 8.26041e-17 0)
(0.096896 2.74959e-17 0)
(0.096896 5.26053e-17 0)
(0.096896 -6.31218e-17 0)
(0.096896 -2.74664e-17 0)
(0.096896 -1.38188e-17 0)
(0.096896 -9.83177e-17 0)
(0.096896 1.75707e-17 0)
(0.096896 1.42085e-16 0)
(0.096896 -3.91908e-17 0)
(0.096896 -5.1878e-18 0)
(0.096896 1.00698e-16 0)
(0.096896 -1.0307e-16 0)
(0.096896 -1.7787e-17 0)
(0.096896 -2.95477e-17 0)
(0.096896 -4.80844e-17 0)
(0.096896 6.4816e-18 0)
(0.096896 8.76252e-17 0)
(0.096896 -8.17426e-17 0)
(0.096896 -4.15448e-17 0)
(0.096896 8.11374e-17 0)
(0.096896 -4.55478e-17 0)
(0.096896 -8.75862e-17 0)
(0.096896 7.89309e-17 0)
(0.096896 -7.1932e-17 0)
(0.096896 6.34189e-17 0)
(0.096896 2.24091e-16 0)
(0.096896 -1.20598e-16 0)
(0.096896 7.33227e-17 0)
(0.096896 -1.19614e-16 0)
(0.096896 -1.17538e-16 0)
(0.096896 2.84012e-16 0)
(0.096896 -2.4048e-16 0)
(0.096896 -1.53755e-16 0)
(0.096896 4.13686e-16 0)
(0.096896 -1.83759e-16 0)
(0.096896 -1.42126e-16 0)
(0.096896 1.17761e-16 0)
(0.096896 -1.31221e-16 0)
(0.096896 1.00111e-16 0)
(0.096896 -8.6771e-17 0)
(0.096896 -4.78576e-17 0)
(0.096896 1.09948e-16 0)
(0.096896 1.23034e-16 0)
(0.096896 -1.02067e-16 0)
(0.096896 -9.73425e-17 0)
(0.096896 -4.06786e-17 0)
(0.096896 7.52317e-17 0)
(0.096896 1.73742e-16 0)
(0.096896 -1.64395e-16 0)
(0.096896 2.2283e-16 0)
(0.096896 2.58542e-17 0)
(0.096896 -2.29752e-16 0)
(0.096896 1.82416e-16 0)
(0.096896 1.02881e-16 0)
(0.096896 -2.35917e-16 0)
(0.096896 6.53837e-17 0)
(0.096896 1.35256e-17 0)
(0.096896 -1.61523e-16 0)
(0.096896 3.50828e-16 0)
(0.096896 7.99567e-17 0)
(0.096896 -3.37418e-16 0)
(0.096896 8.44133e-17 0)
(0.096896 -1.42641e-17 0)
(0.096896 -1.9361e-16 0)
(0.096896 3.15328e-16 0)
(0.096896 -1.72976e-16 0)
(0.096896 -1.36398e-16 0)
(0.096896 4.12011e-16 0)
(0.096896 -1.56246e-16 0)
(0.096896 -2.65009e-16 0)
(0.096896 2.21498e-16 0)
(0.096896 -1.30842e-16 0)
(0.096896 -1.73687e-16 0)
(0.096896 3.33127e-16 0)
(0.096896 2.98541e-17 0)
(0.096896 -2.73787e-16 0)
(0.096896 1.32958e-16 0)
(0.096896 7.16073e-17 0)
(0.096896 -9.63143e-17 0)
(0.096896 1.11509e-16 0)
(0.096896 -4.24109e-17 0)
(0.096896 -1.43964e-16 0)
(0.096896 -2.68539e-17 0)
(0.096896 1.92094e-16 0)
(0.096896 1.25559e-16 0)
(0.096896 -6.2982e-17 0)
(0.096896 -1.43958e-16 0)
(0.096896 -9.08662e-17 0)
(0.096896 1.85759e-16 0)
(0.096896 -3.60965e-17 0)
(0.096896 -1.72225e-16 0)
(0.096896 -3.63457e-17 0)
(0.096896 2.73207e-16 0)
(0.096896 1.87317e-16 0)
(0.096896 -2.96478e-16 0)
(0.096896 8.46475e-18 0)
(0.096896 1.18786e-16 0)
(0.096896 -2.62299e-16 0)
(0.096896 1.75884e-16 0)
(0.096896 1.6007e-16 0)
(0.096896 -3.87503e-16 0)
(0.096896 2.82409e-16 0)
(0.096896 1.62091e-16 0)
(0.096896 -3.08548e-16 0)
(0.096896 1.06249e-16 0)
(0.096896 8.28949e-18 0)
(0.096896 -1.34747e-16 0)
(0.096896 1.57743e-16 0)
(0.096896 2.54238e-16 0)
(0.096896 -5.83756e-18 0)
(0.096896 -2.76116e-17 0)
(0.096896 -1.8318e-16 0)
(0.096896 -1.36748e-16 0)
(0.096896 1.64753e-16 0)
(0.096896 -5.3238e-17 0)
(0.096896 -2.14128e-16 0)
(0.096896 1.1608e-16 0)
(0.096896 2.59737e-16 0)
(0.096896 2.8221e-17 0)
(0.096896 -1.39781e-17 0)
(0.096896 -1.70754e-16 0)
(0.096896 -1.44169e-16 0)
(0.096896 1.2665e-16 0)
(0.096896 2.90565e-17 0)
(0.096896 8.50005e-17 0)
(0.096896 -2.54918e-16 0)
(0.096896 6.1643e-17 0)
(0.096896 3.23226e-16 0)
(0.096896 -2.40654e-16 0)
(0.096896 -1.51374e-17 0)
(0.096896 -9.00704e-18 0)
(0.096896 -1.43813e-16 0)
(0.096896 9.23393e-18 0)
(0.096896 3.34869e-16 0)
(0.096896 2.27776e-17 0)
(0.096896 -1.57747e-16 0)
(0.096896 -9.46077e-17 0)
(0.096896 -5.25295e-17 0)
(0.096896 2.06581e-16 0)
(0.096896 -8.3347e-17 0)
(0.096896 8.28182e-18 0)
(0.096896 -8.63433e-17 0)
(0.096896 1.66024e-16 0)
(0.096896 3.84872e-17 0)
(0.096896 -8.51318e-17 0)
(0.096896 -7.20154e-17 0)
(0.096896 -1.8925e-17 0)
(0.096896 4.05078e-17 0)
(0.096896 -8.49591e-17 0)
(0.096896 2.05445e-16 0)
(0.096896 -1.75559e-16 0)
(0.096896 1.16477e-16 0)
(0.096896 1.19541e-16 0)
(0.096896 -1.11715e-16 0)
(0.096896 -7.98113e-17 0)
(0.096896 1.12812e-16 0)
(0.096896 -8.37952e-17 0)
(0.096896 -2.05111e-16 0)
(0.096896 3.27027e-16 0)
(0.096896 1.91577e-16 0)
(0.096896 -1.71709e-16 0)
(0.096896 -1.45453e-16 0)
(0.096896 -1.22905e-16 0)
(0.096896 -4.98883e-17 0)
(0.096896 1.58026e-16 0)
(0.096896 3.17247e-16 0)
(0.096896 -2.10979e-16 0)
(0.096896 -1.71356e-16 0)
(0.096896 -9.36556e-17 0)
(0.096896 3.3884e-16 0)
(0.096896 2.29088e-16 0)
(0.096896 -4.98161e-16 0)
(0.096896 -4.71065e-17 0)
(0.096896 2.57907e-16 0)
(0.096896 1.45709e-16 0)
(0.096896 -3.3613e-16 0)
(0.096896 9.08641e-17 0)
(0.096896 1.18558e-16 0)
(0.096896 -1.86787e-17 0)
(0.096896 7.8114e-17 0)
(0.096896 -2.93738e-16 0)
(0.096896 -4.13447e-17 0)
(0.096896 3.46855e-16 0)
(0.096896 6.94685e-17 0)
(0.096896 -3.95685e-16 0)
(0.096896 -7.468e-17 0)
(0.096896 4.49236e-16 0)
(0.096896 -8.53381e-17 0)
(0.096896 -2.25847e-16 0)
(0.096896 3.99016e-17 0)
(0.096896 8.52161e-17 0)
(0.096896 8.51872e-18 0)
(0.096896 1.9515e-17 0)
(0.096896 -1.25026e-16 0)
(0.096896 -1.17603e-16 0)
(0.096896 3.54148e-16 0)
(0.096896 -3.56155e-17 0)
(0.096896 -3.97568e-16 0)
(0.096896 2.01626e-17 0)
(0.096896 5.13487e-16 0)
(0.096896 -1.36981e-16 0)
(0.096896 -6.35925e-17 0)
(0.096896 1.41785e-17 0)
(0.096896 -1.85305e-16 0)
(0.096896 3.51216e-16 0)
(0.096896 -2.19037e-16 0)
(0.096896 -8.25642e-17 0)
(0.096896 -4.00546e-17 0)
(0.096896 1.20882e-16 0)
(0.096896 3.68004e-17 0)
(0.096896 -6.95049e-17 0)
(0.096896 1.59651e-17 0)
(0.096896 -1.5304e-16 0)
(0.096896 2.05558e-16 0)
(0.096896 -6.51067e-17 0)
(0.096896 9.32706e-17 0)
(0.096896 -1.02168e-16 0)
(0.096896 7.69026e-17 0)
(0.096896 -3.55218e-17 0)
(0.096896 -5.88792e-17 0)
(0.096896 8.54349e-17 0)
(0.096896 4.31643e-17 0)
(0.096896 1.69269e-16 0)
(0.096896 -5.14529e-16 0)
(0.096896 2.19701e-16 0)
(0.096896 2.26677e-16 0)
(0.096896 4.91858e-18 0)
(0.096896 3.61692e-17 0)
(0.096896 -3.69828e-16 0)
(0.096896 1.15492e-16 0)
(0.096896 2.14479e-16 0)
(0.096896 -3.8439e-17 0)
(0.096896 -2.01427e-16 0)
(0.096896 1.37153e-16 0)
(0.096896 -7.40067e-17 0)
(0.096896 1.32396e-17 0)
(0.096896 9.48187e-17 0)
(0.096896 -1.23697e-16 0)
(0.096896 1.67762e-16 0)
(0.096896 3.26274e-17 0)
(0.096896 7.66705e-17 0)
(0.096896 -2.58165e-16 0)
(0.096896 1.39223e-17 0)
(0.096896 1.20938e-16 0)
(0.096896 2.81211e-17 0)
(0.096896 -4.33379e-17 0)
(0.096896 -9.86456e-17 0)
(0.096896 2.38894e-16 0)
(0.096896 -2.82685e-16 0)
(0.096896 4.82217e-17 0)
(0.096896 3.68651e-17 0)
(0.096896 -7.099e-17 0)
(0.096896 2.98237e-16 0)
(0.096896 -1.94494e-16 0)
(0.096896 -2.38877e-16 0)
(0.096896 1.93452e-16 0)
(0.096896 2.68257e-16 0)
(0.096896 -2.57826e-16 0)
(0.096896 8.51157e-18 0)
(0.096896 1.70019e-17 0)
(0.096896 2.82217e-17 0)
(0.096896 1.71888e-16 0)
(0.096896 -1.50826e-16 0)
(0.096896 -1.47068e-16 0)
(0.159671 -9.84793e-16 0)
(0.159671 -2.83e-16 0)
(0.159671 -7.56448e-17 0)
(0.159671 3.51758e-17 0)
(0.159671 6.48263e-17 0)
(0.159671 2.38555e-17 0)
(0.159671 3.84552e-17 0)
(0.159671 5.74987e-17 0)
(0.159671 2.44857e-17 0)
(0.159671 -3.87651e-17 0)
(0.159671 -5.7424e-17 0)
(0.159671 -6.28961e-17 0)
(0.159671 -5.48661e-17 0)
(0.159671 -6.16108e-18 0)
(0.159671 1.73006e-17 0)
(0.159671 7.22042e-18 0)
(0.159671 -3.92443e-18 0)
(0.159671 -1.46796e-17 0)
(0.159671 1.39671e-17 0)
(0.159671 8.34863e-18 0)
(0.159671 -1.56129e-17 0)
(0.159671 2.78803e-17 0)
(0.159671 7.03952e-17 0)
(0.159671 5.11361e-17 0)
(0.159671 5.82196e-18 0)
(0.159671 -5.34186e-17 0)
(0.159671 -6.31224e-17 0)
(0.159671 4.71442e-18 0)
(0.159671 -5.2468e-17 0)
(0.159671 -3.62337e-17 0)
(0.159671 6.38689e-18 0)
(0.159671 -3.31842e-18 0)
(0.159671 -7.85448e-18 0)
(0.159671 -4.13495e-17 0)
(0.159671 -2.16437e-17 0)
(0.159671 1.89043e-17 0)
(0.159671 -5.86157e-17 0)
(0.159671 -4.2717e-17 0)
(0.159671 -2.74895e-17 0)
(0.159671 -1.08959e-16 0)
(0.159671 -4.8799e-17 0)
(0.159671 -5.51904e-17 0)
(0.159671 -5.4409e-17 0)
(0.159671 2.58554e-17 0)
(0.159671 5.35474e-17 0)
(0.159671 3.28307e-17 0)
(0.159671 4.47927e-17 0)
(0.159671 -5.38631e-17 0)
(0.159671 -1.9484e-17 0)
(0.159671 8.29674e-17 0)
(0.159671 2.20562e-17 0)
(0.159671 -8.24171e-18 0)
(0.159671 -1.02279e-17 0)
(0.159671 2.56038e-17 0)
(0.159671 3.76901e-17 0)
(0.159671 -1.98565e-17 0)
(0.159671 3.06976e-17 0)
(0.159671 -5.39602e-17 0)
(0.159671 -8.14997e-17 0)
(0.159671 -2.14672e-17 0)
(0.159671 -4.18929e-17 0)
(0.159671 -1.52124e-17 0)
(0.159671 -2.2009e-17 0)
(0.159671 4.77402e-17 0)
(0.159671 5.25854e-17 0)
(0.159671 3.24766e-17 0)
(0.159671 -3.453e-17 0)
(0.159671 -2.83874e-17 0)
(0.159671 3.63633e-17 0)
(0.159671 1.81385e-17 0)
(0.159671 2.88865e-17 0)
(0.159671 3.32674e-17 0)
(0.159671 6.37208e-17 0)
(0.159671 -6.26924e-17 0)
(0.159671 -9.67311e-17 0)
(0.159671 1.58491e-16 0)
(0.159671 1.49913e-16 0)
(0.159671 3.09713e-17 0)
(0.159671 1.73824e-17 0)
(0.159671 5.50346e-17 0)
(0.159671 5.4482e-17 0)
(0.159671 -1.79888e-17 0)
(0.159671 -3.79771e-17 0)
(0.159671 -1.07858e-17 0)
(0.159671 -2.58575e-17 0)
(0.159671 -3.40014e-17 0)
(0.159671 -9.96248e-17 0)
(0.159671 1.47482e-17 0)
(0.159671 -2.63879e-18 0)
(0.159671 -3.42518e-17 0)
(0.159671 2.76793e-17 0)
(0.159671 8.39512e-18 0)
(0.159671 3.30842e-17 0)
(0.159671 3.96393e-17 0)
(0.159671 1.03418e-17 0)
(0.159671 -9.94107e-17 0)
(0.159671 2.13652e-17 0)
(0.159671 1.81301e-16 0)
(0.159671 -4.57257e-17 0)
(0.159671 -9.36849e-17 0)
(0.159671 1.45376e-16 0)
(0.159671 1.00682e-16 0)
(0.159671 -2.96307e-17 0)
(0.159671 -9.92843e-17 0)
(0.159671 3.41556e-18 0)
(0.159671 7.86301e-17 0)
(0.159671 -2.79115e-17 0)
(0.159671 -5.57273e-17 0)
(0.159671 1.54616e-16 0)
(0.159671 1.59233e-16 0)
(0.159671 -3.90627e-17 0)
(0.159671 -9.52458e-17 0)
(0.159671 -1.00623e-16 0)
(0.159671 7.671e-17 0)
(0.159671 2.24494e-17 0)
(0.159671 -2.13712e-16 0)
(0.159671 -7.10596e-17 0)
(0.159671 1.41516e-16 0)
(0.159671 2.16046e-18 0)
(0.159671 -1.1387e-16 0)
(0.159671 -1.02737e-16 0)
(0.159671 2.57255e-17 0)
(0.159671 3.99355e-17 0)
(0.159671 -7.14151e-17 0)
(0.159671 -3.9602e-17 0)
(0.159671 9.35087e-17 0)