/*--------------------------------*- C++ -*----------------------------------*\
| =========                 |                                                 |
| \\      /  F ield         | OpenFOAM: The Open Source CFD Toolbox           |
|  \\    /   O peration     | Version:  2112                                  |
|   \\  /    A nd           | Website:  www.openfoam.com                      |
|    \\/     M anipulation  |                                                 |
\*---------------------------------------------------------------------------*/
FoamFile
{
    version     2.0;
    format      ascii;
    arch        "LSB;label=32;scalar=64";
    class       volVectorField;
    location    "3";
    object      U;
}
// * * * * * * * * * * * * * * * * * * * * * * * * * * * * * * * * * * * * * //

dimensions      [0 1 -1 0 0 0 0];

internalField   nonuniform List<vector> 
25600
(
(0.0374962 -2.70825e-15 0)
(0.0374962 -4.76723e-16 0)
(0.0374962 -1.69695e-16 0)
(0.0374962 -7.86398e-17 0)
(0.0374962 -3.23932e-17 0)
(0.0374962 -2.48348e-17 0)
(0.0374962 -2.04079e-17 0)
(0.0374962 -9.39551e-18 0)
(0.0374962 -6.8874e-18 0)
(0.0374962 -1.13174e-17 0)
(0.0374962 2.54995e-18 0)
(0.0374962 -9.29543e-18 0)
(0.0374962 3.73033e-18 0)
(0.0374962 6.62018e-18 0)
(0.0374962 -1.51735e-17 0)
(0.0374962 5.46338e-18 0)
(0.0374962 3.97581e-19 0)
(0.0374962 -2.81127e-18 0)
(0.0374962 -4.74654e-18 0)
(0.0374962 -4.21911e-18 0)
(0.0374962 1.28755e-18 0)
(0.0374962 7.19341e-18 0)
(0.0374962 1.17083e-18 0)
(0.0374962 -7.98604e-18 0)
(0.0374962 -1.44244e-17 0)
(0.0374962 -6.11532e-18 0)
(0.0374962 2.26307e-17 0)
(0.0374962 -4.15551e-18 0)
(0.0374962 -2.48685e-17 0)
(0.0374962 -7.70177e-18 0)
(0.0374962 4.30545e-18 0)
(0.0374962 9.91732e-18 0)
(0.0374962 2.08619e-18 0)
(0.0374962 -8.63021e-18 0)
(0.0374962 -9.80453e-19 0)
(0.0374962 -1.92355e-18 0)
(0.0374962 9.44098e-18 0)
(0.0374962 -5.71238e-18 0)
(0.0374962 -3.91872e-18 0)
(0.0374962 6.07883e-18 0)
(0.0374962 -3.78594e-18 0)
(0.0374962 1.41722e-17 0)
(0.0374962 -4.17827e-18 0)
(0.0374962 -1.95765e-17 0)
(0.0374962 2.16532e-17 0)
(0.0374962 -1.03803e-17 0)
(0.0374962 -1.55321e-18 0)
(0.0374962 -2.94544e-18 0)
(0.0374962 -1.8194e-18 0)
(0.0374962 -3.41354e-18 0)
(0.0374962 -2.77719e-17 0)
(0.0374962 2.02196e-17 0)
(0.0374962 -4.51042e-18 0)
(0.0374962 -4.08321e-18 0)
(0.0374962 1.82568e-17 0)
(0.0374962 -2.57411e-17 0)
(0.0374962 4.4581e-18 0)
(0.0374962 -1.20892e-17 0)
(0.0374962 1.37633e-18 0)
(0.0374962 3.5394e-17 0)
(0.0374962 -3.16722e-17 0)
(0.0374962 5.69165e-18 0)
(0.0374962 -4.04196e-18 0)
(0.0374962 -2.05671e-19 0)
(0.0374962 2.41798e-17 0)
(0.0374962 -2.04225e-17 0)
(0.0374962 9.48869e-19 0)
(0.0374962 -7.42625e-18 0)
(0.0374962 1.21323e-17 0)
(0.0374962 6.7415e-18 0)
(0.0374962 -7.56223e-18 0)
(0.0374962 3.90816e-18 0)
(0.0374962 -3.54566e-18 0)
(0.0374962 -4.8909e-18 0)
(0.0374962 9.07569e-18 0)
(0.0374962 -4.42649e-18 0)
(0.0374962 -1.7349e-17 0)
(0.0374962 1.401e-17 0)
(0.0374962 -6.2712e-18 0)
(0.0374962 2.50822e-17 0)
(0.0374962 -2.62924e-17 0)
(0.0374962 -3.10055e-17 0)
(0.0374962 2.12432e-17 0)
(0.0374962 7.76702e-18 0)
(0.0374962 2.61775e-17 0)
(0.0374962 -7.06625e-18 0)
(0.0374962 -3.79044e-17 0)
(0.0374962 -1.61158e-19 0)
(0.0374962 1.90759e-17 0)
(0.0374962 3.42047e-17 0)
(0.0374962 -8.62356e-18 0)
(0.0374962 -4.83096e-17 0)
(0.0374962 4.75628e-18 0)
(0.0374962 4.66181e-17 0)
(0.0374962 1.76254e-18 0)
(0.0374962 -4.73022e-17 0)
(0.0374962 6.85715e-18 0)
(0.0374962 -3.8945e-18 0)
(0.0374962 4.14449e-17 0)
(0.0374962 2.5814e-17 0)
(0.0374962 -7.14145e-17 0)
(0.0374962 4.98592e-18 0)
(0.0374962 -3.92254e-18 0)
(0.0374962 4.52165e-17 0)
(0.0374962 5.81977e-18 0)
(0.0374962 -1.50408e-17 0)
(0.0374962 -2.94043e-17 0)
(0.0374962 1.46883e-17 0)
(0.0374962 2.9193e-17 0)
(0.0374962 -1.10386e-17 0)
(0.0374962 2.50492e-17 0)
(0.0374962 -8.72586e-17 0)
(0.0374962 2.27081e-17 0)
(0.0374962 5.53024e-17 0)
(0.0374962 -8.97787e-19 0)
(0.0374962 -2.01589e-17 0)
(0.0374962 -5.60111e-17 0)
(0.0374962 3.47918e-17 0)
(0.0374962 3.99973e-17 0)
(0.0374962 9.89307e-18 0)
(0.0374962 -1.05116e-17 0)
(0.0374962 -6.19624e-17 0)
(0.0374962 -2.8754e-20 0)
(0.0374962 7.02043e-17 0)
(0.0374962 5.23507e-18 0)
(0.0374962 -3.26773e-17 0)
(0.0374962 -3.92245e-17 0)
(0.0374962 8.26338e-18 0)
(0.0374962 6.5704e-17 0)
(0.0374962 -7.10437e-18 0)
(0.0374962 -2.94031e-17 0)
(0.0374962 -2.91618e-17 0)
(0.0374962 2.19151e-17 0)
(0.0374962 3.64978e-17 0)
(0.0374962 -2.67305e-17 0)
(0.0374962 -2.4077e-17 0)
(0.0374962 -1.4564e-17 0)
(0.0374962 3.94295e-17 0)
(0.0374962 1.94571e-17 0)
(0.0374962 -2.65471e-17 0)
(0.0374962 -3.13155e-17 0)
(0.0374962 -1.12415e-17 0)
(0.0374962 5.09706e-17 0)
(0.0374962 1.13217e-17 0)
(0.0374962 -5.22719e-17 0)
(0.0374962 4.24837e-17 0)
(0.0374962 -1.23504e-17 0)
(0.0374962 -3.12295e-17 0)
(0.0374962 -1.49421e-19 0)
(0.0374962 -8.37685e-18 0)
(0.0374962 5.29681e-17 0)
(0.0374962 -1.26591e-17 0)
(0.0374962 -4.93194e-17 0)
(0.0374962 1.02103e-17 0)
(0.0374962 2.39356e-17 0)
(0.0374962 2.86675e-17 0)
(0.0374962 -2.48532e-17 0)
(0.0374962 -3.38615e-17 0)
(0.0374962 2.80127e-17 0)
(0.0374962 5.74505e-18 0)
(0.0374962 5.0989e-17 0)
(0.0374962 -5.81715e-17 0)
(0.0374962 -4.25882e-17 0)
(0.0374962 6.23233e-17 0)
(0.0374962 -1.5278e-17 0)
(0.0374962 5.09844e-17 0)
(0.0374962 -3.71653e-17 0)
(0.0374962 -5.97013e-18 0)
(0.0374962 1.15457e-17 0)
(0.0374962 -4.39839e-17 0)
(0.0374962 8.47029e-17 0)
(0.0374962 -5.10465e-17 0)
(0.0374962 1.03664e-17 0)
(0.0374962 1.20123e-17 0)
(0.0374962 -4.77746e-17 0)
(0.0374962 7.95052e-17 0)
(0.0374962 -5.86254e-17 0)
(0.0374962 9.53059e-18 0)
(0.0374962 -8.22281e-18 0)
(0.0374962 -3.48486e-17 0)
(0.0374962 9.78895e-17 0)
(0.0374962 -7.34088e-17 0)
(0.0374962 1.70452e-18 0)
(0.0374962 1.57057e-17 0)
(0.0374962 -5.11765e-17 0)
(0.0374962 9.87038e-17 0)
(0.0374962 -6.03313e-17 0)
(0.0374962 -3.73334e-18 0)
(0.0374962 5.93946e-17 0)
(0.0374962 -9.36762e-17 0)
(0.0374962 4.57321e-17 0)
(0.0374962 -1.30385e-18 0)
(0.0374962 -5.37963e-17 0)
(0.0374962 9.81119e-17 0)
(0.0374962 -3.85654e-17 0)
(0.0374962 7.4079e-18 0)
(0.0374962 -5.21676e-17 0)
(0.0374962 -9.57194e-18 0)
(0.0374962 1.41024e-16 0)
(0.0374962 -9.25584e-17 0)
(0.0374962 3.88595e-18 0)
(0.0374962 -5.32941e-17 0)
(0.0374962 1.51349e-18 0)
(0.0374962 1.3881e-16 0)
(0.0374962 -8.87412e-17 0)
(0.0374962 -4.64335e-17 0)
(0.0374962 -1.03006e-17 0)
(0.0374962 4.6877e-17 0)
(0.0374962 8.77169e-17 0)
(0.0374962 -4.43268e-17 0)
(0.0374962 -8.11044e-17 0)
(0.0374962 -6.28694e-17 0)
(0.0374962 1.66839e-16 0)
(0.0374962 -1.48952e-18 0)
(0.0374962 -1.68447e-16 0)
(0.0374962 1.59476e-16 0)
(0.0374962 3.04429e-17 0)
(0.0374962 -7.76193e-17 0)
(0.0374962 -3.24109e-17 0)
(0.0374962 -7.45341e-17 0)
(0.0374962 1.641e-16 0)
(0.0374962 3.56529e-17 0)
(0.0374962 -8.94321e-17 0)
(0.0374962 -3.31926e-17 0)
(0.0374962 -8.06421e-17 0)
(0.0374962 1.69972e-16 0)
(0.0374962 -6.67687e-18 0)
(0.0374962 -6.66987e-17 0)
(0.0374962 1.50564e-17 0)
(0.0374962 -1.01912e-16 0)
(0.0374962 1.66972e-16 0)
(0.0374962 -8.41085e-18 0)
(0.0374962 -9.36033e-17 0)
(0.0374962 5.72992e-17 0)
(0.0374962 -7.51133e-17 0)
(0.0374962 9.85804e-17 0)
(0.0374962 -3.27809e-18 0)
(0.0374962 -2.65665e-17 0)
(0.0374962 2.66758e-17 0)
(0.0374962 -1.25772e-16 0)
(0.0374962 1.4487e-16 0)
(0.0374962 -1.47505e-17 0)
(0.0374962 -3.62079e-17 0)
(0.0374962 7.14634e-17 0)
(0.0374962 -1.36424e-16 0)
(0.0374962 1.36749e-17 0)
(0.0374962 4.21673e-17 0)
(0.0374962 5.23559e-17 0)
(0.0374962 1.53577e-17 0)
(0.0374962 -1.31264e-16 0)
(0.0374962 8.14732e-17 0)
(0.0374962 -7.20071e-18 0)
(0.0374962 -2.51226e-17 0)
(0.0374962 4.53878e-17 0)
(0.0374962 -1.11458e-16 0)
(0.0374962 9.93336e-17 0)
(0.0374962 -1.74206e-17 0)
(0.0374962 -1.36963e-17 0)
(0.0374962 6.80641e-17 0)
(0.0374962 -1.23971e-16 0)
(0.0374962 5.9734e-17 0)
(0.0374962 -3.63362e-18 0)
(0.0374962 2.0877e-18 0)
(0.0374962 5.0758e-17 0)
(0.0374962 -1.09144e-16 0)
(0.0374962 8.25869e-17 0)
(0.0374962 3.24508e-17 0)
(0.0374962 -4.84875e-17 0)
(0.0374962 1.1083e-17 0)
(0.0374962 -7.41532e-17 0)
(0.0374962 7.3378e-17 0)
(0.0374962 3.90636e-17 0)
(0.0374962 -8.27268e-17 0)
(0.0374962 4.4753e-17 0)
(0.0374962 -3.53329e-17 0)
(0.0374962 2.92318e-17 0)
(0.0374962 4.0729e-17 0)
(0.0374962 -8.9091e-17 0)
(0.0374962 6.10231e-17 0)
(0.0374962 -3.90889e-17 0)
(0.0374962 1.62917e-17 0)
(0.0374962 3.92376e-17 0)
(0.0374962 -8.6665e-17 0)
(0.0374962 6.15125e-17 0)
(0.0374962 -2.78435e-17 0)
(0.0374962 -2.29561e-17 0)
(0.0374962 9.30448e-17 0)
(0.0374962 -4.97733e-17 0)
(0.0374962 -8.64763e-18 0)
(0.0374962 -6.64553e-17 0)
(0.0374962 3.55246e-17 0)
(0.0374962 1.24456e-16 0)
(0.0374962 -1.1572e-17 0)
(0.0374962 -1.184e-16 0)
(0.0374962 -2.42122e-17 0)
(0.0374962 5.90636e-17 0)
(0.0374962 5.17743e-18 0)
(0.0374962 7.05128e-17 0)
(0.0374962 -1.27631e-16 0)
(0.0374962 -2.16173e-17 0)
(0.0374962 6.5334e-17 0)
(0.0374962 8.96476e-18 0)
(0.0374962 4.52533e-17 0)
(0.0374962 -9.64077e-17 0)
(0.0374962 2.50789e-17 0)
(0.0374962 2.86045e-17 0)
(0.0374962 -5.39072e-17 0)
(0.0374962 8.63413e-17 0)
(0.0374962 -6.94989e-17 0)
(0.0374962 -7.64466e-18 0)
(0.0374962 1.74301e-17 0)
(0.0374962 -7.88949e-17 0)
(0.0374962 9.08353e-17 0)
(0.0374962 -5.28512e-17 0)
(0.0374962 -7.85485e-17 0)
(0.0374962 2.64717e-17 0)
(0.0374962 -5.44842e-17 0)
(0.0374962 -1.04516e-17 0)
(0.0374962 -2.03116e-16 0)
(0.0374962 -5.33681e-16 0)
(0.110614 -5.69309e-15 0)
(0.110614 -1.47718e-15 0)
(0.110614 -5.12766e-16 0)
(0.110614 -2.36002e-16 0)
(0.110614 -1.28819e-16 0)
(0.110614 -8.68782e-17 0)
(0.110614 -6.16957e-17 0)
(0.110614 -4.58483e-17 0)
(0.110614 -1.60241e-17 0)
(0.110614 -1.86184e-17 0)
(0.110614 1.37895e-18 0)
(0.110614 1.54093e-18 0)
(0.110614 1.99435e-17 0)
(0.110614 2.17516e-17 0)
(0.110614 -2.57055e-17 0)
(0.110614 2.90505e-19 0)
(0.110614 2.3975e-17 0)
(0.110614 2.24677e-17 0)
(0.110614 -8.14102e-18 0)
(0.110614 -3.98282e-18 0)
(0.110614 1.69342e-17 0)
(0.110614 8.98339e-18 0)
(0.110614 -1.29317e-17 0)
(0.110614 -3.13349e-17 0)
(0.110614 -4.5623e-17 0)
(0.110614 -2.83383e-17 0)
(0.110614 2.41559e-17 0)
(0.110614 -3.09861e-17 0)
(0.110614 -7.48709e-17 0)
(0.110614 -5.27391e-17 0)
(0.110614 -3.77963e-18 0)
(0.110614 5.06567e-17 0)
(0.110614 8.55742e-18 0)
(0.110614 -2.10956e-17 0)
(0.110614 -8.33748e-18 0)
(0.110614 2.30288e-18 0)
(0.110614 4.74802e-17 0)
(0.110614 -1.70763e-17 0)
(0.110614 -4.10442e-17 0)
(0.110614 3.06239e-17 0)
(0.110614 -1.75038e-17 0)
(0.110614 2.15797e-19 0)
(0.110614 1.76883e-17 0)
(0.110614 -3.22003e-17 0)
(0.110614 1.06454e-17 0)
(0.110614 -1.22494e-17 0)
(0.110614 -9.98466e-18 0)
(0.110614 -2.10106e-17 0)
(0.110614 -3.0242e-17 0)
(0.110614 -3.24741e-17 0)
(0.110614 -5.69573e-17 0)
(0.110614 2.05291e-17 0)
(0.110614 -2.20745e-17 0)
(0.110614 -3.28149e-17 0)
(0.110614 1.4693e-17 0)
(0.110614 -4.96019e-17 0)
(0.110614 1.68363e-18 0)
(0.110614 -2.33972e-18 0)
(0.110614 -5.91455e-18 0)
(0.110614 1.88216e-17 0)
(0.110614 -7.1588e-17 0)
(0.110614 4.43644e-17 0)
(0.110614 1.85211e-18 0)
(0.110614 -1.53009e-18 0)
(0.110614 6.69987e-17 0)
(0.110614 -3.09471e-17 0)
(0.110614 2.23554e-17 0)
(0.110614 1.57874e-17 0)
(0.110614 1.35899e-17 0)
(0.110614 5.03192e-17 0)
(0.110614 -2.81107e-17 0)
(0.110614 -4.82797e-18 0)
(0.110614 -1.6084e-17 0)
(0.110614 -2.33747e-17 0)
(0.110614 7.48194e-17 0)
(0.110614 -6.4187e-17 0)
(0.110614 -7.55873e-17 0)
(0.110614 2.9887e-17 0)
(0.110614 -2.53206e-17 0)
(0.110614 4.0434e-17 0)
(0.110614 -3.23791e-17 0)
(0.110614 -1.10631e-16 0)
(0.110614 1.17465e-17 0)
(0.110614 6.19769e-17 0)
(0.110614 6.33244e-17 0)
(0.110614 -6.76618e-18 0)
(0.110614 -4.96038e-17 0)
(0.110614 -1.59797e-17 0)
(0.110614 6.76539e-17 0)
(0.110614 1.22148e-16 0)
(0.110614 -4.19352e-17 0)
(0.110614 -8.96634e-17 0)
(0.110614 1.7447e-17 0)
(0.110614 8.20601e-17 0)
(0.110614 2.07431e-17 0)
(0.110614 -6.99569e-17 0)
(0.110614 1.32207e-17 0)
(0.110614 -2.92566e-19 0)
(0.110614 5.02286e-17 0)
(0.110614 2.89617e-17 0)
(0.110614 -9.88012e-17 0)
(0.110614 2.22981e-17 0)
(0.110614 -5.24779e-17 0)
(0.110614 2.73181e-17 0)
(0.110614 7.26036e-17 0)
(0.110614 1.21977e-17 0)
(0.110614 -6.66059e-17 0)
(0.110614 -1.48766e-19 0)
(0.110614 9.56349e-17 0)
(0.110614 5.0386e-17 0)
(0.110614 2.37001e-17 0)
(0.110614 -1.86261e-16 0)
(0.110614 3.07812e-17 0)
(0.110614 1.68024e-16 0)
(0.110614 1.36092e-17 0)
(0.110614 -4.78099e-17 0)
(0.110614 -1.33559e-16 0)
(0.110614 -4.14768e-18 0)
(0.110614 1.2979e-16 0)
(0.110614 2.13086e-17 0)
(0.110614 -8.56151e-17 0)
(0.110614 -1.41717e-16 0)
(0.110614 8.37917e-18 0)
(0.110614 1.98372e-16 0)
(0.110614 7.05034e-17 0)
(0.110614 -1.02766e-16 0)
(0.110614 -1.52184e-16 0)
(0.110614 4.85227e-17 0)
(0.110614 1.82139e-16 0)
(0.110614 1.18074e-17 0)
(0.110614 -7.48607e-17 0)
(0.110614 -9.77727e-17 0)
(0.110614 3.09137e-17 0)
(0.110614 9.83869e-17 0)
(0.110614 -2.64911e-17 0)
(0.110614 -2.28555e-17 0)
(0.110614 -1.26859e-16 0)
(0.110614 -5.15629e-17 0)
(0.110614 1.04097e-16 0)
(0.110614 -1.54216e-18 0)
(0.110614 -3.10264e-17 0)
(0.110614 -9.36097e-17 0)
(0.110614 1.44933e-17 0)
(0.110614 7.39163e-17 0)
(0.110614 -1.51762e-18 0)
(0.110614 -3.60624e-17 0)
(0.110614 -1.11619e-16 0)
(0.110614 2.15371e-17 0)
(0.110614 2.45992e-18 0)
(0.110614 2.5851e-17 0)
(0.110614 7.76183e-17 0)
(0.110614 -1.6141e-16 0)
(0.110614 -1.00101e-16 0)
(0.110614 8.63653e-17 0)
(0.110614 6.834e-17 0)
(0.110614 7.17467e-17 0)
(0.110614 -5.79369e-17 0)
(0.110614 -7.64499e-17 0)
(0.110614 7.12398e-17 0)
(0.110614 6.58245e-17 0)
(0.110614 1.07148e-16 0)
(0.110614 -1.12627e-16 0)
(0.110614 -5.51151e-19 0)
(0.110614 1.34854e-16 0)
(0.110614 -1.32694e-16 0)
(0.110614 7.22529e-17 0)
(0.110614 2.41695e-17 0)
(0.110614 -7.35145e-17 0)
(0.110614 1.64028e-16 0)
(0.110614 7.59124e-17 0)
(0.110614 6.08785e-18 0)
(0.110614 -1.06534e-16 0)
(0.110614 4.35013e-17 0)
(0.110614 7.78798e-17 0)
(0.110614 -6.9597e-17 0)
(0.110614 -5.96841e-17 0)
(0.110614 -6.9442e-17 0)
(0.110614 1.70297e-16 0)
(0.110614 -5.56105e-17 0)
(0.110614 -6.10889e-17 0)
(0.110614 1.22524e-16 0)
(0.110614 -2.0679e-16 0)
(0.110614 -2.12056e-17 0)
(0.110614 6.75735e-17 0)
(0.110614 -3.27692e-17 0)
(0.110614 1.41765e-16 0)
(0.110614 -1.31478e-16 0)
(0.110614 -5.97812e-18 0)
(0.110614 1.25241e-16 0)
(0.110614 -1.26543e-16 0)
(0.110614 5.06098e-17 0)
(0.110614 -1.69224e-17 0)
(0.110614 -8.30626e-17 0)
(0.110614 1.62275e-16 0)
(0.110614 -1.66627e-17 0)
(0.110614 1.23464e-17 0)
(0.110614 -8.82753e-17 0)
(0.110614 -2.13939e-17 0)
(0.110614 1.95452e-16 0)
(0.110614 -1.23e-16 0)
(0.110614 -1.61407e-17 0)
(0.110614 -1.00475e-16 0)
(0.110614 6.6561e-18 0)
(0.110614 2.08166e-16 0)
(0.110614 -7.24368e-17 0)
(0.110614 -1.48314e-16 0)
(0.110614 -1.1232e-16 0)
(0.110614 1.17996e-16 0)
(0.110614 1.28072e-16 0)
(0.110614 -4.01717e-17 0)
(0.110614 -1.13061e-16 0)
(0.110614 -1.09194e-16 0)
(0.110614 3.17154e-16 0)
(0.110614 1.80481e-17 0)
(0.110614 -2.90973e-16 0)
(0.110614 2.68567e-16 0)
(0.110614 2.98542e-17 0)
(0.110614 -8.11312e-17 0)
(0.110614 -7.07886e-17 0)
(0.110614 -1.69063e-16 0)
(0.110614 3.3309e-16 0)
(0.110614 5.45159e-17 0)
(0.110614 -1.45491e-16 0)
(0.110614 -7.36136e-17 0)
(0.110614 -1.8315e-16 0)
(0.110614 3.31788e-16 0)
(0.110614 7.33847e-18 0)
(0.110614 -1.23273e-16 0)
(0.110614 9.32833e-17 0)
(0.110614 -1.06189e-16 0)
(0.110614 1.63562e-16 0)
(0.110614 -4.19603e-17 0)
(0.110614 8.54443e-18 0)
(0.110614 8.96642e-17 0)
(0.110614 -2.3739e-16 0)
(0.110614 7.76848e-17 0)
(0.110614 7.18646e-17 0)
(0.110614 7.49407e-17 0)
(0.110614 1.20615e-16 0)
(0.110614 -2.04084e-16 0)
(0.110614 9.6043e-17 0)
(0.110614 -5.28157e-17 0)
(0.110614 4.52634e-17 0)
(0.110614 1.39782e-16 0)
(0.110614 -3.40598e-16 0)
(0.110614 2.35902e-17 0)
(0.110614 9.07288e-17 0)
(0.110614 1.16801e-16 0)
(0.110614 4.11954e-17 0)
(0.110614 -2.63446e-16 0)
(0.110614 2.07157e-16 0)
(0.110614 -2.28333e-17 0)
(0.110614 -1.57384e-16 0)
(0.110614 -3.28798e-17 0)
(0.110614 -1.74987e-16 0)
(0.110614 3.00083e-16 0)
(0.110614 -1.5967e-17 0)
(0.110614 -5.78897e-17 0)
(0.110614 1.15191e-16 0)
(0.110614 -2.43211e-16 0)
(0.110614 1.08583e-16 0)
(0.110614 4.75169e-17 0)
(0.110614 -3.34835e-17 0)
(0.110614 1.24266e-17 0)
(0.110614 -1.26006e-16 0)
(0.110614 2.22742e-16 0)
(0.110614 4.02422e-17 0)
(0.110614 -2.70787e-17 0)
(0.110614 -4.29256e-17 0)
(0.110614 -1.81666e-16 0)
(0.110614 1.61134e-16 0)
(0.110614 2.49814e-17 0)
(0.110614 4.5167e-17 0)
(0.110614 -5.99375e-17 0)
(0.110614 -2.04148e-16 0)
(0.110614 1.50533e-16 0)
(0.110614 2.40305e-18 0)
(0.110614 -5.38614e-17 0)
(0.110614 9.50819e-17 0)
(0.110614 -1.64114e-16 0)
(0.110614 6.53445e-17 0)
(0.110614 5.83542e-17 0)
(0.110614 -7.39363e-19 0)
(0.110614 6.63026e-18 0)
(0.110614 -1.65441e-16 0)
(0.110614 9.4975e-17 0)
(0.110614 1.33541e-16 0)
(0.110614 3.70864e-17 0)
(0.110614 -1.71537e-16 0)
(0.110614 -1.42776e-16 0)
(0.110614 2.15244e-16 0)
(0.110614 -3.66289e-17 0)
(0.110614 -7.543e-17 0)
(0.110614 -4.18164e-17 0)
(0.110614 -5.77822e-17 0)
(0.110614 2.24807e-16 0)
(0.110614 -4.24439e-17 0)
(0.110614 -8.16144e-17 0)
(0.110614 -1.06015e-16 0)
(0.110614 -4.63184e-17 0)
(0.110614 2.67029e-16 0)
(0.110614 3.22707e-17 0)
(0.110614 5.63744e-17 0)
(0.110614 -1.23441e-16 0)
(0.110614 -2.32201e-16 0)
(0.110614 9.59585e-17 0)
(0.110614 5.74321e-17 0)
(0.110614 8.73673e-17 0)
(0.110614 -1.64732e-16 0)
(0.110614 -2.79617e-17 0)
(0.110614 5.1598e-17 0)
(0.110614 -1.67259e-16 0)
(0.110614 9.80529e-17 0)
(0.110614 -9.09242e-17 0)
(0.110614 -1.96056e-16 0)
(0.110614 1.54641e-17 0)
(0.110614 -2.3184e-16 0)
(0.110614 -1.47445e-16 0)
(0.110614 -5.00195e-16 0)
(0.110614 -1.5922e-15 0)
(0.181856 -3.30056e-15 0)
(0.181856 -1.50191e-15 0)
(0.181856 -7.14437e-16 0)
(0.181856 -3.77987e-16 0)
(0.181856 -2.21852e-16 0)
(0.181856 -1.45112e-16 0)
(0.181856 -1.03708e-16 0)
(0.181856 -5.55884e-17 0)
(0.181856 -6.01985e-18 0)
(0.181856 -1.56008e-17 0)
(0.181856 -9.50532e-18 0)
(0.181856 2.32468e-17 0)
(0.181856 6.85066e-17 0)
(0.181856 2.68653e-17 0)
(0.181856 -3.35673e-17 0)
(0.181856 2.05222e-17 0)
(0.181856 5.94894e-17 0)
(0.181856 3.91305e-17 0)
(0.181856 1.73377e-17 0)
(0.181856 9.763e-18 0)
(0.181856 3.96464e-17 0)
(0.181856 2.22952e-18 0)
(0.181856 -4.18234e-17 0)
(0.181856 -6.52146e-17 0)
(0.181856 -6.43704e-17 0)
(0.181856 -6.07019e-17 0)
(0.181856 -1.37545e-17 0)
(0.181856 -8.81987e-17 0)
(0.181856 -1.41151e-16 0)
(0.181856 -1.19886e-16 0)
(0.181856 -4.93335e-18 0)
(0.181856 9.79852e-17 0)
(0.181856 1.74546e-17 0)
(0.181856 -3.38585e-17 0)
(0.181856 -1.79819e-17 0)
(0.181856 4.80536e-18 0)
(0.181856 6.45775e-17 0)
(0.181856 5.65725e-19 0)
(0.181856 -6.77145e-17 0)
(0.181856 1.61548e-17 0)
(0.181856 -1.86505e-17 0)
(0.181856 7.15387e-18 0)
(0.181856 3.17908e-17 0)
(0.181856 -4.94901e-17 0)
(0.181856 -3.63394e-17 0)
(0.181856 1.89845e-18 0)
(0.181856 -1.89132e-17 0)
(0.181856 -5.63521e-17 0)
(0.181856 -7.30922e-17 0)
(0.181856 -7.77863e-17 0)
(0.181856 -8.80879e-17 0)
(0.181856 -2.32733e-17 0)
(0.181856 -4.70691e-17 0)
(0.181856 -6.40151e-17 0)
(0.181856 -1.91291e-17 0)
(0.181856 -8.76757e-17 0)
(0.181856 -2.18877e-17 0)
(0.181856 -1.31193e-17 0)
(0.181856 -1.52455e-18 0)
(0.181856 1.3854e-17 0)
(0.181856 -1.27358e-16 0)
(0.181856 8.54262e-17 0)
(0.181856 -5.09237e-18 0)
(0.181856 -4.12312e-18 0)
(0.181856 1.4509e-16 0)
(0.181856 -4.08479e-17 0)
(0.181856 5.3624e-17 0)
(0.181856 4.63192e-17 0)
(0.181856 4.3483e-17 0)
(0.181856 8.72777e-17 0)
(0.181856 -2.97032e-17 0)
(0.181856 -1.76286e-17 0)
(0.181856 -3.30124e-17 0)
(0.181856 1.64724e-17 0)
(0.181856 6.5417e-17 0)
(0.181856 -1.20732e-16 0)
(0.181856 -1.18706e-16 0)
(0.181856 8.12856e-18 0)
(0.181856 -5.03356e-17 0)
(0.181856 1.81187e-17 0)
(0.181856 -8.35887e-17 0)
(0.181856 -1.54658e-16 0)
(0.181856 3.80754e-17 0)
(0.181856 1.0783e-16 0)
(0.181856 9.66939e-17 0)
(0.181856 -1.16905e-17 0)
(0.181856 1.6454e-17 0)
(0.181856 -5.52047e-18 0)
(0.181856 4.55843e-17 0)
(0.181856 1.9623e-16 0)
(0.181856 -3.20756e-17 0)
(0.181856 -8.86356e-17 0)
(0.181856 4.71013e-17 0)
(0.181856 5.95565e-17 0)
(0.181856 4.73e-17 0)
(0.181856 -2.31133e-17 0)
(0.181856 1.53036e-17 0)
(0.181856 -1.54736e-18 0)
(0.181856 -1.71512e-18 0)
(0.181856 -4.08055e-18 0)
(0.181856 -4.31604e-17 0)
(0.181856 -1.56819e-17 0)
(0.181856 -6.19334e-17 0)
(0.181856 1.42866e-17 0)
(0.181856 9.78537e-17 0)
(0.181856 1.07005e-16 0)
(0.181856 -9.01701e-17 0)
(0.181856 -7.26157e-17 0)
(0.181856 1.90121e-16 0)
(0.181856 1.93456e-16 0)
(0.181856 -1.30991e-17 0)
(0.181856 -2.96437e-16 0)
(0.181856 4.86196e-17 0)
(0.181856 2.55651e-16 0)
(0.181856 1.02436e-16 0)
(0.181856 -5.65117e-17 0)
(0.181856 -2.63934e-16 0)
(0.181856 -9.29924e-17 0)
(0.181856 2.72167e-16 0)
(0.181856 1.0669e-16 0)
(0.181856 -2.14828e-16 0)
(0.181856 -3.00391e-16 0)
(0.181856 -1.04403e-17 0)
(0.181856 3.72043e-16 0)
(0.181856 2.15522e-16 0)
(0.181856 -1.78221e-16 0)
(0.181856 -3.471e-16 0)
(0.181856 1.06824e-16 0)
(0.181856 3.39522e-16 0)
(0.181856 3.17008e-17 0)
(0.181856 -1.08156e-16 0)
(0.181856 -2.15911e-16 0)
(0.181856 3.79808e-17 0)
(0.181856 2.17421e-16 0)
(0.181856 -3.9314e-17 0)
(0.181856 -1.36226e-16 0)
(0.181856 -2.24435e-16 0)
(0.181856 -6.67554e-17 0)
(0.181856 1.85738e-16 0)
(0.181856 1.96699e-18 0)
(0.181856 -1.3939e-16 0)
(0.181856 -1.67494e-16 0)
(0.181856 5.81638e-17 0)
(0.181856 1.2447e-16 0)
(0.181856 -8.36172e-17 0)
(0.181856 -1.06495e-16 0)
(0.181856 -1.41724e-16 0)
(0.181856 8.62996e-17 0)
(0.181856 8.60472e-18 0)
(0.181856 -9.52486e-17 0)
(0.181856 9.6695e-17 0)
(0.181856 -1.30668e-16 0)
(0.181856 -1.62263e-16 0)
(0.181856 5.16779e-17 0)
(0.181856 1.0956e-16 0)
(0.181856 1.43902e-16 0)
(0.181856 -5.42633e-17 0)
(0.181856 -1.22692e-16 0)
(0.181856 9.40908e-17 0)
(0.181856 1.78248e-16 0)
(0.181856 1.92707e-16 0)
(0.181856 -1.47921e-16 0)
(0.181856 -3.99058e-17 0)
(0.181856 2.14546e-16 0)
(0.181856 -4.35668e-17 0)
(0.181856 5.47069e-17 0)
(0.181856 6.59794e-17 0)
(0.181856 6.65387e-17 0)
(0.181856 1.57372e-16 0)
(0.181856 7.65915e-17 0)
(0.181856 1.21776e-17 0)
(0.181856 -1.10096e-16 0)
(0.181856 8.33017e-17 0)
(0.181856 1.68402e-16 0)
(0.181856 -4.79231e-18 0)
(0.181856 -1.787e-16 0)
(0.181856 -1.99025e-16 0)
(0.181856 7.55254e-17 0)
(0.181856 -1.44997e-17 0)
(0.181856 1.25274e-16 0)
(0.181856 3.88193e-17 0)
(0.181856 -4.0279e-16 0)
(0.181856 -6.4284e-17 0)
(0.181856 1.76114e-16 0)
(0.181856 5.09081e-17 0)
(0.181856 1.33632e-16 0)
(0.181856 -1.86134e-16 0)
(0.181856 -6.50017e-17 0)
(0.181856 1.72595e-16 0)
(0.181856 -5.25686e-17 0)
(0.181856 -1.43386e-17 0)
(0.181856 -1.76139e-17 0)
(0.181856 -4.13756e-17 0)
(0.181856 1.24033e-16 0)
(0.181856 8.88665e-17 0)
(0.181856 4.22448e-17 0)
(0.181856 -1.05731e-16 0)
(0.181856 -5.9753e-17 0)
(0.181856 9.63549e-17 0)
(0.181856 -3.91544e-17 0)
(0.181856 -5.95681e-17 0)
(0.181856 -9.59183e-17 0)
(0.181856 2.77832e-17 0)
(0.181856 1.11331e-16 0)
(0.181856 -5.46434e-17 0)
(0.181856 -1.32049e-16 0)
(0.181856 -1.29042e-16 0)
(0.181856 5.09732e-17 0)
(0.181856 6.53463e-17 0)
(0.181856 -1.78594e-18 0)
(0.181856 -3.35242e-17 0)
(0.181856 -1.47904e-16 0)
(0.181856 4.13378e-16 0)
(0.181856 4.38531e-17 0)
(0.181856 -3.29134e-16 0)
(0.181856 3.25699e-16 0)
(0.181856 -6.77459e-17 0)
(0.181856 2.6049e-17 0)
(0.181856 -8.39138e-17 0)
(0.181856 -3.15024e-16 0)
(0.181856 5.03083e-16 0)
(0.181856 3.47409e-17 0)
(0.181856 -1.38201e-16 0)
(0.181856 -7.36689e-17 0)
(0.181856 -3.41159e-16 0)
(0.181856 4.91151e-16 0)
(0.181856 6.16677e-17 0)
(0.181856 -1.67096e-16 0)
(0.181856 6.13392e-17 0)
(0.181856 -1.71377e-16 0)
(0.181856 4.47858e-16 0)
(0.181856 3.41983e-17 0)
(0.181856 -1.12874e-16 0)
(0.181856 9.95958e-17 0)
(0.181856 -3.20537e-16 0)
(0.181856 1.04268e-16 0)
(0.181856 4.03554e-18 0)
(0.181856 3.04479e-16 0)
(0.181856 3.2558e-16 0)
(0.181856 -4.13398e-16 0)
(0.181856 1.32079e-16 0)
(0.181856 -1.28349e-16 0)
(0.181856 1.4057e-16 0)
(0.181856 2.17627e-16 0)
(0.181856 -6.51594e-16 0)
(0.181856 6.83447e-17 0)
(0.181856 1.47407e-16 0)
(0.181856 1.88477e-16 0)
(0.181856 5.08919e-17 0)
(0.181856 -4.2671e-16 0)
(0.181856 4.76497e-16 0)
(0.181856 -5.48718e-17 0)
(0.181856 -4.20163e-16 0)
(0.181856 -2.58871e-16 0)
(0.181856 -2.33504e-16 0)
(0.181856 7.06816e-16 0)
(0.181856 -3.81215e-17 0)
(0.181856 -1.69378e-16 0)
(0.181856 1.37102e-16 0)
(0.181856 -3.71692e-16 0)
(0.181856 2.23469e-16 0)
(0.181856 2.96389e-17 0)
(0.181856 2.18199e-17 0)
(0.181856 1.1856e-17 0)
(0.181856 -2.34752e-16 0)
(0.181856 4.71275e-16 0)
(0.181856 1.11001e-17 0)
(0.181856 -9.56531e-17 0)
(0.181856 1.21665e-17 0)
(0.181856 -3.30884e-16 0)
(0.181856 2.56962e-16 0)
(0.181856 4.68674e-17 0)
(0.181856 -8.10013e-18 0)
(0.181856 -1.81441e-17 0)
(0.181856 -3.72882e-16 0)
(0.181856 2.4042e-16 0)
(0.181856 4.57654e-18 0)
(0.181856 -2.13257e-17 0)
(0.181856 1.0897e-16 0)
(0.181856 -4.0293e-16 0)
(0.181856 1.6775e-16 0)
(0.181856 2.26961e-17 0)
(0.181856 1.35669e-17 0)
(0.181856 1.30834e-16 0)
(0.181856 -3.20959e-16 0)
(0.181856 2.48955e-16 0)
(0.181856 2.18679e-16 0)
(0.181856 -1.28022e-16 0)
(0.181856 -1.70436e-16 0)
(0.181856 -2.46085e-16 0)
(0.181856 2.6054e-16 0)
(0.181856 6.6698e-17 0)
(0.181856 -2.12211e-16 0)
(0.181856 2.42586e-17 0)
(0.181856 -1.03528e-16 0)
(0.181856 1.26317e-16 0)
(0.181856 1.98197e-16 0)
(0.181856 -1.73483e-16 0)
(0.181856 -1.27228e-16 0)
(0.181856 -1.43929e-16 0)
(0.181856 2.84327e-16 0)
(0.181856 3.95773e-16 0)
(0.181856 4.11468e-17 0)
(0.181856 -3.92053e-16 0)
(0.181856 -1.98132e-16 0)
(0.181856 2.26594e-16 0)
(0.181856 3.95488e-17 0)
(0.181856 1.81721e-17 0)
(0.181856 -3.1459e-16 0)
(0.181856 -2.10081e-17 0)
(0.181856 8.68942e-17 0)
(0.181856 -2.62731e-16 0)
(0.181856 7.11069e-17 0)
(0.181856 -1.3155e-16 0)
(0.181856 -2.81268e-16 0)
(0.181856 -1.52999e-16 0)
(0.181856 -3.56764e-16 0)
(0.181856 -1.25632e-16 0)
(0.181856 -7.57991e-16 0)
(0.181856 -1.72312e-15 0)
(0.251223 -2.19226e-15 0)
(0.251223 -1.44348e-15 0)
(0.251223 -7.89415e-16 0)
(0.251223 -4.64195e-16 0)
(0.251223 -3.19315e-16 0)
(0.251223 -1.90651e-16 0)
(0.251223 -1.13618e-16 0)
(0.251223 -5.28531e-17 0)
(0.251223 1.62096e-18 0)
(0.251223 -2.07197e-17 0)
(0.251223 -1.00383e-17 0)
(0.251223 5.37559e-17 0)
(0.251223 1.19893e-16 0)
(0.251223 4.42908e-17 0)
(0.251223 -2.9401e-17 0)
(0.251223 6.54905e-17 0)
(0.251223 1.08131e-16 0)
(0.251223 7.43363e-17 0)
(0.251223 5.71182e-17 0)
(0.251223 3.28922e-17 0)
(0.251223 4.28096e-17 0)
(0.251223 -4.68113e-18 0)
(0.251223 -6.94158e-17 0)
(0.251223 -1.13935e-16 0)
(0.251223 -1.27096e-16 0)
(0.251223 -9.05464e-17 0)
(0.251223 -4.35089e-17 0)
(0.251223 -1.48846e-16 0)
(0.251223 -2.3688e-16 0)
(0.251223 -1.75438e-16 0)
(0.251223 -4.21579e-18 0)
(0.251223 9.10557e-17 0)
(0.251223 2.8473e-17 0)
(0.251223 -1.66861e-17 0)
(0.251223 -3.33897e-17 0)
(0.251223 6.56189e-18 0)
(0.251223 7.12931e-17 0)
(0.251223 1.06821e-17 0)
(0.251223 -8.13875e-17 0)
(0.251223 -9.26802e-19 0)
(0.251223 -3.8827e-18 0)
(0.251223 1.12906e-17 0)
(0.251223 3.82263e-18 0)
(0.251223 -6.93994e-17 0)
(0.251223 -2.47336e-17 0)
(0.251223 7.83347e-18 0)
(0.251223 -4.53103e-17 0)
(0.251223 -1.09212e-16 0)
(0.251223 -1.4623e-16 0)
(0.251223 -1.39594e-16 0)
(0.251223 -1.60193e-16 0)
(0.251223 -5.89559e-17 0)
(0.251223 -5.33026e-17 0)
(0.251223 -1.15745e-16 0)
(0.251223 -3.17399e-17 0)
(0.251223 -1.4574e-16 0)
(0.251223 -6.55628e-17 0)
(0.251223 -4.37637e-17 0)
(0.251223 -2.87253e-17 0)
(0.251223 2.46535e-17 0)
(0.251223 -1.59128e-16 0)
(0.251223 4.20506e-17 0)
(0.251223 1.41935e-17 0)
(0.251223 4.80656e-17 0)
(0.251223 1.62472e-16 0)
(0.251223 -2.98192e-17 0)
(0.251223 1.37582e-16 0)
(0.251223 7.51571e-17 0)
(0.251223 1.02381e-16 0)
(0.251223 1.45364e-16 0)
(0.251223 -7.16082e-17 0)
(0.251223 -2.50669e-17 0)
(0.251223 -4.53616e-17 0)
(0.251223 1.55385e-17 0)
(0.251223 9.00124e-17 0)
(0.251223 -1.76588e-16 0)
(0.251223 -1.48078e-16 0)
(0.251223 -5.30584e-17 0)
(0.251223 -1.02655e-16 0)
(0.251223 1.92732e-17 0)
(0.251223 -1.49352e-16 0)
(0.251223 -2.26017e-16 0)
(0.251223 2.88391e-17 0)
(0.251223 1.92245e-16 0)
(0.251223 1.77271e-16 0)
(0.251223 -4.38457e-18 0)
(0.251223 3.00451e-17 0)
(0.251223 6.05605e-17 0)
(0.251223 9.87682e-17 0)
(0.251223 2.23722e-16 0)
(0.251223 1.77125e-17 0)
(0.251223 -8.39513e-17 0)
(0.251223 2.4175e-17 0)
(0.251223 1.0897e-16 0)
(0.251223 8.62296e-17 0)
(0.251223 -6.83027e-17 0)
(0.251223 5.96576e-17 0)
(0.251223 2.04823e-17 0)
(0.251223 -1.82884e-17 0)
(0.251223 -1.79048e-17 0)
(0.251223 -6.3879e-17 0)
(0.251223 -6.79762e-17 0)
(0.251223 -1.13123e-16 0)
(0.251223 3.98683e-17 0)
(0.251223 2.06563e-16 0)
(0.251223 1.58399e-16 0)
(0.251223 -1.38797e-16 0)
(0.251223 -9.62661e-17 0)
(0.251223 3.28979e-16 0)
(0.251223 3.13192e-16 0)
(0.251223 -4.1298e-17 0)
(0.251223 -3.77593e-16 0)
(0.251223 4.33806e-17 0)
(0.251223 3.45306e-16 0)
(0.251223 2.17859e-16 0)
(0.251223 -1.87342e-17 0)
(0.251223 -4.13279e-16 0)
(0.251223 -1.60185e-16 0)
(0.251223 3.44895e-16 0)
(0.251223 1.80337e-16 0)
(0.251223 -3.39291e-16 0)
(0.251223 -4.67986e-16 0)
(0.251223 8.30863e-18 0)
(0.251223 5.02758e-16 0)
(0.251223 2.57035e-16 0)
(0.251223 -1.87615e-16 0)
(0.251223 -3.82009e-16 0)
(0.251223 1.05541e-16 0)
(0.251223 4.64102e-16 0)
(0.251223 7.64149e-17 0)
(0.251223 -2.11114e-16 0)
(0.251223 -2.41817e-16 0)
(0.251223 -4.57821e-18 0)
(0.251223 2.45705e-16 0)
(0.251223 2.15973e-17 0)
(0.251223 -1.95875e-16 0)
(0.251223 -3.77712e-16 0)
(0.251223 -1.29797e-16 0)
(0.251223 3.15003e-16 0)
(0.251223 2.45375e-17 0)
(0.251223 -2.48586e-16 0)
(0.251223 -3.34568e-16 0)
(0.251223 5.34637e-17 0)
(0.251223 1.53372e-16 0)
(0.251223 -5.96015e-17 0)
(0.251223 -1.09106e-16 0)
(0.251223 -3.21876e-16 0)
(0.251223 7.28937e-17 0)
(0.251223 4.90768e-17 0)
(0.251223 -7.43539e-17 0)
(0.251223 6.21085e-17 0)
(0.251223 -2.50407e-16 0)
(0.251223 -1.47989e-16 0)
(0.251223 8.82989e-17 0)
(0.251223 1.54237e-16 0)
(0.251223 1.51837e-16 0)
(0.251223 -9.59076e-17 0)
(0.251223 -8.99957e-17 0)
(0.251223 2.16607e-16 0)
(0.251223 2.7038e-16 0)
(0.251223 2.38537e-16 0)
(0.251223 -1.94883e-16 0)
(0.251223 3.07384e-17 0)
(0.251223 3.4035e-16 0)
(0.251223 -7.30885e-17 0)
(0.251223 1.16239e-16 0)
(0.251223 1.33577e-16 0)
(0.251223 1.61794e-16 0)
(0.251223 2.44051e-16 0)
(0.251223 1.22461e-16 0)
(0.251223 3.44648e-17 0)
(0.251223 -1.73334e-16 0)