/*--------------------------------*- C++ -*----------------------------------*\
| =========                 |                                                 |
| \\      /  F ield         | OpenFOAM: The Open Source CFD Toolbox           |
|  \\    /   O peration     | Version:  2112                                  |
|   \\  /    A nd           | Website:  www.openfoam.com                      |
|    \\/     M anipulation  |                                                 |
\*---------------------------------------------------------------------------*/
FoamFile
{
    version     2.0;
    format      ascii;
    arch        "LSB;label=32;scalar=64";
    class       volScalarField;
    location    "0.003";
    object      p;
}
// * * * * * * * * * * * * * * * * * * * * * * * * * * * * * * * * * * * * * //

dimensions      [0 2 -2 0 0 0 0];

internalField   nonuniform List<scalar> 
171426
(
0.000231695774784
0.000260303275656
0.00028050815448
0.00030671368236
0.00034419649036
0.000391409925136
0.000446387332113
0.000507280684817
0.000572163770342
0.000639079962517
0.000706103968114
0.000771394935601
0.000833208478545
0.000889852421255
0.000940513768979
0.000986799986172
0.00102197531452
0.00104771443143
0.00106432828328
0.00107165756449
0.0010698388244
0.00105921527986
0.0010402675492
0.00101357991886
0.000979807053998
0.000939642640608
0.000893792222802
0.000842950697055
0.000787784545324
0.000728918650929
0.000666927352166
0.000602329287918
0.000535585586148
0.00046710074051
0.000397225047035
0.000326261817282
0.000254487028733
0.000182097651188
0.000108951533092
3.53870280806e-05
0.000327271602465
0.000365057553431
0.000390097804415
0.000417782461314
0.000453653496996
0.000496574345371
0.000545207110056
0.000598177493882
0.000653928758278
0.000710840061736
0.000767302393058
0.000821767173666
0.00087277489515
0.000918992748009
0.000959419318502
0.000994069411671
0.00102026791741
0.00103829511987
0.00104801968666
0.00104941890667
0.00104267668626
0.00102812451796
0.00100620856307
0.000977461240351
0.000942472099141
0.000901861084309
0.000856255387896
0.000806270283111
0.000752494046451
0.000695476828049
0.000635723155296
0.000573687662401
0.000509773649946
0.000444333911045
0.000377672236471
0.000310047891949
0.000241698544842
0.000172799979733
0.000103121075403
3.29762779986e-05
0.000416261983567
0.000456256346655
0.000482440995856
0.000509898393319
0.000543949463697
0.000583479664691
0.000627349609933
0.000674403811841
0.000723303437721
0.000772644800955
0.000821029994804
0.000867108183577
0.000909595712129
0.000947414657067
0.000980201680639
0.00100614537379
0.00102488903145
0.00103617815698
0.00103985072532
0.00103595403303
0.00102469690556
0.00100641504607
0.000981543810708
0.000950589997097
0.000914105015313
0.000872661068344
0.000826830898874
0.000777171332673
0.000724210599521
0.000668439209876
0.000610304036578
0.000550205186722
0.000488495288754
0.000425480695664
0.000361422986675
0.000296542897536
0.000231044361614
0.000165077412138
9.83737899832e-05
3.12586849165e-05
0.000501518797061
0.000542067911937
0.000567634570986
0.000593848136822
0.000625894496961
0.000662468708955
0.00070242394428
0.000744685183038
0.000788032387176
0.000831200039836
0.000872935353493
0.000912032395088
0.000947342689975
0.000977922909975
0.00100371387839
0.00102240847765
0.00103445333121
0.00103952235119
0.00103750687464
0.00102851391333
0.00101279450565
0.00099071133909
0.000962710824097
0.000929295368851
0.000890998261845
0.00084836208653
0.000801920946765
0.000752186527331
0.000699637795182
0.000644713996128
0.000587810521285
0.000529277194517
0.000469418609594
0.000408496068328
0.000346729566849
0.000284302006313
0.000221384021621
0.000158098807165
9.41533791757e-05
2.98426144403e-05
0.000583531734032
0.000624939106577
0.00064943523584
0.000673991847018
0.000703946264901
0.000737788545775
0.000774305396827
0.000812440117201
0.00085103103471
0.000888895303845
0.000924873834077
0.000957853906021
0.000986773675089
0.00101074959671
0.00102993292484
0.00104227481086
0.00104806717758
0.00104717482089
0.0010395985844
0.00102552173362
0.0010052567306
0.000979211890383
0.000947862319247
0.000911722524501
0.000871322533592
0.000827188194603
0.00077982571965
0.00072971025393
0.00067727806402
0.000622921838149
0.000566988568805
0.000509779509621
0.00045155182185
0.000392521492548
0.000332866035182
0.000272729142503
0.000212245749429
0.000151508520723
9.02009795643e-05
2.85631265127e-05
0.000660763112165
0.000703198642971
0.000726313742254
0.000748976531986
0.00077686940566
0.000808277164162
0.000841886763233
0.000876614712445
0.000911307245626
0.000944813629477
0.000976017974771
0.00100384853991
0.00102732311887
0.00104568953856
0.00105893708539
0.00106547110791
0.00106549102088
0.00105897380764
0.00104603942739
0.00102696424275
0.00100213833304
0.000972032737724
0.000937168384592
0.000898088052086
0.000855333112389
0.000809425377066
0.000760853820374
0.000710065670723
0.000657461204872
0.000603391540075
0.000548158748374
0.000492017709148
0.000435179284385
0.000377814414007
0.000320057701283
0.000262012575386
0.000203776189284
0.000145407947552
8.65688041868e-05
2.74242359148e-05
0.000732574047293
0.00077613887765
0.000797657141777
0.00081829973122
0.000844233791477
0.000873541152447
0.000904787777304
0.00093682978947
0.000968479383052
0.000998572786953
0.00102599461545
0.00104968054466
0.00106877454684
0.00108308867094
0.00109050113974
0.00109169714355
0.00108640779076
0.00107461306345
0.0010565449734
0.00103258252917
0.00100320835893
0.000968972898893
0.000930459434155
0.000888254416039
0.000842924271179
0.000794998534391
0.000744958700842
0.000693231924127
0.000640188581371
0.000586142757902
0.000531354812517
0.000476035337476
0.000420350053057
0.000364425240466
0.00030835234287
0.00025219368424
0.000196006953572
0.000139816176337
8.32601461436e-05
2.64164426479e-05
0.000798664957633
0.00084340426026
0.00086314887982
0.000881699738128
0.000905813384084
0.000933368534519
0.000962793814573
0.000992857665157
0.00102230120827
0.00104990378692
0.00107450522785
0.001095004082
0.00111052243359
0.00112097517098
0.00112397509027
0.00112056134108
0.00111044752597
0.00109373116374
0.00107076099668
0.00104203223447
0.00100813717688
0.000969722537268
0.00092744991531
0.000881963872899
0.000833868423864
0.000783711336004
0.000731975174647
0.000679073774707
0.000625352795021
0.000571093128837
0.000516516140919
0.000461789932516
0.000407036121688
0.000352336745419
0.000297739977487
0.000243266443991
0.000188933148028
0.00013472722172
8.02656214833e-05
2.55293097618e-05
0.000858808083583
0.00090468862679
0.000922475094798
0.000938879007389
0.000961323485438
0.00098747893362
0.00101562092558
0.00104440557597
0.00107246856062
0.00109848975987
0.0011212162203
0.00113945683933
0.00115223656357
0.00115950884909
0.00115913885353
0.00115169671152
0.00113723673292
0.00111595422033
0.00108831769492
0.00105495356274
0.00101658079943
0.00097395892013
0.000927843027136
0.000878949115737
0.000827930025326
0.000775360936251
0.00072173277854
0.00066745172426
0.000612842997244
0.00055815746156
0.000503579751048
0.000449237021229
0.000395207757944
0.00034153025498
0.00028820952697
0.000235224258089
0.00018255008316
0.000130136402721
7.75789697548e-05
2.47564383815e-05
0.000912852864724
0.000959770981916
0.000975400193862
0.000989604087282
0.00101052915836
0.00103562952758
0.00106301257752
0.00109119941465
0.00111868781628
0.00114401577392
0.00116578481486
0.00118264766134
0.00119349090604
0.00119855629437
0.00119544297012
0.00118465688076
0.00116634476345
0.00114085011493
0.00110878561832
0.00107092717178
0.00102813743246
0.000981304483344
0.000931290890046
0.000878895908227
0.000824830858098
0.000769705979683
0.0007140264813
0.000658195363647
0.000602520783091
0.00054722607626
0.000492460990017
0.00043831307819
0.000384818652054
0.00033197291105
0.000279738105016
0.000228051142385
0.000176846172468
0.000126034677337
7.51922098936e-05
2.40918745698e-05
0.000960734990839
0.00100852902766
0.00102179572225
0.00103374718054
0.00105329290792
0.00107766298437
0.0011047835987
0.00113302130494
0.00116070671171
0.00118619279485
0.00120786976712
0.00122412403108
0.00123354160794
0.00123757828042
0.00123251404793
0.00121897251918
0.00119726859176
0.0011679026641
0.00113164923329
0.001089449808
0.00104232605059
0.000991308571793
0.000937379371992
0.000881430753107
0.000824240212477
0.000766458928282
0.000708610796236
0.000651098934441
0.000594216905165
0.000538162418146
0.00048305183905
0.000428934352299
0.000375805129347
0.000323617155945
0.00027229066875
0.000221721432618
0.00017180258375
0.000122408129052
7.30947394793e-05
2.35289787946e-05
0.00100248251849
0.00105094639791
0.00106165626271
0.00107131039892
0.00108960372068
0.0011135373572
0.00114084752655
0.00116973233774
0.00119833372755
0.00122478461109
0.00124720215274
0.00126352702675
0.00127105513105
0.00127607377062
0.00126984367975
0.00125408198668
0.00122940257814
0.00119648738822
0.0011562864467
0.00110991791367
0.00105857403934
0.00100343878093
0.000945622662357
0.000886118172086
0.000825774337028
0.000765287175049
0.000705202101351
0.000645924462355
0.000587734893964
0.000530806902278
0.000475224777384
0.000421000591875
0.000368089615779
0.000316403843508
0.000265822696666
0.000216201959161
0.000167394851538
0.000119238976831
7.12736830263e-05
2.30602208605e-05
0.00103822306906
0.00108712375312
0.00109511781203
0.00110245053074
0.00111960555848
0.00114335498212
0.00117124197316
0.00120128943324
0.00123144168747
0.00125960768907
0.00128366687795
0.00130167020196
0.001312422822
0.00131465791296
0.00130697527436
0.00128931624699
0.00126200631936
0.00122584726113
0.00118195161784
0.00113161590693
0.00107620953688
0.00101707654209
0.000955461437948
0.0008924608656
0.000828998068914
0.000765815690903
0.000703481924447
0.000642405378399
0.000582854783068
0.000524980571418
0.000468836250787
0.000414398239932
0.000361583503238
0.000310264735601
0.000260282287513
0.000211453724783
0.00016359411693
0.000116506371762
6.97142437525e-05
2.26771685018e-05
0.00106818577647
0.0011172850222
0.00112246909896
0.00112749491101
0.00114361650829
0.00116738288382
0.00119614697775
0.00122775437731
0.00125994316962
0.00129038540024
0.00131670270574
0.00133682445238
0.00134988161344
0.00135138540742
0.00134288996169
0.00132373530268
0.00129415833131
0.00125507821657
0.00120777088747
0.00115371602454
0.00109446405422
0.00103152165909
0.000966268690221
0.000899906306165
0.000833431759182
0.000767633942483
0.000703103605327
0.000640252757592
0.000579338822266
0.000520490231793
0.000463731214014
0.000409004390641
0.000356190540496
0.000305125353458
0.000255612498444
0.000207433754129
0.000160368511915
0.000114187342864
6.84002499022e-05
2.23706796588e-05
0.00109269365466
0.00114177292587
0.00114414906028
0.00114694127528
0.00116213167636
0.00118605911745
0.00121589576211
0.00124931392804
0.00128384222773
0.00131690400165
0.0013458417325
0.00136829825279
0.00138318110289
0.00138527072392
0.00137653769314
0.00135628645096
0.0013248108084
0.00128315388439
0.00123276022782
0.00117529514981
0.00111248908878
0.00104600862041
0.000977365394528
0.000907861434373
0.000838564757388
0.000770308031882
0.000703703048456
0.000639164712464
0.000576939587477
0.000517135383052
0.000459748996767
0.000404691708069
0.000351810914696
0.000300908320427
0.000251754034008
0.00020409720089
0.000157684744913
0.000112257914929
6.73148731687e-05
2.21312449711e-05
0.00111214384526
0.00116102970653
0.00116072510684
0.0011614353345
0.00117580273312
0.00119997651311
0.0012309647724
0.00126627855605
0.00130324459966
0.00133903802543
0.00137071349394
0.00139556533481
0.00141206409643
0.00141542583774
0.00140685585742
0.00138585552387
0.00135283453425
0.00130896603152
0.0012558626083
0.00119536940888
0.00112938821065
0.00105973593619
0.000988046871296
0.000915715945564
0.000843875665272
0.000773398073497
0.000704913457321
0.000638838762224
0.000575410276277
0.000514716724747
0.000456730285176
0.000401334118369
0.000348345858014
0.000297537054991
0.000248648167709
0.000201399613799
0.000155509803833
0.000110694324673
6.6441447464e-05
2.1949422e-05
0.00112697518231
0.00117556101381
0.00117284895836
0.00117172196017
0.00118538923385
0.00120983822715
0.0012419367623
0.00127905507668
0.00131833861883
0.00135673369705
0.00139102372552
0.00141818604644
0.00143636389896
0.00144101744696
0.00143279406911
0.00141131006676
0.00137707395304
0.00133138285931
0.00127600443584
0.00121294666424
0.00114426459687
0.00107190824542
0.000997619388486
0.000922873591634
0.000848858731016
0.00077648018341
0.000706383467932
0.000638986658704
0.000574516742657
0.000513045866205
0.000454524914084
0.000398813031082
0.000345702586852
0.000294939664031
0.0002462397797
0.000199299270309
0.000153812703541
0.000109474274815
6.57643333479e-05
2.18163182739e-05
0.0011376251289
0.00118588423103
0.00118119101273
0.00117857063424
0.00119168194888
0.00121638504672
0.00124943732186
0.00128809630141
0.00132935896942
0.00136998069233
0.0014065154492
0.0014356802711
0.00145539015853
0.0014611716904
0.00145333867295
0.00143156143337
0.00139642348326
0.00134932728327
0.0012921701453
0.00122709465516
0.00115628144779
0.00108178865392
0.00100544464833
0.000928789398208
0.000853054570902
0.000779171555363
0.000707797424811
0.000639350653438
0.000574050463789
0.00051195560716
0.00045299998067
0.000397023715409
0.000343799290069
0.000293052823029
0.000244480350524
0.000197759457411
0.000152566186311
0.000108578155763
6.52697708219e-05
2.17240822285e-05
0.00114448104432
0.00119246675934
0.00118635997933
0.0011826826456
0.00119540578651
0.0012203016822
0.00125405169412
0.00129383478593
0.0013365426361
0.00137879334686
0.00141697453851
0.0014476167673
0.00146848448807
0.00147510633448
0.00146759931547
0.00144566051806
0.0014099245759
0.00136187034217
0.00130348863398
0.00123701832275
0.00116472929279
0.0010887560287
0.00101098767071
0.000933009074564
0.000856082192867
0.000781156206211
0.000708895896707
0.000639719727219
0.000573841302564
0.000511309925114
0.00045204762818
0.000395881344226
0.000342569804382
0.000291825375792
0.000243330713959
0.000196750554426
0.000151748267861
0.000107990155736
6.49466596586e-05
2.16663607948e-05
0.0011478330393
0.0011956637764
0.00118882032887
0.00118459466792
0.00119711779796
0.00122211722351
0.00125623559247
0.00129661156384
0.00134008219389
0.00138319380685
0.00142224664938
0.00145367389399
0.00147516421472
0.00148223461485
0.00147491020458
0.00145290074483
0.00141686634211
0.00136832591788
0.00130931928889
0.00124213555386
0.00116909098101
0.00109235958281
0.00101386183177
0.000935205630805
0.000857668403611
0.000782208353342
0.000709494105215
0.000639944018031
0.00057376874049
0.000511012681259
0.000451591768307
0.000395326167966
0.000341967583329
0.000291221366811
0.000242763360301
0.000196251766142
0.000151343519204
0.000107699180024
6.4787208183e-05
2.16386843965e-05
0.00114783652665
0.00119566724987
0.00118882377509
0.00118459809121
0.00119712120327
0.00122212061376
0.0012562389697
0.00129661492943
0.00134008554797
0.00138319714742
0.00142224997015
0.0014536771848
0.00147516747812
0.00148223781896
0.001474913345
0.00145290380598
0.0014168693117
0.00136832878629
0.00130932204857
0.00124213819925
0.0011690935082
0.00109236198922
0.00101386411572
0.000935207791159
0.000857670439519
0.000782210264029
0.000709495889857
0.000639945675689
0.000573770270138
0.00051101408176
0.000451593038477
0.000395327306607
0.000341968589292
0.000291222239018
0.000242764097778
0.000196252368094
0.000151343985093
0.000107699508918
6.47873985423e-05
2.1638745063e-05
0.00114449147504
0.00119247715037
0.00118637029125
0.001182692891
0.00119541597993
0.0012203118321
0.00125406180641
0.00129384486452
0.00133655268138
0.00137880335303
0.00141698448738
0.00144762662931
0.00146849427329
0.00147511595318
0.00146760872509
0.00144566968324
0.00140993346427
0.00136187892635
0.00130349689234
0.00123702623919
0.00116473685596
0.00108876323098
0.00101099450708
0.000933015541607
0.000856088287942
0.000781161926881
0.000708901240386
0.000639724691021
0.000573845883284
0.000511314119271
0.000452051432169
0.000395884754418
0.000342572817274
0.000291827988107
0.000243332922763
0.000196752357304
0.000151749663185
0.000107991140722
6.4947229646e-05
2.16665422849e-05
0.00113764241001
0.00118590145211
0.00118120811024
0.00117858762804
0.00119169886205
0.00121640189249
0.00124945410941
0.00128811303671
0.00132937565302
0.00136999731512
0.00140653198275
0.00143569667011
0.00145540643754
0.00146118767899
0.00145335429577
0.00143157664262
0.00139643822729
0.00134934151966
0.00129218384053
0.00122710778396
0.00115629399218
0.00108180060166
0.00100545599117
0.000928800130288
0.000853064687528
0.000779181052134
0.000707806297064
0.000639358896041
0.000574058071096
0.000511962573145
0.000453006299104
0.000397029380078
0.000343804294987
0.000293057162635
0.000244484019846
0.000197762452363
0.000152568504134
0.000108579791804
6.52707172014e-05
2.17243830366e-05
0.00112699916147
0.00117558492055
0.00117287270801
0.00117174557824
0.00118541275033
0.00120986165886
0.00124196012068
0.0012790783692
0.00131836184624
0.00135675684748
0.00139104676014
0.0014182089007
0.00143638658148
0.00144103969548
0.00143281580644
0.00141133121666
0.00137709444778
0.00133140264335
0.00127602346635
0.00121296490908
0.0011442820328
0.00107192485612
0.000997635162509
0.000922888520439
0.000848872807435
0.000776493400563
0.000706395818587
0.000638998135013
0.000574527336128
0.000513055567893
0.00045453371485
0.000398820921891
0.000345709559053
0.000294945709629
0.000246244891568
0.000199303442604
0.000153815932318
0.000109476553527
6.57656507684e-05
2.18167359537e-05
0.00111217431449
0.00116106010028
0.0011607553228
0.00116146540183
0.00117583268652
0.00120000637147
0.00123099454839
0.00126630825839
0.00130327423062
0.00133906757394
0.00137074291755
0.00139559455832
0.00141209311283
0.00141545427294
0.00140688359407
0.00138588248034
0.00135286063575
0.00130899121855
0.00125588683431
0.00119539263781
0.00112941041547
0.00105975709707
0.000988066973528
0.000915734977514
0.000843893616692
0.000773414934368
0.000704929217172
0.000638853409877
0.000575423799876
0.000514729111982
0.00045674152361
0.000401344195832
0.000348354762958
0.000297544776806
0.000248654696982
0.000201404942828
0.000155513927427
0.000110697234369
6.64431285156e-05
2.19499532282e-05
0.00109273035539
0.00114180955741
0.00114418550652
0.00114697756666
0.00116216784975
0.00118609519205
0.00121593175077
0.00124934984117
0.00128387807271
0.00131693977749
0.00134587741056
0.0013683337719
0.00138321644023
0.0013853052677
0.0013765712976
0.0013563190462
0.00132484233508
0.00128318429255
0.00123278947422
0.00117532319806
0.00111251590961
0.0010460341909
0.000977389696446
0.000907884452362
0.000838586477366
0.000770328439884
0.000703722130021
0.000639182452393
0.000576955969931
0.000517150391837
0.000459762615737
0.00040470392158
0.000351821708033
0.000300917680172
0.000251761948311
0.000204103660112
0.000157689742572
0.000112261440623
6.73169084564e-05
2.21318856632e-05
0.00106822840535
0.00111732759658
0.00112251149267
0.00112753715338
0.00114365863562
0.00116742491353
0.00119618892154
0.00122779624778
0.00125998498452
0.00129042718504
0.00131674448427
0.00133686626239
0.00134992352505
0.00135142604777
0.0013429292795
0.00132377332979
0.00129419506112
0.00125511362653
0.00120780494578
0.00115374869744
0.00109449531102
0.00103155147357
0.000966297040003
0.000899933171358
0.000833457120981
0.000767657782109
0.000703125903516
0.000640273494407
0.000579357977255
0.00052050778436
0.000463747143877
0.000409018678341
0.000356203167909
0.000305136304162
0.00025562175805
0.000207441310975
0.000160374358186
0.000114191466246
6.84026281204e-05
2.23714250931e-05
0.0010382712842
0.00108717193521
0.00109516582842
0.00110249840741
0.00111965332841
0.00114340265851
0.00117128956425
0.00120133695257
0.00123148916669
0.00125965519935
0.00128371456639
0.00130171849101
0.00131247266934
0.00131470482354
0.00130702012244
0.00128935944567
0.00126204798478
0.00122588741773
0.00118199024995
0.001131652984
0.00107624502611
0.00101711041301
0.000955493663016
0.000892491419384
0.000829026926944
0.000765842828731
0.000703507317221
0.000642429000765
0.000582876609402
0.00052500057624
0.000468854409293
0.000414414528574
0.000361597900249
0.000310277221423
0.000260292845139
0.000211462340483
0.000163600781568
0.000116511071172
6.9716951737e-05
2.26780134402e-05
0.00100253594559
0.00105099981838
0.00106170954066
0.00107136355524
0.00108965678249
0.00111359033054
0.00114090041213
0.0011697851437
0.00119838648983
0.00122483743822
0.00124725535615
0.00126358203863
0.00127111828767
0.00127612721973
0.0012698936962
0.00125412999182
0.00122944885473
0.00119653200138
0.00115632938911
0.00110995915308
0.00105861353793
0.00100347650206
0.000945658571945
0.000886152238044
0.000825806528304
0.000765317460765
0.000705230450399
0.000645950843416
0.000587759275775
0.000530829254113
0.000475245069632
0.000421018796679
0.000368105707599
0.000316417799578
0.000265834497321
0.000216211588626
0.000167402299409
0.000119244227233
7.12767058336e-05
2.30611596849e-05
0.00096079322882
0.00100858728874
0.00102185387037
0.00103380523052
0.00105335087906
0.00107772087269
0.00110484139202
0.00113307899368
0.0011607643028
0.00118625033839
0.00120792740189
0.00122418207309
0.0012336004854
0.00123763463604
0.00123256819758
0.00121902478828
0.00119731909793
0.0011679514188
0.00113169620571
0.00108949495302
0.00104236932075
0.000991349921903
0.000937418759961
0.000881468139223
0.000824275558342
0.000766492195979
0.000708641947952
0.000651127932508
0.000594243712395
0.000538186998353
0.00048307415768
0.000428954377093
0.000375822830956
0.000323632508377
0.000272303649713
0.000221732024393
0.000171810774819
0.000122413902028
7.30980604598e-05
2.35300056356e-05
0.000912915490387
0.000959833662414
0.000975462796132
0.000989666620164
0.00101059163252
0.00103569192747
0.00106307487517
0.00109126157782
0.00111874981553
0.00114407759243
0.00116584645201
0.00118270906774
0.00119355176373
0.001198615932
0.00119550088728
0.00118471304612
0.00116639916463
0.00114090270479
0.00110883633727
0.00107097595799
0.00102818422639
0.000981349229744
0.000931333537795
0.000878936409247
0.000824869166155
0.000769742049478
0.000714060268079
0.000658226823264
0.000602549872359
0.000547252753517
0.00049248521579
0.00043833481588
0.000384837868543
0.000331989577202
0.000279752196034
0.00022806263879
0.000176855061863
0.000126040941194
7.51958108132e-05
2.40929834232e-05
0.000858874655177
0.000904755286255
0.00092254171559
0.000938945593648
0.000961390039554
0.000987545428373
0.0010156873168
0.00104447180891
0.00107253457344
0.0010985554863
0.00112128158293
0.00113952169443
0.00115230061864
0.00115957192186
0.00115920031977
0.00115175648255
0.001137294726
0.00111601035018
0.00108837187871
0.00105500572259
0.0010166308633
0.00097400682208
0.000927888706526
0.000878992515792
0.00082797109177
0.000775399616343
0.000721769020619
0.00066748547781
0.00061287421326
0.000558186093106
0.000503605753944
0.00044926035472
0.000395228385305
0.000341548144063
0.000288224650697
0.000235236595534
0.000182559621452
0.000130143122655
7.75828309309e-05
2.47576231894e-05
0.000798735017662
0.000843474442295
0.000863219068149
0.000881769934624
0.000905883584094
0.000933438699925
0.000962863885946
0.000992927567443
0.00102237085318
0.00104997307421
0.00107457403955
0.0010950722459
0.00111058971542
0.00112104155458
0.00112403992571
0.0011206244492
0.0011105088236
0.00109379054723
0.00107081836695
0.00104208750003
0.00100819025379
0.000969773348991
0.000927498391621
0.000882009948303
0.000833912036123
0.000783752425117
0.000732013682348
0.000679109644483
0.00062538597246
0.00057112356217
0.000516543781645
0.00046181473605
0.000407058047946
0.000352355759488
0.000297756050312
0.000243279553647
0.000188943281705
0.000134734360181
8.02697220088e-05
2.55305644855e-05
0.000732647125315
0.000776212113467
0.000797730435852
0.000818373086459
0.000844307197782
0.00087361456179
0.000904861116226
0.000936902965074
0.000968552285805
0.00099864529338
0.00102606658651
0.00104975180565
0.00106884493492
0.00108315833813
0.00109056907308
0.00109176330797
0.00108647210851
0.00107467541868
0.00105660525494
0.00103264063378
0.00100326419149
0.000969026372485
0.000930510469105
0.000888302938301
0.000842970210834
0.000795041824583
0.00074499927722
0.000693269724786
0.000640223547144
0.000586174832837
0.000531383944386
0.000476061478321
0.000420373159807
0.000364445275757
0.000308369276062
0.000252207492997
0.000196017625843
0.000139823693632
8.32644642153e-05
2.64177613588e-05
0.000660838729417
0.000703274456861
0.000726389675699
0.000749052592596
0.000776945579168
0.000808353393198
0.0008419629612
0.000876690770335
0.00091138303574
0.00094488901005
0.00097609279355
0.00100392263194
0.00102739642928
0.00104576265668
0.00105900793502
0.00106554005663
0.00106555807525
0.00105903885586
0.00104610234882
0.00102702492292
0.00100219666588
0.000972088626059
0.000937221739416
0.000898138791047
0.000855381158275
0.000809470656705
0.000760896264028
0.00071010521191
0.000657497780554
0.000603425090985
0.000548189219347
0.000492045049521
0.000435203448571
0.000377835362608
0.000320075402595
0.000262027007328
0.000203787341343
0.000145415802806
8.65733177266e-05
2.74256130832e-05
0.00058360941368
0.000625017027482
0.000649513349213
0.000674070168191
0.000704024775836
0.000737867179587
0.000774384054108
0.000812518673774
0.000851109345478
0.000888973207468
0.000924951160173
0.000957930477552
0.000986849285393
0.00101082403378
0.00103000609609
0.00104234621987
0.00104813667508
0.00104724228495
0.00103966387962
0.00102558473147
0.00100531731329
0.000979269950285
0.000947917758018
0.000911775251663
0.000871372465048
0.000827235251485
0.000779869827651
0.000729751342972
0.000677316068297
0.000622956696213
0.000567020223638
0.000509807908754
0.00045157691791
0.000392543244702
0.000332884411241
0.000272744121312
0.00021225732265
0.00015151667361
9.02056674031e-05
2.85645577262e-05
0.000501598085128
0.000542147495027
0.000567714431377
0.000593928298472
0.000625974937236
0.000662549350723
0.000702504675765
0.000744765866163
0.000788112861064
0.000831280125593
0.000873014862747
0.000912111136441
0.000947420437967
0.000977999404293
0.00100378926386
0.00102248208809
0.00103452500776
0.00103959196795
0.00103757428457
0.00102857897616
0.00101285709228
0.000990771331244
0.000962768113919
0.00092934985778
0.000891049859229
0.000848410708428
0.000801966515169
0.000752228969713
0.000699677044287
0.000644749989782
0.00058784320208
0.000529306509539
0.000469444510815
0.00040851851436
0.00034674852568
0.000284317458098
0.000221395960304
0.000158107220222
9.41582227935e-05
2.98440975485e-05
0.000416342480556
0.000456337196485
0.00048252221159
0.000509980007209
0.000544031447701
0.00058356193148
0.000627432036692
0.000674486248611
0.00072338570957
0.000772726712744
0.000821111341236
0.000867188758848
0.000909675296209
0.000947493074593
0.000980279202134
0.00100622095462
0.00102496261368
0.00103624964897
0.00103991997841
0.00103602089745
0.00102476124056
0.00100647672203
0.000981602709819
0.000950646012695
0.000914158050468
0.000872711034662
0.000826877715555
0.000777214925931
0.000724250902083
0.000668476160482
0.000610337579148
0.000550235269614
0.000488521864816
0.000425503724146
0.000361442436337
0.000296558749832
0.000231056612173
0.000165086049935
9.83787724771e-05
3.12602193089e-05
0.000327353038204
0.000365139383598
0.000390180069746
0.000417865201836
0.000453736682466
0.000496657882854
0.000545290870535
0.000598261319712
0.000654012463429
0.000710923435634
0.000767385211571
0.000821849212904
0.000872855943848
0.000919072804757
0.000959499315481
0.000994146759651
0.00102034312811
0.00103836821724
0.00104809052834
0.00104948732978
0.00104274253516
0.00102818764967
0.00100626884894
0.000977518565308
0.000942526360205
0.000901912189167
0.000856303253877
0.000806314836369
0.000752535221313
0.000695514566067
0.000635757403987
0.000573718373786
0.000509800780112
0.000444357421597
0.000377692097578
0.000310064085564
0.000241711066182
0.000172808816518
0.000103126186166
3.29778659638e-05
0.000231778229875
0.00026038616125
0.000280591511582
0.000306797537276
0.000344280814634
0.000391494631704
0.000446472297415
0.000507365753237
0.000572248752989
0.000639164638578
0.000706188090017
0.000771478238506
0.000833290694656
0.000889933249543
0.00094059333342
0.000986878325924
0.00102205188359
0.00104778896811
0.00106440060348
0.00107172746444
0.00106990611716
0.0010592798004
0.00104032915232
0.00101363847715
0.000979862455711
0.000939694788189
0.000893841031755
0.000842996095361
0.000787826472589
0.000728957057337
0.000666962196347
0.000602360534357
0.000535613202546
0.000467124696826
0.000397245315999
0.000326278376848
0.000254499863112
0.000182106732362
0.000108956819244
3.53887046943e-05
0.000327269496183
0.000365055434779
0.000390095728215
0.000417780451227
0.000453651566797
0.000496572507157
0.000545205371148
0.00059817585687
0.000653927223528
0.000710838630378
0.000767301068719
0.000821765964093
0.000872773811595
0.000918991918876
0.000959419525405
0.000994069056323
0.00102026744578
0.00103829468041
0.00104801931239
0.00104941860276
0.00104267644971
0.00102812434263
0.00100620844141
0.00097746116468
0.000942472061872
0.000901861078488
0.000856255406979
0.000806270321236
0.000752494098139
0.000695476888538
0.000635723220388
0.000573687728808
0.000509773715
0.000444333972635
0.00037767229271
0.000310047941165
0.000241698585701
0.00017280001136
0.000103121097162
3.29762880168e-05
0.000446730098707
0.000497210316049
0.000529075019897
0.000558622484855
0.0005919977301
0.000628782947309
0.000668479810592
0.00071035480541
0.000753381551234
0.00079642947154
0.00083835270976
0.000878040083563
0.000914449640699
0.000946679095834
0.000974223492775
0.000995045372112
0.0010100561152
0.00101838252103
0.00101981996599
0.00101437669668
0.00100220384262
0.000983565856808
0.000958818580603