/*--------------------------------*- C++ -*----------------------------------*\
| =========                 |                                                 |
| \\      /  F ield         | OpenFOAM: The Open Source CFD Toolbox           |
|  \\    /   O peration     | Version:  2112                                  |
|   \\  /    A nd           | Website:  www.openfoam.com                      |
|    \\/     M anipulation  |                                                 |
\*---------------------------------------------------------------------------*/
FoamFile
{
    version     2.0;
    format      ascii;
    arch        "LSB;label=32;scalar=64";
    class       volScalarField;
    location    "21";
    object      p;
}
// * * * * * * * * * * * * * * * * * * * * * * * * * * * * * * * * * * * * * //

dimensions      [0 2 -2 0 0 0 0];

internalField   nonuniform List<scalar> 
16641
(
-2.09666e-08
9.25048e-06
1.63876e-05
1.89086e-05
1.47234e-05
2.90931e-06
-1.66548e-05
-4.36945e-05
-7.77517e-05
-0.000118302
-0.000164809
-0.000216772
-0.000273747
-0.000335354
-0.000401281
-0.000471292
-0.000545212
-0.000622927
-0.00070438
-0.000789556
-0.000878478
-0.000971194
-0.00106777
-0.00116828
-0.00127279
-0.00138137
-0.00149406
-0.00161087
-0.00173178
-0.00185672
-0.00198557
-0.00211816
-0.00225425
-0.00239353
-0.00253562
-0.00268006
-0.00282628
-0.00297367
-0.00312148
-0.00326891
-0.00341503
-0.00355883
-0.00369923
-0.00383505
-0.00396501
-0.0040878
-0.00420202
-0.00430624
-0.004399
-0.00447882
-0.00454426
-0.00459388
-0.00462631
-0.0046403
-0.00463466
-0.0046084
-0.00456068
-0.00449087
-0.00439858
-0.00428369
-0.00414636
-0.00398705
-0.00380658
-0.00360609
-0.00338708
-0.00315138
-0.00290118
-0.00263904
-0.0023678
-0.00209057
-0.00181075
-0.0015319
-0.00125777
-0.000992206
-0.000739061
-0.00050217
-0.000285253
-9.18486e-05
7.47612e-05
0.000211622
0.000316171
0.000386303
0.000420415
0.00041745
0.000376926
0.000298947
0.000184211
3.39867e-05
-0.000149907
-0.000365153
-0.000608981
-0.000878236
-0.00116946
-0.00147898
-0.00180296
-0.00213752
-0.00247882
-0.0028231
-0.00316679
-0.00350657
-0.00383939
-0.00416254
-0.00447366
-0.00477077
-0.00505227
-0.00531693
-0.00556386
-0.00579253
-0.00600268
-0.00619434
-0.00636775
-0.00652335
-0.00666171
-0.00678349
-0.00688941
-0.00698022
-0.00705662
-0.00711929
-0.00716883
-0.00720576
-0.00723056
-0.00724368
-0.00724567
-0.00723729
-0.0072198
-0.00719534
-0.00716749
-0.00714149
-0.00712548
-9.7691e-06
-3.99914e-07
4.42932e-06
4.24958e-06
-1.73202e-06
-1.42562e-05
-3.35507e-05
-5.95088e-05
-9.18582e-05
-0.000130232
-0.000174225
-0.000223446
-0.000277524
-0.000336133
-0.000399003
-0.000465916
-0.00053671
-0.000611272
-0.000689537
-0.00077148
-0.000857111
-0.000946459
-0.00103957
-0.00113651
-0.00123733
-0.00134207
-0.00145077
-0.00156344
-0.00168004
-0.00180052
-0.00192476
-0.0020526
-0.00218381
-0.00231812
-0.00245516
-0.0025945
-0.00273564
-0.00287797
-0.00302082
-0.00316342
-0.00330491
-0.00344435
-0.0035807
-0.00371285
-0.00383961
-0.00395971
-0.00407183
-0.00417462
-0.00426666
-0.00434657
-0.00441293
-0.00446436
-0.00449956
-0.00451729
-0.00451642
-0.00449596
-0.00445508
-0.00439315
-0.00430978
-0.0042048
-0.00407836
-0.00393086
-0.00376305
-0.00357599
-0.0033711
-0.00315015
-0.0029152
-0.0026686
-0.00241312
-0.00215175
-0.00188771
-0.00162444
-0.00136552
-0.00111464
-0.000875486
-0.000651751
-0.000447002
-0.000264636
-0.000107802
2.06623e-05
0.000118303
0.000183101
0.000213524
0.000208564
0.000167765
9.12369e-05
-2.03447e-05
-0.000165754
-0.000343243
-0.000550582
-0.000785119
-0.00104383
-0.00132342
-0.00162037
-0.00193103
-0.00225171
-0.00257875
-0.00290859
-0.00323785
-0.00356338
-0.0038823
-0.00419205
-0.00449042
-0.00477553
-0.00504588
-0.0053003
-0.00553797
-0.00575836
-0.00596124
-0.00614662
-0.00631471
-0.00646592
-0.00660076
-0.00671984
-0.00682386
-0.0069135
-0.00698946
-0.0070524
-0.00710296
-0.00714171
-0.00716922
-0.00718608
-0.00719295
-0.00719073
-0.00718063
-0.00716451
-0.00714507
-0.00712558
-0.0071095
-1.74054e-05
-5.57516e-06
-7.12169e-07
-1.73988e-06
-8.419e-06
-2.12307e-05
-4.03393e-05
-6.5651e-05
-9.69405e-05
-0.000133905
-0.000176214
-0.000223527
-0.000275519
-0.000331907
-0.000392443
-0.000456932
-0.000525221
-0.000597205
-0.000672823
-0.000752047
-0.000834882
-0.000921355
-0.00101151
-0.0011054
-0.00120308
-0.00130458
-0.00140996
-0.0015192
-0.00163231
-0.00174921
-0.00186981
-0.00199397
-0.00212149
-0.0022521
-0.00238548
-0.00252123
-0.00265887
-0.00279785
-0.00293754
-0.00307721
-0.00321604
-0.00335315
-0.00348754
-0.00361816
-0.00374384
-0.00386338
-0.0039755
-0.00407886
-0.00417211
-0.00425387
-0.00432275
-0.0043774
-0.0044165
-0.00443883
-0.00444324
-0.00442873
-0.00439446
-0.00433975
-0.00426417
-0.00416753
-0.00404988
-0.00391161
-0.00375338
-0.0035762
-0.00338141
-0.0031707
-0.00294592
-0.0027096
-0.00246429
-0.00221291
-0.0019586
-0.00170472
-0.00145479
-0.00121241
-0.000981225
-0.000764851
-0.000566802
-0.000390426
-0.000238826
-0.000114799
-2.07679e-05
4.1275e-05
6.98173e-05
6.38648e-05
2.29681e-05
-5.27633e-05
-0.000162662
-0.000305516
-0.000479599
-0.000682714
-0.000912243
-0.00116522
-0.00143838
-0.00172829
-0.00203136
-0.00234399
-0.00266259
-0.0029837
-0.00330403
-0.00362053
-0.00393042
-0.00423123
-0.00452084
-0.00479746
-0.00505967
-0.00530637
-0.0055368
-0.00575049
-0.00594724
-0.00612709
-0.00629027
-0.00643719
-0.00656837
-0.00668442
-0.00678603
-0.00687388
-0.00694868
-0.00701109
-0.00706177
-0.00710132
-0.00713032
-0.00714939
-0.00715918
-0.00716047
-0.00715427
-0.00714201
-0.00712562
-0.00710616
-0.00708336
-2.02886e-05
-5.68834e-06
-3.39536e-08
-1.16187e-06
-8.07998e-06
-2.10192e-05
-4.00275e-05
-6.49478e-05
-9.55405e-05
-0.000131525
-0.000172595
-0.000218438
-0.000268763
-0.000323311
-0.000381859
-0.000444225
-0.000510272
-0.000579906
-0.000653074
-0.000729755
-0.000809957
-0.000893712
-0.000981069
-0.00107209
-0.00116682
-0.00126532
-0.00136764
-0.00147379
-0.00158378
-0.00169756
-0.00181505
-0.00193615
-0.00206066
-0.00218838
-0.002319
-0.00245215
-0.00258741
-0.00272427
-0.00286212
-0.0030003
-0.00313802
-0.00327443
-0.00340859
-0.00353946
-0.00366593
-0.00378681
-0.00390084
-0.00400671
-0.00410307
-0.00418852
-0.00426168
-0.00432119
-0.0043657
-0.00439396
-0.00440477
-0.0043971
-0.00437005
-0.00432289
-0.00425513
-0.00416651
-0.00405703
-0.00392699
-0.003777
-0.00360799
-0.00342124
-0.00321833
-0.00300123
-0.00277223
-0.00253389
-0.00228909
-0.00204095
-0.00179278
-0.00154809
-0.00131045
-0.0010835
-0.000870862
-0.000676043
-0.000502396
-0.000353038
-0.000230776
-0.000138048
-7.68609e-05
-4.87421e-05
-5.4699e-05
-9.51921e-05
-0.000170121
-0.000278822
-0.000420086
-0.000592186
-0.000792922
-0.00101967
-0.00126946
-0.00153903
-0.00182494
-0.00212361
-0.00243143
-0.00274486
-0.00306044
-0.00337492
-0.0036853
-0.00398883
-0.00428313
-0.00456611
-0.00483608
-0.00509166
-0.00533185
-0.00555594
-0.00576352
-0.00595447
-0.00612887
-0.00628702
-0.00642935
-0.00655643
-0.0066689
-0.00676747
-0.00685285
-0.00692577
-0.0069869
-0.00703692
-0.00707643
-0.007106
-0.0071262
-0.00713759
-0.00714077
-0.00713642
-0.00712552
-0.00710934
-0.00708705
-0.00705564
-1.62159e-05
1.46151e-07
6.30875e-06
5.07795e-06
-2.08101e-06
-1.52146e-05
-3.42508e-05
-5.89606e-05
-8.90807e-05
-0.000124325
-0.000164395
-0.000208998
-0.000257865
-0.000310755
-0.000367464
-0.000427828
-0.000491729
-0.000559084
-0.000629854
-0.000704027
-0.000781626
-0.000862693
-0.00094729
-0.00103549
-0.00112735
-0.00122296
-0.00132238
-0.00142564
-0.00153277
-0.00164375
-0.00175855
-0.00187707
-0.00199918
-0.00212468
-0.00225333
-0.00238481
-0.00251872
-0.0026546
-0.0027919
-0.00292998
-0.0030681
-0.00320546
-0.00334112
-0.00347409
-0.00360327
-0.00372748
-0.00384546
-0.00395589
-0.00405741
-0.0041486
-0.00422804
-0.00429432
-0.00434605
-0.00438191
-0.00440066
-0.00440118
-0.00438249
-0.00434382
-0.00428457
-0.00420441
-0.00410328
-0.00398139
-0.00383929
-0.00367785
-0.00349828
-0.00330207
-0.00309129
-0.00286805
-0.00263493
-0.00239478
-0.0021507
-0.00190603
-0.00166426
-0.00142898
-0.00120387
-0.000992549
-0.000798582
-0.000625357
-0.000476033
-0.000353463
-0.00026013
-0.000198086
-0.0001689
-0.000173615
-0.000212722
-0.000286141
-0.000393224
-0.000532765
-0.000703033
-0.000901813
-0.00112646
-0.00137398
-0.00164108
-0.00192427
-0.00221995
-0.00252449
-0.00283431
-0.00314593
-0.00345611
-0.00376184
-0.00406039
-0.0043494
-0.00462684
-0.00489104
-0.00514071
-0.00537489
-0.00559295
-0.00579457
-0.00597968
-0.00614844
-0.00630122
-0.00643852
-0.00656097
-0.00666926
-0.00676414
-0.00684637
-0.0069167
-0.00697585
-0.00702449
-0.00706323
-0.00709261
-0.00711312
-0.00712521
-0.00712927
-0.00712567
-0.00711497
-0.00709789
-0.00707205
-0.0070322
-4.11387e-06
1.27828e-05
1.88992e-05
1.73151e-05
9.72645e-06
-3.77858e-06
-2.30296e-05
-4.77412e-05
-7.76165e-05
-0.000112354
-0.000151658
-0.000195248
-0.000242868
-0.000294292
-0.000349337
-0.000407856
-0.000469746
-0.000534947
-0.000603432
-0.00067521
-0.00075032
-0.000828826
-0.000910806
-0.000996353
-0.00108556
-0.00117853
-0.00127536
-0.0013761
-0.00148082
-0.00158955
-0.00170228
-0.00181897
-0.00193952
-0.00206379
-0.00219158
-0.00232262
-0.00245656
-0.00259298
-0.00273138
-0.00287115
-0.0030116
-0.00315193
-0.00329126
-0.00342857
-0.00356277
-0.00369268
-0.00381702
-0.00393443
-0.0040435
-0.00414277
-0.00423076
-0.00430598
-0.00436697
-0.00441232
-0.00444071
-0.00445092
-0.0044419
-0.00441276
-0.00436284
-0.00429171
-0.00419924
-0.00408556
-0.00395115
-0.00379683
-0.00362378
-0.00343342
-0.00322773
-0.00300889
-0.00277943
-0.0025422
-0.00230031
-0.0020571
-0.0018161
-0.00158095
-0.00135535
-0.001143
-0.0009475
-0.000772317
-0.000620679
-0.000495514
-0.000399379
-0.000334399
-0.000302209
-0.000303917
-0.000340066
-0.000410618
-0.000514956
-0.00065189
-0.000819694
-0.00101614
-0.00123856
-0.00148391
-0.00174887
-0.00202989
-0.00232331
-0.00262544
-0.00293262
-0.00324136
-0.00354835
-0.00385053
-0.00414519
-0.00442994
-0.00470277
-0.00496203
-0.00520647
-0.00543518
-0.00564762
-0.0058435
-0.00602285
-0.00618592
-0.00633315
-0.00646511
-0.00658251
-0.00668613
-0.00677676
-0.00685523
-0.00692234
-0.00697883
-0.00702539
-0.00706263
-0.00709106
-0.0071111
-0.00712308
-0.00712719
-0.00712353
-0.00711231
-0.00709382
-0.00706449
-0.00701737
1.63519e-05
3.26078e-05
3.80387e-05
3.57192e-05
2.74072e-05
1.32832e-05
-6.4177e-06
-3.1361e-05
-6.12181e-05
-9.56774e-05
-0.000134443
-0.000177239
-0.000223821
-0.000273981
-0.000327552
-0.000384406
-0.000444464
-0.000507682
-0.000574058
-0.000643625
-0.000716447
-0.000792615
-0.000872235
-0.00095543
-0.00104233
-0.00113308
-0.00122779
-0.00132659
-0.00142957
-0.00153682
-0.00164837
-0.00176424
-0.00188438
-0.00200871
-0.00213708
-0.00226928
-0.002405
-0.00254388
-0.00268544
-0.00282912
-0.00297424
-0.00312003
-0.00326558
-0.0034099
-0.00355186
-0.00369023
-0.0038237
-0.00395085
-0.0040702
-0.0041802
-0.00427929
-0.00436587
-0.00443839
-0.00449533
-0.00453526
-0.00455687
-0.00455899
-0.00454063
-0.00450105
-0.00443972
-0.00435642
-0.00425123
-0.00412455
-0.00397715
-0.00381018
-0.00362496
-0.0034235
-0.00320796
-0.00298086
-0.00274506
-0.00250368
-0.0022601
-0.00201789
-0.00178072
-0.00155237
-0.0013366
-0.0011371
-0.000957425
-0.000800898
-0.000670545
-0.000569025
-0.000498565
-0.000460899
-0.000457223
-0.000488165
-0.000553759
-0.000653441
-0.000786063
-0.000949918
-0.00114278
-0.00136197
-0.00160442
-0.00186673
-0.00214531
-0.00243642
-0.00273629
-0.00304118
-0.00334752
-0.00365191
-0.00395125
-0.00424276
-0.00452401
-0.00479296
-0.00504799
-0.00528783
-0.00551163
-0.00571886
-0.00590934
-0.00608313
-0.00624058
-0.00638221
-0.00650868
-0.00662078
-0.00671937
-0.00680534
-0.00687956
-0.0069429
-0.00699614
-0.00704
-0.00707509
-0.0071019
-0.00712079
-0.00713197
-0.0071355
-0.00713122
-0.0071191
-0.00709908
-0.00706678
-0.00701401
4.51438e-05
5.96923e-05
6.37757e-05
6.02771e-05
5.08922e-05
3.58545e-05
1.54489e-05
-9.95657e-06
-4.00166e-05
-7.44126e-05
-0.000112848
-0.000155055
-0.000200802
-0.000249897
-0.000302192
-0.000357585
-0.000416017
-0.000477471
-0.000541973
-0.000609587
-0.000680408
-0.000754562
-0.000832194
-0.000913471
-0.000998568
-0.00108767
-0.00118094
-0.00127857
-0.00138071
-0.0014875
-0.00159903
-0.00171539
-0.0018366
-0.00196263
-0.00209339
-0.00222873
-0.00236839
-0.00251205
-0.00265926
-0.00280948
-0.00296205
-0.00311618
-0.00327096
-0.00342535
-0.00357819
-0.00372817
-0.00387391
-0.0040139
-0.00414656
-0.00427024
-0.00438324
-0.00448387
-0.00457044
-0.00464131
-0.00469494
-0.00472988
-0.00474486
-0.00473879
-0.00471082
-0.00466033
-0.00458703
-0.0044909
-0.0043723
-0.00423194
-0.00407091
-0.00389054
-0.00369277
-0.00347975
-0.00325402
-0.00301844
-0.00277615
-0.00253056
-0.00228527
-0.00204403
-0.00181068
-0.00158907
-0.00138299
-0.00119609
-0.00103182
-0.000893315
-0.000783378
-0.000704362
-0.000658134
-0.000646017
-0.000668756
-0.000726491
-0.000818751
-0.000944458
-0.00110196
-0.00128905
-0.00150307
-0.00174091
-0.00199915
-0.00227414
-0.00256206
-0.00285903
-0.00316125
-0.00346501
-0.00376683
-0.0040635
-0.00435217
-0.00463033
-0.00489589
-0.00514718
-0.00538294
-0.00560231
-0.00580478
-0.00599021
-0.00615874
-0.00631077
-0.00644689
-0.00656788
-0.0066746
-0.00676799
-0.00684902
-0.00691867
-0.00697784
-0.00702738
-0.00706806
-0.00710048
-0.00712513
-0.00714233
-0.00715222
-0.00715473
-0.00714953
-0.00713638
-0.00711502
-0.00708049
-0.00702385
8.20329e-05
9.39173e-05
9.60226e-05
9.08917e-05
8.006e-05
6.38027e-05
4.24376e-05
1.63431e-05
-1.41306e-05
-4.86627e-05
-8.69634e-05
-0.000128777
-0.000173889
-0.000222127
-0.000273367
-0.000327531
-0.000384587
-0.000444553
-0.000507488
-0.000573493
-0.000642705
-0.000715292
-0.000791451
-0.000871399
-0.00095537
-0.0010436
-0.00113634
-0.00123383
-0.00133629
-0.00144393
-0.00155693
-0.00167544
-0.00179955
-0.0019293
-0.00206467
-0.00220555
-0.00235174
-0.00250294
-0.00265874
-0.00281859
-0.00298183
-0.00314764
-0.00331506
-0.003483
-0.00365022
-0.00381532
-0.00397681
-0.00413306
-0.00428237
-0.00442295
-0.00455297
-0.0046706
-0.004774
-0.00486141
-0.00493114
-0.00498163
-0.00501148
-0.00501949
-0.0050047
-0.00496643
-0.00490426
-0.00481813
-0.00470833
-0.00457547
-0.00442051
-0.0042451
-0.00405082
-0.00383988
-0.00361481
-0.00337847
-0.00313403
-0.00288493
-0.00263481
-0.00238748
-0.00214685
-0.00191686
-0.00170141
-0.00150427
-0.00132902
-0.00117897
-0.00105706
-0.000965812
-0.000907262
-0.000882902
-0.000893635
-0.000939754
-0.00102092
-0.00113617
-0.00128395
-0.00146211
-0.00166803
-0.00189862
-0.00215044
-0.00241977
-0.00270274
-0.00299539
-0.00329378
-0.0035941
-0.00389276
-0.00418642
-0.00447211
-0.00474722
-0.00500957
-0.00525743
-0.00548947
-0.00570481
-0.00590294
-0.00608373
-0.00624738
-0.0063943
-0.00652519
-0.00664086
-0.00674228
-0.00683049
-0.00690653
-0.00697145
-0.00702624
-0.00707182
-0.00710898
-0.00713838
-0.00716051
-0.00717566
-0.00718394
-0.00718517
-0.00717894
-0.00716485
-0.00714249
-0.00710659
-0.00704781
0.000126672
0.000135038
0.00013458
0.000127375
0.000114734
9.69634e-05
7.43922e-05
4.73936e-05
1.63114e-05
-1.85438e-05
-5.6897e-05
-9.8511e-05
-0.000143193
-0.000190799
-0.000241229
-0.000294437
-0.000350426
-0.000409251
-0.000471013
-0.000535859
-0.000603974
-0.000675585
-0.000750947
-0.000830343
-0.000914075
-0.00100246
-0.00109581
-0.00119446
-0.00129871
-0.00140886
-0.00152516
-0.00164786
-0.00177711
-0.00191303
-0.00205565
-0.00220493
-0.0023607
-0.00252267
-0.00269045
-0.00286347
-0.00304104
-0.00322229
-0.00340619
-0.00359155
-0.00377702
-0.0039611
-0.00414215
-0.0043184
-0.004488
-0.004649
-0.00479943
-0.00493728
-0.00506059
-0.00516742
-0.00525596
-0.00532451
-0.00537156
-0.00539578
-0.00539612
-0.00537178
-0.00532227
-0.00524745
-0.00514752
-0.00502305
-0.00487497
-0.00470472
-0.00451402
-0.00430498
-0.00408011
-0.00384227
-0.00359464
-0.00334065
-0.00308399
-0.00282853
-0.00257826
-0.0023372
-0.00210936
-0.00189866
-0.00170883
-0.00154335
-0.00140535
-0.00129757
-0.00122223
-0.00118104
-0.00117513
-0.00120498
-0.00127045
-0.00137073
-0.00150441
-0.00166948
-0.00186337
-0.00208306
-0.0023251
-0.00258578
-0.00286115
-0.00314717
-0.00343981
-0.00373513
-0.00402939
-0.00431911
-0.00460119
-0.00487287
-0.00513187
-0.00537632
-0.00560483
-0.00581645
-0.00601063
-0.00618722
-0.00634639
-0.00648864
-0.00661466
-0.00672537
-0.00682178
-0.00690501
-0.00697619
-0.00703645
-0.00708686
-0.0071284
-0.00716193
-0.00718815
-0.00720756
-0.00722048
-0.00722699
-0.00722687
-0.00721963
-0.0072048
-0.00718187
-0.00714547
-0.00708616
0.000178635
0.000182706
0.000179139
0.00016945
0.000154668
0.000135109
0.000111105
8.30067e-05
5.11378e-05
1.57847e-05
-2.28018e-05
-6.44131e-05
-0.000108886
-0.000156106
-0.000206009
-0.000258586
-0.000313882
-0.000371997
-0.000433082
-0.000497337
-0.000565012
-0.000636399
-0.000711827
-0.000791655
-0.00087627
-0.000966076
-0.00106148
-0.00116291
-0.00127077
-0.00138544
-0.00150727
-0.0016366
-0.00177365
-0.00191863
-0.00207163
-0.00223262
-0.00240147
-0.00257792
-0.00276152
-0.00295171
-0.0031477
-0.00334855
-0.00355315
-0.00376017
-0.00396813
-0.00417537
-0.00438011
-0.00458041
-0.00477423
-0.00495947
-0.00513398
-0.00529559
-0.00544217
-0.00557163
-0.00568202
-0.0057715
-0.00583843
-0.00588137
-0.00589915
-0.00589087
-0.00585594
-0.00579413
-0.00570556
-0.00559071
-0.00545047
-0.00528617
-0.00509948
-0.00489249
-0.00466765
-0.00442779
-0.00417608
-0.00391596
-0.00365114
-0.00338553
-0.00312318
-0.00286822
-0.00262477
-0.00239689
-0.0021885
-0.00200326
-0.00184453
-0.00171527
-0.00161798
-0.00155462
-0.00152658
-0.00153461
-0.00157881
-0.00165861
-0.00177281
-0.00191956
-0.00209645
-0.00230053
-0.00252843
-0.00277645
-0.0030406
-0.0033168
-0.0036009
-0.00388885
-0.00417676
-0.00446099
-0.00473827
-0.00500568
-0.00526077
-0.00550155
-0.00572648
-0.0059345
-0.00612499
-0.00629775
-0.00645292
-0.00659098
-0.00671266
-0.00681888
-0.00691073
-0.00698937
-0.00705603
-0.00711191
-0.00715814
-0.00719579
-0.00722577
-0.00724884
-0.00726555
-0.00727623
-0.00728098
-0.00727957
-0.00727148
-0.0072562
-0.00723317
-0.0071971
-0.00713868
0.000237421
0.000236471
0.000229297
0.000216753
0.000199526
0.000177935
0.000152298
0.000122928
9.011e-05
5.40942e-05
1.50942e-05
-2.67196e-05
-7.12212e-05
-0.000118336
-0.000168041
-0.000220375
-0.000275431
-0.000333363
-0.000394382
-0.000458755
-0.000526805
-0.000598904
-0.000675466
-0.000756946
-0.000843827
-0.000936617
-0.00103583
-0.001142
-0.00125564
-0.00137723
-0.00150724
-0.00164607
-0.00179405
-0.00195143
-0.00211836
-0.00229485
-0.00248076
-0.00267582
-0.00287954
-0.00309129
-0.0033102
-0.00353523
-0.0037651
-0.00399836
-0.00423337
-0.00446829
-0.00470115
-0.00492983
-0.00515212
-0.00536571
-0.00556828
-0.00575749
-0.00593103
-0.00608667
-0.0062223
-0.00633594
-0.00642581
-0.00649037
-0.0065283
-0.0065386
-0.00652058
-0.00647389
-0.00639855
-0.00629497
-0.00616393
-0.00600667
-0.00582478
-0.00562028
-0.00539557
-0.00515342
-0.00489696
-0.00462961
-0.00435511
-0.00407737
-0.00380051
-0.00352875
-0.00326632
-0.00301744
-0.00278619
-0.00257648
-0.00239189
-0.00223568
-0.00211064
-0.00201904
-0.00196259
-0.00194238
-0.00195881
-0.00201164
-0.00209992
-0.00222207
-0.00237588
-0.00255856
-0.00276687
-0.00299715
-0.00324545
-0.00350764
-0.0037795
-0.00405685
-0.00433566
-0.00461213
-0.00488278
-0.00514452
-0.00539469
-0.00563111
-0.00585209
-0.00605642
-0.00624335
-0.00641256
-0.00656415
-0.00669852
-0.00681641
-0.00691874
-0.00700661
-0.00708125
-0.00714391
-0.00719586
-0.00723833
-0.00727243
-0.00729915
-0.00731931
-0.00733351
-0.00734213
-0.00734528
-0.00734278
-0.00733409
-0.00731871
-0.00729608
-0.00726106
-0.00720477
0.000302442
0.000295785
0.00028455
0.000268823
0.00024888
0.000225047
0.000197606
0.000166815
0.0001329
9.60623e-05
5.6464e-05
1.42275e-05
-3.05681e-05
-7.7898e-05
-0.000127793
-0.000180345
-0.000235706
-0.000294093
-0.000355789
-0.000421142
-0.00049056
-0.000564509
-0.000643506
-0.000728111
-0.000818923
-0.000916567
-0.00102168
-0.00113492
-0.0012569
-0.00138823
-0.00152947
-0.00168112
-0.00184359
-0.00201718
-0.00220207
-0.00239828
-0.00260566
-0.0028239
-0.00305245
-0.00329056
-0.00353726
-0.00379136
-0.00405143
-0.00431584
-0.00458276
-0.00485016
-0.00511586
-0.00537755
-0.00563282
-0.00587916
-0.00611407
-0.00633502
-0.00653954
-0.00672524
-0.00688984
-0.00703122
-0.00714747
-0.00723689
-0.00729806
-0.00732985
-0.00733143
-0.00730235
-0.0072425
-0.00715218
-0.00703206
-0.00688327
-0.00670729
-0.00650605
-0.00628185
-0.0060374
-0.00577575
-0.00550031
-0.00521476
-0.00492306
-0.00462934
-0.0043379
-0.00405309
-0.00377926
-0.00352071
-0.00328156
-0.00306567
-0.00287659
-0.00271747
-0.00259095
-0.00249911
-0.00244343
-0.00242474
-0.00244314
-0.00249807
-0.00258828
-0.00271184
-0.00286622
-0.00304835
-0.00325471
-0.00348142
-0.00372435
-0.00397924
-0.00424182
-0.0045079
-0.00477352
-0.00503499
-0.005289
-0.00553268
-0.00576361
-0.00597988
-0.0061801
-0.00636333
-0.00652912
-0.00667744
-0.00680861
-0.00692328
-0.00702235
-0.00710693
-0.00717825
-0.00723758
-0.00728626
-0.00732556
-0.00735665
-0.00738059
-0.00739826
-0.00741033
-0.00741722
-0.0074191
-0.0074158
-0.00740686
-0.00739177
-0.00737
-0.00733671
-0.00728355
0.000373009
0.000360015
0.000344289
0.000325079
0.000302195
0.000275943
0.000246557
0.000214213
0.000179067
0.000141249
0.000100859
5.79588e-05
1.25663e-05
-3.53543e-05
-8.58951e-05
-0.000139211
-0.000195524
-0.000255129
-0.000318394
-0.000385759
-0.000457733
-0.000534892
-0.000617868
-0.000707348
-0.000804059
-0.000908758
-0.00102222
-0.00114521
-0.0012785
-0.0014228
-0.00157878
-0.001747
-0.00192796
-0.002122
-0.00232931
-0.00254989
-0.00278358
-0.00302996
-0.0032884
-0.00355802
-0.00383772
-0.00412611
-0.00442159
-0.00472234
-0.0050263
-0.00533124
-0.00563476
-0.00593435
-0.00622737
-0.00651114
-0.00678294
-0.00704006
-0.00727986
-0.00749978
-0.00769738
-0.00787038
-0.00801673
-0.00813459
-0.00822239
-0.00827887
-0.00830306
-0.00829437
-0.00825257
-0.00817782
-0.00807065
-0.00793206
-0.0077634
-0.00756648
-0.00734349
-0.00709702
-0.00683005
-0.00654591
-0.00624823
-0.00594096
-0.00562824
-0.00531441
-0.00500394
-0.00470131
-0.004411
-0.00413736
-0.00388456
-0.00365647
-0.00345661
-0.00328803
-0.00315327
-0.00305427
-0.00299232
-0.00296801
-0.00298123
-0.00303114
-0.00311622
-0.00323427
-0.0033825
-0.0035576
-0.00375582
-0.00397312
-0.00420523
-0.00444782
-0.00469657
-0.00494735
-0.00519626
-0.00543976
-0.00567469
-0.00589841
-0.00610874
-0.00630403
-0.00648313
-0.00664537
-0.00679055
-0.00691887
-0.00703085
-0.00712732
-0.00720934
-0.0072781
-0.0073349
-0.00738109
-0.00741795
-0.00744674
-0.00746855
-0.00748433
-0.0074948
-0.00750045
-0.00750149
-0.00749782
-0.00748903
-0.00747466
-0.00745419
-0.00742318
-0.00737393
0.00044834
0.000428387
0.000407782
0.000384831
0.000358815
0.000330001
0.000298553
0.000264544
0.000228037
0.000189076
0.000147684
0.000103846
5.7507e-05
8.56017e-06
-4.31587e-05
-9.78809e-05
-0.000155912
-0.000217638
-0.000283525
-0.00035412
-0.000430049
-0.000512013
-0.00060078
-0.000697175
-0.000802069
-0.000916366
-0.00104098
-0.00117682
-0.00132478
-0.00148569
-0.00166031
-0.0018493
-0.00205318
-0.00227232
-0.00250691
-0.00275692
-0.00302209
-0.00330192
-0.00359565
-0.00390225
-0.00422042
-0.00454859
-0.00488495
-0.00522744
-0.0055738
-0.00592156
-0.0062681
-0.00661068
-0.00694645
-0.00727251
-0.00758595
-0.00788389
-0.00816347
-0.00842198
-0.00865681
-0.00886552
-0.0090459
-0.00919596
-0.00931398
-0.00939854
-0.00944855
-0.00946326
-0.00944228
-0.00938562
-0.00929367
-0.00916726
-0.00900761
-0.00881636
-0.00859557
-0.00834769
-0.0080756
-0.0077825
-0.00747196
-0.00714787
-0.00681435
-0.00647579
-0.00613668
-0.00580166
-0.00547536
-0.00516237
-0.00486714
-0.00459388
-0.00434653
-0.00412857
-0.00394305
-0.00379243
-0.00367854
-0.00360255
-0.00356489
-0.00356526
-0.00360263
-0.00367526
-0.00378074
-0.00391607
-0.00407774
-0.00426186
-0.00446421
-0.00468046
-0.00490621
-0.00513715
-0.0053692
-0.00559853
-0.00582174
-0.00603587
-0.00623843
-0.00642748
-0.00660159
-0.00675984
-0.00690178
-0.00702742
-0.00713712
-0.00723157
-0.00731174
-0.00737875
-0.00743388
-0.00747843
-0.00751374
-0.00754106
-0.00756154
-0.00757616
-0.00758571
-0.00759073
-0.00759149
-0.00758795
-0.00757977
-0.00756654
-0.0075478
-0.00751952
-0.00747474
0.000527516
0.000500009
0.000474171
0.000447256
0.000417952
0.000386461
0.000352855
0.000317081
0.000279084
0.000238808
0.000196177
0.000151087
0.000103395
5.29148e-05
-6.04877e-07
-5.74862e-05
-0.000118132
-0.000183033
-0.000252768
-0.000328009
-0.000409517
-0.000498134
-0.000594778
-0.00070043
-0.000816118
-0.000942901
-0.00108185
-0.00123401
-0.0014004
-0.00158196
-0.00177955
-0.00199387
-0.00222549
-0.00247477
-0.00274186
-0.00302667
-0.00332884
-0.00364773
-0.00398241
-0.00433168
-0.00469403
-0.00506767
-0.00545055
-0.00584038
-0.00623465
-0.00663066
-0.00702555
-0.00741633
-0.00779996
-0.0081733
-0.00853325
-0.00887672
-0.00920068
-0.00950222
-0.00977856
-0.0100271
-0.0102455
-0.0104316
-0.0105835
-0.0106996
-0.0107787
-0.0108198
-0.0108225
-0.0107866
-0.0107123
-0.0106002
-0.0104515
-0.0102675
-0.0100502
-0.00980187
-0.00952522
-0.00922333
-0.00889966
-0.00855799
-0.00820241
-0.00783726
-0.00746708
-0.00709659
-0.00673057
-0.00637379
-0.00603099
-0.00570674
-0.00540534
-0.00513079
-0.00488664
-0.00467594
-0.00450116
-0.00436408
-0.00426581
-0.00420668
-0.00418629
-0.00420345
-0.00425628
-0.00434221
-0.00445809
-0.00460025
-0.00476467
-0.00494704
-0.00514295
-0.00534797
-0.0055578
-0.00576839
-0.00597602
-0.00617739
-0.00636969
-0.00655061
-0.00671839
-0.00687179
-0.00701006
-0.00713293
-0.00724057
-0.00733347
-0.00741242
-0.00747847
-0.00753278
-0.00757664
-0.00761133
-0.00763812
-0.00765816
-0.00767248
-0.00768189
-0.007687
-0.00768812
-0.0076853
-0.00767823
-0.00766659
-0.00764996
-0.00762475
-0.00758481
0.000609473
0.00057385
0.000542453
0.000511387
0.000478668
0.000444413
0.000408571
0.000370937
0.000331317
0.000289531
0.000245388
0.00019868
0.000149168
9.65645e-05
4.05195e-05
-1.93944e-05
-8.36915e-05
-0.000152983
-0.000227979
-0.000309494
-0.000398438
-0.000495814
-0.000602706
-0.000720264
-0.000849684
-0.00099219
-0.001149
-0.00132132
-0.00151027
-0.00171691
-0.00194215
-0.00218675
-0.00245127
-0.00273606
-0.00304118
-0.00336645
-0.00371137
-0.00407514
-0.00445665
-0.00485447
-0.00526685
-0.00569177
-0.00612692
-0.00656977
-0.00701754
-0.00746727
-0.00791586
-0.00836009
-0.00879666
-0.00922225
-0.00963352
-0.0100272
-0.0104
-0.0107489
-0.0110709
-0.0113634
-0.0116236
-0.0118493
-0.0120386
-0.0121896
-0.0123009
-0.0123715
-0.0124007
-0.0123882
-0.0123339
-0.0122384
-0.0121026
-0.0119277
-0.0117155
-0.011468
-0.0111878
-0.0108778
-0.0105412
-0.0101818
-0.00980355
-0.00941068
-0.00900774
-0.00859946
-0.00819072
-0.00778648
-0.00739169
-0.00701124
-0.00664984
-0.00631194
-0.00600166
-0.00572266
-0.00547807
-0.00527041
-0.00510153
-0.00497251
-0.00488368
-0.00483458
-0.00482396
-0.00484984
-0.00490956
-0.00499983
-0.0051169
-0.00525663
-0.00541464
-0.00558644
-0.00576759
-0.00595379
-0.00614101
-0.00632559
-0.00650435
-0.00667457
-0.00683409
-0.00698127
-0.00711502
-0.00723474
-0.00734027
-0.00743188
-0.00751014
-0.00757592
-0.00763026
-0.00767434
-0.00770939
-0.00773663
-0.00775721
-0.00777216
-0.00778231
-0.00778831
-0.00779051
-0.00778901
-0.0077836
-0.00777397
-0.00775979
-0.00773793
-0.00770298
0.000692997
0.000648722
0.000611479
0.000576103
0.000539873
0.000502785
0.000464641
0.000425052
0.000383659
0.000340137
0.000294167
0.00024542
0.000193543
0.000138134
7.87285e-05
1.47798e-05
-5.43552e-05
-0.000129425
-0.000211291
-0.000300924
-0.000399404
-0.000507911
-0.000627708
-0.000760125
-0.000906537
-0.00106833
-0.0012469
-0.00144355
-0.00165955
-0.00189603
-0.00215394
-0.00243407
-0.00273695
-0.00306286
-0.00341178
-0.00378338
-0.00417699
-0.00459162
-0.00502594
-0.00547825
-0.00594658
-0.00642863
-0.00692182
-0.00742333
-0.00793012
-0.00843896
-0.0089465
-0.00944926
-0.00994371
-0.0104263
-0.0108934
-0.0113417
-0.0117676
-0.0121679
-0.0125395
-0.0128794
-0.013185
-0.0134537
-0.0136835
-0.0138724
-0.0140188
-0.0141216
-0.0141799
-0.0141932
-0.0141614
-0.0140847
-0.0139639
-0.0138001
-0.0135947
-0.0133496
-0.0130672
-0.0127502
-0.0124017
-0.0120251
-0.0116243
-0.0112034
-0.0107669
-0.0103195
-0.00986615
-0.0094118
-0.00896165
-0.00852083
-0.00809441
-0.00768731
-0.00730417
-0.00694928
-0.00662647
-0.00633905
-0.00608968
-0.00588029
-0.00571209
-0.00558545
-0.00549992
-0.00545428
-0.00544649
-0.00547383
-0.00553297
-0.00562004
-0.00573084
-0.0058609
-0.00600568
-0.00616068
-0.00632158
-0.00648436
-0.0066454
-0.00680156
-0.00695019
-0.00708922
-0.00721711
-0.00733285
-0.00743592
-0.00752626
-0.00760415
-0.00767023
-0.00772535
-0.00777054
-0.0078069
-0.0078356
-0.00785772
-0.00787427
-0.0078861
-0.00789383
-0.00789788
-0.00789837
-0.00789515
-0.00788798
-0.00787656
-0.00785819
-0.00782825
0.000776702
0.000723285
0.000679931
0.000640119
0.000600307
0.000560338
0.000519828
0.000478177
0.000434839
0.000389321
0.000341157
0.000289881
0.000235008
0.00017601
0.000112291
4.31666e-05
-3.21514e-05
-0.000114568
-0.000205112
-0.00030493
-0.00041529
-0.000537561
-0.0006732
-0.000823726
-0.000990697
-0.00117567
-0.00138018
-0.00160568
-0.00185351
-0.00212488
-0.00242076
-0.00274191
-0.00308883
-0.00346168
-0.00386032
-0.00428424
-0.00473258
-0.0052041
-0.00569722
-0.00620998
-0.00674012
-0.00728505
-0.0078419
-0.00840755
-0.00897867
-0.00955178
-0.0101232
-0.0106893
-0.0112461
-0.01179
-0.0123172
-0.0128239
-0.0133066
-0.0137618
-0.0141862
-0.0145767
-0.0149306
-0.0152451
-0.015518
-0.0157473
-0.0159313
-0.0160686
-0.0161582
-0.0161995
-0.0161923
-0.0161365
-0.0160328
-0.0158819
-0.0156853
-0.0154446
-0.0151618
-0.0148394
-0.0144804
-0.0140879
-0.0136656
-0.0132174
-0.0127477
-0.012261
-0.0117623
-0.0112565
-0.0107489
-0.0102449
-0.00974987
-0.00926901
-0.00880751
-0.00837026
-0.00796181
-0.00758625
-0.00724711
-0.00694728
-0.00668891
-0.00647336
-0.00630116
-0.00617197
-0.0060846
-0.00603705
-0.00602659
-0.00604983
-0.00610286