/*--------------------------------*- C++ -*----------------------------------*\
| =========                 |                                                 |
| \\      /  F ield         | OpenFOAM: The Open Source CFD Toolbox           |
|  \\    /   O peration     | Version:  2112                                  |
|   \\  /    A nd           | Website:  www.openfoam.com                      |
|    \\/     M anipulation  |                                                 |
\*---------------------------------------------------------------------------*/
FoamFile
{
    version     2.0;
    format      ascii;
    arch        "LSB;label=32;scalar=64";
    class       surfaceScalarField;
    location    "21";
    object      phi;
}
// * * * * * * * * * * * * * * * * * * * * * * * * * * * * * * * * * * * * * //

dimensions      [0 3 -1 0 0 0 0];

oriented        oriented;

internalField   nonuniform List<scalar> 
33024
(
2.54161e-10
-2.38834e-10
2.10252e-08
-2.0772e-08
6.13352e-08
-4.03095e-08
1.1437e-07
-5.30358e-08
1.74113e-07
-5.97418e-08
2.35893e-07
-6.17807e-08
2.96253e-07
-6.03592e-08
3.5272e-07
-5.64674e-08
4.03585e-07
-5.08648e-08
4.47707e-07
-4.41224e-08
4.84369e-07
-3.6662e-08
5.13157e-07
-2.87883e-08
5.33875e-07
-2.07177e-08
5.46469e-07
-1.25944e-08
5.50975e-07
-4.5055e-09
5.47469e-07
3.50536e-09
5.3604e-07
1.14285e-08
5.16759e-07
1.92818e-08
4.89657e-07
2.71015e-08
4.54718e-07
3.49388e-08
4.11864e-07
4.2854e-08
3.60952e-07
5.09121e-08
3.01772e-07
5.91797e-08
2.3405e-07
6.77226e-08
1.57448e-07
7.66019e-08
7.1576e-08
8.58721e-08
-2.40047e-08
9.55802e-08
-1.29768e-07
1.05763e-07
-2.46215e-07
1.16447e-07
-3.7386e-07
1.27645e-07
-5.13218e-07
1.39358e-07
-6.6479e-07
1.51573e-07
-8.29054e-07
1.64264e-07
-1.00644e-06
1.7739e-07
-1.19734e-06
1.90897e-07
-1.40206e-06
2.04716e-07
-1.62082e-06
2.18763e-07
-1.85376e-06
2.3294e-07
-2.10089e-06
2.47134e-07
-2.36211e-06
2.61219e-07
-2.63717e-06
2.75053e-07
-2.92565e-06
2.88484e-07
-3.227e-06
3.01346e-07
-3.54046e-06
3.13461e-07
-3.8651e-06
3.24642e-07
-4.19979e-06
3.34694e-07
-4.54321e-06
3.43414e-07
-4.89381e-06
3.50599e-07
-5.24985e-06
3.5604e-07
-5.60938e-06
3.59533e-07
-5.97025e-06
3.60876e-07
-6.33013e-06
3.59877e-07
-6.68648e-06
3.56354e-07
-7.03662e-06
3.5014e-07
-7.37771e-06
3.41086e-07
-7.70678e-06
3.29068e-07
-8.02076e-06
3.13984e-07
-8.31653e-06
2.95763e-07
-8.59089e-06
2.74366e-07
-8.84068e-06
2.49791e-07
-9.06276e-06
2.22072e-07
-9.25404e-06
1.91287e-07
-9.4116e-06
1.57554e-07
-9.53264e-06
1.2104e-07
-9.6146e-06
8.19646e-08
-9.65521e-06
4.06079e-08
-9.65235e-06
-2.85559e-09
-9.60442e-06
-4.7934e-08
-9.51014e-06
-9.4278e-08
-9.36867e-06
-1.41469e-07
-9.17964e-06
-1.89033e-07
-8.94317e-06
-2.36469e-07
-8.65992e-06
-2.83253e-07
-8.33108e-06
-3.28838e-07
-7.95841e-06
-3.7267e-07
-7.54422e-06
-4.1419e-07
-7.09137e-06
-4.52849e-07
-6.60325e-06
-4.88116e-07
-6.08376e-06
-5.19489e-07
-5.53726e-06
-5.46505e-07
-4.9685e-06
-5.68757e-07
-4.38261e-06
-5.85897e-07
-3.78496e-06
-5.97649e-07
-3.18114e-06
-6.03821e-07
-2.57683e-06
-6.04305e-07
-1.97774e-06
-5.9909e-07
-1.38948e-06
-5.88258e-07
-8.17494e-07
-5.7199e-07
-2.66935e-07
-5.50559e-07
2.57398e-07
-5.24333e-07
7.51153e-07
-4.93755e-07
1.21049e-06
-4.59338e-07
1.63216e-06
-4.21665e-07
2.01351e-06
-3.81357e-07
2.35258e-06
-3.39068e-07
2.64805e-06
-2.95465e-07
2.89926e-06
-2.51214e-07
3.10622e-06
-2.06961e-07
3.26954e-06
-1.63321e-07
3.3904e-06
-1.20861e-07
3.4705e-06
-8.00935e-08
3.51196e-06
-4.14597e-08
3.51729e-06
-5.33017e-09
3.48928e-06
2.8005e-08
3.43095e-06
5.83317e-08
3.34543e-06
8.55171e-08
3.23593e-06
1.09502e-07
3.10563e-06
1.30299e-07
2.95765e-06
1.47981e-07
2.79497e-06
1.62678e-07
2.62041e-06
1.74562e-07
2.43657e-06
1.83838e-07
2.24584e-06
1.90732e-07
2.05037e-06
1.95472e-07
1.85209e-06
1.98276e-07
1.65277e-06
1.99328e-07
1.454e-06
1.98762e-07
1.25737e-06
1.96632e-07
1.06449e-06
1.92887e-07
8.77143e-07
1.87343e-07
6.97496e-07
1.79647e-07
5.28241e-07
1.69255e-07
3.72838e-07
1.55403e-07
2.35712e-07
1.37126e-07
1.22354e-07
1.13359e-07
3.90622e-08
8.32917e-08
-8.21202e-09
4.72754e-08
-1.75726e-08
9.36282e-09
-1.75707e-08
2.07761e-08
-2.10161e-08
8.57425e-08
-8.57372e-08
1.8637e-07
-1.40938e-07
3.11663e-07
-1.78328e-07
4.50611e-07
-1.98691e-07
5.93602e-07
-2.04772e-07
7.32833e-07
-1.99591e-07
8.62273e-07
-1.85907e-07
9.77431e-07
-1.66022e-07
1.07508e-06
-1.41769e-07
1.15298e-06
-1.14566e-07
1.20967e-06
-8.54777e-08
1.24423e-06
-5.52794e-08
1.25614e-06
-2.45042e-08
1.24513e-06
6.5025e-09
1.21108e-06
3.7557e-08
1.15391e-06
6.85979e-08
1.07354e-06
9.96545e-08
9.6981e-07
1.30831e-07
8.42468e-07
1.62281e-07
6.91126e-07
1.94195e-07
5.15257e-07
2.26781e-07
3.14184e-07
2.60252e-07
8.70887e-08
2.94819e-07
-1.66981e-07
3.30672e-07
-4.49092e-07
3.67982e-07
-7.60399e-07
4.06888e-07
-1.10213e-06
4.4749e-07
-1.47553e-06
4.89847e-07
-1.88185e-06
5.33971e-07
-2.32232e-06
5.79826e-07
-2.79807e-06
6.27324e-07
-3.31013e-06
6.76324e-07
-3.85937e-06
7.26631e-07
-4.44647e-06
7.77995e-07
-5.07187e-06
8.30115e-07
-5.73574e-06
8.82631e-07
-6.43793e-06
9.35135e-07
-7.17796e-06
9.87165e-07
-7.95495e-06
1.03821e-06
-8.76761e-06
1.08771e-06
-9.6142e-06
1.13507e-06
-1.04925e-05
1.17965e-06
-1.13998e-05
1.22077e-06
-1.23329e-05
1.25775e-06
-1.32881e-05
1.28986e-06
-1.4261e-05
1.31637e-06
-1.5247e-05
1.33657e-06
-1.62407e-05
1.34972e-06
-1.72363e-05
1.35515e-06
-1.82276e-05
1.35217e-06
-1.92079e-05
1.34018e-06
-2.01702e-05
1.3186e-06
-2.1107e-05
1.28694e-06
-2.20107e-05
1.24478e-06
-2.28734e-05
1.1918e-06
-2.36872e-05
1.12777e-06
-2.4444e-05
1.05257e-06
-2.51358e-05
9.66218e-07
-2.57549e-05
8.68842e-07
-2.62935e-05
7.60712e-07
-2.67445e-05
6.42241e-07
-2.71009e-05
5.13982e-07
-2.73565e-05
3.76638e-07
-2.75056e-05
2.31071e-07
-2.75434e-05
7.83624e-08
-2.74656e-05
-8.05752e-08
-2.72691e-05
-2.44431e-07
-2.69518e-05
-4.11634e-07
-2.65125e-05
-5.80765e-07
-2.59513e-05
-7.50211e-07
-2.52695e-05
-9.18277e-07
-2.44696e-05
-1.0832e-06
-2.35552e-05
-1.24317e-06
-2.25315e-05
-1.39636e-06
-2.14048e-05
-1.54097e-06
-2.01824e-05
-1.67522e-06
-1.88731e-05
-1.79739e-06
-1.74867e-05
-1.90589e-06
-1.6034e-05
-1.99926e-06
-1.45265e-05
-2.07619e-06
-1.29768e-05
-2.13559e-06
-1.13979e-05
-2.17658e-06
-9.80316e-06
-2.19856e-06
-8.2063e-06
-2.20116e-06
-6.62103e-06
-2.18435e-06
-5.06091e-06
-2.14838e-06
-3.53911e-06
-2.09379e-06
-2.06823e-06
-2.02144e-06
-6.60089e-07
-1.93247e-06
6.74438e-07
-1.82828e-06
1.92561e-06
-1.71051e-06
3.08496e-06
-1.58101e-06
4.14539e-06
-1.44179e-06
5.10129e-06
-1.29497e-06
5.94857e-06
-1.14275e-06
6.6847e-06
-9.87339e-07
7.30866e-06
-8.30925e-07
7.82095e-06
-6.75608e-07
8.22345e-06
-5.23363e-07
8.51936e-06
-3.76002e-07
8.71304e-06
-2.35135e-07
8.80985e-06
-1.02147e-07
8.81604e-06
2.1823e-08
8.73847e-06
1.35892e-07
8.58456e-06
2.39437e-07
8.36197e-06
3.32089e-07
8.07855e-06
4.13719e-07
7.74211e-06
4.84423e-07
7.3603e-06
5.4449e-07
6.94049e-06
5.9437e-07
6.48968e-06
6.34641e-07
6.01446e-06
6.65957e-07
5.52093e-06
6.89e-07
5.01479e-06
7.0442e-07
4.50134e-06
7.12772e-07
3.98567e-06
7.1444e-07
3.47274e-06
7.0956e-07
2.96768e-06
6.9794e-07
2.47605e-06
6.78975e-07
2.00412e-06
6.51575e-07
1.55925e-06
6.14131e-07
1.15012e-06
5.64532e-07
7.86913e-07
5.00332e-07
4.81038e-07
4.19234e-07
2.44117e-07
3.20211e-07
8.5755e-08
2.05634e-07
9.63253e-09
8.54807e-08
-7.93671e-09
4.05368e-08
-6.15522e-08
1.41446e-07
-1.86647e-07
2.86685e-07
-2.86175e-07
4.61291e-07
-3.52936e-07
6.51241e-07
-3.8864e-07
8.4415e-07
-3.97682e-07
1.02965e-06
-3.85096e-07
1.19943e-06
-3.55682e-07
1.34702e-06
-3.13612e-07
1.46757e-06
-2.62322e-07
1.55755e-06
-2.04544e-07
1.61445e-06
-1.4238e-07
1.63656e-06
-7.73852e-08
1.62271e-06
-1.06548e-08
1.57213e-06
5.70822e-08
1.48426e-06
1.25427e-07
1.35864e-06
1.94213e-07
1.19483e-06
2.63469e-07
9.92289e-07
3.33372e-07
7.50368e-07
4.04202e-07
4.68251e-07
4.76312e-07
1.44942e-07
5.5009e-07
-2.20743e-07
6.25938e-07
-6.30168e-07
7.04243e-07
-1.08485e-06
7.85357e-07
-1.58645e-06
8.69582e-07
-2.13671e-06
9.57148e-07
-2.73743e-06
1.04821e-06
-3.3904e-06
1.14282e-06
-4.09735e-06
1.24093e-06
-4.85993e-06
1.3424e-06
-5.67956e-06
1.44696e-06
-6.55746e-06
1.55423e-06
-7.49454e-06
1.66371e-06
-8.49135e-06
1.7748e-06
-9.54799e-06
1.88676e-06
-1.06641e-05
1.99875e-06
-1.18388e-05
2.10982e-06
-1.30705e-05
2.21891e-06
-1.43572e-05
2.32487e-06
-1.5696e-05
2.42646e-06
-1.70832e-05
2.52234e-06
-1.85147e-05
2.61113e-06
-1.99853e-05
2.6914e-06
-2.14892e-05
2.76166e-06
-2.30198e-05
2.82043e-06
-2.45696e-05
2.8662e-06
-2.61306e-05
2.89752e-06
-2.76938e-05
2.91297e-06
-2.92499e-05
2.9112e-06
-3.07887e-05
2.89094e-06
-3.22996e-05
2.85108e-06
-3.37716e-05
2.7906e-06
-3.51933e-05
2.70869e-06
-3.65532e-05
2.60467e-06
-3.78395e-05
2.47812e-06
-3.90406e-05
2.32881e-06
-4.01448e-05
2.15675e-06
-4.11407e-05
1.96219e-06
-4.20176e-05
1.74567e-06
-4.27648e-05
1.50797e-06
-4.33727e-05
1.25015e-06
-4.38323e-05
9.73547e-07
-4.41354e-05
6.79783e-07
-4.42751e-05
3.70725e-07
-4.42456e-05
4.88604e-08
-4.40418e-05
-2.84383e-07
-4.36607e-05
-6.25499e-07
-4.31004e-05
-9.71885e-07
-4.23607e-05
-1.32053e-06
-4.14426e-05
-1.66825e-06
-4.03492e-05
-2.01172e-06
-3.90849e-05
-2.34752e-06
-3.76559e-05
-2.67218e-06
-3.607e-05
-2.98221e-06
-3.43368e-05
-3.27416e-06
-3.24673e-05
-3.54469e-06
-3.04741e-05
-3.79059e-06
-2.83712e-05
-4.00886e-06
-2.61737e-05
-4.19674e-06
-2.38981e-05
-4.35181e-06
-2.15617e-05
-4.472e-06
-1.91826e-05
-4.55569e-06
-1.67794e-05
-4.60169e-06
-1.43713e-05
-4.60934e-06
-1.19771e-05
-4.57849e-06
-9.61591e-06
-4.50959e-06
-7.30611e-06
-4.4036e-06
-5.06548e-06
-4.26207e-06
-2.91087e-06
-4.08708e-06
-8.5794e-07
-3.88122e-06
1.07908e-06
-3.64753e-06
2.88755e-06
-3.38949e-06
4.55662e-06
-3.11086e-06
6.07737e-06
-2.81571e-06
7.44287e-06
-2.50825e-06
8.64831e-06
-2.19278e-06
9.69095e-06
-1.87357e-06
1.05701e-05
-1.55479e-06
1.12872e-05
-1.24043e-06
1.18454e-05
-9.34189e-07
1.22497e-05
-6.39417e-07
1.25066e-05
-3.59066e-07
1.2624e-05
-9.56341e-08
1.26111e-05
1.48861e-07
1.24776e-05
3.72903e-07
1.22342e-05
5.75467e-07
1.18919e-05
7.56012e-07
1.14619e-05
9.14443e-07
1.09553e-05
1.05107e-06
1.03832e-05
1.16655e-06
9.756e-06
1.2618e-06
9.08402e-06
1.33793e-06
8.3769e-06
1.39612e-06
7.64381e-06
1.43752e-06
6.89348e-06
1.46311e-06
6.13435e-06
1.47357e-06
5.37479e-06
1.46912e-06
4.62332e-06
1.44941e-06
3.88898e-06
1.41331e-06
3.18166e-06
1.3589e-06
2.51242e-06
1.28337e-06
1.89373e-06
1.18322e-06
1.33948e-06
1.05458e-06
8.64545e-07
8.94175e-07
4.83649e-07
7.01109e-07
2.09353e-07
4.79932e-07
4.88153e-08
2.46016e-07
4.08791e-08
5.36045e-08
-1.15157e-07
1.79573e-07
-3.12616e-07
3.54426e-07
-4.61028e-07
5.59206e-07
-5.57716e-07
7.77435e-07
-6.0687e-07
9.94922e-07
-6.15168e-07
1.19975e-06
-5.89924e-07
1.38219e-06
-5.38121e-07
1.53449e-06
-4.65919e-07
1.65067e-06
-3.78492e-07
1.72614e-06
-2.80023e-07
1.75754e-06
-1.73774e-07
1.74235e-06
-6.21961e-08
1.67874e-06
5.29571e-08
1.5653e-06
1.70517e-07
1.40093e-06
2.89801e-07
1.18463e-06
4.10513e-07
9.15431e-07
5.32666e-07
5.92301e-07
6.56502e-07
2.14071e-07
7.82432e-07
-2.20595e-07
9.10978e-07
-7.13224e-07
1.04272e-06
-1.26554e-06
1.17825e-06
-1.87943e-06
1.31813e-06
-2.55694e-06
1.46287e-06
-3.30024e-06
1.61288e-06
-4.11153e-06
1.76844e-06
-4.99302e-06
1.92969e-06
-5.94684e-06
2.09663e-06
-6.97495e-06
2.26905e-06
-8.07912e-06
2.44656e-06
-9.26077e-06
2.62861e-06
-1.05209e-05
2.8144e-06
-1.18602e-05
3.00296e-06
-1.32785e-05
3.19312e-06
-1.47753e-05
3.38351e-06
-1.63491e-05
3.57256e-06
-1.79978e-05
3.75855e-06
-1.97185e-05
3.93957e-06
-2.15072e-05
4.11357e-06
-2.33591e-05
4.27837e-06
-2.52684e-05
4.43168e-06
-2.72284e-05
4.57112e-06
-2.92313e-05
4.69426e-06
-3.12683e-05
4.79865e-06
-3.33297e-05
4.88185e-06
-3.54049e-05
4.94146e-06
-3.74826e-05
4.97516e-06
-3.95504e-05
4.98076e-06
-4.15954e-05
4.95623e-06
-4.36042e-05
4.89973e-06
-4.55628e-05
4.80967e-06
-4.74569e-05
4.6847e-06
-4.9272e-05
4.52378e-06
-5.09935e-05
4.32621e-06
-5.2607e-05
4.09162e-06
-5.40982e-05
3.82002e-06
-5.54533e-05
3.51182e-06
-5.66589e-05
3.16781e-06
-5.77024e-05
2.78921e-06
-5.85721e-05
2.37762e-06
-5.9257e-05
1.93509e-06
-5.97475e-05
1.46406e-06
-6.00351e-05
9.67365e-07
-6.01126e-05
4.48248e-07
-5.99743e-05
-8.94606e-08
-5.9616e-05
-6.42713e-07
-5.90352e-05
-1.20632e-06
-5.8231e-05
-1.77606e-06
-5.72044e-05
-2.34714e-06
-5.59581e-05
-2.91458e-06
-5.44966e-05
-3.47322e-06
-5.28263e-05
-4.01779e-06
-5.09555e-05
-4.54299e-06
-4.88942e-05
-5.0435e-06
-4.66542e-05
-5.51412e-06
-4.42491e-05
-5.94978e-06
-4.16941e-05
-6.34564e-06
-3.90058e-05
-6.69718e-06
-3.62022e-05
-7.00025e-06
-3.33029e-05
-7.25119e-06
-3.0328e-05
-7.44686e-06
-2.72989e-05
-7.58478e-06
-2.42375e-05
-7.6631e-06
-2.11661e-05
-7.68076e-06
-1.81071e-05
-7.63746e-06
-1.5083e-05
-7.53374e-06
-1.21156e-05
-7.37095e-06
-9.22637e-06
-7.15131e-06
-6.43561e-06
-6.87784e-06
-3.7625e-06
-6.55433e-06
-1.22471e-06
-6.18532e-06
1.16177e-06
-5.77596e-06
3.38289e-06
-5.33198e-06
5.4267e-06
-4.85952e-06
7.2835e-06
-4.36505e-06
8.94595e-06
-3.85523e-06
1.04091e-05
-3.33675e-06
1.16705e-05
-2.8162e-06
1.27301e-05
-2.29997e-06
1.359e-05
-1.79406e-06
1.42545e-05
-1.30401e-06
1.47303e-05
-8.34787e-07
1.50253e-05
-3.90697e-07
1.51495e-05
2.46674e-08
1.51139e-05
4.08478e-07
1.49308e-05
7.58664e-07
1.46128e-05
1.07392e-06
1.41736e-05
1.35365e-06
1.36268e-05
1.59793e-06
1.29859e-05
1.80739e-06
1.22646e-05
1.98315e-06
1.14759e-05
2.12664e-06
1.06325e-05
2.23946e-06
9.74686e-06
2.3232e-06
8.83071e-06
2.37926e-06
7.89568e-06
2.40859e-06
6.95329e-06
2.41152e-06
6.01519e-06
2.3875e-06
5.09354e-06
2.33496e-06
4.20128e-06
2.25116e-06
3.35245e-06
2.13221e-06
2.56234e-06
1.97333e-06
1.84753e-06
1.76939e-06
1.22549e-06
1.51621e-06
7.13888e-07
1.21271e-06
3.29467e-07
8.64355e-07
8.69726e-08
4.88511e-07
1.27852e-07
6.06579e-08
-1.75815e-07
2.00398e-07
-4.52357e-07
3.90173e-07
-6.50803e-07
6.07566e-07
-7.7511e-07
8.34042e-07
-8.33346e-07
1.05409e-06
-8.35219e-07
1.25483e-06
-7.90656e-07
1.42566e-06
-7.08953e-07
1.55805e-06
-5.98312e-07
1.64523e-06
-4.65669e-07
1.68188e-06
-3.16675e-07
1.66389e-06
-1.55781e-07
1.58805e-06
1.36418e-08
1.45184e-06
1.8916e-07
1.25323e-06
3.69136e-07
9.90435e-07
5.52592e-07
6.6186e-07
7.39088e-07
2.65921e-07
9.28605e-07
-1.99023e-07
1.12145e-06
-7.34731e-07
1.31814e-06
-1.34312e-06
1.51937e-06
-2.02629e-06
1.72589e-06
-2.7865e-06
1.93846e-06
-3.62616e-06
2.15779e-06
-4.54777e-06
2.38449e-06
-5.55389e-06
2.61901e-06
-6.64708e-06
2.86162e-06
-7.82975e-06
3.11237e-06
-9.10417e-06
3.37105e-06
-1.04723e-05
3.63717e-06
-1.19357e-05
3.90998e-06
-1.34955e-05
4.1884e-06
-1.51522e-05
4.47108e-06
-1.69056e-05
4.75634e-06
-1.87547e-05
5.04223e-06
-2.06977e-05
5.32651e-06
-2.27318e-05
5.60665e-06
-2.48531e-05
5.87991e-06
-2.70568e-05
6.1433e-06
-2.93369e-05
6.39363e-06
-3.16861e-05
6.62757e-06
-3.40961e-05
6.84166e-06
-3.65573e-05
7.03236e-06
-3.90592e-05
7.19611e-06
-4.15899e-05
7.32936e-06
-4.41367e-05
7.42864e-06
-4.66858e-05
7.49062e-06
-4.92228e-05
7.51214e-06
-5.17323e-05
7.49028e-06
-5.41985e-05
7.42243e-06
-5.66051e-05
7.3063e-06
-5.89354e-05
7.13999e-06
-6.11728e-05
6.92204e-06
-6.33004e-05
6.65145e-06
-6.53019e-05
6.3277e-06
-6.71611e-05
5.9508e-06
-6.88624e-05
5.52128e-06
-7.03908e-05
5.04024e-06
-7.17323e-05
4.5093e-06
-7.28737e-05
3.93066e-06
-7.38031e-05
3.30703e-06
-7.45097e-05
2.64169e-06
-7.49841e-05
1.93843e-06
-7.52183e-05
1.20154e-06
-7.52059e-05
4.35844e-07
-7.49417e-05
-3.53592e-07
-7.44232e-05
-1.1613e-06
-7.36485e-05
-1.98095e-06
-7.26183e-05
-2.80633e-06
-7.13346e-05
-3.63084e-06
-6.98015e-05
-4.44762e-06
-6.80251e-05
-5.24967e-06
-6.6013e-05
-6.02985e-06
-6.3775e-05
-6.78099e-06
-6.13225e-05
-7.49597e-06
-5.86689e-05
-8.16779e-06
-5.5829e-05
-8.78964e-06
-5.28196e-05
-9.35505e-06
-4.96588e-05
-9.85794e-06
-4.63663e-05
-1.02927e-05
-4.2963e-05
-1.06545e-05
-3.9471e-05
-1.09389e-05
-3.59131e-05
-1.11426e-05
-3.23133e-05
-1.1263e-05
-2.86957e-05
-1.12984e-05
-2.50848e-05
-1.12483e-05
-2.15053e-05
-1.11133e-05
-1.79814e-05
-1.08949e-05
-1.45368e-05
-1.05959e-05
-1.11944e-05
-1.02202e-05
-7.97613e-06
-9.77264e-06
-4.90226e-06
-9.2592e-06
-1.99156e-06
-8.68666e-06
7.39129e-07
-8.06267e-06
3.27509e-06
-7.39548e-06
5.6039e-06
-6.69386e-06
7.71562e-06
-5.96695e-06
9.60284e-06
-5.22398e-06
1.12608e-05
-4.47417e-06
1.26874e-05
-3.72654e-06
1.3883e-05
-2.98969e-06
1.48507e-05
-2.27165e-06
1.55956e-05
-1.57977e-06
1.61255e-05
-9.20537e-07
1.64497e-05
-2.99509e-07
1.65794e-05
2.78763e-07
1.65273e-05
8.10775e-07
1.63071e-05
1.29406e-06
1.59336e-05
1.72716e-06
1.54219e-05
2.10958e-06
1.47877e-05
2.44165e-06
1.40465e-05
2.72438e-06
1.32138e-05
2.95932e-06
1.23049e-05
3.14831e-06
1.13349e-05
3.29326e-06
1.03183e-05
3.39587e-06
9.26953e-06
3.45732e-06
8.20303e-06
3.47803e-06
7.13323e-06
3.4573e-06
6.07504e-06
3.39315e-06
5.04403e-06
3.28217e-06
4.05672e-06
3.11952e-06
3.13077e-06
2.89927e-06
2.28505e-06
2.61512e-06
1.53952e-06
2.26173e-06
9.15169e-07
1.83706e-06
4.3391e-07
1.34561e-06
1.19296e-07
8.03125e-07
2.47147e-07
6.28558e-08
-2.38672e-07
2.05991e-07
-5.95491e-07
3.96899e-07
-8.41712e-07
6.10658e-07
-9.88869e-07
8.27183e-07
-1.04987e-06
1.03004e-06
-1.03807e-06
1.20573e-06
-9.66345e-07
1.34319e-06
-8.46416e-07
1.43343e-06
-6.88557e-07
1.4692e-06
-5.01431e-07
1.44464e-06
-2.92116e-07
1.35506e-06
-6.6205e-08
1.19665e-06
1.72048e-07
9.66256e-07
4.19559e-07
6.61153e-07
6.74238e-07
2.78919e-07
9.34826e-07
-1.82734e-07
1.20074e-06
-7.26058e-07
1.47193e-06
-1.35335e-06
1.74874e-06
-2.06702e-06
2.03181e-06
-2.86959e-06
2.32194e-06
-3.76373e-06
2.62003e-06
-4.75223e-06
2.92696e-06
-5.83796e-06
3.24352e-06
-7.02381e-06
3.57033e-06
-8.31262e-06
3.90782e-06
-9.70711e-06
4.25611e-06
-1.12098e-05
4.61502e-06
-1.28227e-05
4.98398e-06
-1.45476e-05
5.36208e-06
-1.63856e-05
5.74796e-06
-1.83371e-05
6.13988e-06
-2.04016e-05
6.53565e-06
-2.2578e-05
6.9327e-06
-2.48638e-05
7.32805e-06
-2.72556e-05
7.71833e-06
-2.97488e-05
8.09986e-06
-3.23375e-05
8.4686e-06
-3.50145e-05
8.82029e-06
-3.77713e-05
9.15043e-06
-4.05981e-05
9.45434e-06
-4.34837e-05
9.72727e-06
-4.64158e-05
9.96443e-06
-4.93807e-05
1.01611e-05
-5.23639e-05
1.03125e-05
-5.53496e-05
1.04143e-05
-5.83213e-05
1.04623e-05
-6.12617e-05
1.04526e-05
-6.41531e-05
1.03817e-05
-6.69773e-05
1.02466e-05
-6.97159e-05
1.00449e-05
-7.23505e-05
9.77456e-06
-7.48628e-05
9.43434e-06
-7.72349e-05
9.02356e-06
-7.94494e-05
8.5422e-06
-8.14895e-05
7.99095e-06
-8.33394e-05
7.37115e-06
-8.4984e-05
6.68486e-06
-8.64095e-05
5.9348e-06
-8.76032e-05
5.12435e-06
-8.85537e-05
4.25756e-06
-8.92511e-05
3.33908e-06
-8.96869e-05
2.37418e-06
-8.9854e-05
1.36871e-06
-8.97473e-05
3.29165e-07
-8.93628e-05
-7.38114e-07
-8.86987e-05
-1.82543e-06
-8.77546e-05
-2.92506e-06
-8.6532e-05
-4.02897e-06
-8.5034e-05
-5.12878e-06
-8.32657e-05
-6.21588e-06
-8.1234e-05
-7.28144e-06
-7.89473e-05
-8.31655e-06
-7.6416e-05
-9.31225e-06
-7.36523e-05
-1.02597e-05
-7.06701e-05
-1.115e-05
-6.74848e-05
-1.19749e-05
-6.41137e-05
-1.27262e-05
-6.05755e-05
-1.33961e-05
-5.68904e-05
-1.39778e-05
-5.308e-05
-1.44649e-05
-4.9167e-05
-1.4852e-05
-4.51752e-05
-1.51344e-05
-4.11292e-05
-1.53089e-05
-3.70545e-05
-1.53731e-05
-3.29767e-05
-1.53261e-05
-2.89219e-05
-1.51681e-05
-2.49157e-05
-1.4901e-05
-2.09838e-05
-1.45278e-05
-1.7151e-05
-1.4053e-05
-1.34411e-05
-1.34825e-05
-9.87687e-06
-1.28234e-05
-6.47939e-06
-1.20841e-05
-3.26803e-06
-1.1274e-05
-2.60101e-07
-1.04034e-05
2.52938e-06
-9.48334e-06
5.08778e-06
-8.52535e-06
7.40511e-06
-7.54131e-06
9.47409e-06
-6.54315e-06
1.12902e-05
-5.54263e-06
1.28516e-05
-4.55114e-06
1.41594e-05
-3.57945e-06
1.52172e-05
-2.63752e-06
1.6031e-05
-1.73435e-06
1.66093e-05
-8.77798e-07
1.69626e-05
-7.45117e-08
1.71031e-05
6.70214e-07
1.70448e-05
1.35234e-06
1.68028e-05
1.96919e-06
1.63931e-05
2.5193e-06
1.58324e-05
3.00233e-06
1.51379e-05
3.4189e-06
1.43268e-05
3.77039e-06
1.34165e-05
4.05861e-06
1.24242e-05
4.28561e-06
1.13668e-05
4.45322e-06
1.02614e-05
4.56278e-06
9.12468e-06
4.61471e-06
7.97375e-06
4.60823e-06
6.82591e-06
4.54099e-06
5.69907e-06
4.40901e-06
4.61197e-06
4.20661e-06
3.58444e-06
3.92681e-06
2.63756e-06
3.562e-06
1.79396e-06
3.10533e-06
1.07823e-06
2.5528e-06
5.17759e-07
1.90608e-06
1.44573e-07
1.17631e-06
3.9172e-07
6.11782e-08
-2.99849e-07
1.9859e-07
-7.32904e-07
3.78067e-07
-1.02119e-06
5.73238e-07
-1.18404e-06
7.63089e-07
-1.23972e-06
9.30671e-07
-1.20566e-06
1.06221e-06
-1.09788e-06
1.14645e-06
-9.30658e-07
1.1742e-06
-7.1631e-07
1.13794e-06
-4.65165e-07
1.03146e-06
-1.85639e-07
8.49625e-07
1.15627e-07
5.88094e-07
4.33579e-07
2.43106e-07
7.64547e-07
-1.88699e-07
1.10604e-06
-7.10431e-07
1.45656e-06
-1.32508e-06
1.81539e-06
-2.03559e-06
2.18244e-06
-2.84495e-06
2.5581e-06
-3.75622e-06
2.94308e-06
-4.77254e-06
3.33827e-06
-5.89714e-06
3.74463e-06
-7.13328e-06
4.1631e-06
-8.48421e-06
4.59444e-06
-9.95309e-06
5.03922e-06
-1.15429e-05
5.49765e-06
-1.32564e-05
5.96958e-06
-1.50958e-05
6.45442e-06
-1.70629e-05
6.9511e-06
-1.91588e-05
7.45801e-06
-2.13839e-05
7.97302e-06
-2.37375e-05
8.49346e-06
-2.62179e-05
9.0161e-06
-2.88224e-05
9.5372e-06
-3.15469e-05
1.00525e-05
-3.4386e-05
1.05574e-05
-3.73328e-05
1.10466e-05
-4.0379e-05
1.15149e-05
-4.3515e-05
1.19563e-05
-4.67296e-05
1.2365e-05
-5.00102e-05
1.27349e-05
-5.33428e-05
1.30599e-05
-5.67122e-05
1.33339e-05
-6.01021e-05
1.3551e-05
-6.34951e-05
1.37055e-05
-6.68731e-05
1.37923e-05
-7.02172e-05
1.38064e-05
-7.3508e-05
1.37434e-05
-7.67259e-05
1.35996e-05
-7.98512e-05
1.33719e-05
-8.28643e-05
1.3058e-05
-8.57459e-05
1.26561e-05
-8.8477e-05
1.21655e-05
-9.10396e-05
1.15861e-05
-9.34162e-05
1.09188e-05
-9.55903e-05
1.01651e-05
-9.75465e-05
9.3274e-06
-9.92706e-05
8.409e-06
-0.00010075
7.41385e-06
-0.000101972
6.34667e-06
-0.000102927
5.21288e-06
-0.000103607
4.01859e-06
-0.000104003
2.77053e-06
-0.000104111
1.47606e-06
-0.000103925
1.43498e-07
-0.000103443
-1.22002e-06
-0.000102664
-2.60438e-06
-0.000101588
-4.00064e-06
-0.000100218
-5.3991e-06
-9.85573e-05
-6.78976e-06
-9.66109e-05
-8.16234e-06
-9.43859e-05
-9.50637e-06
-9.18912e-05
-1.08113e-05
-8.91371e-05
-1.20664e-05
-8.61356e-05
-1.32612e-05
-8.29005e-05
-1.43852e-05
-7.9447e-05
-1.54283e-05
-7.57923e-05
-1.63809e-05
-7.19549e-05
-1.72336e-05
-6.79548e-05
-1.79779e-05
-6.38136e-05
-1.86061e-05
-5.95541e-05
-1.91115e-05
-5.52003e-05
-1.94882e-05
-5.07772e-05
-1.9732e-05
-4.63107e-05
-1.98396e-05
-4.18273e-05
-1.98095e-05
-3.73539e-05
-1.96415e-05
-3.29176e-05
-1.93374e-05
-2.85451e-05
-1.89003e-05
-2.4263e-05
-1.83351e-05
-2.0097e-05
-1.76485e-05
-1.60718e-05
-1.68486e-05
-1.22108e-05
-1.59452e-05
-8.5356e-06
-1.49492e-05
-5.06608e-06
-1.38729e-05
-1.81987e-06
-1.27295e-05
1.18777e-06
-1.1533e-05
3.94419e-06
-1.02977e-05
6.43942e-06
-9.03838e-06
8.66637e-06
-7.76958e-06
1.06208e-05
-6.50558e-06
1.23014e-05
-5.26004e-06
1.37097e-05
-4.04578e-06
1.48498e-05
-2.87453e-06
1.57288e-05
-1.75673e-06
1.63557e-05
-7.01438e-07
1.67421e-05
2.83866e-07
1.69011e-05
1.19328e-06
1.68478e-05
2.02246e-06
1.65985e-05
2.76865e-06
1.61704e-05
3.43046e-06
1.55815e-05
4.00777e-06
1.48505e-05
4.50142e-06
1.39961e-05
4.91298e-06
1.30374e-05
5.24432e-06
1.19934e-05
5.49725e-06
1.0883e-05
5.67311e-06
9.72544e-06
5.77229e-06
8.53983e-06
5.79383e-06
7.34572e-06
5.7351e-06
6.16316e-06
5.59157e-06
5.01297e-06
5.3568e-06
3.91707e-06
5.0227e-06
2.89884e-06
4.58023e-06
1.98364e-06
4.02053e-06
1.19975e-06
3.33669e-06
5.79718e-07
2.52611e-06
1.62832e-07
1.5932e-06
5.54552e-07
5.63662e-08
-3.56216e-07
1.80134e-07
-8.56672e-07
3.36854e-07
-1.17791e-06
4.99718e-07
-1.3469e-06
6.47457e-07
-1.38746e-06
7.63054e-07
-1.32125e-06
8.32785e-07
-1.16761e-06
8.45474e-07
-9.43347e-07
7.91939e-07
-6.62774e-07
6.6456e-07
-3.37786e-07
4.56927e-07
2.19943e-08
1.63554e-07
4.09e-07
-2.20361e-07
8.17493e-07
-6.99132e-07
1.24332e-06
-1.27674e-06
1.68366e-06
-1.95699e-06
2.1368e-06
-2.74355e-06
2.60195e-06
-3.64009e-06
3.07897e-06
-4.65027e-06
3.56828e-06
-5.7778e-06
4.07061e-06
-7.0264e-06
4.58687e-06
-8.3998e-06
5.11803e-06
-9.90165e-06
5.66495e-06
-1.15355e-05
6.22828e-06
-1.33046e-05
6.80833e-06
-1.52119e-05
7.40498e-06
-1.726e-05
8.01762e-06
-1.94506e-05
8.64504e-06
-2.17849e-05
9.28542e-06
-2.42632e-05
9.93626e-06
-2.68845e-05
1.05944e-05
-2.96471e-05
1.1256e-05
-3.25475e-05
1.19165e-05
-3.55811e-05
1.25708e-05
-3.87418e-05
1.32132e-05
-4.20219e-05
1.38375e-05
-4.54121e-05
1.44369e-05
-4.89016e-05
1.50043e-05
-5.24779e-05
1.55326e-05
-5.61271e-05
1.60143e-05
-5.98339e-05
1.64417e-05
-6.35817e-05
1.68077e-05
-6.73527e-05
1.71048e-05
-7.11281e-05
1.73263e-05
-7.48883e-05
1.74658e-05
-7.86132e-05
1.75172e-05
-8.22823e-05
1.74754e-05
-8.58747e-05
1.73358e-05
-8.93699e-05
1.70948e-05
-9.27474e-05
1.67494e-05
-9.59872e-05
1.62978e-05
-9.907e-05
1.57389e-05
-0.000101977
1.50726e-05
-0.000104691
1.42999e-05
-0.000107195
1.34226e-05
-0.000109473
1.24434e-05
-0.000111512
1.1366e-05
-0.000113298
1.01948e-05
-0.000114819
8.93508e-06
-0.000116065
7.59299e-06
-0.000117027
6.17528e-06
-0.000117698
4.68943e-06
-0.000118071
3.14357e-06
-0.000118142
1.54639e-06
-0.000117906
-9.215e-08
-0.000117362
-1.76411e-06
-0.000116509
-3.45734e-06
-0.000115348
-5.16175e-06
-0.000113881
-6.86622e-06
-0.000112111
-8.55925e-06
-0.000110044
-1.02291e-05
-0.000107687
-1.18638e-05
-0.000105047
-1.34511e-05
-0.000102135
-1.4979e-05
-9.89607e-05
-1.64351e-05
-9.55383e-05
-1.78076e-05
-9.18821e-05
-1.90845e-05
-8.80084e-05
-2.02546e-05
-8.39351e-05
-2.13069e-05
-7.96816e-05
-2.22314e-05
-7.52689e-05
-2.30188e-05
-7.07196e-05
-2.36608e-05
-6.60574e-05
-2.41504e-05
-6.13075e-05
-2.44819e-05
-5.6496e-05
-2.46511e-05
-5.16499e-05
-2.46556e-05
-4.67969e-05
-2.44946e-05
-4.19649e-05
-2.41694e-05
-3.71821e-05
-2.36831e-05
-3.24765e-05
-2.30407e-05
-2.78755e-05
-2.22494e-05
-2.34059e-05
-2.13183e-05
-1.9093e-05
-2.0258e-05
-1.49611e-05
-1.90812e-05
-1.10323e-05
-1.78017e-05
-7.32701e-06
-1.64349e-05
-3.86305e-06
-1.4997e-05
-6.55852e-07
-1.35049e-05
2.28192e-06
-1.19762e-05
4.94045e-06
-1.04281e-05
7.3129e-06
-8.87803e-06
9.39546e-06
-7.3426e-06
1.11873e-05
-5.83762e-06
1.26905e-05
-4.37776e-06
1.39101e-05
-2.97632e-06
1.48537e-05
-1.645e-06
1.55313e-05
-3.93784e-07
1.59554e-05
7.69186e-07
1.61402e-05
1.83764e-06
1.61018e-05
2.80707e-06
1.58575e-05
3.67473e-06
1.54259e-05
4.43937e-06
1.48264e-05
5.101e-06
1.40788e-05
5.66058e-06
1.32035e-05
6.11957e-06
1.22212e-05
6.47954e-06
1.11527e-05
6.74163e-06
1.00189e-05
6.90607e-06
8.84106e-06
6.97169e-06
7.64064e-06
6.93552e-06
6.4397e-06
6.79251e-06
5.26108e-06
6.53542e-06
4.12879e-06
6.155e-06
3.06848e-06
5.64053e-06
2.10829e-06
4.98072e-06
1.2799e-06
4.16509e-06
6.20342e-07
3.18567e-06
1.74551e-07
2.03899e-06
7.29103e-07
4.8934e-08
-4.0515e-07
1.52107e-07
-9.59845e-07
2.75853e-07
-1.30165e-06
3.9382e-07
-1.46487e-06
4.85145e-07
-1.47878e-06
5.33229e-07
-1.36934e-06
5.24744e-07
-1.15913e-06
4.48842e-07
-8.67445e-07
2.96552e-07
-5.10485e-07
6.03147e-08
-1.01548e-07
-2.66381e-07
3.48691e-07
-6.89283e-07
8.31902e-07
-1.21359e-06
1.3418e-06
-1.84414e-06
1.87387e-06
-2.58552e-06
2.42503e-06
-3.44218e-06
2.99346e-06
-4.41849e-06
3.57826e-06
-5.51881e-06
4.17929e-06
-6.74745e-06
4.79693e-06
-8.10873e-06
5.43188e-06
-9.60689e-06
6.08503e-06
-1.12461e-05
6.75721e-06
-1.30302e-05
7.44909e-06
-1.4963e-05
8.16104e-06
-1.70476e-05
8.89295e-06
-1.92868e-05
9.64417e-06
-2.16825e-05
1.04134e-05
-2.42361e-05
1.11986e-05
-2.69476e-05
1.19969e-05
-2.98161e-05
1.28048e-05
-3.28393e-05
1.36176e-05
-3.60137e-05
1.44303e-05
-3.93339e-05
1.52367e-05
-4.27931e-05
1.60301e-05
-4.6383e-05
1.68031e-05
-5.00933e-05
1.75478e-05
-5.39121e-05
1.82557e-05
-5.7826e-05
1.89182e-05
-6.18197e-05
1.95264e-05
-6.58768e-05
2.00714e-05
-6.99794e-05
2.05443e-05
-7.41085e-05
2.09367e-05
-7.82441e-05
2.12404e-05
-8.23655e-05
2.14477e-05
-8.64515e-05
2.15518e-05
-9.04807e-05
2.15464e-05
-9.44316e-05
2.14263e-05
-9.82829e-05
2.11871e-05
-0.000102014
2.08255e-05
-0.000105603
2.03392e-05
-0.000109033
1.97271e-05
-0.000112283
1.8989e-05
-0.000115336
1.81259e-05
-0.000118176
1.71398e-05
-0.000120787
1.60337e-05
-0.000123155
1.48116e-05
-0.000125268
1.34783e-05
-0.000127113
1.20396e-05
-0.00012868
1.05021e-05
-0.00012996
8.87306e-06
-0.000130945
7.16051e-06
-0.000131629
5.37316e-06
-0.000132005
3.52034e-06
-0.000132071
1.61199e-06
-0.000131822
-3.41189e-07
-0.000131257
-2.32906e-06
-0.000130375
-4.33928e-06
-0.000129177
-6.36014e-06
-0.000127664
-8.3793e-06
-0.000125839
-1.0384e-05
-0.000123707
-1.23612e-05
-0.000121273
-1.42975e-05
-0.000118545
-1.61793e-05
-0.000115531
-1.7993e-05
-0.000112241
-1.97249e-05
-0.000108687
-2.13612e-05
-0.000104883
-2.28886e-05
-0.000100844
-2.4294e-05
-9.65857e-05
-2.55649e-05
-9.21277e-05
-2.66894e-05
-8.749e-05
-2.76565e-05
-8.26944e-05
-2.84564e-05
-7.77643e-05
-2.90804e-05
-7.27248e-05
-2.95214e-05
-6.76019e-05
-2.97739e-05
-6.24231e-05
-2.98344e-05
-5.72167e-05
-2.9701e-05
-5.20116e-05
-2.93745e-05
-4.68372e-05
-2.88574e-05
-4.1723e-05
-2.81549e-05
-3.66981e-05
-2.72743e-05
-3.17913e-05
-2.62251e-05
-2.70303e-05
-2.5019e-05
-2.24416e-05
-2.36699e-05
-1.80499e-05
-2.21933e-05
-1.38783e-05
-2.06065e-05
-9.94746e-06
-1.89278e-05
-6.27553e-06
-1.71769e-05
-2.87802e-06
-1.53737e-05
2.32492e-07
-1.35386e-05
3.04646e-06
-1.1692e-05
5.55745e-06
-9.85359e-06
7.76219e-06
-8.04235e-06
9.6605e-06
-6.27607e-06
1.12553e-05
-4.5711e-06
1.25523e-05
-2.94206e-06
1.35602e-05
-1.40166e-06
1.42901e-05
3.93372e-08
1.47552e-05
1.37251e-06
1.49711e-05
2.5912e-06
1.49548e-05
3.69096e-06
1.47251e-05
4.66909e-06
1.43017e-05
5.52442e-06
1.37053e-05
6.25699e-06
1.29573e-05
6.86759e-06
1.20796e-05
7.35725e-06
1.10945e-05
7.72674e-06
1.00246e-05
7.97597e-06
8.89281e-06
8.10345e-06
7.72253e-06
8.1058e-06
6.53765e-06
7.97739e-06
5.36296e-06
7.71011e-06
4.22451e-06
7.29345e-06
3.15022e-06
6.71482e-06
2.17077e-06
5.96018e-06
1.32087e-06
5.01498e-06
6.41105e-07
3.86543e-06
1.80365e-07
2.49973e-06
9.09468e-07
3.92151e-08
-4.44365e-07
1.15577e-07
-1.03621e-06
1.97043e-07
-1.38312e-06
2.585e-07
-1.52633e-06
2.80127e-07
-1.50041e-06
2.46223e-07
-1.33543e-06
1.44213e-07
-1.05712e-06
-3.61614e-08
-6.87071e-07
-3.03471e-07
-2.43175e-07
-6.65079e-07
2.6006e-07
-1.1275e-06
8.11114e-07
-1.69668e-06
1.40108e-06
-2.37816e-06
2.02329e-06
-3.17727e-06
2.67298e-06
-4.09918e-06
3.34694e-06
-5.14897e-06
4.04325e-06