/*--------------------------------*- C++ -*----------------------------------*\
| =========                 |                                                 |
| \\      /  F ield         | OpenFOAM: The Open Source CFD Toolbox           |
|  \\    /   O peration     | Version:  2112                                  |
|   \\  /    A nd           | Website:  www.openfoam.com                      |
|    \\/     M anipulation  |                                                 |
\*---------------------------------------------------------------------------*/
FoamFile
{
    version     2.0;
    format      ascii;
    arch        "LSB;label=32;scalar=64";
    class       volVectorField;
    location    "21";
    object      U;
}
// * * * * * * * * * * * * * * * * * * * * * * * * * * * * * * * * * * * * * //

dimensions      [0 1 -1 0 0 0 0];

internalField   nonuniform List<vector> 
16641
(
(-3.93405e-06 3.875e-06 0)
(7.07027e-06 -6.34179e-06 0)
(4.89527e-05 -1.65921e-05 0)
(0.000110862 -2.30644e-05 0)
(0.000184915 -2.63309e-05 0)
(0.000264384 -2.73052e-05 0)
(0.000344005 -2.67104e-05 0)
(0.000419972 -2.50828e-05 0)
(0.000489636 -2.27992e-05 0)
(0.000551199 -2.01216e-05 0)
(0.000603497 -1.72319e-05 0)
(0.000645829 -1.42537e-05 0)
(0.000677823 -1.12712e-05 0)
(0.000699335 -8.33682e-06 0)
(0.000710369 -5.47963e-06 0)
(0.00071101 -2.71098e-06 0)
(0.000701373 -2.81312e-08 0)
(0.000681566 2.58117e-06 0)
(0.000651661 5.13635e-06 0)
(0.000611672 7.66259e-06 0)
(0.000561539 1.01885e-05 0)
(0.000501121 1.27442e-05 0)
(0.000430192 1.53603e-05 0)
(0.000348436 1.80673e-05 0)
(0.000255459 2.08936e-05 0)
(0.000150789 2.38656e-05 0)
(3.38872e-05 2.70065e-05 0)
(-9.58371e-05 3.03362e-05 0)
(-0.000239017 3.38704e-05 0)
(-0.00039631 3.76203e-05 0)
(-0.000568385 4.15927e-05 0)
(-0.000755902 4.57899e-05 0)
(-0.000959496 5.02091e-05 0)
(-0.00117976 5.48424e-05 0)
(-0.00141722 5.96769e-05 0)
(-0.00167234 6.4695e-05 0)
(-0.00194546 6.98729e-05 0)
(-0.00223682 7.51813e-05 0)
(-0.00254652 8.05859e-05 0)
(-0.0028745 8.60462e-05 0)
(-0.00322053 9.15158e-05 0)
(-0.0035842 9.69424e-05 0)
(-0.00396489 0.000102268 0)
(-0.00436174 0.00010743 0)
(-0.00477367 0.000112358 0)
(-0.00519936 0.000116978 0)
(-0.00563721 0.000121213 0)
(-0.00608539 0.000124979 0)
(-0.00654177 0.000128191 0)
(-0.00700396 0.000130763 0)
(-0.00746933 0.000132607 0)
(-0.00793498 0.000133634 0)
(-0.00839775 0.00013376 0)
(-0.00885428 0.000132901 0)
(-0.00930099 0.000130982 0)
(-0.00973414 0.000127931 0)
(-0.0101498 0.000123686 0)
(-0.010544 0.000118196 0)
(-0.0109127 0.000111421 0)
(-0.0112517 0.000103334 0)
(-0.0115569 9.3925e-05 0)
(-0.0118244 8.32006e-05 0)
(-0.0120502 7.11855e-05 0)
(-0.0122306 5.79265e-05 0)
(-0.0123622 4.34986e-05 0)
(-0.0124418 2.80037e-05 0)
(-0.0124666 1.15292e-05 0)
(-0.0124342 -5.83235e-06 0)
(-0.0123427 -2.38972e-05 0)
(-0.0121908 -4.24764e-05 0)
(-0.0119776 -6.13767e-05 0)
(-0.011703 -8.03883e-05 0)
(-0.0113674 -9.9285e-05 0)
(-0.0109722 -0.000117828 0)
(-0.0105191 -0.00013577 0)
(-0.0100108 -0.000152861 0)
(-0.00945059 -0.000168851 0)
(-0.0088426 -0.000183495 0)
(-0.0081915 -0.000196562 0)
(-0.00750263 -0.000207837 0)
(-0.00678187 -0.000217129 0)
(-0.00603562 -0.000224275 0)
(-0.00527068 -0.000229147 0)
(-0.00449413 -0.000231653 0)
(-0.00371328 -0.000231744 0)
(-0.00293548 -0.000229416 0)
(-0.00216807 -0.000224707 0)
(-0.0014182 -0.000217705 0)
(-0.000692726 -0.00020854 0)
(1.90387e-06 -0.000197384 0)
(0.000659761 -0.000184445 0)
(0.00127555 -0.00016996 0)
(0.00184467 -0.000154198 0)
(0.00236333 -0.000137443 0)
(0.00282853 -0.000119989 0)
(0.00323815 -0.000102133 0)
(0.00359091 -8.41662e-05 0)
(0.00388642 -6.63674e-05 0)
(0.00412506 -4.89959e-05 0)
(0.00430801 -3.22858e-05 0)
(0.00443713 -1.64414e-05 0)
(0.00451492 -1.6332e-06 0)
(0.00454439 1.20034e-05 0)
(0.00452897 2.4369e-05 0)
(0.00447242 3.54012e-05 0)
(0.00437875 4.50718e-05 0)
(0.00425205 5.33846e-05 0)
(0.00409646 6.03727e-05 0)
(0.00391608 6.60948e-05 0)
(0.00371485 7.06308e-05 0)
(0.00349652 7.40774e-05 0)
(0.00326459 7.65429e-05 0)
(0.00302229 7.81415e-05 0)
(0.00277254 7.89878e-05 0)
(0.00251798 7.91895e-05 0)
(0.00226098 7.88391e-05 0)
(0.00200368 7.8005e-05 0)
(0.00174812 7.67201e-05 0)
(0.00149631 7.49678e-05 0)
(0.00125043 7.26658e-05 0)
(0.00101296 6.9646e-05 0)
(0.000786996 6.56309e-05 0)
(0.000576463 6.02072e-05 0)
(0.000386431 5.28046e-05 0)
(0.000223362 4.27165e-05 0)
(9.50121e-05 2.92736e-05 0)
(9.50907e-06 1.23965e-05 0)
(-2.64423e-05 -5.78864e-06 0)
(-1.56735e-05 -1.57056e-05 0)
(6.29612e-06 -7.06909e-06 0)
(5.57155e-05 -5.56948e-05 0)
(0.00016597 -9.96209e-05 0)
(0.000315628 -0.000129127 0)
(0.00048917 -0.000145078 0)
(0.000673624 -0.00015008 0)
(0.000857766 -0.00014674 0)
(0.00103268 -0.000137308 0)
(0.00119163 -0.000123578 0)
(0.00132975 -0.000106927 0)
(0.00144357 -8.8391e-05 0)
(0.00153077 -6.87292e-05 0)
(0.00158987 -4.84843e-05 0)
(0.00161998 -2.80217e-05 0)
(0.00162065 -7.56904e-06 0)
(0.00159164 1.27573e-05 0)
(0.00153284 3.29263e-05 0)
(0.00144419 5.29736e-05 0)
(0.00132552 7.29839e-05 0)
(0.0011766 9.30779e-05 0)
(0.000997002 0.0001134 0)
(0.000786151 0.000134106 0)
(0.000543267 0.000155358 0)
(0.000267383 0.000177313 0)
(-4.26485e-05 0.00020012 0)
(-0.000388134 0.00022391 0)
(-0.000770517 0.000248794 0)
(-0.00119134 0.000274859 0)
(-0.00165221 0.000302163 0)
(-0.00215475 0.000330735 0)
(-0.00270058 0.00036057 0)
(-0.00329122 0.000391632 0)
(-0.00392808 0.000423846 0)
(-0.0046124 0.000457103 0)
(-0.0053452 0.000491261 0)
(-0.00612719 0.000526137 0)
(-0.0069588 0.000561514 0)
(-0.00784005 0.000597138 0)
(-0.00877055 0.00063272 0)
(-0.00974942 0.000667934 0)
(-0.0107753 0.000702422 0)
(-0.0118462 0.000735793 0)
(-0.0129596 0.000767626 0)
(-0.0141123 0.000797473 0)
(-0.0153005 0.000824863 0)
(-0.0165197 0.000849305 0)
(-0.0177649 0.000870296 0)
(-0.01903 0.000887325 0)
(-0.0203087 0.000899879 0)
(-0.0215937 0.000907452 0)
(-0.0228773 0.000909553 0)
(-0.0241512 0.000905712 0)
(-0.0254064 0.00089549 0)
(-0.0266337 0.00087849 0)
(-0.0278232 0.000854359 0)
(-0.028965 0.000822806 0)
(-0.0300489 0.000783604 0)
(-0.0310644 0.000736601 0)
(-0.0320012 0.000681727 0)
(-0.0328491 0.000619 0)
(-0.0335981 0.000548536 0)
(-0.0342385 0.000470552 0)
(-0.0347612 0.000385371 0)
(-0.0351577 0.000293426 0)
(-0.0354203 0.000195268 0)
(-0.0355422 9.15544e-05 0)
(-0.0355174 -1.70219e-05 0)
(-0.0353413 -0.000129489 0)
(-0.0350102 -0.000244908 0)
(-0.0345223 -0.000362213 0)
(-0.0338767 -0.000480248 0)
(-0.0330743 -0.000597789 0)
(-0.0321175 -0.000713549 0)
(-0.0310104 -0.000826202 0)
(-0.0297586 -0.000934397 0)
(-0.0283693 -0.00103679 0)
(-0.0268516 -0.00113204 0)
(-0.0252159 -0.00121888 0)
(-0.023474 -0.00129609 0)
(-0.0216393 -0.00136258 0)
(-0.0197263 -0.00141735 0)
(-0.0177506 -0.00145958 0)
(-0.0157286 -0.0014886 0)
(-0.0136775 -0.00150395 0)
(-0.0116148 -0.00150538 0)
(-0.00955815 -0.00149284 0)
(-0.00752531 -0.00146655 0)
(-0.00553354 -0.00142692 0)
(-0.00359952 -0.00137461 0)
(-0.00173907 -0.00131049 0)
(3.3132e-05 -0.00123564 0)
(0.00170373 -0.00115128 0)
(0.00326095 -0.00105881 0)
(0.00469472 -0.000959729 0)
(0.00599682 -0.000855626 0)
(0.00716097 -0.000748114 0)
(0.00818291 -0.000638816 0)
(0.00906034 -0.000529313 0)
(0.00979296 -0.000421114 0)
(0.0103823 -0.000315621 0)
(0.0108317 -0.000214099 0)
(0.0111461 -0.000117656 0)
(0.0113317 -2.72254e-05 0)
(0.0113962 5.6449e-05 0)
(0.011348 0.000132814 0)
(0.0111964 0.000201509 0)
(0.0109512 0.000262357 0)
(0.0106224 0.000315352 0)
(0.0102202 0.000360648 0)
(0.00975462 0.00039853 0)
(0.00923532 0.000429396 0)
(0.00867164 0.000453726 0)
(0.00807234 0.000472049 0)
(0.00744562 0.000484905 0)
(0.00679906 0.000492809 0)
(0.00613976 0.000496197 0)
(0.00547435 0.000495374 0)
(0.00480927 0.000490461 0)
(0.00415096 0.000481322 0)
(0.00350621 0.000467501 0)
(0.00288257 0.000448154 0)
(0.00228873 0.000421994 0)
(0.00173498 0.00038727 0)
(0.00123352 0.000341845 0)
(0.000798495 0.000283511 0)
(0.000445191 0.000210902 0)
(0.000187753 0.00012546 0)
(3.66988e-05 3.60351e-05 0)
(-5.60188e-06 -2.64971e-05 0)
(1.67184e-05 -4.9041e-05 0)
(0.000100137 -0.000166047 0)
(0.000263777 -0.000263021 0)
(0.000475641 -0.000328944 0)
(0.000714956 -0.000364928 0)
(0.000965405 -0.00037537 0)
(0.00121241 -0.000365348 0)
(0.00144388 -0.000339643 0)
(0.00165036 -0.000302338 0)
(0.00182463 -0.000256746 0)
(0.00196138 -0.00020546 0)
(0.00205679 -0.00015045 0)
(0.00210822 -9.31621e-05 0)
(0.00211386 -3.46015e-05 0)
(0.00207254 2.45829e-05 0)
(0.00198341 8.40278e-05 0)
(0.00184588 0.0001436 0)
(0.00165937 0.000203345 0)
(0.00142327 0.000263442 0)
(0.00113684 0.000324169 0)
(0.000799136 0.000385866 0)
(0.000408994 0.000448909 0)
(-3.49936e-05 0.000513687 0)
(-0.000534474 0.000580577 0)
(-0.00109132 0.000649929 0)
(-0.00170758 0.000722044 0)
(-0.00238546 0.000797168 0)
(-0.00312728 0.000875472 0)
(-0.00393535 0.000957049 0)
(-0.00481197 0.0010419 0)
(-0.00575934 0.00112994 0)
(-0.00677946 0.00122099 0)
(-0.00787405 0.00131474 0)
(-0.00904451 0.00141081 0)
(-0.0102918 0.0015087 0)
(-0.0116163 0.00160782 0)
(-0.013018 0.00170747 0)
(-0.014496 0.00180684 0)
(-0.0160488 0.00190505 0)
(-0.017674 0.00200109 0)
(-0.0193685 0.00209391 0)
(-0.0211281 0.00218234 0)
(-0.0229477 0.00226516 0)
(-0.0248214 0.0023411 0)
(-0.026742 0.00240884 0)
(-0.0287015 0.00246702 0)
(-0.0306909 0.00251428 0)
(-0.0327001 0.00254927 0)
(-0.0347182 0.00257064 0)
(-0.0367333 0.00257712 0)
(-0.0387328 0.00256749 0)
(-0.0407033 0.00254063 0)
(-0.0426308 0.00249553 0)
(-0.0445009 0.00243131 0)
(-0.0462988 0.00234724 0)
(-0.0480093 0.0022428 0)
(-0.0496173 0.00211762 0)
(-0.0511078 0.00197157 0)
(-0.0524659 0.00180474 0)
(-0.0536771 0.00161747 0)
(-0.0547278 0.00141034 0)
(-0.0556048 0.00118419 0)
(-0.0562959 0.000940124 0)
(-0.0567901 0.00067952 0)
(-0.0570777 0.000403995 0)
(-0.0571502 0.000115425 0)
(-0.0570009 -0.000183943 0)
(-0.0566244 -0.000491708 0)
(-0.0560174 -0.000805328 0)
(-0.0551787 -0.001122 0)
(-0.0541086 -0.00143874 0)
(-0.05281 -0.00175242 0)
(-0.0512874 -0.00205979 0)
(-0.049548 -0.00235757 0)
(-0.0476006 -0.00264242 0)
(-0.0454566 -0.00291106 0)
(-0.0431292 -0.00316025 0)
(-0.0406336 -0.00338691 0)
(-0.037987 -0.00358816 0)
(-0.0352083 -0.00376133 0)
(-0.0323179 -0.00390409 0)
(-0.0293377 -0.00401446 0)
(-0.0262905 -0.00409086 0)
(-0.0232001 -0.00413218 0)
(-0.0200909 -0.00413778 0)
(-0.0169876 -0.00410757 0)
(-0.0139146 -0.00404199 0)
(-0.0108961 -0.003942 0)
(-0.00795573 -0.00380914 0)
(-0.00511574 -0.00364545 0)
(-0.00239719 -0.00345345 0)
(0.000180567 -0.00323609 0)
(0.00260013 -0.00299671 0)
(0.0048463 -0.00273896 0)
(0.00690629 -0.00246669 0)
(0.00876985 -0.00218392 0)
(0.0104294 -0.0018947 0)
(0.0118801 -0.00160304 0)
(0.0131196 -0.00131283 0)
(0.0141486 -0.00102773 0)
(0.01497 -0.000751129 0)
(0.0155891 -0.000486061 0)
(0.0160134 -0.000235152 0)
(0.0162523 -5.85887e-07 0)
(0.0163167 0.000215916 0)
(0.0162191 0.000413106 0)
(0.0159727 0.000590208 0)
(0.0155914 0.000746889 0)
(0.0150898 0.000883232 0)
(0.0144822 0.000999685 0)
(0.013783 0.00109701 0)
(0.0130061 0.00117618 0)
(0.012165 0.00123837 0)
(0.0112725 0.00128476 0)
(0.0103406 0.00131652 0)
(0.00938106 0.00133462 0)
(0.00840476 0.00133974 0)
(0.00742249 0.00133212 0)
(0.00644505 0.00131139 0)
(0.00548368 0.00127646 0)
(0.00455048 0.0012254 0)
(0.00365885 0.00115538 0)
(0.00282395 0.00106278 0)
(0.00206285 0.000943517 0)
(0.0013944 0.00079399 0)
(0.000837999 0.000613002 0)
(0.000410841 0.000405259 0)
(0.000129027 0.000188024 0)
(1.32883e-05 1.03992e-05 0)
(2.34342e-05 -0.000111438 0)
(0.000130389 -0.000316354 0)
(0.000330852 -0.000475155 0)
(0.000582615 -0.000580749 0)
(0.000860365 -0.000636439 0)
(0.00114546 -0.000649114 0)
(0.00142128 -0.000626623 0)
(0.00167384 -0.000576512 0)
(0.00189193 -0.000505414 0)
(0.00206677 -0.000418856 0)
(0.00219165 -0.000321275 0)
(0.00226152 -0.000216105 0)
(0.00227267 -0.000105909 0)
(0.00222237 7.49019e-06 0)
(0.00210859 0.000122894 0)
(0.00192976 0.000239606 0)
(0.00168455 0.000357339 0)
(0.00137174 0.000476123 0)
(0.000990054 0.000596232 0)
(0.000538091 0.000718115 0)
(1.42438e-05 0.000842334 0)
(-0.000583332 0.000969516 0)
(-0.00125673 0.00110031 0)
(-0.00200829 0.00123532 0)
(-0.00284058 0.00137513 0)
(-0.0037563 0.0015202 0)
(-0.00475831 0.00167088 0)
(-0.00584946 0.00182738 0)
(-0.00703258 0.00198978 0)
(-0.00831033 0.00215794 0)
(-0.00968516 0.00233157 0)
(-0.0111591 0.00251018 0)
(-0.0127339 0.00269307 0)
(-0.0144104 0.00287937 0)
(-0.0161892 0.00306798 0)
(-0.0180698 0.00325763 0)
(-0.0200509 0.00344684 0)
(-0.0221303 0.00363396 0)
(-0.0243047 0.00381716 0)
(-0.0265697 0.00399446 0)
(-0.0289196 0.0041637 0)
(-0.0313477 0.00432265 0)
(-0.0338458 0.00446893 0)
(-0.0364045 0.00460012 0)
(-0.0390133 0.00471372 0)
(-0.04166 0.00480723 0)
(-0.0443318 0.00487817 0)
(-0.0470142 0.00492413 0)
(-0.0496921 0.00494277 0)
(-0.0523492 0.0049319 0)
(-0.0549683 0.0048895 0)
(-0.0575318 0.00481377 0)
(-0.0600214 0.00470315 0)
(-0.0624185 0.00455636 0)
(-0.0647042 0.00437247 0)
(-0.0668599 0.00415087 0)
(-0.0688668 0.00389133 0)
(-0.070707 0.00359403 0)
(-0.0723627 0.00325955 0)
(-0.0738172 0.00288891 0)
(-0.0750547 0.00248356 0)
(-0.0760606 0.00204542 0)
(-0.0768216 0.00157681 0)
(-0.0773258 0.00108053 0)
(-0.0775632 0.000559735 0)
(-0.0775255 1.80442e-05 0)
(-0.0772061 -0.000540276 0)
(-0.0766007 -0.00111111 0)
(-0.0757072 -0.00168974 0)
(-0.0745257 -0.00227114 0)
(-0.0730584 -0.00285009 0)
(-0.07131 -0.00342115 0)
(-0.0692876 -0.00397874 0)
(-0.0670007 -0.00451723 0)
(-0.064461 -0.00503098 0)
(-0.0616826 -0.00551442 0)
(-0.058682 -0.00596214 0)
(-0.0554777 -0.00636898 0)
(-0.0520903 -0.0067301 0)
(-0.0485422 -0.00704108 0)
(-0.0448576 -0.007298 0)
(-0.0410623 -0.00749756 0)
(-0.037183 -0.0076371 0)
(-0.0332478 -0.00771471 0)
(-0.0292851 -0.00772929 0)
(-0.025324 -0.0076806 0)
(-0.0213935 -0.00756928 0)
(-0.0175222 -0.00739686 0)
(-0.0137382 -0.00716579 0)
(-0.0100684 -0.00687938 0)
(-0.00653837 -0.00654174 0)
(-0.00317201 -0.00615778 0)
(8.92235e-06 -0.00573304 0)
(0.00298499 -0.00527363 0)
(0.00573937 -0.0047861 0)
(0.00825806 -0.00427729 0)
(0.01053 -0.00375422 0)
(0.0125474 -0.00322388 0)
(0.0143053 -0.00269314 0)
(0.0158021 -0.00216857 0)
(0.0170392 -0.00165634 0)
(0.0180209 -0.00116204 0)
(0.0187542 -0.000690675 0)
(0.0192486 -0.000246489 0)
(0.0195158 0.000167031 0)
(0.0195693 0.000547205 0)
(0.0194243 0.00089217 0)
(0.0190969 0.00120085 0)
(0.0186043 0.0014729 0)
(0.017964 0.00170868 0)
(0.0171936 0.00190909 0)
(0.0163107 0.00207552 0)
(0.0153326 0.00220966 0)
(0.0142759 0.00231334 0)
(0.0131568 0.00238837 0)
(0.0119908 0.00243629 0)
(0.0107931 0.00245818 0)
(0.00957841 0.00245438 0)
(0.00836166 0.0024243 0)
(0.00715809 0.0023662 0)
(0.00598379 0.00227702 0)
(0.00485607 0.00215244 0)
(0.00379382 0.00198704 0)
(0.00281768 0.00177503 0)
(0.00194989 0.00151163 0)
(0.0012131 0.0011958 0)
(0.000627936 0.000834578 0)
(0.000219211 0.000450331 0)
(3.13933e-05 9.92261e-05 0)
(2.69922e-05 -0.000186501 0)
(0.000147023 -0.000491026 0)
(0.000367334 -0.000714861 0)
(0.000637905 -0.000858479 0)
(0.00092966 -0.000929429 0)
(0.0012221 -0.000938052 0)
(0.00149724 -0.000895356 0)
(0.00173995 -0.00081179 0)
(0.00193797 -0.000696603 0)
(0.00208151 -0.000557605 0)
(0.00216289 -0.000401142 0)
(0.0021761 -0.000232192 0)
(0.0021165 -5.45133e-05 0)
(0.00198047 0.000129193 0)
(0.00176513 0.000317117 0)
(0.00146807 0.000508189 0)
(0.00108717 0.000701936 0)
(0.000620389 0.000898357 0)
(6.56792e-05 0.0010978 0)
(-0.000579138 0.00130089 0)
(-0.00131643 0.00150841 0)
(-0.00214877 0.00172121 0)
(-0.00307899 0.00194019 0)
(-0.00411011 0.00216619 0)
(-0.00524531 0.00239994 0)
(-0.00648787 0.00264203 0)
(-0.00784113 0.00289284 0)
(-0.00930831 0.00315254 0)
(-0.0108925 0.00342102 0)
(-0.0125963 0.0036979 0)
(-0.0144223 0.00398249 0)
(-0.016372 0.00427379 0)
(-0.0184466 0.0045705 0)
(-0.0206463 0.00487097 0)
(-0.0229704 0.00517327 0)
(-0.0254171 0.00547513 0)
(-0.0279834 0.00577401 0)
(-0.0306651 0.00606709 0)
(-0.0334566 0.00635129 0)
(-0.0363508 0.00662329 0)
(-0.0393392 0.00687961 0)
(-0.0424118 0.00711659 0)
(-0.0455571 0.00733046 0)
(-0.0487619 0.00751737 0)
(-0.0520119 0.00767349 0)
(-0.0552912 0.007795 0)
(-0.0585827 0.0078782 0)
(-0.0618681 0.00791953 0)
(-0.0651281 0.00791566 0)
(-0.0683427 0.00786354 0)
(-0.0714909 0.00776045 0)
(-0.0745516 0.00760405 0)
(-0.0775031 0.00739246 0)
(-0.0803238 0.00712427 0)
(-0.0829924 0.0067986 0)
(-0.0854875 0.00641511 0)
(-0.0877889 0.00597408 0)
(-0.0898766 0.00547635 0)
(-0.091732 0.00492341 0)
(-0.0933374 0.00431736 0)
(-0.0946766 0.00366093 0)
(-0.095735 0.00295747 0)
(-0.0964993 0.00221092 0)
(-0.0969585 0.00142585 0)
(-0.0971032 0.000607349 0)
(-0.096926 -0.000238985 0)
(-0.0964217 -0.0011069 0)
(-0.0955876 -0.00198989 0)
(-0.0944229 -0.00288094 0)
(-0.0929292 -0.00377271 0)
(-0.0911107 -0.00465754 0)
(-0.0889738 -0.00552757 0)
(-0.0865274 -0.00637481 0)
(-0.0837827 -0.00719119 0)
(-0.0807533 -0.00796868 0)
(-0.0774554 -0.0086994 0)
(-0.073907 -0.00937568 0)
(-0.0701288 -0.00999022 0)
(-0.0661431 -0.0105362 0)
(-0.0619744 -0.0110073 0)
(-0.0576488 -0.0113981 0)
(-0.0531943 -0.0117038 0)
(-0.0486398 -0.0119205 0)
(-0.0440156 -0.0120454 0)
(-0.0393527 -0.012077 0)
(-0.0346827 -0.0120146 0)
(-0.0300373 -0.011859 0)
(-0.0254481 -0.0116121 0)
(-0.020946 -0.0112773 0)
(-0.0165614 -0.0108589 0)
(-0.0123231 -0.0103627 0)
(-0.00825846 -0.00979537 0)
(-0.00439273 -0.00916474 0)
(-0.000748964 -0.00847939 0)
(0.00265241 -0.00774866 0)
(0.00579385 -0.00698235 0)
(0.00866087 -0.00619065 0)
(0.0112423 -0.00538379 0)
(0.0135302 -0.00457195 0)
(0.0155201 -0.00376498 0)
(0.017211 -0.00297224 0)
(0.0186052 -0.00220241 0)
(0.0197079 -0.00146332 0)
(0.0205276 -0.00076182 0)
(0.0210752 -0.000103709 0)
(0.0213643 0.000506373 0)
(0.0214102 0.00106496 0)
(0.0212301 0.00156973 0)
(0.0208424 0.0020195 0)
(0.0202666 0.00241409 0)
(0.0195225 0.00275423 0)
(0.0186303 0.0030414 0)
(0.0176102 0.00327758 0)
(0.0164821 0.00346508 0)
(0.0152654 0.0036062 0)
(0.0139793 0.00370297 0)
(0.0126425 0.00375682 0)
(0.0112735 0.0037682 0)
(0.00989087 0.00373633 0)
(0.0085134 0.00365889 0)
(0.00716068 0.00353186 0)
(0.00585334 0.0033496 0)
(0.00461338 0.00310516 0)
(0.00346437 0.00279118 0)
(0.00243159 0.00240166 0)
(0.00154106 0.00193488 0)
(0.000817785 0.00139791 0)
(0.000296693 0.000813223 0)
(4.62032e-05 0.000233906 0)
(2.82297e-05 -0.000267364 0)
(0.000152176 -0.000676428 0)
(0.000376352 -0.0009645 0)
(0.000646015 -0.00114147 0)
(0.0009294 -0.00122067 0)
(0.00120457 -0.0012168 0)
(0.00145265 -0.00114449 0)
(0.00165784 -0.00101724 0)
(0.0018073 -0.000846971 0)
(0.00189067 -0.000643756 0)
(0.00189958 -0.000415824 0)
(0.00182733 -0.000169674 0)
(0.00166851 8.97576e-05 0)
(0.00141868 0.000358895 0)
(0.00107412 0.000635324 0)
(0.000631557 0.000917595 0)
(8.79933e-05 0.00120504 0)
(-0.00055947 0.00149763 0)
(-0.00131375 0.00179576 0)
(-0.00217786 0.00210022 0)
(-0.00315499 0.00241196 0)
(-0.00424848 0.00273207 0)
(-0.00546186 0.00306163 0)
(-0.0067988 0.00340162 0)
(-0.00826304 0.00375289 0)
(-0.0098583 0.00411602 0)
(-0.0115882 0.00449132 0)
(-0.0134561 0.00487874 0)
(-0.015465 0.00527785 0)
(-0.0176175 0.0056878 0)
(-0.0199153 0.00610729 0)
(-0.0223595 0.00653458 0)
(-0.0249502 0.00696747 0)
(-0.0276862 0.00740328 0)
(-0.0305653 0.00783891 0)
(-0.0335837 0.00827083 0)
(-0.0367363 0.00869509 0)
(-0.0400162 0.00910741 0)
(-0.0434152 0.00950314 0)
(-0.046923 0.0098774 0)
(-0.0505278 0.0102251 0)
(-0.0542161 0.0105408 0)
(-0.0579728 0.0108194 0)
(-0.061781 0.0110553 0)
(-0.0656225 0.0112434 0)
(-0.0694776 0.0113784 0)
(-0.0733256 0.0114555 0)
(-0.0771446 0.01147 0)
(-0.080912 0.0114178 0)
(-0.0846045 0.0112952 0)
(-0.0881984 0.0110989 0)
(-0.09167 0.0108265 0)
(-0.0949955 0.010476 0)
(-0.0981516 0.0100463 0)
(-0.101115 0.00953686 0)
(-0.103865 0.00894813 0)
(-0.106379 0.0082812 0)
(-0.108637 0.00753801 0)
(-0.110622 0.00672131 0)
(-0.112315 0.00583464 0)
(-0.113701 0.0048823 0)
(-0.114767 0.00386939 0)
(-0.1155 0.00280171 0)
(-0.115891 0.00168579 0)
(-0.115931 0.000528807 0)
(-0.115615 -0.000661544 0)
(-0.114939 -0.00187688 0)
(-0.113901 -0.00310828 0)
(-0.112503 -0.00434643 0)
(-0.110747 -0.00558164 0)
(-0.108638 -0.0068039 0)
(-0.106184 -0.00800296 0)
(-0.103396 -0.00916844 0)
(-0.100285 -0.0102899 0)
(-0.0968652 -0.011357 0)
(-0.0931543 -0.0123596 0)
(-0.0891711 -0.0132878 0)
(-0.0849365 -0.0141321 0)
(-0.0804739 -0.0148838 0)
(-0.0758084 -0.0155348 0)
(-0.0709668 -0.0160777 0)
(-0.0659779 -0.0165064 0)
(-0.0608718 -0.0168156 0)
(-0.0556796 -0.0170017 0)
(-0.0504338 -0.0170622 0)
(-0.0451674 -0.0169962 0)
(-0.0399137 -0.0168041 0)
(-0.0347063 -0.0164883 0)
(-0.0295784 -0.0160526 0)
(-0.0245624 -0.0155025 0)
(-0.01969 -0.0148449 0)
(-0.0149913 -0.0140884 0)
(-0.0104945 -0.0132427 0)
(-0.00622589 -0.0123189 0)
(-0.0022092 -0.011329 0)
(0.00153465 -0.0102859 0)
(0.00498776 -0.00920275 0)
(0.00813552 -0.00809329 0)
(0.0109667 -0.00697112 0)
(0.0134738 -0.00584961 0)
(0.0156526 -0.0047416 0)
(0.0175027 -0.00365917 0)
(0.0190271 -0.00261339 0)
(0.020232 -0.00161418 0)
(0.0211271 -0.000670092 0)
(0.0217244 0.00021177 0)
(0.0220388 0.00102581 0)
(0.0220873 0.00176799 0)
(0.0218886 0.00243574 0)
(0.021463 0.00302793 0)
(0.0208317 0.00354465 0)
(0.0200166 0.00398708 0)
(0.0190399 0.00435718 0)
(0.0179241 0.00465742 0)
(0.0166913 0.00489041 0)
(0.0153638 0.00505847 0)
(0.0139633 0.00516328 0)
(0.0125117 0.0052054 0)
(0.0110306 0.00518386 0)
(0.00954218 0.00509589 0)
(0.00806907 0.00493665 0)
(0.00663483 0.00469937 0)
(0.00526426 0.00437571 0)
(0.00398369 0.00395675 0)
(0.00282144 0.0034348 0)
(0.00180726 0.00280625 0)
(0.000971143 0.00207566 0)
(0.000358037 0.00126115 0)
(5.73588e-05 0.000405929 0)
(2.77749e-05 -0.000348381 0)
(0.0001479 -0.000860007 0)
(0.000361539 -0.00120717 0)
(0.000612183 -0.0014098 0)
(0.000866599 -0.00148793 0)
(0.00110194 -0.00146132 0)
(0.00129886 -0.00134855 0)
(0.00144131 -0.00116638 0)
(0.00151622 -0.000929378 0)
(0.00151293 -0.000649822 0)
(0.00142268 -0.000337739 0)
(0.00123825 -1.05326e-06 0)
(0.000953586 0.000354201 0)
(0.000563536 0.00072364 0)
(6.35571e-05 0.00110429 0)
(-0.00055048 0.00149436 0)
(-0.00128247 0.001893 0)
(-0.00213623 0.00230013 0)
(-0.00311555 0.00271622 0)
(-0.00422435 0.00314215 0)
(-0.00546661 0.00357903 0)
(-0.00684645 0.00402809 0)
(-0.00836806 0.00449053 0)
(-0.0100357 0.00496738 0)
(-0.0118535 0.00545945 0)
(-0.0138254 0.0059672 0)
(-0.0159552 0.00649067 0)
(-0.0182462 0.00702942 0)
(-0.0207009 0.00758247 0)
(-0.0233213 0.00814825 0)
(-0.0261084 0.0087246 0)
(-0.0290621 0.00930874 0)
(-0.0321807 0.00989726 0)
(-0.0354617 0.0104862 0)
(-0.0389004 0.0110709 0)
(-0.0424909 0.0116463 0)
(-0.0462252 0.0122067 0)
(-0.0500937 0.0127462 0)
(-0.0540847 0.0132582 0)
(-0.0581847 0.0137361 0)
(-0.0623785 0.014173 0)
(-0.0666487 0.0145618 0)
(-0.0709766 0.0148955 0)
(-0.0753419 0.0151672 0)
(-0.0797227 0.0153703 0)
(-0.084096 0.0154983 0)
(-0.088438 0.0155454 0)
(-0.0927238 0.0155061 0)
(-0.0969283 0.0153757 0)
(-0.101026 0.0151501 0)
(-0.104992 0.0148262 0)
(-0.1088 0.0144014 0)
(-0.112426 0.0138744 0)
(-0.115846 0.0132445 0)
(-0.119037 0.0125123 0)
(-0.121978 0.011679 0)
(-0.124646 0.0107471 0)
(-0.127024 0.00971989 0)
(-0.129094 0.00860168 0)
(-0.13084 0.00739768 0)
(-0.132248 0.00611396 0)
(-0.133305 0.0047575 0)
(-0.134 0.00333603 0)
(-0.134327 0.00185808 0)
(-0.134277 0.000332886 0)
(-0.133847 -0.00122967 0)
(-0.133034 -0.00281913 0)
(-0.131837 -0.00442442 0)
(-0.130258 -0.00603404 0)
(-0.128302 -0.00763607 0)
(-0.125973 -0.00921828 0)
(-0.12328 -0.0107682 0)
(-0.120232 -0.0122731 0)
(-0.116843 -0.0137205 0)
(-0.113127 -0.0150977 0)
(-0.1091 -0.0163923 0)
(-0.10478 -0.0175924 0)
(-0.10019 -0.0186864 0)
(-0.0953514 -0.0196636 0)
(-0.0902897 -0.0205137 0)
(-0.0850316 -0.021228 0)
(-0.0796058 -0.0217984 0)
(-0.0740426 -0.0222184 0)
(-0.0683736 -0.0224831 0)
(-0.0626316 -0.022589 0)
(-0.0568506 -0.0225345 0)
(-0.051065 -0.0223199 0)
(-0.0453098 -0.0219474 0)
(-0.0396197 -0.0214211 0)
(-0.0340293 -0.0207472 0)
(-0.0285723 -0.0199338 0)
(-0.0232813 -0.0189908 0)
(-0.0181875 -0.01793 0)
(-0.01332 -0.0167646 0)
(-0.00870555 -0.0155091 0)
(-0.00436853 -0.0141792 0)
(-0.000330199 -0.0127914 0)
(0.00339139 -0.0113627 0)
(0.00678161 -0.00991019 0)
(0.00982941 -0.00845086 0)
(0.0125275 -0.00700124 0)
(0.0148722 -0.00557704 0)
(0.0168638 -0.0041929 0)
(0.0185059 -0.00286212 0)
(0.0198058 -0.00159642 0)
(0.0207739 -0.000405822 0)
(0.0214236 0.000701495 0)
(0.021771 0.00171925 0)
(0.0218342 0.00264305 0)
(0.0216337 0.00347026 0)
(0.0211911 0.0041999 0)
(0.0205292 0.00483239 0)
(0.0196719 0.00536927 0)
(0.0186432 0.00581282 0)
(0.0174676 0.00616564 0)
(0.0161697 0.00643017 0)
(0.0147739 0.00660816 0)
(0.0133049 0.00670018 0)
(0.0117873 0.0067051 0)
(0.0102459 0.00661975 0)
(0.00870636 0.00643859 0)
(0.0071948 0.00615383 0)
(0.0057387 0.00575577 0)
(0.0043672 0.00523372 0)
(0.00311175 0.00457772 0)
(0.00200601 0.00378099 0)
(0.00108509 0.00284334 0)
(0.000402795 0.00177527 0)
(6.51364e-05 0.000606049 0)
(2.6055e-05 -0.000425054 0)
(0.000135846 -0.00103078 0)
(0.000326163 -0.00142741 0)
(0.000541292 -0.00164492 0)
(0.000747753 -0.00171044 0)
(0.00092241 -0.00164915 0)
(0.00104592 -0.00148385 0)
(0.00110234 -0.00123459 0)
(0.00107868 -0.000918586 0)
(0.000964238 -0.000550202 0)
(0.000750068 -0.00014112 0)
(0.00042858 0.000299452 0)
(-6.79503e-06 0.000764512 0)
(-0.000561879 0.00124898 0)
(-0.00124198 0.0017494 0)
(-0.00205208 0.0022637 0)
(-0.00299697 0.00279087 0)
(-0.00408137 0.0033308 0)
(-0.00531 0.00388398 0)
(-0.0066876 0.00445138 0)
(-0.00821899 0.00503418 0)
(-0.00990898 0.00563366 0)
(-0.0117623 0.00625101 0)
(-0.0137838 0.00688718 0)
(-0.0159776 0.0075428 0)
(-0.0183481 0.00821799 0)
(-0.0208986 0.00891232 0)
(-0.023632 0.0096247 0)
(-0.0265504 0.0103533 0)
(-0.0296546 0.0110957 0)
(-0.0329443 0.0118484 0)
(-0.0364178 0.0126073 0)
(-0.0400717 0.0133675 0)
(-0.0439009 0.0141234 0)
(-0.0478985 0.0148687 0)
(-0.0520556 0.0155962 0)
(-0.0563612 0.0162985 0)
(-0.0608024 0.0169675 0)
(-0.0653641 0.0175948 0)
(-0.0700294 0.0181718 0)
(-0.0747793 0.0186896 0)
(-0.0795932 0.0191397 0)
(-0.0844487 0.0195132 0)
(-0.0893224 0.019802 0)
(-0.0941893 0.0199982 0)
(-0.0990239 0.0200943 0)
(-0.1038 0.0200839 0)
(-0.10849 0.019961 0)
(-0.113068 0.0197208 0)
(-0.117508 0.0193592 0)
(-0.121782 0.0188734 0)
(-0.125866 0.0182616 0)
(-0.129736 0.0175231 0)
(-0.133367 0.0166584 0)
(-0.136737 0.0156692 0)
(-0.139827 0.0145581 0)
(-0.142615 0.0133291 0)
(-0.145086 0.0119872 0)
(-0.147222 0.0105382 0)
(-0.14901 0.00898917 0)
(-0.150437 0.00734802 0)
(-0.151493 0.00562353 0)
(-0.152168 0.00382533 0)
(-0.152455 0.0019638 0)
(-0.152349 5.00914e-05 0)
(-0.151846 -0.00190369 0)
(-0.150945 -0.00388547 0)
(-0.149646 -0.00588217 0)
(-0.147949 -0.0078803 0)
(-0.14586 -0.00986593 0)
(-0.143384 -0.0118248 0)
(-0.140528 -0.0137424 0)
(-0.137301 -0.0156039 0)
(-0.133717 -0.0173947 0)
(-0.129787 -0.0191001 0)
(-0.125528 -0.0207056 0)
(-0.120957 -0.022197 0)
(-0.116095 -0.0235608 0)
(-0.110964 -0.024784 0)
(-0.105586 -0.0258546 0)
(-0.0999898 -0.0267617 0)
(-0.0942021 -0.0274956 0)
(-0.0882531 -0.0280483 0)
(-0.0821743 -0.0284132 0)
(-0.075999 -0.0285857 0)
(-0.0697613 -0.0285633 0)
(-0.0634966 -0.0283455 0)
(-0.0572409 -0.0279342 0)
(-0.0510305 -0.0273337 0)
(-0.0449018 -0.0265504 0)
(-0.0388905 -0.0255933 0)
(-0.0330316 -0.0244736 0)
(-0.027359 -0.0232044 0)
(-0.0219047 -0.0218011 0)
(-0.0166987 -0.0202806 0)
(-0.0117685 -0.0186614 0)
(-0.0071388 -0.0169628 0)
(-0.00283124 -0.0152051 0)
(0.00113605 -0.0134092 0)
(0.00474852 -0.0115955 0)
(0.00799542 -0.00978442 0)
(0.0108698 -0.0079955 0)
(0.0133688 -0.00624713 0)
(0.0154932 -0.00455628 0)
(0.0172475 -0.0029382 0)
(0.0186401 -0.0014062 0)
(0.0196823 2.85587e-05 0)
(0.0203887 0.00135709 0)
(0.0207766 0.00257269 0)
(0.0208657 0.00367075 0)
(0.0206777 0.00464874 0)
(0.0202356 0.00550586 0)
(0.0195642 0.00624279 0)
(0.0186888 0.00686123 0)
(0.0176354 0.00736344 0)
(0.0164305 0.00775168 0)
(0.015101 0.00802759 0)
(0.0136737 0.00819162 0)
(0.0121757 0.00824244 0)
(0.0106347 0.00817643 0)
(0.0090785 0.00798744 0)
(0.00753607 0.00766665 0)
(0.00603745 0.00720292 0)
(0.00461452 0.00658357 0)
(0.00330194 0.00579571 0)
(0.00213719 0.00482834 0)
(0.00116016 0.00367485 0)
(0.000431801 0.00233609 0)
(6.99478e-05 0.0008254 0)
(2.33377e-05 -0.000493716 0)
(0.000117209 -0.0011792 0)
(0.000272819 -0.00161139 0)
(0.000437405 -0.00182991 0)
(0.000578383 -0.00186904 0)
(0.000672986 -0.00175953 0)
(0.00070238 -0.00152844 0)
(0.000651121 -0.0011991 0)
(0.000506583 -0.000791246 0)
(0.000258242 -0.000321172 0)
(-0.000102875 0.000197969 0)
(-0.000584596 0.00075587 0)
(-0.00119392 0.00134473 0)
(-0.00193727 0.0019589 0)
(-0.00282069 0.00259458 0)
(-0.00384998 0.00324944 0)
(-0.00503082 0.0039224 0)
(-0.00636883 0.00461327 0)
(-0.0078696 0.00532258 0)
(-0.0095387 0.00605128 0)
(-0.0113817 0.00680056 0)
(-0.0134039 0.00757161 0)
(-0.0156107 0.00836548 0)
(-0.018007 0.00918287 0)
(-0.0205972 0.010024 0)
(-0.0233853 0.0108884 0)
(-0.0263743 0.0117749 0)
(-0.0295664 0.0126815 0)
(-0.0329625 0.0136054 0)
(-0.0365621 0.0145425 0)
(-0.0403633 0.0154882 0)
(-0.0443621 0.0164365 0)
(-0.0485531 0.0173808 0)
(-0.0529283 0.0183135 0)
(-0.0574781 0.0192261 0)
(-0.0621903 0.0201095 0)
(-0.0670507 0.0209541 0)
(-0.072043 0.0217496 0)
(-0.0771486 0.0224857 0)
(-0.082347 0.0231518 0)
(-0.087616 0.0237373 0)
(-0.0929318 0.0242317 0)
(-0.0982692 0.0246252 0)
(-0.103602 0.0249083 0)
(-0.108903 0.0250723 0)
(-0.114144 0.0251092 0)
(-0.119298 0.0250121 0)
(-0.124337 0.0247752 0)
(-0.129234 0.0243939 0)
(-0.133962 0.0238647 0)
(-0.138496 0.0231855 0)
(-0.14281 0.0223556 0)
(-0.146881 0.0213754 0)
(-0.150688 0.0202468 0)
(-0.154208 0.0189729 0)
(-0.157424 0.0175579 0)
(-0.160318 0.0160074 0)
(-0.162874 0.0143279 0)
(-0.165077 0.0125273 0)
(-0.166916 0.0106141 0)
(-0.16838 0.00859787 0)
(-0.169458 0.00648922 0)
(-0.170143 0.00429943 0)
(-0.17043 0.00204055 0)
(-0.170312 -0.000274578 0)
(-0.169787 -0.0026323 0)
(-0.168854 -0.00501872 0)
(-0.167511 -0.0074191 0)
(-0.165762 -0.00981822 0)
(-0.163607 -0.0122004 0)
(-0.161054 -0.0145496 0)