/*--------------------------------*- C++ -*----------------------------------*\
| =========                 |                                                 |
| \\      /  F ield         | OpenFOAM: The Open Source CFD Toolbox           |
|  \\    /   O peration     | Version:  2112                                  |
|   \\  /    A nd           | Website:  www.openfoam.com                      |
|    \\/     M anipulation  |                                                 |
\*---------------------------------------------------------------------------*/
FoamFile
{
    version     2.0;
    format      ascii;
    arch        "LSB;label=32;scalar=64";
    class       volScalarField;
    location    "26";
    object      p;
}
// * * * * * * * * * * * * * * * * * * * * * * * * * * * * * * * * * * * * * //

dimensions      [0 2 -2 0 0 0 0];

internalField   nonuniform List<scalar> 
16641
(
-4.8476e-07
1.20253e-05
2.37621e-05
3.04406e-05
2.88882e-05
1.75565e-05
-3.99301e-06
-3.55653e-05
-7.66312e-05
-0.000126499
-0.000184405
-0.000249592
-0.000321361
-0.000399093
-0.000482274
-0.000570498
-0.000663482
-0.000761049
-0.000863125
-0.00096972
-0.00108092
-0.00119688
-0.00131777
-0.00144379
-0.00157514
-0.00171201
-0.00185455
-0.00200288
-0.00215705
-0.00231705
-0.0024828
-0.00265413
-0.00283076
-0.00301235
-0.00319844
-0.00338843
-0.00358167
-0.00377732
-0.00397447
-0.00417207
-0.00436892
-0.00456373
-0.00475509
-0.00494143
-0.00512113
-0.00529243
-0.00545351
-0.00560248
-0.00573742
-0.00585637
-0.0059574
-0.00603861
-0.00609817
-0.00613437
-0.00614561
-0.00613052
-0.00608792
-0.00601689
-0.00591681
-0.00578739
-0.0056287
-0.00544119
-0.00522575
-0.00498367
-0.00471671
-0.00442706
-0.00411734
-0.00379052
-0.00345023
-0.00310023
-0.00274469
-0.00238804
-0.00203494
-0.0016902
-0.00135866
-0.00104518
-0.000754473
-0.00049108
-0.000259228
-6.27602e-05
9.49521e-05
0.00021109
0.000283455
0.000310525
0.000291493
0.000226294
0.000115607
-3.91557e-05
-0.000235881
-0.000471806
-0.000743631
-0.00104745
-0.00137907
-0.00173394
-0.00210732
-0.00249441
-0.0028904
-0.00329065
-0.0036907
-0.00408641
-0.00447401
-0.00485013
-0.00521187
-0.0055568
-0.00588297
-0.0061889
-0.00647356
-0.00673634
-0.00697701
-0.00719567
-0.00739272
-0.00756875
-0.00772456
-0.00786105
-0.00797919
-0.00807995
-0.00816431
-0.00823313
-0.00828722
-0.00832726
-0.00835385
-0.00836756
-0.00836902
-0.00835908
-0.00833912
-0.00831151
-0.00828019
-0.00825103
-0.0082331
-1.35815e-05
-8.47951e-07
7.3601e-06
9.87648e-06
5.30215e-06
-7.59746e-06
-2.93266e-05
-5.98787e-05
-9.89596e-05
-0.000146097
-0.000200721
-0.000262243
-0.000330096
-0.000403767
-0.000482815
-0.000566888
-0.000655737
-0.000749195
-0.000847182
-0.000949699
-0.00105681
-0.00116863
-0.00128531
-0.001407
-0.00153389
-0.00166613
-0.00180386
-0.00194717
-0.00209611
-0.00225067
-0.00241076
-0.00257624
-0.00274687
-0.00292231
-0.00310213
-0.00328582
-0.00347273
-0.00366211
-0.00385309
-0.00404469
-0.00423581
-0.0044252
-0.00461152
-0.00479333
-0.00496905
-0.00513702
-0.00529549
-0.00544267
-0.0055767
-0.00569571
-0.00579782
-0.00588119
-0.00594405
-0.00598471
-0.00600165
-0.00599348
-0.00595903
-0.0058974
-0.00580793
-0.0056903
-0.00554454
-0.00537105
-0.00517061
-0.00494445
-0.0046942
-0.00442199
-0.00413029
-0.00382194
-0.0035003
-0.00316907
-0.00283224
-0.00249407
-0.00215903
-0.00183174
-0.00151688
-0.0012191
-0.000942975
-0.000692851
-0.000472806
-0.000286541
-0.000137298
-2.7788e-05
3.98778e-05
6.4241e-05
4.45341e-05
-1.92973e-05
-0.00012659
-0.000275979
-0.000465428
-0.000692277
-0.000953322
-0.00124489
-0.0015629
-0.00190301
-0.00226072
-0.00263142
-0.00301056
-0.00339371
-0.00377665
-0.00415545
-0.00452655
-0.00488678
-0.00523339
-0.0055641
-0.00587708
-0.00617093
-0.00644469
-0.00669777
-0.00692997
-0.00714136
-0.00733229
-0.00750333
-0.00765519
-0.00778872
-0.00790482
-0.00800441
-0.00808841
-0.00815769
-0.00821305
-0.00825525
-0.00828499
-0.00830296
-0.00830994
-0.00830692
-0.00829526
-0.00827698
-0.00825509
-0.00823321
-0.00821518
-2.5637e-05
-9.19189e-06
-9.50228e-07
2.54161e-07
-5.52332e-06
-1.9119e-05
-4.09083e-05
-7.08706e-05
-0.000108763
-0.000154193
-0.000206684
-0.000265733
-0.000330847
-0.000401574
-0.00047753
-0.000558388
-0.000643938
-0.000734027
-0.000828583
-0.00092761
-0.00103117
-0.00113936
-0.00125233
-0.00137023
-0.00149322
-0.00162146
-0.00175508
-0.00189417
-0.00203878
-0.00218892
-0.00234453
-0.00250546
-0.00267151
-0.00284239
-0.0030177
-0.00319695
-0.00337957
-0.00356485
-0.00375198
-0.00394003
-0.00412795
-0.00431456
-0.0044986
-0.00467864
-0.00485319
-0.00502063
-0.00517927
-0.00532734
-0.00546303
-0.00558448
-0.00568986
-0.00577732
-0.00584511
-0.00589152
-0.00591501
-0.00591418
-0.00588782
-0.00583498
-0.00575496
-0.00564739
-0.00551221
-0.00534976
-0.00516075
-0.00494631
-0.00470803
-0.00444795
-0.00416816
-0.00387189
-0.00356219
-0.00324264
-0.00291716
-0.00258992
-0.00226533
-0.00194792
-0.00164229
-0.00135304
-0.00108467
-0.000841472
-0.000627479
-0.000446348
-0.000301286
-0.000194977
-0.00012951
-0.000106328
-0.000126191
-0.000189155
-0.000294562
-0.000441061
-0.000626639
-0.00084867
-0.00110398
-0.00138895
-0.00169957
-0.00203156
-0.00238047
-0.00274182
-0.00311113
-0.00348409
-0.00385657
-0.00422478
-0.00458525
-0.00493494
-0.00527122
-0.0055919
-0.00589525
-0.00617998
-0.00644518
-0.00669035
-0.00691531
-0.00712018
-0.00730534
-0.00747136
-0.00761895
-0.00774896
-0.00786227
-0.00795981
-0.00804248
-0.00811115
-0.00816666
-0.00820977
-0.0082412
-0.00826167
-0.00827194
-0.00827289
-0.00826562
-0.00825169
-0.00823324
-0.00821141
-0.00818585
-3.25978e-05
-1.18826e-05
-2.33939e-06
-1.22292e-06
-7.38207e-06
-2.12883e-05
-4.31274e-05
-7.27692e-05
-0.000109931
-0.00015423
-0.000205221
-0.000262438
-0.000325426
-0.00039377
-0.000467116
-0.000545204
-0.000627809
-0.00071481
-0.000806158
-0.000901867
-0.00100201
-0.00110669
-0.00121607
-0.0013303
-0.00144955
-0.00157399
-0.00170376
-0.00183897
-0.00197968
-0.00212593
-0.00227768
-0.00243483
-0.00259719
-0.00276452
-0.00293648
-0.00311262
-0.00329241
-0.00347521
-0.00366025
-0.00384666
-0.00403344
-0.00421948
-0.00440353
-0.00458423
-0.00476012
-0.00492959
-0.00509099
-0.00524256
-0.00538247
-0.00550889
-0.00561992
-0.00571373
-0.0057885
-0.0058425
-0.00587412
-0.0058819
-0.00586457
-0.0058211
-0.00575071
-0.00565296
-0.0055277
-0.0053752
-0.00519609
-0.00499141
-0.00476276
-0.00451234
-0.00424109
-0.00395324
-0.00365159
-0.00333959
-0.00302112
-0.00270033
-0.00238158
-0.0020694
-0.0017684
-0.00148315
-0.00121817
-0.000977779
-0.000766013
-0.000586556
-0.00044264
-0.000336971
-0.000271664
-0.000248184
-0.00026731
-0.000329111
-0.000432939
-0.000577448
-0.000760622
-0.000979831
-0.0012319
-0.00151318
-0.00181965
-0.00214706
-0.00249092
-0.00284675
-0.00321011
-0.00357668
-0.00394239
-0.00430348
-0.00465654
-0.00499858
-0.00532707
-0.00563988
-0.00593539
-0.00621237
-0.00647002
-0.0067079
-0.00692593
-0.0071243
-0.00730343
-0.00746396
-0.00760664
-0.00773236
-0.00784203
-0.0079366
-0.00801699
-0.0080841
-0.00813877
-0.00818176
-0.00821377
-0.00823548
-0.00824754
-0.0082506
-0.00824543
-0.00823307
-0.0082149
-0.00818992
-0.00815473
-3.13292e-05
-7.47902e-06
3.14682e-06
4.30474e-06
-2.12748e-06
-1.6347e-05
-3.83545e-05
-6.78938e-05
-0.000104618
-0.000148124
-0.000197966
-0.00025369
-0.000314863
-0.000381102
-0.000452081
-0.00052755
-0.000607328
-0.000691317
-0.000779491
-0.000871888
-0.000968596
-0.00106975
-0.00117552
-0.00128609
-0.00140165
-0.00152238
-0.00164845
-0.00178
-0.00191713
-0.00205991
-0.00220833
-0.00236233
-0.0025218
-0.00268652
-0.00285621
-0.00303049
-0.00320887
-0.00339078
-0.0035755
-0.0037622
-0.00394995
-0.00413767
-0.00432414
-0.00450803
-0.00468788
-0.00486212
-0.00502905
-0.00518692
-0.00533386
-0.00546798
-0.00558737
-0.00569009
-0.00577428
-0.00583811
-0.0058799
-0.00589809
-0.00589132
-0.00585846
-0.00579865
-0.00571133
-0.0055963
-0.00545371
-0.00528412
-0.00508853
-0.00486826
-0.00462476
-0.00436179
-0.00408077
-0.00378507
-0.0034783
-0.00316431
-0.00284726
-0.00253152
-0.00222166
-0.00192228
-0.00163803
-0.00137346
-0.00113294
-0.000920561
-0.000740078
-0.00059478
-0.000487438
-0.000420222
-0.000394652
-0.000411551
-0.000471023
-0.000572445
-0.000714482
-0.000895118
-0.00111171
-0.00136105
-0.00163947
-0.00194291
-0.00226703
-0.00260736
-0.00295933
-0.00331846
-0.00368042
-0.00404111
-0.00439675
-0.00474397
-0.0050798
-0.00540172
-0.0057077
-0.00599616
-0.00626596
-0.00651638
-0.00674709
-0.00695808
-0.00714964
-0.00732228
-0.00747671
-0.00761377
-0.00773439
-0.00783957
-0.00793028
-0.0080075
-0.00807214
-0.00812506
-0.00816703
-0.0081987
-0.00822068
-0.00823346
-0.0082375
-0.00823318
-0.00822109
-0.00820196
-0.00817307
-0.00812846
-2.01168e-05
5.36197e-06
1.64394e-05
1.73965e-05
1.05164e-05
-4.19766e-06
-2.65894e-05
-5.62892e-05
-9.28832e-05
-0.000135928
-0.000184957
-0.000239516
-0.000299185
-0.000363597
-0.000432449
-0.000505513
-0.000582641
-0.000663764
-0.000748888
-0.000838081
-0.000931464
-0.00102921
-0.00113151
-0.0012386
-0.00135069
-0.00146801
-0.00159076
-0.00171913
-0.00185327
-0.00199328
-0.00213923
-0.00229111
-0.00244885
-0.00261231
-0.00278127
-0.00295541
-0.00313431
-0.00331744
-0.00350414
-0.00369364
-0.00388503
-0.00407725
-0.00426911
-0.00445928
-0.00464628
-0.00482851
-0.00500424
-0.00517165
-0.00532883
-0.00547379
-0.00560453
-0.00571902
-0.00581529
-0.0058914
-0.00594556
-0.0059761
-0.00598154
-0.00596065
-0.00591245
-0.00583631
-0.0057319
-0.00559932
-0.00543904
-0.00525201
-0.00503955
-0.00480329
-0.00454589
-0.0042698
-0.00397819
-0.00367456
-0.00336278
-0.00304703
-0.00273172
-0.00242143
-0.00212085
-0.00183469
-0.00156755
-0.0013239
-0.00110793
-0.000923469
-0.000773918
-0.000662138
-0.000590394
-0.00056029
-0.000572726
-0.000627871
-0.000725151
-0.000863264
-0.00104021
-0.00125333
-0.00149941
-0.00177473
-0.00207518
-0.00239636
-0.0027337
-0.00308259
-0.00343844
-0.00379685
-0.00415366
-0.00450505
-0.00484761
-0.00517834
-0.00549474
-0.0057948
-0.00607697
-0.00634019
-0.00658381
-0.00680757
-0.00701158
-0.0071962
-0.00736207
-0.00750998
-0.00764087
-0.00775576
-0.00785571
-0.00794178
-0.008015
-0.00807633
-0.00812663
-0.00816667
-0.00819709
-0.00821839
-0.00823096
-0.00823501
-0.00823061
-0.00821797
-0.00819732
-0.00816461
-0.00811195
1.74657e-06
2.73617e-05
3.81051e-05
3.84102e-05
3.07366e-05
1.52283e-05
-7.8376e-06
-3.79995e-05
-7.47773e-05
-0.00011768
-0.000166218
-0.000219928
-0.000278396
-0.000341265
-0.000408251
-0.000479154
-0.000553859
-0.000632333
-0.000714617
-0.000800822
-0.000891114
-0.000985709
-0.00108486
-0.00118882
-0.00129789
-0.00141232
-0.0015324
-0.00165835
-0.0017904
-0.00192871
-0.00207341
-0.00222457
-0.0023822
-0.00254622
-0.00271648
-0.00289273
-0.00307461
-0.00326164
-0.00345322
-0.00364859
-0.00384687
-0.004047
-0.00424779
-0.00444786
-0.0046457
-0.00483965
-0.00502789
-0.00520851
-0.00537949
-0.00553874
-0.00568412
-0.00581347
-0.00592469
-0.00601572
-0.00608462
-0.00612959
-0.00614904
-0.00614161
-0.00610624
-0.00604216
-0.00594898
-0.00582671
-0.00567575
-0.00549699
-0.00529175
-0.00506164
-0.00480907
-0.0045367
-0.00424763
-0.00394538
-0.00363383
-0.00331719
-0.0029999
-0.00268662
-0.00238209
-0.0020911
-0.00181835
-0.00156843
-0.00134562
-0.00115389
-0.000996767
-0.000877236
-0.000797694
-0.00075987
-0.00076478
-0.000812692
-0.000903119
-0.00103482
-0.00120585
-0.00141356
-0.00165473
-0.00192561
-0.00222203
-0.00253954
-0.00287347
-0.0032191
-0.00357176
-0.00392693
-0.00428035
-0.00462811
-0.00496671
-0.00529311
-0.00560477
-0.00589965
-0.00617623
-0.00643346
-0.00667075
-0.00688792
-0.00708515
-0.0072629
-0.00742191
-0.00756308
-0.00768746
-0.00779616
-0.00789035
-0.00797117
-0.0080397
-0.00809697
-0.00814389
-0.00818121
-0.00820955
-0.00822936
-0.0082409
-0.00824421
-0.0082391
-0.00822547
-0.00820319
-0.00816725
-0.00810843
3.44604e-05
5.8826e-05
6.83889e-05
6.74787e-05
5.85642e-05
4.18873e-05
1.78113e-05
-1.31301e-05
-5.03958e-05
-9.34555e-05
-0.000141799
-0.000194955
-0.000252508
-0.000314111
-0.000379505
-0.000448521
-0.000521078
-0.000597185
-0.000676931
-0.000760476
-0.000848047
-0.000939916
-0.0010364
-0.00113782
-0.00124453
-0.00135687
-0.00147519
-0.00159981
-0.00173101
-0.00186905
-0.00201415
-0.00216645
-0.00232604
-0.00249293
-0.00266705
-0.0028482
-0.00303609
-0.00323027
-0.00343018
-0.00363508
-0.00384407
-0.00405607
-0.00426984
-0.00448394
-0.00469677
-0.00490657
-0.0051114
-0.00530923
-0.00549789
-0.00567513
-0.00583866
-0.00598618
-0.00611542
-0.00622417
-0.00631035
-0.00637203
-0.00640748
-0.00641524
-0.00639411
-0.00634326
-0.00626221
-0.00615088
-0.00600962
-0.00583923
-0.005641
-0.00541658
-0.00516827
-0.00489873
-0.00461106
-0.00430878
-0.00399579
-0.00367633
-0.00335488
-0.00303617
-0.002725
-0.00242626
-0.00214477
-0.00188521
-0.00165203
-0.00144933
-0.0012808
-0.00114959
-0.00105828
-0.00100875
-0.00100218
-0.00103899
-0.00111883
-0.00124055
-0.0014023
-0.00160149
-0.00183493
-0.00209886
-0.00238909
-0.00270108
-0.00303011
-0.00337132
-0.00371994
-0.00407132
-0.00442108
-0.00476516
-0.00509996
-0.00542234
-0.00572968
-0.00601988
-0.00629139
-0.00654316
-0.00677461
-0.00698559
-0.00717637
-0.00734748
-0.00749975
-0.00763418
-0.00775194
-0.00785424
-0.00794235
-0.00801749
-0.00808086
-0.00813353
-0.00817646
-0.00821043
-0.00823605
-0.00825374
-0.00826365
-0.00826571
-0.00825952
-0.00824476
-0.00822106
-0.00818277
-0.00811985
7.79526e-05
9.98097e-05
0.000107361
0.000104639
9.39968e-05
7.57423e-05
5.03061e-05
1.82744e-05
-1.977e-05
-6.32697e-05
-0.000111699
-0.000164577
-0.000221494
-0.000282121
-0.000346225
-0.00041367
-0.00048442
-0.000558532
-0.000636152
-0.000717505
-0.000802886
-0.000892641
-0.000987158
-0.00108685
-0.00119215
-0.0013035
-0.00142133
-0.00154606
-0.00167807
-0.00181772
-0.00196531
-0.0021211
-0.00228526
-0.00245789
-0.00263899
-0.00282842
-0.00302593
-0.00323111
-0.0034434
-0.00366204
-0.0038861
-0.00411444
-0.00434572
-0.00457841
-0.00481078
-0.00504092
-0.00526675
-0.00548605
-0.00569649
-0.00589565
-0.00608105
-0.00625022
-0.00640072
-0.00653018
-0.00663638
-0.00671724
-0.00677092
-0.00679583
-0.00679068
-0.00675453
-0.00668683
-0.00658742
-0.00645661
-0.0062951
-0.00610405
-0.00588538
-0.00564109
-0.00537385
-0.00508676
-0.00478334
-0.00446751
-0.00414351
-0.00381587
-0.00348936
-0.00316888
-0.00285939
-0.00256582
-0.002293
-0.00204554
-0.00182771
-0.00164338
-0.00149592
-0.00138811
-0.00132205
-0.00129913
-0.00131998
-0.00138442
-0.0014915
-0.00163948
-0.00182589
-0.00204761
-0.00230092
-0.00258162
-0.00288515
-0.00320669
-0.00354132
-0.00388412
-0.00423031
-0.00457534
-0.00491503
-0.0052456
-0.00556379
-0.00586685
-0.00615258
-0.00641935
-0.00666607
-0.00689213
-0.0070974
-0.00728217
-0.00744703
-0.00759287
-0.0077208
-0.00783207
-0.007928
-0.00800997
-0.00807929
-0.00813726
-0.00818502
-0.00822358
-0.00825379
-0.00827626
-0.00829138
-0.00829928
-0.00829979
-0.00829238
-0.00827658
-0.00825184
-0.00821221
-0.00814719
0.000131991
0.000150202
0.000154959
0.000149838
0.000136977
0.00011674
8.96063e-05
5.61889e-05
1.70907e-05
-2.71145e-05
-7.58917e-05
-0.000128764
-0.000185333
-0.000245296
-0.000308451
-0.000374707
-0.000444075
-0.000516674
-0.000592718
-0.000672509
-0.000756424
-0.000844897
-0.00093841
-0.00103748
-0.00114264
-0.00125444
-0.00137343
-0.00150013
-0.00163505
-0.00177866
-0.00193137
-0.00209355
-0.00226545
-0.00244727
-0.00263906
-0.00284074
-0.00305208
-0.00327269
-0.00350195
-0.00373909
-0.00398308
-0.00423267
-0.00448642
-0.00474263
-0.00499942
-0.00525468
-0.00550615
-0.00575142
-0.00598795
-0.00621312
-0.00642427
-0.00661875
-0.00679393
-0.0069473
-0.00707648
-0.00717925
-0.00725364
-0.00729797
-0.00731084
-0.00729123
-0.00723848
-0.00715238
-0.00703315
-0.00688146
-0.00669842
-0.00648577
-0.00624558
-0.00598046
-0.00569347
-0.00538811
-0.00506826
-0.0047382
-0.00440246
-0.00406586
-0.00373335
-0.00340999
-0.00310085
-0.00281087
-0.00254484
-0.00230724
-0.00210216
-0.00193321
-0.00180343
-0.00171518
-0.00167013
-0.00166917
-0.00171238
-0.00179904
-0.00192761
-0.00209581
-0.00230064
-0.00253847
-0.00280515
-0.00309612
-0.00340653
-0.00373136
-0.00406559
-0.00440428
-0.00474273
-0.00507657
-0.00540186
-0.00571516
-0.00601354
-0.00629467
-0.0065568
-0.00679872
-0.00701979
-0.00721982
-0.00739907
-0.0075582
-0.00769811
-0.00781998
-0.00792513
-0.00801499
-0.00809102
-0.00815464
-0.00820723
-0.00825002
-0.00828411
-0.00831038
-0.00832949
-0.00834185
-0.00834756
-0.00834641
-0.00833782
-0.00832121
-0.00829593
-0.00825593
-0.00819069
0.00019624
0.00020976
0.000210991
0.000202913
0.000187372
0.000164778
0.000135634
0.000100558
6.01531e-05
1.49968e-05
-3.43818e-05
-8.75222e-05
-0.00014405
-0.000203698
-0.000266304
-0.000331828
-0.000400344
-0.000472043
-0.000547221
-0.000626269
-0.00070966
-0.000797936
-0.000891689
-0.000991555
-0.0010982
-0.00121229
-0.00133451
-0.00146552
-0.00160595
-0.0017564
-0.0019174
-0.00208942
-0.00227283
-0.00246786
-0.00267465
-0.00289313
-0.00312308
-0.00336406
-0.00361541
-0.00387626
-0.00414545
-0.00442162
-0.00470312
-0.00498808
-0.00527441
-0.00555979
-0.00584176
-0.00611766
-0.00638475
-0.00664021
-0.00688117
-0.00710479
-0.00730828
-0.00748897
-0.00764432
-0.007772
-0.00786992
-0.00793627
-0.00796957
-0.00796869
-0.00793291
-0.00786191
-0.00775583
-0.00761526
-0.00744128
-0.00723549
-0.00699992
-0.00673711
-0.00645007
-0.00614223
-0.00581747
-0.00548001
-0.00513441
-0.0047855
-0.00443828
-0.0040979
-0.00376953
-0.00345828
-0.0031691
-0.0029067
-0.00267542
-0.00247915
-0.00232123
-0.00220436
-0.00213053
-0.00210096
-0.00211608
-0.00217545
-0.00227785
-0.00242123
-0.00260281
-0.00281911
-0.00306609
-0.00333925
-0.00363373
-0.00394446
-0.00426633
-0.00459426
-0.00492339
-0.00524916
-0.00556741
-0.00587449
-0.00616729
-0.00644328
-0.00670054
-0.0069377
-0.00715401
-0.0073492
-0.00752347
-0.00767744
-0.00781204
-0.00792846
-0.00802808
-0.0081124
-0.00818295
-0.00824125
-0.00828875
-0.0083268
-0.00835655
-0.00837897
-0.00839476
-0.00840437
-0.00840792
-0.0084052
-0.0083956
-0.00837851
-0.00835323
-0.00831382
-0.00825
0.000270267
0.000278121
0.000275144
0.000263597
0.000244962
0.000219673
0.000188239
0.00015126
0.000109323
6.29863e-05
1.27552e-05
-4.09414e-05
-9.77667e-05
-0.000157496
-0.000220023
-0.00028537
-0.000353688
-0.000425252
-0.000500455
-0.000579792
-0.00066385
-0.000753293
-0.00084885
-0.000951292
-0.00106143
-0.00118008
-0.00130806
-0.0014462
-0.00159526
-0.00175597
-0.00192899
-0.0021149
-0.00231413
-0.00252699
-0.00275364
-0.00299401
-0.00324784
-0.00351463
-0.00379362
-0.00408378
-0.00438381
-0.00469215
-0.00500694
-0.0053261
-0.00564729
-0.00596798
-0.00628543
-0.00659677
-0.00689905
-0.0071892
-0.00746419
-0.00772099
-0.00795663
-0.00816828
-0.00835328
-0.00850916
-0.00863372
-0.00872503
-0.00878152
-0.00880195
-0.00878551
-0.00873178
-0.00864082
-0.00851311
-0.00834963
-0.00815189
-0.00792182
-0.00766187
-0.00737496
-0.00706445
-0.00673413
-0.0063882
-0.00603119
-0.0056679
-0.0053034
-0.00494288
-0.00459162
-0.00425487
-0.00393777
-0.00364527
-0.00338198
-0.0031521
-0.00295932
-0.00280673
-0.00269671
-0.00263089
-0.0026101
-0.00263433
-0.0027027
-0.00281352
-0.00296429
-0.0031518
-0.00337219
-0.00362107
-0.00389364
-0.00418484
-0.00448947
-0.00480236
-0.00511847
-0.00543304
-0.00574171
-0.00604058
-0.0063263
-0.0065961
-0.00684783
-0.00707996
-0.00729152
-0.00748212
-0.00765186
-0.00780126
-0.00793122
-0.00804292
-0.00813776
-0.00821725
-0.00828301
-0.00833661
-0.00837959
-0.00841337
-0.00843918
-0.00845807
-0.00847081
-0.00847791
-0.00847952
-0.00847547
-0.00846517
-0.008448
-0.00842327
-0.00838529
-0.00832429
0.000353536
0.000354794
0.00034698
0.000331506
0.000309408
0.000281131
0.00024717
0.00020808
0.000164408
0.00011667
6.53279e-05
1.07642e-05
-4.67374e-05
-0.00010701
-0.000170017
-0.000235858
-0.000304775
-0.000377144
-0.000453467
-0.000534362
-0.000620551
-0.000712838
-0.000812104
-0.000919281
-0.00103534
-0.00116126
-0.00129803
-0.00144662
-0.00160795
-0.0017829
-0.00197223
-0.00217661
-0.00239655
-0.00263239
-0.00288427
-0.0031521
-0.00343554
-0.00373396
-0.00404647
-0.00437185
-0.0047086
-0.00505493
-0.00540875
-0.0057677
-0.00612921
-0.00649047
-0.00684851
-0.00720023
-0.00754242
-0.00787183
-0.00818522
-0.00847938
-0.0087512
-0.00899768
-0.00921603
-0.00940365
-0.00955823
-0.00967774
-0.00976047
-0.00980511
-0.00981072
-0.00977678
-0.00970322
-0.00959043
-0.00943927
-0.00925111
-0.00902777
-0.00877156
-0.0084853
-0.00817224
-0.00783607
-0.0074809
-0.0071112
-0.00673176
-0.00634762
-0.00596403
-0.00558634
-0.00521995
-0.00487018
-0.0045422
-0.00424092
-0.00397088
-0.00373616
-0.00354027
-0.00338607
-0.00327565
-0.00321036
-0.00319065
-0.00321615
-0.00328559
-0.00339688
-0.00354715
-0.00373283
-0.00394973
-0.0041932
-0.00445822
-0.00473959
-0.00503204
-0.0053304
-0.00562971
-0.00592538
-0.00621324
-0.00648967
-0.00675163
-0.0069967
-0.00722308
-0.00742959
-0.00761562
-0.00778111
-0.00792645
-0.00805244
-0.0081602
-0.00825108
-0.00832662
-0.00838844
-0.00843816
-0.00847739
-0.0085076
-0.00853012
-0.00854604
-0.00855623
-0.00856125
-0.00856133
-0.00855633
-0.00854573
-0.00852894
-0.00850529
-0.00846949
-0.00841243
0.000445378
0.000439157
0.000425925
0.000406118
0.000380239
0.000348729
0.000312045
0.000270668
0.000225075
0.000175716
0.00012299
6.72124e-05
8.59901e-06
-5.27589e-05
-0.00011691
-0.00018405
-0.000254526
-0.000328831
-0.000407596
-0.00049158
-0.000581656
-0.000678796
-0.000784048
-0.00089852
-0.00102336
-0.00115973
-0.00130879
-0.00147168
-0.00164947
-0.00184316
-0.00205362
-0.00228159
-0.00252762
-0.00279205
-0.00307497
-0.00337622
-0.00369533
-0.00403152
-0.00438369
-0.00475041
-0.00512994
-0.00552022
-0.00591888
-0.00632331
-0.00673065
-0.00713783
-0.00754163
-0.0079387
-0.00832562
-0.00869893
-0.0090552
-0.00939104
-0.00970319
-0.00998851
-0.0102441
-0.0104672
-0.0106553
-0.0108064
-0.0109187
-0.0109906
-0.0110212
-0.0110098
-0.0109562
-0.0108606
-0.0107239
-0.0105471
-0.010332
-0.0100808
-0.00979603
-0.0094809
-0.00913894
-0.00877415
-0.00839089
-0.00799389
-0.00758815
-0.00717893
-0.00677163
-0.00637175
-0.00598478
-0.00561612
-0.00527097
-0.00495423
-0.00467039
-0.00442341
-0.00421669
-0.00405287
-0.00393387
-0.00386074
-0.00383367
-0.00385197
-0.00391406
-0.00401754
-0.00415921
-0.00433522
-0.00454115
-0.00477211
-0.00502297
-0.00528841
-0.00556316
-0.00584209
-0.00612035
-0.00639353
-0.00665768
-0.00690946
-0.00714611
-0.00736554
-0.00756626
-0.00774742
-0.0079087
-0.00805031
-0.0081729
-0.00827744
-0.00836524
-0.00843777
-0.00849662
-0.00854345
-0.00857987
-0.00860741
-0.00862745
-0.00864118
-0.0086495
-0.00865306
-0.00865216
-0.00864673
-0.00863632
-0.00862039
-0.00859834
-0.00856532
-0.00851307
0.000544994
0.000530428
0.000511243
0.000486744
0.000456823
0.000421887
0.000382324
0.000338508
0.000290817
0.00023961
0.000185198
0.000127814
6.75825e-05
4.50014e-06
-6.15835e-05
-0.000130978
-0.000204154
-0.000281738
-0.000364511
-0.000453394
-0.000549434
-0.000653783
-0.000767678
-0.00089242
-0.00102935
-0.00117982
-0.00134517
-0.0015267
-0.00172562
-0.00194305
-0.00217995
-0.00243709
-0.00271502
-0.00301404
-0.00333417
-0.00367511
-0.00403621
-0.0044165
-0.00481464
-0.00522894
-0.00565737
-0.0060976
-0.00654696
-0.00700256
-0.00746124
-0.00791969
-0.0083744
-0.00882181
-0.00925827
-0.00968012
-0.0100837
-0.0104656
-0.0108223
-0.0111505
-0.0114471
-0.0117094
-0.0119348
-0.012121
-0.012266
-0.0123684
-0.012427
-0.0124409
-0.0124099
-0.0123341
-0.012214
-0.0120506
-0.0118456
-0.0116008
-0.0113187
-0.0110024
-0.0106552
-0.0102808
-0.00988364
-0.00946821
-0.00903946
-0.0086026
-0.00816306
-0.00772639
-0.00729823
-0.00688417
-0.00648969
-0.00612002
-0.00578009
-0.00547436
-0.00520677
-0.0049806
-0.00479839
-0.00466189
-0.00457198
-0.00452863
-0.00453092
-0.00457704
-0.00466432
-0.00478937
-0.00494809
-0.00513588
-0.00534771
-0.00557835
-0.00582244
-0.00607471
-0.00633012
-0.00658394
-0.00683193
-0.00707037
-0.00729615
-0.00750681
-0.0077005
-0.00787605
-0.00803283
-0.0081708
-0.00829036
-0.00839234
-0.00847786
-0.00854831
-0.00860523
-0.00865022
-0.0086849
-0.00871081
-0.00872938
-0.00874183
-0.00874914
-0.00875201
-0.00875081
-0.00874556
-0.00873589
-0.00872134
-0.00870134
-0.0086716
-0.00862473
0.000651384
0.000627655
0.00060202
0.000572525
0.000538351
0.00049984
0.000457276
0.000410886
0.000360919
0.000307618
0.000251181
0.000191733
0.00012929
6.37325e-05
-5.21265e-06
-7.79848e-05
-0.000155196
-0.000237632
-0.000326243
-0.000422132
-0.000526537
-0.000640811
-0.000766397
-0.000904801
-0.00105757
-0.00122624
-0.00141234
-0.00161732
-0.00184252
-0.00208914
-0.00235819
-0.00265046
-0.00296645
-0.00330638
-0.00367013
-0.00405722
-0.00446679
-0.00489761
-0.00534808
-0.00581621
-0.00629966
-0.0067958
-0.00730165
-0.00781402
-0.00832947
-0.00884441
-0.00935509
-0.00985771
-0.0103484
-0.0108233
-0.0112787
-0.0117107
-0.012116
-0.0124909
-0.0128324
-0.0131375
-0.0134035
-0.0136281
-0.0138092
-0.0139451
-0.0140345
-0.0140766
-0.0140708
-0.0140171
-0.013916
-0.0137682
-0.0135751
-0.0133385
-0.0130607
-0.0127444
-0.0123928
-0.0120096
-0.0115987
-0.0111646
-0.0107121
-0.0102464
-0.00977277
-0.00929684
-0.00882431
-0.00836092
-0.00791238
-0.00748427
-0.00708191
-0.00671027
-0.00637384
-0.00607658
-0.00582174
-0.00561183
-0.00544851
-0.00533255
-0.00526382
-0.00524124
-0.00526283
-0.00532577
-0.00542649
-0.00556076
-0.00572382
-0.00591057
-0.0061157
-0.00633385
-0.00655977
-0.00678849
-0.00701542
-0.00723648
-0.00744813
-0.00764749
-0.00783231
-0.00800099
-0.00815257
-0.00828663
-0.0084033
-0.00850315
-0.0085871
-0.00865635
-0.00871234
-0.00875659
-0.00879066
-0.00881608
-0.00883427
-0.00884649
-0.00885376
-0.00885682
-0.00885612
-0.00885175
-0.00884342
-0.00883074
-0.00881323
-0.00878712
-0.00874598
0.000763359
0.000729675
0.000697144
0.0006624
0.000623812
0.000581615
0.000535948
0.000486858
0.000434428
0.000378756
0.000319903
0.000257858
0.000192506
0.000123594
5.07071e-05
-2.67465e-05
-0.000109543
-0.000198646
-0.000295197
-0.000400501
-0.000516008
-0.000643285
-0.000783995
-0.00093986
-0.00111263
-0.00130404
-0.00151578
-0.00174943
-0.00200645
-0.00228808
-0.00259535
-0.00292901
-0.00328947
-0.00367682
-0.00409074
-0.00453054
-0.00499509
-0.00548287
-0.00599198
-0.00652009
-0.00706457
-0.00762243
-0.00819039
-0.00876495
-0.00934239
-0.00991883
-0.0104903
-0.0110527
-0.0116021
-0.0121343
-0.0126454
-0.0131316
-0.0135891
-0.0140143
-0.0144041
-0.0147552
-0.015065
-0.0153309
-0.0155508
-0.015723
-0.0158459
-0.0159186
-0.0159405
-0.0159114
-0.0158314
-0.0157013
-0.0155222
-0.0152958
-0.015024
-0.0147093
-0.0143548
-0.0139637
-0.01354
-0.0130878
-0.0126118
-0.0121169
-0.0116083
-0.0110917
-0.0105727
-0.0100572
-0.00955103
-0.00906004
-0.00858993
-0.00814614
-0.00773374
-0.00735735
-0.00702097
-0.00672794
-0.00648079
-0.0062812
-0.00612995
-0.00602683
-0.00597073
-0.0059596
-0.00599051
-0.00605979
-0.00616312
-0.00629566
-0.00645224
-0.00662751
-0.0068161
-0.0070128
-0.00721269
-0.0074113
-0.00760465
-0.00778938
-0.00796277
-0.00812275
-0.00826788
-0.00839737
-0.00851094
-0.00860884
-0.00869171
-0.00876053
-0.00881653
-0.00886109
-0.00889569
-0.00892179
-0.00894077
-0.00895388
-0.00896215
-0.00896638
-0.00896704
-0.00896428
-0.00895792
-0.00894762
-0.00893297
-0.00891075
-0.00887544
0.000879501
0.000835116
0.000795289
0.00075509
0.000711967
0.000666003
0.00061715
0.000565232
0.000510131
0.000451767
0.000390034
0.000324767
0.000255696
0.000182411
0.000104335
2.07024e-05
-6.94511e-05
-0.000167288
-0.000274162
-0.000391597
-0.000521272
-0.000664984
-0.000824624
-0.00100213
-0.00119946
-0.00141853
-0.00166117
-0.00192908
-0.00222378
-0.00254654
-0.00289834
-0.00327984
-0.00369132
-0.00413267
-0.00460336
-0.00510239
-0.00562835
-0.00617941
-0.00675329
-0.00734736
-0.00795862
-0.00858374
-0.00921914
-0.00986099
-0.0105053
-0.0111479
-0.0117845
-0.012411
-0.0130229
-0.0136162
-0.0141866
-0.0147302
-0.0152431
-0.0157216
-0.0161624
-0.0165622
-0.0169183
-0.017228
-0.0174891
-0.0176997
-0.0178583
-0.0179638
-0.0180154
-0.0180128
-0.017956
-0.0178457
-0.0176827
-0.0174684
-0.0172046
-0.0168935
-0.0165378
-0.0161407
-0.0157057
-0.0152367
-0.0147382
-0.0142149
-0.0136718
-0.0131143
-0.0125481
-0.011979
-0.0114131
-0.0108562
-0.0103145
-0.0097937
-0.0092995
-0.00883712
-0.00841134
-0.00802632
-0.00768556
-0.00739171
-0.00714659
-0.00695104
-0.00680494
-0.00670718
-0.00665571
-0.00664761
-0.00667915
-0.00674596
-0.00684315
-0.0069655
-0.00710761
-0.00726411
-0.00742979
-0.00759978
-0.00776965
-0.00793552
-0.00809412
-0.00824284
-0.00837972
-0.00850345
-0.0086133
-0.00870911
-0.00879114
-0.00886008
-0.00891688
-0.00896275
-0.00899897
-0.0090269
-0.00904784
-0.00906299
-0.00907337
-0.00907977
-0.00908269
-0.00908233
-0.00907857
-0.00907113
-0.00905968
-0.00904148
-0.00901191
0.00099815
0.000942367
0.000894893
0.000849081
0.000801338
0.000751551
0.000699437
0.000644548
0.000586531
0.000525094
0.00045994
0.000390721
0.000316992
0.000238165
0.000153477
6.19638e-05
-3.7547e-05
-0.000146439
-0.000266295
-0.000398879
-0.000546109
-0.000710024
-0.000892745
-0.00109643
-0.00132322
-0.0015752
-0.00185431
-0.00216234
-0.00250083
-0.002871
-0.00327377
-0.00370965
-0.00417873
-0.00468065
-0.00521458
-0.00577924
-0.00637286
-0.00699325
-0.00763777
-0.00830343
-0.00898686
-0.00968439
-0.0103921
-0.0111058
-0.0118213
-0.0125341
-0.0132398
-0.0139338
-0.0146117
-0.015269
-0.0159015
-0.0165051
-0.0170758
-0.0176098
-0.0181036
-0.018554
-0.0189581
-0.0193132
-0.0196171
-0.0198677
-0.0200636
-0.0202034
-0.0202864
-0.020312
-0.0202803
-0.0201915
-0.0200464
-0.0198461
-0.0195923
-0.0192869
-0.0189323
-0.0185314
-0.0180873
-0.0176038
-0.0170848
-0.0165348
-0.0159587
-0.0153616
-0.014749
-0.0141266
-0.0135004
-0.0128765
-0.012261
-0.0116602
-0.0110802
-0.0105266
-0.0100051
-0.00952066
-0.00907769
-0.00867993
-0.00833031
-0.00803083
-0.00778255
-0.00758548
-0.00743866
-0.00734012
-0.00728694
-0.00727544
-0.00730121
-0.00735933
-0.00744452
-0.00755134
-0.00767436
-0.00780837
-0.00794845
-0.0080902
-0.00822974
-0.00836386
-0.00848998
-0.0086062
-0.00871123
-0.00880439
-0.00888551