/*--------------------------------*- C++ -*----------------------------------*\
| =========                 |                                                 |
| \\      /  F ield         | OpenFOAM: The Open Source CFD Toolbox           |
|  \\    /   O peration     | Version:  2112                                  |
|   \\  /    A nd           | Website:  www.openfoam.com                      |
|    \\/     M anipulation  |                                                 |
\*---------------------------------------------------------------------------*/
FoamFile
{
    version     2.0;
    format      ascii;
    arch        "LSB;label=32;scalar=64";
    class       surfaceScalarField;
    location    "26";
    object      phi;
}
// * * * * * * * * * * * * * * * * * * * * * * * * * * * * * * * * * * * * * //

dimensions      [0 3 -1 0 0 0 0];

oriented        oriented;

internalField   nonuniform List<scalar> 
33024
(
-2.12343e-09
2.45917e-09
2.26115e-08
-2.4735e-08
7.46277e-08
-5.20182e-08
1.45891e-07
-7.12626e-08
2.28585e-07
-8.26942e-08
3.16239e-07
-8.76528e-08
4.03776e-07
-8.7537e-08
4.87369e-07
-8.35931e-08
5.64219e-07
-7.68501e-08
6.32357e-07
-6.81381e-08
6.90476e-07
-5.81195e-08
7.37794e-07
-4.73175e-08
7.73929e-07
-3.61344e-08
7.98798e-07
-2.48691e-08
8.12528e-07
-1.37306e-08
8.15382e-07
-2.85346e-09
8.07676e-07
7.7063e-09
7.89739e-07
1.79381e-08
7.61855e-07
2.78839e-08
7.24234e-07
3.76203e-08
6.76984e-07
4.72501e-08
6.20092e-07
5.68916e-08
5.53422e-07
6.66707e-08
4.76709e-07
7.67126e-08
3.89575e-07
8.71351e-08
2.91531e-07
9.80436e-08
1.82005e-07
1.09526e-07
6.0355e-08
1.2165e-07
-7.41079e-08
1.34462e-07
-2.22096e-07
1.47988e-07
-3.84325e-07
1.6223e-07
-5.61494e-07
1.77169e-07
-7.54261e-07
1.92767e-07
-9.63227e-07
2.08965e-07
-1.18891e-06
2.25689e-07
-1.43176e-06
2.42842e-07
-1.69207e-06
2.60315e-07
-1.97005e-06
2.77978e-07
-2.26574e-06
2.95687e-07
-2.57902e-06
3.13282e-07
-2.9096e-06
3.30585e-07
-3.25701e-06
3.47405e-07
-3.62054e-06
3.63536e-07
-3.9993e-06
3.7876e-07
-4.39215e-06
3.92847e-07
-4.79771e-06
4.05561e-07
-5.21437e-06
4.16656e-07
-5.64025e-06
4.25886e-07
-6.07326e-06
4.33002e-07
-6.51102e-06
4.37759e-07
-6.95093e-06
4.3992e-07
-7.39019e-06
4.39256e-07
-7.82575e-06
4.35554e-07
-8.25437e-06
4.28621e-07
-8.67265e-06
4.18284e-07
-9.07705e-06
4.04396e-07
-9.46389e-06
3.86843e-07
-9.82943e-06
3.65543e-07
-1.01699e-05
3.40452e-07
-1.04815e-05
3.11568e-07
-1.07604e-05
2.78931e-07
-1.1003e-05
2.4263e-07
-1.12058e-05
2.02801e-07
-1.13655e-05
1.59637e-07
-1.14788e-05
1.13398e-07
-1.15432e-05
6.43872e-08
-1.15562e-05
1.2993e-08
-1.15154e-05
-4.07926e-08
-1.14196e-05
-9.5886e-08
-1.12674e-05
-1.52136e-07
-1.10585e-05
-2.08946e-07
-1.07927e-05
-2.65729e-07
-1.04709e-05
-3.21867e-07
-1.00942e-05
-3.76719e-07
-9.66453e-06
-4.29625e-07
-9.18461e-06
-4.7992e-07
-8.65766e-06
-5.26944e-07
-8.08761e-06
-5.70053e-07
-7.47898e-06
-6.08635e-07
-6.83686e-06
-6.4212e-07
-6.16686e-06
-6.69997e-07
-5.47503e-06
-6.91826e-07
-4.76778e-06
-7.0725e-07
-4.05178e-06
-7.16007e-07
-3.33384e-06
-7.17941e-07
-2.62083e-06
-7.13007e-07
-1.91955e-06
-7.01277e-07
-1.23661e-06
-6.82941e-07
-5.78304e-07
-6.58308e-07
4.94962e-08
-6.278e-07
6.41476e-07
-5.9198e-07
1.19286e-06
-5.51383e-07
1.69962e-06
-5.06761e-07
2.15848e-06
-4.58861e-07
2.56696e-06
-4.08479e-07
2.92339e-06
-3.56434e-07
3.22694e-06
-3.03545e-07
3.47755e-06
-2.50614e-07
3.67596e-06
-1.98403e-07
3.82357e-06
-1.47616e-07
3.92246e-06
-9.88894e-08
3.97524e-06
-5.27742e-08
3.98497e-06
-9.73099e-09
3.95509e-06
2.98799e-08
3.88929e-06
6.57937e-08
3.79145e-06
9.78481e-08
3.66547e-06
1.25974e-07
3.51528e-06
1.5019e-07
3.34469e-06
1.70596e-07
3.15733e-06
1.87358e-07
2.95663e-06
2.00702e-07
2.74573e-06
2.10893e-07
2.52751e-06
2.18223e-07
2.30452e-06
2.22993e-07
2.07903e-06
2.25492e-07
1.85305e-06
2.25974e-07
1.62842e-06
2.24635e-07
1.40684e-06
2.21579e-07
1.19005e-06
2.16787e-07
9.79967e-07
2.10084e-07
7.78871e-07
2.01096e-07
5.89652e-07
1.89219e-07
4.16055e-07
1.73597e-07
2.6293e-07
1.53125e-07
1.36352e-07
1.26577e-07
4.33475e-08
9.30045e-08
-9.41004e-09
5.27575e-08
-1.97588e-08
1.03487e-08
-1.97588e-08
2.48245e-08
-2.2365e-08
1.08197e-07
-1.08108e-07
2.42947e-07
-1.86765e-07
4.15894e-07
-2.44212e-07
6.12723e-07
-2.79522e-07
8.20173e-07
-2.95104e-07
1.02693e-06
-2.94292e-07
1.22382e-06
-2.80487e-07
1.40373e-06
-2.56756e-07
1.56132e-06
-2.25731e-07
1.6928e-06
-1.89602e-07
1.79564e-06
-1.5015e-07
1.86829e-06
-1.08783e-07
1.90999e-06
-6.65701e-08
1.92053e-06
-2.42679e-08
1.90007e-06
1.75968e-08
1.84899e-06
5.87911e-08
1.76769e-06
9.9237e-08
1.65654e-06
1.39031e-07
1.51577e-06
1.78396e-07
1.34537e-06
2.17651e-07
1.14509e-06
2.57169e-07
9.14406e-07
2.97355e-07
6.52506e-07
3.38612e-07
3.58324e-07
3.81317e-07
3.05648e-08
4.25804e-07
-3.32253e-07
4.72344e-07
-7.31742e-07
5.21139e-07
-1.16959e-06
5.72314e-07
-1.64752e-06
6.2591e-07
-2.16717e-06
6.8189e-07
-2.73014e-06
7.40132e-07
-3.33781e-06
8.00442e-07
-3.9914e-06
8.6255e-07
-4.69183e-06
9.26116e-07
-5.43972e-06
9.90732e-07
-6.23533e-06
1.05592e-06
-7.07851e-06
1.12116e-06
-7.96866e-06
1.18584e-06
-8.90471e-06
1.24933e-06
-9.88504e-06
1.31091e-06
-1.09075e-05
1.36985e-06
-1.19693e-05
1.42534e-06
-1.30671e-05
1.47657e-06
-1.41969e-05
1.52269e-06
-1.53542e-05
1.56283e-06
-1.65337e-05
1.59611e-06
-1.77295e-05
1.62168e-06
-1.89351e-05
1.63868e-06
-2.01437e-05
1.6463e-06
-2.13475e-05
1.64376e-06
-2.25386e-05
1.63034e-06
-2.37084e-05
1.60541e-06
-2.48482e-05
1.5684e-06
-2.59488e-05
1.51884e-06
-2.70008e-05
1.45638e-06
-2.79947e-05
1.38079e-06
-2.89211e-05
1.29194e-06
-2.97705e-05
1.18988e-06
-3.05338e-05
1.07479e-06
-3.12018e-05
9.46976e-07
-3.17661e-05
8.06945e-07
-3.22187e-05
6.55343e-07
-3.2552e-05
4.92993e-07
-3.27596e-05
3.20931e-07
-3.28355e-05
1.4032e-07
-3.2775e-05
-4.75309e-08
-3.2574e-05
-2.4178e-07
-3.223e-05
-4.39908e-07
-3.17415e-05
-6.40538e-07
-3.11087e-05
-8.41813e-07
-3.03326e-05
-1.04176e-06
-2.94162e-05
-1.23834e-06
-2.83635e-05
-1.42943e-06
-2.71802e-05
-1.6129e-06
-2.58735e-05
-1.78661e-06
-2.4452e-05
-1.94845e-06
-2.29257e-05
-2.09638e-06
-2.13058e-05
-2.22847e-06
-1.9605e-05
-2.34295e-06
-1.78368e-05
-2.4382e-06
-1.60158e-05
-2.51286e-06
-1.41572e-05
-2.56581e-06
-1.2277e-05
-2.59624e-06
-1.03913e-05
-2.60364e-06
-8.51644e-06
-2.58786e-06
-6.6686e-06
-2.54911e-06
-4.86356e-06
-2.48798e-06
-3.11649e-06
-2.40539e-06
-1.44164e-06
-2.30264e-06
1.47763e-07
-2.18138e-06
1.63992e-06
-2.04354e-06
3.02443e-06
-1.89127e-06
4.29257e-06
-1.727e-06
5.43739e-06
-1.5533e-06
6.45378e-06
-1.37282e-06
7.3385e-06
-1.18827e-06
8.0902e-06
-1.00231e-06
8.70933e-06
-8.17531e-07
9.19808e-06
-6.3636e-07
9.56022e-06
-4.61038e-07
9.80101e-06
-2.93559e-07
9.92692e-06
-1.35642e-07
9.9455e-06
1.13008e-08
9.86512e-06
1.46174e-07
9.69476e-06
2.68208e-07
9.44378e-06
3.76949e-07
9.12173e-06
4.72249e-07
8.73808e-06
5.54238e-07
8.30215e-06
6.23296e-07
7.82284e-06
6.80011e-07
7.3086e-06
7.25134e-07
6.7673e-06
7.59521e-07
6.20621e-06
7.84076e-07
5.63203e-06
7.99679e-07
5.0509e-06
8.07106e-07
4.46859e-06
8.06942e-07
3.89068e-06
7.99489e-07
3.32281e-06
7.8466e-07
2.771e-06
7.61885e-07
2.24208e-06
7.30019e-07
1.74401e-06
6.87293e-07
1.28627e-06
6.31332e-07
8.80055e-07
5.59342e-07
5.37979e-07
4.68654e-07
2.72986e-07
3.57996e-07
9.58396e-08
2.29904e-07
1.07111e-08
9.54771e-08
-9.04776e-09
5.21194e-08
-7.44862e-08
1.87157e-07
-2.43143e-07
3.87369e-07
-3.86978e-07
6.34475e-07
-4.91316e-07
9.10065e-07
-5.55113e-07
1.197e-06
-5.82034e-07
1.48023e-06
-5.77526e-07
1.74717e-06
-5.47433e-07
1.9877e-06
-4.9728e-07
2.19394e-06
-4.31976e-07
2.36006e-06
-3.5572e-07
2.48191e-06
-2.71997e-07
2.55673e-06
-1.83608e-07
2.58288e-06
-9.27161e-08
2.55945e-06
-8.43298e-10
2.48622e-06
9.08358e-08
2.36314e-06
1.81865e-07
2.19038e-06
2.72003e-07
1.96801e-06
3.61393e-07
1.69598e-06
4.5043e-07
1.37393e-06
5.39698e-07
1.0012e-06
6.29899e-07
5.76766e-07
7.21792e-07
9.92434e-08
8.16135e-07
-4.33071e-07
9.13631e-07
-1.02216e-06
1.01489e-06
-1.67022e-06
1.1204e-06
-2.37958e-06
1.2305e-06
-3.15262e-06
1.34535e-06
-3.99165e-06
1.46494e-06
-4.89887e-06
1.58911e-06
-5.87623e-06
1.7175e-06
-6.92538e-06
1.84958e-06
-8.04752e-06
1.98469e-06
-9.2434e-06
2.122e-06
-1.05132e-05
2.26052e-06
-1.18564e-05
2.39915e-06
-1.32719e-05
2.53666e-06
-1.47578e-05
2.67168e-06
-1.63112e-05
2.80274e-06
-1.79285e-05
2.9283e-06
-1.96054e-05
3.04669e-06
-2.13363e-05
3.15622e-06
-2.31148e-05
3.25512e-06
-2.49337e-05
3.3416e-06
-2.67848e-05
3.41388e-06
-2.86589e-05
3.47019e-06
-3.0546e-05
3.5088e-06
-3.24353e-05
3.52806e-06
-3.43155e-05
3.52642e-06
-3.61742e-05
3.50245e-06
-3.79987e-05
3.45489e-06
-3.97759e-05
3.38263e-06
-4.14923e-05
3.28479e-06
-4.31342e-05
3.16068e-06
-4.46877e-05
3.00987e-06
-4.61391e-05
2.83219e-06
-4.74748e-05
2.62773e-06
-4.86818e-05
2.39688e-06
-4.97474e-05
2.14029e-06
-5.06593e-05
1.85895e-06
-5.14065e-05
1.55413e-06
-5.19786e-05
1.2274e-06
-5.23662e-05
8.80651e-07
-5.25614e-05
5.16151e-07
-5.2558e-05
1.36895e-07
-5.23494e-05
-2.56179e-07
-5.19326e-05
-6.58554e-07
-5.13054e-05
-1.06711e-06
-5.04674e-05
-1.47856e-06
-4.94199e-05
-1.88926e-06
-4.81663e-05
-2.29539e-06
-4.67116e-05
-2.69303e-06
-4.50629e-05
-3.07815e-06
-4.32291e-05
-3.44672e-06
-4.1221e-05
-3.79471e-06
-3.90512e-05
-4.11819e-06
-3.67342e-05
-4.41339e-06
-3.4286e-05
-4.6767e-06
-3.17241e-05
-4.90485e-06
-2.90674e-05
-5.09487e-06
-2.63361e-05
-5.24421e-06
-2.35511e-05
-5.35082e-06
-2.07342e-05
-5.41314e-06
-1.79076e-05
-5.43023e-06
-1.50937e-05
-5.40175e-06
-1.23147e-05
-5.32805e-06
-9.5926e-06
-5.21011e-06
-6.94838e-06
-5.04961e-06
-4.40214e-06
-4.84888e-06
-1.97264e-06
-4.61089e-06
3.22987e-07
-4.33917e-06
2.46949e-06
-4.03777e-06
4.45364e-06
-3.71114e-06
6.26449e-06
-3.36415e-06
7.89351e-06
-3.00184e-06
9.33462e-06
-2.62938e-06
1.05843e-05
-2.25196e-06
1.16414e-05
-1.87467e-06
1.25074e-05
-1.50236e-06
1.31859e-05
-1.13958e-06
1.36829e-05
-7.90467e-07
1.40059e-05
-4.58653e-07
1.41644e-05
-1.47234e-07
1.41693e-05
1.41288e-07
1.40325e-05
4.05035e-07
1.37667e-05
6.42736e-07
1.33852e-05
8.53725e-07
1.29015e-05
1.0379e-06
1.23291e-05
1.19569e-06
1.16812e-05
1.32792e-06
1.09705e-05
1.43582e-06
1.02092e-05
1.52084e-06
9.40874e-06
1.58456e-06
8.57988e-06
1.62854e-06
7.7328e-06
1.65419e-06
6.87719e-06
1.66256e-06
6.02247e-06
1.65421e-06
5.17816e-06
1.62897e-06
4.35422e-06
1.58582e-06
3.56149e-06
1.52276e-06
2.81206e-06
1.43672e-06
2.11961e-06
1.32378e-06
1.49944e-06
1.17951e-06
9.67996e-07
1.00009e-06
5.41684e-07
7.84308e-07
2.34558e-07
5.37031e-07
5.47166e-08
2.75318e-07
4.56689e-08
7.17208e-08
-1.46205e-07
2.45721e-07
-4.17145e-07
4.93685e-07
-6.34942e-07
7.91598e-07
-7.89229e-07
1.11747e-06
-8.80986e-07
1.45145e-06
-9.16015e-07
1.77616e-06
-9.02229e-07
2.07683e-06
-8.48108e-07
2.34136e-06
-7.61812e-07
2.56012e-06
-6.50729e-07
2.72569e-06
-5.21291e-07
2.8326e-06
-3.78912e-07
2.87698e-06
-2.2799e-07
2.85623e-06
-7.19577e-08
2.76872e-06
8.66591e-08
2.61344e-06
2.46121e-07
2.38984e-06
4.05467e-07
2.09751e-06
5.64327e-07
1.73605e-06
7.22858e-07
1.30485e-06
8.81625e-07
8.03062e-07
1.04149e-06
2.29456e-07
1.2035e-06
-4.17556e-07
1.3688e-06
-1.13994e-06
1.53852e-06
-1.93998e-06
1.71368e-06
-2.82025e-06
1.89516e-06
-3.78346e-06
2.08362e-06
-4.83241e-06
2.27946e-06
-5.96986e-06
2.4828e-06
-7.19839e-06
2.69347e-06
-8.52028e-06
2.911e-06
-9.93739e-06
3.13461e-06
-1.14511e-05
3.36327e-06
-1.3062e-05
3.59564e-06
-1.47702e-05
3.83014e-06
-1.65746e-05
4.06496e-06
-1.84735e-05
4.29804e-06
-2.0464e-05
4.52713e-06
-2.25421e-05
4.74981e-06
-2.47028e-05
4.96347e-06
-2.69399e-05
5.16538e-06
-2.92459e-05
5.35272e-06
-3.16123e-05
5.52258e-06
-3.40292e-05
5.672e-06
-3.64857e-05
5.79807e-06
-3.89697e-05
5.89788e-06
-4.14681e-05
5.96863e-06
-4.39669e-05
6.00765e-06
-4.64513e-05
6.01246e-06
-4.89057e-05
5.98077e-06
-5.13138e-05
5.91058e-06
-5.36591e-05
5.80018e-06
-5.59247e-05
5.64817e-06
-5.80934e-05
5.45354e-06
-6.01484e-05
5.21566e-06
-6.20728e-05
4.93429e-06
-6.38503e-05
4.60964e-06
-6.54649e-05
4.24235e-06
-6.69015e-05
3.83351e-06
-6.81459e-05
3.38465e-06
-6.91847e-05
2.89776e-06
-7.00058e-05
2.37527e-06
-7.05985e-05
1.82006e-06
-7.09533e-05
1.23542e-06
-7.10619e-05
6.24788e-07
-7.09206e-05
-4.42225e-09
-7.05207e-05
-6.56014e-07
-6.98624e-05
-1.31692e-06
-6.89443e-05
-1.98519e-06
-6.77677e-05
-2.65519e-06
-6.63357e-05
-3.32124e-06
-6.46536e-05
-3.97747e-06
-6.27287e-05
-4.61789e-06
-6.05705e-05
-5.23641e-06
-5.81902e-05
-5.82697e-06
-5.56014e-05
-6.38355e-06
-5.28193e-05
-6.90027e-06
-4.98612e-05
-7.37148e-06
-4.67461e-05
-7.79185e-06
-4.34944e-05
-8.15648e-06
-4.01284e-05
-8.46094e-06
-3.66712e-05
-8.70142e-06
-3.31472e-05
-8.87478e-06
-2.95817e-05
-8.97868e-06
-2.60003e-05
-9.01159e-06
-2.24291e-05
-8.97293e-06
-1.88941e-05
-8.86304e-06
-1.5421e-05
-8.68327e-06
-1.20346e-05
-8.43597e-06
-8.75903e-06
-8.12446e-06
-5.61688e-06
-7.75303e-06
-2.62921e-06
-7.32685e-06
1.84896e-07
-6.85187e-06
2.80857e-06
-6.33481e-06
5.22727e-06
-5.78286e-06
7.42915e-06
-5.20372e-06
9.4051e-06
-4.60533e-06
1.11489e-05
-3.99571e-06
1.2657e-05
-3.38285e-06
1.39291e-05
-2.77445e-06
1.49674e-05
-2.17786e-06
1.57768e-05
-1.59983e-06
1.63646e-05
-1.04647e-06
1.67404e-05
-5.23093e-07
1.69159e-05
-3.41288e-08
1.6904e-05
4.16914e-07
1.67193e-05
8.27464e-07
1.63771e-05
1.1959e-06
1.58935e-05
1.52149e-06
1.52848e-05
1.80437e-06
1.45674e-05
2.04536e-06
1.37573e-05
2.24593e-06
1.28701e-05
2.40798e-06
1.1921e-05
2.53366e-06
1.09244e-05
2.62518e-06
9.89402e-06
2.68453e-06
8.84332e-06
2.71326e-06
7.78536e-06
2.71216e-06
6.73326e-06
2.68107e-06
5.70054e-06
2.61854e-06
4.70152e-06
2.52178e-06
3.75164e-06
2.3866e-06
2.86779e-06
2.20763e-06
2.06825e-06
1.97906e-06
1.37238e-06
1.69597e-06
7.99833e-07
1.35685e-06
3.69363e-07
9.67501e-07
9.75958e-08
5.47086e-07
1.43265e-07
8.38424e-08
-2.30048e-07
2.82904e-07
-6.16207e-07
5.605e-07
-9.12538e-07
8.87334e-07
-1.11606e-06
1.23817e-06
-1.23182e-06
1.591e-06
-1.26884e-06
1.92681e-06
-1.23804e-06
2.22947e-06
-1.15077e-06
2.48558e-06
-1.01792e-06
2.68432e-06
-8.49467e-07
2.81715e-06
-6.54128e-07
2.87757e-06
-4.39325e-07
2.86071e-06
-2.11136e-07
2.7631e-06
2.56607e-08
2.58225e-06
2.67506e-07
2.31641e-06
5.1196e-07
1.96428e-06
7.57595e-07
1.52477e-06
1.00384e-06
9.9677e-07
1.25086e-06
3.79042e-07
1.49935e-06
-3.29932e-07
1.75046e-06
-1.13199e-06
2.00557e-06
-2.02935e-06
2.26616e-06
-3.02451e-06
2.53369e-06
-4.1203e-06
2.80947e-06
-5.31971e-06
3.09456e-06
-6.62578e-06
3.38969e-06
-8.04154e-06
3.69521e-06
-9.56978e-06
4.01104e-06
-1.12129e-05
4.33664e-06
-1.2973e-05
4.67104e-06
-1.48512e-05
5.01284e-06
-1.68481e-05
5.36017e-06
-1.89633e-05
5.71081e-06
-2.11953e-05
6.06213e-06
-2.35415e-05
6.41115e-06
-2.5998e-05
6.7546e-06
-2.85598e-05
7.0889e-06
-3.12202e-05
7.41025e-06
-3.39714e-05
7.71466e-06
-3.6804e-05
7.99797e-06
-3.97072e-05
8.25594e-06
-4.26689e-05
8.48429e-06
-4.56757e-05
8.67875e-06
-4.87128e-05
8.83516e-06
-5.17644e-05
8.94947e-06
-5.48136e-05
9.01788e-06
-5.78428e-05
9.03685e-06
-6.08335e-05
9.00317e-06
-6.37668e-05
8.91404e-06
-6.66233e-05
8.76708e-06
-6.93835e-05
8.56041e-06
-7.2028e-05
8.29267e-06
-7.45375e-05
7.96305e-06
-7.68932e-05
7.57131e-06
-7.90767e-05
7.1178e-06
-8.10705e-05
6.60348e-06
-8.28581e-05
6.0299e-06
-8.44238e-05
5.39921e-06
-8.57533e-05
4.71416e-06
-8.68336e-05
3.97806e-06
-8.76531e-05
3.1948e-06
-8.82018e-05
2.3688e-06
-8.84714e-05
1.50502e-06
-8.84557e-05
6.09039e-07
-8.81472e-05
-3.12911e-07
-8.7547e-05
-1.25625e-06
-8.66515e-05
-2.2124e-06
-8.5462e-05
-3.17471e-06
-8.39813e-05
-4.13587e-06
-8.22143e-05
-5.08821e-06
-8.01679e-05
-6.02386e-06
-7.7851e-05
-6.93478e-06
-7.52746e-05
-7.8129e-06
-7.24514e-05
-8.65012e-06
-6.93965e-05
-9.43847e-06
-6.61266e-05
-1.01701e-05
-6.26604e-05
-1.08377e-05
-5.90183e-05
-1.1434e-05
-5.52223e-05
-1.19525e-05
-5.1296e-05
-1.23873e-05
-4.72642e-05
-1.27332e-05
-4.31529e-05
-1.29861e-05
-3.8989e-05
-1.31425e-05
-3.48002e-05
-1.32004e-05
-3.06145e-05
-1.31586e-05
-2.64601e-05
-1.30175e-05
-2.23648e-05
-1.27786e-05
-1.83561e-05
-1.24446e-05
-1.44608e-05
-1.20198e-05
-1.07042e-05
-1.15096e-05
-7.11026e-06
-1.09208e-05
-3.70121e-06
-1.02609e-05
-4.97051e-07
-9.53897e-06
2.48459e-06
-8.7645e-06
5.22868e-06
-7.94781e-06
7.72301e-06
-7.09966e-06
9.95835e-06
-6.23105e-06
1.19285e-05
-5.35303e-06
1.36305e-05
-4.4764e-06
1.50642e-05
-3.61158e-06
1.62327e-05
-2.76833e-06
1.71418e-05
-1.95559e-06
1.78001e-05
-1.18133e-06
1.82183e-05
-4.52379e-07
1.84096e-05
2.25634e-07
1.83887e-05
8.48368e-07
1.81718e-05
1.41276e-06
1.77763e-05
1.91701e-06
1.72202e-05
2.3605e-06
1.65218e-05
2.7437e-06
1.56998e-05
3.06797e-06
1.47724e-05
3.33536e-06
1.37577e-05
3.54839e-06
1.26732e-05
3.7097e-06
1.15359e-05
3.82179e-06
1.03626e-05
3.8866e-06
9.16953e-06
3.90519e-06
7.97323e-06
3.87737e-06
6.79035e-06
3.80142e-06
5.63824e-06
3.67389e-06
4.53524e-06
3.4896e-06
3.50088e-06
3.24199e-06
2.55604e-06
2.9239e-06
1.72289e-06
2.52911e-06
1.02479e-06
2.05495e-06
4.86271e-07
1.50602e-06
1.33853e-07
8.99503e-07
2.77118e-07
8.97226e-08
-3.19769e-07
3.00671e-07
-8.27155e-07
5.90451e-07
-1.20232e-06
9.25584e-07
-1.4512e-06
1.27812e-06
-1.58436e-06
1.62433e-06
-1.61506e-06
1.94404e-06
-1.55775e-06
2.2202e-06
-1.42693e-06
2.43864e-06
-1.23636e-06
2.58774e-06
-9.9857e-07
2.65821e-06
-7.24598e-07
2.64273e-06
-4.23845e-07
2.53565e-06
-1.04054e-07
2.33266e-06
2.28652e-07
2.03047e-06
5.69693e-07
1.62652e-06
9.15907e-07
1.11871e-06
1.26541e-06
5.05144e-07
1.61741e-06
-2.16044e-07
1.97204e-06
-1.04685e-06
2.33016e-06
-1.98949e-06
2.69311e-06
-3.04648e-06
3.06256e-06
-4.22061e-06
3.44028e-06
-5.51491e-06
3.82798e-06
-6.93258e-06
4.22714e-06
-8.47687e-06
4.63885e-06
-1.01509e-05
5.06377e-06
-1.19577e-05
5.50198e-06
-1.38997e-05
5.953e-06
-1.59788e-05
6.41571e-06
-1.81961e-05
6.88836e-06
-2.05519e-05
7.36862e-06
-2.30453e-05
7.85356e-06
-2.56742e-05
8.33971e-06
-2.84351e-05
8.82311e-06
-3.13233e-05
9.29932e-06
-3.43322e-05
9.76354e-06
-3.7454e-05
1.02106e-05
-4.06789e-05
1.06352e-05
-4.39957e-05
1.10315e-05
-4.73917e-05
1.1394e-05
-5.08526e-05
1.17168e-05
-5.43625e-05
1.19942e-05
-5.79044e-05
1.22206e-05
-6.146e-05
1.23908e-05
-6.501e-05
1.24995e-05
-6.85344e-05
1.25423e-05
-7.20124e-05
1.25149e-05
-7.54229e-05
1.24136e-05
-7.87444e-05
1.22355e-05
-8.19555e-05
1.19783e-05
-8.50352e-05
1.16401e-05
-8.79627e-05
1.12201e-05
-9.07177e-05
1.07181e-05
-9.32811e-05
1.01346e-05
-9.56343e-05
9.47099e-06
-9.776e-05
8.72924e-06
-9.96423e-05
7.91215e-06
-0.000101266
7.02323e-06
-0.000102619
6.06665e-06
-0.000103688
5.04727e-06
-0.000104464
3.97055e-06
-0.000104938
2.84259e-06
-0.000105103
1.67004e-06
-0.000104954
4.60285e-07
-0.000104487
-7.79498e-07
-0.000103702
-2.04108e-06
-0.000102599
-3.31561e-06
-0.00010118
-4.59421e-06
-9.94479e-05
-5.86763e-06
-9.74098e-05
-7.12634e-06
-9.5073e-05
-8.36058e-06
-9.24474e-05
-9.56042e-06
-8.95444e-05
-1.07159e-05
-8.63775e-05
-1.1817e-05
-8.29621e-05
-1.28539e-05
-7.93152e-05
-1.3817e-05
-7.54559e-05
-1.4697e-05
-7.14048e-05
-1.5485e-05
-6.71843e-05
-1.6173e-05
-6.28182e-05
-1.67534e-05
-5.83318e-05
-1.72196e-05
-5.37517e-05
-1.75662e-05
-4.91053e-05
-1.77889e-05
-4.44213e-05
-1.78845e-05
-3.97285e-05
-1.78514e-05
-3.50564e-05
-1.76897e-05
-3.04343e-05
-1.74006e-05
-2.58914e-05
-1.69875e-05
-2.14563e-05
-1.64549e-05
-1.71565e-05
-1.58094e-05
-1.30184e-05
-1.50589e-05
-9.06669e-06
-1.42127e-05
-5.3241e-06
-1.32816e-05
-1.8112e-06
-1.22774e-05
1.45401e-06
-1.1213e-05
4.45629e-06
-1.01019e-05
7.18331e-06
-8.95808e-06
9.62591e-06
-7.79563e-06
1.17781e-05
-6.62859e-06
1.36371e-05
-5.47061e-06
1.52035e-05
-4.33468e-06
1.64808e-05
-3.23286e-06
1.74755e-05
-2.1761e-06
1.81972e-05
-1.17403e-06
1.86576e-05
-2.3479e-07
1.88709e-05
6.35043e-07
1.88532e-05
1.43051e-06
1.86219e-05
2.14826e-06
1.81959e-05
2.78649e-06
1.75948e-05
3.34483e-06
1.68386e-05
3.82415e-06
1.59477e-05
4.2263e-06
1.49423e-05
4.55381e-06
1.38425e-05
4.80952e-06
1.2668e-05
4.99621e-06
1.14385e-05
5.1161e-06
1.01733e-05
5.17045e-06
8.89159e-06
5.15906e-06
7.61302e-06
5.08e-06
6.35764e-06
4.92927e-06
5.14635e-06
4.70089e-06
4.00117e-06
4.38717e-06
2.94552e-06
3.97955e-06
2.00455e-06
3.47008e-06
1.20565e-06
2.85385e-06
5.79482e-07
2.13219e-06
1.62034e-07
1.31695e-06
4.39152e-07
9.05377e-08
-4.10307e-07
3.01587e-07
-1.03821e-06
5.87368e-07
-1.4881e-06
9.11534e-07
-1.77536e-06
1.24416e-06
-1.91699e-06
1.56029e-06
-1.93118e-06
1.83894e-06
-1.8364e-06
2.06254e-06
-1.65053e-06
2.21647e-06
-1.39029e-06
2.28867e-06
-1.07077e-06
2.26932e-06
-7.05248e-07
2.15052e-06
-3.05048e-07
1.92597e-06
1.20496e-07
1.59063e-06
5.63988e-07
1.14045e-06
1.01988e-06
5.72054e-07
1.4843e-06
-1.17494e-07
1.95496e-06
-9.30912e-07
2.43083e-06
-1.87088e-06
2.91201e-06
-2.94017e-06
3.39945e-06
-4.14172e-06
3.89466e-06
-5.47867e-06
4.39951e-06
-6.95435e-06
4.91596e-06
-8.57218e-06
5.44581e-06
-1.03356e-05
5.99055e-06
-1.22479e-05
6.55113e-06
-1.4312e-05
7.12789e-06
-1.65305e-05
7.72044e-06
-1.8905e-05
8.3276e-06
-2.14367e-05
8.94736e-06
-2.41253e-05
9.57693e-06
-2.69694e-05
1.02127e-05
-2.99662e-05
1.08504e-05
-3.31115e-05
1.1485e-05
-3.63993e-05
1.21109e-05
-3.98219e-05
1.27219e-05
-4.33699e-05
1.33115e-05
-4.7032e-05
1.38727e-05
-5.07952e-05
1.43984e-05
-5.46448e-05
1.48811e-05
-5.85644e-05
1.53136e-05
-6.25362e-05
1.56886e-05
-6.65409e-05
1.59989e-05
-7.05582e-05
1.6238e-05
-7.45668e-05
1.63993e-05
-7.85446e-05
1.64773e-05
-8.24689e-05
1.64666e-05
-8.6317e-05
1.63629e-05
-9.00659e-05
1.61626e-05
-9.3693e-05
1.58627e-05
-9.71762e-05
1.54614e-05
-0.000100494
1.49576e-05
-0.000103625
1.43512e-05
-0.00010655
1.36431e-05
-0.00010925
1.28348e-05
-0.000111708
1.1929e-05
-0.000113908
1.0929e-05
-0.000115835
9.83907e-06
-0.000117476
8.66422e-06
-0.000118819
7.41012e-06
-0.000119855
6.08321e-06
-0.000120575
4.69053e-06
-0.000120972
3.23976e-06
-0.000121041
1.73915e-06
-0.000120779
1.979e-07
-0.000120182
-1.37592e-06
-0.000119252
-2.9715e-06
-0.000117989
-4.57889e-06
-0.000116395
-6.18753e-06
-0.000114477
-7.7865e-06
-0.000112238
-9.36458e-06
-0.000109689
-1.09103e-05
-0.000106837
-1.24121e-05
-0.000103695
-1.38581e-05
-0.000100275
-1.52367e-05
-9.65928e-05
-1.65362e-05
-9.26645e-05
-1.77453e-05
-8.85087e-05
-1.88528e-05
-8.41454e-05
-1.98483e-05
-7.95965e-05
-2.07219e-05
-7.48854e-05
-2.14645e-05
-7.00371e-05
-2.20679e-05
-6.5078e-05
-2.25254e-05
-6.00356e-05
-2.28312e-05
-5.49387e-05
-2.29814e-05
-4.98168e-05
-2.29734e-05
-4.46999e-05
-2.28065e-05
-3.96185e-05
-2.24821e-05
-3.46029e-05
-2.2003e-05
-2.96833e-05
-2.13746e-05
-2.4889e-05
-2.06037e-05
-2.02484e-05
-1.96994e-05
-1.57886e-05
-1.86725e-05
-1.15349e-05
-1.75353e-05
-7.51047e-06
-1.63018e-05
-3.73628e-06
-1.49872e-05
-2.30555e-07
-1.36077e-05
2.99137e-06
-1.218e-05
5.91719e-06
-1.07214e-05
8.53785e-06
-9.24925e-06
1.08476e-05
-7.7804e-06
1.28442e-05
-6.3312e-06
1.45284e-05
-4.91707e-06
1.59045e-05
-3.55219e-06
1.69797e-05
-2.24925e-06
1.77642e-05
-1.01929e-06
1.82707e-05
1.28484e-07
1.85144e-05
1.18683e-06
1.85123e-05
2.15036e-06
1.82831e-05
3.01566e-06
1.78469e-05
3.78107e-06
1.72245e-05
4.4465e-06
1.64376e-05
5.0132e-06
1.55081e-05
5.48333e-06
1.4458e-05
5.85964e-06
1.33093e-05
6.1449e-06
1.2084e-05
6.34144e-06
1.08038e-05
6.45057e-06
9.49084e-06
6.47207e-06
8.16705e-06
6.40378e-06
6.85505e-06
6.24127e-06
5.57816e-06
5.97778e-06
4.36081e-06
5.60452e-06
3.22902e-06
5.11133e-06
2.21104e-06
4.48807e-06
1.33834e-06
3.72655e-06
6.47344e-07
2.82319e-06
1.82103e-07
1.78219e-06
6.21255e-07
8.72263e-08
-4.97533e-07
2.88017e-07
-1.239e-06
5.55026e-07
-1.75511e-06
8.50337e-07
-2.07067e-06
1.14289e-06
-2.20954e-06
1.40704e-06
-2.19532e-06
1.62143e-06
-2.05079e-06
1.7683e-06
-1.7974e-06
1.83285e-06
-1.45484e-06
1.80283e-06
-1.04074e-06
1.66812e-06
-5.70535e-07
1.4204e-06
-5.73309e-08
1.05284e-06
4.88056e-07
5.59766e-07
1.05706e-06
-6.35969e-08
1.64324e-06
-8.21403e-07
2.24211e-06
-1.71741e-06
2.85096e-06
-2.75515e-06
3.46857e-06
-3.93812e-06
4.09498e-06
-5.26985e-06
4.73117e-06
-6.75395e-06
5.37875e-06
-8.39411e-06
6.03968e-06
-1.01941e-05
6.71592e-06
-1.21575e-05
7.40921e-06
-1.42877e-05
8.12083e-06
-1.6588e-05
8.85134e-06
-1.90606e-05
9.60049e-06
-2.17072e-05
1.03671e-05
-2.45286e-05
1.1149e-05
-2.75243e-05
1.1943e-05
-3.06922e-05
1.27449e-05
-3.40289e-05
1.35495e-05
-3.75293e-05
1.43508e-05
-4.11862e-05
1.51419e-05
-4.49908e-05
1.59155e-05
-4.89322e-05
1.66633e-05
-5.29976e-05
1.73769e-05
-5.71723e-05
1.80474e-05
-6.14397e-05
1.86658e-05
-6.57817e-05
1.92231e-05
-7.01784e-05
1.97103e-05
-7.46088e-05
2.0119e-05
-7.90508e-05
2.04409e-05
-8.34811e-05
2.06683e-05
-8.78763e-05
2.07945e-05
-9.22123e-05
2.08132e-05
-9.64649e-05
2.07193e-05
-0.00010061
2.05085e-05
-0.000104625
2.01775e-05
-0.000108487
1.97243e-05
-0.000112173
1.91477e-05
-0.000115664
1.84478e-05
-0.000118938
1.76256e-05
-0.000121978
1.66832e-05
-0.000124767
1.56236e-05
-0.000127289
1.44509e-05
-0.00012953
1.31699e-05
-0.000131477
1.17864e-05
-0.00013312
1.03067e-05
-0.000134448
8.73815e-06
-0.000135453
7.08853e-06
-0.000136129
5.36636e-06
-0.00013647
3.5807e-06
-0.000136472
1.74119e-06
-0.000136132
-1.41476e-07
-0.00013545
-2.05822e-06
-0.000134425
-3.99641e-06
-0.000133059
-5.94499e-06
-0.000131355
-7.89198e-06
-0.000129316
-9.82503e-06
-0.000126949
-1.17315e-05
-0.000124261
-1.35983e-05
-0.000121261
-1.54125e-05
-0.000117958
-1.71605e-05
-0.000114366
-1.88291e-05
-0.000110497
-2.04049e-05
-0.000106368
-2.18747e-05
-0.000101995
-2.32259e-05
-9.73973e-05
-2.44459e-05
-9.25959e-05
-2.55233e-05
-8.76132e-05
-2.64471e-05
-8.24735e-05
-2.72076e-05
-7.72026e-05
-2.77963e-05
-7.18278e-05
-2.8206e-05
-6.63776e-05
-2.84315e-05
-6.08818e-05
-2.84692e-05
-5.5371e-05
-2.83174e-05
-4.98763e-05
-2.79767e-05
-4.44293e-05
-2.74501e-05
-3.90615e-05
-2.67424e-05
-3.38039e-05
-2.58613e-05
-2.8687e-05
-2.48164e-05
-2.37399e-05
-2.36195e-05
-1.89905e-05
-2.22846e-05
-1.44648e-05
-2.08276e-05
-1.01863e-05
-1.92657e-05
-6.17645e-06
-1.76176e-05
-2.45354e-06
-1.59029e-05
9.67013e-07
-1.4142e-05
4.07303e-06
-1.23553e-05
6.85571e-06
-1.05631e-05
9.30968e-06
-8.78517e-06
1.1433e-05
-7.04044e-06
1.32273e-05
-5.34646e-06
1.46974e-05
-3.71928e-06
1.58512e-05
-2.17309e-06
1.66997e-05
-7.20036e-07
1.72566e-05
6.29915e-07
1.75379e-05
1.86903e-06
1.75618e-05
2.99179e-06
1.73481e-05
3.99482e-06
1.69179e-05
4.87668e-06
1.62935e-05
5.63753e-06
1.5498e-05
6.27885e-06
1.45548e-05
6.80286e-06
1.34876e-05
7.21207e-06
1.23204e-05
7.50865e-06
1.10772e-05
7.69381e-06
9.78206e-06
7.7672e-06
8.45944e-06
7.72639e-06
7.13422e-06
7.56649e-06
5.83203e-06
7.27997e-06
4.57971e-06
6.85684e-06
3.40588e-06
6.28516e-06
2.34184e-06
5.5521e-06
1.4229e-06
4.64548e-06
6.90387e-07
3.5557e-06
1.94565e-07
2.27801e-06
8.1582e-07
8.0449e-08
-5.77981e-07
2.61814e-07
-1.42036e-06
4.96589e-07
-1.98988e-06
7.46454e-07
-2.32054e-06
9.8008e-07
-2.44317e-06
1.17173e-06
-2.38697e-06
1.30014e-06
-2.17921e-06
1.34768e-06
-1.84494e-06
1.29966e-06
-1.40682e-06
1.14383e-06
-8.84911e-07
8.69946e-07
-2.96652e-07
4.6942e-07
3.43195e-07
-6.50155e-08
1.02249e-06
-7.39584e-07
1.73163e-06
-1.55973e-06
2.46338e-06
-2.53035e-06
3.21273e-06
-3.65597e-06
3.97658e-06
-4.94093e-06
4.75353e-06
-6.38948e-06
5.54353e-06
-8.00582e-06
6.34751e-06
-9.79414e-06
7.16708e-06
-1.17586e-05
8.0041e-06
-1.3903e-05
8.86039e-06
-1.62312e-05
9.73739e-06
-1.87463e-05
1.06359e-05
-2.14506e-05
1.15557e-05
-2.4346e-05
1.24958e-05
-2.74326e-05
1.34538e-05
-3.07098e-05
1.44262e-05
-3.4175e-05
1.54082e-05
-3.7824e-05
1.63939e-05
-4.16508e-05
1.73763e-05
-4.56473e-05
1.83473e-05
-4.98034e-05
1.92981e-05
-5.41069e-05
2.0219e-05
-5.85435e-05
2.10999e-05
-6.30969e-05
2.19303e-05
-6.7749e-05
2.26994e-05
-7.24797e-05
2.33965e-05
-7.72676e-05
2.4011e-05
-8.20902e-05
2.45329e-05
-8.69235e-05
2.49523e-05
-9.17432e-05
2.52606e-05
-9.65243e-05
2.54495e-05
-0.000101242
2.5512e-05
-0.000105871
2.54423e-05
-0.000110387
2.52354e-05
-0.000114766
2.48879e-05
-0.000118986
2.43973e-05
-0.000123025
2.37627e-05
-0.000126861
2.29841e-05
-0.000130476
2.20629e-05
-0.000133852
2.10016e-05
-0.000136973
1.98037e-05
-0.000139823
1.84738e-05
-0.000142389
1.70172e-05
-0.00014466
1.54404e-05
-0.000146624
1.37505e-05
-0.000148272
1.19551e-05
-0.000149597
1.0063e-05
-0.000150591
8.08302e-06
-0.00015125
6.02501e-06
-0.000151569
3.89914e-06
-0.000151543
1.71619e-06
-0.000151173
-5.12465e-07
-0.000150455
-2.77573e-06
-0.000149391
-5.06076e-06
-0.000147981
-7.35507e-06
-0.000146227
-9.64556e-06
-0.000144133
-1.19187e-05
-0.000141704
-1.41606e-05
-0.000138946
-1.63569e-05
-0.000135865
-1.84931e-05
-0.000132471
-2.05543e-05
-0.000128775
-2.25257e-05
-0.000124787
-2.43922e-05
-0.000120523
-2.61389e-05
-0.000115998
-2.77513e-05
-0.000111228
-2.92152e-05
-0.000106235
-3.05169e-05
-0.000101038
-3.16438e-05
-9.56615e-05
-3.25842e-05
-9.01299e-05
-3.33278e-05
-8.44701e-05
-3.38658e-05
-7.87105e-05
-3.41912e-05
-7.28808e-05
-3.42989e-05
-6.70119e-05
-3.41863e-05
-6.11358e-05
-3.38528e-05
-5.5285e-05
-3.33008e-05
-4.94925e-05
-3.2535e-05
-4.3791e-05
-3.15628e-05
-3.82129e-05
-3.03944e-05
-3.27898e-05
-2.90426e-05
-2.75519e-05
-2.75225e-05
-2.2528e-05
-2.58515e-05
-1.77445e-05
-2.40491e-05
-1.32259e-05
-2.21362e-05
-8.99348e-06
-2.01353e-05
-5.06593e-06
-1.80695e-05
-1.45854e-06
-1.59627e-05
1.81677e-06
-1.38384e-05
4.75159e-06
-1.172e-05
7.34109e-06
-9.62994e-06
9.58403e-06
-7.58941e-06
1.14827e-05
-5.61794e-06
1.30428e-05
-3.73315e-06
1.42731e-05
-1.95041e-06
1.51858e-05
-2.82715e-07
1.57953e-05
1.25948e-06
1.61189e-05
2.66821e-06
1.61757e-05
3.93797e-06
1.59869e-05
5.06553e-06
1.55748e-05
6.04961e-06
1.49631e-05
6.89055e-06
1.41762e-05
7.58973e-06
1.32392e-05
8.14906e-06
1.21776e-05
8.57027e-06
1.10172e-05
8.85425e-06
9.78403e-06
9.00036e-06
8.50461e-06
9.0058e-06
7.20597e-06
8.86514e-06
5.91595e-06
8.56999e-06
4.66373e-06
8.10906e-06
3.48046e-06
7.46843e-06
2.40029e-06
6.63227e-06
1.46184e-06
5.58393e-06
7.10281e-07
4.30726e-06
2.00132e-07
2.78816e-06
1.01595e-06
7.06343e-08
-6.48616e-07
2.24314e-07
-1.57404e-06
4.14487e-07
-2.18006e-06
6.03465e-07
-2.50952e-06
7.60482e-07
-2.60018e-06
8.60363e-07
-2.48685e-06
8.82403e-07
-2.20125e-06
8.09447e-07
-1.77199e-06
6.27176e-07
-1.22455e-06
3.23546e-07
-5.81281e-07
-1.1166e-07
1.38555e-07
-6.87199e-07
9.18734e-07
-1.41067e-06
1.74597e-06
-2.2888e-06
2.60975e-06
-3.32762e-06
3.50221e-06
-4.53273e-06
4.41783e-06