/*--------------------------------*- C++ -*----------------------------------*\
| =========                 |                                                 |
| \\      /  F ield         | OpenFOAM: The Open Source CFD Toolbox           |
|  \\    /   O peration     | Version:  2112                                  |
|   \\  /    A nd           | Website:  www.openfoam.com                      |
|    \\/     M anipulation  |                                                 |
\*---------------------------------------------------------------------------*/
FoamFile
{
    version     2.0;
    format      ascii;
    arch        "LSB;label=32;scalar=64";
    class       volVectorField;
    location    "26";
    object      U;
}
// * * * * * * * * * * * * * * * * * * * * * * * * * * * * * * * * * * * * * //

dimensions      [0 1 -1 0 0 0 0];

internalField   nonuniform List<vector> 
16641
(
(-6.35421e-06 6.55826e-06 0)
(4.61333e-06 -6.43053e-06 0)
(5.66461e-05 -2.05465e-05 0)
(0.000138259 -3.01927e-05 0)
(0.000239334 -3.56753e-05 0)
(0.000350749 -3.79625e-05 0)
(0.000464997 -3.7923e-05 0)
(0.000576337 -3.62479e-05 0)
(0.000680535 -3.34569e-05 0)
(0.00077456 -2.99386e-05 0)
(0.000856336 -2.59854e-05 0)
(0.00092455 -2.18186e-05 0)
(0.000978481 -1.76018e-05 0)
(0.00101786 -1.3452e-05 0)
(0.00104273 -9.44769e-06 0)
(0.00105337 -5.63778e-06 0)
(0.00105018 -2.03559e-06 0)
(0.00103357 1.36499e-06 0)
(0.00100397 4.58823e-06 0)
(0.000961687 7.67371e-06 0)
(0.000906947 1.0671e-05 0)
(0.000839811 1.36357e-05 0)
(0.000760182 1.6626e-05 0)
(0.000667802 1.96992e-05 0)
(0.000562252 2.29094e-05 0)
(0.00044297 2.63059e-05 0)
(0.000309266 2.99302e-05 0)
(0.00016035 3.3816e-05 0)
(-4.64265e-06 3.7989e-05 0)
(-0.000186622 4.24664e-05 0)
(-0.000386517 4.72572e-05 0)
(-0.000605245 5.23625e-05 0)
(-0.000843688 5.77767e-05 0)
(-0.00110266 6.34871e-05 0)
(-0.0013829 6.94743e-05 0)
(-0.00168503 7.5713e-05 0)
(-0.00200953 8.21714e-05 0)
(-0.00235674 8.88114e-05 0)
(-0.00272681 9.55884e-05 0)
(-0.00311971 0.000102451 0)
(-0.00353517 0.000109342 0)
(-0.00397271 0.000116195 0)
(-0.00443157 0.000122938 0)
(-0.00491071 0.000129493 0)
(-0.00540884 0.000135776 0)
(-0.00592432 0.000141694 0)
(-0.00645524 0.000147151 0)
(-0.00699933 0.000152048 0)
(-0.00755404 0.000156281 0)
(-0.00811647 0.000159743 0)
(-0.00868342 0.000162328 0)
(-0.0092514 0.00016393 0)
(-0.00981662 0.000164447 0)
(-0.010375 0.000163779 0)
(-0.0109223 0.000161833 0)
(-0.011454 0.000158524 0)
(-0.0119655 0.000153778 0)
(-0.0124519 0.000147532 0)
(-0.0129083 0.000139736 0)
(-0.0133299 0.000130358 0)
(-0.0137119 0.000119382 0)
(-0.0140493 0.000106813 0)
(-0.0143375 9.26756e-05 0)
(-0.0145721 7.70198e-05 0)
(-0.014749 5.99325e-05 0)
(-0.0148644 4.15213e-05 0)
(-0.0149149 2.18737e-05 0)
(-0.0148974 1.23368e-06 0)
(-0.0148095 -2.03587e-05 0)
(-0.0146497 -4.26497e-05 0)
(-0.0144168 -6.53935e-05 0)
(-0.0141105 -8.83405e-05 0)
(-0.0137311 -0.000111223 0)
(-0.01328 -0.000133757 0)
(-0.0127592 -0.000155645 0)
(-0.0121716 -0.000176585 0)
(-0.0115211 -0.000196271 0)
(-0.0108124 -0.000214406 0)
(-0.0100507 -0.000230699 0)
(-0.00924244 -0.000244884 0)
(-0.00839447 -0.000256717 0)
(-0.00751433 -0.000265988 0)
(-0.00661008 -0.000272526 0)
(-0.00569018 -0.000276208 0)
(-0.00476335 -0.000276957 0)
(-0.00383847 -0.000274755 0)
(-0.00292436 -0.000269636 0)
(-0.00202972 -0.000261693 0)
(-0.00116288 -0.000251075 0)
(-0.000331693 -0.000237986 0)
(0.000456524 -0.000222701 0)
(0.00119524 -0.000205452 0)
(0.00187883 -0.000186606 0)
(0.00250253 -0.000166508 0)
(0.00306262 -0.000145521 0)
(0.00355643 -0.000124015 0)
(0.00398232 -0.000102354 0)
(0.00433974 -8.08879e-05 0)
(0.00462914 -5.99422e-05 0)
(0.0048519 -3.9811e-05 0)
(0.00501031 -2.07509e-05 0)
(0.00510739 -2.97591e-06 0)
(0.00514684 1.33446e-05 0)
(0.00513287 2.80872e-05 0)
(0.00507011 4.11757e-05 0)
(0.00496347 5.25769e-05 0)
(0.00481799 6.22985e-05 0)
(0.00463875 7.03851e-05 0)
(0.00443076 7.69137e-05 0)
(0.00419883 8.19879e-05 0)
(0.00394755 8.57323e-05 0)
(0.00368116 8.82865e-05 0)
(0.00340354 8.9798e-05 0)
(0.00311819 9.04152e-05 0)
(0.00282823 9.02794e-05 0)
(0.0025364 8.95149e-05 0)
(0.00224516 8.82179e-05 0)
(0.00195677 8.64437e-05 0)
(0.00167341 8.41899e-05 0)
(0.00139739 8.13772e-05 0)
(0.00113136 7.78259e-05 0)
(0.00087861 7.32278e-05 0)
(0.000643358 6.71164e-05 0)
(0.000431132 5.88416e-05 0)
(0.000249049 4.75943e-05 0)
(0.000105731 3.26022e-05 0)
(1.02788e-05 1.37549e-05 0)
(-2.97827e-05 -6.58284e-06 0)
(-1.76005e-05 -1.76451e-05 0)
(6.47288e-06 -4.22728e-06 0)
(6.78605e-05 -6.7713e-05 0)
(0.000212392 -0.00012956 0)
(0.000415761 -0.000174376 0)
(0.000658432 -0.000201603 0)
(0.000922878 -0.000213683 0)
(0.00119316 -0.000213576 0)
(0.00145602 -0.000204089 0)
(0.00170098 -0.000187634 0)
(0.00192009 -0.000166203 0)
(0.00210755 -0.000141409 0)
(0.00225934 -0.000114539 0)
(0.00237291 -8.65929e-05 0)
(0.00244685 -5.83188e-05 0)
(0.00248058 -3.02409e-05 0)
(0.00247413 -2.70338e-06 0)
(0.0024279 2.41369e-05 0)
(0.00234242 5.02529e-05 0)
(0.00221822 7.5733e-05 0)
(0.00205572 0.000100756 0)
(0.00185507 0.000125566 0)
(0.00161612 0.000150447 0)
(0.00133837 0.000175701 0)
(0.00102096 0.000201632 0)
(0.000662661 0.000228525 0)
(0.000261945 0.000256632 0)
(-0.000182995 0.000286165 0)
(-0.000674172 0.000317287 0)
(-0.00121373 0.000350107 0)
(-0.00180389 0.00038468 0)
(-0.00244685 0.000421006 0)
(-0.0031447 0.000459031 0)
(-0.00389938 0.000498651 0)
(-0.00471259 0.000539712 0)
(-0.00558573 0.000582014 0)
(-0.0065198 0.000625311 0)
(-0.00751539 0.000669316 0)
(-0.00857259 0.000713696 0)
(-0.00969092 0.000758078 0)
(-0.0108693 0.000802051 0)
(-0.012106 0.000845162 0)
(-0.0133987 0.000886924 0)
(-0.014744 0.000926814 0)
(-0.0161382 0.000964281 0)
(-0.0175765 0.000998749 0)
(-0.0190533 0.00102962 0)
(-0.0205623 0.00105628 0)
(-0.0220963 0.00107813 0)
(-0.0236475 0.00109454 0)
(-0.025207 0.00110491 0)
(-0.0267655 0.00110867 0)
(-0.0283128 0.00110526 0)
(-0.0298384 0.00109417 0)
(-0.0313309 0.00107494 0)
(-0.0327788 0.00104716 0)
(-0.0341702 0.00101049 0)
(-0.0354927 0.000964687 0)
(-0.0367343 0.000909573 0)
(-0.0378825 0.000845075 0)
(-0.0389255 0.00077122 0)
(-0.0398513 0.000688146 0)
(-0.0406486 0.000596106 0)
(-0.0413068 0.000495473 0)
(-0.0418158 0.000386754 0)
(-0.0421664 0.000270617 0)
(-0.0423508 0.000147797 0)
(-0.042362 1.88482e-05 0)
(-0.0421942 -0.000114625 0)
(-0.0418431 -0.00025182 0)
(-0.0413063 -0.000391504 0)
(-0.0405828 -0.000532314 0)
(-0.0396733 -0.000672815 0)
(-0.0385805 -0.000811504 0)
(-0.0373087 -0.00094682 0)
(-0.0358645 -0.00107717 0)
(-0.034256 -0.00120094 0)
(-0.0324934 -0.00131655 0)
(-0.0305888 -0.00142245 0)
(-0.0285559 -0.00151717 0)
(-0.0264101 -0.00159935 0)
(-0.0241683 -0.00166777 0)
(-0.0218487 -0.00172138 0)
(-0.0194706 -0.00175932 0)
(-0.0170542 -0.00178097 0)
(-0.0146203 -0.00178595 0)
(-0.0121899 -0.00177416 0)
(-0.00978388 -0.00174577 0)
(-0.00742308 -0.00170121 0)
(-0.00512749 -0.00164123 0)
(-0.00291615 -0.00156684 0)
(-0.000806833 -0.00147931 0)
(0.00118421 -0.00138006 0)
(0.00304262 -0.00127078 0)
(0.00475604 -0.00115329 0)
(0.00631434 -0.00102951 0)
(0.00770971 -0.000901435 0)
(0.00893675 -0.000771042 0)
(0.00999251 -0.000640287 0)
(0.0108764 -0.000511034 0)
(0.0115902 -0.000385024 0)
(0.0121378 -0.00026383 0)
(0.012525 -0.000148828 0)
(0.0127594 -4.11798e-05 0)
(0.0128503 5.81898e-05 0)
(0.0128078 0.000148596 0)
(0.0126433 0.000229595 0)
(0.0123686 0.000300973 0)
(0.0119961 0.000362737 0)
(0.011538 0.000415088 0)
(0.0110066 0.000458401 0)
(0.0104135 0.000493191 0)
(0.00977011 0.000520082 0)
(0.00908688 0.000539762 0)
(0.00837362 0.000552945 0)
(0.00763931 0.000560317 0)
(0.0068922 0.000562481 0)
(0.00613995 0.000559894 0)
(0.00538979 0.000552796 0)
(0.00464888 0.000541128 0)
(0.00392464 0.000524456 0)
(0.00322523 0.000501886 0)
(0.00256009 0.000471997 0)
(0.0019404 0.000432816 0)
(0.0013795 0.000381903 0)
(0.000893001 0.000316708 0)
(0.000497868 0.000235599 0)
(0.000209904 0.000140102 0)
(4.09283e-05 4.00646e-05 0)
(-6.32576e-06 -2.9846e-05 0)
(2.05671e-05 -5.63228e-05 0)
(0.000129886 -0.000212293 0)
(0.000351866 -0.000351159 0)
(0.00064749 -0.00045302 0)
(0.000990265 -0.000515947 0)
(0.00135807 -0.000543604 0)
(0.00173016 -0.00054152 0)
(0.00208859 -0.000515541 0)
(0.00241874 -0.000471091 0)
(0.00270906 -0.000412905 0)
(0.00295082 -0.000344977 0)
(0.00313766 -0.000270587 0)
(0.00326523 -0.000192342 0)
(0.00333077 -0.00011224 0)
(0.00333273 -3.17188e-05 0)
(0.00327046 4.82987e-05 0)
(0.00314383 0.000127276 0)
(0.002953 0.00020507 0)
(0.00269817 0.00028184 0)
(0.00237937 0.000357982 0)
(0.00199636 0.000434063 0)
(0.00154852 0.000510763 0)
(0.00103474 0.000588812 0)
(0.000453474 0.000668943 0)
(-0.000197279 0.000751839 0)
(-0.000919918 0.000838103 0)
(-0.00171716 0.000928222 0)
(-0.00259196 0.00102255 0)
(-0.00354736 0.0011213 0)
(-0.00458644 0.00122452 0)
(-0.00571214 0.00133212 0)
(-0.00692715 0.00144385 0)
(-0.00823382 0.00155929 0)
(-0.00963402 0.00167793 0)
(-0.011129 0.00179908 0)
(-0.0127195 0.00192194 0)
(-0.0144052 0.00204558 0)
(-0.0161851 0.00216897 0)
(-0.0180573 0.00229095 0)
(-0.0200187 0.00241027 0)
(-0.0220652 0.00252557 0)
(-0.0241917 0.00263542 0)
(-0.0263916 0.00273832 0)
(-0.0286574 0.00283268 0)
(-0.0309803 0.0029169 0)
(-0.0333503 0.00298936 0)
(-0.0357561 0.00304841 0)
(-0.0381855 0.00309245 0)
(-0.0406249 0.0031199 0)
(-0.0430601 0.00312927 0)
(-0.0454756 0.00311915 0)
(-0.0478555 0.00308826 0)
(-0.0501829 0.00303544 0)
(-0.0524406 0.00295973 0)
(-0.054611 0.00286033 0)
(-0.0566763 0.00273667 0)
(-0.0586188 0.0025884 0)
(-0.0604207 0.00241543 0)
(-0.0620648 0.0022179 0)
(-0.0635344 0.00199625 0)
(-0.0648135 0.00175119 0)
(-0.0658869 0.00148375 0)
(-0.0667408 0.00119522 0)
(-0.0673624 0.000887235 0)
(-0.0677405 0.000561754 0)
(-0.067866 0.000220999 0)
(-0.0677306 -0.000133301 0)
(-0.0673279 -0.000497377 0)
(-0.0666547 -0.000868504 0)
(-0.0657094 -0.00124357 0)
(-0.0644924 -0.00161914 0)
(-0.0630068 -0.0019916 0)
(-0.0612579 -0.0023572 0)
(-0.0592536 -0.00271209 0)
(-0.0570042 -0.0030524 0)
(-0.0545225 -0.00337425 0)
(-0.0518235 -0.00367384 0)
(-0.0489248 -0.00394749 0)
(-0.045846 -0.00419173 0)
(-0.0426088 -0.00440335 0)
(-0.0392368 -0.00457949 0)
(-0.0357551 -0.00471767 0)
(-0.0321905 -0.00481589 0)
(-0.0285705 -0.00487268 0)
(-0.0249236 -0.00488714 0)
(-0.0212786 -0.00485897 0)
(-0.0176644 -0.00478853 0)
(-0.0141096 -0.00467685 0)
(-0.0106419 -0.00452558 0)
(-0.007288 -0.00433704 0)
(-0.00407304 -0.00411415 0)
(-0.00102023 -0.00386037 0)
(0.00184945 -0.0035796 0)
(0.00451755 -0.0032762 0)
(0.00696847 -0.00295483 0)
(0.0091896 -0.00262031 0)
(0.0111715 -0.00227756 0)
(0.0129079 -0.00193149 0)
(0.0143958 -0.00158683 0)
(0.0156356 -0.00124812 0)
(0.0166305 -0.000919515 0)
(0.0173867 -0.000604768 0)
(0.017913 -0.000307132 0)
(0.0182205 -2.93202e-05 0)
(0.0183224 0.000226533 0)
(0.0182335 0.000458881 0)
(0.0179698 0.000666765 0)
(0.0175481 0.000849786 0)
(0.0169858 0.00100807 0)
(0.0163005 0.0011422 0)
(0.0155093 0.00125317 0)
(0.014629 0.00134227 0)
(0.0136758 0.00141101 0)
(0.0126649 0.00146098 0)
(0.0116106 0.00149376 0)
(0.0105264 0.00151072 0)
(0.00942508 0.00151291 0)
(0.00831886 0.00150086 0)
(0.00721986 0.00147442 0)
(0.0061405 0.00143255 0)
(0.00509409 0.00137323 0)
(0.00409528 0.00129336 0)
(0.00316067 0.00118887 0)
(0.00230899 0.00105511 0)
(0.00156107 0.00088785 0)
(0.000938421 0.000685555 0)
(0.000460233 0.000453285 0)
(0.000144601 0.00021023 0)
(1.49072e-05 1.14414e-05 0)
(3.03935e-05 -0.000138232 0)
(0.000175596 -0.000416397 0)
(0.000455733 -0.000647201 0)
(0.000816866 -0.000813471 0)
(0.00122592 -0.000914449 0)
(0.00165734 -0.000955881 0)
(0.00208729 -0.000946212 0)
(0.00249492 -0.0008946 0)
(0.00286293 -0.000809817 0)
(0.00317735 -0.000699749 0)
(0.00342729 -0.000571207 0)
(0.00360454 -0.000429883 0)
(0.00370317 -0.000280375 0)
(0.0037191 -0.000126252 0)
(0.00364971 2.98736e-05 0)
(0.00349338 0.000186267 0)
(0.00324918 0.000341915 0)
(0.00291655 0.000496477 0)
(0.00249504 0.000650154 0)
(0.00198403 0.000803568 0)
(0.0013826 0.000957653 0)
(0.000689437 0.00111354 0)
(-9.72806e-05 0.00127245 0)
(-0.000979849 0.00143561 0)
(-0.00196103 0.00160414 0)
(-0.00304398 0.00177902 0)
(-0.00423214 0.00196101 0)
(-0.00552911 0.00215062 0)
(-0.0069385 0.00234806 0)
(-0.00846379 0.00255329 0)
(-0.0101082 0.00276594 0)
(-0.0118743 0.00298535 0)
(-0.0137644 0.00321059 0)
(-0.0157797 0.00344046 0)
(-0.0179207 0.00367348 0)
(-0.0201868 0.00390796 0)
(-0.0225763 0.00414194 0)
(-0.0250861 0.00437329 0)
(-0.0277118 0.00459965 0)
(-0.0304478 0.0048185 0)
(-0.0332866 0.00502717 0)
(-0.0362196 0.00522284 0)
(-0.0392363 0.00540261 0)
(-0.0423249 0.00556351 0)
(-0.045472 0.00570254 0)
(-0.0486627 0.00581672 0)
(-0.0518807 0.00590311 0)
(-0.0551087 0.00595887 0)
(-0.0583278 0.00598133 0)
(-0.0615184 0.00596798 0)
(-0.06466 0.00591655 0)
(-0.0677314 0.00582505 0)
(-0.0707108 0.0056918 0)
(-0.0735764 0.00551546 0)
(-0.076306 0.00529511 0)
(-0.078878 0.00503019 0)
(-0.0812708 0.00472062 0)
(-0.0834636 0.00436675 0)
(-0.0854362 0.0039694 0)
(-0.0871698 0.00352989 0)
(-0.0886463 0.00305 0)
(-0.0898495 0.00253201 0)
(-0.0907645 0.00197869 0)
(-0.0913781 0.00139325 0)
(-0.0916792 0.000779261 0)
(-0.0916596 0.000140872 0)
(-0.0913115 -0.000515956 0)
(-0.0906293 -0.00118772 0)
(-0.0896122 -0.00186885 0)
(-0.0882603 -0.00255356 0)
(-0.0865763 -0.00323583 0)
(-0.0845656 -0.00390946 0)
(-0.0822363 -0.00456804 0)
(-0.0795994 -0.0052051 0)
(-0.076668 -0.00581411 0)
(-0.0734584 -0.00638862 0)
(-0.069989 -0.0069223 0)
(-0.0662809 -0.0074091 0)
(-0.0623575 -0.00784327 0)
(-0.0582442 -0.00821952 0)
(-0.0539688 -0.00853314 0)
(-0.0495604 -0.00878003 0)
(-0.0450498 -0.00895686 0)
(-0.0404692 -0.00906116 0)
(-0.0358514 -0.00909136 0)
(-0.03123 -0.0090469 0)
(-0.0266385 -0.00892827 0)
(-0.0221103 -0.00873699 0)
(-0.0176783 -0.00847571 0)
(-0.0133741 -0.00814809 0)
(-0.00922776 -0.00775885 0)
(-0.00526769 -0.00731359 0)
(-0.00151979 -0.00681881 0)
(0.0019926 -0.00628167 0)
(0.00524917 -0.00570994 0)
(0.00823288 -0.0051118 0)
(0.0109302 -0.00449565 0)
(0.0133311 -0.00386996 0)
(0.0154293 -0.00324305 0)
(0.0172225 -0.00262294 0)
(0.0187117 -0.00201716 0)
(0.0199017 -0.00143262 0)
(0.0208003 -0.000875436 0)
(0.0214187 -0.000350887 0)
(0.0217705 0.000136713 0)
(0.0218717 0.000584039 0)
(0.0217402 0.000988776 0)
(0.0213954 0.00134959 0)
(0.0208577 0.00166609 0)
(0.020148 0.00193874 0)
(0.0192874 0.00216873 0)
(0.0182971 0.00235788 0)
(0.0171975 0.00250841 0)
(0.0160083 0.0026228 0)
(0.0147488 0.0027035 0)
(0.013437 0.00275273 0)
(0.0120904 0.0027722 0)
(0.0107261 0.00276275 0)
(0.00936085 0.00272416 0)
(0.00801166 0.00265483 0)
(0.00669639 0.00255162 0)
(0.00543415 0.00240979 0)
(0.00424574 0.00222332 0)
(0.00315389 0.00198556 0)
(0.00218321 0.00169093 0)
(0.00135884 0.00133794 0)
(0.000703781 0.0009341 0)
(0.000245902 0.000504202 0)
(3.52835e-05 0.000111086 0)
(3.62677e-05 -0.000240293 0)
(0.000204433 -0.000661139 0)
(0.00052187 -0.000991849 0)
(0.000922415 -0.00122328 0)
(0.0013671 -0.00135876 0)
(0.00182737 -0.00140753 0)
(0.00227715 -0.00138154 0)
(0.00269368 -0.00129347 0)
(0.00305795 -0.0011556 0)
(0.00335441 -0.00097908 0)
(0.00357069 -0.000773685 0)
(0.00369716 -0.000547681 0)
(0.0037266 -0.000307815 0)
(0.00365373 -5.9373e-05 0)
(0.00347482 0.000193729 0)
(0.00318721 0.00044881 0)
(0.00278903 0.00070433 0)
(0.00227879 0.000959697 0)
(0.00165514 0.00121512 0)
(0.000916612 0.00147142 0)
(6.14459e-05 0.0017299 0)
(-0.000912509 0.00199215 0)
(-0.00200786 0.00225986 0)
(-0.00322767 0.00253472 0)
(-0.0045754 0.00281829 0)
(-0.00605482 0.00311183 0)
(-0.00766988 0.00341628 0)
(-0.00942454 0.00373219 0)
(-0.0113226 0.00405963 0)
(-0.0133674 0.00439822 0)
(-0.015562 0.00474712 0)
(-0.0179084 0.00510498 0)
(-0.0204079 0.00547004 0)
(-0.0230605 0.00584009 0)
(-0.0258651 0.00621252 0)
(-0.0288191 0.00658432 0)
(-0.0319184 0.00695217 0)
(-0.0351572 0.00731239 0)
(-0.0385279 0.00766106 0)
(-0.0420212 0.00799399 0)
(-0.0456261 0.00830682 0)
(-0.0493294 0.00859504 0)
(-0.0531165 0.00885404 0)
(-0.0569708 0.0090792 0)
(-0.060874 0.00926593 0)
(-0.0648066 0.00940976 0)
(-0.0687472 0.00950637 0)
(-0.0726737 0.00955172 0)
(-0.0765626 0.00954206 0)
(-0.0803898 0.00947402 0)
(-0.0841304 0.00934467 0)
(-0.0877595 0.0091516 0)
(-0.0912518 0.00889291 0)
(-0.0945822 0.00856728 0)
(-0.0977262 0.00817405 0)
(-0.10066 0.00771317 0)
(-0.103359 0.00718527 0)
(-0.105803 0.00659164 0)
(-0.107971 0.00593427 0)
(-0.109843 0.00521582 0)
(-0.111401 0.00443964 0)
(-0.112629 0.00360972 0)
(-0.113515 0.00273071 0)
(-0.114045 0.00180785 0)
(-0.11421 0.000846872 0)
(-0.114002 -0.000145784 0)
(-0.113416 -0.00116181 0)
(-0.112451 -0.00219527 0)
(-0.111106 -0.00323802 0)
(-0.109382 -0.00428164 0)
(-0.107285 -0.00531749 0)
(-0.104823 -0.00633668 0)
(-0.102006 -0.00733013 0)
(-0.0988455 -0.00828868 0)
(-0.0953583 -0.00920316 0)
(-0.0915619 -0.0100645 0)
(-0.0874768 -0.0108639 0)
(-0.0831259 -0.0115929 0)
(-0.0785344 -0.0122435 0)
(-0.0737297 -0.0128082 0)
(-0.0687412 -0.0132804 0)
(-0.0636003 -0.0136544 0)
(-0.0583398 -0.0139254 0)
(-0.0529938 -0.0140898 0)
(-0.0475978 -0.0141452 0)
(-0.0421875 -0.0140907 0)
(-0.0367993 -0.0139267 0)
(-0.0314696 -0.0136551 0)
(-0.0262341 -0.0132793 0)
(-0.0211278 -0.0128043 0)
(-0.0161845 -0.0122363 0)
(-0.0114361 -0.011583 0)
(-0.00691252 -0.0108534 0)
(-0.00264094 -0.0100574 0)
(0.00135418 -0.00920606 0)
(0.00505172 -0.00831087 0)
(0.00843407 -0.00738392 0)
(0.0114873 -0.00643748 0)
(0.0142016 -0.00548378 0)
(0.0165708 -0.00453471 0)
(0.018593 -0.00360165 0)
(0.0202702 -0.00269518 0)
(0.0216082 -0.00182489 0)
(0.0226162 -0.000999224 0)
(0.0233069 -0.000225319 0)
(0.0236957 0.000491072 0)
(0.0238007 0.00114564 0)
(0.0236421 0.00173551 0)
(0.0232415 0.0022592 0)
(0.0226219 0.00271654 0)
(0.0218068 0.00310849 0)
(0.0208203 0.003437 0)
(0.0196861 0.00370471 0)
(0.0184277 0.00391473 0)
(0.0170681 0.00407027 0)
(0.0156296 0.00417425 0)
(0.0141339 0.00422898 0)
(0.0126023 0.00423565 0)
(0.0110558 0.00419403 0)
(0.00951575 0.00410206 0)
(0.00800392 0.00395566 0)
(0.00654325 0.00374873 0)
(0.00515809 0.00347356 0)
(0.00387454 0.00312178 0)
(0.0027206 0.00268633 0)
(0.00172517 0.00216488 0)
(0.00091615 0.00156484 0)
(0.000332749 0.000910897 0)
(5.19391e-05 0.000262247 0)
(3.91289e-05 -0.000353783 0)
(0.000218568 -0.000929374 0)
(0.00055308 -0.00136305 0)
(0.000968082 -0.00165652 0)
(0.00141992 -0.00181951 0)
(0.00187748 -0.00186615 0)
(0.00231294 -0.0018126 0)
(0.00270228 -0.00167546 0)
(0.00302541 -0.0014706 0)
(0.00326582 -0.00121251 0)
(0.00341011 -0.000913941 0)
(0.00344766 -0.000585767 0)
(0.00337022 -0.00023691 0)
(0.00317146 0.000125586 0)
(0.00284658 0.000496465 0)
(0.00239189 0.000872107 0)
(0.00180447 0.00125037 0)
(0.00108181 0.00163039 0)
(0.000221531 0.00201235 0)
(-0.000778805 0.00239728 0)
(-0.0019219 0.00278678 0)
(-0.0032108 0.00318285 0)
(-0.00464892 0.00358762 0)
(-0.00624004 0.00400316 0)
(-0.00798821 0.00443131 0)
(-0.00989764 0.00487354 0)
(-0.0119725 0.00533078 0)
(-0.0142168 0.00580339 0)
(-0.016634 0.00629107 0)
(-0.0192271 0.00679286 0)
(-0.0219981 0.0073071 0)
(-0.0249479 0.00783145 0)
(-0.0280761 0.00836294 0)
(-0.0313809 0.00889799 0)
(-0.0348587 0.00943244 0)
(-0.0385043 0.00996161 0)
(-0.0423103 0.0104804 0)
(-0.0462675 0.0109832 0)
(-0.0503645 0.0114642 0)
(-0.0545879 0.0119172 0)
(-0.0589221 0.0123359 0)
(-0.0633497 0.0127138 0)
(-0.0678512 0.0130445 0)
(-0.0724054 0.0133215 0)
(-0.0769894 0.0135388 0)
(-0.081579 0.0136904 0)
(-0.0861487 0.0137707 0)
(-0.090672 0.0137747 0)
(-0.095122 0.0136978 0)
(-0.099471 0.0135362 0)
(-0.103691 0.0132867 0)
(-0.107756 0.0129468 0)
(-0.111637 0.0125149 0)
(-0.115308 0.0119903 0)
(-0.118745 0.011373 0)
(-0.121922 0.0106639 0)
(-0.124816 0.00986504 0)
(-0.127406 0.00897898 0)
(-0.129672 0.00800932 0)
(-0.131596 0.00696049 0)
(-0.133161 0.00583771 0)
(-0.134354 0.00464699 0)
(-0.135162 0.00339513 0)
(-0.135576 0.00208962 0)
(-0.135587 0.000738717 0)
(-0.135191 -0.000648823 0)
(-0.134384 -0.00206431 0)
(-0.133165 -0.003497 0)
(-0.131537 -0.00493664 0)
(-0.129503 -0.00637249 0)
(-0.127069 -0.0077934 0)
(-0.124244 -0.00918794 0)
(-0.12104 -0.0105445 0)
(-0.11747 -0.0118513 0)
(-0.11355 -0.0130968 0)
(-0.109299 -0.0142693 0)
(-0.104738 -0.0153577 0)
(-0.0998908 -0.0163511 0)
(-0.0947818 -0.0172392 0)
(-0.0894394 -0.0180126 0)
(-0.0838934 -0.0186626 0)
(-0.0781754 -0.0191817 0)
(-0.0723191 -0.0195637 0)
(-0.0663593 -0.0198037 0)
(-0.0603323 -0.0198983 0)
(-0.0542751 -0.019846 0)
(-0.0482256 -0.0196468 0)
(-0.0422217 -0.0193029 0)
(-0.0363013 -0.0188181 0)
(-0.0305017 -0.0181983 0)
(-0.0248592 -0.0174511 0)
(-0.0194087 -0.0165861 0)
(-0.0141831 -0.0156144 0)
(-0.00921335 -0.0145488 0)
(-0.00452732 -0.013403 0)
(-0.000149995 -0.012192 0)
(0.00389709 -0.0109315 0)
(0.00759611 -0.0096377 0)
(0.0109331 -0.00832675 0)
(0.0138984 -0.00701467 0)
(0.0164862 -0.00571693 0)
(0.0186952 -0.00444816 0)
(0.0205279 -0.00322184 0)
(0.021991 -0.00205008 0)
(0.0230948 -0.000943367 0)
(0.0238533 8.95161e-05 0)
(0.0242831 0.00104165 0)
(0.024404 0.00190802 0)
(0.0242376 0.00268544 0)
(0.0238076 0.0033725 0)
(0.0231387 0.00396939 0)
(0.0222568 0.0044777 0)
(0.0211879 0.00490006 0)
(0.0199582 0.00523984 0)
(0.0185939 0.00550067 0)
(0.0171207 0.00568602 0)
(0.0155638 0.00579864 0)
(0.0139484 0.00584004 0)
(0.0122994 0.00580999 0)
(0.0106416 0.00570611 0)
(0.00900052 0.00552357 0)
(0.00740255 0.00525515 0)
(0.00587524 0.00489164 0)
(0.00444784 0.00442295 0)
(0.0031518 0.00384012 0)
(0.00202018 0.0031386 0)
(0.00108648 0.00232282 0)
(0.000401072 0.00141243 0)
(6.44229e-05 0.000455205 0)
(3.97543e-05 -0.000471374 0)
(0.000220422 -0.00120498 0)
(0.000553445 -0.00173917 0)
(0.000959594 -0.0020877 0)
(0.00139203 -0.00226815 0)
(0.00181765 -0.00230065 0)
(0.00220743 -0.0022063 0)
(0.00253655 -0.00200591 0)
(0.00278433 -0.00171911 0)
(0.00293369 -0.00136373 0)
(0.00297062 -0.000955472 0)
(0.00288381 -0.000507726 0)
(0.00266419 -3.15387e-05 0)
(0.00230454 0.000464344 0)
(0.0017991 0.000973362 0)
(0.00114315 0.00149098 0)
(0.000332713 0.00201447 0)
(-0.000635807 0.00254268 0)
(-0.00176584 0.00307577 0)
(-0.00306087 0.00361488 0)
(-0.00452456 0.00416192 0)
(-0.00616084 0.00471919 0)
(-0.00797388 0.00528913 0)
(-0.00996808 0.00587405 0)
(-0.0121479 0.00647593 0)
(-0.0145177 0.00709618 0)
(-0.0170816 0.00773551 0)
(-0.0198432 0.0083938 0)
(-0.0228052 0.00907008 0)
(-0.0259697 0.00976244 0)
(-0.029337 0.0104681 0)
(-0.0329062 0.0111832 0)
(-0.0366748 0.0119033 0)
(-0.0406382 0.012623 0)
(-0.0447898 0.0133362 0)
(-0.0491208 0.0140362 0)
(-0.0536202 0.0147157 0)
(-0.0582747 0.0153669 0)
(-0.0630685 0.0159817 0)
(-0.0679839 0.0165519 0)
(-0.0730006 0.0170689 0)
(-0.0780967 0.0175244 0)
(-0.083248 0.0179099 0)
(-0.088429 0.0182175 0)
(-0.0936128 0.0184396 0)
(-0.0987713 0.0185691 0)
(-0.103876 0.0185994 0)
(-0.108896 0.018525 0)
(-0.113804 0.0183409 0)
(-0.118568 0.0180434 0)
(-0.123162 0.0176293 0)
(-0.127555 0.017097 0)
(-0.131721 0.0164455 0)
(-0.135633 0.0156751 0)
(-0.139267 0.0147872 0)
(-0.142599 0.0137842 0)
(-0.145608 0.0126696 0)
(-0.148274 0.0114478 0)
(-0.15058 0.0101242 0)
(-0.152508 0.00870537 0)
(-0.154045 0.00719841 0)
(-0.15518 0.0056115 0)
(-0.155902 0.00395353 0)
(-0.156204 0.00223418 0)
(-0.15608 0.000463857 0)
(-0.155527 -0.00134642 0)
(-0.154542 -0.00318544 0)
(-0.153126 -0.00504064 0)
(-0.151282 -0.00689938 0)
(-0.149015 -0.00874861 0)
(-0.146331 -0.0105749 0)
(-0.14324 -0.0123644 0)
(-0.139752 -0.0141032 0)
(-0.135882 -0.0157773 0)
(-0.131645 -0.0173727 0)
(-0.12706 -0.0188754 0)
(-0.122145 -0.0202719 0)
(-0.116925 -0.0215491 0)
(-0.111424 -0.0226944 0)
(-0.105668 -0.0236963 0)
(-0.0996879 -0.0245442 0)
(-0.0935141 -0.0252286 0)
(-0.08718 -0.0257415 0)
(-0.0807203 -0.0260767 0)
(-0.0741714 -0.0262296 0)
(-0.067571 -0.0261976 0)
(-0.0609575 -0.0259804 0)
(-0.0543701 -0.0255797 0)
(-0.0478481 -0.0249996 0)
(-0.0414305 -0.0242467 0)
(-0.0351559 -0.0233295 0)
(-0.0290616 -0.0222592 0)
(-0.0231836 -0.0210488 0)
(-0.0175555 -0.0197133 0)
(-0.012209 -0.0182694 0)
(-0.00717253 -0.0167353 0)
(-0.00247142 -0.01513 0)
(0.00187253 -0.0134735 0)
(0.00584144 -0.0117861 0)
(0.00942152 -0.0100878 0)
(0.0126032 -0.00839853 0)
(0.0153812 -0.00673702 0)
(0.0177547 -0.00512099 0)
(0.019727 -0.00356657 0)
(0.0213055 -0.00208808 0)
(0.0225015 -0.00069778 0)
(0.0233299 0.000594251 0)
(0.0238087 0.00178024 0)
(0.0239589 0.00285472 0)
(0.0238035 0.00381446 0)
(0.0233678 0.00465829 0)
(0.0226782 0.00538684 0)
(0.0217622 0.00600224 0)
(0.020648 0.00650765 0)
(0.019364 0.00690678 0)
(0.0179387 0.00720329 0)
(0.0164003 0.0074002 0)
(0.0147772 0.00749918 0)
(0.0130975 0.00750003 0)
(0.0113895 0.00740008 0)
(0.00968194 0.00719391 0)
(0.00800434 0.0068733 0)
(0.00638734 0.00642761 0)
(0.00486336 0.00584486 0)
(0.00346742 0.00511353 0)
(0.00223695 0.00422548 0)
(0.00121114 0.00317967 0)
(0.000450213 0.00198702 0)
(7.3011e-05 0.000679312 0)
(3.87007e-05 -0.000587161 0)
(0.000212056 -0.00147365 0)
(0.0005269 -0.00210019 0)
(0.00090269 -0.00249277 0)
(0.00129095 -0.00267767 0)
(0.00165737 -0.00268175 0)
(0.00197227 -0.00253156 0)
(0.0022105 -0.00225242 0)
(0.0023512 -0.00186779 0)
(0.00237706 -0.00139883 0)
(0.00227378 -0.000864072 0)
(0.00202956 -0.000279318 0)
(0.00163474 0.000342395 0)
(0.00108133 0.000990732 0)
(0.000362698 0.00165793 0)
(-0.000526855 0.00233858 0)
(-0.00159236 0.00302944 0)
(-0.00283846 0.00372906 0)
(-0.00426967 0.00443754 0)
(-0.00589047 0.00515613 0)
(-0.00770548 0.0058869 0)
(-0.0097194 0.00663234 0)
(-0.0119371 0.00739505 0)
(-0.0143633 0.00817738 0)
(-0.0170026 0.00898118 0)
(-0.0198594 0.00980753 0)
(-0.0229372 0.0106566 0)
(-0.0262387 0.0115274 0)
(-0.0297656 0.012418 0)
(-0.033518 0.013325 0)
(-0.0374944 0.0142442 0)
(-0.0416914 0.0151699 0)
(-0.0461033 0.0160955 0)
(-0.0507224 0.0170136 0)
(-0.0555383 0.0179157 0)
(-0.0605383 0.0187928 0)
(-0.0657072 0.019635 0)
(-0.0710272 0.0204323 0)
(-0.076478 0.0211741 0)
(-0.0820373 0.02185 0)
(-0.0876804 0.0224493 0)
(-0.093381 0.0229618 0)
(-0.0991111 0.0233775 0)
(-0.104841 0.023687 0)
(-0.110542 0.0238816 0)
(-0.116181 0.0239536 0)
(-0.121729 0.023896 0)
(-0.127153 0.0237032 0)
(-0.132424 0.0233705 0)
(-0.137512 0.0228946 0)
(-0.142387 0.0222735 0)
(-0.147022 0.0215063 0)
(-0.151392 0.0205935 0)
(-0.15547 0.019537 0)
(-0.159235 0.0183397 0)
(-0.162665 0.0170059 0)
(-0.165741 0.0155408 0)
(-0.168447 0.0139509 0)
(-0.170765 0.0122435 0)
(-0.172684 0.0104272 0)
(-0.174191 0.008511 0)
(-0.175277 0.00650514 0)
(-0.175934 0.00442045 0)
(-0.176156 0.00226851 0)
(-0.175939 6.16615e-05 0)
(-0.17528 -0.00218692 0)
(-0.174179 -0.00446409 0)
(-0.172635 -0.00675559 0)
(-0.170654 -0.00904679 0)
(-0.168238 -0.0113226 0)
(-0.165394 -0.0135675 0)
(-0.162131 -0.0157658 0)
(-0.158459 -0.0179013 0)
(-0.15439 -0.0199579 0)
(-0.149938 -0.0219193 0)
(-0.145121 -0.0237694 0)
(-0.139957 -0.0254925 0)
(-0.134468 -0.0270731 0)
(-0.128675 -0.0284965 0)
(-0.122606 -0.0297488 0)
(-0.116288 -0.0308173 0)
(-0.109751 -0.0316904 0)
(-0.103028 -0.0323584 0)
(-0.0961533 -0.0328131 0)
(-0.0891621 -0.0330486 0)
(-0.0820926 -0.0330609 0)
(-0.0749837 -0.0328487 0)
(-0.0678753 -0.0324133 0)
(-0.0608081 -0.0317586 0)
(-0.0538227 -0.0308913 0)
(-0.0469596 -0.0298207 0)
(-0.0402585 -0.0285591 0)
(-0.0337582 -0.0271211 0)
(-0.0274954 -0.0255237 0)
(-0.0215049 -0.0237863 0)
(-0.0158189 -0.0219297 0)
(-0.0104664 -0.0199767 0)
(-0.00547311 -0.0179506 0)
(-0.000860923 -0.0158757 0)
(0.00335233 -0.0137764 0)
(0.00715306 -0.0116766 0)
(0.0105321 -0.00959965 0)
(0.0134848 -0.0075676 0)
(0.0160109 -0.00560089 0)
(0.0181146 -0.00371798 0)
(0.0198041 -0.00193507 0)
(0.0210918 -0.000265823 0)
(0.0219936 0.00127872 0)
(0.0225289 0.00269025 0)
(0.0227197 0.00396314 0)
(0.0225907 0.00509425 0)
(0.0221684 0.00608274 0)
(0.0214809 0.00692964 0)
(0.0205576 0.00763743 0)
(0.0194285 0.00820942 0)
(0.0181241 0.00864914 0)
(0.0166751 0.00895954 0)
(0.0151125 0.00914232 0)
(0.0134674 0.00919716 0)
(0.0117709 0.00912113 0)
(0.0100548 0.00890823 0)
(0.00835162 0.00854925 0)
(0.00669493 0.00803212 0)
(0.00512035 0.00734266 0)
(0.0036665 0.00646617 0)
(0.00237509 0.00538971 0)
(0.00129057 0.00410504 0)
(0.00048103 0.00261202 0)
(7.81482e-05 0.000924288 0)
(3.63225e-05 -0.000696297 0)
(0.000194991 -0.00172285 0)
(0.000476651 -0.00242792 0)
(0.000802285 -0.00284951 0)
(0.00112327 -0.0030229 0)
(0.00140492 -0.00298212 0)
(0.00161757 -0.00275944 0)
(0.00173623 -0.00238486 0)
(0.00174024 -0.00188568 0)
(0.00161237 -0.0012863 0)
(0.00133824 -0.000607931 0)
(0.00090582 0.000131376 0)
(0.000304966 0.000916769 0)
(-0.000472932 0.00173648 0)
(-0.00143532 0.00258167 0)
(-0.00258881 0.00344617 0)
(-0.00393942 0.00432622 0)
(-0.00549283 0.00522015 0)
(-0.00725455 0.00612794 0)
(-0.00923002 0.00705087 0)
(-0.0114247 0.00799105 0)
(-0.0138439 0.008951 0)
(-0.0164928 0.00993324 0)
(-0.0193766 0.0109399 0)
(-0.0224995 0.0119724 0)
(-0.0258654 0.0130311 0)
(-0.0294769 0.0141152 0)
(-0.0333353 0.0152227 0)
(-0.0374405 0.0163498 0)
(-0.0417904 0.0174917 0)
(-0.0463807 0.0186419 0)
(-0.0512049 0.0197926 0)
(-0.056254 0.0209349 0)
(-0.0615161 0.0220586 0)
(-0.0669769 0.0231528 0)
(-0.0726193 0.0242057 0)
(-0.0784235 0.0252051 0)
(-0.0843672 0.0261382 0)
(-0.0904258 0.0269924 0)
(-0.0965726 0.0277548 0)
(-0.102779 0.0284131 0)
(-0.109015 0.0289555 0)
(-0.115249 0.0293706 0)
(-0.12145 0.0296484 0)
(-0.127585 0.0297795 0)
(-0.133621 0.0297561 0)
(-0.139528 0.0295716 0)
(-0.145273 0.0292206 0)
(-0.150827 0.0286997 0)
(-0.15616 0.0280064 0)
(-0.161246 0.0271402 0)
(-0.166058 0.0261018 0)
(-0.170573 0.0248935 0)
(-0.174768 0.0235188 0)
(-0.178624 0.0219826 0)
(-0.182121 0.0202911 0)
(-0.185244 0.0184515 0)
(-0.187979 0.0164721 0)
(-0.190311 0.0143622 0)
(-0.192231 0.012132 0)
(-0.193729 0.00979253 0)
(-0.194797 0.00735554 0)
(-0.195428 0.0048336 0)
(-0.195618 0.00223992 0)
(-0.195363 -0.000411585 0)
(-0.194661 -0.00310629 0)
(-0.193511 -0.00582925 0)
(-0.191914 -0.00856471 0)
(-0.189872 -0.0112964 0)
(-0.187389 -0.0140076 0)
(-0.18447 -0.016681 0)
(-0.181122 -0.0192991 0)
(-0.177353 -0.0218439 0)
(-0.173174 -0.0242972 0)
(-0.168597 -0.0266407 0)
(-0.163637 -0.0288562 0)