/*--------------------------------*- C++ -*----------------------------------*\
| =========                 |                                                 |
| \\      /  F ield         | OpenFOAM: The Open Source CFD Toolbox           |
|  \\    /   O peration     | Version:  2112                                  |
|   \\  /    A nd           | Website:  www.openfoam.com                      |
|    \\/     M anipulation  |                                                 |
\*---------------------------------------------------------------------------*/
FoamFile
{
    version     2.0;
    format      ascii;
    arch        "LSB;label=32;scalar=64";
    class       volScalarField;
    location    "37";
    object      p;
}
// * * * * * * * * * * * * * * * * * * * * * * * * * * * * * * * * * * * * * //

dimensions      [0 2 -2 0 0 0 0];

internalField   nonuniform List<scalar> 
16641
(
-1.27018e-08
1.44441e-05
2.86985e-05
3.76183e-05
3.7572e-05
2.66783e-05
4.33757e-06
-2.93014e-05
-7.36736e-05
-0.000127986
-0.000191347
-0.000262855
-0.000341661
-0.000427013
-0.000518282
-0.000614981
-0.000716765
-0.000823431
-0.000934905
-0.00105123
-0.00117255
-0.00129906
-0.00143102
-0.00156871
-0.00171241
-0.00186238
-0.00201884
-0.00218195
-0.00235182
-0.00252846
-0.00271179
-0.00290167
-0.00309779
-0.00329979
-0.00350716
-0.00371927
-0.00393536
-0.00415453
-0.00437577
-0.00459791
-0.00481962
-0.00503945
-0.00525583
-0.00546703
-0.00567121
-0.00586642
-0.00605062
-0.0062217
-0.00637749
-0.00651582
-0.00663451
-0.00673144
-0.00680454
-0.00685189
-0.00687171
-0.00686244
-0.00682273
-0.00675155
-0.00664817
-0.00651224
-0.00634379
-0.00614329
-0.00591168
-0.00565035
-0.00536119
-0.00504659
-0.00470938
-0.00435281
-0.00398086
-0.00359763
-0.00320768
-0.00281587
-0.00242733
-0.00204731
-0.00168116
-0.00133423
-0.00101171
-0.000718606
-0.000459598
-0.000238937
-6.03616e-05
7.2996e-05
0.000158683
0.000194992
0.000181001
0.000116609
2.53537e-06
-0.000159691
-0.000367763
-0.000618652
-0.000908775
-0.00123379
-0.00158912
-0.00196976
-0.00237052
-0.00278609
-0.00321123
-0.00364082
-0.00407001
-0.00449426
-0.00490945
-0.00531193
-0.00569857
-0.00606674
-0.00641435
-0.00673986
-0.00704218
-0.00732072
-0.00757529
-0.00780606
-0.00801352
-0.00819839
-0.0083616
-0.00850417
-0.00862722
-0.00873187
-0.00881919
-0.00889019
-0.00894575
-0.00898666
-0.00901357
-0.00902712
-0.00902795
-0.00901699
-0.00899565
-0.00896643
-0.00893341
-0.00890278
-0.008884
-1.43568e-05
9.13759e-08
1.00923e-05
1.41039e-05
1.04014e-05
-2.49927e-06
-2.52458e-05
-5.78891e-05
-0.000100117
-0.000151392
-0.000211056
-0.000278405
-0.000352759
-0.000433496
-0.000520087
-0.000612112
-0.000709268
-0.000811372
-0.000918348
-0.00103022
-0.0011471
-0.00126914
-0.00139657
-0.00152962
-0.00166853
-0.00181353
-0.00196479
-0.00212248
-0.00228669
-0.00245741
-0.00263461
-0.00281811
-0.00300768
-0.00320296
-0.0034035
-0.0036087
-0.00381788
-0.0040302
-0.0042447
-0.00446029
-0.00467574
-0.00488966
-0.00510057
-0.00530683
-0.00550669
-0.00569829
-0.00587968
-0.00604883
-0.00620366
-0.00634208
-0.00646197
-0.00656126
-0.00663797
-0.0066902
-0.00671621
-0.00671444
-0.00668357
-0.00662256
-0.00653064
-0.00640744
-0.00625294
-0.00606753
-0.00585208
-0.00560786
-0.00533667
-0.0050408
-0.00472297
-0.00438623
-0.00403428
-0.00367117
-0.00330128
-0.00292929
-0.0025601
-0.00219879
-0.00185053
-0.00152044
-0.00121355
-0.00093468
-0.000688342
-0.000478633
-0.000309154
-0.000182921
-0.000102291
-6.89029e-05
-8.36336e-05
-0.000146572
-0.000257015
-0.000413482
-0.000613747
-0.000854898
-0.00113342
-0.00144528
-0.00178598
-0.00215075
-0.00253464
-0.00293259
-0.0033396
-0.00375081
-0.00416159
-0.00456767
-0.00496515
-0.00535058
-0.005721
-0.00607395
-0.00640746
-0.00672008
-0.00701081
-0.00727906
-0.00752467
-0.00774779
-0.00794885
-0.00812854
-0.00828768
-0.00842726
-0.00854829
-0.00865184
-0.00873892
-0.00881052
-0.00886755
-0.00891084
-0.00894114
-0.00895923
-0.00896593
-0.00896227
-0.00894966
-0.00893024
-0.00890713
-0.00888411
-0.00886522
-2.86125e-05
-9.85375e-06
1.67361e-07
2.62137e-06
-2.54098e-06
-1.63439e-05
-3.92762e-05
-7.13552e-05
-0.000112322
-0.000161731
-0.000219025
-0.000283605
-0.000354878
-0.000432302
-0.00051541
-0.000603832
-0.000697301
-0.000795653
-0.000898825
-0.00100685
-0.00111982
-0.00123789
-0.00136128
-0.00149019
-0.00162485
-0.00176549
-0.00191228
-0.00206538
-0.00222487
-0.00239079
-0.00256308
-0.00274163
-0.00292621
-0.00311651
-0.00331212
-0.00351251
-0.00371702
-0.00392489
-0.00413522
-0.00434698
-0.00455899
-0.00476996
-0.00497844
-0.00518286
-0.00538154
-0.00557267
-0.00575434
-0.00592458
-0.00608134
-0.00622254
-0.0063461
-0.00644996
-0.00653212
-0.00659069
-0.0066239
-0.00663017
-0.00660814
-0.0065567
-0.00647505
-0.00636274
-0.00621968
-0.0060462
-0.00584305
-0.00561144
-0.00535308
-0.00507022
-0.00476509
-0.00444127
-0.00410207
-0.0037514
-0.00339359
-0.00303322
-0.00267512
-0.00232428
-0.00198579
-0.00166471
-0.00136601
-0.00109445
-0.000854479
-0.000650164
-0.000485067
-0.000362176
-0.000283826
-0.000251641
-0.00026649
-0.000328463
-0.000436863
-0.000590223
-0.000786343
-0.00102234
-0.00129474
-0.00159955
-0.00193236
-0.00228845
-0.00266295
-0.0030509
-0.0034474
-0.00384769
-0.00424729
-0.00464202
-0.00502811
-0.00540224
-0.00576158
-0.00610378
-0.00642698
-0.00672983
-0.0070114
-0.00727119
-0.00750908
-0.00772526
-0.00792019
-0.00809455
-0.00824919
-0.00838506
-0.00850318
-0.00860459
-0.00869031
-0.00876133
-0.00881855
-0.00886283
-0.00889497
-0.00891572
-0.0089259
-0.00892643
-0.00891847
-0.00890364
-0.00888415
-0.00886119
-0.00883442
-3.77173e-05
-1.39162e-05
-2.34183e-06
3.36606e-08
-5.5798e-06
-1.97889e-05
-4.28495e-05
-7.4645e-05
-0.000114867
-0.000163074
-0.000218738
-0.0002813
-0.000350214
-0.000424985
-0.000505189
-0.000590493
-0.000680661
-0.00077556
-0.000875148
-0.000979471
-0.00108864
-0.00120283
-0.00132224
-0.0014471
-0.00157765
-0.00171411
-0.00185669
-0.00200553
-0.00216076
-0.00232242
-0.0024905
-0.00266492
-0.0028455
-0.00303196
-0.00322394
-0.00342098
-0.00362247
-0.00382771
-0.00403586
-0.00424594
-0.00445685
-0.00466734
-0.004876
-0.00508133
-0.00528166
-0.00547521
-0.00566011
-0.00583437
-0.00599596
-0.00614277
-0.00627271
-0.00638368
-0.00647363
-0.00654062
-0.00658282
-0.00659858
-0.00658645
-0.00654527
-0.00647413
-0.00637249
-0.00624019
-0.00607747
-0.00588498
-0.00566386
-0.00541585
-0.00514337
-0.00484727
-0.00453237
-0.00420167
-0.00385898
-0.00350853
-0.00315489
-0.00280287
-0.00245744
-0.0021237
-0.00180669
-0.00151141
-0.00124263
-0.00100483
-0.000802097
-0.000638023
-0.000515625
-0.000437268
-0.000404603
-0.000418522
-0.00047913
-0.000585741
-0.000736895
-0.000930389
-0.00116334
-0.00143225
-0.00173311
-0.00206148
-0.00241272
-0.00278183
-0.00316391
-0.00355406
-0.00394756
-0.00433992
-0.00472703
-0.00510518
-0.00547112
-0.00582209
-0.00615583
-0.00647059
-0.0067651
-0.00703854
-0.00729048
-0.00752091
-0.00773008
-0.00791852
-0.00808698
-0.00823635
-0.00836762
-0.00848183
-0.00858007
-0.00866336
-0.0087327
-0.00878903
-0.00883318
-0.00886593
-0.008888
-0.00890007
-0.00890285
-0.00889711
-0.00888395
-0.00886477
-0.00883853
-0.00880163
-3.80281e-05
-1.03818e-05
2.57822e-06
5.07573e-06
-8.27319e-07
-1.54119e-05
-3.87162e-05
-7.04716e-05
-0.000110287
-0.000157684
-0.000212131
-0.000273079
-0.000340006
-0.000412444
-0.000490001
-0.000572378
-0.000659374
-0.000750888
-0.000846911
-0.000947512
-0.00105284
-0.00116307
-0.00127846
-0.00139925
-0.0015257
-0.00165807
-0.00179656
-0.00194139
-0.00209269
-0.00225056
-0.00241503
-0.00258606
-0.00276352
-0.00294721
-0.00313681
-0.00333193
-0.00353203
-0.00373646
-0.00394445
-0.00415508
-0.00436728
-0.00457986
-0.00479146
-0.00500058
-0.00520556
-0.00540463
-0.00559591
-0.00577737
-0.00594695
-0.00610249
-0.00624182
-0.00636278
-0.00646325
-0.00654118
-0.00659464
-0.00662189
-0.00662137
-0.00659182
-0.00653223
-0.00644196
-0.00632075
-0.00616874
-0.00598652
-0.00577517
-0.00553609
-0.00527082
-0.00498367
-0.004676
-0.00435156
-0.0040143
-0.00366847
-0.00331863
-0.00296961
-0.00262642
-0.00229416
-0.00197795
-0.00168281
-0.00141359
-0.00117483
-0.000970691
-0.000804828
-0.000680334
-0.000599638
-0.000564452
-0.000575719
-0.000633588
-0.000737401
-0.000885712
-0.00107632
-0.00130632
-0.0015722
-0.00186991
-0.00219498
-0.00254264
-0.00290794
-0.00328587
-0.00367149
-0.00406003
-0.004447
-0.00482827
-0.00520014
-0.00555938
-0.00590328
-0.00622964
-0.00653678
-0.00682352
-0.00708913
-0.0073333
-0.00755609
-0.00775788
-0.00793928
-0.00810114
-0.00824441
-0.00837016
-0.00847951
-0.00857356
-0.00865341
-0.00872008
-0.00877451
-0.00881753
-0.00884989
-0.00887222
-0.00888506
-0.00888887
-0.00888404
-0.00887118
-0.00885102
-0.00882068
-0.0087739
-2.75188e-05
2.34418e-06
1.60294e-05
1.84115e-05
1.20534e-05
-3.09069e-06
-2.68757e-05
-5.88908e-05
-9.86511e-05
-0.000145625
-0.00019925
-0.000258972
-0.000324272
-0.000394701
-0.000469891
-0.000549574
-0.000633587
-0.000721865
-0.000814436
-0.000911416
-0.00101299
-0.00111938
-0.00123088
-0.00134777
-0.00147036
-0.00159893
-0.00173377
-0.00187511
-0.00202314
-0.00217803
-0.00233986
-0.00250864
-0.00268434
-0.0028668
-0.00305579
-0.00325097
-0.00345188
-0.00365794
-0.00386842
-0.00408245
-0.00429902
-0.00451694
-0.00473486
-0.00495128
-0.00516452
-0.00537279
-0.00557413
-0.00576647
-0.00594764
-0.00611541
-0.0062675
-0.00640164
-0.00651557
-0.00660713
-0.00667429
-0.00671515
-0.00672805
-0.0067116
-0.00666469
-0.00658657
-0.00647688
-0.00633568
-0.00616348
-0.0059613
-0.00573059
-0.00547307
-0.00519172
-0.00488921
-0.00456899
-0.00423492
-0.00389126
-0.00354259
-0.00319377
-0.00284985
-0.002516
-0.0021974
-0.00189917
-0.00162623
-0.00138322
-0.00117442
-0.00100358
-0.000873901
-0.000787924
-0.000747453
-0.000753521
-0.000806349
-0.00090534
-0.00104909
-0.0012354
-0.00146139
-0.00172351
-0.00201767
-0.00233933
-0.00268367
-0.00304563
-0.00342013
-0.00380214
-0.0041868
-0.00456954
-0.00494619
-0.00531298
-0.00566669
-0.00600459
-0.00632452
-0.00662483
-0.00690441
-0.00716261
-0.00739922
-0.00761439
-0.00780863
-0.00798264
-0.00813739
-0.00827393
-0.00839343
-0.00849708
-0.00858608
-0.00866157
-0.00872461
-0.00877617
-0.00881708
-0.00884805
-0.00886962
-0.0088822
-0.00888601
-0.00888111
-0.00886768
-0.00884596
-0.00881163
-0.00875641
-5.27528e-06
2.51607e-05
3.8712e-05
4.04962e-05
3.33118e-05
1.72772e-05
-7.31541e-06
-3.99331e-05
-8.00015e-05
-0.000126927
-0.000180108
-0.000238971
-0.000302995
-0.000371739
-0.00044486
-0.00052212
-0.000603395
-0.000688665
-0.000778007
-0.000871589
-0.000969649
-0.00107248
-0.00118041
-0.0012938
-0.001413
-0.00153838
-0.00167027
-0.00180898
-0.00195478
-0.00210789
-0.00226848
-0.00243666
-0.00261244
-0.00279576
-0.00298648
-0.00318431
-0.00338888
-0.00359965
-0.00381594
-0.00403692
-0.00426157
-0.00448871
-0.00471698
-0.00494483
-0.00517052
-0.00539218
-0.00560775
-0.00581505
-0.0060118
-0.00619562
-0.0063641
-0.0065148
-0.00664535
-0.00675341
-0.00683681
-0.00689353
-0.00692178
-0.00692002
-0.00688705
-0.00682201
-0.00672446
-0.00659437
-0.00643218
-0.00623885
-0.00601584
-0.00576483
-0.00548855
-0.00518988
-0.00487223
-0.00453946
-0.00419584
-0.00384597
-0.00349477
-0.00314734
-0.00280892
-0.00248478
-0.00218014
-0.00190003
-0.00164923
-0.00143213
-0.00125264
-0.0011141
-0.00101919
-0.000969862
-0.000967273
-0.00101176
-0.00110283
-0.00123915
-0.00141859
-0.00163828
-0.00189467
-0.00218365
-0.00250062
-0.00284068
-0.00319869
-0.00356945
-0.00394781
-0.0043288
-0.00470774
-0.00508034
-0.00544277
-0.00579171
-0.0061244
-0.00643866
-0.00673284
-0.00700587
-0.00725715
-0.00748655
-0.00769431
-0.00788103
-0.00804755
-0.00819493
-0.00832435
-0.00843708
-0.00853443
-0.00861767
-0.00868803
-0.00874662
-0.00879446
-0.00883239
-0.00886107
-0.00888099
-0.00889243
-0.00889544
-0.00888978
-0.00887532
-0.0088519
-0.00881423
-0.00875257
2.90271e-05
5.84942e-05
7.09783e-05
7.15418e-05
6.30313e-05
4.56822e-05
1.99013e-05
-1.36818e-05
-5.44141e-05
-0.000101642
-0.000154726
-0.000213069
-0.000276146
-0.000343524
-0.000414886
-0.000490028
-0.000568868
-0.00065144
-0.000737882
-0.000828426
-0.00092338
-0.00102311
-0.00112802
-0.00123854
-0.00135513
-0.00147821
-0.00160821
-0.00174552
-0.00189052
-0.00204351
-0.00220476
-0.00237446
-0.00255273
-0.00273959
-0.00293499
-0.0031387
-0.00335041
-0.00356963
-0.0037957
-0.0040278
-0.00426489
-0.00450575
-0.00474896
-0.00499288
-0.00523568
-0.00547534
-0.00570969
-0.00593637
-0.00615295
-0.00635688
-0.00654556
-0.00671641
-0.00686685
-0.00699443
-0.00709678
-0.00717175
-0.00721742
-0.00723215
-0.00721461
-0.00716385
-0.00707934
-0.00696099
-0.00680918
-0.00662476
-0.00640908
-0.00616417
-0.00589237
-0.00559661
-0.00528031
-0.00494733
-0.00460196
-0.00424884
-0.00389291
-0.00353935
-0.00319347
-0.00286064
-0.00254618
-0.00225525
-0.00199278
-0.00176332
-0.00157097
-0.00141923
-0.00131098
-0.00124836
-0.00123269
-0.0012645
-0.00134343
-0.00146829
-0.00163704
-0.00184687
-0.00209429
-0.00237517
-0.00268491
-0.00301852
-0.00337079
-0.00373638
-0.00411003
-0.00448663
-0.00486135
-0.00522976
-0.0055879
-0.00593233
-0.00626021
-0.00656929
-0.00685788
-0.0071249
-0.00736977
-0.00759238
-0.00779308
-0.00797252
-0.00813166
-0.00827166
-0.00839383
-0.00849955
-0.00859024
-0.00866727
-0.00873196
-0.00878552
-0.00882898
-0.00886322
-0.00888891
-0.00890649
-0.00891615
-0.00891778
-0.00891097
-0.00889534
-0.00887045
-0.00883036
-0.00876446
7.54065e-05
0.000102503
0.000112991
0.000111662
0.000101273
8.2146e-05
5.4776e-05
1.98645e-05
-2.18721e-05
-6.97318e-05
-0.000123041
-0.000181184
-0.000243636
-0.000309979
-0.000379921
-0.000453301
-0.000530089
-0.000610382
-0.000694389
-0.00078242
-0.000874868
-0.000972188
-0.00107488
-0.00118348
-0.00129853
-0.00142057
-0.00155013
-0.00168773
-0.00183383
-0.00198887
-0.00215321
-0.00232716
-0.00251093
-0.00270466
-0.00290833
-0.00312181
-0.00334482
-0.00357689
-0.00381736
-0.00406537
-0.00431984
-0.00457946
-0.00484269
-0.00510777
-0.00537272
-0.00563535
-0.00589329
-0.00614401
-0.00638487
-0.00661312
-0.00682598
-0.00702067
-0.00719444
-0.00734465
-0.00746881
-0.00756461
-0.00763
-0.00766324
-0.00766288
-0.00762791
-0.0075577
-0.00745209
-0.0073114
-0.00713643
-0.00692847
-0.00668952
-0.00642188
-0.00612846
-0.00581264
-0.00547828
-0.00512968
-0.00477148
-0.00440867
-0.00404646
-0.00369024
-0.00334548
-0.00301761
-0.00271194
-0.00243356
-0.00218721
-0.00197718
-0.00180723
-0.00168044
-0.00159919
-0.00156506
-0.00157879
-0.00164024
-0.0017484
-0.00190141
-0.0020966
-0.00233053
-0.00259915
-0.00289786
-0.00322163
-0.00356518
-0.00392309
-0.00428994
-0.00466048
-0.00502971
-0.00539303
-0.00574631
-0.00608597
-0.00640902
-0.00671309
-0.00699641
-0.00725784
-0.00749677
-0.00771311
-0.00790721
-0.0080798
-0.0082319
-0.00836478
-0.00847985
-0.0085786
-0.00866256
-0.00873323
-0.008792
-0.00884016
-0.00887885
-0.00890896
-0.00893118
-0.00894595
-0.00895341
-0.00895335
-0.00894523
-0.0089285
-0.00890255
-0.00886109
-0.0087931
0.000133709
0.000157159
0.000164767
0.000160879
0.000148055
0.000126688
9.73367e-05
6.07509e-05
1.7691e-05
-3.1106e-05
-8.4944e-05
-0.000143201
-0.000205358
-0.000271022
-0.000339935
-0.000411985
-0.000487207
-0.000565771
-0.000647971
-0.000734211
-0.000824985
-0.000920856
-0.00102244
-0.00113039
-0.00124537
-0.00136805
-0.00149909
-0.00163913
-0.00178878
-0.0019486
-0.00211907
-0.00230062
-0.00249357
-0.00269812
-0.00291434
-0.00314215
-0.00338127
-0.00363121
-0.00389129
-0.00416057
-0.00443787
-0.00472173
-0.00501048
-0.00530215
-0.00559459
-0.00588537
-0.00617193
-0.0064515
-0.00672123
-0.00697814
-0.00721926
-0.0074416
-0.00764225
-0.0078184
-0.0079674
-0.00808682
-0.00817448
-0.00822853
-0.00824745
-0.00823012
-0.00817583
-0.00808437
-0.00795597
-0.00779139
-0.00759187
-0.00735928
-0.00709592
-0.00680465
-0.00648882
-0.00615224
-0.00579918
-0.0054343
-0.00506259
-0.0046893
-0.00431987
-0.00395987
-0.00361483
-0.00329024
-0.00299134
-0.00272309
-0.00249003
-0.00229616
-0.00214486
-0.0020388
-0.00197986
-0.00196907
-0.00200659
-0.00209167
-0.00222269
-0.00239716
-0.00261184
-0.00286276
-0.00314538
-0.00345471
-0.00378541
-0.00413197
-0.00448887
-0.00485069
-0.00521227
-0.00556881
-0.00591598
-0.00625001
-0.00656772
-0.00686659
-0.0071447
-0.00740079
-0.00763419
-0.00784474
-0.0080328
-0.0081991
-0.00834472
-0.00847097
-0.00857936
-0.00867148
-0.00874895
-0.00881338
-0.00886627
-0.00890901
-0.00894278
-0.00896858
-0.00898713
-0.00899886
-0.00900392
-0.00900206
-0.00899266
-0.00897507
-0.00894859
-0.00890682
-0.00883872
0.000203666
0.000222292
0.000226191
0.000219111
0.000203326
0.000179282
0.000147586
0.000109009
6.43348e-05
1.43168e-05
-4.03433e-05
-9.90304e-05
-0.000161245
-0.000226628
-0.000294968
-0.000366217
-0.000440484
-0.000518029
-0.000599244
-0.000684643
-0.000774839
-0.000870524
-0.000972448
-0.0010814
-0.0011982
-0.00132366
-0.00145859
-0.00160379
-0.00176001
-0.00192794
-0.00210821
-0.00230136
-0.00250781
-0.00272782
-0.00296153
-0.00320884
-0.00346948
-0.0037429
-0.00402832
-0.00432469
-0.00463066
-0.00494461
-0.00526465
-0.0055886
-0.00591404
-0.00623833
-0.00655865
-0.006872
-0.00717526
-0.00746528
-0.00773884
-0.00799279
-0.00822402
-0.00842957
-0.00860667
-0.00875274
-0.00886551
-0.00894301
-0.00898363
-0.00898617
-0.00894985
-0.00887435
-0.00875984
-0.008607
-0.00841702
-0.00819164
-0.00793311
-0.00764421
-0.00732821
-0.00698889
-0.00663045
-0.00625752
-0.00587508
-0.00548839
-0.00510295
-0.00472437
-0.00435833
-0.00401043
-0.00368613
-0.00339061
-0.00312866
-0.0029046
-0.00272214
-0.0025843
-0.00249332
-0.00245062
-0.00245671
-0.00251119
-0.00261278
-0.00275927
-0.00294765
-0.00317415
-0.00343438
-0.00372339
-0.00403587
-0.00436626
-0.00470895
-0.00505838
-0.00540919
-0.00575639
-0.00609542
-0.0064223
-0.00673361
-0.0070266
-0.00729919
-0.00754995
-0.00777804
-0.00798324
-0.00816581
-0.00832647
-0.00846628
-0.00858659
-0.00868895
-0.00877503
-0.00884654
-0.00890517
-0.00895253
-0.00899009
-0.00901914
-0.00904072
-0.00905564
-0.00906436
-0.00906706
-0.00906347
-0.00905298
-0.00903489
-0.00900843
-0.00896736
-0.0089009
0.000284904
0.000297603
0.000297021
0.000286164
0.000266936
0.000239824
0.000205461
0.000164614
0.000118064
6.65594e-05
1.07876e-05
-4.86603e-05
-0.00011132
-0.00017688
-0.000245193
-0.000316286
-0.000390359
-0.000467776
-0.000549046
-0.000634811
-0.000725823
-0.000822922
-0.000927013
-0.00103905
-0.00116001
-0.00129089
-0.00143267
-0.00158631
-0.00175271
-0.00193273
-0.00212711
-0.00233651
-0.00256141
-0.00280216
-0.00305886
-0.00333144
-0.00361952
-0.00392248
-0.00423939
-0.00456902
-0.00490982
-0.00525994
-0.00561724
-0.00597927
-0.00634336
-0.0067066
-0.00706589
-0.00741798
-0.00775954
-0.00808718
-0.00839748
-0.0086871
-0.00895278
-0.0091914
-0.00940007
-0.00957609
-0.00971708
-0.00982098
-0.00988608
-0.00991108
-0.00989513
-0.0098378
-0.00973919
-0.00959986
-0.00942091
-0.00920397
-0.0089512
-0.00866525
-0.00834932
-0.00800707
-0.00764263
-0.00726057
-0.00686583
-0.00646364
-0.00605952
-0.00565914
-0.00526827
-0.00489266
-0.00453795
-0.00420956
-0.00391258
-0.00365165
-0.00343085
-0.00325362
-0.00312264
-0.00303978
-0.00300599
-0.00302134
-0.00308493
-0.00319498
-0.00334881
-0.00354294
-0.00377316
-0.00403472
-0.00432236
-0.00463054
-0.00495359
-0.00528582
-0.00562172
-0.00595607
-0.0062841
-0.00660153
-0.00690471
-0.00719062
-0.00745693
-0.00770198
-0.00792475
-0.00812484
-0.0083024
-0.00845805
-0.00859279
-0.00870797
-0.00880513
-0.00888599
-0.0089523
-0.00900583
-0.00904828
-0.0090812
-0.00910597
-0.00912372
-0.00913531
-0.0091413
-0.00914187
-0.00913683
-0.00912557
-0.0091074
-0.00908155
-0.00904207
-0.00897874
0.000376941
0.000382661
0.000376878
0.000361717
0.000338628
0.000308096
0.000270798
0.000227443
0.000178782
0.000125536
6.83566e-05
7.79007e-06
-5.57527e-05
-0.000122026
-0.000190963
-0.000262685
-0.000337499
-0.000415889
-0.000498502
-0.000586127
-0.000679676
-0.000780156
-0.000888651
-0.0010063
-0.00113427
-0.00127374
-0.00142588
-0.00159182
-0.00177264
-0.00196932
-0.00218274
-0.00241364
-0.00266256
-0.00292986
-0.00321562
-0.00351968
-0.00384156
-0.00418049
-0.00453533
-0.00490463
-0.0052866
-0.0056791
-0.00607971
-0.0064857
-0.00689411
-0.00730174
-0.00770523
-0.00810109
-0.00848573
-0.00885556
-0.00920697
-0.00953645
-0.00984057
-0.0101161
-0.01036
-0.0105695
-0.0107421
-0.0108756
-0.0109682
-0.0110185
-0.0110257
-0.010989
-0.0109086
-0.0107849
-0.0106188
-0.0104119
-0.0101662
-0.00988412
-0.00956884
-0.00922385
-0.00885317
-0.00846126
-0.00805298
-0.00763352
-0.00720837
-0.00678323
-0.00636393
-0.00595635
-0.00556631
-0.00519947
-0.00486122
-0.00455654
-0.00428995
-0.00406533
-0.00388586
-0.00375393
-0.00367106
-0.00363784
-0.00365392
-0.003718
-0.00382786
-0.00398041
-0.00417179
-0.00439747
-0.00465237
-0.00493104
-0.00522778
-0.00553685
-0.00585257
-0.00616955
-0.00648273
-0.00678759
-0.00708015
-0.0073571
-0.0076158
-0.00785432
-0.00807138
-0.00826635
-0.00843919
-0.00859036
-0.00872076
-0.00883165
-0.00892453
-0.00900111
-0.00906318
-0.00911254
-0.00915094
-0.00918001
-0.00920121
-0.00921576
-0.00922458
-0.00922831
-0.00922721
-0.00922113
-0.00920954
-0.00919177
-0.0091671
-0.00912999
-0.00907098
0.000479153
0.000476879
0.000465228
0.000445291
0.000417966
0.000383767
0.000343298
0.000297227
0.000246243
0.000191005
0.000132102
7.00179e-05
5.08547e-06
-6.25353e-05
-0.000132877
-0.000206173
-0.000282857
-0.000363556
-0.000449071
-0.000540362
-0.000638519
-0.000744742
-0.000860314
-0.000986575
-0.0011249
-0.00127667
-0.00144324
-0.00162594
-0.00182598
-0.0020445
-0.00228247
-0.00254068
-0.0028197
-0.00311984
-0.00344112
-0.00378326
-0.0041456
-0.00452716
-0.00492655
-0.00534207
-0.0057716
-0.00621274
-0.00666272
-0.00711853
-0.00757689
-0.00803433
-0.00848722
-0.00893182
-0.00936433
-0.00978093
-0.0101779
-0.0105514
-0.0108981
-0.0112144
-0.0114973
-0.0117439
-0.0119515
-0.012118
-0.0122413
-0.0123201
-0.0123532
-0.0123399
-0.0122803
-0.0121745
-0.0120234
-0.0118283
-0.0115912
-0.0113144
-0.0110007
-0.0106535
-0.0102768
-0.00987471
-0.00945212
-0.00901407
-0.008566
-0.00811359
-0.00766271
-0.00721932
-0.00678939
-0.00637882
-0.00599327
-0.00563811
-0.00531827
-0.00503815
-0.00480146
-0.00461121
-0.00446953
-0.00437766
-0.0043359
-0.00434356
-0.00439901
-0.00449968
-0.00464217
-0.0048223
-0.00503529
-0.00527584
-0.00553834
-0.00581703
-0.00610614
-0.00640008
-0.00669355
-0.00698173
-0.00726033
-0.00752568
-0.00777479
-0.0080054
-0.0082159
-0.00840536
-0.00857349
-0.00872052
-0.00884717
-0.00895456
-0.00904411
-0.00911745
-0.00917635
-0.0092226
-0.009258
-0.00928423
-0.00930278
-0.00931496
-0.00932178
-0.00932394
-0.00932177
-0.00931522
-0.00930382
-0.00928698
-0.00926402
-0.00922992
-0.00917611
0.000590754
0.000579495
0.000561365
0.000536247
0.00050439
0.000466288
0.000422474
0.000373516
0.000320007
0.000262516
0.000201545
0.000137484
7.05682e-05
8.49066e-07
-7.18258e-05
-0.000147822
-0.000227724
-0.000312321
-0.000402592
-0.000499687
-0.000604898
-0.000719638
-0.000845405
-0.000983763
-0.0011363
-0.00130461
-0.00149025
-0.0016947
-0.00191934
-0.0021654
-0.00243392
-0.00272572
-0.00304133
-0.00338099
-0.00374458
-0.00413162
-0.00454125
-0.00497222
-0.00542286
-0.00589112
-0.00637461
-0.00687055
-0.00737588
-0.00788725
-0.00840109
-0.00891365
-0.00942103
-0.00991925
-0.0104043
-0.0108722
-0.0113189
-0.0117408
-0.0121339
-0.012495
-0.0128206
-0.0131079
-0.013354
-0.0135567
-0.013714
-0.0138242
-0.0138861
-0.0138991
-0.0138628
-0.0137773
-0.0136435
-0.0134623
-0.0132356
-0.0129656
-0.0126547
-0.0123064
-0.0119242
-0.0115123
-0.0110751
-0.0106178
-0.0101456
-0.00966405
-0.0091791
-0.00869673
-0.00822302
-0.00776405
-0.00732575
-0.00691384
-0.0065337
-0.00619022
-0.00588773
-0.00562986
-0.00541947
-0.00525854
-0.00514811
-0.00508824
-0.00507802
-0.00511555
-0.00519802
-0.00532178
-0.00548243
-0.00567499
-0.00589403
-0.00613385
-0.00638864
-0.00665267
-0.00692043
-0.00718679
-0.00744711
-0.00769736
-0.00793415
-0.00815479
-0.00835731
-0.00854041
-0.00870345
-0.00884639
-0.00896969
-0.00907425
-0.00916134
-0.00923246
-0.00928929
-0.00933362
-0.00936719
-0.0093917
-0.00940871
-0.00941955
-0.0094253
-0.00942672
-0.00942425
-0.00941789
-0.00940727
-0.00939189
-0.00937115
-0.00934056
-0.00929256
0.000710743
0.00068956
0.000664378
0.00063373
0.000597102
0.000554925
0.000507629
0.000455634
0.000399399
0.000339372
0.000275938
0.000209366
0.000139768
6.70651e-05
-9.03774e-06
-8.90639e-05
-0.000173769
-0.000264127
-0.000361318
-0.000466702
-0.000581799
-0.000708247
-0.000847782
-0.0010022
-0.0011733
-0.00136291
-0.00157274
-0.00180445
-0.00205954
-0.00233931
-0.00264482
-0.00297685
-0.00333586
-0.00372194
-0.00413479
-0.00457369
-0.0050375
-0.00552464
-0.00603315
-0.00656061
-0.00710428
-0.00766104
-0.0082275
-0.00879998
-0.00937462
-0.00994739
-0.0105141
-0.0110706
-0.0116127
-0.0121361
-0.0126369
-0.0131109
-0.0135544
-0.0139637
-0.0143356
-0.0146668
-0.0149547
-0.0151968
-0.0153909
-0.0155354
-0.015629
-0.0156707
-0.0156603
-0.0155976
-0.0154832
-0.0153182
-0.0151039
-0.0148424
-0.0145361
-0.0141879
-0.0138014
-0.0133803
-0.0129291
-0.0124525
-0.0119557
-0.0114441
-0.0109236
-0.0104
-0.00987956
-0.00936847
-0.0088729
-0.00839887
-0.00795215
-0.00753816
-0.00716183
-0.00682748
-0.00653873
-0.00629837
-0.0061083
-0.00596946
-0.00588179
-0.00584421
-0.00585468
-0.00591021
-0.00600698
-0.00614046
-0.00630553
-0.00649668
-0.00670816
-0.00693415
-0.00716898
-0.00740723
-0.00764392
-0.00787459
-0.00809544
-0.00830331
-0.00849577
-0.00867109
-0.00882821
-0.00896673
-0.00908677
-0.00918895
-0.0092743
-0.00934413
-0.0094
-0.00944357
-0.00947655
-0.00950059
-0.00951725
-0.00952789
-0.00953363
-0.0095353
-0.00953337
-0.00952796
-0.00951877
-0.0095054
-0.0094873
-0.00946061
-0.00941874
0.0008379
0.000805878
0.000773131
0.000736662
0.00069508
0.000648702
0.000597817
0.000542643
0.00048347
0.000420588
0.000354229
0.000284518
0.000211419
0.000134694
5.38819e-05
-3.17214e-05
-0.000123066
-0.000221336
-0.000327932
-0.00044445
-0.000572649
-0.000714416
-0.000871729
-0.00104662
-0.00124112
-0.00145723
-0.00169686
-0.00196178
-0.00225357
-0.00257356
-0.00292279
-0.00330195
-0.00371135
-0.00415088
-0.00461999
-0.00511767
-0.00564246
-0.00619243
-0.00676524
-0.00735813
-0.00796797
-0.00859129
-0.00922437
-0.0098632
-0.0105036
-0.0111413
-0.011772
-0.0123911
-0.0129942
-0.0135771
-0.0141354
-0.0146651
-0.0151623
-0.0156231
-0.0160442
-0.0164224
-0.0167548
-0.0170389
-0.0172724
-0.0174537
-0.0175813
-0.0176542
-0.0176719
-0.0176342
-0.0175415
-0.0173946
-0.0171948
-0.0169438
-0.0166439
-0.0162977
-0.0159084
-0.0154796
-0.0150155
-0.0145205
-0.0139996
-0.013458
-0.0129013
-0.0123355
-0.0117667
-0.0112011
-0.010645
-0.0101047
-0.00958643
-0.00909594
-0.00863879
-0.00821999
-0.00784396
-0.00751435
-0.00723402
-0.00700486
-0.00682783
-0.00670282
-0.00662872
-0.0066034
-0.00662379
-0.006686
-0.00678541
-0.00691682
-0.00707468
-0.0072532
-0.00744659
-0.00764921
-0.00785574
-0.00806131
-0.00826163
-0.00845305
-0.00863262
-0.00879808
-0.00894791
-0.00908121
-0.0091977
-0.00929766
-0.00938177
-0.00945111
-0.00950701
-0.00955095
-0.00958456
-0.00960939
-0.00962696
-0.00963863
-0.0096455
-0.00964846
-0.00964802
-0.00964436
-0.00963728
-0.00962644
-0.00961139
-0.00958883
-0.00955317
0.000970734
0.000927007
0.000886233
0.000843711
0.000797041
0.000746389
0.000691815
0.000633318
0.000570965
0.000504851
0.000435026
0.000361441
0.000283881
0.000201927
0.000114926
2.19672e-05
-7.81167e-05
-0.000186743
-0.000305556
-0.000436404
-0.000581305
-0.0007424
-0.000921917
-0.00112212
-0.00134526
-0.00159351
-0.00186891
-0.00217333
-0.00250838
-0.00287536
-0.00327523
-0.00370852
-0.00417535
-0.00467533
-0.00520762
-0.00577086
-0.00636322
-0.00698241
-0.00762567
-0.00828986
-0.00897148
-0.0096667
-0.0103714
-0.0110814
-0.0117921
-0.012499
-0.0131975
-0.0138829
-0.0145507
-0.0151963
-0.0158153
-0.0164036
-0.016957
-0.0174718
-0.0179445
-0.0183718
-0.0187508
-0.0190789
-0.0193539
-0.0195738
-0.0197373
-0.0198432
-0.0198909
-0.0198801
-0.019811
-0.0196842
-0.0195009
-0.0192625
-0.018971
-0.0186288
-0.0182388
-0.0178043
-0.0173291
-0.0168174
-0.0162739
-0.0157034
-0.0151115
-0.0145039
-0.0138865
-0.0132655
-0.0126473
-0.0120383
-0.011445
-0.0108737
-0.0103302
-0.00982047
-0.00934951
-0.00892193
-0.00854156
-0.00821139
-0.00793346
-0.00770879
-0.00753739
-0.00741817
-0.00734904
-0.00732693
-0.00734792
-0.00740735
-0.00750001
-0.0076203
-0.00776243
-0.00792061
-0.00808921
-0.00826298
-0.00843713
-0.00860746
-0.00877043
-0.00892322
-0.0090637
-0.00919045
-0.00930268
-0.00940019
-0.00948329
-0.00955269
-0.00960944
-0.0096548
-0.00969019
-0.00971705
-0.0097368
-0.00975072
-0.00975991
-0.00976524
-0.00976726
-0.00976619
-0.00976189
-0.0097541
-0.00974244
-0.00972414
-0.00969457
0.00110747
0.00105122
0.00100201
0.000953263
0.000901423
0.000846426
0.00078809
0.000726111
0.000660294
0.000590501
0.000516573
0.000438252
0.00035512
0.00026655
0.000171669
6.93393e-05
-4.18512e-05
-0.000163573
-0.000297736
-0.000446455
-0.000612015
-0.000796821
-0.00100334
-0.00123407
-0.00149144
-0.00177778
-0.00209522
-0.00244568
-0.00283073
-0.00325159
-0.00370907
-0.00420349
-0.00473469
-0.00530197
-0.00590413
-0.00653943
-0.00720562
-0.00790001
-0.00861943
-0.00936033
-0.0101188
-0.0108907
-0.0116716
-0.0124569
-0.0132418
-0.0140214
-0.014791
-0.0155457
-0.0162808
-0.0169915
-0.0176735
-0.0183222
-0.0189338
-0.0195042
-0.0200299
-0.0205077
-0.0209346
-0.0213079
-0.0216254
-0.0218853
-0.0220858
-0.022226
-0.0223051
-0.0223226
-0.0222785
-0.0221737
-0.0220087
-0.0217848
-0.0215039
-0.0211679
-0.0207796
-0.0203419
-0.0198581
-0.0193323
-0.0187686
-0.0181717
-0.0175467
-0.016899
-0.0162344
-0.0155589
-0.0148788
-0.0142007
-0.0135311
-0.0128764
-0.0122433
-0.011638
-0.0110663
-0.0105337
-0.010045
-0.00960429
-0.00921486
-0.00887898
-0.00859789
-0.00837177
-0.00819969
-0.00807966
-0.0080087
-0.00798291
-0.00799766
-0.0080477
-0.00812742
-0.008231
-0.0083526
-0.00848662
-0.00862777
-0.00877129
-0.00891302
-0.00904946
-0.00917783
-0.00929606
-0.00940276
-0.00949718
-0.00957912
-0.00964885
-0.00970706
-0.0097547
-0.00979292