/*--------------------------------*- C++ -*----------------------------------*\
| =========                 |                                                 |
| \\      /  F ield         | OpenFOAM: The Open Source CFD Toolbox           |
|  \\    /   O peration     | Version:  2112                                  |
|   \\  /    A nd           | Website:  www.openfoam.com                      |
|    \\/     M anipulation  |                                                 |
\*---------------------------------------------------------------------------*/
FoamFile
{
    version     2.0;
    format      ascii;
    arch        "LSB;label=32;scalar=64";
    class       surfaceScalarField;
    location    "37";
    object      phi;
}
// * * * * * * * * * * * * * * * * * * * * * * * * * * * * * * * * * * * * * //

dimensions      [0 3 -1 0 0 0 0];

oriented        oriented;

internalField   nonuniform List<scalar> 
33024
(
-3.73859e-09
3.7525e-09
2.29702e-08
-2.67098e-08
8.07562e-08
-5.77857e-08
1.61091e-07
-8.03338e-08
2.55289e-07
-9.41977e-08
3.55957e-07
-1.00669e-07
4.57173e-07
-1.01217e-07
5.54383e-07
-9.72098e-08
6.442e-07
-8.98177e-08
7.24211e-07
-8.00104e-08
7.92796e-07
-6.85864e-08
8.48989e-07
-5.61933e-08
8.92333e-07
-4.33442e-08
9.22763e-07
-3.04298e-08
9.40493e-07
-1.77295e-08
9.45917e-07
-5.42349e-09
9.39516e-07
6.40093e-09
9.21789e-07
1.77266e-08
8.93183e-07
2.86048e-08
8.5405e-07
3.91331e-08
8.04605e-07
4.94451e-08
7.44909e-07
5.96963e-08
6.74858e-07
7.00515e-08
5.94184e-07
8.06738e-08
5.02469e-07
9.17152e-08
3.9916e-07
1.03309e-07
2.83597e-07
1.15563e-07
1.55036e-07
1.28561e-07
1.2678e-08
1.42358e-07
-1.44303e-07
1.56981e-07
-3.16731e-07
1.72428e-07
-5.05407e-07
1.88676e-07
-7.11084e-07
2.05677e-07
-9.34444e-07
2.2336e-07
-1.17608e-06
2.41637e-07
-1.43648e-06
2.60399e-07
-1.716e-06
2.79521e-07
-2.01486e-06
2.98858e-07
-2.33311e-06
3.18251e-07
-2.67063e-06
3.37519e-07
-3.0271e-06
3.5647e-07
-3.40199e-06
3.74892e-07
-3.79455e-06
3.92561e-07
-4.20379e-06
4.09236e-07
-4.62846e-06
4.2467e-07
-5.06706e-06
4.38602e-07
-5.51783e-06
4.50768e-07
-5.97873e-06
4.60901e-07
-6.44746e-06
4.68732e-07
-6.92146e-06
4.73998e-07
-7.3979e-06
4.76444e-07
-7.87373e-06
4.75827e-07
-8.34565e-06
4.71918e-07
-8.81016e-06
4.64512e-07
-9.26359e-06
4.53427e-07
-9.70209e-06
4.38507e-07
-1.01217e-05
4.19634e-07
-1.05184e-05
3.96722e-07
-1.08882e-05
3.69727e-07
-1.12268e-05
3.38648e-07
-1.15304e-05
3.03533e-07
-1.17948e-05
2.64476e-07
-1.20165e-05
2.21626e-07
-1.21916e-05
1.75189e-07
-1.23171e-05
1.25449e-07
-1.23898e-05
7.27316e-08
-1.24073e-05
1.74343e-08
-1.23668e-05
-4.04632e-08
-1.22671e-05
-9.97462e-08
-1.21068e-05
-1.603e-07
-1.18853e-05
-2.21473e-07
-1.16026e-05
-2.82638e-07
-1.12595e-05
-3.43133e-07
-1.08572e-05
-4.02268e-07
-1.03979e-05
-4.59333e-07
-9.88429e-06
-5.13613e-07
-9.3199e-06
-5.64395e-07
-8.70892e-06
-6.10981e-07
-8.05621e-06
-6.52708e-07
-7.36725e-06
-6.88957e-07
-6.64808e-06
-7.1917e-07
-5.90522e-06
-7.42864e-07
-5.14557e-06
-7.59648e-07
-4.37634e-06
-7.69232e-07
-3.6049e-06
-7.71439e-07
-2.83869e-06
-7.66214e-07
-2.08505e-06
-7.5363e-07
-1.35117e-06
-7.33889e-07
-6.43849e-07
-7.07317e-07
3.05252e-08
-6.74375e-07
6.66228e-07
-6.35703e-07
1.25804e-06
-5.91815e-07
1.80162e-06
-5.43579e-07
2.29342e-06
-4.91795e-07
2.73076e-06
-4.37339e-07
3.11186e-06
-3.81102e-07
3.43584e-06
-3.2398e-07
3.70268e-06
-2.66848e-07
3.91322e-06
-2.10538e-07
4.06904e-06
-1.55821e-07
4.17243e-06
-1.0339e-07
4.22628e-06
-5.38431e-08
4.23396e-06
-7.68186e-09
4.19925e-06
3.47071e-08
4.12621e-06
7.30383e-08
4.01907e-06
1.07143e-07
3.88212e-06
1.36952e-07
3.71962e-06
1.62494e-07
3.53574e-06
1.83888e-07
3.33441e-06
2.01323e-07
3.11936e-06
2.15054e-07
2.89398e-06
2.25381e-07
2.66135e-06
2.32632e-07
2.4242e-06
2.37144e-07
2.18496e-06
2.39245e-07
1.94573e-06
2.39224e-07
1.70843e-06
2.37307e-07
1.4748e-06
2.33622e-07
1.24664e-06
2.28168e-07
1.02586e-06
2.20773e-07
8.1481e-07
2.11053e-07
6.16432e-07
1.98378e-07
4.34588e-07
1.81843e-07
2.74305e-07
1.60283e-07
1.41907e-07
1.32397e-07
4.47274e-08
9.71794e-08
-1.02671e-08
5.49946e-08
-2.08451e-08
1.05784e-08
-2.08445e-08
2.66044e-08
-2.28528e-08
1.1885e-07
-1.18954e-07
2.70479e-07
-2.09416e-07
4.67247e-07
-2.77102e-07
6.9317e-07
-3.20121e-07
9.33111e-07
-3.40609e-07
1.1739e-06
-3.42008e-07
1.40471e-06
-3.28019e-07
1.617e-06
-3.02108e-07
1.80433e-06
-2.67338e-07
1.96208e-06
-2.26336e-07
2.08718e-06
-1.81296e-07
2.17783e-06
-1.33994e-07
2.23321e-06
-8.58098e-08
2.25323e-06
-3.77525e-08
2.23831e-06
9.50222e-09
2.18912e-06
5.55878e-08
2.10645e-06
1.00401e-07
1.991e-06
1.44053e-07
1.8433e-06
1.86833e-07
1.66359e-06
2.29154e-07
1.45177e-06
2.71509e-07
1.2074e-06
3.14426e-07
9.29645e-07
3.58431e-07
6.17349e-07
4.04012e-07
2.6906e-07
4.51596e-07
-1.16905e-07
5.01528e-07
-5.42401e-07
5.54056e-07
-1.00937e-06
6.09329e-07
-1.51978e-06
6.67394e-07
-2.07555e-06
7.28198e-07
-2.67847e-06
7.91594e-07
-3.33014e-06
8.57349e-07
-4.03193e-06
9.25144e-07
-4.78488e-06
9.94587e-07
-5.58969e-06
1.06521e-06
-6.44665e-06
1.13648e-06
-7.3556e-06
1.2078e-06
-8.31586e-06
1.27851e-06
-9.32623e-06
1.34789e-06
-1.03849e-05
1.41517e-06
-1.14896e-05
1.47952e-06
-1.26371e-05
1.54008e-06
-1.38238e-05
1.59596e-06
-1.50454e-05
1.64622e-06
-1.62967e-05
1.68993e-06
-1.75721e-05
1.72615e-06
-1.88651e-05
1.75394e-06
-2.01688e-05
1.7724e-06
-2.14754e-05
1.78064e-06
-2.27768e-05
1.77786e-06
-2.40643e-05
1.7633e-06
-2.53287e-05
1.73627e-06
-2.65603e-05
1.69619e-06
-2.77495e-05
1.64258e-06
-2.8886e-05
1.57507e-06
-2.99598e-05
1.49343e-06
-3.09607e-05
1.39757e-06
-3.18785e-05
1.28753e-06
-3.27034e-05
1.16351e-06
-3.34257e-05
1.02589e-06
-3.40364e-05
8.7519e-07
-3.45269e-05
7.12121e-07
-3.48893e-05
5.37572e-07
-3.51165e-05
3.5266e-07
-3.52024e-05
1.58612e-07
-3.51419e-05
-4.30874e-08
-3.49305e-05
-2.51801e-07
-3.45657e-05
-4.64555e-07
-3.4046e-05
-6.79997e-07
-3.33714e-05
-8.96141e-07
-3.25431e-05
-1.11089e-06
-3.15642e-05
-1.32205e-06
-3.04391e-05
-1.52737e-06
-2.91739e-05
-1.72457e-06
-2.77761e-05
-1.91134e-06
-2.62551e-05
-2.08543e-06
-2.46214e-05
-2.24464e-06
-2.28873e-05
-2.38689e-06
-2.1066e-05
-2.51026e-06
-1.91721e-05
-2.613e-06
-1.72214e-05
-2.69363e-06
-1.52301e-05
-2.75093e-06
-1.32153e-05
-2.784e-06
-1.11945e-05
-2.79227e-06
-9.18512e-06
-2.77557e-06
-7.20466e-06
-2.73409e-06
-5.2701e-06
-2.66845e-06
-3.39777e-06
-2.57964e-06
-1.60308e-06
-2.46906e-06
9.96972e-08
-2.33848e-06
1.69788e-06
-2.18999e-06
3.18018e-06
-2.02588e-06
4.53721e-06
-1.84882e-06
5.76148e-06
-1.66161e-06
6.8475e-06
-1.46712e-06
7.79181e-06
-1.26829e-06
8.59299e-06
-1.06803e-06
9.2516e-06
-8.69143e-07
9.77007e-06
-6.74292e-07
1.01526e-05
-4.85908e-07
1.04049e-05
-3.06162e-07
1.05341e-05
-1.36919e-07
1.05486e-05
2.02932e-08
1.04573e-05
1.64292e-07
1.02702e-05
2.94256e-07
9.99743e-06
4.09711e-07
9.6494e-06
5.10517e-07
9.23645e-06
5.96842e-07
8.76865e-06
6.69126e-07
8.25566e-06
7.28041e-07
7.70661e-06
7.74435e-07
7.12996e-06
8.09277e-07
6.53351e-06
8.3359e-07
5.92439e-06
8.48373e-07
5.30909e-06
8.54517e-07
4.69369e-06
8.52711e-07
4.08397e-06
8.43338e-07
3.48577e-06
8.26368e-07
2.90529e-06
8.01249e-07
2.34954e-06
7.66811e-07
1.8267e-06
7.21209e-07
1.3466e-06
6.61947e-07
9.20817e-07
5.86068e-07
5.62478e-07
4.90736e-07
2.85071e-07
3.74585e-07
9.98116e-08
2.40253e-07
1.09813e-08
9.94077e-08
-9.86294e-09
5.7682e-08
-8.05347e-08
2.09519e-07
-2.7079e-07
4.37144e-07
-4.3704e-07
7.20673e-07
-5.60633e-07
1.03948e-06
-6.3893e-07
1.37395e-06
-6.75079e-07
1.70658e-06
-6.74642e-07
2.02252e-06
-6.43959e-07
2.30967e-06
-5.89257e-07
2.55858e-06
-5.16249e-07
2.76221e-06
-4.29962e-07
2.91559e-06
-3.34679e-07
3.01552e-06
-2.33921e-07
3.06017e-06
-1.30461e-07
3.04878e-06
-2.6363e-08
2.98132e-06
7.69651e-08
2.85818e-06
1.78727e-07
2.67994e-06
2.78641e-07
2.44713e-06
3.76865e-07
2.16005e-06
4.73909e-07
1.81867e-06
5.70536e-07
1.42251e-06
6.6767e-07
9.70624e-07
7.6631e-07
4.61607e-07
8.67447e-07
-1.06384e-07
9.72003e-07
-7.35552e-07
1.08076e-06
-1.42837e-06
1.19435e-06
-2.1875e-06
1.31319e-06
-3.01565e-06
1.43748e-06
-3.91549e-06
1.56723e-06
-4.8895e-06
1.70221e-06
-5.93991e-06
1.84201e-06
-7.06859e-06
1.98602e-06
-8.27689e-06
2.13345e-06
-9.56565e-06
2.28335e-06
-1.0935e-05
2.4346e-06
-1.23845e-05
2.58596e-06
-1.39128e-05
2.73604e-06
-1.55176e-05
2.88333e-06
-1.71959e-05
3.02621e-06
-1.89437e-05
3.16295e-06
-2.07559e-05
3.29176e-06
-2.26266e-05
3.41077e-06
-2.45487e-05
3.51805e-06
-2.65141e-05
3.61169e-06
-2.8514e-05
3.68974e-06
-3.05381e-05
3.7503e-06
-3.25757e-05
3.79154e-06
-3.4615e-05
3.8117e-06
-3.66435e-05
3.80914e-06
-3.8648e-05
3.78236e-06
-4.06148e-05
3.73005e-06
-4.25296e-05
3.65106e-06
-4.43779e-05
3.54449e-06
-4.6145e-05
3.40967e-06
-4.78161e-05
3.24619e-06
-4.93765e-05
3.05391e-06
-5.0812e-05
2.83299e-06
-5.21083e-05
2.58387e-06
-5.32521e-05
2.30732e-06
-5.42306e-05
2.00441e-06
-5.5032e-05
1.67653e-06
-5.56452e-05
1.32538e-06
-5.60607e-05
9.52996e-07
-5.62698e-05
5.6182e-07
-5.62663e-05
1.55114e-07
-5.60431e-05
-2.66358e-07
-5.55972e-05
-6.97622e-07
-5.49264e-05
-1.13535e-06
-5.40304e-05
-1.57607e-06
-5.29106e-05
-2.01594e-06
-5.15706e-05
-2.4509e-06
-5.00159e-05
-2.87677e-06
-4.82539e-05
-3.28928e-06
-4.62944e-05
-3.68412e-06
-4.41487e-05
-4.05703e-06
-4.18304e-05
-4.40378e-06
-3.93547e-05
-4.72033e-06
-3.67387e-05
-5.00284e-06
-3.40012e-05
-5.24776e-06
-3.11623e-05
-5.45191e-06
-2.82434e-05
-5.61252e-06
-2.5267e-05
-5.72735e-06
-2.22563e-05
-5.79471e-06
-1.9235e-05
-5.81354e-06
-1.62271e-05
-5.78344e-06
-1.32565e-05
-5.70474e-06
-1.03465e-05
-5.57845e-06
-7.51974e-06
-5.40637e-06
-4.79784e-06
-5.19096e-06
-2.20091e-06
-4.93541e-06
2.52607e-07
-4.64351e-06
2.54635e-06
-4.31963e-06
4.66603e-06
-3.9685e-06
6.59991e-06
-3.59549e-06
8.33878e-06
-3.206e-06
9.87613e-06
-2.80563e-06
1.12081e-05
-2.40004e-06
1.23337e-05
-1.99473e-06
1.32544e-05
-1.59498e-06
1.39742e-05
-1.20574e-06
1.44996e-05
-8.31484e-07
1.48388e-05
-4.76175e-07
1.50023e-05
-1.43161e-07
1.50017e-05
1.6485e-07
1.48501e-05
4.45842e-07
1.45614e-05
6.98456e-07
1.41499e-05
9.22004e-07
1.36303e-05
1.11642e-06
1.30172e-05
1.2822e-06
1.2325e-05
1.42032e-06
1.15672e-05
1.53217e-06
1.07571e-05
1.61939e-06
9.90693e-06
1.68378e-06
9.02817e-06
1.72713e-06
8.13162e-06
1.75106e-06
7.2275e-06
1.75684e-06
6.32568e-06
1.74516e-06
5.43605e-06
1.71599e-06
4.56895e-06
1.66835e-06
3.73556e-06
1.6002e-06
2.94839e-06
1.50838e-06
2.2216e-06
1.38873e-06
1.57105e-06
1.23661e-06
1.01386e-06
1.04793e-06
5.67095e-07
8.21352e-07
2.45395e-07
5.61953e-07
5.71658e-08
2.87636e-07
4.73029e-08
8.06099e-08
-1.61145e-07
2.78531e-07
-4.68711e-07
5.63223e-07
-7.21732e-07
9.08193e-07
-9.05603e-07
1.28865e-06
-1.01938e-06
1.68178e-06
-1.06821e-06
2.06732e-06
-1.06018e-06
2.42784e-06
-1.00448e-06
2.74891e-06
-9.10325e-07
3.01897e-06
-7.86315e-07
3.22916e-06
-6.40155e-07
3.37298e-06
-4.78495e-07
3.44593e-06
-3.06866e-07
3.44514e-06
-1.29675e-07
3.36901e-06
4.97665e-08
3.2168e-06
2.29172e-07
2.98833e-06
4.07197e-07
2.68365e-06
5.83322e-07
2.30279e-06
7.57723e-07
1.84557e-06
9.31129e-07
1.31143e-06
1.10468e-06
6.99352e-07
1.27975e-06
7.79952e-09
1.45786e-06
-7.65248e-07
1.64049e-06
-1.62225e-06
1.82901e-06
-2.56603e-06
2.02454e-06
-3.59964e-06
2.22796e-06
-4.72623e-06
2.43978e-06
-5.94892e-06
2.66017e-06
-7.27064e-06
2.88894e-06
-8.69397e-06
3.12554e-06
-1.0221e-05
3.36905e-06
-1.18532e-05
3.61826e-06
-1.35914e-05
3.87163e-06
-1.54354e-05
4.12736e-06
-1.73842e-05
4.38338e-06
-1.94356e-05
4.63738e-06
-2.15864e-05
4.88685e-06
-2.38322e-05
5.12909e-06
-2.61672e-05
5.36123e-06
-2.85845e-05
5.58026e-06
-3.10759e-05
5.78309e-06
-3.36316e-05
5.96655e-06
-3.62411e-05
6.12746e-06
-3.8892e-05
6.26265e-06
-4.15713e-05
6.36902e-06
-4.42646e-05
6.44359e-06
-4.69566e-05
6.48354e-06
-4.96311e-05
6.48625e-06
-5.22713e-05
6.44934e-06
-5.48597e-05
6.37076e-06
-5.73784e-05
6.24875e-06
-5.98093e-05
6.08194e-06
-6.21342e-05
5.86934e-06
-6.43349e-05
5.61038e-06
-6.63936e-05
5.30494e-06
-6.82931e-05
4.95334e-06
-7.00164e-05
4.55635e-06
-7.15478e-05
4.11522e-06
-7.28721e-05
3.63168e-06
-7.39756e-05
3.10789e-06
-7.48456e-05
2.54652e-06
-7.54709e-05
1.95066e-06
-7.58417e-05
1.32383e-06
-7.59495e-05
6.6965e-07
-7.5791e-05
-3.41039e-09
-7.53565e-05
-7.00844e-07
-7.46468e-05
-1.40736e-06
-7.36606e-05
-2.12148e-06
-7.23995e-05
-2.83722e-06
-7.08669e-05
-3.54855e-06
-6.90685e-05
-4.24928e-06
-6.70122e-05
-4.93308e-06
-6.47079e-05
-5.59352e-06
-6.21679e-05
-6.22415e-06
-5.94064e-05
-6.8186e-06
-5.64395e-05
-7.37061e-06
-5.32857e-05
-7.87419e-06
-4.99649e-05
-8.32363e-06
-4.6499e-05
-8.71367e-06
-4.29113e-05
-9.03958e-06
-3.92266e-05
-9.29724e-06
-3.54707e-05
-9.48325e-06
-3.16703e-05
-9.59505e-06
-2.78529e-05
-9.63095e-06
-2.40461e-05
-9.59024e-06
-2.02776e-05
-9.47324e-06
-1.65747e-05
-9.28134e-06
-1.29641e-05
-9.01699e-06
-9.47139e-06
-8.6837e-06
-6.12078e-06
-8.28603e-06
-2.9348e-06
-7.82949e-06
6.60403e-08
-7.32047e-06
2.86375e-06
-6.76621e-06
5.44262e-06
-6.17437e-06
7.78993e-06
-5.5533e-06
9.89587e-06
-4.91157e-06
1.17537e-05
-4.25786e-06
1.33597e-05
-3.60078e-06
1.47135e-05
-2.94872e-06
1.58173e-05
-2.3096e-06
1.66766e-05
-1.69078e-06
1.72993e-05
-1.09887e-06
1.76958e-05
-5.39618e-07
1.78785e-05
-1.78417e-08
1.78616e-05
4.6269e-07
1.76609e-05
8.99198e-07
1.72929e-05
1.28997e-06
1.67751e-05
1.63426e-06
1.6125e-05
1.93227e-06
1.53604e-05
2.18498e-06
1.44985e-05
2.39407e-06
1.35561e-05
2.56171e-06
1.25495e-05
2.69037e-06
1.14941e-05
2.78256e-06
1.04045e-05
2.84063e-06
9.29497e-06
2.86642e-06
8.17914e-06
2.86099e-06
7.07079e-06
2.82434e-06
5.984e-06
2.75514e-06
4.93363e-06
2.65057e-06
3.93572e-06
2.50629e-06
3.00776e-06
2.3167e-06
2.16873e-06
2.07564e-06
1.43878e-06
1.77788e-06
8.38388e-07
1.42175e-06
3.87092e-07
1.01325e-06
1.02248e-07
5.72479e-07
1.49551e-07
9.53651e-08
-2.5651e-07
3.24235e-07
-6.97582e-07
6.4627e-07
-1.04377e-06
1.02875e-06
-1.28808e-06
1.44299e-06
-1.43362e-06
1.86359e-06
-1.48881e-06
2.26829e-06
-1.46489e-06
2.63801e-06
-1.3742e-06
2.95678e-06
-1.22909e-06
3.21163e-06
-1.04117e-06
3.3924e-06
-8.20927e-07
3.49139e-06
-5.77485e-07
3.50302e-06
-3.18496e-07
3.42344e-06
-5.00967e-08
3.25015e-06
2.23059e-07
2.98159e-06
4.97731e-07
2.61681e-06
7.71975e-07
2.15514e-06
1.04499e-06
1.59591e-06
1.31695e-06
9.38253e-07
1.58879e-06
1.80934e-07
1.862e-06
-6.77728e-07
2.13841e-06
-1.6399e-06
2.42003e-06
-2.70819e-06
2.70879e-06
-3.88562e-06
3.00643e-06
-5.17544e-06
3.31437e-06
-6.58106e-06
3.63357e-06
-8.10581e-06
3.96454e-06
-9.75284e-06
4.3072e-06
-1.15249e-05
4.66097e-06
-1.34241e-05
5.02472e-06
-1.54518e-05
5.39679e-06
-1.76086e-05
5.77505e-06
-1.98939e-05
6.15693e-06
-2.23059e-05
6.53942e-06
-2.48417e-05
6.91917e-06
-2.74968e-05
7.29249e-06
-3.02654e-05
7.6554e-06
-3.314e-05
8.00369e-06
-3.61117e-05
8.33295e-06
-3.91701e-05
8.63863e-06
-4.23031e-05
8.91611e-06
-4.54973e-05
9.16076e-06
-4.87379e-05
9.36798e-06
-5.20085e-05
9.53331e-06
-5.5292e-05
9.65248e-06
-5.85698e-05
9.72147e-06
-6.18229e-05
9.73658e-06
-6.50312e-05
9.69452e-06
-6.81742e-05
9.59242e-06
-7.12314e-05
9.42791e-06
-7.41818e-05
9.19915e-06
-7.70047e-05
8.90488e-06
-7.96798e-05
8.54442e-06
-8.21871e-05
8.11771e-06
-8.45075e-05
7.62531e-06
-8.66226e-05
7.06841e-06
-8.85151e-05
6.44882e-06
-9.01688e-05
5.76896e-06
-9.1569e-05
5.03187e-06
-9.27023e-05
4.24118e-06
-9.35569e-05
3.40109e-06
-9.41225e-05
2.51633e-06
-9.43909e-05
1.5922e-06
-9.43559e-05
6.34643e-07
-9.40096e-05
-3.49709e-07
-9.33542e-05
-1.35628e-06
-9.23857e-05
-2.37578e-06
-9.1106e-05
-3.40127e-06
-8.95181e-05
-4.42508e-06
-8.76275e-05
-5.43918e-06
-8.54415e-05
-6.43527e-06
-8.29696e-05
-7.40492e-06
-8.02235e-05
-8.33961e-06
-7.72169e-05
-9.23083e-06
-7.39653e-05
-1.00701e-05
-7.04866e-05
-1.08493e-05
-6.68004e-05
-1.15604e-05
-6.29282e-05
-1.21958e-05
-5.88932e-05
-1.27487e-05
-5.47201e-05
-1.32126e-05
-5.04352e-05
-1.35821e-05
-4.6066e-05
-1.38525e-05
-4.16407e-05
-1.40203e-05
-3.71887e-05
-1.4083e-05
-3.27395e-05
-1.40394e-05
-2.8323e-05
-1.38897e-05
-2.39688e-05
-1.36355e-05
-1.97062e-05
-1.32797e-05
-1.55633e-05
-1.28266e-05
-1.15673e-05
-1.2282e-05
-7.74384e-06
-1.1653e-05
-4.11645e-06
-1.09479e-05
-7.06648e-07
-1.0176e-05
2.46673e-06
-9.34774e-06
5.38753e-06
-8.4741e-06
8.04262e-06
-7.56666e-06
1.04221e-05
-6.63728e-06
1.25191e-05
-5.69786e-06
1.43305e-05
-4.76008e-06
1.58561e-05
-3.83519e-06
1.70991e-05
-2.93376e-06
1.80657e-05
-2.06548e-06
1.8765e-05
-1.23896e-06
1.92088e-05
-4.61619e-07
1.9411e-05
2.60476e-07
1.93876e-05
9.22637e-07
1.9156e-05
1.52158e-06
1.87348e-05
2.05539e-06
1.81436e-05
2.5235e-06
1.74021e-05
2.92648e-06
1.65302e-05
3.26593e-06
1.55477e-05
3.54421e-06
1.44739e-05
3.76422e-06
1.33274e-05
3.92902e-06
1.21265e-05
4.04153e-06
1.08888e-05
4.10411e-06
9.63165e-06
4.11816e-06
8.37221e-06
4.08377e-06
7.12799e-06
3.99937e-06
5.91706e-06
3.8615e-06
4.75849e-06
3.66486e-06
3.67259e-06
3.40259e-06
2.68108e-06
3.06715e-06
1.80704e-06
2.65192e-06
1.07481e-06
2.15398e-06
5.10015e-07
1.57804e-06
1.404e-07
9.42094e-07
2.89951e-07
1.03208e-07
-3.59718e-07
3.48523e-07
-9.42897e-07
6.88712e-07
-1.38396e-06
1.08598e-06
-1.68535e-06
1.50833e-06
-1.85596e-06
1.92817e-06
-1.90866e-06
2.32179e-06
-1.8585e-06
2.66895e-06
-1.72136e-06
2.95272e-06
-1.51286e-06
3.15923e-06
-1.24768e-06
3.27742e-06
-9.39115e-07
3.2987e-06
-5.98768e-07
3.21661e-06
-2.36409e-07
3.02643e-06
1.40085e-07
2.72478e-06
5.24716e-07
2.30923e-06
9.13279e-07
1.77798e-06
1.30322e-06
1.12952e-06
1.69345e-06
3.62365e-07
2.08411e-06
-5.25165e-07
2.47632e-06
-1.53506e-06
2.87189e-06
-2.6697e-06
3.27306e-06
-3.93189e-06
3.68222e-06
-5.32478e-06
4.10168e-06
-6.85176e-06
4.53342e-06
-8.51637e-06
4.97897e-06
-1.0322e-05
5.43925e-06
-1.2272e-05
5.91447e-06
-1.43689e-05
6.40411e-06
-1.66148e-05
6.9069e-06
-1.90109e-05
7.42084e-06
-2.15574e-05
7.94321e-06
-2.42529e-05
8.47064e-06
-2.70952e-05
8.99916e-06
-3.008e-05
9.52426e-06
-3.32018e-05
1.0041e-05
-3.64531e-05
1.05438e-05
-3.9825e-05
1.10272e-05
-4.33064e-05
1.14851e-05
-4.68848e-05
1.19113e-05
-5.05458e-05
1.22997e-05
-5.42735e-05
1.26438e-05
-5.80505e-05
1.29377e-05
-6.18579e-05
1.31754e-05
-6.56757e-05
1.33511e-05
-6.94828e-05
1.34597e-05
-7.32576e-05
1.34962e-05
-7.69775e-05
1.34565e-05
-8.06199e-05
1.33369e-05
-8.41618e-05
1.31344e-05
-8.75807e-05
1.28468e-05
-9.0854e-05
1.24725e-05
-9.39601e-05
1.20109e-05
-9.68777e-05
1.14621e-05
-9.95868e-05
1.08268e-05
-0.000102068
1.01069e-05
-0.000104305
9.30458e-06
-0.000106279
8.42316e-06
-0.000107976
7.46649e-06
-0.000109384
6.43917e-06
-0.000110489
5.34642e-06
-0.000111282
4.19414e-06
-0.000111754
2.9888e-06
-0.0001119
1.73746e-06
-0.000111713
4.47971e-07
-0.00011119
-8.7229e-07
-0.000110332
-2.21458e-06
-0.000109138
-3.56967e-06
-0.000107611
-4.92825e-06
-0.000105756
-6.2807e-06
-0.000103578
-7.61704e-06
-0.000101086
-8.92707e-06
-9.82905e-05
-1.02004e-05
-9.52035e-05
-1.14266e-05
-9.18391e-05
-1.25952e-05
-8.82133e-05
-1.36959e-05
-8.43442e-05
-1.47184e-05
-8.02515e-05
-1.56531e-05
-7.59569e-05
-1.64905e-05
-7.14836e-05
-1.72219e-05
-6.68568e-05
-1.78395e-05
-6.21029e-05
-1.83361e-05
-5.72497e-05
-1.87058e-05
-5.23261e-05
-1.89439e-05
-4.7362e-05
-1.9047e-05
-4.23881e-05
-1.90134e-05
-3.74352e-05
-1.88426e-05
-3.25344e-05
-1.85363e-05
-2.77165e-05
-1.80976e-05
-2.30117e-05
-1.75314e-05
-1.84493e-05
-1.68444e-05
-1.40573e-05
-1.6045e-05
-9.86186e-06
-1.51433e-05
-5.88739e-06
-1.41505e-05
-2.15579e-06
-1.30793e-05
1.31367e-06
-1.19436e-05
4.5046e-06
-1.07576e-05
7.40377e-06
-9.53645e-06
1.00012e-05
-8.29531e-06
1.22904e-05
-7.0493e-06
1.42684e-05
-5.8131e-06
1.59353e-05
-4.60075e-06
1.72951e-05
-3.42528e-06
1.83547e-05
-2.29852e-06
1.9124e-05
-1.23089e-06
1.96156e-05
-2.31195e-07
1.98448e-05
6.93469e-07
1.98286e-05
1.53776e-06
1.95859e-05
2.29808e-06
1.91369e-05
2.97258e-06
1.85024e-05
3.56093e-06
1.77041e-05
4.0642e-06
1.67638e-05
4.48456e-06
1.57031e-05
4.82495e-06
1.45434e-05
5.0887e-06
1.33059e-05
5.27907e-06
1.20112e-05
5.3988e-06
1.06798e-05
5.44957e-06
9.33199e-06
5.43155e-06
7.98836e-06
5.343e-06
6.66987e-06
5.18e-06
5.39832e-06
4.93641e-06
4.19666e-06
4.60425e-06
3.08929e-06
4.17452e-06
2.1024e-06
3.6388e-06
1.26459e-06
2.99179e-06
6.07897e-07
2.23474e-06
1.70027e-07
1.37996e-06
4.59978e-07
1.05416e-07
-4.65134e-07
3.54113e-07
-1.1916e-06
6.94542e-07
-1.72439e-06
1.08528e-06
-2.07609e-06
1.49175e-06
-2.26244e-06
1.88474e-06
-2.30165e-06
2.23946e-06
-2.21322e-06
2.53496e-06
-2.01686e-06
2.75373e-06
-1.73162e-06
2.88135e-06
-1.37531e-06
2.9062e-06
-9.63963e-07
2.81905e-06
-5.11623e-07
2.61276e-06
-3.011e-08
2.28181e-06
4.71027e-07
1.82203e-06
9.84499e-07
1.23013e-06
1.50518e-06
5.03426e-07
2.02992e-06
-3.6049e-07
2.55737e-06
-1.36398e-06
3.0876e-06
-2.50957e-06
3.6219e-06
-3.80001e-06
4.16233e-06
-5.23838e-06
4.71143e-06
-6.82805e-06
5.27188e-06
-8.57255e-06
5.84618e-06
-1.04755e-05
6.43637e-06
-1.25404e-05
7.04387e-06
-1.47704e-05
7.66926e-06
-1.71682e-05
8.31222e-06
-1.97355e-05
8.97144e-06
-2.24732e-05
9.64464e-06
-2.5381e-05
1.03286e-05
-2.8457e-05
1.10192e-05
-3.16978e-05
1.17114e-05
-3.50983e-05
1.23997e-05
-3.86515e-05
1.30775e-05
-4.23486e-05
1.37381e-05
-4.61788e-05
1.4374e-05
-5.01292e-05
1.49776e-05
-5.41851e-05
1.5541e-05
-5.833e-05
1.60562e-05
-6.25456e-05
1.65153e-05
-6.68122e-05
1.69104e-05
-7.11086e-05
1.72341e-05
-7.54124e-05
1.74791e-05
-7.97003e-05
1.76391e-05
-8.39486e-05
1.77079e-05
-8.81328e-05
1.76804e-05
-9.22285e-05
1.75522e-05
-9.62114e-05
1.73198e-05
-0.000100058
1.69806e-05
-0.000103744
1.65329e-05
-0.000107247
1.59761e-05
-0.000110547
1.53104e-05
-0.000113622
1.45371e-05
-0.000116454
1.36584e-05
-0.000119024
1.26773e-05
-0.000121317
1.15977e-05
-0.000123318
1.04243e-05
-0.000125014
9.16271e-06
-0.000126394
7.81901e-06
-0.000127448
6.40013e-06
-0.000128167
4.91356e-06
-0.000128546
3.36743e-06
-0.000128579
1.77037e-06
-0.000128263
1.32227e-07
-0.000127596
-1.53904e-06
-0.000126579
-3.23175e-06
-0.000125213
-4.93572e-06
-0.000123502
-6.63999e-06
-0.000121449
-8.33321e-06
-0.000119062
-1.00037e-05
-0.00011635
-1.16396e-05
-0.000113321
-1.32288e-05
-0.000109989
-1.4759e-05
-0.000106366
-1.6218e-05
-0.000102469
-1.75936e-05
-9.83132e-05
-1.88738e-05
-9.39192e-05
-2.00471e-05
-8.93075e-05
-2.11022e-05
-8.45007e-05
-2.20287e-05
-7.95233e-05
-2.28169e-05
-7.44011e-05
-2.34582e-05
-6.91617e-05
-2.39451e-05
-6.3834e-05
-2.42716e-05
-5.84479e-05
-2.44331e-05
-5.30344e-05
-2.44269e-05
-4.76249e-05
-2.42521e-05
-4.22515e-05
-2.39097e-05
-3.69462e-05
-2.34029e-05
-3.17407e-05
-2.27369e-05
-2.66661e-05
-2.1919e-05
-2.17524e-05
-2.09587e-05
-1.70284e-05
-1.98673e-05
-1.25208e-05
-1.8658e-05
-8.25457e-06
-1.73456e-05
-4.25189e-06
-1.59462e-05
-5.3233e-07
-1.44772e-05
2.88763e-06
-1.29564e-05
5.99473e-06
-1.14024e-05
8.77915e-06
-9.83371e-06
1.12346e-05
-8.26854e-06
1.33583e-05
-6.72447e-06
1.51511e-05
-5.21811e-06
1.66173e-05
-3.76474e-06
1.77645e-05
-2.37809e-06
1.86034e-05
-1.07006e-06
1.91475e-05
1.49384e-07
1.94128e-05
1.27246e-06
1.94175e-05
2.29337e-06
1.91816e-05
3.20849e-06
1.87264e-05
4.0161e-06
1.80744e-05
4.71626e-06
1.72484e-05
5.31048e-06
1.6272e-05
5.80134e-06
1.51687e-05
6.19206e-06
1.39618e-05
6.48599e-06
1.26746e-05
6.68599e-06
1.13302e-05
6.79389e-06
9.95187e-06
6.80991e-06
8.56271e-06
6.73216e-06
7.18642e-06
6.55629e-06
5.84739e-06
6.27544e-06
4.57114e-06
5.8805e-06
3.38481e-06
5.36085e-06
2.31787e-06
4.70574e-06
1.4032e-06
3.90647e-06
6.78864e-07
2.95907e-06
1.91047e-07
1.86778e-06
6.51025e-07
1.03024e-07
-5.68158e-07
3.43576e-07
-1.43215e-06
6.67817e-07
-2.04863e-06
1.03211e-06
-2.44038e-06
1.40025e-06
-2.63058e-06
1.74197e-06
-2.64337e-06
2.03186e-06
-2.50312e-06
2.24863e-06
-2.23363e-06
2.37452e-06
-1.85751e-06
2.39486e-06
-1.39565e-06
2.29771e-06
-8.66808e-07
2.07341e-06
-2.87327e-07
1.71427e-06
3.2903e-07
1.21415e-06
9.71153e-07
5.68089e-07
1.63056e-06
-2.28e-07
2.30127e-06
-1.17768e-06
2.97961e-06
-2.28426e-06
3.66394e-06
-3.55096e-06
4.35431e-06
-4.98112e-06
5.05207e-06
-6.57825e-06
5.75946e-06
-8.34601e-06
6.47919e-06
-1.02882e-05
7.21404e-06
-1.24085e-05
7.96649e-06
-1.47105e-05
8.73839e-06
-1.71974e-05
9.53074e-06
-1.98716e-05
1.03435e-05
-2.27347e-05
1.11754e-05
-2.57872e-05
1.2024e-05
-2.90282e-05
1.28856e-05
-3.24551e-05
1.37555e-05
-3.60636e-05
1.46277e-05
-3.98474e-05
1.54953e-05
-4.37984e-05
1.63506e-05
-4.79061e-05
1.71852e-05
-5.21579e-05
1.79899e-05
-5.65393e-05
1.87553e-05
-6.10334e-05
1.94718e-05
-6.56219e-05
2.01294e-05
-7.02842e-05
2.07185e-05
-7.49984e-05
2.12295e-05
-7.97412e-05
2.16533e-05
-8.44885e-05
2.19813e-05
-8.9215e-05
2.22057e-05
-9.38953e-05
2.23193e-05
-9.85035e-05
2.23161e-05
-0.000103014
2.2191e-05
-0.000107402
2.194e-05
-0.000111642
2.15602e-05
-0.000115712
2.10499e-05
-0.000119587
2.04085e-05
-0.000123248
1.96365e-05
-0.000126673
1.87357e-05
-0.000129845
1.77087e-05
-0.000132745
1.65592e-05
-0.00013536
1.52919e-05
-0.000137675
1.39122e-05
-0.000139677
1.24265e-05
-0.000141356
1.08417e-05
-0.000142702
9.16554e-06
-0.000143708
7.40646e-06
-0.000144368
5.57339e-06
-0.000144677
3.67583e-06
-0.00014463
1.72384e-06
-0.000144226
-2.71688e-07
-0.000143464
-2.30083e-06
-0.000142345
-4.35107e-06
-0.00014087
-6.41075e-06
-0.000139043
-8.46754e-06
-0.000136867
-1.05087e-05
-0.00013435
-1.25211e-05
-0.000131498
-1.44915e-05
-0.000128321
-1.6406e-05
-0.000124829
-1.82509e-05
-0.000121035
-2.00122e-05
-0.000116952
-2.1676e-05
-0.000112597
-2.32286e-05
-0.000107988
-2.46565e-05
-0.000103143
-2.59467e-05
-9.80852e-05
-2.70869e-05
-9.28366e-05
-2.80655e-05
-8.74227e-05
-2.88721e-05
-8.18702e-05
-2.94976e-05
-7.62075e-05
-2.99343e-05
-7.04643e-05
-3.01763e-05
-6.46716e-05
-3.02196e-05
-5.88614e-05
-3.00623e-05
-5.30663e-05
-2.97047e-05
-4.73195e-05
-2.91497e-05
-4.1654e-05
-2.84024e-05
-3.61027e-05
-2.74704e-05
-3.06974e-05
-2.63639e-05
-2.54693e-05
-2.50954e-05
-2.04477e-05
-2.36796e-05
-1.56601e-05
-2.21331e-05
-1.11319e-05
-2.04745e-05
-6.88564e-06
-1.87234e-05
-2.94105e-06
-1.6901e-05
6.85331e-07
-1.50288e-05
3.98035e-06
-1.31287e-05
6.93441e-06
-1.12226e-05
9.54156e-06
-9.33162e-06
1.17995e-05
-7.47608e-06
1.37097e-05
-5.6749e-06
1.5277e-05
-3.94536e-06
1.65097e-05
-2.30275e-06
1.74192e-05
-7.60185e-07
1.80201e-05
6.71606e-07
1.83292e-05
1.9843e-06
1.83656e-05
3.172e-06
1.81506e-05
4.23115e-06
1.77066e-05
5.1603e-06
1.70572e-05
5.95984e-06
1.6227e-05
6.63156e-06
1.52408e-05
7.1782e-06
1.4124e-05
7.60281e-06
1.29019e-05
7.90814e-06
1.15998e-05
8.09596e-06
1.02433e-05
8.1664e-06
8.85812e-06
8.11736e-06
7.47032e-06
7.94409e-06
6.1068e-06
7.63896e-06
4.79562e-06
7.19168e-06
3.56669e-06
6.58978e-06
2.4527e-06
5.81974e-06
1.49052e-06
4.86864e-06
7.2339e-07
3.7262e-06
2.03959e-07
2.38721e-06
8.54984e-07
9.67651e-08
-6.64923e-07
3.18943e-07
-1.65432e-06
6.11966e-07
-2.34165e-06
9.31273e-07
-2.75968e-06
1.23998e-06
-2.93929e-06
1.50745e-06
-2.91084e-06
1.70817e-06
-2.70384e-06
1.82085e-06
-2.34631e-06
1.8278e-06
-1.86446e-06
1.71436e-06
-1.28221e-06
1.46846e-06
-6.20907e-07
1.0802e-06
1.00934e-07
5.41459e-07
8.67767e-07
-1.5445e-07
1.66706e-06
-1.01316e-06
2.48926e-06
-2.03952e-06
3.32764e-06
-3.23795e-06
4.17803e-06
-4.61258e-06
5.03856e-06
-6.16746e-06
5.90919e-06
-7.90667e-06
6.79128e-06
-9.83433e-06
7.68712e-06
-1.19545e-05
8.59939e-06
-1.42712e-05
9.53076e-06
-1.67882e-05
1.04834e-05
-1.95084e-05
1.14586e-05
-2.24344e-05
1.24567e-05
-2.55675e-05
1.34766e-05
-2.89078e-05
1.45156e-05
-3.24538e-05
1.55699e-05
-3.62022e-05
1.6634e-05
-4.01479e-05
1.77011e-05
-4.42834e-05
1.87632e-05
-4.85993e-05
1.98112e-05
-5.30835e-05
2.08349e-05
-5.7722e-05
2.18237e-05
-6.24984e-05
2.27662e-05
-6.7394e-05
2.3651e-05
-7.23884e-05
2.44662e-05
-7.74593e-05
2.52003e-05
-8.25827e-05
2.5842e-05
-8.77338e-05
2.63806e-05
-9.28865e-05
2.6806e-05
-9.80143e-05
2.71091e-05
-0.00010309
2.72817e-05
-0.000108088
2.73169e-05
-0.000112981
2.72089e-05
-0.000117743
2.69534e-05
-0.00012235
2.65472e-05
-0.000126779
2.59886e-05
-0.000131006
2.52772e-05
-0.000135011
2.44138e-05
-0.000138775
2.34007e-05
-0.000142281
2.22409e-05
-0.000145511
2.09389e-05
-0.000148451
1.94999e-05
-0.000151089
1.79301e-05
-0.000153414
1.62364e-05
-0.000155414
1.44267e-05
-0.000157082
1.25094e-05
-0.000158409
1.04933e-05
-0.000159391
8.38821e-06
-0.000160022
6.20412e-06
-0.000160298
3.95168e-06
-0.000160216
1.64204e-06
-0.000159774
-7.13178e-07
-0.000158973
-3.10234e-06
-0.000157812
-5.5125e-06
-0.000156292
-7.93076e-06
-0.000154415
-1.03437e-05
-0.000152187
-1.27374e-05
-0.00014961
-1.50976e-05
-0.000146692
-1.74096e-05
-0.00014344
-1.96582e-05
-0.000139862
-2.18283e-05
-0.00013597
-2.39042e-05
-0.000131776
-2.58704e-05
-0.000127293
-2.77114e-05
-0.000122538
-2.94117e-05
-0.000117528
-3.09565e-05
-0.000112284
-3.23314e-05
-0.000106826
-3.3523e-05
-0.000101179
-3.45188e-05
-9.53694e-05
-3.53077e-05
-8.94235e-05
-3.58802e-05
-8.33713e-05
-3.62286e-05
-7.72435e-05
-3.63474e-05
-7.10724e-05
-3.62334e-05
-6.48914e-05
-3.58858e-05
-5.87344e-05
-3.53066e-05
-5.2636e-05
-3.45007e-05
-4.66307e-05
-3.34758e-05
-4.07524e-05
-3.22422e-05
-3.50345e-05
-3.08133e-05
-2.9509e-05
-2.92051e-05
-2.42062e-05
-2.74359e-05
-1.91544e-05
-2.55263e-05
-1.43793e-05
-2.34985e-05
-9.90393e-06
-2.13764e-05
-5.74813e-06
-1.91846e-05
-1.92837e-06
-1.69485e-05
1.54245e-06
-1.46934e-05
4.65515e-06
-1.24443e-05
7.40429e-06
-1.02252e-05
9.78828e-06
-8.05889e-06
1.18092e-05
-5.96631e-06
1.34729e-05
-3.9664e-06
1.47884e-05
-2.07573e-06
1.57683e-05
-3.08273e-07
1.64279e-05
1.32473e-06
1.67851e-05
2.81474e-06
1.68604e-05
4.1559e-06
1.66758e-05
5.34484e-06
1.62553e-05
6.38039e-06
1.56237e-05
7.26311e-06
1.48071e-05
7.99484e-06
1.38319e-05
8.57798e-06
1.27252e-05
9.01486e-06
1.15142e-05
9.30695e-06
1.02265e-05
9.4541e-06
8.88999e-06
9.45387e-06
7.53308e-06
9.301e-06
6.18498e-06
8.98706e-06
4.87626e-06
8.50041e-06
3.63948e-06
7.82655e-06
2.51033e-06
6.94889e-06
1.52917e-06
5.8498e-06
7.43202e-07
4.51217e-06
2.09505e-07
2.92091e-06
1.06449e-06
8.71137e-08
-7.52037e-07
2.8167e-07
-1.84888e-06
5.2961e-07
-2.58959e-06
7.86609e-07
-3.01668e-06
1.01603e-06
-3.16871e-06
1.18759e-06
-3.0824e-06
1.27618e-06
-2.79243e-06
1.26095e-06
-2.33109e-06
1.12457e-06
-1.72808e-06
8.52608e-07
-1.01025e-06
4.33057e-07
-2.01356e-07
-1.441e-07
6.78092e-07
-8.8728e-07
1.61095e-06
-1.80364e-06
2.58343e-06
-2.89942e-06
3.58504e-06
-4.18019e-06
4.6084e-06
-5.65109e-06