/*--------------------------------*- C++ -*----------------------------------*\
| =========                 |                                                 |
| \\      /  F ield         | OpenFOAM: The Open Source CFD Toolbox           |
|  \\    /   O peration     | Version:  2112                                  |
|   \\  /    A nd           | Website:  www.openfoam.com                      |
|    \\/     M anipulation  |                                                 |
\*---------------------------------------------------------------------------*/
FoamFile
{
    version     2.0;
    format      ascii;
    arch        "LSB;label=32;scalar=64";
    class       volVectorField;
    location    "37";
    object      U;
}
// * * * * * * * * * * * * * * * * * * * * * * * * * * * * * * * * * * * * * //

dimensions      [0 1 -1 0 0 0 0];

internalField   nonuniform List<vector> 
16641
(
(-7.75257e-06 7.73992e-06 0)
(2.9079e-06 -6.51499e-06 0)
(5.98466e-05 -2.24834e-05 0)
(0.000151239 -3.37232e-05 0)
(0.000265822 -4.03438e-05 0)
(0.000393287 -4.33137e-05 0)
(0.000524969 -4.35583e-05 0)
(0.0006541 -4.18433e-05 0)
(0.000775594 -3.87627e-05 0)
(0.000885752 -3.47732e-05 0)
(0.000982013 -3.02305e-05 0)
(0.00106274 -2.54109e-05 0)
(0.00112706 -2.05264e-05 0)
(0.00117467 -1.57334e-05 0)
(0.00120568 -1.11393e-05 0)
(0.00122052 -6.80896e-06 0)
(0.00121978 -2.76925e-06 0)
(0.00120411 9.86442e-07 0)
(0.00117414 4.48824e-06 0)
(0.00113038 7.78658e-06 0)
(0.00107323 1.0946e-05 0)
(0.00100285 1.40394e-05 0)
(0.00091923 1.71429e-05 0)
(0.00082212 2.0331e-05 0)
(0.000711076 2.36731e-05 0)
(0.000585465 2.72303e-05 0)
(0.000444498 3.10535e-05 0)
(0.00028726 3.51832e-05 0)
(0.000112748 3.96484e-05 0)
(-8.00937e-05 4.44677e-05 0)
(-0.000292338 4.96495e-05 0)
(-0.000525041 5.51933e-05 0)
(-0.00077921 6.109e-05 0)
(-0.00105578 6.73233e-05 0)
(-0.00135557 7.38701e-05 0)
(-0.0016793 8.07009e-05 0)
(-0.00202751 8.77796e-05 0)
(-0.00240057 9.50634e-05 0)
(-0.00279867 0.000102503 0)
(-0.00322177 0.000110041 0)
(-0.00366958 0.000117614 0)
(-0.00414157 0.00012515 0)
(-0.0046369 0.000132571 0)
(-0.00515447 0.00013979 0)
(-0.00569282 0.000146713 0)
(-0.00625018 0.000153243 0)
(-0.00682446 0.000159273 0)
(-0.0074132 0.000164694 0)
(-0.00801361 0.000169393 0)
(-0.00862253 0.000173256 0)
(-0.00923649 0.000176167 0)
(-0.00985169 0.00017801 0)
(-0.010464 0.000178676 0)
(-0.0110691 0.000178057 0)
(-0.0116623 0.000176052 0)
(-0.0122388 0.000172572 0)
(-0.0127934 0.000167534 0)
(-0.0133212 0.000160871 0)
(-0.0138167 0.000152531 0)
(-0.0142748 0.000142479 0)
(-0.0146901 0.000130697 0)
(-0.0150575 0.00011719 0)
(-0.0153721 0.000101984 0)
(-0.0156289 8.51327e-05 0)
(-0.0158237 6.67323e-05 0)
(-0.0159522 4.6903e-05 0)
(-0.016011 2.57371e-05 0)
(-0.0159966 3.4689e-06 0)
(-0.0159065 -1.98491e-05 0)
(-0.0157389 -4.39311e-05 0)
(-0.0154927 -6.8514e-05 0)
(-0.0151674 -9.33314e-05 0)
(-0.0147634 -0.000118096 0)
(-0.014282 -0.0001425 0)
(-0.0137255 -0.000166223 0)
(-0.013097 -0.000188937 0)
(-0.0124006 -0.00021031 0)
(-0.0116411 -0.000230017 0)
(-0.0108246 -0.000247742 0)
(-0.00995755 -0.000263193 0)
(-0.00904753 -0.000276102 0)
(-0.00810262 -0.000286237 0)
(-0.00713152 -0.00029341 0)
(-0.00614334 -0.000297481 0)
(-0.00514753 -0.000298366 0)
(-0.00415367 -0.00029604 0)
(-0.00317133 -0.000290539 0)
(-0.0022099 -0.000281961 0)
(-0.00127845 -0.000270465 0)
(-0.000385449 -0.000256277 0)
(0.00046113 -0.000239719 0)
(0.0012542 -0.000220995 0)
(0.0019877 -0.00020054 0)
(0.00265646 -0.000178729 0)
(0.00325646 -0.000155961 0)
(0.00378482 -0.000132641 0)
(0.00423982 -0.000109168 0)
(0.00462088 -8.59278e-05 0)
(0.00492854 -6.32768e-05 0)
(0.00516438 -4.15372e-05 0)
(0.00533092 -2.0989e-05 0)
(0.00543152 -1.86534e-06 0)
(0.00547025 1.56508e-05 0)
(0.00545175 3.14264e-05 0)
(0.00538111 4.5382e-05 0)
(0.0052637 5.74855e-05 0)
(0.00510504 6.77491e-05 0)
(0.00491068 7.62259e-05 0)
(0.00468608 8.30044e-05 0)
(0.00443649 8.8202e-05 0)
(0.00416686 9.1959e-05 0)
(0.00388179 9.44316e-05 0)
(0.00358548 9.57846e-05 0)
(0.00328166 9.61841e-05 0)
(0.00297365 9.5788e-05 0)
(0.00266437 9.47363e-05 0)
(0.00235639 9.31391e-05 0)
(0.00205204 9.10621e-05 0)
(0.00175356 8.85098e-05 0)
(0.00146328 8.5404e-05 0)
(0.00118392 8.15588e-05 0)
(0.000918807 7.66515e-05 0)
(0.000672286 7.01897e-05 0)
(0.000450066 6.14864e-05 0)
(0.000259541 4.96859e-05 0)
(0.000109703 3.39726e-05 0)
(1.00741e-05 1.42294e-05 0)
(-3.15309e-05 -7.06621e-06 0)
(-1.85222e-05 -1.85717e-05 0)
(6.4135e-06 -2.83615e-06 0)
(7.34043e-05 -7.35353e-05 0)
(0.000234701 -0.0001443 0)
(0.000464794 -0.000196902 0)
(0.000742138 -0.000229938 0)
(0.00104687 -0.000245678 0)
(0.0013606 -0.000247211 0)
(0.00166776 -0.000237608 0)
(0.00195587 -0.000219601 0)
(0.00221535 -0.000195513 0)
(0.00243914 -0.000167287 0)
(0.00262236 -0.00013651 0)
(0.00276196 -0.000104453 0)
(0.00285633 -7.20855e-05 0)
(0.00290495 -4.01091e-05 0)
(0.0029081 -8.97865e-06 0)
(0.00286655 2.10693e-05 0)
(0.0027813 4.99868e-05 0)
(0.00265335 7.78811e-05 0)
(0.00248353 0.000104982 0)
(0.00227234 0.000131607 0)
(0.00201992 0.000158128 0)
(0.00172589 0.000184942 0)
(0.00138944 0.000212443 0)
(0.00100927 0.000240997 0)
(0.00058368 0.000270927 0)
(0.000110637 0.000302496 0)
(-0.000412168 0.000335903 0)
(-0.000987208 0.000371277 0)
(-0.00161703 0.000408678 0)
(-0.00230416 0.000448098 0)
(-0.00305101 0.000489468 0)
(-0.00385979 0.000532659 0)
(-0.00473243 0.000577489 0)
(-0.0056705 0.000623723 0)
(-0.00667516 0.000671082 0)
(-0.00774704 0.000719238 0)
(-0.00888625 0.00076782 0)
(-0.0100923 0.000816413 0)
(-0.0113639 0.000864561 0)
(-0.0126991 0.000911764 0)
(-0.0140954 0.000957487 0)
(-0.0155492 0.00100116 0)
(-0.0170562 0.00104217 0)
(-0.0186111 0.00107991 0)
(-0.0202079 0.00111371 0)
(-0.0218396 0.00114292 0)
(-0.0234984 0.00116687 0)
(-0.0251756 0.0011849 0)
(-0.0268618 0.00119637 0)
(-0.0285467 0.00120064 0)
(-0.0302194 0.00119714 0)
(-0.0318683 0.00118532 0)
(-0.0334813 0.00116469 0)
(-0.0350458 0.00113482 0)
(-0.0365491 0.00109537 0)
(-0.0379779 0.00104605 0)
(-0.0393192 0.000986712 0)
(-0.0405598 0.00091727 0)
(-0.0416867 0.000837765 0)
(-0.0426875 0.00074835 0)
(-0.04355 0.000649304 0)
(-0.0442627 0.000541028 0)
(-0.044815 0.000424068 0)
(-0.0451972 0.000299151 0)
(-0.0454008 0.000167058 0)
(-0.0454184 2.83309e-05 0)
(-0.045244 -0.000115222 0)
(-0.0448729 -0.000262804 0)
(-0.0443025 -0.000413089 0)
(-0.0435318 -0.000564617 0)
(-0.0425616 -0.000715854 0)
(-0.0413947 -0.000865189 0)
(-0.0400359 -0.00101095 0)
(-0.038492 -0.00115142 0)
(-0.0367717 -0.00128487 0)
(-0.034886 -0.00140959 0)
(-0.0328477 -0.00152391 0)
(-0.0306716 -0.00162624 0)
(-0.028374 -0.00171511 0)
(-0.0259732 -0.00178917 0)
(-0.0234886 -0.00184729 0)
(-0.0209409 -0.00188852 0)
(-0.0183518 -0.00191218 0)
(-0.0157436 -0.00191784 0)
(-0.0131388 -0.00190537 0)
(-0.0105602 -0.00187493 0)
(-0.00802997 -0.00182701 0)
(-0.00556971 -0.00176239 0)
(-0.00319995 -0.00168215 0)
(-0.000939889 -0.00158771 0)
(0.00119293 -0.00148054 0)
(0.00318301 -0.00136251 0)
(0.00501704 -0.00123561 0)
(0.00668407 -0.00110194 0)
(0.0081757 -0.00096365 0)
(0.00948614 -0.000822918 0)
(0.0106123 -0.000681872 0)
(0.0115535 -0.000542551 0)
(0.0123118 -0.000406852 0)
(0.0128916 -0.00027649 0)
(0.0132992 -0.000152964 0)
(0.0135431 -3.75321e-05 0)
(0.0136331 6.88035e-05 0)
(0.0135807 0.000165309 0)
(0.0133981 0.000251516 0)
(0.0130984 0.000327209 0)
(0.0126948 0.000392411 0)
(0.0122008 0.000447365 0)
(0.0116297 0.000492501 0)
(0.0109941 0.000528403 0)
(0.0103063 0.000555773 0)
(0.00957766 0.000575387 0)
(0.00881864 0.00058805 0)
(0.00803885 0.000594538 0)
(0.00724707 0.000595538 0)
(0.00645134 0.000591584 0)
(0.00565925 0.000582974 0)
(0.0048782 0.000569689 0)
(0.00411584 0.000551305 0)
(0.00338056 0.000526905 0)
(0.00268205 0.000495004 0)
(0.00203185 0.000453526 0)
(0.00144376 0.000399888 0)
(0.000933991 0.000331386 0)
(0.000520212 0.000246283 0)
(0.000218901 0.000146166 0)
(4.23381e-05 4.13794e-05 0)
(-6.77924e-06 -3.15972e-05 0)
(2.2344e-05 -5.95594e-05 0)
(0.000144271 -0.000234777 0)
(0.000395159 -0.000394779 0)
(0.000732718 -0.000515022 0)
(0.00112761 -0.000591847 0)
(0.00155472 -0.000628389 0)
(0.00199009 -0.000630314 0)
(0.00241265 -0.00060397 0)
(0.00280503 -0.000555474 0)
(0.00315339 -0.000490337 0)
(0.00344718 -0.000413344 0)
(0.00367875 -0.000328524 0)
(0.00384295 -0.000239163 0)
(0.00393664 -0.000147827 0)
(0.00395824 -5.64099e-05 0)
(0.00390735 3.38208e-05 0)
(0.00378429 0.000122153 0)
(0.00358975 0.000208362 0)
(0.00332451 0.000292634 0)
(0.00298917 0.000375476 0)
(0.00258392 0.00045763 0)
(0.00210844 0.000539986 0)
(0.00156184 0.000623505 0)
(0.000942587 0.00070914 0)
(0.000248566 0.00079778 0)
(-0.000522855 0.000890198 0)
(-0.00137473 0.000987011 0)
(-0.00231039 0.00108866 0)
(-0.00333334 0.0011954 0)
(-0.00444709 0.0013073 0)
(-0.00565499 0.00142422 0)
(-0.00696012 0.00154586 0)
(-0.00836516 0.00167174 0)
(-0.0098722 0.00180125 0)
(-0.0114827 0.00193359 0)
(-0.0131973 0.00206785 0)
(-0.0150158 0.002203 0)
(-0.0169371 0.00233786 0)
(-0.0189588 0.00247115 0)
(-0.0210776 0.00260148 0)
(-0.023289 0.00272735 0)
(-0.0255871 0.0028472 0)
(-0.0279647 0.00295938 0)
(-0.0304135 0.00306216 0)
(-0.0329238 0.00315381 0)
(-0.0354845 0.00323255 0)
(-0.0380834 0.00329663 0)
(-0.0407069 0.00334431 0)
(-0.0433404 0.00337391 0)
(-0.0459683 0.00338384 0)
(-0.0485739 0.00337261 0)
(-0.0511399 0.00333887 0)
(-0.0536481 0.00328141 0)
(-0.0560799 0.00319922 0)
(-0.0584165 0.00309151 0)
(-0.0606388 0.00295768 0)
(-0.0627277 0.00279742 0)
(-0.0646645 0.00261063 0)
(-0.0664308 0.00239755 0)
(-0.0680087 0.00215865 0)
(-0.0693814 0.00189474 0)
(-0.0705329 0.00160692 0)
(-0.0714484 0.0012966 0)
(-0.0721146 0.00096555 0)
(-0.0725197 0.000615878 0)
(-0.0726543 0.000249959 0)
(-0.0725094 -0.000130496 0)
(-0.0720785 -0.000521256 0)
(-0.0713585 -0.000919501 0)
(-0.0703475 -0.00132194 0)
(-0.0690464 -0.00172491 0)
(-0.0674582 -0.00212456 0)
(-0.065589 -0.0025169 0)
(-0.063447 -0.00289783 0)
(-0.0610433 -0.00326319 0)
(-0.0583914 -0.00360884 0)
(-0.0555076 -0.00393071 0)
(-0.0524104 -0.00422485 0)
(-0.0491207 -0.00448753 0)
(-0.0456617 -0.00471528 0)
(-0.0420585 -0.00490501 0)
(-0.038338 -0.00505402 0)
(-0.0345285 -0.00516014 0)
(-0.0306595 -0.00522175 0)
(-0.0267616 -0.00523783 0)
(-0.0228654 -0.00520803 0)
(-0.019002 -0.00513271 0)
(-0.0152019 -0.00501293 0)
(-0.0114948 -0.00485046 0)
(-0.00790949 -0.00464777 0)
(-0.00447282 -0.00440801 0)
(-0.00120979 -0.0041349 0)
(0.00185704 -0.00383265 0)
(0.00470782 -0.00350594 0)
(0.00732575 -0.00315989 0)
(0.00969727 -0.00279972 0)
(0.0118122 -0.00243075 0)
(0.0136639 -0.00205833 0)
(0.0152491 -0.00168762 0)
(0.0165682 -0.00132353 0)
(0.0176249 -0.00097061 0)
(0.0184259 -0.000632929 0)
(0.0189807 -0.000314023 0)
(0.0193016 -1.68288e-05 0)
(0.0194029 0.000256347 0)
(0.0193006 0.000503848 0)
(0.0190122 0.000724661 0)
(0.018556 0.00091839 0)
(0.0179509 0.00108521 0)
(0.0172158 0.00122582 0)
(0.0163694 0.00134134 0)
(0.0154298 0.00143323 0)
(0.0144145 0.00150322 0)
(0.0133398 0.0015531 0)
(0.0122211 0.00158466 0)
(0.0110726 0.0015995 0)
(0.00990793 0.00159884 0)
(0.0087399 0.00158338 0)
(0.00758116 0.00155305 0)
(0.00644462 0.00150686 0)
(0.00534401 0.00144276 0)
(0.0042945 0.00135751 0)
(0.00331323 0.00124684 0)
(0.00241961 0.00110581 0)
(0.00163528 0.000929956 0)
(0.000982625 0.000717581 0)
(0.00048163 0.000473962 0)
(0.000151146 0.000219259 0)
(1.55105e-05 1.1371e-05 0)
(3.37461e-05 -0.000150952 0)
(0.000197861 -0.000465512 0)
(0.000517849 -0.000732797 0)
(0.000934095 -0.000930188 0)
(0.00140963 -0.00105455 0)
(0.00191532 -0.00111083 0)
(0.00242355 -0.00110761 0)
(0.00290983 -0.00105483 0)
(0.00335357 -0.000962366 0)
(0.0037381 -0.000839404 0)
(0.00405031 -0.000694091 0)
(0.0042804 -0.000533417 0)
(0.0044214 -0.00036316 0)
(0.00446868 -0.0001879 0)
(0.00441946 -1.10585e-05 0)
(0.00427236 0.000165024 0)
(0.00402687 0.000338987 0)
(0.00368299 0.000510332 0)
(0.00324087 0.000679285 0)
(0.00270045 0.000846648 0)
(0.0020613 0.00101364 0)
(0.00132241 0.00118176 0)
(0.000482142 0.00135261 0)
(-0.000461797 0.0015278 0)
(-0.00151233 0.00170881 0)
(-0.00267289 0.00189689 0)
(-0.00394731 0.00209303 0)
(-0.00533964 0.00229787 0)
(-0.00685398 0.0025117 0)
(-0.00849426 0.00273445 0)
(-0.0102641 0.0029657 0)
(-0.0121665 0.00320466 0)
(-0.0142039 0.00345023 0)
(-0.0163778 0.00370103 0)
(-0.0186885 0.00395537 0)
(-0.0211354 0.0042113 0)
(-0.0237165 0.00446665 0)
(-0.0264282 0.004719 0)
(-0.0292657 0.00496574 0)
(-0.0322224 0.00520409 0)
(-0.0352902 0.00543109 0)
(-0.0384592 0.00564366 0)
(-0.041718 0.00583864 0)
(-0.0450533 0.00601281 0)
(-0.0484504 0.0061629 0)
(-0.0518929 0.00628572 0)
(-0.055363 0.00637811 0)
(-0.0588416 0.00643705 0)
(-0.0623084 0.00645971 0)
(-0.065742 0.00644345 0)
(-0.0691201 0.0063859 0)
(-0.07242 0.006285 0)
(-0.0756183 0.00613905 0)
(-0.0786915 0.00594671 0)
(-0.0816162 0.00570706 0)
(-0.0843692 0.00541964 0)
(-0.0869276 0.00508444 0)
(-0.0892694 0.00470192 0)
(-0.0913735 0.00427306 0)
(-0.0932199 0.00379933 0)
(-0.0947899 0.00328271 0)
(-0.0960665 0.00272567 0)
(-0.0970341 0.00213122 0)
(-0.0976791 0.00150279 0)
(-0.0979901 0.00084417 0)
(-0.0979589 0.000159803 0)
(-0.0975773 -0.000543747 0)
(-0.0968396 -0.00126304 0)
(-0.0957454 -0.00199212 0)
(-0.0942949 -0.00272482 0)
(-0.0924913 -0.00345479 0)
(-0.0903406 -0.00417542 0)
(-0.0878513 -0.00487996 0)
(-0.0850352 -0.0055615 0)
(-0.0819064 -0.00621312 0)
(-0.078482 -0.00682796 0)
(-0.0747817 -0.00739927 0)
(-0.0708279 -0.00792057 0)
(-0.0666452 -0.00838574 0)
(-0.0622607 -0.00878908 0)
(-0.0577037 -0.00912552 0)
(-0.0530051 -0.00939064 0)
(-0.0481978 -0.00958082 0)
(-0.0433157 -0.00969334 0)
(-0.0383937 -0.00972648 0)
(-0.0334675 -0.00967955 0)
(-0.0285729 -0.00955302 0)
(-0.0237455 -0.00934846 0)
(-0.0190201 -0.00906866 0)
(-0.0144307 -0.00871752 0)
(-0.0100094 -0.00830005 0)
(-0.0057865 -0.00782228 0)
(-0.00178978 -0.00729115 0)
(0.00195568 -0.0067144 0)
(0.00542807 -0.00610041 0)
(0.00860915 -0.00545801 0)
(0.0114843 -0.00479631 0)
(0.0140427 -0.00412447 0)
(0.0162778 -0.00345151 0)
(0.0181868 -0.00278614 0)
(0.0197709 -0.00213654 0)
(0.0210352 -0.0015102 0)
(0.0219883 -0.000913774 0)
(0.0226422 -0.000352976 0)
(0.0230117 0.000167523 0)
(0.023114 0.000644135 0)
(0.0229686 0.00107438 0)
(0.0225964 0.00145687 0)
(0.0220196 0.00179123 0)
(0.0212607 0.00207804 0)
(0.0203426 0.00231868 0)
(0.019288 0.00251522 0)
(0.018119 0.0026702 0)
(0.0168569 0.00278644 0)
(0.015522 0.00286674 0)
(0.0141338 0.0029137 0)
(0.0127109 0.00292931 0)
(0.011271 0.00291472 0)
(0.00983196 0.00286989 0)
(0.00841143 0.00279329 0)
(0.00702799 0.00268176 0)
(0.00570146 0.00253038 0)
(0.00445339 0.00233283 0)
(0.00330738 0.00208209 0)
(0.00228901 0.00177221 0)
(0.00142442 0.00140152 0)
(0.000737604 0.000977843 0)
(0.000257644 0.000527185 0)
(3.69425e-05 0.000115638 0)
(4.08188e-05 -0.000266358 0)
(0.00023304 -0.000745302 0)
(0.000599452 -0.00113034 0)
(0.00106593 -0.00140691 0)
(0.00158851 -0.00157578 0)
(0.00213444 -0.00164528 0)
(0.00267336 -0.00162765 0)
(0.00317846 -0.00153668 0)
(0.00362715 -0.0013862 0)
(0.00400082 -0.00118923 0)
(0.00428466 -0.000957465 0)
(0.00446723 -0.000701073 0)
(0.0045401 -0.000428536 0)
(0.00449731 -0.000146637 0)
(0.00433488 0.000139499 0)
(0.00405031 0.000426322 0)
(0.00364209 0.000711722 0)
(0.00310927 0.000994856 0)
(0.00245106 0.00127595 0)
(0.00166653 0.0015561 0)
(0.000754354 0.00183699 0)
(-0.000287319 0.00212072 0)
(-0.00146097 0.00240956 0)
(-0.00276971 0.00270576 0)
(-0.00421719 0.00301133 0)
(-0.00580749 0.00332796 0)
(-0.00754496 0.00365689 0)
(-0.00943402 0.00399883 0)
(-0.0114789 0.00435392 0)
(-0.0136834 0.00472174 0)
(-0.0160508 0.00510127 0)
(-0.0185834 0.00549098 0)
(-0.0212824 0.00588879 0)
(-0.024148 0.00629217 0)
(-0.0271786 0.00669811 0)
(-0.0303712 0.00710324 0)
(-0.0337211 0.00750379 0)
(-0.0372215 0.00789567 0)
(-0.0408641 0.00827451 0)
(-0.0446382 0.0086357 0)
(-0.0485313 0.00897443 0)
(-0.0525289 0.00928579 0)
(-0.0566146 0.00956477 0)
(-0.0607701 0.00980636 0)
(-0.0649753 0.0100056 0)
(-0.0692085 0.0101578 0)
(-0.0734467 0.0102584 0)
(-0.0776655 0.010303 0)
(-0.0818396 0.0102877 0)
(-0.0859429 0.0102091 0)
(-0.0899487 0.0100643 0)
(-0.0938303 0.00985064 0)
(-0.0975607 0.00956645 0)
(-0.101113 0.00921047 0)
(-0.104462 0.00878215 0)
(-0.107582 0.00828165 0)
(-0.110449 0.0077098 0)
(-0.113039 0.00706816 0)
(-0.115331 0.00635899 0)
(-0.117305 0.00558526 0)
(-0.118943 0.00475062 0)
(-0.120228 0.00385942 0)
(-0.121147 0.00291665 0)
(-0.121688 0.00192794 0)
(-0.12184 0.000899339 0)
(-0.121595 -0.000162306 0)
(-0.120949 -0.00124797 0)
(-0.119901 -0.00235166 0)
(-0.11845 -0.00346474 0)
(-0.116599 -0.00457831 0)
(-0.114353 -0.00568326 0)
(-0.111721 -0.00677022 0)
(-0.108713 -0.00782962 0)
(-0.105344 -0.00885178 0)
(-0.101628 -0.00982701 0)
(-0.0975864 -0.0107457 0)
(-0.0932394 -0.0115986 0)
(-0.0886116 -0.0123766 0)
(-0.0837294 -0.0130711 0)
(-0.0786218 -0.0136743 0)
(-0.0733196 -0.0141791 0)
(-0.0678559 -0.0145792 0)
(-0.0622653 -0.0148696 0)
(-0.0565839 -0.0150462 0)
(-0.050849 -0.0151064 0)
(-0.0450985 -0.0150492 0)
(-0.0393709 -0.0148749 0)
(-0.0337046 -0.0145854 0)
(-0.0281378 -0.0141843 0)
(-0.0227075 -0.0136767 0)
(-0.0174497 -0.0130693 0)
(-0.0123984 -0.0123704 0)
(-0.00758536 -0.0115894 0)
(-0.00303989 -0.0107371 0)
(0.00121193 -0.00982525 0)
(0.00514746 -0.00886626 0)
(0.00874775 -0.00787316 0)
(0.0119979 -0.00685919 0)
(0.014887 -0.00583755 0)
(0.0174087 -0.00482113 0)
(0.0195608 -0.00382224 0)
(0.0213452 -0.00285235 0)
(0.0227682 -0.00192186 0)
(0.0238396 -0.00103991 0)
(0.024573 -0.000214231 0)
(0.024985 0.000548948 0)
(0.0250951 0.00124499 0)
(0.0249249 0.00187083 0)
(0.0244978 0.00242493 0)
(0.0238386 0.00290717 0)
(0.0229726 0.00331874 0)
(0.0219257 0.00366185 0)
(0.0207233 0.00393957 0)
(0.0193909 0.00415543 0)
(0.0179528 0.00431313 0)
(0.016433 0.00441611 0)
(0.0148544 0.0044671 0)
(0.0132396 0.00446773 0)
(0.0116108 0.00441804 0)
(0.0099902 0.00431612 0)
(0.00840062 0.00415789 0)
(0.00686592 0.00393705 0)
(0.00541142 0.00364554 0)
(0.00406425 0.00327453 0)
(0.00285353 0.0028165 0)
(0.00180936 0.00226887 0)
(0.000960854 0.00163929 0)
(0.000349002 0.000953632 0)
(5.44842e-05 0.000274123 0)
(4.45405e-05 -0.000396144 0)
(0.00025197 -0.00105533 0)
(0.000642568 -0.00156326 0)
(0.00113183 -0.00191678 0)
(0.00167005 -0.00212321 0)
(0.00222129 -0.00219596 0)
(0.002753 -0.00215177 0)
(0.00323675 -0.00200872 0)
(0.00364862 -0.00178481 0)
(0.00396884 -0.00149696 0)
(0.00418143 -0.00116051 0)
(0.00427381 -0.000788847 0)
(0.0042364 -0.000393202 0)
(0.00406211 1.73707e-05 0)
(0.00374583 0.000435995 0)
(0.00328393 0.000857861 0)
(0.00267381 0.00128007 0)
(0.00191341 0.0017014 0)
(0.00100087 0.00212205 0)
(-6.57922e-05 0.00254337 0)
(-0.0012889 0.0029675 0)
(-0.00267128 0.0033971 0)
(-0.00421626 0.00383502 0)
(-0.00592772 0.00428404 0)
(-0.00780992 0.00474662 0)
(-0.00986737 0.00522473 0)
(-0.0121046 0.00571964 0)
(-0.0145261 0.00623191 0)
(-0.0171355 0.00676125 0)
(-0.0199361 0.00730655 0)
(-0.0229301 0.0078659 0)
(-0.0261182 0.0084366 0)
(-0.0294999 0.00901519 0)
(-0.0330729 0.00959758 0)
(-0.036833 0.010179 0)
(-0.0407739 0.0107542 0)
(-0.0448873 0.0113175 0)
(-0.0491625 0.0118625 0)
(-0.0535867 0.0123829 0)
(-0.0581447 0.0128719 0)
(-0.0628191 0.0133224 0)
(-0.0675903 0.0137276 0)
(-0.0724368 0.0140804 0)
(-0.0773351 0.0143741 0)
(-0.08226 0.0146019 0)
(-0.0871851 0.0147576 0)
(-0.0920826 0.0148356 0)
(-0.096924 0.0148304 0)
(-0.10168 0.0147375 0)
(-0.106321 0.0145529 0)
(-0.110818 0.0142736 0)
(-0.115142 0.0138973 0)
(-0.119264 0.0134224 0)
(-0.123155 0.0128486 0)
(-0.126791 0.0121761 0)
(-0.130145 0.0114063 0)
(-0.133193 0.0105415 0)
(-0.135914 0.00958468 0)
(-0.138286 0.00853994 0)
(-0.140293 0.00741214 0)
(-0.141917 0.00620697 0)
(-0.143144 0.0049309 0)
(-0.143962 0.00359119 0)
(-0.144363 0.00219584 0)
(-0.144337 0.000753595 0)
(-0.14388 -0.000726315 0)
(-0.142989 -0.00223488 0)
(-0.141665 -0.00376067 0)
(-0.139908 -0.00529294 0)
(-0.137725 -0.00682046 0)
(-0.135121 -0.00833155 0)
(-0.132106 -0.00981422 0)
(-0.128692 -0.0112563 0)
(-0.124893 -0.0126455 0)
(-0.120727 -0.0139695 0)
(-0.116213 -0.0152161 0)
(-0.111373 -0.0163736 0)
(-0.106231 -0.0174304 0)
(-0.100814 -0.0183756 0)
(-0.0951511 -0.0191991 0)
(-0.0892736 -0.0198917 0)
(-0.0832146 -0.0204455 0)
(-0.0770091 -0.0208535 0)
(-0.070694 -0.0211105 0)
(-0.0643071 -0.0212128 0)
(-0.0578875 -0.0211586 0)
(-0.0514751 -0.0209478 0)
(-0.0451098 -0.0205825 0)
(-0.0388317 -0.0200667 0)
(-0.0326803 -0.0194065 0)
(-0.0266939 -0.01861 0)
(-0.0209097 -0.0176873 0)
(-0.0153627 -0.0166502 0)
(-0.0100857 -0.0155122 0)
(-0.00510865 -0.0142882 0)
(-0.000458139 -0.0129942 0)
(0.00384272 -0.0116471 0)
(0.00777474 -0.0102641 0)
(0.0113229 -0.00886272 0)
(0.0144766 -0.00746027 0)
(0.0172296 -0.00607344 0)
(0.0195801 -0.00471804 0)
(0.021531 -0.00340865 0)
(0.0230889 -0.00215836 0)
(0.0242651 -0.000978566 0)
(0.0250741 0.000121267 0)
(0.025534 0.00113366 0)
(0.0256657 0.00205321 0)
(0.0254926 0.00287654 0)
(0.0250399 0.00360221 0)
(0.0243342 0.00423056 0)
(0.0234031 0.00476345 0)
(0.0222747 0.00520394 0)
(0.0209771 0.00555592 0)
(0.019538 0.00582361 0)
(0.0179851 0.00601109 0)
(0.0163451 0.00612169 0)
(0.0146447 0.00615745 0)
(0.01291 0.00611853 0)
(0.0111673 0.00600279 0)
(0.00944325 0.00580544 0)
(0.00776541 0.00551906 0)
(0.00616249 0.00513407 0)
(0.00466496 0.00463985 0)
(0.00330559 0.00402688 0)
(0.00211883 0.00329021 0)
(0.00113966 0.00243433 0)
(0.000420801 0.00147973 0)
(6.76289e-05 0.000476585 0)
(4.57648e-05 -0.000532178 0)
(0.000257252 -0.00137776 0)
(0.000651481 -0.00200769 0)
(0.00113774 -0.00243164 0)
(0.00166216 -0.00266526 0)
(0.00218627 -0.00272838 0)
(0.00267585 -0.00264311 0)
(0.00310141 -0.00243231 0)
(0.00343822 -0.00211829 0)
(0.00366582 -0.001722 0)
(0.00376751 -0.00126238 0)
(0.00372998 -0.000755982 0)
(0.00354276 -0.000216761 0)
(0.00319782 0.000344015 0)
(0.00268903 0.000917751 0)
(0.00201168 0.00149841 0)
(0.00116203 0.00208231 0)
(0.000136882 0.00266785 0)
(-0.00106678 0.0032552 0)
(-0.00245206 0.00384591 0)
(-0.00402233 0.00444251 0)
(-0.00578137 0.00504811 0)
(-0.00773332 0.00566605 0)
(-0.00988269 0.00629946 0)
(-0.0122341 0.00695104 0)
(-0.0147923 0.00762276 0)
(-0.0175616 0.00831568 0)
(-0.0205458 0.00902984 0)
(-0.0237479 0.00976417 0)
(-0.0271696 0.0105165 0)
(-0.0308113 0.0112836 0)
(-0.0346717 0.0120611 0)
(-0.0387474 0.0128438 0)
(-0.043033 0.0136256 0)
(-0.0475208 0.0143995 0)
(-0.0522005 0.0151579 0)
(-0.0570595 0.0158928 0)
(-0.0620824 0.0165955 0)
(-0.0672516 0.0172571 0)
(-0.0725468 0.0178684 0)
(-0.0779457 0.0184203 0)
(-0.0834234 0.0189037 0)
(-0.0889536 0.0193097 0)
(-0.0945082 0.0196297 0)
(-0.100058 0.0198557 0)
(-0.105571 0.0199804 0)
(-0.111018 0.0199972 0)
(-0.116367 0.0199002 0)
(-0.121585 0.0196848 0)
(-0.126643 0.0193471 0)
(-0.131508 0.0188845 0)
(-0.136153 0.0182955 0)
(-0.140548 0.0175795 0)
(-0.144666 0.0167375 0)
(-0.148481 0.0157712 0)
(-0.151971 0.0146836 0)
(-0.155113 0.0134787 0)
(-0.157887 0.0121616 0)
(-0.160275 0.0107384 0)
(-0.162263 0.00921593 0)
(-0.163835 0.00760211 0)
(-0.164981 0.0059056 0)
(-0.16569 0.00413585 0)
(-0.165957 0.00230306 0)
(-0.165775 0.00041819 0)
(-0.165141 -0.00150707 0)
(-0.164055 -0.00346125 0)
(-0.162517 -0.00543115 0)
(-0.16053 -0.00740361 0)
(-0.1581 -0.009365 0)
(-0.155234 -0.0113013 0)
(-0.151942 -0.0131982 0)
(-0.148235 -0.0150412 0)
(-0.144129 -0.0168154 0)
(-0.139638 -0.0185064 0)
(-0.134782 -0.0200994 0)
(-0.129582 -0.0215802 0)
(-0.124061 -0.022935 0)
(-0.118246 -0.0241506 0)
(-0.112164 -0.0252146 0)
(-0.105845 -0.0261157 0)
(-0.0993224 -0.0268439 0)
(-0.0926305 -0.0273904 0)
(-0.0858057 -0.0277486 0)
(-0.0788858 -0.0279133 0)
(-0.0719103 -0.0278817 0)
(-0.0649196 -0.0276531 0)
(-0.0579547 -0.0272292 0)
(-0.051057 -0.0266143 0)
(-0.0442676 -0.0258149 0)
(-0.0376273 -0.0248402 0)
(-0.0311756 -0.0237018 0)
(-0.0249504 -0.0224135 0)
(-0.0189877 -0.0209913 0)
(-0.013321 -0.0194529 0)
(-0.00798074 -0.0178177 0)
(-0.00299394 -0.016106 0)
(0.00161603 -0.0143394 0)
(0.00582991 -0.0125394 0)
(0.00963278 -0.0107279 0)
(0.0130142 -0.00892592 0)
(0.0159683 -0.00715393 0)
(0.018494 -0.00543098 0)
(0.0205944 -0.0037745 0)
(0.0222773 -0.00219996 0)
(0.0235546 -0.000720633 0)
(0.0244421 0.000652612 0)
(0.0249587 0.00191139 0)
(0.0251268 0.00304984 0)
(0.0249711 0.00406455 0)
(0.0245184 0.00495437 0)
(0.0237969 0.00572017 0)
(0.0228361 0.00636446 0)
(0.0216661 0.00689094 0)
(0.020317 0.00730397 0)
(0.0188193 0.00760789 0)
(0.0172031 0.00780641 0)
(0.0154983 0.00790184 0)
(0.0137346 0.00789446 0)
(0.0119419 0.00778193 0)
(0.0101504 0.00755891 0)
(0.00839087 0.00721703 0)
(0.00669543 0.00674526 0)
(0.00509789 0.00613102 0)
(0.00363478 0.00536213 0)
(0.00234517 0.00442982 0)
(0.00126996 0.00333283 0)
(0.000472239 0.00208239 0)
(7.6642e-05 0.000711753 0)
(4.51132e-05 -0.000667881 0)
(0.000251149 -0.00169671 0)
(0.00063045 -0.00244138 0)
(0.00108977 -0.00292478 0)
(0.00157284 -0.00317189 0)
(0.00203941 -0.00320991 0)
(0.00245426 -0.00306701 0)
(0.00278732 -0.00277119 0)
(0.00301352 -0.00234931 0)
(0.00311212 -0.00182632 0)
(0.00306605 -0.0012247 0)
(0.00286153 -0.000564084 0)
(0.00248746 0.000138992 0)
(0.00193505 0.00087116 0)
(0.00119725 0.00162221 0)
(0.000268337 0.00238495 0)
(-0.000856546 0.00315498 0)
(-0.00218174 0.00393034 0)
(-0.00371141 0.00471114 0)
(-0.00544976 0.00549907 0)
(-0.00740118 0.00629697 0)
(-0.00957031 0.00710827 0)
(-0.011962 0.00793656 0)
(-0.0145811 0.00878511 0)
(-0.0174324 0.00965655 0)
(-0.0205203 0.0105525 0)
(-0.0238485 0.0114735 0)
(-0.0274198 0.0124186 0)
(-0.0312354 0.0133855 0)
(-0.0352953 0.0143705 0)
(-0.0395972 0.0153686 0)
(-0.0441367 0.0163734 0)
(-0.0489072 0.0173773 0)
(-0.0538992 0.0183717 0)
(-0.0591008 0.0193473 0)
(-0.0644971 0.0202937 0)
(-0.0700707 0.0212002 0)
(-0.0758012 0.0220555 0)
(-0.0816659 0.0228481 0)
(-0.0876395 0.0235666 0)
(-0.0936948 0.0241997 0)
(-0.0998024 0.0247362 0)
(-0.105932 0.0251658 0)
(-0.11205 0.0254785 0)
(-0.118126 0.0256654 0)
(-0.124126 0.0257186 0)
(-0.130016 0.0256312 0)
(-0.135763 0.0253977 0)
(-0.141336 0.0250137 0)
(-0.146704 0.0244764 0)
(-0.151835 0.0237841 0)
(-0.156702 0.0229366 0)
(-0.161279 0.0219352 0)
(-0.16554 0.0207823 0)
(-0.169461 0.0194816 0)
(-0.173024 0.0180381 0)
(-0.176207 0.0164578 0)
(-0.178995 0.0147479 0)
(-0.181372 0.0129164 0)
(-0.183326 0.0109724 0)
(-0.184846 0.00892585 0)
(-0.185922 0.00678737 0)
(-0.186548 0.00456843 0)
(-0.186717 0.00228117 0)
(-0.186427 -6.15522e-05 0)
(-0.185675 -0.00244603 0)
(-0.184461 -0.00485866 0)
(-0.182786 -0.00728463 0)
(-0.180655 -0.00970881 0)
(-0.178071 -0.0121156 0)
(-0.175042 -0.0144889 0)
(-0.171576 -0.0168124 0)
(-0.167684 -0.0190693 0)
(-0.163378 -0.0212428 0)
(-0.158675 -0.0233161 0)
(-0.153589 -0.0252722 0)
(-0.148142 -0.0270946 0)
(-0.142354 -0.0287671 0)
(-0.13625 -0.030274 0)
(-0.129856 -0.0316009 0)
(-0.123201 -0.0327339 0)
(-0.116315 -0.033661 0)
(-0.109233 -0.0343714 0)
(-0.101991 -0.0348564 0)
(-0.0946243 -0.0351093 0)
(-0.0871739 -0.035126 0)
(-0.07968 -0.0349046 0)
(-0.0721844 -0.0344463 0)
(-0.0647295 -0.0337548 0)
(-0.0573583 -0.0328371 0)
(-0.0501132 -0.0317029 0)
(-0.0430362 -0.030365 0)
(-0.036168 -0.0288386 0)
(-0.0295478 -0.0271421 0)
(-0.0232124 -0.0252956 0)
(-0.0171959 -0.0233215 0)
(-0.0115294 -0.0212439 0)
(-0.00624024 -0.0190879 0)
(-0.00135195 -0.0168794 0)
(0.00311628 -0.0146445 0)
(0.00714971 -0.0124089 0)
(0.0107383 -0.0101977 0)
(0.0138767 -0.00803465 0)
(0.0165644 -0.00594175 0)
(0.0188055 -0.00393893 0)
(0.0206085 -0.00204365 0)
(0.0219863 -0.000270683 0)
(0.0229556 0.00136808 0)
(0.0235368 0.0028637 0)
(0.0237533 0.00421016 0)
(0.0236312 0.0054042 0)
(0.0231986 0.00644507 0)
(0.0224856 0.00733413 0)
(0.0215233 0.00807434 0)
(0.0203436 0.00866967 0)
(0.018979 0.00912435 0)
(0.0174621 0.00944211 0)
(0.0158257 0.00962533 0)
(0.0141026 0.00967429 0)
(0.0123258 0.00958643 0)
(0.0105286 0.00935593 0)
(0.00874504 0.00897345 0)
(0.00701041 0.00842649 0)
(0.00536189 0.00770025 0)
(0.00383981 0.00677921 0)
(0.00248773 0.00564959 0)
(0.00135208 0.0043025 0)
(0.000504156 0.00273752 0)
(8.19769e-05 0.000968691 0)
(4.29844e-05 -0.000797847 0)
(0.000235341 -0.00199821 0)
(0.000582965 -0.00284409 0)
(0.000993248 -0.00337142 0)
(0.00140912 -0.00361502 0)
(0.00178955 -0.00361001 0)
(0.002099 -0.00339107 0)
(0.00230738 -0.00299162 0)
(0.00238973 -0.00244313 0)
(0.00232534 -0.00177454 0)
(0.00209711 -0.00101176 0)
(0.001691 -0.000177331 0)
(0.0010955 0.000709802 0)
(0.000301178 0.00163434 0)
(-0.000699816 0.0025846 0)
(-0.00191415 0.00355236 0)
(-0.00334773 0.00453255 0)
(-0.00500598 0.00552289 0)
(-0.00689416 0.00652341 0)
(-0.0090175 0.00753588 0)
(-0.0113813 0.00856328 0)
(-0.0139908 0.00960914 0)
(-0.0168514 0.0106771 0)
(-0.0199679 0.0117702 0)
(-0.023345 0.0128906 0)
(-0.0269862 0.0140393 0)
(-0.0308941 0.0152156 0)
(-0.0350697 0.0164172 0)
(-0.0395121 0.0176402 0)
(-0.0442184 0.0188788 0)
(-0.0491831 0.0201256 0)
(-0.0543982 0.0213718 0)
(-0.0598529 0.022607 0)
(-0.0655332 0.0238198 0)
(-0.0714224 0.024998 0)
(-0.0775007 0.0261285 0)
(-0.0837456 0.0271975 0)
(-0.0901317 0.0281913 0)
(-0.0966313 0.0290959 0)
(-0.103215 0.0298978 0)
(-0.10985 0.0305836 0)
(-0.116505 0.0311408 0)
(-0.123144 0.0315579 0)
(-0.129735 0.0318244 0)
(-0.136241 0.031931 0)
(-0.142628 0.0318698 0)
(-0.148864 0.0316347 0)
(-0.154915 0.0312207 0)
(-0.160751 0.0306249 0)
(-0.166341 0.0298457 0)
(-0.171657 0.0288833 0)
(-0.176674 0.0277392 0)
(-0.181369 0.0264166 0)
(-0.185718 0.02492 0)
(-0.189702 0.0232553 0)
(-0.193304 0.0214293 0)
(-0.196508 0.0194502 0)
(-0.1993 0.0173272 0)
(-0.201669 0.0150701 0)
(-0.203603 0.0126901 0)
(-0.205094 0.0101986 0)
(-0.206135 0.00760811 0)
(-0.206721 0.00493171 0)
(-0.206846 0.00218314 0)
(-0.206509 -0.000623218 0)
(-0.205707 -0.00347243 0)
(-0.20444 -0.00634893 0)
(-0.20271 -0.00923653 0)
(-0.200518 -0.0121185 0)
(-0.197869 -0.0149776 0)
(-0.194768 -0.0177962 0)
(-0.191222 -0.0205559 0)
(-0.187239 -0.0232382 0)
(-0.182831 -0.0258244 0)
(-0.178009 -0.0282953 0)
(-0.172789 -0.030632 0)
(-0.167188 -0.0328155 0)
(-0.161224 -0.0348273 0)
(-0.15492 -0.0366494 0)