/*--------------------------------*- C++ -*----------------------------------*\
| =========                 |                                                 |
| \\      /  F ield         | OpenFOAM: The Open Source CFD Toolbox           |
|  \\    /   O peration     | Version:  2112                                  |
|   \\  /    A nd           | Website:  www.openfoam.com                      |
|    \\/     M anipulation  |                                                 |
\*---------------------------------------------------------------------------*/
FoamFile
{
    version     2.0;
    format      ascii;
    arch        "LSB;label=32;scalar=64";
    class       volScalarField;
    location    "30";
    object      p;
}
// * * * * * * * * * * * * * * * * * * * * * * * * * * * * * * * * * * * * * //

dimensions      [0 2 -2 0 0 0 0];

internalField   nonuniform List<scalar> 
16641
(
-5.4959e-08
1.39487e-05
2.74105e-05
3.5579e-05
3.50276e-05
2.40132e-05
2.00407e-06
-3.08325e-05
-7.39428e-05
-0.000126569
-0.000187867
-0.000256992
-0.000333152
-0.000415646
-0.000503888
-0.000597421
-0.000695925
-0.000799205
-0.00090719
-0.00101991
-0.00113748
-0.00126008
-0.00138795
-0.00152132
-0.00166044
-0.00180556
-0.00195685
-0.00211448
-0.00227852
-0.00244897
-0.00262577
-0.00280874
-0.00299761
-0.003192
-0.00339142
-0.00359528
-0.00380283
-0.00401321
-0.00422544
-0.00443839
-0.00465079
-0.00486125
-0.00506824
-0.00527011
-0.00546509
-0.0056513
-0.0058268
-0.00598955
-0.00613747
-0.00626848
-0.00638047
-0.00647142
-0.00653935
-0.00658241
-0.0065989
-0.00658731
-0.00654636
-0.00647506
-0.00637272
-0.00623901
-0.00607396
-0.00587806
-0.00565219
-0.00539772
-0.00511649
-0.0048108
-0.00448341
-0.00413745
-0.00377677
-0.00340534
-0.00302758
-0.00264818
-0.00227209
-0.0019044
-0.00155027
-0.00121487
-0.000903215
-0.000620141
-0.000370163
-0.000157386
1.45792e-05
0.000142709
0.000224638
0.000258714
0.000244051
0.000180549
6.89018e-05
-8.94162e-05
-0.000292178
-0.000536459
-0.000818827
-0.00113506
-0.00148074
-0.00185106
-0.00224097
-0.00264538
-0.0030592
-0.00347748
-0.00389551
-0.00430891
-0.00471367
-0.00510625
-0.00548359
-0.00584312
-0.00618282
-0.00650113
-0.00679701
-0.00706983
-0.00731938
-0.00754582
-0.00774957
-0.00793133
-0.00809195
-0.00823242
-0.0083538
-0.00845714
-0.00854349
-0.00861379
-0.00866891
-0.00870958
-0.00873646
-0.00875013
-0.00875124
-0.00874069
-0.00871989
-0.00869128
-0.00865889
-0.0086288
-0.00861031
-1.36463e-05
2.59e-07
9.68518e-06
1.32079e-05
9.22862e-06
-3.63248e-06
-2.59642e-05
-5.77962e-05
-9.88216e-05
-0.000148526
-0.000206284
-0.000271438
-0.000343348
-0.000421434
-0.000505202
-0.000594257
-0.000688316
-0.000787203
-0.00089084
-0.000999242
-0.0011125
-0.00123076
-0.0013542
-0.00148305
-0.0016175
-0.00175777
-0.00190401
-0.00205637
-0.0022149
-0.00237962
-0.00255045
-0.00272724
-0.00290975
-0.00309764
-0.00329045
-0.00348762
-0.00368847
-0.00389222
-0.00409792
-0.00430453
-0.00451086
-0.00471558
-0.00491727
-0.00511434
-0.00530513
-0.00548784
-0.0056606
-0.00582147
-0.00596844
-0.00609951
-0.00621266
-0.0063059
-0.00637731
-0.00642509
-0.00644757
-0.00644326
-0.00641089
-0.00634946
-0.00625826
-0.00613692
-0.00598544
-0.00580421
-0.00559407
-0.00535626
-0.00509253
-0.00480508
-0.00449657
-0.00416993
-0.00382875
-0.00347694
-0.00311874
-0.00275866
-0.00240146
-0.00205202
-0.00171534
-0.00139638
-0.00109998
-0.000830802
-0.000593194
-0.000391114
-0.000228037
-0.000106873
-2.98963e-05
1.31182e-06
-1.40949e-05
-7.6203e-05
-0.000184335
-0.000337063
-0.000532242
-0.000767062
-0.00103813
-0.00134158
-0.00167302
-0.0020279
-0.0024014
-0.00278866
-0.00318482
-0.0035852
-0.00398531
-0.004381
-0.00476849
-0.00514444
-0.00550595
-0.00585062
-0.00617653
-0.00648225
-0.00676676
-0.00702949
-0.00727025
-0.00748915
-0.0076866
-0.00786322
-0.00801981
-0.00815728
-0.00827661
-0.00837881
-0.00846487
-0.00853571
-0.00859221
-0.00863518
-0.00866534
-0.00868344
-0.00869029
-0.0086869
-0.00867467
-0.00865568
-0.00863302
-0.00861043
-0.00859184
-2.69091e-05
-8.97569e-06
4.34139e-07
2.46927e-06
-2.88289e-06
-1.65749e-05
-3.90508e-05
-7.03119e-05
-0.000110103
-0.000158001
-0.00021348
-0.000275975
-0.000344933
-0.000419844
-0.000500273
-0.000585871
-0.000676388
-0.000771665
-0.000871638
-0.000976322
-0.0010858
-0.00120022
-0.00131974
-0.00144457
-0.00157491
-0.00171095
-0.00185286
-0.00200075
-0.00215472
-0.00231477
-0.00248085
-0.00265284
-0.00283052
-0.00301358
-0.00320161
-0.00339411
-0.00359044
-0.00378987
-0.00399152
-0.00419439
-0.00439738
-0.00459921
-0.00479851
-0.00499378
-0.00518339
-0.0053656
-0.00553859
-0.00570047
-0.00584927
-0.005983
-0.00609966
-0.00619728
-0.00627395
-0.00632785
-0.00635728
-0.00636074
-0.00633692
-0.00628478
-0.00620354
-0.00609277
-0.00595241
-0.00578278
-0.00558461
-0.00535908
-0.00510785
-0.0048331
-0.00453698
-0.00422296
-0.00389423
-0.00355459
-0.0032082
-0.0028595
-0.00251315
-0.00217398
-0.00184688
-0.00153676
-0.00124839
-0.00098639
-0.000755046
-0.000558276
-0.00039952
-0.000281658
-0.000206944
-0.000176944
-0.000192497
-0.000253688
-0.000359848
-0.000509562
-0.00070071
-0.000930516
-0.00119562
-0.00149218
-0.00181594
-0.00216235
-0.00252669
-0.00290419
-0.00329011
-0.00367984
-0.00406904
-0.00445366
-0.00483004
-0.00519497
-0.00554567
-0.00587986
-0.00619571
-0.00649188
-0.00676745
-0.00702192
-0.00725512
-0.00746723
-0.00765867
-0.00783007
-0.00798222
-0.00811605
-0.0082325
-0.00833259
-0.00841728
-0.00848752
-0.0085442
-0.00858812
-0.00862005
-0.00864075
-0.00865101
-0.00865173
-0.00864405
-0.00862956
-0.00861046
-0.00858792
-0.00856157
-3.50841e-05
-1.24218e-05
-1.58234e-06
3.52416e-07
-5.43501e-06
-1.95041e-05
-4.20843e-05
-7.30508e-05
-0.000112104
-0.000158827
-0.000212725
-0.000273272
-0.000339958
-0.000412317
-0.000489955
-0.00057256
-0.000659909
-0.00075187
-0.000848398
-0.000949525
-0.00105535
-0.00116601
-0.00128171
-0.00140263
-0.00152899
-0.001661
-0.00179882
-0.0019426
-0.00209244
-0.00224837
-0.00241038
-0.00257836
-0.00275215
-0.00293148
-0.00311599
-0.00330523
-0.00349861
-0.00369546
-0.00389496
-0.00409618
-0.00429804
-0.00449935
-0.00469878
-0.00489486
-0.00508599
-0.00527048
-0.00544653
-0.00561223
-0.00576562
-0.00590472
-0.00602749
-0.00613193
-0.00621608
-0.00627808
-0.00631619
-0.00632881
-0.00631457
-0.00627234
-0.00620128
-0.00610087
-0.00597096
-0.00581178
-0.00562399
-0.00540869
-0.00516755
-0.00490295
-0.00461566
-0.00431036
-0.00398997
-0.00365815
-0.00331901
-0.00297694
-0.00263659
-0.00230277
-0.00198037
-0.00167431
-0.00138937
-0.00113016
-0.000901013
-0.000705865
-0.000548182
-0.000430874
-0.000356221
-0.000325813
-0.000340511
-0.000400417
-0.00050487
-0.000652462
-0.00084107
-0.00106791
-0.00132962
-0.00162233
-0.00194176
-0.00228344
-0.00264252
-0.00301428
-0.003394
-0.00377709
-0.00415923
-0.00453642
-0.00490507
-0.00526201
-0.00560456
-0.00593051
-0.00623814
-0.00652619
-0.00679384
-0.00704067
-0.0072666
-0.00747188
-0.007657
-0.00782264
-0.00796965
-0.00809898
-0.00821162
-0.0083086
-0.00839091
-0.00845952
-0.0085153
-0.00855909
-0.00859163
-0.00861361
-0.00862572
-0.00862863
-0.00862313
-0.00861027
-0.00859147
-0.00856569
-0.00852941
-3.47e-05
-8.47228e-06
3.62314e-06
5.6357e-06
-4.46416e-07
-1.4875e-05
-3.76736e-05
-6.8578e-05
-0.000107215
-0.000153136
-0.000205841
-0.000264819
-0.000329581
-0.000399691
-0.000474785
-0.000554581
-0.000638888
-0.000727603
-0.000820711
-0.00091827
-0.0010204
-0.00112728
-0.0012391
-0.00135611
-0.00147852
-0.00160657
-0.00174046
-0.00188036
-0.0020264
-0.00217866
-0.00233715
-0.00250184
-0.0026726
-0.00284921
-0.00303139
-0.00321872
-0.0034107
-0.00360671
-0.00380599
-0.00400766
-0.0042107
-0.00441395
-0.00461611
-0.00481575
-0.00501128
-0.005201
-0.0053831
-0.00555566
-0.00571669
-0.00586412
-0.0059959
-0.00610993
-0.00620418
-0.00627671
-0.00632566
-0.00634937
-0.00634635
-0.00631537
-0.0062555
-0.00616612
-0.00604698
-0.00589822
-0.00572043
-0.00551465
-0.00528224
-0.00502466
-0.00474614
-0.00444795
-0.00413372
-0.00380726
-0.00347269
-0.00313441
-0.00279707
-0.00246552
-0.00214468
-0.00183949
-0.00155479
-0.00129527
-0.0010653
-0.000868885
-0.000709569
-0.000590323
-0.000513492
-0.000480724
-0.000492928
-0.000550247
-0.000652046
-0.000796932
-0.000982781
-0.0012068
-0.0014656
-0.00175526
-0.00207149
-0.00240969
-0.00276507
-0.00313279
-0.0035081
-0.00388636
-0.00426325
-0.00463476
-0.00499729
-0.00534771
-0.00568339
-0.00600216
-0.00630239
-0.00658289
-0.00684294
-0.00708221
-0.00730074
-0.00749885
-0.00767712
-0.00783634
-0.00797743
-0.0081014
-0.0082093
-0.00830222
-0.00838118
-0.00844718
-0.00850112
-0.00854382
-0.00857597
-0.00859821
-0.00861107
-0.00861499
-0.00861037
-0.00859781
-0.00857803
-0.00854822
-0.00850223
-2.38382e-05
4.37722e-06
1.70859e-05
1.89393e-05
1.23957e-05
-2.57323e-06
-2.58188e-05
-5.69477e-05
-9.55031e-05
-0.000140986
-0.000192873
-0.000250646
-0.000313825
-0.000381994
-0.00045481
-0.000532021
-0.000613469
-0.000699087
-0.000788895
-0.000882988
-0.000981526
-0.00108472
-0.00119282
-0.00130608
-0.00142478
-0.00154918
-0.00167953
-0.00181606
-0.00195894
-0.00210829
-0.00226421
-0.0024267
-0.00259571
-0.00277108
-0.0029526
-0.00313992
-0.00333261
-0.00353008
-0.00373166
-0.00393651
-0.00414363
-0.00435191
-0.00456004
-0.00476659
-0.00496996
-0.00516843
-0.00536012
-0.00554305
-0.00571516
-0.00587431
-0.00601831
-0.00614498
-0.00625219
-0.00633785
-0.0064
-0.00643685
-0.0064468
-0.0064285
-0.00638092
-0.00630333
-0.00619538
-0.00605714
-0.00588911
-0.00569228
-0.00546804
-0.00521807
-0.00494524
-0.00465213
-0.00434207
-0.00401881
-0.00368643
-0.00334937
-0.00301232
-0.00268017
-0.00235788
-0.00205049
-0.0017629
-0.00149988
-0.00126591
-0.00106509
-0.000901071
-0.000776921
-0.000695087
-0.000657311
-0.000664588
-0.000717128
-0.000814354
-0.000954908
-0.00113669
-0.00135689
-0.0016121
-0.00189838
-0.00221136
-0.00254637
-0.00289854
-0.00326297
-0.00363478
-0.00400929
-0.00438209
-0.00474911
-0.00510673
-0.00545179
-0.00578165
-0.00609419
-0.00638779
-0.00666135
-0.00691423
-0.00714617
-0.00735732
-0.0075481
-0.00771922
-0.00787155
-0.00800612
-0.00812402
-0.00822641
-0.00831442
-0.00838915
-0.00845163
-0.00850279
-0.00854344
-0.00857425
-0.00859576
-0.00860836
-0.00861229
-0.00860759
-0.00859447
-0.00857315
-0.00853941
-0.00848512
-1.65156e-06
2.69622e-05
3.9454e-05
4.06816e-05
3.33178e-05
1.74904e-05
-6.51556e-06
-3.81961e-05
-7.70126e-05
-0.000122411
-0.000173834
-0.000230751
-0.00029268
-0.000359217
-0.00043004
-0.000504927
-0.000583756
-0.0006665
-0.000753225
-0.000844076
-0.000939262
-0.00103905
-0.00114373
-0.00125363
-0.00136909
-0.00149041
-0.00161792
-0.0017519
-0.00189259
-0.0020402
-0.00219488
-0.00235672
-0.00252574
-0.00270186
-0.00288494
-0.00307471
-0.0032708
-0.00347268
-0.00367972
-0.0038911
-0.00410586
-0.00432286
-0.00454081
-0.00475821
-0.00497343
-0.00518465
-0.00538992
-0.00558716
-0.00577418
-0.00594872
-0.00610845
-0.00625106
-0.00637425
-0.00647582
-0.00655366
-0.00660584
-0.00663063
-0.00662658
-0.00659252
-0.00652764
-0.0064315
-0.00630408
-0.00614582
-0.00595763
-0.00574091
-0.00549734
-0.0052295
-0.00494019
-0.00463271
-0.00431078
-0.00397852
-0.00364039
-0.00330112
-0.00296565
-0.00263904
-0.00232638
-0.00203269
-0.00176284
-0.00152143
-0.00131271
-0.00114044
-0.00100784
-0.000917495
-0.000871283
-0.000870319
-0.000914928
-0.00100463
-0.00113813
-0.00131338
-0.0015276
-0.00177739
-0.00205875
-0.00236729
-0.00269824
-0.00304666
-0.00340752
-0.00377585
-0.00414686
-0.004516
-0.00487914
-0.00523254
-0.005573
-0.00589783
-0.00620489
-0.00649257
-0.0067598
-0.00700598
-0.00723095
-0.00743492
-0.00761844
-0.0077823
-0.0079275
-0.00805517
-0.00816652
-0.0082628
-0.00834524
-0.008415
-0.00847318
-0.00852074
-0.00855849
-0.0085871
-0.00860701
-0.00861852
-0.00862166
-0.00861622
-0.00860208
-0.00857909
-0.00854206
-0.00848144
3.2137e-05
5.96653e-05
7.10392e-05
7.10438e-05
6.23822e-05
4.52914e-05
2.01615e-05
-1.24147e-05
-5.18279e-05
-9.74728e-05
-0.00014876
-0.000205141
-0.000266134
-0.000331342
-0.000400469
-0.000473324
-0.000549826
-0.000629998
-0.000713961
-0.000801917
-0.000894144
-0.00099097
-0.00109277
-0.00119993
-0.00131286
-0.00143196
-0.00155764
-0.00169024
-0.00183011
-0.00197755
-0.00213279
-0.00229601
-0.00246731
-0.00264673
-0.00283418
-0.00302946
-0.00323226
-0.0034421
-0.00365837
-0.00388027
-0.00410682
-0.00433684
-0.00456899
-0.0048017
-0.00503322
-0.00526164
-0.00548487
-0.00570067
-0.00590671
-0.00610056
-0.00627973
-0.00644174
-0.00658414
-0.00670454
-0.00680071
-0.00687057
-0.00691227
-0.00692422
-0.00690515
-0.00685417
-0.00677073
-0.00665476
-0.00650663
-0.00632716
-0.00611768
-0.00588005
-0.00561662
-0.00533021
-0.0050241
-0.00470204
-0.00436816
-0.00402695
-0.00368318
-0.00334186
-0.00300811
-0.00268711
-0.00238401
-0.00210379
-0.00185121
-0.00163065
-0.00144606
-0.00130084
-0.00119774
-0.00113882
-0.00112538
-0.00115789
-0.00123602
-0.00135861
-0.00152368
-0.00172855
-0.00196981
-0.00224351
-0.00254518
-0.00287003
-0.003213
-0.00356897
-0.00393285
-0.00429968
-0.00466481
-0.00502395
-0.00537324
-0.00570938
-0.00602959
-0.00633166
-0.00661395
-0.00687538
-0.00711536
-0.00733377
-0.00753091
-0.0077074
-0.00786412
-0.00800219
-0.00812284
-0.00822741
-0.00831724
-0.00839367
-0.00845796
-0.00851126
-0.00855458
-0.00858877
-0.00861448
-0.00863214
-0.00864192
-0.00864373
-0.00863717
-0.00862187
-0.00859742
-0.008558
-0.0084932
7.75104e-05
0.000102606
0.000111972
0.00011011
9.96226e-05
8.08273e-05
5.41938e-05
2.03796e-05
-1.99517e-05
-6.61535e-05
-0.00011761
-0.00017376
-0.000234123
-0.000298318
-0.000366073
-0.000437239
-0.000511782
-0.000589782
-0.000671428
-0.000756994
-0.000846835
-0.000941365
-0.00104104
-0.00114635
-0.0012578
-0.00137588
-0.0015011
-0.00163392
-0.00177479
-0.0019241
-0.00208221
-0.00224939
-0.00242586
-0.00261171
-0.00280694
-0.00301143
-0.00322489
-0.00344689
-0.0036768
-0.00391379
-0.00415684
-0.00440471
-0.00465593
-0.00490884
-0.00516153
-0.00541192
-0.00565777
-0.00589665
-0.00612603
-0.00634329
-0.00654577
-0.0067308
-0.00689575
-0.00703808
-0.00715539
-0.00724546
-0.00730633
-0.00733628
-0.00733396
-0.00729835
-0.00722887
-0.00712535
-0.00698809
-0.00681786
-0.00661591
-0.00638418
-0.00612487
-0.00584079
-0.00553522
-0.00521188
-0.00487493
-0.00452886
-0.00417848
-0.00382885
-0.00348515
-0.00315268
-0.00283669
-0.0025423
-0.00227442
-0.00203764
-0.00183609
-0.00167339
-0.00155252
-0.00147576
-0.00144465
-0.00145987
-0.0015213
-0.00162795
-0.00177801
-0.00196891
-0.00219735
-0.00245938
-0.00275057
-0.00306608
-0.0034008
-0.00374948
-0.00410691
-0.004468
-0.00482792
-0.00518222
-0.0055269
-0.00585848
-0.00617406
-0.00647132
-0.00674855
-0.00700459
-0.00723885
-0.0074512
-0.00764197
-0.00781183
-0.00796175
-0.00809293
-0.00820671
-0.00830454
-0.00838787
-0.00845813
-0.00851669
-0.00856477
-0.00860347
-0.00863367
-0.00865603
-0.00867096
-0.00867861
-0.00867878
-0.00867094
-0.00865457
-0.00862908
-0.0085883
-0.00852141
0.000134285
0.000155726
0.000162238
0.000157872
0.000145028
0.000124089
9.55817e-05
6.02033e-05
1.86534e-05
-2.83951e-05
-8.031e-05
-0.000136527
-0.000196575
-0.000260095
-0.000326852
-0.000396741
-0.000469788
-0.000546143
-0.00062607
-0.000709934
-0.000798182
-0.000891328
-0.000989937
-0.00109461
-0.00120596
-0.00132462
-0.00145119
-0.00158628
-0.00173046
-0.00188425
-0.0020481
-0.00222243
-0.00240752
-0.00260358
-0.00281067
-0.0030287
-0.00325741
-0.00349636
-0.00374488
-0.00400209
-0.00426687
-0.00453786
-0.00481345
-0.00509179
-0.0053708
-0.00564821
-0.00592155
-0.0061882
-0.0064454
-0.00669033
-0.00692013
-0.00713193
-0.00732294
-0.00749044
-0.00763189
-0.00774494
-0.00782749
-0.00787774
-0.00789423
-0.00787585
-0.00782193
-0.00773225
-0.00760703
-0.00744698
-0.00725331
-0.00702783
-0.00677275
-0.00649083
-0.0061853
-0.00585986
-0.00551864
-0.00516614
-0.00480718
-0.00444685
-0.00409042
-0.00374324
-0.0034107
-0.00309806
-0.00281042
-0.00255256
-0.00232884
-0.00214314
-0.00199872
-0.00189815
-0.00184323
-0.00183495
-0.00187345
-0.00195802
-0.00208705
-0.00225817
-0.00246822
-0.00271337
-0.00298925
-0.003291
-0.00361349
-0.0039514
-0.00429938
-0.0046522
-0.00500486
-0.00535272
-0.0056916
-0.00601782
-0.0063283
-0.00662058
-0.00689281
-0.00714372
-0.00737265
-0.00757942
-0.00776435
-0.00792813
-0.00807177
-0.00819654
-0.00830386
-0.00839526
-0.00847231
-0.00853654
-0.0085894
-0.00863223
-0.00866619
-0.00869221
-0.00871101
-0.00872301
-0.00872834
-0.00872676
-0.00871768
-0.00870047
-0.00867444
-0.00863333
-0.0085663
0.000202166
0.000218825
0.00022169
0.000214216
0.000198515
0.00017502
0.000144295
0.000107054
6.40096e-05
1.58446e-05
-3.68074e-05
-9.33919e-05
-0.000153459
-0.000216684
-0.000282877
-0.000351992
-0.000424124
-0.000499507
-0.000578496
-0.000661558
-0.00074925
-0.000842208
-0.000941123
-0.00104672
-0.00115977
-0.00128102
-0.00141124
-0.00155117
-0.00170152
-0.00186294
-0.00203603
-0.00222129
-0.00241913
-0.0026298
-0.00285343
-0.00308994
-0.00333907
-0.00360032
-0.00387296
-0.00415598
-0.00444813
-0.00474787
-0.00505341
-0.00536269
-0.00567341
-0.00598305
-0.00628892
-0.00658815
-0.00687777
-0.00715474
-0.00741599
-0.00765846
-0.00787919
-0.00807531
-0.00824413
-0.00838317
-0.00849023
-0.0085634
-0.00860111
-0.00860218
-0.00856585
-0.0084918
-0.0083802
-0.00823168
-0.00804737
-0.00782898
-0.00757866
-0.0072991
-0.00699347
-0.00666542
-0.00631901
-0.00595873
-0.0055894
-0.00521611
-0.00484417
-0.00447904
-0.00412618
-0.00379103
-0.00347886
-0.00319468
-0.00294311
-0.00272832
-0.00255389
-0.00242273
-0.00233701
-0.00229807
-0.00230639
-0.0023616
-0.00246243
-0.00260674
-0.00279163
-0.00301344
-0.00326791
-0.00355028
-0.00385539
-0.00417789
-0.00451234
-0.00485336
-0.00519579
-0.00553477
-0.00586591
-0.00618532
-0.0064897
-0.00677638
-0.00704332
-0.00728911
-0.00751293
-0.00771454
-0.00789418
-0.00805249
-0.00819052
-0.00830953
-0.00841101
-0.00849656
-0.00856783
-0.00862644
-0.00867394
-0.00871176
-0.00874113
-0.00876307
-0.00877835
-0.00878744
-0.00879048
-0.00878724
-0.0087771
-0.00875939
-0.00873339
-0.00869294
-0.00862748
0.000280756
0.000291575
0.000290056
0.000278919
0.000259905
0.000233484
0.000200239
0.000160867
0.00011608
6.65471e-05
1.28834e-05
-4.43828e-05
-0.000104838
-0.000168203
-0.000234349
-0.000303301
-0.000375241
-0.000450495
-0.00052953
-0.000612931
-0.000701386
-0.000795668
-0.000896615
-0.00100511
-0.00112207
-0.00124842
-0.00138508
-0.00153295
-0.0016929
-0.00186572
-0.00205213
-0.00225274
-0.00246804
-0.00269835
-0.00294379
-0.00320429
-0.00347952
-0.00376889
-0.00407155
-0.00438635
-0.00471181
-0.00504621
-0.00538751
-0.0057334
-0.00608134
-0.00642854
-0.00677205
-0.00710878
-0.00743551
-0.00774899
-0.00804595
-0.00832315
-0.00857745
-0.00880583
-0.00900549
-0.00917382
-0.0093085
-0.00940751
-0.0094692
-0.0094923
-0.00947595
-0.00941975
-0.00932375
-0.00918849
-0.00901503
-0.00880494
-0.0085603
-0.00828368
-0.00797816
-0.0076473
-0.00729509
-0.00692596
-0.00654469
-0.00615636
-0.00576631
-0.00538004
-0.00500312
-0.00464113
-0.00429953
-0.00398355
-0.00369812
-0.00344771
-0.00323628
-0.00306714
-0.00294287
-0.00286524
-0.0028352
-0.00285278
-0.00291711
-0.00302644
-0.00317817
-0.00336894
-0.00359468
-0.00385077
-0.00413213
-0.0044334
-0.0047491
-0.00507371
-0.00540192
-0.00572866
-0.00604931
-0.00635972
-0.00665635
-0.00693627
-0.00719721
-0.00743753
-0.00765625
-0.00785294
-0.00802774
-0.00818121
-0.00831433
-0.00842836
-0.0085248
-0.00860528
-0.0086715
-0.00872516
-0.0087679
-0.00880121
-0.00882643
-0.00884466
-0.00885673
-0.00886316
-0.00886415
-0.0088595
-0.00884861
-0.00883083
-0.00880541
-0.0087665
-0.00870406
0.000369548
0.000373523
0.000366933
0.000351633
0.000328904
0.000299237
0.000263209
0.000221483
0.000174729
0.000123586
6.86295e-05
1.03419e-05
-5.09167e-05
-0.000114931
-0.000181648
-0.000251179
-0.000323807
-0.000399974
-0.00048027
-0.00056542
-0.000656261
-0.000753724
-0.000858815
-0.000972594
-0.00109615
-0.00123059
-0.00137702
-0.0015365
-0.00171005
-0.00189862
-0.00210303
-0.00232401
-0.00256207
-0.00281757
-0.00309062
-0.00338108
-0.00368852
-0.00401222
-0.00435114
-0.00470391
-0.00506886
-0.00544398
-0.00582696
-0.00621523
-0.00660596
-0.0069961
-0.00738245
-0.00776164
-0.00813024
-0.00848479
-0.00882182
-0.00913792
-0.00942979
-0.00969428
-0.00992844
-0.0101296
-0.0102952
-0.0104233
-0.010512
-0.01056
-0.0105664
-0.0105305
-0.0104524
-0.0103325
-0.0101717
-0.00997149
-0.00973378
-0.00946103
-0.00915618
-0.00882268
-0.00846442
-0.00808571
-0.00769126
-0.00728612
-0.00687562
-0.00646526
-0.00606072
-0.00566769
-0.00529181
-0.00493855
-0.00461312
-0.00432037
-0.00406464
-0.00384968
-0.00367857
-0.00355359
-0.00347621
-0.00344698
-0.00346554
-0.00353063
-0.00364009
-0.00379091
-0.00397935
-0.00420101
-0.00445098
-0.00472398
-0.00501449
-0.00531694
-0.00562586
-0.005936
-0.00624248
-0.00654088
-0.00682738
-0.00709875
-0.00735242
-0.00758649
-0.00779974
-0.00799151
-0.00816175
-0.0083109
-0.00843981
-0.00854968
-0.00864196
-0.00871829
-0.00878038
-0.00882998
-0.00886878
-0.00889835
-0.00892011
-0.00893522
-0.0089446
-0.00894884
-0.00894821
-0.00894256
-0.00893136
-0.00891397
-0.0088897
-0.00885309
-0.00879483
0.000467902
0.000464073
0.000451764
0.000431861
0.000405074
0.000371896
0.000332872
0.000288597
0.000239676
0.000186683
0.000130134
7.04454e-05
7.90312e-06
-5.73604e-05
-0.000125384
-0.000196387
-0.00027077
-0.000349105
-0.000432133
-0.000520733
-0.000615913
-0.000718785
-0.000830542
-0.000952438
-0.00108576
-0.0012318
-0.00139185
-0.00156716
-0.00175889
-0.00196812
-0.00219579
-0.00244266
-0.0027093
-0.00299603
-0.00330291
-0.00362967
-0.00397575
-0.00434023
-0.00472185
-0.00511899
-0.00552969
-0.00595165
-0.00638228
-0.00681871
-0.00725782
-0.00769628
-0.00813062
-0.00855725
-0.00897251
-0.00937272
-0.00975424
-0.0101135
-0.010447
-0.0107516
-0.011024
-0.0112616
-0.0114617
-0.0116222
-0.0117412
-0.0118172
-0.0118491
-0.0118363
-0.0117786
-0.0116764
-0.0115304
-0.0113419
-0.0111126
-0.010845
-0.0105418
-0.0102062
-0.00984198
-0.00945337
-0.00904495
-0.00862167
-0.0081888
-0.00775186
-0.00731654
-0.00688864
-0.00647394
-0.00607816
-0.0057068
-0.00536505
-0.00505767
-0.00478893
-0.00456241
-0.00438101
-0.00424677
-0.00416089
-0.00412362
-0.00413429
-0.00419131
-0.00429216
-0.00443354
-0.0046114
-0.00482109
-0.00505748
-0.00531513
-0.00558846
-0.00587187
-0.00615993
-0.00644754
-0.00673
-0.00700315
-0.00726342
-0.00750793
-0.00773444
-0.0079414
-0.00812789
-0.0082936
-0.00843876
-0.00856404
-0.00867052
-0.00875955
-0.00883272
-0.00889172
-0.00893829
-0.00897416
-0.00900096
-0.00902013
-0.00903295
-0.00904037
-0.00904309
-0.00904142
-0.00903532
-0.00902431
-0.00900783
-0.00898523
-0.00895155
-0.00889835
0.000575016
0.000562429
0.000543849
0.000518942
0.000487808
0.000450909
0.000408719
0.00036173
0.000310448
0.000255359
0.00019689
0.000135366
7.09783e-05
3.75751e-06
-6.64488e-05
-0.000139986
-0.000217391
-0.000299394
-0.000386896
-0.000480961
-0.000582785
-0.00069368
-0.000815048
-0.00094835
-0.00109508
-0.00125674
-0.0014348
-0.00163068
-0.0018457
-0.00208103
-0.00233769
-0.00261648
-0.00291793
-0.00324231
-0.00358955
-0.00395923
-0.00435059
-0.00476246
-0.00519331
-0.00564123
-0.00610395
-0.00657886
-0.00706306
-0.00755336
-0.00804635
-0.00853844
-0.00902589
-0.00950486
-0.00997149
-0.0104219
-0.0108523
-0.0112589
-0.0116382
-0.0119866
-0.0123012
-0.0125788
-0.012817
-0.0130132
-0.0131657
-0.0132727
-0.0133331
-0.0133462
-0.0133116
-0.0132294
-0.0131004
-0.0129257
-0.0127068
-0.0124458
-0.0121454
-0.0118087
-0.0114391
-0.0110408
-0.0106182
-0.010176
-0.00971946
-0.00925404
-0.00878542
-0.00831944
-0.00786202
-0.00741905
-0.00699631
-0.00659932
-0.00623331
-0.00590301
-0.00561261
-0.00536563
-0.00516481
-0.00501205
-0.00490834
-0.00485373
-0.0048473
-0.0048872
-0.00497069
-0.00509421
-0.00525348
-0.00544368
-0.00565953
-0.00589549
-0.00614593
-0.0064053
-0.00666824
-0.00692978
-0.00718542
-0.00743123
-0.00766393
-0.00788091
-0.00808023
-0.00826062
-0.00842146
-0.00856268
-0.00868472
-0.00878846
-0.0088751
-0.0089461
-0.00900308
-0.00904775
-0.00908183
-0.00910695
-0.0091246
-0.0091361
-0.00914248
-0.00914448
-0.00914251
-0.0091366
-0.00912636
-0.00911131
-0.00909087
-0.00906062
-0.00901308
0.000689894
0.000667658
0.000642253
0.000612015
0.000576307
0.000535524
0.000490036
0.000440189
0.000386355
0.000328901
0.000268136
0.000204271
0.00013738
6.73671e-05
-6.05395e-06
-8.33749e-05
-0.000165295
-0.000252717
-0.000346732
-0.000448602
-0.000559737
-0.000681668
-0.000816017
-0.00096447
-0.00112874
-0.00131052
-0.00151147
-0.00173317
-0.00197705
-0.00224437
-0.00253618
-0.00285326
-0.00319608
-0.00356478
-0.00395913
-0.0043785
-0.00482186
-0.00528776
-0.00577435
-0.00627941
-0.00680033
-0.00733418
-0.00787771
-0.00842745
-0.00897967
-0.00953051
-0.010076
-0.010612
-0.0111346
-0.0116395
-0.012123
-0.012581
-0.0130098
-0.013406
-0.0137662
-0.0140873
-0.0143667
-0.0146019
-0.0147909
-0.0149319
-0.0150236
-0.0150652
-0.0150562
-0.0149966
-0.0148869
-0.014728
-0.0145214
-0.0142689
-0.0139729
-0.0136364
-0.0132626
-0.0128553
-0.0124187
-0.0119576
-0.0114769
-0.0109819
-0.0104784
-0.00997203
-0.00946887
-0.00897494
-0.00849624
-0.00803861
-0.00760768
-0.00720869
-0.00684643
-0.00652508
-0.00624812
-0.00601826
-0.00583732
-0.00570618
-0.00562475
-0.00559199
-0.00560586
-0.00566346
-0.00576107
-0.00589427
-0.00605809
-0.00624717
-0.00645592
-0.00667869
-0.00690997
-0.0071445
-0.00737745
-0.00760449
-0.00782191
-0.00802664
-0.00821632
-0.00838926
-0.00854443
-0.00868141
-0.00880032
-0.00890176
-0.00898671
-0.00905645
-0.00911248
-0.0091564
-0.00918988
-0.00921451
-0.00923181
-0.0092431
-0.00924946
-0.00925168
-0.00925025
-0.00924526
-0.00923642
-0.00922333
-0.00920548
-0.00917903
-0.00913747
0.000811319
0.000778569
0.000745847
0.000710003
0.000669546
0.000624762
0.000575872
0.00052303
0.000466442
0.000406318
0.000342822
0.000276024
0.000205856
0.000132074
5.42331e-05
-2.83272e-05
-0.000116489
-0.000211353
-0.00031422
-0.000426573
-0.000550054
-0.000686426
-0.000837548
-0.00100533
-0.00119171
-0.00139857
-0.00162774
-0.00188092
-0.00215964
-0.0024652
-0.00279864
-0.00316066
-0.00355162
-0.00397147
-0.00441976
-0.00489559
-0.00539763
-0.0059241
-0.00647283
-0.00704122
-0.00762631
-0.00822484
-0.00883324
-0.00944769
-0.0100642
-0.0106786
-0.0112867
-0.0118843
-0.0124669
-0.0130304
-0.0135707
-0.0140837
-0.0145656
-0.0150127
-0.0154217
-0.0157894
-0.0161129
-0.0163899
-0.016618
-0.0167955
-0.016921
-0.0169935
-0.0170125
-0.0169777
-0.0168895
-0.0167486
-0.0165563
-0.0163142
-0.0160245
-0.0156899
-0.0153133
-0.0148983
-0.014449
-0.0139696
-0.0134651
-0.0129406
-0.0124015
-0.0118536
-0.0113029
-0.0107555
-0.0102175
-0.00969498
-0.00919401
-0.00872028
-0.00827913
-0.00787543
-0.00751345
-0.00719674
-0.00692803
-0.00670916
-0.006541
-0.00642345
-0.00635538
-0.0063347
-0.00635843
-0.00642273
-0.00652311
-0.00665452
-0.00681153
-0.00698854
-0.0071799
-0.00738014
-0.00758407
-0.00778698
-0.00798468
-0.00817362
-0.00835093
-0.00851442
-0.00866259
-0.00879458
-0.0089101
-0.00900941
-0.00909317
-0.00916243
-0.00921847
-0.00926275
-0.00929681
-0.00932219
-0.00934035
-0.00935261
-0.00936006
-0.00936353
-0.00936354
-0.00936025
-0.00935347
-0.00934286
-0.00932799
-0.00930559
-0.0092701
0.000937824
0.000893739
0.000853263
0.000811592
0.000766258
0.00071739
0.00066501
0.000609037
0.000549464
0.000486314
0.000419576
0.000349152
0.000274803
0.000196116
0.000112465
2.29936e-05
-7.33855e-05
-0.000177991
-0.000292357
-0.000418208
-0.000557429
-0.000712032
-0.000884115
-0.00107582
-0.00128928
-0.00152657
-0.00178966
-0.00208035
-0.00240021
-0.00275053
-0.00313227
-0.00354603
-0.00399196
-0.0044698
-0.00497881
-0.00551777
-0.00608502
-0.00667841
-0.0072954
-0.00793301
-0.00858794
-0.00925655
-0.00993495
-0.010619
-0.0113044
-0.0119868
-0.0126617
-0.0133246
-0.013971
-0.0145965
-0.0151968
-0.0157678
-0.0163056
-0.0168064
-0.0172666
-0.0176832
-0.0180532
-0.0183739
-0.0186433
-0.0188594
-0.0190207
-0.0191261
-0.0191749
-0.0191669
-0.0191021
-0.0189812
-0.0188053
-0.0185756
-0.0182942
-0.0179634
-0.0175861
-0.0171653
-0.0167049
-0.016209
-0.015682
-0.0151289
-0.0145549
-0.0139657
-0.013367
-0.012765
-0.0121659
-0.011576
-0.0110014
-0.0104484
-0.00992283
-0.00943016
-0.00897545
-0.00856313
-0.00819691
-0.00787965
-0.00761332
-0.0073989
-0.00723633
-0.00712454
-0.00706146
-0.00704407
-0.00706854
-0.00713031
-0.00722431
-0.00734507
-0.00748695
-0.00764431
-0.00781169
-0.00798396
-0.00815647
-0.00832513
-0.0084865
-0.00863782
-0.00877704
-0.00890275
-0.00901419
-0.00911117
-0.00919397
-0.0092633
-0.00932017
-0.00936581
-0.00940159
-0.00942893
-0.00944918
-0.00946362
-0.00947331
-0.00947908
-0.00948148
-0.0094807
-0.00947664
-0.00946902
-0.00945746
-0.00943924
-0.00940971
0.00106767
0.00101149
0.000962874
0.000915204
0.00086491
0.0008119
0.000755949
0.00069669
0.000633863
0.000567267
0.000496684
0.000421821
0.000342248
0.000257352
0.0001663
6.80226e-05
-3.87999e-05
-0.000155727
-0.000284544
-0.000427232
-0.000585933
-0.000762913
-0.00096051
-0.00118108
-0.00142696
-0.00170037
-0.00200338
-0.00233784
-0.00270533
-0.00310707
-0.00354389
-0.00401619
-0.0045239
-0.00506645
-0.00564278
-0.00625132
-0.00689001
-0.00755633
-0.00824732
-0.00895964
-0.0096896
-0.0104332
-0.0111862
-0.0119442
-0.0127025
-0.0134566
-0.0142017
-0.0149331
-0.0156461
-0.0163363
-0.0169991
-0.0176303
-0.018226
-0.0187822
-0.0192954
-0.0197624
-0.0201802
-0.0205462
-0.0208582
-0.0211141
-0.0213125
-0.0214521
-0.0215323
-0.0215525
-0.0215126
-0.0214136
-0.0212559
-0.0210407
-0.0207697
-0.020445
-0.0200691
-0.019645
-0.019176
-0.0186658
-0.0181187
-0.0175392
-0.0169323
-0.0163033
-0.0156579
-0.015002
-0.0143418
-0.0136836
-0.0130339
-0.012399
-0.0117853
-0.0111989
-0.0106455
-0.0101304
-0.00965824
-0.00923307
-0.008858
-0.00853519
-0.00826584
-0.00805007
-0.00788695
-0.00777449
-0.00770976
-0.00768893
-0.00770746
-0.00776023
-0.00784175
-0.00794634
-0.00806833
-0.00820224
-0.00834293
-0.00848576
-0.00862668
-0.00876228
-0.00888987
-0.00900741
-0.00911357
-0.00920761
-0.00928933
-0.00935902
-0.00941732
-0.00946517
-0.00950369
-0.00953411