/*--------------------------------*- C++ -*----------------------------------*\
| =========                 |                                                 |
| \\      /  F ield         | OpenFOAM: The Open Source CFD Toolbox           |
|  \\    /   O peration     | Version:  2112                                  |
|   \\  /    A nd           | Website:  www.openfoam.com                      |
|    \\/     M anipulation  |                                                 |
\*---------------------------------------------------------------------------*/
FoamFile
{
    version     2.0;
    format      ascii;
    arch        "LSB;label=32;scalar=64";
    class       surfaceScalarField;
    location    "30";
    object      phi;
}
// * * * * * * * * * * * * * * * * * * * * * * * * * * * * * * * * * * * * * //

dimensions      [0 3 -1 0 0 0 0];

oriented        oriented;

internalField   nonuniform List<scalar> 
33024
(
-3.17835e-09
3.21153e-09
2.28256e-08
-2.60008e-08
7.84617e-08
-5.56383e-08
1.55393e-07
-7.69316e-08
2.45259e-07
-8.98676e-08
3.41017e-07
-9.57581e-08
4.37067e-07
-9.60481e-08
5.29129e-07
-9.20608e-08
6.14041e-07
-8.49121e-08
6.89558e-07
-7.55185e-08
7.54183e-07
-6.46257e-08
8.07017e-07
-5.28336e-08
8.47632e-07
-4.06138e-08
8.75954e-07
-2.83219e-08
8.92162e-07
-1.62093e-08
8.96599e-07
-4.4372e-09
8.89682e-07
6.91752e-09
8.71843e-07
1.78399e-08
8.43466e-07
2.83769e-08
8.04847e-07
3.86184e-08
7.56161e-07
4.86861e-08
6.9744e-07
5.8721e-08
6.28567e-07
6.88726e-08
5.49278e-07
7.92894e-08
4.59168e-07
9.01101e-08
3.57711e-07
1.01457e-07
2.44279e-07
1.13432e-07
1.18167e-07
1.26112e-07
-2.13811e-08
1.39548e-07
-1.75148e-07
1.53767e-07
-3.43918e-07
1.6877e-07
-5.28452e-07
1.84534e-07
-7.29469e-07
2.01016e-07
-9.47618e-07
2.1815e-07
-1.18347e-06
2.35851e-07
-1.43749e-06
2.54017e-07
-1.71001e-06
2.72528e-07
-2.00126e-06
2.91244e-07
-2.31127e-06
3.10013e-07
-2.63993e-06
3.28661e-07
-2.98693e-06
3.47001e-07
-3.35176e-06
3.6483e-07
-3.73369e-06
3.8193e-07
-4.13176e-06
3.98069e-07
-4.54477e-06
4.13007e-07
-4.97126e-06
4.26492e-07
-5.40953e-06
4.38267e-07
-5.8576e-06
4.48073e-07
-6.31325e-06
4.55648e-07
-6.77398e-06
4.60736e-07
-7.23707e-06
4.6309e-07
-7.69954e-06
4.6247e-07
-8.1582e-06
4.58656e-07
-8.60964e-06
4.51445e-07
-9.0503e-06
4.40659e-07
-9.47645e-06
4.26146e-07
-9.88423e-06
4.07788e-07
-1.02697e-05
3.855e-07
-1.0629e-05
3.5924e-07
-1.0958e-05
3.29005e-07
-1.12528e-05
2.94838e-07
-1.15096e-05
2.56833e-07
-1.17248e-05
2.15132e-07
-1.18947e-05
1.69936e-07
-1.20162e-05
1.21522e-07
-1.20864e-05
7.02058e-08
-1.21028e-05
1.63708e-08
-1.20628e-05
-3.99845e-08
-1.19651e-05
-9.77034e-08
-1.18085e-05
-1.56656e-07
-1.15923e-05
-2.16212e-07
-1.13165e-05
-2.7576e-07
-1.09818e-05
-3.34654e-07
-1.05896e-05
-3.92224e-07
-1.01418e-05
-4.47779e-07
-9.64122e-06
-5.00621e-07
-9.09117e-06
-5.50057e-07
-8.49576e-06
-5.95411e-07
-7.85972e-06
-6.36036e-07
-7.18839e-06
-6.71332e-07
-6.48763e-06
-7.00757e-07
-5.76379e-06
-7.23845e-07
-5.02357e-06
-7.40214e-07
-4.27399e-06
-7.49584e-07
-3.52221e-06
-7.51784e-07
-2.77544e-06
-7.46763e-07
-2.04086e-06
-7.3459e-07
-1.32539e-06
-7.1546e-07
-6.35704e-07
-6.89691e-07
2.20243e-08
-6.57729e-07
6.42238e-07
-6.20214e-07
1.21984e-06
-5.77602e-07
1.7506e-06
-5.30761e-07
2.23106e-06
-4.80459e-07
2.65861e-06
-4.27548e-07
3.0315e-06
-3.72888e-07
3.34884e-06
-3.17347e-07
3.61061e-06
-2.61771e-07
3.81758e-06
-2.06969e-07
3.97127e-06
-1.53686e-07
4.07386e-06
-1.02596e-07
4.12814e-06
-5.42804e-08
4.13737e-06
-9.22687e-09
4.10519e-06
3.2186e-08
4.03551e-06
6.96796e-08
3.93242e-06
1.03085e-07
3.80009e-06
1.32334e-07
3.64264e-06
1.57448e-07
3.4641e-06
1.78539e-07
3.26831e-06
1.95786e-07
3.05888e-06
2.09432e-07
2.83912e-06
2.19764e-07
2.61202e-06
2.27095e-07
2.38027e-06
2.31751e-07
2.14623e-06
2.34042e-07
1.91198e-06
2.34246e-07
1.67941e-06
2.32577e-07
1.45025e-06
2.29154e-07
1.22628e-06
2.23971e-07
1.00943e-06
2.16853e-07
8.02007e-07
2.07422e-07
6.0695e-07
1.95057e-07
4.2808e-07
1.7887e-07
2.70362e-07
1.57719e-07
1.40033e-07
1.30329e-07
4.43204e-08
9.57128e-08
-9.90889e-09
5.42292e-08
-2.04393e-08
1.05303e-08
-2.04394e-08
2.59452e-08
-2.27307e-08
1.14872e-07
-1.14931e-07
2.60166e-07
-2.00928e-07
4.47966e-07
-2.64729e-07
6.62911e-07
-3.04814e-07
8.90574e-07
-3.23423e-07
1.11849e-06
-3.23964e-07
1.33646e-06
-3.10028e-07
1.53648e-06
-2.84931e-07
1.71253e-06
-2.51572e-07
1.86031e-06
-2.12408e-07
1.97696e-06
-1.69477e-07
2.06076e-06
-1.24412e-07
2.11091e-06
-7.84743e-08
2.12728e-06
-3.25787e-08
2.11018e-06
1.26642e-08
2.06016e-06
5.69326e-08
1.97787e-06
1.00133e-07
1.86388e-06
1.4237e-07
1.71859e-06
1.83908e-07
1.54215e-06
2.2512e-07
1.33442e-06
2.66455e-07
1.0949e-06
3.08392e-07
8.22778e-07
3.5141e-07
5.16934e-07
3.95954e-07
1.75975e-07
4.42416e-07
-2.01706e-07
4.91112e-07
-6.17868e-07
5.42274e-07
-1.07436e-06
5.96041e-07
-1.57306e-06
6.5246e-07
-2.11577e-06
7.11482e-07
-2.70421e-06
7.72973e-07
-3.3399e-06
8.36712e-07
-4.02415e-06
9.024e-07
-4.75797e-06
9.69664e-07
-5.54201e-06
1.03806e-06
-6.37656e-06
1.10708e-06
-7.26146e-06
1.17614e-06
-8.19607e-06
1.24462e-06
-9.17922e-06
1.31181e-06
-1.02092e-05
1.37698e-06
-1.12837e-05
1.43933e-06
-1.23998e-05
1.49802e-06
-1.35539e-05
1.55219e-06
-1.47418e-05
1.60093e-06
-1.59587e-05
1.64334e-06
-1.71989e-05
1.67849e-06
-1.84563e-05
1.70549e-06
-1.97241e-05
1.72345e-06
-2.09949e-05
1.73151e-06
-2.22607e-05
1.72887e-06
-2.3513e-05
1.71479e-06
-2.4743e-05
1.68861e-06
-2.59413e-05
1.64974e-06
-2.70983e-05
1.59771e-06
-2.82043e-05
1.53217e-06
-2.92494e-05
1.45286e-06
-3.02236e-05
1.3597e-06
-3.11171e-05
1.25271e-06
-3.19202e-05
1.1321e-06
-3.26236e-05
9.98219e-07
-3.32183e-05
8.51574e-07
-3.3696e-05
6.9285e-07
-3.4049e-05
5.22911e-07
-3.42703e-05
3.42846e-07
-3.4354e-05
1.5385e-07
-3.42949e-05
-4.26512e-08
-3.40889e-05
-2.45977e-07
-3.37334e-05
-4.53285e-07
-3.32268e-05
-6.63232e-07
-3.25691e-05
-8.73881e-07
-3.17617e-05
-1.08318e-06
-3.08073e-05
-1.289e-06
-2.97104e-05
-1.48914e-06
-2.84768e-05
-1.68137e-06
-2.7114e-05
-1.86344e-06
-2.56309e-05
-2.03316e-06
-2.40379e-05
-2.18839e-06
-2.23469e-05
-2.3271e-06
-2.05708e-05
-2.44742e-06
-1.87239e-05
-2.54765e-06
-1.68214e-05
-2.62636e-06
-1.48792e-05
-2.68234e-06
-1.29141e-05
-2.71474e-06
-1.09429e-05
-2.723e-06
-8.98265e-06
-2.70696e-06
-7.05043e-06
-2.66681e-06
-5.16275e-06
-2.60314e-06
-3.33551e-06
-2.51693e-06
-1.5837e-06
-2.40953e-06
7.87498e-08
-2.28266e-06
1.63951e-06
-2.13836e-06
3.08757e-06
-1.97882e-06
4.41377e-06
-1.80666e-06
5.61081e-06
-1.62458e-06
6.6733e-06
-1.43538e-06
7.59784e-06
-1.24189e-06
8.38301e-06
-1.04694e-06
9.02929e-06
-8.53256e-07
9.53902e-06
-6.63414e-07
9.9162e-06
-4.79778e-07
1.01664e-05
-3.04456e-07
1.02964e-05
-1.3926e-07
1.03143e-05
1.43171e-08
1.02288e-05
1.55123e-07
1.00496e-05
2.8235e-07
9.78638e-06
3.95528e-07
9.44932e-06
4.94509e-07
9.04841e-06
5.79443e-07
8.59345e-06
6.50745e-07
8.09383e-06
7.09051e-07
7.55843e-06
7.55171e-07
6.99549e-06
7.90031e-07
6.41263e-06
8.14606e-07
5.81682e-06
8.29852e-07
5.21446e-06
8.36615e-07
4.61149e-06
8.35546e-07
4.01364e-06
8.26997e-07
3.4267e-06
8.10919e-07
2.8568e-06
7.86752e-07
2.31088e-06
7.53337e-07
1.79708e-06
7.08855e-07
1.3251e-06
6.50855e-07
9.06377e-07
5.76441e-07
5.53871e-07
4.82834e-07
2.80884e-07
3.687e-07
9.84792e-08
2.36634e-07
1.09192e-08
9.809e-08
-9.52032e-09
5.56042e-08
-7.83368e-08
2.01136e-07
-2.60464e-07
4.18442e-07
-4.18235e-07
6.88233e-07
-5.34518e-07
9.90712e-07
-6.0729e-07
1.30719e-06
-6.39904e-07
1.62111e-06
-6.37885e-07
1.91848e-06
-6.07391e-07
2.18793e-06
-5.54385e-07
2.42063e-06
-4.84271e-07
2.60998e-06
-4.01763e-07
2.75134e-06
-3.10835e-07
2.84166e-06
-2.14732e-07
2.87918e-06
-1.15992e-07
2.86309e-06
-1.64866e-08
2.79325e-06
8.25066e-08
2.6699e-06
1.80279e-07
2.49345e-06
2.76581e-07
2.26426e-06
3.7156e-07
1.98249e-06
4.65681e-07
1.64797e-06
5.59635e-07
1.26017e-06
6.5426e-07
8.18097e-07
7.50462e-07
3.20365e-07
8.49142e-07
-2.34818e-07
9.51137e-07
-8.49569e-07
1.05717e-06
-1.52626e-06
1.1678e-06
-2.26741e-06
1.28343e-06
-3.07562e-06
1.40424e-06
-3.9534e-06
1.53025e-06
-4.90315e-06
1.66123e-06
-5.92698e-06
1.79681e-06
-7.02667e-06
1.9364e-06
-8.20353e-06
2.07926e-06
-9.45835e-06
2.22449e-06
-1.07913e-05
2.37102e-06
-1.22019e-05
2.51766e-06
-1.36888e-05
2.66307e-06
-1.525e-05
2.80581e-06
-1.68825e-05
2.94432e-06
-1.85825e-05
3.07692e-06
-2.0345e-05
3.20188e-06
-2.21644e-05
3.3174e-06
-2.40338e-05
3.42161e-06
-2.59455e-05
3.51263e-06
-2.78908e-05
3.58859e-06
-2.98599e-05
3.64764e-06
-3.18424e-05
3.68798e-06
-3.38268e-05
3.7079e-06
-3.58011e-05
3.70578e-06
-3.77524e-05
3.68017e-06
-3.96674e-05
3.62975e-06
-4.15322e-05
3.5534e-06
-4.33327e-05
3.45023e-06
-4.50545e-05
3.31955e-06
-4.66833e-05
3.16095e-06
-4.82047e-05
2.97427e-06
-4.96046e-05
2.75964e-06
-5.08694e-05
2.51749e-06
-5.19858e-05
2.24854e-06
-5.29414e-05
1.95382e-06
-5.37245e-05
1.63467e-06
-5.43244e-05
1.29274e-06
-5.47315e-05
9.30018e-07
-5.49375e-05
5.48873e-07
-5.49362e-05
1.52494e-07
-5.47205e-05
-2.58391e-07
-5.42875e-05
-6.789e-07
-5.3635e-05
-1.10579e-06
-5.27626e-05
-1.53568e-06
-5.16717e-05
-1.96479e-06
-5.03657e-05
-2.38917e-06
-4.885e-05
-2.80473e-06
-4.71318e-05
-3.20729e-06
-4.52205e-05
-3.59264e-06
-4.31274e-05
-3.95661e-06
-4.08655e-05
-4.29509e-06
-3.84497e-05
-4.60412e-06
-3.58969e-05
-4.87996e-06
-3.32251e-05
-5.11915e-06
-3.04542e-05
-5.31858e-06
-2.7605e-05
-5.47557e-06
-2.46994e-05
-5.58793e-06
-2.17601e-05
-5.65402e-06
-1.88103e-05
-5.67282e-06
-1.58733e-05
-5.64393e-06
-1.29725e-05
-5.56768e-06
-1.01305e-05
-5.44509e-06
-7.3696e-06
-5.27786e-06
-4.7107e-06
-5.06843e-06
-2.17348e-06
-4.81989e-06
2.24078e-07
-4.53592e-06
2.46602e-06
-4.22077e-06
4.53838e-06
-3.87902e-06
6.42973e-06
-3.51593e-06
8.13105e-06
-3.1367e-06
9.63596e-06
-2.7468e-06
1.09407e-05
-2.35169e-06
1.20442e-05
-1.95674e-06
1.29479e-05
-1.56707e-06
1.36556e-05
-1.18748e-06
1.41734e-05
-8.22325e-07
1.45096e-05
-4.75453e-07
1.46741e-05
-1.50125e-07
1.46782e-05
1.5102e-07
1.45345e-05
4.26006e-07
1.42565e-05
6.73501e-07
1.38582e-05
8.92816e-07
1.33538e-05
1.08386e-06
1.27574e-05
1.2471e-06
1.2083e-05
1.38346e-06
1.13439e-05
1.49425e-06
1.05529e-05
1.58104e-06
9.72201e-06
1.64554e-06
8.8624e-06
1.68946e-06
7.98469e-06
1.71433e-06
7.09889e-06
1.72134e-06
6.21475e-06
1.71114e-06
5.34203e-06
1.68364e-06
4.49092e-06
1.63785e-06
3.67252e-06
1.57174e-06
2.89919e-06
1.48218e-06
2.18493e-06
1.36511e-06
1.54541e-06
1.21596e-06
9.97519e-07
1.03073e-06
5.58096e-07
8.08123e-07
2.41591e-07
5.53139e-07
5.63215e-08
2.8336e-07
4.68011e-08
7.72744e-08
-1.55608e-07
2.66193e-07
-4.49383e-07
5.3703e-07
-6.89074e-07
8.64217e-07
-8.61706e-07
1.22401e-06
-9.67085e-07
1.59473e-06
-1.01062e-06
1.95718e-06
-1.00034e-06
2.29497e-06
-9.4518e-07
2.59454e-06
-8.53949e-07
2.84505e-06
-7.34789e-07
3.03821e-06
-5.94919e-07
3.16789e-06
-4.40514e-07
3.22983e-06
-2.7667e-07
3.22125e-06
-1.07418e-07
3.14054e-06
6.42282e-08
2.98685e-06
2.362e-07
2.75984e-06
4.07288e-07
2.45939e-06
5.77032e-07
2.08535e-06
7.45598e-07
1.63738e-06
9.13647e-07
1.11481e-06
1.08221e-06
5.16531e-07
1.25254e-06
-1.59003e-07
1.426e-06
-9.13792e-07
1.60393e-06
-1.75023e-06
1.78758e-06
-2.67104e-06
1.97798e-06
-3.67915e-06
2.17591e-06
-4.77757e-06
2.38185e-06
-5.96928e-06
2.59595e-06
-7.25707e-06
2.81804e-06
-8.64341e-06
3.04757e-06
-1.01303e-05
3.28371e-06
-1.17192e-05
3.5253e-06
-1.34108e-05
3.77088e-06
-1.52051e-05
4.01873e-06
-1.7101e-05
4.26688e-06
-1.90964e-05
4.51312e-06
-2.11884e-05
4.75504e-06
-2.33726e-05
4.99002e-06
-2.56436e-05
5.21532e-06
-2.79947e-05
5.42803e-06
-3.0418e-05
5.62514e-06
-3.29042e-05
5.8036e-06
-3.54429e-05
5.96031e-06
-3.80224e-05
6.0922e-06
-4.06301e-05
6.19623e-06
-4.32519e-05
6.26951e-06
-4.58732e-05
6.30925e-06
-4.84782e-05
6.31289e-06
-5.10505e-05
6.27811e-06
-5.35732e-05
6.20284e-06
-5.60288e-05
6.08536e-06
-5.83997e-05
5.92428e-06
-6.06681e-05
5.71861e-06
-6.28163e-05
5.46774e-06
-6.48268e-05
5.17152e-06
-6.66828e-05
4.8302e-06
-6.83677e-05
4.44453e-06
-6.98658e-05
4.01567e-06
-7.11626e-05
3.54528e-06
-7.22442e-05
3.03547e-06
-7.30983e-05
2.48878e-06
-7.37138e-05
1.90823e-06
-7.40811e-05
1.29726e-06
-7.41916e-05
6.59377e-07
-7.4042e-05
2.92327e-09
-7.36228e-05
-6.77606e-07
-7.29346e-05
-1.36713e-06
-7.19761e-05
-2.06425e-06
-7.07487e-05
-2.76309e-06
-6.92557e-05
-3.45775e-06
-6.75027e-05
-4.14218e-06
-6.54973e-05
-4.81016e-06
-6.32492e-05
-5.4554e-06
-6.07702e-05
-6.07158e-06
-5.80744e-05
-6.65248e-06
-5.51775e-05
-7.19196e-06
-5.20974e-05
-7.68417e-06
-4.88539e-05
-8.12353e-06
-4.54681e-05
-8.5049e-06
-4.1963e-05
-8.82366e-06
-3.83628e-05
-9.07581e-06
-3.46927e-05
-9.25802e-06
-3.09789e-05
-9.36781e-06
-2.72482e-05
-9.40354e-06
-2.35276e-05
-9.36453e-06
-1.98442e-05
-9.2511e-06
-1.62247e-05
-9.06461e-06
-1.26951e-05
-8.80745e-06
-9.28046e-06
-8.48307e-06
-6.00445e-06
-8.0959e-06
-2.88906e-06
-7.65131e-06
4.56941e-08
-7.15552e-06
2.78228e-06
-6.6156e-06
5.30532e-06
-6.03897e-06
7.60239e-06
-5.43377e-06
9.66391e-06
-4.80832e-06
1.14833e-05
-4.17106e-06
1.30569e-05
-3.53037e-06
1.43842e-05
-2.89439e-06
1.54676e-05
-2.27082e-06
1.63121e-05
-1.66682e-06
1.69254e-05
-1.08881e-06
1.73177e-05
-5.42393e-07
1.7501e-05
-3.22459e-08
1.7489e-05
4.37937e-07
1.72971e-05
8.65449e-07
1.69413e-05
1.24859e-06
1.64386e-05
1.58662e-06
1.5806e-05
1.87969e-06
1.50607e-05
2.12873e-06
1.42196e-05
2.33531e-06
1.32992e-05
2.5015e-06
1.23151e-05
2.62965e-06
1.12824e-05
2.72214e-06
1.02155e-05
2.7812e-06
9.12832e-06
2.80853e-06
8.03433e-06
2.80513e-06
6.94707e-06
2.7709e-06
5.88043e-06
2.7045e-06
4.84908e-06
2.60309e-06
3.86887e-06
2.46239e-06
2.95709e-06
2.2769e-06
2.13247e-06
2.04058e-06
1.4149e-06
1.7483e-06
8.24574e-07
1.39845e-06
3.80769e-07
9.96944e-07
1.00601e-07
5.63528e-07
1.47402e-07
9.1027e-08
-2.46634e-07
3.08651e-07
-6.67007e-07
6.13887e-07
-9.9431e-07
9.75294e-07
-1.22311e-06
1.36549e-06
-1.35728e-06
1.76036e-06
-1.40548e-06
2.13887e-06
-1.37885e-06
2.48305e-06
-1.28936e-06
2.77792e-06
-1.14882e-06
3.01133e-06
-9.68194e-07
3.17371e-06
-7.57308e-07
3.25783e-06
-5.2463e-07
3.25837e-06
-2.77206e-07
3.1716e-06
-2.06524e-08
2.99503e-06
2.40798e-07
2.72702e-06
5.0421e-07
2.36648e-06
7.67834e-07
1.91255e-06
1.03096e-06
1.36442e-06
1.29373e-06
7.21049e-07
1.55701e-06
-1.88904e-08
1.82215e-06
-8.57147e-07
2.09079e-06
-1.7959e-06
2.36475e-06
-2.83772e-06
2.64576e-06
-3.98555e-06
2.93541e-06
-5.24254e-06
3.23497e-06
-6.61195e-06
3.54532e-06
-8.09701e-06
3.8669e-06
-9.70071e-06
4.19965e-06
-1.14257e-05
4.543e-06
-1.3274e-05
4.89587e-06
-1.5247e-05
5.25671e-06
-1.73452e-05
5.6235e-06
-1.95681e-05
5.99378e-06
-2.1914e-05
6.36469e-06
-2.43802e-05
6.73303e-06
-2.69623e-05
7.09526e-06
-2.96549e-05
7.44756e-06
-3.24507e-05
7.78587e-06
-3.53413e-05
8.10593e-06
-3.83166e-05
8.40335e-06
-4.13652e-05
8.67365e-06
-4.44739e-05
8.91233e-06
-4.76285e-05
9.11492e-06
-5.08134e-05
9.27707e-06
-5.40117e-05
9.39459e-06
-5.72058e-05
9.46355e-06
-6.03768e-05
9.48031e-06
-6.35055e-05
9.4416e-06
-6.6572e-05
9.34458e-06
-6.95561e-05
9.18688e-06
-7.24373e-05
8.96664e-06
-7.51956e-05
8.68256e-06
-7.78109e-05
8.33391e-06
-8.02637e-05
7.92055e-06
-8.25352e-05
7.44297e-06
-8.46072e-05
6.90226e-06
-8.64629e-05
6.30014e-06
-8.80861e-05
5.63891e-06
-8.94623e-05
4.92151e-06
-9.05783e-05
4.15143e-06
-9.14223e-05
3.33275e-06
-9.19841e-05
2.47009e-06
-9.22555e-05
1.56861e-06
-9.22302e-05
6.34101e-07
-9.19004e-05
-3.26894e-07
-9.1268e-05
-1.30996e-06
-9.03292e-05
-2.30593e-06
-8.90854e-05
-3.30803e-06
-8.75398e-05
-4.30873e-06
-8.56974e-05
-5.30013e-06
-8.35655e-05
-6.2741e-06
-8.11533e-05
-7.22236e-06
-7.84721e-05
-8.13656e-06
-7.55354e-05
-9.00833e-06
-7.23585e-05
-9.82942e-06
-6.89587e-05
-1.05917e-05
-6.53553e-05
-1.12875e-05
-6.15694e-05
-1.19094e-05
-5.76238e-05
-1.24506e-05
-5.35427e-05
-1.29048e-05
-4.93518e-05
-1.32667e-05
-4.5078e-05
-1.35318e-05
-4.07492e-05
-1.36966e-05
-3.6394e-05
-1.37588e-05
-3.20413e-05
-1.37172e-05
-2.77205e-05
-1.35719e-05
-2.34605e-05
-1.33246e-05
-1.92899e-05
-1.29781e-05
-1.52364e-05
-1.25366e-05
-1.13264e-05
-1.20059e-05
-7.58504e-06
-1.13927e-05
-4.03533e-06
-1.07052e-05
-6.98284e-07
-9.95265e-06
2.4077e-06
-9.14495e-06
5.26684e-06
-8.29291e-06
7.86632e-06
-7.4078e-06
1.01964e-05
-6.50115e-06
1.22506e-05
-5.58454e-06
1.40255e-05
-4.66934e-06
1.55212e-05
-3.76648e-06
1.67406e-05
-2.88626e-06
1.76899e-05
-2.03808e-06
1.83778e-05
-1.23034e-06
1.88158e-05
-4.70243e-07
1.90175e-05
2.36284e-07
1.89983e-05
8.84668e-07
1.87752e-05
1.47169e-06
1.83663e-05
1.99546e-06
1.77906e-05
2.45538e-06
1.70674e-05
2.85195e-06
1.6216e-05
3.18669e-06
1.52557e-05
3.46183e-06
1.42053e-05
3.6801e-06
1.3083e-05
3.84441e-06
1.19067e-05
3.9575e-06
1.06936e-05
4.02159e-06
9.46084e-06
4.03794e-06
8.2252e-06
4.00654e-06
7.00396e-06
3.92574e-06
5.81493e-06
3.79211e-06
4.67694e-06
3.60038e-06
3.61004e-06
3.3438e-06
2.63565e-06
3.01496e-06
1.77655e-06
2.6074e-06
1.05674e-06
2.11826e-06
5.01463e-07
1.55222e-06
1.38052e-07
9.26939e-07
2.85454e-07
9.81167e-08
-3.44752e-07
3.30434e-07
-8.99322e-07
6.51523e-07
-1.3154e-06
1.02521e-06
-1.5968e-06
1.42102e-06
-1.75309e-06
1.81284e-06
-1.7973e-06
2.17828e-06
-1.74429e-06
2.49833e-06
-1.60941e-06
2.75709e-06
-1.40758e-06
2.94156e-06
-1.15266e-06
3.04134e-06
-8.57084e-07
3.04831e-06
-5.31603e-07
2.95632e-06
-1.85213e-07
2.76078e-06
1.74884e-07
2.45835e-06
5.43232e-07
2.04653e-06
9.16024e-07
1.52341e-06
1.29096e-06
8.87312e-07
1.66705e-06
1.36602e-07
2.04444e-06
-7.30518e-07
2.42413e-06
-1.71613e-06
2.80776e-06
-2.82266e-06
3.19733e-06
-4.05291e-06
3.595e-06
-5.40998e-06
4.00283e-06
-6.89719e-06
4.42262e-06
-8.51796e-06
4.85573e-06
-1.02756e-05
5.30297e-06
-1.21732e-05
5.76453e-06
-1.42135e-05
6.23988e-06
-1.63983e-05
6.72782e-06
-1.87288e-05
7.22644e-06
-2.12053e-05
7.73317e-06
-2.38266e-05
8.24482e-06
-2.65904e-05
8.75759e-06
-2.94929e-05
9.26719e-06
-3.25287e-05
9.76885e-06
-3.56909e-05
1.02574e-05
-3.89706e-05
1.07273e-05
-4.23576e-05
1.11728e-05
-4.58396e-05
1.1588e-05
-4.94031e-05
1.19668e-05
-5.30325e-05
1.23031e-05
-5.67112e-05
1.2591e-05
-6.04209e-05
1.28247e-05
-6.41424e-05
1.29985e-05
-6.78551e-05
1.31073e-05
-7.1538e-05
1.31465e-05
-7.51693e-05
1.31116e-05
-7.87269e-05
1.29991e-05
-8.21883e-05
1.28061e-05
-8.55315e-05
1.25301e-05
-8.87345e-05
1.21696e-05
-9.17759e-05
1.17239e-05
-9.46349e-05
1.11929e-05
-9.72917e-05
1.05774e-05
-9.97275e-05
9.87878e-06
-0.000101925
9.09945e-06
-0.000103867
8.24238e-06
-0.000105539
7.31132e-06
-0.000106928
6.31069e-06
-0.000108023
5.24559e-06
-0.000108812
4.12173e-06
-0.000109287
2.94544e-06
-0.000109442
1.72363e-06
-0.000109272
4.6395e-07
-0.000108773
-8.26263e-07
-0.000107944
-2.13853e-06
-0.000106786
-3.46373e-06
-0.000105301
-4.79272e-06
-0.000103494
-6.11603e-06
-0.00010137
-7.42386e-06
-9.89383e-05
-8.70616e-06
-9.6208e-05
-9.95274e-06
-9.31912e-05
-1.11533e-05
-8.99019e-05
-1.22976e-05
-8.63558e-05
-1.33755e-05
-8.25706e-05
-1.43769e-05
-7.85658e-05
-1.52924e-05
-7.43625e-05
-1.61127e-05
-6.99838e-05
-1.68292e-05
-6.54543e-05
-1.74343e-05
-6.07998e-05
-1.79211e-05
-5.60479e-05
-1.82838e-05
-5.12268e-05
-1.85177e-05
-4.63659e-05
-1.86196e-05
-4.14953e-05
-1.85878e-05
-3.66452e-05
-1.8422e-05
-3.18462e-05
-1.81236e-05
-2.71283e-05
-1.76959e-05
-2.25213e-05
-1.71437e-05
-1.80537e-05
-1.64734e-05
-1.37529e-05
-1.56934e-05
-9.64476e-06
-1.48134e-05
-5.75291e-06
-1.38445e-05
-2.09881e-06
-1.27991e-05
1.2987e-06
-1.16904e-05
4.42363e-06
-1.05327e-05
7.26304e-06
-9.34056e-06
9.80724e-06
-8.12874e-06
1.20499e-05
-6.91196e-06
1.39879e-05
-5.70455e-06
1.56218e-05
-4.52013e-06
1.69551e-05
-3.37142e-06
1.79947e-05
-2.26991e-06
1.87502e-05
-1.22576e-06
1.9234e-05
-2.47538e-07
1.94609e-05
6.57829e-07
1.94474e-05
1.48512e-06
1.92121e-05
2.23082e-06
1.87744e-05
2.89305e-06
1.81549e-05
3.47148e-06
1.73745e-05
3.96706e-06
1.64545e-05
4.38183e-06
1.54161e-05
4.71856e-06
1.42801e-05
4.98039e-06
1.30672e-05
5.1704e-06
1.17977e-05
5.29111e-06
1.04916e-05
5.34404e-06
9.16886e-06
5.32923e-06
7.84975e-06
5.24486e-06
6.55489e-06
5.08697e-06
5.30578e-06
4.84949e-06
4.12504e-06
4.52454e-06
3.03674e-06
4.10326e-06
2.06672e-06
3.57742e-06
1.24315e-06
2.94184e-06
5.97583e-07
2.19778e-06
1.67134e-07
1.35739e-06
4.52588e-07
9.97842e-08
-4.44537e-07
3.34204e-07
-1.13374e-06
6.53872e-07
-1.63506e-06
1.01927e-06
-1.9622e-06
1.3976e-06
-2.13142e-06
1.76125e-06
-2.16095e-06
2.08687e-06
-2.06992e-06
2.35482e-06
-1.87735e-06
2.54865e-06
-1.60141e-06
2.65486e-06
-1.25888e-06
2.6625e-06
-8.64723e-07
2.56284e-06
-4.31946e-07
2.34904e-06
2.85886e-08
2.01577e-06
5.08157e-07
1.55887e-06
1.00013e-06
9.7502e-07
1.49987e-06
2.61429e-07
2.00455e-06
-5.84437e-07
2.51292e-06
-1.56507e-06
3.02508e-06
-2.68308e-06
3.54214e-06
-3.9413e-06
4.06598e-06
-5.34284e-06
4.59886e-06
-6.89102e-06
5.14318e-06
-8.58936e-06
5.70116e-06
-1.04414e-05
6.27464e-06
-1.24505e-05
6.86485e-06
-1.46198e-05
7.47228e-06
-1.69519e-05
8.09658e-06
-1.94485e-05
8.73651e-06
-2.21106e-05
9.38988e-06
-2.49378e-05
1.00536e-05
-2.79284e-05
1.07239e-05
-3.10795e-05
1.13958e-05
-3.4386e-05
1.20641e-05
-3.78414e-05
1.27226e-05
-4.14373e-05
1.33648e-05
-4.51634e-05
1.39835e-05
-4.90075e-05
1.45714e-05
-5.29554e-05
1.51208e-05
-5.69914e-05
1.5624e-05
-6.1098e-05
1.60733e-05
-6.52559e-05
1.64611e-05
-6.94448e-05
1.67799e-05
-7.36431e-05
1.7023e-05
-7.78283e-05
1.71837e-05
-8.19771e-05
1.72561e-05
-8.60658e-05
1.72352e-05
-9.00708e-05
1.71165e-05
-9.3968e-05
1.68964e-05
-9.77342e-05
1.65722e-05
-0.000101346
1.61422e-05
-0.000104782
1.56056e-05
-0.000108021
1.49624e-05
-0.000111042
1.42139e-05
-0.000113826
1.33618e-05
-0.000116357
1.24092e-05
-0.000118617
1.13597e-05
-0.000120592
1.02179e-05
-0.00012227
8.98896e-06
-0.000123638
7.67902e-06
-0.000124687
6.29474e-06
-0.000125409
4.84345e-06
-0.000125797
3.33309e-06
-0.000125845
1.77215e-06
-0.000125552
1.70174e-07
-0.000124913
-1.4647e-06
-0.00012393
-3.12128e-06
-0.000122605
-4.78942e-06
-0.000120939
-6.45831e-06
-0.000118938
-8.11677e-06
-0.000116609
-9.75331e-06
-0.000113959
-1.13562e-05
-0.000110998
-1.29135e-05
-0.000107738
-1.44132e-05
-0.000104193
-1.58432e-05
-0.000100376
-1.71916e-05
-9.63069e-05
-1.84465e-05
-9.20026e-05
-1.95967e-05
-8.74842e-05
-2.0631e-05
-8.27741e-05
-2.15394e-05
-7.78962e-05
-2.23122e-05
-7.28762e-05
-2.29412e-05
-6.7741e-05
-2.34189e-05
-6.25191e-05
-2.37396e-05
-5.72399e-05
-2.38988e-05
-5.19339e-05
-2.38938e-05
-4.6632e-05
-2.37239e-05
-4.13657e-05
-2.339e-05
-3.61662e-05
-2.28954e-05
-3.10648e-05
-2.2245e-05
-2.6092e-05
-2.14463e-05
-2.12771e-05
-2.05083e-05
-1.66483e-05
-1.94422e-05
-1.22318e-05
-1.8261e-05
-8.05193e-06
-1.69789e-05
-4.13046e-06
-1.56119e-05
-4.8649e-07
-1.41767e-05
2.8639e-06
-1.26909e-05
5.90777e-06
-1.11726e-05
8.63554e-06
-9.63974e-06
1.10411e-05
-8.1101e-06
1.31218e-05
-6.60083e-06
1.48785e-05
-5.12809e-06
1.63153e-05
-3.70677e-06
1.74398e-05
-2.35023e-06
1.82623e-05
-1.07008e-06
1.87962e-05
1.23987e-07
1.90569e-05
1.22436e-06
1.90624e-05
2.22537e-06
1.8832e-05
3.12344e-06
1.83866e-05
3.91685e-06
1.77481e-05
4.60558e-06
1.69389e-05
5.19102e-06
1.59819e-05
5.67559e-06
1.49e-05
6.0623e-06
1.37161e-05
6.35427e-06
1.24531e-05
6.55416e-06
1.11335e-05
6.66359e-06
9.78014e-06
6.68261e-06
8.41578e-06
6.60922e-06
7.06371e-06
6.43904e-06
5.74795e-06
6.16526e-06
4.49364e-06
5.77884e-06
3.32754e-06
5.26936e-06
2.27868e-06
4.62628e-06
1.37945e-06
3.84107e-06
6.67346e-07
2.90989e-06
1.87786e-07
1.83695e-06
6.40374e-07
9.70274e-08
-5.41564e-07
3.22453e-07
-1.35917e-06
6.24883e-07
-1.93749e-06
9.6284e-07
-2.30016e-06
1.30207e-06
-2.47065e-06
1.61407e-06
-2.47294e-06
1.87497e-06
-2.33082e-06
2.06481e-06
-2.06719e-06
2.16697e-06
-1.70357e-06
2.16768e-06
-1.25959e-06
2.05569e-06
-7.52733e-07
1.82185e-06
-1.98103e-07
1.45877e-06
3.9167e-07
9.60473e-07
1.00645e-06
3.22069e-07
1.63854e-06
-4.60574e-07
2.28252e-06
-1.3911e-06
2.93507e-06
-2.47291e-06
3.59473e-06
-3.70933e-06
4.2615e-06
-5.10379e-06
4.9366e-06
-6.65981e-06
5.622e-06
-8.38107e-06
6.32013e-06
-1.02713e-05
7.03344e-06
-1.23343e-05
7.76412e-06
-1.45734e-05
8.51379e-06
-1.69919e-05
9.2833e-06
-1.95921e-05
1.00725e-05
-2.23758e-05
1.08802e-05
-2.53433e-05
1.1704e-05
-2.8494e-05
1.25406e-05
-3.18255e-05
1.33851e-05
-3.53338e-05
1.42322e-05
-3.90131e-05
1.50751e-05
-4.28556e-05
1.59066e-05
-4.68514e-05
1.67184e-05
-5.09886e-05
1.7502e-05
-5.52532e-05
1.82481e-05
-5.96294e-05
1.89475e-05
-6.40993e-05
1.95906e-05
-6.86432e-05
2.0168e-05
-7.32402e-05
2.06703e-05
-7.78678e-05
2.10886e-05
-8.25024e-05
2.14145e-05
-8.71197e-05
2.16403e-05
-9.16949e-05
2.17589e-05
-9.62029e-05
2.17641e-05
-0.000100619
2.1651e-05
-0.000104917
2.14153e-05
-0.000109075
2.10541e-05
-0.000113068
2.05654e-05
-0.000116875
1.99486e-05
-0.000120473
1.9204e-05
-0.000123844
1.83329e-05
-0.000126968
1.73379e-05
-0.000129828
1.62224e-05
-0.00013241
1.49908e-05
-0.000134698
1.36483e-05
-0.000136682
1.22011e-05
-0.000138349
1.06559e-05
-0.00013969
9.02025e-06
-0.000140697
7.30232e-06
-0.000141365
5.51089e-06
-0.000141687
3.65529e-06
-0.00014166
1.74542e-06
-0.000141282
-2.07931e-07
-0.000140552
-2.19512e-06
-0.000139469
-4.20365e-06
-0.000138037
-6.22208e-06
-0.000136257
-8.2382e-06
-0.000134134
-1.02395e-05
-0.000131675
-1.22129e-05
-0.000128886
-1.41453e-05
-0.000125776
-1.60231e-05
-0.000122356
-1.78328e-05
-0.000118639
-1.95607e-05
-0.000114637
-2.11929e-05
-0.000110368
-2.2716e-05
-0.000105848
-2.41168e-05
-0.000101096
-2.53825e-05
-9.61347e-05
-2.6501e-05
-9.09859e-05
-2.74611e-05
-8.56746e-05
-2.82525e-05
-8.02272e-05
-2.88663e-05
-7.46717e-05
-2.92951e-05
-6.90374e-05
-2.95331e-05
-6.33547e-05
-2.95765e-05
-5.76551e-05
-2.94235e-05
-5.19707e-05
-2.90744e-05
-4.6334e-05
-2.8532e-05
-4.07776e-05
-2.78015e-05
-3.53335e-05
-2.68904e-05
-3.00332e-05
-2.58086e-05
-2.4907e-05
-2.45684e-05
-1.99838e-05
-2.31842e-05
-1.52904e-05
-2.16722e-05
-1.08518e-05
-2.00506e-05
-6.68981e-06
-1.83386e-05
-2.82391e-06
-1.65569e-05
7.29811e-07
-1.47263e-05
3.95855e-06
-1.28685e-05
6.85295e-06
-1.10045e-05
9.40725e-06
-9.15513e-06
1.16193e-05
-7.34012e-06
1.34904e-05
-5.57791e-06
1.50255e-05
-3.88534e-06
1.62328e-05
-2.27732e-06
1.71234e-05
-7.66622e-07
1.77115e-05
6.36275e-07
1.80136e-05
1.92324e-06
1.80485e-05
3.08849e-06
1.78369e-05
4.1285e-06
1.74007e-05
5.04181e-06
1.6763e-05
5.82868e-06
1.59478e-05
6.49078e-06
1.49795e-05
7.03062e-06
1.38827e-05
7.45103e-06
1.26823e-05
7.75453e-06
1.14033e-05
7.94268e-06
1.00705e-05
8.01541e-06
8.70918e-06
7.97049e-06
7.34513e-06
7.8031e-06
6.00473e-06
7.50566e-06
4.71561e-06
7.06796e-06
3.50723e-06
6.47774e-06
2.41179e-06
5.72172e-06
1.46562e-06
4.78724e-06
7.11255e-07
3.66425e-06
2.00511e-07
2.34769e-06
8.40885e-07
9.05506e-08
-6.32114e-07
2.97146e-07
-1.56576e-06
5.67888e-07
-2.20824e-06
8.60583e-07
-2.59286e-06
1.14046e-06
-2.75053e-06
1.37874e-06
-2.71123e-06
1.55154e-06
-2.50362e-06
1.63896e-06
-2.15462e-06
1.62445e-06
-1.68906e-06
1.49426e-06
-1.12939e-06
1.23699e-06
-4.9547e-07
8.4325e-07
1.95642e-07
3.05219e-07
9.29702e-07
-3.8363e-07
1.6953e-06
-1.22887e-06
2.48377e-06
-2.23538e-06
3.28903e-06
-3.40762e-06
4.10732e-06
-4.74982e-06
4.93692e-06
-6.26609e-06
5.77778e-06
-7.96058e-06
6.63108e-06
-9.83741e-06
7.49884e-06
-1.19007e-05
8.38341e-06
-1.41544e-05
9.28712e-06
-1.66021e-05
1.02119e-05
-1.92471e-05
1.11587e-05
-2.20916e-05
1.21279e-05
-2.51373e-05
1.31182e-05
-2.83842e-05
1.41271e-05
-3.18311e-05
1.5151e-05
-3.54751e-05
1.61845e-05
-3.93112e-05
1.72213e-05
-4.33327e-05
1.82537e-05
-4.75306e-05
1.9273e-05
-5.18935e-05
2.02695e-05
-5.64082e-05
2.1233e-05
-6.10588e-05
2.21527e-05
-6.58279e-05
2.30172e-05
-7.06956e-05
2.38152e-05
-7.56406e-05
2.45356e-05
-8.06399e-05
2.51673e-05
-8.56694e-05
2.56998e-05
-9.0704e-05
2.61232e-05
-9.57179e-05
2.64284e-05
-0.000100685
2.66073e-05
-0.000105579
2.6653e-05
-0.000110374
2.65596e-05
-0.000115046
2.63225e-05
-0.000119569
2.59385e-05
-0.000123921
2.54056e-05
-0.000128078
2.47232e-05
-0.000132022
2.38919e-05
-0.000135731
2.29134e-05
-0.000139189
2.17908e-05
-0.000142379
2.05281e-05
-0.000145287
1.91302e-05
-0.000147899
1.76031e-05
-0.000150205
1.59535e-05
-0.000152192
1.41888e-05
-0.000153854
1.23174e-05
-0.000155182
1.0348e-05
-0.000156169
8.28991e-06
-0.000156811
6.15317e-06
-0.000157104
3.94822e-06
-0.000157045
1.68605e-06
-0.000156631
-6.21813e-07
-0.000155862
-2.96394e-06
-0.000154738
-5.32745e-06
-0.000153261
-7.6996e-06
-0.000151432
-1.00671e-05
-0.000149255
-1.24162e-05
-0.000146735
-1.47328e-05
-0.000143879
-1.70022e-05
-0.000140692
-1.92097e-05
-0.000137185
-2.13402e-05
-0.000133367
-2.33782e-05
-0.000129251
-2.53085e-05
-0.000124852
-2.71157e-05
-0.000120184
-2.87849e-05
-0.000115265
-3.03012e-05
-0.000110115
-3.16508e-05
-0.000104756
-3.28203e-05
-9.92109e-05
-3.37976e-05
-9.35054e-05
-3.45719e-05
-8.76666e-05
-3.51339e-05
-8.17236e-05
-3.54761e-05
-7.57069e-05
-3.55933e-05
-6.96481e-05
-3.54823e-05
-6.35801e-05
-3.51424e-05
-5.75363e-05
-3.45758e-05
-5.15506e-05
-3.37872e-05
-4.56569e-05
-3.27841e-05
-3.98886e-05
-3.15769e-05
-3.42784e-05
-3.01787e-05
-2.88576e-05
-2.8605e-05
-2.36559e-05
-2.68739e-05
-1.8701e-05
-2.50054e-05
-1.40182e-05
-2.30214e-05
-9.62992e-06
-2.09452e-05
-5.55551e-06
-1.88007e-05
-1.81109e-06
-1.66129e-05
1.59078e-06
-1.44064e-05
4.64117e-06
-1.22055e-05
7.33483e-06
-1.00338e-05
9.67025e-06
-7.91333e-06
1.16496e-05
-5.86467e-06
1.32785e-05
-3.90623e-06
1.4566e-05
-2.05418e-06
1.55245e-05
-3.22147e-07
1.61688e-05
1.27888e-06
1.65168e-05
2.74055e-06
1.65882e-05
4.0571e-06
1.64048e-05
5.22519e-06
1.59899e-05
6.24356e-06
1.5368e-05
7.11268e-06
1.45644e-05
7.83417e-06
1.36052e-05
8.41024e-06
1.25168e-05
8.84298e-06
1.13259e-05
9.13361e-06
1.00595e-05
9.28179e-06
8.74504e-06
9.28493e-06
7.41043e-06
9.13771e-06
6.0844e-06
8.83169e-06
4.797e-06
8.35536e-06
3.58031e-06
7.69443e-06
2.46947e-06
6.83256e-06
1.50421e-06
5.7525e-06
7.3102e-07
4.43744e-06
2.06043e-07
2.87267e-06
1.04693e-06
8.08107e-08
-7.12924e-07
2.59694e-07
-1.74465e-06
4.8544e-07
-2.43398e-06
7.16248e-07
-2.82366e-06
9.17722e-07
-2.952e-06
1.06153e-06
-2.85503e-06
1.12424e-06
-2.56633e-06
1.08641e-06
-2.11679e-06
9.31853e-07
-1.5345e-06
6.47041e-07
-8.44583e-07
2.20638e-07
-6.9066e-08
-3.5691e-07
7.7319e-07
-1.09373e-06
1.66652e-06
-1.99681e-06
2.59839e-06
-3.07235e-06
3.55931e-06
-4.32592e-06
4.5426e-06
-5.76272e-06