/*--------------------------------*- C++ -*----------------------------------*\
| =========                 |                                                 |
| \\      /  F ield         | OpenFOAM: The Open Source CFD Toolbox           |
|  \\    /   O peration     | Version:  2112                                  |
|   \\  /    A nd           | Website:  www.openfoam.com                      |
|    \\/     M anipulation  |                                                 |
\*---------------------------------------------------------------------------*/
FoamFile
{
    version     2.0;
    format      ascii;
    arch        "LSB;label=32;scalar=64";
    class       volVectorField;
    location    "30";
    object      U;
}
// * * * * * * * * * * * * * * * * * * * * * * * * * * * * * * * * * * * * * //

dimensions      [0 1 -1 0 0 0 0];

internalField   nonuniform List<vector> 
16641
(
(-7.24312e-06 7.26209e-06 0)
(3.52702e-06 -6.4948e-06 0)
(5.86467e-05 -2.17666e-05 0)
(0.000146377 -3.2403e-05 0)
(0.000255883 -3.85898e-05 0)
(0.000377298 -4.12974e-05 0)
(0.000502399 -4.14316e-05 0)
(0.000624807 -3.97301e-05 0)
(0.00073976 -3.67585e-05 0)
(0.000843813 -3.29477e-05 0)
(0.000934591 -2.86285e-05 0)
(0.00101059 -2.40561e-05 0)
(0.00107098 -1.94248e-05 0)
(0.00111546 -1.48757e-05 0)
(0.00114415 -1.05046e-05 0)
(0.00115738 -6.36885e-06 0)
(0.00115569 -2.49143e-06 0)
(0.00113963 1.1337e-06 0)
(0.00110975 4.53426e-06 0)
(0.00106649 7.75663e-06 0)
(0.00101016 1.08598e-05 0)
(0.000940909 1.39098e-05 0)
(0.000858677 1.69758e-05 0)
(0.000763219 2.01255e-05 0)
(0.000654097 2.34225e-05 0)
(0.000530707 2.69234e-05 0)
(0.000392298 3.06756e-05 0)
(0.000238004 3.47173e-05 0)
(6.68725e-05 3.90762e-05 0)
(-0.000122095 4.37703e-05 0)
(-0.000329918 4.88083e-05 0)
(-0.000557599 5.41904e-05 0)
(-0.0008061 5.99088e-05 0)
(-0.00107631 6.59487e-05 0)
(-0.00136902 7.22885e-05 0)
(-0.0016849 7.89001e-05 0)
(-0.00202448 8.57489e-05 0)
(-0.00238812 9.2794e-05 0)
(-0.002776 9.99877e-05 0)
(-0.00318806 0.000107275 0)
(-0.00362404 0.000114595 0)
(-0.00408342 0.000121878 0)
(-0.0045654 0.000129047 0)
(-0.00506889 0.00013602 0)
(-0.0055925 0.000142707 0)
(-0.00613452 0.00014901 0)
(-0.0066929 0.00015483 0)
(-0.00726528 0.000160058 0)
(-0.00784895 0.000164587 0)
(-0.00844085 0.000168304 0)
(-0.00903761 0.000171098 0)
(-0.00963556 0.000172858 0)
(-0.0102307 0.000173474 0)
(-0.0108188 0.000172844 0)
(-0.0113953 0.000170869 0)
(-0.0119555 0.000167461 0)
(-0.0124945 0.000162541 0)
(-0.0130073 0.000156044 0)
(-0.0134888 0.000147918 0)
(-0.0139339 0.000138127 0)
(-0.0143373 0.000126657 0)
(-0.0146942 0.000113511 0)
(-0.0149996 9.87147e-05 0)
(-0.0152489 8.23199e-05 0)
(-0.0154377 6.44197e-05 0)
(-0.0155621 4.51308e-05 0)
(-0.0156185 2.45413e-05 0)
(-0.0156038 2.88341e-06 0)
(-0.0155153 -1.97887e-05 0)
(-0.0153514 -4.32017e-05 0)
(-0.0151109 -6.71001e-05 0)
(-0.0147934 -9.12241e-05 0)
(-0.0143993 -0.000115294 0)
(-0.0139299 -0.000139011 0)
(-0.0133873 -0.000162065 0)
(-0.0127747 -0.000184135 0)
(-0.0120959 -0.000204902 0)
(-0.0113558 -0.000224048 0)
(-0.0105601 -0.000241269 0)
(-0.00971522 -0.00025628 0)
(-0.00882848 -0.000268823 0)
(-0.00790777 -0.000278674 0)
(-0.00696152 -0.00028565 0)
(-0.00599861 -0.000289617 0)
(-0.00502821 -0.000290494 0)
(-0.00405962 -0.000288255 0)
(-0.00310217 -0.000282937 0)
(-0.00216497 -0.000274634 0)
(-0.00125682 -0.000263498 0)
(-0.000385952 -0.000249751 0)
(0.000439859 -0.000233716 0)
(0.00121372 -0.000215559 0)
(0.00192975 -0.000195723 0)
(0.00258291 -0.000174564 0)
(0.00316927 -0.00015247 0)
(0.00368601 -0.00012983 0)
(0.00413143 -0.000107032 0)
(0.00450494 -8.44465e-05 0)
(0.00480704 -6.24201e-05 0)
(0.00503922 -4.12645e-05 0)
(0.0052039 -2.12517e-05 0)
(0.0053043 -2.60835e-06 0)
(0.00534434 1.44871e-05 0)
(0.0053285 2.99046e-05 0)
(0.00526169 4.35651e-05 0)
(0.0051491 5.54353e-05 0)
(0.00499607 6.55254e-05 0)
(0.00480799 7.38847e-05 0)
(0.00459013 8.05969e-05 0)
(0.00434759 8.5774e-05 0)
(0.00408519 8.95499e-05 0)
(0.0038074 9.20746e-05 0)
(0.00351829 9.35064e-05 0)
(0.00322154 9.40046e-05 0)
(0.00292039 9.37209e-05 0)
(0.00261769 9.27895e-05 0)
(0.00231597 9.13156e-05 0)
(0.00201756 8.93611e-05 0)
(0.00172467 8.69281e-05 0)
(0.00143964 8.3938e-05 0)
(0.00116515 8.02075e-05 0)
(0.000904532 7.54193e-05 0)
(0.000662086 6.90904e-05 0)
(0.000443458 6.05475e-05 0)
(0.000255947 4.89512e-05 0)
(0.000108415 3.35011e-05 0)
(1.02359e-05 1.40809e-05 0)
(-3.08649e-05 -6.87299e-06 0)
(-1.81831e-05 -1.82312e-05 0)
(6.45432e-06 -3.43373e-06 0)
(7.13582e-05 -7.13949e-05 0)
(0.000226362 -0.000138791 0)
(0.000446407 -0.000188441 0)
(0.000710682 -0.000219265 0)
(0.0010002 -0.000233604 0)
(0.00129751 -0.0002345 0)
(0.0015879 -0.000224931 0)
(0.00185967 -0.000207505 0)
(0.00210384 -0.00018442 0)
(0.00231385 -0.00015749 0)
(0.00248514 -0.000128189 0)
(0.00261485 -9.76836e-05 0)
(0.00270143 -6.68595e-05 0)
(0.00274434 -3.63492e-05 0)
(0.00274377 -6.5608e-06 0)
(0.00270032 2.22953e-05 0)
(0.00261482 5.0179e-05 0)
(0.00248809 7.71898e-05 0)
(0.00232079 0.000103537 0)
(0.0021133 0.00012951 0)
(0.00186563 0.000155446 0)
(0.00157737 0.000181706 0)
(0.00124767 0.000208648 0)
(0.000875286 0.000236608 0)
(0.000458568 0.000265881 0)
(-4.43001e-06 0.000296711 0)
(-0.000515901 0.000329284 0)
(-0.00107819 0.000363722 0)
(-0.00169373 0.000400083 0)
(-0.0023649 0.000438362 0)
(-0.00309401 0.000478496 0)
(-0.00388317 0.000520365 0)
(-0.00473421 0.000563799 0)
(-0.00564864 0.000608577 0)
(-0.00662756 0.000654431 0)
(-0.0076716 0.000701048 0)
(-0.00878083 0.000748072 0)
(-0.00995476 0.000795104 0)
(-0.0111922 0.000841704 0)
(-0.0124914 0.000887392 0)
(-0.0138497 0.000931648 0)
(-0.0152638 0.000973922 0)
(-0.0167294 0.00101363 0)
(-0.0182415 0.00105016 0)
(-0.0197943 0.00108289 0)
(-0.021381 0.00111117 0)
(-0.0229941 0.00113435 0)
(-0.0246252 0.00115181 0)
(-0.026265 0.0011629 0)
(-0.0279037 0.00116702 0)
(-0.0295307 0.00116359 0)
(-0.0311346 0.00115209 0)
(-0.0327038 0.00113202 0)
(-0.0342261 0.00110298 0)
(-0.0356888 0.00106462 0)
(-0.0370793 0.00101667 0)
(-0.0383848 0.000958969 0)
(-0.0395924 0.00089143 0)
(-0.0406896 0.000814093 0)
(-0.0416641 0.000727102 0)
(-0.0425039 0.000630726 0)
(-0.0431981 0.000525355 0)
(-0.043736 0.000411518 0)
(-0.0441083 0.000289924 0)
(-0.0443066 0.000161334 0)
(-0.0443238 2.6269e-05 0)
(-0.0441537 -0.000113513 0)
(-0.043792 -0.00025722 0)
(-0.043236 -0.000403564 0)
(-0.0424847 -0.000551123 0)
(-0.041539 -0.000698402 0)
(-0.0404014 -0.00084383 0)
(-0.0390767 -0.000985777 0)
(-0.0375714 -0.00112257 0)
(-0.0358941 -0.00125254 0)
(-0.0340555 -0.001374 0)
(-0.032068 -0.00148534 0)
(-0.029946 -0.001585 0)
(-0.0277055 -0.00167157 0)
(-0.0253642 -0.00174373 0)
(-0.0229411 -0.00180038 0)
(-0.0204564 -0.00184061 0)
(-0.0179312 -0.00186376 0)
(-0.0153871 -0.0018694 0)
(-0.0128462 -0.00185741 0)
(-0.0103305 -0.00182796 0)
(-0.00786171 -0.00178151 0)
(-0.00546089 -0.00171882 0)
(-0.00314799 -0.00164094 0)
(-0.000941701 -0.00154927 0)
(0.00114088 -0.0014452 0)
(0.00308464 -0.00133055 0)
(0.00487664 -0.00120724 0)
(0.00650617 -0.00107732 0)
(0.00796503 -0.000942881 0)
(0.00924753 -0.000806011 0)
(0.0103506 -0.00066878 0)
(0.0112736 -0.000533166 0)
(0.0120184 -0.000401006 0)
(0.0125891 -0.000273966 0)
(0.0129919 -0.000153503 0)
(0.013235 -4.08414e-05 0)
(0.0133279 6.30422e-05 0)
(0.0132816 0.000157428 0)
(0.0131079 0.000241855 0)
(0.0128195 0.000316103 0)
(0.0124292 0.000380187 0)
(0.0119502 0.000434332 0)
(0.0113951 0.000478943 0)
(0.0107766 0.000514578 0)
(0.0101063 0.000541908 0)
(0.00939534 0.000561676 0)
(0.00865398 0.00057465 0)
(0.00789159 0.000581573 0)
(0.00711677 0.000583102 0)
(0.00633743 0.00057974 0)
(0.00556105 0.000571764 0)
(0.00479493 0.000559143 0)
(0.00404667 0.000541449 0)
(0.00332458 0.000517771 0)
(0.00263828 0.000486651 0)
(0.00199918 0.000446049 0)
(0.00142093 0.000393435 0)
(0.000919535 0.000326158 0)
(0.000512418 0.000242519 0)
(0.000215832 0.000144076 0)
(4.19127e-05 4.09879e-05 0)
(-6.59598e-06 -3.09306e-05 0)
(2.16901e-05 -5.8432e-05 0)
(0.000138896 -0.000226406 0)
(0.000378916 -0.000378415 0)
(0.000700673 -0.000491683 0)
(0.00107589 -0.000563216 0)
(0.00148058 -0.000596358 0)
(0.00189198 -0.000596727 0)
(0.00229024 -0.000570491 0)
(0.00265901 -0.000523505 0)
(0.00298533 -0.000460983 0)
(0.00325934 -0.000387408 0)
(0.00347388 -0.000306521 0)
(0.00362409 -0.000221348 0)
(0.00370697 -0.000134235 0)
(0.00372097 -4.69002e-05 0)
(0.00366555 3.95136e-05 0)
(0.00354087 0.000124368 0)
(0.00334741 0.000207468 0)
(0.00308571 0.000288987 0)
(0.00275616 0.000369388 0)
(0.00235879 0.000449342 0)
(0.00189315 0.00052966 0)
(0.00135827 0.00061121 0)
(0.000752615 0.000694863 0)
(7.41113e-05 0.000781428 0)
(-0.000679781 0.000871611 0)
(-0.00151198 0.000965982 0)
(-0.00242569 0.00106495 0)
(-0.00342422 0.00116875 0)
(-0.00451092 0.00127745 0)
(-0.00568898 0.00139093 0)
(-0.00696135 0.0015089 0)
(-0.00833056 0.00163092 0)
(-0.00979864 0.0017564 0)
(-0.011367 0.00188459 0)
(-0.0130362 0.00201462 0)
(-0.0148061 0.00214551 0)
(-0.0166756 0.00227611 0)
(-0.0186425 0.00240521 0)
(-0.0207036 0.00253146 0)
(-0.0228545 0.00265342 0)
(-0.0250896 0.00276958 0)
(-0.027402 0.00287832 0)
(-0.0297837 0.00297801 0)
(-0.0322252 0.00306694 0)
(-0.034716 0.00314339 0)
(-0.037244 0.00320566 0)
(-0.0397964 0.00325205 0)
(-0.0423589 0.00328093 0)
(-0.0449163 0.00329075 0)
(-0.0474525 0.00328003 0)
(-0.0499506 0.00324746 0)
(-0.052393 0.00319185 0)
(-0.0547616 0.00311221 0)
(-0.0570381 0.00300773 0)
(-0.0592038 0.00287784 0)
(-0.0612401 0.00272219 0)
(-0.0631287 0.00254071 0)
(-0.0648516 0.00233357 0)
(-0.0663915 0.00210126 0)
(-0.0677317 0.00184452 0)
(-0.0688565 0.00156443 0)
(-0.0697516 0.00126237 0)
(-0.0704038 0.000940021 0)
(-0.0708015 0.000599468 0)
(-0.0709353 0.000243021 0)
(-0.0707967 -0.000127674 0)
(-0.070379 -0.000508482 0)
(-0.0696791 -0.000896639 0)
(-0.0686952 -0.00128893 0)
(-0.0674279 -0.00168178 0)
(-0.0658804 -0.00207144 0)
(-0.0640583 -0.002454 0)
(-0.0619698 -0.00282545 0)
(-0.0596256 -0.00318175 0)
(-0.0570388 -0.00351886 0)
(-0.0542254 -0.00383279 0)
(-0.0512033 -0.0041197 0)
(-0.0479932 -0.00437596 0)
(-0.0446174 -0.00459819 0)
(-0.0411006 -0.00478337 0)
(-0.037469 -0.00492889 0)
(-0.0337503 -0.00503263 0)
(-0.0299733 -0.00509302 0)
(-0.0261677 -0.00510907 0)
(-0.0223636 -0.00508046 0)
(-0.018591 -0.00500753 0)
(-0.01488 -0.00489131 0)
(-0.0112595 -0.00473352 0)
(-0.00775736 -0.00453658 0)
(-0.00439998 -0.00430355 0)
(-0.0012117 -0.00403802 0)
(0.00178551 -0.0037441 0)
(0.00457226 -0.00342631 0)
(0.00713215 -0.00308965 0)
(0.00945195 -0.00273915 0)
(0.0115217 -0.00238001 0)
(0.0133349 -0.00201737 0)
(0.0148883 -0.00165628 0)
(0.0161822 -0.0013015 0)
(0.0172201 -0.000957428 0)
(0.0180085 -0.000628028 0)
(0.0185567 -0.000316737 0)
(0.0188764 -2.64173e-05 0)
(0.0189814 0.000240681 0)
(0.0188874 0.000482936 0)
(0.0186112 0.000699344 0)
(0.0181705 0.000889501 0)
(0.0175838 0.00105356 0)
(0.0168694 0.00119216 0)
(0.0160454 0.00130638 0)
(0.0151296 0.00139761 0)
(0.0141387 0.00146748 0)
(0.0130888 0.00151772 0)
(0.0119949 0.00155003 0)
(0.010871 0.00156593 0)
(0.00973038 0.00156657 0)
(0.00858562 0.00155259 0)
(0.00744923 0.00152389 0)
(0.00633395 0.00147946 0)
(0.00525337 0.00141726 0)
(0.0042225 0.00133412 0)
(0.00325829 0.00122581 0)
(0.00237993 0.00108752 0)
(0.00160878 0.000914861 0)
(0.00096693 0.00070619 0)
(0.000474092 0.000466697 0)
(0.000148875 0.000216177 0)
(1.53147e-05 1.14831e-05 0)
(3.24943e-05 -0.000146275 0)
(0.000189503 -0.000447137 0)
(0.000494476 -0.000700621 0)
(0.000889914 -0.000886195 0)
(0.00134031 -0.00100165 0)
(0.00181787 -0.00105223 0)
(0.00229642 -0.0010465 0)
(0.00275283 -0.000994106 0)
(0.00316779 -0.000904504 0)
(0.00352563 -0.000786384 0)
(0.0038141 -0.000647384 0)
(0.00402399 -0.000493996 0)
(0.00414872 -0.000331545 0)
(0.00418386 -0.000164221 0)
(0.00412668 4.86667e-06 0)
(0.00397569 0.000173601 0)
(0.00373024 0.00034076 0)
(0.0033901 0.000505902 0)
(0.00295515 0.000669241 0)
(0.00242514 0.000831507 0)
(0.00179945 0.000993806 0)
(0.00107694 0.00115749 0)
(0.00025591 0.00132402 0)
(-0.000665935 0.00149485 0)
(-0.00169145 0.00167132 0)
(-0.00282398 0.00185459 0)
(-0.00406718 0.00204555 0)
(-0.00542493 0.00224479 0)
(-0.00690116 0.00245259 0)
(-0.00849961 0.00266887 0)
(-0.0102237 0.00289323 0)
(-0.0120765 0.00312495 0)
(-0.01406 0.003363 0)
(-0.0161759 0.00360603 0)
(-0.0184245 0.00385246 0)
(-0.0208052 0.00410043 0)
(-0.023316 0.00434786 0)
(-0.0259536 0.00459242 0)
(-0.0287133 0.00483161 0)
(-0.031589 0.00506273 0)
(-0.0345727 0.00528295 0)
(-0.037655 0.00548928 0)
(-0.0408248 0.00567866 0)
(-0.0440695 0.00584796 0)
(-0.0473748 0.00599403 0)
(-0.0507249 0.00611373 0)
(-0.0541026 0.00620401 0)
(-0.0574893 0.00626191 0)
(-0.0608655 0.00628465 0)
(-0.0642102 0.00626965 0)
(-0.0675021 0.00621457 0)
(-0.0707187 0.00611738 0)
(-0.0738375 0.00597639 0)
(-0.0768354 0.00579025 0)
(-0.0796897 0.00555804 0)
(-0.0823776 0.00527926 0)
(-0.0848768 0.00495387 0)
(-0.0871656 0.0045823 0)
(-0.0892234 0.00416544 0)
(-0.0910306 0.00370471 0)
(-0.0925687 0.00320201 0)
(-0.0938208 0.00265975 0)
(-0.0947718 0.00208081 0)
(-0.0954082 0.00146857 0)
(-0.0957186 0.000826683 0)
(-0.0956949 0.0001595 0)
(-0.0953289 -0.000526557 0)
(-0.094615 -0.00122813 0)
(-0.0935526 -0.00193941 0)
(-0.0921418 -0.00265436 0)
(-0.0903856 -0.00336676 0)
(-0.0882897 -0.00407016 0)
(-0.0858626 -0.00475792 0)
(-0.0831156 -0.00542331 0)
(-0.0800625 -0.00605956 0)
(-0.07672 -0.00665995 0)
(-0.0731074 -0.00721789 0)
(-0.0692464 -0.00772706 0)
(-0.0651612 -0.00818146 0)
(-0.0608784 -0.00857556 0)
(-0.0564265 -0.00890439 0)
(-0.0518359 -0.00916365 0)
(-0.0471386 -0.00934983 0)
(-0.0423678 -0.00946028 0)
(-0.0375578 -0.00949331 0)
(-0.0327433 -0.0094483 0)
(-0.0279593 -0.00932568 0)
(-0.0232408 -0.00912701 0)
(-0.0186216 -0.008855 0)
(-0.014135 -0.00851345 0)
(-0.00981235 -0.00810725 0)
(-0.00568327 -0.00764227 0)
(-0.00177482 -0.00712525 0)
(0.00188846 -0.00656372 0)
(0.00528528 -0.00596583 0)
(0.00839786 -0.00534017 0)
(0.0112119 -0.00469556 0)
(0.0137168 -0.00404091 0)
(0.0159062 -0.003385 0)
(0.0177772 -0.00273627 0)
(0.0193311 -0.00210267 0)
(0.0205727 -0.00149147 0)
(0.0215103 -0.000909165 0)
(0.0221556 -0.000361295 0)
(0.0225228 0.000147583 0)
(0.0226289 0.000613965 0)
(0.0224925 0.00103542 0)
(0.022134 0.00141057 0)
(0.0215748 0.00173901 0)
(0.0208371 0.00202127 0)
(0.019943 0.00225865 0)
(0.0189145 0.00245312 0)
(0.0177731 0.00260709 0)
(0.0165397 0.00272324 0)
(0.0152341 0.00280426 0)
(0.0138754 0.00285257 0)
(0.0124816 0.00287007 0)
(0.0110704 0.0028578 0)
(0.00965902 0.00281565 0)
(0.00826515 0.00274206 0)
(0.00690703 0.00263387 0)
(0.00560425 0.00248624 0)
(0.00437811 0.00229295 0)
(0.00325191 0.00204713 0)
(0.0022509 0.00174293 0)
(0.00140089 0.00137876 0)
(0.000725521 0.00096232 0)
(0.000253477 0.000519147 0)
(3.63627e-05 0.000114133 0)
(3.91103e-05 -0.000256662 0)
(0.000222267 -0.000713721 0)
(0.000570186 -0.00107819 0)
(0.00101172 -0.00133761 0)
(0.00150478 -0.00149374 0)
(0.00201821 -0.00155528 0)
(0.00252326 -0.00153437 0)
(0.00299466 -0.00144441 0)
(0.00341118 -0.00129862 0)
(0.00375537 -0.00110931 0)
(0.00401335 -0.000887466 0)
(0.00417436 -0.000642502 0)
(0.00423042 -0.000382241 0)
(0.00417581 -0.000112891 0)
(0.00400665 0.000160887 0)
(0.00372035 0.000435879 0)
(0.00331527 0.000710186 0)
(0.00279022 0.000983057 0)
(0.00214422 0.00125471 0)
(0.0013761 0.00152612 0)
(0.000484376 0.00179884 0)
(-0.000532915 0.00207475 0)
(-0.00167831 0.00235591 0)
(-0.00295488 0.00264433 0)
(-0.00436623 0.00294187 0)
(-0.0059163 0.00325005 0)
(-0.00760929 0.00357 0)
(-0.00944943 0.00390235 0)
(-0.0114408 0.00424724 0)
(-0.013587 0.00460425 0)
(-0.0158913 0.00497244 0)
(-0.0183557 0.00535034 0)
(-0.0209817 0.00573601 0)
(-0.0237692 0.00612701 0)
(-0.0267168 0.00652052 0)
(-0.0298218 0.00691327 0)
(-0.0330796 0.00730168 0)
(-0.0364839 0.00768182 0)
(-0.0400265 0.00804948 0)
(-0.0436973 0.00840021 0)
(-0.0474844 0.00872937 0)
(-0.0513738 0.0090322 0)
(-0.0553497 0.00930385 0)
(-0.0593944 0.00953945 0)
(-0.0634887 0.00973421 0)
(-0.0676115 0.00988345 0)
(-0.0717406 0.00998272 0)
(-0.0758522 0.0100278 0)
(-0.079922 0.0100149 0)
(-0.0839243 0.00994052 0)
(-0.0878335 0.00980173 0)
(-0.0916231 0.00959608 0)
(-0.0952671 0.00932173 0)
(-0.0987394 0.00897742 0)
(-0.102014 0.00856254 0)
(-0.105067 0.00807718 0)
(-0.107875 0.00752208 0)
(-0.110413 0.00689869 0)
(-0.112662 0.00620919 0)
(-0.114601 0.00545639 0)
(-0.116212 0.00464386 0)
(-0.117479 0.00377577 0)
(-0.118389 0.00285701 0)
(-0.118929 0.00189302 0)
(-0.119089 0.00088974 0)
(-0.118861 -0.000146152 0)
(-0.118241 -0.00120581 0)
(-0.117227 -0.00228338 0)
(-0.115819 -0.0033704 0)
(-0.114018 -0.00445815 0)
(-0.111831 -0.00553769 0)
(-0.109264 -0.00659983 0)
(-0.10633 -0.0076352 0)
(-0.103041 -0.0086343 0)
(-0.0994126 -0.00958765 0)
(-0.095464 -0.0104859 0)
(-0.0912163 -0.0113198 0)
(-0.0866929 -0.0120805 0)
(-0.08192 -0.0127598 0)
(-0.0769258 -0.0133499 0)
(-0.0717407 -0.0138439 0)
(-0.0663971 -0.0142356 0)
(-0.0609289 -0.0145201 0)
(-0.0553715 -0.0146936 0)
(-0.0497613 -0.0147535 0)
(-0.0441357 -0.0146987 0)
(-0.0385323 -0.0145296 0)
(-0.0329887 -0.0142481 0)
(-0.0275422 -0.0138577 0)
(-0.0222291 -0.0133635 0)
(-0.0170845 -0.0127719 0)
(-0.0121418 -0.0120909 0)
(-0.00743204 -0.01133 0)
(-0.00298375 -0.0104994 0)
(0.00117753 -0.00961064 0)
(0.00502971 -0.00867581 0)
(0.00855427 -0.00770759 0)
(0.0117366 -0.00671884 0)
(0.0145662 -0.00572241 0)
(0.0170368 -0.00473082 0)
(0.019146 -0.00375604 0)
(0.020896 -0.00280922 0)
(0.0222927 -0.00190047 0)
(0.0233456 -0.00103869 0)
(0.024068 -0.000231411 0)
(0.0244761 0.000515306 0)
(0.0245887 0.00119692 0)
(0.0244269 0.00181042 0)
(0.0240134 0.00235427 0)
(0.0233723 0.00282832 0)
(0.0225283 0.00323364 0)
(0.0215065 0.00357235 0)
(0.0203319 0.00384733 0)
(0.0190289 0.00406195 0)
(0.0176217 0.00421971 0)
(0.0161335 0.00432386 0)
(0.0145868 0.00437697 0)
(0.0130037 0.0043805 0)
(0.011406 0.00433438 0)
(0.00981568 0.00423665 0)
(0.00825513 0.00408323 0)
(0.00674792 0.0038679 0)
(0.00531904 0.0035827 0)
(0.00399525 0.00321899 0)
(0.00280531 0.00276942 0)
(0.00177891 0.00223146 0)
(0.000944735 0.00161268 0)
(0.000343165 0.000938501 0)
(5.35771e-05 0.000270006 0)
(4.25019e-05 -0.000380304 0)
(0.000239357 -0.00100796 0)
(0.000608726 -0.00148775 0)
(0.00106983 -0.00181843 0)
(0.00157524 -0.00200827 0)
(0.00209085 -0.00207096 0)
(0.00258589 -0.00202307 0)
(0.00303363 -0.00188212 0)
(0.00341158 -0.00166529 0)
(0.00370121 -0.00138859 0)
(0.00388752 -0.00106637 0)
(0.00395866 -0.000711044 0)
(0.00390556 -0.00033296 0)
(0.0037214 5.96003e-05 0)
(0.00340117 0.000460381 0)
(0.00294121 0.000865028 0)
(0.00233878 0.00127093 0)
(0.00159164 0.00167698 0)
(0.000697722 0.00208339 0)
(-0.000345133 0.00249136 0)
(-0.0015394 0.00290283 0)
(-0.00288798 0.00332018 0)
(-0.00439424 0.003746 0)
(-0.00606201 0.00418278 0)
(-0.00789548 0.00463276 0)
(-0.00989904 0.0050977 0)
(-0.0120771 0.00557875 0)
(-0.0144338 0.00607638 0)
(-0.016973 0.00659032 0)
(-0.0196977 0.00711951 0)
(-0.0226099 0.00766214 0)
(-0.0257106 0.00821563 0)
(-0.0289992 0.00877674 0)
(-0.0324737 0.00934154 0)
(-0.03613 0.00990553 0)
(-0.0399622 0.0104637 0)
(-0.0439625 0.0110104 0)
(-0.0481206 0.0115398 0)
(-0.0524243 0.0120456 0)
(-0.0568591 0.0125212 0)
(-0.0614082 0.01296 0)
(-0.0660529 0.0133551 0)
(-0.0707724 0.0136999 0)
(-0.0755441 0.0139875 0)
(-0.0803437 0.0142116 0)
(-0.0851455 0.0143661 0)
(-0.0899227 0.0144452 0)
(-0.0946475 0.0144437 0)
(-0.0992915 0.0143571 0)
(-0.103826 0.0141815 0)
(-0.108222 0.0139137 0)
(-0.112451 0.0135514 0)
(-0.116486 0.013093 0)
(-0.120298 0.0125379 0)
(-0.123862 0.0118865 0)
(-0.127152 0.0111398 0)
(-0.130146 0.0103 0)
(-0.132821 0.00937002 0)
(-0.135157 0.0083537 0)
(-0.137135 0.00725573 0)
(-0.13874 0.00608163 0)
(-0.139958 0.0048377 0)
(-0.140775 0.003531 0)
(-0.141184 0.00216934 0)
(-0.141175 0.000761278 0)
(-0.140744 -0.000684128 0)
(-0.139887 -0.00215807 0)
(-0.138605 -0.00364931 0)
(-0.136899 -0.0051473 0)
(-0.134774 -0.00664102 0)
(-0.132236 -0.00811898 0)
(-0.129295 -0.00956941 0)
(-0.125961 -0.0109803 0)
(-0.12225 -0.0123397 0)
(-0.118178 -0.0136354 0)
(-0.113764 -0.0148556 0)
(-0.109029 -0.0159885 0)
(-0.103998 -0.0170231 0)
(-0.0986973 -0.0179485 0)
(-0.0931545 -0.0187549 0)
(-0.0874008 -0.0194333 0)
(-0.0814688 -0.0199759 0)
(-0.0753931 -0.020376 0)
(-0.0692095 -0.0206285 0)
(-0.0629554 -0.0207298 0)
(-0.0566692 -0.0206781 0)
(-0.0503899 -0.0204735 0)
(-0.0441568 -0.020118 0)
(-0.038009 -0.0196154 0)
(-0.0319853 -0.0189719 0)
(-0.0261233 -0.0181952 0)
(-0.0204594 -0.0172954 0)
(-0.0150277 -0.0162838 0)
(-0.00986046 -0.0151738 0)
(-0.0049868 -0.0139797 0)
(-0.000432815 -0.0127173 0)
(0.00377894 -0.0114028 0)
(0.00762975 -0.0100532 0)
(0.011105 -0.00868545 0)
(0.0141942 -0.00731641 0)
(0.0168914 -0.00596231 0)
(0.0191949 -0.00463852 0)
(0.0211073 -0.00335925 0)
(0.0226354 -0.00213722 0)
(0.0237899 -0.000983531 0)
(0.0245851 9.25961e-05 0)
(0.0250385 0.00108386 0)
(0.0251707 0.00198499 0)
(0.0250042 0.00279264 0)
(0.0245637 0.00350537 0)
(0.0238752 0.00412343 0)
(0.0229655 0.00464857 0)
(0.0218619 0.00508366 0)
(0.0205919 0.00543238 0)
(0.0191827 0.00569873 0)
(0.017661 0.00588654 0)
(0.0160533 0.00599892 0)
(0.0143856 0.0060377 0)
(0.0126835 0.00600291 0)
(0.0109729 0.00589229 0)
(0.00928 0.00570105 0)
(0.00763198 0.00542184 0)
(0.00605714 0.0050452 0)
(0.00458553 0.00456072 0)
(0.00324946 0.00395907 0)
(0.00208291 0.00323543 0)
(0.00112034 0.00239425 0)
(0.000413655 0.00145571 0)
(6.64733e-05 0.000469043 0)
(4.34946e-05 -0.000509369 0)
(0.000243307 -0.00131266 0)
(0.000614307 -0.00190627 0)
(0.00107011 -0.00230149 0)
(0.0015595 -0.00251477 0)
(0.00204604 -0.00256606 0)
(0.00249749 -0.00247713 0)
(0.00288612 -0.00227008 0)
(0.00318876 -0.00196619 0)
(0.00338622 -0.00158522 0)
(0.00346281 -0.00114487 0)
(0.00340598 -0.000660486 0)
(0.00320577 -0.000144902 0)
(0.00285445 0.000391582 0)
(0.00234602 0.000941151 0)
(0.00167575 0.00149834 0)
(0.000839782 0.00205982 0)
(-0.000165233 0.00262417 0)
(-0.00134248 0.00319152 0)
(-0.0026952 0.00376328 0)
(-0.00422689 0.00434171 0)
(-0.00594138 0.00492962 0)
(-0.00784283 0.00552998 0)
(-0.00993569 0.00614562 0)
(-0.0122245 0.00677895 0)
(-0.0147139 0.00743173 0)
(-0.0174081 0.00810488 0)
(-0.0203108 0.00879839 0)
(-0.0234248 0.00951123 0)
(-0.0267521 0.0102413 0)
(-0.030293 0.0109856 0)
(-0.0340464 0.0117399 0)
(-0.0380091 0.0124994 0)
(-0.0421761 0.0132581 0)
(-0.04654 0.0140094 0)
(-0.0510912 0.0147461 0)
(-0.0558176 0.0154604 0)
(-0.0607047 0.016144 0)
(-0.0657354 0.0167883 0)
(-0.0708906 0.0173844 0)
(-0.0761485 0.0179235 0)
(-0.0814855 0.0183966 0)
(-0.0868761 0.0187952 0)
(-0.0922931 0.0191108 0)
(-0.0977079 0.0193357 0)
(-0.103091 0.0194625 0)
(-0.108412 0.0194846 0)
(-0.11364 0.0193965 0)
(-0.118745 0.0191931 0)
(-0.123695 0.0188709 0)
(-0.128461 0.0184269 0)
(-0.133014 0.0178594 0)
(-0.137326 0.0171681 0)
(-0.14137 0.0163533 0)
(-0.14512 0.0154167 0)
(-0.148553 0.0143612 0)
(-0.151648 0.0131905 0)
(-0.154384 0.0119094 0)
(-0.156744 0.0105238 0)
(-0.158712 0.00904044 0)
(-0.160274 0.00746685 0)
(-0.161419 0.00581153 0)
(-0.162136 0.00408373 0)
(-0.162418 0.00229344 0)
(-0.162261 0.0004514 0)
(-0.16166 -0.00143098 0)
(-0.160613 -0.00334234 0)
(-0.159124 -0.00526969 0)
(-0.157193 -0.00720009 0)
(-0.154826 -0.00912013 0)
(-0.152031 -0.011016 0)
(-0.148816 -0.0128736 0)
(-0.145193 -0.0146787 0)
(-0.141177 -0.0164167 0)
(-0.136783 -0.0180732 0)
(-0.132029 -0.0196339 0)
(-0.126937 -0.0210848 0)
(-0.12153 -0.0224123 0)
(-0.115833 -0.0236035 0)
(-0.109873 -0.0246462 0)
(-0.103681 -0.0255295 0)
(-0.0972887 -0.0262434 0)
(-0.09073 -0.0267797 0)
(-0.0840407 -0.0271315 0)
(-0.0772582 -0.0272941 0)
(-0.0704213 -0.0272646 0)
(-0.0635695 -0.0270425 0)
(-0.0567432 -0.0266294 0)
(-0.0499829 -0.0260296 0)
(-0.0433292 -0.0252495 0)
(-0.0368219 -0.0242981 0)
(-0.0304997 -0.0231868 0)
(-0.0243998 -0.021929 0)
(-0.0185575 -0.0205404 0)
(-0.0130054 -0.0190383 0)
(-0.00777338 -0.0174416 0)
(-0.00288786 -0.0157701 0)
(0.00162836 -0.0140449 0)
(0.00575649 -0.0122869 0)
(0.00948196 -0.0105173 0)
(0.0127946 -0.00875686 0)
(0.0156888 -0.00702533 0)
(0.0181634 -0.00534128 0)
(0.0202216 -0.00372169 0)
(0.021871 -0.00218161 0)
(0.0231232 -0.000733982 0)
(0.0239935 0.000610601 0)
(0.0245008 0.00184395 0)
(0.0246666 0.00296032 0)
(0.0245151 0.00395634 0)
(0.0240724 0.00483082 0)
(0.0233662 0.00558451 0)
(0.0224251 0.00621976 0)
(0.0212785 0.00674005 0)
(0.019956 0.00714947 0)
(0.0184871 0.00745211 0)
(0.0169015 0.00765137 0)
(0.0152284 0.00774935 0)
(0.0134969 0.00774613 0)
(0.0117365 0.00763924 0)
(0.0099767 0.00742331 0)
(0.00824795 0.00709001 0)
(0.0065818 0.00662846 0)
(0.0050116 0.00602629 0)
(0.00357334 0.00527155 0)
(0.00230552 0.0043557 0)
(0.00124845 0.00327752 0)
(0.000464204 0.00204813 0)
(7.53222e-05 0.000700193 0)
(4.26848e-05 -0.000637524 0)
(0.000236304 -0.00161251 0)
(0.000591064 -0.00231232 0)
(0.00101853 -0.00276107 0)
(0.00146537 -0.00298433 0)
(0.00189361 -0.00300919 0)
(0.00227012 -0.00286324 0)
(0.00256671 -0.00257347 0)
(0.00275992 -0.00216546 0)
(0.00283029 -0.0016627 0)
(0.0027618 -0.00108615 0)
(0.00254142 -0.000453989 0)
(0.00215857 0.0002186 0)
(0.00160476 0.00091941 0)
(0.000873074 0.00163917 0)
(-4.22163e-05 0.00237136 0)
(-0.00114604 0.00311201 0)
(-0.00244288 0.00385936 0)
(-0.00393702 0.00461349 0)
(-0.00563279 0.00537592 0)
(-0.00753466 0.00614917 0)
(-0.00964729 0.0069363 0)
(-0.0119755 0.00774051 0)
(-0.0145241 0.00856473 0)
(-0.0172979 0.00941127 0)
(-0.0203012 0.0102816 0)
(-0.0235376 0.011176 0)
(-0.0270098 0.0120935 0)
(-0.0307194 0.0130321 0)
(-0.0346661 0.0139882 0)
(-0.0388481 0.0149569 0)
(-0.0432615 0.0159323 0)
(-0.0478997 0.0169071 0)
(-0.0527542 0.0178732 0)
(-0.0578134 0.0188214 0)
(-0.0630634 0.019742 0)
(-0.0684875 0.0206246 0)
(-0.0740664 0.0214584 0)
(-0.0797782 0.0222322 0)
(-0.0855988 0.022935 0)
(-0.0915019 0.0235556 0)
(-0.0974592 0.0240834 0)
(-0.103441 0.024508 0)
(-0.109417 0.0248198 0)
(-0.115354 0.02501 0)
(-0.121221 0.0250705 0)
(-0.126985 0.0249947 0)
(-0.132614 0.0247768 0)
(-0.138076 0.0244124 0)
(-0.14334 0.0238985 0)
(-0.148378 0.0232332 0)
(-0.153161 0.0224163 0)
(-0.157662 0.0214485 0)
(-0.161857 0.0203321 0)
(-0.165722 0.0190705 0)
(-0.169237 0.0176684 0)
(-0.172382 0.0161317 0)
(-0.175141 0.014467 0)
(-0.177498 0.0126823 0)
(-0.179441 0.0107864 0)
(-0.180958 0.00878885 0)
(-0.18204 0.00670017 0)
(-0.18268 0.00453158 0)
(-0.182871 0.00229498 0)
(-0.18261 3.04277e-06 0)
(-0.181895 -0.00233077 0)
(-0.180725 -0.004693 0)
(-0.179102 -0.00706907 0)
(-0.177029 -0.00944404 0)
(-0.17451 -0.0118025 0)
(-0.171552 -0.0141286 0)
(-0.168164 -0.0164062 0)
(-0.164356 -0.0186189 0)
(-0.160141 -0.02075 0)
(-0.155533 -0.0227829 0)
(-0.15055 -0.024701 0)
(-0.14521 -0.0264881 0)
(-0.139535 -0.0281282 0)
(-0.133548 -0.029606 0)
(-0.127277 -0.0309072 0)
(-0.120748 -0.0320185 0)
(-0.113993 -0.0329279 0)
(-0.107045 -0.033625 0)
(-0.0999397 -0.0341013 0)
(-0.0927129 -0.0343504 0)
(-0.0854038 -0.0343681 0)
(-0.0780523 -0.0341528 0)
(-0.0706996 -0.0337056 0)
(-0.0633874 -0.0330304 0)
(-0.0561577 -0.0321338 0)
(-0.0490523 -0.0310256 0)
(-0.0421123 -0.0297182 0)
(-0.0353778 -0.0282266 0)
(-0.028887 -0.0265686 0)
(-0.022676 -0.0247642 0)
(-0.0167783 -0.022835 0)
(-0.011224 -0.0208046 0)
(-0.0060402 -0.0186976 0)
(-0.00124965 -0.016539 0)
(0.00312886 -0.0143545 0)
(0.00708098 -0.0121691 0)
(0.0105969 -0.0100072 0)
(0.0136716 -0.00789196 0)
(0.0163045 -0.00584484 0)
(0.0184997 -0.00388524 0)
(0.0202656 -0.00203017 0)
(0.0216148 -0.000294025 0)
(0.0225638 0.00131158 0)
(0.0231324 0.00277792 0)
(0.0233435 0.00409908 0)
(0.0232228 0.00527181 0)
(0.0227976 0.00629529 0)
(0.0220974 0.00717073 0)
(0.0211525 0.00790088 0)
(0.0199942 0.00848945 0)
(0.0186541 0.00894037 0)
(0.0171644 0.00925707 0)
(0.015557 0.00944166 0)
(0.0138642 0.0094942 0)
(0.0121182 0.00941197 0)
(0.0103519 0.00918906 0)
(0.00859872 0.0088162 0)
(0.00689338 0.00828102 0)
(0.0052725 0.00756895 0)
(0.0037758 0.00666476 0)
(0.00244622 0.00555498 0)
(0.00132945 0.0042309 0)
(0.000495665 0.00269221 0)
(8.05752e-05 0.000952756 0)
(4.04532e-05 -0.000759569 0)
(0.000219964 -0.00189409 0)
(0.000542383 -0.0026864 0)
(0.00092026 -0.00317333 0)
(0.00129974 -0.00338995 0)
(0.00164219 -0.003371 0)
(0.00191433 -0.00315028 0)
(0.00208801 -0.0027599 0)
(0.00213989 -0.00222978 0)
(0.0020506 -0.0015871 0)
(0.00180404 -0.000855968 0)
(0.00138694 -5.71943e-05 0)
(0.000788279 0.000791839 0)
(-1.07504e-06 0.00167719 0)
(-0.000988837 0.00258826 0)
(-0.00218167 0.0035176 0)
(-0.00358553 0.00446064 0)
(-0.00520595 0.00541531 0)
(-0.0070483 0.00638161 0)
(-0.00911788 0.00736111 0)
(-0.01142 0.00835642 0)
(-0.0139601 0.00937069 0)
(-0.0167432 0.0104071 0)
(-0.0197745 0.0114683 0)
(-0.0230584 0.0125563 0)
(-0.0265985 0.0136717 0)
(-0.0303974 0.0148139 0)
(-0.0344563 0.0159806 0)
(-0.0387745 0.017168 0)
(-0.0433494 0.0183707 0)
(-0.048176 0.0195815 0)
(-0.0532468 0.0207921 0)
(-0.0585516 0.0219927 0)
(-0.0640773 0.0231724 0)
(-0.0698081 0.0243193 0)
(-0.0757252 0.0254209 0)
(-0.081807 0.026464 0)
(-0.0880295 0.0274353 0)
(-0.0943659 0.0283212 0)
(-0.100788 0.0291085 0)
(-0.107264 0.0297843 0)
(-0.113764 0.0303362 0)
(-0.120254 0.0307529 0)
(-0.1267 0.0310238 0)
(-0.133069 0.0311399 0)
(-0.139327 0.0310933 0)
(-0.145441 0.0308774 0)
(-0.15138 0.0304874 0)
(-0.157111 0.02992 0)
(-0.162607 0.0291733 0)
(-0.167838 0.0282473 0)
(-0.17278 0.0271432 0)
(-0.177409 0.0258638 0)
(-0.181702 0.0244132 0)
(-0.185639 0.022797 0)
(-0.189204 0.0210217 0)
(-0.192379 0.0190952 0)
(-0.19515 0.0170263 0)
(-0.197507 0.0148247 0)
(-0.199437 0.012501 0)
(-0.200932 0.0100666 0)
(-0.201984 0.00753378 0)
(-0.202588 0.0049153 0)
(-0.20274 0.00222473 0)
(-0.202435 -0.00052373 0)
(-0.201672 -0.00331527 0)
(-0.20045 -0.00613458 0)
(-0.198772 -0.00896565 0)
(-0.196638 -0.0117919 0)
(-0.194053 -0.0145964 0)
(-0.191022 -0.0173615 0)
(-0.187551 -0.0200692 0)
(-0.18365 -0.0227013 0)
(-0.17933 -0.0252392 0)
(-0.174601 -0.027664 0)
(-0.16948 -0.0299571 0)
(-0.163983 -0.0320999 0)
(-0.158129 -0.0340741 0)
(-0.15194 -0.0358621 0)