/*--------------------------------*- C++ -*----------------------------------*\
| =========                 |                                                 |
| \\      /  F ield         | OpenFOAM: The Open Source CFD Toolbox           |
|  \\    /   O peration     | Version:  2112                                  |
|   \\  /    A nd           | Website:  www.openfoam.com                      |
|    \\/     M anipulation  |                                                 |
\*---------------------------------------------------------------------------*/
FoamFile
{
    version     2.0;
    format      ascii;
    arch        "LSB;label=32;scalar=64";
    class       volScalarField;
    location    "1.2";
    object      p;
}
// * * * * * * * * * * * * * * * * * * * * * * * * * * * * * * * * * * * * * //

dimensions      [0 2 -2 0 0 0 0];

internalField   nonuniform List<scalar> 
16641
(
-1.88332e-08
3.09426e-07
-3.01718e-06
-9.73707e-06
-1.91247e-05
-3.05334e-05
-4.33561e-05
-5.70855e-05
-7.13349e-05
-8.5786e-05
-0.000100242
-0.000114567
-0.000128681
-0.000142547
-0.000156159
-0.000169532
-0.000182692
-0.000195671
-0.0002085
-0.000221206
-0.000233808
-0.000246315
-0.000258724
-0.000271021
-0.000283177
-0.000295151
-0.00030689
-0.00031833
-0.000329391
-0.000339987
-0.00035002
-0.000359381
-0.000367954
-0.000375616
-0.000382233
-0.000387668
-0.000391777
-0.000394411
-0.00039542
-0.000394649
-0.000391942
-0.000387144
-0.000380102
-0.000370666
-0.00035869
-0.000344038
-0.000326579
-0.000306197
-0.000282788
-0.000256267
-0.000226569
-0.00019365
-0.000157494
-0.000118113
-7.55496e-05
-2.98844e-05
1.8765e-05
7.02401e-05
0.000124339
0.000180818
0.000239383
0.000299697
0.000361371
0.000423973
0.000487024
0.000550003
0.00061235
0.000673471
0.000732741
0.000789514
0.000843131
0.000892922
0.000938227
0.000978395
0.0010128
0.00104086
0.00106201
0.00107578
0.00108173
0.00107952
0.00106887
0.0010496
0.00102164
0.000984973
0.000939725
0.000886097
0.00082439
0.000754998
0.000678403
0.000595162
0.000505902
0.000411307
0.000312108
0.000209071
0.000102983
-5.35799e-06
-0.000115156
-0.000225629
-0.000336019
-0.000445602
-0.000553693
-0.000659659
-0.000762922
-0.000862958
-0.000959306
-0.00105156
-0.00113939
-0.00122249
-0.00130064
-0.00137366
-0.0014414
-0.00150376
-0.00156068
-0.00161211
-0.00165801
-0.00169838
-0.00173321
-0.0017625
-0.00178626
-0.0018045
-0.0018173
-0.00182474
-0.00182701
-0.00182447
-0.0018177
-0.00180771
-0.00179608
-0.00178515
-0.00177839
-6.93055e-07
-3.49518e-07
-3.35634e-06
-9.19866e-06
-1.72637e-05
-2.70938e-05
-3.82604e-05
-5.03584e-05
-6.30698e-05
-7.6132e-05
-8.9356e-05
-0.000102607
-0.000115796
-0.000128873
-0.000141813
-0.00015461
-0.000167273
-0.000179812
-0.000192243
-0.000204578
-0.000216822
-0.000228973
-0.000241021
-0.000252945
-0.00026471
-0.000276273
-0.000287581
-0.000298566
-0.000309153
-0.000319256
-0.000328781
-0.000337622
-0.00034567
-0.000352804
-0.000358901
-0.000363828
-0.000367449
-0.000369625
-0.000370214
-0.000369071
-0.000366051
-0.000361011
-0.000353807
-0.000344302
-0.000332363
-0.000317863
-0.000300687
-0.000280727
-0.000257894
-0.000232113
-0.000203328
-0.000171506
-0.000136637
-9.87419e-05
-5.78685e-05
-1.40992e-05
3.24462e-05
8.16102e-05
0.000133196
0.000186963
0.000242631
0.00029987
0.000358309
0.000417533
0.000477085
0.000536468
0.000595148
0.000652559
0.000708109
0.000761185
0.000811162
0.000857409
0.000899299
0.00093622
0.000967582
0.000992831
0.00101145
0.00102299
0.00102704
0.00102329
0.00101147
0.000991441
0.00096311
0.000926499
0.000881716
0.000828966
0.000768539
0.000700818
0.000626262
0.000545407
0.000458852
0.000367248
0.000271292
0.000171712
6.92576e-05
-3.53155e-05
-0.000141251
-0.000247808
-0.000354265
-0.000459936
-0.000564174
-0.000666375
-0.000765991
-0.000862524
-0.000955535
-0.00104464
-0.00112951
-0.00120987
-0.0012855
-0.00135622
-0.00142189
-0.00148242
-0.00153775
-0.00158782
-0.00163263
-0.00167217
-0.00170645
-0.0017355
-0.00175936
-0.00177809
-0.0017918
-0.00180065
-0.00180488
-0.00180487
-0.0018012
-0.0017947
-0.00178662
-0.00177842
-0.00177164
2.22932e-06
2.29422e-06
-7.13715e-07
-6.21159e-06
-1.36366e-05
-2.2624e-05
-3.2822e-05
-4.3911e-05
-5.5619e-05
-6.77272e-05
-8.00676e-05
-9.25158e-05
-0.000104988
-0.000117431
-0.000129812
-0.00014212
-0.000154349
-0.000166503
-0.000178586
-0.000190601
-0.000202544
-0.000214408
-0.000226175
-0.000237818
-0.000249301
-0.000260579
-0.000271594
-0.00028228
-0.000292563
-0.000302357
-0.000311569
-0.000320097
-0.000327836
-0.000334668
-0.000340474
-0.000345126
-0.000348495
-0.000350448
-0.000350849
-0.00034956
-0.000346444
-0.000341363
-0.000334185
-0.000324779
-0.00031302
-0.00029879
-0.000281978
-0.000262489
-0.000240237
-0.000215155
-0.000187192
-0.00015632
-0.000122534
-8.58547e-05
-4.63332e-05
-4.05149e-06
4.08724e-05
8.82841e-05
0.000137992
0.000189763
0.000243323
0.000298353
0.000354496
0.000411349
0.000468468
0.000525375
0.000581552
0.000636454
0.000689507
0.000740119
0.000787686
0.000831597
0.000871247
0.000906045
0.000935422
0.000958841
0.000975807
0.000985879
0.000988674
0.00098388
0.000971261
0.00095066
0.00092201
0.000885331
0.000840735
0.000788423
0.000728686
0.000661897
0.000588509
0.000509046
0.000424092
0.000334286
0.000240304
0.000142855
4.26687e-05
-5.95212e-05
-0.000162982
-0.000266994
-0.000370861
-0.000473921
-0.000575546
-0.000675158
-0.000772228
-0.000866277
-0.000956884
-0.00104368
-0.00112635
-0.00120464
-0.00127833
-0.00134725
-0.00141129
-0.00147035
-0.00152437
-0.00157333
-0.00161721
-0.00165603
-0.00168981
-0.0017186
-0.00174246
-0.00176146
-0.00177574
-0.00178546
-0.00179087
-0.00179229
-0.00179021
-0.0017853
-0.00177846
-0.00177023
-0.00176067
8.73212e-06
7.86735e-06
4.41168e-06
-1.16556e-06
-8.41182e-06
-1.70081e-05
-2.66642e-05
-3.71137e-05
-4.81336e-05
-5.95427e-05
-7.11987e-05
-8.29978e-05
-9.48659e-05
-0.000106754
-0.000118634
-0.000130489
-0.000142313
-0.000154104
-0.000165861
-0.000177579
-0.000189252
-0.000200867
-0.000212399
-0.000223821
-0.000235092
-0.000246164
-0.000256979
-0.00026747
-0.000277563
-0.000287173
-0.000296207
-0.000304568
-0.000312149
-0.000318838
-0.000324517
-0.000329065
-0.000332356
-0.000334261
-0.00033465
-0.000333391
-0.000330351
-0.000325399
-0.000318408
-0.000309253
-0.000297813
-0.000283977
-0.000267639
-0.000248708
-0.000227103
-0.000202758
-0.000175627
-0.000145681
-0.000112919
-7.73581e-05
-3.90488e-05
1.92935e-06
4.54622e-05
9.14011e-05
0.00013956
0.000189714
0.000241597
0.000294899
0.000349275
0.000404331
0.000459635
0.00051472
0.000569081
0.000622186
0.000673473
0.000722362
0.000768261
0.000810571
0.000848697
0.00088206
0.000910099
0.000932286
0.000948136
0.000957213
0.000959143
0.000953618
0.000940407
0.00091936
0.00089041
0.000853581
0.000808987
0.00075683
0.000697401
0.000631074
0.000558298
0.000479595
0.000395546
0.000306781
0.000213974
0.000117825
1.90539e-05
-8.16141e-05
-0.000183458
-0.00028577
-0.000387869
-0.000489104
-0.000588864
-0.000686587
-0.000781756
-0.000873912
-0.000962647
-0.00104761
-0.0011285
-0.00120506
-0.00127712
-0.0013445
-0.0014071
-0.00146484
-0.00151768
-0.0015656
-0.00160861
-0.00164672
-0.00167999
-0.00170845
-0.00173219
-0.0017513
-0.00176589
-0.00177612
-0.00178219
-0.00178437
-0.001783
-0.00177857
-0.00177172
-0.00176219
-0.00174897
1.82616e-05
1.58468e-05
1.15364e-05
5.55419e-06
-1.8146e-06
-1.03013e-05
-1.96628e-05
-2.96884e-05
-4.02007e-05
-5.10549e-05
-6.21405e-05
-7.33751e-05
-8.46996e-05
-9.60769e-05
-0.000107483
-0.000118905
-0.000130338
-0.000141777
-0.000153218
-0.000164656
-0.000176079
-0.000187469
-0.000198801
-0.000210043
-0.000221152
-0.000232078
-0.000242762
-0.000253137
-0.000263126
-0.000272646
-0.000281606
-0.000289909
-0.000297451
-0.000304122
-0.000309807
-0.000314387
-0.000317742
-0.000319745
-0.000320272
-0.000319193
-0.000316381
-0.000311709
-0.000305056
-0.000296299
-0.000285322
-0.000272016
-0.00025628
-0.000238026
-0.000217173
-0.000193656
-0.000167431
-0.000138468
-0.000106761
-7.23278e-05
-3.52134e-05
4.5068e-06
4.6725e-05
9.12993e-05
0.000138051
0.000186764
0.00023718
0.000289
0.000341886
0.000395455
0.000449285
0.000502917
0.000555856
0.000607577
0.000657528
0.000705135
0.000749811
0.000790963
0.000828003
0.000860352
0.000887455
0.000908784
0.000923856
0.000932237
0.000933554
0.000927499
0.000913842
0.000892432
0.000863205
0.000826186
0.00078149
0.000729323
0.000669975
0.000603824
0.000531322
0.000452992
0.000369417
0.00028123
0.000189103
9.37405e-05
-4.14095e-06
-0.000103818
-0.000204572
-0.000305703
-0.000406533
-0.00050642
-0.000604766
-0.000701014
-0.000794664
-0.000885267
-0.000972431
-0.00105582
-0.00113514
-0.00121017
-0.00128073
-0.00134668
-0.00140792
-0.0014644
-0.00151609
-0.00156297
-0.00160508
-0.00164245
-0.00167514
-0.0017032
-0.00172671
-0.00174577
-0.00176049
-0.00177098
-0.00177741
-0.00177995
-0.00177883
-0.00177437
-0.00176699
-0.00175582
-0.00173893
3.02132e-05
2.58035e-05
2.03188e-05
1.36585e-05
5.9031e-06
-2.71509e-06
-1.20002e-05
-2.17943e-05
-3.1963e-05
-4.24012e-05
-5.30287e-05
-6.37872e-05
-7.46385e-05
-8.55579e-05
-9.65315e-05
-0.000107554
-0.000118623
-0.000129734
-0.000140886
-0.000152071
-0.000163275
-0.000174479
-0.000185655
-0.000196769
-0.000207775
-0.000218624
-0.000229254
-0.000239598
-0.000249578
-0.000259112
-0.00026811
-0.000276476
-0.000284106
-0.000290892
-0.000296724
-0.000301484
-0.000305055
-0.000307314
-0.000308139
-0.000307404
-0.000304985
-0.000300759
-0.000294607
-0.000286409
-0.000276052
-0.000263428
-0.000248438
-0.000230993
-0.000211012
-0.000188431
-0.000163201
-0.000135291
-0.000104689
-7.14087e-05
-3.54888e-05
3.00229e-06
4.39646e-05
8.72644e-05
0.000132732
0.000180159
0.000229298
0.00027986
0.000331512
0.000383883
0.000436557
0.000489081
0.000540969
0.000591698
0.000640719
0.000687461
0.00073134
0.000771762
0.000808136
0.000839883
0.000866442
0.000887284
0.000901921
0.000909913
0.000910882
0.000904518
0.000890584
0.000868929
0.000839488
0.000802283
0.000757431
0.000705139
0.000645702
0.000579501
0.000506995
0.000428713
0.000345243
0.000257227
0.000165346
7.03086e-05
-2.7161e-05
-0.000126334
-0.000226489
-0.000326923
-0.00042696
-0.000525959
-0.000623324
-0.000718508
-0.000811016
-0.000900411
-0.000986312
-0.00106839
-0.00114639
-0.00122009
-0.00128932
-0.00135396
-0.00141394
-0.00146922
-0.00151979
-0.00156566
-0.00160686
-0.00164345
-0.0016755
-0.00170308
-0.00172626
-0.00174513
-0.00175978
-0.00177032
-0.00177685
-0.00177946
-0.00177827
-0.00177347
-0.00176531
-0.00175243
-0.00173226
4.39858e-05
3.72994e-05
3.03893e-05
2.28248e-05
1.44685e-05
5.51507e-06
-3.88066e-06
-1.36086e-05
-2.35809e-05
-3.37291e-05
-4.4004e-05
-5.43755e-05
-6.48256e-05
-7.53462e-05
-8.59376e-05
-9.66028e-05
-0.000107344
-0.000118165
-0.000129064
-0.000140034
-0.000151061
-0.000162126
-0.0001732
-0.000184246
-0.000195219
-0.000206067
-0.000216729
-0.000227134
-0.000237208
-0.000246868
-0.000256024
-0.000264579
-0.000272433
-0.00027948
-0.00028561
-0.000290709
-0.00029466
-0.000297344
-0.000298641
-0.000298427
-0.000296581
-0.000292984
-0.000287514
-0.000280056
-0.000270495
-0.000258725
-0.000244646
-0.000228166
-0.000209204
-0.00018769
-0.000163572
-0.000136812
-0.000107394
-7.53215e-05
-4.06266e-05
-3.36849e-06
3.63624e-05
7.84427e-05
0.000122712
0.000168973
0.000216987
0.000266475
0.000317111
0.000368531
0.000420327
0.000472051
0.000523218
0.000573308
0.000621772
0.000668038
0.000711516
0.00075161
0.000787722
0.000819264
0.000845667
0.000866392
0.000880941
0.000888865
0.000889775
0.000883351
0.00086935
0.000847613
0.00081807
0.000780742
0.000735744
0.000683284
0.000623661
0.000557261
0.000484552
0.00040607
0.000322415
0.000234242
0.000142244
4.71414e-05
-5.0328e-05
-0.000149424
-0.000249416
-0.000349591
-0.000449268
-0.000547802
-0.000644595
-0.000739102
-0.000830832
-0.000919355
-0.0010043
-0.00108535
-0.00116226
-0.00123482
-0.0013029
-0.00136638
-0.00142522
-0.00147938
-0.00152888
-0.00157375
-0.00161405
-0.00164984
-0.0016812
-0.00170822
-0.00173096
-0.00174952
-0.00176397
-0.00177437
-0.00178079
-0.00178326
-0.00178179
-0.00177648
-0.00176747
-0.00175301
-0.00173007
5.90214e-05
4.98513e-05
4.13424e-05
3.27068e-05
2.35822e-05
1.41331e-05
4.47917e-06
-5.31927e-06
-1.52168e-05
-2.51816e-05
-3.51984e-05
-4.52634e-05
-5.53813e-05
-6.55644e-05
-7.58269e-05
-8.61818e-05
-9.66417e-05
-0.000107216
-0.000117906
-0.000128707
-0.000139608
-0.00015059
-0.000161622
-0.000172667
-0.000183683
-0.000194613
-0.000205397
-0.000215965
-0.000226241
-0.000236144
-0.000245583
-0.000254464
-0.000262687
-0.000270146
-0.000276735
-0.00028234
-0.000286847
-0.000290139
-0.000292096
-0.000292598
-0.000291524
-0.000288755
-0.000284171
-0.000277655
-0.000269093
-0.000258377
-0.000245405
-0.000230079
-0.000212316
-0.00019204
-0.00016919
-0.000143721
-0.000115609
-8.48484e-05
-5.14601e-05
-1.54918e-05
2.29775e-05
6.38355e-05
0.000106934
0.000152086
0.000199064
0.000247598
0.000297371
0.000348025
0.000399158
0.000450325
0.000501043
0.000550792
0.000599019
0.000645147
0.00068858
0.000728713
0.000764937
0.000796651
0.000823274
0.000844252
0.000859071
0.000867266
0.000868434
0.000862241
0.000848432
0.000826836
0.000797374
0.000760062
0.000715011
0.00066243
0.000602619
0.000535972
0.00046296
0.000384135
0.000300109
0.000211551
0.000119172
2.37097e-05
-7.40811e-05
-0.000173443
-0.000273629
-0.000373912
-0.000473599
-0.000572035
-0.000668616
-0.000762792
-0.000854075
-0.000942034
-0.00102631
-0.00110659
-0.00118264
-0.00125427
-0.00132137
-0.00138383
-0.00144163
-0.00149476
-0.00154326
-0.00158718
-0.00162658
-0.00166156
-0.0016922
-0.00171859
-0.00174082
-0.00175897
-0.00177309
-0.00178323
-0.0017894
-0.0017916
-0.00178974
-0.00178387
-0.00177403
-0.00175823
-0.00173307
7.48072e-05
6.3016e-05
5.27795e-05
4.29449e-05
3.29249e-05
2.28587e-05
1.28293e-05
2.85172e-06
-7.07013e-06
-1.69427e-05
-2.67827e-05
-3.66141e-05
-4.64669e-05
-5.63728e-05
-6.63608e-05
-7.64582e-05
-8.66883e-05
-9.7066e-05
-0.000107599
-0.000118286
-0.000129119
-0.000140079
-0.000151138
-0.000162259
-0.000173398
-0.0001845
-0.000195504
-0.000206341
-0.000216937
-0.000227207
-0.000237065
-0.000246415
-0.00025516
-0.000263195
-0.000270414
-0.000276708
-0.000281963
-0.000286061
-0.000288885
-0.000290317
-0.000290236
-0.000288522
-0.000285055
-0.000279716
-0.00027239
-0.000262964
-0.000251332
-0.000237393
-0.000221054
-0.000202233
-0.000180859
-0.000156879
-0.000130254
-0.00010097
-6.90329e-05
-3.44779e-05
2.63013e-06
4.21923e-05
8.40735e-05
0.0001281
0.000174056
0.000221682
0.00027067
0.00032067
0.000371284
0.000422071
0.000472548
0.000522193
0.00057045
0.000616735
0.000660442
0.000700953
0.000737645
0.000769902
0.000797124
0.000818738
0.000834209
0.000843053
0.000844846
0.000839235
0.000825946
0.000804794
0.000775687
0.000738629
0.000693725
0.000641179
0.000581293
0.000514464
0.000441171
0.000361976
0.000277507
0.000188451
9.55357e-05
-4.77585e-07
-9.88136e-05
-0.000198694
-0.000299348
-0.000400031
-0.00050003
-0.000598678
-0.000695356
-0.000789508
-0.000880639
-0.000968318
-0.00105218
-0.00113194
-0.00120736
-0.00127827
-0.00134455
-0.00140615
-0.00146303
-0.00151524
-0.0015628
-0.00160581
-0.00164434
-0.00167851
-0.00170841
-0.00173415
-0.00175581
-0.00177347
-0.00178718
-0.00179697
-0.00180282
-0.00180467
-0.0018024
-0.00179599
-0.00178542
-0.00176855
-0.00174171
9.0856e-05
7.63544e-05
6.42973e-05
5.31705e-05
4.21624e-05
3.1386e-05
2.08918e-05
1.06504e-05
6.22914e-07
-9.23315e-06
-1.89666e-05
-2.86315e-05
-3.82822e-05
-4.79693e-05
-5.77403e-05
-6.76369e-05
-7.76924e-05
-8.79299e-05
-9.83639e-05
-0.000108999
-0.000119829
-0.000130838
-0.000141999
-0.000153278
-0.00016463
-0.000176001
-0.000187331
-0.000198553
-0.000209591
-0.000220364
-0.000230784
-0.000240759
-0.000250191
-0.000258978
-0.000267018
-0.000274199
-0.00028041
-0.000285535
-0.000289459
-0.000292062
-0.000293224
-0.000292825
-0.000290741
-0.000286854
-0.000281042
-0.000273189
-0.000263183
-0.000250916
-0.000236287
-0.000219201
-0.000199578
-0.000177352
-0.000152471
-0.000124905
-9.46453e-05
-6.17107e-05
-2.61503e-05
1.19534e-05
5.24814e-05
9.52751e-05
0.000140133
0.000186806
0.000234997
0.000284368
0.000334526
0.000385032
0.000435407
0.000485124
0.000533625
0.000580316
0.00062458
0.000665786
0.000703294
0.000736466
0.000764683
0.000787347
0.000803899
0.000813827
0.000816683
0.000812088
0.000799746
0.000779449
0.000751084
0.000714642
0.000670213
0.000617996
0.000558286
0.000491481
0.000418067
0.000338614
0.000253766
0.000164226
7.07442e-05
-2.58956e-05
-0.000124893
-0.000225442
-0.000326749
-0.000428042
-0.000528587
-0.000627693
-0.000724727
-0.000819117
-0.000910356
-0.000998012
-0.00108172
-0.00116119
-0.00123619
-0.00130657
-0.00137222
-0.00143311
-0.00148922
-0.0015406
-0.00158733
-0.00162949
-0.0016672
-0.00170058
-0.00172975
-0.00175482
-0.00177588
-0.00179302
-0.00180628
-0.00181567
-0.00182116
-0.00182265
-0.00181998
-0.00181309
-0.00180194
-0.00178427
-0.00175624
0.000106711
8.94334e-05
7.54916e-05
6.30083e-05
5.09436e-05
3.93895e-05
2.83647e-05
1.77934e-05
7.59628e-06
-2.30511e-06
-1.19938e-05
-2.15525e-05
-3.10588e-05
-4.05853e-05
-5.01984e-05
-5.99528e-05
-6.98926e-05
-8.00516e-05
-9.04516e-05
-0.000101102
-0.000112001
-0.000123135
-0.000134483
-0.000146009
-0.000157671
-0.000169417
-0.000181188
-0.000192918
-0.000204532
-0.000215952
-0.000227091
-0.000237858
-0.000248159
-0.000257894
-0.00026696
-0.000275249
-0.000282651
-0.000289051
-0.000294336
-0.000298386
-0.00030108
-0.000302295
-0.000301909
-0.000299796
-0.000295833
-0.000289897
-0.000281868
-0.000271629
-0.000259067
-0.000244078
-0.000226565
-0.000206449
-0.000183662
-0.000158156
-0.000129903
-9.89027e-05
-6.51859e-05
-2.8815e-05
1.01101e-05
5.14491e-05
9.50172e-05
0.000140581
0.000187854
0.00023652
0.000286184
0.000336419
0.000386745
0.000436638
0.000485534
0.000532831
0.000577903
0.0006201
0.000658766
0.00069324
0.000722877
0.000747051
0.000765173
0.000776701
0.000781153
0.00077812
0.000767273
0.000748376
0.00072129
0.00068598
0.00064252
0.000591089
0.000531977
0.000465573
0.000392367
0.000312935
0.000227932
0.000138078
4.4145e-05
-5.30588e-05
-0.000152705
-0.00025396
-0.000355998
-0.000458019
-0.000559258
-0.000659001
-0.000756588
-0.000851429
-0.000943002
-0.00103086
-0.00111464
-0.00119404
-0.00126884
-0.00133889
-0.0014041
-0.00146444
-0.00151992
-0.00157061
-0.0016166
-0.00165801
-0.00169496
-0.00172761
-0.00175607
-0.00178049
-0.00180097
-0.00181758
-0.00183038
-0.00183936
-0.00184448
-0.00184563
-0.00184262
-0.00183536
-0.00182378
-0.00180556
-0.00177679
0.000121927
0.000101827
8.59574e-05
7.20717e-05
5.89043e-05
4.65262e-05
3.49221e-05
2.39722e-05
1.35563e-05
3.55754e-06
-6.13942e-06
-1.56445e-05
-2.50614e-05
-3.44852e-05
-4.39983e-05
-5.36701e-05
-6.35576e-05
-7.37044e-05
-8.41392e-05
-9.48778e-05
-0.000105924
-0.000117269
-0.000128893
-0.000140763
-0.00015284
-0.000165075
-0.000177411
-0.000189783
-0.00020212
-0.000214345
-0.000226374
-0.000238119
-0.000249488
-0.000260385
-0.000270708
-0.000280353
-0.000289209
-0.000297168
-0.000304114
-0.000309928
-0.000314489
-0.000317674
-0.000319356
-0.000319407
-0.000317696
-0.000314096
-0.000308476
-0.000300709
-0.00029067
-0.000278239
-0.000263306
-0.000245771
-0.000225548
-0.000202568
-0.000176782
-0.000148167
-0.000116729
-8.25063e-05
-4.55764e-05
-6.05725e-06
3.5888e-05
8.00478e-05
0.000126158
0.000173902
0.000222914
0.000272772
0.000323004
0.000373088
0.000422457
0.000470505
0.000516593
0.000560058
0.000600222
0.000636402
0.000667923
0.000694128
0.000714392
0.000728136
0.000734839
0.000734051
0.000725404
0.000708623
0.000683534
0.000650066
0.000608266
0.000558288
0.000500403
0.000434989
0.000362527
0.000283596
0.000198859
0.00010905
1.49594e-05
-8.25799e-05
-0.00018271
-0.000284566
-0.000387288
-0.000490042
-0.000592029
-0.000692501
-0.000790771
-0.000886219
-0.000978303
-0.00106656
-0.00115061
-0.00123014
-0.00130495
-0.00137487
-0.00143982
-0.00149979
-0.00155481
-0.00160496
-0.00165035
-0.00169111
-0.0017274
-0.00175938
-0.00178721
-0.00181102
-0.00183094
-0.00184706
-0.00185941
-0.00186801
-0.00187281
-0.00187367
-0.00187039
-0.00186287
-0.00185104
-0.00183252
-0.00180339
0.000136066
0.00011311
9.52823e-05
7.99662e-05
6.56675e-05
5.24336e-05
4.02179e-05
2.88548e-05
1.81809e-05
8.043e-06
-1.70606e-06
-1.1206e-05
-2.05863e-05
-2.99623e-05
-3.94335e-05
-4.90848e-05
-5.8986e-05
-6.91897e-05
-7.97329e-05
-9.0639e-05
-0.000101918
-0.000113563
-0.00012556
-0.00013788
-0.000150487
-0.000163335
-0.00017637
-0.000189531
-0.00020275
-0.000215953
-0.00022906
-0.000241989
-0.000254649
-0.000266949
-0.00027879
-0.00029007
-0.000300685
-0.000310527
-0.000319482
-0.000327432
-0.000334257
-0.000339831
-0.000344026
-0.000346708
-0.000347743
-0.000346992
-0.000344318
-0.00033958
-0.000332638
-0.000323357
-0.000311607
-0.000297269
-0.000280233
-0.000260406
-0.000237712
-0.0002121
-0.000183549
-0.000152069
-0.000117706
-8.05504e-05
-4.07377e-05
1.54872e-06
4.60725e-05
9.25242e-05
0.000140579
0.000189819
0.000239786
0.000289967
0.000339797
0.000388668
0.000435934
0.000480916
0.000522917
0.00056123
0.000595148
0.000623978
0.000647054
0.000663754
0.000673508
0.000675818
0.000670265
0.000656524
0.000634372
0.000603694
0.000564492
0.000516887
0.000461116
0.000397535
0.000326611
0.000248913
0.000165106
7.59303e-05
-1.78053e-05
-0.000115246
-0.000215507
-0.000317687
-0.000420891
-0.000524246
-0.000626913
-0.000728106
-0.000827099
-0.00092324
-0.00101596
-0.00110476
-0.00118925
-0.00126911
-0.00134411
-0.0014141
-0.00147899
-0.00153879
-0.00159352
-0.00164329
-0.00168822
-0.00172848
-0.00176423
-0.00179566
-0.00182294
-0.00184623
-0.00186566
-0.00188133
-0.00189331
-0.00190159
-0.00190611
-0.00190676
-0.00190332
-0.00189568
-0.00188374
-0.00186516
-0.00183599
0.000148695
0.000122856
0.00010305
8.62882e-05
7.08407e-05
5.67336e-05
4.38862e-05
3.20847e-05
2.11238e-05
1.0814e-05
9.74213e-07
-8.56543e-06
-1.79579e-05
-2.73389e-05
-3.68267e-05
-4.65214e-05
-5.6504e-05
-6.68372e-05
-7.75678e-05
-8.8726e-05
-0.000100327
-0.00011237
-0.000124845
-0.000137729
-0.00015099
-0.000164586
-0.000178468
-0.000192579
-0.000206856
-0.000221229
-0.000235626
-0.000249967
-0.00026417
-0.000278144
-0.0002918
-0.00030504
-0.000317764
-0.000329866
-0.000341238
-0.000351763
-0.000361321
-0.000369788
-0.00037703
-0.000382913
-0.000387295
-0.00039003
-0.000390967
-0.000389953
-0.000386833
-0.000381453
-0.000373662
-0.000363316
-0.000350279
-0.000334428
-0.000315656
-0.000293879
-0.00026904
-0.000241114
-0.000210111
-0.000176084
-0.000139132
-9.94033e-05
-5.71036e-05
-1.25095e-05
3.41002e-05
8.231e-05
0.000131687
0.000181737
0.000231903
0.000281581
0.00033012
0.000376832
0.000421002
0.000461897
0.000498777
0.000530909
0.000557582
0.000578121
0.000591901
0.000598362
0.000597022
0.000587493
0.000569487
0.00054283
0.000507464
0.000463457
0.000411002
0.000350414
0.000282133
0.000206708
0.000124792
3.71277e-05
-5.54687e-05
-0.000152123
-0.000251923
-0.000353935
-0.000457226
-0.000560877
-0.000664006
-0.00076578
-0.000865429
-0.000962258
-0.00105566
-0.0011451
-0.00123017
-0.00131051
-0.00138588
-0.00145613
-0.00152116
-0.00158098
-0.00163562
-0.0016852
-0.00172986
-0.00176978
-0.00180514
-0.00183616
-0.00186301
-0.00188589
-0.00190493
-0.00192026
-0.00193194
-0.00193998
-0.00194434
-0.00194488
-0.00194139
-0.00193374
-0.00192187
-0.00190343
-0.00187452
0.000159373
0.000130632
0.000108838
9.0622e-05
7.40197e-05
5.90316e-05
4.55403e-05
3.32846e-05
2.20165e-05
1.15075e-05
1.54215e-06
-8.07728e-06
-1.75277e-05
-2.69667e-05
-3.65303e-05
-4.63324e-05
-5.64664e-05
-6.70061e-05
-7.8007e-05
-8.95063e-05
-0.000101525
-0.000114071
-0.000127138
-0.00014071
-0.00015476
-0.000169252
-0.000184143
-0.000199382
-0.000214913
-0.000230672
-0.000246595
-0.000262609
-0.000278638
-0.000294602
-0.000310414
-0.000325988
-0.000341229
-0.000356036
-0.000370306
-0.000383928
-0.000396782
-0.000408745
-0.000419684
-0.00042946
-0.000437927
-0.000444928
-0.000450302
-0.000453882
-0.000455495
-0.000454965
-0.000452118
-0.000446781
-0.000438786
-0.000427977
-0.000414208
-0.000397356
-0.000377319
-0.000354028
-0.000327448
-0.000297584
-0.000264487
-0.000228261
-0.000189061
-0.000147102
-0.000102692
-5.61424e-05
-7.8711e-06
4.16497e-05
9.1884e-05
0.000142237
0.000192062
0.000240665
0.000287317
0.000331258
0.000371718
0.000407919
0.0004391
0.000464524
0.0004835
0.000495395
0.000499649
0.000495793
0.000483459
0.00046239
0.000432451
0.000393638
0.000346076
0.000290024
0.000225873
0.000154136
7.54414e-05
-9.48169e-06
-9.98166e-05
-0.000194679
-0.000293133
-0.000394214
-0.000496949
-0.000600373
-0.000703552
-0.000805601
-0.000905696
-0.00100309
-0.00109713
-0.00118723
-0.00127294
-0.00135389
-0.00142979
-0.00150047
-0.00156584
-0.00162588
-0.00168064
-0.00173024
-0.00177484
-0.00181461
-0.00184977
-0.00188055
-0.00190714
-0.00192975
-0.00194855
-0.00196366
-0.00197517
-0.00198309
-0.00198739
-0.00198793
-0.00198452
-0.00197702
-0.00196536
-0.00194725
-0.00191886
0.000167656
0.000135999
0.000112212
9.25423e-05
7.47864e-05
5.89159e-05
4.47767e-05
3.20585e-05
2.04675e-05
9.73544e-06
-3.85379e-07
-1.01212e-05
-1.96747e-05
-2.92243e-05
-3.89225e-05
-4.88977e-05
-5.92563e-05
-7.0083e-05
-8.14412e-05
-9.33761e-05
-0.000105917
-0.000119078
-0.00013286
-0.000147255
-0.000162243
-0.000177795
-0.000193875
-0.00021044
-0.000227444
-0.000244833
-0.00026255
-0.000280534
-0.000298718
-0.000317031
-0.000335399
-0.000353745
-0.000371981
-0.000390018
-0.000407758
-0.000425098
-0.000441923
-0.000458112
-0.000473534
-0.000488048
-0.000501502
-0.000513732
-0.000524564
-0.000533817
-0.000541298
-0.000546809
-0.000550145
-0.000551102
-0.000549476
-0.000545067
-0.000537687
-0.00052716
-0.000513334
-0.000496084
-0.000475315
-0.000450973
-0.000423048
-0.000391582
-0.000356671
-0.000318474
-0.000277242
-0.000233224
-0.000186806
-0.000138417
-8.85607e-05
-3.78097e-05
1.32015e-05
6.37814e-05
0.00011319
0.000160649
0.000205352
0.000246478
0.000283208
0.000314738
0.000340297
0.000359164
0.000370688
0.000374297
0.00036952
0.000355997
0.000333491
0.000301899
0.000261254
0.000211735
0.000153659
8.74816e-05
1.37844e-05
-6.67328e-05
-0.000153269
-0.000244939
-0.000340794
-0.000439841
-0.000541067
-0.000643461
-0.000746032
-0.000847834
-0.000947982
-0.00104567
-0.00114016
-0.00123085
-0.0013172
-0.00139881
-0.00147535
-0.00154663
-0.00161252
-0.00167299
-0.0017281
-0.00177795
-0.0018227
-0.00186256
-0.00189774
-0.00192848
-0.00195501
-0.00197754
-0.00199626
-0.00201132
-0.00202281
-0.00203076
-0.00203514
-0.00203583
-0.00203264
-0.00202543
-0.00201414
-0.00199652
-0.00196886
0.00017309
0.00013851
0.00011273
9.1612e-05
7.27078e-05
5.59601e-05
4.11752e-05
2.79897e-05
1.60632e-05
5.08938e-06
-5.21364e-06
-1.51021e-05
-2.48032e-05
-3.45152e-05
-4.44077e-05
-5.46244e-05
-6.52843e-05
-7.64816e-05
-8.82892e-05
-0.000100761
-0.000113935
-0.000127833
-0.000142466
-0.000157832
-0.000173921
-0.000190714
-0.000208183
-0.000226299
-0.000245025
-0.00026432
-0.000284139
-0.000304433
-0.00032515
-0.000346234
-0.000367624
-0.000389254
-0.000411052
-0.00043294
-0.000454834
-0.000476636
-0.000498243
-0.000519539
-0.000540397
-0.000560676
-0.000580219
-0.000598857
-0.000616404
-0.000632663
-0.000647419
-0.000660446
-0.00067151
-0.000680368
-0.000686772
-0.000690473
-0.000691226
-0.000688797
-0.000682968
-0.000673543
-0.000660357
-0.000643278
-0.000622219
-0.000597142
-0.000568067
-0.000535076
-0.000498333
-0.00045804
-0.000414505
-0.000368099
-0.000319284
-0.000268595
-0.000216642
-0.000164104
-0.000111722
-6.02915e-05
-1.06497e-05
3.63366e-05
7.97859e-05
0.000118818
0.000152573
0.000180227
0.000201014
0.000214242
0.000219313
0.000215734
0.000203138
0.000181292
0.000150109
0.000109652
6.01367e-05
1.93025e-06
-6.44571e-05
-0.00013838
-0.000219073
-0.000305668
-0.000397214
-0.000492699
-0.000591075
-0.000691282
-0.000792271
-0.000893029
-0.000992595
-0.00109008
-0.0011847
-0.00127575
-0.00136263
-0.00144488
-0.00152212
-0.00159411
-0.00166068
-0.0017218
-0.00177748
-0.00182782
-0.00187299
-0.00191318
-0.00194863
-0.00197958
-0.00200628
-0.00202896
-0.00204782
-0.00206302
-0.00207467
-0.00208283
-0.00208746
-0.00208846
-0.00208563
-0.00207887
-0.00206809
-0.00205112
-0.00202438
0.000175214
0.000137705
0.000109937
8.73801e-05
6.73394e-05
4.97244e-05
3.4298e-05
2.06429e-05
8.37266e-06
-2.85953e-06
-1.33711e-05
-2.34477e-05
-3.33403e-05
-4.32674e-05
-5.34167e-05
-6.39464e-05
-7.49869e-05
-8.66431e-05
-9.89981e-05
-0.000112116
-0.000126043
-0.000140812
-0.000156443
-0.000172944
-0.000190316
-0.000208552
-0.000227638
-0.000247557
-0.000268289
-0.000289806
-0.00031208
-0.000335081
-0.000358773
-0.000383118
-0.000408075
-0.000433595
-0.000459625
-0.000486105
-0.000512963
-0.00054012
-0.000567483
-0.000594948
-0.000622395
-0.000649683
-0.000676657
-0.00070314
-0.000728938
-0.000753833
-0.00077759
-0.000799952
-0.000820647
-0.000839388
-0.000855876
-0.000869801
-0.000880852
-0.000888721
-0.000893112
-0.000893741
-0.000890351
-0.000882716
-0.000870651
-0.000854017
-0.000832735
-0.000806784
-0.000776214
-0.000741209
-0.000701907
-0.000658631
-0.000611782
-0.000561837
-0.000509369
-0.000455029
-0.000399552
-0.000343739
-0.000288456
-0.000234615
-0.000183161
-0.000135059
-9.12715e-05
-5.27382e-05
-2.03589e-05
5.02926e-06
2.2672e-05
3.19158e-05
3.22277e-05
2.32113e-05
4.6188e-06
-2.3638e-05
-6.14832e-05
-0.000108675
-0.000164808
-0.000229325
-0.000301523
-0.000380574
-0.000465543
-0.000555414
-0.000649114
-0.000745535
-0.00084357
-0.000942129
-0.00104017
-0.00113672
-0.00123089
-0.00132189
-0.00140904
-0.0014918
-0.00156971
-0.00164247
-0.00170986
-0.0017718
-0.00182827
-0.00187936
-0.00192521
-0.00196602
-0.00200202
-0.00203347
-0.00206061
-0.0020837
-0.00210295
-0.00211853
-0.00213057
-0.00213913
-0.0021442
-0.00214569
-0.0021434
-0.00213724
-0.00212711
-0.00211093
-0.00208527
0.000173555
0.000133117
0.000103369
7.93864e-05
5.82239e-05
3.97528e-05
2.36913e-05
9.56792e-06
-3.05296e-06
-1.45603e-05
-2.53068e-05
-3.56066e-05
-4.57355e-05
-5.59332e-05
-6.64046e-05
-7.73214e-05
-8.88262e-05
-0.000101036
-0.000114044
-0.000127926
-0.000142738
-0.000158524
-0.000175315
-0.000193133
-0.000211992
-0.0002319