/*--------------------------------*- C++ -*----------------------------------*\
| =========                 |                                                 |
| \\      /  F ield         | OpenFOAM: The Open Source CFD Toolbox           |
|  \\    /   O peration     | Version:  2112                                  |
|   \\  /    A nd           | Website:  www.openfoam.com                      |
|    \\/     M anipulation  |                                                 |
\*---------------------------------------------------------------------------*/
FoamFile
{
    version     2.0;
    format      ascii;
    arch        "LSB;label=32;scalar=64";
    class       surfaceScalarField;
    location    "1.2";
    object      phi;
}
// * * * * * * * * * * * * * * * * * * * * * * * * * * * * * * * * * * * * * //

dimensions      [0 3 -1 0 0 0 0];

oriented        oriented;

internalField   nonuniform List<scalar> 
33024
(
4.80159e-11
-4.78703e-11
1.44483e-10
-9.64719e-11
2.36391e-10
-9.19004e-11
2.92821e-10
-5.64348e-11
2.99293e-10
-6.47277e-12
2.50768e-10
4.85261e-11
1.47964e-10
1.02806e-10
-5.3914e-12
1.53352e-10
-2.03959e-10
1.98576e-10
-4.42045e-10
2.38083e-10
-7.13852e-10
2.71807e-10
-1.01399e-09
3.00131e-10
-1.33763e-09
3.23645e-10
-1.68067e-09
3.43042e-10
-2.0397e-09
3.59036e-10
-2.41205e-09
3.72345e-10
-2.79568e-09
3.83636e-10
-3.18919e-09
3.93509e-10
-3.59169e-09
4.02496e-10
-4.00274e-09
4.1105e-10
-4.42228e-09
4.19537e-10
-4.85054e-09
4.28262e-10
-5.288e-09
4.37458e-10
-5.73529e-09
4.47292e-10
-6.19317e-09
4.57877e-10
-6.66245e-09
4.69283e-10
-7.14397e-09
4.81528e-10
-7.63858e-09
4.94603e-10
-8.14705e-09
5.08469e-10
-8.6701e-09
5.23054e-10
-9.20837e-09
5.38261e-10
-9.76234e-09
5.53971e-10
-1.03324e-08
5.70046e-10
-1.09187e-08
5.86329e-10
-1.15213e-08
6.02641e-10
-1.21401e-08
6.18782e-10
-1.27747e-08
6.34534e-10
-1.34243e-08
6.49661e-10
-1.40882e-08
6.6391e-10
-1.47652e-08
6.77007e-10
-1.54539e-08
6.8866e-10
-1.61525e-08
6.98562e-10
-1.68589e-08
7.06393e-10
-1.75707e-08
7.11818e-10
-1.82852e-08
7.14491e-10
-1.89992e-08
7.14059e-10
-1.97094e-08
7.10165e-10
-2.04118e-08
7.02453e-10
-2.11024e-08
6.90569e-10
-2.17766e-08
6.74168e-10
-2.24295e-08
6.52921e-10
-2.3056e-08
6.26522e-10
-2.36507e-08
5.94692e-10
-2.42079e-08
5.57185e-10
-2.47217e-08
5.13793e-10
-2.51861e-08
4.64361e-10
-2.55949e-08
4.08795e-10
-2.59419e-08
3.47062e-10
-2.62211e-08
2.792e-10
-2.64264e-08
2.05323e-10
-2.65521e-08
1.25636e-10
-2.65925e-08
4.04315e-11
-2.65426e-08
-4.99175e-11
-2.63977e-08
-1.44921e-10
-2.61537e-08
-2.43999e-10
-2.58072e-08
-3.46477e-10
-2.53556e-08
-4.51586e-10
-2.47971e-08
-5.58468e-10
-2.4131e-08
-6.66183e-10
-2.33573e-08
-7.73714e-10
-2.24773e-08
-8.79986e-10
-2.14934e-08
-9.83878e-10
-2.04092e-08
-1.08424e-09
-1.92293e-08
-1.1799e-09
-1.79596e-08
-1.2697e-09
-1.6607e-08
-1.35252e-09
-1.51798e-08
-1.42726e-09
-1.36869e-08
-1.4929e-09
-1.21383e-08
-1.54854e-09
-1.0545e-08
-1.59334e-09
-8.91838e-09
-1.62662e-09
-7.27054e-09
-1.64784e-09
-5.61392e-09
-1.65662e-09
-3.96119e-09
-1.65273e-09
-2.32503e-09
-1.63616e-09
-7.17996e-10
-1.60703e-09
8.47676e-10
-1.56567e-09
2.36026e-09
-1.51258e-09
3.80868e-09
-1.44842e-09
5.1827e-09
-1.37401e-09
6.47301e-09
-1.29031e-09
7.67137e-09
-1.19837e-09
8.77073e-09
-1.09936e-09
9.76523e-09
-9.94505e-10
1.06503e-08
-8.85094e-10
1.14227e-08
-7.72412e-10
1.20805e-08
-6.57746e-10
1.26228e-08
-5.42354e-10
1.30503e-08
-4.27438e-10
1.33644e-08
-3.14123e-10
1.35678e-08
-2.03443e-10
1.36642e-08
-9.63218e-11
1.36577e-08
6.43093e-12
1.35536e-08
1.04133e-10
1.33574e-08
1.96233e-10
1.30751e-08
2.82303e-10
1.2713e-08
3.62034e-10
1.22778e-08
4.35232e-10
1.1776e-08
5.01801e-10
1.12143e-08
5.61723e-10
1.05992e-08
6.1504e-10
9.93741e-09
6.6182e-10
9.23528e-09
7.02131e-10
8.49928e-09
7.36e-10
7.7359e-09
7.63372e-10
6.95185e-09
7.84055e-10
6.15418e-09
7.97667e-10
5.35061e-09
8.03573e-10
4.5498e-09
8.00809e-10
3.7618e-09
7.87999e-10
2.99853e-09
7.63273e-10
2.27434e-09
7.24187e-10
1.60667e-09
6.67671e-10
1.01658e-09
5.90093e-10
5.28906e-10
4.87676e-10
1.70992e-10
3.57914e-10
-3.21526e-11
2.03142e-10
-7.32675e-11
4.1111e-11
-7.32698e-11
9.66516e-11
-1.44526e-10
2.44426e-10
-2.44244e-10
3.5701e-10
-2.04486e-10
3.80072e-10
-7.94996e-11
2.82845e-10
9.07547e-11
5.20576e-11
2.79312e-10
-3.13714e-10
4.68564e-10
-8.0839e-10
6.4803e-10
-1.42154e-09
8.11718e-10
-2.1404e-09
9.56946e-10
-2.95167e-09
1.08308e-09
-3.84242e-09
1.19087e-09
-4.80073e-09
1.28196e-09
-5.81611e-09
1.35841e-09
-6.87964e-09
1.42257e-09
-7.98407e-09
1.47678e-09
-9.12375e-09
1.52331e-09
-1.02945e-08
1.56426e-09
-1.14935e-08
1.60149e-09
-1.27191e-08
1.63662e-09
-1.39705e-08
1.671e-09
-1.5248e-08
1.70575e-09
-1.65523e-08
1.74172e-09
-1.78846e-08
1.77957e-09
-1.92464e-08
1.81974e-09
-2.06397e-08
1.86252e-09
-2.20661e-08
1.90801e-09
-2.35277e-08
1.95619e-09
-2.50262e-08
2.00694e-09
-2.65632e-08
2.06e-09
-2.81399e-08
2.11503e-09
-2.97576e-08
2.17161e-09
-3.14167e-08
2.22921e-09
-3.31176e-08
2.28724e-09
-3.486e-08
2.34504e-09
-3.66431e-08
2.40187e-09
-3.84655e-08
2.45689e-09
-4.0325e-08
2.50922e-09
-4.2219e-08
2.55791e-09
-4.4144e-08
2.60193e-09
-4.60955e-08
2.64019e-09
-4.80685e-08
2.67154e-09
-5.00569e-08
2.69479e-09
-5.20538e-08
2.7087e-09
-5.40513e-08
2.712e-09
-5.60406e-08
2.7034e-09
-5.80121e-08
2.6816e-09
-5.99549e-08
2.64531e-09
-6.18576e-08
2.59327e-09
-6.37077e-08
2.52425e-09
-6.54919e-08
2.43712e-09
-6.71962e-08
2.33081e-09
-6.88059e-08
2.20436e-09
-7.03056e-08
2.05698e-09
-7.16799e-08
1.88801e-09
-7.29125e-08
1.69698e-09
-7.39874e-08
1.48367e-09
-7.48883e-08
1.24805e-09
-7.55996e-08
9.90408e-10
-7.61055e-08
7.11272e-10
-7.63914e-08
4.115e-10
-7.64432e-08
9.22781e-11
-7.62482e-08
-2.44943e-10
-7.57948e-08
-5.98304e-10
-7.50732e-08
-9.65613e-10
-7.40753e-08
-1.34438e-09
-7.27951e-08
-1.73178e-09
-7.12289e-08
-2.12469e-09
-6.93753e-08
-2.51973e-09
-6.72358e-08
-2.91326e-09
-6.48143e-08
-3.30147e-09
-6.21178e-08
-3.68039e-09
-5.91561e-08
-4.04596e-09
-5.59419e-08
-4.3941e-09
-5.24908e-08
-4.72076e-09
-4.88213e-08
-5.02199e-09
-4.49546e-08
-5.29403e-09
-4.09141e-08
-5.53336e-09
-3.67259e-08
-5.73676e-09
-3.24178e-08
-5.90141e-09
-2.80195e-08
-6.02492e-09
-2.3562e-08
-6.1054e-09
-1.90771e-08
-6.1415e-09
-1.45974e-08
-6.13244e-09
-1.01555e-08
-6.07806e-09
-5.78368e-09
-5.9788e-09
-1.51365e-09
-5.83571e-09
2.62421e-09
-5.65043e-09
6.60098e-09
-5.4252e-09
1.03897e-08
-5.16275e-09
1.39657e-08
-4.86631e-09
1.73069e-08
-4.53953e-09
2.03939e-08
-4.18638e-09
2.32105e-08
-3.81109e-09
2.57435e-08
-3.41809e-09
2.79829e-08
-3.01187e-09
2.99222e-08
-2.59697e-09
3.15576e-08
-2.17781e-09
3.28889e-08
-1.75867e-09
3.39183e-08
-1.3436e-09
3.46513e-08
-9.3636e-10
3.50953e-08
-5.40366e-10
3.52604e-08
-1.5864e-10
3.51583e-08
2.06199e-10
3.48026e-08
5.51966e-10
3.4208e-08
8.769e-10
3.33904e-08
1.17965e-09
3.23663e-08
1.45925e-09
3.11531e-08
1.71505e-09
2.97681e-08
1.94671e-09
2.82291e-08
2.15405e-09
2.65539e-08
2.33701e-09
2.47605e-08
2.49553e-09
2.28671e-08
2.62939e-09
2.08924e-08
2.7381e-09
1.88557e-08
2.82073e-09
1.67776e-08
2.87573e-09
1.46805e-08
2.90071e-09
1.25891e-08
2.89227e-09
1.05312e-08
2.84581e-09
8.53914e-09
2.75538e-09
6.64974e-09
2.61359e-09
4.90554e-09
2.41187e-09
3.35448e-09
2.14116e-09
2.04834e-09
1.79381e-09
1.0381e-09
1.36816e-09
3.64335e-10
8.76905e-10
4.10508e-11
3.64399e-10
-3.222e-11
9.42928e-11
-2.38812e-10
2.06835e-10
-3.56794e-10
2.38634e-10
-2.36283e-10
1.27282e-10
3.18573e-11
-1.63877e-10
3.81916e-10
-6.51759e-10
7.67188e-10
-1.33878e-09
1.15559e-09
-2.21739e-09
1.52664e-09
-3.27393e-09
1.86825e-09
-4.49129e-09
2.1743e-09
-5.85107e-09
2.44286e-09
-7.33502e-09
2.67483e-09
-8.92603e-09
2.87297e-09
-1.06088e-08
3.04114e-09
-1.237e-08
3.18378e-09
-1.41987e-08
3.30548e-09
-1.60861e-08
3.41077e-09
-1.80257e-08
3.50385e-09
-2.00127e-08
3.58852e-09
-2.20442e-08
3.66811e-09
-2.41187e-08
3.74546e-09
-2.62358e-08
3.82286e-09
-2.83963e-08
3.90218e-09
-3.06015e-08
3.98479e-09
-3.28534e-08
4.07168e-09
-3.51543e-08
4.16345e-09
-3.75067e-08
4.26039e-09
-3.9913e-08
4.36251e-09
-4.23756e-08
4.46951e-09
-4.48965e-08
4.58091e-09
-4.74775e-08
4.69599e-09
-5.01197e-08
4.81385e-09
-5.28239e-08
4.93338e-09
-5.559e-08
5.05333e-09
-5.84172e-08
5.17226e-09
-6.13039e-08
5.28857e-09
-6.42475e-08
5.4005e-09
-6.72444e-08
5.50613e-09
-7.02899e-08
5.6034e-09
-7.33781e-08
5.69012e-09
-7.65018e-08
5.76394e-09
-7.96527e-08
5.82241e-09
-8.28209e-08
5.863e-09
-8.59953e-08
5.88305e-09
-8.91631e-08
5.8799e-09
-9.23106e-08
5.85081e-09
-9.5422e-08
5.79306e-09
-9.84807e-08
5.70398e-09
-1.01468e-07
5.58095e-09
-1.04366e-07
5.42147e-09
-1.07152e-07
5.22321e-09
-1.09805e-07
4.98404e-09
-1.12303e-07
4.70208e-09
-1.14621e-07
4.37577e-09
-1.16737e-07
4.0039e-09
-1.18626e-07
3.58567e-09
-1.20263e-07
3.12076e-09
-1.21624e-07
2.60933e-09
-1.22686e-07
2.05214e-09
-1.23425e-07
1.45052e-09
-1.2382e-07
8.06421e-10
-1.23851e-07
1.2255e-10
-1.23497e-07
-5.98022e-10
-1.22745e-07
-1.35113e-09
-1.21578e-07
-2.13215e-09
-1.19987e-07
-2.93581e-09
-1.17962e-07
-3.75616e-09
-1.155e-07
-4.58668e-09
-1.126e-07
-5.42035e-09
-1.09263e-07
-6.24965e-09
-1.05498e-07
-7.06674e-09
-1.01315e-07
-7.8635e-09
-9.67293e-08
-8.63164e-09
-9.17605e-08
-9.36286e-09
-8.64323e-08
-1.00489e-08
-8.07724e-08
-1.06819e-08
-7.48124e-08
-1.12541e-08
-6.85873e-08
-1.17584e-08
-6.21357e-08
-1.21884e-08
-5.54989e-08
-1.25382e-08
-4.87207e-08
-1.28032e-08
-4.18468e-08
-1.29793e-08
-3.49244e-08
-1.30639e-08
-2.80016e-08
-1.30552e-08
-2.11267e-08
-1.29529e-08
-1.43477e-08
-1.27578e-08
-7.71171e-09
-1.24717e-08
-1.2642e-09
-1.20979e-08
4.95141e-09
-1.16408e-08
1.08943e-08
-1.11057e-08
1.6527e-08
-1.04989e-08
2.18153e-08
-9.82783e-09
2.67292e-08
-9.10026e-09
3.12428e-08
-8.32473e-09
3.53348e-08
-7.51013e-09
3.89886e-08
-6.6656e-09
4.21919e-08
-5.80033e-09
4.49375e-08
-4.9234e-09
4.72225e-08
-4.04365e-09
4.90484e-08
-3.16949e-09
5.04209e-08
-2.30881e-09
5.13493e-08
-1.46884e-09
5.18468e-08
-6.56071e-10
5.19292e-08
1.23789e-10
5.16153e-08
8.65883e-10
5.0926e-08
1.56618e-09
4.98842e-08
2.22146e-09
4.85141e-08
2.82928e-09
4.68413e-08
3.38786e-09
4.48921e-08
3.89596e-09
4.26934e-08
4.35277e-09
4.02727e-08
4.75768e-09
3.76581e-08
5.11007e-09
3.48784e-08
5.40909e-09
3.19632e-08
5.65334e-09
2.89434e-08
5.84058e-09
2.58517e-08
5.96741e-09
2.27235e-08
6.02891e-09
1.95974e-08
6.01834e-09
1.65164e-08
5.92684e-09
1.35284e-08
5.74335e-09
1.06873e-08
5.45473e-09
8.05269e-09
5.04645e-09
5.68959e-09
4.50427e-09
3.66549e-09
3.81791e-09
2.04528e-09
2.98836e-09
8.82279e-10
2.0399e-09
2.04721e-10
1.04196e-09
1.72499e-10
5.8669e-11
-2.97481e-10
7.65919e-11
-3.74722e-10
-4.39627e-11
-1.15727e-10
-3.64404e-10
3.523e-10
-9.20975e-10
9.38476e-10
-1.72962e-09
1.57584e-09
-2.79142e-09
2.21739e-09
-4.09684e-09
2.83206e-09
-5.62944e-09
3.40085e-09
-7.36879e-09
3.91365e-09
-9.29276e-09
4.36683e-09
-1.13792e-08
4.76127e-09
-1.36072e-08
5.10092e-09
-1.59576e-08
5.39161e-09
-1.8414e-08
5.64018e-09
-2.09625e-08
5.8539e-09
-2.35916e-08
6.03995e-09
-2.62929e-08
6.20509e-09
-2.90599e-08
6.35552e-09
-3.18884e-08
6.49668e-09
-3.47762e-08
6.63321e-09
-3.77223e-08
6.76899e-09
-4.07272e-08
6.90708e-09
-4.37923e-08
7.04985e-09
-4.69196e-08
7.19895e-09
-5.01116e-08
7.35547e-09
-5.33711e-08
7.51991e-09
-5.67009e-08
7.6923e-09
-6.01036e-08
7.87221e-09
-6.35815e-08
8.05883e-09
-6.71365e-08
8.25097e-09
-7.07697e-08
8.44709e-09
-7.44817e-08
8.64535e-09
-7.8272e-08
8.84359e-09
-8.21391e-08
9.03937e-09
-8.60804e-08
9.22995e-09
-9.00923e-08
9.41232e-09
-9.41693e-08
9.5832e-09
-9.8305e-08
9.73908e-09
-1.02491e-07
9.87619e-09
-1.06718e-07
9.99055e-09
-1.10973e-07
1.0078e-08
-1.15245e-07
1.01342e-08
-1.19516e-07
1.01547e-08
-1.23771e-07
1.0135e-08
-1.27991e-07
1.00705e-08
-1.32155e-07
9.95671e-09
-1.3624e-07
9.78911e-09
-1.40222e-07
9.56343e-09
-1.44076e-07
9.27557e-09
-1.47775e-07
8.92174e-09
-1.51289e-07
8.49854e-09
-1.5459e-07
8.003e-09
-1.57647e-07
7.43271e-09
-1.60429e-07
6.78587e-09
-1.62905e-07
6.06141e-09
-1.65043e-07
5.25904e-09
-1.66813e-07
4.37931e-09
-1.68185e-07
3.42374e-09
-1.69129e-07
2.39482e-09
-1.69619e-07
1.29609e-09
-1.69629e-07
1.32308e-10
-1.69135e-07
-1.09131e-09
-1.68119e-07
-2.36748e-09
-1.66563e-07
-3.68849e-09
-1.64453e-07
-5.04542e-09
-1.61781e-07
-6.42835e-09
-1.58541e-07
-7.82647e-09
-1.54733e-07
-9.22813e-09
-1.50362e-07
-1.0621e-08
-1.45436e-07
-1.19922e-08
-1.39971e-07
-1.33285e-08
-1.33987e-07
-1.46164e-08
-1.27507e-07
-1.58423e-08
-1.20563e-07
-1.6993e-08
-1.1319e-07
-1.80554e-08
-1.05426e-07
-1.90173e-08
-9.73176e-08
-1.98671e-08
-8.89117e-08
-2.05943e-08
-8.02603e-08
-2.11895e-08
-7.14185e-08
-2.1645e-08
-6.24435e-08
-2.19543e-08
-5.33945e-08
-2.21128e-08
-4.4332e-08
-2.21178e-08
-3.53166e-08
-2.19683e-08
-2.6409e-08
-2.16654e-08
-1.76688e-08
-2.12119e-08
-9.15381e-09
-2.06129e-08
-9.19613e-10
-1.9875e-08
6.9814e-09
-1.90067e-08
1.45004e-08
-1.8018e-08
2.1593e-08
-1.69204e-08
2.82192e-08
-1.57265e-08
3.43444e-08
-1.44499e-08
3.99393e-08
-1.3105e-08
4.49801e-08
-1.17065e-08
4.94491e-08
-1.02693e-08
5.33341e-08
-8.80837e-09
5.66286e-08
-7.33822e-09
5.9332e-08
-5.87281e-09
6.14485e-08
-4.42532e-09
6.29876e-08
-3.00795e-09
6.39633e-08
-1.63178e-09
6.43938e-08
-3.0668e-10
6.43008e-08
9.58814e-10
6.37095e-08
2.15747e-09
6.26477e-08
3.28334e-09
6.11453e-08
4.3317e-09
5.92342e-08
5.29891e-09
5.69479e-08
6.18225e-09
5.4321e-08
6.97963e-09
5.13894e-08
7.68937e-09
4.81896e-08
8.30981e-09
4.47598e-08
8.83894e-09
4.11391e-08
9.274e-09
3.73687e-08
9.61095e-09
3.34921e-08
9.84404e-09
2.95557e-08
9.96531e-09
2.56098e-08
9.96418e-09
2.17095e-08
9.82716e-09
1.79151e-08
9.53781e-09
1.42926e-08
9.07715e-09
1.09142e-08
8.4249e-09
7.85642e-09
7.56204e-09
5.19849e-09
6.47584e-09
3.01821e-09
5.16864e-09
1.38672e-09
3.67138e-09
3.63622e-10
2.06506e-09
5.36121e-10
4.56618e-12
-3.02043e-10
-1.13186e-10
-2.5697e-10
-4.3866e-10
2.09751e-10
-1.02578e-09
9.39409e-10
-1.90481e-09
1.81751e-09
-3.08746e-09
2.75849e-09
-4.57124e-09
3.70116e-09
-6.34343e-09
4.60425e-09
-8.3845e-09
5.44192e-09
-1.0671e-08
6.2001e-09
-1.31776e-08
6.87344e-09
-1.58791e-08
7.46284e-09
-1.87517e-08
7.97352e-09
-2.17736e-08
8.41343e-09
-2.49255e-08
8.79211e-09
-2.81913e-08
9.11973e-09
-3.15578e-08
9.40644e-09
-3.50147e-08
9.66193e-09
-3.85542e-08
9.89504e-09
-4.21712e-08
1.01137e-08
-4.58625e-08
1.03245e-08
-4.96268e-08
1.05333e-08
-5.34642e-08
1.07445e-08
-5.73759e-08
1.09616e-08
-6.1364e-08
1.11871e-08
-6.54311e-08
1.14226e-08
-6.95801e-08
1.16689e-08
-7.3814e-08
1.19262e-08
-7.81356e-08
1.21938e-08
-8.25472e-08
1.24704e-08
-8.70507e-08
1.27545e-08
-9.16471e-08
1.30436e-08
-9.63368e-08
1.3335e-08
-1.01119e-07
1.36255e-08
-1.05991e-07
1.39113e-08
-1.10949e-07
1.41885e-08
-1.15989e-07
1.44523e-08
-1.21104e-07
1.4698e-08
-1.26285e-07
1.49201e-08
-1.31522e-07
1.5113e-08
-1.36802e-07
1.52707e-08
-1.42111e-07
1.5387e-08
-1.47432e-07
1.54554e-08
-1.52747e-07
1.54692e-08
-1.58033e-07
1.54216e-08
-1.63269e-07
1.5306e-08
-1.68428e-07
1.51157e-08
-1.73483e-07
1.4844e-08
-1.78404e-07
1.44847e-08
-1.8316e-07
1.4032e-08
-1.87719e-07
1.34803e-08
-1.92045e-07
1.28248e-08
-1.96103e-07
1.20614e-08
-1.99857e-07
1.11867e-08
-2.0327e-07
1.01986e-08
-2.06304e-07
9.09554e-09
-2.08923e-07
7.8776e-09
-2.11089e-07
6.54592e-09
-2.12769e-07
5.10307e-09
-2.13927e-07
3.55306e-09
-2.14532e-07
1.9014e-09
-2.14555e-07
1.55402e-10
-2.1397e-07
-1.67698e-09
-2.12752e-07
-3.58488e-09
-2.10884e-07
-5.55679e-09
-2.0835e-07
-7.57951e-09
-2.0514e-07
-9.63846e-09
-2.01249e-07
-1.17178e-08
-1.96676e-07
-1.38005e-08
-1.91428e-07
-1.58688e-08
-1.85517e-07
-1.79039e-08
-1.78959e-07
-1.98867e-08
-1.71777e-07
-2.17977e-08
-1.64002e-07
-2.36174e-08
-1.55668e-07
-2.53268e-08
-1.46817e-07
-2.69072e-08
-1.37493e-07
-2.83408e-08
-1.27749e-07
-2.9611e-08
-1.17641e-07
-3.07028e-08
-1.07228e-07
-3.16026e-08
-9.65736e-08
-3.2299e-08
-8.57451e-08
-3.27828e-08
-7.48109e-08
-3.30471e-08
-6.38412e-08
-3.30875e-08
-5.29071e-08
-3.29025e-08
-4.20794e-08
-3.2493e-08
-3.14283e-08
-3.18631e-08
-2.1022e-08
-3.10192e-08
-1.09265e-08
-2.99705e-08
-1.20444e-09
-2.87288e-08
8.08552e-09
-2.7308e-08
1.68892e-08
-2.57241e-08
2.51578e-08
-2.3995e-08
3.28479e-08
-2.21401e-08
3.99225e-08
-2.01795e-08
4.63507e-08
-1.81346e-08
5.21083e-08
-1.60269e-08
5.71777e-08
-1.38778e-08
6.15482e-08
-1.17087e-08
6.52152e-08
-9.53983e-09
6.81807e-08
-7.39086e-09
7.04527e-08
-5.27992e-09
7.20446e-08
-3.2237e-09
7.29751e-08
-1.23721e-09
7.32676e-08
6.66334e-10
7.29495e-08
2.47556e-09
7.20519e-08
4.18093e-09
7.0609e-08
5.77459e-09
6.86577e-08
7.25028e-09
6.62369e-08
8.60303e-09
6.33877e-08
9.82886e-09
6.01526e-08
1.09244e-08
5.65761e-08
1.18864e-08
5.27038e-08
1.27112e-08
4.85837e-08
1.33941e-08
4.42657e-08
1.3929e-08
3.98023e-08
1.43074e-08
3.52496e-08
1.4518e-08
3.06675e-08
1.45462e-08
2.61209e-08
1.43738e-08
2.16797e-08
1.3979e-08
1.74198e-08
1.33371e-08
1.34225e-08
1.24222e-08
9.77409e-09
1.12104e-08
6.56475e-09
9.68518e-09
3.8866e-09
7.8468e-09
1.83287e-09
5.72511e-09
4.99807e-10
3.39812e-09
1.03593e-09
-6.01522e-11
-2.41888e-10
-3.41016e-10
2.38924e-11
-9.0946e-10
7.78183e-10
-1.80666e-09
1.83661e-09
-3.0533e-09
3.06416e-09
-4.6538e-09
4.35899e-09
-6.60001e-09
5.64737e-09
-8.87468e-09
6.87891e-09
-1.14545e-08
8.02174e-09
-1.43127e-08
9.05828e-09
-1.74211e-08
9.98183e-09
-2.07518e-08
1.07936e-08
-2.42785e-08
1.15002e-08
-2.79772e-08
1.21121e-08
-3.18267e-08
1.26417e-08
-3.58092e-08
1.31022e-08
-3.99099e-08
1.35072e-08
-4.41173e-08
1.38693e-08
-4.84226e-08
1.42004e-08
-5.28199e-08
1.45109e-08
-5.73054e-08
1.481e-08
-6.18774e-08
1.51053e-08
-6.65357e-08
1.54028e-08
-7.12815e-08
1.57074e-08
-7.61168e-08
1.60224e-08
-8.10444e-08
1.63502e-08
-8.60673e-08
1.66918e-08
-9.11885e-08
1.70474e-08
-9.64109e-08
1.74162e-08
-1.01737e-07
1.77966e-08
-1.07169e-07
1.81862e-08
-1.12707e-07
1.85818e-08
-1.18352e-07
1.89796e-08
-1.24101e-07
1.93751e-08
-1.29953e-07
1.97632e-08
-1.35903e-07
2.01382e-08
-1.41944e-07
2.04936e-08
-1.48069e-07
2.08226e-08
-1.54266e-07
2.11178e-08
-1.60525e-07
2.13713e-08
-1.66829e-07
2.15748e-08
-1.73161e-07
2.17195e-08
-1.79502e-07
2.17965e-08
-1.8583e-07
2.17966e-08
-1.92119e-07
2.17105e-08
-1.98342e-07
2.1529e-08
-2.04469e-07
2.12429e-08
-2.10468e-07
2.08433e-08
-2.16305e-07
2.03218e-08
-2.21944e-07
1.96704e-08
-2.27345e-07
1.88819e-08
-2.3247e-07
1.79498e-08
-2.37278e-07
1.68689e-08
-2.41726e-07
1.5635e-08
-2.45773e-07
1.42452e-08
-2.49375e-07
1.26981e-08
-2.52492e-07
1.09941e-08
-2.55081e-07
9.13518e-09
-2.57103e-07
7.12518e-09
-2.5852e-07
4.96998e-09
-2.59296e-07
2.67744e-09
-2.59398e-07
2.57724e-10
-2.58798e-07
-2.27781e-09
-2.57468e-07
-4.91444e-09
-2.55389e-07
-7.63631e-09
-2.52543e-07
-1.04254e-08
-2.48919e-07
-1.3262e-08
-2.44512e-07
-1.61245e-08
-2.39323e-07
-1.89903e-08
-2.33356e-07
-2.1835e-08
-2.26626e-07
-2.46339e-08
-2.19152e-07
-2.73611e-08
-2.10959e-07
-2.99908e-08
-2.02079e-07
-3.24969e-08
-1.92552e-07
-3.48537e-08
-1.82423e-07
-3.70366e-08
-1.71742e-07
-3.90217e-08
-1.60566e-07
-4.07869e-08
-1.48957e-07
-4.23118e-08
-1.36981e-07
-4.35784e-08
-1.24709e-07
-4.4571e-08
-1.12215e-07
-4.52771e-08
-9.9575e-08
-4.56871e-08
-8.68678e-08
-4.57947e-08
-7.4173e-08
-4.55973e-08
-6.15703e-08
-4.50957e-08
-4.9139e-08
-4.42944e-08
-3.69567e-08
-4.32015e-08
-2.50987e-08
-4.18285e-08
-1.36369e-08
-4.01905e-08
-2.63945e-09
-3.83054e-08
7.83053e-09
-3.61941e-08
1.77152e-08
-3.38798e-08
2.6963e-08
-3.13878e-08
3.55285e-08
-2.87451e-08
4.33736e-08
-2.59798e-08
5.04673e-08
-2.31206e-08
5.67858e-08
-2.01964e-08
6.23131e-08
-1.72359e-08
6.70401e-08
-1.42669e-08
7.09653e-08
-1.13161e-08
7.4094e-08
-8.40855e-09
7.64378e-08
-5.56756e-09
7.80148e-08
-2.81421e-09
7.88485e-08
-1.67328e-10
7.89674e-08
2.35665e-09
7.84047e-08
4.74365e-09
7.71974e-08
6.98187e-09
7.53861e-08
9.06159e-09
7.30143e-08
1.09748e-08
7.01281e-08
1.27151e-08
6.6776e-08
1.42765e-08
6.30085e-08
1.56538e-08
5.88786e-08
1.68411e-08
5.44412e-08
1.78315e-08
4.97539e-08
1.86163e-08
4.48774e-08
1.9184e-08
3.98756e-08
1.95198e-08
3.48167e-08
1.96051e-08
2.97735e-08
1.9417e-08
2.48242e-08
1.89283e-08
2.00525e-08
1.81088e-08
1.55481e-08
1.69267e-08
1.14064e-08
1.53521e-08
7.72872e-09
1.33628e-08
4.62307e-09
1.09525e-08
2.20624e-09
8.14194e-09
6.10271e-10
4.99409e-09
1.6462e-09
-1.30924e-10
-1.10961e-10
-5.93008e-10
4.85967e-10
-1.43164e-09
1.61682e-09
-2.6716e-09
3.07657e-09
-4.32113e-09
4.7137e-09
-6.37498e-09
6.41284e-09
-8.81749e-09
8.08988e-09
-1.16255e-08
9.68695e-09
-1.47711e-08
1.11673e-08
-1.82238e-08
1.25109e-08
-2.19523e-08
1.37103e-08
-2.59262e-08
1.47674e-08
-3.01169e-08
1.5691e-08
-3.44987e-08
1.64939e-08
-3.9049e-08
1.71919e-08
-4.37484e-08
1.78016e-08
-4.85811e-08
1.83399e-08
-5.35347e-08
1.88229e-08
-5.85999e-08
1.92655e-08
-6.377e-08
1.96811e-08
-6.90411e-08
2.00811e-08
-7.4411e-08
2.04752e-08
-7.98797e-08
2.08715e-08
-8.54483e-08
2.12759e-08
-9.11189e-08
2.1693e-08
-9.68943e-08
2.21256e-08
-1.02778e-07
2.25753e-08
-1.08773e-07
2.30423e-08
-1.14882e-07
2.35256e-08
-1.21109e-07
2.4023e-08
-1.27454e-07
2.45316e-08
-1.33919e-07
2.50471e-08
-1.40504e-07
2.55645e-08
-1.47207e-07
2.60779e-08
-1.54024e-07
2.65806e-08
-1.60951e-07
2.70648e-08
-1.6798e-07
2.75224e-08
-1.75101e-07
2.7944e-08
-1.82303e-07
2.83199e-08
-1.89572e-07
2.86397e-08
-1.96889e-07
2.88923e-08
-2.04236e-07
2.90664e-08
-2.1159e-07
2.91501e-08
-2.18925e-07
2.91315e-08
-2.26213e-07
2.89983e-08
-2.33422e-07
2.87386e-08
-2.4052e-07
2.83404e-08
-2.47469e-07
2.77923e-08
-2.5423e-07
2.70835e-08
-2.60764e-07
2.62038e-08
-2.67026e-07
2.5144e-08
-2.72972e-07
2.38961e-08
-2.78557e-07
2.24536e-08
-2.83733e-07
2.08114e-08
-2.88454e-07
1.89661e-08
-2.92672e-07
1.69165e-08
-2.96342e-07
1.46634e-08
-2.99416e-07
1.22096e-08
-3.01852e-07
9.56083e-09
-3.03607e-07
6.72485e-09
-3.04641e-07
3.71221e-09
-3.0492e-07
5.36166e-10
-3.0441e-07
-2.78799e-09
-3.03083e-07
-6.24154e-09
-3.00915e-07
-9.80379e-09
-2.97889e-07
-1.34515e-08
-2.93992e-07
-1.71594e-08
-2.89216e-07
-2.08999e-08
-2.83563e-07
-2.46438e-08
-2.77037e-07
-2.83605e-08
-2.69653e-07
-3.20181e-08
-2.6143e-07
-3.5584e-08
-2.52396e-07
-3.90251e-08
-2.42584e-07
-4.23085e-08
-2.32036e-07
-4.54016e-08
-2.208e-07
-4.82728e-08
-2.0893e-07
-5.08918e-08
-1.96487e-07
-5.32304e-08
-1.83536e-07
-5.52623e-08
-1.7015e-07
-5.69644e-08
-1.56405e-07
-5.83165e-08
-1.4238e-07
-5.93019e-08
-1.28159e-07
-5.9908e-08
-1.13828e-07
-6.0126e-08
-9.94732e-08
-5.99518e-08
-8.51834e-08
-5.93855e-08
-7.10459e-08
-5.84319e-08
-5.71469e-08
-5.71004e-08
-4.35708e-08
-5.54047e-08
-3.03986e-08
-5.33628e-08
-1.77073e-08
-5.09966e-08
-5.56946e-09
-4.8332e-08
5.94836e-09
-4.53976e-08
1.67857e-08
-4.22251e-08
2.68889e-08
-3.88483e-08
3.62119e-08
-3.53027e-08
4.47161e-08
-3.16248e-08
5.23712e-08
-2.78515e-08
5.91548e-08
-2.40195e-08
6.50527e-08
-2.01648e-08
7.00589e-08
-1.63222e-08
7.41748e-08
-1.25245e-08
7.74096e-08
-8.80239e-09
7.97795e-08
-5.18409e-09
8.13071e-08
-1.69495e-09
8.20212e-08
1.64259e-09
8.19558e-08
4.80904e-09
8.11499e-08
7.78773e-09
7.96468e-08
1.05647e-08
7.74936e-08
1.31281e-08
7.47406e-08
1.54681e-08
7.14412e-08
1.7576e-08
6.76514e-08
1.94435e-08
6.34301e-08
2.10624e-08
5.88387e-08
2.2423e-08
5.39414e-08
2.35136e-08
4.88058e-08
2.43196e-08
4.35028e-08
2.48227e-08
3.81078e-08
2.50001e-08
3.27006e-08
2.48242e-08
2.73665e-08
2.42625e-08
2.21963e-08
2.32789e-08
1.72877e-08
2.18353e-08
1.27452e-08
1.98946e-08
8.68218e-09
1.74259e-08
5.22258e-09
1.4412e-08
2.50616e-09
1.08584e-08
6.96683e-10
6.80357e-09
2.34289e-09
-2.05283e-10
9.43171e-11
-8.60906e-10
1.1416e-09
-1.98897e-09
2.74488e-09
-3.59604e-09
4.68363e-09
-5.67574e-09
6.7934e-09
-8.21125e-09
8.94835e-09
-1.11778e-08
1.10564e-08
-1.45452e-08
1.30543e-08
-1.82799e-08
1.49021e-08
-2.23472e-08
1.65782e-08
-2.67123e-08
1.80755e-08
-3.13423e-08
1.93975e-08
-3.62067e-08
2.05553e-08
-4.12779e-08
2.15652e-08
-4.65321e-08
2.24461e-08
-5.19491e-08
2.32186e-08
-5.75122e-08
2.39031e-08
-6.32086e-08
2.45192e-08
-6.90283e-08
2.50853e-08
-7.49648e-08
2.56175e-08
-8.10137e-08
2.613e-08
-8.71732e-08
2.66347e-08
-9.34432e-08
2.71414e-08
-9.98249e-08
2.76576e-08
-1.06321e-07
2.81889e-08
-1.12934e-07
2.8739e-08
-1.19668e-07
2.93096e-08
-1.26527e-07
2.99012e-08
-1.33514e-07
3.05126e-08
-1.40632e-07
3.1141e-08
-1.47884e-07
3.17827e-08
-1.55269e-07
3.24324e-08
-1.62788e-07
3.30836e-08
-1.70439e-07
3.37291e-08
-1.78219e-07
3.436e-08
-1.8612e-07
3.49667e-08
-1.94137e-07
3.55386e-08
-2.02257e-07
3.6064e-08
-2.10467e-07
3.65305e-08
-2.18752e-07
3.69247e-08
-2.27093e-07
3.72327e-08
-2.35466e-07
3.74399e-08
-2.43848e-07
3.75316e-08
-2.52209e-07
3.74925e-08
-2.60518e-07
3.73073e-08
-2.6874e-07
3.6961e-08
-2.76838e-07
3.64386e-08
-2.84772e-07
3.5726e-08
-2.92498e-07
3.48097e-08
-2.99971e-07
3.36771e-08
-3.07145e-07
3.23172e-08
-3.13969e-07
3.07202e-08
-3.20393e-07
2.88781e-08
-3.26367e-07
2.67851e-08
-3.31838e-07
2.44373e-08
-3.36755e-07
2.18337e-08
-3.41067e-07
1.89754e-08
-3.44724e-07
1.58667e-08
-3.47678e-07
1.25148e-08
-3.49883e-07
8.92977e-09
-3.51296e-07
5.125e-09
-3.51877e-07
1.1171e-09
-3.5159e-07
-3.07455e-09
-3.50405e-07
-7.42691e-09
-3.48295e-07
-1.19142e-08
-3.45238e-07
-1.65077e-08
-3.41222e-07
-2.11762e-08
-3.36236e-07
-2.58858e-08
-3.30279e-07
-3.06006e-08
-3.23356e-07
-3.52831e-08
-3.1548e-07
-3.9894e-08
-3.06671e-07
-4.43935e-08
-2.96955e-07
-4.87409e-08
-2.86368e-07
-5.28958e-08
-2.74951e-07
-5.68182e-08
-2.62755e-07
-6.04691e-08
-2.49835e-07
-6.38113e-08
-2.36256e-07
-6.68096e-08
-2.22086e-07
-6.94317e-08
-2.07403e-07
-7.16483e-08
-1.92285e-07
-7.3434e-08
-1.76819e-07
-7.47677e-08
-1.61095e-07
-7.56327e-08
-1.45203e-07
-7.60174e-08
-1.2924e-07
-7.59155e-08
-1.13299e-07
-7.53259e-08
-9.7478e-08
-7.42532e-08
-8.18708e-08
-7.27076e-08
-6.65709e-08
-7.07046e-08
-5.16686e-08
-6.8265e-08
-3.72505e-08
-6.54148e-08
-2.33983e-08
-6.21841e-08
-1.01883e-08
-5.86076e-08
2.30993e-09
-5.47233e-08
1.40337e-08
-5.05721e-08
2.49282e-08
-4.61972e-08
3.49469e-08
-4.16434e-08
4.40516e-08
-3.69562e-08
5.22132e-08
-3.21811e-08
5.94113e-08
-2.73629e-08
6.56344e-08
-2.25453e-08
7.08798e-08
-1.77698e-08
7.51528e-08
-1.30754e-08
7.84671e-08
-8.49838e-09
8.08436e-08
-4.07152e-09
8.23105e-08
1.75752e-10
8.29019e-08
4.21758e-09
8.26581e-08
8.03154e-09
8.16243e-08
1.15985e-08
7.98504e-08
1.4902e-08
7.73903e-08
1.79282e-08
7.43015e-08
2.06647e-08
7.0645e-08
2.31001e-08
6.64848e-08
2.52226e-08
6.18881e-08
2.70197e-08
5.69251e-08
2.84765e-08
5.16695e-08
2.95752e-08
4.61987e-08
3.02936e-08
4.05942e-08
3.06046e-08
3.49425e-08
3.04758e-08
2.93354e-08
2.98696e-08
2.38708e-08
2.87435e-08
1.86542e-08
2.70519e-08
1.37996e-08
2.47492e-08
9.43204e-09
2.17934e-08
5.69138e-09
1.81527e-08
2.73799e-09
1.38117e-08
7.62018e-10
8.77955e-09
3.1049e-09
-2.8194e-10
3.76261e-10
-1.13939e-09
1.99904e-09
-2.57074e-09
4.17624e-09
-4.56301e-09
6.6759e-09
-7.09377e-09
9.32415e-09
-1.01332e-08
1.19878e-08
-1.36461e-08
1.45694e-08
-1.75941e-08
1.70024e-08
-2.19374e-08
1.92454e-08
-2.66363e-08
2.1277e-08
-3.16524e-08
2.30916e-08
-3.695e-08
2.46951e-08
-4.24964e-08
2.61018e-08
-4.82628e-08
2.73315e-08
-5.42241e-08
2.84074e-08
-6.03594e-08
2.93539e-08
-6.66517e-08
3.01954e-08
-7.30877e-08
3.09553e-08
-7.96577e-08
3.16553e-08
-8.63548e-08
3.23147e-08
-9.31753e-08
3.29504e-08
-1.00117e-07
3.35767e-08
-1.07181e-07
3.42053e-08
-1.14369e-07
3.48452e-08
-1.21683e-07
3.55031e-08
-1.29127e-07
3.61835e-08
-1.36706e-07
3.68887e-08
-1.44424e-07
3.76191e-08
-1.52285e-07
3.83733e-08
-1.60292e-07
3.91481e-08
-1.68448e-07
3.99386e-08
-1.76754e-07
4.07386e-08
-1.85211e-07
4.15402e-08
-1.93816e-07
4.2334e-08
-2.02565e-07
4.31096e-08
-2.11453e-07
4.38548e-08
-2.20471e-07
4.45564e-08
-2.29607e-07
4.52002e-08
-2.38847e-07
4.57705e-08
-2.48174e-07
4.62511e-08
-2.57566e-07
4.66246e-08
-2.66999e-07
4.68732e-08
-2.76446e-07
4.69786e-08
-2.85876e-07
4.69221e-08
-2.95253e-07
4.6685e-08
-3.04541e-07
4.6249e-08
-3.13699e-07
4.55959e-08
-3.22681e-07
4.47084e-08
-3.31442e-07
4.35704e-08
-3.39932e-07
4.21668e-08
-3.48099e-07
4.04843e-08
-3.5589e-07
3.85113e-08
-3.6325e-07
3.62385e-08
-3.70124e-07
3.3659e-08
-3.76455e-07
3.07686e-08
-3.82188e-07
2.75663e-08
-3.87266e-07
2.40538e-08
-3.91636e-07
2.02367e-08
-3.95245e-07
1.61238e-08
-3.98043e-07
1.17276e-08
-3.99983e-07
7.06442e-09
-4.0102e-07
2.15433e-09
-4.01115e-07
-2.97905e-09
-4.00234e-07
-8.30824e-09
-3.98346e-07
-1.38022e-08
-3.95427e-07
-1.94265e-08
-3.9146e-07
-2.51438e-08
-3.86432e-07
-3.09136e-08
-3.80339e-07
-3.66931e-08
-3.73185e-07
-4.24374e-08
-3.64979e-07
-4.80997e-08
-3.5574e-07
-5.36324e-08
-3.45495e-07
-5.89869e-08
-3.34276e-07
-6.41147e-08
-3.22126e-07
-6.89678e-08
-3.09096e-07
-7.34994e-08
-2.95243e-07
-7.76646e-08
-2.80632e-07
-8.14206e-08
-2.65335e-07
-8.47281e-08
-2.49432e-07
-8.75513e-08
-2.33008e-07
-8.98587e-08
-2.16151e-07
-9.16238e-08
-1.98959e-07
-9.28253e-08
-1.81528e-07
-9.34479e-08
-1.63962e-07
-9.34822e-08
-1.46362e-07
-9.29255e-08
-1.28834e-07
-9.17815e-08
-1.11481e-07
-9.00606e-08
-9.44056e-08
-8.77797e-08
-7.77086e-08
-8.4962e-08
-6.14865e-08
-8.16369e-08
-4.58311e-08
-7.78395e-08
-3.0829e-08
-7.36097e-08
-1.656e-08
-6.89923e-08
-3.09654e-09
-6.40355e-08
9.49688e-09
-5.87907e-08
2.11646e-08
-5.33111e-08
3.186e-08
-4.76516e-08
4.15461e-08
-4.18672e-08
5.01955e-08
-3.60123e-08
5.77904e-08
-3.01402e-08
6.43228e-08
-2.43022e-08
6.97938e-08
-1.85464e-08
7.42136e-08
-1.29182e-08
7.76009e-08
-7.45884e-09
7.99824e-08
-2.20569e-09
8.13919e-08
2.80802e-09
8.18703e-08
7.55319e-09
8.14642e-08
1.20046e-08
8.02257e-08
1.61405e-08
7.82119e-08
1.9942e-08
7.54841e-08
2.33925e-08
7.21076e-08
2.64766e-08
6.81513e-08
2.91789e-08
6.36875e-08
3.14835e-08
5.8792e-08
3.3372e-08
5.35443e-08
3.48229e-08
4.80277e-08
3.58102e-08
4.23298e-08
3.63024e-08
3.65432e-08
3.62624e-08
3.07663e-08
3.56466e-08
2.51041e-08
3.44057e-08
1.96698e-08
3.24862e-08
1.45871e-08
2.98319e-08
9.99253e-09
2.6388e-08
6.0404e-09
2.21048e-08
2.90894e-09
1.69432e-08
8.09274e-10
1.08792e-08
3.91418e-09
-3.60177e-10
7.36434e-10
-1.42524e-09
3.06411e-09
-3.16988e-09
5.92088e-09
-5.56079e-09
9.0668e-09
-8.55844e-09
1.23218e-08
-1.21189e-08
1.55483e-08
-1.61958e-08
1.86462e-08
-2.07414e-08
2.15481e-08
-2.57091e-08
2.4213e-08
-3.10535e-08
2.66215e-08
-3.67325e-08
2.87705e-08
-4.27071e-08
3.06697e-08
-4.89428e-08
3.23374e-08
-5.5409e-08
3.37978e-08
-6.208e-08
3.50784e-08
-6.89343e-08