/*--------------------------------*- C++ -*----------------------------------*\
| =========                 |                                                 |
| \\      /  F ield         | OpenFOAM: The Open Source CFD Toolbox           |
|  \\    /   O peration     | Version:  2112                                  |
|   \\  /    A nd           | Website:  www.openfoam.com                      |
|    \\/     M anipulation  |                                                 |
\*---------------------------------------------------------------------------*/
FoamFile
{
    version     2.0;
    format      ascii;
    arch        "LSB;label=32;scalar=64";
    class       volVectorField;
    location    "1.2";
    object      U;
}
// * * * * * * * * * * * * * * * * * * * * * * * * * * * * * * * * * * * * * //

dimensions      [0 1 -1 0 0 0 0];

internalField   nonuniform List<vector> 
16641
(
(2.58201e-06 -2.67567e-06 0)
(1.19918e-05 -5.75768e-06 0)
(2.50808e-05 -5.88086e-06 0)
(3.53562e-05 -4.38234e-06 0)
(3.96959e-05 -2.19577e-06 0)
(3.70565e-05 1.57986e-07 0)
(2.72524e-05 2.42727e-06 0)
(1.06263e-05 4.47992e-06 0)
(-1.22202e-05 6.26002e-06 0)
(-4.05536e-05 7.77101e-06 0)
(-7.35997e-05 9.02184e-06 0)
(-0.000110636 1.00395e-05 0)
(-0.000151 1.08566e-05 0)
(-0.000194113 1.15069e-05 0)
(-0.000239488 1.20238e-05 0)
(-0.000286734 1.24396e-05 0)
(-0.000335549 1.27831e-05 0)
(-0.000385713 1.30792e-05 0)
(-0.000437079 1.33499e-05 0)
(-0.000489563 1.36132e-05 0)
(-0.000543137 1.38832e-05 0)
(-0.000597813 1.41715e-05 0)
(-0.000653638 1.44866e-05 0)
(-0.000710687 1.48344e-05 0)
(-0.00076905 1.52192e-05 0)
(-0.000828829 1.56428e-05 0)
(-0.000890133 1.6105e-05 0)
(-0.000953072 1.66053e-05 0)
(-0.00101775 1.71422e-05 0)
(-0.00108427 1.77124e-05 0)
(-0.00115271 1.83121e-05 0)
(-0.00122314 1.89365e-05 0)
(-0.00129564 1.95804e-05 0)
(-0.00137022 2.02381e-05 0)
(-0.00144691 2.09029e-05 0)
(-0.00152571 2.15673e-05 0)
(-0.00160656 2.22233e-05 0)
(-0.00168942 2.28621e-05 0)
(-0.00177418 2.34745e-05 0)
(-0.00186071 2.40502e-05 0)
(-0.00194884 2.45784e-05 0)
(-0.00203838 2.50476e-05 0)
(-0.00212907 2.54458e-05 0)
(-0.00222063 2.57603e-05 0)
(-0.00231271 2.59777e-05 0)
(-0.00240496 2.60843e-05 0)
(-0.00249693 2.60664e-05 0)
(-0.00258817 2.591e-05 0)
(-0.00267815 2.56009e-05 0)
(-0.00276632 2.51247e-05 0)
(-0.00285207 2.44678e-05 0)
(-0.00293476 2.36176e-05 0)
(-0.00301369 2.25621e-05 0)
(-0.00308816 2.12901e-05 0)
(-0.00315742 1.97918e-05 0)
(-0.00322069 1.80593e-05 0)
(-0.00327719 1.6087e-05 0)
(-0.00332613 1.38718e-05 0)
(-0.0033667 1.1413e-05 0)
(-0.00339812 8.71297e-06 0)
(-0.00341964 5.7777e-06 0)
(-0.0034305 2.61674e-06 0)
(-0.00343003 -7.57449e-07 0)
(-0.00341759 -4.32712e-06 0)
(-0.00339261 -8.07069e-06 0)
(-0.00335461 -1.19628e-05 0)
(-0.00330319 -1.59738e-05 0)
(-0.00323808 -2.00704e-05 0)
(-0.00315909 -2.42153e-05 0)
(-0.00306619 -2.8368e-05 0)
(-0.00295947 -3.24849e-05 0)
(-0.00283916 -3.65204e-05 0)
(-0.00270564 -4.04272e-05 0)
(-0.00255944 -4.41574e-05 0)
(-0.00240125 -4.76627e-05 0)
(-0.00223189 -5.0896e-05 0)
(-0.00205234 -5.3812e-05 0)
(-0.00186371 -5.63681e-05 0)
(-0.00166723 -5.85252e-05 0)
(-0.00146425 -6.02493e-05 0)
(-0.00125622 -6.15115e-05 0)
(-0.00104466 -6.22893e-05 0)
(-0.00083115 -6.25669e-05 0)
(-0.000617325 -6.23361e-05 0)
(-0.00040482 -6.15955e-05 0)
(-0.00019527 -6.03523e-05 0)
(9.7232e-06 -5.86212e-05 0)
(0.000208608 -5.64238e-05 0)
(0.000399909 -5.37894e-05 0)
(0.000582248 -5.07539e-05 0)
(0.00075436 -4.73579e-05 0)
(0.000915111 -4.36476e-05 0)
(0.00106351 -3.96723e-05 0)
(0.00119873 -3.54843e-05 0)
(0.00132009 -3.11371e-05 0)
(0.00142708 -2.66846e-05 0)
(0.00151938 -2.21797e-05 0)
(0.0015968 -1.76737e-05 0)
(0.00165933 -1.32151e-05 0)
(0.00170711 -8.84858e-06 0)
(0.00174041 -4.61435e-06 0)
(0.00175964 -5.47802e-07 0)
(0.00176531 3.32099e-06 0)
(0.00175803 6.96768e-06 0)
(0.00173849 1.03738e-05 0)
(0.00170745 1.3526e-05 0)
(0.0016657 1.64165e-05 0)
(0.00161408 1.9042e-05 0)
(0.00155345 2.14038e-05 0)
(0.00148465 2.35063e-05 0)
(0.00140855 2.53564e-05 0)
(0.001326 2.69624e-05 0)
(0.00123782 2.83325e-05 0)
(0.00114486 2.94731e-05 0)
(0.00104794 3.03873e-05 0)
(0.000947916 3.1072e-05 0)
(0.000845662 3.15156e-05 0)
(0.000742124 3.16948e-05 0)
(0.00063835 3.15706e-05 0)
(0.000535537 3.10827e-05 0)
(0.000435086 3.01439e-05 0)
(0.000338682 2.86319e-05 0)
(0.000248363 2.63803e-05 0)
(0.000166615 2.31709e-05 0)
(9.6431e-05 1.8743e-05 0)
(4.12469e-05 1.2862e-05 0)
(4.5298e-06 5.54069e-06 0)
(-1.09593e-05 -2.28661e-06 0)
(-6.56128e-06 -6.56e-06 0)
(5.66993e-06 -1.19766e-05 0)
(2.19157e-05 -2.1931e-05 0)
(4.06568e-05 -2.02294e-05 0)
(5.08659e-05 -1.15993e-05 0)
(4.67538e-05 5.15623e-07 0)
(2.58104e-05 1.39017e-05 0)
(-1.27433e-05 2.7232e-05 0)
(-6.85023e-05 3.97414e-05 0)
(-0.000140314 5.10211e-05 0)
(-0.000226628 6.09241e-05 0)
(-0.000325726 6.94285e-05 0)
(-0.00043589 7.66133e-05 0)
(-0.000555503 8.26131e-05 0)
(-0.000683109 8.75902e-05 0)
(-0.000817452 9.1718e-05 0)
(-0.000957489 9.51695e-05 0)
(-0.00110239 9.81079e-05 0)
(-0.00125152 0.000100682 0)
(-0.00140445 0.000103023 0)
(-0.00156087 0.000105243 0)
(-0.00172065 0.000107437 0)
(-0.00188376 0.000109678 0)
(-0.00205025 0.000112027 0)
(-0.00222027 0.000114525 0)
(-0.00239399 0.000117203 0)
(-0.00257164 0.000120078 0)
(-0.00275346 0.000123156 0)
(-0.00293968 0.000126435 0)
(-0.00313056 0.000129905 0)
(-0.0033263 0.000133549 0)
(-0.0035271 0.000137343 0)
(-0.00373311 0.000141257 0)
(-0.00394445 0.000145257 0)
(-0.00416118 0.000149302 0)
(-0.0043833 0.000153349 0)
(-0.00461073 0.000157346 0)
(-0.00484333 0.000161238 0)
(-0.0050809 0.000164967 0)
(-0.0053231 0.000168468 0)
(-0.00556955 0.000171673 0)
(-0.00581973 0.000174507 0)
(-0.00607304 0.000176894 0)
(-0.00632876 0.000178754 0)
(-0.00658605 0.000180001 0)
(-0.00684395 0.000180549 0)
(-0.0071014 0.000180311 0)
(-0.00735719 0.000179197 0)
(-0.00761001 0.000177118 0)
(-0.00785843 0.000173987 0)
(-0.00810089 0.000169717 0)
(-0.00833573 0.000164227 0)
(-0.00856119 0.000157443 0)
(-0.00877541 0.000149295 0)
(-0.00897645 0.000139724 0)
(-0.00916232 0.000128679 0)
(-0.00933097 0.000116125 0)
(-0.0094803 0.000102039 0)
(-0.00960824 8.64156e-05 0)
(-0.00971272 6.9266e-05 0)
(-0.00979169 5.0622e-05 0)
(-0.00984321 3.05366e-05 0)
(-0.0098654 9.08468e-06 0)
(-0.00985654 -1.36389e-05 0)
(-0.00981505 -3.75085e-05 0)
(-0.00973953 -6.23784e-05 0)
(-0.00962884 -8.80795e-05 0)
(-0.00948204 -0.000114419 0)
(-0.00929852 -0.000141183 0)
(-0.00907794 -0.000168137 0)
(-0.00882029 -0.000195027 0)
(-0.00852593 -0.000221588 0)
(-0.00819556 -0.000247542 0)
(-0.00783024 -0.000272603 0)
(-0.00743145 -0.000296483 0)
(-0.00700101 -0.000318896 0)
(-0.00654112 -0.000339562 0)
(-0.00605434 -0.000358215 0)
(-0.00554356 -0.000374604 0)
(-0.00501197 -0.000388501 0)
(-0.00446307 -0.000399705 0)
(-0.00390057 -0.000408047 0)
(-0.00332839 -0.000413393 0)
(-0.00275061 -0.000415649 0)
(-0.00217138 -0.000414761 0)
(-0.00159493 -0.000410721 0)
(-0.00102546 -0.000403561 0)
(-0.000467098 -0.000393361 0)
(7.61338e-05 -0.000380242 0)
(0.000600397 -0.000364365 0)
(0.00110208 -0.00034593 0)
(0.00157784 -0.000325171 0)
(0.00202465 -0.00030235 0)
(0.00243983 -0.000277751 0)
(0.00282108 -0.000251677 0)
(0.0031665 -0.000224443 0)
(0.00347459 -0.000196369 0)
(0.00374429 -0.000167771 0)
(0.00397493 -0.000138962 0)
(0.00416627 -0.000110239 0)
(0.00431843 -8.18835e-05 0)
(0.00443192 -5.41526e-05 0)
(0.00450757 -2.72787e-05 0)
(0.00454653 -1.46498e-06 0)
(0.00455022 2.31154e-05 0)
(0.00452026 4.63209e-05 0)
(0.00445849 6.80408e-05 0)
(0.0043669 8.81939e-05 0)
(0.00424759 0.000106726 0)
(0.00410275 0.000123609 0)
(0.00393462 0.00013883 0)
(0.00374546 0.000152395 0)
(0.00353758 0.000164314 0)
(0.00331329 0.000174597 0)
(0.0030749 0.000183244 0)
(0.00282481 0.000190234 0)
(0.00256544 0.000195515 0)
(0.00229936 0.000198984 0)
(0.00202931 0.00020048 0)
(0.00175832 0.000199762 0)
(0.00148975 0.000196492 0)
(0.00122746 0.000190217 0)
(0.000975876 0.000180359 0)
(0.000740121 0.000166211 0)
(0.000526057 0.000146972 0)
(0.000340222 0.000121879 0)
(0.000189433 9.05641e-05 0)
(7.97885e-05 5.38474e-05 0)
(1.56594e-05 1.56322e-05 0)
(-2.30554e-06 -1.09862e-05 0)
(6.04759e-06 -2.52989e-05 0)
(2.05881e-05 -4.07253e-05 0)
(3.22232e-05 -3.2057e-05 0)
(2.88117e-05 -8.55121e-06 0)
(3.68135e-06 2.30566e-05 0)
(-4.62944e-05 5.80473e-05 0)
(-0.00012217 9.32903e-05 0)
(-0.000223496 0.000126843 0)
(-0.000348804 0.000157584 0)
(-0.000496033 0.000184978 0)
(-0.000662839 0.000208874 0)
(-0.000846819 0.000229386 0)
(-0.00104567 0.000246794 0)
(-0.00125728 0.000261472 0)
(-0.00147979 0.000273841 0)
(-0.00171166 0.000284332 0)
(-0.00195159 0.000293363 0)
(-0.00219862 0.000301323 0)
(-0.00245201 0.00030856 0)
(-0.00271128 0.000315376 0)
(-0.00297614 0.000322027 0)
(-0.0032465 0.000328722 0)
(-0.00352237 0.000335623 0)
(-0.0038039 0.000342855 0)
(-0.00409132 0.000350505 0)
(-0.00438491 0.000358625 0)
(-0.00468497 0.000367237 0)
(-0.00499184 0.000376341 0)
(-0.00530581 0.000385912 0)
(-0.00562719 0.000395902 0)
(-0.00595621 0.000406249 0)
(-0.00629308 0.000416872 0)
(-0.00663792 0.000427672 0)
(-0.00699076 0.000438538 0)
(-0.00735157 0.000449342 0)
(-0.00772019 0.000459945 0)
(-0.00809635 0.000470189 0)
(-0.00847964 0.000479906 0)
(-0.00886955 0.000488915 0)
(-0.00926538 0.00049702 0)
(-0.0096663 0.000504015 0)
(-0.0100713 0.000509683 0)
(-0.0104792 0.000513798 0)
(-0.0108887 0.000516125 0)
(-0.0112982 0.000516424 0)
(-0.011706 0.000514452 0)
(-0.0121102 0.000509965 0)
(-0.0125087 0.000502721 0)
(-0.0128993 0.000492483 0)
(-0.0132796 0.000479024 0)
(-0.0136468 0.000462129 0)
(-0.0139983 0.000441602 0)
(-0.0143313 0.000417269 0)
(-0.0146427 0.00038898 0)
(-0.0149295 0.000356618 0)
(-0.0151886 0.000320103 0)
(-0.0154168 0.000279394 0)
(-0.0156109 0.000234497 0)
(-0.0157679 0.000185467 0)
(-0.0158848 0.000132413 0)
(-0.0159586 7.55022e-05 0)
(-0.0159867 1.49593e-05 0)
(-0.0159664 -4.89319e-05 0)
(-0.0158955 -0.000115816 0)
(-0.0157721 -0.000185282 0)
(-0.0155945 -0.000256857 0)
(-0.0153615 -0.00033001 0)
(-0.0150722 -0.000404153 0)
(-0.0147263 -0.00047865 0)
(-0.0143238 -0.000552823 0)
(-0.0138655 -0.000625956 0)
(-0.0133524 -0.00069731 0)
(-0.0127863 -0.000766128 0)
(-0.0121693 -0.000831651 0)
(-0.0115044 -0.000893125 0)
(-0.0107947 -0.000949818 0)
(-0.0100442 -0.00100103 0)
(-0.00925706 -0.0010461 0)
(-0.00843816 -0.00108445 0)
(-0.00759262 -0.00111554 0)
(-0.00672594 -0.00113893 0)
(-0.00584392 -0.00115426 0)
(-0.00495256 -0.0011613 0)
(-0.00405803 -0.00115988 0)
(-0.00316657 -0.00114999 0)
(-0.0022844 -0.00113168 0)
(-0.00141767 -0.00110517 0)
(-0.000572383 -0.00107074 0)
(0.000245717 -0.0010288 0)
(0.00103118 -0.000979872 0)
(0.00177894 -0.000924536 0)
(0.00248436 -0.000863467 0)
(0.00314329 -0.0007974 0)
(0.00375213 -0.000727121 0)
(0.00430781 -0.000653447 0)
(0.00480788 -0.000577218 0)
(0.00525048 -0.000499274 0)
(0.00563437 -0.000420443 0)
(0.00595888 -0.000341526 0)
(0.00622393 -0.000263281 0)
(0.00643 -0.000186418 0)
(0.00657807 -0.00011158 0)
(0.0066696 -3.93419e-05 0)
(0.00670646 2.97972e-05 0)
(0.00669091 9.54163e-05 0)
(0.00662552 0.000157173 0)
(0.00651313 0.000214802 0)
(0.00635678 0.000268106 0)
(0.0061597 0.00031695 0)
(0.00592524 0.000361253 0)
(0.00565683 0.000400965 0)
(0.005358 0.00043606 0)
(0.00503233 0.000466508 0)
(0.00468347 0.000492255 0)
(0.00431518 0.000513195 0)
(0.00393135 0.000529141 0)
(0.00353608 0.000539793 0)
(0.00313372 0.000544701 0)
(0.00272902 0.000543237 0)
(0.00232723 0.000534558 0)
(0.00193417 0.00051759 0)
(0.0015564 0.00049103 0)
(0.00120125 0.000453399 0)
(0.000876804 0.00040319 0)
(0.000591763 0.000339243 0)
(0.000354803 0.000261521 0)
(0.000173394 0.000172494 0)
(5.42873e-05 7.98604e-05 0)
(5.59188e-06 4.54262e-06 0)
(4.66449e-06 -3.58884e-05 0)
(1.17985e-05 -5.08264e-05 0)
(7.53237e-06 -2.84432e-05 0)
(-1.928e-05 1.71105e-05 0)
(-7.50416e-05 7.56959e-05 0)
(-0.000162853 0.000139938 0)
(-0.000283647 0.000204732 0)
(-0.000436757 0.00026676 0)
(-0.000620404 0.000324024 0)
(-0.000832128 0.000375486 0)
(-0.00106912 0.000420793 0)
(-0.00132848 0.000460064 0)
(-0.0016074 0.000493725 0)
(-0.00190328 0.000522399 0)
(-0.00221381 0.000546805 0)
(-0.00253702 0.000567696 0)
(-0.00287129 0.000585814 0)
(-0.00321535 0.000601857 0)
(-0.00356822 0.000616456 0)
(-0.00392924 0.000630167 0)
(-0.00429799 0.00064346 0)
(-0.00467429 0.000656726 0)
(-0.0050581 0.000670274 0)
(-0.00544956 0.00068434 0)
(-0.00584889 0.000699089 0)
(-0.00625641 0.000714627 0)
(-0.00667245 0.000731003 0)
(-0.00709737 0.000748219 0)
(-0.00753154 0.000766229 0)
(-0.00797528 0.00078495 0)
(-0.00842885 0.000804264 0)
(-0.00889247 0.000824017 0)
(-0.00936623 0.000844025 0)
(-0.00985016 0.000864073 0)
(-0.0103441 0.00088392 0)
(-0.0108479 0.000903293 0)
(-0.011361 0.000921895 0)
(-0.0118829 0.000939402 0)
(-0.0124129 0.000955463 0)
(-0.0129499 0.000969707 0)
(-0.0134929 0.000981738 0)
(-0.0140404 0.000991142 0)
(-0.0145908 0.000997488 0)
(-0.0151424 0.00100033 0)
(-0.0156929 0.000999222 0)
(-0.0162402 0.000993699 0)
(-0.0167816 0.000983308 0)
(-0.0173144 0.000967598 0)
(-0.0178355 0.000946133 0)
(-0.0183418 0.000918498 0)
(-0.0188299 0.000884304 0)
(-0.019296 0.0008432 0)
(-0.0197366 0.000794877 0)
(-0.0201477 0.00073908 0)
(-0.0205253 0.000675616 0)
(-0.0208654 0.000604362 0)
(-0.021164 0.000525272 0)
(-0.021417 0.000438387 0)
(-0.0216206 0.000343843 0)
(-0.0217708 0.000241874 0)
(-0.0218642 0.00013282 0)
(-0.0218971 1.71314e-05 0)
(-0.0218666 -0.00010463 0)
(-0.0217698 -0.00023179 0)
(-0.0216044 -0.000363564 0)
(-0.0213683 -0.000499057 0)
(-0.0210601 -0.000637272 0)
(-0.0206788 -0.000777118 0)
(-0.0202242 -0.000917416 0)
(-0.0196964 -0.00105691 0)
(-0.0190964 -0.00119431 0)
(-0.0184256 -0.00132824 0)
(-0.0176864 -0.00145733 0)
(-0.0168816 -0.00158021 0)
(-0.0160147 -0.00169551 0)
(-0.0150901 -0.0018019 0)
(-0.0141124 -0.00189812 0)
(-0.0130872 -0.00198299 0)
(-0.0120204 -0.00205544 0)
(-0.0109186 -0.00211452 0)
(-0.00978847 -0.00215941 0)
(-0.00863744 -0.00218949 0)
(-0.00747301 -0.00220427 0)
(-0.0063029 -0.0022035 0)
(-0.00513495 -0.00218709 0)
(-0.00397701 -0.00215515 0)
(-0.00283687 -0.00210801 0)
(-0.00172211 -0.00204618 0)
(-0.000640074 -0.00197038 0)
(0.000402256 -0.00188148 0)
(0.00139834 -0.00178054 0)
(0.00234213 -0.00166874 0)
(0.00322819 -0.00154739 0)
(0.00405168 -0.00141789 0)
(0.00480848 -0.00128171 0)
(0.00549516 -0.00114037 0)
(0.00610903 -0.000995387 0)
(0.00664817 -0.000848286 0)
(0.00711139 -0.000700535 0)
(0.00749821 -0.000553545 0)
(0.00780889 -0.00040864 0)
(0.00804432 -0.000267037 0)
(0.00820603 -0.000129838 0)
(0.00829611 1.98685e-06 0)
(0.00831714 0.000127605 0)
(0.00827218 0.000246319 0)
(0.00816464 0.000357568 0)
(0.00799827 0.000460913 0)
(0.00777706 0.00055603 0)
(0.00750525 0.000642685 0)
(0.00718723 0.000720711 0)
(0.00682755 0.000789978 0)
(0.00643088 0.000850357 0)
(0.00600204 0.000901679 0)
(0.005546 0.00094369 0)
(0.00506793 0.000976001 0)
(0.00457326 0.000998034 0)
(0.00406777 0.00100897 0)
(0.00355769 0.0010077 0)
(0.00304977 0.000992803 0)
(0.00255144 0.000962494 0)
(0.00207085 0.000914705 0)
(0.00161691 0.000847187 0)
(0.00119928 0.000757799 0)
(0.000828156 0.000645083 0)
(0.000513664 0.000509351 0)
(0.000264796 0.000354397 0)
(9.19958e-05 0.000190421 0)
(1.31027e-05 4.1667e-05 0)
(2.42e-06 -4.0397e-05 0)
(-1.46516e-06 -4.54413e-05 0)
(-2.79468e-05 -1.09271e-06 0)
(-8.55001e-05 7.40633e-05 0)
(-0.000179412 0.000166673 0)
(-0.000312263 0.000266835 0)
(-0.000484507 0.00036753 0)
(-0.000695045 0.000464066 0)
(-0.000941698 0.000553534 0)
(-0.00122161 0.000634367 0)
(-0.00153158 0.000705979 0)
(-0.00186829 0.000768481 0)
(-0.00222856 0.000822456 0)
(-0.00260941 0.000868789 0)
(-0.00300818 0.000908529 0)
(-0.0034226 0.000942791 0)
(-0.00385076 0.000972685 0)
(-0.00429116 0.000999263 0)
(-0.00474263 0.00102349 0)
(-0.00520436 0.00104621 0)
(-0.00567582 0.00106815 0)
(-0.00615673 0.00108993 0)
(-0.00664701 0.00111202 0)
(-0.00714678 0.0011348 0)
(-0.00765624 0.00115852 0)
(-0.00817572 0.00118338 0)
(-0.00870557 0.00120943 0)
(-0.00924618 0.0012367 0)
(-0.00979792 0.00126512 0)
(-0.0103611 0.00129455 0)
(-0.0109361 0.00132482 0)
(-0.0115231 0.00135567 0)
(-0.012122 0.00138683 0)
(-0.012733 0.00141793 0)
(-0.0133557 0.00144861 0)
(-0.0139899 0.00147841 0)
(-0.014635 0.00150687 0)
(-0.0152903 0.00153346 0)
(-0.0159547 0.00155763 0)
(-0.016627 0.00157877 0)
(-0.0173058 0.00159626 0)
(-0.0179893 0.00160943 0)
(-0.0186755 0.0016176 0)
(-0.0193621 0.00162006 0)
(-0.0200466 0.0016161 0)
(-0.0207261 0.001605 0)
(-0.0213974 0.00158604 0)
(-0.0220571 0.00155852 0)
(-0.0227015 0.00152178 0)
(-0.0233267 0.00147516 0)
(-0.0239286 0.00141808 0)
(-0.0245028 0.00135001 0)
(-0.0250448 0.0012705 0)
(-0.0255499 0.00117918 0)
(-0.0260133 0.00107578 0)
(-0.0264303 0.000960135 0)
(-0.0267961 0.000832228 0)
(-0.0271059 0.000692161 0)
(-0.027355 0.000540186 0)
(-0.0275391 0.000376713 0)
(-0.0276538 0.00020231 0)
(-0.0276952 1.77181e-05 0)
(-0.0276597 -0.000176148 0)
(-0.0275441 -0.000378217 0)
(-0.0273456 -0.000587241 0)
(-0.027062 -0.000801813 0)
(-0.0266918 -0.00102037 0)
(-0.0262338 -0.00124122 0)
(-0.0256878 -0.00146253 0)
(-0.0250541 -0.00168237 0)
(-0.0243338 -0.00189873 0)
(-0.0235289 -0.00210955 0)
(-0.0226419 -0.00231271 0)
(-0.0216761 -0.00250611 0)
(-0.0206359 -0.00268768 0)
(-0.0195261 -0.0028554 0)
(-0.0183522 -0.00300735 0)
(-0.0171207 -0.00314172 0)
(-0.0158383 -0.0032569 0)
(-0.0145127 -0.00335142 0)
(-0.0131519 -0.00342406 0)
(-0.0117641 -0.00347381 0)
(-0.0103582 -0.00349997 0)
(-0.00894314 -0.00350207 0)
(-0.00752809 -0.00347996 0)
(-0.00612222 -0.00343379 0)
(-0.00473463 -0.003364 0)
(-0.0033743 -0.00327133 0)
(-0.00204989 -0.00315681 0)
(-0.000769716 -0.00302174 0)
(0.000458362 -0.00286766 0)
(0.00162705 -0.00269633 0)
(0.00272969 -0.00250971 0)
(0.00376032 -0.00230991 0)
(0.00471375 -0.00209914 0)
(0.00558557 -0.00187971 0)
(0.00637223 -0.00165393 0)
(0.00707105 -0.00142415 0)
(0.00768019 -0.00119262 0)
(0.00819866 -0.000961557 0)
(0.00862632 -0.000733022 0)
(0.00896382 -0.000508949 0)
(0.00921254 -0.000291099 0)
(0.00937459 -8.10438e-05 0)
(0.00945267 0.000119843 0)
(0.0094501 0.000310392 0)
(0.00937065 0.000489632 0)
(0.00921857 0.00065678 0)
(0.00899843 0.000811222 0)
(0.00871515 0.000952485 0)
(0.0083739 0.0010802 0)
(0.00798008 0.00119406 0)
(0.00753929 0.00129377 0)
(0.00705735 0.00137898 0)
(0.00654028 0.00144922 0)
(0.00599437 0.00150385 0)
(0.00542623 0.00154195 0)
(0.00484283 0.00156231 0)
(0.00425164 0.00156328 0)
(0.00366068 0.00154284 0)
(0.00307863 0.00149851 0)
(0.00251489 0.00142747 0)
(0.00197959 0.00132676 0)
(0.00148361 0.00119361 0)
(0.00103843 0.00102622 0)
(0.000655671 0.000824885 0)
(0.000346222 0.000593792 0)
(0.000124842 0.00034364 0)
(1.92803e-05 9.79495e-05 0)
(-2.30557e-07 -3.70703e-05 0)
(-1.73874e-05 -2.04361e-05 0)
(-7.04948e-05 5.55636e-05 0)
(-0.000164224 0.000168614 0)
(-0.000302117 0.000302511 0)
(-0.000485824 0.000445084 0)
(-0.00071501 0.000587567 0)
(-0.000987921 0.000724003 0)
(-0.00130185 0.000850636 0)
(-0.00165349 0.000965403 0)
(-0.00203924 0.00106751 0)
(-0.00245543 0.00115707 0)
(-0.00289855 0.00123485 0)
(-0.00336531 0.00130202 0)
(-0.0038528 0.00135999 0)
(-0.0043585 0.00141026 0)
(-0.00488029 0.00145435 0)
(-0.00541648 0.0014937 0)
(-0.00596579 0.00152963 0)
(-0.00652726 0.00156332 0)
(-0.00710029 0.00159579 0)
(-0.00768453 0.00162788 0)
(-0.00827987 0.00166029 0)
(-0.00888638 0.00169353 0)
(-0.00950429 0.00172799 0)
(-0.0101339 0.00176391 0)
(-0.0107756 0.00180142 0)
(-0.0114298 0.00184053 0)
(-0.0120969 0.00188115 0)
(-0.0127772 0.00192311 0)
(-0.013471 0.00196613 0)
(-0.0141786 0.00200987 0)
(-0.0148999 0.00205391 0)
(-0.0156349 0.00209775 0)
(-0.0163833 0.00214085 0)
(-0.0171447 0.00218255 0)
(-0.0179183 0.00222218 0)
(-0.0187033 0.00225898 0)
(-0.0194985 0.00229213 0)
(-0.0203024 0.00232077 0)
(-0.0211131 0.002344 0)
(-0.0219288 0.00236084 0)
(-0.0227469 0.00237032 0)
(-0.0235648 0.00237144 0)
(-0.0243794 0.00236315 0)
(-0.0251873 0.00234445 0)
(-0.0259849 0.00231432 0)
(-0.0267681 0.00227176 0)
(-0.0275327 0.00221585 0)
(-0.0282741 0.00214567 0)
(-0.0289874 0.00206044 0)
(-0.0296677 0.00195941 0)
(-0.0303096 0.00184199 0)
(-0.030908 0.00170769 0)
(-0.0314573 0.00155618 0)
(-0.031952 0.00138727 0)
(-0.0323867 0.00120098 0)
(-0.032756 0.000997507 0)
(-0.0330547 0.00077726 0)
(-0.0332777 0.000540865 0)
(-0.0334202 0.000289173 0)
(-0.0334779 2.32704e-05 0)
(-0.0334466 -0.000255516 0)
(-0.0333228 -0.000545643 0)
(-0.0331035 -0.000845332 0)
(-0.0327863 -0.00115258 0)
(-0.0323692 -0.0014652 0)
(-0.0318514 -0.00178078 0)
(-0.0312323 -0.00209679 0)
(-0.0305124 -0.00241053 0)
(-0.029693 -0.00271919 0)
(-0.0287761 -0.00301991 0)
(-0.0277646 -0.00330977 0)
(-0.0266623 -0.00358585 0)
(-0.0254737 -0.0038453 0)
(-0.0242043 -0.00408531 0)
(-0.0228604 -0.00430324 0)
(-0.0214487 -0.0044966 0)
(-0.019977 -0.00466312 0)
(-0.0184537 -0.00480078 0)
(-0.0168874 -0.00490786 0)
(-0.0152876 -0.00498296 0)
(-0.0136639 -0.00502504 0)
(-0.0120265 -0.00503342 0)
(-0.0103856 -0.00500785 0)
(-0.00875135 -0.00494846 0)
(-0.00713416 -0.00485579 0)
(-0.00554415 -0.0047308 0)
(-0.0039912 -0.00457484 0)
(-0.00248483 -0.00438962 0)
(-0.00103411 -0.00417721 0)
(0.000352478 -0.00393998 0)
(0.00166711 -0.00368057 0)
(0.00290272 -0.00340185 0)
(0.00405302 -0.00310687 0)
(0.00511263 -0.00279878 0)
(0.00607708 -0.0024808 0)
(0.00694283 -0.00215618 0)
(0.0077073 -0.00182809 0)
(0.00836889 -0.00149964 0)
(0.00892693 -0.00117376 0)
(0.00938165 -0.000853234 0)
(0.00973417 -0.000540595 0)
(0.00998642 -0.000238145 0)
(0.0101411 5.20794e-05 0)
(0.0102016 0.000328313 0)
(0.0101718 0.000589061 0)
(0.0100564 0.000833087 0)
(0.00986039 0.00105938 0)
(0.00958915 0.00126714 0)
(0.00924849 0.0014557 0)
(0.00884454 0.0016245 0)
(0.00838367 0.00177299 0)
(0.00787256 0.00190059 0)
(0.00731816 0.00200656 0)
(0.00672773 0.00208995 0)
(0.00610886 0.00214948 0)
(0.00546958 0.00218347 0)
(0.0048184 0.00218978 0)
(0.00416439 0.00216576 0)
(0.00351727 0.00210825 0)
(0.00288748 0.00201372 0)
(0.00228618 0.00187845 0)
(0.00172533 0.00169903 0)
(0.00121771 0.00147302 0)
(0.000776539 0.00120019 0)
(0.000414893 0.00088405 0)
(0.000151858 0.000534007 0)
(2.40749e-05 0.000170182 0)
(-3.08473e-06 -2.49101e-05 0)
(-3.49119e-05 2.70112e-05 0)
(-0.000117669 0.000145596 0)
(-0.000251558 0.000305568 0)
(-0.000437903 0.000488331 0)
(-0.000677099 0.000679783 0)
(-0.000967752 0.000869665 0)
(-0.00130725 0.00105094 0)
(-0.00169221 0.00121913 0)
(-0.0021188 0.00137177 0)
(-0.00258298 0.00150793 0)
(-0.00308073 0.00162779 0)
(-0.00360823 0.00173232 0)
(-0.00416194 0.00182302 0)
(-0.00473873 0.00190168 0)
(-0.0053359 0.00197024 0)
(-0.00595118 0.00203063 0)
(-0.00658275 0.00208472 0)
(-0.00722922 0.00213422 0)
(-0.00788957 0.00218065 0)
(-0.00856312 0.00222536 0)
(-0.0092495 0.00226945 0)
(-0.00994858 0.00231381 0)
(-0.0106604 0.00235916 0)
(-0.0113853 0.00240599 0)
(-0.0121235 0.00245464 0)
(-0.0128753 0.00250527 0)
(-0.0136414 0.00255791 0)
(-0.014422 0.00261245 0)
(-0.0152176 0.00266864 0)
(-0.0160285 0.00272613 0)
(-0.0168548 0.00278446 0)
(-0.0176965 0.00284307 0)
(-0.0185537 0.00290127 0)
(-0.0194259 0.00295832 0)
(-0.0203125 0.00301336 0)
(-0.0212129 0.00306544 0)
(-0.022126 0.00311355 0)
(-0.0230503 0.00315658 0)
(-0.0239841 0.00319335 0)
(-0.0249255 0.00322263 0)
(-0.025872 0.00324314 0)
(-0.026821 0.00325354 0)
(-0.0277693 0.00325248 0)
(-0.0287134 0.00323858 0)
(-0.0296495 0.00321048 0)
(-0.0305735 0.00316683 0)
(-0.0314807 0.00310633 0)
(-0.0323663 0.00302773 0)
(-0.0332252 0.00292987 0)
(-0.0340519 0.00281171 0)
(-0.0348408 0.0026723 0)
(-0.035586 0.0025109 0)
(-0.0362816 0.00232689 0)
(-0.0369215 0.00211988 0)
(-0.0374996 0.0018897 0)
(-0.0380098 0.00163641 0)
(-0.0384462 0.00136033 0)
(-0.038803 0.00106205 0)
(-0.0390746 0.000742463 0)
(-0.0392557 0.000402737 0)
(-0.0393415 4.43537e-05 0)
(-0.0393275 -0.000330905 0)
(-0.0392098 -0.000720965 0)
(-0.0389851 -0.00112346 0)
(-0.0386506 -0.00153573 0)
(-0.0382043 -0.00195489 0)
(-0.037645 -0.00237779 0)
(-0.0369722 -0.00280109 0)
(-0.0361864 -0.00322127 0)
(-0.0352887 -0.00363466 0)
(-0.0342813 -0.00403754 0)
(-0.0331672 -0.0044261 0)
(-0.0319504 -0.00479656 0)
(-0.0306358 -0.00514519 0)
(-0.0292291 -0.00546835 0)
(-0.0277369 -0.0057626 0)
(-0.0261667 -0.00602467 0)
(-0.0245266 -0.00625161 0)
(-0.0228255 -0.00644075 0)
(-0.0210731 -0.00658982 0)
(-0.0192793 -0.00669695 0)
(-0.0174548 -0.00676071 0)
(-0.0156104 -0.00678017 0)
(-0.0137574 -0.00675488 0)
(-0.011907 -0.00668495 0)
(-0.0100707 -0.00657097 0)
(-0.00825961 -0.00641408 0)
(-0.00648482 -0.00621593 0)
(-0.00475702 -0.00597864 0)
(-0.00308643 -0.0057048 0)
(-0.00148273 -0.0053974 0)
(4.51115e-05 -0.00505981 0)
(0.00148886 -0.00469568 0)
(0.00284113 -0.00430894 0)
(0.0040955 -0.00390366 0)
(0.00524648 -0.00348403 0)
(0.00628963 -0.00305429 0)
(0.00722153 -0.00261863 0)
(0.00803984 -0.00218114 0)
(0.00874324 -0.00174575 0)
(0.00933147 -0.00131618 0)
(0.00980521 -0.000895873 0)
(0.0101661 -0.000487984 0)
(0.0104167 -9.53317e-05 0)
(0.0105603 0.000279607 0)
(0.010601 0.000634696 0)
(0.0105435 0.000968128 0)
(0.0103931 0.0012784 0)
(0.0101557 0.00156426 0)
(0.00983761 0.00182468 0)
(0.00944547 0.00205875 0)
(0.00898638 0.0022656 0)
(0.00846774 0.00244433 0)
(0.00789729 0.0025939 0)
(0.00728315 0.00271299 0)
(0.0066338 0.00279994 0)
(0.00595816 0.00285261 0)
(0.00526565 0.00286833 0)
(0.00456625 0.00284383 0)
(0.00387059 0.0027753 0)
(0.00319002 0.00265844 0)
(0.00253666 0.00248879 0)
(0.00192356 0.00226206 0)
(0.00136481 0.00197492 0)
(0.000875322 0.00162598 0)
(0.000470441 0.00121713 0)
(0.000173221 0.00075512 0)
(2.76757e-05 0.000255087 0)
(-6.0277e-06 -3.32947e-06 0)
(-5.34226e-05 9.87939e-05 0)
(-0.00016793 0.00027193 0)
(-0.000344873 0.000488535 0)
(-0.000583064 0.000728111 0)
(-0.000881391 0.000975003 0)
(-0.00123717 0.00121776 0)
(-0.00164675 0.00144851 0)
(-0.00210594 0.00166224 0)
(-0.00261029 0.00185623 0)
(-0.00315528 0.00202949 0)
(-0.00373649 0.00218237 0)
(-0.00434982 0.0023161 0)
(-0.00499149 0.00243257 0)
(-0.0056582 0.00253398 0)
(-0.00634708 0.00262274 0)
(-0.00705577 0.00270123 0)
(-0.00778238 0.00277177 0)
(-0.00852543 0.00283647 0)
(-0.00928389 0.00289724 0)
(-0.010057 0.00295575 0)
(-0.0108445 0.00301337 0)
(-0.0116462 0.00307124 0)
(-0.0124622 0.00313025 0)
(-0.0132927 0.00319103 0)
(-0.0141381 0.003254 0)
(-0.0149989 0.0033194 0)
(-0.0158756 0.00338725 0)
(-0.0167686 0.0034574 0)
(-0.0176783 0.00352956 0)
(-0.018605 0.00360328 0)
(-0.019549 0.00367796 0)
(-0.0205104 0.00375286 0)
(-0.021489 0.00382712 0)
(-0.0224844 0.00389977 0)
(-0.0234961 0.00396969 0)
(-0.0245231 0.00403566 0)
(-0.0255643 0.00409634 0)
(-0.0266181 0.00415032 0)
(-0.0276826 0.00419607 0)
(-0.0287556 0.004232 0)
(-0.0298344 0.00425643 0)
(-0.030916 0.00426765 0)
(-0.0319968 0.00426393 0)
(-0.0330731 0.0042435 0)
(-0.0341405 0.00420463 0)
(-0.0351945 0.00414558 0)
(-0.0362299 0.00406473 0)
(-0.0372413 0.00396049 0)
(-0.0382232 0.00383142 0)
(-0.0391695 0.00367621 0)
(-0.0400739 0.00349372 0)
(-0.04093 0.00328302 0)
(-0.0417314 0.00304339 0)
(-0.0424712 0.00277438 0)
(-0.0431429 0.00247583 0)
(-0.0437398 0.00214787 0)
(-0.0442554 0.00179096 0)
(-0.0446833 0.00140591 0)
(-0.0450175 0.000993888 0)
(-0.0452521 0.000556422 0)
(-0.0453819 9.5418e-05 0)
(-0.045402 -0.000386846 0)
(-0.045308 -0.000887728 0)
(-0.0450961 -0.00140423 0)
(-0.0447634 -0.001933 0)
(-0.0443076 -0.0024704 0)
(-0.0437271 -0.00301249 0)
(-0.0430212 -0.00355508 0)
(-0.0421902 -0.00409377 0)
(-0.0412351 -0.00462399 0)
(-0.0401582 -0.00514109 0)
(-0.0389623 -0.00564032 0)
(-0.0376515 -0.00611697 0)
(-0.0362308 -0.00656636 0)
(-0.0347061 -0.00698398 0)
(-0.0330842 -0.00736547 0)
(-0.0313729 -0.00770678 0)
(-0.0295808 -0.00800414 0)
(-0.0277173 -0.00825419 0)
(-0.0257924 -0.00845403 0)
(-0.023817 -0.00860122 0)
(-0.0218024 -0.0086939 0)
(-0.0197602 -0.00873079 0)
(-0.0177025 -0.00871122 0)
(-0.0156416 -0.00863516 0)
(-0.01359 -0.00850323 0)
(-0.0115598 -0.0083167 0)
(-0.00956337 -0.00807747 0)
(-0.0076125 -0.00778806 0)
(-0.00571864 -0.00745155 0)
(-0.00389267 -0.00707157 0)
(-0.00214481 -0.00665219 0)
(-0.000484492 -0.00619792 0)
(0.00107972 -0.00571355 0)
(0.00254025 -0.00520415 0)
(0.00389053 -0.00467495 0)
(0.00512509 -0.00413125 0)
(0.00623959 -0.00357832 0)
(0.00723083 -0.00302137 0)
(0.00809676 -0.0024654 0)
(0.00883645 -0.0019152 0)
(0.00945011 -0.00137524 0)
(0.00993896 -0.000849636 0)
(0.0103053 -0.000342108 0)
(0.0105522 0.000144028 0)
(0.0106838 0.000605874 0)
(0.0107048 0.00104094 0)
(0.0106209 0.00144712 0)
(0.0104381 0.00182262 0)
(0.0101633 0.00216593 0)
(0.00980345 0.00247571 0)
(0.00936638 0.00275071 0)
(0.00886009 0.00298965 0)
(0.00829306 0.00319112 0)
(0.00767414 0.00335342 0)
(0.00701261 0.00347445 0)
(0.00631819 0.00355161 0)
(0.00560113 0.00358168 0)
(0.00487224 0.0035608 0)
(0.00414298 0.00348446 0)
(0.00342557 0.00334761 0)
(0.00273308 0.00314486 0)
(0.00207963 0.00287094 0)
(0.00148068 0.00252123 0)
(0.000952841 0.00209267 0)
(0.000513628 0.00158474 0)
(0.000189511 0.00100065 0)
(3.03013e-05 0.000349718 0)
(-9.01782e-06 2.8029e-05 0)
(-7.25679e-05 0.000196165 0)
(-0.000220287 0.00043664 0)
(-0.000442396 0.000720199 0)
(-0.000734995 0.00102491 0)
(-0.00109528 0.00133397 0)
(-0.0015191 0.00163507 0)
(-0.0020016 0.00191976 0)
(-0.00253768 0.00218272 0)
(-0.00312216 0.00242115 0)
(-0.00374998 0.00263418 0)
(-0.00441632 0.00282238 0)
(-0.00511675 0.00298736 0)
(-0.0058473 0.00313144 0)
(-0.00660447 0.0032573 0)
(-0.00738532 0.00336785 0)
(-0.00818739 0.00346596 0)
(-0.00900874 0.00355441 0)
(-0.00984789 0.00363575 0)
(-0.0107038 0.00371229 0)
(-0.0115758 0.00378602 0)
(-0.0124635 0.00385863 0)
(-0.0133668 0.00393149 0)
(-0.014286 0.00400567 0)
(-0.0152212 0.00408197 0)
(-0.016173 0.00416091 0)
(-0.0171419 0.00424276 0)
(-0.0181284 0.00432755 0)
(-0.0191331 0.00441513 0)
(-0.0201565 0.00450512 0)
(-0.021199 0.00459696 0)
(-0.0222607 0.00468991 0)
(-0.023342 0.00478305 0)
(-0.0244425 0.00487531 0)
(-0.0255621 0.00496546 0)
(-0.0266999 0.0050521 0)
(-0.0278552 0.00513369 0)
(-0.0290265 0.00520858 0)
(-0.0302123 0.00527497 0)