/*--------------------------------*- C++ -*----------------------------------*\
| =========                 |                                                 |
| \\      /  F ield         | OpenFOAM: The Open Source CFD Toolbox           |
|  \\    /   O peration     | Version:  2112                                  |
|   \\  /    A nd           | Website:  www.openfoam.com                      |
|    \\/     M anipulation  |                                                 |
\*---------------------------------------------------------------------------*/
FoamFile
{
    version     2.0;
    format      ascii;
    arch        "LSB;label=32;scalar=64";
    class       volScalarField;
    location    "28";
    object      p;
}
// * * * * * * * * * * * * * * * * * * * * * * * * * * * * * * * * * * * * * //

dimensions      [0 2 -2 0 0 0 0];

internalField   nonuniform List<scalar> 
16641
(
-1.30632e-07
1.32762e-05
2.60484e-05
3.36243e-05
3.26796e-05
2.15441e-05
-2.71203e-07
-3.25892e-05
-7.48684e-05
-0.000126375
-0.0001863
-0.000253835
-0.000328223
-0.000408796
-0.000494996
-0.00058639
-0.000682669
-0.000783647
-0.00088925
-0.000999502
-0.00111451
-0.00123443
-0.00135949
-0.0014899
-0.00162589
-0.00176769
-0.00191547
-0.00206936
-0.00222944
-0.0023957
-0.00256807
-0.00274637
-0.00293033
-0.0031196
-0.00331368
-0.00351199
-0.0037138
-0.00391829
-0.00412449
-0.00433129
-0.00453747
-0.00474167
-0.0049424
-0.00513805
-0.00532691
-0.00550716
-0.00567688
-0.0058341
-0.00597682
-0.00610298
-0.00621057
-0.00629759
-0.00636214
-0.00640241
-0.00641674
-0.00640369
-0.006362
-0.00629072
-0.00618917
-0.00605705
-0.00589441
-0.0057017
-0.00547982
-0.00523011
-0.00495436
-0.00465484
-0.00433425
-0.00399565
-0.0036428
-0.00327961
-0.00291037
-0.00253968
-0.00217239
-0.00181345
-0.00146793
-0.00114085
-0.000837124
-0.000561469
-0.00031829
-0.000111591
5.51075e-05
0.000178861
0.000257364
0.000289014
0.000272952
0.000209088
9.81074e-05
-5.85434e-05
-0.000258684
-0.000499458
-0.000777485
-0.00108867
-0.00142868
-0.00179282
-0.00217615
-0.0025737
-0.00298048
-0.00339167
-0.00380266
-0.00420914
-0.00460722
-0.0049934
-0.0053647
-0.00571859
-0.00605307
-0.00636663
-0.00665821
-0.0069272
-0.00717338
-0.00739687
-0.00759809
-0.0077777
-0.00793652
-0.00807552
-0.0081957
-0.0082981
-0.00838373
-0.00845351
-0.00850827
-0.00854873
-0.00857553
-0.00858924
-0.00859051
-0.00858021
-0.00855975
-0.00853153
-0.00849956
-0.00846982
-0.00845155
-1.3519e-05
-8.9334e-08
8.8474e-06
1.19711e-05
7.76009e-06
-5.10769e-06
-2.71888e-05
-5.84989e-05
-9.87325e-05
-0.000147393
-0.000203881
-0.000267566
-0.000337836
-0.000414138
-0.000495999
-0.000583043
-0.000674998
-0.000771694
-0.000873052
-0.000979081
-0.00108986
-0.00120552
-0.00132624
-0.00145221
-0.00158362
-0.00172065
-0.00186347
-0.00201219
-0.00216687
-0.00232751
-0.00249403
-0.00266629
-0.00284404
-0.00302693
-0.00321454
-0.00340631
-0.00360158
-0.00379957
-0.00399938
-0.00419998
-0.00440021
-0.0045988
-0.00479433
-0.00498529
-0.00517004
-0.00534684
-0.00551388
-0.00566925
-0.00581103
-0.00593725
-0.00604595
-0.00613521
-0.00620316
-0.00624805
-0.00626826
-0.00626233
-0.00622906
-0.00616745
-0.00607683
-0.00595686
-0.00580752
-0.00562923
-0.00542279
-0.00518944
-0.00493089
-0.00464929
-0.00434724
-0.00402762
-0.00369395
-0.00335004
-0.00300004
-0.00264835
-0.00229961
-0.00195863
-0.00163026
-0.00131934
-0.00103061
-0.000768614
-0.000537594
-0.000341408
-0.000183444
-6.65353e-05
7.10447e-06
3.5939e-05
1.91497e-05
-4.33406e-05
-0.000150863
-0.000302017
-0.000494704
-0.000726175
-0.000993114
-0.00129173
-0.00161775
-0.00196672
-0.00233393
-0.00271463
-0.00310407
-0.00349767
-0.00389105
-0.00428014
-0.00466124
-0.00503108
-0.00538681
-0.00572609
-0.00604702
-0.00634817
-0.00662856
-0.00688761
-0.00712511
-0.00734116
-0.00753615
-0.00771066
-0.00786548
-0.00800149
-0.00811962
-0.00822086
-0.00830617
-0.00837645
-0.00843255
-0.00847525
-0.00850528
-0.00852336
-0.00853028
-0.00852705
-0.00851505
-0.00849634
-0.00847398
-0.00845166
-0.00843328
-2.63103e-05
-8.97375e-06
-3.16786e-08
1.6718e-06
-3.84503e-06
-1.74888e-05
-3.96802e-05
-7.04102e-05
-0.000109427
-0.00015632
-0.000210587
-0.000271687
-0.000339088
-0.000412305
-0.000490924
-0.000574608
-0.000663117
-0.000756298
-0.000854083
-0.000956483
-0.00106357
-0.00117548
-0.00129236
-0.0014144
-0.00154178
-0.00167468
-0.00181325
-0.0019576
-0.00210781
-0.00226388
-0.00242576
-0.00259331
-0.00276633
-0.0029445
-0.00312744
-0.00331463
-0.00350547
-0.00369922
-0.00389505
-0.00409199
-0.00428894
-0.00448468
-0.00467786
-0.00486703
-0.0050506
-0.00522689
-0.00539412
-0.00555046
-0.00569399
-0.00582279
-0.0059349
-0.00602843
-0.0061015
-0.00615235
-0.00617935
-0.00618103
-0.00615612
-0.0061036
-0.00602274
-0.00591313
-0.00577471
-0.00560779
-0.00541311
-0.00519182
-0.00494556
-0.00467644
-0.00438659
-0.00407939
-0.00375797
-0.00342604
-0.00308766
-0.00274718
-0.00240915
-0.00207828
-0.00175936
-0.00145716
-0.00117637
-0.000921454
-0.00069662
-0.000505682
-0.00035199
-0.000238349
-0.000166953
-0.000139322
-0.000156267
-0.000217865
-0.000323454
-0.000471648
-0.000660371
-0.00088691
-0.00114798
-0.00143982
-0.00175828
-0.00209891
-0.00245711
-0.00282821
-0.00320757
-0.0035907
-0.00397335
-0.00435155
-0.00472174
-0.00508074
-0.00542585
-0.00575482
-0.00606585
-0.00635762
-0.00662922
-0.00688014
-0.0071102
-0.00731957
-0.00750863
-0.007678
-0.00782845
-0.00796085
-0.00807614
-0.00817528
-0.00825924
-0.00832892
-0.00838517
-0.00842881
-0.00846058
-0.00848121
-0.00849149
-0.00849231
-0.0084848
-0.00847054
-0.00845169
-0.00842942
-0.00840338
-3.40137e-05
-1.21282e-05
-1.80657e-06
-1.96318e-07
-6.12621e-06
-2.01237e-05
-4.23967e-05
-7.28181e-05
-0.000111099
-0.000156837
-0.000209554
-0.000268749
-0.000333935
-0.000404669
-0.000480571
-0.000561345
-0.000646773
-0.000736728
-0.000831161
-0.000930097
-0.00103362
-0.00114187
-0.00125502
-0.00137324
-0.00149674
-0.0016257
-0.00176028
-0.00190061
-0.00204678
-0.00219883
-0.00235671
-0.00252035
-0.00268956
-0.00286407
-0.00304355
-0.00322753
-0.00341547
-0.00360668
-0.00380039
-0.00399567
-0.0041915
-0.00438669
-0.00457995
-0.00476986
-0.00495488
-0.00513335
-0.00530352
-0.00546355
-0.00561153
-0.00574552
-0.00586357
-0.00596372
-0.00604408
-0.00610283
-0.00613829
-0.0061489
-0.00613335
-0.00609054
-0.00601964
-0.00592018
-0.005792
-0.00563534
-0.00545085
-0.00523961
-0.00500326
-0.00474411
-0.00446297
-0.00416437
-0.00385118
-0.00352696
-0.00319575
-0.00286183
-0.00252974
-0.00220418
-0.00188993
-0.00159178
-0.0013144
-0.00106229
-0.000839666
-0.000650374
-0.000497787
-0.000384738
-0.000313445
-0.000285453
-0.000301592
-0.000361956
-0.000465891
-0.000612017
-0.000798256
-0.00102189
-0.00127962
-0.00156768
-0.00188189
-0.00221785
-0.00257087
-0.00293632
-0.00330958
-0.00368617
-0.00406187
-0.00443277
-0.00479534
-0.00514649
-0.00548359
-0.00580447
-0.00610743
-0.00639122
-0.00665504
-0.00689846
-0.00712138
-0.00732404
-0.00750689
-0.00767061
-0.007816
-0.00794399
-0.00805553
-0.00815162
-0.00823323
-0.00830129
-0.00835668
-0.00840019
-0.00843255
-0.00845445
-0.00846655
-0.00846954
-0.00846417
-0.00845151
-0.00843295
-0.00840748
-0.00837162
-3.32899e-05
-8.01218e-06
3.49942e-06
5.17502e-06
-1.04168e-06
-1.53788e-05
-3.78481e-05
-6.8191e-05
-0.000106047
-0.000150985
-0.000202525
-0.00026018
-0.000323486
-0.000392026
-0.00046545
-0.000543491
-0.000625963
-0.000712765
-0.000803875
-0.000899343
-0.00099928
-0.00110384
-0.00121322
-0.00132763
-0.00144728
-0.00157238
-0.00170312
-0.00183966
-0.00198212
-0.00213056
-0.00228502
-0.00244542
-0.00261164
-0.00278349
-0.00296065
-0.00314275
-0.00332928
-0.00351963
-0.00371307
-0.00390875
-0.00410566
-0.00430268
-0.00449855
-0.00469187
-0.00488112
-0.00506463
-0.00524064
-0.0054073
-0.00556267
-0.00570476
-0.00583155
-0.00594102
-0.00603121
-0.00610021
-0.00614625
-0.00616768
-0.00616309
-0.00613128
-0.00607133
-0.00598267
-0.00586504
-0.0057186
-0.00554393
-0.00534204
-0.00511428
-0.00486209
-0.00458956
-0.00429797
-0.00399086
-0.00367196
-0.00334528
-0.00301513
-0.00268607
-0.00236279
-0.00205013
-0.0017529
-0.00147584
-0.00122349
-0.00100013
-0.000809668
-0.000655549
-0.000540669
-0.000467305
-0.00043706
-0.000450812
-0.000508692
-0.000610073
-0.000753586
-0.000937155
-0.00115805
-0.00141294
-0.00169803
-0.0020091
-0.00234166
-0.00269105
-0.00305253
-0.00342145
-0.00379331
-0.00416384
-0.00452915
-0.00488572
-0.00523047
-0.00556082
-0.00587465
-0.00617035
-0.00644674
-0.00670311
-0.00693911
-0.00715477
-0.0073504
-0.00752655
-0.00768397
-0.00782355
-0.00794628
-0.00805317
-0.00814528
-0.00822361
-0.00828912
-0.0083427
-0.00838513
-0.00841713
-0.00843929
-0.00845213
-0.00845611
-0.00845162
-0.00843924
-0.00841972
-0.00839026
-0.0083448
-2.2303e-05
4.81927e-06
1.68802e-05
1.83806e-05
1.17097e-05
-3.14641e-06
-2.6037e-05
-5.65796e-05
-9.43335e-05
-0.000138821
-0.000189544
-0.00024601
-0.000307763
-0.000374405
-0.00044561
-0.000521138
-0.000600833
-0.000684628
-0.000772536
-0.000864641
-0.000961093
-0.00106208
-0.00116783
-0.0012786
-0.00139463
-0.00151618
-0.00164347
-0.00177671
-0.00191607
-0.00206168
-0.00221359
-0.00237182
-0.0025363
-0.0027069
-0.00288338
-0.00306541
-0.00325257
-0.00344429
-0.0036399
-0.0038386
-0.00403941
-0.00424125
-0.00444286
-0.00464284
-0.00483965
-0.0050316
-0.00521689
-0.0053936
-0.00555971
-0.00571316
-0.00585183
-0.0059736
-0.0060764
-0.0061582
-0.0062171
-0.00625137
-0.00625945
-0.00624004
-0.00619212
-0.006115
-0.00600835
-0.00587223
-0.00570715
-0.00551406
-0.00529433
-0.00504963
-0.00478273
-0.00449616
-0.00419319
-0.00387747
-0.003553
-0.00322411
-0.00289539
-0.00257159
-0.00225758
-0.00195826
-0.00167843
-0.00142274
-0.00119554
-0.00100085
-0.000842205
-0.000722605
-0.000644427
-0.000609361
-0.000618369
-0.000671648
-0.000768626
-0.000907969
-0.00108762
-0.00130483
-0.00155627
-0.00183809
-0.00214601
-0.00247548
-0.00282175
-0.00318001
-0.00354553
-0.00391371
-0.00428024
-0.00464116
-0.00499292
-0.00533241
-0.00565706
-0.00596478
-0.00625399
-0.00652359
-0.00677292
-0.00700175
-0.00721018
-0.00739864
-0.00756778
-0.00771845
-0.00785165
-0.00796844
-0.00806993
-0.00815723
-0.00823141
-0.00829348
-0.00834434
-0.00838478
-0.00841546
-0.00843691
-0.00844951
-0.0084535
-0.00844893
-0.008436
-0.00841494
-0.0083816
-0.00832793
-2.61616e-07
2.71565e-05
3.8952e-05
3.98174e-05
3.23397e-05
1.66526e-05
-6.96388e-06
-3.80214e-05
-7.60034e-05
-0.000120382
-0.00017063
-0.000226242
-0.000286762
-0.000351806
-0.000421068
-0.000494336
-0.000571488
-0.000652498
-0.000737418
-0.000826383
-0.000919585
-0.00101727
-0.00111971
-0.00122721
-0.00134008
-0.00145863
-0.00158314
-0.00171389
-0.0018511
-0.00199497
-0.00214564
-0.00230319
-0.00246764
-0.0026389
-0.00281684
-0.00300118
-0.00319157
-0.0033875
-0.00358833
-0.0037933
-0.00400145
-0.00421169
-0.00442275
-0.00463321
-0.00484146
-0.00504576
-0.0052442
-0.00543478
-0.00561537
-0.00578377
-0.00593773
-0.00607502
-0.0061934
-0.00629072
-0.00636494
-0.00641418
-0.00643678
-0.00643131
-0.00639664
-0.00633198
-0.00623691
-0.00611142
-0.00595593
-0.00577135
-0.00555903
-0.00532063
-0.00505866
-0.00477587
-0.00447547
-0.0041611
-0.0038368
-0.00350692
-0.00317607
-0.00284909
-0.00253091
-0.0022265
-0.00194077
-0.00167846
-0.00144407
-0.00124172
-0.0010751
-0.000947325
-0.000860918
-0.000817699
-0.000818748
-0.000864371
-0.000954086
-0.00108663
-0.00125999
-0.00147145
-0.00171766
-0.00199475
-0.00229839
-0.00262396
-0.00296661
-0.00332143
-0.00368358
-0.00404837
-0.00441135
-0.00476848
-0.00511613
-0.00545113
-0.00577086
-0.00607323
-0.00635664
-0.00662004
-0.00686282
-0.00708483
-0.00728624
-0.00746758
-0.00762962
-0.00777332
-0.00789977
-0.00801015
-0.00810566
-0.00818752
-0.00825684
-0.00831471
-0.00836204
-0.00839965
-0.00842818
-0.00844807
-0.00845961
-0.00846282
-0.00845752
-0.00844358
-0.00842087
-0.00838425
-0.00832433
3.30793e-05
5.93471e-05
7.00021e-05
6.96492e-05
6.08974e-05
4.39848e-05
1.92913e-05
-1.26128e-05
-5.11468e-05
-9.57363e-05
-0.000145824
-0.00020089
-0.00026048
-0.00032422
-0.000391828
-0.000463119
-0.000538015
-0.000616532
-0.000698779
-0.000784942
-0.000875278
-0.000970093
-0.00106973
-0.00117457
-0.00128499
-0.00140136
-0.00152407
-0.00165346
-0.00178984
-0.0019335
-0.00208466
-0.00224349
-0.00241009
-0.00258448
-0.00276658
-0.00295619
-0.00315301
-0.00335657
-0.00356628
-0.00378137
-0.00400087
-0.00422368
-0.00444845
-0.00467371
-0.00489774
-0.0051187
-0.00533456
-0.00554316
-0.00574224
-0.00592943
-0.00610233
-0.00625853
-0.00639564
-0.00651136
-0.00660351
-0.00667005
-0.0067092
-0.00671941
-0.00669945
-0.00664843
-0.00656585
-0.00645161
-0.00630608
-0.00613009
-0.00592493
-0.00569237
-0.00543476
-0.00515484
-0.00485583
-0.00454138
-0.00421554
-0.00388268
-0.00354748
-0.00321481
-0.0028897
-0.00257719
-0.00228231
-0.00200993
-0.00176468
-0.00155084
-0.00137226
-0.00123224
-0.00113347
-0.00107794
-0.0010669
-0.00110082
-0.00117935
-0.00130135
-0.00146488
-0.00166731
-0.00190532
-0.00217502
-0.00247206
-0.00279175
-0.00312917
-0.00347929
-0.00383715
-0.00419791
-0.00455702
-0.00491028
-0.00525394
-0.00558474
-0.00589997
-0.00619746
-0.00647562
-0.00673334
-0.00697008
-0.00718567
-0.0073804
-0.00755486
-0.00770992
-0.00784664
-0.00796623
-0.00806997
-0.00815918
-0.00823516
-0.00829912
-0.00835221
-0.00839541
-0.00842954
-0.00845524
-0.00847292
-0.00848277
-0.00848469
-0.00847828
-0.00846319
-0.00843903
-0.00840005
-0.00833597
7.76815e-05
0.000101489
0.000110137
0.00010794
9.74009e-05
7.88356e-05
5.26982e-05
1.96166e-05
-1.97795e-05
-6.48782e-05
-0.000115099
-0.000169914
-0.000228871
-0.000291612
-0.000357879
-0.000427527
-0.000500523
-0.000576938
-0.000656943
-0.000740794
-0.000828822
-0.000921411
-0.00101899
-0.00112203
-0.00123099
-0.00134635
-0.00146859
-0.00159815
-0.00173545
-0.00188087
-0.00203475
-0.00219736
-0.00236888
-0.00254943
-0.00273899
-0.00293743
-0.0031445
-0.00335975
-0.0035826
-0.00381223
-0.00404768
-0.00428772
-0.00453096
-0.00477576
-0.00502032
-0.00526261
-0.00550044
-0.00573148
-0.00595328
-0.0061633
-0.00635895
-0.00653763
-0.00669678
-0.00683395
-0.0069468
-0.00703316
-0.0070911
-0.00711899
-0.00711547
-0.00707957
-0.00701071
-0.00690872
-0.00677391
-0.00660702
-0.00640925
-0.00618255
-0.00592902
-0.00565143
-0.00535298
-0.00503732
-0.0047085
-0.00437091
-0.00402927
-0.00368851
-0.0033537
-0.00303001
-0.00272257
-0.00243638
-0.00217624
-0.00194661
-0.00175153
-0.00159451
-0.00147847
-0.00140562
-0.00137744
-0.00139459
-0.00145694
-0.0015635
-0.00171252
-0.00190145
-0.00212706
-0.00238551
-0.00267244
-0.00298314
-0.0033126
-0.00365572
-0.00400737
-0.0043626
-0.00471669
-0.00506529
-0.00540449
-0.00573088
-0.00604162
-0.00633444
-0.00660765
-0.00686013
-0.00709127
-0.00730093
-0.00748944
-0.00765742
-0.00780582
-0.0079358
-0.00804867
-0.00814582
-0.00822866
-0.0082986
-0.00835697
-0.00840496
-0.00844364
-0.00847387
-0.00849629
-0.00851131
-0.00851907
-0.00851938
-0.00851172
-0.00849557
-0.00847037
-0.00843003
-0.00836387
0.000133345
0.000153501
0.00015932
0.000154661
0.000141822
0.000121179
9.32394e-05
5.86653e-05
1.8118e-05
-2.77692e-05
-7.84023e-05
-0.000133254
-0.000191883
-0.000253952
-0.000319239
-0.000387644
-0.000459188
-0.00053401
-0.000612353
-0.000694557
-0.000781039
-0.000872284
-0.000968823
-0.00107122
-0.00118007
-0.00129595
-0.00141947
-0.00155118
-0.00169163
-0.00184132
-0.0020007
-0.00217014
-0.00234994
-0.00254028
-0.00274122
-0.0029527
-0.00317444
-0.00340604
-0.00364684
-0.00389601
-0.00415247
-0.00441489
-0.00468173
-0.00495122
-0.00522134
-0.00548989
-0.00575449
-0.00601259
-0.00626153
-0.00649856
-0.00672091
-0.00692578
-0.00711046
-0.0072723
-0.00740883
-0.00751775
-0.00759701
-0.00764486
-0.00765984
-0.0076409
-0.00758737
-0.00749902
-0.00737607
-0.00721922
-0.00702964
-0.0068091
-0.00655976
-0.00628432
-0.00598594
-0.00566825
-0.00533527
-0.0049914
-0.00464138
-0.00429017
-0.00394291
-0.00360486
-0.00328125
-0.00297726
-0.00269783
-0.00244765
-0.00223096
-0.00205155
-0.00191258
-0.00181656
-0.00176523
-0.00175956
-0.00179965
-0.00188478
-0.00201341
-0.00218317
-0.00239098
-0.0026331
-0.00290523
-0.00320264
-0.00352031
-0.00385303
-0.00419558
-0.00454284
-0.00488994
-0.00523233
-0.00556592
-0.00588713
-0.00619294
-0.00648093
-0.00674929
-0.00699677
-0.0072227
-0.00742692
-0.00760971
-0.00777175
-0.00791401
-0.00803772
-0.00814426
-0.00823511
-0.00831181
-0.00837585
-0.00842864
-0.00847149
-0.00850553
-0.00853167
-0.00855061
-0.00856276
-0.00856825
-0.00856685
-0.00855797
-0.00854099
-0.00851526
-0.00847459
-0.00840825
0.000199756
0.000215166
0.000217385
0.000209681
0.000194058
0.000170939
0.000140865
0.000104511
6.25475e-05
1.5609e-05
-3.57051e-05
-9.08837e-05
-0.000149507
-0.000211272
-0.000275999
-0.000343645
-0.0004143
-0.000488178
-0.00056561
-0.000647033
-0.000732971
-0.000824023
-0.00092084
-0.00102412
-0.00113457
-0.00125293
-0.00137992
-0.00151625
-0.0016626
-0.00181961
-0.00198784
-0.00216778
-0.00235982
-0.00256422
-0.00278109
-0.00301038
-0.00325182
-0.00350494
-0.00376905
-0.0040432
-0.00432616
-0.00461647
-0.00491239
-0.00521194
-0.00551291
-0.00581286
-0.00610918
-0.0063991
-0.00667972
-0.0069481
-0.00720125
-0.0074362
-0.00765005
-0.00784
-0.00800344
-0.00813793
-0.00824131
-0.00831172
-0.00834763
-0.00834786
-0.00831167
-0.00823875
-0.00812925
-0.00798377
-0.00780344
-0.0075899
-0.00734528
-0.00707219
-0.00677374
-0.0064535
-0.00611544
-0.00576397
-0.00540378
-0.00503987
-0.00467744
-0.0043218
-0.00397833
-0.00365232
-0.00334892
-0.00307302
-0.00282914
-0.00262135
-0.00245312
-0.00232729
-0.00224596
-0.00221043
-0.00222116
-0.00227777
-0.00237898
-0.00252273
-0.00270613
-0.00292561
-0.00317701
-0.00345565
-0.00375651
-0.00407433
-0.00440381
-0.00473968
-0.0050769
-0.00541073
-0.00573685
-0.00605149
-0.0063514
-0.00663397
-0.0068972
-0.00713969
-0.00736066
-0.00755984
-0.00773747
-0.00789416
-0.00803092
-0.00814899
-0.0082498
-0.00833493
-0.00840596
-0.0084645
-0.00851204
-0.00854998
-0.00857953
-0.00860168
-0.00861717
-0.00862648
-0.00862973
-0.0086267
-0.00861678
-0.00859931
-0.00857359
-0.00853355
-0.00846872
0.000276502
0.000286141
0.000284048
0.000272759
0.00025391
0.000227958
0.000195456
0.000157066
0.000113445
6.52167e-05
1.29531e-05
-4.28566e-05
-0.00010183
-0.00016371
-0.000228377
-0.000295854
-0.000366313
-0.00044006
-0.000517528
-0.000599267
-0.000685929
-0.000778241
-0.000876997
-0.000983037
-0.00109723
-0.00122047
-0.00135363
-0.00149758
-0.00165314
-0.00182109
-0.00200212
-0.00219682
-0.00240567
-0.00262898
-0.00286688
-0.00311931
-0.00338597
-0.0036663
-0.00395948
-0.00426441
-0.00457971
-0.00490368
-0.00523439
-0.0055696
-0.00590685
-0.00624347
-0.00657658
-0.00690318
-0.00722016
-0.00752434
-0.00781254
-0.0080816
-0.00832846
-0.00855017
-0.00874397
-0.00890732
-0.00903794
-0.00913386
-0.00919343
-0.00921542
-0.00919896
-0.00914367
-0.00904957
-0.00891721
-0.0087476
-0.00854228
-0.00830327
-0.0080331
-0.00773478
-0.00741179
-0.00706805
-0.00670788
-0.00633598
-0.00595731
-0.0055771
-0.00520074
-0.00483367
-0.00448136
-0.00414914
-0.00384213
-0.00356513
-0.00332252
-0.00311815
-0.00295523
-0.00283629
-0.00276305
-0.00273639
-0.00275634
-0.00282203
-0.00293175
-0.00308292
-0.00327225
-0.00349576
-0.0037489
-0.00402673
-0.00432399
-0.00463531
-0.00495531
-0.00527877
-0.00560077
-0.00591676
-0.00622271
-0.00651513
-0.00679116
-0.00704857
-0.00728576
-0.00750176
-0.00769615
-0.00786905
-0.00802101
-0.00815297
-0.00826615
-0.00836203
-0.00844217
-0.00850826
-0.00856194
-0.00860481
-0.00863834
-0.00866382
-0.00868232
-0.00869467
-0.00870137
-0.00870262
-0.00869821
-0.00868756
-0.00867002
-0.00864487
-0.00860632
-0.00854444
0.000363063
0.000365958
0.000358889
0.00034353
0.000321067
0.000291974
0.000256794
0.000216147
0.000170653
0.000120899
6.74156e-05
1.06473e-05
-4.9077e-05
-0.000111563
-0.000176764
-0.000244787
-0.000315898
-0.000390512
-0.000469183
-0.000552594
-0.000641537
-0.000736894
-0.000839619
-0.00095072
-0.00107124
-0.00120224
-0.00134477
-0.00149986
-0.0016685
-0.00185159
-0.00204994
-0.00226425
-0.00249504
-0.00274265
-0.00300722
-0.0032886
-0.00358643
-0.00390001
-0.00422836
-0.00457018
-0.00492386
-0.00528747
-0.0056588
-0.00603537
-0.00641444
-0.00679306
-0.00716811
-0.00753635
-0.00789443
-0.00823896
-0.00856657
-0.00887393
-0.00915781
-0.00941513
-0.00964298
-0.00983872
-0.00999994
-0.0101246
-0.0102109
-0.0102575
-0.0102635
-0.0102283
-0.0101519
-0.0100347
-0.00987768
-0.00968212
-0.00944997
-0.00918363
-0.00888599
-0.00856041
-0.00821071
-0.00784111
-0.00745624
-0.00706104
-0.00666071
-0.00626069
-0.00586649
-0.00548371
-0.00511786
-0.00477429
-0.00445811
-0.00417403
-0.0039263
-0.00371857
-0.00355385
-0.00343435
-0.00336147
-0.00333575
-0.00335683
-0.00342343
-0.00353343
-0.00368388
-0.0038711
-0.00409079
-0.00433812
-0.00460792
-0.00489481
-0.00519332
-0.0054981
-0.00580402
-0.00610629
-0.00640062
-0.00668323
-0.00695099
-0.00720136
-0.00743251
-0.00764319
-0.0078328
-0.00800126
-0.008149
-0.00827683
-0.00838594
-0.00847773
-0.00855381
-0.00861584
-0.00866553
-0.00870453
-0.00873438
-0.00875646
-0.00877191
-0.00878162
-0.00878617
-0.00878583
-0.00878044
-0.00876948
-0.00875233
-0.0087283
-0.00869201
-0.00863422
0.00045879
0.000454007
0.000441346
0.000421489
0.000395079
0.000362589
0.000324523
0.000281432
0.000233868
0.000182357
0.000127366
6.9273e-05
8.33457e-06
-5.53355e-05
-0.000121778
-0.000191203
-0.000263988
-0.000340677
-0.000421962
-0.000508677
-0.000601778
-0.000702319
-0.000811436
-0.000930322
-0.00106021
-0.00120235
-0.00135797
-0.00152827
-0.00171439
-0.00191738
-0.00213813
-0.00237741
-0.00263578
-0.00291357
-0.00321085
-0.00352739
-0.00386267
-0.00421583
-0.00458567
-0.00497065
-0.0053689
-0.00577821
-0.00619608
-0.00661974
-0.00704618
-0.00747217
-0.00789434
-0.00830919
-0.00871316
-0.00910266
-0.00947412
-0.00982405
-0.0101491
-0.0104459
-0.0107117
-0.0109435
-0.0111388
-0.0112955
-0.0114118
-0.0114861
-0.0115174
-0.0115051
-0.011449
-0.0113493
-0.0112069
-0.0110229
-0.0107992
-0.0105379
-0.0102419
-0.00991422
-0.00955867
-0.0091793
-0.00878064
-0.00836754
-0.00794518
-0.00751896
-0.00709447
-0.00667738
-0.00627338
-0.00588804
-0.00552676
-0.0051946
-0.00489624
-0.00463581
-0.00441683
-0.00424211
-0.00411363
-0.00403254
-0.00399908
-0.00401256
-0.0040714
-0.00417313
-0.0043145
-0.00449153
-0.00469965
-0.00493385
-0.0051888
-0.00545901
-0.00573903
-0.00602353
-0.00630751
-0.00658638
-0.00685606
-0.00711307
-0.00735457
-0.00757838
-0.00778298
-0.00796745
-0.00813151
-0.00827535
-0.00839964
-0.00850543
-0.00859404
-0.008667
-0.00872598
-0.0087727
-0.00880882
-0.00883593
-0.00885547
-0.00886865
-0.00887645
-0.0088795
-0.00887814
-0.00887231
-0.00886154
-0.00884528
-0.00882289
-0.00878947
-0.00873665
0.00056288
0.000549507
0.000530695
0.000505963
0.00047533
0.000439236
0.00039812
0.000352425
0.000302606
0.000249099
0.000192283
0.000132446
6.97532e-05
4.21885e-06
-6.43064e-05
-0.000136152
-0.00021183
-0.000292029
-0.000377601
-0.000469553
-0.000569023
-0.00067726
-0.000795597
-0.000925433
-0.0010682
-0.00122534
-0.00139829
-0.00158839
-0.00179693
-0.00202507
-0.00227379
-0.00254388
-0.0028359
-0.00315012
-0.0034865
-0.00384467
-0.00422392
-0.00462316
-0.00504093
-0.00547542
-0.00592445
-0.00638551
-0.00685581
-0.00733227
-0.00781159
-0.00829027
-0.00876467
-0.00923107
-0.00968569
-0.0101247
-0.0105445
-0.0109412
-0.0113115
-0.0116519
-0.0119593
-0.0122308
-0.0124638
-0.0126561
-0.0128055
-0.0129107
-0.0129703
-0.0129836
-0.0129504
-0.0128707
-0.0127451
-0.0125748
-0.0123613
-0.0121066
-0.0118133
-0.0114845
-0.0111237
-0.0107347
-0.0103219
-0.00989015
-0.00944441
-0.00899007
-0.00853273
-0.0080781
-0.00763201
-0.00720021
-0.00678837
-0.00640192
-0.00604595
-0.00572509
-0.00544345
-0.00520443
-0.00501072
-0.00486415
-0.00476567
-0.00471531
-0.00471215
-0.00475435
-0.00483921
-0.00496322
-0.0051222
-0.00531139
-0.00552562
-0.00575947
-0.00600742
-0.00626402
-0.00652403
-0.00678259
-0.00703529
-0.00727827
-0.00750833
-0.0077229
-0.00792009
-0.00809866
-0.00825798
-0.00839799
-0.00851913
-0.00862224
-0.00870849
-0.00877932
-0.00883632
-0.00888115
-0.00891549
-0.00894095
-0.00895898
-0.00897086
-0.00897762
-0.00897997
-0.00897831
-0.00897266
-0.00896265
-0.0089478
-0.00892753
-0.00889749
-0.00885021
0.000674335
0.000651506
0.000626019
0.000596091
0.000561014
0.000521159
0.000476864
0.000428424
0.000376165
0.000320402
0.000261399
0.000199332
0.000134252
6.60521e-05
-5.54529e-06
-8.10106e-05
-0.000161011
-0.000246401
-0.000338214
-0.00043765
-0.00054605
-0.000664875
-0.000795674
-0.000940062
-0.00109968
-0.00127618
-0.00147115
-0.00168612
-0.00192248
-0.00218149
-0.00246416
-0.00277128
-0.00310335
-0.00346052
-0.00384262
-0.00424907
-0.00467891
-0.00513078
-0.00560294
-0.00609325
-0.00659921
-0.00711801
-0.00764652
-0.00818135
-0.00871892
-0.00925545
-0.00978707
-0.0103098
-0.0108197
-0.0113127
-0.0117849
-0.0122326
-0.012652
-0.0130397
-0.0133924
-0.0137072
-0.0139812
-0.0142122
-0.014398
-0.0145369
-0.0146277
-0.0146694
-0.0146616
-0.0146043
-0.0144979
-0.0143433
-0.0141419
-0.0138957
-0.0136068
-0.0132781
-0.012913
-0.012515
-0.0120885
-0.0116379
-0.0111682
-0.0106846
-0.0101927
-0.00969818
-0.00920691
-0.00872483
-0.00825782
-0.00781162
-0.00739174
-0.00700332
-0.00665103
-0.00633896
-0.00607052
-0.00584832
-0.00567413
-0.0055488
-0.00547222
-0.00544332
-0.00546012
-0.00551972
-0.00561847
-0.00575203
-0.00591552
-0.00610366
-0.00631098
-0.00653195
-0.00676116
-0.00699345
-0.00722409
-0.00744884
-0.00766406
-0.00786675
-0.00805459
-0.00822593
-0.00837976
-0.00851566
-0.00863375
-0.00873462
-0.00881923
-0.00888883
-0.00894488
-0.00898896
-0.00902269
-0.00904766
-0.00906532
-0.00907699
-0.00908371
-0.00908627
-0.00908513
-0.00908039
-0.00907175
-0.00905883
-0.00904111
-0.0090148
-0.00897341
0.000791948
0.000758831
0.000726195
0.000690804
0.00065111
0.00060738
0.000559803
0.000508488
0.000453591
0.000395278
0.000333669
0.000268804
0.000200594
0.000128791
5.29664e-05
-2.75139e-05
-0.000113492
-0.000206013
-0.000306312
-0.000415801
-0.000536045
-0.000668733
-0.000815643
-0.000978611
-0.00115949
-0.00136013
-0.00158228
-0.0018276
-0.0020976
-0.00239355
-0.00271648
-0.00306713
-0.00344586
-0.0038527
-0.00428723
-0.00474864
-0.00523568
-0.0057467
-0.00627959
-0.0068319
-0.00740079
-0.00798309
-0.00857536
-0.0091739
-0.00977484
-0.0103741
-0.0109676
-0.0115512
-0.0121206
-0.0126716
-0.0132003
-0.0137026
-0.0141747
-0.0146131
-0.0150144
-0.0153755
-0.0156935
-0.015966
-0.0161908
-0.0163662
-0.0164906
-0.0165632
-0.0165832
-0.0165506
-0.0164655
-0.0163289
-0.0161417
-0.0159058
-0.0156231
-0.0152962
-0.0149282
-0.0145226
-0.0140833
-0.0136146
-0.0131212
-0.0126082
-0.012081
-0.0115454
-0.011007
-0.010472
-0.00994637
-0.00943614
-0.00894717
-0.00848506
-0.00805507
-0.00766195
-0.00730989
-0.00700233
-0.00674195
-0.00653053
-0.00636889
-0.00625689
-0.00619342
-0.00617641
-0.00620289
-0.00626909
-0.00637059
-0.00650242
-0.00665926
-0.0068356
-0.0070259
-0.00722478
-0.00742717
-0.00762844
-0.00782449
-0.00801184
-0.00818768
-0.00834985
-0.00849689
-0.00862795
-0.00874277
-0.00884157
-0.00892503
-0.00899415
-0.00905021
-0.00909463
-0.00912892
-0.0091546
-0.0091731
-0.00918571
-0.00919349
-0.00919726
-0.00919753
-0.00919445
-0.00918784
-0.00917735
-0.00916258
-0.00914024
-0.00910483
0.000914275
0.000870076
0.000829868
0.000788798
0.000744365
0.000696678
0.000645733
0.000591408
0.000533652
0.000472446
0.00040774
0.000339409
0.000267204
0.00019071
0.000109324
2.22266e-05
-7.16233e-05
-0.000173481
-0.000284805
-0.000407242
-0.000542594
-0.000692791
-0.000859846
-0.00104582
-0.00125277
-0.00148272
-0.00173758
-0.00201911
-0.00232886
-0.00266811
-0.00303784
-0.00343866
-0.00387079
-0.00433402
-0.00482769
-0.00535068
-0.00590142
-0.0064779
-0.00707766
-0.00769789
-0.00833539
-0.00898665
-0.00964789
-0.0103151
-0.0109841
-0.0116507
-0.0123103
-0.0129586
-0.0135913
-0.0142039
-0.0147924
-0.0153524
-0.0158802
-0.0163721
-0.0168246
-0.0172345
-0.0175988
-0.0179152
-0.0181812
-0.018395
-0.0185552
-0.0186606
-0.0187105
-0.0187045
-0.0186428
-0.0185261
-0.0183552
-0.0181315
-0.017857
-0.0175339
-0.0171651
-0.0167536
-0.0163031
-0.0158178
-0.0153019
-0.0147605
-0.0141986
-0.0136218
-0.0130359
-0.0124467
-0.0118606
-0.0112835
-0.0107218
-0.0101814
-0.00966801
-0.00918714
-0.00874369
-0.00834199
-0.00798566
-0.0076775
-0.00741941
-0.00721231
-0.00705613
-0.00694978
-0.0068912
-0.00687742
-0.00690463
-0.00696837
-0.00706361
-0.007185
-0.00732699
-0.00748405
-0.0076508
-0.00782222
-0.00799374
-0.00816136
-0.00832169
-0.00847205
-0.0086104
-0.00873539
-0.00884626
-0.00894281
-0.00902536
-0.00909456
-0.00915144
-0.00919719
-0.00923316
-0.00926074
-0.00928128
-0.00929601
-0.00930597
-0.009312
-0.0093146
-0.009314
-0.00931006
-0.00930251
-0.009291
-0.00927279
-0.00924325
0.00103961
0.000983587
0.000935438
0.000888523
0.000839266
0.000787566
0.000733173
0.000675688
0.000614812
0.000550309
0.000481927
0.000409353
0.000332151
0.000249716
0.000161245
6.57126e-05
-3.81443e-05
-0.000151814
-0.000276999
-0.000415593
-0.000569653
-0.000741353
-0.000932944
-0.0011467
-0.00138489
-0.00164967
-0.00194306
-0.0022669
-0.00262274
-0.0030118
-0.00343496
-0.00389267
-0.0043849
-0.00491118
-0.00547055
-0.00606154
-0.00668221
-0.00733018
-0.00800261
-0.00869629
-0.00940768
-0.0101329
-0.0108678
-0.0116081
-0.0123494
-0.013087
-0.0138163
-0.0145328
-0.0152318
-0.0159088
-0.0165596
-0.0171797
-0.0177654
-0.0183127
-0.0188181
-0.0192785
-0.0196907
-0.0200523
-0.020361
-0.0206148
-0.0208121
-0.0209517
-0.0210329
-0.0210552
-0.0210185
-0.0209235
-0.0207707
-0.0205613
-0.0202971
-0.01998
-0.0196125
-0.0191975
-0.0187382
-0.0182385
-0.0177025
-0.0171346
-0.0165398
-0.0159233
-0.0152908
-0.0146481
-0.0140012
-0.0133565
-0.0127202
-0.0120986
-0.0114981
-0.0109245
-0.0103836
-0.00988049
-0.00941976
-0.0090053
-0.00864016
-0.00832647
-0.00806534
-0.00785687
-0.00770011
-0.00759309
-0.00753288
-0.0075157
-0.00753707
-0.00759195
-0.00767492
-0.00778042
-0.00790284
-0.00803683
-0.00817732
-0.00831977
-0.00846019
-0.00859526
-0.00872232
-0.00883938
-0.00894514
-0.00903887
-0.00912039
-0.00918997