/*--------------------------------*- C++ -*----------------------------------*\
| =========                 |                                                 |
| \\      /  F ield         | OpenFOAM: The Open Source CFD Toolbox           |
|  \\    /   O peration     | Version:  2112                                  |
|   \\  /    A nd           | Website:  www.openfoam.com                      |
|    \\/     M anipulation  |                                                 |
\*---------------------------------------------------------------------------*/
FoamFile
{
    version     2.0;
    format      ascii;
    arch        "LSB;label=32;scalar=64";
    class       surfaceScalarField;
    location    "28";
    object      phi;
}
// * * * * * * * * * * * * * * * * * * * * * * * * * * * * * * * * * * * * * //

dimensions      [0 3 -1 0 0 0 0];

oriented        oriented;

internalField   nonuniform List<scalar> 
33024
(
-2.80104e-09
2.88973e-09
2.27057e-08
-2.55076e-08
7.68953e-08
-5.41898e-08
1.51559e-07
-7.46629e-08
2.3856e-07
-8.70001e-08
3.31082e-07
-9.25226e-08
4.23734e-07
-9.2653e-08
5.12418e-07
-8.86842e-08
5.94117e-07
-8.16984e-08
6.66694e-07
-7.2577e-08
7.28727e-07
-6.20327e-08
7.79361e-07
-5.06343e-08
8.18186e-07
-3.88254e-08
8.45126e-07
-2.69392e-08
8.60337e-07
-1.52113e-08
8.64129e-07
-3.79167e-09
8.56878e-07
7.25003e-09
8.38977e-07
1.79015e-08
8.1077e-07
2.82073e-08
7.72519e-07
3.82512e-08
7.24372e-07
4.81473e-08
6.66344e-07
5.80277e-08
5.98312e-07
6.80326e-08
5.20011e-07
7.83013e-08
4.31047e-07
8.89643e-08
3.30909e-07
1.00137e-07
2.18993e-07
1.11916e-07
9.46172e-08
1.24376e-07
-4.29472e-08
1.37565e-07
-1.94456e-07
1.51509e-07
-3.60667e-07
1.66211e-07
-5.42317e-07
1.81649e-07
-7.40099e-07
1.97782e-07
-9.54647e-07
2.14548e-07
-1.18651e-06
2.31864e-07
-1.43614e-06
2.49632e-07
-1.70388e-06
2.67735e-07
-1.98992e-06
2.86038e-07
-2.29431e-06
3.04392e-07
-2.61693e-06
3.22627e-07
-2.9575e-06
3.40562e-07
-3.31549e-06
3.57997e-07
-3.69021e-06
3.7472e-07
-4.08072e-06
3.90504e-07
-4.48583e-06
4.05113e-07
-4.90413e-06
4.183e-07
-5.33395e-06
4.29815e-07
-5.77335e-06
4.39402e-07
-6.22015e-06
4.46806e-07
-6.67193e-06
4.51774e-07
-7.12599e-06
4.54062e-07
-7.57943e-06
4.53436e-07
-8.0291e-06
4.49679e-07
-8.47169e-06
4.4259e-07
-8.90369e-06
4.31993e-07
-9.32142e-06
4.17739e-07
-9.72114e-06
3.99711e-07
-1.0099e-05
3.77825e-07
-1.0451e-05
3.52037e-07
-1.07733e-05
3.22345e-07
-1.10621e-05
2.88792e-07
-1.13136e-05
2.51467e-07
-1.15241e-05
2.10511e-07
-1.16902e-05
1.66121e-07
-1.18088e-05
1.18569e-07
-1.1877e-05
6.81642e-08
-1.18923e-05
1.52876e-08
-1.18522e-05
-4.00577e-08
-1.17554e-05
-9.67485e-08
-1.16008e-05
-1.54645e-07
-1.13877e-05
-2.13132e-07
-1.11161e-05
-2.71605e-07
-1.07866e-05
-3.29432e-07
-1.04007e-05
-3.85952e-07
-9.96019e-06
-4.40488e-07
-9.46784e-06
-4.92353e-07
-8.92697e-06
-5.40868e-07
-8.3416e-06
-5.85369e-07
-7.71638e-06
-6.25223e-07
-7.05654e-06
-6.59841e-07
-6.36785e-06
-6.88692e-07
-5.65653e-06
-7.1132e-07
-4.92917e-06
-7.27353e-07
-4.19266e-06
-7.36518e-07
-3.45401e-06
-7.38648e-07
-2.72032e-06
-7.33694e-07
-1.99859e-06
-7.21725e-07
-1.29565e-06
-7.02937e-07
-6.18015e-07
-6.77639e-07
2.8255e-08
-6.4627e-07
6.37694e-07
-6.09439e-07
1.20533e-06
-5.67633e-07
1.727e-06
-5.21673e-07
2.19932e-06
-4.72321e-07
2.61973e-06
-4.20405e-07
2.9865e-06
-3.6677e-07
3.29876e-06
-3.12263e-07
3.55647e-06
-2.57716e-07
3.76039e-06
-2.03918e-07
3.91199e-06
-1.51599e-07
4.01341e-06
-1.01418e-07
4.06735e-06
-5.39454e-08
4.07701e-06
-9.65877e-09
4.04594e-06
3.10699e-08
3.97798e-06
6.79672e-08
3.87711e-06
1.00867e-07
3.74741e-06
1.29698e-07
3.59293e-06
1.54483e-07
3.4176e-06
1.75326e-07
3.2252e-06
1.92404e-07
3.01925e-06
2.05951e-07
2.803e-06
2.16245e-07
2.57941e-06
2.23592e-07
2.3511e-06
2.28307e-07
2.12041e-06
2.30693e-07
1.88939e-06
2.31017e-07
1.65991e-06
2.29487e-07
1.43369e-06
2.26217e-07
1.21249e-06
2.21195e-07
9.98249e-07
2.14246e-07
7.93256e-07
2.04993e-07
6.00432e-07
1.92823e-07
4.23573e-07
1.7686e-07
2.67598e-07
1.55975e-07
1.38687e-07
1.28912e-07
4.39892e-08
9.46975e-08
-9.69735e-09
5.36865e-08
-2.01739e-08
1.04766e-08
-2.01739e-08
2.54718e-08
-2.25831e-08
1.12162e-07
-1.12199e-07
2.53231e-07
-1.95261e-07
4.35096e-07
-2.56527e-07
6.4281e-07
-2.94713e-07
8.62413e-07
-3.12124e-07
1.0819e-06
-3.12136e-07
1.29147e-06
-2.98259e-07
1.48348e-06
-2.7371e-07
1.65218e-06
-2.4128e-07
1.79347e-06
-2.03323e-07
1.90461e-06
-1.61773e-07
1.98396e-06
-1.18172e-07
2.03073e-06
-7.37061e-08
2.04475e-06
-2.92303e-08
2.02627e-06
1.46847e-08
1.97578e-06
5.77449e-08
1.89381e-06
9.98635e-08
1.78088e-06
1.41142e-07
1.6373e-06
1.81828e-07
1.46318e-06
2.22273e-07
1.25831e-06
2.62894e-07
1.0222e-06
3.04142e-07
7.54038e-07
3.46464e-07
4.52722e-07
3.9028e-07
1.16901e-07
4.35959e-07
-2.54982e-07
4.838e-07
-6.6463e-07
5.34023e-07
-1.11383e-06
5.86763e-07
-1.60438e-06
6.42064e-07
-2.13806e-06
6.99883e-07
-2.7165e-06
7.60091e-07
-3.34119e-06
8.22478e-07
-4.0134e-06
8.86756e-07
-4.7341e-06
9.52566e-07
-5.50395e-06
1.01948e-06
-6.32321e-06
1.08699e-06
-7.19173e-06
1.15456e-06
-8.10888e-06
1.22155e-06
-9.07355e-06
1.2873e-06
-1.00841e-05
1.35107e-06
-1.11381e-05
1.41209e-06
-1.2233e-05
1.46954e-06
-1.3365e-05
1.52257e-06
-1.45302e-05
1.57031e-06
-1.57238e-05
1.61185e-06
-1.69403e-05
1.6463e-06
-1.81736e-05
1.67277e-06
-1.94172e-05
1.69038e-06
-2.06637e-05
1.69831e-06
-2.19054e-05
1.69575e-06
-2.3134e-05
1.68198e-06
-2.43406e-05
1.65633e-06
-2.55163e-05
1.61824e-06
-2.66515e-05
1.56723e-06
-2.77367e-05
1.50295e-06
-2.87622e-05
1.42515e-06
-2.97181e-05
1.33373e-06
-3.05948e-05
1.22873e-06
-3.13828e-05
1.11033e-06
-3.20728e-05
9.78867e-07
-3.26562e-05
8.34854e-07
-3.31247e-05
6.78956e-07
-3.34706e-05
5.12021e-07
-3.36871e-05
3.35117e-07
-3.37684e-05
1.49424e-07
-3.37094e-05
-4.36766e-08
-3.3506e-05
-2.43451e-07
-3.31556e-05
-4.47171e-07
-3.26567e-05
-6.53486e-07
-3.20094e-05
-8.60491e-07
-3.12148e-05
-1.06617e-06
-3.02758e-05
-1.26842e-06
-2.91967e-05
-1.46507e-06
-2.79833e-05
-1.65393e-06
-2.66428e-05
-1.83281e-06
-2.51842e-05
-1.99953e-06
-2.36175e-05
-2.15199e-06
-2.19545e-05
-2.28821e-06
-2.0208e-05
-2.40635e-06
-1.8392e-05
-2.50475e-06
-1.65213e-05
-2.58198e-06
-1.46118e-05
-2.6369e-06
-1.26797e-05
-2.66864e-06
-1.07416e-05
-2.67668e-06
-8.81446e-06
-2.66085e-06
-6.91483e-06
-2.62136e-06
-5.05899e-06
-2.55878e-06
-3.26255e-06
-2.47408e-06
-1.54023e-06
-2.36858e-06
9.4311e-08
-2.24398e-06
1.62895e-06
-2.10227e-06
3.05289e-06
-1.94562e-06
4.35715e-06
-1.77658e-06
5.53455e-06
-1.5978e-06
6.5798e-06
-1.41202e-06
7.48956e-06
-1.22202e-06
8.26242e-06
-1.03058e-06
8.89885e-06
-8.40346e-07
9.40111e-06
-6.53858e-07
9.77312e-06
-4.73426e-07
1.00203e-05
-3.01115e-07
1.01493e-05
-1.38703e-07
1.01681e-05
1.2347e-08
1.00851e-05
1.50905e-07
9.90981e-06
2.76175e-07
9.65181e-06
3.87693e-07
9.32099e-06
4.85309e-07
8.92715e-06
5.69164e-07
8.47989e-06
6.3966e-07
7.98843e-06
6.97411e-07
7.46147e-06
7.43205e-07
6.90713e-06
7.77939e-07
6.33287e-06
8.02562e-07
5.74557e-06
8.17997e-07
5.15152e-06
8.25065e-07
4.55662e-06
8.2439e-07
3.96653e-06
8.16305e-07
3.38698e-06
8.00747e-07
2.82407e-06
7.7715e-07
2.2847e-06
7.44362e-07
1.77694e-06
7.00583e-07
1.31041e-06
6.43391e-07
8.96459e-07
5.69928e-07
5.47915e-07
4.77456e-07
2.77949e-07
3.64663e-07
9.7517e-08
2.34119e-07
1.08553e-08
9.71383e-08
-9.31858e-09
5.41949e-08
-7.67784e-08
1.95518e-07
-2.53521e-07
4.05989e-07
-4.05732e-07
6.66722e-07
-5.17261e-07
9.58478e-07
-5.8647e-07
1.26319e-06
-6.16831e-07
1.56489e-06
-6.13837e-07
1.85014e-06
-5.83515e-07
2.10808e-06
-5.31651e-07
2.33026e-06
-4.63453e-07
2.51036e-06
-3.83428e-07
2.64394e-06
-2.95356e-07
2.72808e-06
-2.02304e-07
2.76103e-06
-1.06661e-07
2.74198e-06
-1.01781e-08
2.67072e-06
8.59482e-08
2.54739e-06
1.81068e-07
2.37231e-06
2.7495e-07
2.14572e-06
3.67735e-07
1.86768e-06
4.59862e-07
1.53798e-06
5.51976e-07
1.15601e-06
6.44861e-07
7.2079e-07
7.39365e-07
2.30922e-07
8.36332e-07
-3.15344e-07
9.36546e-07
-9.20073e-07
1.04069e-06
-1.58556e-06
1.14929e-06
-2.31427e-06
1.26273e-06
-3.10868e-06
1.38118e-06
-3.97126e-06
1.50464e-06
-4.90431e-06
1.63293e-06
-5.90988e-06
1.76567e-06
-6.98971e-06
1.9023e-06
-8.14507e-06
2.04211e-06
-9.37672e-06
2.18422e-06
-1.06849e-05
2.32761e-06
-1.2069e-05
2.47111e-06
-1.35279e-05
2.61343e-06
-1.50595e-05
2.75316e-06
-1.66609e-05
2.88876e-06
-1.83285e-05
3.01862e-06
-2.00574e-05
3.14104e-06
-2.18421e-05
3.25424e-06
-2.3676e-05
3.35641e-06
-2.55514e-05
3.44571e-06
-2.74598e-05
3.52029e-06
-2.93919e-05
3.57833e-06
-3.13372e-05
3.61807e-06
-3.32846e-05
3.63781e-06
-3.52222e-05
3.63597e-06
-3.71376e-05
3.6111e-06
-3.90175e-05
3.5619e-06
-4.08484e-05
3.48726e-06
-4.26165e-05
3.38628e-06
-4.43075e-05
3.25828e-06
-4.59074e-05
3.10284e-06
-4.74021e-05
2.9198e-06
-4.87776e-05
2.70926e-06
-5.00205e-05
2.47163e-06
-5.11178e-05
2.20762e-06
-5.20571e-05
1.91822e-06
-5.2827e-05
1.60476e-06
-5.34169e-05
1.26886e-06
-5.38173e-05
9.12438e-07
-5.40201e-05
5.37854e-07
-5.40189e-05
1.4822e-07
-5.38069e-05
-2.55694e-07
-5.33812e-05
-6.69114e-07
-5.27395e-05
-1.08885e-06
-5.18814e-05
-1.51156e-06
-5.08084e-05
-1.93353e-06
-4.95237e-05
-2.35085e-06
-4.80326e-05
-2.7595e-06
-4.63424e-05
-3.15535e-06
-4.4462e-05
-3.53428e-06
-4.24027e-05
-3.89215e-06
-4.01773e-05
-4.22493e-06
-3.78005e-05
-4.52873e-06
-3.52889e-05
-4.79987e-06
-3.26603e-05
-5.03495e-06
-2.99341e-05
-5.23092e-06
-2.7131e-05
-5.38514e-06
-2.42724e-05
-5.49548e-06
-2.13807e-05
-5.56032e-06
-1.84787e-05
-5.57867e-06
-1.55894e-05
-5.55017e-06
-1.27356e-05
-5.47512e-06
-9.93985e-06
-5.35454e-06
-7.2238e-06
-5.19013e-06
-4.60811e-06
-4.98427e-06
-2.11209e-06
-4.74e-06
2.46586e-07
-4.46094e-06
2.45224e-06
-4.15127e-06
4.49117e-06
-3.81552e-06
6.35214e-06
-3.45877e-06
8.02631e-06
-3.08618e-06
9.50739e-06
-2.7031e-06
1.07917e-05
-2.31489e-06
1.18782e-05
-1.9268e-06
1.27682e-05
-1.54385e-06
1.34655e-05
-1.17075e-06
1.39761e-05
-8.11766e-07
1.43081e-05
-4.70666e-07
1.44711e-05
-1.50649e-07
1.44763e-05
1.45698e-07
1.4336e-05
4.16433e-07
1.40635e-05
6.60244e-07
1.36723e-05
8.76452e-07
1.31765e-05
1.06496e-06
1.259e-05
1.22621e-06
1.19263e-05
1.3611e-06
1.11986e-05
1.47089e-06
1.04195e-05
1.5571e-06
9.60061e-06
1.62141e-06
8.75315e-06
1.66546e-06
7.88748e-06
1.69074e-06
7.0135e-06
1.69837e-06
6.14084e-06
1.68897e-06
5.27916e-06
1.66242e-06
4.43859e-06
1.61772e-06
3.6301e-06
1.55285e-06
2.86597e-06
1.46471e-06
2.16009e-06
1.34928e-06
1.52797e-06
1.20204e-06
9.86355e-07
1.01907e-06
5.51914e-07
7.99104e-07
2.38957e-07
5.47077e-07
5.57267e-08
2.80368e-07
4.64082e-08
7.50436e-08
-1.51823e-07
2.57997e-07
-4.36471e-07
5.19703e-07
-6.67437e-07
8.35216e-07
-8.32775e-07
1.1815e-06
-9.32751e-07
1.53759e-06
-9.72923e-07
1.88502e-06
-9.6127e-07
2.20805e-06
-9.06541e-07
2.49368e-06
-8.17283e-07
2.73157e-06
-7.01338e-07
2.91375e-06
-5.65608e-07
3.03436e-06
-4.15965e-07
3.08928e-06
-2.5723e-07
3.07582e-06
-9.31962e-08
2.99233e-06
7.33117e-08
2.83791e-06
2.40362e-07
2.61215e-06
4.06836e-07
2.31479e-06
5.72306e-07
1.94559e-06
7.36932e-07
1.50412e-06
9.01337e-07
9.89612e-07
1.06648e-06
4.00934e-07
1.23354e-06
-2.63481e-07
1.40378e-06
-1.00562e-06
1.57847e-06
-1.82783e-06
1.75876e-06
-2.73276e-06
1.94562e-06
-3.72327e-06
2.1398e-06
-4.80228e-06
2.34174e-06
-5.97269e-06
2.55158e-06
-7.23719e-06
2.76915e-06
-8.5982e-06
2.99394e-06
-1.00577e-05
3.22514e-06
-1.1617e-05
3.46163e-06
-1.32769e-05
3.70201e-06
-1.50373e-05
3.94461e-06
-1.68972e-05
4.18753e-06
-1.88547e-05
4.42862e-06
-2.09068e-05
4.66552e-06
-2.30493e-05
4.89571e-06
-2.52771e-05
5.11648e-06
-2.75835e-05
5.32501e-06
-2.99608e-05
5.51835e-06
-3.24e-05
5.69351e-06
-3.48911e-05
5.84746e-06
-3.74225e-05
5.97716e-06
-3.99819e-05
6.07965e-06
-4.25556e-05
6.15206e-06
-4.51292e-05
6.19166e-06
-4.76873e-05
6.19591e-06
-5.02138e-05
6.16249e-06
-5.26921e-05
6.08938e-06
-5.51051e-05
5.97485e-06
-5.74353e-05
5.8175e-06
-5.96654e-05
5.61633e-06
-6.17778e-05
5.37073e-06
-6.37555e-05
5.0805e-06
-6.55816e-05
4.74589e-06
-6.72399e-05
4.36758e-06
-6.8715e-05
3.94671e-06
-6.99922e-05
3.4849e-06
-7.10582e-05
2.98419e-06
-7.19005e-05
2.44708e-06
-7.25082e-05
1.87655e-06
-7.28717e-05
1.27596e-06
-7.29827e-05
6.48777e-07
-7.28375e-05
3.09829e-09
-7.24271e-05
-6.66188e-07
-7.17516e-05
-1.34452e-06
-7.08101e-05
-2.03041e-06
-6.96036e-05
-2.71804e-06
-6.81355e-05
-3.40162e-06
-6.64112e-05
-4.07516e-06
-6.44382e-05
-4.73252e-06
-6.2226e-05
-5.36751e-06
-5.97864e-05
-5.97389e-06
-5.71331e-05
-6.54552e-06
-5.42816e-05
-7.07637e-06
-5.12497e-05
-7.56066e-06
-4.80566e-05
-7.99291e-06
-4.47235e-05
-8.36806e-06
-4.12729e-05
-8.68157e-06
-3.77285e-05
-8.9295e-06
-3.41154e-05
-9.10861e-06
-3.04593e-05
-9.21644e-06
-2.67865e-05
-9.25142e-06
-2.31238e-05
-9.21288e-06
-1.94978e-05
-9.10117e-06
-1.59347e-05
-8.91761e-06
-1.24602e-05
-8.66459e-06
-9.099e-06
-8.34551e-06
-5.87428e-06
-7.96472e-06
-2.80769e-06
-7.52753e-06
8.10864e-08
-7.04005e-06
2.77476e-06
-6.50919e-06
5.25828e-06
-5.9423e-06
7.51944e-06
-5.34734e-06
9.54882e-06
-4.73249e-06
1.13399e-05
-4.10601e-06
1.28893e-05
-3.47615e-06
1.41963e-05
-2.85086e-06
1.52633e-05
-2.23772e-06
1.60952e-05
-1.64372e-06
1.66997e-05
-1.07518e-06
1.70866e-05
-5.37573e-07
1.72678e-05
-3.54996e-08
1.72569e-05
4.2742e-07
1.70686e-05
8.48527e-07
1.67189e-05
1.22615e-06
1.62243e-05
1.55955e-06
1.56016e-05
1.84886e-06
1.48677e-05
2.09498e-06
1.40392e-05
2.29943e-06
1.31321e-05
2.4642e-06
1.2162e-05
2.59157e-06
1.11436e-05
2.68386e-06
1.00911e-05
2.74319e-06
9.01824e-06
2.77122e-06
7.93835e-06
2.76886e-06
6.8648e-06
2.73597e-06
5.81134e-06
2.67118e-06
4.79251e-06
2.57168e-06
3.82401e-06
2.4332e-06
2.92298e-06
2.25031e-06
2.10799e-06
2.01704e-06
1.39873e-06
1.72834e-06
8.15187e-07
1.38264e-06
3.76454e-07
9.85809e-07
9.94687e-08
5.57353e-07
1.45877e-07
8.81526e-08
-2.39977e-07
2.98365e-07
-6.46684e-07
5.92581e-07
-9.6165e-07
9.40215e-07
-1.18041e-06
1.31474e-06
-1.30728e-06
1.69289e-06
-1.35107e-06
2.05442e-06
-1.3228e-06
2.3821e-06
-1.23422e-06
2.66156e-06
-1.09675e-06
2.88119e-06
-9.20962e-07
3.03182e-06
-7.16242e-07
3.1065e-06
-4.90639e-07
3.10008e-06
-2.50815e-07
3.00894e-06
-2.05684e-09
2.83059e-06
2.51668e-07
2.56333e-06
5.07622e-07
2.20599e-06
7.64175e-07
1.75762e-06
1.02067e-06
1.2173e-06
1.27726e-06
5.83907e-07
1.53473e-06
-1.43961e-07
1.79435e-06
-9.68086e-07
2.05766e-06
-1.89065e-06
2.32634e-06
-2.91421e-06
2.60203e-06
-4.04165e-06
2.88619e-06
-5.27605e-06
3.18002e-06
-6.62059e-06
3.48435e-06
-8.07842e-06
3.79957e-06
-9.65245e-06
4.12561e-06
-1.13452e-05
4.46194e-06
-1.31588e-05
4.80752e-06
-1.50945e-05
5.16084e-06
-1.71529e-05
5.51997e-06
-1.93334e-05
5.88252e-06
-2.16345e-05
6.24574e-06
-2.40535e-05
6.60651e-06
-2.65863e-05
6.9614e-06
-2.92274e-05
7.30667e-06
-3.19701e-05
7.63839e-06
-3.4806e-05
7.95238e-06
-3.77254e-05
8.24436e-06
-4.07169e-05
8.50994e-06
-4.37681e-05
8.7447e-06
-4.68649e-05
8.94425e-06
-4.99921e-05
9.10431e-06
-5.31332e-05
9.22076e-06
-5.62708e-05
9.28971e-06
-5.93867e-05
9.30755e-06
-6.24618e-05
9.27104e-06
-6.54767e-05
9.17735e-06
-6.84114e-05
9.02411e-06
-7.1246e-05
8.80944e-06
-7.39605e-05
8.53202e-06
-7.65353e-05
8.19108e-06
-7.8951e-05
7.78644e-06
-8.1189e-05
7.31854e-06
-8.32316e-05
6.7884e-06
-8.50616e-05
6.19767e-06
-8.66635e-05
5.54861e-06
-8.80227e-05
4.84406e-06
-8.9126e-05
4.08745e-06
-8.99616e-05
3.28277e-06
-9.05197e-05
2.43457e-06
-9.07916e-05
1.54793e-06
-9.07714e-05
6.28545e-07
-9.04512e-05
-3.17134e-07
-8.98327e-05
-1.28469e-06
-8.8912e-05
-2.26514e-06
-8.76907e-05
-3.25176e-06
-8.61716e-05
-4.23712e-06
-8.43598e-05
-5.21341e-06
-8.22624e-05
-6.1726e-06
-7.98884e-05
-7.10651e-06
-7.7249e-05
-8.00687e-06
-7.43575e-05
-8.86545e-06
-7.12289e-05
-9.67408e-06
-6.78805e-05
-1.04248e-05
-6.43312e-05
-1.11099e-05
-6.06019e-05
-1.17222e-05
-5.67149e-05
-1.2255e-05
-5.26944e-05
-1.27021e-05
-4.85657e-05
-1.30582e-05
-4.43553e-05
-1.3319e-05
-4.00907e-05
-1.3481e-05
-3.58001e-05
-1.3542e-05
-3.15122e-05
-1.35008e-05
-2.72557e-05
-1.33576e-05
-2.30593e-05
-1.3114e-05
-1.89511e-05
-1.27728e-05
-1.49584e-05
-1.23382e-05
-1.11073e-05
-1.18158e-05
-7.42241e-06
-1.12124e-05
-3.92644e-06
-1.0536e-05
-6.40033e-07
-9.79559e-06
2.41869e-06
-9.00102e-06
5.23424e-06
-8.16289e-06
7.79402e-06
-7.29227e-06
1.00885e-05
-6.40048e-06
1.21112e-05
-5.49889e-06
1.3859e-05
-4.59866e-06
1.53318e-05
-3.71052e-06
1.65327e-05
-2.84456e-06
1.74675e-05
-2.01002e-06
1.81451e-05
-1.21511e-06
1.85765e-05
-4.66913e-07
1.87751e-05
2.28763e-07
1.87562e-05
8.67429e-07
1.85365e-05
1.44592e-06
1.81336e-05
1.96238e-06
1.75663e-05
2.4162e-06
1.68534e-05
2.80786e-06
1.6014e-05
3.1388e-06
1.5067e-05
3.41121e-06
1.40309e-05
3.6277e-06
1.29237e-05
3.7911e-06
1.17628e-05
3.90404e-06
1.05654e-05
3.96863e-06
9.34823e-06
3.98605e-06
8.12797e-06
3.95623e-06
6.92167e-06
3.87748e-06
5.74699e-06
3.74637e-06
4.62254e-06
3.55765e-06
3.5682e-06
3.30465e-06
2.60519e-06
2.98005e-06
1.75605e-06
2.57747e-06
1.04455e-06
2.09414e-06
4.9568e-07
1.53468e-06
1.36457e-07
9.16576e-07
2.82334e-07
9.47659e-08
-3.34742e-07
3.18561e-07
-8.70481e-07
6.27178e-07
-1.27027e-06
9.85521e-07
-1.53875e-06
1.36412e-06
-1.68588e-06
1.73781e-06
-1.72476e-06
2.08508e-06
-1.67007e-06
2.38769e-06
-1.53684e-06
2.63044e-06
-1.33949e-06
2.80086e-06
-1.09138e-06
2.88898e-06
-8.04364e-07
2.88701e-06
-4.88666e-07
2.78897e-06
-1.52782e-07
2.5904e-06
1.96512e-07
2.28797e-06
5.54104e-07
1.87915e-06
9.1644e-07
1.36195e-06
1.28138e-06
7.34614e-07
1.64801e-06
-4.5869e-09
2.01646e-06
-8.57526e-07
2.38767e-06
-1.82634e-06
2.76316e-06
-2.91348e-06
3.1448e-06
-4.12173e-06
3.5346e-06
-5.45418e-06
3.93448e-06
-6.91409e-06
4.3461e-06
-8.50481e-06
4.77074e-06
-1.02296e-05
5.20914e-06
-1.20915e-05
5.66145e-06
-1.4093e-05
6.12717e-06
-1.62362e-05
6.60513e-06
-1.85222e-05
7.0935e-06
-2.09512e-05
7.58979e-06
-2.35221e-05
8.09092e-06
-2.62328e-05
8.59323e-06
-2.90797e-05
9.09256e-06
-3.20574e-05
9.58425e-06
-3.51593e-05
1.00633e-05
-3.8377e-05
1.05243e-05
-4.17003e-05
1.09617e-05
-4.51176e-05
1.13696e-05
-4.86154e-05
1.17422e-05
-5.21788e-05
1.20734e-05
-5.57915e-05
1.23574e-05
-5.94356e-05
1.25884e-05
-6.30923e-05
1.2761e-05
-6.67417e-05
1.28701e-05
-7.0363e-05
1.2911e-05
-7.39347e-05
1.28793e-05
-7.74352e-05
1.27716e-05
-8.08426e-05
1.25847e-05
-8.41349e-05
1.23164e-05
-8.72904e-05
1.1965e-05
-9.02881e-05
1.15297e-05
-9.31075e-05
1.10104e-05
-9.57288e-05
1.04077e-05
-9.81334e-05
9.72315e-06
-0.000100304
8.95882e-06
-0.000102224
8.11768e-06
-0.000103879
7.20336e-06
-0.000105255
6.2202e-06
-0.00010634
5.17318e-06
-0.000107126
4.06793e-06
-0.000107602
2.91067e-06
-0.000107762
1.70821e-06
-0.000107602
4.68102e-07
-0.000107116
-8.02375e-07
-0.000106306
-2.09486e-06
-0.000105171
-3.40033e-06
-0.000103713
-4.70975e-06
-0.000101936
-6.01373e-06
-9.98471e-05
-7.30258e-06
-9.74534e-05
-8.56636e-06
-9.47649e-05
-9.79498e-06
-9.17935e-05
-1.09783e-05
-8.85528e-05
-1.21061e-05
-8.50585e-05
-1.31684e-05
-8.1328e-05
-1.41553e-05
-7.73805e-05
-1.50574e-05
-7.32371e-05
-1.58656e-05
-6.89205e-05
-1.65716e-05
-6.4455e-05
-1.71676e-05
-5.98662e-05
-1.7647e-05
-5.51813e-05
-1.8004e-05
-5.04283e-05
-1.82341e-05
-4.56361e-05
-1.83341e-05
-4.08345e-05
-1.83024e-05
-3.60534e-05
-1.81388e-05
-3.13228e-05
-1.78446e-05
-2.66725e-05
-1.74231e-05
-2.21317e-05
-1.6879e-05
-1.77286e-05
-1.62189e-05
-1.34903e-05
-1.54507e-05
-9.44209e-06
-1.45843e-05
-5.60729e-06
-1.36304e-05
-2.00704e-06
-1.26013e-05
1.34014e-06
-1.15101e-05
4.41853e-06
-1.03707e-05
7.21544e-06
-9.19739e-06
9.72136e-06
-8.00481e-06
1.19301e-05
-6.80736e-06
1.38386e-05
-5.6191e-06
1.54475e-05
-4.45341e-06
1.67602e-05
-3.32276e-06
1.77836e-05
-2.23845e-06
1.85271e-05
-1.2104e-06
1.90029e-05
-2.47052e-07
1.92255e-05
6.44811e-07
1.92113e-05
1.46006e-06
1.89785e-05
2.19524e-06
1.85462e-05
2.8485e-06
1.79345e-05
3.41948e-06
1.71642e-05
3.9091e-06
1.62561e-05
4.31932e-06
1.5231e-05
4.65281e-06
1.41095e-05
4.9126e-06
1.29119e-05
5.10163e-06
1.16582e-05
5.22232e-06
1.03682e-05
5.27608e-06
9.06159e-06
5.26285e-06
7.75831e-06
5.18076e-06
6.47882e-06
5.02586e-06
5.24439e-06
4.79208e-06
4.07742e-06
4.47162e-06
3.00172e-06
4.05574e-06
2.04289e-06
3.53631e-06
1.22879e-06
2.90824e-06
5.90661e-07
2.17281e-06
1.65187e-07
1.34205e-06
4.47521e-07
9.60974e-08
-4.30839e-07
3.21207e-07
-1.09559e-06
6.27384e-07
-1.57645e-06
9.76384e-07
-1.88775e-06
1.33655e-06
-2.04604e-06
1.68132e-06
-2.06952e-06
1.98829e-06
-1.97705e-06
2.23863e-06
-1.78718e-06
2.41663e-06
-1.51749e-06
2.50933e-06
-1.18409e-06
2.50625e-06
-8.01277e-07
2.39896e-06
-3.81382e-07
2.18084e-06
6.53374e-08
1.84667e-06
5.30682e-07
1.39233e-06
1.00845e-06
8.14474e-07
1.4943e-06
1.10254e-07
1.9856e-06
-7.22936e-07
2.4812e-06
-1.68766e-06
2.98118e-06
-2.78659e-06
3.4866e-06
-4.0226e-06
3.99917e-06
-5.3988e-06
4.521e-06
-6.91852e-06
5.05432e-06
-8.58522e-06
5.60118e-06
-1.04024e-05
6.16329e-06
-1.23734e-05
6.74176e-06
-1.45013e-05
7.33705e-06
-1.67887e-05
7.94878e-06
-1.92372e-05
8.57574e-06
-2.18479e-05
9.21583e-06
-2.46205e-05
9.86609e-06
-2.75535e-05
1.05227e-05
-3.06438e-05
1.11812e-05
-3.38868e-05
1.18363e-05
-3.72763e-05
1.2482e-05
-4.0804e-05
1.3112e-05
-4.44601e-05
1.37194e-05
-4.82327e-05
1.42969e-05
-5.21081e-05
1.48372e-05
-5.6071e-05
1.53325e-05
-6.01043e-05
1.57755e-05
-6.41894e-05
1.61585e-05
-6.83064e-05
1.64743e-05
-7.2434e-05
1.67161e-05
-7.65504e-05
1.68774e-05
-8.06326e-05
1.69524e-05
-8.46575e-05
1.69359e-05
-8.86016e-05
1.68234e-05
-9.24415e-05
1.66115e-05
-9.6154e-05
1.62972e-05
-9.97165e-05
1.58789e-05
-0.000103107
1.53555e-05
-0.000106305
1.47272e-05
-0.000109289
1.39949e-05
-0.000112042
1.31603e-05
-0.000114545
1.22264e-05
-0.000116783
1.11966e-05
-0.00011874
1.00754e-05
-0.000120405
8.86796e-06
-0.000121765
7.58012e-06
-0.00012281
6.21849e-06
-0.000123533
4.7903e-06
-0.000123925
3.30336e-06
-0.000123983
1.7661e-06
-0.000123703
1.87895e-07
-0.000123082
-1.4231e-06
-0.000122121
-3.05591e-06
-0.000120821
-4.70041e-06
-0.000119185
-6.34592e-06
-0.000117217
-7.98134e-06
-0.000114925
-9.59531e-06
-0.000112315
-1.11762e-05
-0.000109398
-1.27121e-05
-0.000106185
-1.41913e-05
-0.000102689
-1.56017e-05
-9.89261e-05
-1.69315e-05
-9.49123e-05
-1.81691e-05
-9.06666e-05
-1.93032e-05
-8.62092e-05
-2.0323e-05
-8.15624e-05
-2.12184e-05
-7.67499e-05
-2.19801e-05
-7.17971e-05
-2.25998e-05
-6.67307e-05
-2.30703e-05
-6.15788e-05
-2.33859e-05
-5.63706e-05
-2.35423e-05
-5.11362e-05
-2.35369e-05
-4.59061e-05
-2.33689e-05
-4.07114e-05
-2.30393e-05
-3.5583e-05
-2.25514e-05
-3.05518e-05
-2.19102e-05
-2.56478e-05
-2.11229e-05
-2.09e-05
-2.01985e-05
-1.63361e-05
-1.91482e-05
-1.19821e-05
-1.79844e-05
-7.86173e-06
-1.67216e-05
-3.99651e-06
-1.53753e-05
-4.05213e-07
-1.3962e-05
2.89635e-06
-1.24989e-05
5.89547e-06
-1.10039e-05
8.58278e-06
-9.49467e-06
1.09523e-05
-7.98861e-06
1.30015e-05
-6.50258e-06
1.47311e-05
-5.05245e-06
1.61455e-05
-3.65284e-06
1.7252e-05
-2.31686e-06
1.80608e-05
-1.05589e-06
1.85851e-05
1.20532e-07
1.88402e-05
1.20496e-06
1.88436e-05
2.19181e-06
1.86146e-05
3.07756e-06
1.81736e-05
3.86052e-06
1.7542e-05
4.54063e-06
1.67421e-05
5.11921e-06
1.57964e-05
5.59859e-06
1.47273e-05
5.98167e-06
1.35575e-05
6.27143e-06
1.23094e-05
6.47039e-06
1.10054e-05
6.58005e-06
9.66794e-06
6.60035e-06
8.31947e-06
6.52923e-06
6.98304e-06
6.36229e-06
5.6824e-06
6.09272e-06
4.44243e-06
5.71159e-06
3.28961e-06
5.20857e-06
2.25267e-06
4.57325e-06
1.36366e-06
3.79724e-06
6.5967e-07
2.8768e-06
1.85607e-07
1.81611e-06
6.33129e-07
9.31214e-08
-5.23959e-07
3.08739e-07
-1.31121e-06
5.97077e-07
-1.86478e-06
9.18081e-07
-2.20876e-06
1.23877e-06
-2.36673e-06
1.53177e-06
-2.36252e-06
1.77422e-06
-2.21949e-06
1.94701e-06
-1.95997e-06
2.03426e-06
-1.60473e-06
2.02278e-06
-1.17261e-06
1.90176e-06
-6.80261e-07
1.66238e-06
-1.42006e-07
1.29747e-06
4.30248e-07
8.01171e-07
1.02698e-06
1.68623e-07
1.64099e-06
-6.04311e-07
2.26723e-06
-1.52132e-06
2.9026e-06
-2.58585e-06
3.54573e-06
-3.80131e-06
4.19664e-06
-5.17115e-06
4.85643e-06
-6.69892e-06
5.52694e-06
-8.38831e-06
6.2104e-06
-1.02431e-05
6.90907e-06
-1.22668e-05
7.62497e-06
-1.44631e-05
8.35958e-06
-1.6835e-05
9.11365e-06
-1.9385e-05
9.887e-06
-2.21146e-05
1.06784e-05
-2.50246e-05
1.14857e-05
-2.81142e-05
1.23054e-05
-3.13812e-05
1.31331e-05
-3.48219e-05
1.39635e-05
-3.84307e-05
1.479e-05
-4.22002e-05
1.56057e-05
-4.61207e-05
1.64026e-05
-5.01809e-05
1.71722e-05
-5.43673e-05
1.79057e-05
-5.86643e-05
1.8594e-05
-6.30547e-05
1.92276e-05
-6.75195e-05
1.97973e-05
-7.20381e-05
2.02941e-05
-7.65886e-05
2.07089e-05
-8.1148e-05
2.10337e-05
-8.56924e-05
2.12605e-05
-9.01975e-05
2.13825e-05
-9.46386e-05
2.13935e-05
-9.89911e-05
2.12884e-05
-0.000103231
2.10629e-05
-0.000107333
2.0714e-05
-0.000111276
2.02398e-05
-0.000115036
1.96392e-05
-0.000118593
1.89126e-05
-0.000121927
1.80611e-05
-0.000125019
1.70872e-05
-0.000127853
1.5994e-05
-0.000130412
1.47858e-05
-0.000132684
1.34678e-05
-0.000134654
1.20458e-05
-0.000136313
1.05266e-05
-0.00013765
8.91742e-06
-0.000138658
7.22643e-06
-0.00013933
5.46225e-06
-0.000139661
3.63413e-06
-0.000139646
1.75184e-06
-0.000139285
-1.73848e-07
-0.000138574
-2.13353e-06
-0.000137515
-4.11465e-06
-0.00013611
-6.10591e-06
-0.000134361
-8.09521e-06
-0.000132272
-1.00701e-05
-0.00012985
-1.20176e-05
-0.000127101
-1.39248e-05
-0.000124035
-1.57782e-05
-0.000120662
-1.75642e-05
-0.000116994
-1.92694e-05
-0.000113046
-2.08802e-05
-0.000108831
-2.23832e-05
-0.000104369
-2.37652e-05
-9.96785e-05
-2.50138e-05
-9.47799e-05
-2.6117e-05
-8.96964e-05
-2.70637e-05
-8.44523e-05
-2.78438e-05
-7.9074e-05
-2.84487e-05
-7.35891e-05
-2.88709e-05
-6.80266e-05
-2.91048e-05
-6.24167e-05
-2.91468e-05
-5.67905e-05
-2.8995e-05
-5.11798e-05
-2.865e-05
-4.56167e-05
-2.81145e-05
-4.01333e-05
-2.73936e-05
-3.47613e-05
-2.64949e-05
-2.95317e-05
-2.54281e-05
-2.44746e-05
-2.42053e-05
-1.96182e-05
-2.28408e-05
-1.49893e-05
-2.13506e-05
-1.0612e-05
-1.97526e-05
-6.50825e-06
-1.80657e-05
-2.69695e-06
-1.63103e-05
8.06047e-07
-1.45069e-05
3.98815e-06
-1.26768e-05
6.84022e-06
-1.08407e-05
9.35662e-06
-9.01898e-06
1.15353e-05
-7.23112e-06
1.33777e-05
-5.4952e-06
1.48885e-05
-3.82775e-06
1.60761e-05
-2.24341e-06
1.69513e-05
-7.54731e-07
1.75283e-05
6.28015e-07
1.78232e-05
1.89684e-06
1.78547e-05
3.04606e-06
1.76431e-05
4.07219e-06
1.72099e-05
4.97377e-06
1.65781e-05
5.75104e-06
1.57711e-05
6.40555e-06
1.48131e-05
6.93973e-06
1.37283e-05
7.35625e-06
1.25411e-05
7.65751e-06
1.12763e-05
7.84492e-06
9.95834e-06
7.91829e-06
8.61225e-06
7.87532e-06
7.26339e-06
7.71115e-06
5.93789e-06
7.41822e-06
4.66308e-06
6.9864e-06
3.46811e-06
6.40354e-06
2.38482e-06
5.65654e-06
1.44916e-06
4.7329e-06
7.03222e-07
3.62274e-06
1.98224e-07
2.32111e-06
8.31353e-07
8.65256e-08
-6.10485e-07
2.8308e-07
-1.50776e-06
5.39521e-07
-2.12122e-06
8.15198e-07
-2.48443e-06
1.07671e-06
-2.62824e-06
1.29649e-06
-2.5823e-06
1.45169e-06
-2.37469e-06
1.52331e-06
-2.03159e-06
1.49552e-06
-1.57694e-06
1.35517e-06
-1.03225e-06
1.09131e-06
-4.16404e-07
6.94852e-07
2.5445e-07
1.58201e-07
9.669e-07
-5.25061e-07
1.71025e-06
-1.36046e-06
2.47639e-06
-2.35288e-06
3.25965e-06
-3.50681e-06
4.05654e-06
-4.82651e-06
4.86544e-06
-6.31617e-06
5.68629e-06
-7.97993e-06
6.52019e-06
-9.82194e-06
7.36895e-06
-1.18463e-05
8.23477e-06
-1.4057e-05
9.11975e-06
-1.64576e-05
1.00256e-05
-1.90514e-05
1.09533e-05
-2.18407e-05
1.1903e-05
-2.48271e-05
1.28734e-05
-2.80108e-05
1.38622e-05
-3.13908e-05
1.48657e-05
-3.49642e-05
1.58789e-05
-3.87266e-05
1.68955e-05
-4.26714e-05
1.79082e-05
-4.679e-05
1.89086e-05
-5.10715e-05
1.98872e-05
-5.5503e-05
2.08341e-05
-6.00695e-05
2.17387e-05
-6.47539e-05
2.259e-05
-6.95369e-05
2.3377e-05
-7.43979e-05
2.40886e-05
-7.93144e-05
2.47139e-05
-8.4263e-05
2.52426e-05
-8.92189e-05
2.56649e-05
-9.4157e-05
2.59718e-05
-9.90516e-05
2.61551e-05
-0.000103877
2.62079e-05
-0.000108608
2.61243e-05
-0.000113219
2.58997e-05
-0.000117687
2.55305e-05
-0.000121988
2.50148e-05
-0.0001261
2.43517e-05
-0.000130002
2.35416e-05
-0.000133675
2.25861e-05
-0.000137102
2.1488e-05
-0.000140266
2.02511e-05
-0.000143153
1.88803e-05
-0.000145748
1.73812e-05
-0.000148041
1.57605e-05
-0.00015002
1.40254e-05
-0.000151678
1.21841e-05
-0.000153005
1.02451e-05
-0.000153997
8.21781e-06
-0.000154647
6.11203e-06
-0.000154951
3.93812e-06
-0.000154906
1.70699e-06
-0.00015451
-5.69879e-07
-0.000153762
-2.88122e-06
-0.000152662
-5.21414e-06
-0.000151212
-7.55602e-06
-0.000149414
-9.89363e-06
-0.000147271
-1.22133e-05
-0.000144787
-1.4501e-05
-0.00014197
-1.67423e-05
-0.000138825
-1.89224e-05
-0.000135363
-2.10263e-05
-0.000131594
-2.30389e-05
-0.000127529
-2.49449e-05
-0.000123183
-2.67292e-05
-0.000118572
-2.83769e-05
-0.000113712
-2.98735e-05
-0.000108624
-3.12052e-05
-0.000103329
-3.23589e-05
-9.78497e-05
-3.33227e-05
-9.22125e-05
-3.40859e-05
-8.64438e-05
-3.46395e-05
-8.05726e-05
-3.49761e-05
-7.46288e-05
-3.50905e-05
-6.86441e-05
-3.49798e-05
-6.26508e-05
-3.46433e-05
-5.66821e-05
-3.40833e-05
-5.07714e-05
-3.33043e-05
-4.49522e-05
-3.23141e-05
-3.92575e-05
-3.11227e-05
-3.37196e-05
-2.97432e-05
-2.83694e-05
-2.8191e-05
-2.32362e-05
-2.64838e-05
-1.83473e-05
-2.46415e-05
-1.37275e-05
-2.26855e-05
-9.39897e-06
-2.06388e-05
-5.38075e-06
-1.85251e-05
-1.68865e-06
-1.63689e-05
1.665e-06
-1.41943e-05
4.67146e-06
-1.20254e-05
7.32565e-06
-9.8853e-06
9.62614e-06
-7.79569e-06
1.15751e-05
-5.77673e-06
1.31783e-05
-3.84656e-06
1.44446e-05
-2.02102e-06
1.53861e-05
-3.13536e-07
1.60178e-05
1.26513e-06
1.63571e-05
2.70675e-06
1.64237e-05
4.00566e-06
1.62389e-05
5.15856e-06
1.58257e-05
6.16417e-06
1.52084e-05
7.02289e-06
1.44119e-05
7.73627e-06
1.34617e-05
8.30637e-06
1.23841e-05
8.73514e-06
1.12054e-05
9.02367e-06
9.95214e-06
9.1715e-06
8.6515e-06
9.17595e-06
7.33101e-06
9.03165e-06
6.01906e-06
8.73017e-06
4.74537e-06
8.26009e-06
3.54167e-06
7.60724e-06
2.44272e-06
6.75549e-06
1.48785e-06
5.68778e-06
7.23016e-07
4.38757e-06
2.03763e-07
2.84036e-06
1.03512e-06
7.67567e-08
-6.87242e-07
2.45612e-07
-1.67662e-06
4.57217e-07
-2.33283e-06
6.71412e-07
-2.69863e-06
8.55245e-07
-2.81208e-06
9.81635e-07
-2.70869e-06
1.02823e-06
-2.42129e-06
9.76502e-07
-1.97986e-06
8.10984e-07
-1.41143e-06
5.1873e-07
-7.4e-07
8.88439e-08
1.34827e-08
-4.87919e-07
8.31213e-07
-1.21948e-06
1.69846e-06
-2.11274e-06
2.60351e-06
-3.17382e-06
3.53747e-06
-4.40831e-06
4.49414e-06
-5.82144e-06