/*--------------------------------*- C++ -*----------------------------------*\
| =========                 |                                                 |
| \\      /  F ield         | OpenFOAM: The Open Source CFD Toolbox           |
|  \\    /   O peration     | Version:  2112                                  |
|   \\  /    A nd           | Website:  www.openfoam.com                      |
|    \\/     M anipulation  |                                                 |
\*---------------------------------------------------------------------------*/
FoamFile
{
    version     2.0;
    format      ascii;
    arch        "LSB;label=32;scalar=64";
    class       volVectorField;
    location    "28";
    object      U;
}
// * * * * * * * * * * * * * * * * * * * * * * * * * * * * * * * * * * * * * //

dimensions      [0 1 -1 0 0 0 0];

internalField   nonuniform List<vector> 
16641
(
(-6.91474e-06 6.95502e-06 0)
(3.91264e-06 -6.48753e-06 0)
(5.78006e-05 -2.1281e-05 0)
(0.000143087 -3.1518e-05 0)
(0.000249222 -3.74233e-05 0)
(0.000366643 -3.99647e-05 0)
(0.000487411 -4.00305e-05 0)
(0.000605403 -3.83398e-05 0)
(0.000716069 -3.54409e-05 0)
(0.000816126 -3.17471e-05 0)
(0.000903318 -2.75742e-05 0)
(0.000976211 -2.31636e-05 0)
(0.00103402 -1.86968e-05 0)
(0.00107647 -1.43058e-05 0)
(0.00110362 -1.00799e-05 0)
(0.00111581 -6.07245e-06 0)
(0.0011135 -2.30347e-06 0)
(0.00109719 1.23362e-06 0)
(0.00106739 4.56514e-06 0)
(0.00102448 7.73422e-06 0)
(0.000968747 1.0796e-05 0)
(0.000900293 1.38127e-05 0)
(0.000819052 1.68488e-05 0)
(0.000724771 1.99683e-05 0)
(0.000617022 2.3231e-05 0)
(0.000495218 2.66901e-05 0)
(0.000358631 3.03914e-05 0)
(0.000206426 3.43711e-05 0)
(3.76865e-05 3.86562e-05 0)
(-0.000148553 4.32643e-05 0)
(-0.000353276 4.82045e-05 0)
(-0.000577452 5.34772e-05 0)
(-0.000822011 5.90756e-05 0)
(-0.00108782 6.49856e-05 0)
(-0.00137563 7.11864e-05 0)
(-0.00168612 7.76512e-05 0)
(-0.00201978 8.43464e-05 0)
(-0.00237697 9.12323e-05 0)
(-0.00275786 9.82622e-05 0)
(-0.0031624 0.000105383 0)
(-0.00359034 0.000112534 0)
(-0.00404115 0.000119649 0)
(-0.00451407 0.000126651 0)
(-0.00500802 0.000133461 0)
(-0.00552164 0.00013999 0)
(-0.00605327 0.000146143 0)
(-0.00660091 0.000151822 0)
(-0.00716223 0.000156923 0)
(-0.00773458 0.000161338 0)
(-0.00831498 0.000164958 0)
(-0.00890013 0.000167673 0)
(-0.0094864 0.000169374 0)
(-0.0100699 0.000169956 0)
(-0.0106465 0.000169315 0)
(-0.0112116 0.000167357 0)
(-0.0117608 0.000163993 0)
(-0.0122892 0.000159147 0)
(-0.0127918 0.000152754 0)
(-0.0132637 0.000144763 0)
(-0.0136998 0.00013514 0)
(-0.0140951 0.000123869 0)
(-0.0144446 0.000110955 0)
(-0.0147435 9.64221e-05 0)
(-0.0149873 8.03217e-05 0)
(-0.0151717 6.27447e-05 0)
(-0.0152929 4.38048e-05 0)
(-0.0153473 2.35885e-05 0)
(-0.0153318 2.33054e-06 0)
(-0.0152439 -1.99178e-05 0)
(-0.0150819 -4.28913e-05 0)
(-0.0148446 -6.63384e-05 0)
(-0.0145318 -9.00037e-05 0)
(-0.0141438 -0.000113612 0)
(-0.0136818 -0.000136871 0)
(-0.013148 -0.000159474 0)
(-0.0125455 -0.00018111 0)
(-0.0118779 -0.000201463 0)
(-0.0111502 -0.000220223 0)
(-0.010368 -0.000237092 0)
(-0.00953755 -0.000251792 0)
(-0.00866604 -0.00026407 0)
(-0.00776122 -0.000273708 0)
(-0.00683138 -0.000280527 0)
(-0.00588523 -0.000284397 0)
(-0.00493176 -0.000285238 0)
(-0.00398012 -0.000283028 0)
(-0.00303942 -0.000277801 0)
(-0.00211863 -0.000269652 0)
(-0.00122637 -0.00025873 0)
(-0.00037072 -0.00024525 0)
(0.00044072 -0.000229518 0)
(0.00120119 -0.000211723 0)
(0.00190491 -0.000192279 0)
(0.00254695 -0.00017154 0)
(0.00312344 -0.000149881 0)
(0.00363161 -0.000127684 0)
(0.0040698 -0.000105329 0)
(0.00443743 -8.31782e-05 0)
(0.00473495 -6.15697e-05 0)
(0.00496383 -4.08088e-05 0)
(0.00512641 -2.11615e-05 0)
(0.00522585 -2.84975e-06 0)
(0.00526598 1.39513e-05 0)
(0.00525116 2.91139e-05 0)
(0.0051862 4.25601e-05 0)
(0.00507617 5.42563e-05 0)
(0.0049263 6.42115e-05 0)
(0.00474185 7.24731e-05 0)
(0.004528 7.9122e-05 0)
(0.00428974 8.42668e-05 0)
(0.00403178 8.80378e-05 0)
(0.00375852 9.05808e-05 0)
(0.00347396 9.20498e-05 0)
(0.00318171 9.25999e-05 0)
(0.00288494 9.23787e-05 0)
(0.00258649 9.15167e-05 0)
(0.00228886 9.01155e-05 0)
(0.00199434 8.82345e-05 0)
(0.00170514 8.58741e-05 0)
(0.00142358 8.29556e-05 0)
(0.00115235 7.92969e-05 0)
(0.000894746 7.45844e-05 0)
(0.000655048 6.83413e-05 0)
(0.000438856 5.99033e-05 0)
(0.000253401 4.84423e-05 0)
(0.000107455 3.31683e-05 0)
(1.02907e-05 1.39667e-05 0)
(-3.0437e-05 -6.75387e-06 0)
(-1.79583e-05 -1.80049e-05 0)
(6.43813e-06 -3.7752e-06 0)
(6.99096e-05 -6.99377e-05 0)
(0.000220715 -0.000135098 0)
(0.000434088 -0.000182814 0)
(0.000689736 -0.000212207 0)
(0.000969253 -0.000225652 0)
(0.00125579 -0.000226155 0)
(0.00153521 -0.000216623 0)
(0.0017963 -0.000199587 0)
(0.0020305 -0.000177161 0)
(0.00223152 -0.000151082 0)
(0.00239505 -0.000122747 0)
(0.00251832 -9.32556e-05 0)
(0.00259984 -6.34398e-05 0)
(0.00263907 -3.38905e-05 0)
(0.00263611 -4.98759e-06 0)
(0.0025915 2.30759e-05 0)
(0.00250593 5.02658e-05 0)
(0.00238012 7.66769e-05 0)
(0.00221462 0.000102506 0)
(0.00200974 0.000128023 0)
(0.00176542 0.000153544 0)
(0.00148121 0.000179409 0)
(0.00115626 0.000205952 0)
(0.000789336 0.000233489 0)
(0.000378839 0.000262299 0)
(-7.71229e-05 0.000292615 0)
(-0.000580671 0.000324612 0)
(-0.00113407 0.000358408 0)
(-0.00173967 0.000394061 0)
(-0.00239979 0.000431567 0)
(-0.00311663 0.000470868 0)
(-0.00389226 0.000511851 0)
(-0.00472845 0.00055435 0)
(-0.00562666 0.000598153 0)
(-0.00658797 0.000643002 0)
(-0.00761298 0.000688593 0)
(-0.00870177 0.00073458 0)
(-0.00985388 0.000780574 0)
(-0.0110682 0.000826146 0)
(-0.0123428 0.000870828 0)
(-0.0136754 0.000914111 0)
(-0.0150625 0.000955457 0)
(-0.0165001 0.000994295 0)
(-0.0179833 0.00103003 0)
(-0.0195064 0.00106204 0)
(-0.0210628 0.00108971 0)
(-0.022645 0.00111239 0)
(-0.0242449 0.00112945 0)
(-0.0258534 0.00114029 0)
(-0.0274609 0.00114429 0)
(-0.0290569 0.0011409 0)
(-0.0306304 0.00112959 0)
(-0.0321699 0.00110988 0)
(-0.0336635 0.00108137 0)
(-0.0350987 0.00104371 0)
(-0.0364631 0.000996639 0)
(-0.037744 0.000939985 0)
(-0.038929 0.000873674 0)
(-0.0400055 0.000797735 0)
(-0.0409616 0.000712313 0)
(-0.0417855 0.000617666 0)
(-0.0424663 0.000514179 0)
(-0.0429937 0.000402373 0)
(-0.0433583 0.000282939 0)
(-0.043552 0.00015663 0)
(-0.0435676 2.39669e-05 0)
(-0.0433993 -0.000113341 0)
(-0.0430425 -0.0002545 0)
(-0.0424949 -0.000398243 0)
(-0.0417553 -0.000543174 0)
(-0.0408245 -0.000687822 0)
(-0.0397051 -0.000830641 0)
(-0.0384018 -0.000970029 0)
(-0.036921 -0.00110434 0)
(-0.0352712 -0.00123194 0)
(-0.0334628 -0.00135116 0)
(-0.0315082 -0.00146044 0)
(-0.0294213 -0.00155824 0)
(-0.0272181 -0.00164316 0)
(-0.0249159 -0.00171394 0)
(-0.0225333 -0.00176948 0)
(-0.0200902 -0.0018089 0)
(-0.0176074 -0.00183154 0)
(-0.0151061 -0.00183701 0)
(-0.012608 -0.00182518 0)
(-0.0101347 -0.00179622 0)
(-0.00770759 -0.00175059 0)
(-0.00534725 -0.00168902 0)
(-0.00307333 -0.00161257 0)
(-0.000904139 -0.00152257 0)
(0.00114352 -0.00142043 0)
(0.00305484 -0.00130791 0)
(0.00481708 -0.0011869 0)
(0.00641976 -0.0010594 0)
(0.0078548 -0.000927455 0)
(0.00911664 -0.000793114 0)
(0.0102022 -0.000658402 0)
(0.0111109 -0.000525254 0)
(0.0118445 -0.000395469 0)
(0.0124071 -0.000270679 0)
(0.0128048 -0.00015231 0)
(0.0130453 -4.1562e-05 0)
(0.0131382 6.06064e-05 0)
(0.013094 0.000153489 0)
(0.0129246 0.000236628 0)
(0.0126421 0.000309808 0)
(0.0122593 0.000373038 0)
(0.0117889 0.000426533 0)
(0.0112435 0.000470687 0)
(0.0106352 0.000506039 0)
(0.00997569 0.000533241 0)
(0.00927577 0.000553015 0)
(0.00854554 0.000566108 0)
(0.00779422 0.00057324 0)
(0.00703027 0.000575047 0)
(0.00626153 0.000572015 0)
(0.00549536 0.000564405 0)
(0.00473903 0.000552177 0)
(0.00400007 0.000534899 0)
(0.00328673 0.000511668 0)
(0.00260857 0.00048104 0)
(0.00197691 0.000441001 0)
(0.00140529 0.000389052 0)
(0.000909565 0.000322584 0)
(0.000506989 0.00023992 0)
(0.00021365 0.000142603 0)
(4.15738e-05 4.06728e-05 0)
(-6.48452e-06 -3.05015e-05 0)
(2.1228e-05 -5.75763e-05 0)
(0.000135261 -0.000220748 0)
(0.000368059 -0.000367508 0)
(0.000679374 -0.000476231 0)
(0.00104165 -0.000544345 0)
(0.00143163 -0.000575316 0)
(0.00182738 -0.000574723 0)
(0.00220979 -0.000548602 0)
(0.00256319 -0.000502633 0)
(0.00287518 -0.000441838 0)
(0.00313636 -0.000370508 0)
(0.00333986 -0.000292197 0)
(0.00348104 -0.000209766 0)
(0.00355699 -0.000125422 0)
(0.00356615 -4.07714e-05 0)
(0.00350793 4.31212e-05 0)
(0.00338237 0.000125664 0)
(0.00318984 0.00020668 0)
(0.00293073 0.000286336 0)
(0.00260529 0.000365066 0)
(0.00221345 0.000443501 0)
(0.00175469 0.000522397 0)
(0.001228 0.000602568 0)
(0.000631821 0.00068483 0)
(-3.58725e-05 0.000769943 0)
(-0.000777568 0.000858572 0)
(-0.00159611 0.000951258 0)
(-0.00249458 0.00104839 0)
(-0.00347621 0.00115019 0)
(-0.00454423 0.00125672 0)
(-0.00570174 0.00136787 0)
(-0.00695158 0.00148337 0)
(-0.00829622 0.0016028 0)
(-0.00973762 0.00172559 0)
(-0.0112771 0.00185101 0)
(-0.0129154 0.00197822 0)
(-0.0146522 0.00210627 0)
(-0.0164865 0.00223404 0)
(-0.0184163 0.00236036 0)
(-0.0204382 0.0024839 0)
(-0.0225482 0.00260327 0)
(-0.0247406 0.00271698 0)
(-0.027009 0.00282346 0)
(-0.0293453 0.00292109 0)
(-0.0317404 0.00300822 0)
(-0.0341839 0.00308315 0)
(-0.0366642 0.00314421 0)
(-0.0391686 0.00318975 0)
(-0.0416831 0.00321814 0)
(-0.044193 0.00322785 0)
(-0.0466823 0.00321745 0)
(-0.0491345 0.00318562 0)
(-0.0515324 0.0031312 0)
(-0.0538582 0.00305319 0)
(-0.0560937 0.0029508 0)
(-0.0582209 0.00282345 0)
(-0.0602212 0.0026708 0)
(-0.0620768 0.00249274 0)
(-0.0637698 0.00228946 0)
(-0.0652831 0.00206142 0)
(-0.0666004 0.00180934 0)
(-0.0677063 0.00153428 0)
(-0.0685864 0.00123758 0)
(-0.0692277 0.000920917 0)
(-0.069619 0.000586316 0)
(-0.0697508 0.000236054 0)
(-0.0696146 -0.000128218 0)
(-0.0692041 -0.000502477 0)
(-0.0685158 -0.000883983 0)
(-0.0675482 -0.00126956 0)
(-0.0663017 -0.0016557 0)
(-0.0647795 -0.0020387 0)
(-0.0629871 -0.00241471 0)
(-0.0609325 -0.00277979 0)
(-0.0586262 -0.00312995 0)
(-0.0560813 -0.00346123 0)
(-0.0533133 -0.0037697 0)
(-0.05034 -0.0040516 0)
(-0.0471817 -0.00430334 0)
(-0.0438604 -0.00452161 0)
(-0.0404004 -0.00470346 0)
(-0.0368275 -0.00484632 0)
(-0.0331689 -0.00494811 0)
(-0.029453 -0.00500731 0)
(-0.0257091 -0.00502295 0)
(-0.0219666 -0.00499471 0)
(-0.0182553 -0.00492295 0)
(-0.0146046 -0.00480869 0)
(-0.0110429 -0.00465363 0)
(-0.00759769 -0.00446013 0)
(-0.00429487 -0.00423119 0)
(-0.00115833 -0.00397038 0)
(0.0017903 -0.00368169 0)
(0.00453201 -0.0033696 0)
(0.0070507 -0.00303896 0)
(0.00933335 -0.00269473 0)
(0.0113702 -0.002342 0)
(0.0131548 -0.00198581 0)
(0.014684 -0.0016311 0)
(0.0159582 -0.00128254 0)
(0.0169806 -0.00094443 0)
(0.0177577 -0.000620659 0)
(0.0182985 -0.000314596 0)
(0.0186146 -2.90438e-05 0)
(0.0187195 0.000233788 0)
(0.0186285 0.000472304 0)
(0.018358 0.000685517 0)
(0.0179256 0.000873022 0)
(0.0173492 0.00103496 0)
(0.0166467 0.00117194 0)
(0.0158361 0.00128502 0)
(0.0149346 0.00137554 0)
(0.0139588 0.00144507 0)
(0.0129244 0.00149531 0)
(0.0118461 0.0015279 0)
(0.0107379 0.0015443 0)
(0.00961268 0.00154563 0)
(0.00848298 0.00153247 0)
(0.00736115 0.00150471 0)
(0.00625982 0.00146134 0)
(0.00519245 0.0014003 0)
(0.00417396 0.00131847 0)
(0.00322112 0.00121168 0)
(0.00235299 0.00107516 0)
(0.00159071 0.000904605 0)
(0.000956173 0.000698395 0)
(0.000468889 0.00046167 0)
(0.000147285 0.000213988 0)
(1.51687e-05 1.15055e-05 0)
(3.16455e-05 -0.000143028 0)
(0.000183925 -0.000434816 0)
(0.000478975 -0.000679257 0)
(0.000860725 -0.000857153 0)
(0.00129464 -0.000966861 0)
(0.00175383 -0.00101383 0)
(0.00221303 -0.00100655 0)
(0.00265004 -0.000954488 0)
(0.00304633 -0.000866815 0)
(0.00338691 -0.000751901 0)
(0.00366005 -0.000617053 0)
(0.00385694 -0.000468445 0)
(0.00397126 -0.000311112 0)
(0.00399872 -0.000148999 0)
(0.0039366 1.4981e-05 0)
(0.00378339 0.000178855 0)
(0.0035383 0.000341488 0)
(0.00320099 0.000502476 0)
(0.00277119 0.000662023 0)
(0.00224852 0.000820814 0)
(0.00163223 0.000979887 0)
(0.000921128 0.0011405 0)
(0.000113464 0.00130403 0)
(-0.000793059 0.00147183 0)
(-0.00180125 0.00164516 0)
(-0.00291438 0.00182511 0)
(-0.00413602 0.00201251 0)
(-0.00546993 0.00220793 0)
(-0.00691992 0.00241163 0)
(-0.00848964 0.00262354 0)
(-0.0101824 0.00284327 0)
(-0.0120011 0.00307013 0)
(-0.0139479 0.00330313 0)
(-0.0160242 0.00354098 0)
(-0.0182305 0.00378214 0)
(-0.0205662 0.00402481 0)
(-0.0230292 0.00426697 0)
(-0.0256166 0.00450636 0)
(-0.0283238 0.00474054 0)
(-0.0311446 0.00496688 0)
(-0.0340714 0.00518261 0)
(-0.0370952 0.00538482 0)
(-0.040205 0.0055705 0)
(-0.0433886 0.00573659 0)
(-0.046632 0.00587999 0)
(-0.0499198 0.00599763 0)
(-0.0532352 0.0060865 0)
(-0.0565601 0.0061437 0)
(-0.0598751 0.00616647 0)
(-0.06316 0.00615227 0)
(-0.0663936 0.00609879 0)
(-0.0695539 0.006004 0)
(-0.0726189 0.00586621 0)
(-0.0755659 0.0056841 0)
(-0.0783723 0.00545671 0)
(-0.0810158 0.00518355 0)
(-0.0834744 0.00486454 0)
(-0.0857268 0.00450007 0)
(-0.0877526 0.00409102 0)
(-0.0895322 0.00363875 0)
(-0.0910476 0.00314512 0)
(-0.092282 0.00261249 0)
(-0.0932203 0.00204369 0)
(-0.0938493 0.00144202 0)
(-0.0941576 0.000811107 0)
(-0.094137 0.000155218 0)
(-0.0937795 -0.000519368 0)
(-0.0930795 -0.00120928 0)
(-0.0920363 -0.00190881 0)
(-0.0906499 -0.002612 0)
(-0.0889233 -0.00331272 0)
(-0.086862 -0.0040046 0)
(-0.0844744 -0.00468112 0)
(-0.0817715 -0.00533562 0)
(-0.078767 -0.00596144 0)
(-0.0754774 -0.00655196 0)
(-0.0719215 -0.0071007 0)
(-0.0681209 -0.00760142 0)
(-0.0640995 -0.00804823 0)
(-0.0598834 -0.0084357 0)
(-0.0555006 -0.00875893 0)
(-0.0509813 -0.00901372 0)
(-0.0463568 -0.00919661 0)
(-0.0416601 -0.00930503 0)
(-0.0369248 -0.00933732 0)
(-0.0321851 -0.00929289 0)
(-0.0274757 -0.00917216 0)
(-0.0228306 -0.00897671 0)
(-0.0182836 -0.00870919 0)
(-0.013867 -0.00837336 0)
(-0.00961205 -0.00797403 0)
(-0.00554763 -0.00751697 0)
(-0.00170047 -0.00700882 0)
(0.00190539 -0.00645696 0)
(0.00524901 -0.00586938 0)
(0.00831288 -0.00525453 0)
(0.0110829 -0.00462106 0)
(0.0135489 -0.0039777 0)
(0.0157044 -0.00333306 0)
(0.0175466 -0.00269542 0)
(0.0190768 -0.00207256 0)
(0.0202998 -0.00147162 0)
(0.0212237 -0.000898953 0)
(0.0218599 -0.000359996 0)
(0.0222224 0.000140785 0)
(0.0223278 0.000599949 0)
(0.0221945 0.00101511 0)
(0.0218424 0.00138489 0)
(0.0212925 0.00170891 0)
(0.0205666 0.00198765 0)
(0.0196863 0.00222237 0)
(0.0186733 0.00241498 0)
(0.0175487 0.00256781 0)
(0.016333 0.00268346 0)
(0.0150458 0.00276454 0)
(0.0137056 0.00281337 0)
(0.0123304 0.00283179 0)
(0.0109375 0.00282076 0)
(0.00954419 0.00278011 0)
(0.0081677 0.00270829 0)
(0.00682621 0.00260213 0)
(0.00553911 0.00245683 0)
(0.00432751 0.00226625 0)
(0.00321452 0.0020236 0)
(0.00222513 0.00172313 0)
(0.00138492 0.00136328 0)
(0.000717287 0.000951677 0)
(0.000250619 0.000513562 0)
(3.59593e-05 0.000113032 0)
(3.79699e-05 -0.000250082 0)
(0.000215135 -0.000692672 0)
(0.000550892 -0.00104369 0)
(0.00097609 -0.00129198 0)
(0.00144989 -0.00143993 0)
(0.00194216 -0.00149642 0)
(0.00242523 -0.00147352 0)
(0.00287482 -0.00138434 0)
(0.00327057 -0.00124171 0)
(0.0035958 -0.0010575 0)
(0.00383719 -0.000842175 0)
(0.00398446 -0.000604718 0)
(0.0040299 -0.000352518 0)
(0.00396797 -9.14194e-05 0)
(0.00379484 0.000174209 0)
(0.00350789 0.000441367 0)
(0.00310539 0.00070829 0)
(0.00258604 0.000974287 0)
(0.00194868 0.00123957 0)
(0.00119206 0.00150504 0)
(0.000314575 0.00177217 0)
(-0.000685809 0.0020427 0)
(-0.00181165 0.00231855 0)
(-0.00306602 0.00260162 0)
(-0.00445245 0.00289363 0)
(-0.00597482 0.00319601 0)
(-0.00763723 0.00350982 0)
(-0.00944379 0.00383566 0)
(-0.0113985 0.00417364 0)
(-0.0135048 0.00452336 0)
(-0.0157659 0.00488393 0)
(-0.018184 0.00525392 0)
(-0.0207601 0.00563147 0)
(-0.0234946 0.00601423 0)
(-0.026386 0.00639945 0)
(-0.0294316 0.00678399 0)
(-0.032627 0.00716435 0)
(-0.0359662 0.00753671 0)
(-0.0394413 0.00789697 0)
(-0.0430425 0.00824079 0)
(-0.0467581 0.00856364 0)
(-0.0505746 0.00886084 0)
(-0.0544765 0.00912765 0)
(-0.0584467 0.00935931 0)
(-0.0624663 0.00955109 0)
(-0.0665149 0.00969839 0)
(-0.0705705 0.00979683 0)
(-0.0746101 0.00984224 0)
(-0.0786095 0.00983084 0)
(-0.082544 0.0097592 0)
(-0.0863879 0.00962438 0)
(-0.0901155 0.00942393 0)
(-0.0937011 0.00915599 0)
(-0.0971189 0.00881928 0)
(-0.100344 0.00841316 0)
(-0.103351 0.00793766 0)
(-0.106118 0.00739348 0)
(-0.108621 0.006782 0)
(-0.110839 0.00610531 0)
(-0.112753 0.00536618 0)
(-0.114345 0.00456807 0)
(-0.115599 0.00371509 0)
(-0.116501 0.00281202 0)
(-0.117039 0.00186424 0)
(-0.117202 0.000877568 0)
(-0.116984 -0.000141387 0)
(-0.116379 -0.00118396 0)
(-0.115386 -0.00224431 0)
(-0.114004 -0.0033141 0)
(-0.112235 -0.00438471 0)
(-0.110084 -0.00544734 0)
(-0.10756 -0.0064929 0)
(-0.104672 -0.00751214 0)
(-0.101435 -0.00849568 0)
(-0.0978629 -0.00943418 0)
(-0.0939748 -0.0103184 0)
(-0.0897914 -0.0111392 0)
(-0.0853361 -0.011888 0)
(-0.0806346 -0.0125565 0)
(-0.0757149 -0.0131372 0)
(-0.0706069 -0.0136232 0)
(-0.0653425 -0.0140085 0)
(-0.0599554 -0.0142882 0)
(-0.0544804 -0.0144587 0)
(-0.0489534 -0.0145174 0)
(-0.0434114 -0.0144632 0)
(-0.0378913 -0.0142966 0)
(-0.0324304 -0.0140195 0)
(-0.0270653 -0.0136353 0)
(-0.0218318 -0.0131489 0)
(-0.0167646 -0.0125669 0)
(-0.0118964 -0.0118971 0)
(-0.00725779 -0.0111486 0)
(-0.00287694 -0.0103318 0)
(0.00122111 -0.00945779 0)
(0.00501461 -0.00853855 0)
(0.00848538 -0.00758649 0)
(0.0116191 -0.00661426 0)
(0.0144054 -0.00563445 0)
(0.0168382 -0.00465936 0)
(0.0189152 -0.00370071 0)
(0.0206385 -0.00276945 0)
(0.0220138 -0.00187547 0)
(0.0230508 -0.00102752 0)
(0.0237623 -0.000232976 0)
(0.0241643 0.000502218 0)
(0.0242752 0.0011736 0)
(0.0241159 0.00177822 0)
(0.0237085 0.00231455 0)
(0.0230768 0.00278242 0)
(0.022245 0.00318286 0)
(0.0212377 0.00351791 0)
(0.0200795 0.00379036 0)
(0.0187945 0.00400348 0)
(0.0174063 0.00416065 0)
(0.0159378 0.004265 0)
(0.0144112 0.00431897 0)
(0.0128484 0.00432394 0)
(0.0112708 0.00427977 0)
(0.00970005 0.00418446 0)
(0.00815845 0.00403391 0)
(0.00666928 0.00382197 0)
(0.00525731 0.00354077 0)
(0.00394903 0.00318176 0)
(0.00277293 0.0027377 0)
(0.0017584 0.00220613 0)
(0.000933847 0.00159456 0)
(0.000339207 0.000928106 0)
(5.29573e-05 0.000267122 0)
(4.11533e-05 -0.000369668 0)
(0.000231059 -0.000976537 0)
(0.000586534 -0.00143796 0)
(0.00102928 -0.00175386 0)
(0.00151338 -0.00193306 0)
(0.0020059 -0.00198941 0)
(0.00247727 -0.00193931 0)
(0.0029018 -0.00179991 0)
(0.00325798 -0.00158786 0)
(0.00352806 -0.00131855 0)
(0.00369767 -0.00100571 0)
(0.00375545 -0.000661126 0)
(0.00369264 -0.000294589 0)
(0.0035026 8.61115e-05 0)
(0.00318041 0.000475112 0)
(0.0027224 0.000868347 0)
(0.00212575 0.00126338 0)
(0.0013881 0.00165921 0)
(0.000507285 0.00205602 0)
(-0.00051898 0.00245493 0)
(-0.00169325 0.00285776 0)
(-0.00301848 0.00326673 0)
(-0.00449805 0.00368425 0)
(-0.00613577 0.00411264 0)
(-0.00793577 0.00455399 0)
(-0.00990236 0.00500993 0)
(-0.0120399 0.00548154 0)
(-0.0143524 0.00596926 0)
(-0.0168436 0.00647281 0)
(-0.0195164 0.00699116 0)
(-0.0223731 0.00752257 0)
(-0.0254143 0.00806457 0)
(-0.0286398 0.00861401 0)
(-0.0320475 0.00916712 0)
(-0.0356336 0.00971951 0)
(-0.0393924 0.0102663 0)
(-0.0433163 0.0108021 0)
(-0.0473954 0.0113211 0)
(-0.0516179 0.0118173 0)
(-0.0559697 0.0122842 0)
(-0.0604346 0.0127152 0)
(-0.0649942 0.0131038 0)
(-0.0696284 0.0134432 0)
(-0.0743151 0.013727 0)
(-0.0790305 0.0139487 0)
(-0.0837495 0.0141023 0)
(-0.0884459 0.0141822 0)
(-0.0930924 0.0141832 0)
(-0.0976612 0.0141008 0)
(-0.102124 0.013931 0)
(-0.106452 0.0136707 0)
(-0.110618 0.0133175 0)
(-0.114593 0.0128699 0)
(-0.118352 0.0123272 0)
(-0.121867 0.0116895 0)
(-0.125115 0.0109579 0)
(-0.128071 0.0101345 0)
(-0.130714 0.009222 0)
(-0.133024 0.00822425 0)
(-0.134983 0.00714579 0)
(-0.136574 0.00599201 0)
(-0.137784 0.0047691 0)
(-0.138599 0.00348401 0)
(-0.139012 0.00214443 0)
(-0.139013 0.000758801 0)
(-0.138597 -0.000663941 0)
(-0.137761 -0.00211506 0)
(-0.136506 -0.0035835 0)
(-0.134832 -0.00505881 0)
(-0.132744 -0.00653009 0)
(-0.130248 -0.007986 0)
(-0.127353 -0.00941488 0)
(-0.124072 -0.0108049 0)
(-0.120417 -0.0121441 0)
(-0.116405 -0.0134207 0)
(-0.112056 -0.0146227 0)
(-0.10739 -0.0157388 0)
(-0.102432 -0.0167578 0)
(-0.0972062 -0.0176693 0)
(-0.0917421 -0.0184634 0)
(-0.0860698 -0.0191314 0)
(-0.0802216 -0.0196656 0)
(-0.0742316 -0.0200593 0)
(-0.0681352 -0.0203076 0)
(-0.0619695 -0.020407 0)
(-0.0557723 -0.0203557 0)
(-0.0495821 -0.0201539 0)
(-0.0434377 -0.0198035 0)
(-0.0373777 -0.0193085 0)
(-0.0314405 -0.0186748 0)
(-0.025663 -0.0179101 0)
(-0.020081 -0.0170243 0)
(-0.0147284 -0.0160287 0)
(-0.00963674 -0.0149363 0)
(-0.00483472 -0.0137613 0)
(-0.000348034 -0.0125191 0)
(0.00380116 -0.0112258 0)
(0.00759447 -0.00989802 0)
(0.0110175 -0.00855241 0)
(0.0140601 -0.00720549 0)
(0.0167164 -0.00587321 0)
(0.0189848 -0.00457067 0)
(0.0208677 -0.00331177 0)
(0.0223721 -0.00210903 0)
(0.0235084 -0.000973307 0)
(0.0242908 8.63441e-05 0)
(0.0247364 0.00106277 0)
(0.0248655 0.00195077 0)
(0.0247002 0.00274707 0)
(0.0242649 0.00345023 0)
(0.023585 0.00406049 0)
(0.022687 0.0045795 0)
(0.0215978 0.00501005 0)
(0.0203441 0.00535568 0)
(0.018953 0.00562026 0)
(0.0174506 0.00580747 0)
(0.0158631 0.00592028 0)
(0.014216 0.00596039 0)
(0.0125347 0.00592772 0)
(0.0108448 0.00581997 0)
(0.00917215 0.00563233 0)
(0.00754359 0.00535749 0)
(0.00598716 0.0049861 0)
(0.00453264 0.00450785 0)
(0.00321199 0.00391356 0)
(0.00205888 0.0031985 0)
(0.00110739 0.00236711 0)
(0.000408849 0.00143933 0)
(6.56921e-05 0.000463843 0)
(4.20013e-05 -0.000494155 0)
(0.000234183 -0.00126964 0)
(0.000590058 -0.0018396 0)
(0.0010261 -0.00221628 0)
(0.00149284 -0.00241655 0)
(0.00195518 -0.00246043 0)
(0.00238214 -0.0023694 0)
(0.00274715 -0.00216503 0)
(0.00302801 -0.00186795 0)
(0.00320637 -0.00149715 0)
(0.00326722 -0.00106951 0)
(0.00319845 -0.000599618 0)
(0.00299049 -9.95918e-05 0)
(0.00263579 0.000420881 0)
(0.00212842 0.00095448 0)
(0.00146367 0.0014961 0)
(0.00063764 0.00204265 0)
(-0.000353131 0.0025928 0)
(-0.00151192 0.00314669 0)
(-0.00284206 0.00370561 0)
(-0.00434711 0.00427169 0)
(-0.00603093 0.00484753 0)
(-0.00789768 0.00543588 0)
(-0.00995179 0.00603938 0)
(-0.0121978 0.00666027 0)
(-0.0146401 0.00730017 0)
(-0.017283 0.00795992 0)
(-0.0201302 0.00863949 0)
(-0.0231844 0.00933786 0)
(-0.0264475 0.010053 0)
(-0.02992 0.010782 0)
(-0.0336009 0.0115209 0)
(-0.0374871 0.0122649 0)
(-0.0415739 0.0130083 0)
(-0.0458543 0.0137446 0)
(-0.0503189 0.014467 0)
(-0.054956 0.0151677 0)
(-0.0597517 0.0158387 0)
(-0.0646894 0.0164716 0)
(-0.0697505 0.0170578 0)
(-0.0749139 0.0175884 0)
(-0.0801565 0.0180549 0)
(-0.0854536 0.0184486 0)
(-0.0907784 0.0187615 0)
(-0.0961031 0.0189856 0)
(-0.101399 0.0191139 0)
(-0.106635 0.0191397 0)
(-0.111783 0.0190574 0)
(-0.116811 0.0188621 0)
(-0.12169 0.01855 0)
(-0.12639 0.0181182 0)
(-0.130881 0.017565 0)
(-0.135137 0.0168897 0)
(-0.139131 0.0160928 0)
(-0.142837 0.0151758 0)
(-0.146232 0.0141413 0)
(-0.149295 0.0129929 0)
(-0.152005 0.0117354 0)
(-0.154346 0.0103745 0)
(-0.1563 0.00891663 0)
(-0.157854 0.00736938 0)
(-0.158996 0.00574104 0)
(-0.159717 0.00404072 0)
(-0.160009 0.00227828 0)
(-0.159866 0.000464349 0)
(-0.159285 -0.00138984 0)
(-0.158265 -0.00327299 0)
(-0.156805 -0.00517226 0)
(-0.15491 -0.00707484 0)
(-0.152584 -0.00896746 0)
(-0.149833 -0.0108364 0)
(-0.146668 -0.0126678 0)
(-0.1431 -0.0144474 0)
(-0.139142 -0.016161 0)
(-0.13481 -0.0177941 0)
(-0.130123 -0.0193328 0)
(-0.125101 -0.0207631 0)
(-0.119768 -0.0220717 0)
(-0.114148 -0.0232457 0)
(-0.108268 -0.0242733 0)
(-0.10216 -0.0251436 0)
(-0.0958528 -0.0258468 0)
(-0.0893819 -0.0263748 0)
(-0.0827823 -0.026721 0)
(-0.0760908 -0.0268806 0)
(-0.0693459 -0.026851 0)
(-0.0625866 -0.0266316 0)
(-0.055853 -0.0262242 0)
(-0.049185 -0.0256328 0)
(-0.0426225 -0.024864 0)
(-0.036205 -0.0239266 0)
(-0.0299706 -0.0228318 0)
(-0.023956 -0.021593 0)
(-0.0181959 -0.0202256 0)
(-0.0127226 -0.0187465 0)
(-0.00756534 -0.0171744 0)
(-0.00275018 -0.015529 0)
(0.00170048 -0.0138306 0)
(0.00576817 -0.0121001 0)
(0.00943863 -0.0103583 0)
(0.0127019 -0.00862543 0)
(0.0155525 -0.00692097 0)
(0.0179893 -0.00526314 0)
(0.0200156 -0.0036686 0)
(0.0216389 -0.00215212 0)
(0.0228707 -0.000726383 0)
(0.0237261 0.000598205 0)
(0.0242236 0.00181361 0)
(0.0243846 0.00291419 0)
(0.0242328 0.00389661 0)
(0.0237938 0.00475969 0)
(0.023095 0.00550412 0)
(0.0221646 0.00613217 0)
(0.0210313 0.00664717 0)
(0.0197244 0.00705307 0)
(0.0182731 0.00735378 0)
(0.0167063 0.00755256 0)
(0.0150529 0.00765133 0)
(0.0133419 0.00765006 0)
(0.011602 0.0075462 0)
(0.00986266 0.00733435 0)
(0.00815385 0.00700623 0)
(0.00650679 0.00655103 0)
(0.00495449 0.00595655 0)
(0.00353258 0.00521098 0)
(0.00227917 0.00430592 0)
(0.00123413 0.00324023 0)
(0.000458839 0.00202492 0)
(7.44374e-05 0.000692299 0)
(4.10949e-05 -0.000617379 0)
(0.000226642 -0.00155708 0)
(0.000565515 -0.00222773 0)
(0.000972429 -0.00265418 0)
(0.00139599 -0.00286225 0)
(0.00179968 -0.00287892 0)
(0.00215174 -0.00273135 0)
(0.00242518 -0.00244586 0)
(0.00259756 -0.00204715 0)
(0.00265028 -0.0015578 0)
(0.00256798 -0.000997808 0)
(0.00233812 -0.000384388 0)
(0.00195047 0.000268117 0)
(0.00139674 0.000948241 0)
(0.000670107 0.0016473 0)
(-0.000235138 0.00235922 0)
(-0.00132397 0.0030803 0)
(-0.00260093 0.00380889 0)
(-0.00407039 0.00454508 0)
(-0.00573675 0.00529027 0)
(-0.00760451 0.00604679 0)
(-0.00967836 0.00681749 0)
(-0.0119631 0.00760532 0)
(-0.0144636 0.00841297 0)
(-0.0171845 0.0092426 0)
(-0.0201301 0.0100955 0)
(-0.023304 0.0109719 0)
(-0.026709 0.011871 0)
(-0.0303465 0.0127906 0)
(-0.0342167 0.0137273 0)
(-0.0383177 0.0146765 0)
(-0.0426457 0.0156323 0)
(-0.0471948 0.0165877 0)
(-0.0519566 0.017535 0)
(-0.05692 0.0184651 0)
(-0.0620717 0.0193688 0)
(-0.0673955 0.0202357 0)
(-0.0728726 0.0210553 0)
(-0.078482 0.0218168 0)
(-0.0842001 0.0225093 0)
(-0.0900014 0.023122 0)
(-0.0958583 0.0236441 0)
(-0.101742 0.0240657 0)
(-0.107622 0.024377 0)
(-0.113467 0.0245694 0)
(-0.119245 0.024635 0)
(-0.124925 0.0245669 0)
(-0.130474 0.0243594 0)
(-0.135863 0.024008 0)
(-0.141059 0.0235096 0)
(-0.146035 0.0228622 0)
(-0.150761 0.0220654 0)
(-0.155212 0.0211197 0)
(-0.159362 0.0200273 0)
(-0.16319 0.0187914 0)
(-0.166673 0.0174166 0)
(-0.169793 0.0159083 0)
(-0.172532 0.0142733 0)
(-0.174876 0.0125193 0)
(-0.176811 0.0106548 0)
(-0.178326 0.00868937 0)
(-0.179411 0.00663331 0)
(-0.180059 0.00449769 0)
(-0.180264 0.00229429 0)
(-0.180022 3.56656e-05 0)
(-0.17933 -0.00226485 0)
(-0.178188 -0.00459393 0)
(-0.176598 -0.00693712 0)
(-0.174562 -0.00927958 0)
(-0.172085 -0.011606 0)
(-0.169173 -0.0139008 0)
(-0.165835 -0.0161478 0)
(-0.162081 -0.0183309 0)
(-0.157924 -0.0204335 0)
(-0.153379 -0.0224391 0)
(-0.148461 -0.0243314 0)
(-0.143191 -0.0260942 0)
(-0.137589 -0.0277119 0)
(-0.131679 -0.0291693 0)
(-0.125487 -0.0304524 0)
(-0.119042 -0.0315479 0)
(-0.112372 -0.0324441 0)
(-0.105513 -0.0331308 0)
(-0.0984971 -0.0335997 0)
(-0.0913623 -0.0338444 0)
(-0.0841466 -0.033861 0)
(-0.0768896 -0.0336479 0)
(-0.0696319 -0.0332063 0)
(-0.0624147 -0.0325399 0)
(-0.0552796 -0.0316556 0)
(-0.048268 -0.0305629 0)
(-0.0414203 -0.029274 0)
(-0.0347761 -0.0278039 0)
(-0.0283731 -0.0261701 0)
(-0.0222468 -0.0243922 0)
(-0.0164303 -0.0224918 0)
(-0.0109534 -0.0204918 0)
(-0.00584235 -0.0184164 0)
(-0.00111982 -0.0162905 0)
(0.0031958 -0.0141392 0)
(0.00709048 -0.011987 0)
(0.0105547 -0.00985797 0)
(0.0135833 -0.00777485 0)
(0.0161762 -0.00575869 0)
(0.0183372 -0.00382852 0)
(0.0200747 -0.00200107 0)
(0.0214014 -0.00029044 0)
(0.0223333 0.00129196 0)
(0.0228902 0.00273756 0)
(0.0230946 0.00404054 0)
(0.0229717 0.0051977 0)
(0.0225486 0.00620818 0)
(0.0218542 0.00707313 0)
(0.0209185 0.00779519 0)
(0.0197723 0.00837789 0)
(0.0184467 0.00882501 0)
(0.0169733 0.00913979 0)
(0.0153838 0.00932418 0)
(0.0137098 0.00937806 0)
(0.0119833 0.00929866 0)
(0.0102367 0.00908 0)
(0.00850304 0.00871285 0)
(0.00681663 0.00818494 0)
(0.00521374 0.00748183 0)
(0.00373364 0.00658851 0)
(0.00241881 0.00549168 0)
(0.00131448 0.00418282 0)
(0.000490035 0.00266166 0)
(7.96426e-05 0.000941948 0)
(3.88049e-05 -0.000734281 0)
(0.000210016 -0.00182576 0)
(0.00051622 -0.00258338 0)
(0.000873332 -0.00304438 0)
(0.00122957 -0.00324389 0)
(0.0015479 -0.00321635 0)
(0.00179644 -0.00299493 0)
(0.00194832 -0.00261088 0)
(0.00198123 -0.00209307 0)
(0.00187665 -0.00146756 0)
(0.00161917 -0.000757317 0)
(0.00119597 1.79537e-05 0)
(0.0005964 0.000841872 0)
(-0.000188489 0.00170135 0)
(-0.00116631 0.00258648 0)
(-0.0023437 0.00349031 0)
(-0.00372665 0.00440859 0)
(-0.00532075 0.00533939 0)
(-0.00713141 0.00628268 0)
(-0.00916399 0.00723992 0)
(-0.0114238 0.00821352 0)
(-0.0139163 0.00920636 0)
(-0.0166467 0.0102214 0)
(-0.0196199 0.011261 0)
(-0.0228403 0.012327 0)
(-0.0263118 0.01342 0)
(-0.0300368 0.0145392 0)
(-0.0340166 0.0156825 0)
(-0.0382509 0.0168461 0)
(-0.042737 0.0180247 0)
(-0.0474705 0.0192116 0)
(-0.0524441 0.0203987 0)
(-0.0576481 0.0215763 0)
(-0.06307 0.0227341 0)
(-0.0686945 0.0238604 0)
(-0.0745036 0.0249431 0)
(-0.0804763 0.0259693 0)
(-0.0865893 0.0269258 0)
(-0.0928167 0.0277996 0)
(-0.0991307 0.0285776 0)
(-0.105502 0.029247 0)
(-0.111898 0.0297956 0)
(-0.118288 0.0302123 0)
(-0.124639 0.0304865 0)
(-0.130916 0.0306091 0)
(-0.137089 0.0305722 0)
(-0.143122 0.0303693 0)
(-0.148986 0.0299953 0)
(-0.154649 0.0294468 0)
(-0.160082 0.0287218 0)
(-0.165258 0.0278199 0)
(-0.17015 0.0267422 0)
(-0.174735 0.0254912 0)
(-0.178991 0.024071 0)
(-0.182898 0.0224866 0)
(-0.186438 0.0207447 0)
(-0.189594 0.0188527 0)
(-0.192352 0.0168193 0)
(-0.194701 0.0146539 0)
(-0.196628 0.0123671 0)
(-0.198126 0.00997015 0)
(-0.199186 0.007475 0)
(-0.199802 0.00489443 0)
(-0.199969 0.00224183 0)
(-0.199685 -0.000468707 0)
(-0.198948 -0.00322243 0)
(-0.197756 -0.0060042 0)
(-0.19611 -0.00879809 0)
(-0.194014 -0.0115877 0)
(-0.19147 -0.014356 0)
(-0.188484 -0.0170857 0)
(-0.185063 -0.0197589 0)
(-0.181215 -0.0223575 0)
(-0.17695 -0.0248629 0)
(-0.172282 -0.0272567 0)
(-0.167225 -0.0295203 0)
(-0.161796 -0.0316353 0)
(-0.156013 -0.0335836 0)