/*--------------------------------*- C++ -*----------------------------------*\
| =========                 |                                                 |
| \\      /  F ield         | OpenFOAM: The Open Source CFD Toolbox           |
|  \\    /   O peration     | Version:  2112                                  |
|   \\  /    A nd           | Website:  www.openfoam.com                      |
|    \\/     M anipulation  |                                                 |
\*---------------------------------------------------------------------------*/
FoamFile
{
    version     2.0;
    format      ascii;
    arch        "LSB;label=32;scalar=64";
    class       volScalarField;
    location    "1.5";
    object      p;
}
// * * * * * * * * * * * * * * * * * * * * * * * * * * * * * * * * * * * * * //

dimensions      [0 2 -2 0 0 0 0];

internalField   nonuniform List<scalar> 
16641
(
2.04528e-09
2.33394e-06
1.39972e-06
-3.2712e-06
-1.15489e-05
-2.31065e-05
-3.75003e-05
-5.42842e-05
-7.3069e-05
-9.35407e-05
-0.00011546
-0.000138659
-0.000163025
-0.000188496
-0.000215045
-0.000242671
-0.000271391
-0.00030123
-0.000332213
-0.000364362
-0.000397692
-0.000432203
-0.000467883
-0.000504705
-0.000542623
-0.000581575
-0.000621482
-0.000662245
-0.00070375
-0.000745865
-0.000788441
-0.000831309
-0.000874284
-0.000917162
-0.000959718
-0.00100171
-0.00104286
-0.0010829
-0.00112152
-0.00115837
-0.00119312
-0.00122538
-0.00125477
-0.00128088
-0.00130329
-0.00132155
-0.00133523
-0.00134389
-0.0013471
-0.00134443
-0.00133547
-0.00131986
-0.00129727
-0.0012674
-0.00123004
-0.00118502
-0.00113227
-0.00107181
-0.00100375
-0.000928314
-0.000845846
-0.000756809
-0.000661798
-0.000561541
-0.000456905
-0.000348797
-0.000238399
-0.000126914
-1.56606e-05
9.39528e-05
0.000200446
0.000302291
0.000397932
0.000485814
0.000564408
0.000632236
0.000687909
0.000730144
0.0007578
0.0007699
0.000765653
0.000744476
0.000706009
0.000650123
0.000576931
0.000486783
0.000380268
0.000258193
0.000121584
-2.83542e-05
-0.000190248
-0.000362587
-0.000543756
-0.000732068
-0.000925792
-0.00112319
-0.00132254
-0.0015222
-0.00172055
-0.00191614
-0.00210759
-0.00229367
-0.00247331
-0.00264557
-0.00280968
-0.00296501
-0.00311109
-0.00324758
-0.00337426
-0.00349104
-0.0035979
-0.00369493
-0.00378225
-0.00386006
-0.00392855
-0.00398795
-0.00403846
-0.00408031
-0.00411367
-0.00413872
-0.00415566
-0.00416471
-0.00416619
-0.00416065
-0.00414898
-0.00413268
-0.00411419
-0.00409711
-0.00408671
-2.60622e-06
-2.61812e-07
-1.51132e-06
-6.1318e-06
-1.38131e-05
-2.43568e-05
-3.74784e-05
-5.2856e-05
-7.01962e-05
-8.92456e-05
-0.000109802
-0.000131712
-0.000154867
-0.000179195
-0.000204656
-0.000231231
-0.000258916
-0.000287717
-0.00031764
-0.000348692
-0.00038087
-0.000414165
-0.000448556
-0.000484008
-0.000520473
-0.000557888
-0.000596175
-0.000635238
-0.00067497
-0.000715244
-0.000755919
-0.000796838
-0.000837826
-0.000878692
-0.000919226
-0.000959199
-0.000998362
-0.00103645
-0.00107317
-0.00110822
-0.00114127
-0.00117196
-0.00119995
-0.00122484
-0.00124623
-0.00126374
-0.00127693
-0.00128541
-0.00128877
-0.00128661
-0.00127857
-0.00126428
-0.00124345
-0.0012158
-0.00118112
-0.00113928
-0.0010902
-0.00103389
-0.000970479
-0.000900164
-0.000823274
-0.000740248
-0.000651648
-0.000558158
-0.000460579
-0.000359877
-0.000257059
-0.000153292
-4.983e-05
5.19891e-05
0.000150762
0.000245039
0.000333346
0.000414208
0.000486176
0.000547852
0.000597917
0.00063516
0.000658502
0.000667022
0.000659977
0.000636821
0.000597221
0.000541066
0.000468471
0.000379782
0.000275567
0.000156604
2.38726e-05
-0.00012147
-0.000278114
-0.000444623
-0.000619458
-0.000801016
-0.000987653
-0.00117772
-0.0013696
-0.00156171
-0.00175255
-0.00194072
-0.00212494
-0.00230405
-0.00247702
-0.00264297
-0.00280118
-0.00295104
-0.00309211
-0.00322406
-0.00334669
-0.00345989
-0.00356364
-0.00365803
-0.00374316
-0.00381921
-0.00388638
-0.0039449
-0.00399497
-0.00403684
-0.00407072
-0.00409685
-0.00411549
-0.00412696
-0.00413166
-0.00413019
-0.00412341
-0.00411261
-0.00409965
-0.00408676
-0.00407631
-2.00153e-06
6.94098e-07
-5.70549e-07
-5.13941e-06
-1.25106e-05
-2.25019e-05
-3.48842e-05
-4.93902e-05
-6.57849e-05
-8.38572e-05
-0.000103436
-0.00012438
-0.000146592
-0.000170003
-0.000194567
-0.000220259
-0.000247065
-0.00027498
-0.000304001
-0.000334124
-0.000365339
-0.00039763
-0.000430969
-0.000465317
-0.000500625
-0.00053683
-0.000573853
-0.000611606
-0.000649982
-0.000688864
-0.000728117
-0.000767594
-0.00080713
-0.000846546
-0.000885643
-0.000924208
-0.000962008
-0.000998791
-0.00103429
-0.00106821
-0.00110024
-0.00113005
-0.00115731
-0.00118164
-0.00120268
-0.00122004
-0.00123333
-0.00124216
-0.00124613
-0.00124487
-0.00123803
-0.00122525
-0.00120625
-0.00118076
-0.00114857
-0.00110954
-0.00106359
-0.00101072
-0.000951047
-0.000884753
-0.000812144
-0.000733633
-0.000649756
-0.000561165
-0.000468625
-0.00037305
-0.000275431
-0.000176884
-7.86202e-05
1.80681e-05
0.000111821
0.000201233
0.000284873
0.000361306
0.000429125
0.00048697
0.000533557
0.000567707
0.000588371
0.000594653
0.00058583
0.000561375
0.000520966
0.0004645
0.000392097
0.000304099
0.000201067
8.37705e-05
-4.68295e-05
-0.000189603
-0.000343259
-0.000506396
-0.000677511
-0.000855039
-0.00103738
-0.00122293
-0.00141012
-0.00159742
-0.00178338
-0.00196664
-0.00214597
-0.00232026
-0.00248853
-0.00264994
-0.00280378
-0.00294952
-0.0030867
-0.00321504
-0.00333435
-0.00344453
-0.00354558
-0.00363759
-0.00372068
-0.00379502
-0.00386083
-0.00391833
-0.00396776
-0.00400936
-0.00404339
-0.0040701
-0.00408977
-0.00410273
-0.00410938
-0.00411025
-0.00410605
-0.00409779
-0.00408682
-0.00407392
-0.00405917
2.52404e-06
5.1119e-06
3.66147e-06
-1.01276e-06
-8.32167e-06
-1.80644e-05
-3.00276e-05
-4.39867e-05
-5.97292e-05
-7.70784e-05
-9.58887e-05
-0.000116042
-0.00013745
-0.000160051
-0.000183805
-0.000208684
-0.000234673
-0.000261763
-0.000289945
-0.00031921
-0.000349544
-0.000380924
-0.000413323
-0.000446698
-0.000480999
-0.000516163
-0.000552116
-0.000588771
-0.000626028
-0.000663775
-0.000701887
-0.000740225
-0.000778635
-0.00081695
-0.000854986
-0.000892542
-0.0009294
-0.000965324
-0.00100006
-0.00103333
-0.00106485
-0.00109431
-0.00112137
-0.00114569
-0.00116692
-0.00118467
-0.00119858
-0.00120826
-0.00121333
-0.00121343
-0.00120818
-0.00119726
-0.00118037
-0.00115723
-0.00112764
-0.00109143
-0.00104851
-0.000998874
-0.000942601
-0.000879861
-0.000810932
-0.000736202
-0.000656176
-0.000571479
-0.00048285
-0.000391162
-0.000297388
-0.000202614
-0.000108023
-1.48827e-05
7.54719e-05
0.000161655
0.000242256
0.000315856
0.000381061
0.000436525
0.000480974
0.000513236
0.00053227
0.000537183
0.000527258
0.000501969
0.000460998
0.000404242
0.000331824
0.000244085
0.000141587
2.50973e-05
-0.000104423
-0.000245844
-0.000397886
-0.000559146
-0.000728134
-0.000903292
-0.00108304
-0.00126578
-0.00144997
-0.0016341
-0.00181674
-0.00199658
-0.00217241
-0.00234313
-0.00250782
-0.00266566
-0.00281598
-0.00295828
-0.00309213
-0.00321729
-0.00333358
-0.00344093
-0.00353939
-0.00362903
-0.00371
-0.00378252
-0.00384679
-0.00390307
-0.00395161
-0.00399267
-0.00402651
-0.00405339
-0.00407358
-0.00408739
-0.00409516
-0.00409729
-0.00409428
-0.00408687
-0.00407595
-0.00406109
-0.00404065
1.10238e-05
1.2793e-05
1.078e-05
5.75264e-06
-1.72159e-06
-1.14346e-05
-2.31939e-05
-3.67849e-05
-5.20369e-05
-6.88014e-05
-8.69561e-05
-0.000106404
-0.000127074
-0.000148914
-0.000171891
-0.000195982
-0.000221173
-0.000247455
-0.000274817
-0.000303248
-0.000332732
-0.000363246
-0.000394756
-0.000427224
-0.000460599
-0.000494818
-0.000529813
-0.000565499
-0.000601785
-0.000638565
-0.000675724
-0.000713133
-0.000750651
-0.000788123
-0.000825379
-0.000862233
-0.000898483
-0.000933911
-0.000968277
-0.00100132
-0.00103278
-0.00106234
-0.00108969
-0.00111451
-0.00113644
-0.00115513
-0.0011702
-0.00118128
-0.00118799
-0.00118995
-0.00118681
-0.00117822
-0.00116386
-0.00114347
-0.00111679
-0.00108367
-0.00104398
-0.000997686
-0.000944844
-0.000885596
-0.00082019
-0.000748987
-0.000672462
-0.000591214
-0.000505954
-0.000417528
-0.000326889
-0.000235101
-0.000143331
-5.28334e-05
3.50681e-05
0.000118996
0.000197541
0.000269289
0.000332842
0.00038685
0.000430033
0.000461213
0.000479339
0.00048351
0.000473001
0.000447279
0.000406019
0.000349115
0.000276687
0.000189076
8.68465e-05
-2.92291e-05
-0.000158185
-0.000298881
-0.000450031
-0.000610224
-0.000777957
-0.00095167
-0.00112977
-0.00131067
-0.00149282
-0.00167472
-0.00185495
-0.00203221
-0.00220529
-0.00237315
-0.00253486
-0.00268965
-0.00283689
-0.00297607
-0.00310685
-0.00322897
-0.00334232
-0.00344686
-0.00354265
-0.00362981
-0.00370852
-0.00377901
-0.00384153
-0.00389634
-0.00394372
-0.00398394
-0.00401728
-0.00404398
-0.0040643
-0.0040785
-0.00408685
-0.00408961
-0.00408708
-0.00407972
-0.00406809
-0.00405073
-0.00402461
2.32706e-05
2.36061e-05
2.06555e-05
1.50119e-05
7.13515e-06
-2.76082e-06
-1.44993e-05
-2.79013e-05
-4.28189e-05
-5.91312e-05
-7.67415e-05
-9.55758e-05
-0.000115581
-0.000136719
-0.000158968
-0.000182314
-0.000206746
-0.000232259
-0.000258844
-0.000286491
-0.000315183
-0.000344896
-0.000375601
-0.000407257
-0.000439816
-0.000473221
-0.000507405
-0.000542292
-0.000577796
-0.000613822
-0.000650265
-0.000687008
-0.000723923
-0.00076087
-0.000797694
-0.000834225
-0.000870276
-0.000905647
-0.000940114
-0.000973435
-0.00100535
-0.00103557
-0.0010638
-0.00108972
-0.00111298
-0.00113324
-0.00115011
-0.00116322
-0.00117219
-0.00117664
-0.00117619
-0.00117049
-0.00115919
-0.00114201
-0.00111867
-0.00108898
-0.00105278
-0.00101003
-0.000960721
-0.000904982
-0.000843024
-0.000775175
-0.000701884
-0.000623722
-0.000541374
-0.000455668
-0.000367538
-0.000278036
-0.000188319
-9.96378e-05
-1.33164e-05
6.92633e-05
0.000146685
0.00021752
0.000280358
0.000333828
0.000376632
0.000407571
0.00042557
0.00042971
0.000419243
0.00039362
0.0003525
0.000295766
0.00022353
0.000136131
3.41339e-05
-8.16828e-05
-0.000210343
-0.000350694
-0.00050143
-0.000661123
-0.000828248
-0.00100122
-0.00117844
-0.00135828
-0.00153919
-0.00171966
-0.00189826
-0.00207368
-0.00224474
-0.00241038
-0.00256971
-0.00272197
-0.00286654
-0.00300298
-0.00313095
-0.00325024
-0.00336077
-0.00346254
-0.00355566
-0.00364027
-0.0037166
-0.00378491
-0.00384547
-0.00389859
-0.00394455
-0.00398365
-0.00401617
-0.00404234
-0.00406242
-0.00407659
-0.00408504
-0.00408793
-0.00408536
-0.00407758
-0.00406486
-0.00404498
-0.00401383
3.88871e-05
3.72927e-05
3.30699e-05
2.65601e-05
1.80652e-05
7.78276e-06
-4.11618e-06
-1.74866e-05
-3.22101e-05
-4.8193e-05
-6.5365e-05
-8.36763e-05
-0.000103094
-0.000123599
-0.000145181
-0.000167837
-0.000191566
-0.000216367
-0.000242238
-0.000269171
-0.000297151
-0.000326159
-0.000356165
-0.000387133
-0.00041902
-0.000451772
-0.000485329
-0.000519624
-0.000554579
-0.000590111
-0.000626127
-0.000662523
-0.000699187
-0.000735992
-0.000772803
-0.000809464
-0.000845808
-0.000881648
-0.000916779
-0.000950972
-0.000983979
-0.00101553
-0.00104533
-0.00107306
-0.00109839
-0.00112095
-0.00114038
-0.00115629
-0.00116827
-0.00117594
-0.0011789
-0.00117676
-0.00116917
-0.00115578
-0.00113631
-0.00111051
-0.00107821
-0.0010393
-0.000993763
-0.000941672
-0.000883209
-0.00081867
-0.000748471
-0.000673157
-0.000593393
-0.000509985
-0.000423857
-0.000336051
-0.000247724
-0.000160126
-7.45925e-05
7.48236e-06
8.46633e-05
0.0001555
0.000218554
0.000272425
0.000315782
0.000347392
0.000366147
0.000371093
0.00036145
0.00033664
0.000296297
0.000240282
0.000168691
8.1855e-05
-1.96655e-05
-0.000135088
-0.000263428
-0.000403515
-0.000554023
-0.000713497
-0.000880383
-0.00105306
-0.00122991
-0.00140926
-0.00158954
-0.00176921
-0.00194681
-0.00212103
-0.00229067
-0.00245468
-0.00261216
-0.00276237
-0.00290473
-0.00303878
-0.00316423
-0.00328093
-0.0033888
-0.00348791
-0.00357839
-0.00366044
-0.00373432
-0.00380032
-0.00385878
-0.00391
-0.00395432
-0.00399204
-0.00402345
-0.00404879
-0.00406827
-0.00408205
-0.00409024
-0.00409288
-0.00408993
-0.00408146
-0.00406756
-0.00404541
-0.00401014
5.74353e-05
5.35029e-05
4.77307e-05
4.01257e-05
3.08078e-05
1.99666e-05
7.752e-06
-5.72392e-06
-2.03741e-05
-3.61348e-05
-5.29635e-05
-7.08361e-05
-8.97424e-05
-0.000109683
-0.000130664
-0.000152696
-0.000175789
-0.000199952
-0.000225188
-0.000251495
-0.000278864
-0.00030728
-0.000336719
-0.000367149
-0.000398534
-0.000430827
-0.000463976
-0.000497924
-0.000532606
-0.000567951
-0.000603879
-0.000640304
-0.000677128
-0.000714245
-0.000751535
-0.000788863
-0.000826076
-0.000863007
-0.000899463
-0.000935232
-0.000970076
-0.00100373
-0.00103591
-0.0010663
-0.00109456
-0.00112033
-0.00114321
-0.00116281
-0.00117871
-0.00119049
-0.00119771
-0.00119998
-0.00119688
-0.00118804
-0.00117314
-0.00115187
-0.00112403
-0.00108946
-0.0010481
-0.000999982
-0.000945246
-0.000884154
-0.000817089
-0.000744567
-0.000667235
-0.000585876
-0.000501404
-0.000414858
-0.000327392
-0.000240266
-0.000154827
-7.24913e-05
5.28063e-06
7.70075e-05
0.000141214
0.000196461
0.000241374
0.000274672
0.000295202
0.000301962
0.000294128
0.000271079
0.000232411
0.000177951
0.000107768
2.21736e-05
-7.82836e-05
-0.000192825
-0.00032046
-0.000460006
-0.000610116
-0.000769305
-0.000935988
-0.00110851
-0.00128519
-0.00146435
-0.00164435
-0.00182361
-0.00200067
-0.00217415
-0.00234285
-0.00250569
-0.00266178
-0.00281037
-0.00295089
-0.0030829
-0.00320615
-0.00332049
-0.0034259
-0.00352248
-0.0036104
-0.00368991
-0.00376132
-0.00382496
-0.0038812
-0.00393039
-0.00397288
-0.00400902
-0.00403908
-0.00406333
-0.00408194
-0.00409505
-0.0041027
-0.00410485
-0.00410133
-0.0040921
-0.0040771
-0.00405311
-0.00401473
7.84554e-05
7.18621e-05
6.42921e-05
5.53967e-05
4.50841e-05
3.35324e-05
2.08687e-05
7.17007e-06
-7.51101e-06
-2.31429e-05
-3.97136e-05
-5.72262e-05
-7.56958e-05
-9.51441e-05
-0.000115597
-0.00013708
-0.000159617
-0.000183228
-0.000207926
-0.000233716
-0.000260598
-0.000288562
-0.000317592
-0.000347665
-0.000378751
-0.000410815
-0.000443816
-0.000477709
-0.000512443
-0.000547962
-0.000584206
-0.000621103
-0.000658577
-0.000696541
-0.000734893
-0.000773518
-0.000812284
-0.000851037
-0.000889602
-0.000927778
-0.000965337
-0.00100202
-0.00103755
-0.00107159
-0.00110381
-0.00113382
-0.00116123
-0.0011856
-0.00120649
-0.00122345
-0.001236
-0.0012437
-0.0012461
-0.00124277
-0.00123333
-0.00121745
-0.00119485
-0.00116533
-0.00112877
-0.00108516
-0.0010346
-0.000977309
-0.00091363
-0.00084405
-0.000769192
-0.000689816
-0.000606825
-0.000521249
-0.000434248
-0.000347087
-0.000261132
-0.000177821
-9.86458e-05
-2.51256e-05
4.1221e-05
9.89046e-05
0.000146496
0.00018266
0.00020618
0.000215994
0.00021122
0.000191176
0.000155404
0.000103684
3.60412e-05
-4.72474e-05
-0.000145658
-0.000258426
-0.000384567
-0.000522892
-0.000672036
-0.000830492
-0.000996638
-0.00116878
-0.00134519
-0.00152415
-0.00170395
-0.00188297
-0.0020597
-0.00223273
-0.0024008
-0.00256283
-0.00271789
-0.00286522
-0.00300425
-0.00313457
-0.0032559
-0.00336815
-0.00347133
-0.00356555
-0.00365105
-0.00372812
-0.00379709
-0.00385837
-0.00391234
-0.00395941
-0.00399996
-0.00403436
-0.00406291
-0.00408587
-0.00410342
-0.00411566
-0.00412259
-0.00412411
-0.00411997
-0.00411002
-0.00409412
-0.00406879
-0.00402829
0.000101486
9.19577e-05
8.2383e-05
7.20289e-05
6.05751e-05
4.81848e-05
3.49605e-05
2.09404e-05
6.13959e-06
-9.44535e-06
-2.58348e-05
-4.30621e-05
-6.11692e-05
-8.02014e-05
-0.000100205
-0.000121225
-0.0001433
-0.000166463
-0.000190739
-0.000216143
-0.000242685
-0.000270365
-0.000299177
-0.000329108
-0.00036014
-0.000392249
-0.000425411
-0.000459594
-0.000494766
-0.00053089
-0.000567924
-0.00060582
-0.000644521
-0.000683964
-0.000724067
-0.000764738
-0.000805862
-0.000847303
-0.000888901
-0.000930466
-0.000971776
-0.00101258
-0.00105258
-0.00109146
-0.00112886
-0.00116437
-0.00119757
-0.00122801
-0.00125519
-0.00127862
-0.00129779
-0.0013122
-0.00132133
-0.00132471
-0.0013219
-0.00131251
-0.00129618
-0.00127267
-0.00124181
-0.00120351
-0.00115784
-0.00110495
-0.00104515
-0.000978891
-0.000906768
-0.000829508
-0.000747998
-0.000663263
-0.000576457
-0.000488855
-0.000401837
-0.000316866
-0.000235469
-0.000159205
-8.96447e-05
-2.83347e-05
2.32317e-05
6.36478e-05
9.16248e-05
0.000106024
0.000105883
9.04462e-05
5.91804e-05
1.17963e-05
-5.17424e-05
-0.000131212
-0.000226133
-0.000335774
-0.000459169
-0.000595134
-0.0007423
-0.000899141
-0.00106401
-0.00123516
-0.00141083
-0.00158923
-0.00176862
-0.00194729
-0.00212369
-0.00229634
-0.00246395
-0.00262538
-0.00277966
-0.00292603
-0.00306388
-0.00319279
-0.00331251
-0.00342295
-0.00352415
-0.00361625
-0.00369952
-0.00377428
-0.00384094
-0.00389991
-0.00395165
-0.00399659
-0.00403517
-0.00406776
-0.0040947
-0.00411626
-0.00413262
-0.00414388
-0.00415
-0.00415084
-0.0041461
-0.00413556
-0.00411902
-0.00409286
-0.00405116
0.000126057
0.000113359
0.000101599
8.96448e-05
7.69264e-05
6.35913e-05
4.97148e-05
3.52916e-05
2.0296e-05
4.68681e-06
-1.15917e-05
-2.86052e-05
-4.64244e-05
-6.51208e-05
-8.47638e-05
-0.000105418
-0.000127139
-0.000149975
-0.000173966
-0.000199141
-0.00022552
-0.000253116
-0.000281936
-0.000311981
-0.000343246
-0.000375727
-0.000409413
-0.000444296
-0.000480362
-0.000517598
-0.000555985
-0.000595499
-0.00063611
-0.000677778
-0.000720446
-0.000764043
-0.000808475
-0.000853624
-0.000899345
-0.000945455
-0.00099174
-0.00103795
-0.00108377
-0.00112889
-0.0011729
-0.0012154
-0.00125592
-0.00129395
-0.00132899
-0.00136046
-0.00138782
-0.00141048
-0.00142788
-0.00143948
-0.00144476
-0.00144326
-0.00143457
-0.00141835
-0.00139437
-0.0013625
-0.00132271
-0.00127512
-0.00121998
-0.00115769
-0.0010888
-0.00101402
-0.000934191
-0.000850333
-0.00076359
-0.00067524
-0.000586675
-0.000499382
-0.000414921
-0.000334897
-0.000260937
-0.000194651
-0.000137609
-9.12998e-05
-5.71024e-05
-3.62505e-05
-2.98029e-05
-3.86159e-05
-6.33189e-05
-0.000104295
-0.000161669
-0.000235294
-0.000324758
-0.000429385
-0.000548249
-0.000680193
-0.000823857
-0.000977707
-0.00114007
-0.00130919
-0.00148323
-0.00166035
-0.00183875
-0.00201666
-0.00219244
-0.00236457
-0.00253167
-0.00269254
-0.00284618
-0.00299177
-0.00312867
-0.00325646
-0.00337486
-0.00348378
-0.00358327
-0.00367352
-0.00375479
-0.00382747
-0.00389199
-0.00394881
-0.00399843
-0.00404132
-0.00407795
-0.00410875
-0.00413408
-0.00415421
-0.00416936
-0.00417959
-0.0041849
-0.00418509
-0.00417984
-0.00416888
-0.00415199
-0.00412549
-0.00408343
0.000151683
0.0001356
0.000121506
0.000107832
9.3747e-05
7.9381e-05
6.47782e-05
4.98855e-05
3.46323e-05
1.89364e-05
2.70404e-06
-1.41651e-05
-3.1773e-05
-5.02195e-05
-6.95983e-05
-8.99957e-05
-0.000111488
-0.00013414
-0.000158008
-0.000183135
-0.000209559
-0.000237307
-0.000266402
-0.000296862
-0.000328702
-0.000361936
-0.000396578
-0.000432641
-0.000470139
-0.000509084
-0.000549485
-0.000591348
-0.000634671
-0.000679441
-0.000725629
-0.000773187
-0.000822045
-0.000872102
-0.000923225
-0.000975242
-0.00102794
-0.00108106
-0.0011343
-0.00118729
-0.00123964
-0.00129088
-0.00134051
-0.001388
-0.00143275
-0.00147416
-0.00151159
-0.0015444
-0.00157195
-0.00159362
-0.00160881
-0.00161698
-0.00161763
-0.00161035
-0.00159482
-0.00157083
-0.00153828
-0.00149722
-0.00144782
-0.00139044
-0.00132558
-0.00125388
-0.00117616
-0.0010934
-0.00100674
-0.000917448
-0.00082692
-0.000736664
-0.000648273
-0.000563399
-0.000483725
-0.000410938
-0.00034669
-0.000292568
-0.000250057
-0.000220506
-0.000205094
-0.000204802
-0.000220384
-0.000252348
-0.000300933
-0.000366105
-0.000447549
-0.000544673
-0.000656618
-0.000782281
-0.00092033
-0.00106925
-0.00122735
-0.00139286
-0.00156389
-0.00173857
-0.001915
-0.00209137
-0.00226593
-0.00243709
-0.0026034
-0.00276357
-0.00291654
-0.00306141
-0.00319752
-0.00332438
-0.00344171
-0.0035494
-0.00364749
-0.00373618
-0.00381576
-0.00388663
-0.00394926
-0.00400416
-0.00405184
-0.00409285
-0.00412768
-0.00415678
-0.00418057
-0.00419934
-0.00421331
-0.00422258
-0.00422712
-0.00422676
-0.00422113
-0.00420998
-0.00419303
-0.00416666
-0.00412498
0.000177861
0.000158201
0.000141637
0.000126143
0.000110609
9.51426e-05
7.97546e-05
6.4339e-05
4.87756e-05
3.29376e-05
1.66904e-05
-1.03771e-07
-1.75807e-05
-3.58699e-05
-5.50922e-05
-7.53575e-05
-9.67634e-05
-0.000119395
-0.000143327
-0.000168621
-0.000195333
-0.000223509
-0.000253192
-0.00028442
-0.000317233
-0.00035167
-0.000387771
-0.00042558
-0.000465139
-0.000506492
-0.000549684
-0.000594751
-0.000641726
-0.000690625
-0.000741452
-0.000794185
-0.000848775
-0.000905144
-0.000963169
-0.00102269
-0.00108349
-0.0011453
-0.0012078
-0.00127062
-0.0013333
-0.00139537
-0.00145626
-0.00151538
-0.00157208
-0.00162567
-0.00167545
-0.00172069
-0.00176068
-0.00179468
-0.00182201
-0.00184203
-0.00185415
-0.00185786
-0.00185275
-0.0018385
-0.00181494
-0.00178201
-0.0017398
-0.00168861
-0.00162891
-0.00156115
-0.0014862
-0.00140498
-0.00131858
-0.00122828
-0.00113546
-0.00104163
-0.00094843
-0.000857544
-0.000770723
-0.000689729
-0.00061631
-0.000552164
-0.0004989
-0.000458002
-0.000430797
-0.00041842
-0.00042178
-0.000441543
-0.000478102
-0.00053157
-0.000601767
-0.000688222
-0.00079018
-0.00090662
-0.00103627
-0.00117766
-0.00132911
-0.00148884
-0.00165494
-0.00182547
-0.00199848
-0.00217208
-0.00234444
-0.00251385
-0.00267878
-0.00283786
-0.00298992
-0.00313398
-0.00326932
-0.00339538
-0.00351184
-0.00361855
-0.00371554
-0.00380299
-0.00388121
-0.0039506
-0.00401167
-0.00406494
-0.00411097
-0.00415034
-0.00418358
-0.00421119
-0.0042336
-0.00425115
-0.00426408
-0.00427251
-0.00427643
-0.00427565
-0.00426984
-0.00425871
-0.004242
-0.00421617
-0.00417551
0.000204065
0.000180647
0.000161493
0.000144095
0.000127043
0.000110423
9.42037e-05
7.82221e-05
6.2304e-05
4.6274e-05
2.99528e-05
1.31623e-05
-4.26911e-06
-2.25029e-05
-4.16889e-05
-6.19627e-05
-8.34454e-05
-0.000106245
-0.000130457
-0.000156166
-0.000183448
-0.000212373
-0.000243008
-0.000275417
-0.000309669
-0.000345834
-0.000383983
-0.000424195
-0.00046655
-0.00051113
-0.000558017
-0.000607287
-0.000659009
-0.000713237
-0.000770007
-0.000829328
-0.000891177
-0.000955494
-0.00102217
-0.00109105
-0.00116192
-0.00123449
-0.00130844
-0.00138335
-0.00145874
-0.00153407
-0.00160873
-0.00168206
-0.00175334
-0.00182179
-0.00188663
-0.00194702
-0.00200216
-0.00205121
-0.00209337
-0.00212789
-0.00215407
-0.00217128
-0.002179
-0.0021768
-0.00216438
-0.0021416
-0.00210843
-0.00206511
-0.00201212
-0.00194934
-0.00187807
-0.00179905
-0.00171332
-0.0016221
-0.00152675
-0.00142882
-0.00132993
-0.00123182
-0.00113631
-0.00104525
-0.000960472
-0.000883809
-0.000817011
-0.00076172
-0.000719435
-0.000691477
-0.000678947
-0.000682706
-0.000703344
-0.000741163
-0.000796163
-0.00086804
-0.000956186
-0.0010597
-0.00117743
-0.00130794
-0.00144964
-0.00160072
-0.00175929
-0.00192337
-0.00209094
-0.00226003
-0.00242872
-0.0025952
-0.00275782
-0.00291509
-0.00306574
-0.0032087
-0.00334312
-0.00346838
-0.00358407
-0.00369001
-0.00378617
-0.0038727
-0.00394991
-0.0040182
-0.00407808
-0.00413009
-0.00417482
-0.00421289
-0.00424485
-0.00427124
-0.00429253
-0.00430909
-0.0043212
-0.00432899
-0.00433247
-0.00433148
-0.00432569
-0.00431484
-0.00429865
-0.00427375
-0.00423464
0.000229737
0.00020239
0.000180538
0.000161163
0.00014254
0.000124724
0.000107639
9.10572e-05
7.47458e-05
5.84761e-05
4.2021e-05
2.51593e-05
7.68095e-06
-1.06103e-05
-2.98947e-05
-5.03362e-05
-7.20823e-05
-9.52665e-05
-0.000120009
-0.000146418
-0.000174597
-0.000204642
-0.000236651
-0.00027072
-0.000306951
-0.000345452
-0.000386333
-0.000429714
-0.00047572
-0.000524476
-0.000576109
-0.000630741
-0.000688484
-0.000749432
-0.00081366
-0.00088121
-0.000952087
-0.00102625
-0.00110361
-0.00118401
-0.00126723
-0.00135298
-0.0014409
-0.00153054
-0.00162138
-0.00171282
-0.00180419
-0.00189475
-0.00198368
-0.00207013
-0.0021532
-0.00223195
-0.00230545
-0.00237276
-0.00243293
-0.00248509
-0.0025284
-0.00256211
-0.00258555
-0.00259815
-0.00259949
-0.0025893
-0.00256744
-0.00253391
-0.00248875
-0.00243307
-0.00236684
-0.00229099
-0.00220653
-0.00211466
-0.00201671
-0.00191421
-0.0018088
-0.00170227
-0.00159647
-0.00149334
-0.00139484
-0.00130292
-0.0012195
-0.0011464
-0.00108531
-0.00103777
-0.00100512
-0.000988446
-0.000988592
-0.00100609
-0.00104119
-0.00109378
-0.00116347
-0.00124953
-0.00135095
-0.00146643
-0.00159444
-0.00173324
-0.00188094
-0.00203553
-0.00219497
-0.0023572
-0.0025202
-0.00268206
-0.00284098
-0.00299536
-0.00314378
-0.00328505
-0.00341818
-0.00354246
-0.00365738
-0.00376265
-0.0038582
-0.00394412
-0.00402068
-0.00408826
-0.00414736
-0.00419854
-0.0042424
-0.00427956
-0.00431063
-0.00433618
-0.00435668
-0.00437257
-0.00438413
-0.00439155
-0.00439484
-0.00439389
-0.00438838
-0.00437805
-0.00436266
-0.00433901
-0.00430189
0.000254282
0.000222847
0.000198198
0.000176785
0.000156548
0.000137505
0.000119527
0.000102317
8.55762e-05
6.90199e-05
5.23685e-05
3.53547e-05
1.77269e-05
-7.47654e-07
-2.02826e-05
-4.10726e-05
-6.32949e-05
-8.71108e-05
-0.000112669
-0.000140107
-0.000169558
-0.000201153
-0.000235023
-0.000271304
-0.000310139
-0.000351679
-0.000396083
-0.000443519
-0.000494163
-0.000548193
-0.000605789
-0.000667123
-0.000732356
-0.000801632
-0.000875067
-0.000952739
-0.00103468
-0.00112089
-0.00121127
-0.00130567
-0.00140389
-0.00150559
-0.0016104
-0.00171782
-0.00182729
-0.00193813
-0.0020496
-0.00216087
-0.00227102
-0.0023791
-0.00248408
-0.00258491
-0.0026805
-0.00276977
-0.00285165
-0.0029251
-0.00298913
-0.00304281
-0.00308533
-0.00311597
-0.00313413
-0.00313939
-0.00313148
-0.00311025
-0.00307574
-0.00302843
-0.00296867
-0.00289718
-0.00281485
-0.00272281
-0.00262236
-0.00251497
-0.00240232
-0.00228618
-0.00216849
-0.00205125
-0.00193654
-0.00182646
-0.00172308
-0.00162842
-0.00154442
-0.00147285
-0.00141532
-0.0013732
-0.00134762
-0.00133942
-0.00134912
-0.0013769
-0.00142263
-0.00148581
-0.00156565
-0.00166101
-0.0017705
-0.00189247
-0.00202509
-0.00216636
-0.0023142
-0.00246649
-0.00262113
-0.00277606
-0.00292938
-0.0030793
-0.00322427
-0.00336292
-0.00349413
-0.00361703
-0.00373097
-0.00383556
-0.00393061
-0.00401616
-0.0040924
-0.00415966
-0.00421843
-0.00426924
-0.0043127
-0.00434944
-0.00438008
-0.00440521
-0.00442536
-0.00444096
-0.00445234
-0.00445971
-0.00446313
-0.0044625
-0.00445753
-0.004448
-0.00443366
-0.00441153
-0.00437675
0.000277066
0.00024139
0.000213857
0.000190354
0.000168469
0.000148175
0.000129285
0.000111421
9.42177e-05
7.73257e-05
6.04102e-05
4.31546e-05
2.52632e-05
6.46369e-06
-1.3494e-05
-3.48384e-05
-5.77789e-05
-8.25088e-05
-0.000109209
-0.000138051
-0.000169206
-0.000202842
-0.000239133
-0.000278262
-0.00032042
-0.000365809
-0.000414645
-0.000467156
-0.000523574
-0.000584142
-0.000649096
-0.000718672
-0.000793086
-0.000872535
-0.000957182
-0.00104715
-0.0011425
-0.00124326
-0.00134934
-0.00146061
-0.00157683
-0.00169767
-0.0018227
-0.0019514
-0.00208312
-0.00221712
-0.00235256
-0.00248852
-0.00262397
-0.00275781
-0.0028889
-0.00301602
-0.00313795
-0.00325343
-0.00336121
-0.00346009
-0.00354889
-0.00362651
-0.00369194
-0.00374428
-0.00378275
-0.00380674
-0.0038158
-0.00380963
-0.00378816
-0.00375158
-0.00370017
-0.00363454
-0.00355549
-0.00346401
-0.00336136
-0.00324897
-0.00312848
-0.0030017
-0.00287059
-0.00273723
-0.0026038
-0.00247255
-0.00234573
-0.00222558
-0.00211427
-0.00201386
-0.00192625
-0.00185314
-0.00179601
-0.00175604
-0.0017341
-0.00173073
-0.00174612
-0.00178009
-0.0018321
-0.00190129
-0.00198644
-0.00208607
-0.00219844
-0.00232161
-0.0024535
-0.00259194
-0.00273475
-0.00287976
-0.00302491
-0.00316825
-0.00330804
-0.00344273
-0.00357101
-0.00369181
-0.00380434
-0.00390804
-0.0040026
-0.00408792
-0.00416411
-0.00423143
-0.0042903
-0.00434124
-0.00438481
-0.00442165
-0.00445239
-0.00447761
-0.00449788
-0.00451364
-0.00452527
-0.00453299
-0.00453689
-0.0045369
-0.00453277
-0.0045243
-0.00451126
-0.00449088
-0.00445869
0.000297413
0.000257353
0.000226856
0.000201221
0.000177662
0.0001561
0.00013628
0.000117741
0.000100038
8.2757e-05
6.55024e-05
4.79042e-05
2.96201e-05
1.03348e-05
-1.02412e-05
-3.23734e-05
-5.6307e-05
-8.22718e-05
-0.000110486
-0.000141162
-0.000174512
-0.000210752
-0.000250105
-0.000292808
-0.000339109
-0.000389275
-0.000443587
-0.000502337
-0.000565832
-0.000634381
-0.000708293
-0.00078787
-0.000873394
-0.000965122
-0.00106327
-0.00116801
-0.00127944
-0.00139759
-0.00152243
-0.0016538
-0.00179145
-0.00193503
-0.00208408
-0.00223799
-0.00239606
-0.00255746
-0.00272125
-0.00288638
-0.00305169
-0.00321595
-0.00337783
-0.00353598
-0.00368897
-0.00383536
-0.00397372
-0.00410262
-0.0042207
-0.00432663
-0.0044192
-0.0044973
-0.00455994
-0.00460629
-0.00463572
-0.00464773
-0.00464209
-0.00461881
-0.00457789
-0.00451992
-0.00444554
-0.00435564
-0.00425137
-0.0041341
-0.00400543
-0.00386715
-0.00372127
-0.00356991
-0.00341536
-0.00326
-0.00310626
-0.00295659
-0.00281344
-0.00267914
-0.00255595
-0.00244593
-0.00235093
-0.00227254
-0.00221206
-0.00217044
-0.00214827
-0.00214578
-0.00216278
-0.00219873
-0.00225269
-0.00232341
-0.00240931
-0.00250857
-0.00261915
-0.00273888
-0.0028655
-0.00299676
-0.00313042
-0.00326437
-0.00339666
-0.00352551
-0.0036494
-0.00376704
-0.00387741
-0.00397978
-0.00407364
-0.00415874
-0.00423505
-0.00430275
-0.00436214
-0.00441367
-0.0044579
-0.0044954
-0.00452679
-0.00455267
-0.0045736
-0.00459005
-0.00460241
-0.00461092
-0.0046157
-0.00461671
-0.00461374
-0.00460659
-0.00459507
-0.00457665
-0.00454722
0.000314603
0.000270025
0.000236493
0.00020869
0.000183439
0.000160595
0.00013983
0.000120592
0.000102351
8.462e-05
6.69406e-05
4.88857e-05
3.00619e-05
1.01079e-05
-1.13083e-05
-3.44929e-05
-5.97318e-05
-8.72959e-05
-0.000117447
-0.000150444
-0.000186549
-0.000226032
-0.000269176
-0.00031628
-0.000367663
-0.000423662
-0.000484635
-0.000550954
-0.000623005
-0.000701178
-0.000785864
-0.00087744
-0.000976263
-0.00108266
-0.0011969
-0.0013192
-0.00144972
-0.0015885
-0.00173552
-0.00189063
-0.00205357
-0.00222394
-0.00240122
-0.00258476
-0.00277376
-0.00296728
-0.00316426
-0.00336352
-0.00356374
-0.00376352
-0.00396136
-0.00415569
-0.0043449
-0.00452732
-0.00470131
-0.00486521