/*--------------------------------*- C++ -*----------------------------------*\
| =========                 |                                                 |
| \\      /  F ield         | OpenFOAM: The Open Source CFD Toolbox           |
|  \\    /   O peration     | Version:  2112                                  |
|   \\  /    A nd           | Website:  www.openfoam.com                      |
|    \\/     M anipulation  |                                                 |
\*---------------------------------------------------------------------------*/
FoamFile
{
    version     2.0;
    format      ascii;
    arch        "LSB;label=32;scalar=64";
    class       surfaceScalarField;
    location    "1.5";
    object      phi;
}
// * * * * * * * * * * * * * * * * * * * * * * * * * * * * * * * * * * * * * //

dimensions      [0 3 -1 0 0 0 0];

oriented        oriented;

internalField   nonuniform List<scalar> 
33024
(
3.73675e-11
-3.73891e-11
1.60445e-10
-1.23077e-10
3.23389e-10
-1.62938e-10
4.86995e-10
-1.63603e-10
6.27069e-10
-1.40073e-10
7.30212e-10
-1.03144e-10
7.90151e-10
-5.99358e-11
8.05231e-10
-1.5085e-11
7.76543e-10
2.86958e-11
7.06698e-10
6.98415e-11
5.9901e-10
1.0769e-10
4.56889e-10
1.42121e-10
2.83485e-10
1.73401e-10
8.14597e-11
2.02029e-10
-1.47175e-10
2.28636e-10
-4.01097e-10
2.5392e-10
-6.79683e-10
2.78585e-10
-9.8298e-10
3.03295e-10
-1.31164e-09
3.28655e-10
-1.66683e-09
3.55193e-10
-2.05017e-09
3.83345e-10
-2.46363e-09
4.13461e-10
-2.90943e-09
4.45801e-10
-3.38997e-09
4.80536e-10
-3.90774e-09
5.17766e-10
-4.46526e-09
5.57521e-10
-5.06503e-09
5.99765e-10
-5.70945e-09
6.44415e-10
-6.40079e-09
6.91342e-10
-7.14116e-09
7.40374e-10
-7.93247e-09
7.91308e-10
-8.77638e-09
8.43909e-10
-9.67428e-09
8.97906e-10
-1.06273e-08
9.53004e-10
-1.16362e-08
1.00887e-09
-1.27013e-08
1.06514e-09
-1.38227e-08
1.12139e-09
-1.49999e-08
1.17719e-09
-1.62319e-08
1.23202e-09
-1.75173e-08
1.28535e-09
-1.88538e-08
1.33657e-09
-2.02389e-08
1.38503e-09
-2.16689e-08
1.43003e-09
-2.31397e-08
1.47082e-09
-2.46463e-08
1.50659e-09
-2.61828e-08
1.5365e-09
-2.77425e-08
1.55969e-09
-2.93178e-08
1.57527e-09
-3.09001e-08
1.58231e-09
-3.248e-08
1.57993e-09
-3.40472e-08
1.56722e-09
-3.55906e-08
1.54334e-09
-3.7098e-08
1.50748e-09
-3.8557e-08
1.4589e-09
-3.99539e-08
1.39695e-09
-4.1275e-08
1.32108e-09
-4.25058e-08
1.23086e-09
-4.36319e-08
1.12604e-09
-4.46384e-08
1.00651e-09
-4.55107e-08
8.72327e-10
-4.62345e-08
7.23772e-10
-4.67958e-08
5.61327e-10
-4.71815e-08
3.85691e-10
-4.73793e-08
1.9777e-10
-4.73786e-08
-6.87796e-13
-4.71688e-08
-2.09776e-10
-4.67425e-08
-4.26322e-10
-4.60934e-08
-6.49106e-10
-4.52174e-08
-8.76019e-10
-4.41126e-08
-1.10481e-09
-4.27795e-08
-1.33307e-09
-4.12212e-08
-1.55826e-09
-3.94435e-08
-1.77778e-09
-3.74545e-08
-1.98895e-09
-3.52654e-08
-2.18909e-09
-3.28898e-08
-2.37558e-09
-3.0344e-08
-2.54586e-09
-2.76464e-08
-2.69754e-09
-2.4818e-08
-2.82843e-09
-2.18815e-08
-2.93656e-09
-1.88612e-08
-3.02028e-09
-1.57829e-08
-3.07826e-09
-1.26734e-08
-3.10954e-09
-9.55982e-09
-3.11357e-09
-6.46961e-09
-3.0902e-09
-3.42987e-09
-3.03975e-09
-4.66945e-10
-2.96292e-09
2.39397e-09
-2.86091e-09
5.12917e-09
-2.7352e-09
7.7169e-09
-2.58773e-09
1.01377e-08
-2.42076e-09
1.23744e-08
-2.23679e-09
1.4413e-08
-2.03857e-09
1.6242e-08
-1.82897e-09
1.7853e-08
-1.611e-09
1.92406e-08
-1.38766e-09
2.04026e-08
-1.16192e-09
2.13392e-08
-9.36643e-10
2.20537e-08
-7.14537e-10
2.25518e-08
-4.98094e-10
2.28414e-08
-2.89552e-10
2.29322e-08
-9.08596e-11
2.28359e-08
9.63513e-11
2.25651e-08
2.70767e-10
2.21337e-08
4.31416e-10
2.15561e-08
5.77647e-10
2.08469e-08
7.09123e-10
2.00212e-08
8.25793e-10
1.90933e-08
9.27864e-10
1.80775e-08
1.01576e-09
1.69875e-08
1.09006e-09
1.5836e-08
1.15148e-09
1.46352e-08
1.20074e-09
1.33967e-08
1.23855e-09
1.21312e-08
1.2655e-09
1.08493e-08
1.28194e-09
9.56135e-09
1.28791e-09
8.27839e-09
1.28296e-09
7.01233e-09
1.26606e-09
5.77689e-09
1.23544e-09
4.58849e-09
1.1884e-09
3.46731e-09
1.12119e-09
2.43836e-09
1.02894e-09
1.53259e-09
9.05777e-10
7.87085e-10
7.45506e-10
2.43121e-10
5.43966e-10
-6.16274e-11
3.04749e-10
-1.17116e-10
5.54881e-11
-1.17113e-10
1.23415e-10
-1.60805e-10
3.85303e-10
-3.84962e-10
7.00099e-10
-4.77731e-10
1.00122e-09
-4.64724e-10
1.24132e-09
-3.80184e-10
1.3904e-09
-2.52209e-10
1.43194e-09
-1.01495e-10
1.35957e-09
5.72967e-11
1.17321e-09
2.15041e-10
8.77045e-10
3.66014e-10
4.77341e-10
5.07401e-10
-1.88588e-11
6.38319e-10
-6.04766e-10
7.59311e-10
-1.27454e-09
8.71802e-10
-2.02368e-09
9.77776e-10
-2.84926e-09
1.07951e-09
-3.75e-09
1.17933e-09
-4.72624e-09
1.27954e-09
-5.7798e-09
1.38222e-09
-6.91383e-09
1.48923e-09
-8.1326e-09
1.60211e-09
-9.44127e-09
1.72213e-09
-1.08457e-08
1.85021e-09
-1.23521e-08
1.98697e-09
-1.39671e-08
2.13278e-09
-1.56973e-08
2.28771e-09
-1.75492e-08
2.45162e-09
-1.95289e-08
2.62418e-09
-2.16424e-08
2.80484e-09
-2.3895e-08
2.99293e-09
-2.62913e-08
3.18761e-09
-2.88353e-08
3.38791e-09
-3.15301e-08
3.59273e-09
-3.43779e-08
3.80083e-09
-3.73799e-08
4.01084e-09
-4.0536e-08
4.22125e-09
-4.3845e-08
4.43039e-09
-4.73043e-08
4.63644e-09
-5.09096e-08
4.83739e-09
-5.46554e-08
5.03108e-09
-5.85339e-08
5.21514e-09
-6.25359e-08
5.38706e-09
-6.665e-08
5.54412e-09
-7.08627e-08
5.68349e-09
-7.51583e-08
5.80215e-09
-7.95188e-08
5.89701e-09
-8.3924e-08
5.96489e-09
-8.83512e-08
6.00256e-09
-9.27757e-08
6.0068e-09
-9.71703e-08
5.97445e-09
-1.01505e-07
5.90244e-09
-1.0575e-07
5.78789e-09
-1.09871e-07
5.62814e-09
-1.13833e-07
5.42082e-09
-1.176e-07
5.16392e-09
-1.21134e-07
4.85588e-09
-1.24399e-07
4.49561e-09
-1.27356e-07
4.08258e-09
-1.29966e-07
3.61686e-09
-1.32193e-07
3.09921e-09
-1.34e-07
2.53107e-09
-1.35354e-07
1.91465e-09
-1.36221e-07
1.2529e-09
-1.36573e-07
5.49598e-10
-1.36383e-07
-1.9037e-10
-1.3563e-07
-9.62765e-10
-1.34296e-07
-1.76049e-09
-1.32368e-07
-2.57711e-09
-1.29838e-07
-3.40525e-09
-1.26706e-07
-4.23695e-09
-1.22976e-07
-5.06377e-09
-1.18657e-07
-5.87692e-09
-1.13767e-07
-6.66736e-09
-1.0833e-07
-7.42595e-09
-1.02376e-07
-8.14358e-09
-9.59401e-08
-8.81134e-09
-8.90653e-08
-9.42067e-09
-8.17993e-08
-9.96352e-09
-7.41952e-08
-1.04325e-08
-6.63106e-08
-1.08212e-08
-5.8207e-08
-1.11239e-08
-4.99489e-08
-1.13363e-08
-4.16034e-08
-1.14551e-08
-3.32387e-08
-1.14783e-08
-2.49233e-08
-1.14056e-08
-1.67253e-08
-1.12377e-08
-8.71113e-09
-1.09771e-08
-9.44736e-10
-1.06273e-08
6.51358e-09
-1.01935e-08
1.36077e-08
-9.68184e-09
2.02868e-08
-9.09983e-09
2.65057e-08
-8.45576e-09
3.22259e-08
-7.75878e-09
3.74156e-08
-7.0186e-09
4.20499e-08
-6.24534e-09
4.61115e-08
-5.44929e-09
4.95903e-08
-4.64066e-09
5.24831e-08
-3.82945e-09
5.47937e-08
-3.02516e-09
5.65323e-08
-2.23669e-09
5.77149e-08
-1.47217e-09
5.83628e-08
-7.38792e-10
5.85019e-08
-4.27473e-11
5.81619e-08
6.1083e-10
5.73754e-08
1.21793e-09
5.61774e-08
1.77564e-09
5.46044e-08
2.2821e-09
5.26937e-08
2.73647e-09
5.04828e-08
3.13879e-09
4.80087e-08
3.48986e-09
4.53076e-08
3.7911e-09
4.24148e-08
4.04433e-09
3.9364e-08
4.25151e-09
3.6188e-08
4.41456e-09
3.29185e-08
4.53498e-09
2.95869e-08
4.61355e-09
2.62248e-08
4.64996e-09
2.28653e-08
4.64245e-09
1.95441e-08
4.58736e-09
1.63007e-08
4.4788e-09
1.31808e-08
4.30829e-09
1.02373e-08
4.06471e-09
7.5317e-09
3.73452e-09
5.13445e-09
3.30303e-09
3.12248e-09
2.75747e-09
1.57206e-09
2.09439e-09
5.43745e-10
1.33306e-09
5.62241e-11
5.43011e-10
-6.08896e-11
1.65947e-10
-3.26747e-10
4.81827e-10
-7.00847e-10
8.34688e-10
-8.30588e-10
1.14353e-09
-7.73566e-10
1.35035e-09
-5.87001e-10
1.41707e-09
-3.18932e-10
1.32133e-09
-5.74508e-12
1.05397e-09
3.24655e-10
6.13372e-10
6.55632e-10
4.13812e-12
9.75249e-10
-7.66137e-10
1.27767e-09
-1.68865e-09
1.56083e-09
-2.75472e-09
1.82538e-09
-3.95682e-09
2.0739e-09
-5.2892e-09
2.31016e-09
-6.74829e-09
2.5386e-09
-8.33281e-09
2.76385e-09
-1.00437e-08
2.99048e-09
-1.18843e-08
3.22272e-09
-1.38594e-08
3.46434e-09
-1.59757e-08
3.7185e-09
-1.82414e-08
3.98776e-09
-2.06652e-08
4.27403e-09
-2.32568e-08
4.5786e-09
-2.60262e-08
4.90214e-09
-2.89833e-08
5.24478e-09
-3.21378e-08
5.60617e-09
-3.54991e-08
5.98548e-09
-3.90758e-08
6.38149e-09
-4.28755e-08
6.79262e-09
-4.69048e-08
7.21694e-09
-5.11691e-08
7.65223e-09
-5.56723e-08
8.09593e-09
-6.04167e-08
8.54522e-09
-6.54028e-08
8.99693e-09
-7.06292e-08
9.44761e-09
-7.60922e-08
9.89344e-09
-8.17861e-08
1.03303e-08
-8.77023e-08
1.07537e-08
-9.383e-08
1.11587e-08
-1.00155e-07
1.15402e-08
-1.0666e-07
1.18925e-08
-1.13326e-07
1.22099e-08
-1.20129e-07
1.24861e-08
-1.27041e-07
1.27147e-08
-1.34034e-07
1.28892e-08
-1.41072e-07
1.30029e-08
-1.48118e-07
1.30492e-08
-1.55133e-07
1.30214e-08
-1.62071e-07
1.29131e-08
-1.68887e-07
1.27183e-08
-1.75531e-07
1.24313e-08
-1.8195e-07
1.20471e-08
-1.8809e-07
1.15612e-08
-1.93896e-07
1.09703e-08
-1.99312e-07
1.02715e-08
-2.0428e-07
9.46347e-09
-2.08743e-07
8.54583e-09
-2.12646e-07
7.51955e-09
-2.15933e-07
6.38696e-09
-2.18554e-07
5.15185e-09
-2.20459e-07
3.81953e-09
-2.21603e-07
2.39682e-09
-2.21946e-07
8.92203e-10
-2.21452e-07
-6.84528e-10
-2.20092e-07
-2.32238e-09
-2.17844e-07
-4.00805e-09
-2.14694e-07
-5.72759e-09
-2.10633e-07
-7.46578e-09
-2.05664e-07
-9.20637e-09
-1.99795e-07
-1.09323e-08
-1.93047e-07
-1.26258e-08
-1.85445e-07
-1.42688e-08
-1.77028e-07
-1.58432e-08
-1.67841e-07
-1.73309e-08
-1.57938e-07
-1.87143e-08
-1.47382e-07
-1.99766e-08
-1.36243e-07
-2.11021e-08
-1.246e-07
-2.20762e-08
-1.12535e-07
-2.28863e-08
-1.00137e-07
-2.35213e-08
-8.75007e-08
-2.39727e-08
-7.47219e-08
-2.42339e-08
-6.18992e-08
-2.4301e-08
-4.91318e-08
-2.4173e-08
-3.65183e-08
-2.38513e-08
-2.41553e-08
-2.33401e-08
-1.21361e-08
-2.26464e-08
-5.49775e-10
-2.17799e-08
1.05209e-08
-2.07525e-08
2.09993e-08
-1.95783e-08
3.08171e-08
-1.82736e-08
3.99145e-08
-1.68562e-08
4.8241e-08
-1.53451e-08
5.57559e-08
-1.37602e-08
6.24287e-08
-1.21221e-08
6.82392e-08
-1.04512e-08
7.31774e-08
-8.76763e-09
7.72431e-08
-7.09082e-09
8.04455e-08
-5.43912e-09
8.28028e-08
-3.82945e-09
8.43411e-08
-2.27707e-09
8.50937e-08
-7.95363e-10
8.51002e-08
6.0436e-10
8.44052e-08
1.91293e-09
8.30575e-08
3.12333e-09
8.11089e-08
4.23066e-09
7.86133e-08
5.23204e-09
7.56257e-08
6.12641e-09
7.22013e-08
6.91427e-09
6.8395e-08
7.59739e-09
6.42609e-08
8.17844e-09
5.9852e-08
8.66046e-09
5.52201e-08
9.04643e-09
5.04165e-08
9.33862e-09
4.5492e-08
9.538e-09
4.04985e-08
9.6435e-09
3.54896e-08
9.65137e-09
3.05225e-08
9.55444e-09
2.56597e-08
9.34159e-09
2.09706e-08
8.99737e-09
1.65331e-08
8.50221e-09
1.24342e-08
7.83341e-09
8.76934e-09
6.9679e-09
5.6386e-09
5.88821e-09
3.13875e-09
4.59423e-09
1.34922e-09
3.1226e-09
3.10836e-10
1.58139e-09
2.49944e-10
1.67595e-10
-4.94335e-10
4.66601e-10
-9.99855e-10
7.68227e-10
-1.13222e-09
9.83622e-10
-9.88957e-10
1.05052e-09
-6.53911e-10
9.28057e-10
-1.96462e-10
5.92725e-10
3.29583e-10
3.31713e-11
8.84211e-10
-7.51441e-10
1.44025e-09
-1.75667e-09
1.98047e-09
-2.9742e-09
2.4952e-09
-4.3943e-09
2.98094e-09
-6.00748e-09
3.43856e-09
-7.80557e-09
3.872e-09
-9.78257e-09
4.28716e-09
-1.1935e-08
4.69106e-09
-1.42623e-08
5.09112e-09
-1.67665e-08
5.49467e-09
-1.94523e-08
5.90856e-09
-2.23269e-08
6.33887e-09
-2.53991e-08
6.79075e-09
-2.86797e-08
7.26835e-09
-3.21804e-08
7.77473e-09
-3.59137e-08
8.31193e-09
-3.98926e-08
8.88099e-09
-4.41298e-08
9.48198e-09
-4.86378e-08
1.01142e-08
-5.34283e-08
1.0776e-08
-5.8512e-08
1.14652e-08
-6.38982e-08
1.21788e-08
-6.95947e-08
1.29135e-08
-7.56075e-08
1.3665e-08
-8.19404e-08
1.44288e-08
-8.85949e-08
1.51998e-08
-9.55701e-08
1.59721e-08
-1.02862e-07
1.67396e-08
-1.10464e-07
1.74954e-08
-1.18366e-07
1.82322e-08
-1.26554e-07
1.89419e-08
-1.35011e-07
1.96159e-08
-1.43716e-07
2.02452e-08
-1.52644e-07
2.082e-08
-1.61764e-07
2.13302e-08
-1.71043e-07
2.17653e-08
-1.80443e-07
2.21144e-08
-1.8992e-07
2.23666e-08
-1.99428e-07
2.25107e-08
-2.08915e-07
2.25358e-08
-2.18325e-07
2.24312e-08
-2.27598e-07
2.21867e-08
-2.36673e-07
2.17927e-08
-2.45482e-07
2.12406e-08
-2.53958e-07
2.05227e-08
-2.62029e-07
1.96327e-08
-2.69624e-07
1.85656e-08
-2.76671e-07
1.73183e-08
-2.83097e-07
1.58894e-08
-2.88831e-07
1.42797e-08
-2.93803e-07
1.24917e-08
-2.97947e-07
1.05307e-08
-3.01199e-07
8.40401e-09
-3.03501e-07
6.12143e-09
-3.04799e-07
3.69521e-09
-3.05047e-07
1.14013e-09
-3.04205e-07
-1.52736e-09
-3.02239e-07
-4.28786e-09
-2.99127e-07
-7.11983e-09
-2.94855e-07
-1.00002e-08
-2.89417e-07
-1.29039e-08
-2.82818e-07
-1.58047e-08
-2.75076e-07
-1.8675e-08
-2.66215e-07
-2.14864e-08
-2.56273e-07
-2.42102e-08
-2.45299e-07
-2.68175e-08
-2.3335e-07
-2.92798e-08
-2.20495e-07
-3.15693e-08
-2.06812e-07
-3.36596e-08
-1.92388e-07
-3.55259e-08
-1.77319e-07
-3.71455e-08
-1.61707e-07
-3.84982e-08
-1.45662e-07
-3.95668e-08
-1.29297e-07
-4.03376e-08
-1.1273e-07
-4.08001e-08
-9.60835e-08
-4.0948e-08
-7.94774e-08
-4.07791e-08
-6.30335e-08
-4.02951e-08
-4.68713e-08
-3.95023e-08
-3.11066e-08
-3.84111e-08
-1.58507e-08
-3.70358e-08
-1.20841e-09
-3.53948e-08
1.27231e-08
-3.35098e-08
2.58554e-08
-3.14059e-08
3.81099e-08
-2.91107e-08
4.94189e-08
-2.6654e-08
5.9726e-08
-2.40673e-08
6.89869e-08
-2.13831e-08
7.71697e-08
-1.8634e-08
8.42546e-08
-1.58526e-08
9.02341e-08
-1.30703e-08
9.51124e-08
-1.03174e-08
9.8905e-08
-7.62199e-09
1.01638e-07
-5.00969e-09
1.03346e-07
-2.50338e-09
1.04073e-07
-1.22807e-10
1.0387e-07
2.1156e-09
1.02795e-07
4.19879e-09
1.00908e-07
6.11706e-09
9.82764e-08
7.86392e-09
9.49669e-08
9.43584e-09
9.10493e-08
1.08319e-08
8.65935e-08
1.20532e-08
8.16693e-08
1.31026e-08
7.63463e-08
1.39835e-08
7.06934e-08
1.46994e-08
6.47791e-08
1.52529e-08
5.86723e-08
1.56448e-08
5.24429e-08
1.58729e-08
4.61633e-08
1.5931e-08
3.99096e-08
1.58081e-08
3.37635e-08
1.54877e-08
2.78135e-08
1.49474e-08
2.21566e-08
1.41591e-08
1.68981e-08
1.30918e-08
1.21512e-08
1.17148e-08
8.03331e-09
1.00061e-08
4.66047e-09
7.96707e-09
2.13957e-09
5.6435e-09
5.60381e-10
3.16058e-09
8.10324e-10
1.41395e-10
-6.35727e-10
3.66041e-10
-1.22451e-09
5.42287e-10
-1.30846e-09
5.7998e-10
-1.02666e-09
4.17272e-10
-4.91193e-10
1.43744e-11
2.06426e-10
-6.5115e-10
9.95104e-10
-1.58936e-09
1.82243e-09
-2.8008e-09
2.65169e-09
-4.27984e-09
3.45951e-09
-6.01759e-09
4.23296e-09
-8.00391e-09
4.96726e-09
-1.02291e-08
5.66373e-09
-1.2685e-08
6.32795e-09
-1.53662e-08
6.96831e-09
-1.82699e-08
7.59479e-09
-2.13968e-08
8.21797e-09
-2.47504e-08
8.84834e-09
-2.83376e-08
9.49569e-09
-3.21674e-08
1.01687e-08
-3.62514e-08
1.08748e-08
-4.06029e-08
1.16198e-08
-4.52362e-08
1.24081e-08
-5.01666e-08
1.32424e-08
-5.54097e-08
1.4124e-08
-6.09807e-08
1.5053e-08
-6.68943e-08
1.60277e-08
-7.31641e-08
1.70458e-08
-7.98023e-08
1.81034e-08
-8.68193e-08
1.91959e-08
-9.42234e-08
2.03176e-08
-1.0202e-07
2.1462e-08
-1.10213e-07
2.26218e-08
-1.18802e-07
2.37887e-08
-1.27784e-07
2.49537e-08
-1.37151e-07
2.61068e-08
-1.46893e-07
2.72372e-08
-1.56994e-07
2.83335e-08
-1.67435e-07
2.93831e-08
-1.78192e-07
3.03727e-08
-1.89235e-07
3.12882e-08
-2.0053e-07
3.2115e-08
-2.12038e-07
3.28377e-08
-2.23713e-07
3.34405e-08
-2.35506e-07
3.39071e-08
-2.47361e-07
3.42215e-08
-2.59217e-07
3.43675e-08
-2.71011e-07
3.43292e-08
-2.82671e-07
3.40915e-08
-2.94125e-07
3.36401e-08
-3.05294e-07
3.29618e-08
-3.16098e-07
3.20448e-08
-3.26454e-07
3.08793e-08
-3.36279e-07
2.94573e-08
-3.45486e-07
2.7773e-08
-3.53991e-07
2.58234e-08
-3.6171e-07
2.36081e-08
-3.6856e-07
2.11297e-08
-3.74462e-07
1.83939e-08
-3.79341e-07
1.54096e-08
-3.83126e-07
1.21891e-08
-3.85753e-07
8.74804e-09
-3.87163e-07
5.10532e-09
-3.87307e-07
1.28344e-09
-3.86141e-07
-2.69309e-09
-3.83633e-07
-6.79525e-09
-3.79761e-07
-1.09919e-08
-3.74512e-07
-1.52494e-08
-3.67884e-07
-1.95319e-08
-3.59887e-07
-2.38018e-08
-3.50542e-07
-2.802e-08
-3.39882e-07
-3.21464e-08
-3.27952e-07
-3.61405e-08
-3.14808e-07
-3.99617e-08
-3.00517e-07
-4.35702e-08
-2.85159e-07
-4.69273e-08
-2.68823e-07
-4.99959e-08
-2.51607e-07
-5.27415e-08
-2.3362e-07
-5.51323e-08
-2.14978e-07
-5.71402e-08
-1.95804e-07
-5.87408e-08
-1.76227e-07
-5.99145e-08
-1.56381e-07
-6.06464e-08
-1.36402e-07
-6.09271e-08
-1.16428e-07
-6.07527e-08
-9.65987e-08
-6.01248e-08
-7.70498e-08
-5.90512e-08
-5.79155e-08
-5.75454e-08
-3.93248e-08
-5.56265e-08
-2.14006e-08
-5.33189e-08
-4.25804e-09
-5.06524e-08
1.1997e-08
-4.76609e-08
2.72689e-08
-4.43826e-08
4.14735e-08
-4.08586e-08
5.4539e-08
-3.71328e-08
6.64067e-08
-3.32508e-08
7.70316e-08
-2.92588e-08
8.63821e-08
-2.52031e-08
9.44409e-08
-2.11291e-08
1.01204e-07
-1.70805e-08
1.0668e-07
-1.30984e-08
1.10892e-07
-9.22099e-09
1.13871e-07
-5.48266e-09
1.15662e-07
-1.9136e-09
1.16317e-07
1.46045e-09
1.15897e-07
4.61842e-09
1.1447e-07
7.54392e-09
1.12109e-07
1.02251e-08
1.08891e-07
1.26543e-08
1.04895e-07
1.48277e-08
1.00204e-07
1.67447e-08
9.48994e-08
1.84067e-08
8.90661e-08
1.98168e-08
8.27871e-08
2.09783e-08
7.61465e-08
2.18935e-08
6.92291e-08
2.25622e-08
6.21209e-08
2.2981e-08
5.49108e-08
2.31411e-08
4.76913e-08
2.30276e-08
4.05603e-08
2.26188e-08
3.36222e-08
2.18855e-08
2.69891e-08
2.07922e-08
2.07812e-08
1.92997e-08
1.51262e-08
1.73697e-08
1.01582e-08
1.49742e-08
6.01511e-09
1.21101e-08
2.83818e-09
8.82043e-09
7.74819e-10
5.22394e-09
1.58514e-09
9.60464e-11
-7.31775e-10
2.0139e-10
-1.32985e-09
1.9127e-10
-1.29834e-09
-1.95531e-11
-8.1583e-10
-4.88476e-10
-2.22744e-11
-1.25097e-09
9.68919e-10
-2.3264e-09
2.07054e-09
-3.72171e-09
3.21773e-09
-5.43539e-09
4.36537e-09
-7.46047e-09
5.4846e-09
-9.78719e-09
6.55968e-09
-1.24051e-08
7.58511e-09
-1.53044e-08
8.56312e-09
-1.84779e-08
9.50137e-09
-2.19207e-08
1.04112e-08
-2.56318e-08
1.13058e-08
-2.96132e-08
1.21994e-08
-3.38708e-08
1.3106e-08
-3.84135e-08
1.40384e-08
-4.3253e-08
1.50082e-08
-4.84034e-08
1.60252e-08
-5.38806e-08
1.7097e-08
-5.97017e-08
1.82291e-08
-6.58845e-08
1.94252e-08
-7.24469e-08
2.06865e-08
-7.94065e-08
2.20126e-08
-8.67797e-08
2.3401e-08
-9.45818e-08
2.48478e-08
-1.02826e-07
2.63474e-08
-1.11523e-07
2.78928e-08
-1.20681e-07
2.94755e-08
-1.30305e-07
3.10861e-08
-1.40397e-07
3.27136e-08
-1.50954e-07
3.43459e-08
-1.6197e-07
3.59699e-08
-1.73434e-07
3.7571e-08
-1.85331e-07
3.91338e-08
-1.97639e-07
4.06413e-08
-2.10331e-07
4.20758e-08
-2.23377e-07
4.34184e-08
-2.36738e-07
4.46491e-08
-2.5037e-07
4.57473e-08
-2.64224e-07
4.66916e-08
-2.78244e-07
4.74601e-08
-2.92367e-07
4.80308e-08
-3.06527e-07
4.83817e-08
-3.20651e-07
4.84912e-08
-3.3466e-07
4.83383e-08
-3.48472e-07
4.79033e-08
-3.62e-07
4.71677e-08
-3.75153e-07
4.61149e-08
-3.87838e-07
4.47306e-08
-3.99962e-07
4.30029e-08
-4.11428e-07
4.09229e-08
-4.22139e-07
3.84848e-08
-4.32003e-07
3.56864e-08
-4.40924e-07
3.25294e-08
-4.48813e-07
2.90192e-08
-4.55585e-07
2.51656e-08
-4.61158e-07
2.09824e-08
-4.65457e-07
1.64879e-08
-4.68413e-07
1.17046e-08
-4.69967e-07
6.65924e-09
-4.70067e-07
1.38307e-09
-4.68669e-07
-4.09047e-09
-4.65743e-07
-9.7218e-09
-4.61265e-07
-1.54693e-08
-4.55227e-07
-2.12881e-08
-4.47628e-07
-2.71307e-08
-4.38482e-07
-3.29477e-08
-4.27814e-07
-3.86876e-08
-4.15663e-07
-4.42982e-08
-4.02076e-07
-4.97267e-08
-3.87118e-07
-5.49204e-08
-3.7086e-07
-5.98275e-08
-3.5339e-07
-6.43977e-08
-3.34803e-07
-6.85831e-08
-3.15206e-07
-7.23387e-08
-2.94715e-07
-7.5623e-08
-2.73456e-07
-7.83992e-08
-2.51561e-07
-8.06353e-08
-2.29171e-07
-8.2305e-08
-2.06429e-07
-8.33884e-08
-1.83484e-07
-8.38719e-08
-1.60487e-07
-8.37493e-08
-1.37591e-07
-8.30216e-08
-1.14945e-07
-8.16973e-08
-9.26978e-08
-7.97922e-08
-7.09945e-08
-7.73298e-08
-4.99733e-08
-7.43402e-08
-2.97651e-08
-7.08605e-08
-1.04922e-08
-6.69338e-08
7.7338e-09
-6.26086e-08
2.48129e-08
-5.79377e-08
4.06572e-08
-5.29772e-08
5.51936e-08
-4.77872e-08
6.83626e-08
-4.24278e-08
8.01197e-08
-3.69602e-08
9.04353e-08
-3.14447e-08
9.92949e-08
-2.59401e-08
1.06699e-07
-2.05021e-08
1.12661e-07
-1.5183e-08
1.17209e-07
-1.00306e-08
1.20382e-07
-5.0873e-09
1.22233e-07
-3.90243e-10
1.22822e-07
4.02962e-09
1.22218e-07
8.14722e-09
1.205e-07
1.19435e-08
1.17749e-07
1.54049e-08
1.14054e-07
1.85232e-08
1.09505e-07
2.1294e-08
1.04195e-07
2.37167e-08
9.82191e-08
2.57924e-08
9.16742e-08
2.75232e-08
8.46573e-08
2.89103e-08
7.72671e-08
2.99524e-08
6.96042e-08
3.06439e-08
6.17717e-08
3.09736e-08
5.38765e-08
3.09228e-08
4.60305e-08
3.04648e-08
3.83518e-08
2.95642e-08
3.09656e-08
2.81784e-08
2.40053e-08
2.626e-08
1.76129e-08
2.37621e-08
1.19397e-08
2.06474e-08
7.14822e-09
1.69016e-08
3.41615e-09
1.25525e-08
9.47303e-10
7.69278e-09
2.53245e-09
3.70685e-11
-7.6884e-10
-1.21428e-11
-1.28064e-09
-2.58524e-10
-1.05195e-09
-7.77729e-10
-2.96632e-10
-1.61867e-09
8.18665e-10
-2.81034e-09
2.1606e-09
-4.36622e-09
3.62641e-09
-6.28896e-09
5.14047e-09
-8.57384e-09
6.65026e-09
-1.12118e-08
8.12253e-09
-1.41917e-08
9.53964e-09
-1.75028e-08
1.08962e-08
-2.11357e-08
1.2196e-08
-2.50838e-08
1.34494e-08
-2.93438e-08
1.46712e-08
-3.39164e-08
1.58784e-08
-3.88059e-08
1.7089e-08
-4.40206e-08
1.83206e-08
-4.9572e-08
1.95897e-08
-5.54745e-08
2.09108e-08
-6.17452e-08
2.22958e-08
-6.84026e-08
2.37544e-08
-7.54667e-08
2.52932e-08
-8.29577e-08
2.69162e-08
-9.08959e-08
2.86247e-08
-9.93006e-08
3.04173e-08
-1.0819e-07
3.22904e-08
-1.1758e-07
3.42381e-08
-1.27485e-07
3.62524e-08
-1.37916e-07
3.83234e-08
-1.4888e-07
4.04393e-08
-1.6038e-07
4.25867e-08
-1.72417e-07
4.47505e-08
-1.84985e-07
4.69141e-08
-1.98075e-07
4.9059e-08
-2.11669e-07
5.11655e-08
-2.25748e-07
5.32123e-08
-2.40283e-07
5.51766e-08
-2.55241e-07
5.70342e-08
-2.70583e-07
5.87598e-08
-2.8626e-07
6.03267e-08
-3.02221e-07
6.17076e-08
-3.18404e-07
6.28745e-08
-3.34742e-07
6.37989e-08
-3.51164e-07
6.44523e-08
-3.67589e-07
6.48068e-08
-3.83933e-07
6.48349e-08
-4.00105e-07
6.45108e-08
-4.16012e-07
6.381e-08
-4.31554e-07
6.27103e-08
-4.46632e-07
6.1192e-08
-4.6114e-07
5.92387e-08
-4.74974e-07
5.68374e-08
-4.8803e-07
5.39787e-08
-5.00203e-07
5.06579e-08
-5.11391e-07
4.68745e-08
-5.21495e-07
4.26331e-08
-5.30419e-07
3.7943e-08
-5.38072e-07
3.28188e-08
-5.4437e-07
2.72804e-08
-5.49235e-07
2.13527e-08
-5.52596e-07
1.50661e-08
-5.54393e-07
8.45576e-09
-5.54572e-07
1.56237e-09
-5.53091e-07
-5.57109e-09
-5.49919e-07
-1.28941e-08
-5.45034e-07
-2.0354e-08
-5.38428e-07
-2.78945e-08
-5.30102e-07
-3.54561e-08
-5.20073e-07
-4.29772e-08
-5.08367e-07
-5.03939e-08
-4.95023e-07
-5.76416e-08
-4.80095e-07
-6.46547e-08
-4.63647e-07
-7.13684e-08
-4.45756e-07
-7.77185e-08
-4.26511e-07
-8.3643e-08
-4.06012e-07
-8.90822e-08
-3.8437e-07
-9.39804e-08
-3.61707e-07
-9.82858e-08
-3.38154e-07
-1.01952e-07
-3.13851e-07
-1.04939e-07
-2.88943e-07
-1.07213e-07
-2.63584e-07
-1.08747e-07
-2.37932e-07
-1.09524e-07
-2.12147e-07
-1.09534e-07
-1.86393e-07
-1.08776e-07
-1.60832e-07
-1.07258e-07
-1.35626e-07
-1.04998e-07
-1.10933e-07
-1.02023e-07
-8.69065e-08
-9.83671e-08
-6.36919e-08
-9.40752e-08
-4.14271e-08
-8.91986e-08
-2.02401e-08
-8.37956e-08
-2.47053e-10
-7.79307e-08
1.84497e-08
-7.16739e-08
3.57598e-08
-6.50973e-08
5.16088e-08
-5.82769e-08
6.59379e-08
-5.12893e-08
7.8704e-08
-4.42108e-08
8.98801e-08
-3.71162e-08
9.94552e-08
-3.00772e-08
1.07434e-07
-2.31618e-08
1.13836e-07
-1.64326e-08
1.18695e-07
-9.94636e-09
1.22058e-07
-3.75311e-09
1.23983e-07
2.1042e-09
1.24541e-07
7.59003e-09
1.23808e-07
1.26761e-08
1.21872e-07
1.73413e-08
1.18824e-07
2.15707e-08
1.14763e-07
2.53552e-08
1.0979e-07
2.869e-08
1.04009e-07
3.15733e-08
9.75271e-08
3.40049e-08
9.04537e-08
3.59838e-08
8.28993e-08
3.75068e-08
7.49773e-08
3.8566e-08
6.68035e-08
3.91474e-08
5.84976e-08
3.92286e-08
5.01842e-08
3.87782e-08
4.19935e-08
3.77549e-08
3.40632e-08
3.61088e-08
2.65393e-08
3.37839e-08
1.95785e-08
3.07229e-08
1.33504e-08
2.68755e-08
8.04226e-09
2.22098e-08
3.86728e-09
1.67275e-08
1.07875e-09
1.04813e-08
3.61119e-09
-3.21717e-11
-7.36674e-10
-2.63684e-10
-1.04912e-09
-7.87901e-10
-5.27744e-10
-1.66631e-09
5.81778e-10
-2.93664e-09
2.08899e-09
-4.61841e-09
3.84236e-09
-6.71767e-09
5.72569e-09
-9.23127e-09
7.65406e-09
-1.21502e-08
9.56917e-09
-1.54625e-08
1.14348e-08
-1.91555e-08
1.32326e-08
-2.32177e-08
1.49584e-08
-2.76402e-08
1.66185e-08
-3.24175e-08
1.82267e-08
-3.75481e-08
1.98018e-08
-4.30347e-08
2.1365e-08
-4.88844e-08
2.29387e-08
-5.51082e-08
2.45444e-08
-6.17205e-08
2.62021e-08
-6.87391e-08
2.79294e-08
-7.61839e-08
2.97406e-08
-8.40765e-08
3.1647e-08
-9.24394e-08
3.36562e-08
-1.01296e-07
3.57724e-08
-1.10667e-07
3.79964e-08
-1.20576e-07
4.03258e-08
-1.31041e-07
4.27551e-08
-1.42078e-07
4.5276e-08
-1.53703e-07
4.78775e-08
-1.65926e-07
5.05461e-08
-1.78753e-07
5.32661e-08
-1.92186e-07
5.60194e-08
-2.06221e-07
5.87859e-08
-2.2085e-07
6.15435e-08
-2.36059e-07
6.4268e-08
-2.51827e-07
6.69332e-08
-2.68126e-07
6.95114e-08
-2.84922e-07
7.19728e-08
-3.02174e-07
7.42862e-08
-3.19834e-07
7.6419e-08
-3.37844e-07
7.83372e-08
-3.56143e-07
8.00062e-08
-3.74659e-07
8.13908e-08
-3.93316e-07
8.24555e-08
-4.12029e-07
8.31654e-08
-4.30708e-07
8.34861e-08
-4.49258e-07
8.33848e-08
-4.67578e-07
8.28304e-08
-4.85562e-07
8.17945e-08
-5.03103e-07
8.02515e-08
-5.2009e-07
7.81792e-08
-5.36411e-07
7.55597e-08
-5.51954e-07
7.23795e-08
-5.66605e-07
6.86301e-08
-5.80255e-07
6.43081e-08
-5.92796e-07
5.94158e-08
-6.04125e-07
5.39615e-08
-6.14141e-07
4.79591e-08
-6.22751e-07
4.14291e-08
-6.29869e-07
3.43977e-08
-6.35413e-07
2.68973e-08
-6.39314e-07
1.89664e-08
-6.41507e-07
1.06491e-08
-6.4194e-07
1.99573e-09
-6.40571e-07
-6.94081e-09
-6.37365e-07
-1.60991e-08
-6.32304e-07
-2.54155e-08
-6.25376e-07
-3.4822e-08
-6.16585e-07
-4.42474e-08
-6.05945e-07
-5.36175e-08
-5.93482e-07
-6.28565e-08
-5.79237e-07
-7.18868e-08
-5.63261e-07
-8.06306e-08
-5.45619e-07
-8.90101e-08
-5.26389e-07
-9.6949e-08
-5.05659e-07
-1.04373e-07
-4.83532e-07
-1.1121e-07
-4.6012e-07
-1.17392e-07
-4.35547e-07
-1.22859e-07
-4.09948e-07
-1.27552e-07
-3.83465e-07
-1.31422e-07
-3.56251e-07
-1.34426e-07
-3.28466e-07
-1.36533e-07
-3.00274e-07
-1.37716e-07
-2.71846e-07
-1.37962e-07
-2.43354e-07
-1.37268e-07
-2.14972e-07
-1.3564e-07
-1.86873e-07
-1.33096e-07
-1.5923e-07
-1.29666e-07
-1.3221e-07
-1.25387e-07
-1.05973e-07
-1.20312e-07
-8.06742e-08
-1.14498e-07
-5.64566e-08
-1.08013e-07
-3.3453e-08
-1.00934e-07
-1.1784e-08
-9.3343e-08
8.44502e-09
-8.53263e-08
2.71431e-08
-7.69749e-08
4.42354e-08
-6.83816e-08
5.96641e-08
-5.96395e-08
7.33882e-08
-5.08403e-08
8.5384e-08
-4.20731e-08
9.56448e-08
-3.34226e-08
1.0418e-07
-2.49681e-08
1.11016e-07
-1.67822e-08
1.16193e-07
-8.92969e-09
1.19764e-07
-1.46737e-09
1.21797e-07
5.55682e-09
1.2237e-07
1.21035e-08
1.21569e-07
1.8142e-08
1.19491e-07
2.36492e-08
1.16237e-07
2.86092e-08
1.11915e-07
3.30116e-08
1.06638e-07
3.68503e-08
1.00522e-07
4.01213e-08
9.36849e-08
4.28207e-08
8.62491e-08
4.49425e-08
7.8339e-08
4.64762e-08
7.0082e-08
4.74044e-08
6.16095e-08
4.77011e-08
5.30577e-08
4.733e-08
4.45685e-08
4.62441e-08
3.62915e-08
4.43858e-08
2.83857e-08
4.16896e-08
2.10227e-08
3.8086e-08
1.43903e-08
3.35078e-08
8.69992e-09
2.79002e-08
4.19615e-09
2.12312e-08
1.17261e-09
1.35049e-08
4.7838e-09
-1.09416e-10
-6.27254e-10
-5.46402e-10
-6.12143e-10
-1.38328e-09
3.09132e-10
-2.66467e-09
1.86318e-09
-4.41432e-09
3.83863e-09
-6.64019e-09
6.06823e-09
-9.33913e-09
8.42463e-09
-1.25008e-08
1.08157e-08
-1.6111e-08
1.31793e-08
-2.01541e-08
1.5478e-08
-2.46156e-08
1.76941e-08
-2.94832e-08
1.98261e-08
-3.47484e-08
2.18837e-08
-4.04069e-08
2.38852e-08
-4.64592e-08
2.58541e-08
-5.29107e-08
2.78165e-08
-5.97714e-08
2.97993e-08
-6.70554e-08
3.18284e-08
-7.47806e-08
3.39274e-08
-8.29681e-08
3.61169e-08
-9.1641e-08
3.84135e-08
-1.00824e-07
4.08301e-08
-1.10543e-07
4.33748e-08
-1.20822e-07
4.60519e-08
-1.31687e-07
4.88613e-08
-1.4316e-07
5.17989e-08
-1.55262e-07
5.48569e-08
-1.6801e-07
5.80239e-08
-1.81418e-07
6.12854e-08
-1.95495e-07
6.46236e-08
-2.10247e-07
6.8018e-08
-2.25673e-07
7.14451e-08
-2.41766e-07
7.48791e-08
-2.58514e-07
7.82915e-08
-2.75898e-07
8.16515e-08
-2.9389e-07
8.49257e-08
-3.12458e-07
8.80791e-08
-3.31559e-07
9.10742e-08
-3.51145e-07
9.3872e-08
-3.71158e-07
9.6432e-08
-3.91533e-07
9.87123e-08
-4.12198e-07
1.00671e-07
-4.33071e-07
1.02264e-07
-4.54066e-07
1.03451e-07
-4.75089e-07
1.04188e-07
-4.96039e-07
1.04436e-07
-5.16811e-07
1.04156e-07
-5.37294e-07
1.03314e-07
-5.57375e-07
1.01876e-07
-5.76937e-07
9.98138e-08
-5.95863e-07
9.71044e-08
-6.14032e-07
9.37287e-08
-6.31326e-07
8.96735e-08
-6.47627e-07
8.49316e-08
-6.62821e-07
7.95021e-08
-6.76796e-07
7.33907e-08
-6.89444e-07
6.66099e-08
-7.00664e-07
5.9179e-08
-7.10359e-07
5.11244e-08
-7.18441e-07
4.24794e-08
-7.24828e-07
3.3284e-08
-7.29446e-07
2.35849e-08
-7.32233e-07
1.34353e-08
-7.33132e-07
2.89486e-09
-7.32099e-07
-7.9733e-09
-7.29101e-07
-1.90976e-08
-7.24113e-07
-3.04031e-08
-7.17125e-07
-4.18105e-08
-7.08135e-07
-5.3237e-08
-6.97156e-07
-6.45964e-08
-6.84212e-07
-7.58005e-08
-6.6934e-07
-8.67593e-08
-6.52588e-07
-9.73821e-08
-6.3402e-07
-1.07579e-07
-6.13709e-07
-1.1726e-07
-5.91744e-07
-1.26338e-07
-5.68225e-07
-1.34729e-07
-5.43264e-07
-1.42353e-07
-5.16986e-07
-1.49137e-07
-4.89527e-07
-1.55011e-07
-4.61032e-07
-1.59917e-07
-4.31657e-07
-1.63801e-07
-4.01567e-07
-1.66623e-07
-3.70933e-07
-1.68349e-07
-3.39934e-07
-1.68962e-07
-3.08752e-07
-1.68451e-07
-2.77571e-07
-1.66821e-07
-2.46578e-07
-1.64089e-07
-2.15957e-07
-1.60286e-07
-1.85891e-07
-1.55453e-07
-1.56557e-07
-1.49646e-07
-1.28124e-07
-1.4293e-07
-1.00755e-07
-1.35383e-07
-7.45986e-08
-1.27091e-07
-4.97936e-08
-1.18148e-07
-2.64636e-08
-1.08656e-07
-4.71686e-09
-9.87217e-08
1.53549e-08
-8.84534e-08
3.36774e-08
-7.7962e-08
5.01944e-08
-6.73573e-08
6.48681e-08
-5.67467e-08
7.76787e-08
-4.62333e-08
8.86249e-08
-3.59143e-08
9.77225e-08
-2.58797e-08
1.05004e-07
-1.62112e-08
1.10518e-07
-6.981e-09
1.14326e-07
1.74858e-09
1.16504e-07
9.92525e-09
1.1714e-07
1.75066e-08
1.16329e-07
2.44598e-08
1.14178e-07
3.07602e-08
1.10799e-07
3.63902e-08
1.06312e-07
4.13379e-08
1.00839e-07
4.55943e-08
9.45079e-08
4.91514e-08
8.74507e-08
5.19997e-08
7.98018e-08
5.41251e-08
7.16994e-08
5.55068e-08
6.32859e-08
5.61147e-08
5.47084e-08
5.59075e-08
4.61204e-08
5.48321e-08
3.76834e-08
5.28228e-08
2.95695e-08
4.98035e-08
2.1965e-08
4.56905e-08
1.50756e-08
4.03972e-08
9.13416e-09
3.38416e-08
4.41183e-09
2.59536e-08
1.2329e-09
1.66838e-08
6.01669e-09
-1.93511e-10
-4.33746e-10
-8.55466e-10
4.98141e-11
-2.0351e-09
1.48877e-09
-3.75771e-09
3.58579e-09
-6.03074e-09
6.11166e-09
-8.84877e-09
8.88626e-09
-1.21979e-08
1.17737e-08
-1.60594e-08
1.46773e-08
-2.0413e-08
1.75329e-08
-2.52389e-08
2.03039e-08
-3.05202e-08
2.29754e-08
-3.62438e-08
2.55497e-08
-4.24015e-08
2.80414e-08
-4.89906e-08
3.04743e-08
-5.60139e-08