/*--------------------------------*- C++ -*----------------------------------*\
| =========                 |                                                 |
| \\      /  F ield         | OpenFOAM: The Open Source CFD Toolbox           |
|  \\    /   O peration     | Version:  2112                                  |
|   \\  /    A nd           | Website:  www.openfoam.com                      |
|    \\/     M anipulation  |                                                 |
\*---------------------------------------------------------------------------*/
FoamFile
{
    version     2.0;
    format      ascii;
    arch        "LSB;label=32;scalar=64";
    class       volVectorField;
    location    "1.5";
    object      U;
}
// * * * * * * * * * * * * * * * * * * * * * * * * * * * * * * * * * * * * * //

dimensions      [0 1 -1 0 0 0 0];

internalField   nonuniform List<vector> 
16641
(
(1.2178e-06 -1.2965e-06 0)
(1.10719e-05 -6.03465e-06 0)
(3.06786e-05 -8.39669e-06 0)
(5.26524e-05 -8.65478e-06 0)
(7.27388e-05 -7.68886e-06 0)
(8.87018e-05 -6.11282e-06 0)
(9.93475e-05 -4.29627e-06 0)
(0.000104211 -2.46132e-06 0)
(0.000103296 -7.21651e-07 0)
(9.68678e-05 8.63232e-07 0)
(8.53297e-05 2.27565e-06 0)
(6.91293e-05 3.51961e-06 0)
(4.86991e-05 4.61379e-06 0)
(2.44198e-05 5.58467e-06 0)
(-3.40365e-06 6.46254e-06 0)
(-3.45549e-05 7.27971e-06 0)
(-6.89088e-05 8.06753e-06 0)
(-0.000106429 8.85414e-06 0)
(-0.000147163 9.66498e-06 0)
(-0.000191229 1.05218e-05 0)
(-0.000238811 1.14419e-05 0)
(-0.000290143 1.24396e-05 0)
(-0.000345496 1.3525e-05 0)
(-0.000405172 1.47046e-05 0)
(-0.000469488 1.59827e-05 0)
(-0.00053877 1.73605e-05 0)
(-0.000613343 1.88365e-05 0)
(-0.000693524 2.04084e-05 0)
(-0.000779616 2.20721e-05 0)
(-0.000871904 2.38219e-05 0)
(-0.000970646 2.56515e-05 0)
(-0.00107608 2.75535e-05 0)
(-0.00118839 2.95195e-05 0)
(-0.00130775 3.15406e-05 0)
(-0.00143428 3.36065e-05 0)
(-0.00156806 3.57057e-05 0)
(-0.0017091 3.78254e-05 0)
(-0.00185739 3.9951e-05 0)
(-0.00201283 4.20664e-05 0)
(-0.00217527 4.41532e-05 0)
(-0.00234447 4.61908e-05 0)
(-0.00252012 4.81566e-05 0)
(-0.00270182 5.00257e-05 0)
(-0.00288908 5.17707e-05 0)
(-0.0030813 5.33617e-05 0)
(-0.00327779 5.47668e-05 0)
(-0.00347772 5.59527e-05 0)
(-0.00368018 5.68843e-05 0)
(-0.00388413 5.75248e-05 0)
(-0.0040884 5.78366e-05 0)
(-0.00429173 5.77822e-05 0)
(-0.00449271 5.73248e-05 0)
(-0.00468987 5.64287e-05 0)
(-0.0048816 5.50594e-05 0)
(-0.00506621 5.31853e-05 0)
(-0.00524195 5.07781e-05 0)
(-0.00540698 4.78143e-05 0)
(-0.00555943 4.42756e-05 0)
(-0.00569742 4.01497e-05 0)
(-0.00581902 3.54313e-05 0)
(-0.00592238 3.01229e-05 0)
(-0.00600566 2.4236e-05 0)
(-0.0060671 1.77906e-05 0)
(-0.00610506 1.08152e-05 0)
(-0.00611806 3.34427e-06 0)
(-0.00610473 -4.53029e-06 0)
(-0.00606389 -1.27906e-05 0)
(-0.00599465 -2.13567e-05 0)
(-0.00589635 -3.01432e-05 0)
(-0.00576859 -3.90592e-05 0)
(-0.00561127 -4.8006e-05 0)
(-0.00542464 -5.68783e-05 0)
(-0.00520924 -6.5566e-05 0)
(-0.00496599 -7.39553e-05 0)
(-0.00469613 -8.19315e-05 0)
(-0.00440127 -8.93805e-05 0)
(-0.00408332 -9.61918e-05 0)
(-0.00374454 -0.000102261 0)
(-0.00338748 -0.00010749 0)
(-0.00301495 -0.000111794 0)
(-0.00263001 -0.0001151 0)
(-0.00223589 -0.000117348 0)
(-0.001836 -0.000118498 0)
(-0.00143382 -0.000118525 0)
(-0.00103289 -0.000117423 0)
(-0.000636728 -0.000115208 0)
(-0.000248803 -0.000111913 0)
(0.000127549 -0.000107594 0)
(0.000489163 -0.000102315 0)
(0.000833101 -9.61644e-05 0)
(0.00115669 -8.92447e-05 0)
(0.00145758 -8.16661e-05 0)
(0.00173373 -7.3549e-05 0)
(0.00198349 -6.50197e-05 0)
(0.0022056 -5.62072e-05 0)
(0.00239915 -4.72404e-05 0)
(0.00256365 -3.82446e-05 0)
(0.00269898 -2.9339e-05 0)
(0.00280538 -2.06341e-05 0)
(0.00288343 -1.22301e-05 0)
(0.002934 -4.2146e-06 0)
(0.00295824 3.33856e-06 0)
(0.00295756 1.03697e-05 0)
(0.0029335 1.68341e-05 0)
(0.00288781 2.27017e-05 0)
(0.00282231 2.79567e-05 0)
(0.00273889 3.25964e-05 0)
(0.00263946 3.66301e-05 0)
(0.00252592 4.0078e-05 0)
(0.00240014 4.29688e-05 0)
(0.00226392 4.5338e-05 0)
(0.00211895 4.72252e-05 0)
(0.00196687 4.86712e-05 0)
(0.00180918 4.97152e-05 0)
(0.00164733 5.03907e-05 0)
(0.00148268 5.07211e-05 0)
(0.00131658 5.07149e-05 0)
(0.00115039 5.0359e-05 0)
(0.000985571 4.96122e-05 0)
(0.000823753 4.83952e-05 0)
(0.00066686 4.65801e-05 0)
(0.000517227 4.39775e-05 0)
(0.00037775 4.03218e-05 0)
(0.000252038 3.52603e-05 0)
(0.000144528 2.83706e-05 0)
(6.039e-05 1.92755e-05 0)
(4.91843e-06 7.99331e-06 0)
(-1.7857e-05 -4.03287e-06 0)
(-1.0352e-05 -1.03608e-05 0)
(5.98189e-06 -1.10736e-05 0)
(2.98864e-05 -2.98526e-05 0)
(6.93044e-05 -3.83334e-05 0)
(0.00011102 -3.82193e-05 0)
(0.000147101 -3.24962e-05 0)
(0.000172884 -2.3526e-05 0)
(0.000185524 -1.29582e-05 0)
(0.000183636 -1.90489e-06 0)
(0.000166887 8.96359e-06 0)
(0.000135607 1.92486e-05 0)
(9.05221e-05 2.87695e-05 0)
(3.25271e-05 3.74821e-05 0)
(-3.74603e-05 4.54413e-05 0)
(-0.000118609 5.27617e-05 0)
(-0.000210241 5.95931e-05 0)
(-0.000311872 6.61036e-05 0)
(-0.000423232 7.24637e-05 0)
(-0.000544261 7.88366e-05 0)
(-0.000675104 8.53715e-05 0)
(-0.000816086 9.21987e-05 0)
(-0.000967693 9.9427e-05 0)
(-0.00113054 0.000107143 0)
(-0.00130534 0.000115413 0)
(-0.00149289 0.000124279 0)
(-0.00169402 0.000133767 0)
(-0.00190958 0.000143884 0)
(-0.00214042 0.00015462 0)
(-0.00238737 0.000165956 0)
(-0.00265121 0.000177859 0)
(-0.00293267 0.000190283 0)
(-0.00323239 0.000203178 0)
(-0.00355093 0.000216482 0)
(-0.00388876 0.000230127 0)
(-0.00424621 0.000244035 0)
(-0.00462351 0.000258121 0)
(-0.00502074 0.000272289 0)
(-0.00543781 0.000286434 0)
(-0.00587448 0.000300439 0)
(-0.00633032 0.000314178 0)
(-0.00680468 0.00032751 0)
(-0.00729673 0.000340282 0)
(-0.00780537 0.000352328 0)
(-0.00832927 0.00036347 0)
(-0.00886682 0.000373518 0)
(-0.00941615 0.000382269 0)
(-0.00997508 0.000389514 0)
(-0.0105412 0.000395034 0)
(-0.0111116 0.000398607 0)
(-0.0116834 0.000400007 0)
(-0.0122531 0.000399009 0)
(-0.0128171 0.000395394 0)
(-0.0133716 0.000388954 0)
(-0.0139122 0.00037949 0)
(-0.0144346 0.000366823 0)
(-0.0149343 0.000350797 0)
(-0.0154064 0.000331282 0)
(-0.0158462 0.000308183 0)
(-0.0162487 0.000281439 0)
(-0.0166089 0.000251032 0)
(-0.016922 0.000216989 0)
(-0.0171833 0.000179386 0)
(-0.0173882 0.000138353 0)
(-0.0175324 9.40745e-05 0)
(-0.0176118 4.67857e-05 0)
(-0.017623 -3.22249e-06 0)
(-0.0175628 -5.55475e-05 0)
(-0.0174286 -0.000109821 0)
(-0.0172185 -0.000165574 0)
(-0.0169311 -0.000222292 0)
(-0.0165659 -0.000279415 0)
(-0.016123 -0.00033635 0)
(-0.0156033 -0.00039247 0)
(-0.0150087 -0.000447132 0)
(-0.0143418 -0.000499678 0)
(-0.0136061 -0.000549453 0)
(-0.0128057 -0.00059581 0)
(-0.0119457 -0.000638129 0)
(-0.0110321 -0.000675825 0)
(-0.0100713 -0.000708361 0)
(-0.0090704 -0.000735259 0)
(-0.00803721 -0.000756115 0)
(-0.00697986 -0.000770606 0)
(-0.00590686 -0.000778497 0)
(-0.00482694 -0.000779653 0)
(-0.00374897 -0.000774039 0)
(-0.00268178 -0.000761725 0)
(-0.00163409 -0.000742887 0)
(-0.000614323 -0.000717806 0)
(0.000369476 -0.000686853 0)
(0.00130977 -0.000650488 0)
(0.00219963 -0.000609266 0)
(0.00303287 -0.000563795 0)
(0.00380406 -0.000514743 0)
(0.00450865 -0.000462816 0)
(0.00514298 -0.000408747 0)
(0.00570433 -0.000353275 0)
(0.00619093 -0.00029713 0)
(0.00660192 -0.000241019 0)
(0.00693736 -0.000185613 0)
(0.00719817 -0.000131531 0)
(0.00738604 -7.93317e-05 0)
(0.00750342 -2.95042e-05 0)
(0.00755335 1.75377e-05 0)
(0.00753944 6.14603e-05 0)
(0.00746575 0.000102011 0)
(0.00733665 0.000139016 0)
(0.00715679 0.000172379 0)
(0.00693094 0.000202076 0)
(0.00666394 0.000228144 0)
(0.00636061 0.000250674 0)
(0.00602569 0.0002698 0)
(0.0056638 0.000285681 0)
(0.00527938 0.000298487 0)
(0.00487673 0.00030838 0)
(0.00445998 0.000315492 0)
(0.00403321 0.000319902 0)
(0.00360043 0.000321604 0)
(0.0031658 0.000320482 0)
(0.00273369 0.000316278 0)
(0.00230892 0.000308552 0)
(0.00189696 0.000296655 0)
(0.00150409 0.000279704 0)
(0.0011377 0.000256579 0)
(0.000806315 0.000225983 0)
(0.000519615 0.000186654 0)
(0.000287776 0.000137959 0)
(0.000119952 8.11472e-05 0)
(2.25343e-05 2.23126e-05 0)
(-3.99549e-06 -1.78979e-05 0)
(8.60667e-06 -3.09466e-05 0)
(3.88587e-05 -6.93797e-05 0)
(8.48254e-05 -8.43843e-05 0)
(0.00013004 -8.0995e-05 0)
(0.000164812 -6.49469e-05 0)
(0.000183359 -4.10536e-05 0)
(0.000181973 -1.29575e-05 0)
(0.000158718 1.67738e-05 0)
(0.000112995 4.64101e-05 0)
(4.50901e-05 7.48911e-05 0)
(-4.4148e-05 0.000101682 0)
(-0.00015361 0.000126603 0)
(-0.000282128 0.000149735 0)
(-0.000428632 0.000171326 0)
(-0.000592251 0.000191736 0)
(-0.000772375 0.000211379 0)
(-0.000968689 0.000230685 0)
(-0.00118118 0.000250077 0)
(-0.00141011 0.000269944 0)
(-0.00165603 0.000290629 0)
(-0.0019197 0.000312424 0)
(-0.00220207 0.000335561 0)
(-0.00250424 0.000360215 0)
(-0.00282743 0.000386505 0)
(-0.0031729 0.000414495 0)
(-0.00354194 0.000444202 0)
(-0.00393584 0.000475596 0)
(-0.00435582 0.000508611 0)
(-0.00480306 0.000543145 0)
(-0.00527861 0.000579064 0)
(-0.0057834 0.000616207 0)
(-0.00631819 0.000654385 0)
(-0.00688361 0.000693384 0)
(-0.00748004 0.000732965 0)
(-0.00810768 0.00077286 0)
(-0.00876647 0.000812777 0)
(-0.0094561 0.000852392 0)
(-0.010176 0.000891351 0)
(-0.0109251 0.000929269 0)
(-0.0117024 0.000965728 0)
(-0.0125061 0.00100027 0)
(-0.0133342 0.00103242 0)
(-0.0141845 0.00106166 0)
(-0.015054 0.00108745 0)
(-0.0159396 0.00110921 0)
(-0.0168375 0.00112637 0)
(-0.0177436 0.00113831 0)
(-0.0186533 0.00114444 0)
(-0.0195616 0.00114416 0)
(-0.020463 0.00113687 0)
(-0.0213517 0.001122 0)
(-0.0222215 0.00109904 0)
(-0.0230657 0.00106748 0)
(-0.0238775 0.00102691 0)
(-0.0246499 0.000976956 0)
(-0.0253755 0.000917356 0)
(-0.026047 0.000847926 0)
(-0.0266571 0.000768588 0)
(-0.0271984 0.000679384 0)
(-0.0276639 0.000580479 0)
(-0.0280466 0.00047217 0)
(-0.0283399 0.000354893 0)
(-0.0285379 0.000229229 0)
(-0.028635 9.5897e-05 0)
(-0.0286262 -4.42367e-05 0)
(-0.0285074 -0.000190156 0)
(-0.0282753 -0.000340714 0)
(-0.0279274 -0.000494644 0)
(-0.0274624 -0.000650564 0)
(-0.0268797 -0.000806986 0)
(-0.0261802 -0.000962341 0)
(-0.0253656 -0.001115 0)
(-0.024439 -0.00126328 0)
(-0.0234045 -0.0014055 0)
(-0.0222674 -0.00153997 0)
(-0.0210343 -0.00166506 0)
(-0.0197126 -0.00177919 0)
(-0.0183109 -0.00188089 0)
(-0.016839 -0.0019688 0)
(-0.015307 -0.00204173 0)
(-0.0137264 -0.00209864 0)
(-0.0121087 -0.00213874 0)
(-0.0104664 -0.00216141 0)
(-0.00881199 -0.00216632 0)
(-0.00715834 -0.00215336 0)
(-0.00551822 -0.00212269 0)
(-0.00390425 -0.00207471 0)
(-0.00232874 -0.00201012 0)
(-0.000803471 -0.00192981 0)
(0.000660418 -0.00183494 0)
(0.00205261 -0.00172685 0)
(0.00336376 -0.00160706 0)
(0.00458555 -0.00147727 0)
(0.00571085 -0.00133925 0)
(0.00673377 -0.00119486 0)
(0.00764972 -0.001046 0)
(0.00845541 -0.00089457 0)
(0.00914891 -0.000742422 0)
(0.00972956 -0.000591331 0)
(0.010198 -0.000442961 0)
(0.0105559 -0.000298838 0)
(0.0108063 -0.000160324 0)
(0.0109529 -2.85969e-05 0)
(0.0110006 9.53587e-05 0)
(0.0109547 0.000210762 0)
(0.0108214 0.000317034 0)
(0.0106071 0.000413795 0)
(0.0103188 0.000500847 0)
(0.00996338 0.000578163 0)
(0.00954806 0.000645857 0)
(0.00907995 0.000704155 0)
(0.00856609 0.000753361 0)
(0.00801339 0.000793811 0)
(0.00742862 0.00082583 0)
(0.00681839 0.000849668 0)
(0.00618929 0.000865449 0)
(0.00554789 0.000873097 0)
(0.00490096 0.000872274 0)
(0.0042556 0.000862302 0)
(0.00361947 0.00084211 0)
(0.00300104 0.000810181 0)
(0.00240977 0.000764555 0)
(0.00185628 0.000702905 0)
(0.00135243 0.000622792 0)
(0.000911036 0.000522255 0)
(0.000545024 0.00040108 0)
(0.000265537 0.000263022 0)
(8.26295e-05 0.000120102 0)
(8.30996e-06 5.19589e-06 0)
(9.04031e-06 -5.3393e-05 0)
(3.88402e-05 -0.000111245 0)
(8.07688e-05 -0.000129516 0)
(0.000116867 -0.000118108 0)
(0.000136711 -8.60413e-05 0)
(0.000134114 -4.08518e-05 0)
(0.000105119 1.16244e-05 0)
(4.75965e-05 6.71336e-05 0)
(-3.91634e-05 0.000122743 0)
(-0.000154838 0.000176616 0)
(-0.000298497 0.000227758 0)
(-0.000468931 0.000275807 0)
(-0.000664859 0.000320859 0)
(-0.000885111 0.000363326 0)
(-0.00112875 0.000403821 0)
(-0.00139517 0.000443069 0)
(-0.00168408 0.000481835 0)
(-0.0019956 0.000520873 0)
(-0.00233017 0.000560884 0)
(-0.00268855 0.000602491 0)
(-0.0030718 0.000646223 0)
(-0.0034812 0.000692504 0)
(-0.0039182 0.000741651 0)
(-0.00438439 0.000793877 0)
(-0.00488141 0.000849292 0)
(-0.00541094 0.000907916 0)
(-0.00597462 0.000969683 0)
(-0.00657402 0.00103445 0)
(-0.00721059 0.001102 0)
(-0.00788562 0.00117207 0)
(-0.00860024 0.00124431 0)
(-0.00935534 0.00131835 0)
(-0.0101516 0.00139373 0)
(-0.0109892 0.00146998 0)
(-0.0118684 0.00154654 0)
(-0.0127889 0.00162281 0)
(-0.0137498 0.00169813 0)
(-0.0147502 0.0017718 0)
(-0.0157885 0.00184304 0)
(-0.0168628 0.00191101 0)
(-0.0179705 0.00197482 0)
(-0.0191087 0.00203353 0)
(-0.0202738 0.00208612 0)
(-0.0214617 0.00213157 0)
(-0.0226678 0.00216877 0)
(-0.0238868 0.00219664 0)
(-0.025113 0.00221405 0)
(-0.0263398 0.00221988 0)
(-0.0275605 0.00221304 0)
(-0.0287676 0.00219247 0)
(-0.0299531 0.00215717 0)
(-0.0311088 0.00210622 0)
(-0.0322259 0.00203879 0)
(-0.0332954 0.0019542 0)
(-0.0343082 0.00185189 0)
(-0.035255 0.00173145 0)
(-0.0361262 0.00159269 0)
(-0.0369128 0.0014356 0)
(-0.0376055 0.00126037 0)
(-0.0381955 0.00106746 0)
(-0.0386744 0.000857538 0)
(-0.0390344 0.000631539 0)
(-0.0392682 0.000390643 0)
(-0.0393693 0.000136284 0)
(-0.0393321 -0.000129857 0)
(-0.0391518 -0.000405861 0)
(-0.0388249 -0.000689576 0)
(-0.0383488 -0.000978646 0)
(-0.0377225 -0.00127053 0)
(-0.0369457 -0.00156253 0)
(-0.03602 -0.0018518 0)
(-0.0349481 -0.00213543 0)
(-0.033734 -0.00241043 0)
(-0.0323832 -0.00267381 0)
(-0.0309026 -0.0029226 0)
(-0.0293005 -0.00315393 0)
(-0.0275861 -0.00336503 0)
(-0.0257704 -0.00355331 0)
(-0.0238649 -0.00371642 0)
(-0.0218827 -0.00385226 0)
(-0.0198373 -0.00395904 0)
(-0.0177431 -0.00403532 0)
(-0.0156153 -0.00408006 0)
(-0.0134693 -0.00409259 0)
(-0.0113206 -0.00407273 0)
(-0.0091851 -0.00402068 0)
(-0.00707829 -0.00393714 0)
(-0.00501542 -0.00382323 0)
(-0.00301118 -0.00368048 0)
(-0.00107954 -0.00351084 0)
(0.000766427 -0.00331662 0)
(0.0025147 -0.00310045 0)
(0.00415449 -0.00286524 0)
(0.00567634 -0.00261411 0)
(0.0070722 -0.00235033 0)
(0.00833559 -0.00207727 0)
(0.00946158 -0.0017983 0)
(0.0104468 -0.00151676 0)
(0.0112896 -0.00123589 0)
(0.0119897 -0.000958739 0)
(0.0125483 -0.000688147 0)
(0.0129683 -0.000426685 0)
(0.0132535 -0.000176621 0)
(0.0134091 6.01103e-05 0)
(0.0134412 0.000281923 0)
(0.0133569 0.000487585 0)
(0.0131639 0.000676214 0)
(0.0128703 0.000847257 0)
(0.0124849 0.00100047 0)
(0.0120166 0.00113586 0)
(0.0114742 0.00125366 0)
(0.010867 0.00135424 0)
(0.0102039 0.00143805 0)
(0.00949371 0.00150554 0)
(0.00874542 0.00155704 0)
(0.00796783 0.00159266 0)
(0.00716987 0.00161221 0)
(0.00636066 0.00161506 0)
(0.00554973 0.00160004 0)
(0.00474722 0.00156538 0)
(0.00396405 0.00150861 0)
(0.00321217 0.00142666 0)
(0.00250462 0.00131605 0)
(0.00185558 0.0011733 0)
(0.00128013 0.000995918 0)
(0.000793342 0.000784125 0)
(0.000408633 0.00054362 0)
(0.000141805 0.000290246 0)
(2.0143e-05 6.20432e-05 0)
(8.09993e-06 -7.39683e-05 0)
(3.22837e-05 -0.000146588 0)
(6.14279e-05 -0.00016247 0)
(7.79398e-05 -0.000136902 0)
(7.14926e-05 -8.25186e-05 0)
(3.59797e-05 -9.69489e-06 0)
(-3.2432e-05 7.35008e-05 0)
(-0.00013573 0.000161096 0)
(-0.000274474 0.000248956 0)
(-0.000448249 0.000334448 0)
(-0.000656042 0.000416104 0)
(-0.000896566 0.000493379 0)
(-0.00116849 0.000566402 0)
(-0.00147064 0.000635774 0)
(-0.00180212 0.000702406 0)
(-0.00216237 0.000767381 0)
(-0.00255127 0.00083185 0)
(-0.0029691 0.00089695 0)
(-0.00341652 0.000963744 0)
(-0.00389458 0.00103318 0)
(-0.00440463 0.00110606 0)
(-0.00494827 0.00118302 0)
(-0.00552731 0.00126455 0)
(-0.00614368 0.00135095 0)
(-0.00679937 0.00144238 0)
(-0.0074964 0.00153885 0)
(-0.0082367 0.00164022 0)
(-0.00902211 0.00174624 0)
(-0.00985432 0.00185654 0)
(-0.0107348 0.00197064 0)
(-0.0116647 0.00208798 0)
(-0.0126451 0.00220789 0)
(-0.0136764 0.00232962 0)
(-0.0147589 0.00245234 0)
(-0.0158923 0.00257511 0)
(-0.0170761 0.00269692 0)
(-0.0183091 0.00281667 0)
(-0.0195895 0.00293316 0)
(-0.0209152 0.0030451 0)
(-0.0222834 0.00315111 0)
(-0.0236905 0.00324973 0)
(-0.0251325 0.00333941 0)
(-0.0266046 0.00341854 0)
(-0.0281015 0.00348544 0)
(-0.0296168 0.0035384 0)
(-0.031144 0.00357569 0)
(-0.0326754 0.00359555 0)
(-0.034203 0.00359629 0)
(-0.0357181 0.00357624 0)
(-0.0372114 0.00353382 0)
(-0.0386731 0.00346757 0)
(-0.040093 0.00337616 0)
(-0.0414605 0.00325844 0)
(-0.0427649 0.00311347 0)
(-0.0439952 0.00294057 0)
(-0.0451404 0.00273928 0)
(-0.0461895 0.00250947 0)
(-0.0471317 0.00225131 0)
(-0.0479567 0.00196533 0)
(-0.0486544 0.00165237 0)
(-0.0492153 0.00131368 0)
(-0.0496308 0.000950846 0)
(-0.0498929 0.000565846 0)
(-0.0499945 0.000161015 0)
(-0.0499297 -0.000260956 0)
(-0.0496937 -0.000697039 0)
(-0.0492827 -0.00114388 0)
(-0.0486946 -0.00159785 0)
(-0.0479283 -0.00205505 0)
(-0.0469845 -0.00251138 0)
(-0.045865 -0.00296257 0)
(-0.0445734 -0.00340423 0)
(-0.0431147 -0.00383192 0)
(-0.0414955 -0.00424118 0)
(-0.0397236 -0.00462762 0)
(-0.0378086 -0.00498699 0)
(-0.0357613 -0.0053152 0)
(-0.0335939 -0.00560845 0)
(-0.0313198 -0.00586324 0)
(-0.0289535 -0.00607649 0)
(-0.0265104 -0.00624553 0)
(-0.0240068 -0.00636822 0)
(-0.0214598 -0.00644297 0)
(-0.0188867 -0.00646877 0)
(-0.0163054 -0.00644523 0)
(-0.0137337 -0.00637262 0)
(-0.0111895 -0.00625185 0)
(-0.00869028 -0.00608445 0)
(-0.00625302 -0.00587261 0)
(-0.00389403 -0.00561911 0)
(-0.0016287 -0.00532724 0)
(0.000528676 -0.00500082 0)
(0.00256505 -0.00464409 0)
(0.0044688 -0.00426162 0)
(0.00622984 -0.00385822 0)
(0.00783973 -0.00343892 0)
(0.00929177 -0.00300878 0)
(0.010581 -0.00257283 0)
(0.0117043 -0.002136 0)
(0.0126603 -0.00170299 0)
(0.0134493 -0.00127822 0)
(0.0140733 -0.000865752 0)
(0.014536 -0.000469212 0)
(0.0148421 -9.17597e-05 0)
(0.0149981 0.000263948 0)
(0.0150113 0.000595772 0)
(0.01489 0.000902089 0)
(0.0146433 0.00118178 0)
(0.0142809 0.00143417 0)
(0.013813 0.001659 0)
(0.01325 0.00185636 0)
(0.0126027 0.00202656 0)
(0.0118816 0.00217005 0)
(0.0110977 0.0022873 0)
(0.0102617 0.00237864 0)
(0.00938442 0.00244415 0)
(0.00847695 0.00248345 0)
(0.00755051 0.00249559 0)
(0.00661674 0.00247892 0)
(0.00568787 0.00243093 0)
(0.00477693 0.00234829 0)
(0.00389785 0.00222691 0)
(0.0030656 0.00206222 0)
(0.00229623 0.00184981 0)
(0.00160678 0.00158656 0)
(0.00101456 0.00127257 0)
(0.00053593 0.000913975 0)
(0.000193421 0.000527241 0)
(2.99387e-05 0.00014912 0)
(6.31524e-06 -8.97565e-05 0)
(2.10532e-05 -0.000169083 0)
(3.03509e-05 -0.0001749 0)
(1.85634e-05 -0.000127778 0)
(-2.38056e-05 -4.40362e-05 0)
(-0.000102389 6.31178e-05 0)
(-0.000220534 0.000183404 0)
(-0.000379822 0.000309236 0)
(-0.000580498 0.000435309 0)
(-0.000821925 0.000558227 0)
(-0.00110295 0.000676115 0)
(-0.0014222 0.00078829 0)
(-0.00177834 0.00089496 0)
(-0.00217023 0.000996965 0)
(-0.00259707 0.00109556 0)
(-0.00305848 0.00119223 0)
(-0.00355452 0.00128855 0)
(-0.0040857 0.00138611 0)
(-0.00465299 0.00148635 0)
(-0.00525772 0.00159057 0)
(-0.00590158 0.00169988 0)
(-0.00658653 0.00181515 0)
(-0.0073147 0.00193703 0)
(-0.00808837 0.00206591 0)
(-0.00890987 0.00220198 0)
(-0.0097815 0.00234521 0)
(-0.0107055 0.00249536 0)
(-0.0116838 0.00265203 0)
(-0.0127184 0.00281464 0)
(-0.0138108 0.00298244 0)
(-0.0149622 0.00315455 0)
(-0.0161735 0.00332996 0)
(-0.0174452 0.00350751 0)
(-0.0187772 0.00368592 0)
(-0.020169 0.00386377 0)
(-0.0216194 0.00403954 0)
(-0.0231268 0.00421153 0)
(-0.0246888 0.00437796 0)
(-0.0263022 0.0045369 0)
(-0.0279635 0.0046863 0)
(-0.029668 0.00482399 0)
(-0.0314106 0.00494773 0)
(-0.0331852 0.00505515 0)
(-0.0349849 0.00514386 0)
(-0.0368023 0.00521142 0)
(-0.0386288 0.00525536 0)
(-0.0404556 0.00527326 0)
(-0.0422728 0.00526276 0)
(-0.0440699 0.00522161 0)
(-0.0458362 0.00514767 0)
(-0.04756 0.00503904 0)
(-0.0492297 0.00489399 0)
(-0.0508329 0.00471112 0)
(-0.0523575 0.00448931 0)
(-0.053791 0.0042278 0)
(-0.0551211 0.00392621 0)
(-0.0563356 0.00358459 0)
(-0.0574227 0.00320343 0)
(-0.058371 0.0027837 0)
(-0.0591697 0.00232683 0)
(-0.0598087 0.00183475 0)
(-0.0602787 0.0013099 0)
(-0.0605714 0.000755183 0)
(-0.0606795 0.000174003 0)
(-0.0605969 -0.00042979 0)
(-0.0603189 -0.00105191 0)
(-0.0598418 -0.00168768 0)
(-0.0591636 -0.00233204 0)
(-0.0582837 -0.00297963 0)
(-0.057203 -0.00362485 0)
(-0.055924 -0.00426187 0)
(-0.0544507 -0.00488475 0)
(-0.0527888 -0.00548749 0)
(-0.0509455 -0.00606408 0)
(-0.0489295 -0.00660862 0)
(-0.0467512 -0.0071154 0)
(-0.0444223 -0.00757894 0)
(-0.0419558 -0.00799412 0)
(-0.0393663 -0.00835626 0)
(-0.0366694 -0.00866116 0)
(-0.0338817 -0.00890523 0)
(-0.0310208 -0.00908552 0)
(-0.0281051 -0.00919982 0)
(-0.0251536 -0.00924666 0)
(-0.0221856 -0.00922542 0)
(-0.0192207 -0.0091363 0)
(-0.0162784 -0.00898037 0)
(-0.0133782 -0.00875954 0)
(-0.0105389 -0.00847658 0)
(-0.00777891 -0.00813503 0)
(-0.00511557 -0.00773921 0)
(-0.0025653 -0.0072941 0)
(-0.000143214 -0.00680528 0)
(0.00213699 -0.00627884 0)
(0.00426316 -0.00572119 0)
(0.00622489 -0.00513915 0)
(0.00801361 -0.00453955 0)
(0.00962258 -0.0039293 0)
(0.011047 -0.00331517 0)
(0.0122841 -0.00270375 0)
(0.0133329 -0.00210123 0)
(0.0141944 -0.0015134 0)
(0.0148713 -0.000945497 0)
(0.0153679 -0.000402158 0)
(0.0156902 0.000112633 0)
(0.0158455 0.000595573 0)
(0.0158423 0.00104405 0)
(0.01569 0.00145614 0)
(0.015399 0.00183053 0)
(0.0149804 0.00216648 0)
(0.0144457 0.00246374 0)
(0.0138067 0.00272239 0)
(0.0130757 0.00294276 0)
(0.0122651 0.00312522 0)
(0.0113872 0.00327002 0)
(0.0104547 0.00337709 0)
(0.0094805 0.00344586 0)
(0.00847765 0.00347504 0)
(0.00745968 0.00346247 0)
(0.00644067 0.00340501 0)
(0.0054354 0.00329849 0)
(0.00445953 0.00313788 0)
(0.00352972 0.00291759 0)
(0.00266374 0.00263218 0)
(0.00188061 0.00227755 0)
(0.00120011 0.00185283 0)
(0.000641966 0.00136293 0)
(0.000235476 0.000822046 0)
(3.75121e-05 0.000261266 0)
(3.98732e-06 -9.8703e-05 0)
(6.40597e-06 -0.000173678 0)
(-9.81721e-06 -0.000159788 0)
(-5.71712e-05 -8.24409e-05 0)
(-0.000143669 3.84952e-05 0)
(-0.000274117 0.000187087 0)
(-0.00045109 0.000350993 0)
(-0.000675509 0.000521115 0)
(-0.000947134 0.000691113 0)
(-0.00126499 0.000856943 0)
(-0.0016277 0.00101641 0)
(-0.0020338 0.0011688 0)
(-0.00248194 0.00131445 0)
(-0.00297108 0.00145452 0)
(-0.00350054 0.00159066 0)
(-0.00407016 0.00172482 0)
(-0.00468026 0.00185905 0)
(-0.00533167 0.0019954 0)
(-0.00602565 0.00213573 0)
(-0.00676392 0.00228174 0)
(-0.00754852 0.00243483 0)
(-0.00838176 0.0025961 0)
(-0.00926615 0.00276635 0)
(-0.0102043 0.00294608 0)
(-0.0111988 0.00313545 0)
(-0.0122524 0.00333438 0)
(-0.0133673 0.00354247 0)
(-0.0145458 0.00375911 0)
(-0.01579 0.00398344 0)
(-0.0171013 0.00421439 0)
(-0.0184811 0.00445069 0)
(-0.01993 0.00469086 0)
(-0.0214483 0.00493326 0)
(-0.0230355 0.00517606 0)
(-0.0246909 0.00541726 0)
(-0.0264125 0.00565467 0)
(-0.0281983 0.00588594 0)
(-0.0300448 0.00610855 0)
(-0.0319484 0.00631981 0)
(-0.0339041 0.0065169 0)
(-0.0359065 0.00669684 0)
(-0.037949 0.00685655 0)
(-0.0400243 0.00699286 0)
(-0.0421242 0.00710255 0)
(-0.0442397 0.00718236 0)
(-0.0463609 0.00722909 0)
(-0.0484774 0.00723956 0)
(-0.0505777 0.00721076 0)
(-0.0526499 0.00713983 0)
(-0.0546816 0.00702413 0)
(-0.0566598 0.0068613 0)
(-0.0585714 0.00664934 0)
(-0.0604029 0.00638662 0)
(-0.0621407 0.00607194 0)
(-0.0637713 0.00570458 0)
(-0.0652813 0.00528436 0)
(-0.0666577 0.00481163 0)
(-0.067888 0.00428734 0)
(-0.06896 0.00371301 0)
(-0.0698624 0.00309079 0)
(-0.0705847 0.00242346 0)
(-0.0711174 0.00171439 0)
(-0.0714519 0.000967563 0)
(-0.0715808 0.000187538 0)
(-0.071498 -0.000620568 0)
(-0.0711987 -0.00145113 0)
(-0.0706794 -0.00229805 0)
(-0.0699383 -0.00315479 0)
(-0.0689749 -0.00401447 0)
(-0.0677903 -0.00486991 0)
(-0.0663872 -0.00571369 0)
(-0.06477 -0.00653827 0)
(-0.0629446 -0.00733603 0)
(-0.0609186 -0.00809938 0)
(-0.0587011 -0.00882087 0)
(-0.0563027 -0.00949326 0)
(-0.0537359 -0.0101096 0)
(-0.0510141 -0.0106635 0)
(-0.0481525 -0.0111488 0)
(-0.0451673 -0.0115603 0)
(-0.042076 -0.0118934 0)
(-0.0388971 -0.0121441 0)
(-0.03565 -0.0123096 0)
(-0.0323547 -0.0123877 0)
(-0.0290319 -0.0123777 0)
(-0.0257025 -0.0122793 0)
(-0.0223876 -0.0120939 0)
(-0.0191081 -0.0118236 0)
(-0.0158846 -0.0114716 0)
(-0.0127375 -0.0110422 0)
(-0.00968584 -0.0105406 0)
(-0.00674817 -0.00997295 0)
(-0.0039416 -0.00934615 0)
(-0.00128187 -0.00866779 0)
(0.00121674 -0.00794599 0)
(0.00354179 -0.00718926 0)
(0.00568274 -0.00640637 0)
(0.00763093 -0.00560619 0)
(0.00937976 -0.00479751 0)
(0.0109247 -0.0039889 0)
(0.0122633 -0.00318855 0)
(0.0133952 -0.00240417 0)
(0.014322 -0.00164282 0)
(0.0150471 -0.000910855 0)
(0.0155758 -0.000213837 0)
(0.0159149 0.000443526 0)
(0.0160727 0.00105739 0)
(0.0160588 0.00162475 0)
(0.0158838 0.00214345 0)
(0.0155593 0.00261203 0)
(0.0150976 0.0030297 0)
(0.0145115 0.00339613 0)
(0.0138145 0.00371135 0)
(0.0130201 0.00397549 0)
(0.0121422 0.00418861 0)
(0.0111951 0.00435044 0)
(0.0101932 0.00446014 0)
(0.00915121 0.00451606 0)
(0.00808433 0.00451557 0)
(0.00700826 0.00445491 0)
(0.00593942 0.00432914 0)
(0.00489502 0.00413231 0)
(0.00389331 0.00385775 0)
(0.00295379 0.00349883 0)
(0.00209754 0.00305 0)
(0.00134695 0.0025085 0)
(0.000725239 0.0018765 0)
(0.00026785 0.00116374 0)
(4.30758e-05 0.00039301 0)
(1.28986e-06 -9.93024e-05 0)
(-1.08378e-05 -0.000156364 0)
(-5.7194e-05 -0.000111284 0)
(-0.000146198 6.20815e-06 0)
(-0.000283893 0.000172985 0)
(-0.000473905 0.000370596 0)
(-0.000717752 0.000584852 0)
(-0.00101549 0.000805337 0)
(-0.00136624 0.00102485 0)
(-0.00176855 0.00123885 0)
(-0.00222079 0.00144498 0)
(-0.00272133 0.00164259 0)
(-0.00326884 0.00183229 0)
(-0.00386234 0.00201561 0)
(-0.00450137 0.00219469 0)
(-0.00518602 0.00237199 0)
(-0.00591692 0.0025501 0)
(-0.00669525 0.00273154 0)
(-0.00752266 0.00291864 0)
(-0.00840125 0.00311348 0)
(-0.00933347 0.00331776 0)
(-0.010322 0.00353283 0)
(-0.0113698 0.00375961 0)
(-0.0124797 0.00399865 0)
(-0.0136546 0.00425009 0)
(-0.0148976 0.0045137 0)
(-0.016211 0.00478891 0)
(-0.0175975 0.00507482 0)
(-0.0190588 0.00537022 0)
(-0.0205967 0.00567364 0)
(-0.0222123 0.00598331 0)
(-0.0239061 0.00629724 0)
(-0.0256779 0.00661318 0)
(-0.0275272 0.00692865 0)
(-0.0294524 0.00724093 0)
(-0.0314511 0.0075471 0)
(-0.0335204 0.007844 0)
(-0.0356563 0.00812829 0)
(-0.0378539 0.0083964 0)
(-0.0401073 0.00864463 0)
(-0.04241 0.00886909 0)
(-0.0447541 0.00906579 0)
(-0.047131 0.00923067 0)
(-0.0495313 0.00935962 0)
(-0.0519445 0.00944855 0)
(-0.0543593 0.00949343 0)
(-0.0567638 0.00949039 0)
(-0.0591452 0.00943573 0)
(-0.0614902 0.00932603 0)
(-0.0637852 0.00915818 0)
(-0.0660159 0.00892949 0)
(-0.0681679 0.00863769 0)
(-0.0702267 0.00828104 0)
(-0.0721777 0.00785839 0)
(-0.0740067 0.00736918 0)
(-0.0756994 0.00681349 0)
(-0.0772422 0.00619213 0)
(-0.078622 0.00550658 0)
(-0.0798263 0.00475908 0)
(-0.0808434 0.00395259 0)
(-0.0816625 0.0030908 0)
(-0.0822738 0.00217812 0)
(-0.0826686 0.00121967 0)
(-0.0828395 0.000221232 0)
(-0.0827803 -0.000810765 0)
(-0.082486 -0.00186932 0)
(-0.0819533 -0.00294689 0)
(-0.08118 -0.00403544 0)
(-0.0801659 -0.00512654 0)
(-0.0789118 -0.00621143 0)
(-0.0774206 -0.00728109 0)
(-0.0756964 -0.00832634 0)
(-0.0737453 -0.00933797 0)
(-0.0715747 -0.0103067 0)
(-0.0691938 -0.0112236 0)
(-0.0666133 -0.0120798 0)
(-0.0638456 -0.0128669 0)
(-0.0609045 -0.013577 0)
(-0.0578054 -0.0142026 0)
(-0.0545649 -0.0147372 0)
(-0.0512009 -0.0151751 0)
(-0.0477326 -0.0155113 0)
(-0.0441801 -0.015742 0)
(-0.0405643 -0.0158646 0)
(-0.0369068 -0.0158776 0)
(-0.03323 -0.0157806 0)
(-0.029556 -0.0155748 0)
(-0.0259076 -0.0152625 0)
(-0.0223069 -0.0148472 0)
(-0.0187758 -0.0143339 0)
(-0.0153357 -0.0137286 0)
(-0.0120069 -0.0130384 0)
(-0.00880864 -0.0122716 0)
(-0.00575878 -0.0114372 0)
(-0.00287373 -0.010545 0)
(-0.000168106 -0.00960525 0)
(0.0023454 -0.00862874 0)
(0.00465608 -0.00762636 0)
(0.00675535 -0.006609 0)
(0.00863681 -0.00558737 0)
(0.0102963 -0.00457182 0)
(0.0117319 -0.00357214 0)
(0.0129437 -0.00259744 0)
(0.0139342 -0.00165601 0)
(0.0147075 -0.000755208 0)
(0.0152699 9.86003e-05 0)
(0.0156291 0.000900082 0)
(0.0157946 0.00164494 0)
(0.015777 0.00232988 0)
(0.0155881 0.00295253 0)
(0.0152408 0.00351132 0)
(0.0147486 0.00400532 0)
(0.0141258 0.00443407 0)
(0.0133872 0.00479732 0)
(0.0125478 0.00509482 0)
(0.0116232 0.00532597 0)
(0.0106294 0.00548963 0)
(0.00958239 0.00558377 0)
(0.00849901 0.00560528 0)
(0.00739644 0.00554979 0)
(0.00629257 0.00541162 0)
(0.00520615 0.00518385 0)
(0.004157 0.00485867 0)
(0.00316636 0.00442796 0)
(0.00225743 0.00388427 0)
(0.00145523 0.00322214 0)
(0.000786261 0.00243981 0)
(0.000291166 0.00154113 0)
(4.69157e-05 0.000539216 0)
(-1.69363e-06 -9.04031e-05 0)
(-3.01569e-05 -0.00011391 0)
(-0.000110474 -2.45161e-05 0)
(-0.00024632 0.000144222 0)
(-0.000441338 0.000366284 0)
(-0.00069768 0.000621019 0)
(-0.00101556 0.00089264 0)
(-0.00139398 0.00116966 0)
(-0.00183126 0.00144423 0)
(-0.00232539 0.00171155 0)
(-0.00287437 0.00196925 0)
(-0.00347644 0.0022169 0)
(-0.00413021 0.0024555 0)
(-0.00483485 0.0026871 0)
(-0.0055901 0.00291439 0)
(-0.00639635 0.00314041 0)
(-0.00725459 0.00336832 0)
(-0.0081664 0.00360117 0)
(-0.00913387 0.00384178 0)
(-0.0101595 0.0040926 0)
(-0.0112462 0.00435563 0)
(-0.0123971 0.00463244 0)
(-0.0136155 0.00492406 0)
(-0.0149046 0.00523103 0)
(-0.0162676 0.00555343 0)
(-0.0177077 0.00589085 0)
(-0.0192277 0.00624245 0)
(-0.02083 0.00660698 0)
(-0.0225167 0.00698282 0)
(-0.0242892 0.00736797 0)
(-0.0261487 0.00776012 0)
(-0.0280952 0.00815663 0)
(-0.0301285 0.00855454 0)
(-0.0322473 0.00895062 0)
(-0.0344495 0.00934135 0)
(-0.0367322 0.00972293 0)
(-0.0390916 0.0100913 0)
(-0.0415227 0.0104422 0)
(-0.0440198 0.0107711 0)
(-0.0465759 0.0110733 0)
(-0.0491832 0.0113439 0)
(-0.0518327 0.0115779 0)
(-0.0545146 0.0117704 0)
(-0.0572181 0.0119164 0)
(-0.0599314 0.0120108 0)
(-0.062642 0.0120488 0)
(-0.0653365 0.0120259 0)
(-0.0680011 0.0119378 0)
(-0.0706212 0.0117804 0)
(-0.073182 0.0115503 0)
(-0.0756683 0.0112446 0)