/*--------------------------------*- C++ -*----------------------------------*\
| =========                 |                                                 |
| \\      /  F ield         | OpenFOAM: The Open Source CFD Toolbox           |
|  \\    /   O peration     | Version:  2112                                  |
|   \\  /    A nd           | Website:  www.openfoam.com                      |
|    \\/     M anipulation  |                                                 |
\*---------------------------------------------------------------------------*/
FoamFile
{
    version     2.0;
    format      ascii;
    arch        "LSB;label=32;scalar=64";
    class       volScalarField;
    location    "0.004";
    object      p;
}
// * * * * * * * * * * * * * * * * * * * * * * * * * * * * * * * * * * * * * //

dimensions      [0 2 -2 0 0 0 0];

internalField   nonuniform List<scalar> 
171426
(
-0.000254562743548
-0.000228986750422
-0.000210589205928
-0.000185374419811
-0.000147693953661
-9.84850164353e-05
-3.94584331646e-05
2.75640824574e-05
0.000100594113315
0.000177571874828
0.000256440882953
0.000335203822669
0.000411945940138
0.000484804116254
0.000552520349256
0.000616338503457
0.00067110424948
0.000715801589
0.000751610106463
0.000778318271362
0.000795867944013
0.000804450599972
0.00080441399783
0.000796225518827
0.000780441503168
0.000757676401645
0.000728575439378
0.000693791706833
0.000653967743773
0.000609721479776
0.000561636227055
0.000510254327118
0.000456074056334
0.000399549097721
0.000341089204871
0.00028106557465
0.000219828860555
0.000157645500786
9.44106430507e-05
3.05387759322e-05
-0.000171780572076
-0.000138098876926
-0.000115010422052
-8.78129006679e-05
-5.08164118709e-05
-4.67843110841e-06
4.94280498183e-05
0.000110102693933
0.000175683704354
0.000244399548778
0.00031445834041
0.000384108893012
0.000451680070641
0.000515562398396
0.000574456996619
0.000628516550157
0.000674450307752
0.000712383412658
0.000742127656581
0.000763479378336
0.00077647092272
0.000781308951524
0.000778328748772
0.000767968367905
0.000750741114113
0.000727208693451
0.000697957527606
0.000663578837823
0.000624652643809
0.00058173558841
0.000535352307593
0.000485989967076
0.000434095605197
0.000380075682927
0.000324295927929
0.000267084051024
0.000208752517282
0.00014954908252
8.92782692065e-05
2.83352814482e-05
-9.42616117883e-05
-5.84679997019e-05
-3.40597106436e-05
-6.60347369003e-06
2.93268942709e-05
7.30470061426e-05
0.000123539476959
0.000179584706552
0.000239699650547
0.000302288221492
0.000365726969594
0.000428419195456
0.000488828405085
0.000545535191391
0.000597538766656
0.000644347947501
0.000683687277585
0.000715633452351
0.000739903869733
0.000756370764664
0.000765106484141
0.000766332808651
0.00076038915745
0.000747705183186
0.000728773581677
0.000704125308923
0.000674308244706
0.000639869589492
0.000601342007509
0.000559233319867
0.000514019408167
0.000466139919388
0.000415996415848
0.000363952430568
0.000310333455143
0.000255429271361
0.000199518633789
0.000142823789404
8.51076359369e-05
2.67823283553e-05
-2.19197102413e-05
1.44162413397e-05
3.83046079864e-05
6.4870682022e-05
9.94484894448e-05
0.000141148495048
0.000188905011627
0.000241528749059
0.000297602785785
0.00035561653959
0.00041404109251
0.000471375805629
0.000526172400595
0.000577184459014
0.000623948110983
0.000664176988598
0.000697816672192
0.000724410643851
0.000743667773491
0.000755538158476
0.0007601456928
0.000757750264741
0.0007487180002
0.000733491865357
0.000712564641845
0.000686455488377
0.000655690437536
0.000620786863197
0.000582241725785
0.000540523240211
0.00049606552272
0.000449265750942
0.000400483467728
0.000350041533571
0.000298226804097
0.000245292969976
0.000191486474105
0.000137003153287
8.15777467131e-05
2.55880440882e-05
4.56943597874e-05
8.3013171179e-05
0.000105965048669
0.000131219492372
0.000164356377996
0.000204286319758
0.000249843108819
0.000299804357259
0.00035275330436
0.000407202193587
0.000461658787423
0.000514667586558
0.000564819551553
0.000610893498312
0.0006526326112
0.000687628467241
0.000716123008238
0.000737696010705
0.000752138237059
0.0007594810649
0.000759919038771
0.000753771534914
0.000741450678772
0.000723430507052
0.000700219923031
0.000672340235982
0.000640307318632
0.000604618139483
0.000565741226682
0.000524110511071
0.000480121966774
0.000434132501026
0.000386460691302
0.000337388893404
0.00028716484573
0.000236005158528
0.000184121707137
0.000131680239515
7.83904059312e-05
2.45667524358e-05
0.000107335216999
0.000145938369434
0.000167691535077
0.000191401999551
0.000223132155638
0.000261610326597
0.000305543800507
0.000353632432031
0.00040440525804
0.000456340471731
0.00050792488878
0.000557687490117
0.000604206358662
0.000646240339181
0.000683725259139
0.000714379394462
0.000738307041825
0.00075525425612
0.000765130596171
0.000768064252566
0.000764339592457
0.000754355187693
0.0007385879722
0.000717560502926
0.00069181342426
0.000661883681271
0.000628288233906
0.000591512704723
0.000552004217529
0.000510167635422
0.000466364444895
0.000420913629954
0.000374094082566
0.000326148075737
0.000277283968835
0.000227680386388
0.000177512507612
0.000126913176785
7.55695008766e-05
2.37101491473e-05
0.000162527658641
0.00020259294018
0.000222954181283
0.000244991532649
0.000275421334377
0.000312805475886
0.000355708271432
0.000402717636696
0.000452262857067
0.000502737514406
0.000552552803273
0.000600163810367
0.000644159598693
0.000683511478417
0.000717253250938
0.00074416462687
0.000764072744816
0.000776790279091
0.000782355247746
0.000781010146173
0.000773146483757
0.000759260554405
0.000739912337457
0.000715689706803
0.000687179832985
0.000654947835316
0.000619522042503
0.000581384890863
0.000540968356311
0.000498652842814
0.000454768570391
0.000409598678274
0.000363383522682
0.000316325687251
0.000268593927823
0.000220328070754
0.000171664820026
0.000122701924716
7.31056302105e-05
2.30028120165e-05
0.000211148453775
0.000252767271438
0.000271567748175
0.000291852588917
0.000321122519872
0.000357784150643
0.000400245748128
0.000446954800856
0.0004962004161
0.000546244146454
0.000595373227049
0.000641924786695
0.000684485714734
0.000722439874905
0.000752999622919
0.000776716100412
0.000793096581144
0.000801956211497
0.00080345279801
0.000797954314252
0.000785976909001
0.00076813323992
0.00074508411135
0.000717498651221
0.00068602419552
0.000651265279638
0.000613770564977
0.000574026226855
0.00053245427024
0.000489414364905
0.000445208011748
0.000400084112687
0.000354245349238
0.000307854877331
0.000261041620552
0.000213905917105
0.000166544608126
0.000119018717837
7.09748595677e-05
2.2427586769e-05
0.000253171571669
0.000296340456463
0.00031339212437
0.000331853906016
0.000360111559552
0.000396421237878
0.000439021705103
0.000486193664652
0.000536047992534
0.000586667034964
0.000636163429748
0.000682704976028
0.000724720217419
0.000761551072007
0.000790329887838
0.000811628079552
0.000824996648877
0.000830367722513
0.000828032231198
0.000818502403356
0.000802439769119
0.000780592599176
0.00075373981972
0.000722646721624
0.000688033117326
0.000650552754577
0.000610782170617
0.000569216911294
0.000526273085799
0.000482292477075
0.000437549767564
0.000392260802294
0.000346591220051
0.000300664954866
0.000254570963988
0.000208369652547
0.000162117094207
0.000115836589551
6.91563543419e-05
2.1971696643e-05
0.000288673438935
0.000333307281062
0.00034839725709
0.00036495924751
0.000392342809462
0.00042865452319
0.000471950017557
0.000520318612165
0.000571657430612
0.000623824864334
0.000674708231129
0.00072224995689
0.000764642371468
0.00080112635873
0.000829000364156
0.000848510769206
0.000859348051148
0.000861575864816
0.000855630287627
0.000842187274983
0.000822073756411
0.000796192053166
0.000765455321695
0.000730738379858
0.000692844109992
0.000652483546886
0.00061026704896
0.000566703775613
0.000522206882579
0.000477102250822
0.000431639044659
0.000386000871687
0.000340316809179
0.00029467180518
0.00024911490162
0.000203666457098
0.000158341399011
0.000113124927007
6.76282413908e-05
2.16233883591e-05
0.000317851936212
0.000363798974362
0.000376700101961
0.000391278690091
0.000417907589687
0.000454543540167
0.000499046830328
0.000549293578311
0.000602935037275
0.000657564393049
0.000710796335711
0.00076029184894
0.000803946408737
0.000840991122132
0.000868586315354
0.000886876503585
0.000895622931018
0.000895023942361
0.000885676147921
0.000868437909032
0.000844319993736
0.000814395492623
0.000779725870815
0.000741306622721
0.000700032088228
0.000656676619897
0.000611888563631
0.000566193476557
0.000520003380808
0.000473629441745
0.000427296100993
0.000381155298027
0.000335299993737
0.000289776526716
0.000244594359778
0.000199734104492
0.000155169732114
0.000110848580138
6.6366363457e-05
2.13705169608e-05
0.000341039821123
0.000388095612623
0.000398585675399
0.000411098727794
0.000437069643815
0.000474306140808
0.000520464377765
0.000573189992971
0.000629861118318
0.000687768207387
0.000744208707915
0.000796501791765
0.000842173775326
0.000880613540945
0.000908586311821
0.00092611390286
0.000933155866019
0.000930017249155
0.00091746590602
0.000896558586895
0.000868505806573
0.000834565337814
0.000795957998184
0.000753808123228
0.000709107168436
0.00066269648583
0.000615264666574
0.000567354990852
0.00051937913112
0.000471634062559
0.000424319956206
0.00037755756862
0.000331404311124
0.000285868571288
0.00024092097309
0.000196503184739
0.000152549037802
0.000108968879035
6.53445725038e-05
2.12002165328e-05
0.00035871428891
0.000406638325035
0.000414526671781
0.00042490893107
0.000450296214824
0.000488350841431
0.000536521550318
0.00059221321071
0.000652511499082
0.000714371919083
0.000774725158488
0.000830500175699
0.000878907019732
0.000919321139383
0.000948170638359
0.000965428265701
0.000971117258803
0.000965702523773
0.000950145575703
0.000925715849365
0.000893835702672
0.00085595715168
0.000813467175061
0.000767623303719
0.000719516537506
0.000670056323179
0.000619971804736
0.000569823943161
0.000520023981019
0.000470854779198
0.000422492568489
0.000375027535781
0.000328482422085
0.000282828767021
0.000237999631379
0.000193899145567
0.000150422509977
0.000107444613783
6.45351556884e-05
2.10988543314e-05
0.0003714958588
0.000420032115017
0.000425191663385
0.000433415174476
0.000458274947466
0.000497295371812
0.000547721593718
0.000606716856168
0.000671067640848
0.000737371976894
0.000802141716423
0.000862009454476
0.000914133839952
0.000956511243738
0.000986560034813
0.00100389669865
0.00100851391315
0.00100106152514
0.000982707032419
0.000954938219004
0.000919394378798
0.000877725134728
0.000831485011867
0.000782064549701
0.000730653114905
0.000678226648772
0.000625553283644
0.000573210446612
0.000521608261774
0.000471015377313
0.000421584559196
0.000373376407558
0.000326380392271
0.00028053292267
0.000235731439173
0.000191844637118
0.00014873135038
0.000106233236854
6.39095181513e-05
2.10522436615e-05
0.000380131320805
0.000429032150089
0.000431433595291
0.000437530728869
0.000461908043288
0.000501963522805
0.000554749990706
0.000617197313333
0.000685796934554
0.000756792611152
0.000826286606471
0.000890648278387
0.000947360762823
0.000991386510583
0.00102277595771
0.00104039665693
0.00104417071182
0.00103491623068
0.00101400211521
0.000983134036689
0.000944166156441
0.000898941929762
0.000849178605516
0.000796394527696
0.00074187246865
0.000686650623375
0.000631532883366
0.000577111045047
0.000523793137322
0.000471833636692
0.000421362749804
0.000372413087466
0.000324942968165
0.000278856160019
0.000234017209113
0.000190262254941
0.000147416835122
0.000105292317842
6.34391032479e-05
2.1046057535e-05
0.000385457773766
0.000434508839623
0.000434252459213
0.000438338283112
0.00046227665113
0.00050335453859
0.000558451187374
0.000624281135496
0.000697057004618
0.000772685141918
0.000846884993677
0.000915675147345
0.00097639957693
0.00102274520771
0.00105562638523
0.00107365819228
0.00107678661766
0.00106597582759
0.00104278621146
0.00100913294423
0.000967074003335
0.00091863464893
0.000865683160236
0.000809855191097
0.000752518196609
0.000694765955964
0.000637433540307
0.00058112448787
0.000526243811638
0.000473032307391
0.000421599222096
0.000371951602434
0.000324019619909
0.000277677781428
0.000232761328575
0.00018907754838
0.000146422578855
0.00010458115633
6.30964612615e-05
2.10663703479e-05
0.000388347469196
0.000437389774943
0.000434728813023
0.000437018446933
0.000460569974969
0.00050257811137
0.000559774280208
0.000628685829245
0.000705277258446
0.000785149781003
0.000863676497279
0.000936493914517
0.00100054054408
0.00104947716275
0.00108385849052
0.00110236081542
0.00110501341002
0.00109291059299
0.0010677878122
0.00103175016393
0.000987037787743
0.00093583666054
0.000880147213299
0.000821706658489
0.000761954894661
0.000702032535866
0.000642800280156
0.00058487060675
0.000528644959792
0.00047435165032
0.000422081456183
0.000371819256073
0.000323471059893
0.00027688644153
0.000231875817699
0.000188222151461
0.000145696883744
0.000104062462914
6.28563894008e-05
2.1100269321e-05
0.000389636974271
0.000438581106666
0.000433930265705
0.000434746380895
0.000457980028918
0.000500754963268
0.000559686552795
0.000631152531106
0.000710915102219
0.000794322075936
0.000876454422993
0.000952609769815
0.00101931756304
0.00107057968836
0.00110628402874
0.0011252366921
0.00112755637474
0.00111444991936
0.00108780023015
0.00104986984331
0.00100304820996
0.000949651815329
0.000891787444446
0.000831273285749
0.000769606394295
0.000707963831701
0.000647225774216
0.000588010965751
0.000530717314487
0.000475562693909
0.000422622880315
0.000371864989555
0.000323175837966
0.000276385317688
0.000231284346167
0.000187636859294
0.000145195038856
0.000103704006602
6.26970628586e-05
2.11364802977e-05
0.000390048413898
0.00043887654891
0.000432800385762
0.000432566813664
0.000455572305278
0.00049889260735
0.000559063322664
0.000632357923811
0.000714395537546
0.000800342254201
0.000885066739025
0.000963624930987
0.00103228676356
0.00108520510192
0.00112188122644
0.00114118308498
0.00114329115221
0.00112949574654
0.00110178662206
0.00106253912158
0.00101424887909
0.000959324545056
0.000899947495617
0.000837992303458
0.000774995494763
0.000712159025355
0.000650376116365
0.000590269402215
0.000532233947375
0.000476480083536
0.000423072974788
0.000371967299471
0.000323036522513
0.000276096910662
0.000230925933186
0.000187274444532
0.000144881417266
0.000103480116742
6.26010729301e-05
2.11659521969e-05
0.000390113988986
0.000438867392581
0.000432046729274
0.000431266508263
0.000454152356638
0.00049775584553
0.00055857200375
0.000632820803053
0.000716047263805
0.000803322572733
0.000889403626395
0.0009692205619
0.00103891802221
0.0010926967441
0.00112988640682
0.00114937782754
0.0011513828442
0.0011372362006
0.0011089837944
0.00106905988468
0.00102001531891
0.000964306465986
0.000904153154829
0.000841458892805
0.000777780354888
0.00071433211415
0.000652013917202
0.00059145024075
0.000533034564317
0.000476973257828
0.000423325982058
0.00037204100618
0.00032298494307
0.000275967087721
0.000230758044537
0.0001871020034
0.000144731217407
0.00010337292892
6.25562916743e-05
2.11823505592e-05
0.000390116294794
0.000438869693023
0.000432049013464
0.000431268792222
0.00045415465909
0.000497758181459
0.0005585743849
0.000632823237956
0.000716049757516
0.000803325126567
0.000889406237303
0.000969223224343
0.00103892074066
0.00109269948925
0.00112988916689
0.00114938058848
0.00115138558677
0.00113723890626
0.00110898644604
0.00106906246735
0.00102001782013
0.00096430887557
0.000904155464562
0.000841461096017
0.000777782446081
0.000714334088666
0.000652015770988
0.000591451970187
0.000533036166135
0.000476974729027
0.000423327319884
0.000372042208109
0.000322986006839
0.000275968011327
0.000230758826243
0.000187102641794
0.00014473171146
0.000103373277294
6.25564925349e-05
2.1182414357e-05
0.0003900553254
0.000438883445908
0.000432807236321
0.000432573664982
0.000455579212407
0.000498899614105
0.000559070462988
0.000632365221813
0.000714403006724
0.000800349896904
0.00088507454517
0.000963632884732
0.00103229488106
0.00108521329676
0.00112188946962
0.00114119133189
0.00114329934732
0.0011295038339
0.00110179454996
0.00106254684495
0.00101425636027
0.00095933175339
0.000899954406336
0.000837998896435
0.000775001753368
0.000712164935481
0.000650381665723
0.000590274579844
0.000532238743328
0.000476484488716
0.000423076980842
0.000371970898772
0.000323039708207
0.000276099676678
0.000230928274279
0.000187276356429
0.000144882896868
0.000103481160019
6.26016743478e-05
2.1166143065e-05
0.000389648472135
0.000438592585612
0.000433941674644
0.000434757795701
0.000457991537701
0.000500766635311
0.000559698440446
0.000631164669559
0.000710927508273
0.00079433474775
0.000876467339981
0.000952622907922
0.00101933095964
0.00107059320889
0.00110629763711
0.00112525031838
0.00112756992634
0.00111446330148
0.00108781335513
0.00104988263506
0.00100306060512
0.000949663762372
0.00089179890173
0.000831284219359
0.000769616776093
0.000707973637759
0.000647234983639
0.000588019559879
0.000530725276388
0.000475570008091
0.000422629532583
0.000371870966968
0.000323181128887
0.000276389911838
0.000231288234675
0.000187640034934
0.000145197496407
0.000103705739294
6.26980613612e-05
2.11367966724e-05
0.000388363518616
0.000437405807951
0.000434744762316
0.00043703441316
0.000460586074248
0.000502594433222
0.000559790889317
0.000628702764353
0.000705294530276
0.000785167372843
0.000863694369325
0.000936512035689
0.00100055899206
0.00104949578135
0.00108387725829
0.00110237964128
0.00110503216043
0.00109292912925
0.00106780600695
0.00103176790784
0.000987054990612
0.000935853249307
0.00088016312895
0.000821721852833
0.000761969327538
0.000702046172971
0.000642813091425
0.00058488256529
0.000528656041196
0.000474361832262
0.000422090718234
0.000371827579646
0.0003234784283
0.000276892840067
0.000231881233692
0.000188226574591
0.000145700306574
0.000104064875881
6.2857779225e-05
2.11007086471e-05
0.00038547832096
0.000434529380913
0.000434272914796
0.000438358773609
0.000462297314424
0.000503375477937
0.000558472472041
0.000624302797354
0.000697079033609
0.000772707486792
0.000846907574433
0.000915697921154
0.000976422708975
0.00102276856328
0.00105565000626
0.00107368196586
0.00107681035426
0.00106599933157
0.00104280930785
0.00100915548646
0.000967095872532
0.000918655749691
0.000865703415652
0.000809874538198
0.000752536582642
0.000694783335608
0.000637449873684
0.000581139739216
0.000526257948467
0.000473045300012
0.000421611043365
0.000371962227709
0.000324029027115
0.000277685951159
0.000232768244154
0.000189083196237
0.000146426949213
0.0001045842368
6.30982344316e-05
2.10669291634e-05
0.000380156289098
0.000429057131021
0.000431458500708
0.000437555694298
0.000461933221798
0.000501989024679
0.000554775881554
0.000617223605954
0.000685823577744
0.000756819485121
0.000826313544249
0.000890675207181
0.000947388056268
0.000991414071922
0.00102280401607
0.00104042506408
0.00104419918176
0.00103494448372
0.00101402991521
0.000983161194264
0.000944192522171
0.000898967385342
0.000849203055885
0.000796417894781
0.00074189468665
0.000686671635383
0.000631552639053
0.000577129499135
0.00052381024862
0.000471849367548
0.000421377065871
0.000372425957612
0.000324954364565
0.000278866058291
0.000234025588341
0.000190269098166
0.000147422130144
0.000105296049386
6.34412495969e-05
2.10467315585e-05
0.000371525144658
0.000420061439241
0.000425220933876
0.000433444537002
0.000458304564375
0.000497325354903
0.00054775199864
0.000606747666317
0.000671098741648
0.000737403130611
0.000802172581541
0.000862039835189
0.000914164457715
0.000956542276565
0.000986592035713
0.00100392940146
0.00100854685424
0.00100109429717
0.000982739321934
0.000954969789553
0.000919425050054
0.000877754766046
0.00083151349049
0.000782091782586
0.000730679023022
0.000678251163253
0.000625576343201
0.000573231995889
0.000521628250317
0.000471033759006
0.000421601291981
0.000373391453402
0.000326393717293
0.000280544497241
0.00023574123797
0.000191852639663
0.00014873754198
0.000106237599367
6.39120254094e-05
2.1053027919e-05
0.000358747758428
0.000406671864428
0.000414560189489
0.000424942579425
0.000450330161141
0.000488385196339
0.00053655635854
0.000592248425725
0.000652546935428
0.000714407185203
0.000774759623495
0.00083053313503
0.000878938985837
0.000919354741153
0.000948206187713
0.000965465014815
0.000971154455142
0.000965739600682
0.000950182139323
0.000925751620344
0.000893870473919
0.000855990762966
0.000813499497513
0.000767654230088
0.000719545975793
0.000670084192468
0.000619998032506
0.000569848463603
0.000520046734001
0.00047087570971
0.000422511626404
0.000375044675862
0.000328497604115
0.000282841955961
0.000238010797373
0.000193908264552
0.000150429564764
0.000107449583427
6.45380095101e-05
2.10997432507e-05
0.000341077307048
0.000388133204038
0.000398623285695
0.000411136513461
0.000437107774778
0.000474344727268
0.000520503460175
0.000573229513375
0.000629900861157
0.000687807694584
0.000744247049915
0.000796537654128
0.000842206703972
0.000880650001707
0.000908625612051
0.000926154736203
0.000933197212813
0.000930058452805
0.00091750653537
0.000896598341111
0.000868544462335
0.000834602720585
0.000795993965733
0.000753842555506
0.000709139961155
0.000662727546297
0.000615293911049
0.00056738234293
0.000519404520787
0.000471657425695
0.000424341234413
0.000377576709254
0.000331421267524
0.000285883302899
0.000240933445506
0.00019651337034
0.000152556916993
0.00010897442823
6.53477565282e-05
2.12012040687e-05
0.000317893235649
0.000363840417391
0.000376741611078
0.000391320424649
0.000417949721232
0.000454586180784
0.000499090026002
0.000549337288214
0.000602979093829
0.000657608444301
0.000710839799666
0.000760334033781
0.00080398738517
0.000841033832578
0.000868630646538
0.000886921714606
0.000895668381825
0.000895069106635
0.000885720633993
0.000868481424009
0.000844362310567
0.000814436428471
0.000779765273228
0.000741344360631
0.000700068046073
0.000656710693784
0.00061192065892
0.000566223506412
0.000520031265384
0.000473655107814
0.00042731948187
0.000381176333673
0.000335318631044
0.000289792719668
0.000244608069507
0.000199745299978
0.00015517839154
0.000110854677562
6.63698593915e-05
2.13715967219e-05
0.000288718311826
0.000333352336734
0.00034844243098
0.000365004701409
0.000392388715796
0.00042870099672
0.000471997113427
0.000520366315469
0.000571705638049
0.000623873366988
0.000674756722533
0.000722298125229
0.000764690243735
0.000801174925453
0.000829049410387
0.000848560160857
0.000859397409806
0.000861624776702
0.000855678404778
0.000842234319548
0.000822119503443
0.000796236315562
0.00076549793946
0.000730779212657
0.000692883032188
0.000652520444207
0.000610301816462
0.000566736316468
0.000522237107443
0.00047713007763
0.000431664398658
0.000386023685637
0.000340337023678
0.000294689368928
0.000249129771503
0.000203678598997
0.000158350789234
0.000113131537713
6.76320291225e-05
2.16245536955e-05
0.000253219740179
0.000296388847137
0.000313440689261
0.00033190280963
0.000360160974454
0.000396471280327
0.000439072436913
0.000486245089968
0.000536100051891
0.000586719604147
0.000636216331582
0.000682758009074
0.000724773256778
0.000761604342293
0.00079038289148
0.000811681244308
0.000825049644841
0.0008304201428
0.000828083742757
0.000818552739785
0.00080248870979
0.000780639955453
0.000753785426227
0.00072269043041
0.000688074793902
0.000650592275307
0.000610819421059
0.000569251785326
0.000526305485196
0.000482322311447
0.000437576954538
0.000392285267802
0.000346612898727
0.000300683790412
0.000254586909418
0.000208382671093
0.000162127160865
0.000115843675189
6.91604121147e-05
2.19729407414e-05
0.000211199603013
0.000252818682183
0.000271619392912
0.000291904635956
0.000321175141353
0.000357837462285
0.000400299813679
0.000447009632987
0.000496255976126
0.000546300347997
0.000595429942965
0.000641981846633
0.000684542936175
0.000722497213984
0.000753055969854
0.000776772813432
0.00079315301901
0.000802011920123
0.000803507468412
0.000798007701667
0.000786028802822
0.000768183453076
0.000745132475016
0.00071754501124
0.000686068409747
0.000651307216117
0.000613810100761
0.00057406324744
0.000532488669362
0.000489446044626
0.000445236882729
0.000400110094566
0.000354268371146
0.000307874878399
0.000261058550418
0.000213919737011
0.000166555292497
0.000119026237094
7.09791642313e-05
2.24289027807e-05
0.000162581439325
0.000202647022362
0.000223008562059
0.000245046385992
0.000275476831778
0.000312861730499
0.000355765344453
0.000402775540757
0.000452321558817
0.000502796940854
0.000552612851986
0.000600224362754
0.000644220622888
0.000683573442005
0.000717315417809
0.000744225491256
0.000764132581168
0.000776849069917
0.000782412835459
0.000781066338149
0.000773201086666
0.000759313384756
0.000739963223975
0.000715738490016
0.000687226364051
0.000654991974982
0.000619563660397
0.000581423865181
0.000541004573796
0.000498686198944
0.00045479896972
0.000409626034865
0.000363407760726
0.000316346741854
0.000268611745886
0.000220342612349
0.000171676059985
0.000122709834001
7.31101576701e-05
2.30041932563e-05
0.000107391251821
0.000145994747972
0.000167748283432
0.000191459299766
0.000223190178555
0.000261669180973
0.000305603541383
0.000353693065944
0.000404466746877
0.000456402739117
0.000507987831518
0.000557750991915
0.000604270273107
0.00064630450308
0.000683789794756
0.000714443089049
0.000738369700337
0.000755315776447
0.000765190818218
0.000768122990702
0.000764396657158
0.000754410394902
0.000738641147096
0.000717611480786
0.000691862050165
0.000661929809585
0.000628331727935
0.000591553436553
0.000552042068115
0.000510202494835
0.000466396212629
0.00042094221538
0.00037411940564
0.0003261700682
0.000277302575605
0.000227695567357
0.000177524239053
0.000126921431311
7.55742268065e-05
2.37115894891e-05
4.57522570022e-05
8.30714588079e-05
0.000106023785621
0.000131278870975
0.000164416568325
0.000204347424518
0.000249905174292
0.000299867380282
0.000352817237086
0.000407266949646
0.00046172425117
0.000514733621549
0.000564885971606
0.000610960049586
0.000652699365524
0.00068769452665
0.000716188095619
0.000737759942058
0.000752200816153
0.000759542093206
0.000759978320889
0.000753828881989
0.000741505910818
0.000723483453765
0.000700270423782
0.000672388139568
0.000640352483109
0.000604660432101
0.000565780523979
0.000524146699084
0.000480154941235
0.000434162167718
0.000386486966865
0.000337411707018
0.000287184141197
0.000236020896512
0.000184133866332
0.000131688795142
7.83953070095e-05
2.45682470086e-05
-2.18603327643e-05
1.44760615955e-05
3.83649647432e-05
6.49317790635e-05
9.95104954904e-05
0.000141211505297
0.000188969062032
0.000241593825048
0.000297668827659
0.000355683448519
0.000414108738198
0.000471444030385
0.000526240997592
0.000577253189104
0.000624017008732
0.000664245193809
0.000697883912886
0.000724476710989
0.000743732448058
0.000755601227583
0.000760206951883
0.00075780951783
0.000748775060914
0.000733546557443
0.000712616799193
0.000686504954902
0.000655737067101
0.000620830519546
0.000582282282571
0.000540560581047
0.000496099541173
0.000449296350643
0.000400510563262
0.00035006505258
0.000298246690144
0.000245309185236
0.000191499000211
0.000137011968552
8.15828019753e-05
2.55895899459e-05
-9.42010914405e-05
-5.84069858366e-05
-3.39980733986e-05
-6.54099717117e-06
2.93903771508e-05
7.31115826869e-05
0.000123605172864
0.0001796514962
0.00023976746265
0.000302356945028
0.000365796460838
0.00042848928229
0.000488898876197
0.000545605852436
0.00059760982455
0.000644418118834
0.000683756425713
0.000715701391376
0.000739970379059
0.000756435621162
0.000765169473656
0.000766393727252
0.00076044781176
0.00074776139083
0.000728827171313
0.00070417612028
0.000674356128454
0.000639914407232
0.000601383631597
0.000559271633275
0.000514054304091
0.0004661713011
0.000416024197417
0.000363976539379
0.000310353835304
0.000255445886858
0.000199531469044
0.000142832825469
8.51128261024e-05
2.67839236017e-05
-0.000171719122213
-0.000138036896205
-0.000114947745645
-8.77493034812e-05
-5.07517281172e-05
-4.61257875897e-06
4.94950898116e-05
0.000110170888624
0.000175752974382
0.000244469773974
0.000314529366068
0.000384180535533
0.000451752109079
0.000515634514201
0.000574528817713
0.000628588262195
0.000674521140731
0.000712453005329
0.000742195784947
0.000763545811479
0.00077653543652
0.000781371333402
0.000778388797841
0.000768025895279
0.000750795943344
0.000727260660518
0.00069800648102
0.00066362463838
0.000624695164454
0.000581774713603
0.000535387932669
0.000486021997418
0.000434123956796
0.000380100284621
0.000324316725096
0.000267101008921
0.000208765621351
0.000149558314127
8.92835842639e-05
2.83369285483e-05
-0.000254500306124
-0.000228923745511
-0.000210525448251
-0.00018530970017
-0.00014762811068
-9.84179683693e-05
-3.9390159204e-05
2.76335503364e-05
0.000100664696356
0.000177643453367
0.000256513303856
0.000335276905225
0.000412019469163
0.000484877804535
0.000552593861459
0.000616411905585
0.000671176596622
0.000715872677351
0.000751679719511
0.000778386162642
0.000795933874897
0.000804514344311
0.0008044753426
0.000796284265187
0.000780497467015
0.000757729414084
0.000728625346727
0.000693838370698
0.000654011040517
0.000609761299823
0.000561672473239
0.000510286913199
0.000456102905875
0.000399574145136
0.000341110397623
0.000281082876368
0.000219842250231
0.000157654949849
9.44161130423e-05
3.05405021997e-05
-0.000171782849292
-0.000138101183487
-0.000115012713997
-8.78151464048e-05
-5.08185906605e-05
-4.68052822619e-06
4.94260440361e-05
0.000110100784664
0.000175681893331
0.000244397835709
0.0003144567226
0.000384107366772
0.000451678629002
0.000515560999529
0.000574455607091
0.000628515654511
0.000674449538292
0.0007123827228
0.000742127063516
0.000763478878579
0.000776470507212
0.000781308611202
0.000778328474403
0.000767968150818
0.00075074094589
0.000727208566491
0.000697957434716
0.000663578772743
0.000624652600791
0.000581735562807