/*--------------------------------*- C++ -*----------------------------------*\
| =========                 |                                                 |
| \\      /  F ield         | OpenFOAM: The Open Source CFD Toolbox           |
|  \\    /   O peration     | Version:  2112                                  |
|   \\  /    A nd           | Website:  www.openfoam.com                      |
|    \\/     M anipulation  |                                                 |
\*---------------------------------------------------------------------------*/
FoamFile
{
    version     2.0;
    format      ascii;
    arch        "LSB;label=32;scalar=64";
    class       volScalarField;
    location    "22";
    object      p;
}
// * * * * * * * * * * * * * * * * * * * * * * * * * * * * * * * * * * * * * //

dimensions      [0 2 -2 0 0 0 0];

internalField   nonuniform List<scalar> 
16641
(
-1.72562e-08
1.01896e-05
1.84992e-05
2.20806e-05
1.85511e-05
6.81613e-06
-1.33258e-05
-4.16207e-05
-7.75963e-05
-0.000120682
-0.000170289
-0.000225856
-0.000286872
-0.000352897
-0.000423575
-0.000498622
-0.000577836
-0.000661086
-0.000748308
-0.000839492
-0.000934674
-0.00103392
-0.00113733
-0.00124501
-0.00135706
-0.00147356
-0.0015946
-0.0017202
-0.00185037
-0.00198506
-0.00212415
-0.00226747
-0.00241479
-0.00256576
-0.00272
-0.00287701
-0.00303619
-0.00319687
-0.00335827
-0.0035195
-0.00367957
-0.0038374
-0.00399181
-0.0041415
-0.00428511
-0.00442121
-0.00454829
-0.00466477
-0.00476909
-0.00485962
-0.00493478
-0.00499302
-0.00503283
-0.00505283
-0.00505173
-0.00502843
-0.00498198
-0.00491169
-0.00481709
-0.00469801
-0.0045546
-0.00438731
-0.00419697
-0.00398478
-0.00375229
-0.00350147
-0.00323467
-0.00295433
-0.00266374
-0.00236616
-0.00206516
-0.00176457
-0.00146839
-0.00118072
-0.000905704
-0.00064746
-0.000409989
-0.000197104
-1.23519e-05
0.000141064
0.000260358
0.000343226
0.000387899
0.000393191
0.000358531
0.000283978
0.000170224
1.858e-05
-0.000169055
-0.000390238
-0.000642045
-0.000921125
-0.00122381
-0.00154617
-0.00188414
-0.00223357
-0.00259035
-0.00295048
-0.00331014
-0.00366578
-0.00401415
-0.00435235
-0.00467788
-0.00498863
-0.00528288
-0.00555935
-0.00581711
-0.00605558
-0.00627454
-0.00647401
-0.00665429
-0.00681584
-0.00695931
-0.00708542
-0.00719495
-0.00728873
-0.00736752
-0.00743205
-0.00748298
-0.00752089
-0.00754627
-0.00755961
-0.00756149
-0.00755269
-0.00753451
-0.00750915
-0.0074803
-0.00745338
-0.00743681
-1.06473e-05
-3.52675e-07
5.35055e-06
5.85378e-06
2.02647e-07
-1.24681e-05
-3.24596e-05
-5.96957e-05
-9.38944e-05
-0.000134663
-0.000181563
-0.000234151
-0.000292004
-0.000354757
-0.000422095
-0.000493759
-0.000569572
-0.000649406
-0.00073319
-0.000820902
-0.000912563
-0.00100822
-0.00110795
-0.00121184
-0.00131997
-0.00143241
-0.00154922
-0.00167043
-0.00179603
-0.00192598
-0.00206016
-0.00219843
-0.00234055
-0.00248622
-0.00263507
-0.00278664
-0.00294038
-0.00309567
-0.00325176
-0.00340783
-0.00356296
-0.00371612
-0.00386619
-0.00401197
-0.00415215
-0.00428538
-0.0044102
-0.00452514
-0.00462868
-0.00471927
-0.00479539
-0.00485553
-0.00489826
-0.0049222
-0.00492612
-0.00490892
-0.00486968
-0.00480769
-0.00472248
-0.00461386
-0.00448191
-0.00432705
-0.00415004
-0.00395199
-0.00373437
-0.00349904
-0.00324813
-0.00298431
-0.00271034
-0.00242945
-0.00214508
-0.0018609
-0.00158075
-0.00130856
-0.00104831
-0.000803963
-0.000579353
-0.00037815
-0.000203761
-5.92615e-05
5.26731e-05
0.000129833
0.000170524
0.000173614
0.000138561
6.5432e-05
-4.51019e-05
-0.000191775
-0.000372758
-0.000585703
-0.000827802
-0.00109585
-0.00138634
-0.00169552
-0.00201949
-0.00235433
-0.00269612
-0.00304105
-0.00338552
-0.00372616
-0.00405989
-0.00438399
-0.00469609
-0.0049942
-0.00527672
-0.00554242
-0.00579044
-0.00602023
-0.00623157
-0.00642447
-0.00659919
-0.00675617
-0.00689599
-0.00701932
-0.0071269
-0.0072195
-0.00729786
-0.00736271
-0.00741473
-0.00745454
-0.00748275
-0.00749998
-0.00750693
-0.0075045
-0.00749397
-0.00747724
-0.00745709
-0.00743691
-0.00742025
-1.9417e-05
-6.36352e-06
-6.23019e-07
-1.09254e-06
-7.57419e-06
-2.06404e-05
-4.05141e-05
-6.71189e-05
-0.000100223
-0.00013951
-0.000184608
-0.000235136
-0.000290735
-0.000351074
-0.000415871
-0.000484905
-0.000558
-0.00063504
-0.000715961
-0.00080074
-0.000889392
-0.000981967
-0.00107853
-0.00117915
-0.00128392
-0.00139291
-0.00150617
-0.00162374
-0.0017456
-0.00187174
-0.00200205
-0.00213639
-0.00227456
-0.00241629
-0.00256123
-0.00270897
-0.002859
-0.00301072
-0.00316345
-0.00331641
-0.00346872
-0.00361942
-0.00376743
-0.00391159
-0.00405067
-0.00418332
-0.00430818
-0.00442378
-0.00452863
-0.00462123
-0.00470007
-0.00476366
-0.00481057
-0.00483942
-0.00484898
-0.00483812
-0.00480589
-0.00475157
-0.00467462
-0.00457481
-0.00445217
-0.00430706
-0.00414016
-0.00395251
-0.00374552
-0.00352096
-0.00328081
-0.00302773
-0.00276443
-0.00249402
-0.00221985
-0.00194551
-0.00167477
-0.00141149
-0.00115959
-0.000922939
-0.000705341
-0.000510406
-0.000341494
-0.000201641
-9.34893e-05
-1.92212e-05
1.94905e-05
2.15267e-05
-1.36469e-05
-8.59654e-05
-0.000194763
-0.000338789
-0.000516237
-0.00072479
-0.000961676
-0.00122374
-0.00150753
-0.00180935
-0.0021254
-0.00245182
-0.00278477
-0.00312055
-0.00345566
-0.00378682
-0.00411106
-0.00442576
-0.00472865
-0.00501783
-0.00529179
-0.00554938
-0.00578978
-0.00601253
-0.00621741
-0.0064045
-0.00657406
-0.00672654
-0.00686253
-0.00698268
-0.00708774
-0.00717847
-0.00725562
-0.00731991
-0.00737205
-0.00741269
-0.00744245
-0.00746197
-0.00747193
-0.00747315
-0.00746666
-0.00745393
-0.00743695
-0.0074168
-0.00739319
-2.33557e-05
-7.13734e-06
-4.74734e-07
-1.04042e-06
-7.79748e-06
-2.10432e-05
-4.08554e-05
-6.70834e-05
-9.94843e-05
-0.00013775
-0.000181537
-0.0002305
-0.000284309
-0.000342663
-0.00040531
-0.000472042
-0.000542705
-0.000617196
-0.00069546
-0.000777482
-0.000863287
-0.000952926
-0.00104647
-0.001144
-0.0012456
-0.00135136
-0.00146135
-0.00157559
-0.00169413
-0.00181692
-0.00194391
-0.00207497
-0.00220995
-0.0023486
-0.00249061
-0.0026356
-0.00278311
-0.0029326
-0.00308341
-0.00323483
-0.00338601
-0.00353602
-0.00368386
-0.00382838
-0.00396838
-0.00410255
-0.00422954
-0.00434791
-0.00445616
-0.0045528
-0.0046363
-0.00470515
-0.0047579
-0.00479313
-0.00480957
-0.00480604
-0.00478155
-0.00473528
-0.00466667
-0.00457538
-0.00446141
-0.00432502
-0.00416683
-0.00398781
-0.0037893
-0.00357301
-0.00334087
-0.00309544
-0.00283943
-0.00257589
-0.00230814
-0.00203973
-0.00177441
-0.00151603
-0.00126848
-0.00103566
-0.000821352
-0.000629181
-0.00046252
-0.00032442
-0.00021754
-0.000144079
-0.000105729
-0.000103623
-0.000138309
-0.000209732
-0.000317233
-0.000459563
-0.000634915
-0.000840967
-0.00107494
-0.00133368
-0.00161372
-0.00191138
-0.00222284
-0.00254425
-0.0028718
-0.00320181
-0.00353081
-0.00385556
-0.00417315
-0.00448101
-0.00477694
-0.00505913
-0.00532611
-0.00557683
-0.00581055
-0.00602686
-0.00622562
-0.00640696
-0.00657121
-0.00671885
-0.0068505
-0.00696687
-0.00706872
-0.00715683
-0.00723198
-0.00729492
-0.00734634
-0.00738691
-0.00741725
-0.00743792
-0.00744954
-0.00745271
-0.00744814
-0.00743683
-0.00742007
-0.007397
-0.00736449
-1.99859e-05
-1.64923e-06
5.67245e-06
5.04216e-06
-1.96688e-06
-1.54366e-05
-3.53094e-05
-6.13547e-05
-9.32891e-05
-0.000130795
-0.00017354
-0.000221194
-0.000273446
-0.000330021
-0.000390684
-0.000455251
-0.000523585
-0.000595601
-0.000671257
-0.000750554
-0.000833531
-0.000920253
-0.0010108
-0.00110528
-0.00120379
-0.00130643
-0.00141328
-0.00152443
-0.00163989
-0.0017597
-0.0018838
-0.00201214
-0.00214456
-0.00228087
-0.00242082
-0.00256407
-0.00271021
-0.00285872
-0.00300903
-0.00316044
-0.00331216
-0.00346331
-0.00361288
-0.00375978
-0.00390282
-0.0040407
-0.00417206
-0.00429545
-0.00440938
-0.00451229
-0.00460263
-0.00467884
-0.00473941
-0.00478287
-0.00480786
-0.00481314
-0.00479763
-0.00476045
-0.00470093
-0.00461867
-0.00451358
-0.00438584
-0.00423601
-0.004065
-0.00387406
-0.00366474
-0.0034393
-0.00319991
-0.00294934
-0.00269061
-0.00242706
-0.00216223
-0.00189987
-0.00164385
-0.00139809
-0.00116651
-0.000952945
-0.000761053
-0.000594259
-0.000455663
-0.000347973
-0.000273441
-0.000233801
-0.000230228
-0.000263305
-0.000333002
-0.000438675
-0.000579083
-0.000752414
-0.000956334
-0.00118804
-0.00144435
-0.00172176
-0.00201655
-0.00232487
-0.00264284
-0.0029666
-0.00329248
-0.00361696
-0.00393684
-0.0042492
-0.00455152
-0.00484161
-0.00511773
-0.00537848
-0.00562286
-0.00585022
-0.00606022
-0.0062528
-0.00642818
-0.00658674
-0.00672905
-0.00685578
-0.00696771
-0.00706564
-0.00715041
-0.00722281
-0.00728362
-0.00733356
-0.00737329
-0.00740338
-0.00742436
-0.00743668
-0.00744076
-0.00743697
-0.00742588
-0.0074082
-0.00738147
-0.00734024
-8.0635e-06
1.10922e-05
1.84961e-05
1.75483e-05
1.01054e-05
-3.7624e-06
-2.38939e-05
-4.99799e-05
-8.1691e-05
-0.000118695
-0.000160658
-0.000207254
-0.000258186
-0.000313196
-0.000372069
-0.000434641
-0.000500795
-0.000570465
-0.000643631
-0.000720317
-0.000800582
-0.00088451
-0.000972213
-0.00106381
-0.00115944
-0.00125923
-0.00136329
-0.00147172
-0.00158462
-0.00170202
-0.00182394
-0.00195034
-0.00208114
-0.00221621
-0.00235531
-0.00249819
-0.00264446
-0.00279369
-0.00294532
-0.0030987
-0.00325309
-0.00340761
-0.00356129
-0.00371305
-0.00386168
-0.00400588
-0.00414425
-0.00427531
-0.00439752
-0.00450927
-0.00460892
-0.00469486
-0.00476547
-0.0048192
-0.0048546
-0.00487032
-0.00486519
-0.00483824
-0.0047887
-0.00471609
-0.00462022
-0.00450121
-0.00435955
-0.00419607
-0.004012
-0.00380886
-0.00358874
-0.00335394
-0.00310715
-0.00285143
-0.00259008
-0.00232668
-0.00206501
-0.00180897
-0.00156253
-0.00132968
-0.0011143
-0.000920134
-0.000750678
-0.000609113
-0.000498228
-0.000420352
-0.000377297
-0.000370305
-0.000400017
-0.000466454
-0.000569007
-0.000706456
-0.000876993
-0.00107828
-0.00130748
-0.00156138
-0.00183642
-0.00212883
-0.00243469
-0.00275006
-0.00307102
-0.00339382
-0.00371492
-0.00403106
-0.00433932
-0.00463714
-0.00492237
-0.00519327
-0.0054485
-0.0056871
-0.0059085
-0.00611242
-0.00629891
-0.00646824
-0.0066209
-0.00675754
-0.00687891
-0.00698587
-0.00707928
-0.00716004
-0.00722899
-0.00728695
-0.00733467
-0.00737277
-0.00740183
-0.00742228
-0.00743446
-0.00743858
-0.00743472
-0.0074231
-0.00740398
-0.00737367
-0.00732494
1.28466e-05
3.15595e-05
3.83637e-05
3.67006e-05
2.85199e-05
1.39886e-05
-6.64744e-06
-3.30171e-05
-6.4756e-05
-0.000101511
-0.000142939
-0.00018872
-0.000238566
-0.000292234
-0.000349527
-0.000410302
-0.000474465
-0.000541974
-0.000612839
-0.000687108
-0.000764869
-0.000846241
-0.000931367
-0.00102041
-0.00111353
-0.0012109
-0.00131269
-0.00141905
-0.00153009
-0.00164594
-0.00176665
-0.00189224
-0.0020227
-0.00215794
-0.0022978
-0.00244207
-0.00259044
-0.00274249
-0.00289772
-0.00305552
-0.00321516
-0.00337579
-0.00353642
-0.00369595
-0.00385316
-0.00400671
-0.00415513
-0.00429689
-0.00443034
-0.0045538
-0.00466553
-0.00476381
-0.00484691
-0.00491317
-0.00496101
-0.00498899
-0.00499583
-0.00498043
-0.00494194
-0.00487978
-0.00479369
-0.0046837
-0.00455023
-0.00439407
-0.00421643
-0.00401871
-0.00380301
-0.00357164
-0.00332729
-0.00307299
-0.00281208
-0.00254817
-0.00228508
-0.00202675
-0.00177723
-0.00154057
-0.00132075
-0.0011216
-0.00094672
-0.000799394
-0.000682522
-0.000598544
-0.000549376
-0.000536363
-0.000560237
-0.000621097
-0.000718399
-0.000850968
-0.00101703
-0.00121423
-0.00143976
-0.00169033
-0.00196236
-0.002252
-0.00255526
-0.0028681
-0.00318653
-0.00350671
-0.003825
-0.00413808
-0.00444296
-0.00473704
-0.00501816
-0.00528456
-0.00553492
-0.0057683
-0.00598418
-0.00618236
-0.00636295
-0.00652631
-0.00667302
-0.00680382
-0.00691955
-0.00702116
-0.00710959
-0.00718582
-0.00725074
-0.00730523
-0.00735005
-0.00738585
-0.00741315
-0.00743235
-0.00744367
-0.00744716
-0.00744266
-0.00743011
-0.00740944
-0.00737608
-0.00732155
4.27668e-05
5.98802e-05
6.53782e-05
6.25277e-05
5.32282e-05
3.77193e-05
1.6308e-05
-1.0598e-05
-4.26072e-05
-7.93479e-05
-0.000120472
-0.000165664
-0.000214647
-0.000267193
-0.000323126
-0.000382325
-0.000444723
-0.000510309
-0.000579124
-0.000651253
-0.000726821
-0.000805988
-0.000888943
-0.000975893
-0.00106706
-0.00116266
-0.00126291
-0.00136804
-0.00147823
-0.00159365
-0.00171443
-0.00184068
-0.00197242
-0.00210965
-0.00225228
-0.00240015
-0.00255298
-0.00271043
-0.00287202
-0.00303715
-0.0032051
-0.00337501
-0.00354588
-0.00371655
-0.00388576
-0.00405207
-0.00421395
-0.00436974
-0.00451771
-0.00465605
-0.00478289
-0.00489638
-0.00499465
-0.00507592
-0.00513849
-0.00518078
-0.00520138
-0.00519911
-0.005173
-0.00512239
-0.00504691
-0.00494655
-0.00482164
-0.00467293
-0.00450156
-0.00430892
-0.00409708
-0.00386834
-0.00362537
-0.00337123
-0.00310926
-0.00284312
-0.00257665
-0.00231387
-0.0020589
-0.00181587
-0.00158886
-0.00138181
-0.00119845
-0.00104219
-0.000916076
-0.000822681
-0.000764066
-0.000741713
-0.000756485
-0.000808599
-0.000897611
-0.00102243
-0.00118134
-0.00137203
-0.00159169
-0.00183703
-0.00210442
-0.00238995
-0.00268956
-0.0029991
-0.00331448
-0.00363175
-0.00394717
-0.00425731
-0.00455909
-0.00484983
-0.0051273
-0.00538971
-0.0056357
-0.00586436
-0.00607518
-0.006268
-0.00644299
-0.00660058
-0.00674145
-0.0068664
-0.00697641
-0.00707247
-0.00715566
-0.00722699
-0.00728747
-0.00733801
-0.00737941
-0.00741235
-0.00743734
-0.00745473
-0.00746467
-0.00746707
-0.0074616
-0.007448
-0.00742596
-0.00739034
-0.00733187
8.15056e-05
9.59842e-05
9.94928e-05
9.49594e-05
8.41395e-05
6.73247e-05
4.48574e-05
1.71657e-05
-1.53422e-05
-5.22882e-05
-9.3325e-05
-0.000138145
-0.000186486
-0.00023814
-0.000292952
-0.000350829
-0.000411738
-0.000475704
-0.000542806
-0.00061317
-0.000686973
-0.000764427
-0.000845775
-0.000931285
-0.00102124
-0.00111593
-0.00121565
-0.00132069
-0.00143131
-0.00154777
-0.00167027
-0.001799
-0.00193408
-0.00207555
-0.0022234
-0.00237752
-0.00253769
-0.00270359
-0.00287477
-0.00305063
-0.00323043
-0.00341327
-0.0035981
-0.0037837
-0.00396869
-0.00415155
-0.00433063
-0.00450414
-0.0046702
-0.00482685
-0.00497209
-0.0051039
-0.00522028
-0.00531929
-0.00539909
-0.00545799
-0.00549444
-0.00550715
-0.00549506
-0.0054574
-0.00539372
-0.00530393
-0.00518831
-0.00504751
-0.00488253
-0.00469511
-0.00448694
-0.00426034
-0.00401802
-0.00376302
-0.00349872
-0.00322877
-0.00295709
-0.00268773
-0.0024249
-0.00217282
-0.00193568
-0.00171755
-0.00152229
-0.00135348
-0.00121432
-0.00110757
-0.00103547
-0.00099969
-0.00100126
-0.00104056
-0.0011173
-0.00123051
-0.00137859
-0.0015593
-0.00176987
-0.00200705
-0.00226717
-0.00254628
-0.00284026
-0.00314486
-0.00345588
-0.00376924
-0.00408108
-0.00438783
-0.00468629
-0.00497367
-0.00524764
-0.00550632
-0.00574831
-0.00597266
-0.00617885
-0.00636673
-0.00653651
-0.00668868
-0.00682397
-0.00694328
-0.00704765
-0.0071382
-0.00721606
-0.00728236
-0.00733817
-0.00738448
-0.00742213
-0.00745184
-0.00747413
-0.00748933
-0.00749753
-0.00749859
-0.00749203
-0.00747745
-0.00745441
-0.00741742
-0.00735684
0.000128746
0.000139659
0.000140534
0.00013384
0.00012111
0.000102665
7.88697e-05
5.01584e-05
1.6938e-05
-2.04193e-05
-6.15752e-05
-0.000106238
-0.000154165
-0.000205172
-0.000259134
-0.000315992
-0.000375751
-0.000438479
-0.0005043
-0.000573398
-0.000646005
-0.000722399
-0.000802891
-0.000887821
-0.000977553
-0.00107246
-0.00117293
-0.00127933
-0.00139202
-0.00151135
-0.00163763
-0.00177111
-0.00191199
-0.00206042
-0.00221642
-0.00237995
-0.00255083
-0.00272874
-0.00291323
-0.00310369
-0.00329933
-0.00349919
-0.00370213
-0.00390682
-0.00411178
-0.00431533
-0.00451567
-0.00471086
-0.00489885
-0.00507752
-0.0052447
-0.0053982
-0.00553586
-0.00565561
-0.00575545
-0.00583354
-0.00588824
-0.00591812
-0.00592202
-0.00589907
-0.00584875
-0.00577087
-0.00566564
-0.00553367
-0.00537591
-0.00519391
-0.00498947
-0.00476485
-0.00452271
-0.00426609
-0.00399835
-0.00372318
-0.00344452
-0.00316647
-0.00289332
-0.00262937
-0.00237894
-0.00214622
-0.00193526
-0.00174979
-0.00159324
-0.00146856
-0.00137823
-0.00132413
-0.00130752
-0.00132902
-0.00138852
-0.00148526
-0.00161779
-0.001784
-0.00198121
-0.00220623
-0.00245542
-0.00272482
-0.00301023
-0.00330734
-0.00361185
-0.00391953
-0.00422637
-0.00452867
-0.00482307
-0.00510662
-0.00537687
-0.00563182
-0.00586997
-0.0060903
-0.00629224
-0.00647563
-0.00664064
-0.00678783
-0.00691796
-0.00703199
-0.00713104
-0.0072163
-0.00728899
-0.00735034
-0.00740149
-0.00744349
-0.00747728
-0.00750359
-0.00752298
-0.0075358
-0.00754211
-0.00754173
-0.00753412
-0.00751878
-0.00749518
-0.00745773
-0.0073967
0.00018408
0.000190575
0.000188223
0.000178925
0.000163915
0.000143538
0.000118168
8.82236e-05
5.40931e-05
1.61321e-05
-2.53435e-05
-7.00656e-05
-0.00011782
-0.000168453
-0.000221879
-0.000278078
-0.000337102
-0.000399068
-0.000464161
-0.000532627
-0.00060477
-0.000680941
-0.000761538
-0.000846988
-0.00093775
-0.0010343
-0.00113711
-0.00124668
-0.00136347
-0.00148792
-0.00162044
-0.00176138
-0.00191104
-0.00206962
-0.00223721
-0.0024138
-0.00259923
-0.0027932
-0.00299521
-0.0032046
-0.00342051
-0.00364189
-0.00386746
-0.00409578
-0.00432519
-0.00455387
-0.00477982
-0.00500094
-0.00521497
-0.00541963
-0.00561255
-0.00579138
-0.0059538
-0.00609757
-0.00622055
-0.00632076
-0.00639644
-0.00644604
-0.00646828
-0.00646221
-0.00642719
-0.00636295
-0.00626963
-0.00614774
-0.0059982
-0.00582242
-0.00562218
-0.00539969
-0.00515756
-0.00489878
-0.00462673
-0.00434506
-0.00405774
-0.00376892
-0.00348293
-0.00320418
-0.0029371
-0.00268604
-0.0024552
-0.00224855
-0.00206971
-0.00192192
-0.00180789
-0.00172981
-0.00168922
-0.001687
-0.00172334
-0.00179771
-0.0019089
-0.002055
-0.00223348
-0.00244126
-0.00267479
-0.00293011
-0.00320302
-0.00348914
-0.00378406
-0.00408345
-0.00438314
-0.00467924
-0.00496822
-0.00524697
-0.00551286
-0.00576373
-0.00599794
-0.00621436
-0.00641231
-0.00659158
-0.00675232
-0.00689504
-0.00702054
-0.00712981
-0.00722402
-0.00730443
-0.00737233
-0.00742902
-0.00747574
-0.0075136
-0.00754361
-0.00756658
-0.00758309
-0.00759352
-0.00759797
-0.00759621
-0.00758771
-0.00757191
-0.00754824
-0.0075112
-0.00745121
0.000247013
0.000248304
0.000242181
0.000229866
0.000212242
0.000189667
0.000162505
0.000131135
9.59163e-05
5.7169e-05
1.51749e-05
-2.98325e-05
-7.76775e-05
-0.000128248
-0.000181505
-0.000237476
-0.000296269
-0.000358062
-0.00042311
-0.000491736
-0.000564326
-0.000641323
-0.00072322
-0.000810555
-0.000903894
-0.00100383
-0.00111095
-0.00122587
-0.00134918
-0.00148142
-0.00162311
-0.00177471
-0.00193658
-0.002109
-0.0022921
-0.00248589
-0.00269022
-0.00290474
-0.00312891
-0.00336198
-0.00360299
-0.00385075
-0.00410384
-0.00436063
-0.0046193
-0.00487782
-0.00513401
-0.00538554
-0.00562999
-0.00586486
-0.0060876
-0.00629568
-0.00648662
-0.006658
-0.00680755
-0.00693315
-0.0070329
-0.00710514
-0.00714846
-0.00716181
-0.00714445
-0.007096
-0.00701649
-0.00690635
-0.00676641
-0.00659798
-0.00640276
-0.00618287
-0.00594086
-0.00567968
-0.00540263
-0.00511338
-0.00481585
-0.00451425
-0.00421294
-0.00391642
-0.00362923
-0.00335586
-0.00310072
-0.00286798
-0.00266154
-0.0024849
-0.00234111
-0.00223268
-0.00216149
-0.00212878
-0.00213508
-0.00218019
-0.00226321
-0.00238249
-0.00253575
-0.0027201
-0.00293209
-0.00316787
-0.00342326
-0.00369385
-0.00397516
-0.00426273
-0.00455225
-0.00483965
-0.0051212
-0.00539358
-0.00565395
-0.00589996
-0.0061298
-0.00634214
-0.0065362
-0.00671163
-0.00686851
-0.0070073
-0.00712877
-0.00723391
-0.00732391
-0.00740007
-0.00746375
-0.00751629
-0.00755902
-0.00759313
-0.00761969
-0.00763956
-0.00765342
-0.00766166
-0.00766441
-0.00766149
-0.00765236
-0.00763648
-0.00761324
-0.00757736
-0.0075197
0.000316965
0.00031231
0.00030191
0.000286212
0.000265684
0.00024068
0.000211535
0.000178576
0.000142106
0.000102397
5.96828e-05
1.41477e-05
-3.40838e-05
-8.49518e-05
-0.00013847
-0.000194728
-0.000253898
-0.000316234
-0.000382072
-0.000451824
-0.000525975
-0.000605074
-0.000689731
-0.000780602
-0.000878381
-0.000983789
-0.00109756
-0.00122043
-0.0013531
-0.00149625
-0.00165051
-0.00181643
-0.00199443
-0.00218486
-0.00238787
-0.00260346
-0.00283146
-0.00307147
-0.00332284
-0.00358472
-0.00385601
-0.00413533
-0.00442111
-0.00471151
-0.00500449
-0.00529782
-0.0055891
-0.00587579
-0.00615527
-0.00642482
-0.00668171
-0.00692323
-0.00714673
-0.00734962
-0.00752949
-0.00768407
-0.00781132
-0.00790946
-0.00797696
-0.00801264
-0.00801564
-0.00798548
-0.00792205
-0.00782568
-0.00769709
-0.00753747
-0.0073484
-0.00713191
-0.00689045
-0.00662689
-0.00634445
-0.00604675
-0.00573769
-0.00542146
-0.00510247
-0.00478528
-0.00447452
-0.00417484
-0.00389084
-0.00362691
-0.00338725
-0.00317566
-0.00299555
-0.00284981
-0.00274074
-0.00266999
-0.00263851
-0.00264654
-0.00269353
-0.00277824
-0.00289868
-0.00305223
-0.00323568
-0.00344531
-0.00367703
-0.00392645
-0.00418906
-0.0044603
-0.00473571
-0.00501104
-0.00528236
-0.00554611
-0.00579922
-0.00603909
-0.00626368
-0.00647146
-0.00666144
-0.00683313
-0.00698647
-0.00712181
-0.00723984
-0.00734153
-0.00742804
-0.00750069
-0.00756086
-0.00760996
-0.00764934
-0.00768028
-0.00770391
-0.00772116
-0.00773275
-0.00773916
-0.00774057
-0.00773682
-0.00772742
-0.00771185
-0.00768954
-0.00765552
-0.00760122
0.00039326
0.000381939
0.000366801
0.000347398
0.000323714
0.000296086
0.000264804
0.000230113
0.000192243
0.000151399
0.00010775
6.14168e-05
1.24607e-05
-3.91214e-05
-9.34088e-05
-0.000150565
-0.000210842
-0.000274579
-0.000342208
-0.000414246
-0.000491293
-0.000574021
-0.000663172
-0.00075954
-0.000863962
-0.000977304
-0.00110045
-0.00123426
-0.00137958
-0.00153722
-0.00170791
-0.00189226
-0.00209079
-0.00230384
-0.0025316
-0.00277403
-0.00303088
-0.00330167
-0.00358565
-0.00388179
-0.00418881
-0.00450516
-0.00482904
-0.0051584
-0.00549097
-0.00582428
-0.00615573
-0.00648253
-0.00680185
-0.00711077
-0.00740638
-0.00768576
-0.0079461
-0.00818464
-0.00839883
-0.00858624
-0.0087447
-0.00887227
-0.00896732
-0.00902852
-0.00905488
-0.00904578
-0.009001
-0.00892071
-0.00880552
-0.00865646
-0.00847499
-0.008263
-0.00802284
-0.00775722
-0.00746931
-0.00716261
-0.00684098
-0.00650857
-0.0061698
-0.00582924
-0.00549165
-0.00516179
-0.00484442
-0.00454422
-0.00426562
-0.00401279
-0.00378953
-0.00359915
-0.00344442
-0.00332749
-0.0032498
-0.00321208
-0.0032143
-0.00325567
-0.00333462
-0.00344892
-0.00359564
-0.00377133
-0.00397205
-0.0041935
-0.00443119
-0.00468049
-0.00493683
-0.0051958
-0.00545322
-0.00570531
-0.0059487
-0.00618054
-0.0063985
-0.00660079
-0.00678618
-0.00695394
-0.00710385
-0.00723608
-0.00735122
-0.00745013
-0.00753392
-0.00760388
-0.00766139
-0.00770787
-0.00774471
-0.00777324
-0.00779463
-0.0078099
-0.00781981
-0.00782492
-0.00782544
-0.0078213
-0.00781206
-0.00779725
-0.00777633
-0.00774474
-0.0076946
0.000475085
0.000456422
0.000436119
0.000412725
0.000385674
0.000355267
0.00032172
0.000285173
0.000245762
0.000203605
0.000158786
0.000111349
6.12788e-05
8.49573e-06
-4.71599e-05
-0.000105938
-0.000168183
-0.000234336
-0.000304941
-0.000380635
-0.00046215
-0.000550301
-0.000645976
-0.000750125
-0.000863744
-0.000987854
-0.00112349
-0.00127167
-0.00143337
-0.00160951
-0.00180091
-0.00200826
-0.00223213
-0.00247285
-0.00273059
-0.00300525
-0.00329649
-0.00360369
-0.00392594
-0.00426204
-0.0046105
-0.00496955
-0.00533714
-0.00571099
-0.00608858
-0.00646722
-0.00684404
-0.00721606
-0.00758019
-0.00793333
-0.00827235
-0.00859417
-0.00889578
-0.00917428
-0.00942693
-0.00965118
-0.00984469
-0.0100054
-0.0101315
-0.0102216
-0.0102745
-0.0102894
-0.010266
-0.0102043
-0.0101048
-0.00996826
-0.0097961
-0.00959002
-0.00935218
-0.0090852
-0.00879209
-0.00847623
-0.00814138
-0.00779165
-0.00743138
-0.0070652
-0.00669788
-0.00633431
-0.00597941
-0.00563807
-0.00531501
-0.00501476
-0.00474151
-0.00449905
-0.00429065
-0.00411901
-0.00398617
-0.00389345
-0.0038414
-0.0038298
-0.00385765
-0.00392316
-0.00402387
-0.00415666
-0.00431784
-0.00450333
-0.00470868
-0.00492929
-0.0051605
-0.00539774
-0.00563663
-0.00587312
-0.00610356
-0.00632477
-0.0065341
-0.00672945
-0.00690928
-0.0070726
-0.00721891
-0.0073482
-0.00746084
-0.00755756
-0.00763938
-0.00770749
-0.00776324
-0.00780803
-0.00784325
-0.00787026
-0.00789027
-0.00790434
-0.0079133
-0.00791775
-0.00791799
-0.00791399
-0.00790541
-0.0078918
-0.00787271
-0.007844
-0.0077986
0.000561498
0.000534843
0.00050898
0.000481352
0.000450764
0.000417453
0.000381537
0.000343026
0.000301934
0.000258269
0.000212016
0.000163123
0.000111487
5.69337e-05
-7.91661e-07
-6.2039e-05
-0.00012726
-0.000197016
-0.000271977
-0.000352922
-0.000440731
-0.000536376
-0.000640913
-0.000755461
-0.000881185
-0.00101928
-0.00117092
-0.0013373
-0.00151951
-0.00171857
-0.0019354
-0.00217073
-0.00242512
-0.00269892
-0.00299222
-0.00330482
-0.00363625
-0.00398573
-0.00435215
-0.0047341
-0.00512986
-0.0055374
-0.00595444
-0.00637841
-0.00680656
-0.00723594
-0.00766342
-0.0080858
-0.00849977
-0.00890201
-0.00928919
-0.00965805
-0.0100054
-0.0103281
-0.0106234
-0.0108885
-0.0111209
-0.0113184
-0.0114791
-0.0116014
-0.011684
-0.0117259
-0.0117267
-0.0116862
-0.0116047
-0.0114829
-0.011322
-0.0111234
-0.0108893
-0.010622
-0.0103243
-0.0099996
-0.0096514
-0.00928372
-0.00890085
-0.00850736
-0.00810803
-0.00770782
-0.00731179
-0.00692499
-0.00655244
-0.00619899
-0.00586924
-0.00556746
-0.00529748
-0.00506259
-0.00486547
-0.00470814
-0.00459182
-0.004517
-0.00448332
-0.00448963
-0.00453401
-0.00461382
-0.00472578
-0.00486607
-0.00503045
-0.00521439
-0.00541322
-0.00562224
-0.0058369
-0.00605288
-0.00626621
-0.00647338
-0.00667138
-0.00685772
-0.00703052
-0.00718842
-0.00733062
-0.00745683
-0.00756717
-0.00766217
-0.00774267
-0.00780974
-0.00786464
-0.0079087
-0.0079433
-0.00796978
-0.00798937
-0.00800314
-0.00801199
-0.00801656
-0.00801719
-0.00801395
-0.00800654
-0.0079946
-0.00797773
-0.00795226
-0.00791195
0.000651398
0.000616127
0.000584347
0.000552278
0.00051802
0.000481709
0.000443341
0.000402763
0.00035984
0.00031445
0.00026646
0.000215706
0.000161975
0.000104987
4.43763e-05
-2.0323e-05
-8.96882e-05
-0.000164416
-0.000245323
-0.000333347
-0.000429534
-0.000535035
-0.000651083
-0.000778982
-0.000920075
-0.00107573
-0.00124729
-0.00143608
-0.00164331
-0.00187012
-0.00211744
-0.00238607
-0.00267652
-0.0029891
-0.00332379
-0.00368027
-0.0040579
-0.00445569
-0.00487232
-0.00530612
-0.00575511
-0.00621701
-0.00668924
-0.00716899
-0.00765321
-0.0081387
-0.00862209
-0.00909991
-0.00956866
-0.0100248
-0.0104647
-0.0108851
-0.0112824
-0.0116536
-0.0119955
-0.0123052
-0.0125801
-0.0128179
-0.0130165
-0.0131742
-0.0132894
-0.0133612
-0.0133889
-0.0133722
-0.0133111
-0.0132063
-0.0130586
-0.0128694
-0.0126406
-0.0123743
-0.0120732
-0.0117404
-0.0113793
-0.0109937
-0.0105878
-0.0101661
-0.00973331
-0.0092944
-0.00885448
-0.00841879
-0.00799253
-0.00758088
-0.00718882
-0.0068211
-0.00648209
-0.00617574
-0.00590542
-0.00567389
-0.00548316
-0.0053345
-0.00522837
-0.00516435
-0.00514125
-0.00515704
-0.00520898
-0.0052937
-0.00540725
-0.0055453
-0.00570325
-0.00587636
-0.00605992
-0.00624937
-0.00644045
-0.00662925
-0.00681238
-0.00698693
-0.00715057
-0.00730157
-0.00743871
-0.00756136
-0.00766931
-0.00776284
-0.00784253
-0.00790928
-0.00796419
-0.0080085
-0.0080435
-0.00807048
-0.00809066
-0.00810514
-0.0081148
-0.00812032
-0.00812211
-0.00812028
-0.0081146
-0.00810479
-0.00809049
-0.00806851
-0.00803345
0.000743507
0.00069903
0.000661015
0.000624338
0.000586301
0.000546922
0.000506031
0.000463279
0.000418359
0.000370996
0.000320916
0.000267825
0.000211386
0.000151195
8.67593e-05
1.74792e-05
-5.73664e-05
-0.000138628
-0.000227289
-0.000324462
-0.00043138
-0.000549384
-0.000679903
-0.000824431
-0.0009845
-0.00116165
-0.00135739
-0.00157316
-0.00181029
-0.00206997
-0.00235319
-0.0026607
-0.00299301
-0.00335029
-0.0037324
-0.00413885
-0.00456879
-0.00502101
-0.00549391
-0.00598557
-0.00649372
-0.00701577
-0.00754888
-0.00808993
-0.0086356
-0.00918241
-0.00972674
-0.0102649
-0.0107931
-0.0113076
-0.0118046
-0.0122805
-0.0127318
-0.0131551
-0.0135471
-0.0139048
-0.0142255
-0.0145067
-0.0147462
-0.014942
-0.0150926
-0.0151968
-0.0152539
-0.0152632
-0.0152249
-0.0151391
-0.0150068
-0.014829
-0.0146073
-0.0143437
-0.0140407
-0.0137011
-0.0133282
-0.0129254
-0.0124969
-0.012047
-0.0115803
-0.0111016
-0.0106162
-0.0101293
-0.00964632
-0.00917261
-0.00871354
-0.00827428
-0.00785975
-0.00747453
-0.00712272
-0.00680786
-0.00653284
-0.00629981
-0.00611013
-0.0059643
-0.00586198
-0.00580195
-0.00578218
-0.00579987
-0.00585157
-0.00593329
-0.00604059
-0.00616882
-0.00631318
-0.00646891
-0.00663146
-0.00679656
-0.00696035
-0.00711949
-0.00727116
-0.00741314
-0.00754375
-0.00766192
-0.00776706
-0.00785908
-0.00793827
-0.00800526
-0.00806095
-0.00810641
-0.00814279
-0.00817134
-0.00819317
-0.00820937
-0.00822081
-0.0082282
-0.00823195
-0.00823221
-0.00822885
-0.00822161
-0.00821019
-0.00819187
-0.00816203
0.000836359
0.000782131
0.0007376
0.000696176
0.000654289
0.000611788
0.000568305
0.000523263
0.000476154
0.000426526
0.000373944
0.000317965
0.00025811
0.000193834
0.000124499
4.93546e-05
-3.24844e-05
-0.000122042
-0.000220485
-0.000329122
-0.000449387
-0.000582827
-0.000731075
-0.000895824
-0.0010788
-0.0012817
-0.00150619
-0.00175382
-0.00202601
-0.00232399
-0.00264873
-0.00300096
-0.00338106
-0.0037891
-0.00422476
-0.00468733
-0.00517572
-0.00568844
-0.00622363
-0.00677904
-0.00735212
-0.00793995
-0.00853939
-0.00914701
-0.00975922
-0.0103722
-0.0109822
-0.011585
-0.0121769
-0.0127537
-0.0133116
-0.0138467
-0.0143552
-0.0148337
-0.0152788
-0.0156873
-0.0160564
-0.0163834
-0.016666
-0.0169022
-0.0170903
-0.0172291
-0.0173175
-0.017355
-0.0173414
-0.0172767
-0.0171617
-0.0169972
-0.0167846
-0.0165257
-0.0162227
-0.0158781
-0.015495
-0.0150767
-0.0146269
-0.0141498
-0.0136498
-0.0131317
-0.0126005
-0.0120615
-0.0115201
-0.010982
-0.0104527
-0.00993778
-0.00944262
-0.00897241
-0.00853196
-0.00812563
-0.0077572
-0.0074298
-0.0071458
-0.00690674
-0.00671329
-0.0065652
-0.00646134
-0.00639972
-0.00637754
-0.00639131
-0.00643699
-0.00651009
-0.00660585
-0.00671941
-0.00684595
-0.00698085
-0.00711983
-0.00725901