/*--------------------------------*- C++ -*----------------------------------*\
| =========                 |                                                 |
| \\      /  F ield         | OpenFOAM: The Open Source CFD Toolbox           |
|  \\    /   O peration     | Version:  2112                                  |
|   \\  /    A nd           | Website:  www.openfoam.com                      |
|    \\/     M anipulation  |                                                 |
\*---------------------------------------------------------------------------*/
FoamFile
{
    version     2.0;
    format      ascii;
    arch        "LSB;label=32;scalar=64";
    class       surfaceScalarField;
    location    "22";
    object      phi;
}
// * * * * * * * * * * * * * * * * * * * * * * * * * * * * * * * * * * * * * //

dimensions      [0 3 -1 0 0 0 0];

oriented        oriented;

internalField   nonuniform List<scalar> 
33024
(
-3.28249e-10
3.40167e-10
2.15099e-08
-2.18379e-08
6.49549e-08
-4.34456e-08
1.2285e-07
-5.78947e-08
1.88691e-07
-6.58415e-08
2.57339e-07
-6.86477e-08
3.24914e-07
-6.7576e-08
3.88598e-07
-6.36839e-08
4.46402e-07
-5.78027e-08
4.9697e-07
-5.05691e-08
5.39433e-07
-4.2463e-08
5.73277e-07
-3.38444e-08
5.98252e-07
-2.4975e-08
6.14289e-07
-1.60362e-08
6.21435e-07
-7.14561e-09
6.19806e-07
1.62873e-09
6.0954e-07
1.02665e-08
5.90761e-07
1.87779e-08
5.63562e-07
2.71986e-08
5.27978e-07
3.55847e-08
4.83973e-07
4.40046e-08
4.31438e-07
5.25357e-08
3.70179e-07
6.12588e-08
2.99926e-07
7.02533e-08
2.20331e-07
7.95941e-08
1.30983e-07
8.93487e-08
3.14083e-08
9.95748e-08
-7.89092e-08
1.10318e-07
-2.00518e-07
1.21609e-07
-3.33984e-07
1.33466e-07
-4.79875e-07
1.45891e-07
-6.38745e-07
1.58871e-07
-8.11122e-07
1.72377e-07
-9.97487e-07
1.86364e-07
-1.19826e-06
2.00773e-07
-1.41379e-06
2.15527e-07
-1.64432e-06
2.30536e-07
-1.89001e-06
2.45692e-07
-2.15089e-06
2.60876e-07
-2.42684e-06
2.75951e-07
-2.71761e-06
2.90766e-07
-3.02276e-06
3.05156e-07
-3.34171e-06
3.18946e-07
-3.67365e-06
3.31946e-07
-4.01761e-06
3.43957e-07
-4.37238e-06
3.5477e-07
-4.73656e-06
3.64174e-07
-5.10851e-06
3.7195e-07
-5.48639e-06
3.7788e-07
-5.86813e-06
3.81746e-07
-6.25147e-06
3.83337e-07
-6.63392e-06
3.82449e-07
-7.01281e-06
3.78892e-07
-7.3853e-06
3.72491e-07
-7.74839e-06
3.63089e-07
-8.09895e-06
3.50555e-07
-8.43373e-06
3.34784e-07
-8.74943e-06
3.15702e-07
-9.0427e-06
2.93266e-07
-9.31017e-06
2.67475e-07
-9.54854e-06
2.38365e-07
-9.75455e-06
2.06016e-07
-9.9251e-06
1.7055e-07
-1.00572e-05
1.3214e-07
-1.01482e-05
9.10045e-08
-1.01956e-05
4.73957e-08
-1.01976e-05
1.95412e-09
-1.01517e-05
-4.58819e-08
-1.0057e-05
-9.46677e-08
-9.91261e-06
-1.44435e-07
-9.71797e-06
-1.9464e-07
-9.47322e-06
-2.44748e-07
-9.17902e-06
-2.94206e-07
-8.83658e-06
-3.4244e-07
-8.44771e-06
-3.88866e-07
-8.01482e-06
-4.32893e-07
-7.54088e-06
-4.73941e-07
-7.02943e-06
-5.11447e-07
-6.48455e-06
-5.44877e-07
-5.91081e-06
-5.73739e-07
-5.31322e-06
-5.97596e-07
-4.69714e-06
-6.16073e-07
-4.06827e-06
-6.28873e-07
-3.43249e-06
-6.35784e-07
-2.7958e-06
-6.36685e-07
-2.16425e-06
-6.31554e-07
-1.54377e-06
-6.20474e-07
-9.40149e-07
-6.03626e-07
-3.58855e-07
-5.81295e-07
1.95009e-07
-5.53863e-07
7.16811e-07
-5.21802e-07
1.20246e-06
-4.85646e-07
1.64847e-06
-4.46013e-07
2.05203e-06
-4.03564e-07
2.41102e-06
-3.58991e-07
2.72403e-06
-3.13005e-07
2.99034e-06
-2.66314e-07
3.20995e-06
-2.19608e-07
3.38349e-06
-1.73543e-07
3.51222e-06
-1.28726e-07
3.59792e-06
-8.5701e-08
3.64286e-06
-4.49424e-08
3.64971e-06
-6.84539e-09
3.62143e-06
2.82798e-08
3.56122e-06
6.02049e-08
3.47243e-06
8.87887e-08
3.35847e-06
1.13969e-07
3.22271e-06
1.35759e-07
3.06847e-06
1.54239e-07
2.89892e-06
1.69549e-07
2.71704e-06
1.81876e-07
2.5256e-06
1.91441e-07
2.32711e-06
1.98489e-07
2.12385e-06
2.03267e-07
1.91783e-06
2.06013e-07
1.7109e-06
2.06931e-07
1.50473e-06
2.06171e-07
1.30093e-06
2.038e-07
1.10115e-06
1.99779e-07
9.0723e-07
1.93922e-07
7.21358e-07
1.85872e-07
5.46292e-07
1.75066e-07
3.85578e-07
1.60713e-07
2.4377e-07
1.41809e-07
1.26531e-07
1.17239e-07
4.03766e-08
8.61542e-08
-8.52674e-09
4.89034e-08
-1.82001e-08
9.67337e-09
-1.82e-08
2.18268e-08
-2.14864e-08
9.17806e-08
-9.17923e-08
2.01527e-07
-1.53191e-07
3.39493e-07
-1.95861e-07
4.938e-07
-2.20148e-07
6.53883e-07
-2.28731e-07
8.11031e-07
-2.24723e-07
9.58402e-07
-2.11055e-07
1.09083e-06
-1.90227e-07
1.20453e-06
-1.64276e-07
1.29688e-06
-1.3481e-07
1.36611e-06
-1.03074e-07
1.41113e-06
-6.99962e-08
1.43134e-06
-3.62442e-08
1.42644e-06
-2.25099e-09
1.39639e-06
3.16828e-08
1.34118e-06
6.54801e-08
1.26083e-06
9.9127e-08
1.15531e-06
1.32723e-07
1.02445e-06
1.66434e-07
8.67982e-07
2.00477e-07
6.85422e-07
2.35096e-07
4.76131e-07
2.7055e-07
2.39294e-07
3.07091e-07
-2.60705e-08
3.44958e-07
-3.21084e-07
3.84362e-07
-6.46984e-07
4.25476e-07
-1.00509e-06
4.68427e-07
-1.39678e-06
5.13294e-07
-1.82341e-06
5.60099e-07
-2.28633e-06
6.08807e-07
-2.78678e-06
6.59326e-07
-3.32591e-06
7.11501e-07
-3.90466e-06
7.6512e-07
-4.5238e-06
8.19911e-07
-5.18382e-06
8.75543e-07
-5.88491e-06
9.31628e-07
-6.62694e-06
9.87723e-07
-7.40939e-06
1.04333e-06
-8.23134e-06
1.0979e-06
-9.09141e-06
1.15083e-06
-9.98774e-06
1.20149e-06
-1.0918e-05
1.24919e-06
-1.18792e-05
1.29321e-06
-1.28681e-05
1.33282e-06
-1.38806e-05
1.36726e-06
-1.49122e-05
1.39576e-06
-1.59578e-05
1.41754e-06
-1.70118e-05
1.43186e-06
-1.8068e-05
1.43799e-06
-1.91199e-05
1.43522e-06
-2.01603e-05
1.4229e-06
-2.11819e-05
1.40046e-06
-2.21768e-05
1.36736e-06
-2.31369e-05
1.32318e-06
-2.40539e-05
1.26757e-06
-2.49194e-05
1.20032e-06
-2.5725e-05
1.1213e-06
-2.64623e-05
1.03053e-06
-2.7123e-05
9.28151e-07
-2.7699e-05
8.14449e-07
-2.81829e-05
6.89858e-07
-2.85673e-05
5.54958e-07
-2.88456e-05
4.10483e-07
-2.9012e-05
2.57333e-07
-2.90612e-05
9.66206e-08
-2.89887e-05
-7.054e-08
-2.87915e-05
-2.43112e-07
-2.84669e-05
-4.19179e-07
-2.8014e-05
-5.9734e-07
-2.74328e-05
-7.75919e-07
-2.67244e-05
-9.53136e-07
-2.58914e-05
-1.12715e-06
-2.49378e-05
-1.29605e-06
-2.38688e-05
-1.45794e-06
-2.26907e-05
-1.6109e-06
-2.14116e-05
-1.75306e-06
-2.00404e-05
-1.88263e-06
-1.85874e-05
-1.9979e-06
-1.70638e-05
-2.09732e-06
-1.54819e-05
-2.17951e-06
-1.38547e-05
-2.24329e-06
-1.21959e-05
-2.28772e-06
-1.05195e-05
-2.31213e-06
-8.84007e-06
-2.31612e-06
-7.17199e-06
-2.29963e-06
-5.52957e-06
-2.2629e-06
-3.92673e-06
-2.20647e-06
-2.37679e-06
-2.13123e-06
-8.92281e-07
-2.03837e-06
5.15272e-07
-1.92935e-06
1.83553e-06
-1.80591e-06
3.05948e-06
-1.66996e-06
4.17957e-06
-1.52365e-06
5.1898e-06
-1.36922e-06
6.0858e-06
-1.209e-06
6.86482e-06
-1.04534e-06
7.52576e-06
-8.80552e-07
8.0691e-06
-7.1688e-07
8.4968e-06
-5.56427e-07
8.81222e-06
-4.01123e-07
9.01997e-06
-2.52687e-07
9.12572e-06
-1.12598e-07
9.13607e-06
1.79267e-08
9.05833e-06
1.37946e-07
8.90033e-06
2.46796e-07
8.67021e-06
3.44081e-07
8.37631e-06
4.29667e-07
8.02689e-06
5.03658e-07
7.63007e-06
5.66367e-07
7.19366e-06
6.18284e-07
6.72507e-06
6.60031e-07
6.23124e-06
6.92321e-07
5.71861e-06
7.15894e-07
5.19316e-06
7.31467e-07
4.66044e-06
7.39652e-07
4.12572e-06
7.4089e-07
3.59416e-06
7.35363e-07
3.07103e-06
7.22905e-07
2.56203e-06
7.02918e-07
2.07361e-06
6.74297e-07
1.61329e-06
6.35382e-07
1.19002e-06
5.83985e-07
8.14269e-07
5.17561e-07
4.97808e-07
4.337e-07
2.52656e-07
3.31306e-07
8.87645e-08
2.12795e-07
9.97234e-09
8.84658e-08
-8.22782e-09
4.36316e-08
-6.51186e-08
1.5366e-07
-2.01821e-07
3.13524e-07
-3.13055e-07
5.07364e-07
-3.897e-07
7.19997e-07
-4.32782e-07
9.37803e-07
-4.46537e-07
1.14921e-06
-4.36125e-07
1.34478e-06
-4.06628e-07
1.51712e-06
-3.62564e-07
1.66058e-06
-3.07743e-07
1.77104e-06
-2.45263e-07
1.84553e-06
-1.77568e-07
1.88205e-06
-1.06519e-07
1.87928e-06
-3.34741e-08
1.8364e-06
4.06347e-08
1.75285e-06
1.15233e-07
1.62827e-06
1.90054e-07
1.46233e-06
2.65064e-07
1.25464e-06
3.4042e-07
1.00465e-06
4.16421e-07
7.11662e-07
4.93465e-07
3.74747e-07
5.72012e-07
-7.24457e-09
6.52541e-07
-4.35683e-07
7.35529e-07
-9.12138e-07
8.21413e-07
-1.43835e-06
9.1057e-07
-2.01617e-06
1.0033e-06
-2.64754e-06
1.0998e-06
-3.3344e-06
1.20015e-06
-4.07864e-06
1.30434e-06
-4.88204e-06
1.41221e-06
-5.74619e-06
1.52347e-06
-6.67241e-06
1.63772e-06
-7.66171e-06
1.75441e-06
-8.71467e-06
1.87288e-06
-9.83145e-06
1.99232e-06
-1.10117e-05
2.11184e-06
-1.22543e-05
2.23039e-06
-1.35578e-05
2.34684e-06
-1.49199e-05
2.45994e-06
-1.63374e-05
2.56837e-06
-1.78066e-05
2.67071e-06
-1.93229e-05
2.76548e-06
-2.08809e-05
2.85114e-06
-2.24742e-05
2.92615e-06
-2.40958e-05
2.9889e-06
-2.57379e-05
3.03784e-06
-2.73918e-05
3.07142e-06
-2.90481e-05
3.08816e-06
-3.06967e-05
3.08663e-06
-3.2327e-05
3.06554e-06
-3.39278e-05
3.0237e-06
-3.54875e-05
2.96009e-06
-3.6994e-05
2.87385e-06
-3.84351e-05
2.76431e-06
-3.97986e-05
2.63103e-06
-4.1072e-05
2.47381e-06
-4.22434e-05
2.29265e-06
-4.33007e-05
2.08787e-06
-4.42326e-05
1.86002e-06
-4.50281e-05
1.60994e-06
-4.5677e-05
1.33876e-06
-4.61699e-05
1.04787e-06
-4.64984e-05
7.38972e-07
-4.66551e-05
4.14036e-07
-4.66341e-05
7.55876e-08
-4.64299e-05
-2.74698e-07
-4.60396e-05
-6.33402e-07
-4.54611e-05
-9.97668e-07
-4.46941e-05
-1.36439e-06
-4.37398e-05
-1.73025e-06
-4.26011e-05
-2.09177e-06
-4.12829e-05
-2.44539e-06
-3.97914e-05
-2.78748e-06
-3.8135e-05
-3.11438e-06
-3.63234e-05
-3.42249e-06
-3.43682e-05
-3.70829e-06
-3.22824e-05
-3.9684e-06
-3.00807e-05
-4.19965e-06
-2.77788e-05
-4.39914e-06
-2.53941e-05
-4.56428e-06
-2.29445e-05
-4.69289e-06
-2.0449e-05
-4.78319e-06
-1.79272e-05
-4.83392e-06
-1.5399e-05
-4.84432e-06
-1.28844e-05
-4.81421e-06
-1.04034e-05
-4.74399e-06
-7.97518e-06
-4.63464e-06
-5.61866e-06
-4.48775e-06
-3.35157e-06
-4.30547e-06
-1.19043e-06
-4.09049e-06
8.49683e-07
-3.84602e-06
2.75539e-06
-3.57567e-06
4.51516e-06
-3.28342e-06
6.11949e-06
-2.97355e-06
7.561e-06
-2.65052e-06
8.83453e-06
-2.31886e-06
9.93709e-06
-1.98312e-06
1.08679e-05
-1.64771e-06
1.16284e-05
-1.31687e-06
1.22218e-05
-9.94546e-07
1.26534e-05
-6.84296e-07
1.29301e-05
-3.89272e-07
1.30601e-05
-1.12136e-07
1.30531e-05
1.44953e-07
1.29195e-05
3.80383e-07
1.26706e-05
5.93053e-07
1.23179e-05
7.82389e-07
1.18732e-05
9.48292e-07
1.13485e-05
1.0911e-06
1.07552e-05
1.21153e-06
1.01047e-05
1.31056e-06
9.40761e-06
1.38942e-06
8.67413e-06
1.44938e-06
7.91389e-06
1.49171e-06
7.13604e-06
1.51751e-06
6.34937e-06
1.52756e-06
5.56256e-06
1.52218e-06
4.78442e-06
1.50104e-06
4.02427e-06
1.46307e-06
3.29227e-06
1.4063e-06
2.5998e-06
1.32785e-06
1.9597e-06
1.22409e-06
1.38627e-06
1.09099e-06
8.94853e-07
9.25116e-07
5.00685e-07
7.25475e-07
2.16771e-07
4.96709e-07
5.05617e-08
2.54675e-07
4.23338e-08
5.84405e-08
-1.23559e-07
1.97184e-07
-3.40565e-07
3.91423e-07
-5.07294e-07
6.20848e-07
-6.19126e-07
8.67534e-07
-6.79468e-07
1.11581e-06
-6.94816e-07
1.35235e-06
-6.72667e-07
1.56613e-06
-6.20402e-07
1.74826e-06
-5.44697e-07
1.8918e-06
-4.51284e-07
1.99144e-06
-3.44904e-07
2.04323e-06
-2.29351e-07
2.04426e-06
-1.07557e-07
1.99248e-06
1.83119e-08
1.88636e-06
1.46748e-07
1.72479e-06
2.76807e-07
1.50683e-06
4.08015e-07
1.23162e-06
5.40278e-07
8.98233e-07
6.73803e-07
5.05632e-07
8.09021e-07
5.25739e-08
9.46524e-07
-4.62407e-07
1.08699e-06
-1.04101e-06
1.23114e-06
-1.68515e-06
1.37967e-06
-2.39694e-06
1.53321e-06
-3.17864e-06
1.69227e-06
-4.0326e-06
1.85726e-06
-4.96118e-06
2.02837e-06
-5.96665e-06
2.20563e-06
-7.05117e-06
2.38886e-06
-8.21663e-06
2.57767e-06
-9.46458e-06
2.77142e-06
-1.07961e-05
2.96929e-06
-1.22119e-05
3.17019e-06
-1.37119e-05
3.37286e-06
-1.52954e-05
3.57581e-06
-1.69609e-05
3.77734e-06
-1.87061e-05
3.97557e-06
-2.05277e-05
4.16847e-06
-2.24216e-05
4.35383e-06
-2.43825e-05
4.5293e-06
-2.64043e-05
4.69246e-06
-2.84796e-05
4.84076e-06
-3.06001e-05
4.97164e-06
-3.27564e-05
5.0825e-06
-3.49383e-05
5.17076e-06
-3.71343e-05
5.2339e-06
-3.93324e-05
5.26951e-06
-4.15196e-05
5.2753e-06
-4.36821e-05
5.24916e-06
-4.58058e-05
5.18919e-06
-4.78758e-05
5.09376e-06
-4.98772e-05
4.9615e-06
-5.17947e-05
4.79136e-06
-5.36131e-05
4.58266e-06
-5.53171e-05
4.33506e-06
-5.68919e-05
4.04863e-06
-5.83231e-05
3.72381e-06
-5.95967e-05
3.36149e-06
-6.06997e-05
2.96298e-06
-6.16197e-05
2.52998e-06
-6.23456e-05
2.06465e-06
-6.28673e-05
1.56956e-06
-6.3176e-05
1.04768e-06
-6.32643e-05
5.02368e-07
-6.31266e-05
-6.2166e-08
-6.27581e-05
-6.43221e-07
-6.21565e-05
-1.23496e-06
-6.1321e-05
-1.83315e-06
-6.02526e-05
-2.43281e-06
-5.89541e-05
-3.02876e-06
-5.74302e-05
-3.61562e-06
-5.56877e-05
-4.18792e-06
-5.37351e-05
-4.74013e-06
-5.15827e-05
-5.26671e-06
-4.9243e-05
-5.76221e-06
-4.673e-05
-6.22133e-06
-4.40594e-05
-6.639e-06
-4.12485e-05
-7.01046e-06
-3.83163e-05
-7.33135e-06
-3.52828e-05
-7.59779e-06
-3.21693e-05
-7.80644e-06
-2.89978e-05
-7.95464e-06
-2.57913e-05
-8.0404e-06
-2.25731e-05
-8.06253e-06
-1.93667e-05
-8.02065e-06
-1.61954e-05
-7.91524e-06
-1.30824e-05
-7.74767e-06
-1.005e-05
-7.52019e-06
-7.11952e-06
-7.23591e-06
-4.31123e-06
-6.89878e-06
-1.64376e-06
-6.51349e-06
8.6604e-07
-6.08546e-06
3.20329e-06
-5.62067e-06
5.35532e-06
-5.12558e-06
7.31181e-06
-4.60701e-06
9.06492e-06
-4.07197e-06
1.06093e-05
-3.52754e-06
1.19423e-05
-2.9807e-06
1.30637e-05
-2.4382e-06
1.39756e-05
-1.90644e-06
1.46826e-05
-1.3913e-06
1.51913e-05
-8.98056e-07
1.55105e-05
-4.31302e-07
1.56503e-05
5.12367e-09
1.56225e-05
4.0822e-07
1.54398e-05
7.75757e-07
1.51158e-05
1.10634e-06
1.46648e-05
1.39935e-06
1.4101e-05
1.65487e-06
1.3439e-05
1.87358e-06
1.26928e-05
2.05669e-06
1.18765e-05
2.20576e-06
1.10033e-05
2.32255e-06
1.00862e-05
2.40881e-06
9.13761e-06
2.46612e-06
8.16959e-06
2.49557e-06
7.19414e-06
2.49763e-06
6.22333e-06
2.47185e-06
5.26972e-06
2.41668e-06
4.34666e-06
2.32936e-06
3.4686e-06
2.20591e-06
2.65132e-06
2.04137e-06
1.9119e-06
1.83042e-06
1.26838e-06
1.56864e-06
7.39011e-07
1.25484e-06
3.41145e-07
8.94576e-07
9.00878e-08
5.05732e-07
1.32422e-07
6.68275e-08
-1.90386e-07
2.22292e-07
-4.96029e-07
4.35286e-07
-7.20288e-07
6.81567e-07
-8.65407e-07
9.40843e-07
-9.38743e-07
1.19592e-06
-9.49889e-07
1.43231e-06
-9.09059e-07
1.638e-06
-8.26095e-07
1.8032e-06
-7.09893e-07
1.92006e-06
-5.68145e-07
1.98242e-06
-4.07268e-07
1.98551e-06
-2.32444e-07
1.92567e-06
-4.77122e-08
1.80007e-06
1.43916e-07
1.60649e-06
3.40326e-07
1.34312e-06
5.4017e-07
1.00839e-06
7.42751e-07
6.00774e-07
9.47893e-07
1.18736e-07
1.15584e-06
-4.39392e-07
1.36715e-06
-1.07545e-06
1.58258e-06
-1.7915e-06
1.80304e-06
-2.58978e-06
2.02943e-06
-3.47276e-06
2.26265e-06
-4.44301e-06
2.50346e-06
-5.50322e-06
2.75248e-06
-6.65607e-06
3.0101e-06
-7.90412e-06
3.27643e-06
-9.24979e-06
3.5513e-06
-1.06952e-05
3.83424e-06
-1.22419e-05
4.12444e-06
-1.38913e-05
4.42074e-06
-1.56436e-05
4.72167e-06
-1.74988e-05
5.0254e-06
-1.94558e-05
5.32981e-06
-2.15124e-05
5.63246e-06
-2.36657e-05
5.93062e-06
-2.59115e-05
6.22132e-06
-2.82444e-05
6.50135e-06
-3.06578e-05
6.76729e-06
-3.31441e-05
7.01558e-06
-3.56942e-05
7.24253e-06
-3.82978e-05
7.44439e-06
-4.09435e-05
7.61739e-06
-4.36188e-05
7.7578e-06
-4.63101e-05
7.86199e-06
-4.90026e-05
7.92647e-06
-5.16811e-05
7.94796e-06
-5.43292e-05
7.92345e-06
-5.69303e-05
7.85025e-06
-5.94672e-05
7.72605e-06
-6.19223e-05
7.54892e-06
-6.42783e-05
7.31743e-06
-6.65175e-05
7.0306e-06
-6.86229e-05
6.688e-06
-7.05775e-05
6.28972e-06
-7.23653e-05
5.83639e-06
-7.39707e-05
5.32925e-06
-7.53793e-05
4.77005e-06
-7.65774e-05
4.16115e-06
-7.75529e-05
3.50543e-06
-7.82946e-05
2.80635e-06
-7.87929e-05
2.06788e-06
-7.90397e-05
1.29451e-06
-7.90286e-05
4.91262e-07
-7.87543e-05
-3.36527e-07
-7.82142e-05
-1.18334e-06
-7.74066e-05
-2.04248e-06
-7.63323e-05
-2.90753e-06
-7.49934e-05
-3.77167e-06
-7.33944e-05
-4.62779e-06
-7.15414e-05
-5.46863e-06
-6.94425e-05
-6.28679e-06
-6.71078e-05
-7.07482e-06
-6.45492e-05
-7.82532e-06
-6.17804e-05
-8.53099e-06
-5.8817e-05
-9.18475e-06
-5.56762e-05
-9.77983e-06
-5.23768e-05
-1.03099e-05
-4.89391e-05
-1.0769e-05
-4.5385e-05
-1.1152e-05
-4.17372e-05
-1.14543e-05
-3.80195e-05
-1.16723e-05
-3.42568e-05
-1.18031e-05
-3.04742e-05
-1.18451e-05
-2.66973e-05
-1.17976e-05
-2.29517e-05
-1.16609e-05
-1.92627e-05
-1.14367e-05
-1.56551e-05
-1.11278e-05
-1.21529e-05
-1.07381e-05
-8.77904e-06
-1.02727e-05
-5.55486e-06
-9.73768e-06
-2.5001e-06
-9.14022e-06
3.67476e-07
-8.48825e-06
3.03233e-06
-7.79044e-06
5.4813e-06
-7.05597e-06
7.70377e-06
-6.29445e-06
9.69185e-06
-5.51561e-06
1.14404e-05
-4.7292e-06
1.29469e-05
-3.94474e-06
1.42118e-05
-3.17134e-06
1.5238e-05
-2.41753e-06
1.60311e-05
-1.69109e-06
1.65987e-05
-9.98945e-07
1.69508e-05
-3.47004e-07
1.70992e-05
2.59883e-07
1.7057e-05
8.1797e-07
1.68387e-05
1.32462e-06
1.64597e-05
1.77829e-06
1.59362e-05
2.17844e-06
1.52843e-05
2.52543e-06
1.45206e-05
2.82038e-06
1.36614e-05
3.06497e-06
1.27227e-05
3.26123e-06
1.17203e-05
3.41127e-06
1.06694e-05
3.517e-06
9.58515e-06
3.57982e-06
8.48247e-06
3.60031e-06
7.3764e-06
3.57792e-06
6.28236e-06
3.51072e-06
5.21644e-06
3.39527e-06
4.19571e-06
3.22664e-06
3.23838e-06
2.9987e-06
2.36391e-06
2.70489e-06
1.59293e-06
2.33962e-06
9.47122e-07
1.90065e-06
4.49184e-07
1.39251e-06
1.23546e-07
8.3137e-07
2.55968e-07
6.99817e-08
-2.60367e-07
2.31034e-07
-6.57082e-07
4.48006e-07
-9.3726e-07
6.93714e-07
-1.11111e-06
9.46015e-07
-1.19104e-06
1.18658e-06
-1.19046e-06
1.40019e-06
-1.12267e-06
1.57423e-06
-1.00014e-06
1.69836e-06
-8.34023e-07
1.76418e-06
-6.3396e-07
1.76492e-06
-4.08008e-07
1.69517e-06
-1.62694e-07
1.55059e-06
9.68661e-08
1.32767e-06
3.66839e-07
1.02348e-06
6.44516e-07
6.3549e-07
9.28156e-07
1.61408e-07
1.21683e-06
-4.00986e-07
1.51029e-06
-1.05393e-06
1.80878e-06
-1.79976e-06
2.11298e-06
-2.64096e-06
2.42379e-06
-3.58019e-06
2.74226e-06
-4.62024e-06
3.06948e-06
-5.76404e-06
3.40644e-06
-7.01457e-06
3.75399e-06
-8.37477e-06
4.11269e-06
-9.84749e-06
4.48282e-06
-1.14353e-05
4.86425e-06
-1.31405e-05
5.25648e-06
-1.49648e-05
5.65851e-06
-1.69092e-05
6.06892e-06
-1.89743e-05
6.48582e-06
-2.11595e-05
6.90682e-06
-2.34632e-05
7.32914e-06
-2.58829e-05
7.74951e-06
-2.84148e-05
8.1643e-06
-3.10537e-05
8.56951e-06
-3.37931e-05
8.96081e-06
-3.66254e-05
9.33359e-06
-3.95411e-05
9.68305e-06
-4.25298e-05
1.00042e-05
-4.55793e-05
1.02921e-05
-4.86764e-05
1.05415e-05
-5.18065e-05
1.07475e-05
-5.49539e-05
1.09052e-05
-5.81019e-05
1.101e-05
-6.12331e-05
1.10576e-05
-6.4329e-05
1.10439e-05
-6.7371e-05
1.09654e-05
-7.03399e-05
1.08192e-05
-7.32165e-05
1.06026e-05
-7.59815e-05
1.03139e-05
-7.8616e-05
9.95186e-06
-8.11012e-05
9.51585e-06
-8.34192e-05
9.00604e-06
-8.55528e-05
8.42328e-06
-8.74855e-05
7.7691e-06
-8.9202e-05
7.04576e-06
-9.06882e-05
6.25621e-06
-9.19311e-05
5.40404e-06
-9.29192e-05
4.49354e-06
-9.36424e-05
3.52961e-06
-9.40923e-05
2.51774e-06
-9.42618e-05
1.46403e-06
-9.41458e-05
3.75227e-07
-9.37403e-05
-7.42055e-07
-9.30437e-05
-1.87993e-06
-9.20558e-05
-3.03037e-06
-9.07782e-05
-4.18509e-06
-8.92144e-05
-5.33545e-06
-8.73697e-05
-6.47254e-06
-8.5251e-05
-7.58726e-06
-8.28674e-05
-8.6704e-06
-8.02296e-05
-9.71269e-06
-7.735e-05
-1.07049e-05
-7.42429e-05
-1.1638e-05
-7.09245e-05
-1.25032e-05
-6.74124e-05
-1.32919e-05
-6.37259e-05
-1.39963e-05
-5.98859e-05
-1.4609e-05
-5.59146e-05
-1.51232e-05
-5.18356e-05
-1.55333e-05
-4.76733e-05
-1.58345e-05
-4.34534e-05
-1.6023e-05
-3.92021e-05
-1.60964e-05
-3.49461e-05
-1.60536e-05
-3.07123e-05
-1.58947e-05
-2.65277e-05
-1.56213e-05
-2.24187e-05
-1.52367e-05
-1.84113e-05
-1.47454e-05
-1.45305e-05
-1.41535e-05
-1.08e-05
-1.34682e-05
-7.24196e-06
-1.26983e-05
-3.87668e-06
-1.18535e-05
-7.22445e-07
-1.09447e-05
2.20488e-06
-9.9833e-06
4.89193e-06
-8.98149e-06
7.32804e-06
-7.95172e-06
9.50539e-06
-6.90655e-06
1.1419e-05
-5.85839e-06
1.3067e-05
-4.81926e-06
1.445e-05
-3.80055e-06
1.55717e-05
-2.81284e-06
1.64384e-05
-1.86567e-06
1.70588e-05
-9.67387e-07
1.74438e-05
-1.25073e-07
1.76061e-05
6.55617e-07
1.75604e-05
1.37039e-06
1.73223e-05
2.01637e-06
1.69087e-05
2.59201e-06
1.63372e-05
3.09696e-06
1.56257e-05
3.5319e-06
1.47923e-05
3.89833e-06
1.38552e-05
4.19829e-06
1.28325e-05
4.43401e-06
1.17419e-05
4.6076e-06
1.06011e-05
4.72063e-06
9.42764e-06
4.77375e-06
8.23923e-06
4.76633e-06
7.05382e-06
4.69613e-06
5.88995e-06
4.55914e-06
4.767e-06
4.34959e-06
3.70544e-06
4.06026e-06
2.72705e-06
3.68328e-06
1.8552e-06
3.21147e-06
1.1153e-06
2.64054e-06
5.35724e-07
1.97209e-06
1.49657e-07
1.21744e-06
4.05625e-07
6.8937e-08
-3.29304e-07
2.2574e-07
-8.13885e-07
4.33145e-07
-1.14467e-06
6.6216e-07
-1.34013e-06
8.89449e-07
-1.41833e-06
1.09598e-06
-1.39699e-06
1.26612e-06
-1.29281e-06
1.38699e-06
-1.121e-06
1.44796e-06
-8.94999e-07
1.44033e-06
-6.26324e-07
1.35691e-06
-3.24594e-07
1.19182e-06
2.40146e-09
9.40131e-07
3.48553e-07
5.97697e-07
7.09273e-07
1.60906e-07
1.08131e-06
-3.7349e-07
1.46255e-06
-1.00853e-06
1.85187e-06
-1.74718e-06
2.24893e-06
-2.59238e-06
2.65399e-06
-3.54717e-06
3.06777e-06
-4.61467e-06
3.49129e-06
-5.79811e-06
3.9257e-06
-7.10079e-06
4.37216e-06
-8.52601e-06
4.83167e-06
-1.0077e-05
5.305e-06
-1.17569e-05
5.79256e-06
-1.35684e-05
6.29432e-06
-1.55139e-05
6.80975e-06
-1.75952e-05
7.33775e-06
-1.98133e-05
7.87663e-06
-2.21685e-05
8.4241e-06
-2.46599e-05
8.97724e-06
-2.72856e-05
9.53256e-06
-3.00425e-05
1.0086e-05
-3.29259e-05
1.06329e-05
-3.59298e-05
1.11682e-05
-3.90468e-05
1.16865e-05
-4.22677e-05
1.21817e-05
-4.5582e-05
1.26479e-05
-4.89774e-05
1.30785e-05
-5.24404e-05
1.34672e-05
-5.5956e-05
1.38076e-05
-5.95077e-05
1.40932e-05
-6.30782e-05
1.4318e-05
-6.66489e-05
1.44759e-05
-7.02006e-05
1.45617e-05
-7.37133e-05
1.45702e-05
-7.71666e-05
1.44972e-05
-8.05399e-05
1.43388e-05
-8.38126e-05
1.40919e-05
-8.69644e-05
1.37544e-05
-8.99751e-05
1.33247e-05
-9.28254e-05
1.28021e-05
-9.54965e-05
1.21869e-05
-9.79705e-05
1.14801e-05
-0.000100231
1.06835e-05
-0.000102262
9.79989e-06
-0.000104049
8.83269e-06
-0.000105579
7.7862e-06
-0.00010684
6.66542e-06
-0.000107822
5.47607e-06
-0.000108517
4.22453e-06
-0.000108917
2.91783e-06
-0.000109017
1.56358e-06
-0.000108812
1.70379e-07
-0.0001083
-1.25434e-06
-0.00010748
-2.70025e-06
-0.000106352
-4.1581e-06
-0.000104919
-5.61794e-06
-0.000103185
-7.06948e-06
-0.000101155
-8.50215e-06
-9.88374e-05
-9.90517e-06
-9.62401e-05
-1.12676e-05
-9.33742e-05
-1.25786e-05
-9.0252e-05
-1.38271e-05
-8.68875e-05
-1.50025e-05
-8.32966e-05
-1.60941e-05
-7.94965e-05
-1.7092e-05
-7.55065e-05
-1.79864e-05
-7.1347e-05
-1.87684e-05
-6.70403e-05
-1.943e-05
-6.26096e-05
-1.9964e-05
-5.80799e-05
-2.03643e-05
-5.34767e-05
-2.06261e-05
-4.8827e-05
-2.07462e-05
-4.4158e-05
-2.07226e-05
-3.94975e-05
-2.05551e-05
-3.48737e-05
-2.02452e-05
-3.03143e-05
-1.97961e-05
-2.5847e-05
-1.92127e-05
-2.14986e-05
-1.85019e-05
-1.72947e-05
-1.76721e-05
-1.32598e-05
-1.67332e-05
-9.41667e-06
-1.56966e-05
-5.78611e-06
-1.45752e-05
-2.38668e-06
-1.33827e-05
7.65501e-07
-1.21337e-05
3.657e-06
-1.08432e-05
6.2772e-06
-9.52675e-06
8.61844e-06
-8.19963e-06
1.06761e-05
-6.87689e-06
1.24485e-05
-5.57296e-06
1.3937e-05
-4.30138e-06
1.51459e-05
-3.07456e-06
1.60821e-05
-1.90362e-06
1.67552e-05
-7.98137e-07
1.71769e-05
2.33901e-07
1.73611e-05
1.18621e-06
1.73233e-05
2.05418e-06
1.70805e-05
2.83484e-06
1.66507e-05
3.52673e-06
1.60529e-05
4.12974e-06
1.53064e-05
4.64484e-06
1.44309e-05
5.07373e-06
1.34464e-05
5.41854e-06
1.23726e-05
5.68134e-06
1.12295e-05
5.86374e-06
1.00369e-05
5.96636e-06
8.81479e-06
5.98846e-06
7.58341e-06
5.92751e-06
6.36357e-06
5.77899e-06
5.17681e-06
5.53634e-06
4.0458e-06
5.19127e-06
2.99469e-06
4.7344e-06
2.04969e-06
4.15647e-06
1.24002e-06
3.45022e-06
5.99373e-07
2.61274e-06
1.68433e-07
1.64838e-06
5.74058e-07
6.44888e-08
-3.93793e-07
2.08458e-07
-9.57853e-07
3.94041e-07
-1.33025e-06
5.91522e-07
-1.53761e-06
7.77085e-07
-1.6039e-06
9.3148e-07
-1.55139e-06
1.03902e-06
-1.40034e-06
1.0868e-06
-1.16879e-06
1.0642e-06
-8.72393e-07
9.62346e-07
-5.24474e-07
7.73841e-07
-1.36088e-07
4.92404e-07
2.83837e-07
1.12642e-07
7.28316e-07
-3.70186e-07
1.1921e-06
-9.60349e-07
1.67147e-06
-1.66181e-06
2.16401e-06
-2.47834e-06
2.6684e-06
-3.41363e-06
3.18422e-06
-4.47136e-06
3.71172e-06
-5.65525e-06
4.25165e-06
-6.969e-06
4.80505e-06
-8.41638e-06
5.37308e-06
-1.00011e-05
5.95685e-06
-1.17266e-05
6.55725e-06
-1.35965e-05
7.1748e-06
-1.56135e-05
7.80958e-06
-1.77802e-05
8.46104e-06
-2.00984e-05
9.128e-06
-2.25692e-05
9.80854e-06
-2.51926e-05
1.05e-05
-2.79675e-05
1.1199e-05
-3.08915e-05
1.19013e-05
-3.39609e-05
1.2602e-05
-3.71705e-05
1.32955e-05
-4.05132e-05
1.39757e-05
-4.39806e-05
1.46357e-05
-4.75625e-05
1.52684e-05
-5.1247e-05
1.58662e-05
-5.50205e-05
1.64214e-05
-5.8868e-05
1.69259e-05
-6.27728e-05
1.7372e-05
-6.6717e-05
1.77519e-05
-7.06818e-05
1.8058e-05
-7.4647e-05
1.82832e-05
-7.85919e-05
1.84208e-05
-8.24952e-05
1.8465e-05
-8.63353e-05
1.84104e-05
-9.00905e-05
1.82525e-05
-9.37394e-05
1.79877e-05
-9.72608e-05
1.76133e-05
-0.000100634
1.71276e-05
-0.000103839
1.65298e-05
-0.000106857
1.58202e-05
-0.00010967
1.5e-05
-0.000112262
1.40714e-05
-0.000114615
1.30373e-05
-0.000116717
1.1902e-05
-0.000118555
1.067e-05
-0.000120116
9.34718e-06
-0.00012139
7.93983e-06
-0.000122369
6.45509e-06
-0.000123045
4.90073e-06
-0.000123413
3.28519e-06
-0.000123467
1.61741e-06
-0.000123204
-9.2298e-08
-0.000122622
-1.83585e-06
-0.000121722
-3.60074e-06
-0.000120503
-5.37667e-06
-0.000118969
-7.15222e-06
-0.000117123
-8.91565e-06
-0.00011497
-1.06549e-05
-0.000112518
-1.23577e-05
-0.000109774
-1.40116e-05
-0.000106748
-1.5604e-05
-0.000103453
-1.71225e-05
-9.99009e-05
-1.85545e-05
-9.61071e-05
-1.9888e-05
-9.2088e-05
-2.1111e-05
-8.7862e-05
-2.22124e-05
-8.34488e-05
-2.31816e-05
-7.88699e-05
-2.40089e-05
-7.41484e-05
-2.46855e-05
-6.93088e-05
-2.5204e-05
-6.43766e-05
-2.55583e-05
-5.93789e-05
-2.57439e-05
-5.43434e-05
-2.57581e-05
-4.92986e-05
-2.55999e-05
-4.42736e-05
-2.52703e-05
-3.92973e-05
-2.47723e-05
-3.43989e-05
-2.41112e-05
-2.96068e-05
-2.3294e-05
-2.49488e-05
-2.23301e-05
-2.04515e-05
-2.12305e-05
-1.614e-05
-2.00081e-05
-1.20377e-05
-1.86776e-05
-8.1658e-06
-1.72546e-05
-4.54321e-06
-1.57563e-05
-1.18619e-06
-1.42002e-05
1.89182e-06
-1.26048e-05
4.68033e-06
-1.09881e-05
7.17195e-06
-9.36851e-06
9.36242e-06
-7.76343e-06
1.12506e-05
-6.18956e-06
1.28385e-05
-4.66243e-06
1.4131e-05
-3.1961e-06
1.51358e-05
-1.80298e-06
1.58634e-05
-4.93656e-07
1.63264e-05
7.23202e-07
1.65396e-05
1.84092e-06
1.65198e-05
2.8547e-06
1.62849e-05
3.76162e-06
1.58542e-05
4.56038e-06
1.52481e-05
5.25102e-06
1.44871e-05
5.83465e-06
1.35927e-05
6.31294e-06
1.25864e-05
6.68771e-06
1.14897e-05
6.96039e-06
1.03246e-05
7.13145e-06
9.11313e-06
7.19995e-06
7.87758e-06
7.16306e-06
6.64084e-06
7.01573e-06
5.42656e-06
6.75063e-06
4.25956e-06
6.35827e-06
3.16639e-06
5.82757e-06
2.17609e-06
5.14677e-06
1.32143e-06
4.30488e-06
6.40686e-07
3.29347e-06
1.80364e-07
2.1087e-06
7.54422e-07
5.71896e-08
-4.50983e-07
1.80773e-07
-1.08144e-06
3.33442e-07
-1.48292e-06
4.8572e-07
-1.68989e-06
6.14033e-07
-1.73221e-06
6.99424e-07
-1.63678e-06
7.26517e-07
-1.42744e-06
6.82702e-07
-1.12497e-06
5.57509e-07
-7.472e-07
3.42128e-07
-3.09093e-07
2.90322e-08
1.77008e-07
-3.88327e-07
7.01196e-07
-9.15763e-07
1.25575e-06
-1.55855e-06
1.83489e-06
-2.32159e-06
2.43451e-06
-3.20952e-06
3.05194e-06
-4.22685e-06
3.68573e-06
-5.37797e-06
4.33534e-06
-6.66725e-06
5.00101e-06
-8.09903e-06
5.68342e-06
-9.67755e-06
6.38358e-06
-1.1407e-05
7.10252e-06
-1.32913e-05
7.84117e-06
-1.53342e-05
8.60011e-06
-1.75388e-05
9.37945e-06
-1.99079e-05
1.01787e-05
-2.24434e-05
1.09965e-05
-2.51462e-05
1.18308e-05
-2.80163e-05
1.26786e-05
-3.10523e-05
1.3536e-05
-3.42515e-05
1.43982e-05
-3.76097e-05
1.52594e-05
-4.11208e-05
1.61131e-05
-4.47772e-05
1.69519e-05
-4.85695e-05
1.77679e-05
-5.24863e-05
1.85524e-05
-5.65145e-05
1.92966e-05
-6.06394e-05
1.99911e-05
-6.48445e-05
2.06265e-05
-6.91119e-05
2.11934e-05
-7.34224e-05
2.16825e-05
-7.77555e-05
2.20851e-05
-8.20902e-05
2.23926e-05
-8.64043e-05
2.25973e-05
-9.06757e-05
2.26922e-05
-9.48817e-05
2.2671e-05
-9.9e-05
2.25287e-05
-0.000103008
2.22609e-05
-0.000106886
2.18647e-05
-0.00011061
2.13381e-05
-0.000114163
2.06802e-05
-0.000117524
1.98913e-05
-0.000120677
1.89727e-05
-0.000123604
1.7927e-05
-0.00012629
1.67574e-05
-0.000128721
1.54685e-05
-0.000130885
1.40655e-05
-0.000132769
1.25546e-05
-0.000134365
1.09427e-05
-0.000135663
9.23747e-06
-0.000136655
7.44726e-06
-0.000137335
5.58109e-06
-0.000137698
3.64856e-06
-0.000137741
1.65989e-06
-0.000137459
-3.73981e-07
-0.000136852
-2.44267e-06
-0.00013592
-4.5336e-06
-0.000134661
-6.63484e-06
-0.00013308
-8.73381e-06
-0.000131178
-1.08175e-05
-0.00012896
-1.28726e-05
-0.000126433
-1.48854e-05
-0.000123602
-1.6842e-05
-0.000120478
-1.87285e-05
-0.000117069
-2.05307e-05
-0.000113389
-2.22347e-05
-0.000109451
-2.38264e-05
-0.000105269
-2.52925e-05
-0.000100862
-2.66199e-05
-9.62471e-05
-2.77963e-05
-9.14458e-05
-2.88101e-05
-8.64802e-05
-2.9651e-05
-8.13742e-05
-3.03099e-05
-7.61533e-05
-3.07792e-05
-7.08443e-05
-3.1053e-05
-6.54752e-05
-3.11271e-05
-6.00752e-05
-3.09998e-05
-5.46742e-05
-3.06713e-05
-4.93023e-05
-3.01442e-05
-4.39902e-05
-2.94233e-05
-3.8768e-05
-2.85162e-05
-3.36655e-05
-2.74326e-05
-2.87115e-05
-2.61844e-05
-2.39337e-05
-2.4786e-05
-1.93579e-05
-2.32533e-05
-1.50082e-05
-2.16043e-05
-1.09063e-05
-1.98582e-05
-7.07138e-06
-1.80352e-05
-3.51973e-06
-1.61564e-05
-2.64761e-07
-1.42431e-05
2.68332e-06
-1.23166e-05
5.3175e-06
-1.03976e-05
7.63407e-06
-8.50613e-06
9.63256e-06
-6.66093e-06
1.13157e-05
-4.87924e-06
1.26893e-05
-3.17655e-06
1.37619e-05
-1.56631e-06
1.45451e-05
-5.99327e-08
1.50524e-05
1.3336e-06
1.52998e-05
2.60726e-06
1.53052e-05
3.75629e-06
1.50877e-05
4.77785e-06
1.4668e-05
5.67075e-06
1.40675e-05
6.43508e-06
1.33087e-05
7.07181e-06
1.24142e-05
7.5822e-06
1.14073e-05
7.9673e-06
1.03115e-05
8.22726e-06
9.1506e-06
8.36081e-06
7.94893e-06
8.36473e-06
6.73126e-06
8.2334e-06
5.52327e-06
7.95862e-06
4.35191e-06
7.52963e-06
3.24606e-06
6.93342e-06
2.23741e-06
6.15542e-06
1.36181e-06
5.18048e-06
6.61198e-07
3.99409e-06
1.86106e-07
2.58379e-06
9.40528e-07
4.73982e-08
-4.98382e-07
1.43829e-07
-1.17787e-06
2.5345e-07
-1.59254e-06
3.47885e-07
-1.78432e-06
4.04487e-07
-1.78881e-06
4.05116e-07
-1.6374e-06
3.35097e-07
-1.35742e-06
1.82383e-07
-9.7226e-07
-6.31119e-08
-5.01705e-07
-4.10005e-07
3.77992e-08
-8.65831e-07
6.32834e-07
-1.43733e-06
1.2727e-06
-2.13069e-06
1.9491e-06
-2.95166e-06
2.65586e-06
-3.90574e-06
3.38859e-06
-4.99823e-06
4.14443e-06
-6.23431e-06
4.9218e-06
-7.61905e-06
5.72009e-06