/*--------------------------------*- C++ -*----------------------------------*\
| =========                 |                                                 |
| \\      /  F ield         | OpenFOAM: The Open Source CFD Toolbox           |
|  \\    /   O peration     | Version:  2112                                  |
|   \\  /    A nd           | Website:  www.openfoam.com                      |
|    \\/     M anipulation  |                                                 |
\*---------------------------------------------------------------------------*/
FoamFile
{
    version     2.0;
    format      ascii;
    arch        "LSB;label=32;scalar=64";
    class       volVectorField;
    location    "22";
    object      U;
}
// * * * * * * * * * * * * * * * * * * * * * * * * * * * * * * * * * * * * * //

dimensions      [0 1 -1 0 0 0 0];

internalField   nonuniform List<vector> 
16641
(
(-4.62905e-06 4.57098e-06 0)
(6.4099e-06 -6.36238e-06 0)
(5.11005e-05 -1.76543e-05 0)
(0.000118273 -2.49696e-05 0)
(0.000199512 -2.88184e-05 0)
(0.000287462 -3.01369e-05 0)
(0.000376273 -2.96903e-05 0)
(0.000461639 -2.80559e-05 0)
(0.000540504 -2.56486e-05 0)
(0.000610755 -2.27626e-05 0)
(0.000670992 -1.96061e-05 0)
(0.000720351 -1.63276e-05 0)
(0.000758364 -1.30304e-05 0)
(0.000784847 -9.78226e-06 0)
(0.0007998 -6.62482e-06 0)
(0.000803345 -3.58057e-06 0)
(0.000795654 -6.48118e-07 0)
(0.000776907 2.18143e-06 0)
(0.00074725 4.92832e-06 0)
(0.000706769 7.62071e-06 0)
(0.000655468 1.02912e-05 0)
(0.000593255 1.29757e-05 0)
(0.000519934 1.57118e-05 0)
(0.000435207 1.85361e-05 0)
(0.000338672 2.14833e-05 0)
(0.000229837 2.45856e-05 0)
(0.000108128 2.78711e-05 0)
(-2.70969e-05 3.13633e-05 0)
(-0.000176529 3.50808e-05 0)
(-0.000340892 3.9037e-05 0)
(-0.000520921 4.32398e-05 0)
(-0.000717345 4.76915e-05 0)
(-0.000930868 5.23887e-05 0)
(-0.00116214 5.73228e-05 0)
(-0.00141176 6.24795e-05 0)
(-0.00168021 6.78386e-05 0)
(-0.00196789 7.33743e-05 0)
(-0.00227507 7.90553e-05 0)
(-0.00260185 8.48443e-05 0)
(-0.00294821 9.06978e-05 0)
(-0.00331389 9.65661e-05 0)
(-0.00369846 0.000102394 0)
(-0.00410126 0.000108119 0)
(-0.00452141 0.000113673 0)
(-0.00495774 0.000118983 0)
(-0.00540886 0.00012397 0)
(-0.00587309 0.00012855 0)
(-0.00634846 0.000132637 0)
(-0.00683273 0.00013614 0)
(-0.00732338 0.000138965 0)
(-0.00781761 0.000141021 0)
(-0.00831234 0.000142214 0)
(-0.00880425 0.000142453 0)
(-0.00928978 0.000141651 0)
(-0.00976516 0.000139728 0)
(-0.0102264 0.000136607 0)
(-0.0106694 0.000132223 0)
(-0.01109 0.000126521 0)
(-0.0114837 0.000119459 0)
(-0.0118463 0.000111008 0)
(-0.0121735 0.000101156 0)
(-0.0124611 8.99085e-05 0)
(-0.0127048 7.72904e-05 0)
(-0.0129008 6.33468e-05 0)
(-0.0130454 4.81439e-05 0)
(-0.0131353 3.17504e-05 0)
(-0.0131676 1.42557e-05 0)
(-0.0131396 -3.9151e-06 0)
(-0.0130493 -2.29217e-05 0)
(-0.0128951 -4.25406e-05 0)
(-0.0126764 -6.25305e-05 0)
(-0.0123928 -8.26606e-05 0)
(-0.0120449 -0.000102691 0)
(-0.0116338 -0.000122368 0)
(-0.0111614 -0.000141432 0)
(-0.0106306 -0.000159616 0)
(-0.0100447 -0.000176655 0)
(-0.00940801 -0.000192289 0)
(-0.00872543 -0.00020627 0)
(-0.00800255 -0.00021837 0)
(-0.00724556 -0.000228381 0)
(-0.00646117 -0.000236128 0)
(-0.00565654 -0.000241471 0)
(-0.00483915 -0.00024431 0)
(-0.00401671 -0.000244587 0)
(-0.003197 -0.000242295 0)
(-0.00238778 -0.000237472 0)
(-0.00159663 -0.000230206 0)
(-0.000830842 -0.000220633 0)
(-9.72561e-05 -0.000208935 0)
(0.000597814 -0.000195332 0)
(0.00124872 -0.000180073 0)
(0.00185058 -0.000163445 0)
(0.00239932 -0.000145751 0)
(0.00289173 -0.000127304 0)
(0.00332553 -0.000108421 0)
(0.00369936 -8.94142e-05 0)
(0.00401277 -7.05823e-05 0)
(0.00426615 -5.22029e-05 0)
(0.00446075 -3.45266e-05 0)
(0.00459854 -1.77724e-05 0)
(0.00468215 -2.12302e-06 0)
(0.0047148 1.22765e-05 0)
(0.00470013 2.532e-05 0)
(0.00464215 3.6941e-05 0)
(0.00454509 4.71099e-05 0)
(0.00441335 5.58313e-05 0)
(0.0042513 6.31412e-05 0)
(0.00406331 6.91033e-05 0)
(0.00385356 7.38039e-05 0)
(0.00362602 7.73473e-05 0)
(0.00338443 7.98505e-05 0)
(0.00313219 8.14369e-05 0)
(0.00287238 8.22305e-05 0)
(0.00260777 8.23481e-05 0)
(0.00234084 8.18912e-05 0)
(0.00207385 8.0936e-05 0)
(0.00180887 7.95213e-05 0)
(0.00154798 7.76345e-05 0)
(0.00129339 7.5194e-05 0)
(0.00104765 7.2028e-05 0)
(0.000813894 6.78502e-05 0)
(0.000596155 6.22316e-05 0)
(0.000399636 5.45789e-05 0)
(0.000230994 4.41557e-05 0)
(9.82423e-05 3.0262e-05 0)
(9.79567e-06 1.28089e-05 0)
(-2.73916e-05 -6.00747e-06 0)
(-1.62307e-05 -1.62671e-05 0)
(6.30753e-06 -6.40369e-06 0)
(5.89564e-05 -5.89575e-05 0)
(0.00017844 -0.000107642 0)
(0.000342414 -0.000141186 0)
(0.000534313 -0.000160098 0)
(0.000739979 -0.000166961 0)
(0.000946963 -0.000164487 0)
(0.00114522 -0.000155075 0)
(0.00132707 -0.00014068 0)
(0.00148683 -0.000122835 0)
(0.00162044 -0.000102718 0)
(0.00172511 -8.12205e-05 0)
(0.00179909 -5.89967e-05 0)
(0.00184133 -3.65068e-05 0)
(0.00185128 -1.4053e-05 0)
(0.00182877 8.20036e-06 0)
(0.00177379 3.01807e-05 0)
(0.00168638 5.19054e-05 0)
(0.00156654 7.34583e-05 0)
(0.00141417 9.49707e-05 0)
(0.00122898 0.000116607 0)
(0.00101049 0.000138553 0)
(0.000757981 0.000161003 0)
(0.000470518 0.000184148 0)
(0.000146932 0.00020817 0)
(-0.000214139 0.000233231 0)
(-0.000614229 0.000259468 0)
(-0.001055 0.000286988 0)
(-0.00153819 0.000315866 0)
(-0.0020656 0.000346137 0)
(-0.00263896 0.000377801 0)
(-0.00325998 0.000410818 0)
(-0.00393021 0.000445108 0)
(-0.004651 0.000480553 0)
(-0.00542348 0.000516994 0)
(-0.00624846 0.000554232 0)
(-0.00712641 0.000592033 0)
(-0.00805737 0.00063012 0)
(-0.00904094 0.000668181 0)
(-0.0100762 0.000705868 0)
(-0.0111617 0.000742795 0)
(-0.0122953 0.000778544 0)
(-0.0134743 0.000812667 0)
(-0.0146954 0.000844685 0)
(-0.0159544 0.000874098 0)
(-0.0172467 0.000900385 0)
(-0.0185667 0.000923012 0)
(-0.0199082 0.000941439 0)
(-0.0212643 0.000955123 0)
(-0.0226275 0.000963531 0)
(-0.0239894 0.000966145 0)
(-0.0253413 0.000962471 0)
(-0.0266737 0.000952048 0)
(-0.0279768 0.000934459 0)
(-0.0292403 0.000909335 0)
(-0.0304537 0.000876372 0)
(-0.031606 0.000835334 0)
(-0.0326865 0.00078606 0)
(-0.0336842 0.000728481 0)
(-0.0345884 0.000662615 0)
(-0.0353884 0.000588584 0)
(-0.0360743 0.000506613 0)
(-0.0366364 0.00041704 0)
(-0.0370657 0.000320314 0)
(-0.0373542 0.000216997 0)
(-0.0374946 0.000107742 0)
(-0.0374807 -6.71657e-06 0)
(-0.0373075 -0.000125073 0)
(-0.0369714 -0.000246661 0)
(-0.03647 -0.000370351 0)
(-0.0358027 -0.0004949 0)
(-0.0349702 -0.000619012 0)
(-0.0339749 -0.000741334 0)
(-0.0328211 -0.000860473 0)
(-0.0315146 -0.000975007 0)
(-0.030063 -0.00108351 0)
(-0.0284756 -0.00118459 0)
(-0.0267631 -0.00127688 0)
(-0.0249382 -0.00135909 0)
(-0.0230147 -0.00143007 0)
(-0.0210078 -0.00148874 0)
(-0.0189339 -0.00153422 0)
(-0.0168101 -0.00156579 0)
(-0.0146546 -0.00158294 0)
(-0.0124858 -0.00158539 0)
(-0.0103223 -0.00157308 0)
(-0.0081827 -0.0015462 0)
(-0.00608536 -0.00150519 0)
(-0.00404787 -0.00145073 0)
(-0.00208696 -0.00138371 0)
(-0.000218209 -0.00130527 0)
(0.00154423 -0.00121671 0)
(0.00318783 -0.0011195 0)
(0.00470187 -0.00101522 0)
(0.0060776 -0.000905562 0)
(0.0073083 -0.000792239 0)
(0.00838938 -0.000676978 0)
(0.00931836 -0.000561464 0)
(0.0100949 -0.000447305 0)
(0.0107205 -0.000335998 0)
(0.0111986 -0.000228895 0)
(0.0115346 -0.00012718 0)
(0.011735 -3.18485e-05 0)
(0.0118078 5.63032e-05 0)
(0.0117621 0.000136685 0)
(0.0116076 0.000208913 0)
(0.0113547 0.000272798 0)
(0.0110142 0.000328337 0)
(0.0105967 0.000375697 0)
(0.0101129 0.000415186 0)
(0.00957309 0.000447236 0)
(0.00898711 0.000472365 0)
(0.00836423 0.000491146 0)
(0.00771308 0.000504168 0)
(0.00704167 0.000511992 0)
(0.00635741 0.0005151 0)
(0.00566722 0.00051384 0)
(0.00497778 0.000508364 0)
(0.00429575 0.000498558 0)
(0.00362809 0.000483969 0)
(0.00298255 0.000463739 0)
(0.00236804 0.000436539 0)
(0.00179513 0.000400555 0)
(0.00127635 0.00035356 0)
(0.000826293 0.000293248 0)
(0.00046074 0.000218173 0)
(0.000194334 0.0001298 0)
(3.79893e-05 3.72679e-05 0)
(-5.7991e-06 -2.74502e-05 0)
(1.7745e-05 -5.11394e-05 0)
(0.000108096 -0.00017852 0)
(0.000287297 -0.000286567 0)
(0.00052141 -0.000361945 0)
(0.000788143 -0.000405004 0)
(0.00106966 -0.000419982 0)
(0.00134979 -0.000412093 0)
(0.00161494 -0.000386405 0)
(0.00185428 -0.000347347 0)
(0.00205952 -0.000298591 0)
(0.00222442 -0.000243081 0)
(0.0023445 -0.000183112 0)
(0.00241665 -0.000120413 0)
(0.00243878 -5.62357e-05 0)
(0.00240956 8.57682e-06 0)
(0.00232817 7.35217e-05 0)
(0.00219406 0.000138359 0)
(0.00200682 0.00020308 0)
(0.00176599 0.000267852 0)
(0.00147099 0.000332971 0)
(0.00112105 0.000398825 0)
(0.000715104 0.000465857 0)
(0.000251819 0.000534534 0)
(-0.000270434 0.000605317 0)
(-0.000853559 0.000678634 0)
(-0.0014997 0.000754865 0)
(-0.0022112 0.000834316 0)
(-0.00299051 0.000917209 0)
(-0.00384017 0.00100367 0)
(-0.00476266 0.00109372 0)
(-0.00576037 0.00118727 0)
(-0.0068355 0.00128413 0)
(-0.00798994 0.00138398 0)
(-0.00922522 0.00148638 0)
(-0.0105424 0.00159081 0)
(-0.011942 0.00169661 0)
(-0.0134238 0.00180302 0)
(-0.014987 0.00190917 0)
(-0.0166299 0.0020141 0)
(-0.0183501 0.00211674 0)
(-0.0201441 0.00221595 0)
(-0.0220075 0.00231049 0)
(-0.0239348 0.00239907 0)
(-0.0259196 0.00248031 0)
(-0.0279543 0.00255281 0)
(-0.0300304 0.00261516 0)
(-0.0321382 0.00266589 0)
(-0.034267 0.00270358 0)
(-0.0364052 0.00272683 0)
(-0.0385403 0.0027343 0)
(-0.0406587 0.0027247 0)
(-0.0427464 0.00269686 0)
(-0.0447887 0.00264973 0)
(-0.0467702 0.00258241 0)
(-0.0486753 0.00249415 0)
(-0.0504882 0.00238438 0)
(-0.0521928 0.00225277 0)
(-0.0537735 0.00209918 0)
(-0.0552147 0.00192371 0)
(-0.0565012 0.00172674 0)
(-0.0576186 0.00150887 0)
(-0.0585532 0.00127099 0)
(-0.0592924 0.00101427 0)
(-0.0598246 0.000740148 0)
(-0.0601396 0.000450327 0)
(-0.0602287 0.000146783 0)
(-0.0600846 -0.000168221 0)
(-0.0597019 -0.000492143 0)
(-0.0590773 -0.00082227 0)
(-0.0582092 -0.00115571 0)
(-0.0570981 -0.00148935 0)
(-0.0557468 -0.00181992 0)
(-0.0541603 -0.00214404 0)
(-0.0523457 -0.00245824 0)
(-0.0503124 -0.00275903 0)
(-0.0480722 -0.00304297 0)
(-0.0456387 -0.00330664 0)
(-0.0430279 -0.00354681 0)
(-0.0402577 -0.00376041 0)
(-0.0373478 -0.00394464 0)
(-0.0343195 -0.004097 0)
(-0.0311956 -0.00421536 0)
(-0.0280001 -0.00429805 0)
(-0.0247579 -0.00434383 0)
(-0.0214944 -0.00435201 0)
(-0.0182357 -0.00432243 0)
(-0.0150074 -0.0042555 0)
(-0.011835 -0.00415223 0)
(-0.00874321 -0.00401418 0)
(-0.00575563 -0.00384346 0)
(-0.00289447 -0.00364271 0)
(-0.00018018 -0.00341504 0)
(0.00236881 -0.00316394 0)
(0.0047364 -0.00289325 0)
(0.00690897 -0.00260707 0)
(0.00887561 -0.00230963 0)
(0.0106282 -0.00200523 0)
(0.0121615 -0.00169814 0)
(0.0134731 -0.00139248 0)
(0.0145633 -0.00109215 0)
(0.0154353 -0.000800774 0)
(0.0160947 -0.000521571 0)
(0.0165492 -0.000257348 0)
(0.0168089 -1.04393e-05 0)
(0.0168852 0.000217317 0)
(0.0167911 0.000424593 0)
(0.0165408 0.000610554 0)
(0.0161491 0.000774851 0)
(0.015631 0.000917574 0)
(0.0150021 0.00103921 0)
(0.0142774 0.00114058 0)
(0.0134717 0.00122276 0)
(0.0125991 0.00128699 0)
(0.0116732 0.00133459 0)
(0.0107068 0.00136682 0)
(0.00971181 0.00138478 0)
(0.00869988 0.00138924 0)
(0.00768217 0.00138051 0)
(0.00666987 0.0013583 0)
(0.00567455 0.00132151 0)
(0.00470868 0.00126819 0)
(0.00378605 0.00119543 0)
(0.00292223 0.00109948 0)
(0.0021348 0.000976074 0)
(0.00144319 0.000821443 0)
(0.000867454 0.000634283 0)
(0.000425363 0.000419403 0)
(0.000133626 0.000194621 0)
(1.37743e-05 1.07612e-05 0)
(2.52997e-05 -0.000118745 0)
(0.000142448 -0.000343169 0)
(0.000364072 -0.000520989 0)
(0.000644803 -0.000642541 0)
(0.000957273 -0.000710126 0)
(0.00128104 -0.000730383 0)
(0.00159761 -0.000711349 0)
(0.00189122 -0.000660998 0)
(0.00214909 -0.000586516 0)
(0.00236109 -0.000494025 0)
(0.00251942 -0.000388554 0)
(0.00261818 -0.000274095 0)
(0.00265305 -0.000153712 0)
(0.0026209 -2.96561e-05 0)
(0.00251949 9.6523e-05 0)
(0.00234718 0.000223859 0)
(0.00210268 0.000351884 0)
(0.00178488 0.000480523 0)
(0.00139267 0.000610017 0)
(0.000924792 0.000740837 0)
(0.000379788 0.000873624 0)
(-0.000244079 0.00100911 0)
(-0.00094885 0.00114808 0)
(-0.00173687 0.00129129 0)
(-0.00261074 0.00143943 0)
(-0.0035733 0.00159311 0)
(-0.00462755 0.00175278 0)
(-0.00577655 0.00191874 0)
(-0.00702331 0.00209108 0)
(-0.00837072 0.00226972 0)
(-0.00982142 0.00245435 0)
(-0.0113777 0.00264444 0)
(-0.0130412 0.00283925 0)
(-0.0148132 0.00303781 0)
(-0.016694 0.00323893 0)
(-0.0186832 0.00344122 0)
(-0.0207794 0.00364308 0)
(-0.0229803 0.00384274 0)
(-0.0252821 0.0040382 0)
(-0.0276802 0.00422734 0)
(-0.0301684 0.00440787 0)
(-0.0327395 0.00457737 0)
(-0.0353846 0.00473334 0)
(-0.0380938 0.00487318 0)
(-0.0408556 0.00499425 0)
(-0.0436573 0.00509393 0)
(-0.0464848 0.00516958 0)
(-0.0493232 0.00521867 0)
(-0.0521559 0.00523877 0)
(-0.054966 0.00522757 0)
(-0.0577353 0.005183 0)
(-0.060445 0.00510317 0)
(-0.0630759 0.00498649 0)
(-0.0656085 0.00483166 0)
(-0.068023 0.00463774 0)
(-0.0702997 0.00440411 0)
(-0.0724192 0.00413061 0)
(-0.0743625 0.00381742 0)
(-0.0761113 0.00346522 0)
(-0.0776482 0.0030751 0)
(-0.0789567 0.0026486 0)
(-0.0800216 0.00218774 0)
(-0.0808291 0.00169497 0)
(-0.0813672 0.00117321 0)
(-0.0816253 0.000625775 0)
(-0.0815948 5.64469e-05 0)
(-0.0812692 -0.000530285 0)
(-0.0806439 -0.00113021 0)
(-0.0797169 -0.00173837 0)
(-0.0784881 -0.00234956 0)
(-0.0769601 -0.00295831 0)
(-0.0751378 -0.00355896 0)
(-0.0730285 -0.0041457 0)
(-0.070642 -0.00471265 0)
(-0.0679907 -0.0052539 0)
(-0.0650891 -0.00576364 0)
(-0.0619544 -0.00623618 0)
(-0.0586057 -0.00666611 0)
(-0.0550645 -0.00704832 0)
(-0.0513542 -0.00737815 0)
(-0.0474998 -0.00765146 0)
(-0.0435282 -0.00786469 0)
(-0.0394674 -0.00801502 0)
(-0.0353465 -0.00810037 0)
(-0.0311953 -0.00811953 0)
(-0.0270441 -0.00807214 0)
(-0.0229232 -0.00795881 0)
(-0.0188628 -0.00778109 0)
(-0.0148921 -0.00754147 0)
(-0.0110395 -0.00724337 0)
(-0.00733191 -0.00689109 0)
(-0.00379442 -0.00648971 0)
(-0.000450028 -0.00604507 0)
(0.00268073 -0.00556357 0)
(0.00558004 -0.0050521 0)
(0.00823301 -0.00451791 0)
(0.0106279 -0.00396838 0)
(0.0127562 -0.00341093 0)
(0.0146128 -0.00285283 0)
(0.0161956 -0.00230108 0)
(0.0175061 -0.0017622 0)
(0.0185487 -0.00124219 0)
(0.0193306 -0.000746346 0)
(0.0198617 -0.000279205 0)
(0.0201544 0.000155512 0)
(0.0202228 0.000554941 0)
(0.0200829 0.000917091 0)
(0.0197517 0.00124081 0)
(0.0192473 0.00152575 0)
(0.0185882 0.00177228 0)
(0.0177929 0.0019814 0)
(0.0168802 0.0021546 0)
(0.015868 0.00229372 0)
(0.0147741 0.00240077 0)
(0.0136153 0.00247774 0)
(0.0124079 0.00252636 0)
(0.0111678 0.00254786 0)
(0.00991041 0.00254274 0)
(0.0086511 0.00251049 0)
(0.00740569 0.00244941 0)
(0.00619076 0.00235642 0)
(0.00502419 0.00222704 0)
(0.0039254 0.00205571 0)
(0.00291568 0.00183635 0)
(0.00201798 0.00156397 0)
(0.00125568 0.00123739 0)
(0.000650126 0.000863783 0)
(0.000227034 0.000466212 0)
(3.25379e-05 0.000102774 0)
(2.94713e-05 -0.000201001 0)
(0.000162287 -0.000536445 0)
(0.00040831 -0.000788483 0)
(0.000713214 -0.000955182 0)
(0.00104531 -0.00104308 0)
(0.00138201 -0.00106229 0)
(0.00170323 -0.00102411 0)
(0.00199185 -0.000939593 0)
(0.00223388 -0.00081875 0)
(0.00241804 -0.000670239 0)
(0.00253539 -0.000501257 0)
(0.00257896 -0.000317595 0)
(0.0025434 -0.000123747 0)
(0.0024246 7.69492e-05 0)
(0.00221939 0.000282159 0)
(0.00192522 0.000490408 0)
(0.00153996 0.000700944 0)
(0.00106165 0.000913598 0)
(0.000488352 0.00112867 0)
(-0.000181978 0.00134679 0)
(-0.000951591 0.00156885 0)
(-0.00182299 0.00179587 0)
(-0.00279897 0.00202892 0)
(-0.00388257 0.00226905 0)
(-0.00507705 0.00251717 0)
(-0.00638584 0.00277404 0)
(-0.00781241 0.0030402 0)
(-0.00936019 0.0033159 0)
(-0.0110324 0.0036011 0)
(-0.0128321 0.00389542 0)
(-0.0147616 0.00419815 0)
(-0.0168228 0.00450821 0)
(-0.0190169 0.00482418 0)
(-0.021344 0.00514428 0)
(-0.0238034 0.00546638 0)
(-0.026393 0.00578804 0)
(-0.0291096 0.00610649 0)
(-0.0319486 0.00641868 0)
(-0.0349037 0.0067213 0)
(-0.0379675 0.0070108 0)
(-0.0411306 0.00728343 0)
(-0.0443822 0.0075353 0)
(-0.0477098 0.0077624 0)
(-0.0510996 0.00796065 0)
(-0.054536 0.00812601 0)
(-0.058002 0.00825446 0)
(-0.0614794 0.00834211 0)
(-0.0649489 0.00838526 0)
(-0.0683898 0.00838044 0)
(-0.0717811 0.00832451 0)
(-0.0751007 0.00821465 0)
(-0.0783261 0.00804851 0)
(-0.0814349 0.00782417 0)
(-0.0844044 0.00754025 0)
(-0.087212 0.0071959 0)
(-0.089836 0.00679087 0)
(-0.0922549 0.0063255 0)
(-0.0944482 0.00580078 0)
(-0.0963966 0.00521832 0)
(-0.098082 0.00458038 0)
(-0.0994876 0.00388987 0)
(-0.100598 0.0031503 0)
(-0.101401 0.00236585 0)
(-0.101884 0.00154127 0)
(-0.102037 0.000681864 0)
(-0.101854 -0.000206514 0)
(-0.10133 -0.00111725 0)
(-0.10046 -0.00204373 0)
(-0.0992459 -0.00297865 0)
(-0.0976881 -0.00391436 0)
(-0.0957914 -0.00484292 0)
(-0.0935624 -0.00575616 0)
(-0.0910105 -0.00664578 0)
(-0.0881473 -0.00750337 0)
(-0.084987 -0.00832058 0)
(-0.0815462 -0.00908918 0)
(-0.0778437 -0.00980116 0)
(-0.0739008 -0.0104489 0)
(-0.0697407 -0.0110252 0)
(-0.0653887 -0.0115235 0)
(-0.0608721 -0.0119379 0)
(-0.0562195 -0.0122633 0)
(-0.0514612 -0.0124958 0)
(-0.0466286 -0.0126323 0)
(-0.041754 -0.0126708 0)
(-0.0368701 -0.0126108 0)
(-0.0320101 -0.0124529 0)
(-0.0272069 -0.0121991 0)
(-0.022493 -0.0118526 0)
(-0.0178998 -0.0114181 0)
(-0.0134578 -0.0109015 0)
(-0.00919552 -0.0103097 0)
(-0.00513962 -0.00965081 0)
(-0.00131436 -0.00893394 0)
(0.00225871 -0.00816882 0)
(0.005561 -0.00736578 0)
(0.00857716 -0.00653552 0)
(0.0112952 -0.00568888 0)
(0.0137067 -0.00483659 0)
(0.0158067 -0.0039891 0)
(0.0175939 -0.00315633 0)
(0.0190705 -0.00234749 0)
(0.0202419 -0.00157092 0)
(0.0211169 -0.000833923 0)
(0.0217068 -0.000142659 0)
(0.0220257 0.00049791 0)
(0.0220898 0.00108408 0)
(0.0219171 0.00161338 0)
(0.0215269 0.00208453 0)
(0.0209396 0.00249736 0)
(0.0201762 0.00285266 0)
(0.019258 0.00315203 0)
(0.018206 0.00339765 0)
(0.0170412 0.00359203 0)
(0.0157842 0.00373774 0)
(0.0144549 0.00383704 0)
(0.0130729 0.00389158 0)
(0.0116575 0.00390206 0)
(0.0102279 0.0038678 0)
(0.00880376 0.00378655 0)
(0.00740523 0.00365428 0)
(0.00605364 0.00346519 0)
(0.00477169 0.00321209 0)
(0.0035837 0.00288735 0)
(0.00251574 0.00248464 0)
(0.00159471 0.00200206 0)
(0.000846472 0.00144677 0)
(0.000307218 0.000841895 0)
(4.78799e-05 0.000242275 0)
(3.1133e-05 -0.000290533 0)
(0.000169769 -0.000743771 0)
(0.000423063 -0.00107022 0)
(0.000731007 -0.00127778 0)
(0.00105871 -0.00137897 0)
(0.00138185 -0.00138843 0)
(0.00167924 -0.00132122 0)
(0.00193294 -0.00119167 0)
(0.00212825 -0.00101271 0)
(0.00225319 -0.000795517 0)
(0.00229807 -0.000549446 0)
(0.00225513 -0.000282072 0)
(0.00211815 6.86236e-07 0)
(0.00188216 0.000294398 0)
(0.00154306 0.000595941 0)
(0.0010974 0.000903319 0)
(0.000542105 0.00121548 0)
(-0.00012569 0.00153215 0)
(-0.000908831 0.00185365 0)
(-0.00181025 0.00218078 0)
(-0.00283305 0.00251464 0)
(-0.00398054 0.00285649 0)
(-0.00525624 0.00320765 0)
(-0.00666386 0.00356936 0)
(-0.00820724 0.00394271 0)
(-0.00989023 0.00432848 0)
(-0.0117166 0.00472715 0)
(-0.0136899 0.00513879 0)
(-0.0158132 0.005563 0)
(-0.0180893 0.00599892 0)
(-0.0205199 0.00644517 0)
(-0.0231061 0.00689986 0)
(-0.0258478 0.0073606 0)
(-0.0287438 0.00782449 0)
(-0.0317915 0.00828813 0)
(-0.0349868 0.00874769 0)
(-0.0383238 0.00919892 0)
(-0.0417952 0.00963716 0)
(-0.0453917 0.0100574 0)
(-0.0491025 0.0104545 0)
(-0.0529145 0.0108229 0)
(-0.0568133 0.011157 0)
(-0.0607824 0.0114512 0)
(-0.0648039 0.0116997 0)
(-0.0688581 0.0118971 0)
(-0.0729243 0.0120378 0)
(-0.0769802 0.0121169 0)
(-0.0810026 0.0121296 0)
(-0.0849677 0.0120715 0)
(-0.088851 0.0119389 0)
(-0.0926276 0.0117285 0)
(-0.0962726 0.0114379 0)
(-0.0997613 0.0110653 0)
(-0.103069 0.0106094 0)
(-0.106173 0.01007 0)
(-0.10905 0.00944763 0)
(-0.111677 0.0087436 0)
(-0.114036 0.00796005 0)
(-0.116106 0.00709995 0)
(-0.11787 0.0061671 0)
(-0.119312 0.00516606 0)
(-0.120419 0.0041022 0)
(-0.121178 0.00298159 0)
(-0.121579 0.00181106 0)
(-0.121615 0.000598086 0)
(-0.121279 -0.00064934 0)
(-0.120568 -0.00192256 0)
(-0.119482 -0.00321229 0)
(-0.118019 -0.00450892 0)
(-0.116185 -0.00580241 0)
(-0.113985 -0.00708242 0)
(-0.111426 -0.00833834 0)
(-0.108518 -0.00955941 0)
(-0.105276 -0.0107348 0)
(-0.101713 -0.0118538 0)
(-0.0978465 -0.0129059 0)
(-0.0936967 -0.0138807 0)
(-0.0892852 -0.0147684 0)
(-0.0846358 -0.0155598 0)
(-0.0797744 -0.0162464 0)
(-0.074729 -0.0168204 0)
(-0.069529 -0.0172754 0)
(-0.0642056 -0.0176059 0)
(-0.058791 -0.0178077 0)
(-0.0533188 -0.0178782 0)
(-0.0478232 -0.0178163 0)
(-0.0423389 -0.0176223 0)
(-0.0369006 -0.0172986 0)
(-0.031543 -0.0168489 0)
(-0.0263 -0.0162789 0)
(-0.0212044 -0.0155957 0)
(-0.0162878 -0.0148082 0)
(-0.0115799 -0.0139265 0)
(-0.00710814 -0.0129621 0)
(-0.00289753 -0.0119276 0)
(0.00102986 -0.0108365 0)
(0.0046551 -0.00970272 0)
(0.00796264 -0.00854058 0)
(0.0109405 -0.00736446 0)
(0.0135805 -0.00618849 0)
(0.0158781 -0.00502624 0)
(0.0178325 -0.00389053 0)
(0.0194467 -0.0027931 0)
(0.020727 -0.00174449 0)
(0.0216832 -0.000753802 0)
(0.022328 0.000171393 0)
(0.0226767 0.00102513 0)
(0.0227471 0.00180308 0)
(0.0225589 0.00250251 0)
(0.0221331 0.00312221 0)
(0.021492 0.00366229 0)
(0.0206586 0.00412405 0)
(0.0196564 0.00450964 0)
(0.0185086 0.00482176 0)
(0.0172387 0.0050633 0)
(0.0158699 0.00523692 0)
(0.014425 0.00534456 0)
(0.0129266 0.00538705 0)
(0.0113974 0.00536361 0)
(0.00986035 0.00527156 0)
(0.00833892 0.00510607 0)
(0.00685747 0.00486019 0)
(0.0054416 0.00452533 0)
(0.00411852 0.00409223 0)
(0.00291747 0.0035528 0)
(0.00186919 0.00290318 0)
(0.00100471 0.00214787 0)
(0.000370567 0.00130544 0)
(5.94165e-05 0.000420401 0)
(3.09538e-05 -0.000381234 0)
(0.000167049 -0.000951627 0)
(0.000412087 -0.00134801 0)
(0.000703555 -0.00158892 0)
(0.00100465 -0.00169388 0)
(0.00128989 -0.00168286 0)
(0.00153739 -0.00157514 0)
(0.00172885 -0.00138855 0)
(0.00184923 -0.00113895 0)
(0.00188618 -0.000839998 0)
(0.00182955 -0.000503128 0)
(0.00167101 -0.00013761 0)
(0.00140365 0.000249287 0)
(0.0010217 0.000652105 0)
(0.000520219 0.00106698 0)
(-0.000105169 0.00149141 0)
(-0.000858476 0.00192407 0)
(-0.00174353 0.00236457 0)
(-0.00276413 0.00281325 0)
(-0.00392412 0.00327103 0)
(-0.00522746 0.00373915 0)
(-0.00667825 0.00421907 0)
(-0.00828072 0.00471226 0)
(-0.0100392 0.00522006 0)
(-0.0119578 0.00574355 0)
(-0.0140408 0.00628342 0)
(-0.0162919 0.00683988 0)
(-0.0187145 0.00741258 0)
(-0.0213113 0.00800055 0)
(-0.0240842 0.00860216 0)
(-0.0270341 0.00921507 0)
(-0.0301606 0.00983629 0)
(-0.033462 0.0104621 0)
(-0.0369351 0.0110881 0)
(-0.0405748 0.0117095 0)
(-0.0443743 0.0123205 0)
(-0.048325 0.0129151 0)
(-0.0524162 0.0134869 0)
(-0.0566351 0.0140288 0)
(-0.0609671 0.0145338 0)
(-0.0653955 0.0149945 0)
(-0.0699018 0.0154034 0)
(-0.0744657 0.0157532 0)
(-0.0790654 0.0160366 0)
(-0.0836777 0.0162466 0)
(-0.088278 0.0163766 0)
(-0.0928411 0.0164206 0)
(-0.0973408 0.016373 0)
(-0.101751 0.0162289 0)
(-0.106044 0.0159845 0)
(-0.110194 0.0156364 0)
(-0.114175 0.0151824 0)
(-0.117962 0.0146211 0)
(-0.121529 0.0139523 0)
(-0.124853 0.0131766 0)
(-0.127912 0.0122956 0)
(-0.130684 0.0113121 0)
(-0.133151 0.0102297 0)
(-0.135294 0.00905299 0)
(-0.137098 0.00778753 0)
(-0.138549 0.00643976 0)
(-0.139633 0.00501696 0)
(-0.140341 0.00352725 0)
(-0.140665 0.00197947 0)
(-0.140598 0.000383225 0)
(-0.140136 -0.0012513 0)
(-0.139276 -0.00291329 0)
(-0.138019 -0.00459133 0)
(-0.136366 -0.00627355 0)
(-0.134322 -0.00794767 0)
(-0.131892 -0.0096011 0)
(-0.129085 -0.0112209 0)
(-0.125912 -0.0127942 0)
(-0.122384 -0.0143078 0)
(-0.118517 -0.0157487 0)
(-0.114329 -0.0171041 0)
(-0.109837 -0.0183615 0)
(-0.105064 -0.019509 0)
(-0.100034 -0.0205352 0)
(-0.0947704 -0.0214296 0)
(-0.0893026 -0.0221828 0)
(-0.0836594 -0.0227864 0)
(-0.0778721 -0.0232336 0)
(-0.0719732 -0.0235188 0)
(-0.0659967 -0.0236385 0)
(-0.0599775 -0.0235907 0)
(-0.0539512 -0.0233755 0)
(-0.0479541 -0.022995 0)
(-0.0420222 -0.0224533 0)
(-0.0361915 -0.0217568 0)
(-0.030497 -0.0209136 0)
(-0.0249728 -0.0199341 0)
(-0.0196512 -0.0188304 0)
(-0.0145629 -0.0176162 0)
(-0.00973601 -0.0163067 0)
(-0.005196 -0.0149183 0)
(-0.000965345 -0.0134682 0)
(0.00293684 -0.0119743 0)
(0.00649499 -0.0104545 0)
(0.00969729 -0.00892671 0)
(0.0125358 -0.00740843 0)
(0.0150064 -0.00591626 0)
(0.017109 -0.00446567 0)
(0.0188472 -0.00307077 0)
(0.0202284 -0.00174403 0)
(0.0212631 -0.000496085 0)
(0.0219652 0.000664343 0)
(0.0223514 0.00173055 0)
(0.0224406 0.00269785 0)
(0.022254 0.00356343 0)
(0.0218143 0.00432626 0)
(0.0211453 0.00498682 0)
(0.0202719 0.00554681 0)
(0.0192194 0.00600874 0)
(0.0180133 0.00637553 0)
(0.0166793 0.00664995 0)
(0.015243 0.00683409 0)
(0.01373 0.00692881 0)
(0.0121659 0.00693324 0)
(0.0105767 0.00684431 0)
(0.00898883 0.00665651 0)
(0.0074294 0.00636189 0)
(0.00592682 0.00595047 0)
(0.0045112 0.00541117 0)
(0.00321504 0.00473357 0)
(0.00207311 0.00391048 0)
(0.00112172 0.00294146 0)
(0.000416579 0.00183714 0)
(6.74254e-05 0.000627498 0)
(2.93968e-05 -0.000468225 0)
(0.000155888 -0.00114813 0)
(0.000378827 -0.00160518 0)
(0.000635971 -0.00186855 0)
(0.000889924 -0.00196533 0)
(0.00111466 -0.00192127 0)
(0.00128816 -0.00176019 0)
(0.00139212 -0.00150352 0)
(0.00141148 -0.00117005 0)
(0.00133381 -0.000775837 0)
(0.00114874 -0.000334256 0)
(0.000847507 0.000143864 0)
(0.000422676 0.000650036 0)
(-0.00013223 0.00117788 0)
(-0.000822967 0.00172288 0)
(-0.0016548 0.00228209 0)
(-0.00263268 0.00285393 0)
(-0.00376139 0.0034379 0)
(-0.00504569 0.00403434 0)
(-0.00649031 0.00464422 0)
(-0.00810007 0.0052689 0)
(-0.00987978 0.0059099 0)
(-0.0118343 0.00656871 0)
(-0.0139683 0.00724662 0)
(-0.0162863 0.00794453 0)
(-0.0187924 0.00866279 0)
(-0.0214902 0.00940112 0)
(-0.0243825 0.0101585 0)
(-0.0274713 0.0109331 0)
(-0.0307572 0.0117221 0)
(-0.0342396 0.012522 0)
(-0.0379164 0.0133282 0)
(-0.0417837 0.0141356 0)
(-0.0458356 0.0149378 0)
(-0.0500643 0.0157279 0)
(-0.05446 0.0164985 0)
(-0.0590104 0.0172414 0)
(-0.0637014 0.0179479 0)
(-0.0685165 0.018609 0)
(-0.0734372 0.0192156 0)
(-0.078443 0.0197583 0)
(-0.0835117 0.0202279 0)
(-0.0886194 0.0206155 0)
(-0.0937409 0.0209123 0)
(-0.0988497 0.0211103 0)
(-0.103919 0.0212018 0)
(-0.10892 0.0211803 0)
(-0.113826 0.0210397 0)
(-0.118609 0.0207753 0)
(-0.123241 0.0203832 0)
(-0.127694 0.0198607 0)
(-0.131943 0.0192063 0)
(-0.135963 0.0184196 0)
(-0.13973 0.0175014 0)
(-0.143221 0.0164537 0)
(-0.146415 0.0152798 0)
(-0.149294 0.0139838 0)
(-0.151838 0.0125711 0)
(-0.154034 0.0110481 0)
(-0.155865 0.00942229 0)
(-0.157321 0.00770185 0)
(-0.158391 0.00589601 0)
(-0.159065 0.00401475 0)
(-0.159338 0.00206884 0)
(-0.159204 6.97797e-05 0)
(-0.15866 -0.00196996 0)
(-0.157704 -0.00403798 0)
(-0.156336 -0.00612085 0)
(-0.154559 -0.00820471 0)
(-0.152377 -0.0102753 0)
(-0.149796 -0.0123179 0)
(-0.146823 -0.0143177 0)
(-0.143468 -0.0162595 0)
(-0.139744 -0.0181282 0)
(-0.135663 -0.0199086 0)
(-0.131242 -0.0215857 0)
(-0.126499 -0.0231449 0)
(-0.121454 -0.0245721 0)
(-0.11613 -0.0258538 0)
(-0.110551 -0.0269775 0)
(-0.104744 -0.0279317 0)
(-0.0987381 -0.0287063 0)
(-0.0925634 -0.0292926 0)
(-0.0862524 -0.0296837 0)
(-0.0798391 -0.0298746 0)
(-0.0733589 -0.0298624 0)
(-0.0668482 -0.0296464 0)
(-0.060344 -0.0292282 0)
(-0.053884 -0.0286122 0)
(-0.0475058 -0.0278047 0)
(-0.0412465 -0.026815 0)
(-0.0351426 -0.0256544 0)
(-0.0292291 -0.0243367 0)
(-0.0235397 -0.0228776 0)
(-0.0181056 -0.0212948 0)
(-0.0129557 -0.0196073 0)
(-0.00811594 -0.0178357 0)
(-0.00360915 -0.016001 0)
(0.000545473 -0.0141249 0)
(0.00433245 -0.0122293 0)
(0.00774022 -0.0103353 0)
(0.0107612 -0.00846375 0)
(0.0133921 -0.00663396 0)
(0.0156332 -0.00486391 0)
(0.0174892 -0.00316976 0)
(0.0189682 -0.00156563 0)
(0.020082 -6.34056e-05 0)
(0.0208456 0.00132736 0)
(0.0212768 0.00259951 0)
(0.021396 0.00374815 0)
(0.0212257 0.00477057 0)
(0.0207901 0.00566596 0)
(0.0201148 0.0064351 0)
(0.0192262 0.00707991 0)
(0.0181516 0.00760293 0)
(0.0169186 0.00800675 0)
(0.0155551 0.00829339 0)
(0.0140891 0.00846363 0)
(0.012549 0.00851639 0)
(0.0109633 0.00844823 0)
(0.00936115 0.00825302 0)
(0.00777236 0.00792179 0)
(0.00622807 0.00744311 0)
(0.00476127 0.00680385 0)
(0.00340775 0.00599059 0)
(0.00220628 0.00499175 0)
(0.00119804 0.00380023 0)
(0.000446101 0.00241661 0)
(7.23292e-05 0.000854293 0)
(2.67524e-05 -0.000547517 0)
(0.000137566 -0.00132293 0)
(0.000326043 -0.0018267 0)
(0.00053255 -0.00209833 0)
(0.00072033 -0.00217258 0)
(0.000863543 -0.00208116 0)
(0.000940557 -0.00185257 0)
(0.000933465 -0.00151184 0)
(0.000827541 -0.00108062 0)
(0.000610495 -0.000577219 0)
(0.000271898 -1.67744e-05 0)
(-0.000197245 0.000588509 0)
(-0.000804839 0.0012291 0)
(-0.00155798 0.00189783 0)
(-0.00246318 0.00258964 0)
(-0.00352656 0.00330123 0)
(-0.00475399 0.00403078 0)
(-0.0061512 0.00477771 0)
(-0.00772384 0.00554231 0)
(-0.00947751 0.00632555 0)
(-0.0114178 0.00712878 0)
(-0.0135501 0.00795346 0)
(-0.0158797 0.00880095 0)
(-0.0184116 0.00967227 0)
(-0.0211503 0.0105679 0)
(-0.0240996 0.0114876 0)
(-0.0272625 0.0124303 0)
(-0.0306411 0.013394 0)
(-0.0342358 0.0143756 0)
(-0.0380459 0.0153709 0)
(-0.0420688 0.0163748 0)
(-0.0463 0.0173808 0)
(-0.0507329 0.0183817 0)
(-0.0553588 0.0193693 0)
(-0.0601666 0.0203344 0)
(-0.0651429 0.0212671 0)
(-0.070272 0.0221571 0)
(-0.0755358 0.0229935 0)
(-0.0809143 0.0237651 0)
(-0.0863851 0.0244609 0)
(-0.0919244 0.0250695 0)
(-0.0975063 0.0255803 0)
(-0.103104 0.0259828 0)
(-0.10869 0.0262674 0)
(-0.114235 0.026425 0)
(-0.11971 0.0264477 0)
(-0.125086 0.0263286 0)
(-0.130335 0.026062 0)
(-0.135428 0.0256435 0)
(-0.140338 0.02507 0)
(-0.145039 0.0243396 0)
(-0.149504 0.0234521 0)
(-0.153711 0.0224083 0)
(-0.157637 0.0212106 0)
(-0.161262 0.0198626 0)
(-0.164567 0.0183691 0)
(-0.167535 0.0167361 0)
(-0.170149 0.0149707 0)
(-0.172397 0.013081 0)
(-0.174265 0.0110763 0)
(-0.175744 0.00896642 0)
(-0.176825 0.00676238 0)
(-0.177499 0.00447586 0)
(-0.177762 0.00211926 0)
(-0.177608 -0.000294226 0)
(-0.177035 -0.0027506 0)
(-0.176042 -0.00523566 0)
(-0.174628 -0.00773436 0)
(-0.172795 -0.0102311 0)
(-0.170547 -0.01271 0)
(-0.167888 -0.0151544 0)