/*--------------------------------*- C++ -*----------------------------------*\
| =========                 |                                                 |
| \\      /  F ield         | OpenFOAM: The Open Source CFD Toolbox           |
|  \\    /   O peration     | Version:  2112                                  |
|   \\  /    A nd           | Website:  www.openfoam.com                      |
|    \\/     M anipulation  |                                                 |
\*---------------------------------------------------------------------------*/
FoamFile
{
    version     2.0;
    format      ascii;
    arch        "LSB;label=32;scalar=64";
    class       volScalarField;
    location    "35";
    object      p;
}
// * * * * * * * * * * * * * * * * * * * * * * * * * * * * * * * * * * * * * //

dimensions      [0 2 -2 0 0 0 0];

internalField   nonuniform List<scalar> 
16641
(
2.95707e-07
1.48271e-05
2.90137e-05
3.78507e-05
3.77525e-05
2.68617e-05
4.59296e-06
-2.8903e-05
-7.30607e-05
-0.000127091
-0.00019011
-0.000261229
-0.000339606
-0.000424492
-0.000515267
-0.000611449
-0.000712697
-0.00081881
-0.000929715
-0.00104545
-0.00116616
-0.00129203
-0.00142332
-0.0015603
-0.00170325
-0.00185242
-0.00200804
-0.00217025
-0.00233916
-0.00251479
-0.00269706
-0.0028858
-0.00308075
-0.00328151
-0.00348758
-0.00369834
-0.00391304
-0.00413079
-0.00435056
-0.0045712
-0.0047914
-0.00500971
-0.00522457
-0.00543425
-0.00563693
-0.00583068
-0.00601347
-0.00618319
-0.0063377
-0.00647483
-0.00659243
-0.00668837
-0.00676062
-0.00680725
-0.00682651
-0.00681683
-0.00677689
-0.00670565
-0.00660239
-0.00646676
-0.00629879
-0.00609896
-0.00586818
-0.00560786
-0.00531987
-0.00500657
-0.0046708
-0.00431578
-0.00394546
-0.00356393
-0.00317572
-0.00278568
-0.00239888
-0.00202057
-0.00165606
-0.00131066
-0.000989556
-0.000697719
-0.0004398
-0.000220033
-4.21362e-05
9.07709e-05
0.000176247
0.00021259
0.000198881
0.000135015
2.17041e-05
-0.000139535
-0.000346409
-0.000595909
-0.000884491
-0.00120782
-0.00156134
-0.0019401
-0.00233891
-0.00275252
-0.00317569
-0.00360335
-0.00403065
-0.00445309
-0.00486655
-0.00526742
-0.00565255
-0.00601934
-0.0063657
-0.00669007
-0.0069914
-0.00726906
-0.00752287
-0.007753
-0.00795991
-0.00814434
-0.00830718
-0.00844947
-0.0085723
-0.00867678
-0.00876399
-0.00883491
-0.00889044
-0.00893135
-0.00895829
-0.00897187
-0.00897278
-0.0089619
-0.00894066
-0.00891154
-0.00887864
-0.0088481
-0.00882936
-1.37845e-05
6.17022e-07
1.05605e-05
1.45229e-05
1.07994e-05
-2.07512e-06
-2.47386e-05
-5.72379e-05
-9.92587e-05
-0.000150269
-0.000209618
-0.000276609
-0.000350563
-0.000430864
-0.000516992
-0.000608531
-0.00070518
-0.000806757
-0.000913188
-0.00102449
-0.00114077
-0.0012622
-0.00138898
-0.00152134
-0.00165952
-0.00180373
-0.00195418
-0.00211099
-0.00227427
-0.00244401
-0.00262016
-0.00280257
-0.00299099
-0.00318506
-0.00338434
-0.00358823
-0.00379606
-0.00400698
-0.00422005
-0.00443418
-0.00464814
-0.00486057
-0.00506998
-0.00527475
-0.00547313
-0.00566328
-0.00584327
-0.00601107
-0.00616462
-0.00630183
-0.00642061
-0.00651891
-0.00659474
-0.00664623
-0.00667164
-0.00666942
-0.00663828
-0.00657715
-0.0064853
-0.00636234
-0.00620825
-0.00602345
-0.00580876
-0.00556547
-0.00529537
-0.00500073
-0.00468426
-0.00434898
-0.00399858
-0.0036371
-0.00326887
-0.00289856
-0.00253104
-0.00217138
-0.00182468
-0.00149607
-0.00119054
-0.000912889
-0.000667598
-0.000458748
-0.000289923
-0.000164123
-8.36948e-05
-5.02723e-05
-6.47301e-05
-0.00012716
-0.000236867
-0.000392381
-0.000591493
-0.000831309
-0.00110834
-0.00141858
-0.00175753
-0.0021205
-0.00250252
-0.00289858
-0.00330371
-0.00371306
-0.00412203
-0.00452637
-0.0049222
-0.00530607
-0.00567504
-0.00602666
-0.00635897
-0.0066705
-0.00696026
-0.00722767
-0.00747254
-0.00769502
-0.00789555
-0.00807479
-0.00823358
-0.00837286
-0.00849367
-0.00859704
-0.008684
-0.00875552
-0.00881249
-0.00885576
-0.00888607
-0.00890418
-0.00891093
-0.00890732
-0.00889479
-0.00887545
-0.00885241
-0.00882947
-0.00881063
-2.78327e-05
-9.18842e-06
7.57017e-07
3.16487e-06
-2.00794e-06
-1.57761e-05
-3.86215e-05
-7.0555e-05
-0.000111318
-0.000160473
-0.000217468
-0.000281706
-0.000352598
-0.000429608
-0.000512276
-0.000600234
-0.000693217
-0.000791066
-0.000893715
-0.00100119
-0.00111358
-0.00123106
-0.00135381
-0.00148205
-0.00161601
-0.00175589
-0.00190188
-0.00205412
-0.00221271
-0.00237766
-0.00254894
-0.00272641
-0.00290987
-0.00309899
-0.00329336
-0.00349246
-0.00369564
-0.00390214
-0.00411106
-0.00432137
-0.00453191
-0.00474139
-0.00494838
-0.00515131
-0.00534851
-0.00553819
-0.00571845
-0.00588732
-0.00604278
-0.00618276
-0.00630518
-0.00640802
-0.00648927
-0.00654706
-0.00657963
-0.00658541
-0.00656305
-0.00651145
-0.00642982
-0.0063177
-0.006175
-0.00600206
-0.00579963
-0.00556889
-0.00531157
-0.0050299
-0.00472606
-0.00440367
-0.00406597
-0.00371688
-0.0033607
-0.00300197
-0.0026455
-0.00229627
-0.00195933
-0.0016397
-0.00134234
-0.00107197
-0.000833037
-0.000629571
-0.000465121
-0.00034266
-0.000264512
-0.000232297
-0.000246881
-0.000308357
-0.000416036
-0.000568462
-0.00076345
-0.000998142
-0.00126908
-0.00157229
-0.00190339
-0.00225772
-0.00263039
-0.00301649
-0.00341115
-0.00380963
-0.00420746
-0.00460049
-0.00498498
-0.0053576
-0.00571553
-0.00605644
-0.00637848
-0.00668027
-0.00696091
-0.00721988
-0.00745706
-0.00767262
-0.00786704
-0.00804097
-0.00819525
-0.00833084
-0.00844873
-0.00854997
-0.00863557
-0.00870649
-0.00876366
-0.00880791
-0.00884004
-0.00886081
-0.00887102
-0.0088716
-0.0088637
-0.00884893
-0.0088295
-0.00880661
-0.0087799
-3.67634e-05
-1.31327e-05
-1.66168e-06
6.59222e-07
-4.9661e-06
-1.91388e-05
-4.21089e-05
-7.37564e-05
-0.000113778
-0.000161737
-0.00021711
-0.00027934
-0.000347887
-0.00042226
-0.00050204
-0.000586899
-0.000676604
-0.000771021
-0.000870107
-0.000973904
-0.00108252
-0.00119613
-0.00131493
-0.00143914
-0.001569
-0.00170473
-0.00184653
-0.00199454
-0.00214888
-0.0023096
-0.00247669
-0.00265006
-0.00282952
-0.00301482
-0.00320559
-0.00340135
-0.00360152
-0.00380539
-0.00401213
-0.00422078
-0.00443021
-0.0046392
-0.00484637
-0.00505019
-0.00524902
-0.0054411
-0.00562455
-0.00579742
-0.00595766
-0.00610321
-0.00623197
-0.00634186
-0.00643086
-0.00649702
-0.00653852
-0.00655374
-0.00654123
-0.00649983
-0.00642865
-0.00632716
-0.00619518
-0.00603294
-0.00584113
-0.00562085
-0.00537384
-0.00510259
-0.00480769
-0.00449415
-0.00416494
-0.0038238
-0.00347496
-0.00312295
-0.00277255
-0.00242873
-0.00209652
-0.00178097
-0.00148703
-0.00121945
-0.000982689
-0.000780811
-0.000617393
-0.000495435
-0.000417293
-0.00038461
-0.000398276
-0.0004584
-0.000564304
-0.000714538
-0.000906914
-0.00113857
-0.00140603
-0.00170531
-0.002032
-0.0023815
-0.0027488
-0.00312905
-0.00351739
-0.00390909
-0.00429972
-0.00468517
-0.00506174
-0.00542621
-0.00577581
-0.0061083
-0.00642193
-0.00671542
-0.00698796
-0.00723912
-0.00746886
-0.00767744
-0.0078654
-0.00803345
-0.00818248
-0.00831348
-0.00842749
-0.00852555
-0.00860872
-0.00867798
-0.00873425
-0.00877837
-0.00881111
-0.00883319
-0.00884528
-0.0088481
-0.00884241
-0.00882931
-0.00881019
-0.00878402
-0.00874722
-3.69475e-05
-9.5185e-06
3.31428e-06
5.74657e-06
-1.73262e-07
-1.47201e-05
-3.79289e-05
-6.95346e-05
-0.000109151
-0.000156304
-0.000210462
-0.000271084
-0.000337654
-0.000409707
-0.000486856
-0.000568808
-0.000655362
-0.000746416
-0.000841958
-0.000942058
-0.00104685
-0.00115654
-0.00127134
-0.00139151
-0.00151729
-0.00164894
-0.00178668
-0.0019307
-0.00208114
-0.00223809
-0.00240158
-0.00257157
-0.00274793
-0.00293046
-0.00311886
-0.0033127
-0.00351148
-0.00371454
-0.00392111
-0.00413028
-0.00434099
-0.00455206
-0.00476212
-0.00496969
-0.00517313
-0.00537068
-0.00556046
-0.00574047
-0.00590865
-0.00606286
-0.00620096
-0.00632078
-0.00642022
-0.00649724
-0.00654995
-0.00657659
-0.00657564
-0.00654581
-0.00648612
-0.00639594
-0.00627499
-0.00612343
-0.00594184
-0.00573129
-0.00549316
-0.00522892
-0.00494309
-0.00463681
-0.00431384
-0.00397813
-0.0036339
-0.00328569
-0.0029383
-0.00259672
-0.00226601
-0.00195126
-0.00165748
-0.00138948
-0.00115179
-0.000948525
-0.000783343
-0.000659314
-0.000578857
-0.000543678
-0.000554717
-0.000612125
-0.000715252
-0.000862663
-0.00105217
-0.0012809
-0.00154535
-0.0018415
-0.0021649
-0.00251083
-0.00287434
-0.00325047
-0.00363429
-0.00402107
-0.00440633
-0.00478596
-0.00515628
-0.00551408
-0.00585664
-0.00618178
-0.00648783
-0.00677359
-0.00703833
-0.00728175
-0.0075039
-0.00770514
-0.00788608
-0.00804756
-0.00819052
-0.00831603
-0.00842518
-0.00851909
-0.00859883
-0.00866542
-0.0087198
-0.0087628
-0.00879515
-0.00881748
-0.00883034
-0.00883418
-0.0088294
-0.00881659
-0.0087965
-0.00876625
-0.00871959
-2.63722e-05
3.23682e-06
1.67752e-05
1.90815e-05
1.27049e-05
-2.39788e-06
-2.60837e-05
-5.79468e-05
-9.75061e-05
-0.000144232
-0.00019757
-0.000256969
-0.000321919
-0.000391973
-0.00046677
-0.000546047
-0.000629637
-0.000717475
-0.000809591
-0.000906093
-0.00100716
-0.00111303
-0.00122396
-0.00134025
-0.0014622
-0.00159009
-0.00172418
-0.00186473
-0.00201192
-0.0021659
-0.00232676
-0.00249451
-0.00266911
-0.00285042
-0.00303819
-0.00323208
-0.00343165
-0.00363631
-0.00384534
-0.00405788
-0.00427292
-0.00448926
-0.00470559
-0.0049204
-0.00513204
-0.00533871
-0.00553848
-0.00572928
-0.00590898
-0.00607534
-0.0062261
-0.00635901
-0.00647183
-0.00656242
-0.00662873
-0.00666891
-0.0066813
-0.00666451
-0.00661744
-0.00653935
-0.00642988
-0.00628908
-0.00611747
-0.00591607
-0.00568628
-0.00542984
-0.00514973
-0.00484858
-0.00452983
-0.00419731
-0.00385526
-0.00350823
-0.00316105
-0.00281876
-0.00248648
-0.00216938
-0.00187254
-0.00160086
-0.00135896
-0.00115107
-0.000980954
-0.000851787
-0.000766091
-0.000725669
-0.000731549
-0.000783956
-0.000882298
-0.00102518
-0.00121043
-0.00143517
-0.00169589
-0.00198851
-0.00230853
-0.00265115
-0.00301135
-0.00338406
-0.00376429
-0.00414721
-0.00452827
-0.0049033
-0.00526858
-0.00562087
-0.00595747
-0.00627621
-0.00657546
-0.0068541
-0.00711148
-0.00734737
-0.00756195
-0.00775567
-0.00792926
-0.00808366
-0.00821993
-0.00833922
-0.0084427
-0.00853158
-0.00860698
-0.00866996
-0.00872148
-0.00876237
-0.00879334
-0.00881492
-0.00882751
-0.00883135
-0.0088265
-0.00881313
-0.00879147
-0.00875724
-0.00870217
-4.12918e-06
2.60234e-05
3.94134e-05
4.11173e-05
3.39159e-05
1.79259e-05
-6.56364e-06
-3.90236e-05
-7.88835e-05
-0.000125555
-0.000178446
-0.000236987
-0.000300664
-0.000369043
-0.000441784
-0.000518654
-0.000599525
-0.000684377
-0.000773286
-0.000866416
-0.000963999
-0.00106632
-0.00117372
-0.00128653
-0.00140511
-0.00152982
-0.00166099
-0.00179892
-0.00194388
-0.00209609
-0.00225571
-0.00242285
-0.00259752
-0.00277967
-0.00296914
-0.00316566
-0.00336884
-0.00357816
-0.00379295
-0.00401236
-0.00423541
-0.0044609
-0.00468749
-0.00491363
-0.00513763
-0.00535758
-0.00557148
-0.00577714
-0.0059723
-0.0061546
-0.00632165
-0.00647103
-0.00660036
-0.00670736
-0.00678983
-0.00684578
-0.00687344
-0.00687127
-0.00683807
-0.00677301
-0.00667562
-0.00654589
-0.00638425
-0.00619166
-0.00596956
-0.00571963
-0.00544457
-0.00514725
-0.00483107
-0.00449986
-0.00415786
-0.00380966
-0.00346013
-0.00311436
-0.00277755
-0.00245496
-0.00215176
-0.00187296
-0.00162332
-0.0014072
-0.0012285
-0.00109053
-0.000995969
-0.000946752
-0.000944039
-0.000988169
-0.00107865
-0.00121416
-0.00139259
-0.00161108
-0.00186611
-0.00215359
-0.00246896
-0.00280733
-0.00316361
-0.00353261
-0.00390922
-0.00428849
-0.00466577
-0.00503679
-0.00539772
-0.00574527
-0.0060767
-0.0063898
-0.00668296
-0.00695509
-0.00720558
-0.00743431
-0.00764151
-0.00782775
-0.00799389
-0.00814096
-0.00827015
-0.0083827
-0.00847992
-0.00856306
-0.00863336
-0.00869192
-0.00873974
-0.00877766
-0.00880634
-0.00882628
-0.00883775
-0.00884079
-0.00883517
-0.00882077
-0.00879743
-0.00875986
-0.00869837
3.0098e-05
5.92622e-05
7.15774e-05
7.20616e-05
6.35369e-05
4.6237e-05
2.05668e-05
-1.28479e-05
-5.33611e-05
-0.000100327
-0.000153114
-0.000211133
-0.000273865
-0.000340886
-0.000411879
-0.000486643
-0.000565097
-0.000647272
-0.000733303
-0.000823417
-0.000917917
-0.00101716
-0.00112156
-0.00123152
-0.0013475
-0.00146992
-0.00159921
-0.00173575
-0.0018799
-0.00203198
-0.00219224
-0.00236088
-0.00253801
-0.00272366
-0.00291776
-0.0031201
-0.00333036
-0.00354805
-0.00377253
-0.00400296
-0.00423834
-0.00447744
-0.00471885
-0.00496095
-0.00520191
-0.00543975
-0.00567228
-0.0058972
-0.00611206
-0.00631434
-0.00650147
-0.00667087
-0.00682
-0.00694639
-0.00704771
-0.00712183
-0.00716683
-0.00718107
-0.00716323
-0.00711239
-0.00702799
-0.00690996
-0.00675866
-0.00657495
-0.00636017
-0.00611631
-0.00584573
-0.00555132
-0.00523649
-0.00490509
-0.00456136
-0.00420994
-0.00385573
-0.00350388
-0.00315967
-0.00282843
-0.00251548
-0.00222594
-0.00196471
-0.00173632
-0.00154483
-0.00139376
-0.00128595
-0.00122353
-0.00120783
-0.00123937
-0.0013178
-0.00144193
-0.00160974
-0.00181845
-0.00206458
-0.00234403
-0.00265222
-0.0029842
-0.00333477
-0.00369865
-0.00407059
-0.00444551
-0.0048186
-0.00518546
-0.00554213
-0.00588521
-0.00621185
-0.00651981
-0.00680741
-0.00707356
-0.00731768
-0.00753966
-0.00773983
-0.00791885
-0.00807765
-0.00821739
-0.00833936
-0.00844493
-0.00853552
-0.0086125
-0.00867716
-0.0087307
-0.00877416
-0.00880842
-0.00883413
-0.00885174
-0.00886143
-0.00886311
-0.00885634
-0.00884077
-0.00881596
-0.00877598
-0.00871026
7.6323e-05
0.000103108
0.000113426
0.00011202
0.000101622
8.25541e-05
5.53081e-05
2.05792e-05
-2.09254e-05
-6.85114e-05
-0.000121514
-0.000179329
-0.000241437
-0.000307427
-0.000377009
-0.000450024
-0.000526441
-0.000606353
-0.000689968
-0.000777589
-0.000869602
-0.000966458
-0.00106865
-0.0011767
-0.00129115
-0.00141254
-0.00154139
-0.0016782
-0.00182344
-0.00197753
-0.00214085
-0.00231369
-0.00249627
-0.00268871
-0.00289101
-0.00310303
-0.00332448
-0.00355491
-0.00379366
-0.00403988
-0.00429249
-0.0045502
-0.00481148
-0.00507459
-0.00533754
-0.00559818
-0.00585416
-0.00610295
-0.00634194
-0.0065684
-0.00677957
-0.00697268
-0.007145
-0.00729392
-0.00741694
-0.00751179
-0.00757643
-0.00760909
-0.00760837
-0.00757325
-0.0075031
-0.00739776
-0.00725754
-0.00708325
-0.00687616
-0.00663826
-0.00637184
-0.00607977
-0.00576544
-0.00543268
-0.00508575
-0.00472928
-0.00436823
-0.00400779
-0.00365331
-0.00331023
-0.00298395
-0.00267976
-0.00240272
-0.00215754
-0.0019485
-0.00177933
-0.0016531
-0.00157218
-0.00153815
-0.00155173
-0.0016128
-0.00172035
-0.00187254
-0.0020667
-0.00229944
-0.00256672
-0.00286397
-0.00318618
-0.00352811
-0.00388437
-0.00424956
-0.00461846
-0.0049861
-0.00534791
-0.00569976
-0.0060381
-0.00635995
-0.00666294
-0.00694531
-0.0072059
-0.00744412
-0.00765986
-0.00785347
-0.00802568
-0.00817748
-0.00831014
-0.00842505
-0.00852369
-0.00860759
-0.00867823
-0.008737
-0.00878518
-0.00882389
-0.00885404
-0.0088763
-0.00889112
-0.00889861
-0.0088986
-0.00889054
-0.00887387
-0.008848
-0.00880666
-0.00873885
0.00013439
0.000157528
0.000164968
0.000161009
0.000148187
0.000126894
9.76839e-05
6.12977e-05
1.84862e-05
-3.00228e-05
-8.35446e-05
-0.000141467
-0.000203279
-0.000268591
-0.000337149
-0.000408843
-0.000483706
-0.000561903
-0.000643726
-0.00072957
-0.000819923
-0.00091534
-0.00101643
-0.00112383
-0.00123821
-0.00136022
-0.00149053
-0.00162975
-0.00177851
-0.00193733
-0.00210672
-0.00228709
-0.00247875
-0.00268192
-0.00289666
-0.00312287
-0.00336029
-0.00360845
-0.00386666
-0.00413397
-0.00440923
-0.00469101
-0.00497761
-0.00526712
-0.00555738
-0.00584599
-0.0061304
-0.00640787
-0.00667556
-0.00693052
-0.00716979
-0.00739042
-0.00758949
-0.00776421
-0.00791197
-0.00803033
-0.00811714
-0.00817054
-0.00818902
-0.00817147
-0.00811718
-0.00802594
-0.00789798
-0.00773404
-0.00753537
-0.00730382
-0.00704167
-0.00675176
-0.00643743
-0.00610247
-0.00575112
-0.00538802
-0.00501813
-0.00464667
-0.00427906
-0.00392083
-0.00357749
-0.00325449
-0.00295706
-0.00269012
-0.00245818
-0.00226524
-0.00211466
-0.00200909
-0.0019504
-0.00193963
-0.00197692
-0.00206155
-0.0021919
-0.0023655
-0.00257911
-0.00282882
-0.00311009
-0.00341797
-0.00374714
-0.00409213
-0.00444745
-0.00480771
-0.00516776
-0.00552284
-0.00586863
-0.00620138
-0.00651793
-0.00681575
-0.00709294
-0.00734823
-0.00758095
-0.00779095
-0.00797855
-0.0081445
-0.00828985
-0.00841592
-0.00852419
-0.00861623
-0.00869368
-0.00875811
-0.00881104
-0.00885382
-0.00888765
-0.00891351
-0.00893211
-0.00894391
-0.00894902
-0.00894721
-0.00893787
-0.00892035
-0.00889395
-0.00885229
-0.00878437
0.000204023
0.000222343
0.000226082
0.000218943
0.000203176
0.000179227
0.000147691
0.000109334
6.49272e-05
1.52128e-05
-3.91197e-05
-9.74641e-05
-0.000159329
-0.000224358
-0.000292346
-0.000363244
-0.000437159
-0.000514345
-0.000595189
-0.000680199
-0.000769978
-0.000865209
-0.000966632
-0.00107503
-0.0011912
-0.00131597
-0.00145012
-0.00159446
-0.00174971
-0.00191658
-0.00209567
-0.00228754
-0.00249258
-0.00271107
-0.00294313
-0.00318869
-0.00344745
-0.0037189
-0.00400224
-0.00429644
-0.00460017
-0.00491181
-0.00522949
-0.00555106
-0.00587411
-0.00619602
-0.00651399
-0.00682504
-0.00712609
-0.00741398
-0.00768553
-0.0079376
-0.00816712
-0.00837112
-0.00854685
-0.00869176
-0.00880357
-0.00888033
-0.00892044
-0.0089227
-0.00888632
-0.00881099
-0.00869688
-0.00854465
-0.00835548
-0.00813112
-0.0078738
-0.00758626
-0.00727178
-0.00693411
-0.00657742
-0.00620632
-0.00582576
-0.00544098
-0.00505745
-0.00468075
-0.00431652
-0.00397035
-0.00364766
-0.00335361
-0.00309296
-0.00287002
-0.00268846
-0.0025513
-0.00246077
-0.00241828
-0.00242435
-0.00247858
-0.00257968
-0.00272548
-0.00291298
-0.00313844
-0.00339747
-0.00368517
-0.00399625
-0.0043252
-0.00466641
-0.00501436
-0.00536372
-0.00570953
-0.00604725
-0.0063729
-0.00668309
-0.00697508
-0.00724679
-0.00749678
-0.00772423
-0.0079289
-0.00811106
-0.00827139
-0.00841097
-0.00853112
-0.0086334
-0.00871944
-0.00879095
-0.00884962
-0.00889704
-0.00893467
-0.00896379
-0.00898546
-0.00900045
-0.00900925
-0.00901201
-0.0090085
-0.00899807
-0.00898005
-0.00895367
-0.0089127
-0.00884641
0.000284844
0.000297249
0.000296523
0.000285626
0.000266437
0.000239442
0.000205262
0.000164657
0.000118395
6.72104e-05
1.17803e-05
-4.73136e-05
-0.000109615
-0.000174817
-0.000242775
-0.000313517
-0.000387239
-0.000464298
-0.000545197
-0.000630569
-0.000721156
-0.000817786
-0.000921354
-0.0010328
-0.0011531
-0.00128324
-0.00142417
-0.00157686
-0.00174221
-0.00192105
-0.00211413
-0.00232209
-0.00254543
-0.00278447
-0.00303935
-0.00330996
-0.00359595
-0.0038967
-0.0042113
-0.00453852
-0.00487683
-0.0052244
-0.00557909
-0.0059385
-0.00629996
-0.00666059
-0.00701732
-0.00736691
-0.00770606
-0.00803138
-0.00833951
-0.00862709
-0.00889091
-0.00912786
-0.00933504
-0.00950978
-0.00964972
-0.00975278
-0.00981729
-0.00984193
-0.00982586
-0.00976865
-0.00967038
-0.00953163
-0.00935347
-0.00913753
-0.00888595
-0.00860138
-0.00828697
-0.00794639
-0.00758375
-0.00720358
-0.00681078
-0.00641059
-0.00600848
-0.0056101
-0.00522118
-0.00484745
-0.00449452
-0.00416778
-0.00387229
-0.00361268
-0.00339301
-0.00321669
-0.0030864
-0.00300399
-0.00297042
-0.00298575
-0.00304911
-0.0031587
-0.00331187
-0.00350515
-0.00373438
-0.00399481
-0.00428122
-0.00458811
-0.00490981
-0.00524069
-0.00557525
-0.0059083
-0.00623509
-0.00655137
-0.00685349
-0.00713844
-0.00740391
-0.00764823
-0.0078704
-0.00806999
-0.00824716
-0.00840251
-0.00853705
-0.0086521
-0.0087492
-0.00883004
-0.00889638
-0.00894998
-0.00899251
-0.00902553
-0.0090504
-0.00906825
-0.00907993
-0.00908601
-0.00908666
-0.0090817
-0.0090705
-0.0090524
-0.00902663
-0.00898725
-0.00892407
0.000376368
0.000381816
0.00037591
0.000360731
0.000337699
0.000307322
0.000270227
0.000227136
0.000178784
0.000125878
6.90571e-05
8.8592e-06
-5.43138e-05
-0.00012022
-0.000188796
-0.000260159
-0.000334614
-0.000412637
-0.000494867
-0.000582082
-0.000675181
-0.000775161
-0.000883092
-0.0010001
-0.00112734
-0.00126599
-0.00141719
-0.00158207
-0.0017617
-0.00195705
-0.00216901
-0.00239829
-0.00264544
-0.00291081
-0.0031945
-0.00349635
-0.00381589
-0.00415234
-0.00450459
-0.00487121
-0.00525041
-0.00564009
-0.00603783
-0.00644094
-0.00684647
-0.00725126
-0.00765196
-0.00804509
-0.00842712
-0.00879445
-0.00914351
-0.0094708
-0.00977291
-0.0100466
-0.0102889
-0.010497
-0.0106684
-0.010801
-0.0108929
-0.0109429
-0.0109498
-0.0109132
-0.0108331
-0.0107099
-0.0105446
-0.0103387
-0.0100941
-0.00981345
-0.00949971
-0.00915642
-0.00878757
-0.0083976
-0.00799134
-0.00757397
-0.00715093
-0.00672791
-0.00631071
-0.00590517
-0.00551709
-0.00515211
-0.00481557
-0.00451245
-0.00424723
-0.00402378
-0.00384528
-0.00371409
-0.00363172
-0.00359876
-0.00361488
-0.00367878
-0.00378825
-0.00394022
-0.00413084
-0.00435562
-0.0046095
-0.00488706
-0.00518264
-0.0054905
-0.00580503
-0.00612082
-0.00643287
-0.00673666
-0.00702823
-0.00730428
-0.0075622
-0.00780004
-0.00801653
-0.00821104
-0.00838351
-0.00853441
-0.00866463
-0.0087754
-0.00886825
-0.00894484
-0.00900696
-0.0090564
-0.0090949
-0.00912409
-0.0091454
-0.00916006
-0.00916899
-0.00917282
-0.00917181
-0.00916582
-0.00915429
-0.0091366
-0.009112
-0.00907497
-0.00901609
0.000477972
0.000475456
0.000463706
0.000443779
0.000416543
0.000382513
0.000342278
0.000296497
0.000245844
0.000190967
0.000132444
7.07454e-05
6.19812e-06
-6.10417e-05
-0.000131007
-0.000203929
-0.000280236
-0.000360547
-0.000445653
-0.0005365
-0.000634165
-0.000739834
-0.000854776
-0.000980318
-0.00111782
-0.00126865
-0.00143416
-0.00161564
-0.00181433
-0.00203133
-0.00226762
-0.00252398
-0.00280098
-0.00309894
-0.00341788
-0.00375752
-0.00411721
-0.00449599
-0.0048925
-0.00530502
-0.00573149
-0.00616951
-0.00661634
-0.00706899
-0.00752422
-0.00797856
-0.00842843
-0.00887009
-0.00929977
-0.00971369
-0.0101081
-0.0104793
-0.0108238
-0.0111382
-0.0114194
-0.0116644
-0.0118708
-0.0120362
-0.0121588
-0.0122371
-0.0122699
-0.0122567
-0.0121973
-0.0120919
-0.0119416
-0.0117475
-0.0115115
-0.0112361
-0.0109239
-0.0105785
-0.0102036
-0.00980355
-0.00938304
-0.00894717
-0.00850132
-0.00805116
-0.00760252
-0.00716134
-0.00673357
-0.00632506
-0.00594146
-0.00558812
-0.00526993
-0.00499126
-0.00475585
-0.00456664
-0.00442579
-0.00433451
-0.00429312
-0.00430092
-0.00435629
-0.00445669
-0.00459871
-0.00477822
-0.00499044
-0.00523012
-0.00549167
-0.00576936
-0.00605743
-0.00635034
-0.0066428
-0.00693002
-0.00720772
-0.00747226
-0.00772065
-0.00795063
-0.0081606
-0.00834963
-0.00851742
-0.00866421
-0.0087907
-0.008898
-0.00898752
-0.00906088
-0.00911984
-0.00916619
-0.0092017
-0.00922805
-0.00924674
-0.00925905
-0.00926599
-0.00926825
-0.00926618
-0.00925971
-0.00924838
-0.0092316
-0.00920871
-0.00917469
-0.00912099
0.000588866
0.000577401
0.000559203
0.000534123
0.000502385
0.000464478
0.000420926
0.000372284
0.000319132
0.000262026
0.000201456
0.000137802
7.12921e-05
1.97561e-06
-7.02997e-05
-0.000145897
-0.000225393
-0.000309566
-0.000399383
-0.00049598
-0.000600634
-0.000714741
-0.000839785
-0.000977313
-0.0011289
-0.00129612
-0.00148052
-0.00168357
-0.00190664
-0.00215095
-0.00241754
-0.00270722
-0.00302052
-0.00335769
-0.00371862
-0.00410284
-0.00450949
-0.00493735
-0.00538477
-0.00584972
-0.00632982
-0.00682234
-0.00732422
-0.00783215
-0.00834259
-0.0088518
-0.00935591
-0.00985098
-0.010333
-0.010798
-0.0112421
-0.0116614
-0.0120523
-0.0124112
-0.012735
-0.0130207
-0.0132655
-0.0134671
-0.0136235
-0.0137331
-0.0137947
-0.0138076
-0.0137715
-0.0136865
-0.0135533
-0.0133731
-0.0131476
-0.0128789
-0.0125696
-0.012223
-0.0118427
-0.0114328
-0.0109978
-0.0105428
-0.0100729
-0.00959371
-0.00911115
-0.00863116
-0.0081598
-0.00770311
-0.00726701
-0.00685718
-0.00647897
-0.00613726
-0.00583636
-0.00557989
-0.00537068
-0.00521071
-0.005101
-0.00504164
-0.00503171
-0.00506932
-0.00515167
-0.00527512
-0.00543531
-0.00562728
-0.00584563
-0.00608468
-0.00633865
-0.00660183
-0.00686874
-0.00713428
-0.00739383
-0.00764336
-0.0078795
-0.00809958
-0.00830162
-0.00848433
-0.00864707
-0.00878978
-0.00891293
-0.00901742
-0.00910449
-0.00917564
-0.00923255
-0.00927697
-0.00931066
-0.00933531
-0.00935245
-0.00936342
-0.00936929
-0.00937083
-0.00936845
-0.00936218
-0.00935163
-0.00933631
-0.00931562
-0.0092851
-0.00923718
0.000708048
0.000686702
0.000661489
0.000630909
0.000594431
0.000552477
0.000505471
0.00045382
0.000397969
0.000338354
0.000275346
0.000209206
0.000140042
6.7771e-05
-7.90017e-06
-8.74901e-05
-0.000171744
-0.000261624
-0.000358296
-0.000463106
-0.000577553
-0.000703261
-0.000841947
-0.000995385
-0.00116537
-0.0013537
-0.00156208
-0.00179216
-0.00204542
-0.00232316
-0.00262644
-0.00295603
-0.00331241
-0.00369566
-0.00410549
-0.00454121
-0.00500168
-0.00548537
-0.0059903
-0.00651411
-0.00705406
-0.00760708
-0.00816979
-0.00873855
-0.00930952
-0.00987868
-0.0104419
-0.0109951
-0.0115339
-0.0120543
-0.0125522
-0.0130235
-0.0134646
-0.0138717
-0.0142416
-0.0145712
-0.0148576
-0.0150985
-0.0152917
-0.0154356
-0.0155288
-0.0155704
-0.0155601
-0.0154978
-0.0153841
-0.01522
-0.0150069
-0.0147467
-0.0144419
-0.0140955
-0.0137109
-0.0132919
-0.012843
-0.0123687
-0.0118743
-0.0113652
-0.0108471
-0.0103261
-0.0098082
-0.00929962
-0.00880648
-0.00833479
-0.0078903
-0.00747841
-0.00710401
-0.00677142
-0.00648422
-0.00624521
-0.00605627
-0.00591834
-0.00583136
-0.00579425
-0.00580498
-0.00586058
-0.00595725
-0.00609047
-0.00625515
-0.00644581
-0.00665672
-0.00688209
-0.00711627
-0.00735386
-0.00758992
-0.00782
-0.0080403
-0.00824768
-0.00843973
-0.0086147
-0.00877157
-0.00890988
-0.00902979
-0.00913191
-0.00921725
-0.00928712
-0.00934306
-0.00938673
-0.00941982
-0.009444
-0.00946079
-0.00947156
-0.00947743
-0.0094792
-0.00947737
-0.00947204
-0.00946292
-0.0094496
-0.00943155
-0.0094049
-0.00936309
0.000834299
0.000802165
0.000769425
0.000733058
0.000691656
0.000645532
0.000594968
0.000540167
0.000481406
0.000418963
0.00035306
0.000283814
0.000211182
0.000134929
5.45927e-05
-3.05216e-05
-0.000121352
-0.000219069
-0.000325059
-0.000440899
-0.000568328
-0.000709213
-0.000865515
-0.00103924
-0.00123242
-0.00144702
-0.00168495
-0.00194795
-0.00223761
-0.00255525
-0.00290191
-0.00327827
-0.00368467
-0.00412099
-0.0045867
-0.00508082
-0.00560189
-0.00614803
-0.0067169
-0.00730579
-0.00791157
-0.00853084
-0.00915986
-0.00979469
-0.0104312
-0.0110651
-0.011692
-0.0123075
-0.0129073
-0.0134869
-0.0140423
-0.0145692
-0.0150637
-0.0155223
-0.0159413
-0.0163177
-0.0166486
-0.0169314
-0.017164
-0.0173446
-0.0174717
-0.0175445
-0.0175623
-0.017525
-0.0174329
-0.0172869
-0.0170882
-0.0168386
-0.0165402
-0.0161957
-0.0158084
-0.0153817
-0.0149199
-0.0144273
-0.0139088
-0.0133698
-0.0128158
-0.0122527
-0.0116866
-0.0111237
-0.0105702
-0.0100326
-0.00951678
-0.0090287
-0.00857382
-0.00815715
-0.00778306
-0.00745521
-0.00717643
-0.00694862
-0.00677271
-0.00664861
-0.0065752
-0.00655036
-0.00657105
-0.00663339
-0.00673276
-0.006864
-0.00702159
-0.00719975
-0.00739273
-0.0075949
-0.00780098
-0.0080061
-0.008206
-0.00839703
-0.00857626
-0.00874144
-0.00889104
-0.00902418
-0.00914057
-0.00924047
-0.00932458
-0.00939396
-0.00944992
-0.00949397
-0.00952768
-0.00955264
-0.00957034
-0.00958212
-0.00958911
-0.00959217
-0.00959182
-0.00958823
-0.00958121
-0.00957042
-0.00955541
-0.00953288
-0.00949726
0.000966132
0.00092235
0.000881626
0.000839239
0.000792783
0.00074242
0.000688195
0.0006301
0.000568189
0.000502546
0.000433212
0.00036013
0.000283081
0.000201648
0.000115182
2.27825e-05
-7.67046e-05
-0.00018468
-0.000302773
-0.000432809
-0.000576786
-0.000736823
-0.00091513
-0.00111395
-0.00133551
-0.00158197
-0.00185537
-0.00215755
-0.00249012
-0.00285439
-0.0032513
-0.00368141
-0.00414482
-0.00464119
-0.00516968
-0.00572895
-0.00631721
-0.00693217
-0.00757112
-0.00823096
-0.0089082
-0.00959905
-0.0102994
-0.0110051
-0.0117117
-0.0124145
-0.0131091
-0.0137908
-0.014455
-0.0150972
-0.0157131
-0.0162984
-0.0168492
-0.0173616
-0.0178322
-0.0182577
-0.0186351
-0.0189619
-0.0192358
-0.0194551
-0.0196181
-0.0197238
-0.0197716
-0.0197612
-0.0196926
-0.0195667
-0.0193845
-0.0191474
-0.0188575
-0.018517
-0.0181289
-0.0176966
-0.0172237
-0.0167144
-0.0161734
-0.0156056
-0.0150165
-0.0144116
-0.013797
-0.0131789
-0.0125636
-0.0119575
-0.011367
-0.0107983
-0.0102575
-0.00975021
-0.00928158
-0.00885618
-0.0084778
-0.00814941
-0.00787306
-0.00764977
-0.00747952
-0.00736124
-0.00729285
-0.00727129
-0.00729264
-0.00735228
-0.00744502
-0.00756527
-0.00770726
-0.00786523
-0.00803359
-0.00820709
-0.00838097
-0.00855103
-0.00871377
-0.00886635
-0.00900667
-0.00913329
-0.00924544
-0.00934291
-0.00942601
-0.00949545
-0.00955226
-0.00959771
-0.0096332
-0.00966017
-0.00968003
-0.00969406
-0.00970336
-0.00970878
-0.00971087
-0.00970986
-0.00970562
-0.00969786
-0.00968623
-0.00966795
-0.00963839
0.00110177
0.00104554
0.00099643
0.000947847
0.000896259
0.000841579
0.000783623
0.000722076
0.000656733
0.000587449
0.000514052
0.000436279
0.000353712
0.000265727
0.000171457
6.9776e-05
-4.07123e-05
-0.000161661
-0.000294959
-0.0004427
-0.000607147
-0.00079068
-0.000995752
-0.00122483
-0.00148033
-0.00176456
-0.00207965
-0.00242749
-0.00280968
-0.00322743
-0.00368153
-0.00417234
-0.0046997
-0.00526294
-0.00586087
-0.00649179
-0.00715347
-0.00784325
-0.008558
-0.00929421
-0.010048
-0.0108152
-0.0115915
-0.0123722
-0.0131527
-0.0139281
-0.0146936
-0.0154444
-0.0161758
-0.0168831
-0.0175617
-0.0182075
-0.0188163
-0.0193843
-0.0199079
-0.0203838
-0.0208091
-0.0211811
-0.0214976
-0.0217566
-0.0219567
-0.0220967
-0.0221758
-0.0221937
-0.0221503
-0.0220462
-0.0218823
-0.0216598
-0.0213803
-0.0210462
-0.0206598
-0.0202241
-0.0197427
-0.0192193
-0.0186582
-0.018064
-0.0174418
-0.016797
-0.0161353
-0.0154629
-0.0147858
-0.0141108
-0.0134441
-0.0127925
-0.0121623
-0.0115597
-0.0109907
-0.0104607
-0.00997441
-0.00953598
-0.00914861
-0.00881457
-0.00853513
-0.00831043
-0.00813957
-0.00802056
-0.00795041
-0.00792525
-0.00794046
-0.00799082
-0.00807073
-0.00817439
-0.008296
-0.00842996
-0.00857102
-0.00871442
-0.00885603
-0.00899236
-0.00912063
-0.00923879
-0.00934545
-0.00943985
-0.00952179
-0.00959157
-0.00964984
-0.00969755
-0.00973585
-0.00976599
-0.00978921