/*--------------------------------*- C++ -*----------------------------------*\
| =========                 |                                                 |
| \\      /  F ield         | OpenFOAM: The Open Source CFD Toolbox           |
|  \\    /   O peration     | Version:  2112                                  |
|   \\  /    A nd           | Website:  www.openfoam.com                      |
|    \\/     M anipulation  |                                                 |
\*---------------------------------------------------------------------------*/
FoamFile
{
    version     2.0;
    format      ascii;
    arch        "LSB;label=32;scalar=64";
    class       surfaceScalarField;
    location    "35";
    object      phi;
}
// * * * * * * * * * * * * * * * * * * * * * * * * * * * * * * * * * * * * * //

dimensions      [0 3 -1 0 0 0 0];

oriented        oriented;

internalField   nonuniform List<scalar> 
33024
(
-3.76784e-09
3.55724e-09
2.28765e-08
-2.66416e-08
8.03431e-08
-5.7466e-08
1.60152e-07
-7.98106e-08
2.53678e-07
-9.35257e-08
3.53583e-07
-9.99038e-08
4.53994e-07
-1.0041e-07
5.504e-07
-9.64063e-08
6.39451e-07
-8.9052e-08
7.18759e-07
-7.93084e-08
7.86725e-07
-6.79653e-08
8.42391e-07
-5.56646e-08
8.85304e-07
-4.29132e-08
9.15398e-07
-3.00953e-08
9.32883e-07
-1.74853e-08
9.38143e-07
-5.2607e-09
9.31651e-07
6.49231e-09
9.13895e-07
1.77569e-08
8.85312e-07
2.85832e-08
8.46245e-07
3.90677e-08
7.96902e-07
4.93422e-08
7.37341e-07
5.95603e-08
6.67457e-07
6.98843e-08
5.86983e-07
8.04746e-08
4.95502e-07
9.14808e-08
3.92468e-07
1.03034e-07
2.77224e-07
1.15244e-07
1.49033e-07
1.28191e-07
7.10317e-09
1.4193e-07
-1.49384e-07
1.56487e-07
-3.21247e-07
1.71863e-07
-5.09281e-07
1.88034e-07
-7.14231e-07
2.04951e-07
-9.36777e-07
2.22546e-07
-1.17751e-06
2.40731e-07
-1.43691e-06
2.59398e-07
-1.71533e-06
2.78422e-07
-2.01299e-06
2.97661e-07
-2.32994e-06
3.16955e-07
-2.66607e-06
3.36125e-07
-3.02105e-06
3.5498e-07
-3.39436e-06
3.73309e-07
-3.78525e-06
3.90888e-07
-4.19273e-06
4.07481e-07
-4.61557e-06
4.22838e-07
-5.05227e-06
4.36702e-07
-5.50108e-06
4.4881e-07
-5.95997e-06
4.58895e-07
-6.42666e-06
4.6669e-07
-6.8986e-06
4.71934e-07
-7.37297e-06
4.74371e-07
-7.84673e-06
4.7376e-07
-8.3166e-06
4.69874e-07
-8.77911e-06
4.62507e-07
-9.23059e-06
4.51478e-07
-9.66722e-06
4.36633e-07
-1.00851e-05
4.17851e-07
-1.04801e-05
3.95048e-07
-1.08483e-05
3.68181e-07
-1.11855e-05
3.37247e-07
-1.14878e-05
3.02293e-07
-1.17513e-05
2.63414e-07
-1.1972e-05
2.20757e-07
-1.21465e-05
1.74527e-07
-1.22715e-05
1.2501e-07
-1.23441e-05
7.25306e-08
-1.23615e-05
1.74672e-08
-1.23214e-05
-4.01812e-08
-1.22222e-05
-9.9211e-08
-1.20626e-05
-1.59507e-07
-1.18422e-05
-2.20423e-07
-1.15609e-05
-2.81332e-07
-1.12193e-05
-3.41577e-07
-1.08188e-05
-4.00469e-07
-1.03615e-05
-4.57304e-07
-9.85018e-06
-5.11367e-07
-9.28823e-06
-5.61949e-07
-8.67987e-06
-6.08357e-07
-8.02994e-06
-6.49929e-07
-7.34389e-06
-6.86048e-07
-6.62773e-06
-7.1616e-07
-5.88795e-06
-7.39784e-07
-5.13142e-06
-7.56529e-07
-4.36531e-06
-7.66107e-07
-3.59697e-06
-7.68342e-07
-2.83379e-06
-7.63179e-07
-2.0831e-06
-7.50689e-07
-1.35203e-06
-7.31072e-07
-6.47376e-07
-7.04653e-07
2.45139e-08
-6.7189e-07
6.57948e-07
-6.33434e-07
1.24771e-06
-5.89766e-07
1.78948e-06
-5.41768e-07
2.27971e-06
-4.90232e-07
2.71575e-06
-4.36033e-07
3.0958e-06
-3.80054e-07
3.41899e-06
-3.23187e-07
3.68529e-06
-2.66304e-07
3.89552e-06
-2.10231e-07
4.05126e-06
-1.55737e-07
4.15477e-06
-1.03511e-07
4.20892e-06
-5.41501e-08
4.21708e-06
-8.15278e-09
4.18298e-06
3.40947e-08
4.11067e-06
7.23077e-08
4.00436e-06
1.06317e-07
3.8683e-06
1.36053e-07
3.70676e-06
1.61544e-07
3.52385e-06
1.82905e-07
3.32353e-06
2.00327e-07
3.10947e-06
2.1406e-07
2.88507e-06
2.24402e-07
2.65339e-06
2.31679e-07
2.41716e-06
2.36227e-07
2.17879e-06
2.38369e-07
1.9404e-06
2.38394e-07
1.70387e-06
2.36526e-07
1.47098e-06
2.32891e-07
1.24349e-06
2.27488e-07
1.02335e-06
2.20143e-07
8.12874e-07
2.10475e-07
6.1502e-07
1.97854e-07
4.3364e-07
1.8138e-07
2.7375e-07
1.59889e-07
1.41665e-07
1.32085e-07
4.47003e-08
9.69646e-08
-1.01903e-08
5.48899e-08
-2.07749e-08
1.05829e-08
-2.07767e-08
2.64525e-08
-2.28926e-08
1.18172e-07
-1.18363e-07
2.68811e-07
-2.08108e-07
4.6418e-07
-2.75179e-07
6.88392e-07
-3.17736e-07
9.26417e-07
-3.3793e-07
1.1652e-06
-3.39194e-07
1.394e-06
-3.25212e-07
1.60438e-06
-2.99427e-07
1.78995e-06
-2.64874e-07
1.94614e-06
-2.24156e-07
2.06991e-06
-1.79441e-07
2.15948e-06
-1.32484e-07
2.21403e-06
-8.46456e-08
2.23347e-06
-3.69211e-08
2.21818e-06
1.00245e-08
2.16884e-06
5.58322e-08
2.0862e-06
1.00399e-07
1.97095e-06
1.43836e-07
1.82359e-06
1.86426e-07
1.64435e-06
2.28577e-07
1.43314e-06
2.70774e-07
1.18949e-06
3.13538e-07
9.12573e-07
3.57388e-07
6.01248e-07
4.02806e-07
2.54072e-07
4.50211e-07
-1.30629e-07
4.99945e-07
-5.54691e-07
5.52253e-07
-1.02005e-06
6.07284e-07
-1.52864e-06
6.65084e-07
-2.08238e-06
7.25602e-07
-2.68304e-06
7.88692e-07
-3.33221e-06
8.54124e-07
-4.03125e-06
9.21582e-07
-4.78119e-06
9.90676e-07
-5.58274e-06
1.06095e-06
-6.43618e-06
1.13186e-06
-7.34134e-06
1.20282e-06
-8.29756e-06
1.27318e-06
-9.30365e-06
1.34221e-06
-1.03578e-05
1.40916e-06
-1.14577e-05
1.4732e-06
-1.26003e-05
1.53347e-06
-1.37819e-05
1.58908e-06
-1.49982e-05
1.63911e-06
-1.62441e-05
1.68263e-06
-1.7514e-05
1.71869e-06
-1.88014e-05
1.74637e-06
-2.00995e-05
1.76477e-06
-2.14006e-05
1.77301e-06
-2.26965e-05
1.77027e-06
-2.39785e-05
1.75581e-06
-2.52376e-05
1.72894e-06
-2.64642e-05
1.68908e-06
-2.76485e-05
1.63576e-06
-2.87804e-05
1.5686e-06
-2.98499e-05
1.48737e-06
-3.08469e-05
1.39197e-06
-3.17611e-05
1.28245e-06
-3.25829e-05
1.15901e-06
-3.33026e-05
1.02202e-06
-3.39112e-05
8.71997e-07
-3.44001e-05
7.09653e-07
-3.47614e-05
5.35869e-07
-3.49882e-05
3.51764e-07
-3.50742e-05
1.58558e-07
-3.50144e-05
-4.23e-08
-3.48045e-05
-2.50154e-07
-3.44417e-05
-4.6203e-07
-3.39246e-05
-6.76593e-07
-3.32531e-05
-8.91866e-07
-3.24287e-05
-1.10576e-06
-3.14542e-05
-1.31609e-06
-3.03341e-05
-1.52061e-06
-2.90743e-05
-1.71705e-06
-2.76826e-05
-1.90312e-06
-2.6168e-05
-2.07656e-06
-2.45411e-05
-2.2352e-06
-2.28141e-05
-2.37695e-06
-2.10002e-05
-2.49991e-06
-1.9114e-05
-2.60234e-06
-1.71711e-05
-2.68275e-06
-1.51877e-05
-2.73993e-06
-1.31808e-05
-2.77298e-06
-1.11678e-05
-2.78135e-06
-9.16613e-06
-2.76485e-06
-7.19314e-06
-2.72368e-06
-5.26578e-06
-2.65844e-06
-3.40029e-06
-2.57014e-06
-1.61204e-06
-2.46015e-06
8.47649e-08
-2.33023e-06
1.67748e-06
-2.18249e-06
3.15488e-06
-2.01916e-06
4.50757e-06
-1.84293e-06
5.72811e-06
-1.65657e-06
6.811e-06
-1.46295e-06
7.7528e-06
-1.26499e-06
8.55208e-06
-1.06558e-06
9.20937e-06
-8.67518e-07
9.72708e-06
-6.73451e-07
1.01094e-05
-4.85801e-07
1.03619e-05
-3.06729e-07
1.04919e-05
-1.38092e-07
1.05074e-05
1.8584e-08
1.04176e-05
1.62123e-07
1.02322e-05
2.91703e-07
9.9614e-06
4.06849e-07
9.61553e-06
5.07419e-07
9.20486e-06
5.93578e-07
8.73942e-06
6.65761e-07
8.22885e-06
7.24632e-07
7.68222e-06
7.71033e-07
7.10797e-06
8.05926e-07
6.51387e-06
8.30327e-07
5.90702e-06
8.45225e-07
5.29391e-06
8.51505e-07
4.68058e-06
8.49851e-07
4.07283e-06
8.40641e-07
3.47648e-06
8.23841e-07
2.89772e-06
7.98899e-07
2.34355e-06
7.64646e-07
1.82216e-06
7.19243e-07
1.34334e-06
6.60199e-07
9.1866e-07
5.84569e-07
5.61221e-07
4.89525e-07
2.84483e-07
3.73703e-07
9.9643e-08
2.39732e-07
1.09873e-08
9.92413e-08
-9.79037e-09
5.73347e-08
-8.02266e-08
2.08172e-07
-2.69203e-07
4.34181e-07
-4.34116e-07
7.15565e-07
-5.56562e-07
1.03183e-06
-6.33996e-07
1.36349e-06
-6.69594e-07
1.6932e-06
-6.6891e-07
2.00625e-06
-6.38255e-07
2.29064e-06
-5.83815e-07
2.53702e-06
-5.11254e-07
2.73841e-06
-4.25551e-07
2.88991e-06
-3.30941e-07
2.98833e-06
-2.30901e-07
3.03185e-06
-1.28168e-07
3.01971e-06
-2.47769e-08
2.95185e-06
7.7885e-08
2.82864e-06
1.79035e-07
2.65065e-06
2.78395e-07
2.41836e-06
3.76123e-07
2.13207e-06
4.72718e-07
1.79171e-06
5.68933e-07
1.39681e-06
6.65679e-07
9.46407e-07
7.63938e-07
4.39106e-07
8.64689e-07
-1.26928e-07
9.68839e-07
-7.53883e-07
1.07717e-06
-1.44422e-06
1.19028e-06
-2.20057e-06
1.3086e-06
-3.02562e-06
1.43234e-06
-3.92201e-06
1.56148e-06
-4.89223e-06
1.69582e-06
-5.93849e-06
1.83495e-06
-7.06261e-06
1.97825e-06
-8.26598e-06
2.12495e-06
-9.5494e-06
2.2741e-06
-1.09131e-05
2.4246e-06
-1.23564e-05
2.57521e-06
-1.38781e-05
2.72455e-06
-1.54761e-05
2.87112e-06
-1.71472e-05
3.01331e-06
-1.88874e-05
3.1494e-06
-2.06918e-05
3.27761e-06
-2.25544e-05
3.39608e-06
-2.44683e-05
3.5029e-06
-2.64253e-05
3.59614e-06
-2.84166e-05
3.67389e-06
-3.04321e-05
3.73424e-06
-3.24611e-05
3.77538e-06
-3.44919e-05
3.79554e-06
-3.6512e-05
3.79309e-06
-3.85083e-05
3.76655e-06
-4.0467e-05
3.71459e-06
-4.23742e-05
3.63608e-06
-4.42152e-05
3.53011e-06
-4.59755e-05
3.39602e-06
-4.76403e-05
3.23338e-06
-4.91949e-05
3.04206e-06
-5.06252e-05
2.82221e-06
-5.1917e-05
2.57428e-06
-5.3057e-05
2.299e-06
-5.40325e-05
1.99746e-06
-5.48315e-05
1.67104e-06
-5.54433e-05
1.32142e-06
-5.5858e-05
9.50625e-07
-5.60674e-05
5.61106e-07
-5.6065e-05
1.56169e-07
-5.58436e-05
-2.63659e-07
-5.54006e-05
-6.93198e-07
-5.47334e-05
-1.12918e-06
-5.38419e-05
-1.56817e-06
-5.27274e-05
-2.00634e-06
-5.13935e-05
-2.43964e-06
-4.98457e-05
-2.86391e-06
-4.80914e-05
-3.27489e-06
-4.61401e-05
-3.6683e-06
-4.40034e-05
-4.03987e-06
-4.16945e-05
-4.38541e-06
-3.92288e-05
-4.70088e-06
-3.66233e-05
-4.98246e-06
-3.38966e-05
-5.22662e-06
-3.10688e-05
-5.43017e-06
-2.81612e-05
-5.59038e-06
-2.51961e-05
-5.70499e-06
-2.21968e-05
-5.77233e-06
-1.91868e-05
-5.79133e-06
-1.619e-05
-5.76162e-06
-1.32302e-05
-5.68348e-06
-1.03307e-05
-5.55797e-06
-7.51398e-06
-5.38683e-06
-4.80159e-06
-5.17254e-06
-2.21357e-06
-4.91826e-06
2.31697e-07
-4.62775e-06
2.51793e-06
-4.30539e-06
4.63084e-06
-3.95584e-06
6.55876e-06
-3.58449e-06
8.29251e-06
-3.1967e-06
9.82557e-06
-2.79805e-06
1.11541e-05
-2.39414e-06
1.22771e-05
-1.99048e-06
1.3196e-05
-1.59232e-06
1.39147e-05
-1.20458e-06
1.44397e-05
-8.31727e-07
1.47793e-05
-4.77696e-07
1.49438e-05
-1.45827e-07
1.49447e-05
1.6118e-07
1.47951e-05
4.41312e-07
1.45087e-05
6.93213e-07
1.41e-05
9.16194e-07
1.35834e-05
1.11018e-06
1.29734e-05
1.27566e-06
1.22845e-05
1.41361e-06
1.15301e-05
1.5254e-06
1.07234e-05
1.61264e-06
9.87657e-06
1.67714e-06
9.00112e-06
1.72067e-06
8.10779e-06
1.74484e-06
7.20676e-06
1.75088e-06
6.30789e-06
1.73951e-06
5.42107e-06
1.71066e-06
4.5566e-06
1.66338e-06
3.72564e-06
1.5956e-06
2.94071e-06
1.50418e-06
2.21592e-06
1.38498e-06
1.56712e-06
1.23337e-06
1.01139e-06
1.04526e-06
5.65753e-07
8.19334e-07
2.44841e-07
5.60643e-07
5.705e-08
2.87033e-07
4.72593e-08
8.00747e-08
-1.60303e-07
2.7658e-07
-4.65709e-07
5.59105e-07
-7.1664e-07
9.01299e-07
-8.98756e-07
1.27853e-06
-1.01123e-06
1.66817e-06
-1.05923e-06
2.05011e-06
-1.05085e-06
2.40709e-06
-9.95236e-07
2.72481e-06
-9.01531e-07
2.99183e-06
-7.78271e-07
3.19936e-06
-6.33085e-07
3.34096e-06
-4.72547e-07
3.41218e-06
-3.0212e-07
3.41017e-06
-1.26153e-07
3.3333e-06
5.20876e-08
3.18084e-06
2.3035e-07
2.95257e-06
4.07309e-07
2.64851e-06
5.82454e-07
2.26867e-06
7.55958e-07
1.81285e-06
9.28539e-07
1.28047e-06
1.10132e-06
6.70492e-07
1.27565e-06
-1.86075e-08
1.45304e-06
-7.88848e-07
1.63493e-06
-1.64268e-06
1.82267e-06
-2.5829e-06
2.01739e-06
-3.61255e-06
2.21993e-06
-4.73476e-06
2.43081e-06
-5.95262e-06
2.65019e-06
-7.26902e-06
2.87789e-06
-8.68655e-06
3.11335e-06
-1.02073e-05
3.35568e-06
-1.18327e-05
3.60367e-06
-1.35636e-05
3.8558e-06
-1.53997e-05
4.11027e-06
-1.73402e-05
4.36503e-06
-1.93828e-05
4.6178e-06
-2.15243e-05
4.86608e-06
-2.37603e-05
5.10717e-06
-2.60853e-05
5.33823e-06
-2.84921e-05
5.55628e-06
-3.09727e-05
5.75822e-06
-3.35176e-05
5.94092e-06
-3.61159e-05
6.1012e-06
-3.87556e-05
6.2359e-06
-4.14237e-05
6.34195e-06
-4.41058e-05
6.41637e-06
-4.67868e-05
6.45635e-06
-4.94505e-05
6.45927e-06
-5.20802e-05
6.42278e-06
-5.46585e-05
6.34481e-06
-5.71675e-05
6.22361e-06
-5.95892e-05
6.05781e-06
-6.19055e-05
5.84641e-06
-6.40984e-05
5.58885e-06
-6.615e-05
5.28498e-06
-6.8043e-05
4.93512e-06
-6.97609e-05
4.54005e-06
-7.12876e-05
4.10098e-06
-7.26082e-05
3.61964e-06
-7.37089e-05
3.09818e-06
-7.45771e-05
2.53924e-06
-7.52016e-05
1.94591e-06
-7.55727e-05
1.32167e-06
-7.56817e-05
6.70095e-07
-7.55256e-05
1.51366e-10
-7.50943e-05
-6.94955e-07
-7.43889e-05
-1.39867e-06
-7.3408e-05
-2.11006e-06
-7.21531e-05
-2.8231e-06
-7.06276e-05
-3.5318e-06
-6.88372e-05
-4.22999e-06
-6.67898e-05
-4.91134e-06
-6.44953e-05
-5.56945e-06
-6.19657e-05
-6.19789e-06
-5.92152e-05
-6.79032e-06
-5.62601e-05
-7.34051e-06
-5.31185e-05
-7.84246e-06
-4.98105e-05
-8.2905e-06
-4.63577e-05
-8.67939e-06
-4.27835e-05
-9.0044e-06
-3.91125e-05
-9.26144e-06
-3.53703e-05
-9.44712e-06
-3.15838e-05
-9.55887e-06
-2.77801e-05
-9.59502e-06
-2.39868e-05
-9.55487e-06
-2.02316e-05
-9.43873e-06
-1.65416e-05
-9.24796e-06
-1.29434e-05
-8.98502e-06
-9.46255e-06
-8.6534e-06
-6.12316e-06
-8.25764e-06
-2.94769e-06
-7.80322e-06
4.34106e-08
-7.29649e-06
2.83228e-06
-6.7447e-06
5.4032e-06
-6.15541e-06
7.74348e-06
-5.53698e-06
9.84335e-06
-4.89792e-06
1.16961e-05
-4.24687e-06
1.3298e-05
-3.59242e-06
1.46486e-05
-2.94291e-06
1.57503e-05
-2.30623e-06
1.66082e-05
-1.6897e-06
1.72304e-05
-1.09991e-06
1.76272e-05
-5.42592e-07
1.78109e-05
-2.25368e-08
1.77957e-05
4.56489e-07
1.75972e-05
8.9172e-07
1.7232e-05
1.28144e-06
1.67173e-05
1.6249e-06
1.60707e-05
1.92229e-06
1.53097e-05
2.17459e-06
1.44516e-05
2.38344e-06
1.35133e-05
2.55101e-06
1.25107e-05
2.67974e-06
1.14592e-05
2.77212e-06
1.03736e-05
2.83048e-06
9.26782e-06
2.85664e-06
8.15568e-06
2.85164e-06
7.05086e-06
2.81548e-06
5.96741e-06
2.74682e-06
4.92017e-06
2.64284e-06
3.92514e-06
2.49921e-06
2.99979e-06
2.31033e-06
2.16307e-06
2.07009e-06
1.43508e-06
1.77325e-06
8.36269e-07
1.41815e-06
3.86133e-07
1.01078e-06
1.02004e-07
5.71163e-07
1.49263e-07
9.46785e-08
-2.54981e-07
3.21787e-07
-6.92815e-07
6.41197e-07
-1.03605e-06
1.02039e-06
-1.27795e-06
1.43088e-06
-1.42172e-06
1.84747e-06
-1.47583e-06
2.2481e-06
-1.45148e-06
2.61384e-06
-1.36098e-06
2.92889e-06
-1.21658e-06
3.1804e-06
-1.02979e-06
3.35831e-06
-8.10993e-07
3.45498e-06
-5.69216e-07
3.46487e-06
-3.12014e-07
3.38416e-06
-4.54442e-08
3.21035e-06
2.25907e-07
2.94185e-06
4.98845e-07
2.57771e-06
7.71454e-07
2.11721e-06
1.04295e-06
1.55968e-06
1.31349e-06
9.04209e-07
1.58401e-06
1.49562e-07
1.85596e-06
-7.05954e-07
2.13117e-06
-1.6645e-06
2.41159e-06
-2.7287e-06
2.69912e-06
-3.90153e-06
2.9955e-06
-5.18624e-06
3.3021e-06
-6.5862e-06
3.61989e-06
-8.10475e-06
3.94935e-06
-9.74498e-06
4.29043e-06
-1.15096e-05
4.64253e-06
-1.34008e-05
5.00453e-06
-1.54199e-05
5.3748e-06
-1.75675e-05
5.75123e-06
-1.98429e-05
6.13125e-06
-2.22446e-05
6.51189e-06
-2.47694e-05
6.88983e-06
-2.74129e-05
7.26139e-06
-3.01695e-05
7.62262e-06
-3.30316e-05
7.96934e-06
-3.59906e-05
8.29716e-06
-3.90358e-05
8.60155e-06
-4.21555e-05
8.87793e-06
-4.53363e-05
9.12167e-06
-4.85633e-05
9.32821e-06
-5.18205e-05
9.4931e-06
-5.50906e-05
9.61208e-06
-5.83554e-05
9.68115e-06
-6.15957e-05
9.69662e-06
-6.47916e-05
9.6552e-06
-6.79228e-05
9.55402e-06
-7.09687e-05
9.39071e-06
-7.39086e-05
9.16344e-06
-7.67217e-05
8.87092e-06
-7.93878e-05
8.51249e-06
-8.1887e-05
8.08805e-06
-8.42001e-05
7.59816e-06
-8.6309e-05
7.04398e-06
-8.81963e-05
6.42732e-06
-8.98459e-05
5.75058e-06
-9.1243e-05
5.01677e-06
-9.23743e-05
4.2295e-06
-9.3228e-05
3.39294e-06
-9.37939e-05
2.51182e-06
-9.40636e-05
1.5914e-06
-9.40312e-05
6.3761e-07
-9.36881e-05
-3.42858e-07
-9.30374e-05
-1.34571e-06
-9.20746e-05
-2.36145e-06
-9.08015e-05
-3.3832e-06
-8.92212e-05
-4.40334e-06
-8.73392e-05
-5.41386e-06
-8.51627e-05
-6.4065e-06
-8.27011e-05
-7.37285e-06
-7.99662e-05
-8.30441e-06
-7.69714e-05
-9.19269e-06
-7.37324e-05
-1.00293e-05
-7.02669e-05
-1.0806e-05
-6.65945e-05
-1.15149e-05
-6.27365e-05
-1.21485e-05
-5.87162e-05
-1.26998e-05
-5.45581e-05
-1.31625e-05
-5.02884e-05
-1.35311e-05
-4.59345e-05
-1.3801e-05
-4.15246e-05
-1.39687e-05
-3.7088e-05
-1.40317e-05
-3.2654e-05
-1.39888e-05
-2.82525e-05
-1.38402e-05
-2.3913e-05
-1.35875e-05
-1.96645e-05
-1.32335e-05
-1.55353e-05
-1.27826e-05
-1.15524e-05
-1.22406e-05
-7.74123e-06
-1.16144e-05
-4.12538e-06
-1.09123e-05
-7.2628e-07
-1.01438e-05
2.43732e-06
-9.31901e-06
5.34931e-06
-8.44897e-06
7.9966e-06
-7.54521e-06
1.03693e-05
-6.61953e-06
1.24606e-05
-5.68378e-06
1.42673e-05
-4.7496e-06
1.57893e-05
-3.82818e-06
1.70296e-05
-2.93005e-06
1.79946e-05
-2.06487e-06
1.86932e-05
-1.2412e-06
1.91371e-05
-4.66439e-07
1.93402e-05
2.53363e-07
1.93184e-05
9.13535e-07
1.9089e-05
1.51079e-06
1.86707e-05
2.04324e-06
1.80827e-05
2.51027e-06
1.73448e-05
2.91247e-06
1.64769e-05
3.25139e-06
1.54985e-05
3.5294e-06
1.44289e-05
3.74935e-06
1.32867e-05
3.91428e-06
1.20901e-05
4.02707e-06
1.08567e-05
4.09007e-06
9.6037e-06
4.10465e-06
8.34829e-06
4.07089e-06
7.10791e-06
3.98721e-06
5.90061e-06
3.85014e-06
4.74543e-06
3.6544e-06
3.66263e-06
3.39313e-06
2.67389e-06
3.05883e-06
1.80224e-06
2.64489e-06
1.07198e-06
2.14841e-06
5.08688e-07
1.57407e-06
1.4004e-07
9.39811e-07
2.89302e-07
1.02408e-07
-3.57388e-07
3.45689e-07
-9.36097e-07
6.82898e-07
-1.37326e-06
1.07649e-06
-1.67154e-06
1.4947e-06
-1.83993e-06
1.91019e-06
-1.89131e-06
2.29942e-06
-1.84071e-06
2.64236e-06
-1.70392e-06
2.92224e-06
-1.49646e-06
3.12533e-06
-1.23287e-06
3.24065e-06
-9.26318e-07
3.25971e-06
-5.88273e-07
3.17608e-06
-2.28385e-07
2.98506e-06
1.45575e-07
2.68328e-06
5.27693e-07
2.2683e-06
9.13823e-07
1.7383e-06
1.30145e-06
1.09175e-06
1.6895e-06
3.27135e-07
2.07811e-06
-5.57236e-07
2.46838e-06
-1.56336e-06
2.86209e-06
-2.69364e-06
3.26145e-06
-3.95086e-06
3.66881e-06
-5.33816e-06
4.08643e-06
-6.85894e-06
4.51627e-06
-8.51668e-06
4.95985e-06
-1.03148e-05
5.41804e-06
-1.22565e-05
5.89107e-06
-1.43445e-05
6.37842e-06
-1.65808e-05
6.87883e-06
-1.89666e-05
7.39031e-06
-2.1502e-05
7.91018e-06
-2.41858e-05
8.43508e-06
-2.70157e-05
8.96108e-06
-2.99875e-05
9.48371e-06
-3.30957e-05
9.99801e-06
-3.63329e-05
1.04986e-05
-3.96902e-05
1.09799e-05
-4.31567e-05
1.14358e-05
-4.67198e-05
1.18603e-05
-5.03655e-05
1.22472e-05
-5.40777e-05
1.25902e-05
-5.78392e-05
1.28832e-05
-6.16312e-05
1.31202e-05
-6.54338e-05
1.32958e-05
-6.92262e-05
1.34045e-05
-7.29866e-05
1.34415e-05
-7.66927e-05
1.34027e-05
-8.03219e-05
1.32844e-05
-8.38515e-05
1.30835e-05
-8.72587e-05
1.27979e-05
-9.05213e-05
1.2426e-05
-9.36175e-05
1.19672e-05
-9.65264e-05
1.14213e-05
-9.92277e-05
1.07894e-05
-0.000101703
1.0073e-05
-0.000103933
9.2746e-06
-0.000105903
8.39724e-06
-0.000107597
7.44484e-06
-0.000109003
6.42194e-06
-0.000110107
5.33377e-06
-0.0001109
4.18617e-06
-0.000111374
2.9856e-06
-0.000111522
1.7391e-06
-0.000111338
4.54466e-07
-0.00011082
-8.60902e-07
-0.000109968
-2.19836e-06
-0.00010878
-3.54866e-06
-0.000107261
-4.90253e-06
-0.000105414
-6.25036e-06
-0.000103246
-7.58221e-06
-0.000100764
-8.88792e-06
-9.79801e-05
-1.01571e-05
-9.49051e-05
-1.13794e-05
-9.15534e-05
-1.25444e-05
-8.7941e-05
-1.36416e-05
-8.40859e-05
-1.46611e-05
-8.00078e-05
-1.5593e-05
-7.57283e-05
-1.6428e-05
-7.12706e-05
-1.71575e-05
-6.66596e-05
-1.77734e-05
-6.19218e-05
-1.82689e-05
-5.70849e-05
-1.86379e-05
-5.21778e-05
-1.88758e-05
-4.72302e-05
-1.89793e-05
-4.22726e-05
-1.89464e-05
-3.73359e-05
-1.8777e-05
-3.2451e-05
-1.84724e-05
-2.76486e-05
-1.80359e-05
-2.29589e-05
-1.74723e-05
-1.8411e-05
-1.67884e-05
-1.40328e-05
-1.59926e-05
-9.85056e-06
-1.50946e-05
-5.88841e-06
-1.4106e-05
-2.16823e-06
-1.30392e-05
1.29075e-06
-1.1908e-05
4.47221e-06
-1.07267e-05
7.36294e-06
-9.51026e-06
9.95304e-06
-8.27387e-06
1.2236e-05
-7.03254e-06
1.42087e-05
-5.8009e-06
1.58716e-05
-4.59292e-06
1.72283e-05
-3.4216e-06
1.82858e-05
-2.29871e-06
1.9054e-05
-1.23462e-06
1.95455e-05
-2.38123e-07
1.97753e-05
6.83716e-07
1.97605e-05
1.52556e-06
1.95199e-05
2.28384e-06
1.90735e-05
2.95668e-06
1.84422e-05
3.54374e-06
1.76475e-05
4.04609e-06
1.67111e-05
4.46585e-06
1.56545e-05
4.80594e-06
1.44991e-05
5.06965e-06
1.3266e-05
5.26022e-06
1.19757e-05
5.38035e-06
1.06487e-05
5.43168e-06
9.30519e-06
5.41438e-06
7.9657e-06
5.32669e-06
6.65117e-06
5.16468e-06
5.38334e-06
4.92222e-06
4.18513e-06
4.59135e-06
3.08087e-06
4.16309e-06
2.09671e-06
3.62905e-06
1.26119e-06
2.98393e-06
6.0627e-07
2.22899e-06
1.69575e-07
1.37651e-06
4.58877e-07
1.04533e-07
-4.61921e-07
3.50999e-07
-1.18256e-06
6.8819e-07
-1.71045e-06
1.07498e-06
-2.05833e-06
1.47707e-06
-2.24202e-06
1.8655e-06
-2.27974e-06
2.21569e-06
-2.19091e-06
2.50691e-06
-1.99514e-06
2.7218e-06
-1.71135e-06
2.84611e-06
-1.35717e-06
2.86828e-06
-9.48498e-07
2.7792e-06
-4.9919e-07
2.57174e-06
-2.09263e-08
2.24044e-06
4.76874e-07
1.78111e-06
9.87023e-07
1.19047e-06
1.50447e-06
4.6581e-07
2.02611e-06
-3.95294e-07
2.5506e-06
-1.39523e-06
3.07804e-06
-2.53651e-06
3.60966e-06
-3.82193e-06
4.14751e-06
-5.25455e-06
4.69407e-06
-6.83772e-06
5.25198e-06
-8.57499e-06
5.8237e-06
-1.047e-05
6.41124e-06
-1.25261e-05
7.01598e-06
-1.47465e-05
7.6385e-06
-1.71339e-05
8.27847e-06
-1.96901e-05
8.93459e-06
-2.24159e-05
9.60461e-06
-2.53109e-05
1.02853e-05
-2.83734e-05
1.09727e-05
-3.16e-05
1.16617e-05
-3.49856e-05
1.23467e-05
-3.85234e-05
1.30215e-05
-4.22044e-05
1.36791e-05
-4.60181e-05
1.43123e-05
-4.99516e-05
1.49134e-05
-5.39904e-05
1.54746e-05
-5.81181e-05
1.5988e-05
-6.23165e-05
1.64456e-05
-6.6566e-05
1.68396e-05
-7.08454e-05
1.71626e-05
-7.51326e-05
1.74074e-05
-7.94044e-05
1.75676e-05
-8.3637e-05
1.76371e-05
-8.78063e-05
1.76108e-05
-9.18878e-05
1.74843e-05
-9.58575e-05
1.7254e-05
-9.96913e-05
1.69174e-05
-0.000103366
1.64727e-05
-0.000106859
1.59193e-05
-0.00011015
1.52574e-05
-0.000113217
1.44883e-05
-0.000116041
1.3614e-05
-0.000118606
1.26377e-05
-0.000120894
1.15631e-05
-0.000122892
1.0395e-05
-0.000124586
9.13879e-06
-0.000125965
7.80068e-06
-0.000127019
6.3875e-06
-0.000127739
4.90674e-06
-0.00012812
3.36647e-06
-0.000128156
1.77532e-06
-0.000127845
1.43055e-07
-0.000127183
-1.52229e-06
-0.000126173
-3.20918e-06
-0.000124814
-4.90741e-06
-0.00012311
-6.60604e-06
-0.000121067
-8.29374e-06
-0.00011869
-9.95891e-06
-0.000115989
-1.15897e-05
-0.000112972
-1.31739e-05
-0.000109652
-1.46994e-05
-0.000106042
-1.6154e-05
-0.000102158
-1.75256e-05
-9.80171e-05
-1.88021e-05
-9.36381e-05
-1.99721e-05
-8.90418e-05
-2.10243e-05
-8.42509e-05
-2.19483e-05
-7.92897e-05
-2.27346e-05
-7.41842e-05
-2.33744e-05
-6.89617e-05
-2.38604e-05
-6.36511e-05
-2.41865e-05
-5.82821e-05
-2.43482e-05
-5.28857e-05
-2.43428e-05
-4.74933e-05
-2.41694e-05
-4.21367e-05
-2.38289e-05
-3.6848e-05
-2.33246e-05
-3.16586e-05
-2.26616e-05
-2.65997e-05
-2.18473e-05
-2.17012e-05
-2.08911e-05
-1.69916e-05
-1.98042e-05
-1.24979e-05
-1.85998e-05
-8.24452e-06
-1.72925e-05
-4.25386e-06
-1.58986e-05
-5.45366e-07
-1.44352e-05
2.86454e-06
-1.29202e-05
5.96264e-06
-1.1372e-05
8.73914e-06
-9.80903e-06
1.11878e-05
-8.24952e-06
1.33058e-05
-6.71093e-06
1.5094e-05
-5.20981e-06
1.65566e-05
-3.76138e-06
1.77013e-05
-2.37931e-06
1.85387e-05
-1.07548e-06
1.90822e-05
1.4021e-07
1.93478e-05
1.25998e-06
1.93536e-05
2.27806e-06
1.91194e-05
3.1908e-06
1.86667e-05
3.99651e-06
1.80175e-05
4.69521e-06
1.7195e-05
5.28838e-06
1.62224e-05
5.77859e-06
1.5123e-05
6.16901e-06
1.39203e-05
6.46294e-06
1.26374e-05
6.66323e-06
1.12974e-05
6.77166e-06
9.92338e-06
6.78843e-06
8.53846e-06
6.71161e-06
7.16626e-06
6.53687e-06
5.83113e-06
6.25735e-06
4.55853e-06
5.86395e-06
3.37553e-06
5.34608e-06
2.31155e-06
4.69303e-06
1.39938e-06
3.8961e-06
6.77023e-07
2.95135e-06
1.90529e-07
1.863e-06
6.49405e-07
1.02085e-07
-5.64006e-07
3.40274e-07
-1.42076e-06
6.61114e-07
-2.03129e-06
1.0213e-06
-2.41852e-06
1.38494e-06
-2.60566e-06
1.72204e-06
-2.61683e-06
2.00743e-06
-2.4763e-06
2.22002e-06
-2.20773e-06
2.34223e-06
-1.83356e-06
2.35953e-06
-1.37448e-06
2.26009e-06
-8.49053e-07
2.03433e-06
-2.73429e-07
1.6746e-06
3.38806e-07
1.17478e-06
9.76694e-07
5.29931e-07
1.63187e-06
-2.64044e-07
2.29844e-06
-1.21072e-06
2.97279e-06
-2.31341e-06
3.65329e-06
-3.57537e-06
4.34e-06
-4.99994e-06
5.03423e-06
-6.59062e-06
5.73819e-06
-8.35108e-06
6.45453e-06
-1.02851e-05
7.18598e-06
-1.23964e-05
7.93498e-06
-1.46885e-05
8.70335e-06
-1.71646e-05
9.49205e-06
-1.98271e-05
1.0301e-05
-2.26776e-05
1.1129e-05
-2.57167e-05
1.19737e-05
-2.89434e-05
1.28313e-05
-3.23551e-05
1.36971e-05
-3.59478e-05
1.45653e-05
-3.9715e-05
1.54289e-05
-4.36488e-05
1.62804e-05
-4.77387e-05
1.71114e-05
-5.19723e-05
1.79127e-05
-5.63352e-05
1.86751e-05
-6.08106e-05
1.93889e-05
-6.53803e-05
2.00443e-05
-7.00238e-05
2.06315e-05
-7.47194e-05
2.11412e-05
-7.94441e-05
2.15642e-05
-8.41735e-05
2.1892e-05
-8.88828e-05
2.21167e-05
-9.35465e-05
2.22313e-05
-9.8139e-05
2.22296e-05
-0.000102635
2.21066e-05
-0.000107009
2.18582e-05
-0.000111236
2.14816e-05
-0.000115294
2.09749e-05
-0.000119159
2.03376e-05
-0.00012281
1.95703e-05
-0.000126227
1.86744e-05
-0.000129391
1.76528e-05
-0.000132286
1.6509e-05
-0.000134896
1.52476e-05
-0.000137207
1.38741e-05
-0.000139207
1.23947e-05
-0.000140884
1.08164e-05
-0.000142231
9.14701e-06
-0.000143238
7.39471e-06
-0.0001439
5.56848e-06
-0.000144211
3.6778e-06
-0.000144168
1.73269e-06
-0.000143769
-2.55967e-07
-0.000143013
-2.2783e-06
-0.000141901
-4.32181e-06
-0.000140433
-6.37487e-06
-0.000138614
-8.42517e-06
-0.000136448
-1.046e-05
-0.00013394
-1.24663e-05
-0.000131099
-1.44307e-05
-0.000127934
-1.63395e-05
-0.000124454
-1.8179e-05
-0.000120673
-1.99352e-05
-0.000116604
-2.15943e-05
-0.000112264
-2.31426e-05
-0.000107669
-2.45666e-05
-0.00010284
-2.58533e-05
-9.7798e-05
-2.69906e-05
-9.25659e-05
-2.79668e-05
-8.71688e-05
-2.87715e-05
-8.16334e-05
-2.93958e-05
-7.5988e-05
-2.98319e-05
-7.02624e-05
-3.00739e-05
-6.44874e-05
-3.01179e-05
-5.86948e-05
-2.99619e-05
-5.29173e-05
-2.96064e-05
-4.71879e-05
-2.90541e-05
-4.15395e-05
-2.831e-05
-3.60048e-05
-2.7382e-05
-3.06158e-05
-2.62801e-05
-2.54034e-05
-2.50166e-05
-2.03968e-05
-2.36063e-05
-1.56235e-05
-2.20658e-05
-1.11088e-05
-2.04134e-05
-6.87504e-06
-1.86689e-05
-2.94204e-06
-1.68532e-05
6.73761e-07
-1.49878e-05
3.95926e-06
-1.30945e-05
6.90488e-06
-1.11951e-05
9.5047e-06
-9.31075e-06
1.17565e-05
-7.46156e-06
1.36615e-05
-5.66643e-06
1.52247e-05
-3.94255e-06
1.64544e-05
-2.30519e-06
1.7362e-05
-7.67387e-07
1.79619e-05
6.60148e-07
1.82708e-05
1.96912e-06
1.8308e-05
3.15364e-06
1.80944e-05
4.21014e-06
1.76524e-05
5.13718e-06
1.70056e-05
5.93512e-06
1.61785e-05
6.60572e-06
1.51958e-05
7.15167e-06
1.40828e-05
7.576e-06
1.28646e-05
7.8814e-06
1.15667e-05
8.06962e-06
1.02143e-05
8.14075e-06
8.83329e-06
8.09266e-06
7.44955e-06
7.9206e-06
6.08995e-06
7.61696e-06
4.78247e-06
7.17143e-06
3.55696e-06
6.57159e-06
2.44603e-06
5.80396e-06
1.48648e-06
4.85565e-06
7.21428e-07
3.71641e-06
2.03405e-07
2.38102e-06
8.5281e-07
9.57924e-08
-6.59799e-07
3.15536e-07
-1.6405e-06
6.05085e-07
-2.32084e-06
9.20248e-07
-2.73368e-06
1.22447e-06
-2.90988e-06
1.4874e-06
-2.87977e-06
1.68378e-06
-2.67268e-06
1.79255e-06
-2.3165e-06
1.79618e-06
-1.83719e-06
1.68016e-06
-1.25846e-06
1.43252e-06
-6.01414e-07
1.04344e-06
1.15653e-07
5.04845e-07
8.77398e-07
-1.89926e-07
1.67147e-06
-1.04649e-06
2.48844e-06
-2.06973e-06
3.32167e-06
-3.26403e-06
4.16709e-06
-4.63355e-06
5.02281e-06
-6.18235e-06
5.88881e-06
-7.91453e-06
6.76641e-06
-9.83418e-06
7.65784e-06
-1.19454e-05
8.56576e-06
-1.42522e-05
9.49276e-06
-1.67582e-05
1.0441e-05
-1.94665e-05
1.14117e-05
-2.23796e-05
1.24052e-05
-2.54989e-05
1.34203e-05
-2.88244e-05
1.44545e-05
-3.23547e-05
1.55039e-05
-3.60865e-05
1.65631e-05
-4.00148e-05
1.76254e-05
-4.41322e-05
1.86827e-05
-4.84292e-05
1.9726e-05
-5.28942e-05
2.07454e-05
-5.7513e-05
2.17302e-05
-6.22694e-05
2.26691e-05
-6.71449e-05
2.35506e-05
-7.21191e-05
2.43631e-05
-7.717e-05
2.50951e-05
-8.22737e-05
2.57353e-05
-8.74055e-05
2.6273e-05
-9.25395e-05
2.66982e-05
-9.76492e-05
2.70017e-05
-0.000102708
2.71755e-05
-0.000107689
2.72125e-05
-0.000112567
2.71071e-05
-0.000117315
2.68547e-05
-0.000121909
2.64522e-05
-0.000126325
2.58979e-05
-0.000130542
2.51914e-05
-0.000134537
2.43334e-05
-0.000138293
2.3326e-05
-0.000141791
2.21724e-05
-0.000145015
2.08769e-05
-0.000147951
1.94447e-05
-0.000150585
1.7882e-05
-0.000152907
1.61957e-05
-0.000154906
1.43934e-05
-0.000156573
1.24837e-05
-0.000157901
1.04753e-05
-0.000158885
8.37795e-06
-0.000159518
6.20164e-06
-0.000159797
3.95699e-06
-0.000159719
1.65512e-06
-0.000159283
-6.92379e-07
-0.000158487
-3.0739e-06
-0.000157333
-5.47651e-06
-0.00015582
-7.88735e-06
-0.000153952
-1.0293e-05
-0.000151733
-1.26796e-05
-0.000149166
-1.50329e-05
-0.000146259
-1.73382e-05
-0.000143018
-1.95805e-05
-0.000139452
-2.17444e-05
-0.000135573
-2.38146e-05
-0.000131392
-2.57754e-05
-0.000126923
-2.76113e-05
-0.000122183
-2.93071e-05
-0.000117188
-3.08479e-05
-0.000111959
-3.22193e-05
-0.000106518
-3.3408e-05
-0.000100888
-3.44015e-05
-9.50952e-05
-3.51887e-05
-8.91668e-05
-3.57602e-05
-8.31323e-05
-3.61084e-05
-7.70225e-05
-3.62277e-05
-7.08694e-05
-3.61149e-05
-6.47065e-05
-3.57694e-05
-5.85676e-05
-3.5193e-05
-5.2487e-05
-3.43906e-05
-4.64992e-05
-3.33698e-05
-4.06381e-05
-3.21411e-05
-3.4937e-05
-3.07178e-05
-2.94276e-05
-2.91157e-05
-2.41403e-05
-2.73531e-05
-1.91033e-05
-2.54505e-05
-1.43421e-05
-2.343e-05
-9.87981e-06
-2.13155e-05
-5.73608e-06
-1.91315e-05
-1.92738e-06
-1.69032e-05
1.53344e-06
-1.4656e-05
4.63722e-06
-1.24145e-05
7.37856e-06
-1.02029e-05
9.75586e-06
-8.04372e-06
1.17712e-05
-5.95791e-06
1.34304e-05
-3.96434e-06
1.47425e-05
-2.07949e-06
1.57199e-05
-3.17309e-07
1.6378e-05
1.31101e-06
1.67347e-05
2.79694e-06
1.68103e-05
4.13463e-06
1.66267e-05
5.32071e-06
1.62079e-05
6.35399e-06
1.55786e-05
7.23501e-06
1.47647e-05
7.96556e-06
1.37926e-05
8.54802e-06
1.26894e-05
8.98467e-06
1.14821e-05
9.27693e-06
1.01982e-05
9.42462e-06
8.86556e-06
9.42529e-06
7.51252e-06
9.27365e-06
6.16821e-06
8.96127e-06
4.8631e-06
8.47654e-06
3.6297e-06
7.80499e-06
2.5036e-06
6.93006e-06
1.52507e-06
5.83418e-06
7.41213e-07
4.50027e-06
2.08942e-07
2.9133e-06
1.06175e-06
8.61267e-08
-7.45926e-07
2.78236e-07
-1.83261e-06
5.22716e-07
-2.56532e-06
7.75634e-07
-2.9866e-06
1.00071e-06
-3.13496e-06
1.16795e-06
-3.04702e-06
1.25253e-06
-2.75726e-06
1.23381e-06
-2.29777e-06
1.09463e-06
-1.69801e-06
8.20699e-07
-9.84531e-07
4.00123e-07
-1.80838e-07
-1.77046e-07
6.92824e-07
-9.1918e-07
1.61953e-06
-1.83342e-06
2.5857e-06
-2.92598e-06
3.581e-06
-4.20244e-06
4.59813e-06
-5.66795e-06
5.6326e-06
-7.32743e-06