/*--------------------------------*- C++ -*----------------------------------*\
| =========                 |                                                 |
| \\      /  F ield         | OpenFOAM: The Open Source CFD Toolbox           |
|  \\    /   O peration     | Version:  2112                                  |
|   \\  /    A nd           | Website:  www.openfoam.com                      |
|    \\/     M anipulation  |                                                 |
\*---------------------------------------------------------------------------*/
FoamFile
{
    version     2.0;
    format      ascii;
    arch        "LSB;label=32;scalar=64";
    class       volVectorField;
    location    "35";
    object      U;
}
// * * * * * * * * * * * * * * * * * * * * * * * * * * * * * * * * * * * * * //

dimensions      [0 1 -1 0 0 0 0];

internalField   nonuniform List<vector> 
16641
(
(-7.75274e-06 7.58686e-06 0)
(2.87724e-06 -6.54475e-06 0)
(5.95761e-05 -2.23831e-05 0)
(0.000150413 -3.3523e-05 0)
(0.00026421 -4.00731e-05 0)
(0.000390735 -4.30002e-05 0)
(0.000521392 -4.32268e-05 0)
(0.000649475 -4.15136e-05 0)
(0.000769948 -3.84499e-05 0)
(0.000879152 -3.44878e-05 0)
(0.000974555 -2.99788e-05 0)
(0.00105454 -2.51971e-05 0)
(0.00111825 -2.03522e-05 0)
(0.00116536 -1.55971e-05 0)
(0.001196 -1.10372e-05 0)
(0.00121058 -6.73633e-06 0)
(0.00120968 -2.72106e-06 0)
(0.00119393 1.01507e-06 0)
(0.00116395 4.50169e-06 0)
(0.00112026 7.78851e-06 0)
(0.00106321 1.09394e-05 0)
(0.00099299 1.40264e-05 0)
(0.000909563 1.71243e-05 0)
(0.000812689 2.03066e-05 0)
(0.000701924 2.36414e-05 0)
(0.00057664 2.71892e-05 0)
(0.000436053 3.10008e-05 0)
(0.000279258 3.51162e-05 0)
(0.00010526 3.95642e-05 0)
(-8.69891e-05 4.43633e-05 0)
(-0.000298552 4.9522e-05 0)
(-0.000530477 5.50396e-05 0)
(-0.000783765 6.09076e-05 0)
(-0.00105934 6.71099e-05 0)
(-0.00135803 7.36235e-05 0)
(-0.00168053 8.04193e-05 0)
(-0.00202738 8.74613e-05 0)
(-0.00239896 9.47072e-05 0)
(-0.00279545 0.000102108 0)
(-0.00321681 0.000109606 0)
(-0.00366276 0.000117139 0)
(-0.00413277 0.000124635 0)
(-0.004626 0.000132016 0)
(-0.00514135 0.000139197 0)
(-0.00567739 0.000146084 0)
(-0.00623234 0.000152578 0)
(-0.00680413 0.000158576 0)
(-0.00739031 0.000163968 0)
(-0.0079881 0.000168641 0)
(-0.00859437 0.000172483 0)
(-0.00920565 0.000175377 0)
(-0.00981818 0.00017721 0)
(-0.0104279 0.000177871 0)
(-0.0110303 0.000177253 0)
(-0.011621 0.000175256 0)
(-0.012195 0.000171791 0)
(-0.0127473 0.000166776 0)
(-0.0132728 0.000160144 0)
(-0.0137662 0.000151842 0)
(-0.0142224 0.000141836 0)
(-0.014636 0.000130108 0)
(-0.0150019 0.000116663 0)
(-0.0153152 0.000101526 0)
(-0.0155711 8.47521e-05 0)
(-0.0157651 6.64364e-05 0)
(-0.0158933 4.67004e-05 0)
(-0.0159519 2.56291e-05 0)
(-0.0159378 3.46004e-06 0)
(-0.0158482 -1.97531e-05 0)
(-0.0156815 -4.3727e-05 0)
(-0.0154364 -6.82002e-05 0)
(-0.0151126 -9.29073e-05 0)
(-0.0147104 -0.000117562 0)
(-0.0142313 -0.000141859 0)
(-0.0136772 -0.000165479 0)
(-0.0130515 -0.000188096 0)
(-0.0123581 -0.000209378 0)
(-0.0116019 -0.000229003 0)
(-0.0107889 -0.000246657 0)
(-0.00992551 -0.000262047 0)
(-0.00901931 -0.000274908 0)
(-0.00807834 -0.000285009 0)
(-0.00711125 -0.000292163 0)
(-0.00612711 -0.000296231 0)
(-0.00513532 -0.000297127 0)
(-0.00414542 -0.000294828 0)
(-0.00316694 -0.000289368 0)
(-0.00220924 -0.000280846 0)
(-0.00128133 -0.000269417 0)
(-0.00039164 -0.000255309 0)
(0.000451868 -0.000238851 0)
(0.00124213 -0.000220223 0)
(0.00197314 -0.000199873 0)
(0.00263972 -0.00017817 0)
(0.00323787 -0.000155514 0)
(0.00376471 -0.000132304 0)
(0.00421852 -0.000108939 0)
(0.00459872 -8.58026e-05 0)
(0.00490584 -6.32489e-05 0)
(0.00514144 -4.15989e-05 0)
(0.005308 -2.11316e-05 0)
(0.00540888 -2.07902e-06 0)
(0.00544812 1.53762e-05 0)
(0.00543033 3.11014e-05 0)
(0.00536056 4.50172e-05 0)
(0.00524415 5.70907e-05 0)
(0.00508661 6.7334e-05 0)
(0.00489346 7.57993e-05 0)
(0.00467011 8.25743e-05 0)
(0.0044218 8.77753e-05 0)
(0.00415346 9.15416e-05 0)
(0.00386967 9.40283e-05 0)
(0.0035746 9.53993e-05 0)
(0.00327199 9.58194e-05 0)
(0.00296514 9.54455e-05 0)
(0.00265697 9.44168e-05 0)
(0.00235003 9.28425e-05 0)
(0.00204665 9.0788e-05 0)
(0.00174908 8.82571e-05 0)
(0.00145965 8.51719e-05 0)
(0.00118107 8.1347e-05 0)
(0.000916665 7.64604e-05 0)
(0.000670782 7.00215e-05 0)
(0.000449119 6.13452e-05 0)
(0.000259054 4.95784e-05 0)
(0.000109559 3.39073e-05 0)
(1.01356e-05 1.42143e-05 0)
(-3.14109e-05 -7.02961e-06 0)
(-1.84658e-05 -1.85165e-05 0)
(6.38369e-06 -3.04775e-06 0)
(7.30121e-05 -7.32573e-05 0)
(0.000233324 -0.000143463 0)
(0.000461849 -0.000195592 0)
(0.000737155 -0.000228277 0)
(0.00103951 -0.000243797 0)
(0.00135069 -0.000245228 0)
(0.00165523 -0.00023563 0)
(0.00194079 -0.000217713 0)
(0.00219788 -0.000193779 0)
(0.00241951 -0.000165752 0)
(0.00260086 -0.000135203 0)
(0.00273891 -0.000103385 0)
(0.00283204 -7.12554e-05 0)
(0.00287976 -3.95045e-05 0)
(0.0028823 -8.57972e-06 0)
(0.00284043 2.12865e-05 0)
(0.00275511 5.0047e-05 0)
(0.00262731 7.78073e-05 0)
(0.00245784 0.000104793 0)
(0.00224718 0.000131318 0)
(0.00199545 0.000157749 0)
(0.00170228 0.000184478 0)
(0.00136683 0.000211891 0)
(0.000987825 0.000240351 0)
(0.00056358 0.000270176 0)
(9.20652e-05 0.000301626 0)
(-0.000429005 0.000334899 0)
(-0.00100208 0.000370122 0)
(-0.0016297 0.000407355 0)
(-0.00231435 0.000446592 0)
(-0.00305843 0.000487763 0)
(-0.00386415 0.000530743 0)
(-0.0047334 0.000575348 0)
(-0.00566777 0.00062135 0)
(-0.00666838 0.000668469 0)
(-0.00773589 0.00071638 0)
(-0.00887037 0.000764715 0)
(-0.0100713 0.000813061 0)
(-0.0113376 0.000860964 0)
(-0.0126672 0.000907929 0)
(-0.0140575 0.000953422 0)
(-0.015505 0.000996875 0)
(-0.0170054 0.00103769 0)
(-0.0185536 0.00107524 0)
(-0.0201435 0.00110887 0)
(-0.0217682 0.00113794 0)
(-0.0234199 0.00116178 0)
(-0.0250899 0.00117974 0)
(-0.0267689 0.00119116 0)
(-0.0284466 0.00119543 0)
(-0.0301122 0.00119196 0)
(-0.0317542 0.0011802 0)
(-0.0333605 0.00115968 0)
(-0.0349186 0.00112997 0)
(-0.0364157 0.00109071 0)
(-0.0378388 0.00104164 0)
(-0.0391748 0.000982581 0)
(-0.0404105 0.000913468 0)
(-0.0415332 0.000834334 0)
(-0.0425303 0.000745332 0)
(-0.0433897 0.000646735 0)
(-0.0441 0.000538946 0)
(-0.0446505 0.000422508 0)
(-0.0450317 0.000298152 0)
(-0.0452352 0.000166657 0)
(-0.0452534 2.85079e-05 0)
(-0.0450803 -0.000114439 0)
(-0.0447114 -0.000261396 0)
(-0.0441439 -0.000411049 0)
(-0.043377 -0.000561945 0)
(-0.0424114 -0.000712557 0)
(-0.0412498 -0.000861282 0)
(-0.0398971 -0.00100645 0)
(-0.0383599 -0.00114636 0)
(-0.036647 -0.00127929 0)
(-0.0347693 -0.00140353 0)
(-0.0327396 -0.00151742 0)
(-0.0305725 -0.00161937 0)
(-0.0282844 -0.00170792 0)
(-0.0258933 -0.00178174 0)
(-0.0234187 -0.00183969 0)
(-0.0208811 -0.00188083 0)
(-0.0183022 -0.00190448 0)
(-0.0157042 -0.0019102 0)
(-0.0131094 -0.00189788 0)
(-0.0105406 -0.00186767 0)
(-0.00801985 -0.00182006 0)
(-0.00556866 -0.0017558 0)
(-0.00320748 -0.00167599 0)
(-0.000955431 -0.00158206 0)
(0.00117 -0.00147544 0)
(0.00315337 -0.00135799 0)
(0.00498143 -0.00123168 0)
(0.00664325 -0.00109864 0)
(0.00813045 -0.000960981 0)
(0.00943726 -0.000820874 0)
(0.0105605 -0.000680438 0)
(0.0114997 -0.000541702 0)
(0.0122567 -0.000406554 0)
(0.0128358 -0.000276702 0)
(0.0132435 -0.000153639 0)
(0.013488 -3.86185e-05 0)
(0.0135792 6.73602e-05 0)
(0.0135285 0.000163565 0)
(0.0133479 0.000249527 0)
(0.0130506 0.000325029 0)
(0.0126497 0.000390094 0)
(0.0121585 0.00044496 0)
(0.0115904 0.000490051 0)
(0.010958 0.000525949 0)
(0.0102733 0.000553348 0)
(0.00954776 0.000573021 0)
(0.0087918 0.000585765 0)
(0.008015 0.00059235 0)
(0.0072261 0.000593461 0)
(0.00643312 0.000589624 0)
(0.00564365 0.000581135 0)
(0.00486506 0.000567975 0)
(0.004105 0.000549718 0)
(0.00337185 0.000525447 0)
(0.0026753 0.000493684 0)
(0.00202687 0.000452357 0)
(0.00144033 0.000398892 0)
(0.000931858 0.000330593 0)
(0.000519096 0.000245728 0)
(0.00021849 0.000145877 0)
(4.23061e-05 4.13497e-05 0)
(-6.74151e-06 -3.14798e-05 0)
(2.22262e-05 -5.94457e-05 0)
(0.000143391 -0.00023351 0)
(0.00039257 -0.000392243 0)
(0.000727658 -0.000511387 0)
(0.00111948 -0.000587383 0)
(0.0015431 -0.000623394 0)
(0.00197472 -0.000625075 0)
(0.0023935 -0.000598747 0)
(0.00278219 -0.000550483 0)
(0.00312711 -0.00048575 0)
(0.00341781 -0.000409284 0)
(0.00364672 -0.000325072 0)
(0.00380873 -0.000236356 0)
(0.00390071 -0.000145671 0)
(0.00392111 -5.4882e-05 0)
(0.00386948 3.47624e-05 0)
(0.00374613 0.000122562 0)
(0.00355171 0.000208296 0)
(0.00328698 0.000292148 0)
(0.00295248 0.000374616 0)
(0.0025484 0.000456432 0)
(0.0020744 0.000538473 0)
(0.00152957 0.000621685 0)
(0.000912377 0.000707008 0)
(0.00022072 0.00079532 0)
(-0.000548017 0.000887382 0)
(-0.00139686 0.000983804 0)
(-0.00232913 0.00108502 0)
(-0.0033483 0.00119129 0)
(-0.00445784 0.00130267 0)
(-0.00566108 0.00141904 0)
(-0.00696109 0.00154009 0)
(-0.00836051 0.00166536 0)
(-0.00986144 0.00179422 0)
(-0.0114653 0.0019259 0)
(-0.0131728 0.00205949 0)
(-0.0149837 0.00219396 0)
(-0.0168967 0.00232814 0)
(-0.0189098 0.00246077 0)
(-0.0210196 0.00259045 0)
(-0.0232214 0.00271571 0)
(-0.0255095 0.00283499 0)
(-0.0278769 0.00294663 0)
(-0.0303152 0.00304894 0)
(-0.0328147 0.00314017 0)
(-0.0353644 0.00321858 0)
(-0.0379522 0.00328239 0)
(-0.0405646 0.0033299 0)
(-0.0431871 0.00335943 0)
(-0.045804 0.00336938 0)
(-0.0483989 0.00335827 0)
(-0.0509543 0.00332476 0)
(-0.0534524 0.00326765 0)
(-0.0558746 0.00318593 0)
(-0.0582021 0.00307879 0)
(-0.0604159 0.00294565 0)
(-0.062497 0.00278618 0)
(-0.0644267 0.00260031 0)
(-0.0661867 0.00238823 0)
(-0.0677593 0.00215045 0)
(-0.0691275 0.00188775 0)
(-0.0702755 0.00160122 0)
(-0.0711886 0.00129228 0)
(-0.0718534 0.000962671 0)
(-0.0722582 0.000614523 0)
(-0.0723935 0.000250205 0)
(-0.0722506 -0.000128719 0)
(-0.0718228 -0.000517884 0)
(-0.0711069 -0.000914508 0)
(-0.0701012 -0.00131532 0)
(-0.0688064 -0.00171669 0)
(-0.0672256 -0.00211477 0)
(-0.0653648 -0.00250559 0)
(-0.0632322 -0.00288506 0)
(-0.0608387 -0.00324904 0)
(-0.058198 -0.00359341 0)
(-0.0553261 -0.00391412 0)
(-0.0522415 -0.00420722 0)
(-0.048965 -0.004469 0)
(-0.0455197 -0.00469601 0)
(-0.0419307 -0.00488516 0)
(-0.0382246 -0.00503378 0)
(-0.0344297 -0.00513969 0)
(-0.0305754 -0.00520127 0)
(-0.0266921 -0.00521752 0)
(-0.0228104 -0.00518809 0)
(-0.0189612 -0.00511333 0)
(-0.0151748 -0.00499428 0)
(-0.0114811 -0.00483272 0)
(-0.00790836 -0.0046311 0)
(-0.00448359 -0.00439255 0)
(-0.00123165 -0.00412078 0)
(0.00182499 -0.00381997 0)
(0.00466655 -0.00349475 0)
(0.00727626 -0.00315028 0)
(0.00964062 -0.0027917 0)
(0.0117495 -0.00242434 0)
(0.0135962 -0.00205348 0)
(0.0151775 -0.0016843 0)
(0.0164938 -0.00132168 0)
(0.0175486 -0.000970127 0)
(0.0183487 -0.000633712 0)
(0.0189036 -0.000315952 0)
(0.0192253 -1.97751e-05 0)
(0.0193282 0.000252519 0)
(0.0192282 0.000499279 0)
(0.0189426 0.000719489 0)
(0.0184898 0.00091275 0)
(0.0178883 0.00107923 0)
(0.0171572 0.00121962 0)
(0.016315 0.00133503 0)
(0.0153798 0.00142692 0)
(0.0143688 0.00149697 0)
(0.0132985 0.001547 0)
(0.0121841 0.00157876 0)
(0.0110398 0.00159383 0)
(0.00987922 0.00159345 0)
(0.0087151 0.00157828 0)
(0.00756008 0.00154827 0)
(0.00642705 0.00150241 0)
(0.00532971 0.00143865 0)
(0.00428322 0.00135378 0)
(0.00330469 0.00124352 0)
(0.0024135 0.00110296 0)
(0.00163124 0.000927631 0)
(0.000980269 0.000715861 0)
(0.000480522 0.000472901 0)
(0.000150826 0.000218846 0)
(1.54892e-05 1.14228e-05 0)
(3.35408e-05 -0.000150258 0)
(0.00019653 -0.000462669 0)
(0.000514165 -0.000727785 0)
(0.00092716 -0.000923327 0)
(0.00139877 -0.0010463 0)
(0.00190008 -0.00110169 0)
(0.00240368 -0.00109808 0)
(0.0028853 -0.00104536 0)
(0.00332457 -0.000953338 0)
(0.00370493 -0.000831124 0)
(0.00401344 -0.000686787 0)
(0.00424038 -0.000527239 0)
(0.00437883 -0.000358187 0)
(0.0044242 -0.00018415 0)
(0.00437372 -8.50199e-06 0)
(0.00422598 0.000166451 0)
(0.00398046 0.00033937 0)
(0.00363712 0.000509764 0)
(0.00319607 0.000677856 0)
(0.00265721 0.000844435 0)
(0.0020201 0.00101071 0)
(0.00128371 0.00117814 0)
(0.000446381 0.00134831 0)
(-0.000494168 0.00152282 0)
(-0.00154085 0.00170311 0)
(-0.00269708 0.00189042 0)
(-0.00396666 0.00208573 0)
(-0.00535362 0.00228968 0)
(-0.00686201 0.00250254 0)
(-0.00849575 0.00272425 0)
(-0.0102584 0.00295439 0)
(-0.0121531 0.00319219 0)
(-0.014182 0.00343656 0)
(-0.0163467 0.00368612 0)
(-0.0186477 0.00393919 0)
(-0.0210842 0.00419386 0)
(-0.0236541 0.00444794 0)
(-0.0263542 0.00469906 0)
(-0.0291794 0.00494461 0)
(-0.0321233 0.00518182 0)
(-0.0351778 0.00540776 0)
(-0.0383332 0.00561936 0)
(-0.0415779 0.00581348 0)
(-0.044899 0.0059869 0)
(-0.0482817 0.0061364 0)
(-0.0517097 0.00625877 0)
(-0.0551654 0.00635088 0)
(-0.0586297 0.00640972 0)
(-0.0620823 0.00643246 0)
(-0.0655021 0.00641648 0)
(-0.0688669 0.0063594 0)
(-0.072154 0.00625919 0)
(-0.0753401 0.00611412 0)
(-0.0784019 0.00592287 0)
(-0.081316 0.00568452 0)
(-0.0840592 0.00539858 0)
(-0.0866089 0.00506505 0)
(-0.088943 0.0046844 0)
(-0.0910406 0.00425756 0)
(-0.0928816 0.00378601 0)
(-0.0944474 0.00327172 0)
(-0.095721 0.00271713 0)
(-0.0966869 0.00212524 0)
(-0.0973316 0.00149947 0)
(-0.0976435 0.000843545 0)
(-0.0976146 0.000161903 0)
(-0.0972367 -0.000538718 0)
(-0.0965039 -0.00125511 0)
(-0.0954158 -0.00198132 0)
(-0.0939727 -0.0027112 0)
(-0.0921778 -0.00343839 0)
(-0.0900368 -0.00415632 0)
(-0.0875585 -0.00485826 0)
(-0.0847544 -0.00553732 0)
(-0.0816386 -0.00618662 0)
(-0.0782281 -0.0067993 0)
(-0.0745426 -0.00736865 0)
(-0.0706042 -0.00788822 0)
(-0.0664377 -0.00835188 0)
(-0.06207 -0.008754 0)
(-0.0575301 -0.00908948 0)
(-0.0528491 -0.00935393 0)
(-0.0480595 -0.00954376 0)
(-0.0431951 -0.00965625 0)
(-0.0382909 -0.00968967 0)
(-0.0333824 -0.00964335 0)
(-0.0285051 -0.00951774 0)
(-0.0236946 -0.00931441 0)
(-0.0189856 -0.00903613 0)
(-0.0144118 -0.00868679 0)
(-0.0100054 -0.00827136 0)
(-0.00579659 -0.00779585 0)
(-0.00181291 -0.00726717 0)
(0.00192055 -0.00669301 0)
(0.00538205 -0.00608172 0)
(0.00855347 -0.00544209 0)
(0.0114201 -0.00478319 0)
(0.0139714 -0.00411412 0)
(0.0162005 -0.00344389 0)
(0.0181048 -0.00278115 0)
(0.0196855 -0.00213404 0)
(0.0209475 -0.00151003 0)
(0.0218995 -0.000915756 0)
(0.0225533 -0.000356893 0)
(0.0229236 0.000161896 0)
(0.0230277 0.000637035 0)
(0.0228849 0.00106605 0)
(0.0225159 0.00144754 0)
(0.0219429 0.00178114 0)
(0.0211882 0.00206739 0)
(0.0202748 0.00230769 0)
(0.0192251 0.00250408 0)
(0.0180611 0.00265906 0)
(0.0168041 0.00277544 0)
(0.0154744 0.002856 0)
(0.0140914 0.00290331 0)
(0.0126734 0.00291934 0)
(0.0112384 0.00290524 0)
(0.00980403 0.00286093 0)
(0.00838794 0.00278491 0)
(0.00700868 0.00267399 0)
(0.00568603 0.00252328 0)
(0.00444151 0.00232648 0)
(0.00329869 0.00207658 0)
(0.00228308 0.00176765 0)
(0.0014208 0.00139803 0)
(0.000735764 0.000975515 0)
(0.000257021 0.000526028 0)
(3.68596e-05 0.000115457 0)
(4.05454e-05 -0.000264867 0)
(0.000231341 -0.000740385 0)
(0.000594861 -0.0011222 0)
(0.00105745 -0.0013961 0)
(0.00157542 -0.00156299 0)
(0.00211629 -0.00163125 0)
(0.00264993 -0.00161311 0)
(0.00314979 -0.0015223 0)
(0.00359347 -0.00137254 0)
(0.00396255 -0.00117676 0)
(0.00424236 -0.000946529 0)
(0.00442158 -0.000691904 0)
(0.00449182 -0.000421263 0)
(0.00444718 -0.000141301 0)
(0.00428368 0.000142932 0)
(0.00399882 0.000427935 0)
(0.00359106 0.000711629 0)
(0.00305941 0.000993185 0)
(0.00240306 0.00127283 0)
(0.00162104 0.00155163 0)
(0.000712006 0.00183125 0)
(-0.000325914 0.00211377 0)
(-0.00149521 0.00240141 0)
(-0.00279897 0.00269638 0)
(-0.00424084 0.00300067 0)
(-0.00582488 0.00331596 0)
(-0.00755542 0.00364346 0)
(-0.00943683 0.00398386 0)
(-0.0114733 0.00433732 0)
(-0.0136687 0.0047034 0)
(-0.0160262 0.00508112 0)
(-0.018548 0.00546893 0)
(-0.0212356 0.0058648 0)
(-0.0240888 0.00626619 0)
(-0.0271063 0.00667016 0)
(-0.0302851 0.00707331 0)
(-0.0336204 0.00747193 0)
(-0.0371057 0.00786195 0)
(-0.0407324 0.00823903 0)
(-0.0444902 0.00859858 0)
(-0.0483666 0.00893582 0)
(-0.0523472 0.00924586 0)
(-0.0564156 0.00952372 0)
(-0.0605536 0.00976442 0)
(-0.0647414 0.00996305 0)
(-0.0689573 0.0101149 0)
(-0.0731785 0.0102153 0)
(-0.0773805 0.01026 0)
(-0.0815384 0.0102453 0)
(-0.085626 0.0101675 0)
(-0.089617 0.0100237 0)
(-0.0934844 0.0098115 0)
(-0.0972016 0.00952902 0)
(-0.100742 0.00917506 0)
(-0.10408 0.00874904 0)
(-0.10719 0.00825112 0)
(-0.110048 0.0076821 0)
(-0.11263 0.00704354 0)
(-0.114917 0.00633766 0)
(-0.116886 0.00556742 0)
(-0.118521 0.00473646 0)
(-0.119804 0.00384908 0)
(-0.120723 0.00291027 0)
(-0.121264 0.0019256 0)
(-0.121419 0.000901088 0)
(-0.121177 -0.000156444 0)
(-0.120537 -0.00123781 0)
(-0.119496 -0.00233726 0)
(-0.118053 -0.00344616 0)
(-0.116211 -0.00455562 0)
(-0.113976 -0.00565657 0)
(-0.111355 -0.00673965 0)
(-0.10836 -0.00779533 0)
(-0.105004 -0.00881396 0)
(-0.101304 -0.00978589 0)
(-0.0972776 -0.0107016 0)
(-0.0929474 -0.0115517 0)
(-0.088337 -0.0123272 0)
(-0.0834729 -0.0130196 0)
(-0.0783839 -0.0136211 0)
(-0.0731008 -0.0141245 0)
(-0.0676566 -0.0145237 0)
(-0.0620858 -0.0148135 0)
(-0.0564243 -0.01499 0)
(-0.0507092 -0.0150506 0)
(-0.0449784 -0.0149943 0)
(-0.0392703 -0.0148212 0)
(-0.0336232 -0.0145334 0)
(-0.028075 -0.0141344 0)
(-0.0226628 -0.0136293 0)
(-0.0174222 -0.0130248 0)
(-0.0123873 -0.0123291 0)
(-0.00758968 -0.0115516 0)
(-0.00305858 -0.0107031 0)
(0.00118 -0.00979506 0)
(0.00510353 -0.00884008 0)
(0.0086931 -0.00785107 0)
(0.0119338 -0.0068412 0)
(0.0148149 -0.0058236 0)
(0.0173299 -0.00481113 0)
(0.0194766 -0.00381603 0)
(0.0212571 -0.00284972 0)
(0.0226773 -0.00192256 0)
(0.0237471 -0.00104365 0)
(0.0244801 -0.000220713 0)
(0.0248929 0.000540059 0)
(0.0250046 0.00123404 0)
(0.0248369 0.00185816 0)
(0.0244132 0.00241088 0)
(0.0237579 0.00289208 0)
(0.0228964 0.00330291 0)
(0.0218543 0.00364558 0)
(0.0206571 0.0039231 0)
(0.0193301 0.004139 0)
(0.0178975 0.00429694 0)
(0.0163833 0.0044003 0)
(0.0148103 0.00445183 0)
(0.013201 0.0044531 0)
(0.0115774 0.00440414 0)
(0.00996189 0.00430304 0)
(0.00837714 0.0041457 0)
(0.00684698 0.00392586 0)
(0.00539667 0.00363547 0)
(0.00405329 0.00326571 0)
(0.00284592 0.0028091 0)
(0.00180459 0.00226306 0)
(0.000958347 0.00163523 0)
(0.000348103 0.000951381 0)
(5.43475e-05 0.000273547 0)
(4.42179e-05 -0.000393683 0)
(0.000249989 -0.00104794 0)
(0.000637272 -0.00155148 0)
(0.00112215 -0.00190144 0)
(0.00165525 -0.00210529 0)
(0.00220094 -0.00217648 0)
(0.00272694 -0.00213171 0)
(0.00320509 -0.001989 0)
(0.00361169 -0.00176618 0)
(0.00392716 -0.00148006 0)
(0.00413566 -0.00114582 0)
(0.00422473 -0.000776681 0)
(0.00418488 -0.000383751 0)
(0.00400905 2.40395e-05 0)
(0.00369215 0.000439911 0)
(0.00323054 0.000859124 0)
(0.0026216 0.00127882 0)
(0.00186325 0.00169779 0)
(0.000953581 0.00211625 0)
(-0.0001094 0.00253551 0)
(-0.00132804 0.00295767 0)
(-0.00270517 0.00338536 0)
(-0.00424414 0.00382138 0)
(-0.00594879 0.00426847 0)
(-0.00782339 0.00472906 0)
(-0.00987241 0.00520506 0)
(-0.0121004 0.00569776 0)
(-0.0145117 0.00620769 0)
(-0.0171101 0.00673456 0)
(-0.0198987 0.00727728 0)
(-0.0228798 0.00783395 0)
(-0.0260541 0.00840188 0)
(-0.0294212 0.00897768 0)
(-0.0329786 0.00955725 0)
(-0.0367222 0.0101359 0)
(-0.040646 0.0107084 0)
(-0.0447415 0.011269 0)
(-0.0489982 0.0118116 0)
(-0.0534033 0.0123297 0)
(-0.0579419 0.0128166 0)
(-0.0625965 0.0132653 0)
(-0.0673477 0.0136689 0)
(-0.0721742 0.0140205 0)
(-0.0770525 0.0143133 0)
(-0.0819577 0.0145406 0)
(-0.0868635 0.0146963 0)
(-0.0917422 0.0147745 0)
(-0.0965654 0.0147701 0)
(-0.101304 0.0146784 0)
(-0.105929 0.0144954 0)
(-0.11041 0.0142181 0)
(-0.114719 0.0138442 0)
(-0.118828 0.0133721 0)
(-0.122708 0.0128015 0)
(-0.126332 0.0121326 0)
(-0.129677 0.0113667 0)
(-0.132717 0.0105061 0)
(-0.135432 0.00955375 0)
(-0.137799 0.00851376 0)
(-0.139802 0.00739092 0)
(-0.141424 0.00619089 0)
(-0.142651 0.00492012 0)
(-0.14347 0.00358584 0)
(-0.143873 0.00219601 0)
(-0.143851 0.000759362 0)
(-0.143399 -0.000714898 0)
(-0.142515 -0.00221793 0)
(-0.141198 -0.00373819 0)
(-0.139451 -0.00526499 0)
(-0.137278 -0.00678715 0)
(-0.134686 -0.00829303 0)
(-0.131684 -0.00977068 0)
(-0.128284 -0.0112079 0)
(-0.1245 -0.0125926 0)
(-0.12035 -0.0139123 0)
(-0.115853 -0.015155 0)
(-0.11103 -0.0163089 0)
(-0.105907 -0.0173625 0)
(-0.100509 -0.0183049 0)
(-0.0948661 -0.0191262 0)
(-0.0890089 -0.019817 0)
(-0.0829705 -0.0203695 0)
(-0.0767861 -0.0207768 0)
(-0.0704921 -0.0210336 0)
(-0.0641264 -0.0211363 0)
(-0.0577281 -0.0210831 0)
(-0.0513366 -0.0208739 0)
(-0.0449921 -0.0205107 0)
(-0.0387343 -0.0199975 0)
(-0.0326026 -0.0193405 0)
(-0.0266354 -0.0185476 0)
(-0.0208695 -0.017629 0)
(-0.0153399 -0.0165964 0)
(-0.0100794 -0.0154632 0)
(-0.00511762 -0.0142443 0)
(-0.000481247 -0.0129556 0)
(0.00380673 -0.0116138 0)
(0.00772719 -0.0102363 0)
(0.0112652 -0.00884033 0)
(0.0144101 -0.00744322 0)
(0.0171556 -0.00606156 0)
(0.0195002 -0.0047111 0)
(0.0214464 -0.00340635 0)
(0.0230011 -0.00216038 0)
(0.0241752 -0.000984502 0)
(0.0249834 0.000111822 0)
(0.0254437 0.00112114 0)
(0.0255767 0.00203807 0)
(0.0254059 0.00285924 0)
(0.0249562 0.00358319 0)
(0.0242543 0.00421024 0)
(0.0233277 0.00474223 0)
(0.0222041 0.0051822 0)
(0.0209117 0.00553398 0)
(0.0194781 0.00580177 0)
(0.0179308 0.00598959 0)
(0.0162965 0.00610074 0)
(0.0146017 0.00613723 0)
(0.0128726 0.0060992 0)
(0.0111354 0.00598449 0)
(0.00941664 0.0057883 0)
(0.00774377 0.00550324 0)
(0.00614548 0.00511973 0)
(0.0046522 0.0046272 0)
(0.00329662 0.00401614 0)
(0.00211312 0.00328163 0)
(0.0011366 0.00242813 0)
(0.00041968 0.00147609 0)
(6.74501e-05 0.000475477 0)
(4.54074e-05 -0.000528623 0)
(0.000255068 -0.0013676 0)
(0.000645671 -0.00199186 0)
(0.00112718 -0.00241134 0)
(0.00164615 -0.00264181 0)
(0.00216441 -0.00270309 0)
(0.00264806 -0.00261726 0)
(0.00306788 -0.00240704 0)
(0.00339938 -0.0020946 0)
(0.0036223 -0.00170069 0)
(0.0037201 -0.00124406 0)
(0.00367957 -0.000741069 0)
(0.00349034 -0.000205506 0)
(0.00314442 0.000351514 0)
(0.0026357 0.000921517 0)
(0.00195946 0.00149855 0)
(0.00111194 0.00207899 0)
(8.99249e-05 0.00266126 0)
(-0.00110963 0.00324552 0)
(-0.00248983 0.00383329 0)
(-0.00405409 0.00442706 0)
(-0.00580617 0.0050299 0)
(-0.00775023 0.00564507 0)
(-0.00989075 0.00627567 0)
(-0.0122324 0.00692436 0)
(-0.0147798 0.00759306 0)
(-0.0175372 0.00828282 0)
(-0.0205086 0.00899367 0)
(-0.0236968 0.00972456 0)
(-0.0271036 0.0104733 0)
(-0.0307294 0.0112368 0)
(-0.0345728 0.0120106 0)
(-0.0386306 0.0127895 0)
(-0.0428975 0.0135676 0)
(-0.0473656 0.0143379 0)
(-0.052025 0.0150929 0)
(-0.056863 0.0158245 0)
(-0.0618644 0.0165242 0)
(-0.0670116 0.0171831 0)
(-0.0722847 0.017792 0)
(-0.0776612 0.018342 0)
(-0.0831168 0.0188238 0)
(-0.0886249 0.0192287 0)
(-0.0941578 0.0195481 0)
(-0.099686 0.0197741 0)
(-0.105179 0.0198993 0)
(-0.110606 0.0199171 0)
(-0.115936 0.0198217 0)
(-0.121137 0.0196084 0)
(-0.126178 0.0192734 0)
(-0.131028 0.018814 0)
(-0.135659 0.0182286 0)
(-0.140041 0.0175168 0)
(-0.144147 0.0166794 0)
(-0.147953 0.0157181 0)
(-0.151435 0.0146359 0)
(-0.15457 0.0134367 0)
(-0.157339 0.0121256 0)
(-0.159724 0.0107086 0)
(-0.161709 0.00919265 0)
(-0.16328 0.00758547 0)
(-0.164427 0.00589574 0)
(-0.165139 0.00413287 0)
(-0.165409 0.00230703 0)
(-0.165232 0.000429155 0)
(-0.164605 -0.00148914 0)
(-0.163526 -0.00343644 0)
(-0.161996 -0.00539953 0)
(-0.16002 -0.00736528 0)
(-0.157601 -0.00932012 0)
(-0.154747 -0.0112501 0)
(-0.151469 -0.0131409 0)
(-0.147777 -0.0149779 0)
(-0.143685 -0.0167467 0)
(-0.139211 -0.0184324 0)
(-0.134373 -0.0200206 0)
(-0.129191 -0.0214971 0)
(-0.123689 -0.022848 0)
(-0.117893 -0.0240602 0)
(-0.111831 -0.0251213 0)
(-0.105533 -0.0260202 0)
(-0.0990318 -0.0267466 0)
(-0.0923616 -0.0272922 0)
(-0.0855586 -0.02765 0)
(-0.0786608 -0.0278151 0)
(-0.0717075 -0.0277845 0)
(-0.0647388 -0.0275576 0)
(-0.0577958 -0.0271362 0)
(-0.0509197 -0.0265243 0)
(-0.0441515 -0.0257286 0)
(-0.0375318 -0.0247583 0)
(-0.0310999 -0.0236247 0)
(-0.0248939 -0.0223419 0)
(-0.0189495 -0.0209255 0)
(-0.0133 -0.0193932 0)
(-0.00797581 -0.0177645 0)
(-0.00300393 -0.0160595 0)
(0.0015924 -0.0142996 0)
(0.00579398 -0.0125065 0)
(0.00958594 -0.0107017 0)
(0.0129578 -0.00890629 0)
(0.0159039 -0.00714066 0)
(0.0184228 -0.00542375 0)
(0.020518 -0.00377294 0)
(0.0221971 -0.00220363 0)
(0.0234718 -0.000729038 0)
(0.0243579 0.000639988 0)
(0.0248744 0.00189509 0)
(0.0250434 0.00303042 0)
(0.0248896 0.00404257 0)
(0.0244396 0.00493037 0)
(0.0237216 0.00569466 0)
(0.0227649 0.00633793 0)
(0.0215995 0.00686384 0)
(0.0202555 0.00727668 0)
(0.0187631 0.00758077 0)
(0.0171523 0.00777976 0)
(0.0154531 0.00787592 0)
(0.013695 0.00786951 0)
(0.0119079 0.00775815 0)
(0.0101218 0.00753652 0)
(0.00836745 0.00719624 0)
(0.0066769 0.00672631 0)
(0.00508389 0.00611417 0)
(0.00362486 0.00534769 0)
(0.00233879 0.00441812 0)
(0.00126652 0.00332419 0)
(0.000470961 0.00207711 0)
(7.64341e-05 0.000710011 0)
(4.47319e-05 -0.000663144 0)
(0.000248826 -0.00168356 0)
(0.000624296 -0.00242125 0)
(0.00107865 -0.00289925 0)
(0.00155608 -0.00314267 0)
(0.00201669 -0.00317865 0)
(0.00242558 -0.00303529 0)
(0.00275297 -0.00274042 0)
(0.00297406 -0.0023207 0)
(0.00306828 -0.00180085 0)
(0.00301875 -0.00120312 0)
(0.00281178 -0.000546918 0)
(0.00243638 0.000151435 0)
(0.00188377 0.000878749 0)
(0.00114695 0.00162496 0)
(0.000220187 0.00238298 0)
(-0.000901389 0.00314846 0)
(-0.00222214 0.00391948 0)
(-0.00374624 0.00469614 0)
(-0.00547792 0.00548012 0)
(-0.00742158 0.00627417 0)
(-0.00958184 0.00708168 0)
(-0.0119635 0.00790617 0)
(-0.0145716 0.00875088 0)
(-0.0174107 0.00961836 0)
(-0.0204852 0.0105102 0)
(-0.023799 0.011427 0)
(-0.0273546 0.0123676 0)
(-0.0311535 0.01333 0)
(-0.0351954 0.0143104 0)
(-0.0394783 0.0153038 0)
(-0.0439978 0.0163038 0)
(-0.0487473 0.0173031 0)
(-0.0537175 0.018293 0)
(-0.0588965 0.0192642 0)
(-0.0642696 0.0202065 0)
(-0.0698194 0.0211092 0)
(-0.0755259 0.0219611 0)
(-0.0813663 0.0227508 0)
(-0.0873157 0.0234669 0)
(-0.0933468 0.024098 0)
(-0.0994307 0.0246333 0)
(-0.105537 0.0250622 0)
(-0.111633 0.0253749 0)
(-0.117687 0.0255625 0)
(-0.123665 0.025617 0)
(-0.129536 0.0255317 0)
(-0.135265 0.0253009 0)
(-0.14082 0.0249203 0)
(-0.146172 0.0243869 0)
(-0.151289 0.0236992 0)
(-0.156143 0.0228569 0)
(-0.160708 0.0218611 0)
(-0.164959 0.0207143 0)
(-0.168872 0.0194202 0)
(-0.172427 0.0179836 0)
(-0.175606 0.0164105 0)
(-0.178389 0.0147081 0)
(-0.180764 0.0128844 0)
(-0.182717 0.0109484 0)
(-0.184238 0.00890986 0)
(-0.185316 0.00677957 0)
(-0.185944 0.00456888 0)
(-0.186118 0.00228989 0)
(-0.185834 -4.45529e-05 0)
(-0.185089 -0.00242082 0)
(-0.183883 -0.00482532 0)
(-0.182217 -0.00724329 0)
(-0.180096 -0.00965962 0)
(-0.177524 -0.0120587 0)
(-0.174507 -0.0144246 0)
(-0.171054 -0.0167409 0)
(-0.167177 -0.018991 0)
(-0.162887 -0.021158 0)
(-0.1582 -0.0232252 0)
(-0.153132 -0.0251756 0)
(-0.147702 -0.0269928 0)
(-0.141933 -0.0286606 0)
(-0.135849 -0.0301635 0)
(-0.129475 -0.0314869 0)
(-0.122841 -0.0326171 0)
(-0.115977 -0.0335421 0)
(-0.108917 -0.0342511 0)
(-0.101696 -0.0347355 0)
(-0.0943525 -0.0349887 0)
(-0.0869248 -0.0350063 0)
(-0.0794537 -0.0347867 0)
(-0.0719808 -0.034331 0)
(-0.0645486 -0.0336429 0)
(-0.0571996 -0.0327293 0)
(-0.0499763 -0.0316 0)
(-0.0429206 -0.0302676 0)
(-0.0360731 -0.0287475 0)
(-0.0294727 -0.0270576 0)
(-0.0231562 -0.0252183 0)
(-0.0171576 -0.0232519 0)
(-0.0115079 -0.0211821 0)
(-0.00623435 -0.0190342 0)
(-0.00136037 -0.0168338 0)
(0.00309487 -0.014607 0)
(0.00711671 -0.0123794 0)
(0.0106951 -0.010176 0)
(0.0138248 -0.00802044 0)
(0.0165052 -0.00593461 0)
(0.0187404 -0.0039384 0)
(0.0205389 -0.00204919 0)
(0.0219135 -0.000281696 0)
(0.0228809 0.00135221 0)
(0.0234614 0.00284362 0)
(0.0236782 0.00418654 0)
(0.0235575 0.00537768 0)
(0.0231272 0.00641628 0)
(0.0224173 0.00730366 0)
(0.0214587 0.00804276 0)
(0.0202832 0.00863749 0)
(0.0189233 0.00909203 0)
(0.0174114 0.00941005 0)
(0.0157803 0.00959389 0)
(0.0140625 0.0096438 0)
(0.0122911 0.00955719 0)
(0.0104992 0.00932822 0)
(0.00872083 0.00894756 0)
(0.00699114 0.00840275 0)
(0.00534724 0.007679 0)
(0.00382936 0.00676084 0)
(0.00248098 0.00563455 0)
(0.00134842 0.00429122 0)
(0.000502789 0.00273046 0)
(8.1753e-05 0.00096625 0)
(4.2587e-05 -0.00079187 0)
(0.000232935 -0.00198195 0)
(0.000576627 -0.00281949 0)
(0.000981859 -0.00334054 0)
(0.00139207 -0.00357996 0)
(0.00176659 -0.0035728 0)
(0.00207024 -0.0033536 0)
(0.00227324 -0.00295557 0)
(0.00235087 -0.00240994 0)
(0.00228263 -0.00174539 0)
(0.00205159 -0.000987531 0)
(0.00164381 -0.000158635 0)
(0.00104786 0.000722588 0)
(0.000254359 0.00164105 0)
(-0.000744523 0.00258524 0)
(-0.00195546 0.00354704 0)
(-0.00338434 0.00452148 0)
(-0.00503664 0.00550629 0)
(-0.00691761 0.00650149 0)
(-0.00903249 0.00750882 0)
(-0.0113866 0.00853119 0)
(-0.0139852 0.0095721 0)
(-0.0168335 0.0106351 0)
(-0.0199366 0.0117231 0)
(-0.023299 0.0128384 0)
(-0.0269242 0.0139817 0)
(-0.0308148 0.0151526 0)
(-0.0349719 0.0163486 0)
(-0.0393946 0.0175659 0)
(-0.04408 0.0187987 0)
(-0.0490228 0.0200398 0)
(-0.054215 0.0212802 0)
(-0.0596459 0.0225099 0)
(-0.0653016 0.0237175 0)
(-0.0711656 0.0248907 0)
(-0.0772183 0.0260165 0)
(-0.0834372 0.0270814 0)
(-0.0897972 0.0280717 0)
(-0.0962709 0.0289734 0)
(-0.102829 0.029773 0)
(-0.109439 0.0304573 0)
(-0.116069 0.0310139 0)
(-0.122685 0.0314311 0)
(-0.129252 0.0316984 0)
(-0.135737 0.0318067 0)
(-0.142104 0.0317481 0)
(-0.148321 0.0315162 0)
(-0.154354 0.0311063 0)
(-0.160173 0.0305153 0)
(-0.165748 0.0297416 0)
(-0.171052 0.0287853 0)
(-0.176057 0.0276479 0)
(-0.180741 0.0263325 0)
(-0.185082 0.0248436 0)
(-0.18906 0.0231869 0)
(-0.192656 0.0213694 0)
(-0.195856 0.019399 0)
(-0.198646 0.0172849 0)
(-0.201013 0.0150371 0)
(-0.202947 0.0126663 0)
(-0.204439 0.0101842 0)
(-0.205483 0.0076032 0)
(-0.206072 0.00493629 0)
(-0.206203 0.00219719 0)
(-0.205871 -0.000599734 0)
(-0.205077 -0.00343958 0)
(-0.203818 -0.00630685 0)
(-0.202097 -0.00918536 0)
(-0.199915 -0.0120584 0)
(-0.197278 -0.0149089 0)
(-0.194188 -0.017719 0)
(-0.190655 -0.0204705 0)
(-0.186687 -0.0231451 0)
(-0.182293 -0.0257238 0)
(-0.177488 -0.0281877 0)
(-0.172285 -0.0305179 0)
(-0.166701 -0.0326954 0)
(-0.160756 -0.0347017 0)
(-0.154471 -0.036519 0)