/*--------------------------------*- C++ -*----------------------------------*\
| =========                 |                                                 |
| \\      /  F ield         | OpenFOAM: The Open Source CFD Toolbox           |
|  \\    /   O peration     | Version:  2112                                  |
|   \\  /    A nd           | Website:  www.openfoam.com                      |
|    \\/     M anipulation  |                                                 |
\*---------------------------------------------------------------------------*/
FoamFile
{
    version     2.0;
    format      ascii;
    arch        "LSB;label=32;scalar=64";
    class       volScalarField;
    location    "15";
    object      p;
}
// * * * * * * * * * * * * * * * * * * * * * * * * * * * * * * * * * * * * * //

dimensions      [0 2 -2 0 0 0 0];

internalField   nonuniform List<scalar> 
16641
(
-5.22332e-10
2.40953e-06
1.51828e-06
-3.10864e-06
-1.13573e-05
-2.29021e-05
-3.72975e-05
-5.40954e-05
-7.29061e-05
-9.34131e-05
-0.000115377
-0.000138629
-0.000163058
-0.000188599
-0.000215227
-0.00024294
-0.000271754
-0.000301694
-0.000332786
-0.000365053
-0.000398507
-0.00043315
-0.00046897
-0.00050594
-0.000544013
-0.000583128
-0.000623204
-0.000664143
-0.000705832
-0.000748139
-0.000790912
-0.000833984
-0.000877169
-0.000920262
-0.000963037
-0.00100525
-0.00104663
-0.0010869
-0.00112575
-0.00116284
-0.00119782
-0.00123031
-0.00125993
-0.00128626
-0.00130887
-0.00132734
-0.00134122
-0.00135006
-0.00135343
-0.0013509
-0.00134207
-0.00132657
-0.00130405
-0.00127424
-0.0012369
-0.00119188
-0.00113909
-0.00107856
-0.00101039
-0.000934813
-0.000852166
-0.000762914
-0.000667652
-0.000567109
-0.00046215
-0.000353704
-0.000242937
-0.000131059
-1.939e-05
9.06555e-05
0.000197593
0.000299889
0.000395982
0.000484312
0.000563342
0.000631593
0.000687666
0.000730276
0.000758275
0.000770681
0.0007667
0.000745745
0.000707452
0.000651693
0.000578576
0.000488455
0.000381915
0.000259767
0.000123038
-2.70634e-05
-0.000189161
-0.00036174
-0.000543183
-0.000731794
-0.00092584
-0.00112358
-0.00132328
-0.00152329
-0.00172201
-0.00191795
-0.00210975
-0.00229618
-0.00247614
-0.00264871
-0.00281311
-0.00296872
-0.00311505
-0.00325177
-0.00337866
-0.00349563
-0.00360266
-0.00369983
-0.00378729
-0.00386521
-0.00393379
-0.00399327
-0.00404385
-0.00408575
-0.00411915
-0.00414423
-0.00416118
-0.00417022
-0.0041717
-0.00416614
-0.00415443
-0.0041381
-0.00411957
-0.00410244
-0.00409201
-2.62052e-06
-2.0007e-07
-1.41836e-06
-6.00571e-06
-1.36614e-05
-2.41915e-05
-3.73092e-05
-5.26946e-05
-7.00524e-05
-8.91296e-05
-0.000109723
-0.000131678
-0.000154887
-0.000179278
-0.00020481
-0.000231464
-0.000259236
-0.00028813
-0.000318154
-0.000349313
-0.000381607
-0.000415025
-0.000449545
-0.000485133
-0.000521741
-0.000559305
-0.000597747
-0.000636974
-0.000676874
-0.000717322
-0.000758178
-0.000799284
-0.000840465
-0.000881528
-0.000922264
-0.000962443
-0.00100182
-0.00104011
-0.00107705
-0.00111231
-0.00114558
-0.00117649
-0.00120468
-0.00122977
-0.00125137
-0.00126907
-0.00128245
-0.0012911
-0.00129462
-0.00129261
-0.00128469
-0.00127051
-0.00124976
-0.00122218
-0.00118754
-0.00114571
-0.00109662
-0.00104027
-0.000976779
-0.000906358
-0.000829329
-0.000746133
-0.000657332
-0.000563612
-0.000465779
-0.000364783
-0.000261651
-0.000157549
-5.37344e-05
4.84532e-05
0.000147607
0.000242272
0.000330969
0.000412219
0.000484568
0.000546613
0.000597029
0.000634602
0.000658248
0.000667041
0.000660235
0.000637281
0.000597843
0.000541808
0.000469292
0.000380638
0.000276414
0.000157402
2.45805e-05
-0.00012089
-0.000277697
-0.000444401
-0.000619459
-0.000801262
-0.000988165
-0.00117851
-0.00137068
-0.00156309
-0.00175423
-0.00194271
-0.00212722
-0.00230661
-0.00247986
-0.00264608
-0.00280453
-0.00295463
-0.00309592
-0.00322807
-0.00335088
-0.00346424
-0.00356815
-0.00366266
-0.00374791
-0.00382407
-0.00389133
-0.00394991
-0.00400005
-0.00404197
-0.0040759
-0.00410206
-0.00412073
-0.00413221
-0.00413693
-0.00413547
-0.00412869
-0.00411789
-0.00410494
-0.00409206
-0.00408159
-1.96677e-06
7.9665e-07
-4.48674e-07
-4.99367e-06
-1.23472e-05
-2.23303e-05
-3.47143e-05
-4.92335e-05
-6.56508e-05
-8.37545e-05
-0.000103372
-0.000124365
-0.000146633
-0.000170107
-0.000194743
-0.000220513
-0.000247406
-0.000275414
-0.000304536
-0.000334766
-0.000366096
-0.000398508
-0.000431974
-0.000466458
-0.000501908
-0.00053826
-0.000575439
-0.000613353
-0.000651898
-0.000690954
-0.000730387
-0.00077005
-0.000809777
-0.000849389
-0.000888688
-0.000927459
-0.000965468
-0.00100246
-0.00103817
-0.0010723
-0.00110455
-0.00113458
-0.00116205
-0.00118659
-0.00120783
-0.00122538
-0.00123885
-0.00124785
-0.00125199
-0.00125088
-0.00124416
-0.0012315
-0.00121258
-0.00118715
-0.00115501
-0.00111599
-0.00107002
-0.00101711
-0.00095736
-0.000890957
-0.000818207
-0.000739523
-0.000655442
-0.000566618
-0.000473814
-0.000377944
-0.000280005
-0.000181117
-8.24921e-05
1.45719e-05
0.000108713
0.000198519
0.000282556
0.000359385
0.000427592
0.000485812
0.000532756
0.000567241
0.000588212
0.00059477
0.000586188
0.000561934
0.000521687
0.000465339
0.00039301
0.000305043
0.000201998
8.46444e-05
-4.60534e-05
-0.000188963
-0.000342792
-0.000506133
-0.000677481
-0.000855266
-0.00103788
-0.00122373
-0.00141122
-0.00159882
-0.00178509
-0.00196866
-0.0021483
-0.00232288
-0.00249143
-0.00265311
-0.00280721
-0.00295318
-0.00309059
-0.00321913
-0.00333862
-0.00344897
-0.00355017
-0.00364231
-0.00372551
-0.00379996
-0.00386585
-0.00392343
-0.00397292
-0.00401458
-0.00404865
-0.00407539
-0.00409508
-0.00410805
-0.00411471
-0.00411558
-0.00411138
-0.0041031
-0.00409212
-0.00407923
-0.00406438
2.59881e-06
5.24711e-06
3.80876e-06
-8.48742e-07
-8.14459e-06
-1.78839e-05
-2.98525e-05
-4.38259e-05
-5.95927e-05
-7.69735e-05
-9.58233e-05
-0.000116024
-0.000137488
-0.000160153
-0.000183976
-0.000208933
-0.000235007
-0.000262188
-0.000290468
-0.000319838
-0.000350283
-0.000381783
-0.000414306
-0.000447814
-0.000482253
-0.000517562
-0.000553666
-0.000590478
-0.000627899
-0.000665817
-0.000704105
-0.000742625
-0.000781223
-0.000819731
-0.000857964
-0.000895722
-0.000932785
-0.000968918
-0.00100387
-0.00103735
-0.00106909
-0.00109875
-0.00112602
-0.00115055
-0.00117198
-0.00118993
-0.00120402
-0.00121388
-0.00121911
-0.00121936
-0.00121424
-0.00120344
-0.00118664
-0.00116358
-0.00113403
-0.00109784
-0.00105491
-0.00100524
-0.000948901
-0.000886062
-0.000817001
-0.000742106
-0.000661885
-0.000576963
-0.000488076
-0.000396102
-0.000302017
-0.000206909
-0.000111963
-1.84526e-05
7.22841e-05
0.000158858
0.000239851
0.000313843
0.000379433
0.000435269
0.000480072
0.000512668
0.000532007
0.000537195
0.000527509
0.000502422
0.000461612
0.000404974
0.00033263
0.000244921
0.00014241
2.5864e-05
-0.000103754
-0.00024531
-0.000397524
-0.000558987
-0.000728206
-0.000903619
-0.00108364
-0.00126667
-0.00145116
-0.00163559
-0.00181854
-0.00199868
-0.0021748
-0.00234582
-0.00251078
-0.00266888
-0.00281946
-0.00296199
-0.00309606
-0.00322141
-0.00333788
-0.0034454
-0.00354399
-0.00363376
-0.00371485
-0.00378746
-0.00385182
-0.00390817
-0.00395677
-0.00399788
-0.00403176
-0.00405867
-0.00407888
-0.00409271
-0.00410048
-0.00410261
-0.0040996
-0.00409217
-0.00408124
-0.0040664
-0.00404582
1.11349e-05
1.29583e-05
1.09544e-05
5.94e-06
-1.52642e-06
-1.1239e-05
-2.3002e-05
-3.66108e-05
-5.18887e-05
-6.86857e-05
-8.68797e-05
-0.000106375
-0.000127099
-0.000149001
-0.000172046
-0.000196213
-0.000221486
-0.000247857
-0.000275315
-0.000303849
-0.000333442
-0.00036407
-0.000395703
-0.000428299
-0.000461807
-0.000496168
-0.000531309
-0.000567149
-0.000603594
-0.00064054
-0.000677871
-0.000715458
-0.000753159
-0.00079082
-0.00082827
-0.000865323
-0.000901776
-0.000937409
-0.000971984
-0.00100524
-0.00103691
-0.00106668
-0.00109424
-0.00111927
-0.00114141
-0.00116029
-0.00117555
-0.00118681
-0.00119369
-0.00119581
-0.00119281
-0.00118434
-0.00117009
-0.00114977
-0.00112316
-0.00109007
-0.00105038
-0.00100406
-0.000951165
-0.00089183
-0.000826305
-0.00075495
-0.000678242
-0.000596779
-0.000511273
-0.000422573
-0.000331632
-0.00023952
-0.000147404
-5.65436e-05
3.17334e-05
0.000116045
0.000194979
0.000267114
0.000331048
0.000385425
0.000428961
0.000460473
0.000478904
0.00048335
0.000473082
0.000447562
0.000406464
0.000349681
0.000277328
0.00018975
8.75097e-05
-2.86194e-05
-0.000157669
-0.000298498
-0.000449816
-0.000610208
-0.000778169
-0.000952132
-0.0011305
-0.00131169
-0.00149413
-0.00167633
-0.00185686
-0.00203441
-0.00220778
-0.00237592
-0.00253791
-0.00269295
-0.00284043
-0.00297984
-0.00311082
-0.00323313
-0.00334665
-0.00345134
-0.00354727
-0.00363455
-0.00371337
-0.00378395
-0.00384655
-0.00390143
-0.00394887
-0.00398913
-0.0040225
-0.00404923
-0.00406958
-0.0040838
-0.00409215
-0.00409491
-0.00409238
-0.004085
-0.00407337
-0.00405605
-0.00402975
2.34239e-05
2.38045e-05
2.08644e-05
1.5231e-05
7.35817e-06
-2.54018e-06
-1.42871e-05
-2.77068e-05
-4.26508e-05
-5.89964e-05
-7.66464e-05
-9.55274e-05
-0.000115586
-0.000136785
-0.000159102
-0.000182521
-0.000207034
-0.000232634
-0.000259313
-0.000287059
-0.000315857
-0.000345684
-0.000376507
-0.000408287
-0.000440978
-0.00047452
-0.000508847
-0.000543884
-0.000579544
-0.000615733
-0.000652344
-0.000689262
-0.000726358
-0.000763491
-0.000800506
-0.000837234
-0.000873488
-0.000909064
-0.00094374
-0.000977272
-0.0010094
-0.00103984
-0.00106828
-0.00109441
-0.00111789
-0.00113834
-0.00115541
-0.00116871
-0.00117787
-0.00118248
-0.00118218
-0.00117661
-0.00116544
-0.00114835
-0.00112508
-0.00109543
-0.00105926
-0.00101649
-0.00096714
-0.000911326
-0.000849261
-0.000781273
-0.00070781
-0.000629443
-0.000546859
-0.000460887
-0.000372463
-0.000282643
-0.000192587
-0.000103547
-1.68531e-05
6.61089e-05
0.000143917
0.00021514
0.00027836
0.000332202
0.000375361
0.000406634
0.000424943
0.000429362
0.00041914
0.000393724
0.000352771
0.000296162
0.000224007
0.000136645
3.46413e-05
-8.1225e-05
-0.000209976
-0.000350456
-0.000501356
-0.000661244
-0.000828594
-0.00100182
-0.0011793
-0.00135942
-0.00154062
-0.00172138
-0.00190028
-0.00207599
-0.00224733
-0.00241325
-0.00257285
-0.00272535
-0.00287017
-0.00300682
-0.00313499
-0.00325446
-0.00336515
-0.00346707
-0.00356032
-0.00364505
-0.00372148
-0.00378987
-0.00385051
-0.00390369
-0.0039497
-0.00398885
-0.0040214
-0.0040476
-0.00406769
-0.00408188
-0.00409034
-0.00409323
-0.00409066
-0.00408286
-0.00407014
-0.00405031
-0.00401894
3.90899e-05
3.75306e-05
3.33174e-05
2.68168e-05
1.83229e-05
8.0354e-06
-3.87489e-06
-1.72643e-05
-3.20144e-05
-4.8031e-05
-6.52433e-05
-8.36013e-05
-0.000103072
-0.000123637
-0.000145285
-0.000168014
-0.000191822
-0.000216709
-0.000242671
-0.000269701
-0.000297785
-0.000326903
-0.000357025
-0.000388115
-0.00042013
-0.000453017
-0.000486715
-0.000521157
-0.000556266
-0.000591958
-0.00062814
-0.000664709
-0.000701552
-0.000738543
-0.000775545
-0.000812404
-0.000848951
-0.000884999
-0.000920341
-0.00095475
-0.000987975
-0.00101975
-0.00104977
-0.00107772
-0.00110327
-0.00112605
-0.00114568
-0.00116179
-0.00117397
-0.00118182
-0.00118495
-0.00118296
-0.0011755
-0.00116222
-0.00114284
-0.0011171
-0.00108483
-0.00104593
-0.00100037
-0.000948215
-0.00088966
-0.000824993
-0.000754634
-0.000679127
-0.000599136
-0.00051547
-0.000429055
-0.000340936
-0.000252272
-0.000164319
-7.84134e-05
4.04455e-06
8.16148e-05
0.000152842
0.000216282
0.00027053
0.00031425
0.000346202
0.000365274
0.000370507
0.000361118
0.000336524
0.000296357
0.000240476
0.000168975
8.21833e-05
-1.93365e-05
-0.000134802
-0.000263226
-0.000403436
-0.000554103
-0.000713768
-0.000880874
-0.0010538
-0.00123091
-0.00141054
-0.00159111
-0.00177106
-0.00194896
-0.00212347
-0.00229339
-0.00245767
-0.00261541
-0.00276587
-0.00290845
-0.00304271
-0.00316836
-0.00328523
-0.00339326
-0.00349251
-0.00358311
-0.00366527
-0.00373924
-0.00380533
-0.00386385
-0.00391513
-0.0039595
-0.00399726
-0.0040287
-0.00405406
-0.00407356
-0.00408735
-0.00409555
-0.00409819
-0.00409524
-0.00408675
-0.00407284
-0.00405076
-0.00401524
5.76967e-05
5.37821e-05
4.80264e-05
4.04279e-05
3.11087e-05
2.02599e-05
8.03087e-06
-5.46581e-06
-2.01432e-05
-3.59379e-05
-5.28074e-05
-7.07267e-05
-8.96859e-05
-0.000109685
-0.000130732
-0.000152835
-0.000176006
-0.000200253
-0.000225578
-0.000251981
-0.000279452
-0.000307976
-0.000337528
-0.000368079
-0.000399589
-0.000432015
-0.000465303
-0.000499397
-0.000534231
-0.000569734
-0.000605828
-0.000642426
-0.00067943
-0.000716734
-0.000754217
-0.000791745
-0.000829165
-0.000866309
-0.000902983
-0.000938976
-0.000974047
-0.00100793
-0.00104035
-0.00107097
-0.00109946
-0.00112546
-0.00114857
-0.00116839
-0.0011845
-0.00119647
-0.00120389
-0.00120632
-0.00120338
-0.00119467
-0.00117988
-0.0011587
-0.00113091
-0.00109636
-0.00105499
-0.00100683
-0.000952017
-0.000890812
-0.0008236
-0.000750897
-0.000673348
-0.00059174
-0.000506987
-0.000420132
-0.000332332
-0.000244851
-0.00015904
-7.63186e-05
1.84732e-06
7.3971e-05
0.000138572
0.000194205
0.000239489
0.000273141
0.000294
0.000301061
0.000293495
0.000270676
0.000232198
0.000177885
0.000107805
2.22685e-05
-7.81758e-05
-0.000192749
-0.000320457
-0.000460117
-0.000610377
-0.00076975
-0.000936646
-0.00110941
-0.00128635
-0.00146578
-0.00164606
-0.00182561
-0.00200295
-0.00217672
-0.00234569
-0.00250881
-0.00266515
-0.00281398
-0.00295472
-0.00308694
-0.00321037
-0.00332488
-0.00343045
-0.00352716
-0.0036152
-0.00369481
-0.00376631
-0.00383002
-0.00388632
-0.00393555
-0.00397809
-0.00401426
-0.00404435
-0.00406862
-0.00408725
-0.00410036
-0.00410802
-0.00411017
-0.00410665
-0.0040974
-0.00408239
-0.00405848
-0.00401983
7.87836e-05
7.21917e-05
6.46423e-05
5.5751e-05
4.54348e-05
3.38732e-05
2.11931e-05
7.47201e-06
-7.23745e-06
-2.29039e-05
-3.95153e-05
-5.70747e-05
-7.5597e-05
-9.51039e-05
-0.000115621
-0.000137175
-0.000159789
-0.000183482
-0.000208267
-0.000234152
-0.000261134
-0.000289204
-0.000318346
-0.000348538
-0.000379749
-0.000411945
-0.000445084
-0.000479122
-0.000514008
-0.000549687
-0.000586097
-0.000623169
-0.000660826
-0.000698979
-0.00073753
-0.000776362
-0.000815341
-0.000854316
-0.00089311
-0.000931521
-0.00096932
-0.00100625
-0.00104202
-0.00107632
-0.00110879
-0.00113905
-0.00116671
-0.00119132
-0.00121245
-0.00122963
-0.0012424
-0.00125029
-0.00125287
-0.00124969
-0.00124039
-0.00122462
-0.00120209
-0.00117261
-0.00113607
-0.00109244
-0.00104182
-0.000984434
-0.000920624
-0.000850874
-0.000775812
-0.000696195
-0.00061293
-0.00052705
-0.000439717
-0.000352201
-0.000265871
-0.00018217
-0.000102594
-2.86677e-05
3.8084e-05
9.61664e-05
0.000144145
0.000180678
0.000204545
0.000214679
0.000210191
0.000190397
0.000154835
0.000103282
3.57618e-05
-4.74498e-05
-0.000145829
-0.000258611
-0.00038481
-0.000523233
-0.000672514
-0.000831141
-0.00099749
-0.00116986
-0.00134652
-0.00152574
-0.00170582
-0.00188512
-0.00206213
-0.00223544
-0.00240379
-0.00256608
-0.00272139
-0.00286896
-0.00300821
-0.00313872
-0.00326024
-0.00337265
-0.00347597
-0.00357032
-0.00365593
-0.00373309
-0.00380215
-0.00386349
-0.00391752
-0.00396463
-0.00400522
-0.00403965
-0.00406822
-0.0040912
-0.00410876
-0.004121
-0.00412794
-0.00412946
-0.00412531
-0.00411534
-0.00409944
-0.00407419
-0.00403341
0.00010189
9.23433e-05
8.27947e-05
7.2443e-05
6.09822e-05
4.858e-05
3.53379e-05
2.12938e-05
6.46326e-06
-9.15685e-06
-2.55873e-05
-4.28615e-05
-6.10208e-05
-8.01112e-05
-0.000100179
-0.000121269
-0.00014342
-0.000166664
-0.000191026
-0.000216524
-0.000243165
-0.000270951
-0.000299874
-0.000329923
-0.00036108
-0.000393321
-0.000426621
-0.00046095
-0.000496276
-0.000532562
-0.000569766
-0.000607841
-0.000646731
-0.00068637
-0.000726681
-0.000767567
-0.000808916
-0.000850592
-0.000892433
-0.000934249
-0.000975819
-0.00101689
-0.00105716
-0.00109632
-0.00113399
-0.00116978
-0.00120325
-0.00123396
-0.00126141
-0.00128509
-0.00130451
-0.00131914
-0.00132848
-0.00133205
-0.00132941
-0.00132015
-0.00130393
-0.00128049
-0.00124966
-0.00121137
-0.00116566
-0.00111269
-0.00105278
-0.000986371
-0.000914056
-0.000836565
-0.000754789
-0.000669755
-0.000582619
-0.000494661
-0.000407264
-0.000321896
-0.000240089
-0.000163407
-9.34275e-05
-3.17016e-05
2.02712e-05
6.10781e-05
8.94252e-05
0.000104168
0.00010434
8.91797e-05
5.81512e-05
1.09616e-05
-5.24272e-05
-0.000131794
-0.000226658
-0.000336288
-0.000459715
-0.000595757
-0.000743041
-0.000900035
-0.00106509
-0.00123645
-0.00141236
-0.00159102
-0.00177066
-0.00194961
-0.00212628
-0.00229921
-0.00246709
-0.00262877
-0.0027833
-0.0029299
-0.00306796
-0.00319707
-0.00331697
-0.00342757
-0.0035289
-0.00362112
-0.00370449
-0.00377935
-0.00384607
-0.00390511
-0.00395689
-0.00400188
-0.00404048
-0.0040731
-0.00410006
-0.00412163
-0.004138
-0.00414926
-0.00415539
-0.00415623
-0.00415148
-0.00414092
-0.00412437
-0.0040983
-0.00405632
0.000126545
0.00011381
0.00010208
9.0126e-05
7.73969e-05
6.40477e-05
5.01519e-05
3.57034e-05
2.06771e-05
5.03192e-06
-1.1288e-05
-2.83483e-05
-4.62197e-05
-6.49741e-05
-8.46809e-05
-0.000105404
-0.0001272
-0.000150118
-0.000174195
-0.000199462
-0.00022594
-0.000253642
-0.000282574
-0.000312737
-0.000344129
-0.000376742
-0.00041057
-0.000445602
-0.000481826
-0.000519229
-0.000557792
-0.000597493
-0.000638301
-0.000680176
-0.000723063
-0.00076689
-0.000811563
-0.000856965
-0.000902949
-0.000949333
-0.000995901
-0.0010424
-0.00108852
-0.00113394
-0.00117827
-0.00122107
-0.0012619
-0.00130025
-0.00133558
-0.00136735
-0.00139498
-0.00141791
-0.00143556
-0.00144738
-0.00145286
-0.00145153
-0.00144297
-0.00142686
-0.00140295
-0.00137111
-0.00133131
-0.00128367
-0.00122844
-0.00116601
-0.00109695
-0.00102194
-0.00094186
-0.000857708
-0.000770638
-0.00068193
-0.000592982
-0.000505284
-0.000420401
-0.000339945
-0.000265546
-0.000198823
-0.00014135
-9.46235e-05
-6.00265e-05
-3.87991e-05
-3.20056e-05
-4.05071e-05
-6.49373e-05
-0.000105683
-0.00016287
-0.000236356
-0.000325728
-0.00043031
-0.000549175
-0.000681165
-0.000824917
-0.000978894
-0.00114142
-0.00131073
-0.00148499
-0.00166235
-0.00184099
-0.00201917
-0.00219521
-0.0023676
-0.00253496
-0.00269609
-0.00284996
-0.00299577
-0.00313289
-0.00326086
-0.00337943
-0.0034885
-0.00358813
-0.00367849
-0.00375987
-0.00383263
-0.00389722
-0.00395409
-0.00400375
-0.00404668
-0.00408334
-0.00411416
-0.00413949
-0.00415964
-0.00417479
-0.00418503
-0.00419033
-0.00419052
-0.00418525
-0.00417428
-0.00415739
-0.00413098
-0.00408864
0.000152265
0.00013612
0.000122062
0.000108387
9.42879e-05
7.99051e-05
6.52813e-05
5.03622e-05
3.50773e-05
1.93447e-05
3.07056e-06
-1.38456e-05
-3.15061e-05
-5.00105e-05
-6.94529e-05
-8.99195e-05
-0.000111487
-0.00013422
-0.000158174
-0.000183395
-0.000209918
-0.000237773
-0.000266981
-0.000297562
-0.00032953
-0.000362901
-0.000397688
-0.000433906
-0.000471568
-0.000510688
-0.000551275
-0.000593336
-0.000636869
-0.000681861
-0.000728284
-0.000776092
-0.000825212
-0.000875545
-0.000926958
-0.000979277
-0.00103229
-0.00108573
-0.0011393
-0.00119264
-0.00124533
-0.00129693
-0.00134691
-0.00139475
-0.00143985
-0.00148159
-0.00151934
-0.00155246
-0.00158031
-0.00160224
-0.00161768
-0.00162605
-0.00162688
-0.00161974
-0.00160432
-0.00158039
-0.00154787
-0.00150678
-0.00145732
-0.00139982
-0.0013348
-0.00126289
-0.00118493
-0.00110188
-0.0010149
-0.000925246
-0.000834329
-0.000743659
-0.000654832
-0.000569507
-0.000489374
-0.000416123
-0.000351415
-0.000296842
-0.000253895
-0.000223929
-0.000208129
-0.000207482
-0.000222747
-0.000254433
-0.000302786
-0.000367772
-0.000449078
-0.000546112
-0.000658016
-0.000783684
-0.000921783
-0.00107079
-0.00122902
-0.00139469
-0.00156591
-0.0017408
-0.00191746
-0.00209407
-0.00226889
-0.0024403
-0.00260685
-0.00276726
-0.00292046
-0.00306555
-0.00320186
-0.00332891
-0.0034464
-0.00355424
-0.00365246
-0.00374125
-0.00382093
-0.00389188
-0.00395458
-0.00400952
-0.00405725
-0.00409828
-0.00413313
-0.00416225
-0.00418605
-0.00420482
-0.00421879
-0.00422807
-0.00423261
-0.00423224
-0.0042266
-0.00421543
-0.00419848
-0.0041722
-0.00413024
0.000178545
0.000158797
0.000142274
0.000126778
0.000111226
9.57406e-05
8.03298e-05
6.48864e-05
4.92904e-05
3.34152e-05
1.71257e-05
2.83878e-07
-1.72459e-05
-3.55934e-05
-5.48796e-05
-7.52144e-05
-9.66957e-05
-0.000119409
-0.000143428
-0.000168817
-0.00019563
-0.000223915
-0.000253714
-0.000285067
-0.000318013
-0.000352592
-0.000388846
-0.000426817
-0.00046655
-0.000508089
-0.00055148
-0.000596761
-0.000643963
-0.000693105
-0.000744189
-0.000797196
-0.000852077
-0.000908752
-0.0009671
-0.00102696
-0.00108811
-0.00115028
-0.00121316
-0.00127637
-0.00133945
-0.00140192
-0.00146321
-0.00152273
-0.00157982
-0.00163381
-0.00168396
-0.00172957
-0.00176989
-0.00180421
-0.00183183
-0.00185211
-0.00186446
-0.00186835
-0.00186339
-0.00184924
-0.00182573
-0.00179281
-0.00175057
-0.00169929
-0.00163945
-0.0015715
-0.00149631
-0.00141481
-0.0013281
-0.00123744
-0.00114422
-0.00104997
-0.000956316
-0.000864959
-0.000777652
-0.000696164
-0.000622251
-0.000557614
-0.00050387
-0.000462511
-0.000434869
-0.000422082
-0.00042507
-0.000444499
-0.000480768
-0.000533991
-0.000603992
-0.0006903
-0.000792162
-0.000908554
-0.00103821
-0.00117964
-0.00133118
-0.00149102
-0.00165727
-0.00182798
-0.0020012
-0.00217501
-0.00234759
-0.00251724
-0.00268241
-0.00284171
-0.00299398
-0.00313826
-0.00327379
-0.00340003
-0.00351665
-0.0036235
-0.00372061
-0.00380816
-0.00388648
-0.00395595
-0.00401707
-0.00407039
-0.00411646
-0.00415585
-0.00418911
-0.00421673
-0.00423914
-0.0042567
-0.00426963
-0.00427806
-0.00428197
-0.00428119
-0.00427536
-0.00426422
-0.00424751
-0.00422177
-0.00418085
0.000204858
0.000181325
0.000162217
0.000144813
0.000127741
0.0001111
9.48564e-05
7.88457e-05
6.28941e-05
4.68259e-05
3.04615e-05
1.36229e-05
-3.86166e-06
-2.21544e-05
-4.1405e-05
-6.17491e-05
-8.33084e-05
-0.000106191
-0.000130493
-0.000156299
-0.000183686
-0.000212723
-0.000243478
-0.000276018
-0.00031041
-0.000346724
-0.000385035
-0.000425421
-0.000467964
-0.000512745
-0.000559849
-0.000609352
-0.000661325
-0.000715821
-0.000772878
-0.000832504
-0.000894678
-0.000959339
-0.00102638
-0.00109564
-0.0011669
-0.0012399
-0.00131427
-0.00138962
-0.00146546
-0.00154125
-0.00161638
-0.00169017
-0.0017619
-0.0018308
-0.00189608
-0.0019569
-0.00201243
-0.00206186
-0.00210437
-0.0021392
-0.00216565
-0.0021831
-0.00219101
-0.00218896
-0.00217664
-0.0021539
-0.00212073
-0.00207735
-0.00202424
-0.0019613
-0.00188981
-0.00181053
-0.00172448
-0.00163289
-0.00153715
-0.00143877
-0.00133942
-0.00124082
-0.0011448
-0.0010532
-0.000967889
-0.000890691
-0.000823363
-0.000767555
-0.000724774
-0.000696344
-0.000683375
-0.000686732
-0.00070701
-0.000744514
-0.000799247
-0.000870908
-0.000958889
-0.00106229
-0.00117995
-0.00131045
-0.00145217
-0.00160333
-0.001762
-0.00192621
-0.00209395
-0.00226322
-0.0024321
-0.00259879
-0.00276162
-0.0029191
-0.00306996
-0.00321311
-0.00334771
-0.00347314
-0.00358899
-0.00369506
-0.00379133
-0.00387795
-0.00395527
-0.00402364
-0.00408356
-0.00413562
-0.00418039
-0.00421847
-0.00425045
-0.00427685
-0.00429815
-0.00431471
-0.00432681
-0.00433459
-0.00433807
-0.00433708
-0.00433128
-0.00432041
-0.00430423
-0.00427942
-0.00424006
0.000230644
0.000203156
0.000181353
0.000161971
0.000143324
0.000125485
0.000108374
9.17613e-05
7.54152e-05
5.91064e-05
4.26074e-05
2.56969e-05
8.16444e-06
-1.01867e-05
-2.95369e-05
-5.00502e-05
-7.1875e-05
-9.51446e-05
-0.00011998
-0.00014649
-0.000174777
-0.000204941
-0.000237077
-0.000271284
-0.000307665
-0.000346326
-0.000387382
-0.000430953
-0.000477163
-0.000526141
-0.000578014
-0.000632905
-0.000690926
-0.000752175
-0.000816725
-0.000884619
-0.000955863
-0.00103042
-0.00110819
-0.00118902
-0.00127269
-0.00135892
-0.00144733
-0.00153747
-0.00162883
-0.0017208
-0.0018127
-0.00190379
-0.00199325
-0.00208022
-0.00216379
-0.00224304
-0.00231701
-0.00238475
-0.00244534
-0.00249787
-0.00254152
-0.00257552
-0.0025992
-0.002612
-0.00261349
-0.00260338
-0.00258155
-0.00254799
-0.00250276
-0.00244693
-0.0023805
-0.00230439
-0.00221963
-0.00212739
-0.00202904
-0.00192609
-0.00182019
-0.00171314
-0.00160679
-0.0015031
-0.00140402
-0.00131152
-0.00122751
-0.00115383
-0.00109217
-0.00104409
-0.00101092
-0.000993771
-0.000993475
-0.00101058
-0.00104532
-0.00109761
-0.00116705
-0.00125292
-0.0013542
-0.00146958
-0.00159755
-0.00173635
-0.00188409
-0.00203877
-0.00219832
-0.00236068
-0.00252384
-0.00268587
-0.00284497
-0.00299954
-0.00314815
-0.00328959
-0.0034229
-0.00354734
-0.0036624
-0.0037678
-0.00386347
-0.00394951
-0.00402613
-0.00409377
-0.00415292
-0.00420414
-0.00424804
-0.00428522
-0.00431631
-0.00434185
-0.00436237
-0.00437825
-0.00438981
-0.00439722
-0.00440052
-0.00439956
-0.00439404
-0.0043837
-0.00436832
-0.00434475
-0.00430741
0.000255308
0.000223702
0.000199109
0.000177686
0.000157421
0.000138352
0.000120347
0.000103104
8.63282e-05
6.97318e-05
5.30356e-05
3.59718e-05
1.82887e-05
-2.47066e-07
-1.98495e-05
-4.07139e-05
-6.30177e-05
-8.69226e-05
-0.000112577
-0.000140121
-0.000169688
-0.000201408
-0.000235415
-0.000271845
-0.000310842
-0.000352557
-0.000397153
-0.000444798
-0.000495669
-0.000549946
-0.000607809
-0.000669434
-0.000734982
-0.000804597
-0.000878397
-0.00095646
-0.00103882
-0.00112547
-0.00121632
-0.00131123
-0.00140996
-0.0015122
-0.00161757
-0.00172558
-0.00183563
-0.00194708
-0.00205916
-0.00217103
-0.0022818
-0.00239047
-0.00249604
-0.00259743
-0.00269357
-0.00278336
-0.00286572
-0.00293961
-0.00300404
-0.00305808
-0.0031009
-0.00313179
-0.00315015
-0.00315554
-0.0031477
-0.00312648
-0.00309192
-0.00304449
-0.00298455
-0.00291282
-0.00283019
-0.0027378
-0.00263693
-0.00252909
-0.00241592
-0.00229924
-0.00218097
-0.00206313
-0.00194779
-0.00183707
-0.00173304
-0.00163774
-0.00155309
-0.0014809
-0.00142277
-0.00138008
-0.00135397
-0.00134527
-0.00135451
-0.0013819
-0.00142728
-0.00149017
-0.00156977
-0.00166494
-0.0017743
-0.0018962
-0.00202878
-0.00217006
-0.00231795
-0.00247032
-0.00262506
-0.00278013
-0.00293359
-0.00308367
-0.00322879
-0.0033676
-0.00349896
-0.003622
-0.00373608
-0.00384079
-0.00393596
-0.00402161
-0.00409792
-0.00416525
-0.00422406
-0.00427491
-0.00431841
-0.00435517
-0.00438582
-0.00441096
-0.00443111
-0.00444671
-0.00445809
-0.00446546
-0.00446887
-0.00446824
-0.00446326
-0.00445372
-0.00443939
-0.00441735
-0.00438236
0.000278215
0.000242337
0.000214866
0.00019135
0.000169434
0.000149112
0.000130191
0.000112295
9.50541e-05
7.81209e-05
6.11597e-05
4.38527e-05
2.59043e-05
7.04148e-06
-1.29864e-05
-3.44083e-05
-5.74342e-05
-8.22578e-05
-0.000109061
-0.000138016
-0.000169295
-0.000203066
-0.000239506
-0.000278797
-0.000321132
-0.000366715
-0.000415764
-0.000468508
-0.000525181
-0.000586026
-0.000651284
-0.000721189
-0.000795961
-0.000875796
-0.00096086
-0.00105127
-0.00114711
-0.00124837
-0.00135499
-0.00146683
-0.00158364
-0.0017051
-0.00183078
-0.00196014
-0.00209254
-0.00222723
-0.00236337
-0.00250002
-0.00263617
-0.0027707
-0.00290246
-0.00303023
-0.00315278
-0.00326886
-0.00337721
-0.0034766
-0.00356588
-0.00364392
-0.00370972
-0.00376236
-0.00380108
-0.00382525
-0.00383442
-0.00382831
-0.00380682
-0.00377015
-0.00371859
-0.00365273
-0.00357338
-0.00348156
-0.00337849
-0.00326564
-0.00314462
-0.00301727
-0.00288554
-0.00275154
-0.00261744
-0.00248549
-0.00235796
-0.00223709
-0.00212505
-0.00202393
-0.00193562
-0.00186185
-0.00180408
-0.0017635
-0.001741
-0.00173712
-0.00175204
-0.00178561
-0.00183728
-0.00190617
-0.00199109
-0.00209054
-0.00220279
-0.00232588
-0.00245774
-0.00259619
-0.00273904
-0.00288412
-0.00302936
-0.00317282
-0.00331273
-0.00344755
-0.00357596
-0.00369689
-0.00380954
-0.00391335
-0.00400801
-0.00409342
-0.00416969
-0.00423707
-0.004296
-0.00434697
-0.00439057
-0.00442744
-0.00445818
-0.00448342
-0.00450369
-0.00451946
-0.00453108
-0.0045388
-0.0045427
-0.00454271
-0.00453858
-0.0045301
-0.00451707
-0.00449678
-0.00446441
0.000298688
0.000258393
0.000227963
0.000202314
0.000178719
0.000157126
0.000137274
0.0001187
0.00010096
8.36359e-05
6.63339e-05
4.86829e-05
3.03396e-05
1.0988e-05
-9.6616e-06
-3.18755e-05
-5.58997e-05
-8.19646e-05
-0.000110289
-0.000141088
-0.000174572
-0.00021096
-0.000250476
-0.000293358
-0.000339857
-0.00039024
-0.00044479
-0.000503803
-0.000567586
-0.00063645
-0.000710708
-0.00079066
-0.000876593
-0.000968763
-0.00106739
-0.00117264
-0.00128461
-0.00140336
-0.00152881
-0.00166083
-0.00179916
-0.00194345
-0.00209323
-0.0022479
-0.00240675
-0.00256893
-0.00273352
-0.00289944
-0.00306554
-0.00323058
-0.00339323
-0.00355212
-0.00370582
-0.0038529
-0.0039919
-0.0041214
-0.00424002
-0.00434645
-0.00443945
-0.00451792
-0.00458086
-0.00462746
-0.00465704
-0.00466914
-0.00466352
-0.0046402
-0.00459913
-0.00454095
-0.00446629
-0.00437605
-0.00427136
-0.00415361
-0.0040244
-0.00388553
-0.003739
-0.00358696
-0.00343169
-0.00327557
-0.00312105
-0.00297059
-0.00282663
-0.00269154
-0.00256755
-0.00245675
-0.002361
-0.00228189
-0.00222072
-0.00217847
-0.00215571
-0.00215269
-0.00216921
-0.00220475
-0.00225836
-0.00232878
-0.00241445
-0.00251353
-0.00262398
-0.00274363
-0.00287022
-0.00300148
-0.00313517
-0.00326918
-0.00340155
-0.00353049
-0.00365447
-0.00377222
-0.0038827
-0.00398516
-0.00407911
-0.00416429
-0.00424068
-0.00430843
-0.00436787
-0.00441945
-0.00446371
-0.00450123
-0.00453264
-0.00455854
-0.00457947
-0.00459593
-0.00460828
-0.0046168
-0.00462158
-0.00462259
-0.00461962
-0.00461247
-0.00460097
-0.00458263
-0.00455304
0.000316004
0.000271157
0.000237697
0.000209878
0.000184587
0.00016171
0.000140912
0.000121637
0.000103356
8.55814e-05
6.78528e-05
4.97427e-05
3.08568e-05
1.08331e-05
-1.06612e-05
-3.3933e-05
-5.92692e-05
-8.69416e-05
-0.000117213
-0.000150344
-0.000186596
-0.000226243
-0.000269568
-0.000316872
-0.000368476
-0.00042472
-0.000485963
-0.000552581
-0.000624959
-0.000703493
-0.000788573
-0.000880579
-0.00097987
-0.00108677
-0.00120156
-0.00132445
-0.00145559
-0.00159505
-0.00174277
-0.00189863
-0.00206234
-0.00223352
-0.00241164
-0.00259604
-0.00278591
-0.00298033
-0.00317821
-0.00337836
-0.00357948
-0.00378014
-0.00397884
-0.00417402
-0.00436403
-0.00454723
-0.00472194