/*--------------------------------*- C++ -*----------------------------------*\
| =========                 |                                                 |
| \\      /  F ield         | OpenFOAM: The Open Source CFD Toolbox           |
|  \\    /   O peration     | Version:  2112                                  |
|   \\  /    A nd           | Website:  www.openfoam.com                      |
|    \\/     M anipulation  |                                                 |
\*---------------------------------------------------------------------------*/
FoamFile
{
    version     2.0;
    format      ascii;
    arch        "LSB;label=32;scalar=64";
    class       surfaceScalarField;
    location    "15";
    object      phi;
}
// * * * * * * * * * * * * * * * * * * * * * * * * * * * * * * * * * * * * * //

dimensions      [0 3 -1 0 0 0 0];

oriented        oriented;

internalField   nonuniform List<scalar> 
33024
(
3.74837e-09
-3.74843e-09
1.60668e-08
-1.2318e-08
3.24038e-08
-1.63372e-08
4.883e-08
-1.64258e-08
6.29159e-08
-1.4086e-08
7.33157e-08
-1.03994e-08
7.93967e-08
-6.08141e-09
8.09915e-08
-1.59421e-09
7.82055e-08
2.78545e-09
7.13011e-08
6.90441e-09
6.06072e-08
1.06941e-08
4.64651e-08
1.41419e-08
2.91897e-08
1.72756e-08
9.04557e-09
2.01439e-08
-1.37658e-08
2.28111e-08
-3.91125e-08
2.53468e-08
-6.69334e-08
2.78207e-08
-9.72332e-08
3.02997e-08
-1.30078e-07
3.28446e-08
-1.65585e-07
3.55077e-08
-2.03919e-07
3.83332e-08
-2.45274e-07
4.1356e-08
-2.89876e-07
4.46014e-08
-3.37963e-07
4.80874e-08
-3.89787e-07
5.18238e-08
-4.456e-07
5.58132e-08
-5.05653e-07
6.00522e-08
-5.70185e-07
6.45327e-08
-6.39427e-07
6.92414e-08
-7.13588e-07
7.41611e-08
-7.92859e-07
7.92717e-08
-8.77409e-07
8.45497e-08
-9.67378e-07
8.99682e-08
-1.06288e-06
9.54972e-08
-1.16398e-06
1.01104e-07
-1.27073e-06
1.06751e-07
-1.38313e-06
1.12397e-07
-1.50112e-06
1.17997e-07
-1.62463e-06
1.23502e-07
-1.75348e-06
1.28857e-07
-1.88748e-06
1.34e-07
-2.02635e-06
1.38867e-07
-2.16974e-06
1.43388e-07
-2.31723e-06
1.47487e-07
-2.46831e-06
1.51083e-07
-2.6224e-06
1.54092e-07
-2.77883e-06
1.56427e-07
-2.93683e-06
1.57999e-07
-3.09554e-06
1.58717e-07
-3.25403e-06
1.58489e-07
-3.41126e-06
1.57226e-07
-3.5661e-06
1.54843e-07
-3.71736e-06
1.51259e-07
-3.86376e-06
1.464e-07
-4.00396e-06
1.40199e-07
-4.13656e-06
1.32603e-07
-4.26013e-06
1.23568e-07
-4.3732e-06
1.13069e-07
-4.47429e-06
1.01093e-07
-4.56194e-06
8.76481e-08
-4.6347e-06
7.27615e-08
-4.69118e-06
5.64812e-08
-4.73006e-06
3.8877e-08
-4.7501e-06
2.00365e-08
-4.75026e-06
1.65047e-10
-4.72944e-06
-2.08177e-08
-4.68692e-06
-4.25228e-08
-4.62206e-06
-6.48582e-08
-4.53445e-06
-8.76093e-08
-4.4239e-06
-1.1055e-07
-4.29046e-06
-1.33439e-07
-4.13444e-06
-1.56023e-07
-3.9564e-06
-1.78038e-07
-3.75718e-06
-1.99218e-07
-3.53789e-06
-2.19293e-07
-3.29989e-06
-2.38e-07
-3.04481e-06
-2.55084e-07
-2.7745e-06
-2.70304e-07
-2.49106e-06
-2.83439e-07
-2.19677e-06
-2.94293e-07
-1.89407e-06
-3.02701e-07
-1.58554e-06
-3.08528e-07
-1.27386e-06
-3.11678e-07
-9.61769e-07
-3.12095e-07
-6.52003e-07
-3.09766e-07
-3.47283e-07
-3.0472e-07
-5.0253e-08
-2.9703e-07
2.36561e-07
-2.86814e-07
5.10781e-07
-2.7422e-07
7.70226e-07
-2.59445e-07
1.01294e-06
-2.42713e-07
1.23722e-06
-2.24277e-07
1.44163e-06
-2.0441e-07
1.62503e-06
-1.83403e-07
1.78658e-06
-1.61555e-07
1.92575e-06
-1.39168e-07
2.04229e-06
-1.16541e-07
2.13625e-06
-9.39594e-08
2.20795e-06
-7.16956e-08
2.25795e-06
-4.99995e-08
2.28704e-06
-2.90958e-08
2.29622e-06
-9.17964e-09
2.28664e-06
9.58501e-09
2.25957e-06
2.70667e-08
2.2164e-06
4.31678e-08
2.15858e-06
5.7823e-08
2.08758e-06
7.09985e-08
2.00489e-06
8.26893e-08
1.91198e-06
9.29164e-08
1.81025e-06
1.01722e-07
1.70109e-06
1.09165e-07
1.58577e-06
1.15316e-07
1.46552e-06
1.20249e-07
1.34149e-06
1.24034e-07
1.21476e-06
1.26731e-07
1.08639e-06
1.28375e-07
9.57416e-07
1.2897e-07
8.28944e-07
1.28472e-07
7.02166e-07
1.26778e-07
5.78455e-07
1.23711e-07
4.59456e-07
1.18999e-07
3.47187e-07
1.12269e-07
2.44154e-07
1.03033e-07
1.53455e-07
9.06992e-08
7.88069e-08
7.46479e-08
2.43459e-08
5.44609e-08
-6.16575e-09
3.05116e-08
-1.17549e-08
5.58856e-09
-1.17554e-08
1.23726e-08
-1.61205e-08
3.86426e-08
-3.8589e-08
7.02428e-08
-4.79374e-08
1.00511e-07
-4.66941e-08
1.24703e-07
-3.82778e-08
1.39805e-07
-2.55028e-08
1.44166e-07
-1.04412e-08
1.37131e-07
5.44072e-09
1.18695e-07
2.12217e-08
8.92685e-08
3.6331e-08
4.94753e-08
5.04867e-08
2.00173e-11
6.35976e-08
-5.84216e-08
7.57174e-08
-1.25267e-07
8.69897e-08
-2.00069e-07
9.76127e-08
-2.82535e-07
1.07813e-07
-3.7254e-07
1.17826e-07
-4.70119e-07
1.27879e-07
-5.75457e-07
1.38183e-07
-6.88871e-07
1.48921e-07
-8.10788e-07
1.60251e-07
-9.41729e-07
1.72297e-07
-1.08228e-06
1.85151e-07
-1.23307e-06
1.98877e-07
-1.39475e-06
2.1351e-07
-1.568e-06
2.29058e-07
-1.75345e-06
2.45507e-07
-1.95174e-06
2.62823e-07
-2.16345e-06
2.80953e-07
-2.38912e-06
2.99827e-07
-2.62921e-06
3.19363e-07
-2.88412e-06
3.39462e-07
-3.15417e-06
3.60016e-07
-3.43957e-06
3.80899e-07
-3.74045e-06
4.01976e-07
-4.05679e-06
4.23094e-07
-4.38848e-06
4.44087e-07
-4.73525e-06
4.6477e-07
-5.09669e-06
4.84944e-07
-5.47223e-06
5.04391e-07
-5.8611e-06
5.22875e-07
-6.26238e-06
5.40141e-07
-6.67491e-06
5.55921e-07
-7.09735e-06
5.69926e-07
-7.52812e-06
5.81858e-07
-7.96544e-06
5.91404e-07
-8.40725e-06
5.98245e-07
-8.85131e-06
6.02059e-07
-9.29512e-06
6.02521e-07
-9.73594e-06
5.99314e-07
-1.01708e-05
5.92131e-07
-1.05967e-05
5.80683e-07
-1.10101e-05
5.64703e-07
-1.14077e-05
5.43952e-07
-1.17857e-05
5.18231e-07
-1.21405e-05
4.8738e-07
-1.24682e-05
4.51292e-07
-1.27651e-05
4.09912e-07
-1.30272e-05
3.63248e-07
-1.32509e-05
3.11375e-07
-1.34326e-05
2.54438e-07
-1.35688e-05
1.92657e-07
-1.36562e-05
1.26329e-07
-1.3692e-05
5.58316e-08
-1.36735e-05
-1.83354e-08
-1.35986e-05
-9.57727e-08
-1.34654e-05
-1.75746e-07
-1.32726e-05
-2.57617e-07
-1.30196e-05
-3.40647e-07
-1.27061e-05
-4.24038e-07
-1.23326e-05
-5.06944e-07
-1.19001e-05
-5.88483e-07
-1.14104e-05
-6.6775e-07
-1.08658e-05
-7.43827e-07
-1.02693e-05
-8.15802e-07
-9.6245e-06
-8.8278e-07
-8.93568e-06
-9.43904e-07
-8.20761e-06
-9.98366e-07
-7.44562e-06
-1.04543e-06
-6.65548e-06
-1.08444e-06
-5.84335e-06
-1.11483e-06
-5.01572e-06
-1.13616e-06
-4.17928e-06
-1.14812e-06
-3.34087e-06
-1.1505e-06
-2.50739e-06
-1.14325e-06
-1.68564e-06
-1.12647e-06
-8.82293e-07
-1.10038e-06
-1.03755e-07
-1.06535e-06
6.43925e-07
-1.0219e-06
1.35512e-06
-9.7064e-07
2.02473e-06
-9.12324e-07
2.64824e-06
-8.47784e-07
3.22176e-06
-7.77936e-07
3.74212e-06
-7.03756e-07
4.20682e-06
-6.26258e-07
4.61412e-06
-5.46471e-07
4.963e-06
-4.65424e-07
5.25316e-06
-3.84114e-07
5.48496e-06
-3.03499e-07
5.65943e-06
-2.24469e-07
5.77818e-06
-1.4784e-07
5.84333e-06
-7.43326e-08
5.85748e-06
-4.56855e-09
5.82361e-06
6.09371e-08
5.745e-06
1.21783e-07
5.62514e-06
1.77676e-07
5.46771e-06
2.28431e-07
5.27644e-06
2.73962e-07
5.05508e-06
3.14274e-07
4.80735e-06
3.49449e-07
4.53689e-06
3.79628e-07
4.24721e-06
4.04993e-07
3.94172e-06
4.25744e-07
3.62368e-06
4.42072e-07
3.29628e-06
4.54127e-07
2.96267e-06
4.61989e-07
2.62601e-06
4.6563e-07
2.28961e-06
4.64872e-07
1.95704e-06
4.5935e-07
1.63227e-06
4.48475e-07
1.31988e-06
4.31398e-07
1.02514e-06
4.07005e-07
7.54229e-07
3.73943e-07
5.14191e-07
3.30737e-07
3.12729e-07
2.7611e-07
1.57474e-07
2.09716e-07
5.44875e-08
1.33498e-07
5.66327e-09
5.44133e-08
-6.09221e-09
1.66413e-08
-3.27621e-08
4.83598e-08
-7.03072e-08
8.38335e-08
-8.34113e-08
1.14949e-07
-7.78086e-08
1.3589e-07
-5.92196e-08
1.42836e-07
-3.24482e-08
1.33552e-07
-1.15788e-09
1.07091e-07
3.19015e-08
6.33056e-08
6.50077e-08
2.6386e-09
9.69976e-08
-7.41485e-08
1.27274e-07
-1.66183e-07
1.55632e-07
-2.72599e-07
1.82133e-07
-3.92645e-07
2.07036e-07
-5.25752e-07
2.30719e-07
-6.71564e-07
2.53625e-07
-8.29955e-07
2.76217e-07
-1.00103e-06
2.98953e-07
-1.1851e-06
3.22257e-07
-1.38269e-06
3.46504e-07
-1.59445e-06
3.72013e-07
-1.82119e-06
3.99037e-07
-2.06381e-06
4.27769e-07
-2.32327e-06
4.58336e-07
-2.60056e-06
4.90807e-07
-2.8967e-06
5.25195e-07
-3.21265e-06
5.61462e-07
-3.54936e-06
5.99528e-07
-3.90768e-06
6.39269e-07
-4.28838e-06
6.80527e-07
-4.69212e-06
7.23109e-07
-5.11945e-06
7.66791e-07
-5.57075e-06
8.1132e-07
-6.04627e-06
8.56409e-07
-6.54603e-06
9.01745e-07
-7.06992e-06
9.46979e-07
-7.61756e-06
9.9173e-07
-8.18838e-06
1.03558e-06
-8.78152e-06
1.07809e-06
-9.39588e-06
1.11875e-06
-1.00301e-05
1.15706e-06
-1.06824e-05
1.19245e-06
-1.13508e-05
1.22434e-06
-1.2033e-05
1.2521e-06
-1.27262e-05
1.27509e-06
-1.34274e-05
1.29265e-06
-1.41333e-05
1.30413e-06
-1.48401e-05
1.30883e-06
-1.55437e-05
1.30612e-06
-1.62397e-05
1.29533e-06
-1.69235e-05
1.27587e-06
-1.75899e-05
1.24717e-06
-1.8234e-05
1.20871e-06
-1.88501e-05
1.16007e-06
-1.94327e-05
1.10088e-06
-1.99762e-05
1.03089e-06
-2.04749e-05
9.49935e-07
-2.0923e-05
8.5799e-07
-2.13149e-05
7.55148e-07
-2.16451e-05
6.41645e-07
-2.19085e-05
5.1786e-07
-2.21002e-05
3.84324e-07
-2.22156e-05
2.41722e-07
-2.22507e-05
9.09034e-08
-2.22019e-05
-6.71481e-08
-2.20663e-05
-2.31341e-07
-2.18417e-05
-4.00329e-07
-2.15266e-05
-5.72719e-07
-2.11203e-05
-7.46986e-07
-2.06228e-05
-9.215e-07
-2.00352e-05
-1.09455e-06
-1.93593e-05
-1.26436e-06
-1.8598e-05
-1.42911e-06
-1.77548e-05
-1.58699e-06
-1.68344e-05
-1.73619e-06
-1.58423e-05
-1.87494e-06
-1.47846e-05
-2.00155e-06
-1.36685e-05
-2.11445e-06
-1.25018e-05
-2.21219e-06
-1.12927e-05
-2.29348e-06
-1.00503e-05
-2.35723e-06
-8.78391e-06
-2.40257e-06
-7.50319e-06
-2.42884e-06
-6.21802e-06
-2.43567e-06
-4.93835e-06
-2.42292e-06
-3.67407e-06
-2.39075e-06
-2.43485e-06
-2.33959e-06
-1.23006e-06
-2.27014e-06
-6.86174e-08
-2.18335e-06
1.04116e-06
-2.08042e-06
2.09162e-06
-1.96278e-06
3.07588e-06
-1.83205e-06
3.98796e-06
-1.69001e-06
4.82278e-06
-1.53858e-06
5.57628e-06
-1.37975e-06
6.24539e-06
-1.21558e-06
6.82808e-06
-1.04811e-06
7.32334e-06
-8.79376e-07
7.73116e-06
-7.11314e-07
8.05246e-06
-5.45766e-07
8.28905e-06
-3.84433e-07
8.44356e-06
-2.28842e-07
8.51932e-06
-8.03359e-08
8.52031e-06
5.99503e-08
8.451e-06
1.91098e-07
8.31627e-06
3.12402e-07
8.12133e-06
4.23373e-07
7.87157e-06
5.23721e-07
7.5725e-06
6.13339e-07
7.22967e-06
6.9228e-07
6.84858e-06
7.60721e-07
6.43464e-06
8.1893e-07
5.99317e-06
8.67213e-07
5.52938e-06
9.05869e-07
5.04838e-06
9.35129e-07
4.55527e-06
9.5509e-07
4.05526e-06
9.65649e-07
3.5537e-06
9.66429e-07
3.05633e-06
9.56715e-07
2.56941e-06
9.35395e-07
2.09989e-06
9.00924e-07
1.65555e-06
8.51341e-07
1.24512e-06
7.84373e-07
8.78148e-07
6.9771e-07
5.64655e-07
5.89604e-07
3.14327e-07
4.60043e-07
1.35118e-07
3.12706e-07
3.11224e-08
1.5841e-07
2.50303e-08
1.68265e-08
-4.95883e-08
4.68893e-08
-1.0037e-07
7.72848e-08
-1.13806e-07
9.91048e-08
-9.96293e-08
1.06107e-07
-6.62212e-08
9.41908e-08
-2.05319e-08
6.09815e-08
3.20513e-08
5.35969e-09
8.75236e-08
-7.27973e-08
1.43164e-07
-1.73031e-07
1.97231e-07
-2.9452e-07
2.48764e-07
-4.36298e-07
2.97409e-07
-5.97418e-07
3.43253e-07
-7.7707e-07
3.86688e-07
-9.74655e-07
4.28304e-07
-1.18983e-06
4.68804e-07
-1.42255e-06
5.0893e-07
-1.67301e-06
5.49415e-07
-1.9417e-06
5.90945e-07
-2.22932e-06
6.34128e-07
-2.53679e-06
6.7948e-07
-2.86516e-06
7.27414e-07
-3.21563e-06
7.78238e-07
-3.58945e-06
8.32155e-07
-3.98791e-06
8.89267e-07
-4.4123e-06
9.49585e-07
-4.86387e-06
1.01303e-06
-5.34379e-06
1.07945e-06
-5.85314e-06
1.14861e-06
-6.39285e-06
1.22024e-06
-6.9637e-06
1.29396e-06
-7.56629e-06
1.36938e-06
-8.20101e-06
1.44604e-06
-8.86801e-06
1.52341e-06
-9.56719e-06
1.60093e-06
-1.02982e-05
1.67796e-06
-1.10603e-05
1.75383e-06
-1.18525e-05
1.82779e-06
-1.26734e-05
1.89904e-06
-1.35214e-05
1.96671e-06
-1.43942e-05
2.0299e-06
-1.52894e-05
2.08764e-06
-1.6204e-05
2.1389e-06
-1.71345e-05
2.18263e-06
-1.80772e-05
2.21774e-06
-1.90276e-05
2.24313e-06
-1.99812e-05
2.25769e-06
-2.09327e-05
2.26032e-06
-2.18765e-05
2.24994e-06
-2.28067e-05
2.22554e-06
-2.3717e-05
2.18614e-06
-2.46007e-05
2.13089e-06
-2.5451e-05
2.05901e-06
-2.62608e-05
1.96987e-06
-2.70229e-05
1.86298e-06
-2.773e-05
1.73802e-06
-2.8375e-05
1.59485e-06
-2.89505e-05
1.43354e-06
-2.94497e-05
1.25436e-06
-2.98659e-05
1.05783e-06
-3.01927e-05
8.44679e-07
-3.04243e-05
6.15895e-07
-3.05553e-05
3.72704e-07
-3.0581e-05
1.16591e-07
-3.04973e-05
-1.50801e-07
-3.03011e-05
-4.27529e-07
-2.999e-05
-7.11427e-07
-2.95626e-05
-1.00018e-06
-2.90183e-05
-1.29129e-06
-2.83577e-05
-1.58212e-06
-2.75823e-05
-1.86989e-06
-2.66949e-05
-2.15178e-06
-2.56991e-05
-2.42489e-06
-2.45998e-05
-2.68633e-06
-2.34027e-05
-2.93325e-06
-2.21148e-05
-3.16286e-06
-2.07438e-05
-3.3725e-06
-1.92986e-05
-3.5597e-06
-1.77886e-05
-3.72217e-06
-1.62242e-05
-3.8579e-06
-1.46163e-05
-3.96516e-06
-1.29763e-05
-4.04256e-06
-1.1316e-05
-4.08907e-06
-9.64767e-06
-4.10404e-06
-7.98335e-06
-4.08724e-06
-6.33523e-06
-4.03887e-06
-4.71529e-06
-3.95953e-06
-3.13516e-06
-3.85028e-06
-1.60596e-06
-3.71254e-06
-1.38229e-07
-3.54816e-06
1.25831e-06
-3.35931e-06
2.57477e-06
-3.14851e-06
3.80329e-06
-2.91853e-06
4.93707e-06
-2.67236e-06
5.97046e-06
-2.41314e-06
6.89902e-06
-2.14414e-06
7.71953e-06
-1.86863e-06
8.43003e-06
-1.58987e-06
9.02974e-06
-1.31103e-06
9.5191e-06
-1.03512e-06
9.89964e-06
-7.64975e-07
1.0174e-05
-5.03161e-07
1.03456e-05
-2.5197e-07
1.04189e-05
-1.33843e-08
1.03991e-05
2.10949e-07
1.02918e-05
4.19722e-07
1.01032e-05
6.11959e-07
9.83988e-06
7.87012e-07
9.50869e-06
9.44527e-07
9.11656e-06
1.08441e-06
8.6705e-06
1.20678e-06
8.17752e-06
1.31191e-06
7.64457e-06
1.40016e-06
7.07858e-06
1.47187e-06
6.4864e-06
1.52731e-06
5.87494e-06
1.56655e-06
5.2512e-06
1.58939e-06
4.62242e-06
1.5952e-06
3.99624e-06
1.5829e-06
3.38082e-06
1.55081e-06
2.78505e-06
1.4967e-06
2.21861e-06
1.41777e-06
1.69208e-06
1.31091e-06
1.21676e-06
1.17303e-06
8.04422e-07
1.00195e-06
4.66682e-07
7.97783e-07
2.14245e-07
5.65143e-07
5.6107e-08
3.16548e-07
8.11372e-08
1.42187e-08
-6.38071e-08
3.68675e-08
-1.23019e-07
5.47508e-08
-1.3169e-07
5.88304e-08
-1.03708e-07
4.28962e-08
-5.02875e-08
2.95623e-09
1.94082e-08
-6.32475e-08
9.82554e-08
-1.56732e-07
1.81008e-07
-2.77555e-07
2.63987e-07
-4.25168e-07
3.44844e-07
-5.98687e-07
4.22283e-07
-7.97102e-07
4.95824e-07
-1.01945e-06
5.65598e-07
-1.26492e-06
6.32162e-07
-1.53297e-06
6.96355e-07
-1.82334e-06
7.59174e-07
-2.13609e-06
8.2168e-07
-2.4716e-06
8.84921e-07
-2.83053e-06
9.49876e-07
-3.21382e-06
1.01742e-06
-3.62262e-06
1.08828e-06
-4.05825e-06
1.16305e-06
-4.52219e-06
1.24217e-06
-5.01594e-06
1.32591e-06
-5.54107e-06
1.4144e-06
-6.09911e-06
1.50763e-06
-6.69154e-06
1.60546e-06
-7.31972e-06
1.70763e-06
-7.98488e-06
1.81377e-06
-8.68806e-06
1.92341e-06
-9.43008e-06
2.03598e-06
-1.02115e-05
2.15084e-06
-1.10327e-05
2.26724e-06
-1.18937e-05
2.38435e-06
-1.2794e-05
2.50127e-06
-1.37331e-05
2.61701e-06
-1.47097e-05
2.73048e-06
-1.57225e-05
2.84053e-06
-1.67693e-05
2.9459e-06
-1.78479e-05
3.04526e-06
-1.89552e-05
3.1372e-06
-2.00878e-05
3.22024e-06
-2.12417e-05
3.29284e-06
-2.24125e-05
3.35342e-06
-2.35951e-05
3.40036e-06
-2.4784e-05
3.43203e-06
-2.59731e-05
3.44681e-06
-2.71559e-05
3.44312e-06
-2.83254e-05
3.41943e-06
-2.94742e-05
3.37431e-06
-3.05945e-05
3.30643e-06
-3.16782e-05
3.21464e-06
-3.27171e-05
3.09791e-06
-3.37027e-05
2.95546e-06
-3.46264e-05
2.78672e-06
-3.54798e-05
2.59137e-06
-3.62543e-05
2.36938e-06
-3.69418e-05
2.12101e-06
-3.75342e-05
1.84683e-06
-3.80241e-05
1.54773e-06
-3.84044e-05
1.22494e-06
-3.86685e-05
8.80035e-07
-3.88107e-05
5.14909e-07
-3.8826e-05
1.31821e-07
-3.871e-05
-2.66786e-07
-3.84595e-05
-6.77996e-07
-3.80723e-05
-1.09868e-06
-3.7547e-05
-1.52548e-06
-3.68835e-05
-1.9548e-06
-3.60827e-05
-2.38287e-06
-3.51468e-05
-2.80576e-06
-3.40792e-05
-3.21946e-06
-3.28842e-05
-3.61991e-06
-3.15674e-05
-4.00305e-06
-3.01358e-05
-4.36487e-06
-2.85972e-05
-4.70151e-06
-2.69604e-05
-5.00925e-06
-2.52355e-05
-5.28462e-06
-2.34332e-05
-5.52443e-06
-2.15653e-05
-5.72587e-06
-1.96439e-05
-5.8865e-06
-1.76821e-05
-6.00434e-06
-1.56933e-05
-6.0779e-06
-1.36911e-05
-6.10624e-06
-1.16894e-05
-6.08894e-06
-9.70207e-06
-6.02621e-06
-7.74282e-06
-5.91879e-06
-5.82505e-06
-5.76804e-06
-3.96172e-06
-5.57587e-06
-2.16514e-06
-5.34474e-06
-4.46835e-07
-5.07762e-06
1.18256e-06
-4.77791e-06
2.71347e-06
-4.44944e-06
4.13745e-06
-4.09634e-06
5.4473e-06
-3.723e-06
6.63714e-06
-3.33398e-06
7.70244e-06
-2.93393e-06
8.64006e-06
-2.52749e-06
9.44823e-06
-2.1192e-06
1.01266e-05
-1.71345e-06
1.06759e-05
-1.31436e-06
1.10985e-05
-9.2577e-07
1.13977e-05
-5.51114e-07
1.15777e-05
-1.93425e-07
1.1644e-05
1.44715e-07
1.16025e-05
4.61194e-07
1.14601e-05
7.54369e-07
1.1224e-05
1.02305e-06
1.09021e-05
1.26647e-06
1.05023e-05
1.48426e-06
1.00327e-05
1.67632e-06
9.50178e-06
1.84285e-06
8.91781e-06
1.98412e-06
8.2892e-06
2.10048e-06
7.62436e-06
2.19215e-06
6.93178e-06
2.25914e-06
6.22009e-06
2.30108e-06
5.49818e-06
2.31712e-06
4.77532e-06
2.30576e-06
4.06131e-06
2.26482e-06
3.36661e-06
2.1914e-06
2.70245e-06
2.08194e-06
2.08086e-06
1.9325e-06
1.51463e-06
1.73926e-06
1.01717e-06
1.4994e-06
6.02313e-07
1.21264e-06
2.84196e-07
8.83259e-07
7.75863e-08
5.23157e-07
1.58723e-07
9.68954e-09
-7.34962e-08
2.04181e-08
-1.33748e-07
1.96764e-08
-1.30947e-07
-1.08956e-09
-8.29427e-08
-4.76366e-08
-3.74057e-09
-1.23535e-07
9.53071e-08
-2.30736e-07
2.05456e-07
-3.69941e-07
3.20213e-07
-5.41009e-07
4.35055e-07
-7.43253e-07
5.47089e-07
-9.75704e-07
6.54733e-07
-1.23732e-06
7.57438e-07
-1.52714e-06
8.55421e-07
-1.84443e-06
9.49451e-07
-2.18873e-06
1.04066e-06
-2.55992e-06
1.13037e-06
-2.95825e-06
1.22e-06
-3.38427e-06
1.31095e-06
-3.83891e-06
1.40451e-06
-4.32333e-06
1.50184e-06
-4.83895e-06
1.6039e-06
-5.38737e-06
1.71147e-06
-5.97031e-06
1.82511e-06
-6.58956e-06
1.94516e-06
-7.24691e-06
2.07175e-06
-7.94412e-06
2.20484e-06
-8.68285e-06
2.34419e-06
-9.46462e-06
2.4894e-06
-1.02907e-05
2.6399e-06
-1.11623e-05
2.79499e-06
-1.20802e-05
2.95384e-06
-1.30448e-05
3.11547e-06
-1.40564e-05
3.27881e-06
-1.51147e-05
3.44263e-06
-1.6219e-05
3.60562e-06
-1.73683e-05
3.76633e-06
-1.8561e-05
3.92318e-06
-1.9795e-05
4.07451e-06
-2.10676e-05
4.21852e-06
-2.23757e-05
4.35331e-06
-2.37154e-05
4.47689e-06
-2.50823e-05
4.58718e-06
-2.64715e-05
4.68204e-06
-2.78774e-05
4.75928e-06
-2.92937e-05
4.81668e-06
-3.07137e-05
4.85204e-06
-3.21301e-05
4.86319e-06
-3.3535e-05
4.84804e-06
-3.49202e-05
4.80459e-06
-3.62769e-05
4.731e-06
-3.7596e-05
4.62561e-06
-3.88684e-05
4.48698e-06
-4.00844e-05
4.31391e-06
-4.12344e-05
4.10551e-06
-4.23089e-05
3.86121e-06
-4.32983e-05
3.58079e-06
-4.41934e-05
3.26441e-06
-4.4985e-05
2.91261e-06
-4.56645e-05
2.52639e-06
-4.62239e-05
2.10712e-06
-4.66556e-05
1.65664e-06
-4.69528e-05
1.1772e-06
-4.71094e-05
6.71487e-07
-4.71202e-05
1.42638e-07
-4.69809e-05
-4.06014e-07
-4.66885e-05
-9.70489e-07
-4.62405e-05
-1.54661e-06
-4.56361e-05
-2.1299e-06
-4.48753e-05
-2.71558e-06
-4.39595e-05
-3.2987e-06
-4.28911e-05
-3.87412e-06
-4.1674e-05
-4.43658e-06
-4.03131e-05
-4.98081e-06
-3.88146e-05
-5.50151e-06
-3.7186e-05
-5.99351e-06
-3.54358e-05
-6.45176e-06
-3.35736e-05
-6.87145e-06
-3.16101e-05
-7.24807e-06
-2.95571e-05
-7.57748e-06
-2.7427e-05
-7.85596e-06
-2.52331e-05
-8.08032e-06
-2.29896e-05
-8.24793e-06
-2.07107e-05
-8.35676e-06
-1.84115e-05
-8.40548e-06
-1.61069e-05
-8.39346e-06
-1.38124e-05
-8.32078e-06
-1.15429e-05
-8.18829e-06
-9.31331e-06
-7.9976e-06
-7.13815e-06
-7.75102e-06
-5.03129e-06
-7.45161e-06
-3.00585e-06
-7.10306e-06
-1.07408e-06
-6.70968e-06
7.52824e-07
-6.27634e-06
2.46483e-06
-5.80835e-06
4.05316e-06
-5.31132e-06
5.51044e-06
-4.79126e-06
6.83073e-06
-4.25421e-06
8.00954e-06
-3.7063e-06
9.04393e-06
-3.15358e-06
9.93242e-06
-2.60194e-06
1.0675e-05
-2.05697e-06
1.12732e-05
-1.52391e-06
1.17296e-05
-1.00755e-06
1.20483e-05
-5.12156e-07
1.22345e-05
-4.14388e-08
1.22942e-05
4.01494e-07
1.22344e-05
8.14129e-07
1.20629e-05
1.19455e-06
1.1788e-05
1.54142e-06
1.14184e-05
1.85387e-06
1.09632e-05
2.13151e-06
1.04318e-05
2.37425e-06
9.83369e-06
2.58222e-06
9.17854e-06
2.75562e-06
8.47611e-06
2.89458e-06
7.73626e-06
2.99898e-06
6.96909e-06
3.06826e-06
6.18491e-06
3.10129e-06
5.39444e-06
3.09623e-06
4.60888e-06
3.05037e-06
3.84006e-06
2.96022e-06
3.10052e-06
2.82148e-06
2.40362e-06
2.6294e-06
1.76357e-06
2.37931e-06
1.19553e-06
2.06745e-06
7.15755e-07
1.69241e-06
3.42064e-07
1.25695e-06
9.48601e-08
7.70361e-07
2.53583e-07
3.79141e-09
-7.7288e-08
-9.38045e-10
-1.29018e-07
-2.53065e-08
-1.06579e-07
-7.69147e-08
-3.13343e-08
-1.60681e-07
8.00257e-08
-2.79518e-07
2.14144e-07
-4.3479e-07
3.60728e-07
-6.26773e-07
5.12197e-07
-8.55005e-07
6.63288e-07
-1.11859e-06
8.10668e-07
-1.41642e-06
9.52569e-07
-1.74743e-06
1.08844e-06
-2.11068e-06
1.21867e-06
-2.50553e-06
1.3443e-06
-2.93165e-06
1.46678e-06
-3.38913e-06
1.58784e-06
-3.87839e-06
1.70927e-06
-4.40028e-06
1.83284e-06
-4.95596e-06
1.96018e-06
-5.54688e-06
2.09276e-06
-6.17475e-06
2.23177e-06
-6.84144e-06
2.37816e-06
-7.54894e-06
2.53261e-06
-8.2993e-06
2.69551e-06
-9.09453e-06
2.86699e-06
-9.9366e-06
3.04691e-06
-1.08273e-05
3.2349e-06
-1.17683e-05
3.43038e-06
-1.27609e-05
3.63254e-06
-1.38063e-05
3.84038e-06
-1.49052e-05
4.05273e-06
-1.6058e-05
4.26825e-06
-1.72646e-05
4.48541e-06
-1.85245e-05
4.70254e-06
-1.98367e-05
4.91781e-06
-2.11996e-05
5.12923e-06
-2.26111e-05
5.33467e-06
-2.40684e-05
5.53183e-06
-2.55682e-05
5.7183e-06
-2.71064e-05
5.89153e-06
-2.86783e-05
6.04885e-06
-3.02787e-05
6.18752e-06
-3.19014e-05
6.30473e-06
-3.35397e-05
6.39761e-06
-3.51864e-05
6.46333e-06
-3.68334e-05
6.49907e-06
-3.84723e-05
6.50209e-06
-4.0094e-05
6.46978e-06
-4.16891e-05
6.39969e-06
-4.32478e-05
6.28961e-06
-4.47597e-05
6.13756e-06
-4.62146e-05
5.94189e-06
-4.7602e-05
5.70129e-06
-4.89113e-05
5.41485e-06
-5.01322e-05
5.08206e-06
-5.12543e-05
4.7029e-06
-5.22677e-05
4.27782e-06
-5.31629e-05
3.80776e-06
-5.39306e-05
3.29418e-06
-5.45626e-05
2.73907e-06
-5.50509e-05
2.14495e-06
-5.53886e-05
1.51484e-06
-5.55694e-05
8.52283e-07
-5.55881e-05
1.61357e-07
-5.54404e-05
-5.53654e-07
-5.51233e-05
-1.28766e-06
-5.46345e-05
-2.0354e-06
-5.39731e-05
-2.79122e-06
-5.31395e-05
-3.54918e-06
-5.21352e-05
-4.30308e-06
-5.09628e-05
-5.04653e-06
-4.96263e-05
-5.77305e-06
-4.8131e-05
-6.47609e-06
-4.64834e-05
-7.14913e-06
-4.46911e-05
-7.78575e-06
-4.27632e-05
-8.37973e-06
-4.07095e-05
-8.9251e-06
-3.85413e-05
-9.41625e-06
-3.62708e-05
-9.84802e-06
-3.3911e-05
-1.02157e-05
-3.14759e-05
-1.05154e-05
-2.89803e-05
-1.07436e-05
-2.64393e-05
-1.08977e-05
-2.3869e-05
-1.09759e-05
-2.12852e-05
-1.09772e-05
-1.87045e-05
-1.09015e-05
-1.61431e-05
-1.07497e-05
-1.36172e-05
-1.05235e-05
-1.11426e-05
-1.02256e-05
-8.73465e-06
-9.85953e-06
-6.40804e-06
-9.42966e-06
-4.17656e-06
-8.94117e-06
-2.05301e-06
-8.3999e-06
-4.90281e-08
-7.81232e-06
1.82507e-06
-7.18542e-06
3.56027e-06
-6.52646e-06
5.14911e-06
-5.84306e-06
6.58568e-06
-5.14287e-06
7.86566e-06
-4.43356e-06
8.98633e-06
-3.72261e-06
9.94659e-06
-3.01723e-06
1.07469e-05
-2.32423e-06
1.13892e-05
-1.64988e-06
1.18769e-05
-9.99869e-07
1.22147e-05
-3.79227e-07
1.24085e-05
2.07745e-07
1.24651e-05
7.57484e-07
1.23925e-05
1.26716e-06
1.21993e-05
1.73463e-06
1.18947e-05
2.15844e-06
1.14886e-05
2.53765e-06
1.0991e-05
2.87179e-06
1.04126e-05
3.16069e-06
9.76387e-06
3.40431e-06
9.05588e-06
3.60258e-06
8.29969e-06
3.75517e-06
7.50665e-06
3.8613e-06
6.68837e-06
3.91957e-06
5.85685e-06
3.92775e-06
5.02455e-06
3.88268e-06
4.20452e-06
3.78025e-06
3.41054e-06
3.61546e-06
2.65724e-06
3.3827e-06
1.96031e-06
3.07624e-06
1.33673e-06
2.69103e-06
8.05247e-07
2.22389e-06
3.87223e-07
1.67497e-06
1.0802e-07
1.04956e-06
3.61603e-07
-3.13514e-09
-7.41521e-08
-2.61005e-08
-1.06053e-07
-7.82712e-08
-5.44083e-08
-1.65825e-07
5.62204e-08
-2.92561e-07
2.06761e-07
-4.60447e-07
3.82031e-07
-6.70106e-07
5.70387e-07
-9.21231e-07
7.63321e-07
-1.21293e-06
9.54988e-07
-1.54402e-06
1.14176e-06
-1.91324e-06
1.32179e-06
-2.31946e-06
1.49466e-06
-2.76178e-06
1.661e-06
-3.23967e-06
1.82219e-06
-3.75298e-06
1.98009e-06
-4.30201e-06
2.13686e-06
-4.88745e-06
2.29472e-06
-5.51044e-06
2.45582e-06
-6.17242e-06
2.62217e-06
-6.87517e-06
2.79551e-06
-7.62069e-06
2.97729e-06
-8.41116e-06
3.16863e-06
-9.24884e-06
3.37029e-06
-1.0136e-05
3.5827e-06
-1.1075e-05
3.80592e-06
-1.20678e-05
4.03971e-06
-1.31164e-05
4.28353e-06
-1.42226e-05
4.53654e-06
-1.53876e-05
4.79762e-06
-1.66127e-05
5.06544e-06
-1.78984e-05
5.33841e-06
-1.92449e-05
5.61473e-06
-2.06518e-05
5.89237e-06
-2.21184e-05
6.16911e-06
-2.36431e-05
6.44253e-06
-2.52239e-05
6.71001e-06
-2.6858e-05
6.96877e-06
-2.8542e-05
7.21581e-06
-3.02717e-05
7.44801e-06
-3.20422e-05
7.66209e-06
-3.38481e-05
7.85466e-06
-3.56828e-05
8.02224e-06
-3.75393e-05
8.16129e-06
-3.941e-05
8.26826e-06
-4.12863e-05
8.33964e-06
-4.31592e-05
8.37199e-06
-4.50191e-05
8.36203e-06
-4.6856e-05
8.30664e-06
-4.86593e-05
8.20295e-06
-5.04181e-05
8.04841e-06
-5.21213e-05
7.84082e-06
-5.37578e-05
7.57835e-06
-5.53162e-05
7.25967e-06
-5.67852e-05
6.88392e-06
-5.81539e-05
6.45077e-06
-5.94115e-05
5.96045e-06
-6.05475e-05
5.41379e-06
-6.15519e-05
4.8122e-06
-6.24154e-05
4.15771e-06
-6.31293e-05
3.45297e-06
-6.36856e-05
2.70123e-06
-6.40771e-05
1.90633e-06
-6.42975e-05
1.07271e-06
-6.43416e-05
2.05417e-07
-6.4205e-05
-6.90278e-07
-6.38844e-05
-1.6082e-06
-6.33779e-05
-2.54196e-06
-6.26843e-05
-3.48477e-06
-6.1804e-05
-4.42947e-06
-6.07385e-05
-5.36865e-06
-5.94903e-05
-6.29469e-06
-5.80635e-05
-7.19984e-06
-5.64633e-05
-8.07629e-06
-5.46962e-05
-8.91626e-06
-5.27699e-05
-9.71208e-06
-5.06933e-05
-1.04563e-05
-4.84766e-05
-1.11417e-05
-4.61312e-05
-1.17617e-05
-4.36695e-05
-1.23098e-05
-4.11048e-05
-1.27804e-05
-3.84516e-05
-1.31686e-05
-3.57251e-05
-1.34701e-05
-3.29413e-05
-1.36815e-05
-3.01167e-05
-1.38005e-05
-2.72682e-05
-1.38256e-05
-2.44133e-05
-1.37564e-05
-2.15694e-05
-1.35936e-05
-1.87538e-05
-1.33391e-05
-1.59838e-05
-1.29956e-05
-1.32761e-05
-1.25673e-05
-1.06468e-05
-1.20589e-05
-8.1114e-06
-1.14766e-05
-5.68428e-06
-1.0827e-05
-3.37876e-06
-1.01179e-05
-1.20687e-06
-9.35731e-06
8.20775e-07
-8.55411e-06
2.69507e-06
-7.71735e-06
4.40851e-06
-6.85631e-06
5.95529e-06
-5.98034e-06
7.33131e-06
-5.09863e-06
8.53417e-06
-4.2201e-06
9.5632e-06
-3.35326e-06
1.04194e-05
-2.50604e-06
1.11052e-05
-1.68574e-06
1.16249e-05
-8.98846e-07
1.19837e-05
-1.51052e-07
1.21883e-05
5.52832e-07
1.22466e-05
1.20886e-06
1.21673e-05
1.81395e-06
1.19599e-05
2.3658e-06
1.16348e-05
2.8628e-06
1.12026e-05
3.30392e-06
1.06748e-05
3.68855e-06
1.00628e-05
4.01629e-06
9.37862e-06
4.28676e-06
8.63442e-06
4.49936e-06
7.84268e-06
4.65305e-06
7.01617e-06
4.74608e-06
6.16804e-06
4.77587e-06
5.31194e-06
4.73878e-06
4.46208e-06
4.6301e-06
3.63345e-06
4.44409e-06
2.84197e-06
4.17418e-06
2.1048e-06
3.8134e-06
1.44078e-06
3.35505e-06
8.71056e-07
2.79361e-06
4.20134e-07
2.1259e-06
1.17413e-07
1.35229e-06
4.79016e-07
-1.08662e-08
-6.32862e-08
-5.43963e-08
-6.25232e-08
-1.3786e-07
2.90555e-08
-2.65751e-07
1.84111e-07
-4.40466e-07
3.81475e-07
-6.62819e-07
6.04385e-07
-9.32511e-07
8.40079e-07
-1.24852e-06
1.07933e-06
-1.60943e-06
1.3159e-06
-2.0137e-06
1.54603e-06
-2.45988e-06
1.76797e-06
-2.94675e-06
1.98153e-06
-3.47346e-06
2.18771e-06
-4.03961e-06
2.38833e-06
-4.64525e-06
2.58574e-06
-5.29094e-06
2.78255e-06
-5.97767e-06
2.98145e-06
-6.70688e-06
3.18503e-06
-7.48038e-06
3.39566e-06
-8.30027e-06
3.61539e-06
-9.16888e-06
3.8459e-06
-1.00887e-05
4.08845e-06
-1.10623e-05
4.34387e-06
-1.20921e-05
4.61257e-06
-1.31807e-05
4.89454e-06
-1.43304e-05
5.18937e-06
-1.55432e-05
5.49628e-06
-1.68207e-05
5.81413e-06
-1.81646e-05
6.14145e-06
-1.95756e-05
6.47646e-06
-2.10543e-05
6.8171e-06
-2.26006e-05
7.16102e-06
-2.42138e-05
7.50563e-06
-2.58928e-05
7.84807e-06
-2.76355e-05
8.18525e-06
-2.94393e-05
8.51383e-06
-3.13008e-05
8.83028e-06
-3.32159e-05
9.13086e-06
-3.51795e-05
9.41164e-06
-3.7186e-05
9.66857e-06
-3.92288e-05
9.89745e-06
-4.13006e-05
1.0094e-05
-4.33934e-05
1.0254e-05
-4.54983e-05
1.03732e-05
-4.7606e-05
1.04473e-05
-4.97064e-05
1.04724e-05
-5.17888e-05
1.04445e-05
-5.38424e-05
1.03602e-05
-5.58556e-05
1.02162e-05
-5.78168e-05
1.00096e-05
-5.97141e-05
9.73809e-06
-6.15355e-05
9.3998e-06
-6.32692e-05
8.99338e-06
-6.49034e-05
8.51813e-06
-6.64266e-05
7.97395e-06
-6.78276e-05
7.36142e-06
-6.90956e-05
6.6818e-06
-7.02204e-05
5.93702e-06
-7.11924e-05
5.12974e-06
-7.20028e-05
4.26329e-06
-7.26432e-05
3.34169e-06
-7.31065e-05
2.36961e-06
-7.33862e-05
1.35238e-06
-7.34767e-05
2.96002e-07
-7.33738e-05
-7.93233e-07
-7.30739e-05
-1.90813e-06
-7.25746e-05
-3.04119e-06
-7.18749e-05
-4.18446e-06
-7.09748e-05
-5.32965e-06
-6.98753e-05
-6.46813e-06
-6.85789e-05
-7.59105e-06
-6.70893e-05
-8.68941e-06
-6.54115e-05
-9.75413e-06
-6.35516e-05
-1.07761e-05
-6.15172e-05
-1.17465e-05
-5.9317e-05
-1.26565e-05
-5.69611e-05
-1.34977e-05
-5.44607e-05
-1.4262e-05
-5.18284e-05
-1.49422e-05
-4.90775e-05
-1.55312e-05
-4.62229e-05
-1.60232e-05
-4.32801e-05
-1.64129e-05
-4.02656e-05
-1.66961e-05
-3.71965e-05
-1.68696e-05
-3.40908e-05
-1.69313e-05
-3.09666e-05
-1.68806e-05
-2.78425e-05
-1.67178e-05
-2.47371e-05
-1.64445e-05
-2.16689e-05
-1.60638e-05
-1.86562e-05
-1.558e-05
-1.57167e-05
-1.49984e-05
-1.28675e-05
-1.43258e-05
-1.01247e-05
-1.35698e-05
-7.50344e-06
-1.27392e-05
-5.01745e-06
-1.18433e-05
-2.67917e-06
-1.08924e-05
-4.99467e-07
-9.89705e-06
1.51247e-06
-8.86825e-06
3.34918e-06
-7.81706e-06
5.00504e-06
-6.75448e-06
6.47623e-06
-5.69129e-06
7.76079e-06
-4.63781e-06
8.85855e-06
-3.60381e-06
9.77111e-06
-2.59829e-06
1.05017e-05
-1.62945e-06
1.10552e-05
-7.04526e-07
1.14378e-05
1.70231e-07
1.16571e-05
9.89581e-07
1.17218e-05
1.74927e-06
1.16415e-05
2.44601e-06
1.1427e-05
3.07732e-06
1.10895e-05
3.64146e-06
1.06408e-05
4.13721e-06
1.00934e-05
4.5637e-06
9.46006e-06
4.92012e-06
8.75391e-06
5.20552e-06
7.98844e-06
5.41851e-06
7.17752e-06
5.55701e-06
6.33539e-06
5.61799e-06
5.47681e-06
5.59736e-06
4.61714e-06
5.48977e-06
3.77256e-06
5.28868e-06
2.9603e-06
4.98644e-06
2.19901e-06
4.57469e-06
1.5093e-06
4.04476e-06
9.14479e-07
3.38843e-06
4.41703e-07
2.59867e-06
1.23442e-07
1.67055e-06
6.02458e-07
-1.92841e-08
-4.40019e-08
-8.5337e-08
3.53002e-09
-2.03114e-07
1.46832e-07
-3.75177e-07
3.56174e-07
-6.02292e-07
6.08591e-07
-8.83935e-07
8.86028e-07
-1.21873e-06
1.17487e-06
-1.60481e-06
1.46541e-06
-2.04016e-06
1.75125e-06
-2.52283e-06
2.02869e-06
-3.05111e-06
2.29625e-06
-3.62371e-06
2.55413e-06
-4.23983e-06
2.80383e-06
-4.8992e-06
3.04771e-06
-5.60211e-06