/*--------------------------------*- C++ -*----------------------------------*\
| =========                 |                                                 |
| \\      /  F ield         | OpenFOAM: The Open Source CFD Toolbox           |
|  \\    /   O peration     | Version:  2112                                  |
|   \\  /    A nd           | Website:  www.openfoam.com                      |
|    \\/     M anipulation  |                                                 |
\*---------------------------------------------------------------------------*/
FoamFile
{
    version     2.0;
    format      ascii;
    arch        "LSB;label=32;scalar=64";
    class       volVectorField;
    location    "15";
    object      U;
}
// * * * * * * * * * * * * * * * * * * * * * * * * * * * * * * * * * * * * * //

dimensions      [0 1 -1 0 0 0 0];

internalField   nonuniform List<vector> 
16641
(
(1.19083e-06 -1.24128e-06 0)
(1.1044e-05 -5.96548e-06 0)
(3.07362e-05 -8.35172e-06 0)
(5.27747e-05 -8.62581e-06 0)
(7.29541e-05 -7.67432e-06 0)
(8.90248e-05 -6.11253e-06 0)
(9.97832e-05 -4.3113e-06 0)
(0.00010476 -2.48963e-06 0)
(0.000103954 -7.64215e-07 0)
(9.76316e-05 8.08316e-07 0)
(8.61938e-05 2.20919e-06 0)
(7.0087e-05 3.44203e-06 0)
(4.97441e-05 4.52672e-06 0)
(2.55446e-05 5.4887e-06 0)
(-2.20753e-06 6.35891e-06 0)
(-3.32957e-05 7.16929e-06 0)
(-6.75956e-05 7.95025e-06 0)
(-0.000105072 8.73017e-06 0)
(-0.000145772 9.53451e-06 0)
(-0.000189818 1.03845e-05 0)
(-0.000237391 1.12978e-05 0)
(-0.000288728 1.22883e-05 0)
(-0.000344101 1.33656e-05 0)
(-0.000403813 1.45368e-05 0)
(-0.000468181 1.5806e-05 0)
(-0.000537532 1.7174e-05 0)
(-0.000612193 1.86397e-05 0)
(-0.000692481 2.02007e-05 0)
(-0.0007787 2.18529e-05 0)
(-0.000871136 2.35905e-05 0)
(-0.00097005 2.54074e-05 0)
(-0.00107567 2.72966e-05 0)
(-0.0011882 2.92496e-05 0)
(-0.00130781 3.12574e-05 0)
(-0.0014346 3.33101e-05 0)
(-0.00156867 3.53962e-05 0)
(-0.00171004 3.75028e-05 0)
(-0.00185867 3.96157e-05 0)
(-0.00201449 4.17191e-05 0)
(-0.00217732 4.37945e-05 0)
(-0.00234695 4.58214e-05 0)
(-0.00252306 4.77776e-05 0)
(-0.00270524 4.96384e-05 0)
(-0.00289301 5.13765e-05 0)
(-0.00308577 5.29621e-05 0)
(-0.00328281 5.43638e-05 0)
(-0.00348332 5.55481e-05 0)
(-0.00368639 5.64803e-05 0)
(-0.00389095 5.71239e-05 0)
(-0.00409586 5.74416e-05 0)
(-0.00429983 5.7396e-05 0)
(-0.00450148 5.69505e-05 0)
(-0.00469929 5.60693e-05 0)
(-0.00489168 5.47184e-05 0)
(-0.00507695 5.28661e-05 0)
(-0.00525333 5.04843e-05 0)
(-0.00541899 4.75494e-05 0)
(-0.00557206 4.40431e-05 0)
(-0.00571062 3.99532e-05 0)
(-0.00583279 3.52742e-05 0)
(-0.00593666 3.00087e-05 0)
(-0.00602041 2.41672e-05 0)
(-0.00608228 1.77692e-05 0)
(-0.00612061 1.08393e-05 0)
(-0.00613392 3.41345e-06 0)
(-0.00612085 -4.39687e-06 0)
(-0.00608018 -1.25951e-05 0)
(-0.00601105 -2.11023e-05 0)
(-0.00591278 -2.98311e-05 0)
(-0.00578496 -3.86899e-05 0)
(-0.00562752 -4.75806e-05 0)
(-0.00544067 -5.63983e-05 0)
(-0.00522498 -6.50334e-05 0)
(-0.00498135 -7.33731e-05 0)
(-0.00471104 -8.13033e-05 0)
(-0.00441564 -8.87104e-05 0)
(-0.00409708 -9.54843e-05 0)
(-0.00375763 -0.000101521 0)
(-0.00339983 -0.000106723 0)
(-0.0030265 -0.000111006 0)
(-0.00264071 -0.000114297 0)
(-0.00224571 -0.000116537 0)
(-0.00184489 -0.000117684 0)
(-0.00144176 -0.000117715 0)
(-0.00103987 -0.000116625 0)
(-0.00064275 -0.000114427 0)
(-0.000253865 -0.000111155 0)
(0.000123431 -0.000106865 0)
(0.000485964 -0.00010162 0)
(0.000830789 -9.551e-05 0)
(0.00115523 -8.86344e-05 0)
(0.00145691 -8.11038e-05 0)
(0.0017338 -7.30382e-05 0)
(0.00198425 -6.45632e-05 0)
(0.00220698 -5.5807e-05 0)
(0.00240108 -4.68979e-05 0)
(0.00256607 -3.79604e-05 0)
(0.00270182 -2.91132e-05 0)
(0.00280856 -2.04663e-05 0)
(0.00288689 -1.21191e-05 0)
(0.00293767 -4.15873e-06 0)
(0.00296207 3.34131e-06 0)
(0.00296147 1.03219e-05 0)
(0.00293746 1.67386e-05 0)
(0.00289176 2.25618e-05 0)
(0.0028262 2.77755e-05 0)
(0.00274268 3.23774e-05 0)
(0.00264312 3.6377e-05 0)
(0.00252943 3.97944e-05 0)
(0.00240347 4.26584e-05 0)
(0.00226705 4.50043e-05 0)
(0.00212187 4.68715e-05 0)
(0.00196956 4.83011e-05 0)
(0.00181165 4.9332e-05 0)
(0.00164957 4.99978e-05 0)
(0.00148468 5.03219e-05 0)
(0.00131835 5.03131e-05 0)
(0.00115193 4.99588e-05 0)
(0.000986884 4.92179e-05 0)
(0.000824847 4.8012e-05 0)
(0.000667743 4.62142e-05 0)
(0.000517909 4.36357e-05 0)
(0.000378245 4.00117e-05 0)
(0.000252364 3.49895e-05 0)
(0.000144711 2.81447e-05 0)
(6.04583e-05 1.90968e-05 0)
(4.89014e-06 7.86946e-06 0)
(-1.7934e-05 -4.08508e-06 0)
(-1.03914e-05 -1.04e-05 0)
(5.95402e-06 -1.10508e-05 0)
(2.99179e-05 -2.984e-05 0)
(6.95194e-05 -3.83862e-05 0)
(0.000111415 -3.83225e-05 0)
(0.000147713 -3.26369e-05 0)
(0.000173742 -2.36945e-05 0)
(0.000186644 -1.31479e-05 0)
(0.000185021 -2.10571e-06 0)
(0.000168532 8.75184e-06 0)
(0.000137505 1.90318e-05 0)
(9.26579e-05 2.85511e-05 0)
(3.48845e-05 3.72638e-05 0)
(-3.48999e-05 4.52254e-05 0)
(-0.000115867 5.25498e-05 0)
(-0.000207341 5.9388e-05 0)
(-0.00030884 6.59072e-05 0)
(-0.000420095 7.22776e-05 0)
(-0.000541051 7.86624e-05 0)
(-0.000671852 8.52106e-05 0)
(-0.000812829 9.20524e-05 0)
(-0.000964468 9.9297e-05 0)
(-0.00112739 0.000107031 0)
(-0.00130231 0.000115318 0)
(-0.00149002 0.000124204 0)
(-0.00169136 0.000133712 0)
(-0.00190718 0.00014385 0)
(-0.00213834 0.000154609 0)
(-0.00238567 0.000165969 0)
(-0.00264995 0.000177895 0)
(-0.0029319 0.000190344 0)
(-0.00323218 0.000203265 0)
(-0.00355135 0.000216596 0)
(-0.00388987 0.000230269 0)
(-0.00424809 0.000244206 0)
(-0.00462623 0.000258321 0)
(-0.00502436 0.00027252 0)
(-0.00544241 0.000286697 0)
(-0.00588014 0.000300736 0)
(-0.00633711 0.000314508 0)
(-0.00681268 0.000327874 0)
(-0.007306 0.00034068 0)
(-0.00781599 0.000352761 0)
(-0.00834131 0.000363938 0)
(-0.00888034 0.00037402 0)
(-0.00943121 0.000382805 0)
(-0.00999175 0.000390082 0)
(-0.0105595 0.000395634 0)
(-0.0111316 0.000399236 0)
(-0.0117051 0.000400663 0)
(-0.0122766 0.00039969 0)
(-0.0128424 0.000396097 0)
(-0.0133986 0.000389675 0)
(-0.0139411 0.000380225 0)
(-0.0144653 0.000367569 0)
(-0.0149667 0.000351549 0)
(-0.0154405 0.000332036 0)
(-0.0158819 0.000308932 0)
(-0.016286 0.000282179 0)
(-0.0166477 0.000251756 0)
(-0.0169622 0.000217692 0)
(-0.0172248 0.000180063 0)
(-0.0174308 0.000138997 0)
(-0.017576 9.4678e-05 0)
(-0.0176563 4.73394e-05 0)
(-0.0176682 -2.72844e-06 0)
(-0.0176085 -5.51005e-05 0)
(-0.0174747 -0.000109429 0)
(-0.0172647 -0.000165247 0)
(-0.0169773 -0.000222033 0)
(-0.0166118 -0.00027923 0)
(-0.0161684 -0.00033624 0)
(-0.0156481 -0.000392439 0)
(-0.0150527 -0.000447181 0)
(-0.0143847 -0.000499807 0)
(-0.0136477 -0.000549662 0)
(-0.0128458 -0.000596098 0)
(-0.0119842 -0.000638494 0)
(-0.0110688 -0.000676263 0)
(-0.010106 -0.000708867 0)
(-0.00910301 -0.000735829 0)
(-0.0080676 -0.000756743 0)
(-0.00700793 -0.000771284 0)
(-0.00593251 -0.000779218 0)
(-0.00485013 -0.000780408 0)
(-0.00376965 -0.00077482 0)
(-0.00269995 -0.000762523 0)
(-0.00164975 -0.000743694 0)
(-0.000627508 -0.000718612 0)
(0.000358712 -0.000687649 0)
(0.00130135 -0.000651267 0)
(0.00219347 -0.000610019 0)
(0.00302885 -0.000564515 0)
(0.00380205 -0.000515424 0)
(0.00450851 -0.000463455 0)
(0.00514456 -0.000409338 0)
(0.00570746 -0.000353815 0)
(0.00619545 -0.000297618 0)
(0.00660765 -0.000241454 0)
(0.00694414 -0.000185995 0)
(0.00720582 -0.000131861 0)
(0.00739439 -7.96129e-05 0)
(0.00751231 -2.97392e-05 0)
(0.00756263 1.73453e-05 0)
(0.00754896 6.13064e-05 0)
(0.00747538 0.000101891 0)
(0.00734627 0.000138925 0)
(0.00716628 0.000172312 0)
(0.00694021 0.000202029 0)
(0.0066729 0.000228112 0)
(0.00636919 0.000250653 0)
(0.00603384 0.000269785 0)
(0.00567146 0.000285669 0)
(0.00528652 0.000298476 0)
(0.00488331 0.000308367 0)
(0.004466 0.000315476 0)
(0.00403864 0.000319881 0)
(0.00360527 0.000321579 0)
(0.00317005 0.000320454 0)
(0.00273737 0.000316247 0)
(0.00231204 0.00030852 0)
(0.00189953 0.000296625 0)
(0.00150615 0.000279677 0)
(0.00113928 0.000256557 0)
(0.000807466 0.000225966 0)
(0.00052039 0.000186638 0)
(0.000288244 0.000137937 0)
(0.000120177 8.11286e-05 0)
(2.25396e-05 2.23177e-05 0)
(-4.0489e-06 -1.79763e-05 0)
(8.57465e-06 -3.10188e-05 0)
(3.89289e-05 -6.95712e-05 0)
(8.51643e-05 -8.47024e-05 0)
(0.000130653 -8.14123e-05 0)
(0.00016574 -6.54309e-05 0)
(0.000184635 -4.1574e-05 0)
(0.000183616 -1.34878e-05 0)
(0.000160727 1.62439e-05 0)
(0.000115361 4.589e-05 0)
(4.78022e-05 7.43958e-05 0)
(-4.11145e-05 0.000101218 0)
(-0.000150283 0.000126177 0)
(-0.000278536 0.000149349 0)
(-0.000424811 0.000170987 0)
(-0.000588238 0.000191446 0)
(-0.000768214 0.000211143 0)
(-0.000964425 0.000230508 0)
(-0.00117686 0.000249964 0)
(-0.0014058 0.000269899 0)
(-0.00165178 0.000290658 0)
(-0.00191557 0.000312533 0)
(-0.00219813 0.000335755 0)
(-0.00250057 0.000360501 0)
(-0.0028241 0.000386887 0)
(-0.00316999 0.000414979 0)
(-0.00353954 0.000444793 0)
(-0.00393403 0.000476299 0)
(-0.00435472 0.000509432 0)
(-0.00480275 0.000544089 0)
(-0.00527919 0.000580135 0)
(-0.00578497 0.000617409 0)
(-0.00632087 0.000655723 0)
(-0.00688749 0.000694861 0)
(-0.00748525 0.000734584 0)
(-0.00811432 0.000774626 0)
(-0.00877467 0.000814691 0)
(-0.00946596 0.000854455 0)
(-0.0101876 0.000893566 0)
(-0.0109387 0.000931634 0)
(-0.0117179 0.000968242 0)
(-0.0125238 0.00100294 0)
(-0.0133542 0.00103523 0)
(-0.0142067 0.00106461 0)
(-0.0150787 0.00109052 0)
(-0.0159667 0.00111241 0)
(-0.0168672 0.00112967 0)
(-0.017776 0.00114171 0)
(-0.0186884 0.00114793 0)
(-0.0195994 0.00114771 0)
(-0.0205037 0.00114047 0)
(-0.0213951 0.00112563 0)
(-0.0222677 0.00110267 0)
(-0.0231146 0.0010711 0)
(-0.0239292 0.00103048 0)
(-0.0247042 0.000980466 0)
(-0.0254323 0.00092077 0)
(-0.0261063 0.000851214 0)
(-0.0267188 0.000771722 0)
(-0.0272623 0.000682335 0)
(-0.0277298 0.000583217 0)
(-0.0281143 0.000474666 0)
(-0.0284093 0.00035712 0)
(-0.0286087 0.000231159 0)
(-0.0287069 9.75054e-05 0)
(-0.028699 -4.29745e-05 0)
(-0.0285809 -0.000189262 0)
(-0.0283491 -0.000340205 0)
(-0.0280013 -0.000494536 0)
(-0.0275361 -0.000650867 0)
(-0.0269529 -0.00080771 0)
(-0.0262526 -0.00096349 0)
(-0.0254369 -0.00111657 0)
(-0.0245088 -0.00126527 0)
(-0.0234726 -0.0014079 0)
(-0.0223335 -0.00154278 0)
(-0.0210981 -0.00166825 0)
(-0.0197738 -0.00178274 0)
(-0.0183695 -0.00188477 0)
(-0.0168945 -0.00197299 0)
(-0.0153594 -0.00204618 0)
(-0.0137753 -0.00210332 0)
(-0.0121542 -0.0021436 0)
(-0.0105082 -0.00216642 0)
(-0.00885012 -0.00217143 0)
(-0.00719271 -0.00215852 0)
(-0.00554879 -0.00212784 0)
(-0.00393105 -0.00207983 0)
(-0.0023518 -0.00201514 0)
(-0.000822856 -0.0019347 0)
(0.000644605 -0.00183965 0)
(0.00204024 -0.00173134 0)
(0.00335468 -0.00161131 0)
(0.00457958 -0.00148123 0)
(0.0057078 -0.0013429 0)
(0.00673343 -0.00119818 0)
(0.00765185 -0.00104899 0)
(0.00845978 -0.000897205 0)
(0.00915527 -0.000744701 0)
(0.00973765 -0.000593254 0)
(0.0102075 -0.000444535 0)
(0.0105667 -0.000300073 0)
(0.0108181 -0.000161235 0)
(0.0109655 -2.92016e-05 0)
(0.0110137 9.50395e-05 0)
(0.0109682 0.000210705 0)
(0.010835 0.000317214 0)
(0.0106207 0.000414186 0)
(0.0103321 0.000501424 0)
(0.00997641 0.000578899 0)
(0.00956064 0.000646727 0)
(0.00909198 0.000705135 0)
(0.00857748 0.000754427 0)
(0.00802407 0.000794944 0)
(0.00743852 0.000827009 0)
(0.00682749 0.000850878 0)
(0.00619755 0.000866673 0)
(0.0055553 0.000874323 0)
(0.0049075 0.000873488 0)
(0.00426129 0.000863494 0)
(0.00362432 0.000843266 0)
(0.00300508 0.000811288 0)
(0.00241302 0.000765595 0)
(0.00185881 0.000703861 0)
(0.00135429 0.000623639 0)
(0.000912309 0.000522967 0)
(0.000545811 0.000401633 0)
(0.000265932 0.00026341 0)
(8.26123e-05 0.000120327 0)
(8.1839e-06 5.16603e-06 0)
(9.01744e-06 -5.35499e-05 0)
(3.89525e-05 -0.000111633 0)
(8.12008e-05 -0.000130113 0)
(0.000117637 -0.000118864 0)
(0.000137864 -8.69026e-05 0)
(0.000135685 -4.17717e-05 0)
(0.000107115 1.06858e-05 0)
(5.00081e-05 6.61996e-05 0)
(-3.63382e-05 0.000121837 0)
(-0.000151617 0.000175757 0)
(-0.000294917 0.000226957 0)
(-0.00046503 0.000275077 0)
(-0.000660679 0.00032021 0)
(-0.0008807 0.000362766 0)
(-0.00112417 0.000403358 0)
(-0.00139046 0.000442714 0)
(-0.00167932 0.000481596 0)
(-0.00199086 0.00052076 0)
(-0.00232551 0.000560908 0)
(-0.00268407 0.000602664 0)
(-0.00306759 0.000646554 0)
(-0.00347735 0.000693005 0)
(-0.00391481 0.000742333 0)
(-0.00438157 0.00079475 0)
(-0.00487927 0.000850368 0)
(-0.00540961 0.000909204 0)
(-0.00597421 0.000971194 0)
(-0.00657467 0.00103619 0)
(-0.00721242 0.00110399 0)
(-0.00788879 0.0011743 0)
(-0.00860489 0.0012468 0)
(-0.0093616 0.0013211 0)
(-0.0101596 0.00139676 0)
(-0.0109992 0.00147328 0)
(-0.0118805 0.00155012 0)
(-0.0128031 0.00162667 0)
(-0.0137664 0.00170229 0)
(-0.0147693 0.00177624 0)
(-0.0158103 0.00184776 0)
(-0.0168874 0.00191601 0)
(-0.0179981 0.00198009 0)
(-0.0191394 0.00203905 0)
(-0.0203077 0.0020919 0)
(-0.0214989 0.00213757 0)
(-0.0227085 0.00217499 0)
(-0.023931 0.00220305 0)
(-0.0251607 0.00222062 0)
(-0.0263912 0.00222658 0)
(-0.0276155 0.00221984 0)
(-0.0288262 0.00219933 0)
(-0.0300154 0.00216405 0)
(-0.0311747 0.00211308 0)
(-0.0322954 0.00204559 0)
(-0.0333684 0.00196089 0)
(-0.0343846 0.00185841 0)
(-0.0353346 0.00173776 0)
(-0.036209 0.00159873 0)
(-0.0369984 0.00144131 0)
(-0.0376938 0.00126572 0)
(-0.0382863 0.00107238 0)
(-0.0387674 0.000861985 0)
(-0.0391293 0.000635463 0)
(-0.0393648 0.000393999 0)
(-0.0394672 0.000139029 0)
(-0.0394309 -0.00012776 0)
(-0.0392513 -0.000404449 0)
(-0.0389246 -0.000688876 0)
(-0.0384485 -0.000978683 0)
(-0.0378217 -0.00127132 0)
(-0.0370442 -0.00156408 0)
(-0.0361173 -0.00185412 0)
(-0.0350437 -0.00213852 0)
(-0.0338277 -0.00241427 0)
(-0.0324746 -0.00267839 0)
(-0.0309914 -0.0029279 0)
(-0.0293863 -0.00315991 0)
(-0.0276687 -0.00337164 0)
(-0.0258494 -0.00356052 0)
(-0.0239401 -0.00372416 0)
(-0.0219538 -0.00386048 0)
(-0.0199041 -0.00396766 0)
(-0.0178055 -0.00404428 0)
(-0.0156731 -0.00408927 0)
(-0.0135224 -0.00410199 0)
(-0.011369 -0.00408222 0)
(-0.00922863 -0.00403019 0)
(-0.00711702 -0.00394658 0)
(-0.00504937 -0.00383252 0)
(-0.00304043 -0.00368954 0)
(-0.00110419 -0.0035196 0)
(0.00074622 -0.00332501 0)
(0.00249877 -0.00310841 0)
(0.00414264 -0.00287272 0)
(0.00566832 -0.00262105 0)
(0.00706778 -0.0023567 0)
(0.00833449 -0.00208303 0)
(0.00946352 -0.00180344 0)
(0.0104515 -0.00152127 0)
(0.0112967 -0.00123976 0)
(0.0119989 -0.000961972 0)
(0.0125594 -0.000690761 0)
(0.0129808 -0.000428703 0)
(0.0132672 -0.000178071 0)
(0.0134238 5.91939e-05 0)
(0.0134566 0.000281502 0)
(0.0133727 0.000487616 0)
(0.0131798 0.000676653 0)
(0.0128862 0.000848058 0)
(0.0125006 0.00100158 0)
(0.0120318 0.00113724 0)
(0.011489 0.00125527 0)
(0.0108811 0.00135604 0)
(0.0102171 0.00144 0)
(0.0095061 0.00150759 0)
(0.00875687 0.00155916 0)
(0.00797829 0.00159483 0)
(0.0071793 0.0016144 0)
(0.00636904 0.00161725 0)
(0.00555706 0.0016022 0)
(0.0047535 0.00156748 0)
(0.00396931 0.00151063 0)
(0.00321645 0.00142857 0)
(0.00250797 0.00131781 0)
(0.00185808 0.00117487 0)
(0.00128187 0.000997264 0)
(0.000794437 0.0007852 0)
(0.000409204 0.000544402 0)
(0.000141788 0.00029072 0)
(1.99612e-05 6.21151e-05 0)
(8.09067e-06 -7.42182e-05 0)
(3.2431e-05 -0.000147199 0)
(6.19185e-05 -0.000163385 0)
(7.88051e-05 -0.000138041 0)
(7.27774e-05 -8.38022e-05 0)
(3.77137e-05 -1.10585e-05 0)
(-3.02432e-05 7.21084e-05 0)
(-0.000133099 0.000159721 0)
(-0.000271417 0.000247636 0)
(-0.000444794 0.000333204 0)
(-0.000652232 0.000414956 0)
(-0.000892449 0.000492346 0)
(-0.00116412 0.000565499 0)
(-0.00146608 0.000635018 0)
(-0.00179743 0.000701811 0)
(-0.00215764 0.000766963 0)
(-0.00254658 0.000831625 0)
(-0.00296454 0.000896935 0)
(-0.00341219 0.000963958 0)
(-0.00389059 0.00103364 0)
(-0.00440108 0.00110678 0)
(-0.0049453 0.00118403 0)
(-0.00552504 0.00126585 0)
(-0.00614225 0.00135257 0)
(-0.00679893 0.00144433 0)
(-0.0074971 0.00154115 0)
(-0.0082387 0.00164289 0)
(-0.00902558 0.00174929 0)
(-0.00985942 0.00185998 0)
(-0.0107417 0.00197449 0)
(-0.0116736 0.00209225 0)
(-0.0126561 0.00221259 0)
(-0.0136898 0.00233476 0)
(-0.0147748 0.00245792 0)
(-0.015911 0.00258114 0)
(-0.0170977 0.00270341 0)
(-0.0183338 0.00282361 0)
(-0.0196175 0.00294054 0)
(-0.0209467 0.00305293 0)
(-0.0223184 0.00315937 0)
(-0.0237293 0.0032584 0)
(-0.0251753 0.00334848 0)
(-0.0266515 0.00342798 0)
(-0.0281525 0.00349522 0)
(-0.0296721 0.00354848 0)
(-0.0312036 0.00358603 0)
(-0.0327395 0.00360612 0)
(-0.0342715 0.00360703 0)
(-0.0357911 0.00358709 0)
(-0.0372888 0.00354472 0)
(-0.0387549 0.00347845 0)
(-0.0401791 0.00338695 0)
(-0.0415509 0.00326908 0)
(-0.0428595 0.00312389 0)
(-0.0440937 0.00295067 0)
(-0.0452426 0.002749 0)
(-0.0462953 0.00251872 0)
(-0.0472408 0.00226002 0)
(-0.0480688 0.00197341 0)
(-0.0487693 0.00165976 0)
(-0.0493327 0.0013203 0)
(-0.0497502 0.000956628 0)
(-0.050014 0.000570723 0)
(-0.050117 0.000164929 0)
(-0.0500532 -0.000258057 0)
(-0.0498177 -0.000695201 0)
(-0.0494069 -0.00114314 0)
(-0.0488185 -0.00159824 0)
(-0.0480515 -0.00205659 0)
(-0.0471065 -0.00251408 0)
(-0.0459855 -0.00296644 0)
(-0.044692 -0.00340925 0)
(-0.0432309 -0.00383808 0)
(-0.0416089 -0.00424844 0)
(-0.0398338 -0.00463596 0)
(-0.0379153 -0.00499633 0)
(-0.0358642 -0.0053255 0)
(-0.0336926 -0.00561963 0)
(-0.0314141 -0.00587522 0)
(-0.029043 -0.00608918 0)
(-0.0265949 -0.00625883 0)
(-0.0240861 -0.00638203 0)
(-0.0215337 -0.00645718 0)
(-0.0189551 -0.00648325 0)
(-0.0163683 -0.00645988 0)
(-0.013791 -0.00638731 0)
(-0.0112411 -0.00626646 0)
(-0.00873628 -0.00609887 0)
(-0.00629347 -0.00588672 0)
(-0.00392903 -0.00563278 0)
(-0.00165839 -0.00534039 0)
(0.000504107 -0.00501335 0)
(0.0025454 -0.00465592 0)
(0.00445382 -0.00427266 0)
(0.00621927 -0.00386842 0)
(0.00783327 -0.00344823 0)
(0.00928911 -0.00301716 0)
(0.0105818 -0.00258026 0)
(0.0117083 -0.00214246 0)
(0.012667 -0.00170849 0)
(0.0134585 -0.00128278 0)
(0.0140846 -0.000869391 0)
(0.0145489 -0.00047197 0)
(0.0148565 -9.36843e-05 0)
(0.0150136 0.000262803 0)
(0.0150275 0.000595347 0)
(0.0149067 0.00090232 0)
(0.0146602 0.00118259 0)
(0.0142978 0.0014355 0)
(0.0138297 0.00166079 0)
(0.0132663 0.00185853 0)
(0.0126183 0.00202905 0)
(0.0118965 0.0021728 0)
(0.0111117 0.00229025 0)
(0.0102747 0.00238175 0)
(0.00939641 0.00244735 0)
(0.00848784 0.00248671 0)
(0.00756024 0.00249887 0)
(0.0066253 0.00248217 0)
(0.00569526 0.00243411 0)
(0.00478316 0.00235136 0)
(0.00390295 0.00222982 0)
(0.00306963 0.00206493 0)
(0.00229926 0.00185226 0)
(0.00160891 0.00158867 0)
(0.00101594 0.00127428 0)
(0.000536668 0.000915248 0)
(0.000193412 0.000528033 0)
(2.97089e-05 0.000149314 0)
(6.32312e-06 -9.01131e-05 0)
(2.12278e-05 -0.000169941 0)
(3.08683e-05 -0.000176161 0)
(1.94695e-05 -0.000129327 0)
(-2.24691e-05 -4.57652e-05 0)
(-0.0001006 6.1296e-05 0)
(-0.000218294 0.000181559 0)
(-0.000377148 0.000307426 0)
(-0.000577418 0.000433582 0)
(-0.000818478 0.000556616 0)
(-0.00109919 0.00067465 0)
(-0.00141818 0.000786997 0)
(-0.00177413 0.000893863 0)
(-0.00216591 0.000996087 0)
(-0.00259273 0.00109492 0)
(-0.0030542 0.00119186 0)
(-0.00355041 0.00128848 0)
(-0.00408187 0.00138635 0)
(-0.00464956 0.00148693 0)
(-0.00525483 0.00159152 0)
(-0.00589937 0.00170123 0)
(-0.00658514 0.00181692 0)
(-0.0073143 0.00193924 0)
(-0.00808914 0.0020686 0)
(-0.00891197 0.00220517 0)
(-0.00978512 0.00234892 0)
(-0.0107108 0.00249962 0)
(-0.0116911 0.00265686 0)
(-0.0127278 0.00282005 0)
(-0.0138225 0.00298845 0)
(-0.0149764 0.00316118 0)
(-0.0161905 0.00333722 0)
(-0.0174652 0.00351541 0)
(-0.0188004 0.00369447 0)
(-0.0201956 0.00387298 0)
(-0.0216496 0.00404939 0)
(-0.0231609 0.00422203 0)
(-0.0247268 0.0043891 0)
(-0.0263445 0.00454866 0)
(-0.0280102 0.00469866 0)
(-0.0297193 0.00483692 0)
(-0.0314666 0.0049612 0)
(-0.0332461 0.00506912 0)
(-0.0350508 0.00515828 0)
(-0.0368732 0.00522622 0)
(-0.0387049 0.00527049 0)
(-0.0405368 0.00528865 0)
(-0.0423592 0.00527834 0)
(-0.0441615 0.00523728 0)
(-0.0459329 0.00516335 0)
(-0.0476618 0.00505462 0)
(-0.0493363 0.00490939 0)
(-0.0509444 0.00472623 0)
(-0.0524736 0.00450402 0)
(-0.0539115 0.004242 0)
(-0.0552457 0.0039398 0)
(-0.0564641 0.00359745 0)
(-0.0575548 0.00321547 0)
(-0.0585063 0.0027948 0)
(-0.0593079 0.0023369 0)
(-0.0599495 0.00184369 0)
(-0.0604216 0.00131762 0)
(-0.060716 0.00076161 0)
(-0.0608255 0.000179056 0)
(-0.0607438 -0.000426175 0)
(-0.0604661 -0.00104979 0)
(-0.059989 -0.0016871 0)
(-0.0593104 -0.00233303 0)
(-0.0584296 -0.00298222 0)
(-0.0573475 -0.00362904 0)
(-0.0560666 -0.00426766 0)
(-0.0545911 -0.00489213 0)
(-0.0529264 -0.00549642 0)
(-0.05108 -0.00607452 0)
(-0.0490605 -0.00662052 0)
(-0.0468782 -0.00712868 0)
(-0.0445449 -0.00759352 0)
(-0.0420738 -0.00800991 0)
(-0.0394794 -0.00837314 0)
(-0.0367771 -0.00867902 0)
(-0.0339839 -0.00892393 0)
(-0.0311173 -0.00910493 0)
(-0.0281957 -0.00921978 0)
(-0.025238 -0.00926703 0)
(-0.0222638 -0.00924604 0)
(-0.0192926 -0.009157 0)
(-0.016344 -0.00900099 0)
(-0.0134375 -0.00877993 0)
(-0.010592 -0.00849657 0)
(-0.00782575 -0.00815448 0)
(-0.00515636 -0.00775797 0)
(-0.00260021 -0.00731205 0)
(-0.00017245 -0.00682229 0)
(0.00211318 -0.00629481 0)
(0.00424452 -0.00573604 0)
(0.00621111 -0.00515279 0)
(0.00800436 -0.00455193 0)
(0.00961753 -0.00394037 0)
(0.0110458 -0.00332493 0)
(0.0122864 -0.00271218 0)
(0.0133383 -0.00210835 0)
(0.0142024 -0.00151923 0)
(0.0148816 -0.000950088 0)
(0.0153802 -0.000405565 0)
(0.0157041 0.000110343 0)
(0.0158606 0.000594322 0)
(0.0158582 0.00104376 0)
(0.0157065 0.00145671 0)
(0.0154158 0.00183187 0)
(0.0149972 0.00216851 0)
(0.0144623 0.00246635 0)
(0.0138229 0.00272551 0)
(0.0130913 0.00294629 0)
(0.0122799 0.00312908 0)
(0.0114011 0.00327414 0)
(0.0104676 0.00338139 0)
(0.00949226 0.00345028 0)
(0.00848824 0.00347952 0)
(0.00746906 0.00346694 0)
(0.00644881 0.00340941 0)
(0.0054423 0.00330276 0)
(0.00446523 0.00314196 0)
(0.00353426 0.00292139 0)
(0.00266718 0.00263562 0)
(0.00188305 0.00228055 0)
(0.0012017 0.0018553 0)
(0.000642835 0.0013648 0)
(0.000235466 0.000823224 0)
(3.72367e-05 0.000261614 0)
(4.01455e-06 -9.91699e-05 0)
(6.60285e-06 -0.000174788 0)
(-9.30036e-06 -0.000161401 0)
(-5.62738e-05 -8.44014e-05 0)
(-0.000142353 3.63259e-05 0)
(-0.000272372 0.00018482 0)
(-0.000448924 0.000348715 0)
(-0.000672948 0.000518901 0)
(-0.000944217 0.00068902 0)
(-0.00126176 0.000855016 0)
(-0.00162423 0.00101469 0)
(-0.00203016 0.00116732 0)
(-0.00247822 0.00131325 0)
(-0.00296735 0.00145362 0)
(-0.00349692 0.0015901 0)
(-0.00406675 0.00172463 0)
(-0.00467719 0.00185928 0)
(-0.00532907 0.00199607 0)
(-0.00602367 0.00213689 0)
(-0.00676272 0.00228341 0)
(-0.00754826 0.00243705 0)
(-0.00838262 0.00259892 0)
(-0.00926832 0.0027698 0)
(-0.010208 0.00295019 0)
(-0.0112043 0.00314027 0)
(-0.0122597 0.00333992 0)
(-0.0133768 0.00354877 0)
(-0.0145577 0.0037662 0)
(-0.0158045 0.00399134 0)
(-0.0171188 0.00422312 0)
(-0.0185017 0.00446026 0)
(-0.0199539 0.0047013 0)
(-0.0214758 0.00494458 0)
(-0.023067 0.00518826 0)
(-0.0247264 0.00543033 0)
(-0.0264524 0.00566862 0)
(-0.0282427 0.00590075 0)
(-0.0300941 0.0061242 0)
(-0.0320026 0.00633628 0)
(-0.0339635 0.00653414 0)
(-0.0359712 0.00671482 0)
(-0.0380192 0.00687521 0)
(-0.0401001 0.00701214 0)
(-0.0422057 0.00712237 0)
(-0.044327 0.00720265 0)
(-0.0464541 0.00724974 0)
(-0.0485764 0.00726049 0)
(-0.0506825 0.00723185 0)
(-0.0527605 0.00716096 0)
(-0.0547979 0.00704518 0)
(-0.0567817 0.00688215 0)
(-0.0586987 0.00666985 0)
(-0.0605353 0.00640665 0)
(-0.0622781 0.00609135 0)
(-0.0639134 0.00572324 0)
(-0.0654278 0.00530212 0)
(-0.0668084 0.00482836 0)
(-0.0680424 0.0043029 0)
(-0.0691177 0.00372727 0)
(-0.0700232 0.00310364 0)
(-0.0707481 0.00243477 0)
(-0.0712829 0.00172407 0)
(-0.0716191 0.000975501 0)
(-0.0717492 0.000193652 0)
(-0.0716672 -0.000616351 0)
(-0.0713682 -0.00144888 0)
(-0.0708488 -0.0022978 0)
(-0.070107 -0.00315659 0)
(-0.0691425 -0.00401834 0)
(-0.0679563 -0.00487585 0)
(-0.0665511 -0.00572169 0)
(-0.0649314 -0.00654831 0)
(-0.063103 -0.00734806 0)
(-0.0610736 -0.00811335 0)
(-0.0588522 -0.00883671 0)
(-0.0564496 -0.00951087 0)
(-0.0538781 -0.0101289 0)
(-0.0511513 -0.0106843 0)
(-0.0482844 -0.0111711 0)
(-0.0452935 -0.0115838 0)
(-0.0421963 -0.011918 0)
(-0.0390112 -0.0121696 0)
(-0.0357577 -0.0123358 0)
(-0.0324559 -0.0124145 0)
(-0.0291263 -0.0124048 0)
(-0.0257901 -0.0123067 0)
(-0.0224683 -0.0121212 0)
(-0.0191819 -0.0118506 0)
(-0.0159516 -0.0114981 0)
(-0.0127976 -0.0110681 0)
(-0.00973924 -0.0105657 0)
(-0.00679501 -0.00999703 0)
(-0.00398208 -0.00936909 0)
(-0.00131623 -0.00868944 0)
(0.00118826 -0.00796621 0)
(0.0035189 -0.00720796 0)
(0.00566511 -0.00642348 0)
(0.0076182 -0.00562164 0)
(0.00937157 -0.00481126 0)
(0.0109207 -0.00400093 0)
(0.012263 -0.00319888 0)
(0.0133983 -0.00241281 0)
(0.014328 -0.00164983 0)
(0.0150556 -0.000916292 0)
(0.0155864 -0.000217779 0)
(0.0159273 0.000440986 0)
(0.0160864 0.00105615 0)
(0.0160735 0.0016247 0)
(0.0158992 0.00214447 0)
(0.0155751 0.00261401 0)
(0.0151135 0.00303251 0)
(0.0145273 0.00339967 0)
(0.0138299 0.00371549 0)
(0.0130349 0.00398014 0)
(0.0121562 0.00419366 0)
(0.0112082 0.00435578 0)
(0.0102053 0.00446569 0)
(0.00916216 0.00452173 0)
(0.00809409 0.00452127 0)
(0.0070168 0.00446056 0)
(0.0059467 0.00433466 0)
(0.00490107 0.0041376 0)
(0.00389816 0.00386272 0)
(0.00295749 0.00350336 0)
(0.00210018 0.00305398 0)
(0.00134869 0.00251182 0)
(0.000726196 0.00187903 0)
(0.000267829 0.00116536 0)
(4.27603e-05 0.000393538 0)
(1.34126e-06 -9.98772e-05 0)
(-1.06259e-05 -0.00015772 0)
(-5.6705e-05 -0.000113237 0)
(-0.000145351 3.85755e-06 0)
(-0.000282662 0.000170405 0)
(-0.00047229 0.000367923 0)
(-0.000715773 0.000582192 0)
(-0.00101319 0.000802777 0)
(-0.00136365 0.00102246 0)
(-0.00176575 0.00123669 0)
(-0.00221784 0.0014431 0)
(-0.00271833 0.00164103 0)
(-0.00326587 0.0018311 0)
(-0.00385952 0.00201483 0)
(-0.00449882 0.00219437 0)
(-0.00518387 0.00237217 0)
(-0.0059153 0.00255083 0)
(-0.00669432 0.00273286 0)
(-0.0075226 0.00292062 0)
(-0.00840224 0.00311615 0)
(-0.0093357 0.00332117 0)
(-0.0103257 0.00353703 0)
(-0.0113751 0.00376465 0)
(-0.0124869 0.00400458 0)
(-0.0136641 0.00425694 0)
(-0.0149094 0.00452152 0)
(-0.0162255 0.00479773 0)
(-0.0176149 0.00508468 0)
(-0.0190794 0.00538115 0)
(-0.0206208 0.00568566 0)
(-0.0222401 0.00599645 0)
(-0.0239378 0.0063115 0)
(-0.025714 0.00662857 0)
(-0.0275678 0.00694517 0)
(-0.0294978 0.00725858 0)
(-0.0315016 0.00756587 0)
(-0.0335762 0.00786386 0)
(-0.0357176 0.0081492 0)
(-0.0379209 0.00841833 0)
(-0.0401803 0.00866751 0)
(-0.042489 0.00889286 0)
(-0.0448393 0.00909038 0)
(-0.0472226 0.00925598 0)
(-0.0496292 0.00938555 0)
(-0.0520489 0.00947498 0)
(-0.0544701 0.00952025 0)
(-0.056881 0.00951745 0)
(-0.0592688 0.0094629 0)
(-0.0616201 0.00935315 0)
(-0.0639212 0.00918509 0)
(-0.0661578 0.00895602 0)
(-0.0683156 0.00866368 0)
(-0.0703799 0.00830633 0)
(-0.0723362 0.00788279 0)
(-0.07417 0.00739252 0)
(-0.0758674 0.00683561 0)
(-0.0774144 0.00621286 0)
(-0.0787981 0.00552577 0)
(-0.0800058 0.00477657 0)
(-0.0810259 0.00396824 0)
(-0.0818476 0.00310448 0)
(-0.082461 0.00218971 0)
(-0.0828575 0.00122905 0)
(-0.0830296 0.000228317 0)
(-0.082971 -0.000806057 0)
(-0.0826769 -0.00186706 0)
(-0.0821439 -0.00294712 0)
(-0.0813699 -0.0040382 0)
(-0.0803545 -0.00513185 0)
(-0.0790987 -0.00621929 0)
(-0.0776052 -0.00729148 0)
(-0.0758784 -0.00833924 0)
(-0.0739241 -0.00935331 0)
(-0.0717499 -0.0103245 0)
(-0.0693649 -0.0112436 0)
(-0.06678 -0.012102 0)
(-0.0640075 -0.0128912 0)
(-0.0610612 -0.0136031 0)
(-0.0579565 -0.0142305 0)
(-0.05471 -0.0147667 0)
(-0.0513398 -0.0152059 0)
(-0.047865 -0.0155433 0)
(-0.0443057 -0.0157749 0)
(-0.0406829 -0.0158983 0)
(-0.0370184 -0.0159117 0)
(-0.0333342 -0.015815 0)
(-0.0296529 -0.0156092 0)
(-0.0259971 -0.0152967 0)
(-0.022389 -0.0148809 0)
(-0.0188505 -0.0143669 0)
(-0.0154031 -0.0137606 0)
(-0.0120672 -0.0130693 0)
(-0.00886187 -0.0123011 0)
(-0.00580521 -0.0114652 0)
(-0.00291361 -0.0105713 0)
(-0.000201697 -0.00962973 0)
(0.00231777 -0.00865129 0)
(0.00463407 -0.00764688 0)
(0.00673858 -0.00662744 0)
(0.0086249 -0.0056037 0)
(0.0102888 -0.00458603 0)
(0.0117284 -0.00358425 0)
(0.0129439 -0.0026075 0)
(0.0139375 -0.00166408 0)
(0.0147136 -0.000761372 0)
(0.0152783 9.42363e-05 0)
(0.0156394 0.0008974 0)
(0.0158064 0.00164381 0)
(0.0157899 0.00233017 0)
(0.0156018 0.00295409 0)
(0.015255 0.00351401 0)
(0.014763 0.00400899 0)
(0.0141401 0.00443858 0)
(0.0134011 0.00480254 0)
(0.0125612 0.00510061 0)
(0.0116359 0.00533222 0)
(0.0106412 0.00549621 0)
(0.00959321 0.00559056 0)
(0.00850874 0.00561217 0)
(0.007405 0.00555668 0)
(0.00629993 0.00541838 0)
(0.0052123 0.00519036 0)
(0.00416195 0.00486482 0)
(0.00317016 0.00443361 0)
(0.00226016 0.00388927 0)
(0.00145703 0.00322633 0)
(0.000787264 0.00244303 0)
(0.000291128 0.00154321 0)
(4.65681e-05 0.000539938 0)
(-1.61749e-06 -9.108e-05 0)
(-2.99345e-05 -0.000115497 0)
(-0.000110032 -2.67793e-05 0)
(-0.000245563 0.000141522 0)
(-0.000440249 0.000363347 0)
(-0.000696274 0.000618003 0)
(-0.00101387 0.000889671 0)
(-0.00139206 0.00116684 0)
(-0.00182915 0.00144164 0)
(-0.00232319 0.00170926 0)
(-0.00287216 0.00196733 0)
(-0.00347431 0.0022154 0)
(-0.00412828 0.00245449 0)
(-0.00483323 0.00268662 0)
(-0.00558894 0.00291449 0)
(-0.00639579 0.00314116 0)
(-0.00725481 0.00336978 0)
(-0.00816757 0.00360341 0)
(-0.00913618 0.00384485 0)
(-0.0101632 0.00409656 0)
(-0.0112515 0.00436056 0)
(-0.0124042 0.00463839 0)
(-0.0136246 0.00493109 0)
(-0.014916 0.0052392 0)
(-0.0162817 0.00556279 0)
(-0.0177247 0.00590144 0)
(-0.0192478 0.00625432 0)
(-0.0208536 0.00662018 0)
(-0.022544 0.00699737 0)
(-0.0243206 0.0073839 0)
(-0.0261844 0.00777745 0)
(-0.0281357 0.00817536 0)
(-0.0301739 0.00857469 0)
(-0.0322979 0.00897217 0)
(-0.0345056 0.00936429 0)
(-0.0367941 0.00974724 0)
(-0.0391595 0.0101169 0)
(-0.0415969 0.0104691 0)
(-0.0441003 0.0107992 0)
(-0.046663 0.0111025 0)
(-0.0492771 0.0113741 0)
(-0.0519335 0.0116091 0)
(-0.0546224 0.0118024 0)
(-0.0573328 0.011949 0)
(-0.0600531 0.0120439 0)
(-0.0627707 0.0120823 0)
(-0.0654721 0.0120596 0)
(-0.0681435 0.0119715 0)
(-0.0707703 0.0118139 0)
(-0.0733376 0.0115835 0)