/*--------------------------------*- C++ -*----------------------------------*\
| =========                 |                                                 |
| \\      /  F ield         | OpenFOAM: The Open Source CFD Toolbox           |
|  \\    /   O peration     | Version:  2112                                  |
|   \\  /    A nd           | Website:  www.openfoam.com                      |
|    \\/     M anipulation  |                                                 |
\*---------------------------------------------------------------------------*/
FoamFile
{
    version     2.0;
    format      ascii;
    arch        "LSB;label=32;scalar=64";
    class       volScalarField;
    location    "3";
    object      p;
}
// * * * * * * * * * * * * * * * * * * * * * * * * * * * * * * * * * * * * * //

dimensions      [0 2 -2 0 0 0 0];

internalField   nonuniform List<scalar> 
25600
(
-2.5262e-14
-4.60393e-14
-5.13291e-14
-5.21222e-14
-5.25616e-14
-5.26618e-14
-5.24297e-14
-5.20292e-14
-5.15583e-14
-5.10436e-14
-5.05638e-14
-5.00468e-14
-4.95776e-14
-4.91451e-14
-4.86603e-14
-4.82431e-14
-4.77937e-14
-4.7226e-14
-4.67662e-14
-4.63775e-14
-4.60907e-14
-4.57692e-14
-4.53671e-14
-4.50281e-14
-4.47644e-14
-4.46094e-14
-4.44923e-14
-4.42813e-14
-4.40611e-14
-4.39913e-14
-4.39485e-14
-4.38775e-14
-4.37278e-14
-4.35761e-14
-4.35219e-14
-4.34746e-14
-4.33922e-14
-4.32416e-14
-4.30998e-14
-4.30671e-14
-4.28996e-14
-4.28032e-14
-4.26694e-14
-4.25684e-14
-4.25734e-14
-4.2415e-14
-4.23382e-14
-4.22804e-14
-4.21583e-14
-4.2072e-14
-4.2045e-14
-4.21784e-14
-4.22158e-14
-4.22906e-14
-4.24176e-14
-4.23823e-14
-4.25647e-14
-4.27169e-14
-4.28538e-14
-4.31267e-14
-4.3282e-14
-4.35644e-14
-4.37416e-14
-4.39143e-14
-4.42097e-14
-4.44446e-14
-4.48692e-14
-4.53134e-14
-4.57996e-14
-4.62736e-14
-4.66304e-14
-4.70088e-14
-4.74447e-14
-4.78754e-14
-4.83903e-14
-4.87229e-14
-4.9168e-14
-4.97747e-14
-5.02107e-14
-5.06539e-14
-5.099e-14
-5.14053e-14
-5.20729e-14
-5.26731e-14
-5.31155e-14
-5.33902e-14
-5.36772e-14
-5.43117e-14
-5.49941e-14
-5.55014e-14
-5.57181e-14
-5.59877e-14
-5.66614e-14
-5.74589e-14
-5.78814e-14
-5.83038e-14
-5.90341e-14
-5.96914e-14
-6.03488e-14
-6.07335e-14
-6.10012e-14
-6.17633e-14
-6.24038e-14
-6.31047e-14
-6.36204e-14
-6.40496e-14
-6.462e-14
-6.54141e-14
-6.61823e-14
-6.67395e-14
-6.72841e-14
-6.77066e-14
-6.87356e-14
-6.97096e-14
-7.01642e-14
-7.06707e-14
-7.13815e-14
-7.24293e-14
-7.33992e-14
-7.41297e-14
-7.48253e-14
-7.56902e-14
-7.68626e-14
-7.80645e-14
-7.88371e-14
-7.94696e-14
-8.02465e-14
-8.14154e-14
-8.25456e-14
-8.32055e-14
-8.3882e-14
-8.483e-14
-8.60499e-14
-8.71396e-14
-8.79672e-14
-8.89271e-14
-8.99512e-14
-9.10362e-14
-9.20565e-14
-9.27987e-14
-9.35989e-14
-9.44148e-14
-9.53161e-14
-9.61717e-14
-9.68843e-14
-9.77075e-14
-9.83721e-14
-9.92128e-14
-1.00135e-13
-1.01113e-13
-1.02022e-13
-1.02496e-13
-1.03253e-13
-1.04434e-13
-1.05365e-13
-1.06022e-13
-1.06489e-13
-1.07143e-13
-1.08019e-13
-1.08667e-13
-1.09244e-13
-1.09427e-13
-1.09997e-13
-1.1075e-13
-1.11148e-13
-1.11824e-13
-1.12143e-13
-1.12541e-13
-1.13291e-13
-1.13744e-13
-1.14152e-13
-1.14237e-13
-1.14663e-13
-1.1512e-13
-1.15437e-13
-1.1593e-13
-1.16279e-13
-1.16858e-13
-1.1689e-13
-1.17036e-13
-1.17553e-13
-1.17489e-13
-1.17867e-13
-1.18234e-13
-1.18505e-13
-1.19088e-13
-1.19006e-13
-1.1932e-13
-1.19682e-13
-1.19595e-13
-1.20094e-13
-1.20292e-13
-1.20449e-13
-1.20952e-13
-1.20784e-13
-1.20833e-13
-1.2094e-13
-1.21398e-13
-1.21837e-13
-1.21415e-13
-1.21482e-13
-1.2162e-13
-1.22058e-13
-1.22515e-13
-1.22017e-13
-1.21844e-13
-1.22202e-13
-1.22782e-13
-1.22818e-13
-1.22183e-13
-1.2186e-13
-1.22224e-13
-1.22884e-13
-1.22364e-13
-1.21865e-13
-1.22497e-13
-1.22205e-13
-1.21523e-13
-1.21351e-13
-1.21534e-13
-1.22103e-13
-1.21587e-13
-1.20647e-13
-1.20337e-13
-1.20366e-13
-1.20814e-13
-1.20176e-13
-1.19452e-13
-1.19232e-13
-1.18906e-13
-1.19041e-13
-1.18553e-13
-1.18106e-13
-1.1776e-13
-1.17089e-13
-1.16999e-13
-1.16557e-13
-1.1587e-13
-1.15248e-13
-1.14519e-13
-1.14413e-13
-1.1368e-13
-1.12962e-13
-1.12351e-13
-1.11351e-13
-1.11115e-13
-1.10943e-13
-1.10351e-13
-1.09314e-13
-1.0832e-13
-1.08143e-13
-1.07345e-13
-1.06395e-13
-1.05549e-13
-1.04482e-13
-1.04176e-13
-1.03278e-13
-1.02277e-13
-1.01369e-13
-1.00167e-13
-9.97697e-14
-9.89262e-14
-9.79052e-14
-9.70006e-14
-9.60045e-14
-9.55502e-14
-9.45646e-14
-9.33468e-14
-9.21869e-14
-9.11604e-14
-9.06369e-14
-8.97015e-14
-8.86295e-14
-8.76169e-14
-8.65785e-14
-8.58719e-14
-8.48294e-14
-8.36979e-14
-8.29077e-14
-8.17957e-14
-8.09157e-14
-7.99811e-14
-7.87916e-14
-7.78265e-14
-7.67978e-14
-7.62323e-14
-7.57903e-14
-7.47145e-14
-7.35319e-14
-7.28112e-14
-7.26386e-14
-7.20673e-14
-7.10756e-14
-7.0231e-14
-6.99918e-14
-6.97683e-14
-6.88728e-14
-6.81175e-14
-6.71885e-14
-6.6863e-14
-6.67211e-14
-6.58922e-14
-6.50823e-14
-6.39613e-14
-6.32655e-14
-6.3046e-14
-6.2619e-14
-6.21746e-14
-6.11632e-14
-6.0648e-14
-6.01905e-14
-5.97463e-14
-5.96565e-14
-5.88248e-14
-5.81216e-14
-5.76973e-14
-5.66278e-14
-5.53042e-14
-5.32447e-14
-4.68324e-14
-4.63133e-14
-4.97509e-14
-5.11778e-14
-5.17395e-14
-5.22518e-14
-5.23782e-14
-5.2188e-14
-5.17797e-14
-5.13008e-14
-5.08061e-14
-5.04105e-14
-4.99491e-14
-4.94919e-14
-4.90856e-14
-4.86197e-14
-4.82094e-14
-4.77956e-14
-4.7175e-14
-4.67249e-14
-4.63773e-14
-4.60651e-14
-4.57477e-14
-4.52937e-14
-4.50698e-14
-4.48153e-14
-4.45916e-14
-4.4372e-14
-4.42354e-14
-4.41118e-14
-4.40293e-14
-4.39183e-14
-4.38071e-14
-4.37559e-14
-4.3604e-14
-4.34565e-14
-4.34488e-14
-4.33942e-14
-4.32356e-14
-4.30872e-14
-4.29777e-14
-4.29005e-14
-4.28235e-14
-4.26847e-14
-4.2569e-14
-4.25293e-14
-4.24647e-14
-4.23208e-14
-4.22537e-14
-4.21608e-14
-4.20351e-14
-4.21257e-14
-4.21205e-14
-4.21894e-14
-4.2175e-14
-4.23268e-14
-4.24891e-14
-4.26083e-14
-4.2635e-14
-4.27759e-14
-4.3078e-14
-4.33478e-14
-4.35502e-14
-4.3743e-14
-4.38668e-14
-4.41535e-14
-4.44507e-14
-4.48519e-14
-4.53055e-14
-4.58102e-14
-4.62534e-14
-4.66762e-14
-4.70415e-14
-4.74129e-14
-4.78902e-14
-4.82966e-14
-4.87602e-14
-4.9256e-14
-4.97313e-14
-5.01492e-14
-5.05949e-14
-5.10676e-14
-5.1548e-14
-5.21062e-14
-5.26351e-14
-5.30349e-14
-5.34022e-14
-5.38879e-14
-5.43635e-14
-5.47681e-14
-5.53878e-14
-5.57662e-14
-5.61711e-14
-5.66752e-14
-5.72713e-14
-5.79308e-14
-5.85509e-14
-5.91263e-14
-5.96448e-14
-6.01508e-14
-6.06395e-14
-6.12197e-14
-6.18469e-14
-6.23903e-14
-6.29326e-14
-6.35755e-14
-6.41398e-14
-6.47391e-14
-6.52896e-14
-6.60964e-14
-6.68119e-14
-6.73084e-14
-6.79124e-14
-6.85992e-14
-6.94834e-14
-7.017e-14
-7.08566e-14
-7.14313e-14
-7.22578e-14
-7.32858e-14
-7.40924e-14
-7.48642e-14
-7.58e-14
-7.68414e-14
-7.79104e-14
-7.88248e-14
-7.95779e-14
-8.02943e-14
-8.14152e-14
-8.24546e-14
-8.31947e-14
-8.39228e-14
-8.48573e-14
-8.59391e-14
-8.70846e-14
-8.80206e-14
-8.89764e-14
-8.99797e-14
-9.10311e-14
-9.20958e-14
-9.28487e-14
-9.35879e-14
-9.44043e-14
-9.52897e-14
-9.61898e-14
-9.69101e-14
-9.76734e-14
-9.84681e-14
-9.94005e-14
-1.00092e-13
-1.00923e-13
-1.0191e-13
-1.02704e-13
-1.035e-13
-1.04416e-13
-1.05257e-13
-1.05938e-13
-1.06557e-13
-1.07215e-13
-1.08006e-13
-1.08617e-13
-1.09156e-13
-1.09492e-13
-1.10062e-13
-1.10733e-13
-1.11216e-13
-1.11779e-13
-1.12292e-13
-1.12646e-13
-1.13179e-13
-1.13661e-13
-1.14054e-13
-1.14398e-13
-1.14747e-13
-1.15194e-13
-1.15643e-13
-1.15751e-13
-1.16206e-13
-1.16702e-13
-1.16972e-13
-1.17253e-13
-1.17318e-13
-1.17557e-13
-1.17965e-13
-1.18338e-13
-1.18594e-13
-1.1885e-13
-1.19055e-13
-1.19334e-13
-1.19653e-13
-1.1986e-13
-1.20037e-13
-1.20261e-13
-1.20488e-13
-1.20756e-13
-1.20916e-13
-1.20943e-13
-1.21081e-13
-1.21237e-13
-1.2144e-13
-1.21653e-13
-1.21688e-13
-1.21797e-13
-1.21939e-13
-1.22098e-13
-1.22239e-13
-1.22268e-13
-1.22349e-13
-1.22416e-13
-1.22443e-13
-1.22377e-13
-1.22351e-13
-1.22382e-13
-1.22482e-13
-1.22332e-13
-1.2216e-13
-1.22079e-13
-1.2196e-13
-1.21977e-13
-1.21715e-13
-1.21593e-13
-1.21616e-13
-1.21323e-13
-1.2098e-13
-1.20718e-13
-1.20425e-13
-1.20411e-13
-1.19991e-13
-1.19504e-13
-1.19276e-13
-1.19059e-13
-1.1897e-13
-1.18613e-13
-1.1824e-13
-1.17754e-13
-1.17192e-13
-1.16766e-13
-1.16483e-13
-1.16094e-13
-1.15435e-13
-1.14635e-13
-1.14126e-13
-1.13614e-13
-1.13075e-13
-1.12407e-13
-1.11646e-13
-1.11194e-13
-1.10699e-13
-1.10115e-13
-1.09356e-13
-1.08609e-13
-1.08123e-13
-1.07321e-13
-1.06345e-13
-1.05486e-13
-1.0475e-13
-1.04233e-13
-1.03183e-13
-1.02142e-13
-1.01301e-13
-1.00331e-13
-9.96827e-14
-9.88004e-14
-9.79866e-14
-9.69944e-14
-9.61839e-14
-9.54605e-14
-9.43226e-14
-9.34261e-14
-9.23455e-14
-9.11888e-14
-9.0465e-14
-8.95097e-14
-8.87151e-14
-8.7671e-14
-8.65966e-14
-8.58571e-14
-8.48007e-14
-8.39366e-14
-8.29226e-14
-8.17243e-14
-8.08526e-14
-7.98238e-14
-7.89035e-14
-7.78934e-14
-7.68153e-14
-7.62839e-14
-7.54979e-14
-7.45436e-14
-7.36688e-14
-7.28977e-14
-7.2481e-14
-7.18069e-14
-7.10549e-14
-7.05986e-14
-7.00048e-14
-6.94501e-14
-6.88911e-14
-6.81015e-14
-6.74632e-14
-6.68478e-14
-6.64283e-14
-6.58635e-14
-6.49913e-14
-6.41495e-14
-6.3488e-14
-6.3135e-14
-6.247e-14
-6.17933e-14
-6.1108e-14
-6.06212e-14
-6.01226e-14
-5.96155e-14
-5.92278e-14
-5.87446e-14
-5.80577e-14
-5.72195e-14
-5.62653e-14
-5.49577e-14
-5.31989e-14
-5.07568e-14
-5.00306e-14
-5.05053e-14
-5.13236e-14
-5.17792e-14
-5.21674e-14
-5.22093e-14
-5.19043e-14
-5.15608e-14
-5.11356e-14
-5.06051e-14
-5.02151e-14
-4.97573e-14
-4.94375e-14
-4.9107e-14
-4.85669e-14
-4.83215e-14
-4.7727e-14
-4.7277e-14
-4.67261e-14
-4.6222e-14
-4.60439e-14
-4.57145e-14
-4.52195e-14
-4.50725e-14
-4.48255e-14
-4.45563e-14
-4.42374e-14
-4.43147e-14
-4.41188e-14
-4.41175e-14
-4.3964e-14
-4.37403e-14
-4.36717e-14
-4.35798e-14
-4.35389e-14
-4.35404e-14
-4.34274e-14
-4.33354e-14
-4.29925e-14
-4.28549e-14
-4.28754e-14
-4.29302e-14
-4.26991e-14
-4.26252e-14
-4.24981e-14
-4.23937e-14
-4.22884e-14
-4.22916e-14
-4.22086e-14
-4.20675e-14
-4.20795e-14
-4.19793e-14
-4.2175e-14
-4.21216e-14
-4.2389e-14
-4.25416e-14
-4.25234e-14
-4.25485e-14
-4.27573e-14
-4.31142e-14
-4.3366e-14
-4.34783e-14
-4.3613e-14
-4.37493e-14
-4.4027e-14
-4.44509e-14
-4.47982e-14
-4.53053e-14
-4.58818e-14
-4.62665e-14
-4.66786e-14
-4.71109e-14
-4.74278e-14
-4.77908e-14
-4.84522e-14
-4.87878e-14
-4.92902e-14
-4.96659e-14
-5.014e-14
-5.0576e-14
-5.10381e-14
-5.16811e-14
-5.20425e-14
-5.26703e-14
-5.29958e-14
-5.34328e-14
-5.40598e-14
-5.44166e-14
-5.47878e-14
-5.54205e-14
-5.5779e-14
-5.6228e-14
-5.66196e-14
-5.71311e-14
-5.80414e-14
-5.86674e-14
-5.91577e-14
-5.96784e-14
-6.01476e-14
-6.06539e-14
-6.12892e-14
-6.19102e-14
-6.23331e-14
-6.29337e-14
-6.35723e-14
-6.42153e-14
-6.48081e-14
-6.53375e-14
-6.60651e-14
-6.67586e-14
-6.73276e-14
-6.79418e-14
-6.85131e-14
-6.93675e-14
-7.02355e-14
-7.08863e-14
-7.14449e-14
-7.22311e-14
-7.31419e-14
-7.41389e-14
-7.4887e-14
-7.58379e-14
-7.68358e-14
-7.77276e-14
-7.87367e-14
-7.96674e-14
-8.04729e-14
-8.14587e-14
-8.23642e-14
-8.30032e-14
-8.38809e-14
-8.49495e-14
-8.59285e-14
-8.69818e-14
-8.80458e-14
-8.90512e-14
-9.00111e-14
-9.10815e-14
-9.21177e-14
-9.28537e-14
-9.36149e-14
-9.44038e-14
-9.52977e-14
-9.62644e-14
-9.69268e-14
-9.7735e-14
-9.85146e-14
-9.94897e-14
-1.00117e-13
-1.00812e-13
-1.01826e-13
-1.02782e-13
-1.03682e-13
-1.04532e-13
-1.05134e-13
-1.0593e-13
-1.06553e-13
-1.07264e-13
-1.07993e-13
-1.08573e-13
-1.09054e-13
-1.09513e-13
-1.10253e-13
-1.10821e-13
-1.1128e-13
-1.11784e-13
-1.12286e-13
-1.1263e-13
-1.13078e-13
-1.13666e-13
-1.14077e-13
-1.14341e-13
-1.14717e-13
-1.15239e-13
-1.15734e-13
-1.15989e-13
-1.16279e-13
-1.16463e-13
-1.16918e-13
-1.17412e-13
-1.17412e-13
-1.17627e-13
-1.18019e-13
-1.18291e-13
-1.18522e-13
-1.18785e-13
-1.19157e-13
-1.19422e-13
-1.19696e-13
-1.20017e-13
-1.20053e-13
-1.20211e-13
-1.20415e-13
-1.20798e-13
-1.21077e-13
-1.21038e-13
-1.21078e-13
-1.21181e-13
-1.213e-13
-1.2173e-13
-1.21783e-13
-1.21877e-13
-1.21998e-13
-1.21987e-13
-1.22354e-13
-1.22431e-13
-1.22483e-13
-1.2242e-13
-1.22313e-13
-1.22376e-13
-1.22577e-13
-1.22493e-13
-1.22304e-13
-1.22354e-13
-1.22247e-13
-1.21996e-13
-1.21973e-13
-1.22186e-13
-1.21916e-13
-1.21573e-13
-1.21443e-13
-1.21193e-13
-1.21154e-13
-1.20867e-13
-1.20529e-13
-1.20175e-13
-1.19867e-13
-1.19617e-13
-1.19371e-13
-1.19121e-13
-1.18959e-13
-1.18583e-13
-1.18267e-13
-1.17793e-13
-1.17448e-13
-1.16801e-13
-1.16514e-13
-1.16141e-13
-1.15455e-13
-1.146e-13
-1.14173e-13
-1.13684e-13
-1.13017e-13
-1.12405e-13
-1.11938e-13
-1.11266e-13
-1.10617e-13
-1.10003e-13
-1.09381e-13
-1.08638e-13
-1.08063e-13
-1.07304e-13
-1.06551e-13
-1.0566e-13
-1.0486e-13
-1.04111e-13
-1.03194e-13
-1.02157e-13
-1.01314e-13
-1.00413e-13
-9.94091e-14
-9.86697e-14
-9.80968e-14
-9.72133e-14
-9.62761e-14
-9.52168e-14
-9.42214e-14
-9.34539e-14
-9.24349e-14
-9.11972e-14
-9.03387e-14
-8.95465e-14
-8.8767e-14
-8.76736e-14
-8.66517e-14
-8.58662e-14
-8.48061e-14
-8.3873e-14
-8.29027e-14
-8.16271e-14
-8.09312e-14
-7.9787e-14
-7.88642e-14
-7.79487e-14
-7.68148e-14
-7.61891e-14
-7.53721e-14
-7.43897e-14
-7.36884e-14
-7.28574e-14
-7.24873e-14
-7.18443e-14
-7.1119e-14
-7.0582e-14
-6.99035e-14
-6.94259e-14
-6.89587e-14
-6.81244e-14
-6.74176e-14
-6.68507e-14
-6.62902e-14
-6.57965e-14
-6.50735e-14
-6.43636e-14
-6.38197e-14
-6.32209e-14
-6.23924e-14
-6.15074e-14
-6.09614e-14
-6.04395e-14
-6.01191e-14
-5.94877e-14
-5.89021e-14
-5.86085e-14
-5.79111e-14
-5.70296e-14
-5.61271e-14
-5.49425e-14
-5.33762e-14
-5.17443e-14
-5.08178e-14
-5.10081e-14
-5.15095e-14
-5.18082e-14
-5.20111e-14
-5.19364e-14
-5.17622e-14
-5.14405e-14
-5.08696e-14
-5.04988e-14
-5.01802e-14
-4.96119e-14
-4.93832e-14
-4.90236e-14
-4.85755e-14
-4.82421e-14
-4.75294e-14
-4.7297e-14
-4.67398e-14
-4.61206e-14
-4.60882e-14
-4.56827e-14
-4.53042e-14
-4.50844e-14
-4.48326e-14
-4.44091e-14
-4.42542e-14
-4.42046e-14
-4.41203e-14
-4.41478e-14
-4.39207e-14
-4.38234e-14
-4.36888e-14
-4.36969e-14
-4.36253e-14
-4.3663e-14
-4.35659e-14
-4.3343e-14
-4.30418e-14
-4.28894e-14
-4.30022e-14
-4.30554e-14
-4.26609e-14
-4.26261e-14
-4.24931e-14
-4.23346e-14
-4.22681e-14
-4.23311e-14
-4.22638e-14
-4.20833e-14
-4.21844e-14
-4.19759e-14
-4.2029e-14
-4.20916e-14
-4.23611e-14
-4.25651e-14
-4.25764e-14
-4.25692e-14
-4.26407e-14
-4.30429e-14
-4.33772e-14
-4.36272e-14
-4.35308e-14
-4.35895e-14
-4.40149e-14
-4.43555e-14
-4.46914e-14
-4.51881e-14
-4.59473e-14
-4.62084e-14
-4.66187e-14
-4.71206e-14
-4.75801e-14
-4.79117e-14
-4.83988e-14
-4.88545e-14
-4.93371e-14
-4.96606e-14
-5.02168e-14
-5.05837e-14
-5.10291e-14
-5.17099e-14
-5.20813e-14
-5.27067e-14
-5.29908e-14
-5.32775e-14
-5.39962e-14
-5.44963e-14
-5.50237e-14
-5.53396e-14
-5.58435e-14
-5.61656e-14
-5.65773e-14
-5.72188e-14
-5.80335e-14
-5.85691e-14
-5.90214e-14
-5.96428e-14
-6.02476e-14
-6.08578e-14
-6.13346e-14
-6.18525e-14
-6.22959e-14
-6.28711e-14
-6.34735e-14
-6.413e-14
-6.48909e-14
-6.53387e-14
-6.60396e-14
-6.67472e-14
-6.75156e-14
-6.80094e-14
-6.85049e-14
-6.93516e-14
-7.02114e-14
-7.08431e-14
-7.17043e-14
-7.23257e-14
-7.31005e-14
-7.40755e-14
-7.50196e-14
-7.59603e-14
-7.67126e-14
-7.76078e-14
-7.87138e-14
-7.96255e-14
-8.06251e-14
-8.15005e-14
-8.21306e-14
-8.28261e-14
-8.388e-14
-8.49997e-14
-8.59471e-14
-8.69317e-14
-8.80375e-14
-8.92348e-14
-9.0177e-14
-9.11002e-14
-9.20529e-14
-9.28754e-14
-9.36433e-14
-9.45123e-14
-9.53235e-14
-9.62517e-14
-9.69758e-14
-9.76937e-14
-9.8591e-14
-9.96161e-14
-1.0015e-13
-1.00823e-13
-1.0194e-13
-1.02864e-13
-1.03541e-13
-1.04397e-13
-1.05285e-13
-1.06046e-13
-1.06748e-13
-1.07374e-13
-1.08044e-13
-1.08631e-13
-1.09138e-13
-1.09623e-13
-1.10296e-13
-1.10805e-13
-1.11278e-13
-1.11854e-13
-1.12165e-13
-1.12588e-13
-1.13164e-13
-1.13731e-13
-1.14088e-13
-1.14266e-13
-1.14762e-13
-1.1526e-13
-1.15661e-13
-1.16207e-13
-1.16424e-13
-1.16489e-13
-1.16885e-13
-1.17467e-13
-1.17605e-13
-1.17552e-13
-1.1787e-13
-1.18246e-13
-1.18504e-13
-1.18725e-13
-1.19157e-13
-1.1964e-13
-1.19794e-13
-1.20046e-13
-1.2014e-13
-1.20302e-13
-1.20471e-13
-1.20745e-13
-1.20985e-13
-1.21024e-13
-1.21119e-13
-1.21331e-13
-1.21483e-13
-1.21642e-13
-1.21854e-13
-1.21925e-13
-1.22078e-13
-1.22155e-13
-1.22295e-13
-1.22311e-13
-1.22577e-13
-1.22645e-13
-1.22416e-13
-1.22299e-13
-1.22531e-13
-1.22437e-13
-1.22408e-13
-1.2245e-13
-1.22293e-13
-1.2213e-13
-1.22145e-13
-1.22029e-13
-1.21889e-13
-1.21692e-13
-1.2162e-13
-1.21284e-13
-1.21158e-13
-1.20972e-13
-1.20446e-13
-1.19972e-13
-1.19901e-13
-1.19851e-13
-1.19509e-13
-1.18925e-13
-1.18894e-13
-1.18783e-13
-1.18243e-13
-1.17851e-13
-1.17605e-13
-1.17156e-13
-1.16552e-13
-1.1586e-13
-1.15565e-13
-1.14806e-13
-1.14061e-13
-1.13643e-13
-1.13339e-13
-1.12529e-13
-1.11789e-13
-1.11095e-13
-1.10568e-13
-1.1024e-13
-1.09391e-13
-1.08591e-13
-1.08157e-13
-1.07357e-13
-1.06464e-13
-1.05733e-13
-1.04977e-13
-1.04034e-13
-1.03206e-13
-1.02271e-13
-1.0137e-13
-1.00318e-13
-9.92274e-14
-9.87173e-14
-9.80888e-14
-9.72187e-14
-9.61501e-14
-9.5243e-14
-9.43624e-14
-9.33849e-14
-9.23424e-14
-9.1327e-14
-9.05157e-14
-8.97111e-14
-8.84913e-14
-8.75986e-14
-8.67265e-14
-8.58199e-14
-8.47229e-14
-8.38743e-14
-8.2774e-14
-8.18648e-14
-8.07204e-14
-7.98518e-14
-7.88607e-14
-7.78902e-14
-7.69345e-14
-7.58917e-14
-7.51895e-14
-7.46197e-14
-7.36321e-14
-7.26961e-14
-7.22692e-14
-7.17273e-14
-7.13223e-14
-7.0751e-14
-6.97292e-14
-6.92198e-14
-6.88832e-14
-6.84253e-14
-6.76388e-14
-6.69876e-14
-6.6257e-14
-6.57796e-14
-6.5009e-14
-6.4401e-14
-6.39125e-14
-6.31025e-14
-6.24086e-14
-6.17488e-14
-6.08854e-14
-6.04003e-14
-6.0019e-14
-5.9263e-14
-5.87726e-14
-5.8449e-14
-5.77494e-14
-5.7047e-14
-5.58676e-14
-5.46247e-14
-5.34019e-14
-5.20721e-14
-5.13966e-14
-5.16023e-14
-5.188e-14
-5.17582e-14
-5.18933e-14
-5.18739e-14
-5.17248e-14
-5.1212e-14
-5.09024e-14
-5.03393e-14
-4.992e-14
-4.96086e-14
-4.92842e-14
-4.89407e-14
-4.86538e-14
-4.80916e-14
-4.74554e-14
-4.72847e-14
-4.67404e-14
-4.61529e-14
-4.59325e-14
-4.5601e-14
-4.53776e-14
-4.50377e-14
-4.46378e-14
-4.44678e-14
-4.42955e-14
-4.41757e-14
-4.40405e-14
-4.42082e-14
-4.39086e-14
-4.39738e-14
-4.39035e-14
-4.38144e-14
-4.37405e-14
-4.35801e-14
-4.35975e-14
-4.34935e-14
-4.34092e-14
-4.31427e-14
-4.31333e-14
-4.30909e-14
-4.28341e-14
-4.2612e-14
-4.23666e-14
-4.22351e-14
-4.22421e-14
-4.23106e-14
-4.23152e-14
-4.21163e-14
-4.21294e-14
-4.2016e-14
-4.21185e-14
-4.20837e-14
-4.23292e-14
-4.24703e-14
-4.2638e-14
-4.2504e-14
-4.24568e-14
-4.29782e-14
-4.33319e-14
-4.3704e-14
-4.34103e-14
-4.35997e-14
-4.4052e-14
-4.42918e-14
-4.46082e-14
-4.51384e-14
-4.59436e-14
-4.63868e-14
-4.65382e-14
-4.71705e-14
-4.75933e-14
-4.79036e-14
-4.8312e-14
-4.89656e-14
-4.94007e-14
-4.96709e-14
-5.0057e-14
-5.057e-14
-5.10842e-14
-5.17706e-14
-5.22368e-14
-5.27648e-14
-5.30416e-14
-5.32397e-14
-5.38764e-14
-5.4416e-14
-5.51991e-14
-5.54164e-14
-5.57794e-14
-5.60327e-14
-5.6566e-14
-5.73169e-14
-5.79808e-14
-5.86043e-14
-5.91395e-14
-5.93795e-14
-6.01749e-14
-6.08461e-14
-6.13689e-14
-6.16851e-14
-6.23872e-14
-6.28528e-14
-6.34574e-14
-6.40331e-14
-6.47475e-14
-6.5299e-14
-6.61423e-14
-6.68518e-14
-6.73592e-14
-6.79239e-14
-6.86732e-14
-6.95009e-14
-7.03079e-14
-7.08045e-14
-7.17069e-14
-7.24019e-14
-7.31415e-14
-7.39474e-14
-7.49788e-14
-7.59216e-14
-7.6655e-14
-7.76808e-14
-7.88115e-14
-7.95837e-14
-8.04137e-14
-8.137e-14
-8.21522e-14
-8.2824e-14
-8.39563e-14
-8.48337e-14
-8.59667e-14
-8.70306e-14
-8.81219e-14
-8.92659e-14
-9.03809e-14
-9.11715e-14
-9.19324e-14
-9.28828e-14
-9.3859e-14
-9.4718e-14
-9.55554e-14
-9.63805e-14
-9.69978e-14
-9.78545e-14
-9.8661e-14
-9.95033e-14
-1.00212e-13
-1.01058e-13
-1.02071e-13
-1.02873e-13
-1.03422e-13
-1.043e-13
-1.05382e-13
-1.06079e-13
-1.06967e-13
-1.07531e-13
-1.08105e-13
-1.08743e-13
-1.09191e-13
-1.0977e-13
-1.1041e-13
-1.10693e-13
-1.1116e-13
-1.11774e-13
-1.1224e-13
-1.12713e-13
-1.1331e-13
-1.13596e-13
-1.14075e-13
-1.1461e-13
-1.1488e-13
-1.15265e-13
-1.15663e-13
-1.16206e-13
-1.16445e-13
-1.16632e-13
-1.16995e-13
-1.17416e-13
-1.17505e-13
-1.17519e-13
-1.17768e-13
-1.18164e-13
-1.18577e-13
-1.19029e-13
-1.19148e-13
-1.19606e-13
-1.19841e-13
-1.20051e-13
-1.20175e-13
-1.20407e-13
-1.20493e-13
-1.20785e-13
-1.20931e-13
-1.21045e-13
-1.21123e-13
-1.2128e-13
-1.21631e-13
-1.21599e-13
-1.21983e-13
-1.22111e-13
-1.22126e-13
-1.22055e-13
-1.22353e-13
-1.2229e-13
-1.2259e-13
-1.22801e-13
-1.22616e-13
-1.22364e-13
-1.2246e-13
-1.2256e-13
-1.22582e-13
-1.2247e-13
-1.22287e-13
-1.2234e-13
-1.22208e-13
-1.21947e-13
-1.21825e-13
-1.21891e-13
-1.21673e-13
-1.21318e-13
-1.21092e-13
-1.20942e-13
-1.20589e-13
-1.2014e-13
-1.1996e-13
-1.19804e-13
-1.19444e-13
-1.189e-13
-1.18928e-13
-1.18873e-13
-1.18319e-13
-1.17935e-13
-1.1785e-13
-1.17325e-13
-1.16605e-13
-1.15927e-13
-1.15547e-13
-1.1493e-13
-1.14219e-13
-1.13751e-13
-1.1337e-13
-1.12568e-13
-1.1183e-13
-1.1113e-13
-1.10554e-13
-1.10191e-13
-1.0948e-13
-1.08883e-13
-1.08165e-13
-1.0743e-13
-1.0653e-13
-1.05752e-13
-1.04828e-13
-1.04085e-13
-1.03341e-13
-1.02264e-13
-1.01338e-13
-1.00349e-13
-9.95481e-14
-9.86833e-14
-9.77605e-14
-9.71058e-14
-9.61412e-14
-9.54952e-14
-9.46196e-14
-9.33078e-14
-9.23706e-14
-9.15222e-14
-9.06511e-14
-8.9809e-14
-8.84272e-14
-8.75851e-14
-8.68633e-14
-8.56868e-14
-8.46586e-14
-8.35787e-14
-8.27991e-14
-8.19846e-14
-8.08832e-14
-7.98487e-14
-7.87695e-14
-7.76335e-14
-7.68982e-14
-7.59393e-14
-7.51227e-14
-7.45069e-14
-7.36488e-14
-7.27477e-14
-7.20896e-14
-7.17468e-14
-7.13871e-14
-7.05562e-14
-6.98351e-14
-6.92124e-14
-6.89823e-14
-6.85907e-14
-6.78751e-14
-6.69598e-14
-6.60356e-14
-6.58587e-14
-6.50802e-14
-6.43859e-14
-6.40274e-14
-6.3042e-14
-6.24415e-14
-6.1856e-14
-6.08738e-14
-6.04741e-14
-5.98096e-14
-5.91561e-14
-5.87132e-14
-5.81624e-14
-5.76861e-14
-5.68363e-14
-5.55154e-14
-5.44957e-14
-5.33839e-14
-5.23243e-14
-5.18305e-14
-5.18443e-14
-5.18337e-14
-5.17612e-14
-5.20365e-14
-5.19739e-14
-5.18499e-14
-5.13636e-14
-5.07865e-14
-5.01783e-14
-4.99796e-14
-4.97479e-14
-4.94251e-14
-4.87956e-14
-4.85349e-14
-4.80228e-14
-4.73517e-14
-4.68812e-14
-4.65739e-14
-4.62191e-14
-4.59108e-14
-4.5601e-14
-4.54731e-14
-4.4879e-14
-4.44718e-14
-4.42106e-14
-4.42895e-14
-4.41917e-14
-4.41473e-14
-4.41007e-14
-4.41344e-14
-4.42127e-14
-4.40776e-14
-4.3815e-14
-4.36304e-14
-4.37287e-14
-4.37665e-14
-4.37055e-14
-4.35183e-14
-4.31475e-14
-4.33493e-14
-4.31451e-14
-4.28631e-14
-4.25225e-14
-4.24106e-14
-4.22168e-14
-4.2076e-14
-4.23516e-14
-4.23391e-14
-4.23307e-14
-4.20752e-14
-4.19651e-14
-4.20444e-14
-4.21689e-14
-4.24034e-14
-4.22237e-14
-4.24199e-14
-4.23417e-14
-4.24675e-14
-4.27746e-14
-4.3517e-14
-4.36991e-14
-4.34684e-14
-4.34563e-14
-4.40356e-14
-4.44415e-14
-4.46926e-14
-4.51091e-14
-4.57475e-14
-4.64076e-14
-4.67191e-14
-4.72484e-14
-4.7731e-14
-4.78213e-14
-4.81797e-14
-4.9002e-14
-4.93549e-14
-4.96346e-14
-5.00789e-14
-5.06148e-14
-5.12279e-14
-5.18584e-14
-5.23758e-14
-5.25486e-14
-5.28429e-14
-5.32953e-14
-5.40064e-14
-5.45812e-14
-5.51495e-14
-5.54388e-14
-5.5799e-14
-5.61796e-14
-5.65666e-14
-5.72789e-14
-5.78947e-14
-5.8426e-14
-5.89199e-14
-5.95568e-14
-6.00274e-14
-6.09566e-14
-6.13513e-14
-6.1752e-14
-6.25059e-14
-6.28436e-14
-6.33373e-14
-6.4214e-14
-6.48153e-14
-6.55106e-14
-6.61831e-14
-6.66502e-14
-6.71962e-14
-6.81055e-14
-6.8692e-14
-6.93816e-14
-7.01942e-14
-7.08048e-14
-7.16123e-14
-7.22706e-14
-7.3156e-14
-7.37229e-14
-7.51386e-14
-7.56968e-14
-7.64873e-14
-7.76565e-14
-7.87815e-14
-7.9637e-14
-8.03848e-14
-8.13328e-14
-8.20239e-14
-8.2746e-14
-8.39344e-14
-8.50461e-14
-8.61825e-14
-8.71909e-14
-8.82421e-14
-8.9269e-14
-9.06597e-14
-9.12061e-14
-9.20949e-14
-9.30054e-14
-9.37271e-14
-9.46131e-14
-9.58377e-14
-9.65253e-14
-9.70825e-14
-9.77594e-14
-9.88238e-14
-9.98394e-14
-1.00331e-13
-1.01086e-13
-1.02021e-13
-1.0285e-13
-1.03538e-13
-1.04346e-13
-1.05415e-13
-1.06163e-13
-1.07179e-13
-1.07805e-13
-1.08201e-13
-1.08665e-13
-1.09366e-13
-1.09917e-13
-1.103e-13
-1.10948e-13
-1.11267e-13
-1.11744e-13
-1.12368e-13
-1.12829e-13
-1.13427e-13
-1.13641e-13
-1.14213e-13
-1.14751e-13
-1.14816e-13
-1.15328e-13
-1.15628e-13
-1.16142e-13
-1.16478e-13
-1.16789e-13
-1.16923e-13
-1.17268e-13
-1.17721e-13
-1.17826e-13
-1.17749e-13
-1.18029e-13
-1.18354e-13
-1.1908e-13
-1.19163e-13
-1.19861e-13
-1.19873e-13
-1.20086e-13
-1.20371e-13
-1.20434e-13
-1.2028e-13
-1.20976e-13
-1.20951e-13
-1.21013e-13
-1.21198e-13
-1.21513e-13
-1.21945e-13
-1.21682e-13
-1.21779e-13
-1.22079e-13
-1.22136e-13
-1.22171e-13
-1.22296e-13
-1.22526e-13
-1.22662e-13
-1.22859e-13
-1.22916e-13
-1.22544e-13
-1.22418e-13
-1.22487e-13
-1.22615e-13
-1.22609e-13
-1.22302e-13
-1.22262e-13
-1.2223e-13
-1.22312e-13
-1.21896e-13
-1.22057e-13
-1.21716e-13
-1.21209e-13
-1.21115e-13
-1.21022e-13
-1.20718e-13
-1.2039e-13
-1.19957e-13
-1.19527e-13
-1.19513e-13
-1.19048e-13
-1.18972e-13
-1.18817e-13
-1.18572e-13
-1.18047e-13
-1.17703e-13
-1.17511e-13
-1.16781e-13
-1.16074e-13
-1.15641e-13
-1.14848e-13
-1.14372e-13
-1.13732e-13
-1.13203e-13
-1.12756e-13
-1.12113e-13
-1.11422e-13
-1.10483e-13
-1.09954e-13
-1.09187e-13
-1.08679e-13
-1.08232e-13
-1.07742e-13
-1.06859e-13
-1.05929e-13
-1.04716e-13
-1.04023e-13
-1.03238e-13
-1.02203e-13
-1.01394e-13
-1.00517e-13
-9.96635e-14
-9.87516e-14
-9.7706e-14
-9.73057e-14
-9.64061e-14
-9.52925e-14
-9.45149e-14
-9.34287e-14
-9.24447e-14
-9.18327e-14
-9.10456e-14
-8.97224e-14
-8.82481e-14
-8.76118e-14
-8.68542e-14
-8.54853e-14
-8.45043e-14
-8.36583e-14
-8.27881e-14
-8.17803e-14
-8.0878e-14
-7.97889e-14
-7.87323e-14
-7.76487e-14
-7.67555e-14
-7.59695e-14
-7.50653e-14
-7.42546e-14
-7.35132e-14
-7.27834e-14
-7.2244e-14
-7.17122e-14
-7.10432e-14
-7.05101e-14
-6.98466e-14
-6.9371e-14
-6.90296e-14
-6.86015e-14
-6.7698e-14
-6.68507e-14
-6.63138e-14
-6.58201e-14
-6.509e-14
-6.44765e-14
-6.40742e-14
-6.33595e-14
-6.24959e-14
-6.19232e-14
-6.07185e-14
-6.01734e-14
-5.96895e-14
-5.90925e-14
-5.84833e-14
-5.8031e-14
-5.76042e-14
-5.66182e-14
-5.54233e-14
-5.4352e-14
-5.35135e-14
-5.26919e-14
-5.23782e-14
-5.19226e-14
-5.18577e-14
-5.19754e-14
-5.19446e-14
-5.19103e-14
-5.16981e-14
-5.14334e-14
-5.09834e-14
-5.02135e-14
-4.99113e-14
-4.96604e-14
-4.93878e-14
-4.88775e-14
-4.84532e-14
-4.7913e-14
-4.71717e-14
-4.70809e-14
-4.65484e-14
-4.61096e-14
-4.57924e-14
-4.57447e-14
-4.52775e-14
-4.50033e-14
-4.44814e-14
-4.40861e-14
-4.40532e-14
-4.40599e-14
-4.39849e-14
-4.40301e-14
-4.4305e-14
-4.45e-14
-4.42609e-14
-4.38714e-14
-4.38316e-14
-4.39167e-14
-4.37594e-14
-4.38563e-14
-4.33801e-14
-4.35157e-14
-4.34755e-14
-4.32487e-14
-4.26764e-14
-4.23442e-14
-4.23014e-14
-4.21475e-14
-4.23716e-14
-4.25574e-14
-4.22774e-14
-4.23913e-14
-4.21609e-14
-4.20912e-14
-4.18997e-14
-4.1884e-14
-4.20691e-14
-4.21983e-14
-4.23422e-14
-4.2483e-14
-4.26593e-14
-4.26839e-14
-4.2974e-14
-4.32091e-14
-4.3422e-14
-4.34873e-14
-4.40566e-14
-4.46359e-14
-4.49307e-14
-4.50241e-14
-4.5558e-14
-4.61874e-14
-4.66476e-14
-4.73217e-14
-4.78119e-14
-4.78394e-14
-4.83297e-14
-4.87038e-14
-4.91521e-14
-4.9684e-14
-4.99956e-14
-5.09221e-14
-5.12881e-14
-5.18274e-14
-5.20047e-14
-5.24573e-14
-5.29101e-14
-5.35707e-14
-5.40313e-14
-5.45125e-14
-5.50815e-14
-5.5424e-14
-5.58633e-14
-5.61186e-14
-5.6817e-14
-5.74745e-14
-5.77645e-14
-5.83006e-14
-5.895e-14
-5.96721e-14
-6.00746e-14
-6.1087e-14
-6.13449e-14
-6.18377e-14
-6.23953e-14
-6.29421e-14
-6.35782e-14
-6.396e-14
-6.45361e-14
-6.56206e-14
-6.64825e-14
-6.68308e-14
-6.70692e-14
-6.82124e-14
-6.88851e-14
-6.94123e-14
-7.0061e-14
-7.06818e-14
-7.13809e-14
-7.20689e-14
-7.28952e-14
-7.39496e-14
-7.49618e-14
-7.57147e-14
-7.64803e-14
-7.7451e-14
-7.84196e-14
-7.94986e-14
-8.02781e-14
-8.13317e-14
-8.21593e-14
-8.32773e-14
-8.40687e-14
-8.50299e-14
-8.6216e-14
-8.7227e-14
-8.83487e-14
-8.96906e-14
-9.05652e-14
-9.14181e-14
-9.22518e-14
-9.32705e-14
-9.39116e-14
-9.47342e-14
-9.5809e-14
-9.65676e-14
-9.71995e-14
-9.77041e-14
-9.87893e-14
-9.99373e-14
-1.00543e-13
-1.01229e-13
-1.02115e-13
-1.02835e-13
-1.03605e-13
-1.04265e-13
-1.05237e-13
-1.06242e-13
-1.07246e-13
-1.07793e-13
-1.08499e-13
-1.08811e-13
-1.09487e-13
-1.09994e-13
-1.10362e-13
-1.10915e-13
-1.11637e-13
-1.117e-13
-1.12445e-13
-1.12937e-13
-1.13558e-13
-1.13723e-13
-1.14632e-13
-1.14872e-13
-1.14897e-13
-1.15334e-13
-1.15867e-13
-1.1633e-13
-1.16437e-13
-1.16598e-13
-1.16825e-13
-1.17178e-13
-1.1762e-13
-1.18019e-13
-1.17911e-13
-1.18141e-13
-1.18447e-13
-1.18993e-13
-1.19311e-13
-1.19703e-13
-1.19985e-13
-1.20201e-13
-1.20396e-13
-1.20464e-13
-1.20344e-13
-1.20909e-13
-1.20744e-13
-1.21318e-13
-1.2152e-13
-1.21575e-13
-1.21775e-13
-1.21532e-13
-1.21904e-13
-1.22086e-13
-1.22298e-13
-1.22291e-13
-1.22297e-13
-1.22627e-13
-1.2288e-13
-1.22984e-13
-1.22818e-13
-1.22689e-13
-1.22651e-13
-1.22373e-13
-1.22515e-13
-1.22701e-13
-1.22403e-13
-1.22343e-13
-1.22446e-13
-1.2226e-13
-1.22137e-13
-1.21946e-13
-1.21726e-13
-1.21407e-13
-1.21228e-13
-1.2109e-13
-1.20819e-13
-1.2044e-13
-1.19841e-13
-1.19541e-13
-1.19534e-13
-1.19206e-13
-1.19074e-13
-1.18928e-13
-1.18667e-13
-1.18197e-13
-1.17856e-13
-1.17329e-13
-1.16908e-13
-1.16097e-13
-1.1556e-13
-1.14994e-13
-1.14401e-13
-1.13753e-13
-1.13173e-13
-1.12766e-13
-1.12449e-13
-1.11746e-13
-1.10682e-13
-1.09867e-13
-1.0931e-13
-1.08556e-13
-1.08155e-13
-1.07728e-13
-1.07104e-13
-1.06089e-13
-1.04658e-13
-1.04332e-13
-1.03406e-13
-1.0231e-13
-1.0156e-13
-1.00697e-13
-9.95591e-14
-9.87178e-14
-9.81222e-14
-9.72194e-14
-9.64089e-14
-9.52313e-14
-9.47562e-14
-9.37418e-14
-9.28088e-14
-9.17825e-14
-9.07302e-14
-8.98382e-14
-8.85372e-14
-8.74342e-14
-8.65466e-14
-8.54734e-14
-8.45787e-14
-8.35425e-14
-8.25995e-14
-8.18502e-14
-8.09678e-14
-7.99954e-14
-7.87128e-14
-7.78619e-14
-7.66959e-14
-7.59907e-14
-7.50006e-14
-7.43924e-14
-7.35747e-14
-7.30228e-14
-7.23464e-14
-7.15419e-14
-7.07828e-14
-7.05219e-14
-7.00669e-14
-6.95625e-14
-6.89057e-14
-6.8379e-14
-6.76456e-14
-6.68372e-14
-6.65742e-14
-6.58399e-14
-6.50625e-14
-6.46052e-14
-6.40057e-14
-6.32394e-14
-6.24529e-14
-6.18726e-14
-6.10987e-14
-6.01565e-14
-5.96648e-14
-5.89262e-14
-5.84203e-14
-5.79875e-14
-5.73809e-14
-5.6248e-14
-5.53283e-14
-5.48368e-14
-5.40857e-14
-5.30992e-14
-5.31548e-14
-5.23343e-14
-5.21032e-14
-5.19264e-14
-5.1815e-14
-5.18422e-14
-5.15041e-14
-5.1551e-14
-5.08837e-14
-5.04212e-14
-5.01287e-14
-4.97626e-14
-4.91095e-14
-4.86991e-14
-4.81945e-14
-4.7784e-14
-4.72933e-14
-4.69038e-14
-4.65828e-14