/*--------------------------------*- C++ -*----------------------------------*\
| =========                 |                                                 |
| \\      /  F ield         | OpenFOAM: The Open Source CFD Toolbox           |
|  \\    /   O peration     | Version:  2112                                  |
|   \\  /    A nd           | Website:  www.openfoam.com                      |
|    \\/     M anipulation  |                                                 |
\*---------------------------------------------------------------------------*/
FoamFile
{
    version     2.0;
    format      ascii;
    arch        "LSB;label=32;scalar=64";
    class       surfaceScalarField;
    location    "3";
    object      phi;
}
// * * * * * * * * * * * * * * * * * * * * * * * * * * * * * * * * * * * * * //

dimensions      [0 3 -1 0 0 0 0];

oriented        oriented;

internalField   nonuniform List<scalar> 
50800
(
5.12201e-05
4.09249e-18
5.12201e-05
1.56212e-18
5.12201e-05
5.53036e-19
5.12201e-05
2.57776e-19
5.12201e-05
1.87197e-19
5.12201e-05
1.31692e-19
5.12201e-05
9.33605e-20
5.12201e-05
6.77534e-20
5.12201e-05
4.22875e-20
5.12201e-05
2.04184e-20
5.12201e-05
2.74866e-20
5.12201e-05
4.33845e-21
5.12201e-05
2.0072e-20
5.12201e-05
3.71472e-20
5.12201e-05
1.40975e-20
5.12201e-05
4.68605e-20
5.12201e-05
3.63193e-20
5.12201e-05
-4.55509e-22
5.12201e-05
-2.04285e-20
5.12201e-05
-1.28226e-20
5.12201e-05
6.68188e-21
5.12201e-05
1.9345e-21
5.12201e-05
-2.56718e-20
5.12201e-05
-2.80451e-20
5.12201e-05
-4.12487e-20
5.12201e-05
-2.08133e-20
5.12201e-05
2.4817e-20
5.12201e-05
-1.85525e-20
5.12201e-05
-4.92559e-20
5.12201e-05
-1.87365e-20
5.12201e-05
1.21877e-20
5.12201e-05
4.9032e-20
5.12201e-05
4.10237e-20
5.12201e-05
8.37256e-21
5.12201e-05
5.43763e-21
5.12201e-05
1.35339e-20
5.12201e-05
4.69928e-20
5.12201e-05
-1.71062e-21
5.12201e-05
6.1485e-21
5.12201e-05
5.98032e-20
5.12201e-05
2.01939e-20
5.12201e-05
3.42988e-20
5.12201e-05
-6.2888e-21
5.12201e-05
-3.3959e-20
5.12201e-05
4.49912e-20
5.12201e-05
4.63543e-21
5.12201e-05
9.88335e-21
5.12201e-05
1.23768e-20
5.12201e-05
6.6728e-21
5.12201e-05
-1.81886e-20
5.12201e-05
-5.11764e-20
5.12201e-05
3.87895e-20
5.12201e-05
6.36298e-21
5.12201e-05
-1.00362e-20
5.12201e-05
5.15482e-20
5.12201e-05
-2.832e-20
5.12201e-05
5.8047e-21
5.12201e-05
-1.73901e-20
5.12201e-05
9.62641e-22
5.12201e-05
5.64798e-20
5.12201e-05
-3.79818e-20
5.12201e-05
3.37705e-20
5.12201e-05
7.66177e-21
5.12201e-05
-1.00519e-20
5.12201e-05
2.51744e-20
5.12201e-05
-5.00233e-20
5.12201e-05
-2.40951e-20
5.12201e-05
-2.16296e-20
5.12201e-05
2.94374e-20
5.12201e-05
3.61014e-20
5.12201e-05
-4.14788e-21
5.12201e-05
2.47824e-21
5.12201e-05
-5.75865e-21
5.12201e-05
-2.63628e-21
5.12201e-05
7.56883e-20
5.12201e-05
-3.51713e-20
5.12201e-05
-6.4955e-20
5.12201e-05
5.99298e-20
5.12201e-05
1.89528e-20
5.12201e-05
6.1243e-20
5.12201e-05
-2.87946e-20
5.12201e-05
-9.59332e-20
5.12201e-05
1.97203e-20
5.12201e-05
4.39172e-20
5.12201e-05
5.25567e-20
5.12201e-05
-9.11696e-21
5.12201e-05
-9.39444e-20
5.12201e-05
-4.31054e-20
5.12201e-05
5.40198e-20
5.12201e-05
1.16859e-19
5.12201e-05
-3.04876e-20
5.12201e-05
-1.31922e-19
5.12201e-05
-3.73832e-20
5.12201e-05
6.53652e-20
5.12201e-05
6.77307e-21
5.12201e-05
-9.30723e-20
5.12201e-05
-1.30833e-20
5.12201e-05
-1.35662e-20
5.12201e-05
8.63208e-20
5.12201e-05
3.60653e-20
5.12201e-05
-1.35741e-19
5.12201e-05
3.01614e-20
5.12201e-05
-3.1955e-20
5.12201e-05
3.56231e-20
5.12201e-05
2.34023e-20
5.12201e-05
-4.74717e-20
5.12201e-05
-7.69079e-20
5.12201e-05
-8.55046e-21
5.12201e-05
5.40937e-20
5.12201e-05
-4.32532e-21
5.12201e-05
2.3471e-20
5.12201e-05
-1.9118e-19
5.12201e-05
2.4139e-20
5.12201e-05
1.74429e-19
5.12201e-05
2.38839e-20
5.12201e-05
-3.92741e-20
5.12201e-05
-1.46126e-19
5.12201e-05
8.20191e-21
5.12201e-05
1.00239e-19
5.12201e-05
6.73012e-21
5.12201e-05
-4.613e-20
5.12201e-05
-1.26887e-19
5.12201e-05
7.87189e-21
5.12201e-05
1.84222e-19
5.12201e-05
8.11246e-20
5.12201e-05
-6.84126e-20
5.12201e-05
-1.43146e-19
5.12201e-05
7.44775e-21
5.12201e-05
1.78529e-19
5.12201e-05
3.06797e-20
5.12201e-05
-9.2856e-20
5.12201e-05
-1.13294e-19
5.12201e-05
4.53871e-20
5.12201e-05
1.04601e-19
5.12201e-05
-2.54294e-20
5.12201e-05
-1.91218e-20
5.12201e-05
-6.59329e-20
5.12201e-05
1.244e-20
5.12201e-05
1.14486e-19
5.12201e-05
4.30397e-20
5.12201e-05
-9.78508e-21
5.12201e-05
-7.06463e-20
5.12201e-05
1.5566e-20
5.12201e-05
6.81664e-20
5.12201e-05
-7.72887e-21
5.12201e-05
-3.36077e-21
5.12201e-05
-1.0165e-19
5.12201e-05
-2.91134e-20
5.12201e-05
-4.13788e-21
5.12201e-05
4.0373e-20
5.12201e-05
1.17683e-19
5.12201e-05
-1.15498e-19
5.12201e-05
-1.28891e-19
5.12201e-05
6.15377e-20
5.12201e-05
8.65948e-20
5.12201e-05
8.40604e-20
5.12201e-05
-5.64638e-20
5.12201e-05
-8.31675e-20
5.12201e-05
6.39891e-20
5.12201e-05
6.12872e-20
5.12201e-05
1.29821e-19
5.12201e-05
-1.35386e-19
5.12201e-05
-6.21185e-20
5.12201e-05
1.35902e-19
5.12201e-05
-8.75066e-20
5.12201e-05
8.24024e-20
5.12201e-05
-4.22932e-20
5.12201e-05
-1.21938e-19
5.12201e-05
1.04465e-19
5.12201e-05
4.26829e-20
5.12201e-05
6.20752e-20
5.12201e-05
-1.19938e-19
5.12201e-05
-2.60719e-20
5.12201e-05
1.32256e-20
5.12201e-05
-4.06978e-20
5.12201e-05
2.11418e-20
5.12201e-05
-6.46653e-20
5.12201e-05
1.86497e-19
5.12201e-05
-2.1926e-20
5.12201e-05
-9.84426e-20
5.12201e-05
1.45585e-19
5.12201e-05
-1.72957e-19
5.12201e-05
-3.87315e-20
5.12201e-05
2.53114e-20
5.12201e-05
-5.99781e-20
5.12201e-05
1.8209e-19
5.12201e-05
-1.16857e-19
5.12201e-05
-2.94156e-20
5.12201e-05
1.06486e-19
5.12201e-05
-1.6674e-19
5.12201e-05
6.45323e-20
5.12201e-05
-1.92166e-20
5.12201e-05
-8.66644e-20
5.12201e-05
2.03387e-19
5.12201e-05
-3.50026e-20
5.12201e-05
-4.17281e-21
5.12201e-05
-9.48581e-20
5.12201e-05
-9.7227e-21
5.12201e-05
2.605e-19
5.12201e-05
-1.68778e-19
5.12201e-05
-3.38518e-20
5.12201e-05
-1.1187e-19
5.12201e-05
-1.05918e-20
5.12201e-05
2.71963e-19
5.12201e-05
-1.23758e-19
5.12201e-05
-1.76442e-19
5.12201e-05
-8.34496e-20
5.12201e-05
1.3179e-19
5.12201e-05
1.96877e-19
5.12201e-05
-8.05515e-20
5.12201e-05
-1.99679e-19
5.12201e-05
-1.04513e-19
5.12201e-05
3.35519e-19
5.12201e-05
9.46941e-21
5.12201e-05
-3.3959e-19
5.12201e-05
2.5904e-19
5.12201e-05
8.18133e-20
5.12201e-05
-1.59105e-19
5.12201e-05
-1.22302e-19
5.12201e-05
-1.21958e-19
5.12201e-05
3.78273e-19
5.12201e-05
1.62856e-19
5.12201e-05
-1.75539e-19
5.12201e-05
-1.32758e-19
5.12201e-05
-1.48476e-19
5.12201e-05
3.44402e-19
5.12201e-05
3.01658e-20
5.12201e-05
-1.30867e-19
5.12201e-05
3.40883e-20
5.12201e-05
-1.3633e-19
5.12201e-05
1.87733e-19
5.12201e-05
-2.14778e-20
5.12201e-05
-2.63322e-20
5.12201e-05
6.94234e-20
5.12201e-05
-2.40484e-19
5.12201e-05
8.11259e-20
5.12201e-05
7.43394e-20
5.12201e-05
1.45889e-20
5.12201e-05
6.80629e-20
5.12201e-05
-2.01251e-19
5.12201e-05
1.27506e-19
5.12201e-05
-3.01828e-20
5.12201e-05
-2.04133e-20
5.12201e-05
1.08584e-19
5.12201e-05
-3.02592e-19
5.12201e-05
-3.28324e-20
5.12201e-05
1.14677e-19
5.12201e-05
1.39822e-19
5.12201e-05
5.41258e-21
5.12201e-05
-2.31786e-19
5.12201e-05
1.87021e-19
5.12201e-05
5.65437e-20
5.12201e-05
-5.39128e-20
5.12201e-05
8.5608e-21
5.12201e-05
-2.14008e-19
5.12201e-05
2.29026e-19
5.12201e-05
3.33311e-20
5.12201e-05
-3.82126e-20
5.12201e-05
9.03737e-20
5.12201e-05
-2.35981e-19
5.12201e-05
1.26422e-19
5.12201e-05
6.80151e-20
5.12201e-05
-4.27219e-20
5.12201e-05
1.76213e-20
5.12201e-05
-1.31325e-19
5.12201e-05
2.03829e-19
5.12201e-05
1.46311e-19
5.12201e-05
-4.37729e-21
5.12201e-05
-4.59797e-20
5.12201e-05
-1.64471e-19
5.12201e-05
1.26624e-19
5.12201e-05
8.72577e-20
5.12201e-05
4.27929e-20
5.12201e-05
1.17202e-20
5.12201e-05
-1.31549e-19
5.12201e-05
6.45852e-20
5.12201e-05
3.06744e-20
5.12201e-05
-1.33395e-19
5.12201e-05
7.54396e-20
5.12201e-05
-9.20636e-20
5.12201e-05
-3.04781e-21
5.12201e-05
1.03243e-19
5.12201e-05
-3.63918e-20
5.12201e-05
5.45609e-21
5.12201e-05
-1.29718e-19
5.12201e-05
1.01099e-20
5.12201e-05
1.96432e-19
5.12201e-05
4.08693e-20
5.12201e-05
-1.63357e-19
5.12201e-05
-1.4607e-19
5.12201e-05
1.71525e-19
5.12201e-05
1.14744e-19
5.12201e-05
-4.8608e-20
5.12201e-05
-1.50315e-19
5.12201e-05
1.05317e-20
5.12201e-05
2.24088e-19
5.12201e-05
-2.6934e-20
5.12201e-05
2.65992e-20
5.12201e-05
-2.0412e-19
5.12201e-05
-1.50104e-20
5.12201e-05
2.60883e-19
5.12201e-05
2.34578e-20
5.12201e-05
1.07256e-19
5.12201e-05
-1.42775e-19
5.12201e-05
-1.79666e-19
5.12201e-05
1.9582e-20
5.12201e-05
3.72145e-20
5.12201e-05
1.76796e-19
5.12201e-05
-1.36084e-19
5.12201e-05
2.47468e-21
5.12201e-05
3.80842e-20
5.12201e-05
-6.13555e-20
5.12201e-05
2.57846e-19
5.12201e-05
2.4168e-21
5.12201e-05
-1.97741e-20
5.12201e-05
2.12202e-19
5.12201e-05
7.59524e-20
5.12201e-05
3.17713e-19
5.12201e-05
4.64399e-19
1.36073e-18
0.000151039
2.05079e-18
0.000151039
1.34036e-18
0.000151039
7.27787e-19
0.000151039
4.74185e-19
0.000151039
3.7325e-19
0.000151039
2.82128e-19
0.000151039
1.8784e-19
0.000151039
1.8097e-19
0.000151039
1.40204e-19
0.000151039
9.20455e-20
0.000151039
6.41516e-20
0.000151039
3.32091e-20
0.000151039
7.96224e-20
0.000151039
8.21631e-20
0.000151039
3.36655e-20
0.000151039
1.02246e-19
0.000151039
4.57068e-20
0.000151039
3.34403e-20
0.000151039
-3.09904e-20
0.000151039
-8.90928e-20
0.000151039
-4.17154e-21
0.000151039
-2.86496e-20
0.000151039
-6.55764e-20
0.000151039
-6.60229e-20
0.000151039
-7.75547e-20
0.000151039
-5.87972e-20
0.000151039
-1.58662e-20
0.000151039
-1.23187e-20
0.000151039
-7.98819e-20
0.000151039
-4.01369e-20
0.000151039
4.80177e-20
0.000151039
1.34983e-19
0.000151039
8.20945e-20
0.000151039
3.18848e-20
0.000151039
6.43092e-20
0.000151039
5.91599e-20
0.000151039
1.31675e-19
0.000151039
7.78378e-20
0.000151039
1.60002e-20
0.000151039
1.10018e-19
0.000151039
5.43802e-20
0.000151039
7.19e-20
0.000151039
2.52012e-20
0.000151039
-4.36457e-20
0.000151039
2.34707e-20
0.000151039
2.76017e-20
0.000151039
3.37819e-20
0.000151039
5.44065e-20
0.000151039
3.4773e-20
0.000151039
-7.77695e-22
0.000151039
-7.08238e-20
0.000151039
-1.04558e-21
0.000151039
1.28367e-20
0.000151039
2.10576e-20
0.000151039
1.14552e-19
0.000151039
-2.27675e-20
0.000151039
-2.49615e-20
0.000151039
1.23154e-20
0.000151039
2.99434e-20
0.000151039
7.837e-20
0.000151039
-5.29795e-20
0.000151039
8.04876e-20
0.000151039
-1.17112e-20
0.000151039
-4.54782e-20
0.000151039
4.0364e-20
0.000151039
-7.58019e-20
0.000151039
-4.2118e-20
0.000151039
-1.284e-20
0.000151039
4.27656e-20
0.000151039
8.16222e-20
0.000151039
-3.21846e-20
0.000151039
5.3891e-21
0.000151039
-2.69667e-21
0.000151039
1.86352e-20
0.000151039
2.12097e-19
0.000151039
-5.36078e-20
0.000151039
-1.12932e-19
0.000151039
5.78895e-20
0.000151039
3.5426e-20
0.000151039
9.0357e-20
0.000151039
-6.70159e-20
0.000151039
-1.50343e-19
0.000151039
-1.38397e-20
0.000151039
7.47057e-20
0.000151039
4.47515e-20
0.000151039
-2.34929e-20
0.000151039
-6.28078e-20
0.000151039
-8.22298e-20
0.000151039
6.89604e-20
0.000151039
1.92195e-19
0.000151039
-7.72722e-20
0.000151039
-2.00847e-19
0.000151039
-7.15333e-20
0.000151039
1.72344e-21
0.000151039
-8.32115e-21
0.000151039
-1.29098e-19
0.000151039
-7.69684e-20
0.000151039
-3.39255e-20
0.000151039
7.14222e-20
0.000151039
4.18913e-20
0.000151039
-1.27936e-19
0.000151039
8.45919e-21
0.000151039
-5.67215e-20
0.000151039
2.3814e-20
0.000151039
3.51056e-20
0.000151039
-4.33132e-20
0.000151039
-1.81656e-19
0.000151039
-8.18443e-20
0.000151039
8.36552e-20
0.000151039
3.58249e-20
0.000151039
-1.86064e-20
0.000151039
-3.28151e-19
0.000151039
3.70725e-20
0.000151039
2.94909e-19
0.000151039
1.09614e-19
0.000151039
-7.27528e-20
0.000151039
-2.88879e-19
0.000151039
-7.95053e-20
0.000151039
2.14963e-19
0.000151039
1.08364e-19
0.000151039
-1.36394e-19
0.000151039
-2.44478e-19
0.000151039
4.3768e-20
0.000151039
3.54573e-19
0.000151039
2.22609e-19
0.000151039
-1.0524e-19
0.000151039
-3.22777e-19
0.000151039
1.77972e-20
0.000151039
3.17962e-19
0.000151039
2.75535e-20
0.000151039
-1.45304e-19
0.000151039
-2.16438e-19
0.000151039
7.16381e-20
0.000151039
2.24378e-19
0.000151039
6.63204e-21
0.000151039
-5.44866e-20
0.000151039
-1.67343e-19
0.000151039
-3.10357e-20
0.000151039
2.66195e-19
0.000151039
1.48828e-19
0.000151039
-1.91957e-20
0.000151039
-1.52838e-19
0.000151039
1.84901e-20
0.000151039
1.5154e-19
0.000151039
-4.10228e-21
0.000151039
-1.22312e-19
0.000151039
-2.27301e-19
0.000151039
1.00882e-20
0.000151039
4.20622e-20
0.000151039
3.50826e-20
0.000151039
1.54983e-19
0.000151039
-2.01922e-19
0.000151039
-1.92301e-19
0.000151039
9.43889e-20
0.000151039
1.2083e-19
0.000151039
1.8652e-19
0.000151039
-4.90489e-20
0.000151039
-1.22986e-19
0.000151039
9.13016e-20
0.000151039
1.68262e-19
0.000151039
1.88973e-19
0.000151039
-2.0051e-19
0.000151039
-6.31906e-20
0.000151039
2.27551e-19
0.000151039
-8.4794e-20
0.000151039
5.58402e-20
0.000151039
-6.97353e-20
0.000151039
-1.80302e-19
0.000151039
1.23582e-19
0.000151039
1.10927e-19
0.000151039
-9.27824e-21
0.000151039
-2.11711e-19
0.000151039
-1.1276e-19
0.000151039
4.21709e-20
0.000151039
3.60105e-20
0.000151039
-3.18665e-20
0.000151039
-7.7966e-20
0.000151039
2.34193e-19
0.000151039
-1.24359e-20
0.000151039
1.07739e-20
0.000151039
1.30505e-19
0.000151039
-3.75537e-19
0.000151039
-1.34898e-19
0.000151039
4.72295e-20
0.000151039
-3.61326e-20
0.000151039
2.06076e-19
0.000151039
-1.68517e-19
0.000151039
-8.75726e-20
0.000151039
1.27095e-19
0.000151039
-1.28524e-19
0.000151039
3.24138e-20
0.000151039
-3.44519e-20
0.000151039
-1.09525e-19
0.000151039
2.27486e-19
0.000151039
5.64933e-20
0.000151039
-1.84244e-21
0.000151039
-1.10458e-19
0.000151039
1.06706e-20
0.000151039
2.14617e-19
0.000151039
-1.83401e-19
0.000151039
-1.09044e-19
0.000151039
-1.60681e-19
0.000151039
2.6173e-20
0.000151039
2.43403e-19
0.000151039
-1.19752e-19
0.000151039
-2.76307e-19
0.000151039
-1.5645e-19
0.000151039
1.77574e-19
0.000151039
1.86953e-19
0.000151039
-1.04509e-19
0.000151039
-2.36686e-19
0.000151039
-1.72334e-19
0.000151039
4.60216e-19
0.000151039
5.19799e-20
0.000151039
-4.46627e-19
0.000151039
3.28592e-19
0.000151039
5.54077e-20
0.000151039
-1.43611e-19
0.000151039
-1.72857e-19
0.000151039
-2.36193e-19
0.000151039
6.19071e-19
0.000151039
2.82359e-19
0.000151039
-1.66328e-19
0.000151039
-2.13047e-19
0.000151039
-2.66021e-19
0.000151039
5.21265e-19
0.000151039
1.11821e-19
0.000151039
-1.81631e-19
0.000151039
3.38706e-20
0.000151039
-1.58952e-19
0.000151039
3.15171e-19
0.000151039
-1.1349e-20
0.000151039
-5.61234e-20
0.000151039
1.57498e-20
0.000151039
-4.15551e-19
0.000151039
5.62754e-20
0.000151039
8.92904e-20
0.000151039
1.8637e-19
0.000151039
1.7767e-19
0.000151039
-3.92479e-19
0.000151039
1.04377e-19
0.000151039
-1.15994e-19
0.000151039
-2.99851e-20
0.000151039
1.13357e-19
0.000151039
-5.76148e-19
0.000151039
-2.86128e-20
0.000151039
2.13514e-19
0.000151039
2.33705e-19
0.000151039
5.73886e-21
0.000151039
-4.04286e-19
0.000151039
4.17777e-19
0.000151039
1.41409e-19
0.000151039
-1.44591e-19
0.000151039
-1.48287e-19
0.000151039
-3.45475e-19
0.000151039
5.35218e-19
0.000151039
1.13858e-19
0.000151039
-9.88611e-20
0.000151039
1.2259e-19
0.000151039
-3.35055e-19
0.000151039
2.23201e-19
0.000151039
9.46502e-20
0.000151039
-7.96746e-20
0.000151039
4.02004e-20
0.000151039
-1.44831e-19
0.000151039
4.24842e-19
0.000151039
2.49583e-19
0.000151039
5.66863e-20
0.000151039
-4.88633e-21
0.000151039
-2.7884e-19
0.000151039
2.32254e-19
0.000151039
2.23463e-19
0.000151039
2.3498e-19
0.000151039
1.77552e-20
0.000151039
-3.40787e-19
0.000151039
1.20667e-19
0.000151039
-2.09798e-20
0.000151039
-1.89055e-19
0.000151039
1.63904e-20
0.000151039
-3.57358e-19
0.000151039
7.56547e-20
0.000151039
1.33587e-19
0.000151039
4.27362e-20
0.000151039
2.86525e-20
0.000151039
-3.06022e-19
0.000151039
1.4779e-19
0.000151039
3.291e-19
0.000151039
2.87229e-20
0.000151039
-2.65621e-19
0.000151039
-2.22532e-19
0.000151039
3.76381e-19
0.000151039
1.8034e-19
0.000151039
-1.50453e-19
0.000151039
-1.11027e-19
0.000151039
-3.30207e-20
0.000151039
3.14936e-19
0.000151039
1.35659e-19
0.000151039
-1.44886e-19
0.000151039
-2.46667e-19
0.000151039
-7.3192e-20
0.000151039
4.05262e-19
0.000151039
2.78372e-19
0.000151039
1.37232e-19
0.000151039
-2.98982e-19
0.000151039
-3.47119e-19
0.000151039
8.67186e-20
0.000151039
1.07461e-19
0.000151039
1.40278e-19
0.000151039
-2.71739e-19
0.000151039
-2.94082e-21
0.000151039
1.50538e-19
0.000151039
1.10215e-21
0.000151039
4.2063e-19
0.000151039
1.09493e-19
0.000151039
4.71068e-20
0.000151039
3.0662e-19
0.000151039
1.6553e-19
0.000151039
5.69767e-19
0.000151039
5.74101e-19
9.9973e-19
0.000248129
1.28046e-18
0.000248129
1.01166e-18
0.000248129
7.07817e-19
0.000248129
5.65578e-19
0.000248129
4.36888e-19
0.000248129
3.64292e-19
0.000248129
3.25711e-19
0.000248129
2.95165e-19
0.000248129
2.03693e-19
0.000248129
1.96162e-19
0.000248129
1.88862e-19
0.000248129
9.02783e-20
0.000248129
1.53073e-19
0.000248129
1.0484e-19
0.000248129
3.22155e-20
0.000248129
4.69117e-20
0.000248129
7.47618e-21
0.000248129
-9.67915e-21
0.000248129
-6.42284e-20
0.000248129
-1.05573e-19
0.000248129
-2.5644e-20
0.000248129
-7.93971e-20
0.000248129
-9.25828e-20
0.000248129
-8.58975e-20
0.000248129
-1.01335e-19
0.000248129
-1.05272e-19
0.000248129
-7.97071e-21
0.000248129
-8.53332e-20
0.000248129
-9.53705e-20
0.000248129
-5.5687e-20
0.000248129
7.9638e-20
0.000248129
2.76565e-19
0.000248129
2.03492e-19
0.000248129
9.19306e-20
0.000248129
6.29596e-20
0.000248129
9.94282e-20
0.000248129
2.19528e-19
0.000248129
1.853e-19
0.000248129
9.68546e-20
0.000248129
1.55228e-19
0.000248129
1.49605e-19
0.000248129
8.60802e-20
0.000248129
2.29275e-20
0.000248129
-3.02624e-20
0.000248129
-1.17724e-20
0.000248129
3.88278e-20
0.000248129
7.75053e-20
0.000248129
8.14439e-20
0.000248129
7.74066e-20
0.000248129
2.77382e-20
0.000248129
1.44541e-20
0.000248129
1.26e-20
0.000248129
-2.76458e-21
0.000248129
2.63573e-20
0.000248129
9.2987e-20
0.000248129
-5.21042e-21
0.000248129
2.61073e-20
0.000248129
4.91494e-20
0.000248129
1.76751e-20
0.000248129
8.52213e-20
0.000248129
-1.96564e-20
0.000248129
1.96163e-19
0.000248129
2.53574e-20
0.000248129
-5.67694e-20
0.000248129
4.86068e-20
0.000248129
-1.45788e-19
0.000248129
7.38996e-21
0.000248129
-1.52415e-20
0.000248129
5.77577e-20
0.000248129
1.0527e-19
0.000248129
-5.80816e-20
0.000248129
-1.37164e-20
0.000248129
-6.81462e-21
0.000248129
1.29593e-19
0.000248129
2.13983e-19
0.000248129
-3.04909e-20
0.000248129
-7.31451e-20
0.000248129
1.82782e-20
0.000248129
6.35697e-21
0.000248129
9.85808e-20
0.000248129
-1.00377e-19
0.000248129
-1.80095e-19
0.000248129
3.60287e-20
0.000248129
7.40032e-20
0.000248129
2.11989e-20
0.000248129
-1.43371e-19
0.000248129
-6.57001e-20
0.000248129
-4.56975e-20
0.000248129
1.19588e-21
0.000248129
6.72552e-20
0.000248129
-7.12102e-20
0.000248129
-1.91776e-19
0.000248129
-9.27183e-20
0.000248129
-9.79025e-21
0.000248129
-7.60123e-20
0.000248129
-2.15746e-19
0.000248129
-1.62413e-19
0.000248129
-8.97747e-20
0.000248129
-6.30328e-20
0.000248129
2.90433e-20
0.000248129
-3.58017e-20
0.000248129
-5.11092e-20
0.000248129
-1.0573e-19
0.000248129
-6.2281e-20
0.000248129
-1.67185e-21
0.000248129
-8.08607e-20
0.000248129
-2.96203e-19
0.000248129
-2.49806e-19
0.000248129
1.09051e-19
0.000248129
1.78235e-19
0.000248129
-5.66405e-21
0.000248129
-3.63637e-19
0.000248129
2.74577e-20
0.000248129
2.96843e-19
0.000248129
1.70431e-19
0.000248129
-2.74719e-20
0.000248129
-3.72208e-19
0.000248129
-1.9581e-19
0.000248129
3.28997e-19
0.000248129
2.2742e-19
0.000248129
-2.02092e-19
0.000248129
-3.27291e-19
0.000248129
7.62839e-20
0.000248129
5.30454e-19
0.000248129
3.23162e-19
0.000248129
-1.15577e-19
0.000248129
-4.34026e-19
0.000248129
-2.7096e-20
0.000248129
3.63906e-19
0.000248129
6.82903e-20
0.000248129
-1.59468e-19
0.000248129
-2.3118e-19
0.000248129
3.56112e-20
0.000248129
3.00357e-19
0.000248129
7.25945e-20
0.000248129
-8.20167e-20
0.000248129
-2.34214e-19
0.000248129
-3.56473e-20
0.000248129
3.95889e-19
0.000248129
2.12386e-19
0.000248129
-1.08566e-19
0.000248129
-2.39962e-19
0.000248129
9.41948e-20
0.000248129
1.91518e-19
0.000248129
-2.83289e-20
0.000248129
-1.97079e-19
0.000248129
-3.57917e-19
0.000248129
4.16176e-20
0.000248129
9.90337e-20
0.000248129
1.41902e-20
0.000248129
1.56844e-19
0.000248129
-1.87389e-19
0.000248129
-2.20007e-19
0.000248129
2.52918e-20
0.000248129
2.01509e-19
0.000248129
2.52705e-19
0.000248129
3.43573e-20
0.000248129
-4.7497e-20
0.000248129
1.92254e-19
0.000248129
2.83359e-19
0.000248129
2.53138e-19
0.000248129
-2.19349e-19
0.000248129
-8.32943e-20
0.000248129
2.60357e-19
0.000248129
-4.99404e-20
0.000248129
1.36695e-21
0.000248129
-7.50131e-20
0.000248129
-8.0393e-20
0.000248129
5.53165e-20
0.000248129
3.98702e-20
0.000248129
-7.12162e-20
0.000248129
-2.53981e-19
0.000248129
-1.4738e-19
0.000248129
1.2447e-19
0.000248129
7.22451e-20
0.000248129
-1.71915e-19
0.000248129
-1.23728e-19
0.000248129
1.04794e-19
0.000248129
3.38696e-20
0.000248129
1.43325e-19
0.000248129
2.75255e-20
0.000248129
-5.11189e-19
0.000248129
-2.32976e-19
0.000248129
1.07028e-19
0.000248129
-2.26822e-20
0.000248129
7.01249e-20
0.000248129
-1.71186e-19
0.000248129
-9.08088e-20
0.000248129
1.07443e-19
0.000248129
-6.55821e-20
0.000248129
-2.32799e-20
0.000248129
-2.11857e-20
0.000248129
-5.52395e-20
0.000248129
1.40656e-19
0.000248129
1.04803e-19
0.000248129
-5.06866e-20
0.000248129
-6.84592e-20
0.000248129
-1.58129e-20
0.000248129
6.35723e-20
0.000248129
-1.17196e-19
0.000248129
-1.50704e-19
0.000248129
-2.05412e-19
0.000248129
4.17834e-20
0.000248129
1.64202e-19
0.000248129
-1.82413e-19
0.000248129
-2.84356e-19
0.000248129
-2.16178e-19
0.000248129
1.18949e-19
0.000248129
9.67269e-20
0.000248129
-8.47271e-20
0.000248129
-1.58863e-19
0.000248129
-2.78096e-19
0.000248129
4.50788e-19
0.000248129
9.33684e-20
0.000248129
-3.83101e-19
0.000248129
2.57137e-19
0.000248129
-4.86502e-20
0.000248129
-1.08694e-20
0.000248129
-1.56925e-19
0.000248129
-2.67943e-19
0.000248129
6.93073e-19
0.000248129
3.04557e-19
0.000248129
-1.58691e-20
0.000248129
-1.18638e-19
0.000248129
-4.07174e-19
0.000248129
5.34218e-19
0.000248129
1.76846e-19
0.000248129
-2.47075e-19
0.000248129
2.18142e-20
0.000248129
-1.14253e-19
0.000248129
4.78017e-19
0.000248129
8.88408e-20
0.000248129
-1.76506e-19
0.000248129
-1.28013e-19
0.000248129
-5.82531e-19
0.000248129
-1.69093e-20
0.000248129
7.97146e-20
0.000248129
4.04283e-19
0.000248129
2.58438e-19
0.000248129
-4.80851e-19
0.000248129
7.78445e-20
0.000248129
-2.71083e-19
0.000248129
-7.9115e-20
0.000248129
7.63572e-20
0.000248129
-8.12874e-19
0.000248129
-4.32045e-20
0.000248129
1.36766e-19
0.000248129
2.48465e-19
0.000248129
8.60426e-20
0.000248129
-4.0988e-19
0.000248129
5.69476e-19
0.000248129
2.11716e-19
0.000248129
-2.49744e-19
0.000248129
-3.06973e-19
0.000248129
-3.6622e-19
0.000248129
7.68872e-19
0.000248129
1.37046e-19
0.000248129
-3.92408e-20
0.000248129
1.78366e-19
0.000248129
-4.47304e-19
0.000248129
2.07242e-19
0.000248129
4.3271e-20
0.000248129
-1.61445e-20
0.000248129
5.9746e-20
0.000248129
-6.13915e-20
0.000248129
6.91476e-19
0.000248129
2.53093e-19
0.000248129
2.23886e-19
0.000248129
1.218e-19
0.000248129
-3.52374e-19
0.000248129
4.45614e-19
0.000248129
3.3056e-19
0.000248129
2.97052e-19
0.000248129
9.33335e-20
0.000248129
-5.81843e-19
0.000248129
2.24811e-19
0.000248129
-1.35077e-19
0.000248129
-1.684e-19
0.000248129
-4.58644e-20
0.000248129
-6.36354e-19
0.000248129
1.15536e-19
0.000248129
5.18158e-20
0.000248129
9.82015e-20
0.000248129
1.68445e-19
0.000248129
-4.91015e-19
0.000248129
3.46371e-19
0.000248129
3.88186e-19
0.000248129
-4.1201e-20
0.000248129
-2.38315e-19
0.000248129
-2.7256e-19
0.000248129
5.49139e-19
0.000248129
2.43082e-19
0.000248129
-1.89875e-19
0.000248129
-2.67987e-20
0.000248129
-1.74696e-19
0.000248129
3.71891e-19
0.000248129
2.57952e-19
0.000248129
-2.39768e-19
0.000248129
-1.49071e-19
0.000248129
-1.09201e-19
0.000248129
4.97201e-19
0.000248129
4.15017e-19
0.000248129
1.51846e-20
0.000248129
-3.68889e-19
0.000248129
-4.57344e-19
0.000248129
2.31829e-19
0.000248129
4.96099e-20
0.000248129
2.55335e-20
0.000248129
-2.00037e-19
0.000248129
-2.98062e-20
0.000248129
3.38478e-19
0.000248129
7.03336e-20
0.000248129
4.06633e-19
0.000248129
3.83945e-19
0.000248129
6.24655e-20
0.000248129
2.88256e-19
0.000248129
1.94158e-19
0.000248129
6.22501e-19
0.000248129
5.9536e-19
6.05481e-19
0.000342385
8.7189e-19
0.000342385
8.00956e-19
0.000342385
6.81509e-19
0.000342385
5.15295e-19
0.000342385
4.60314e-19
0.000342385
4.4983e-19
0.000342385
4.34912e-19
0.000342385
3.53492e-19
0.000342385
3.31502e-19
0.000342385
2.36281e-19
0.000342385
2.09723e-19
0.000342385
2.18922e-19
0.000342385
1.79385e-19
0.000342385
1.09591e-19
0.000342385
3.09266e-20
0.000342385
1.15523e-20
0.000342385
1.3967e-20
0.000342385
-3.28306e-20
0.000342385
-9.18002e-20
0.000342385
-9.67323e-20
0.000342385
-7.10843e-20
0.000342385
-1.21327e-19
0.000342385
-1.24626e-19
0.000342385
-1.52998e-19
0.000342385
-1.77606e-19
0.000342385
-3.69835e-20
0.000342385
3.48409e-20
0.000342385
-7.07543e-20
0.000342385
-1.32614e-19
0.000342385
-4.59409e-20
0.000342385
1.24666e-19
0.000342385
3.51676e-19
0.000342385
2.97722e-19
0.000342385
1.51598e-19
0.000342385
1.03374e-19
0.000342385
1.10665e-19
0.000342385
2.74784e-19
0.000342385
2.89892e-19
0.000342385
1.95003e-19
0.000342385
2.2046e-19
0.000342385
1.49279e-19
0.000342385
7.14433e-20
0.000342385
7.53487e-20
0.000342385
-3.24837e-20
0.000342385
4.50982e-21
0.000342385
7.52978e-20
0.000342385
1.29812e-19
0.000342385
1.45622e-19
0.000342385
9.1177e-20
0.000342385
5.01124e-20
0.000342385
-1.75132e-20
0.000342385
5.02945e-20
0.000342385
7.43536e-20
0.000342385
5.64573e-20
0.000342385
1.1667e-19
0.000342385
-6.78811e-21
0.000342385
6.98864e-20
0.000342385
4.14661e-20
0.000342385
1.0354e-20
0.000342385
1.07639e-19
0.000342385
-3.32295e-20
0.000342385
2.17025e-19
0.000342385
1.10621e-19
0.000342385
4.71608e-20
0.000342385
7.01489e-20
0.000342385
-1.28312e-19
0.000342385
4.9725e-20
0.000342385
2.51636e-20
0.000342385
6.93837e-20
0.000342385
1.71398e-19
0.000342385
-3.32129e-20
0.000342385
1.14447e-20
0.000342385
-4.69875e-20
0.000342385
1.00848e-19
0.000342385
2.12031e-19
0.000342385
8.7115e-21
0.000342385
-6.32813e-20
0.000342385
-5.21557e-20
0.000342385
-1.04263e-19
0.000342385
9.28475e-20
0.000342385
-5.35697e-20
0.000342385
-1.96886e-19
0.000342385
7.04073e-21
0.000342385
8.28074e-20
0.000342385
5.25306e-20
0.000342385
-1.28787e-19
0.000342385
-1.28661e-19
0.000342385
-9.69068e-20
0.000342385
-1.1874e-19
0.000342385
4.94689e-20
0.000342385
-1.08637e-19
0.000342385
-2.50179e-19
0.000342385
-1.1386e-19
0.000342385
-1.87692e-20
0.000342385
-1.03145e-19
0.000342385
-2.74337e-19
0.000342385
-1.75372e-19
0.000342385
-2.21011e-19
0.000342385
-1.96094e-19
0.000342385
-8.86602e-20
0.000342385
-5.32922e-20
0.000342385
-1.04714e-19
0.000342385
-1.4547e-19
0.000342385
-1.28103e-19
0.000342385
-3.35285e-20
0.000342385
-9.58015e-20
0.000342385
-4.01088e-19
0.000342385
-3.26311e-19
0.000342385
1.55589e-19
0.000342385
2.55207e-19
0.000342385
-6.11665e-20
0.000342385
-4.19248e-19
0.000342385
-2.4578e-20
0.000342385
3.18907e-19
0.000342385
2.0734e-19
0.000342385
-1.13989e-19
0.000342385
-4.86852e-19
0.000342385
-2.29725e-19
0.000342385
3.8072e-19
0.000342385
2.09681e-19
0.000342385
-2.95402e-19
0.000342385
-3.65506e-19
0.000342385
1.04235e-19
0.000342385
6.86484e-19
0.000342385
5.25471e-19
0.000342385
-1.36902e-19
0.000342385
-5.35706e-19
0.000342385
-4.54326e-20
0.000342385
4.22276e-19
0.000342385
9.94296e-20
0.000342385
-1.23072e-19
0.000342385
-1.68023e-19
0.000342385
5.01025e-20
0.000342385
3.41912e-19
0.000342385
1.40717e-19
0.000342385
-1.20626e-19
0.000342385
-2.84685e-19
0.000342385
-5.66209e-20
0.000342385
3.93861e-19
0.000342385
2.33563e-19
0.000342385
-7.016e-20
0.000342385
-2.34588e-19
0.000342385
1.42614e-19
0.000342385
2.04624e-19
0.000342385
-9.62898e-20
0.000342385
-2.11035e-19
0.000342385
-3.90745e-19
0.000342385
-2.72465e-20
0.000342385
8.51549e-20
0.000342385
6.7805e-20
0.000342385
1.75875e-19
0.000342385
-1.44886e-19
0.000342385
-1.78812e-19
0.000342385
1.80714e-20
0.000342385
2.77827e-19
0.000342385
2.55089e-19
0.000342385
5.97133e-20
0.000342385
6.83584e-20
0.000342385
2.46413e-19
0.000342385
3.55378e-19
0.000342385
2.9448e-19
0.000342385
-1.25299e-19
0.000342385
4.50413e-20
0.000342385
2.21265e-19
0.000342385
-1.31512e-19
0.000342385
-3.50943e-20
0.000342385
3.30746e-21
0.000342385
1.1046e-20
0.000342385
7.54907e-20
0.000342385
-4.8239e-20
0.000342385
-1.20934e-19
0.000342385
-3.57198e-19
0.000342385
-9.88268e-20
0.000342385
2.42436e-19
0.000342385
-1.01992e-19
0.000342385
-2.59539e-19
0.000342385
-2.05615e-19
0.000342385
-1.2676e-20
0.000342385
6.04944e-21
0.000342385
2.17589e-19
0.000342385
-2.39216e-20
0.000342385
-6.40278e-19
0.000342385
-2.62025e-19
0.000342385
7.00123e-20
0.000342385
4.5476e-21
0.000342385
4.88663e-20
0.000342385
-2.27771e-19
0.000342385
-4.29923e-20
0.000342385
1.08799e-19
0.000342385
-1.22053e-19
0.000342385
-1.04143e-19
0.000342385
-3.55394e-20
0.000342385
-6.52205e-20
0.000342385
1.58449e-19
0.000342385
1.32412e-19
0.000342385
-1.55021e-20
0.000342385
-1.25069e-19
0.000342385
-1.70951e-19
0.000342385
-1.5498e-20
0.000342385
-1.39537e-19
0.000342385
-1.7045e-19
0.000342385
-2.24156e-19
0.000342385
-2.01124e-20
0.000342385
2.30943e-20
0.000342385
-1.47961e-19
0.000342385
-2.44053e-19
0.000342385
-2.61383e-19
0.000342385
6.01674e-20
0.000342385
5.25996e-20
0.000342385
-9.35669e-20
0.000342385
-1.55451e-19
0.000342385
-2.97811e-19
0.000342385
4.4101e-19
0.000342385
1.18913e-19
0.000342385
-3.68037e-19
0.000342385
2.61312e-19
0.000342385
-9.64332e-20
0.000342385
2.5167e-20
0.000342385
-1.56255e-19
0.000342385
-3.26348e-19
0.000342385
6.39111e-19
0.000342385
3.53089e-19
0.000342385
1.22529e-19
0.000342385
-6.4853e-20
0.000342385
-4.0904e-19
0.000342385
5.71892e-19
0.000342385
2.19845e-19
0.000342385
-2.64217e-19
0.000342385
-2.53783e-20
0.000342385
-1.10074e-19
0.000342385
4.9121e-19
0.000342385
8.37129e-20
0.000342385
-2.54311e-19
0.000342385
-1.81756e-19
0.000342385
-5.71776e-19
0.000342385