/*--------------------------------*- C++ -*----------------------------------*\
| =========                 |                                                 |
| \\      /  F ield         | OpenFOAM: The Open Source CFD Toolbox           |
|  \\    /   O peration     | Version:  2112                                  |
|   \\  /    A nd           | Website:  www.openfoam.com                      |
|    \\/     M anipulation  |                                                 |
\*---------------------------------------------------------------------------*/
FoamFile
{
    version     2.0;
    format      ascii;
    arch        "LSB;label=32;scalar=64";
    class       volVectorField;
    location    "3";
    object      U;
}
// * * * * * * * * * * * * * * * * * * * * * * * * * * * * * * * * * * * * * //

dimensions      [0 1 -1 0 0 0 0];

internalField   nonuniform List<vector> 
25600
(
(0.040976 1.80826e-15 0)
(0.040976 8.29258e-16 0)
(0.040976 3.77058e-16 0)
(0.040976 1.78309e-16 0)
(0.040976 1.10287e-16 0)
(0.040976 7.13888e-17 0)
(0.040976 4.33981e-17 0)
(0.040976 3.0152e-17 0)
(0.040976 1.99912e-17 0)
(0.040976 9.18655e-18 0)
(0.040976 2.13852e-17 0)
(0.040976 -1.76139e-18 0)
(0.040976 1.44179e-17 0)
(0.040976 1.3988e-17 0)
(0.040976 1.47001e-18 0)
(0.040976 2.84956e-17 0)
(0.040976 1.14434e-17 0)
(0.040976 -3.50429e-18 0)
(0.040976 -4.71844e-18 0)
(0.040976 -3.61182e-18 0)
(0.040976 7.13665e-18 0)
(0.040976 1.17834e-17 0)
(0.040976 -4.21041e-18 0)
(0.040976 -1.45109e-17 0)
(0.040976 -2.16481e-17 0)
(0.040976 -6.67195e-19 0)
(0.040976 3.74813e-17 0)
(0.040976 -3.27086e-18 0)
(0.040976 -3.43941e-17 0)
(0.040976 -3.94683e-18 0)
(0.040976 1.07269e-17 0)
(0.040976 1.73561e-17 0)
(0.040976 1.03624e-17 0)
(0.040976 -8.61306e-18 0)
(0.040976 -2.0236e-18 0)
(0.040976 2.47649e-18 0)
(0.040976 9.23395e-18 0)
(0.040976 -6.10879e-18 0)
(0.040976 4.07669e-19 0)
(0.040976 1.39015e-17 0)
(0.040976 8.69182e-18 0)
(0.040976 3.14596e-17 0)
(0.040976 -1.69872e-17 0)
(0.040976 -2.74058e-17 0)
(0.040976 3.9743e-17 0)
(0.040976 -1.15604e-17 0)
(0.040976 1.95239e-19 0)
(0.040976 2.61902e-18 0)
(0.040976 1.42728e-18 0)
(0.040976 -7.27518e-18 0)
(0.040976 -4.03697e-17 0)
(0.040976 3.5979e-17 0)
(0.040976 5.56977e-18 0)
(0.040976 -2.93188e-18 0)
(0.040976 3.73847e-17 0)
(0.040976 -3.41757e-17 0)
(0.040976 -5.24436e-18 0)
(0.040976 -2.19473e-17 0)
(0.040976 4.64947e-18 0)
(0.040976 5.81688e-17 0)
(0.040976 -3.52658e-17 0)
(0.040976 2.9498e-18 0)
(0.040976 2.54418e-18 0)
(0.040976 -1.2354e-18 0)
(0.040976 1.64147e-17 0)
(0.040976 -2.67523e-17 0)
(0.040976 -1.20127e-17 0)
(0.040976 -2.29899e-17 0)
(0.040976 2.74951e-17 0)
(0.040976 1.18617e-17 0)
(0.040976 -8.84132e-19 0)
(0.040976 9.57493e-19 0)
(0.040976 -1.90184e-18 0)
(0.040976 -2.28028e-18 0)
(0.040976 1.01476e-17 0)
(0.040976 -2.11425e-18 0)
(0.040976 -2.17657e-17 0)
(0.040976 2.556e-17 0)
(0.040976 5.56224e-18 0)
(0.040976 4.0665e-17 0)
(0.040976 -4.01205e-17 0)
(0.040976 -4.98223e-17 0)
(0.040976 3.61565e-17 0)
(0.040976 1.57192e-17 0)
(0.040976 4.47716e-17 0)
(0.040976 -4.41175e-18 0)
(0.040976 -8.22016e-17 0)
(0.040976 -8.54662e-18 0)
(0.040976 4.0619e-17 0)
(0.040976 6.17765e-17 0)
(0.040976 -8.74376e-18 0)
(0.040976 -9.27059e-17 0)
(0.040976 -1.22644e-17 0)
(0.040976 7.53092e-17 0)
(0.040976 3.85858e-18 0)
(0.040976 -7.60993e-17 0)
(0.040976 -1.29113e-18 0)
(0.040976 2.15331e-18 0)
(0.040976 8.24391e-17 0)
(0.040976 3.36252e-17 0)
(0.040976 -1.19486e-16 0)
(0.040976 3.75537e-19 0)
(0.040976 1.6508e-18 0)
(0.040976 7.25899e-17 0)
(0.040976 6.23473e-18 0)
(0.040976 -4.20524e-17 0)
(0.040976 -4.19311e-17 0)
(0.040976 2.75407e-17 0)
(0.040976 4.30186e-17 0)
(0.040976 -2.34933e-17 0)
(0.040976 2.20841e-17 0)
(0.040976 -1.28183e-16 0)
(0.040976 3.06145e-17 0)
(0.040976 9.83823e-17 0)
(0.040976 9.14327e-18 0)
(0.040976 -4.22012e-17 0)
(0.040976 -9.49402e-17 0)
(0.040976 5.89829e-17 0)
(0.040976 6.0577e-17 0)
(0.040976 7.85208e-18 0)
(0.040976 -1.87132e-17 0)
(0.040976 -9.25983e-17 0)
(0.040976 -1.183e-18 0)
(0.040976 9.74653e-17 0)
(0.040976 2.08998e-17 0)
(0.040976 -5.1178e-17 0)
(0.040976 -6.12079e-17 0)
(0.040976 6.52892e-18 0)
(0.040976 1.01816e-16 0)
(0.040976 7.05859e-18 0)
(0.040976 -5.55315e-17 0)
(0.040976 -5.14634e-17 0)
(0.040976 4.02747e-17 0)
(0.040976 4.95512e-17 0)
(0.040976 -3.83135e-17 0)
(0.040976 -4.06437e-17 0)
(0.040976 -6.43255e-18 0)
(0.040976 7.14849e-17 0)
(0.040976 3.04047e-17 0)
(0.040976 -3.09506e-17 0)
(0.040976 -4.19673e-17 0)
(0.040976 -8.66168e-18 0)
(0.040976 7.19982e-17 0)
(0.040976 1.68648e-17 0)
(0.040976 -6.44901e-17 0)
(0.040976 6.17673e-17 0)
(0.040976 -1.71415e-17 0)
(0.040976 -6.77655e-17 0)
(0.040976 -1.13801e-17 0)
(0.040976 3.90937e-18 0)
(0.040976 9.11982e-17 0)
(0.040976 -8.4594e-18 0)
(0.040976 -8.7789e-17 0)
(0.040976 8.85363e-18 0)
(0.040976 4.73956e-17 0)
(0.040976 4.72256e-17 0)
(0.040976 -4.51654e-17 0)
(0.040976 -5.41861e-17 0)
(0.040976 4.11082e-17 0)
(0.040976 2.2461e-17 0)
(0.040976 8.6581e-17 0)
(0.040976 -9.45665e-17 0)
(0.040976 -8.28338e-17 0)
(0.040976 9.0929e-17 0)
(0.040976 4.72021e-18 0)
(0.040976 8.29682e-17 0)
(0.040976 -6.4394e-17 0)
(0.040976 -3.07643e-17 0)
(0.040976 1.7704e-18 0)
(0.040976 -5.53273e-17 0)
(0.040976 1.37299e-16 0)
(0.040976 -6.92898e-17 0)
(0.040976 -1.05855e-17 0)
(0.040976 -9.26904e-19 0)
(0.040976 -5.14891e-17 0)
(0.040976 1.28648e-16 0)
(0.040976 -7.47572e-17 0)
(0.040976 1.42953e-17 0)
(0.040976 -1.17389e-17 0)
(0.040976 -6.57427e-17 0)
(0.040976 1.54186e-16 0)
(0.040976 -8.75548e-17 0)
(0.040976 -1.27745e-17 0)
(0.040976 1.8047e-18 0)
(0.040976 -6.54746e-17 0)
(0.040976 1.52262e-16 0)
(0.040976 -7.42654e-17 0)
(0.040976 -5.12372e-18 0)
(0.040976 7.98551e-17 0)
(0.040976 -1.50493e-16 0)
(0.040976 6.44854e-17 0)
(0.040976 -6.6007e-18 0)
(0.040976 -7.34416e-17 0)
(0.040976 1.61611e-16 0)
(0.040976 -5.63691e-17 0)
(0.040976 -1.2539e-17 0)
(0.040976 -8.07239e-17 0)
(0.040976 8.975e-18 0)
(0.040976 2.31088e-16 0)
(0.040976 -1.4411e-16 0)
(0.040976 -2.2908e-17 0)
(0.040976 -8.13977e-17 0)
(0.040976 5.61082e-18 0)
(0.040976 2.32136e-16 0)
(0.040976 -1.41368e-16 0)
(0.040976 -1.00978e-16 0)
(0.040976 -1.25167e-17 0)
(0.040976 1.00221e-16 0)
(0.040976 1.66729e-16 0)
(0.040976 -7.9413e-17 0)
(0.040976 -1.75084e-16 0)
(0.040976 -7.99282e-17 0)
(0.040976 2.53954e-16 0)
(0.040976 1.76834e-18 0)
(0.040976 -2.51936e-16 0)
(0.040976 2.31411e-16 0)
(0.040976 8.51336e-17 0)
(0.040976 -1.51439e-16 0)
(0.040976 -1.01669e-16 0)
(0.040976 -8.18193e-17 0)
(0.040976 2.68935e-16 0)
(0.040976 1.02631e-16 0)
(0.040976 -1.5743e-16 0)
(0.040976 -1.05574e-16 0)
(0.040976 -9.20141e-17 0)
(0.040976 2.53913e-16 0)
(0.040976 1.44589e-17 0)
(0.040976 -9.67225e-17 0)
(0.040976 -1.47158e-17 0)
(0.040976 -1.39933e-16 0)
(0.040976 2.37823e-16 0)
(0.040976 1.11442e-17 0)
(0.040976 -1.34661e-16 0)
(0.040976 5.59867e-17 0)
(0.040976 -9.12711e-17 0)
(0.040976 1.42336e-16 0)
(0.040976 2.01968e-17 0)
(0.040976 -5.66722e-17 0)
(0.040976 -7.46522e-19 0)
(0.040976 -1.5844e-16 0)
(0.040976 2.16943e-16 0)
(0.040976 1.2475e-17 0)
(0.040976 -6.433e-17 0)
(0.040976 7.10752e-17 0)
(0.040976 -1.84685e-16 0)
(0.040976 -1.12619e-17 0)
(0.040976 9.00435e-17 0)
(0.040976 9.64361e-17 0)
(0.040976 -3.69154e-18 0)
(0.040976 -1.71182e-16 0)
(0.040976 9.0778e-17 0)
(0.040976 2.01902e-17 0)
(0.040976 -3.64371e-18 0)
(0.040976 5.84526e-17 0)
(0.040976 -1.61454e-16 0)
(0.040976 1.03188e-16 0)
(0.040976 9.84398e-18 0)
(0.040976 -5.01717e-18 0)
(0.040976 7.36707e-17 0)
(0.040976 -1.69907e-16 0)
(0.040976 7.22411e-17 0)
(0.040976 1.62676e-17 0)
(0.040976 6.30112e-18 0)
(0.040976 6.71236e-17 0)
(0.040976 -1.48528e-16 0)
(0.040976 9.76614e-17 0)
(0.040976 8.62387e-17 0)
(0.040976 -6.31078e-17 0)
(0.040976 -1.70794e-17 0)
(0.040976 -9.72346e-17 0)
(0.040976 8.86514e-17 0)
(0.040976 7.49196e-17 0)
(0.040976 -1.12936e-16 0)
(0.040976 6.10374e-17 0)
(0.040976 -1.44371e-17 0)
(0.040976 2.40494e-17 0)
(0.040976 6.17118e-17 0)
(0.040976 -1.44942e-16 0)
(0.040976 6.8266e-17 0)
(0.040976 -1.91022e-17 0)
(0.040976 6.51066e-18 0)
(0.040976 7.07909e-17 0)
(0.040976 -1.29537e-16 0)
(0.040976 6.70855e-17 0)
(0.040976 -2.66717e-17 0)
(0.040976 -5.29033e-17 0)
(0.040976 1.55599e-16 0)
(0.040976 -5.79312e-17 0)
(0.040976 -4.38642e-17 0)
(0.040976 -9.72597e-17 0)
(0.040976 4.88092e-17 0)
(0.040976 2.33563e-16 0)
(0.040976 -5.91227e-18 0)
(0.040976 -2.28795e-16 0)
(0.040976 -2.29425e-17 0)
(0.040976 1.04599e-16 0)
(0.040976 2.71496e-17 0)
(0.040976 1.26322e-16 0)
(0.040976 -2.2519e-16 0)
(0.040976 -2.49967e-17 0)
(0.040976 1.08189e-16 0)
(0.040976 2.61275e-17 0)
(0.040976 8.2805e-17 0)
(0.040976 -1.3673e-16 0)
(0.040976 3.89705e-17 0)
(0.040976 2.02587e-17 0)
(0.040976 -5.32491e-17 0)
(0.040976 1.47059e-16 0)
(0.040976 -7.8939e-17 0)
(0.040976 -3.37027e-18 0)
(0.040976 1.69273e-17 0)
(0.040976 -5.92458e-17 0)
(0.040976 1.80638e-16 0)
(0.040976 -3.5833e-17 0)
(0.040976 -4.82044e-17 0)
(0.040976 1.36598e-16 0)
(0.040976 1.00069e-16 0)
(0.040976 2.5914e-16 0)
(0.040976 2.96446e-16 0)
(0.040976 7.06336e-16 0)
(0.120831 2.71817e-15 0)
(0.120831 1.33394e-15 0)
(0.120831 5.56928e-16 0)
(0.120831 2.95985e-16 0)
(0.120831 2.32445e-16 0)
(0.120831 1.66083e-16 0)
(0.120831 1.1368e-16 0)
(0.120831 9.80825e-17 0)
(0.120831 6.8552e-17 0)
(0.120831 4.33592e-17 0)
(0.120831 3.40646e-17 0)
(0.120831 6.83549e-18 0)
(0.120831 3.38123e-17 0)
(0.120831 5.33812e-17 0)
(0.120831 2.10168e-17 0)
(0.120831 6.21277e-17 0)
(0.120831 3.83499e-17 0)
(0.120831 1.84046e-17 0)
(0.120831 -2.61104e-17 0)
(0.120831 -4.366e-17 0)
(0.120831 5.30012e-18 0)
(0.120831 -1.86959e-18 0)
(0.120831 -3.16253e-17 0)
(0.120831 -4.27446e-17 0)
(0.120831 -5.73956e-17 0)
(0.120831 -3.45626e-17 0)
(0.120831 1.44145e-17 0)
(0.120831 -9.91392e-18 0)
(0.120831 -5.3295e-17 0)
(0.120831 -2.69101e-17 0)
(0.120831 1.77719e-17 0)
(0.120831 6.91542e-17 0)
(0.120831 4.39456e-17 0)
(0.120831 1.33104e-17 0)
(0.120831 2.93755e-17 0)
(0.120831 3.50193e-17 0)
(0.120831 7.11996e-17 0)
(0.120831 7.52003e-18 0)
(0.120831 3.82019e-18 0)
(0.120831 9.15253e-17 0)
(0.120831 1.84125e-17 0)
(0.120831 3.33895e-17 0)
(0.120831 5.2554e-18 0)
(0.120831 -3.07844e-17 0)
(0.120831 4.64655e-17 0)
(0.120831 5.62172e-18 0)
(0.120831 1.44761e-17 0)
(0.120831 2.52356e-17 0)
(0.120831 1.35214e-17 0)
(0.120831 -1.715e-17 0)
(0.120831 -6.94859e-17 0)
(0.120831 2.62824e-17 0)
(0.120831 1.23123e-17 0)
(0.120831 6.59338e-18 0)
(0.120831 7.60973e-17 0)
(0.120831 -3.14083e-17 0)
(0.120831 -1.14182e-17 0)
(0.120831 5.24824e-18 0)
(0.120831 1.22099e-17 0)
(0.120831 4.94285e-17 0)
(0.120831 -4.15719e-17 0)
(0.120831 4.11288e-17 0)
(0.120831 -3.90114e-18 0)
(0.120831 -1.49435e-17 0)
(0.120831 2.12036e-17 0)
(0.120831 -5.45285e-17 0)
(0.120831 -3.2536e-17 0)
(0.120831 -1.14758e-17 0)
(0.120831 2.48686e-17 0)
(0.120831 5.32978e-17 0)
(0.120831 -1.68776e-17 0)
(0.120831 3.88433e-18 0)
(0.120831 -1.61644e-19 0)
(0.120831 -1.59917e-17 0)
(0.120831 1.44642e-16 0)
(0.120831 -5.30513e-17 0)
(0.120831 -9.70075e-17 0)
(0.120831 6.99987e-17 0)
(0.120831 3.26364e-17 0)
(0.120831 7.51777e-17 0)
(0.120831 -2.71484e-17 0)
(0.120831 -1.26038e-16 0)
(0.120831 -2.02306e-17 0)
(0.120831 6.95568e-17 0)
(0.120831 6.13381e-17 0)
(0.120831 -9.64012e-18 0)
(0.120831 -1.07822e-16 0)
(0.120831 -6.63168e-17 0)
(0.120831 1.05391e-16 0)
(0.120831 1.60357e-16 0)
(0.120831 -5.19476e-17 0)
(0.120831 -1.62539e-16 0)
(0.120831 -5.69071e-17 0)
(0.120831 5.92018e-17 0)
(0.120831 5.66927e-18 0)
(0.120831 -1.19399e-16 0)
(0.120831 -3.89477e-17 0)
(0.120831 -8.71874e-18 0)
(0.120831 1.09426e-16 0)
(0.120831 5.11521e-17 0)
(0.120831 -1.53276e-16 0)
(0.120831 3.0147e-17 0)
(0.120831 -4.96133e-17 0)
(0.120831 3.2706e-17 0)
(0.120831 4.43892e-17 0)
(0.120831 -5.87161e-17 0)
(0.120831 -1.02814e-16 0)
(0.120831 -2.60821e-18 0)
(0.120831 6.18845e-17 0)
(0.120831 -1.46293e-17 0)
(0.120831 7.83336e-18 0)
(0.120831 -2.23495e-16 0)
(0.120831 3.40694e-17 0)
(0.120831 2.27218e-16 0)
(0.120831 3.38962e-17 0)
(0.120831 -6.71464e-17 0)
(0.120831 -1.57946e-16 0)
(0.120831 -7.41134e-18 0)
(0.120831 1.09613e-16 0)
(0.120831 9.57448e-18 0)
(0.120831 -5.60245e-17 0)
(0.120831 -1.32219e-16 0)
(0.120831 1.82712e-17 0)
(0.120831 2.12827e-16 0)
(0.120831 1.00632e-16 0)
(0.120831 -7.66439e-17 0)
(0.120831 -1.57974e-16 0)
(0.120831 1.23601e-17 0)
(0.120831 2.00957e-16 0)
(0.120831 2.41259e-17 0)
(0.120831 -1.11742e-16 0)
(0.120831 -1.27942e-16 0)
(0.120831 5.353e-17 0)
(0.120831 1.17725e-16 0)
(0.120831 -1.24003e-17 0)
(0.120831 7.80776e-18 0)
(0.120831 -1.00142e-16 0)
(0.120831 -4.66698e-17 0)
(0.120831 1.48072e-16 0)
(0.120831 9.2477e-17 0)
(0.120831 3.18817e-17 0)
(0.120831 -9.83101e-17 0)
(0.120831 -3.73864e-17 0)
(0.120831 9.67684e-17 0)
(0.120831 4.59388e-17 0)
(0.120831 -5.08332e-17 0)
(0.120831 -1.73734e-16 0)
(0.120831 -2.1729e-17 0)
(0.120831 1.93847e-17 0)
(0.120831 9.85478e-17 0)
(0.120831 1.21415e-16 0)
(0.120831 -2.21017e-16 0)
(0.120831 -1.55711e-16 0)
(0.120831 1.07083e-16 0)
(0.120831 1.08315e-16 0)
(0.120831 1.05529e-16 0)
(0.120831 -6.21929e-17 0)
(0.120831 -8.8084e-17 0)
(0.120831 6.77163e-17 0)
(0.120831 8.30872e-17 0)
(0.120831 1.3509e-16 0)
(0.120831 -1.39883e-16 0)
(0.120831 -1.55389e-17 0)
(0.120831 1.47072e-16 0)
(0.120831 -1.55076e-16 0)
(0.120831 6.96962e-17 0)
(0.120831 -4.36727e-17 0)
(0.120831 -1.95944e-16 0)
(0.120831 1.85126e-16 0)
(0.120831 1.40247e-16 0)
(0.120831 -3.87409e-19 0)
(0.120831 -1.66942e-16 0)
(0.120831 -5.99302e-17 0)
(0.120831 8.25005e-18 0)
(0.120831 -5.40192e-17 0)
(0.120831 -1.41863e-17 0)
(0.120831 -2.4837e-18 0)
(0.120831 2.98831e-16 0)
(0.120831 -4.95977e-17 0)
(0.120831 -1.32181e-16 0)
(0.120831 1.52483e-16 0)
(0.120831 -1.99145e-16 0)
(0.120831 -6.96196e-17 0)
(0.120831 6.75523e-18 0)
(0.120831 -6.30202e-17 0)
(0.120831 1.97651e-16 0)
(0.120831 -1.16898e-16 0)
(0.120831 -2.60996e-17 0)
(0.120831 1.01428e-16 0)
(0.120831 -1.74738e-16 0)
(0.120831 5.71439e-17 0)
(0.120831 -2.15308e-17 0)
(0.120831 -9.2706e-17 0)
(0.120831 2.2367e-16 0)
(0.120831 -1.46934e-17 0)
(0.120831 -1.22081e-17 0)
(0.120831 -1.10308e-16 0)
(0.120831 1.53001e-17 0)
(0.120831 2.82717e-16 0)
(0.120831 -1.86571e-16 0)
(0.120831 -7.60838e-17 0)
(0.120831 -1.38271e-16 0)
(0.120831 1.75844e-17 0)
(0.120831 3.03273e-16 0)
(0.120831 -1.07126e-16 0)
(0.120831 -2.73049e-16 0)
(0.120831 -1.42213e-16 0)
(0.120831 2.0695e-16 0)
(0.120831 2.33408e-16 0)
(0.120831 -1.03297e-16 0)
(0.120831 -2.53075e-16 0)
(0.120831 -1.2022e-16 0)
(0.120831 3.76336e-16 0)
(0.120831 2.40357e-17 0)
(0.120831 -3.63572e-16 0)
(0.120831 2.87639e-16 0)
(0.120831 1.1249e-16 0)
(0.120831 -1.91468e-16 0)
(0.120831 -1.69233e-16 0)
(0.120831 -1.28525e-16 0)
(0.120831 4.45607e-16 0)
(0.120831 2.18608e-16 0)
(0.120831 -1.91696e-16 0)
(0.120831 -1.88397e-16 0)
(0.120831 -1.5626e-16 0)
(0.120831 3.82111e-16 0)
(0.120831 6.8541e-17 0)
(0.120831 -1.21775e-16 0)
(0.120831 7.05742e-17 0)
(0.120831 -1.0952e-16 0)
(0.120831 8.55254e-17 0)
(0.120831 -6.12721e-17 0)
(0.120831 5.83479e-17 0)
(0.120831 6.16967e-17 0)
(0.120831 -2.8676e-16 0)
(0.120831 6.00408e-17 0)
(0.120831 1.21769e-16 0)
(0.120831 2.5159e-17 0)
(0.120831 5.68311e-17 0)
(0.120831 -1.99211e-16 0)
(0.120831 7.4329e-17 0)
(0.120831 -3.36839e-17 0)
(0.120831 -5.06968e-18 0)
(0.120831 8.82171e-17 0)
(0.120831 -3.39915e-16 0)
(0.120831 -4.78156e-17 0)
(0.120831 1.48092e-16 0)
(0.120831 1.74831e-16 0)
(0.120831 3.1291e-18 0)
(0.120831 -2.72738e-16 0)
(0.120831 1.95957e-16 0)
(0.120831 7.91735e-17 0)
(0.120831 -3.79669e-17 0)
(0.120831 -3.51284e-18 0)
(0.120831 -2.41808e-16 0)
(0.120831 2.30201e-16 0)
(0.120831 7.1511e-17 0)
(0.120831 -1.97498e-17 0)
(0.120831 9.62362e-17 0)
(0.120831 -2.48787e-16 0)
(0.120831 1.18069e-16 0)
(0.120831 1.11924e-16 0)
(0.120831 -7.3543e-17 0)
(0.120831 -8.76253e-18 0)
(0.120831 -1.03597e-16 0)
(0.120831 2.25687e-16 0)
(0.120831 1.96996e-16 0)
(0.120831 3.94853e-17 0)
(0.120831 -9.1562e-17 0)
(0.120831 -1.77669e-16 0)
(0.120831 1.47991e-16 0)
(0.120831 1.17138e-16 0)
(0.120831 1.65555e-16 0)
(0.120831 -5.97241e-17 0)
(0.120831 -1.94825e-16 0)
(0.120831 8.94179e-17 0)
(0.120831 -6.56649e-18 0)
(0.120831 -1.39145e-16 0)
(0.120831 4.90092e-17 0)
(0.120831 -1.2136e-16 0)
(0.120831 1.43668e-17 0)
(0.120831 1.3059e-16 0)
(0.120831 2.995e-17 0)
(0.120831 -7.11787e-17 0)
(0.120831 -1.87521e-16 0)
(0.120831 4.57416e-17 0)
(0.120831 2.21029e-16 0)
(0.120831 1.50337e-16 0)
(0.120831 -2.50408e-16 0)
(0.120831 -1.69396e-16 0)
(0.120831 2.61143e-16 0)
(0.120831 2.21887e-17 0)
(0.120831 -5.75988e-17 0)
(0.120831 -1.1302e-16 0)
(0.120831 1.59768e-17 0)
(0.120831 3.33606e-16 0)
(0.120831 -6.76056e-17 0)
(0.120831 -7.6621e-17 0)
(0.120831 -1.85652e-16 0)
(0.120831 2.21287e-18 0)
(0.120831 3.72918e-16 0)
(0.120831 3.61057e-18 0)
(0.120831 1.19122e-16 0)
(0.120831 -1.1103e-16 0)
(0.120831 -3.51301e-16 0)
(0.120831 -6.98006e-18 0)
(0.120831 1.28354e-16 0)
(0.120831 1.95497e-16 0)
(0.120831 -1.52047e-16 0)
(0.120831 -1.33212e-17 0)
(0.120831 5.40148e-17 0)
(0.120831 -3.45097e-17 0)
(0.120831 2.95476e-16 0)
(0.120831 2.56559e-17 0)
(0.120831 -4.1855e-18 0)
(0.120831 2.82913e-16 0)
(0.120831 7.97345e-17 0)
(0.120831 3.00046e-16 0)
(0.120831 4.70332e-16 0)
(0.120831 1.09504e-15 0)
(0.198503 1.38771e-15 0)
(0.198503 9.69385e-16 0)
(0.198503 5.85068e-16 0)
(0.198503 4.37571e-16 0)
(0.198503 3.39867e-16 0)
(0.198503 2.68952e-16 0)
(0.198503 2.06732e-16 0)
(0.198503 1.97663e-16 0)
(0.198503 1.41863e-16 0)
(0.198503 1.12343e-16 0)
(0.198503 9.2315e-17 0)
(0.198503 5.26691e-17 0)
(0.198503 9.07164e-17 0)
(0.198503 7.4434e-17 0)
(0.198503 3.03017e-17 0)
(0.198503 6.16338e-17 0)
(0.198503 3.27623e-17 0)
(0.198503 1.41154e-17 0)
(0.198503 -3.53696e-17 0)
(0.198503 -7.25906e-17 0)
(0.198503 -7.14937e-18 0)
(0.198503 -5.50427e-17 0)
(0.198503 -6.9265e-17 0)
(0.198503 -5.27121e-17 0)
(0.198503 -6.30363e-17 0)
(0.198503 -6.91313e-17 0)
(0.198503 -2.44836e-17 0)
(0.198503 -4.14091e-17 0)
(0.198503 -7.11889e-17 0)
(0.198503 -4.72465e-17 0)
(0.198503 4.93087e-17 0)
(0.198503 1.78762e-16 0)
(0.198503 1.13264e-16 0)
(0.198503 4.24502e-17 0)
(0.198503 5.27699e-17 0)
(0.198503 5.49495e-17 0)
(0.198503 1.42381e-16 0)
(0.198503 1.06365e-16 0)
(0.198503 4.54894e-17 0)
(0.198503 1.03166e-16 0)
(0.198503 8.71949e-17 0)
(0.198503 6.43107e-17 0)
(0.198503 2.85737e-17 0)
(0.198503 -3.56731e-17 0)
(0.198503 -2.11717e-17 0)
(0.198503 3.93089e-17 0)
(0.198503 4.31486e-17 0)
(0.198503 5.36491e-17 0)
(0.198503 4.46242e-17 0)
(0.198503 1.01447e-17 0)
(0.198503 -8.6713e-18 0)
(0.198503 -1.45112e-17 0)
(0.198503 -7.68886e-18 0)
(0.198503 1.91136e-17 0)
(0.198503 7.52409e-17 0)
(0.198503 -1.9016e-18 0)
(0.198503 6.0608e-18 0)
(0.198503 2.1423e-17 0)
(0.198503 2.12571e-17 0)
(0.198503 5.72662e-17 0)
(0.198503 -3.59923e-17 0)
(0.198503 1.30364e-16 0)
(0.198503 -4.96978e-18 0)
(0.198503 -6.30599e-17 0)
(0.198503 5.98175e-17 0)
(0.198503 -8.99513e-17 0)
(0.198503 -3.29353e-17 0)
(0.198503 -1.54089e-17 0)
(0.198503 3.86728e-17 0)
(0.198503 6.55742e-17 0)
(0.198503 -3.0944e-17 0)
(0.198503 -2.23934e-18 0)
(0.198503 -4.88358e-19 0)
(0.198503 8.23586e-17 0)
(0.198503 1.58675e-16 0)
(0.198503 -3.4762e-17 0)
(0.198503 -8.21934e-17 0)
(0.198503 3.86024e-17 0)
(0.198503 2.78523e-17 0)
(0.198503 6.19678e-17 0)
(0.198503 -6.81979e-17 0)
(0.198503 -1.21349e-16 0)
(0.198503 2.60588e-17 0)
(0.198503 5.07249e-17 0)
(0.198503 1.06556e-17 0)
(0.198503 -5.72604e-17 0)
(0.198503 -1.48773e-17 0)
(0.198503 -6.85133e-17 0)
(0.198503 4.87839e-19 0)
(0.198503 1.20217e-16 0)
(0.198503 -6.6779e-17 0)
(0.198503 -1.49091e-16 0)
(0.198503 -4.64023e-17 0)
(0.198503 -3.23019e-17 0)
(0.198503 -3.40683e-17 0)
(0.198503 -9.99487e-17 0)
(0.198503 -9.93199e-17 0)
(0.198503 -5.6679e-17 0)
(0.198503 -7.99995e-18 0)
(0.198503 2.59978e-17 0)
(0.198503 -2.78569e-17 0)
(0.198503 -1.89872e-17 0)
(0.198503 -4.39188e-17 0)
(0.198503 -2.5433e-17 0)
(0.198503 -9.05414e-18 0)
(0.198503 -2.92799e-17 0)
(0.198503 -1.82957e-16 0)
(0.198503 -1.50275e-16 0)
(0.198503 6.54673e-17 0)
(0.198503 9.71445e-17 0)
(0.198503 -1.07171e-17 0)
(0.198503 -2.79269e-16 0)
(0.198503 2.92803e-17 0)
(0.198503 2.44277e-16 0)
(0.198503 1.20721e-16 0)
(0.198503 -3.90579e-17 0)
(0.198503 -2.61478e-16 0)
(0.198503 -1.2058e-16 0)
(0.198503 2.42537e-16 0)
(0.198503 1.3898e-16 0)
(0.198503 -1.57829e-16 0)
(0.198503 -2.321e-16 0)
(0.198503 3.4455e-17 0)
(0.198503 3.7079e-16 0)
(0.198503 2.6911e-16 0)
(0.198503 -1.01221e-16 0)
(0.198503 -3.83205e-16 0)
(0.198503 1.12863e-17 0)
(0.198503 2.97701e-16 0)
(0.198503 4.70977e-17 0)
(0.198503 -1.05612e-16 0)
(0.198503 -2.38612e-16 0)
(0.198503 4.73195e-17 0)
(0.198503 2.46013e-16 0)
(0.198503 1.48854e-17 0)
(0.198503 -7.80252e-17 0)
(0.198503 -1.4451e-16 0)
(0.198503 -2.70578e-18 0)
(0.198503 2.59384e-16 0)
(0.198503 1.34537e-16 0)
(0.198503 -6.04979e-17 0)
(0.198503 -1.3322e-16 0)
(0.198503 5.89025e-17 0)
(0.198503 1.30022e-16 0)
(0.198503 -4.37179e-17 0)
(0.198503 -1.60187e-16 0)
(0.198503 -1.65908e-16 0)
(0.198503 5.44115e-17 0)
(0.198503 3.0197e-17 0)
(0.198503 -3.78166e-17 0)
(0.198503 1.44636e-16 0)
(0.198503 -8.74736e-17 0)
(0.198503 -1.99696e-16 0)
(0.198503 9.17456e-19 0)
(0.198503 1.12941e-16 0)
(0.198503 2.08789e-16 0)
(0.198503 2.29557e-17 0)
(0.198503 -9.53729e-17 0)
(0.198503 8.04859e-17 0)
(0.198503 1.88236e-16 0)
(0.198503 1.87412e-16 0)
(0.198503 -1.61459e-16 0)
(0.198503 -1.07969e-16 0)
(0.198503 1.8056e-16 0)
(0.198503 7.09637e-18 0)
(0.198503 8.22283e-18 0)
(0.198503 -5.5949e-17 0)
(0.198503 -7.85369e-17 0)
(0.198503 3.17373e-17 0)
(0.198503 4.54628e-17 0)
(0.198503 -3.7272e-17 0)
(0.198503 -1.5683e-16 0)
(0.198503 -8.67578e-17 0)
(0.198503 5.49962e-17 0)
(0.198503 9.6442e-17 0)
(0.198503 -1.10322e-16 0)
(0.198503 -1.23521e-16 0)
(0.198503 1.24492e-16 0)
(0.198503 4.89839e-17 0)
(0.198503 1.43582e-16 0)
(0.198503 2.04991e-17 0)
(0.198503 -4.09593e-16 0)
(0.198503 -1.73357e-16 0)
(0.198503 8.58682e-17 0)
(0.198503 3.0923e-17 0)
(0.198503 1.17702e-16 0)
(0.198503 -1.58162e-16 0)
(0.198503 -1.25541e-16 0)
(0.198503 1.07212e-16 0)
(0.198503 -2.65235e-17 0)
(0.198503 -5.98276e-18 0)
(0.198503 -1.67014e-17 0)
(0.198503 -3.51943e-17 0)
(0.198503 9.24896e-17 0)
(0.198503 6.47398e-17 0)
(0.198503 -2.22659e-18 0)
(0.198503 -4.41362e-17 0)
(0.198503 -2.69315e-18 0)
(0.198503 5.73453e-17 0)
(0.198503 -8.25302e-17 0)
(0.198503 -9.25727e-17 0)
(0.198503 -1.09471e-16 0)
(0.198503 5.1598e-18 0)
(0.198503 8.33132e-17 0)
(0.198503 -8.20292e-17 0)
(0.198503 -1.77178e-16 0)
(0.198503 -1.13469e-16 0)
(0.198503 6.00908e-17 0)
(0.198503 6.46925e-17 0)
(0.198503 -5.06792e-17 0)
(0.198503 -1.26288e-16 0)
(0.198503 -1.56133e-16 0)
(0.198503 3.50218e-16 0)
(0.198503 5.66251e-17 0)
(0.198503 -3.1599e-16 0)
(0.198503 2.22384e-16 0)
(0.198503 -4.23033e-17 0)
(0.198503 -5.98378e-17 0)
(0.198503 -1.17364e-16 0)
(0.198503 -2.12862e-16 0)
(0.198503 5.54293e-16 0)
(0.198503 2.37105e-16 0)
(0.198503 -7.59104e-17 0)
(0.198503 -1.24109e-16 0)
(0.198503 -2.89529e-16 0)
(0.198503 4.26126e-16 0)
(0.198503 1.19313e-16 0)
(0.198503 -1.45561e-16 0)
(0.198503 -2.20986e-17 0)
(0.198503 -1.74738e-16 0)
(0.198503 3.94114e-16 0)
(0.198503 7.31659e-17 0)
(0.198503 -1.31803e-16 0)
(0.198503 -3.36418e-17 0)
(0.198503 -3.90103e-16 0)
(0.198503 2.26486e-17 0)
(0.198503 6.95751e-18 0)
(0.198503 2.50285e-16 0)
(0.198503 2.66777e-16 0)
(0.198503 -3.80419e-16 0)
(0.198503 1.2582e-17 0)
(0.198503 -1.72747e-16 0)
(0.198503 3.48579e-17 0)
(0.198503 1.1714e-16 0)
(0.198503 -6.3738e-16 0)
(0.198503 -5.20114e-17 0)
(0.198503 1.75313e-16 0)
(0.198503 2.34533e-16 0)
(0.198503 1.55447e-17 0)
(0.198503 -3.47117e-16 0)
(0.198503 5.11095e-16 0)
(0.198503 1.48479e-16 0)
(0.198503 -2.65814e-16 0)
(0.198503 -2.71922e-16 0)
(0.198503 -2.75168e-16 0)
(0.198503 6.57111e-16 0)
(0.198503 9.3334e-17 0)
(0.198503 -1.47152e-16 0)
(0.198503 9.06618e-17 0)
(0.198503 -2.88458e-16 0)
(0.198503 2.65118e-16 0)
(0.198503 6.82271e-17 0)
(0.198503 -8.2795e-17 0)
(0.198503 -2.90316e-18 0)
(0.198503 -1.32593e-16 0)
(0.198503 5.05223e-16 0)
(0.198503 2.30152e-16 0)
(0.198503 4.60951e-17 0)
(0.198503 6.80074e-17 0)
(0.198503 -2.44971e-16 0)
(0.198503 2.43779e-16 0)
(0.198503 2.31084e-16 0)
(0.198503 1.82395e-16 0)
(0.198503 7.9907e-17 0)
(0.198503 -3.47213e-16 0)
(0.198503 8.99895e-17 0)
(0.198503 -4.38087e-17 0)
(0.198503 -1.2386e-16 0)
(0.198503 -2.64862e-17 0)
(0.198503 -3.94496e-16 0)
(0.198503 4.77516e-17 0)
(0.198503 7.51019e-17 0)
(0.198503 6.76736e-17 0)
(0.198503 1.00996e-16 0)
(0.198503 -2.89959e-16 0)
(0.198503 1.77515e-16 0)
(0.198503 2.79022e-16 0)
(0.198503 -4.32013e-17 0)
(0.198503 -1.60611e-16 0)
(0.198503 -1.85785e-16 0)
(0.198503 2.88862e-16 0)
(0.198503 2.07031e-16 0)
(0.198503 -1.74454e-16 0)
(0.198503 1.76678e-17 0)
(0.198503 -4.43599e-17 0)
(0.198503 1.07879e-16 0)
(0.198503 2.5047e-16 0)
(0.198503 -1.26442e-16 0)
(0.198503 -1.31835e-16 0)
(0.198503 -1.03392e-16 0)
(0.198503 2.56004e-16 0)
(0.198503 4.64686e-16 0)
(0.198503 7.05618e-17 0)
(0.198503 -4.15834e-16 0)
(0.198503 -2.49474e-16 0)
(0.198503 1.10715e-16 0)
(0.198503 6.49419e-17 0)
(0.198503 8.87222e-17 0)
(0.198503 -2.52522e-16 0)
(0.198503 4.41747e-17 0)
(0.198503 1.43041e-16 0)
(0.198503 2.12841e-17 0)
(0.198503 3.8841e-16 0)
(0.198503 1.59985e-16 0)
(0.198503 1.13013e-16 0)
(0.198503 2.10707e-16 0)
(0.198503 1.41835e-16 0)
(0.198503 5.5117e-16 0)
(0.198503 4.20234e-16 0)
(0.198503 6.57316e-16 0)
(0.273907 8.11964e-16 0)
(0.273907 6.86139e-16 0)
(0.273907 5.69515e-16 0)
(0.273907 4.4592e-16 0)
(0.273907 3.6675e-16 0)
(0.273907 3.355e-16 0)
(0.273907 3.13648e-16 0)
(0.273907 2.5817e-16 0)
(0.273907 2.17302e-16 0)
(0.273907 1.74193e-16 0)
(0.273907 1.62972e-16 0)
(0.273907 1.22888e-16 0)
(0.273907 1.41419e-16 0)
(0.273907 9.10333e-17 0)
(0.273907 3.16425e-17 0)
(0.273907 3.05503e-17 0)
(0.273907 2.02664e-19 0)
(0.273907 -2.0861e-17 0)
(0.273907 -5.68052e-17 0)
(0.273907 -8.37038e-17 0)
(0.273907 -4.38066e-17 0)
(0.273907 -6.79132e-17 0)
(0.273907 -8.62421e-17 0)
(0.273907 -1.06587e-16 0)
(0.273907 -1.22081e-16 0)
(0.273907 -5.55709e-17 0)
(0.273907 1.0411e-17 0)
(0.273907 -7.26091e-17 0)
(0.273907 -9.73518e-17 0)
(0.273907 -2.73852e-17 0)
(0.273907 8.5321e-17 0)
(0.273907 2.34777e-16 0)
(0.273907 2.12144e-16 0)
(0.273907 1.05512e-16 0)
(0.273907 4.9847e-17 0)
(0.273907 7.22068e-17 0)
(0.273907 1.99707e-16 0)
(0.273907 2.13088e-16 0)
(0.273907 1.182e-16 0)
(0.273907 1.46297e-16 0)
(0.273907 1.3328e-16 0)
(0.273907 7.12053e-17 0)
(0.273907 3.42325e-17 0)
(0.273907 -2.07395e-17 0)
(0.273907 -1.43642e-17 0)
(0.273907 3.54651e-17 0)
(0.273907 8.27907e-17 0)
(0.273907 7.9697e-17 0)
(0.273907 6.98916e-17 0)
(0.273907 3.44315e-17 0)
(0.273907 -7.69608e-18 0)
(0.273907 3.45702e-17 0)
(0.273907 3.93079e-17 0)
(0.273907 2.44333e-17 0)
(0.273907 8.30992e-17 0)
(0.273907 -7.04718e-18 0)
(0.273907 3.32537e-17 0)
(0.273907 2.89804e-17 0)
(0.273907 -2.27777e-18 0)
(0.273907 8.76818e-17 0)
(0.273907 5.80797e-18 0)
(0.273907 1.3813e-16 0)
(0.273907 6.20445e-17 0)
(0.273907 5.10055e-18 0)
(0.273907 1.53035e-17 0)
(0.273907 -1.10065e-16 0)
(0.273907 4.27756e-17 0)
(0.273907 -3.05016e-18 0)
(0.273907 4.44631e-17 0)
(0.273907 1.27223e-16 0)
(0.273907 -5.78684e-17 0)
(0.273907 -1.16986e-17 0)
(0.273907 -3.82906e-17 0)
(0.273907 8.73919e-17 0)
(0.273907 1.98929e-16 0)
(0.273907 -4.14447e-18 0)
(0.273907 -3.90539e-17 0)
(0.273907 -1.89473e-17 0)
(0.273907 -3.80263e-17 0)
(0.273907 8.93484e-17 0)
(0.273907 -8.27296e-17 0)
(0.273907 -1.50371e-16 0)
(0.273907 2.87101e-17 0)
(0.273907 5.71501e-17 0)
(0.273907 1.89175e-17 0)
(0.273907 -1.21944e-16 0)
(0.273907 -5.31231e-17 0)
(0.273907 -2.32923e-17 0)
(0.273907 -4.45484e-17 0)
(0.273907 9.08053e-18 0)
(0.273907 -6.37597e-17 0)
(0.273907 -1.50693e-16 0)
(0.273907 -9.17438e-17 0)
(0.273907 -1.78322e-17 0)
(0.273907 -8.44959e-17 0)
(0.273907 -2.00945e-16 0)
(0.273907 -1.08032e-16 0)
(0.273907 -1.00315e-16 0)
(0.273907 -1.23743e-16 0)
(0.273907 -2.6152e-17 0)
(0.273907 -2.56603e-17 0)
(0.273907 -6.65184e-17 0)
(0.273907 -1.21938e-16 0)
(0.273907 -6.78913e-17 0)
(0.273907 2.92531e-17 0)
(0.273907 -6.58941e-17 0)
(0.273907 -3.11646e-16 0)
(0.273907 -2.64938e-16 0)
(0.273907 1.25156e-16 0)
(0.273907 2.015e-16 0)
(0.273907 -5.61226e-17 0)
(0.273907 -3.17787e-16 0)
(0.273907 2.49109e-17 0)
(0.273907 2.3174e-16 0)
(0.273907 1.76986e-16 0)
(0.273907 1.04274e-17 0)
(0.273907 -3.90871e-16 0)
(0.273907 -2.16938e-16 0)
(0.273907 2.84475e-16 0)
(0.273907 2.34024e-16 0)
(0.273907 -1.95527e-16 0)
(0.273907 -3.33167e-16 0)
(0.273907 1.17758e-16 0)
(0.273907 4.89137e-16 0)
(0.273907 2.66938e-16 0)
(0.273907 -7.04018e-17 0)
(0.273907 -3.54285e-16 0)
(0.273907 -8.21914e-17 0)
(0.273907 3.12828e-16 0)
(0.273907 8.33868e-17 0)
(0.273907 -1.44909e-16 0)
(0.273907 -1.37914e-16 0)
(0.273907 2.41274e-17 0)
(0.273907 2.57218e-16 0)
(0.273907 1.19765e-16 0)
(0.273907 -9.58365e-17 0)
(0.273907 -2.52325e-16 0)
(0.273907 -5.20819e-17 0)
(0.273907 3.92143e-16 0)
(0.273907 2.18143e-16 0)
(0.273907 -1.03984e-16 0)
(0.273907 -2.60835e-16 0)
(0.273907 1.17142e-16 0)
(0.273907 1.96263e-16 0)
(0.273907 -1.98703e-17 0)
(0.273907 -1.41433e-16 0)
(0.273907 -4.09735e-16 0)
(0.273907 -2.09898e-18 0)
(0.273907 1.30692e-16 0)
(0.273907 6.88065e-17 0)
(0.273907 8.18502e-17 0)
(0.273907 -2.10865e-16 0)
(0.273907 -8.55716e-17 0)
(0.273907 6.75742e-17 0)
(0.273907 1.74861e-16 0)
(0.273907 1.72893e-16 0)
(0.273907 1.17517e-17 0)
(0.273907 1.48987e-17 0)
(0.273907 2.20495e-16 0)
(0.273907 2.61365e-16 0)
(0.273907 1.92445e-16 0)
(0.273907 -1.87495e-16 0)
(0.273907 -5.26359e-18 0)
(0.273907 2.45513e-16 0)
(0.273907 -8.12605e-17 0)
(0.273907 -3.00529e-17 0)
(0.273907 -3.24002e-17 0)
(0.273907 -3.09344e-17 0)
(0.273907 3.70029e-17 0)
(0.273907 -1.77369e-17 0)
(0.273907 -8.42088e-17 0)
(0.273907 -1.88827e-16 0)
(0.273907 -1.57716e-16 0)
(0.273907 1.39213e-16 0)
(0.273907 5.26104e-17 0)
(0.273907 -1.7722e-16 0)
(0.273907 -1.12643e-16 0)
(0.273907 1.78085e-17 0)
(0.273907 2.56628e-17 0)
(0.273907 9.73393e-17 0)
(0.273907 -2.21787e-17 0)
(0.273907 -4.0066e-16 0)
(0.273907 -1.43287e-16 0)
(0.273907 7.97452e-17 0)
(0.273907 -5.47309e-17 0)
(0.273907 2.33021e-17 0)
(0.273907 -1.12435e-16 0)
(0.273907 -4.75559e-17 0)