/*--------------------------------*- C++ -*----------------------------------*\
| =========                 |                                                 |
| \\      /  F ield         | OpenFOAM: The Open Source CFD Toolbox           |
|  \\    /   O peration     | Version:  2112                                  |
|   \\  /    A nd           | Website:  www.openfoam.com                      |
|    \\/     M anipulation  |                                                 |
\*---------------------------------------------------------------------------*/
FoamFile
{
    version     2.0;
    format      ascii;
    arch        "LSB;label=32;scalar=64";
    class       volScalarField;
    location    "1.8";
    object      p;
}
// * * * * * * * * * * * * * * * * * * * * * * * * * * * * * * * * * * * * * //

dimensions      [0 2 -2 0 0 0 0];

internalField   nonuniform List<scalar> 
16641
(
-9.53925e-10
5.86482e-06
9.01501e-06
7.83559e-06
1.39978e-06
-1.05541e-05
-2.78481e-05
-5.01189e-05
-7.6954e-05
-0.000107952
-0.000142757
-0.000181066
-0.000222636
-0.000267278
-0.000314849
-0.000365251
-0.000418418
-0.000474309
-0.000532904
-0.000594194
-0.000658175
-0.000724848
-0.00079421
-0.000866252
-0.000940955
-0.00101829
-0.0010982
-0.00118062
-0.00126546
-0.00135259
-0.00144188
-0.00153314
-0.00162614
-0.00172062
-0.00181626
-0.00191272
-0.00200957
-0.00210635
-0.00220253
-0.00229754
-0.00239072
-0.00248139
-0.00256878
-0.0026521
-0.00273047
-0.00280301
-0.00286878
-0.00292683
-0.00297621
-0.00301593
-0.00304506
-0.00306268
-0.00306792
-0.00306
-0.00303822
-0.00300197
-0.0029508
-0.00288441
-0.00280266
-0.00270562
-0.00259355
-0.00246696
-0.00232656
-0.00217334
-0.00200852
-0.00183357
-0.00165017
-0.00146031
-0.00126612
-0.00106995
-0.00087431
-0.000681829
-0.000495232
-0.000317288
-0.000150763
1.6302e-06
0.000137284
0.000253746
0.000348776
0.00042039
0.000466909
0.000486994
0.000479688
0.000444432
0.000381084
0.000289928
0.00017167
2.7419e-05
-0.000141332
-0.000332742
-0.00054466
-0.000774679
-0.00102019
-0.00127843
-0.00154656
-0.00182171
-0.00210104
-0.00238179
-0.00266135
-0.00293726
-0.00320729
-0.00346945
-0.003722
-0.00396346
-0.00419264
-0.0044086
-0.00461066
-0.00479838
-0.00497153
-0.00513007
-0.00527415
-0.00540401
-0.00552003
-0.00562264
-0.00571232
-0.00578956
-0.00585483
-0.00590859
-0.00595123
-0.00598312
-0.00600459
-0.00601599
-0.00601777
-0.0060106
-0.00599559
-0.00597462
-0.00595077
-0.00592863
-0.00591505
-6.05905e-06
-1.74283e-07
1.61866e-06
-8.94341e-07
-7.93112e-06
-1.97412e-05
-3.62891e-05
-5.73635e-05
-8.26855e-05
-0.000111965
-0.000144921
-0.000181305
-0.000220906
-0.000263551
-0.000309105
-0.000357467
-0.00040856
-0.000462336
-0.000518758
-0.000577808
-0.000639469
-0.000703731
-0.00077058
-0.000840001
-0.000911969
-0.000986446
-0.00106338
-0.00114272
-0.00122435
-0.00130818
-0.00139406
-0.00148181
-0.00157123
-0.00166207
-0.00175404
-0.0018468
-0.00193997
-0.00203311
-0.00212573
-0.00221729
-0.00230718
-0.00239475
-0.00247928
-0.00256003
-0.00263618
-0.00270689
-0.00277127
-0.00282844
-0.00287746
-0.00291744
-0.00294745
-0.00296664
-0.00297417
-0.00296929
-0.00295131
-0.00291966
-0.00287389
-0.00281371
-0.00273896
-0.00264969
-0.00254614
-0.00242878
-0.00229827
-0.00215553
-0.00200174
-0.00183832
-0.00166671
-0.00148891
-0.00130696
-0.00112308
-0.000939643
-0.000759177
-0.000584276
-0.000417585
-0.000261745
-0.000119349
7.11116e-06
0.000115295
0.00020306
0.000268515
0.000310057
0.000326414
0.000316676
0.000280315
0.000217206
0.000127628
1.22642e-05
-0.000127818
-0.000291184
-0.000476071
-0.000680423
-0.000901939
-0.00113813
-0.00138637
-0.00164395
-0.00190815
-0.00217627
-0.00244569
-0.00271395
-0.00297873
-0.00323791
-0.00348962
-0.0037322
-0.00396429
-0.00418474
-0.00439266
-0.00458742
-0.00476859
-0.00493595
-0.00508946
-0.00522923
-0.00535551
-0.00546861
-0.00556896
-0.005657
-0.0057332
-0.00579802
-0.00585194
-0.00589537
-0.00592875
-0.0059525
-0.00596706
-0.005973
-0.00597109
-0.00596238
-0.00594851
-0.00593182
-0.00591513
-0.00590149
-9.44317e-06
-2.16513e-06
-3.92149e-07
-3.32915e-06
-1.05769e-05
-2.22702e-05
-3.83747e-05
-5.8713e-05
-8.30634e-05
-0.000111186
-0.000142848
-0.000177835
-0.000215958
-0.000257063
-0.000301022
-0.000347737
-0.000397134
-0.000449157
-0.000503767
-0.000560939
-0.000620652
-0.000682889
-0.000747637
-0.000814875
-0.000884577
-0.000956709
-0.00103122
-0.00110806
-0.00118713
-0.00126834
-0.00135156
-0.00143661
-0.00152332
-0.00161146
-0.00170075
-0.00179088
-0.00188149
-0.00197217
-0.00206247
-0.00215186
-0.00223979
-0.00232563
-0.0024087
-0.00248829
-0.00256362
-0.00263388
-0.00269822
-0.00275578
-0.00280566
-0.00284697
-0.00287883
-0.00290039
-0.00291082
-0.00290937
-0.00289536
-0.00286821
-0.00282745
-0.00277276
-0.00270398
-0.00262111
-0.00252436
-0.00241414
-0.00229109
-0.00215606
-0.00201014
-0.00185461
-0.0016912
-0.00152154
-0.00134764
-0.00117168
-0.000995987
-0.000823003
-0.00065527
-0.000495373
-0.000345897
-0.000209381
-8.82701e-05
1.51401e-05
9.87476e-05
0.000160693
0.000199404
0.000213632
0.000202482
0.000165439
0.000102381
1.35887e-05
-0.000100266
-0.000238127
-0.000398585
-0.000579902
-0.000780059
-0.000996798
-0.00122768
-0.00147013
-0.0017215
-0.00197913
-0.00224041
-0.00250279
-0.00276386
-0.00302139
-0.00327336
-0.00351793
-0.00375356
-0.00397891
-0.0041929
-0.00439472
-0.00458375
-0.00475962
-0.00492212
-0.00507124
-0.00520711
-0.00532997
-0.00544015
-0.00553808
-0.00562419
-0.00569896
-0.00576287
-0.00581639
-0.00585998
-0.00589407
-0.00591913
-0.00593561
-0.00594407
-0.00594518
-0.00593983
-0.00592927
-0.00591518
-0.0058985
-0.00587925
-8.35813e-06
2.18775e-07
2.26849e-06
-7.93859e-07
-8.14656e-06
-1.97947e-05
-3.56516e-05
-5.55302e-05
-7.92178e-05
-0.000106501
-0.000137175
-0.000171045
-0.000207949
-0.000247743
-0.000290311
-0.000335562
-0.000383426
-0.00043385
-0.000486796
-0.000542237
-0.000600151
-0.000660524
-0.000723342
-0.000788585
-0.000856232
-0.000926255
-0.000998613
-0.00107325
-0.0011501
-0.00122907
-0.00131005
-0.00139289
-0.00147742
-0.00156343
-0.00165069
-0.0017389
-0.00182773
-0.00191679
-0.00200567
-0.00209388
-0.00218087
-0.00226607
-0.00234882
-0.00242842
-0.00250414
-0.00257518
-0.00264071
-0.00269988
-0.00275182
-0.00279562
-0.00283042
-0.00285534
-0.00286957
-0.00287232
-0.00286289
-0.00284067
-0.00280518
-0.00275603
-0.00269304
-0.00261616
-0.00252554
-0.00242156
-0.00230479
-0.00217604
-0.00203637
-0.00188702
-0.00172957
-0.00156572
-0.0013974
-0.00122677
-0.0010561
-0.00088783
-0.000724466
-0.000568578
-0.000422737
-0.000289475
-0.000171229
-7.0296e-05
1.12222e-05
7.14637e-05
0.000108851
0.00012213
0.000110401
7.31443e-05
1.02336e-05
-7.8055e-05
-0.00019105
-0.000327697
-0.000486584
-0.000665977
-0.000863854
-0.00107796
-0.00130586
-0.00154498
-0.0017927
-0.00204636
-0.00230337
-0.00256121
-0.00281751
-0.00307008
-0.00331692
-0.00355627
-0.00378661
-0.00400666
-0.00421542
-0.0044121
-0.00459615
-0.00476724
-0.00492521
-0.00507009
-0.00520204
-0.00532134
-0.00542835
-0.0055235
-0.00560728
-0.00568016
-0.00574266
-0.00579526
-0.00583842
-0.0058726
-0.00589823
-0.00591574
-0.00592561
-0.00592835
-0.00592457
-0.00591515
-0.0059012
-0.00588204
-0.00585545
-1.6952e-06
7.30972e-06
9.30524e-06
5.99387e-06
-1.5778e-06
-1.3314e-05
-2.90819e-05
-4.86721e-05
-7.18758e-05
-9.84936e-05
-0.000128337
-0.000161235
-0.00019704
-0.000235625
-0.000276887
-0.000320745
-0.000367134
-0.000416009
-0.000467336
-0.000521089
-0.000577254
-0.000635817
-0.000696768
-0.000760095
-0.000825785
-0.000893818
-0.000964165
-0.00103679
-0.00111163
-0.00118861
-0.00126765
-0.00134862
-0.00143138
-0.00151575
-0.0016015
-0.00168839
-0.00177611
-0.00186431
-0.00195259
-0.0020405
-0.00212752
-0.00221311
-0.00229663
-0.00237742
-0.00245473
-0.00252781
-0.00259581
-0.0026579
-0.00271319
-0.00276077
-0.00279976
-0.00282926
-0.00284841
-0.00285641
-0.00285251
-0.00283605
-0.0028065
-0.00276344
-0.00270661
-0.00263591
-0.00255145
-0.00245353
-0.00234269
-0.00221969
-0.00208555
-0.00194144
-0.00178891
-0.00162965
-0.00146556
-0.00129877
-0.00113156
-0.000966338
-0.000805631
-0.000652009
-0.000508058
-0.000376324
-0.000259269
-0.000159213
-7.82851e-05
-1.83738e-05
1.89156e-05
3.23028e-05
2.08659e-05
-1.5935e-05
-7.82401e-05
-0.000165783
-0.000277896
-0.000413523
-0.000571247
-0.000749317
-0.000945698
-0.00115811
-0.00138411
-0.0016211
-0.00186642
-0.00211743
-0.0023715
-0.00262613
-0.00287894
-0.00312774
-0.00337057
-0.00360569
-0.00383161
-0.00404711
-0.00425121
-0.00444318
-0.00462254
-0.00478899
-0.00494245
-0.00508299
-0.00521081
-0.00532626
-0.00542974
-0.00552171
-0.0056027
-0.00567323
-0.00573382
-0.00578498
-0.0058272
-0.0058609
-0.0058865
-0.00590439
-0.00591493
-0.00591845
-0.00591531
-0.00590603
-0.00589125
-0.00586896
-0.00583513
1.09617e-05
1.94683e-05
2.09423e-05
1.71243e-05
9.12986e-06
-2.88319e-06
-1.87411e-05
-3.82211e-05
-6.11155e-05
-8.72339e-05
-0.000116403
-0.000148471
-0.000183306
-0.000220798
-0.000260859
-0.000303418
-0.000348423
-0.000395836
-0.000445629
-0.000497786
-0.000552299
-0.000609163
-0.000668375
-0.000729936
-0.000793843
-0.00086009
-0.000928665
-0.000999547
-0.0010727
-0.00114808
-0.00122562
-0.00130522
-0.00138677
-0.00147012
-0.00155508
-0.00164143
-0.00172891
-0.00181719
-0.00190591
-0.00199465
-0.00208291
-0.00217017
-0.00225581
-0.00233918
-0.00241956
-0.00249616
-0.00256816
-0.00263469
-0.00269485
-0.00274771
-0.00279234
-0.00282781
-0.0028532
-0.00286766
-0.00287039
-0.00286067
-0.00283789
-0.00280158
-0.0027514
-0.00268721
-0.00260905
-0.00251717
-0.00241204
-0.0022944
-0.00216525
-0.00202558
-0.00187706
-0.00172132
-0.00156026
-0.00139599
-0.0012308
-0.00106711
-0.000907458
-0.000754448
-0.000610696
-0.00047879
-0.000361233
-0.000260392
-0.000178444
-0.000117328
-7.8698e-05
-6.38793e-05
-7.38365e-05
-0.000109145
-0.000169974
-0.000256079
-0.000366804
-0.000501097
-0.000657531
-0.000834343
-0.00102947
-0.00124061
-0.00146527
-0.00170082
-0.00194457
-0.00219382
-0.00244592
-0.00269832
-0.00294864
-0.00319466
-0.00343442
-0.00366618
-0.00388847
-0.0041001
-0.00430012
-0.00448785
-0.00466285
-0.00482489
-0.00497393
-0.00511011
-0.00523371
-0.00534511
-0.00544478
-0.00553324
-0.00561105
-0.00567879
-0.00573701
-0.00578625
-0.00582698
-0.00585966
-0.00588466
-0.00590231
-0.00591286
-0.00591649
-0.0059133
-0.00590354
-0.00588748
-0.00586209
-0.00582194
2.95853e-05
3.6754e-05
3.72176e-05
3.25835e-05
2.39129e-05
1.1408e-05
-4.7334e-06
-2.42837e-05
-4.70378e-05
-7.28165e-05
-0.000101464
-0.000132842
-0.000166839
-0.000203363
-0.00024234
-0.000283717
-0.000327453
-0.00037352
-0.000421905
-0.000472603
-0.000525615
-0.000580947
-0.000638614
-0.000698629
-0.000761007
-0.000825761
-0.000892903
-0.000962435
-0.00103435
-0.00110863
-0.00118524
-0.00126412
-0.00134519
-0.00142834
-0.00151342
-0.00160024
-0.00168857
-0.00177813
-0.00186857
-0.00195951
-0.00205048
-0.00214095
-0.00223033
-0.00231796
-0.00240312
-0.00248502
-0.00256279
-0.00263556
-0.00270237
-0.00276224
-0.00281419
-0.00285724
-0.0028904
-0.00291274
-0.00292339
-0.00292156
-0.00290657
-0.00287786
-0.00283503
-0.00277787
-0.00270635
-0.00262066
-0.00252122
-0.0024087
-0.00228397
-0.00214838
-0.0020032
-0.00185012
-0.00169108
-0.00152817
-0.00136371
-0.00120014
-0.00104004
-0.000886041
-0.000740814
-0.000607002
-0.000487169
-0.000383747
-0.000298982
-0.000234885
-0.000193178
-0.000175255
-0.000182143
-0.000214473
-0.000272465
-0.00035591
-0.000464181
-0.000596241
-0.000750665
-0.000925679
-0.0011192
-0.00132889
-0.0015522
-0.00178647
-0.00202895
-0.00227687
-0.00252753
-0.00277833
-0.00302683
-0.00327079
-0.0035082
-0.00373731
-0.00395664
-0.00416502
-0.00436151
-0.00454546
-0.00471647
-0.00487437
-0.00501918
-0.00515109
-0.00527045
-0.0053777
-0.00547339
-0.00555809
-0.00563243
-0.00569702
-0.00575247
-0.00579933
-0.00583813
-0.00586929
-0.00589317
-0.00591003
-0.00592005
-0.00592327
-0.00591958
-0.00590901
-0.00589156
-0.00586347
-0.00581831
5.39284e-05
5.9021e-05
5.8002e-05
5.22194e-05
4.26053e-05
2.93842e-05
1.27656e-05
-7.02619e-06
-2.97976e-05
-5.53834e-05
-8.36448e-05
-0.000114466
-0.000147755
-0.000183436
-0.000221458
-0.000261782
-0.000304384
-0.000349253
-0.00039639
-0.000445804
-0.000497512
-0.000551538
-0.000607916
-0.000666678
-0.000727863
-0.00079151
-0.00085766
-0.000926345
-0.000997593
-0.00107142
-0.00114784
-0.00122682
-0.00130833
-0.0013923
-0.00147861
-0.00156712
-0.00165764
-0.00174991
-0.00184362
-0.00193841
-0.00203381
-0.00212932
-0.00222435
-0.00231821
-0.00241017
-0.0024994
-0.00258502
-0.00266608
-0.00274157
-0.00281046
-0.00287168
-0.00292417
-0.00296687
-0.00299876
-0.00301888
-0.00302636
-0.00302041
-0.00300042
-0.00296589
-0.00291653
-0.00285226
-0.00277319
-0.00267971
-0.00257243
-0.00245219
-0.00232024
-0.00217792
-0.00202689
-0.00186906
-0.00170656
-0.00154171
-0.001377
-0.00121502
-0.00105848
-0.000910094
-0.000772579
-0.000648575
-0.000540596
-0.000450977
-0.000381818
-0.000334936
-0.000311814
-0.000313567
-0.000340908
-0.000394129
-0.000473085
-0.000577197
-0.000705463
-0.000856478
-0.00102847
-0.00121934
-0.00142673
-0.00164805
-0.00188057
-0.00212148
-0.00236795
-0.00261721
-0.00286657
-0.00311354
-0.0033558
-0.00359129
-0.00381823
-0.00403511
-0.00424072
-0.00443415
-0.00461476
-0.00478217
-0.00493624
-0.00507705
-0.00520485
-0.00532006
-0.00542317
-0.00551481
-0.00559562
-0.00566628
-0.00572747
-0.00577985
-0.00582401
-0.00586048
-0.00588971
-0.00591205
-0.00592772
-0.00593681
-0.00593926
-0.00593483
-0.00592335
-0.00590465
-0.00587448
-0.00582574
8.36335e-05
8.6009e-05
8.30663e-05
7.58141e-05
6.4992e-05
5.08353e-05
3.35566e-05
1.33631e-05
-9.57001e-06
-3.50975e-05
-6.31029e-05
-9.34941e-05
-0.000126201
-0.000161172
-0.000198377
-0.000237797
-0.000279427
-0.000323278
-0.000369367
-0.000417722
-0.000468382
-0.000521394
-0.000576813
-0.000634701
-0.000695127
-0.000758163
-0.000823883
-0.00089236
-0.000963666
-0.00103786
-0.00111499
-0.0011951
-0.00127817
-0.00136419
-0.0014531
-0.00154479
-0.0016391
-0.0017358
-0.00183462
-0.0019352
-0.00203709
-0.00213978
-0.00224266
-0.00234503
-0.00244611
-0.00254504
-0.00264087
-0.00273258
-0.00281909
-0.00289929
-0.00297201
-0.0030361
-0.0030904
-0.0031338
-0.00316522
-0.0031837
-0.00318837
-0.0031785
-0.00315353
-0.00311307
-0.00305697
-0.00298528
-0.00289832
-0.00279665
-0.0026811
-0.00255282
-0.00241316
-0.00226379
-0.00210661
-0.00194373
-0.00177752
-0.00161047
-0.00144524
-0.00128458
-0.00113129
-0.000988142
-0.000857878
-0.000743109
-0.000646277
-0.000569595
-0.000514995
-0.00048408
-0.00047808
-0.000497822
-0.000543699
-0.00061566
-0.000713204
-0.000835393
-0.000980866
-0.00114788
-0.00133433
-0.00153786
-0.00175583
-0.00198547
-0.00222391
-0.00246824
-0.00271559
-0.00296322
-0.0032085
-0.00344908
-0.00368279
-0.00390779
-0.00412252
-0.00432573
-0.00451648
-0.00469413
-0.00485831
-0.00500889
-0.00514601
-0.00526996
-0.00538119
-0.0054803
-0.00556794
-0.00564485
-0.00571177
-0.00576944
-0.00581856
-0.00585979
-0.00589369
-0.00592071
-0.00594121
-0.00595539
-0.0059633
-0.00596479
-0.00595951
-0.0059472
-0.00592753
-0.00589597
-0.00584505
0.000118278
0.000117369
0.000112107
0.000103084
9.08046e-05
7.55113e-05
5.74036e-05
3.66621e-05
1.34364e-05
-1.21566e-05
-4.00281e-05
-7.01131e-05
-0.00010237
-0.000136774
-0.000173317
-0.000212006
-0.00025286
-0.000295911
-0.0003412
-0.000388779
-0.000438714
-0.000491079
-0.000545962
-0.000603456
-0.00066367
-0.000726715
-0.000792712
-0.000861779
-0.000934039
-0.0010096
-0.00108857
-0.00117103
-0.00125704
-0.00134663
-0.00143977
-0.0015364
-0.0016364
-0.00173957
-0.00184566
-0.0019543
-0.00206506
-0.0021774
-0.00229068
-0.00240418
-0.00251705
-0.00262836
-0.0027371
-0.00284215
-0.00294235
-0.00303647
-0.00312325
-0.00320142
-0.00326972
-0.0033269
-0.0033718
-0.00340332
-0.00342051
-0.00342253
-0.00340872
-0.0033786
-0.00333194
-0.00326873
-0.00318919
-0.00309385
-0.00298349
-0.00285919
-0.0027223
-0.00257444
-0.00241751
-0.00225364
-0.00208518
-0.00191468
-0.00174483
-0.00157844
-0.00141836
-0.00126748
-0.00112863
-0.00100453
-0.000897749
-0.000810643
-0.000745284
-0.000703423
-0.000686442
-0.000695311
-0.000730567
-0.000792289
-0.000880094
-0.000993141
-0.00113015
-0.00128943
-0.00146892
-0.00166625
-0.00187879
-0.00210372
-0.00233811
-0.00257897
-0.00282336
-0.00306841
-0.00331143
-0.00354992
-0.00378164
-0.00400465
-0.00421731
-0.00441831
-0.00460666
-0.00478167
-0.00494298
-0.00509045
-0.00522423
-0.00534465
-0.00545221
-0.00554754
-0.00563139
-0.00570453
-0.00576778
-0.00582194
-0.00586778
-0.00590599
-0.00593719
-0.00596186
-0.00598036
-0.0059929
-0.00599949
-0.00599994
-0.00599386
-0.00598088
-0.00596061
-0.00592837
-0.00587659
0.00015739
0.000152682
0.000144745
0.00013368
0.000119711
0.000103105
8.40197e-05
6.26015e-05
3.89643e-05
1.31908e-05
-1.46638e-05
-4.45688e-05
-7.65142e-05
-0.000110506
-0.000146564
-0.000184725
-0.000225035
-0.000267551
-0.000312344
-0.000359497
-0.000409106
-0.000461282
-0.000516149
-0.000573846
-0.000634523
-0.000698346
-0.000765485
-0.000836119
-0.000910425
-0.000988577
-0.00107074
-0.00115705
-0.00124763
-0.00134256
-0.00144186
-0.00154552
-0.00165344
-0.00176545
-0.0018813
-0.00200063
-0.00212299
-0.00224782
-0.00237442
-0.00250202
-0.0026297
-0.00275644
-0.00288114
-0.00300259
-0.00311949
-0.00323051
-0.00333427
-0.00342937
-0.00351441
-0.00358804
-0.00364896
-0.00369596
-0.00372796
-0.00374402
-0.00374337
-0.00372544
-0.00368989
-0.00363663
-0.0035658
-0.00347786
-0.00337353
-0.00325383
-0.00312006
-0.00297381
-0.00281696
-0.00265163
-0.00248017
-0.00230516
-0.00212931
-0.0019555
-0.00178665
-0.00162574
-0.0014757
-0.0013394
-0.00121955
-0.00111866
-0.00103897
-0.000982417
-0.000950573
-0.000944597
-0.000965207
-0.00101266
-0.00108673
-0.00118673
-0.0013115
-0.00145944
-0.00162856
-0.00181654
-0.00202075
-0.00223836
-0.00246638
-0.00270177
-0.00294149
-0.00318257
-0.0034222
-0.00365776
-0.00388689
-0.00410754
-0.00431795
-0.00451672
-0.00470278
-0.00487539
-0.00503412
-0.00517884
-0.00530966
-0.00542694
-0.00553121
-0.00562313
-0.00570349
-0.00577314
-0.00583294
-0.00588376
-0.00592643
-0.0059617
-0.00599023
-0.00601254
-0.00602903
-0.00603989
-0.00604516
-0.00604463
-0.00603786
-0.00602445
-0.00600398
-0.00597176
-0.00592027
0.000200439
0.000191478
0.000180536
0.000167184
0.000151293
0.000133252
0.00011306
9.08493e-05
6.6694e-05
4.06339e-05
1.26809e-05
-1.7174e-05
-4.89569e-05
-8.27094e-05
-0.000118487
-0.000156357
-0.000196397
-0.000238697
-0.000283363
-0.000330513
-0.000380283
-0.000432827
-0.000488315
-0.000546939
-0.000608904
-0.000674434
-0.000743764
-0.000817138
-0.000894802
-0.000976998
-0.00106396
-0.00115589
-0.00125296
-0.00135532
-0.00146305
-0.00157615
-0.00169457
-0.00181814
-0.00194662
-0.00207964
-0.00221671
-0.00235722
-0.00250044
-0.00264548
-0.00279137
-0.00293698
-0.00308108
-0.00322234
-0.00335936
-0.00349065
-0.0036147
-0.00372997
-0.00383492
-0.00392807
-0.00400798
-0.00407331
-0.00412285
-0.00415553
-0.00417047
-0.00416698
-0.00414463
-0.00410319
-0.00404275
-0.00396365
-0.00386655
-0.00375238
-0.00362239
-0.00347811
-0.00332138
-0.00315429
-0.00297921
-0.00279868
-0.00261549
-0.00243253
-0.00225281
-0.0020794
-0.00191536
-0.00176368
-0.00162724
-0.00150874
-0.00141063
-0.00133505
-0.00128381
-0.0012583
-0.00125947
-0.0012878
-0.00134329
-0.00142545
-0.00153329
-0.00166536
-0.0018198
-0.00199436
-0.00218646
-0.00239328
-0.00261181
-0.00283896
-0.00307159
-0.00330664
-0.00354117
-0.00377243
-0.00399791
-0.00421542
-0.00442308
-0.00461934
-0.00480303
-0.00497331
-0.00512968
-0.00527195
-0.0054002
-0.00551476
-0.00561618
-0.00570513
-0.00578244
-0.00584899
-0.00590571
-0.00595351
-0.00599329
-0.00602584
-0.00605187
-0.00607197
-0.00608656
-0.00609586
-0.00609993
-0.00609856
-0.0060913
-0.00607776
-0.00605748
-0.00602591
-0.00597574
0.000246857
0.000233206
0.000218969
0.000203146
0.000185324
0.00016555
0.00014411
0.000121005
9.62355e-05
6.97858e-05
4.16182e-05
1.1677e-05
-2.01076e-05
-5.38186e-05
-8.95505e-05
-0.000127406
-0.000167502
-0.000209966
-0.000254945
-0.000302602
-0.000353117
-0.000406699
-0.000463574
-0.000523993
-0.00058823
-0.000656578
-0.000729347
-0.000806854
-0.000889425
-0.000977377
-0.00107102
-0.00117062
-0.00127644
-0.00138865
-0.0015074
-0.00163271
-0.00176457
-0.0019028
-0.00204716
-0.00219724
-0.00235251
-0.00251231
-0.00267582
-0.00284206
-0.00300995
-0.00317824
-0.00334558
-0.0035105
-0.00367145
-0.00382679
-0.00397486
-0.00411397
-0.00424244
-0.00435861
-0.00446092
-0.00454787
-0.00461811
-0.00467044
-0.00470383
-0.00471749
-0.00471082
-0.00468351
-0.00463551
-0.00456708
-0.00447881
-0.00437141
-0.00424614
-0.00410444
-0.00394811
-0.00377917
-0.00359997
-0.00341306
-0.00322122
-0.00302739
-0.00283465
-0.00264616
-0.00246509
-0.0022946
-0.00213774
-0.00199741
-0.00187631
-0.00177682
-0.00170102
-0.00165059
-0.00162676
-0.00163031
-0.0016615
-0.00172011
-0.00180539
-0.00191611
-0.00205057
-0.00220666
-0.00238191
-0.00257354
-0.00277855
-0.00299382
-0.00321615
-0.00344237
-0.00366941
-0.00389438
-0.00411462
-0.00432775
-0.00453174
-0.00472488
-0.00490585
-0.00507367
-0.00522774
-0.00536778
-0.00549379
-0.00560606
-0.0057051
-0.0057916
-0.00586637
-0.00593034
-0.00598446
-0.0060297
-0.00606699
-0.00609719
-0.00612106
-0.00613923
-0.00615217
-0.00616015
-0.00616323
-0.00616125
-0.00615379
-0.00614043
-0.00612074
-0.00609038
-0.00604239
0.000296002
0.000277247
0.000259439
0.000240927
0.000220866
0.000199406
0.000176657
0.00015258
0.000127112
0.000100174
7.16719e-05
4.14958e-05
9.52428e-06
-2.43711e-05
-6.0328e-05
-9.84936e-05
-0.000139028
-0.000182106
-0.00022792
-0.000276685
-0.000328642
-0.000384056
-0.000443223
-0.000506467
-0.000574139
-0.000646613
-0.000724283
-0.000807555
-0.000896838
-0.000992537
-0.00109504
-0.00120469
-0.00132181
-0.00144665
-0.00157936
-0.00172003
-0.00186864
-0.00202502
-0.00218888
-0.0023598
-0.00253717
-0.00272025
-0.00290812
-0.00309972
-0.00329381
-0.00348903
-0.00368385
-0.00387668
-0.00406578
-0.00424938
-0.00442564
-0.00459269
-0.00474869
-0.00489184
-0.00502038
-0.00513268
-0.00522722
-0.00530265
-0.00535779
-0.00539169
-0.00540362
-0.00539313
-0.00536003
-0.00530447
-0.00522701
-0.00512784
-0.00500852
-0.00487032
-0.00471491
-0.00454426
-0.00436066
-0.00416663
-0.00396496
-0.00375861
-0.00355072
-0.00334453
-0.00314333
-0.00295043
-0.00276909
-0.00260242
-0.00245337
-0.00232463
-0.00221857
-0.00213721
-0.00208212
-0.00205443
-0.00205477
-0.00208321
-0.00213935
-0.00222223
-0.0023304
-0.00246196
-0.00261458
-0.0027856
-0.00297208
-0.00317089
-0.0033788
-0.00359254
-0.00380893
-0.00402492
-0.00423767
-0.00444463
-0.00464355
-0.00483255
-0.0050101
-0.00517507
-0.0053267
-0.00546456
-0.00558857
-0.00569891
-0.00579605
-0.00588063
-0.00595345
-0.00601543
-0.00606754
-0.00611078
-0.00614613
-0.00617449
-0.00619666
-0.00621333
-0.006225
-0.006232
-0.00623443
-0.00623216
-0.00622479
-0.00621197
-0.00619326
-0.00616459
-0.00611945
0.000347164
0.000322914
0.000301287
0.00027992
0.000257532
0.00023426
0.000210125
0.000185004
0.000158756
0.000131231
0.000102265
7.16877e-05
3.932e-05
4.98203e-06
-3.15151e-05
-7.03694e-05
-0.000111791
-0.000156008
-0.000203269
-0.000253852
-0.000308063
-0.000366242
-0.000428763
-0.000496034
-0.000568496
-0.000646616
-0.000730884
-0.000821804
-0.000919879
-0.00102561
-0.00113945
-0.00126186
-0.0013932
-0.00153376
-0.00168377
-0.00184332
-0.00201237
-0.00219076
-0.00237816
-0.00257408
-0.00277784
-0.0029886
-0.00320533
-0.00342683
-0.00365173
-0.0038785
-0.00410547
-0.00433086
-0.00455277
-0.00476924
-0.00497824
-0.00517775
-0.00536573
-0.00554019
-0.00569922
-0.00584099
-0.00596381
-0.00606616
-0.0061467
-0.0062043
-0.00623809
-0.00624744
-0.00623203
-0.00619175
-0.00612673
-0.00603818
-0.00592648
-0.00579298
-0.00563929
-0.00546732
-0.00527927
-0.00507762
-0.00486514
-0.00464479
-0.00441974
-0.00419332
-0.00396892
-0.00375001
-0.00354003
-0.00334235
-0.00316017
-0.0029965
-0.00285408
-0.00273528
-0.00264209
-0.00257604
-0.00253818
-0.00252901
-0.0025485
-0.00259607
-0.00267061
-0.0027705
-0.00289364
-0.00303755
-0.00319942
-0.00337615
-0.00356451
-0.00376119
-0.00396288
-0.00416638
-0.00436868
-0.004567
-0.00475888
-0.00494221
-0.00511523
-0.00527661
-0.00542536
-0.0055609
-0.00568298
-0.00579167
-0.00588732
-0.0059705
-0.00604196
-0.0061026
-0.00615337
-0.00619529
-0.00622935
-0.00625648
-0.00627754
-0.00629324
-0.00630414
-0.00631061
-0.00631279
-0.00631061
-0.00630372
-0.00629178
-0.0062744
-0.00624783
-0.00620608
0.000399555
0.00036944
0.000343762
0.000319399
0.000294592
0.000269425
0.000243839
0.00021761
0.000190503
0.000162284
0.000132711
0.000101543
6.85405e-05
3.34613e-05
-3.94176e-06
-4.39239e-05
-8.67532e-05
-0.00013272
-0.000182141
-0.000235365
-0.000292776
-0.0003548
-0.000421902
-0.00049459
-0.000573403
-0.000658917
-0.000751727
-0.000852444
-0.000961676
-0.00108002
-0.00120803
-0.00134622
-0.00149503
-0.00165481
-0.0018258
-0.00200811
-0.00220169
-0.00240636
-0.00262171
-0.00284719
-0.00308202
-0.00332524
-0.0035757
-0.00383204
-0.00409274
-0.00435609
-0.00462024
-0.00488322
-0.00514295
-0.00539727
-0.00564395
-0.00588077
-0.00610551
-0.00631596
-0.00651003
-0.0066857
-0.00684108
-0.00697447
-0.00708434
-0.00716938
-0.00722853
-0.007261
-0.00726628
-0.00724414
-0.0071946
-0.00711831
-0.00701592
-0.00688856
-0.00673767
-0.00656504
-0.00637278
-0.0061633
-0.00593931
-0.00570374
-0.0054598
-0.00521085
-0.00496038
-0.00471201
-0.00446936
-0.00423601
-0.00401549
-0.00381112
-0.003626
-0.00346295
-0.00332439
-0.00321234
-0.00312832
-0.00307334
-0.00304785
-0.00305174
-0.00308432
-0.00314435
-0.00323007
-0.00333926
-0.00346929
-0.00361721
-0.00377982
-0.00395379
-0.00413575
-0.00432233
-0.00451035
-0.00469681
-0.004879
-0.00505453
-0.0052214
-0.00537799
-0.00552309
-0.00565587
-0.00577589
-0.00588303
-0.00597749
-0.00605974
-0.00613042
-0.00619037
-0.00624051
-0.00628184
-0.00631534
-0.00634196
-0.00636259
-0.00637796
-0.00638869
-0.00639517
-0.0063976
-0.00639595
-0.00638993
-0.00637924
-0.00636352
-0.00633938
-0.00630138
0.000452298
0.000415959
0.000386025
0.000358545
0.000331236
0.000304113
0.000277024
0.000249627
0.000221578
0.000192545
0.000162203
0.000130232
9.63178e-05
6.01513e-05
2.142e-05
-2.01964e-05
-6.50345e-05
-0.000113457
-0.000165858
-0.000222669
-0.000284368
-0.000351477
-0.000424568
-0.000504258
-0.000591203
-0.000686095
-0.00078965
-0.000902591
-0.00102564
-0.00115949
-0.0013048
-0.00146215
-0.00163204
-0.00181488
-0.0020109
-0.00222024
-0.00244281
-0.00267838
-0.00292647
-0.00318643
-0.00345738
-0.00373822
-0.00402764
-0.00432411
-0.00462594
-0.00493122
-0.00523791
-0.00554384
-0.0058467
-0.00614413
-0.00643369
-0.00671294
-0.00697943
-0.00723078
-0.00746465
-0.00767882
-0.00787121
-0.0080399
-0.00818318
-0.00829953
-0.00838769
-0.0084467
-0.00847583
-0.0084747
-0.00844321
-0.00838165
-0.00829064
-0.00817112
-0.00802438
-0.00785206
-0.00765616
-0.00743898
-0.00720315
-0.00695156
-0.00668738
-0.006414
-0.00613499
-0.00585407
-0.00557502
-0.00530167
-0.0050378
-0.00478707
-0.004553
-0.00433882
-0.00414746
-0.00398146
-0.00384292
-0.0037334
-0.00365393
-0.00360497
-0.00358636
-0.00359736
-0.00363665
-0.00370238
-0.00379221
-0.00390341
-0.0040329
-0.0041774
-0.00433348
-0.00449769
-0.00466665
-0.00483714
-0.00500618
-0.0051711
-0.00532957
-0.00547967
-0.00561989
-0.00574912
-0.00586664
-0.00597212
-0.00606554
-0.0061472
-0.00621762
-0.00627751
-0.00632774
-0.00636924
-0.00640296
-0.00642986
-0.00645081
-0.00646658
-0.0064778
-0.00648491
-0.00648815
-0.00648753
-0.0064828
-0.00647372
-0.00645997
-0.00643851
-0.00640449
0.000504416
0.000461519
0.000427141
0.00039644
0.000366562
0.000337437
0.0003088
0.000280173
0.00025109
0.000221112
0.000189814
0.000156791
0.000121646
8.39951e-05
4.34512e-05
-3.81013e-07
-4.7917e-05
-9.96021e-05
-0.00015592
-0.000217399
-0.000284623
-0.000358227
-0.000438901
-0.000527387
-0.000624471
-0.000730974
-0.000847739
-0.000975614
-0.00111544
-0.00126801
-0.00143407
-0.0016143
-0.00180923
-0.0020193
-0.00224478
-0.00248575
-0.00274212
-0.00301356
-0.00329953
-0.00359924
-0.00391168
-0.0042356
-0.00456951
-0.0049117
-0.00526026
-0.00561309
-0.00596792
-0.00632235
-0.00667385
-0.00701981
-0.00735759
-0.00768449
-0.00799784
-0.00829502
-0.00857348
-0.00883079
-0.00906463
-0.00927289
-0.00945362
-0.00960513
-0.00972596
-0.00981491
-0.00987109
-0.00989393
-0.00988314
-0.00983882
-0.00976138
-0.00965161
-0.00951062
-0.0093399
-0.00914129
-0.00891696
-0.00866942
-0.00840148
-0.00811626
-0.00781713
-0.00750768
-0.00719171
-0.00687314
-0.00655598
-0.00624426
-0.00594199
-0.00565305
-0.00538114
-0.0051297
-0.00490184
-0.00470027
-0.00452721
-0.00438434
-0.0042728
-0.00419307
-0.00414502
-0.00412791
-0.00414038
-0.00418052
-0.0042459
-0.0043337
-0.00444074
-0.00456364
-0.00469887
-0.00484292
-0.00499234
-0.00514387
-0.00529453
-0.00544164
-0.00558293
-0.00571651
-0.00584094
-0.00595517
-0.00605857
-0.00615088
-0.00623214
-0.00630269
-0.0063631
-0.0064141
-0.00645652
-0.00649127
-0.00651927
-0.00654135
-0.00655831
-0.00657076
-0.00657917
-0.00658382
-0.00658474
-0.00658176
-0.00657465
-0.00656314
-0.00654455
-0.0065146
0.000554833
0.000505065
0.000466074
0.000432066
0.000399569
0.000368404
0.000338176
0.000308254
0.000278033
0.000246955
0.000214487
0.000180124
0.000143382
0.00010379
6.08792e-05
1.41671e-05
-3.68503e-05
-9.27133e-05
-0.000154009
-0.000221379
-0.000295524
-0.000377209
-0.000467256
-0.000566548
-0.00067601
-0.000796605
-0.000929315
-0.00107512
-0.00123497
-0.00140978
-0.00160038
-0.00180751
-0.00203177
-0.00227359
-0.00253326
-0.00281081
-0.0031061
-0.0034187
-0.00374797
-0.00409298
-0.00445256
-0.00482527
-0.00520943
-0.00560312
-0.0060042
-0.00641033
-0.00681901
-0.00722757
-0.00763325
-0.00803319
-0.00842447
-0.00880417
-0.00916937
-0.00951721
-0.0098449
-0.0101498
-0.0104293
-0.0106812
-0.0109032
-0.0110935
-0.0112505
-0.0113726
-0.0114589
-0.0115086
-0.0115211
-0.0114965
-0.0114349
-0.0113369
-0.0112035
-0.011036
-0.0108359
-0.0106054
-0.0103468
-0.0100628
-0.00975642
-0.00943093
-0.00908993
-0.00873723
-0.00837683
-0.00801289
-0.00764966
-0.00729143
-0.00694243
-0.00660681