/*--------------------------------*- C++ -*----------------------------------*\
| =========                 |                                                 |
| \\      /  F ield         | OpenFOAM: The Open Source CFD Toolbox           |
|  \\    /   O peration     | Version:  2112                                  |
|   \\  /    A nd           | Website:  www.openfoam.com                      |
|    \\/     M anipulation  |                                                 |
\*---------------------------------------------------------------------------*/
FoamFile
{
    version     2.0;
    format      ascii;
    arch        "LSB;label=32;scalar=64";
    class       surfaceScalarField;
    location    "1.8";
    object      phi;
}
// * * * * * * * * * * * * * * * * * * * * * * * * * * * * * * * * * * * * * //

dimensions      [0 3 -1 0 0 0 0];

oriented        oriented;

internalField   nonuniform List<scalar> 
33024
(
2.06392e-11
-2.06408e-11
1.89625e-10
-1.68987e-10
4.76279e-10
-2.86651e-10
8.26147e-10
-3.49867e-10
1.1971e-09
-3.70944e-10
1.5596e-09
-3.62501e-10
1.89394e-09
-3.34344e-10
2.18771e-09
-2.93767e-10
2.4336e-09
-2.45891e-10
2.62776e-09
-1.94161e-10
2.76857e-09
-1.40809e-10
2.85573e-09
-8.71618e-11
2.88966e-09
-3.39277e-11
2.87099e-09
1.86684e-11
2.80029e-09
7.06961e-11
2.67786e-09
1.22434e-10
2.50358e-09
1.74283e-10
2.27688e-09
2.26706e-10
1.9967e-09
2.80174e-10
1.66154e-09
3.35159e-10
1.26945e-09
3.92088e-10
8.18111e-10
4.51337e-10
3.04878e-10
5.13236e-10
-2.73177e-10
5.78058e-10
-9.19201e-10
6.46021e-10
-1.6365e-09
7.17291e-10
-2.42849e-09
7.91989e-10
-3.29866e-09
8.70175e-10
-4.25051e-09
9.51852e-10
-5.28749e-09
1.03698e-09
-6.41294e-09
1.12545e-09
-7.63003e-09
1.21709e-09
-8.94171e-09
1.31167e-09
-1.03506e-08
1.40886e-09
-1.18588e-08
1.50826e-09
-1.34682e-08
1.60937e-09
-1.51798e-08
1.71158e-09
-1.6994e-08
1.81422e-09
-1.89105e-08
1.91647e-09
-2.09279e-08
2.01743e-09
-2.3044e-08
2.11607e-09
-2.52553e-08
2.2113e-09
-2.75571e-08
2.30189e-09
-2.99437e-08
2.38652e-09
-3.24075e-08
2.46383e-09
-3.49398e-08
2.53235e-09
-3.75304e-08
2.59056e-09
-4.01673e-08
2.63693e-09
-4.28372e-08
2.66989e-09
-4.55251e-08
2.68788e-09
-4.82145e-08
2.68937e-09
-5.08874e-08
2.67288e-09
-5.35244e-08
2.63703e-09
-5.61049e-08
2.58053e-09
-5.86072e-08
2.50225e-09
-6.10084e-08
2.40121e-09
-6.3285e-08
2.27664e-09
-6.5413e-08
2.12803e-09
-6.73681e-08
1.95509e-09
-6.9126e-08
1.75784e-09
-7.06626e-08
1.53659e-09
-7.19546e-08
1.292e-09
-7.29797e-08
1.02507e-09
-7.37168e-08
7.37165e-10
-7.41469e-08
4.30095e-10
-7.42534e-08
1.06455e-10
-7.40201e-08
-2.33234e-10
-7.34362e-08
-5.83905e-10
-7.24929e-08
-9.43341e-10
-7.11849e-08
-1.30802e-09
-6.95107e-08
-1.6742e-09
-6.74728e-08
-2.0379e-09
-6.50778e-08
-2.39498e-09
-6.23366e-08
-2.74119e-09
-5.92644e-08
-3.07222e-09
-5.58806e-08
-3.38377e-09
-5.2209e-08
-3.67166e-09
-4.82771e-08
-3.93191e-09
-4.41163e-08
-4.16077e-09
-3.97614e-08
-4.35488e-09
-3.52501e-08
-4.5113e-09
-3.06225e-08
-4.6276e-09
-2.59206e-08
-4.70194e-09
-2.11875e-08
-4.7331e-09
-1.64669e-08
-4.72056e-09
-1.18024e-08
-4.66449e-09
-7.23662e-09
-4.56579e-09
-2.81054e-09
-4.42608e-09
1.43714e-09
-4.24768e-09
5.47068e-09
-4.03354e-09
9.25783e-09
-3.78715e-09
1.27704e-08
-3.51256e-09
1.59846e-08
-3.2142e-09
1.88814e-08
-2.89681e-09
2.14467e-08
-2.5653e-09
2.36714e-08
-2.22467e-09
2.55512e-08
-1.87985e-09
2.70869e-08
-1.53564e-09
2.82834e-08
-1.19655e-09
2.91501e-08
-8.66738e-10
2.97001e-08
-5.4995e-10
2.99495e-08
-2.49419e-10
2.99174e-08
3.21707e-11
2.96247e-08
2.92664e-10
2.90942e-08
5.30536e-10
2.83494e-08
7.44791e-10
2.74144e-08
9.34986e-10
2.63132e-08
1.10118e-09
2.50693e-08
1.24389e-09
2.37053e-08
1.364e-09
2.22426e-08
1.46272e-09
2.07011e-08
1.54148e-09
1.90993e-08
1.60181e-09
1.7454e-08
1.64526e-09
1.57808e-08
1.67324e-09
1.40939e-08
1.68687e-09
1.24071e-08
1.68684e-09
1.07339e-08
1.67319e-09
9.08878e-09
1.64511e-09
7.48807e-09
1.60071e-09
5.95129e-09
1.53678e-09
4.50273e-09
1.44856e-09
3.1731e-09
1.32964e-09
2.00109e-09
1.17201e-09
1.03404e-09
9.67047e-10
3.25556e-10
7.08481e-10
-7.43467e-11
3.99902e-10
-1.50574e-10
7.62287e-11
-1.50574e-10
1.69384e-10
-1.90027e-10
6.30664e-10
-6.30259e-10
1.2969e-09
-9.52886e-10
2.07867e-09
-1.13164e-09
2.89737e-09
-1.18965e-09
3.69094e-09
-1.15606e-09
4.41369e-09
-1.05709e-09
5.03385e-09
-9.13931e-10
5.53054e-09
-7.42579e-10
5.89086e-09
-5.5449e-10
6.10749e-09
-3.5744e-10
6.17668e-09
-1.56351e-10
6.09683e-09
4.59268e-11
5.86721e-09
2.48293e-10
5.48723e-09
4.50679e-10
4.95586e-09
6.53803e-10
4.27127e-09
8.5887e-10
3.43063e-09
1.06734e-09
2.43005e-09
1.28076e-09
1.26454e-09
1.50067e-09
-7.1868e-11
1.7285e-09
-1.58604e-09
1.96551e-09
-3.28559e-09
2.21279e-09
-5.17876e-09
2.47123e-09
-7.27424e-09
2.7415e-09
-9.58101e-09
3.02407e-09
-1.21082e-08
3.31921e-09
-1.4865e-08
3.62696e-09
-1.78603e-08
3.94717e-09
-2.11028e-08
4.27942e-09
-2.46004e-08
4.62308e-09
-2.83605e-08
4.97723e-09
-3.23895e-08
5.34068e-09
-3.66926e-08
5.71195e-09
-4.12736e-08
6.08919e-09
-4.61344e-08
6.47024e-09
-5.12754e-08
6.85256e-09
-5.66944e-08
7.23323e-09
-6.23869e-08
7.60898e-09
-6.83457e-08
7.97615e-09
-7.45603e-08
8.33072e-09
-8.10173e-08
8.66832e-09
-8.76997e-08
8.98427e-09
-9.45868e-08
9.27363e-09
-1.01654e-07
9.5312e-09
-1.08873e-07
9.75163e-09
-1.16212e-07
9.92943e-09
-1.23634e-07
1.00591e-08
-1.311e-07
1.01351e-08
-1.38564e-07
1.01521e-08
-1.45979e-07
1.0105e-08
-1.53295e-07
9.98879e-09
-1.60458e-07
9.79918e-09
-1.67409e-07
9.53216e-09
-1.74091e-07
9.1844e-09
-1.80443e-07
8.75327e-09
-1.86404e-07
8.23691e-09
-1.9191e-07
7.63437e-09
-1.96901e-07
6.94566e-09
-2.01314e-07
6.17181e-09
-2.05093e-07
5.31496e-09
-2.08179e-07
4.37839e-09
-2.10521e-07
3.36657e-09
-2.12069e-07
2.28515e-09
-2.12779e-07
1.14072e-09
-2.12618e-07
-5.46327e-11
-2.1155e-07
-1.302e-09
-2.09553e-07
-2.58086e-09
-2.06612e-07
-3.88385e-09
-2.02722e-07
-5.19857e-09
-1.97884e-07
-6.51201e-09
-1.92111e-07
-7.81058e-09
-1.85426e-07
-9.08023e-09
-1.7786e-07
-1.03067e-08
-1.69457e-07
-1.14755e-08
-1.60268e-07
-1.25727e-08
-1.50355e-07
-1.35844e-08
-1.3979e-07
-1.44976e-08
-1.2865e-07
-1.53002e-08
-1.17024e-07
-1.59813e-08
-1.05004e-07
-1.65313e-08
-9.26891e-08
-1.69424e-08
-8.01823e-08
-1.72087e-08
-6.75893e-08
-1.73262e-08
-5.50168e-08
-1.7293e-08
-4.25715e-08
-1.71098e-08
-3.03581e-08
-1.67792e-08
-1.84779e-08
-1.63063e-08
-7.02706e-09
-1.56985e-08
3.90461e-09
-1.49652e-08
1.42351e-08
-1.41177e-08
2.38915e-08
-1.3169e-08
3.28108e-08
-1.21335e-08
4.09408e-08
-1.10268e-08
4.82407e-08
-9.86517e-09
5.46813e-08
-8.6653e-09
6.02453e-08
-7.44388e-09
6.49269e-08
-6.21725e-09
6.87315e-08
-5.0011e-09
7.16748e-08
-3.81009e-09
7.37825e-08
-2.65759e-09
7.50885e-08
-1.55547e-09
7.56346e-08
-5.13895e-10
7.54685e-08
4.58777e-10
7.46429e-08
1.35612e-09
7.32142e-08
2.17354e-09
7.12408e-08
2.90832e-09
6.87825e-08
3.5595e-09
6.58987e-08
4.12769e-09
6.26478e-08
4.61487e-09
5.90864e-08
5.02418e-09
5.52683e-08
5.35955e-09
5.12447e-08
5.62541e-09
4.70637e-08
5.82627e-09
4.27707e-08
5.96623e-09
3.84091e-08
6.04854e-09
3.40209e-08
6.07498e-09
2.96488e-08
6.04529e-09
2.53374e-08
5.95654e-09
2.11356e-08
5.80252e-09
1.70992e-08
5.57321e-09
1.32932e-08
5.25456e-09
9.79407e-09
4.82873e-09
6.69048e-09
4.2756e-09
4.0807e-09
3.57682e-09
2.06377e-09
2.72542e-09
7.20151e-10
1.74352e-09
7.80033e-11
7.18375e-10
-7.2576e-11
2.89844e-10
-4.79868e-10
9.58402e-10
-1.29882e-09
1.86652e-09
-1.861e-09
2.89808e-09
-2.1632e-09
3.95447e-09
-2.24603e-09
4.95626e-09
-2.15784e-09
5.84272e-09
-1.94355e-09
6.56961e-09
-1.64082e-09
7.10613e-09
-1.2791e-09
7.43177e-09
-8.80136e-10
7.53354e-09
-4.59207e-10
7.4033e-09
-2.61144e-11
7.03622e-09
4.13008e-10
6.42866e-09
8.55852e-10
5.57743e-09
1.30191e-09
4.47884e-09
1.7524e-09
3.12819e-09
2.20952e-09
1.51944e-09
2.67607e-09
-3.54839e-10
3.15505e-09
-2.50357e-09
3.6494e-09
-4.93699e-09
4.16192e-09
-7.66653e-09
4.69505e-09
-1.07046e-08
5.25086e-09
-1.40644e-08
5.83098e-09
-1.77595e-08
6.43661e-09
-2.18039e-08
7.06846e-09
-2.62114e-08
7.72679e-09
-3.09958e-08
8.41135e-09
-3.61701e-08
9.12142e-09
-4.17464e-08
9.85574e-09
-4.77358e-08
1.06125e-08
-5.41478e-08
1.13892e-08
-6.099e-08
1.21829e-08
-6.82678e-08
1.29898e-08
-7.5984e-08
1.38054e-08
-8.41384e-08
1.46246e-08
-9.27272e-08
1.54414e-08
-1.01743e-07
1.6249e-08
-1.11174e-07
1.70399e-08
-1.21004e-07
1.7806e-08
-1.31211e-07
1.85381e-08
-1.41769e-07
1.92266e-08
-1.52647e-07
1.98615e-08
-1.63805e-07
2.04319e-08
-1.75201e-07
2.0927e-08
-1.86784e-07
2.13353e-08
-1.985e-07
2.16456e-08
-2.10288e-07
2.18465e-08
-2.2208e-07
2.1927e-08
-2.33804e-07
2.18766e-08
-2.45385e-07
2.16853e-08
-2.5674e-07
2.13439e-08
-2.67785e-07
2.08442e-08
-2.78432e-07
2.01795e-08
-2.88592e-07
1.9344e-08
-2.98172e-07
1.8334e-08
-3.07083e-07
1.71471e-08
-3.15231e-07
1.5783e-08
-3.22529e-07
1.42435e-08
-3.2889e-07
1.25323e-08
-3.3423e-07
1.06556e-08
-3.38473e-07
8.62153e-09
-3.41548e-07
6.4408e-09
-3.43389e-07
4.12634e-09
-3.43942e-07
1.69353e-09
-3.43156e-07
-8.39998e-10
-3.41e-07
-3.45777e-09
-3.37446e-07
-6.13494e-09
-3.32481e-07
-8.84949e-09
-3.26102e-07
-1.15769e-08
-3.18323e-07
-1.42913e-08
-3.09168e-07
-1.69658e-08
-2.98675e-07
-1.95728e-08
-2.86897e-07
-2.20845e-08
-2.739e-07
-2.4473e-08
-2.59762e-07
-2.67111e-08
-2.44573e-07
-2.87725e-08
-2.28439e-07
-3.06322e-08
-2.11472e-07
-3.22671e-08
-1.93797e-07
-3.36564e-08
-1.75546e-07
-3.4782e-08
-1.56859e-07
-3.56289e-08
-1.37883e-07
-3.61856e-08
-1.18764e-07
-3.64445e-08
-9.96554e-08
-3.64018e-08
-8.07069e-08
-3.60583e-08
-6.20672e-08
-3.54188e-08
-4.38808e-08
-3.44927e-08
-2.62859e-08
-3.32934e-08
-9.4126e-09
-3.18385e-08
6.61903e-09
-3.01493e-08
2.17004e-08
-2.82504e-08
3.57362e-08
-2.61692e-08
4.86449e-08
-2.39356e-08
6.03608e-08
-2.1581e-08
7.08335e-08
-1.9138e-08
8.00291e-08
-1.66394e-08
8.79295e-08
-1.41177e-08
9.45327e-08
-1.16043e-08
9.98518e-08
-9.12917e-09
1.03914e-07
-6.71983e-09
1.0676e-07
-4.40123e-09
1.08441e-07
-2.19515e-09
1.0902e-07
-1.20056e-10
1.08567e-07
1.80937e-09
1.07158e-07
3.5819e-09
1.04877e-07
5.19008e-09
1.01806e-07
6.62991e-09
9.80332e-08
7.90061e-09
9.36438e-08
9.00427e-09
8.87226e-08
9.94535e-09
8.33521e-08
1.07301e-08
7.76116e-08
1.13659e-08
7.15774e-08
1.18604e-08
6.53228e-08
1.22208e-08
5.89188e-08
1.24525e-08
5.24352e-08
1.25586e-08
4.59425e-08
1.2538e-08
3.95139e-08
1.23851e-08
3.3228e-08
1.20885e-08
2.71712e-08
1.163e-08
2.14407e-08
1.09851e-08
1.61453e-08
1.01241e-08
1.14056e-08
9.01525e-09
7.34971e-09
7.63275e-09
4.10303e-09
5.9721e-09
1.77091e-09
4.07565e-09
4.10956e-10
2.07832e-09
3.38378e-10
3.55472e-10
-8.35339e-10
1.13972e-09
-2.08305e-09
2.16826e-09
-2.88954e-09
3.30142e-09
-3.29636e-09
4.42669e-09
-3.37131e-09
5.45474e-09
-3.1859e-09
6.31671e-09
-2.80552e-09
6.9612e-09
-2.28533e-09
7.35117e-09
-1.66906e-09
7.46068e-09
-9.8964e-10
7.27195e-09
-2.70482e-10
6.77292e-09
4.72918e-10
5.95463e-09
1.2313e-09
4.81009e-09
2.0004e-09
3.33254e-09
2.77945e-09
1.51471e-09
3.57022e-09
-6.51842e-10
4.37608e-09
-3.17709e-09
5.20132e-09
-6.07264e-09
6.0506e-09
-9.35176e-09
6.92852e-09
-1.30292e-08
7.83937e-09
-1.7121e-08
8.78688e-09
-2.16443e-08
9.77415e-09
-2.66169e-08
1.08035e-08
-3.20568e-08
1.18765e-08
-3.79822e-08
1.29939e-08
-4.44109e-08
1.41555e-08
-5.13601e-08
1.53605e-08
-5.88455e-08
1.66068e-08
-6.68815e-08
1.78917e-08
-7.54803e-08
1.92113e-08
-8.46519e-08
2.05608e-08
-9.44029e-08
2.1934e-08
-1.04737e-07
2.33237e-08
-1.15653e-07
2.47216e-08
-1.27146e-07
2.61178e-08
-1.39206e-07
2.75014e-08
-1.51817e-07
2.88601e-08
-1.64958e-07
3.01803e-08
-1.78599e-07
3.14475e-08
-1.92707e-07
3.26457e-08
-2.07238e-07
3.37583e-08
-2.22145e-07
3.47677e-08
-2.37369e-07
3.56559e-08
-2.52846e-07
3.64042e-08
-2.68504e-07
3.6994e-08
-2.84266e-07
3.74068e-08
-3.00044e-07
3.76244e-08
-3.15746e-07
3.76294e-08
-3.31275e-07
3.74054e-08
-3.46527e-07
3.69372e-08
-3.61394e-07
3.62115e-08
-3.75767e-07
3.52166e-08
-3.89531e-07
3.39434e-08
-4.02571e-07
3.23849e-08
-4.14775e-07
3.05371e-08
-4.26026e-07
2.8399e-08
-4.36216e-07
2.59725e-08
-4.45236e-07
2.32631e-08
-4.52983e-07
2.02795e-08
-4.59361e-07
1.70339e-08
-4.64282e-07
1.3542e-08
-4.67664e-07
9.82325e-09
-4.69438e-07
5.90036e-09
-4.69544e-07
1.79992e-09
-4.67933e-07
-2.45092e-09
-4.64572e-07
-6.81909e-09
-4.59438e-07
-1.12689e-08
-4.52524e-07
-1.57634e-08
-4.43838e-07
-2.02634e-08
-4.33401e-07
-2.47279e-08
-4.21252e-07
-2.91147e-08
-4.07444e-07
-3.33806e-08
-3.92046e-07
-3.74825e-08
-3.75142e-07
-4.13775e-08
-3.56829e-07
-4.50236e-08
-3.37222e-07
-4.83803e-08
-3.16444e-07
-5.14094e-08
-2.94636e-07
-5.40756e-08
-2.71946e-07
-5.63469e-08
-2.48532e-07
-5.81956e-08
-2.24562e-07
-5.95985e-08
-2.0021e-07
-6.05377e-08
-1.75654e-07
-6.10011e-08
-1.51073e-07
-6.09825e-08
-1.26649e-07
-6.04823e-08
-1.02561e-07
-5.9507e-08
-7.89834e-08
-5.80702e-08
-5.60853e-08
-5.61916e-08
-3.40267e-08
-5.38972e-08
-1.29572e-08
-5.12188e-08
6.98611e-09
-4.81937e-08
2.56804e-08
-4.48635e-08
4.30188e-08
-4.1274e-08
5.89114e-08
-3.74737e-08
7.32865e-08
-3.35131e-08
8.60911e-08
-2.9444e-08
9.72911e-08
-2.53177e-08
1.06871e-07
-2.11846e-08
1.14835e-07
-1.70931e-08
1.21204e-07
-1.30885e-08
1.26015e-07
-9.2123e-09
1.29321e-07
-5.50146e-09
1.31189e-07
-1.98795e-09
1.31697e-07
1.30177e-09
1.30932e-07
4.34686e-09
1.2899e-07
7.13218e-09
1.25972e-07
9.64813e-09
1.21982e-07
1.18903e-08
1.17127e-07
1.3859e-08
1.11514e-07
1.55586e-08
1.05248e-07
1.69963e-08
9.84319e-08
1.81817e-08
9.11674e-08
1.91249e-08
8.35527e-08
1.98356e-08
7.56839e-08
2.03213e-08
6.76566e-08
2.05859e-08
5.9567e-08
2.06276e-08
5.15141e-08
2.0438e-08
4.36024e-08
2.00002e-08
3.59438e-08
1.92885e-08
2.86606e-08
1.82684e-08
2.18856e-08
1.68991e-08
1.57622e-08
1.51386e-08
1.04408e-08
1.29542e-08
6.07177e-09
1.03411e-08
2.79619e-09
7.35123e-09
7.35839e-10
4.13866e-09
1.07422e-09
3.76642e-10
-1.21198e-09
1.19017e-09
-2.89659e-09
2.22716e-09
-3.92653e-09
3.33045e-09
-4.39965e-09
4.37803e-09
-4.41888e-09
5.275e-09
-4.08287e-09
5.94856e-09
-3.47908e-09
6.34389e-09
-2.68066e-09
6.42055e-09
-1.74572e-09
6.14916e-09
-7.18252e-10
5.50844e-09
3.70238e-10
4.4826e-09
1.49877e-09
3.05904e-09
2.65484e-09
1.22682e-09
3.83262e-09
-1.02485e-09
5.03112e-09
-3.70747e-09
6.25284e-09
-6.83386e-09
7.50247e-09
-1.04185e-08
8.78597e-09
-1.44777e-08
1.01098e-08
-1.90293e-08
1.14802e-08
-2.40929e-08
1.2903e-08
-2.96892e-08
1.43832e-08
-3.58399e-08
1.59248e-08
-4.25668e-08
1.75305e-08
-4.98923e-08
1.9202e-08
-5.7838e-08
2.09396e-08
-6.64247e-08
2.27422e-08
-7.56718e-08
2.46076e-08
-8.55967e-08
2.65318e-08
-9.62145e-08
2.85095e-08
-1.07537e-07
3.05338e-08
-1.19572e-07
3.25963e-08
-1.32325e-07
3.46864e-08
-1.45793e-07
3.67922e-08
-1.59972e-07
3.88997e-08
-1.74847e-07
4.0993e-08
-1.904e-07
4.30543e-08
-2.06604e-07
4.50643e-08
-2.23425e-07
4.70014e-08
-2.40821e-07
4.8843e-08
-2.5874e-07
5.05648e-08
-2.77122e-07
5.21411e-08
-2.95901e-07
5.35459e-08
-3.14997e-07
5.4752e-08
-3.34325e-07
5.57323e-08
-3.53791e-07
5.646e-08
-3.73293e-07
5.69085e-08
-3.92721e-07
5.70524e-08
-4.11959e-07
5.68679e-08
-4.30887e-07
5.63329e-08
-4.49377e-07
5.54277e-08
-4.67301e-07
5.41353e-08
-4.84526e-07
5.24418e-08
-5.0092e-07
5.0337e-08
-5.16349e-07
4.78143e-08
-5.30684e-07
4.48715e-08
-5.43795e-07
4.15103e-08
-5.5556e-07
3.77374e-08
-5.65861e-07
3.35639e-08
-5.74587e-07
2.90056e-08
-5.81636e-07
2.40833e-08
-5.86916e-07
1.88221e-08
-5.90345e-07
1.32522e-08
-5.91853e-07
7.40809e-09
-5.91383e-07
1.33031e-09
-5.8889e-07
-4.94461e-09
-5.84344e-07
-1.13647e-08
-5.77732e-07
-1.78812e-08
-5.69053e-07
-2.44419e-08
-5.58325e-07
-3.09917e-08
-5.45579e-07
-3.74735e-08
-5.30865e-07
-4.38288e-08
-5.14247e-07
-4.99986e-08
-4.95806e-07
-5.59235e-08
-4.75639e-07
-6.15449e-08
-4.53857e-07
-6.68057e-08
-4.30587e-07
-7.16507e-08
-4.05968e-07
-7.60279e-08
-3.80154e-07
-7.98891e-08
-3.53311e-07
-8.31907e-08
-3.25612e-07
-8.58945e-08
-2.97242e-07
-8.79686e-08
-2.68391e-07
-8.93878e-08
-2.39258e-07
-9.01347e-08
-2.1004e-07
-9.01999e-08
-1.8094e-07
-8.95822e-08
-1.52158e-07
-8.82896e-08
-1.23889e-07
-8.63387e-08
-9.63263e-08
-8.37547e-08
-6.96517e-08
-8.05717e-08
-4.40387e-08
-7.68318e-08
-1.96481e-08
-7.25843e-08
3.37385e-09
-6.78854e-08
2.48969e-08
-6.2797e-08
4.48084e-08
-5.73852e-08
6.30151e-08
-5.17198e-08
7.94435e-08
-4.58723e-08
9.40407e-08
-3.99149e-08
1.06775e-07
-3.39187e-08
1.17635e-07
-2.79529e-08
1.26629e-07
-2.20831e-08
1.33787e-07
-1.637e-08
1.39154e-07
-1.08688e-08
1.42794e-07
-5.62811e-09
1.44785e-07
-6.89157e-10
1.45218e-07
3.91442e-09
1.44193e-07
8.1568e-09
1.41821e-07
1.20199e-08
1.38219e-07
1.5493e-08
1.33505e-07
1.85722e-08
1.27805e-07
2.12594e-08
1.2124e-07
2.35613e-08
1.13934e-07
2.54877e-08
1.06008e-07
2.70501e-08
9.75841e-08
2.82599e-08
8.87797e-08
2.91257e-08
7.97137e-08
2.96519e-08
7.05054e-08
2.98359e-08
6.12768e-08
2.96666e-08
5.21548e-08
2.91222e-08
4.32731e-08
2.81701e-08
3.47744e-08
2.67671e-08
2.68114e-08
2.48622e-08
1.95466e-08
2.24034e-08
1.31517e-08
1.9349e-08
7.80568e-09
1.56871e-08
3.6937e-09
1.14632e-08
1.01264e-09
6.81972e-09
2.08686e-09
3.63651e-10
-1.57564e-09
1.13125e-09
-3.66418e-09
2.07616e-09
-4.87143e-09
3.03172e-09
-5.35521e-09
3.87103e-09
-5.25819e-09
4.49714e-09
-4.70898e-09
4.83632e-09
-3.81827e-09
4.83299e-09
-2.67732e-09
4.44551e-09
-1.35824e-09
3.64275e-09
8.45106e-11
2.40099e-09
1.612e-09
7.01413e-10
3.19835e-09
-1.47207e-09
4.82833e-09
-4.13443e-09
6.49498e-09
-7.30078e-09
8.19748e-09
-1.09873e-08
9.93931e-09
-1.52115e-08
1.17267e-08
-1.9993e-08
1.35674e-08
-2.5353e-08
1.54697e-08
-3.13144e-08
1.74416e-08
-3.79016e-08
1.94902e-08
-4.514e-08
2.16216e-08
-5.30555e-08
2.38402e-08
-6.16741e-08
2.61491e-08
-7.10213e-08
2.85493e-08
-8.11218e-08
3.104e-08
-9.19983e-08
3.36188e-08
-1.03672e-07
3.62808e-08
-1.16159e-07
3.90194e-08
-1.29475e-07
4.18256e-08
-1.4363e-07
4.46883e-08
-1.58627e-07
4.75939e-08
-1.74467e-07
5.05263e-08
-1.91142e-07
5.3467e-08
-2.08637e-07
5.63949e-08
-2.26931e-07
5.92863e-08
-2.45991e-07
6.21152e-08
-2.6578e-07
6.4853e-08
-2.86248e-07
6.74689e-08
-3.07335e-07
6.99306e-08
-3.28974e-07
7.22037e-08
-3.51086e-07
7.42528e-08
-3.73581e-07
7.60416e-08
-3.96363e-07
7.75337e-08
-4.19324e-07
7.86927e-08
-4.42347e-07
7.94829e-08
-4.65308e-07
7.98702e-08
-4.88078e-07
7.98222e-08
-5.10519e-07
7.93091e-08
-5.32491e-07
7.83043e-08
-5.53847e-07
7.67845e-08
-5.74443e-07
7.47307e-08
-5.9413e-07
7.21286e-08
-6.12761e-07
6.89685e-08
-6.30193e-07
6.52464e-08
-6.46285e-07
6.09635e-08
-6.60902e-07
5.6127e-08
-6.73914e-07
5.07498e-08
-6.85201e-07
4.48509e-08
-6.94651e-07
3.84552e-08
-7.02161e-07
3.15934e-08
-7.07641e-07
2.4302e-08
-7.11012e-07
1.66231e-08
-7.12207e-07
8.60348e-09
-7.11179e-07
3.02413e-10
-7.07883e-07
-8.24107e-09
-7.02299e-07
-1.69481e-08
-6.9442e-07
-2.57601e-08
-6.84254e-07
-3.46084e-08
-6.71823e-07
-4.34222e-08
-6.57169e-07
-5.21281e-08
-6.40346e-07
-6.06518e-08
-6.21426e-07
-6.8918e-08
-6.00498e-07
-7.68514e-08
-5.77665e-07
-8.43778e-08
-5.53046e-07
-9.14248e-08
-5.26774e-07
-9.79225e-08
-4.98997e-07
-1.03805e-07
-4.69876e-07
-1.09011e-07
-4.39583e-07
-1.13484e-07
-4.08302e-07
-1.17175e-07
-3.76227e-07
-1.20043e-07
-3.4356e-07
-1.22055e-07
-3.10508e-07
-1.23187e-07
-2.77283e-07
-1.23424e-07
-2.44102e-07
-1.22764e-07
-2.11178e-07
-1.21213e-07
-1.78726e-07
-1.18791e-07
-1.46953e-07
-1.15528e-07
-1.16061e-07
-1.11463e-07
-8.62437e-08
-1.06649e-07
-5.76822e-08
-1.01146e-07
-3.05441e-08
-9.50235e-08
-4.98132e-09
-8.83597e-08
1.88717e-08
-8.12382e-08
4.08997e-08
-7.37478e-08
6.10078e-08
-6.59805e-08
7.91229e-08
-5.80299e-08
9.51936e-08
-4.99894e-08
1.09191e-07
-4.19501e-08
1.21108e-07
-3.39999e-08
1.30959e-07
-2.62209e-08
1.38779e-07
-1.8689e-08
1.44623e-07
-1.1472e-08
1.48562e-07
-4.62863e-09
1.50685e-07
1.79155e-09
1.51093e-07
7.74914e-09
1.49898e-07
1.32146e-08
1.47223e-07
1.81679e-08
1.43197e-07
2.25983e-08
1.37954e-07
2.65028e-08
1.3163e-07
2.98848e-08
1.24365e-07
3.27528e-08
1.16297e-07
3.51177e-08
1.07566e-07
3.69911e-08
9.83099e-08
3.8382e-08
8.86672e-08
3.92945e-08
7.87781e-08
3.97251e-08
6.87848e-08
3.96599e-08
5.88341e-08
3.9073e-08
4.90786e-08
3.79256e-08
3.96792e-08
3.61665e-08
3.08063e-08
3.3735e-08
2.26416e-08
3.05682e-08
1.53791e-08
2.66115e-08
9.22885e-09
2.18374e-08
4.42318e-09
1.62689e-08
1.23166e-09
1.00113e-08
3.31852e-09
3.24194e-10
-1.89983e-09
9.82052e-10
-4.32204e-09
1.74619e-09
-5.63557e-09
2.44839e-09
-6.0574e-09
2.96185e-09
-5.77166e-09
3.19097e-09
-4.9381e-09
3.06377e-09
-3.69107e-09
2.52603e-09
-2.13958e-09
1.53672e-09
-3.6893e-10
6.4284e-11
1.55695e-09
-1.91642e-09
3.5927e-09
-4.42667e-09
5.70859e-09
-7.48581e-09
7.88747e-09
-1.11128e-08
1.01219e-08
-1.53272e-08
1.24119e-08
-2.01502e-08
1.47622e-08
-2.56044e-08
1.7181e-08
-3.17147e-08
1.96777e-08
-3.85076e-08
2.22626e-08
-4.60111e-08
2.49451e-08
-5.42545e-08
2.77336e-08
-6.32677e-08
3.06348e-08
-7.30808e-08
3.36533e-08
-8.37231e-08
3.67914e-08
-9.52231e-08
4.00493e-08
-1.07607e-07
4.34242e-08
-1.209e-07
4.69111e-08
-1.35121e-07
5.05019e-08
-1.50287e-07
5.41858e-08
-1.6641e-07
5.7949e-08
-1.83497e-07
6.17747e-08
-2.01546e-07
6.56428e-08
-2.20549e-07
6.953e-08
-2.40492e-07
7.34096e-08
-2.61349e-07
7.72517e-08
-2.83086e-07
8.10232e-08
-3.05659e-07
8.4688e-08
-3.29013e-07
8.82071e-08
-3.53083e-07
9.15389e-08
-3.77792e-07
9.46398e-08
-4.03053e-07
9.74648e-08
-4.28768e-07
9.99675e-08
-4.54827e-07
1.02101e-07
-4.81113e-07
1.0382e-07
-5.07497e-07
1.05077e-07
-5.33844e-07
1.0583e-07
-5.6001e-07
1.06036e-07
-5.85847e-07
1.05659e-07
-6.112e-07
1.04662e-07
-6.35913e-07
1.03017e-07
-6.59827e-07
1.00699e-07
-6.82785e-07
9.76883e-08
-7.04628e-07
9.3972e-08
-7.25203e-07
8.95434e-08
-7.4436e-07
8.44029e-08
-7.61954e-07
7.85574e-08
-7.77848e-07
7.2021e-08
-7.91913e-07
6.48152e-08
-8.0403e-07
5.6968e-08
-8.1409e-07
4.85148e-08
-8.21994e-07
3.94974e-08
-8.27656e-07
2.99644e-08
-8.31004e-07
1.99706e-08
-8.31977e-07
9.57655e-09
-8.30526e-07
-1.14866e-09
-8.26624e-07
-1.21432e-08
-8.2025e-07
-2.33221e-08
-8.11402e-07
-3.46081e-08
-8.00092e-07
-4.5918e-08
-7.86349e-07
-5.71656e-08
-7.70214e-07
-6.82623e-08
-7.51748e-07
-7.91179e-08
-7.31024e-07
-8.96418e-08
-7.08133e-07
-9.97431e-08
-6.83178e-07
-1.09332e-07
-6.56281e-07
-1.18322e-07
-6.27576e-07
-1.26627e-07
-5.97213e-07
-1.34168e-07
-5.65354e-07
-1.40869e-07
-5.32176e-07
-1.46663e-07
-4.97864e-07
-1.51487e-07
-4.62619e-07
-1.55289e-07
-4.26646e-07
-1.58028e-07
-3.90161e-07
-1.59672e-07
-3.53385e-07
-1.602e-07
-3.16542e-07
-1.59606e-07
-2.7986e-07
-1.57895e-07
-2.43564e-07
-1.55087e-07
-2.07879e-07
-1.51213e-07
-1.73023e-07
-1.4632e-07
-1.39206e-07
-1.40466e-07
-1.0663e-07
-1.33723e-07
-7.54806e-08
-1.26173e-07
-4.59326e-08
-1.17908e-07
-1.81417e-08
-1.09029e-07
7.75493e-09
-9.96444e-08
3.16404e-08
-8.9866e-08
5.34197e-08
-7.98093e-08
7.30206e-08
-6.95902e-08
9.03939e-08
-5.93234e-08
1.05514e-07
-4.91201e-08
1.18379e-07
-3.90857e-08
1.29008e-07
-2.93185e-08
1.37444e-07
-1.99079e-08
1.43749e-07
-1.09329e-08
1.48002e-07
-2.46146e-09
1.503e-07
5.45054e-09
1.50756e-07
1.27592e-08
1.49491e-07
1.94323e-08
1.4664e-07
2.54493e-08
1.42344e-07
3.07994e-08
1.36748e-07
3.54805e-08
1.30004e-07
3.94972e-08
1.22263e-07
4.28579e-08
1.13682e-07
4.55727e-08
1.04414e-07
4.76496e-08
9.46169e-08
4.90918e-08
8.44479e-08
4.98941e-08
7.40676e-08
5.00402e-08
6.36405e-08
4.95001e-08
5.33368e-08
4.82294e-08
4.33343e-08
4.61689e-08
3.38209e-08
4.32484e-08
2.49974e-08
3.93917e-08
1.70815e-08
3.45275e-08
1.03148e-08
2.86041e-08
4.9746e-09
2.1609e-08
1.39344e-09
1.35924e-08
4.71195e-09
2.63726e-10
-2.16356e-09
7.57694e-10
-4.81601e-09
1.26304e-09
-6.14091e-09
1.6171e-09
-6.41147e-09
1.69814e-09
-5.8527e-09
1.41539e-09
-4.65535e-09
7.01167e-10
-2.97685e-09
-4.9538e-10
-9.43031e-10
-2.21316e-09
1.34885e-09
-4.48298e-09
3.82677e-09
-7.33067e-09
6.44039e-09
-1.07794e-08
9.15731e-09
-1.48515e-08
1.19596e-08
-1.95699e-08
1.48403e-08
-2.49588e-08
1.78008e-08
-3.10444e-08
2.08478e-08
-3.78548e-08
2.39914e-08
-4.54203e-08
2.72432e-08
-5.37728e-08
3.06151e-08
-6.29456e-08
3.41179e-08
-7.29727e-08
3.77607e-08
-8.38883e-08
4.15504e-08
-9.57261e-08
4.54911e-08
-1.08519e-07
4.95839e-08
-1.22296e-07
5.38268e-08
-1.37086e-07
5.82143e-08
-1.52913e-07
6.27377e-08
-1.69795e-07
6.73844e-08
-1.87748e-07
7.21381e-08
-2.06778e-07
7.69788e-08
-2.26885e-07
8.18824e-08
-2.48063e-07
8.68207e-08
-2.70295e-07
9.17615e-08
-2.93553e-07
9.66683e-08
-3.17803e-07
1.01501e-07
-3.42994e-07
1.06215e-07
-3.6907e-07
1.10763e-07
-3.95957e-07
1.15094e-07
-4.23573e-07
1.19155e-07
-4.51824e-07
1.2289e-07
-4.80602e-07
1.26243e-07
-5.0979e-07
1.29156e-07
-5.3926e-07
1.31571e-07
-5.68874e-07
1.33434e-07
-5.98487e-07
1.34689e-07
-6.27944e-07
1.35287e-07
-6.57086e-07
1.35179e-07
-6.85751e-07
1.34323e-07
-7.13771e-07
1.32683e-07
-7.40981e-07
1.30226e-07
-7.67211e-07
1.26929e-07
-7.92297e-07
1.22775e-07
-8.16079e-07
1.17753e-07
-8.38398e-07
1.11862e-07
-8.59104e-07
1.05109e-07
-8.78055e-07
9.75079e-08
-8.95115e-07
8.90812e-08
-9.10159e-07
7.98597e-08
-9.23073e-07
6.9882e-08
-9.33753e-07
5.91941e-08
-9.42105e-07
4.78498e-08
-9.4805e-07
3.59094e-08
-9.5152e-07
2.34402e-08
-9.52459e-07
1.0516e-08
-9.50825e-07
-2.78307e-09
-9.46591e-07
-1.63771e-08
-9.39741e-07
-3.01716e-08
-9.30275e-07
-4.40741e-08
-9.18206e-07
-5.79873e-08
-9.03561e-07
-7.18103e-08
-8.86383e-07
-8.54401e-08
-8.66729e-07
-9.8772e-08
-8.44671e-07
-1.117e-07
-8.20296e-07
-1.24119e-07
-7.93705e-07
-1.35923e-07
-7.65015e-07
-1.47011e-07
-7.3436e-07
-1.57283e-07
-7.01884e-07
-1.66644e-07
-6.67749e-07
-1.75004e-07
-6.32129e-07
-1.82282e-07
-5.95212e-07
-1.88404e-07
-5.57197e-07
-1.93304e-07
-5.18294e-07
-1.96931e-07
-4.78722e-07
-1.99244e-07
-4.38708e-07
-2.00214e-07
-3.98486e-07
-1.99829e-07
-3.58291e-07
-1.9809e-07
-3.18363e-07
-1.95015e-07
-2.78939e-07
-1.90637e-07
-2.40253e-07
-1.85006e-07
-2.02532e-07
-1.78186e-07
-1.65997e-07
-1.70258e-07
-1.30854e-07
-1.61315e-07
-9.72998e-08
-1.51462e-07
-6.55111e-08
-1.40818e-07
-3.56479e-08
-1.29508e-07
-7.85007e-09
-1.17664e-07
1.77648e-08
-1.05424e-07
4.11022e-08
-9.29276e-08
6.20913e-08
-8.03126e-08
8.06864e-08
-6.77152e-08
9.6866e-08
-5.52653e-08
1.10633e-07
-4.30857e-08
1.22014e-07
-3.12891e-08
1.31058e-07
-1.9977e-08
1.37835e-07
-9.23836e-09
1.42434e-07
8.51662e-10
1.44961e-07
1.02322e-08
1.45537e-07
1.8856e-08
1.44297e-07
2.66897e-08
1.41384e-07
3.3712e-08
1.36952e-07
3.99128e-08
1.31159e-07
4.529e-08
1.2417e-07
4.98476e-08
1.1615e-07
5.35921e-08
1.0727e-07
5.65293e-08
9.77023e-08
5.866e-08
8.76195e-08
5.99769e-08
7.7199e-08
6.04607e-08
6.66215e-08
6.00776e-08
5.60737e-08
5.87772e-08
4.575e-08
5.64927e-08
3.58556e-08
5.31428e-08
2.66107e-08
4.86366e-08
1.82567e-08
4.28815e-08
1.10653e-08
3.57955e-08
5.35294e-09
2.73214e-08
1.50215e-09
1.74432e-08
6.21411e-09
1.8589e-10
-2.34945e-09
4.69276e-10
-5.0994e-09
6.46712e-10
-6.31835e-09
5.67199e-10
-6.33195e-09
1.18724e-10
-5.40423e-09
-7.81166e-10
-3.75546e-09
-2.19332e-09
-1.56468e-09
-4.16335e-09
1.027e-09
-6.72663e-09
3.91213e-09
-9.91224e-09
7.01238e-09
-1.37459e-08
1.02741e-08
-1.82524e-08
1.36638e-08
-2.34569e-08
1.7164e-08
-2.9386e-08
2.07695e-08
-3.60689e-08
2.44837e-08
-4.35369e-08
2.83158e-08
-5.18236e-08
3.22781e-08
-6.09648e-08
3.63845e-08
-7.09981e-08
4.06483e-08
-8.19616e-08
4.50814e-08
-9.3894e-08
4.96932e-08
-1.06834e-07
5.449e-08
-1.20817e-07
5.94746e-08
-1.35879e-07
6.4646e-08
-1.52052e-07
6.99991e-08
-1.69362e-07
7.55245e-08
-1.87832e-07
8.12083e-08
-2.0748e-07
8.70321e-08
-2.28315e-07
9.29727e-08
-2.50338e-07
9.90022e-08
-2.73543e-07
1.05088e-07
-2.97914e-07
1.11191e-07
-3.23422e-07
1.1727e-07
-3.5003e-07
1.23276e-07
-3.77687e-07
1.29157e-07
-4.06329e-07
1.34857e-07
-4.35881e-07
1.40316e-07
-4.66255e-07
1.45468e-07
-4.9735e-07
1.5025e-07
-5.29051e-07
1.54592e-07
-5.61235e-07
1.58426e-07
-5.93764e-07
1.61685e-07
-6.26493e-07
1.643e-07
-6.59268e-07
1.66209e-07
-6.91928e-07
1.67348e-07
-7.24304e-07
1.67663e-07
-7.56226e-07
1.67101e-07
-7.87519e-07
1.65617e-07
-8.18011e-07
1.63175e-07
-8.47527e-07
1.59742e-07
-8.75897e-07
1.55299e-07
-9.02953e-07
1.49831e-07
-9.28535e-07
1.43335e-07
-9.52487e-07
1.35814e-07
-9.74662e-07
1.27284e-07
-9.94921e-07
1.17767e-07
-1.01314e-06
1.07296e-07
-1.02919e-06
9.59095e-08
-1.04296e-06
8.36583e-08
-1.05437e-06
7.05988e-08
-1.06331e-06
5.67959e-08
-1.06972e-06
4.23214e-08
-1.07354e-06
2.72544e-08
-1.0747e-06
1.16803e-08
-1.07318e-06
-4.30907e-09
-1.06893e-06
-2.06202e-08
-1.06196e-06
-3.71475e-08
-1.05225e-06
-5.37855e-08
-1.03981e-06
-7.04236e-08
-1.02467e-06
-8.69479e-08
-1.00687e-06
-1.03242e-07
-9.86456e-07
-1.19187e-07
-9.63494e-07
-1.34662e-07
-9.38065e-07
-1.49548e-07
-9.10263e-07
-1.63725e-07
-8.80199e-07
-1.77075e-07
-8.47998e-07
-1.89484e-07
-8.138e-07
-2.00842e-07
-7.77761e-07
-2.11043e-07
-7.40051e-07
-2.19992e-07
-7.00855e-07
-2.27599e-07
-6.60372e-07
-2.33788e-07
-6.18811e-07
-2.38492e-07
-5.76395e-07
-2.4166e-07
-5.33356e-07
-2.43253e-07
-4.89934e-07
-2.43251e-07
-4.46375e-07
-2.41649e-07
-4.02929e-07
-2.38461e-07
-3.59847e-07
-2.33719e-07
-3.17378e-07
-2.27475e-07
-2.75769e-07
-2.19796e-07
-2.35257e-07
-2.10769e-07
-1.96073e-07
-2.00499e-07
-1.58432e-07
-1.89103e-07
-1.22536e-07
-1.76714e-07
-8.8568e-08
-1.63476e-07
-5.66915e-08
-1.4954e-07
-2.70483e-08
-1.35067e-07
2.43669e-10
-1.2022e-07
2.50914e-08
-1.0516e-07
4.74267e-08
-9.00505e-08
6.7208e-08
-7.50466e-08
8.44193e-08
-6.0297e-08
9.90703e-08
-4.594e-08
1.11195e-07
-3.21016e-08
1.20851e-07
-1.8894e-08
1.28116e-07
-6.414e-09
1.33091e-07
5.25755e-09
1.35891e-07
1.60559e-08
1.36649e-07
2.5932e-08
1.35509e-07
3.48516e-08
1.32628e-07
4.27934e-08
1.28172e-07
4.97465e-08
1.22311e-07
5.57081e-08
1.15224e-07
6.06792e-08
1.07092e-07
6.46613e-08
9.81002e-08
6.7652e-08
8.84364e-08
6.96407e-08
7.82926e-08
7.06045e-08
6.78649e-08
7.05052e-08
5.73556e-08
6.92864e-08
4.69755e-08
6.68728e-08
3.6947e-08
6.31713e-08
2.75096e-08
5.80739e-08
1.89271e-08
5.1464e-08
1.14978e-08
4.32248e-08
5.5702e-09
3.3249e-08
1.56304e-09
2.14504e-08
7.77715e-09
9.30417e-11
-2.44248e-09
1.24558e-10
-5.13092e-09
-8.7924e-11
-6.10587e-09
-6.7859e-10
-5.74128e-09
-1.7455e-09
-4.33731e-09
-3.35946e-09
-2.1415e-09
-5.57196e-09
6.47815e-10
-8.42153e-09
3.87656e-09
-1.19387e-08
7.42932e-09
-1.615e-08
1.12236e-08
-2.10805e-08
1.52046e-08
-2.6756e-08
1.93393e-08
-3.32045e-08
2.36125e-08
-4.04566e-08
2.80216e-08
-4.8546e-08
3.25731e-08
-5.75095e-08
3.72792e-08
-6.73862e-08
4.21549e-08