/*--------------------------------*- C++ -*----------------------------------*\
| =========                 |                                                 |
| \\      /  F ield         | OpenFOAM: The Open Source CFD Toolbox           |
|  \\    /   O peration     | Version:  2112                                  |
|   \\  /    A nd           | Website:  www.openfoam.com                      |
|    \\/     M anipulation  |                                                 |
\*---------------------------------------------------------------------------*/
FoamFile
{
    version     2.0;
    format      ascii;
    arch        "LSB;label=32;scalar=64";
    class       volVectorField;
    location    "1.8";
    object      U;
}
// * * * * * * * * * * * * * * * * * * * * * * * * * * * * * * * * * * * * * //

dimensions      [0 1 -1 0 0 0 0];

internalField   nonuniform List<vector> 
16641
(
(-1.20636e-06 1.16157e-06 0)
(9.50281e-06 -6.46241e-06 0)
(4.06111e-05 -1.27812e-05 0)
(8.29755e-05 -1.61155e-05 0)
(0.00013037 -1.72332e-05 0)
(0.000178343 -1.69195e-05 0)
(0.000223752 -1.57307e-05 0)
(0.000264565 -1.40466e-05 0)
(0.000299554 -1.21125e-05 0)
(0.000328038 -1.00812e-05 0)
(0.000349691 -8.04343e-06 0)
(0.000364411 -6.04779e-06 0)
(0.000372221 -4.11731e-06 0)
(0.000373201 -2.25426e-06 0)
(0.000367437 -4.49176e-07 0)
(0.000354988 1.31369e-06 0)
(0.000335869 3.05499e-06 0)
(0.000310038 4.79653e-06 0)
(0.000277389 6.55989e-06 0)
(0.000237757 8.36616e-06 0)
(0.000190919 1.02342e-05 0)
(0.000136597 1.21806e-05 0)
(7.44689e-05 1.422e-05 0)
(4.17459e-06 1.63648e-05 0)
(-7.46799e-05 1.86254e-05 0)
(-0.000162512 2.10106e-05 0)
(-0.000259758 2.35276e-05 0)
(-0.000366864 2.61817e-05 0)
(-0.000484283 2.89763e-05 0)
(-0.000612465 3.19138e-05 0)
(-0.00075185 3.49945e-05 0)
(-0.00090286 3.82162e-05 0)
(-0.00106589 4.1575e-05 0)
(-0.00124131 4.50642e-05 0)
(-0.00142942 4.86738e-05 0)
(-0.00163048 5.23902e-05 0)
(-0.00184468 5.61963e-05 0)
(-0.00207211 6.00718e-05 0)
(-0.00231279 6.39916e-05 0)
(-0.00256661 6.7926e-05 0)
(-0.00283333 7.18411e-05 0)
(-0.0031126 7.56985e-05 0)
(-0.00340389 7.94554e-05 0)
(-0.00370652 8.30643e-05 0)
(-0.00401964 8.64737e-05 0)
(-0.00434221 8.96282e-05 0)
(-0.004673 9.24688e-05 0)
(-0.00501059 9.49341e-05 0)
(-0.00535333 9.69597e-05 0)
(-0.00569941 9.84802e-05 0)
(-0.00604678 9.94293e-05 0)
(-0.00639322 9.97411e-05 0)
(-0.00673633 9.93515e-05 0)
(-0.00707351 9.8199e-05 0)
(-0.00740202 9.62256e-05 0)
(-0.00771898 9.3379e-05 0)
(-0.00802141 8.96137e-05 0)
(-0.00830622 8.48927e-05 0)
(-0.00857029 7.91884e-05 0)
(-0.00881048 7.24842e-05 0)
(-0.00902364 6.4776e-05 0)
(-0.00920674 5.60734e-05 0)
(-0.00935679 4.64012e-05 0)
(-0.00947101 3.58023e-05 0)
(-0.00954679 2.4342e-05 0)
(-0.00958182 1.21058e-05 0)
(-0.009574 -8.77524e-07 0)
(-0.00952154 -1.44561e-05 0)
(-0.00942319 -2.85009e-05 0)
(-0.00927803 -4.28739e-05 0)
(-0.00908562 -5.74211e-05 0)
(-0.00884602 -7.1975e-05 0)
(-0.00855981 -8.63577e-05 0)
(-0.00822812 -0.000100384 0)
(-0.00785262 -0.000113863 0)
(-0.00743557 -0.000126604 0)
(-0.00697974 -0.000138419 0)
(-0.00648844 -0.000149128 0)
(-0.0059655 -0.00015856 0)
(-0.0054152 -0.00016656 0)
(-0.00484221 -0.000172994 0)
(-0.00425157 -0.00017775 0)
(-0.0036486 -0.000180744 0)
(-0.0030388 -0.000181918 0)
(-0.00242779 -0.00018125 0)
(-0.00182122 -0.00017875 0)
(-0.00122466 -0.000174459 0)
(-0.000643539 -0.000168454 0)
(-8.29997e-05 -0.000160844 0)
(0.00045213 -0.000151766 0)
(0.00095745 -0.000141378 0)
(0.00142905 -0.000129868 0)
(0.00186358 -0.000117437 0)
(0.00225825 -0.000104298 0)
(0.00261093 -9.06682e-05 0)
(0.00292012 -7.6768e-05 0)
(0.00318496 -6.28112e-05 0)
(0.00340523 -4.90019e-05 0)
(0.00358129 -3.55289e-05 0)
(0.0037141 -2.25629e-05 0)
(0.0038051 -1.02523e-05 0)
(0.00385618 1.27851e-06 0)
(0.00386965 1.19305e-05 0)
(0.0038481 2.1632e-05 0)
(0.00379435 3.03359e-05 0)
(0.00371142 3.80204e-05 0)
(0.00360238 4.4687e-05 0)
(0.00347036 5.03582e-05 0)
(0.00331842 5.50752e-05 0)
(0.00314956 5.88941e-05 0)
(0.00296661 6.18836e-05 0)
(0.00277226 6.412e-05 0)
(0.00256897 6.5683e-05 0)
(0.00235902 6.66521e-05 0)
(0.0021445 6.70996e-05 0)
(0.00192732 6.70852e-05 0)
(0.00170926 6.66478e-05 0)
(0.00149208 6.57967e-05 0)
(0.00127755 6.45012e-05 0)
(0.00106762 6.26766e-05 0)
(0.000864576 6.01693e-05 0)
(0.000671204 5.67375e-05 0)
(0.00049102 5.20304e-05 0)
(0.000328494 4.55731e-05 0)
(0.000189234 3.67863e-05 0)
(7.98947e-05 2.51349e-05 0)
(7.39521e-06 1.05858e-05 0)
(-2.27764e-05 -5.03068e-06 0)
(-1.3376e-05 -1.33984e-05 0)
(6.4409e-06 -9.49134e-06 0)
(4.37017e-05 -4.36296e-05 0)
(0.000119215 -6.98672e-05 0)
(0.000215591 -8.44299e-05 0)
(0.000320947 -8.94139e-05 0)
(0.000426539 -8.74091e-05 0)
(0.000525518 -8.06005e-05 0)
(0.000612944 -7.0678e-05 0)
(0.000685506 -5.88659e-05 0)
(0.000741103 -4.60104e-05 0)
(0.000778499 -3.26685e-05 0)
(0.000797029 -1.91815e-05 0)
(0.00079639 -5.73546e-06 0)
(0.000776462 7.60265e-06 0)
(0.00073718 2.08417e-05 0)
(0.000678454 3.40437e-05 0)
(0.000600108 4.73026e-05 0)
(0.000501846 6.07283e-05 0)
(0.000383236 7.4436e-05 0)
(0.000243703 8.85389e-05 0)
(8.25376e-05 0.000103141 0)
(-0.000101092 0.000118335 0)
(-0.000308123 0.000134203 0)
(-0.000539585 0.00015081 0)
(-0.000796572 0.000168209 0)
(-0.00108023 0.000186441 0)
(-0.00139174 0.00020553 0)
(-0.00173227 0.000225492 0)
(-0.00210301 0.000246323 0)
(-0.00250509 0.00026801 0)
(-0.00293959 0.000290522 0)
(-0.00340751 0.00031381 0)
(-0.00390974 0.000337811 0)
(-0.00444704 0.000362438 0)
(-0.00501998 0.000387584 0)
(-0.00562897 0.000413118 0)
(-0.00627414 0.000438886 0)
(-0.00695539 0.000464707 0)
(-0.0076723 0.000490374 0)
(-0.00842411 0.000515654 0)
(-0.0092097 0.000540287 0)
(-0.0100275 0.00056399 0)
(-0.0108757 0.000586454 0)
(-0.0117516 0.000607348 0)
(-0.0126526 0.000626322 0)
(-0.0135751 0.000643011 0)
(-0.0145152 0.000657037 0)
(-0.0154685 0.000668014 0)
(-0.0164301 0.000675554 0)
(-0.0173945 0.000679271 0)
(-0.0183558 0.000678789 0)
(-0.0193077 0.000673748 0)
(-0.0202433 0.000663808 0)
(-0.0211554 0.000648662 0)
(-0.0220367 0.000628039 0)
(-0.0228793 0.000601711 0)
(-0.0236754 0.000569503 0)
(-0.0244169 0.0005313 0)
(-0.0250958 0.000487051 0)
(-0.0257043 0.000436778 0)
(-0.0262344 0.000380579 0)
(-0.0266789 0.000318633 0)
(-0.0270305 0.000251207 0)
(-0.0272827 0.000178653 0)
(-0.0274296 0.000101395 0)
(-0.0274661 1.99517e-05 0)
(-0.0273875 -6.4866e-05 0)
(-0.0271903 -0.000152531 0)
(-0.0268721 -0.000242248 0)
(-0.0264315 -0.000333138 0)
(-0.0258682 -0.000424274 0)
(-0.0251833 -0.00051468 0)
(-0.0243788 -0.000603338 0)
(-0.0234585 -0.000689206 0)
(-0.022427 -0.000771233 0)
(-0.0212905 -0.000848375 0)
(-0.0200564 -0.000919617 0)
(-0.0187332 -0.00098399 0)
(-0.0173307 -0.00104059 0)
(-0.0158595 -0.0010886 0)
(-0.0143314 -0.00112732 0)
(-0.0127587 -0.00115615 0)
(-0.0111546 -0.00117465 0)
(-0.00953237 -0.00118253 0)
(-0.00790593 -0.00117965 0)
(-0.00628906 -0.00116606 0)
(-0.00469543 -0.00114198 0)
(-0.00313836 -0.00110779 0)
(-0.00163064 -0.00106404 0)
(-0.000184319 -0.00101146 0)
(0.00118949 -0.000950874 0)
(0.00248077 -0.000883272 0)
(0.00368071 -0.000809725 0)
(0.00478187 -0.000731381 0)
(0.00577822 -0.000649438 0)
(0.00666526 -0.000565115 0)
(0.00743999 -0.000479621 0)
(0.0081009 -0.000394131 0)
(0.00864801 -0.000309762 0)
(0.00908268 -0.000227546 0)
(0.00940761 -0.000148411 0)
(0.00962668 -7.31707e-05 0)
(0.00974482 -2.50575e-06 0)
(0.00976782 6.30398e-05 0)
(0.0097022 0.000123062 0)
(0.00955505 0.000177295 0)
(0.0093338 0.000225606 0)
(0.00904612 0.000267987 0)
(0.00869973 0.000304543 0)
(0.00830225 0.000335472 0)
(0.00786112 0.000361051 0)
(0.00738349 0.000381613 0)
(0.00687613 0.000397518 0)
(0.00634544 0.000409129 0)
(0.00579745 0.000416777 0)
(0.00523785 0.000420725 0)
(0.00467213 0.000421125 0)
(0.00410569 0.000417975 0)
(0.00354411 0.000411068 0)
(0.00299335 0.000399937 0)
(0.00246008 0.00038381 0)
(0.00195204 0.000361565 0)
(0.00147832 0.000331723 0)
(0.00104959 0.000292518 0)
(0.000678109 0.000242171 0)
(0.000376976 0.00017966 0)
(0.000158183 0.000106369 0)
(3.04473e-05 2.99907e-05 0)
(-4.91278e-06 -2.28257e-05 0)
(1.29956e-05 -4.08534e-05 0)
(7.04987e-05 -0.000119289 0)
(0.000176004 -0.000175292 0)
(0.000305173 -0.000206265 0)
(0.000442661 -0.00021598 0)
(0.000577558 -0.00020928 0)
(0.000700985 -0.000190654 0)
(0.000806219 -0.000163821 0)
(0.00088851 -0.000131645 0)
(0.000944645 -9.62083e-05 0)
(0.000972547 -5.89512e-05 0)
(0.000970921 -2.07981e-05 0)
(0.000938986 1.77274e-05 0)
(0.000876236 5.63851e-05 0)
(0.000782263 9.51522e-05 0)
(0.000656643 0.000134152 0)
(0.000498846 0.000173599 0)
(0.000308188 0.000213757 0)
(8.3802e-05 0.00025491 0)
(-0.00017537 0.000297338 0)
(-0.000470567 0.000341302 0)
(-0.000803193 0.000387037 0)
(-0.00117479 0.000434739 0)
(-0.00158702 0.00048457 0)
(-0.00204162 0.000536651 0)
(-0.00254037 0.000591065 0)
(-0.00308509 0.00064785 0)
(-0.00367755 0.000707008 0)
(-0.00431948 0.000768498 0)
(-0.00501253 0.00083223 0)
(-0.0057582 0.000898071 0)
(-0.00655783 0.000965836 0)
(-0.00741253 0.00103528 0)
(-0.00832315 0.00110611 0)
(-0.00929025 0.00117796 0)
(-0.010314 0.00125041 0)
(-0.0113941 0.00132294 0)
(-0.0125299 0.00139501 0)
(-0.0137202 0.00146597 0)
(-0.0149632 0.00153511 0)
(-0.0162564 0.00160167 0)
(-0.0175967 0.00166479 0)
(-0.0189805 0.0017236 0)
(-0.0204031 0.00177714 0)
(-0.0218594 0.00182443 0)
(-0.0233432 0.00186447 0)
(-0.024848 0.00189621 0)
(-0.026366 0.00191862 0)
(-0.0278891 0.00193069 0)
(-0.0294083 0.00193142 0)
(-0.030914 0.00191986 0)
(-0.032396 0.00189513 0)
(-0.0338436 0.00185642 0)
(-0.0352456 0.00180302 0)
(-0.0365905 0.00173436 0)
(-0.0378666 0.00164998 0)
(-0.0390622 0.00154958 0)
(-0.0401653 0.00143305 0)
(-0.0411644 0.00130042 0)
(-0.042048 0.00115196 0)
(-0.0428052 0.000988115 0)
(-0.0434256 0.000809548 0)
(-0.0438997 0.000617146 0)
(-0.0442186 0.000412009 0)
(-0.0443745 0.000195433 0)
(-0.0443608 -3.10818e-05 0)
(-0.044172 -0.000265555 0)
(-0.0438042 -0.000506244 0)
(-0.0432549 -0.000751042 0)
(-0.0425229 -0.000997663 0)
(-0.0416091 -0.0012437 0)
(-0.0405158 -0.00148664 0)
(-0.039247 -0.0017239 0)
(-0.0378087 -0.00195285 0)
(-0.0362084 -0.00217086 0)
(-0.0344554 -0.00237536 0)
(-0.0325608 -0.00256384 0)
(-0.0305371 -0.00273392 0)
(-0.0283983 -0.0028834 0)
(-0.0261599 -0.00301029 0)
(-0.0238384 -0.00311288 0)
(-0.0214516 -0.00318972 0)
(-0.0190177 -0.00323974 0)
(-0.0165559 -0.00326221 0)
(-0.0140856 -0.0032568 0)
(-0.0116262 -0.00322359 0)
(-0.0091972 -0.00316308 0)
(-0.00681751 -0.00307617 0)
(-0.00450542 -0.00296419 0)
(-0.0022783 -0.00282882 0)
(-0.00015233 -0.00267213 0)
(0.00185768 -0.00249647 0)
(0.00373855 -0.00230446 0)
(0.00547883 -0.00209894 0)
(0.007069 -0.0018829 0)
(0.00850155 -0.00165937 0)
(0.00977104 -0.00143145 0)
(0.0108741 -0.00120214 0)
(0.0118095 -0.000974368 0)
(0.012578 -0.000750852 0)
(0.0131821 -0.000534105 0)
(0.0136262 -0.000326363 0)
(0.0139165 -0.000129559 0)
(0.0140603 5.47036e-05 0)
(0.0140661 0.000225165 0)
(0.0139435 0.000380915 0)
(0.0137029 0.000521384 0)
(0.013355 0.000646323 0)
(0.0129109 0.00075578 0)
(0.0123818 0.000850064 0)
(0.0117786 0.000929694 0)
(0.0111122 0.00099535 0)
(0.010393 0.0010478 0)
(0.00963118 0.00108784 0)
(0.00883624 0.00111618 0)
(0.0080175 0.0011334 0)
(0.007184 0.0011398 0)
(0.00634473 0.0011353 0)
(0.00550887 0.00111938 0)
(0.00468615 0.00109091 0)
(0.00388713 0.00104809 0)
(0.00312358 0.000988459 0)
(0.00240877 0.000908955 0)
(0.00175757 0.000806226 0)
(0.0011863 0.000677415 0)
(0.000711556 0.000521811 0)
(0.000347934 0.000343776 0)
(0.000108967 0.000158401 0)
(1.12113e-05 7.99625e-06 0)
(1.6561e-05 -8.37977e-05 0)
(8.55103e-05 -0.000216127 0)
(0.000207184 -0.00030456 0)
(0.000351435 -0.000351149 0)
(0.000500333 -0.000362595 0)
(0.00064167 -0.000346482 0)
(0.000765471 -0.00030986 0)
(0.000864035 -0.000258687 0)
(0.000931749 -0.000197665 0)
(0.000964653 -0.00013031 0)
(0.000960017 -5.9107e-05 0)
(0.000915991 1.43093e-05 0)
(0.00083128 8.89818e-05 0)
(0.000704904 0.000164455 0)
(0.00053601 0.000240657 0)
(0.000323718 0.000317774 0)
(6.70277e-05 0.000396163 0)
(-0.00023524 0.000476275 0)
(-0.000584476 0.000558598 0)
(-0.000982286 0.000643616 0)
(-0.00143048 0.000731781 0)
(-0.00193107 0.000823494 0)
(-0.00248618 0.000919086 0)
(-0.00309808 0.00101882 0)
(-0.0037691 0.00112288 0)
(-0.00450158 0.00123138 0)
(-0.00529787 0.00134432 0)
(-0.00616022 0.00146166 0)
(-0.00709077 0.00158326 0)
(-0.00809147 0.00170886 0)
(-0.00916408 0.00183813 0)
(-0.01031 0.00197064 0)
(-0.0115304 0.00210585 0)
(-0.0128258 0.00224308 0)
(-0.0141966 0.00238155 0)
(-0.0156422 0.00252035 0)
(-0.0171619 0.00265844 0)
(-0.0187538 0.00279464 0)
(-0.0204156 0.00292766 0)
(-0.022144 0.00305608 0)
(-0.0239351 0.00317834 0)
(-0.0257839 0.00329282 0)
(-0.0276843 0.00339778 0)
(-0.0296297 0.0034914 0)
(-0.0316121 0.00357182 0)
(-0.0336229 0.00363716 0)
(-0.0356521 0.00368551 0)
(-0.0376893 0.003715 0)
(-0.0397228 0.00372382 0)
(-0.0417405 0.00371021 0)
(-0.0437292 0.00367257 0)
(-0.0456754 0.00360941 0)
(-0.047565 0.00351945 0)
(-0.0493834 0.00340161 0)
(-0.051116 0.00325505 0)
(-0.0527479 0.0030792 0)
(-0.0542643 0.0028738 0)
(-0.0556507 0.00263888 0)
(-0.056893 0.00237485 0)
(-0.0579776 0.00208242 0)
(-0.0588916 0.00176273 0)
(-0.059623 0.00141722 0)
(-0.0601609 0.00104777 0)
(-0.0604954 0.000656603 0)
(-0.0606184 0.000246303 0)
(-0.0605226 -0.00018026 0)
(-0.0602026 -0.000619813 0)
(-0.0596551 -0.00106873 0)
(-0.0588779 -0.00152321 0)
(-0.0578711 -0.00197917 0)
(-0.0566367 -0.00243236 0)
(-0.0551784 -0.00287836 0)
(-0.0535022 -0.00331266 0)
(-0.051616 -0.00373071 0)
(-0.0495295 -0.00412799 0)
(-0.0472547 -0.00450005 0)
(-0.0448051 -0.00484264 0)
(-0.0421961 -0.00515169 0)
(-0.0394448 -0.00542347 0)
(-0.0365698 -0.0056546 0)
(-0.033591 -0.00584215 0)
(-0.0305294 -0.00598368 0)
(-0.0274072 -0.00607733 0)
(-0.024247 -0.00612184 0)
(-0.021072 -0.00611659 0)
(-0.0179055 -0.00606167 0)
(-0.014771 -0.00595785 0)
(-0.0116911 -0.00580659 0)
(-0.00868828 -0.00561006 0)
(-0.00578368 -0.00537106 0)
(-0.00299738 -0.00509302 0)
(-0.000347925 -0.00477991 0)
(0.00214787 -0.00443617 0)
(0.00447514 -0.00406665 0)
(0.00662116 -0.00367646 0)
(0.00857547 -0.00327091 0)
(0.01033 -0.00285539 0)
(0.0118792 -0.00243524 0)
(0.0132198 -0.00201567 0)
(0.0143511 -0.00160162 0)
(0.0152747 -0.00119771 0)
(0.0159945 -0.00080812 0)
(0.0165162 -0.000436539 0)
(0.0168477 -8.61107e-05 0)
(0.0169984 0.000240603 0)
(0.0169789 0.000541643 0)
(0.0168012 0.000815643 0)
(0.016478 0.00106181 0)
(0.0160227 0.0012799 0)
(0.0154488 0.00147012 0)
(0.0147702 0.00163311 0)
(0.0140007 0.00176978 0)
(0.0131536 0.00188127 0)
(0.0122423 0.00196876 0)
(0.0112794 0.00203335 0)
(0.0102776 0.0020759 0)
(0.00924927 0.00209685 0)
(0.00820659 0.00209605 0)
(0.00716213 0.00207258 0)
(0.00612893 0.0020246 0)
(0.0051209 0.00194926 0)
(0.00415306 0.00184275 0)
(0.00324187 0.00170047 0)
(0.00240521 0.00151766 0)
(0.00166229 0.0012906 0)
(0.0010325 0.00101888 0)
(0.000533365 0.000709078 0)
(0.000185912 0.000380887 0)
(2.66763e-05 8.29088e-05 0)
(1.78384e-05 -0.000132039 0)
(9.03186e-05 -0.000321646 0)
(0.000215122 -0.000441157 0)
(0.000358478 -0.000499398 0)
(0.000500686 -0.0005072 0)
(0.000628713 -0.000475427 0)
(0.000732035 -0.00041389 0)
(0.000802491 -0.000330848 0)
(0.000834039 -0.000232877 0)
(0.00082228 -0.000124947 0)
(0.000764037 -1.06119e-05 0)
(0.000656997 0.000107763 0)
(0.00049939 0.000228767 0)
(0.000289745 0.000351735 0)
(2.66961e-05 0.000476548 0)
(-0.000291169 0.000603473 0)
(-0.000665404 0.000733025 0)
(-0.00109776 0.00086586 0)
(-0.00159023 0.00100269 0)
(-0.00214502 0.00114422 0)
(-0.00276455 0.0012911 0)
(-0.00345143 0.00144391 0)
(-0.0042084 0.00160309 0)
(-0.00503829 0.001769 0)
(-0.00594397 0.00194184 0)
(-0.00692828 0.00212172 0)
(-0.00799397 0.00230856 0)
(-0.00914366 0.00250219 0)
(-0.0103797 0.00270227 0)
(-0.0117043 0.00290829 0)
(-0.0131191 0.0031196 0)
(-0.0146255 0.00333537 0)
(-0.0162243 0.0035546 0)
(-0.0179157 0.00377609 0)
(-0.0196992 0.00399843 0)
(-0.0215737 0.00422004 0)
(-0.0235371 0.00443911 0)
(-0.0255864 0.00465365 0)
(-0.0277178 0.00486147 0)
(-0.0299263 0.0050602 0)
(-0.0322059 0.00524731 0)
(-0.0345495 0.00542011 0)
(-0.0369488 0.00557582 0)
(-0.0393943 0.00571158 0)
(-0.0418756 0.00582446 0)
(-0.044381 0.00591153 0)
(-0.0468979 0.0059699 0)
(-0.0494125 0.00599678 0)
(-0.0519103 0.00598947 0)
(-0.054376 0.00594548 0)
(-0.0567936 0.00586253 0)
(-0.0591465 0.00573863 0)
(-0.0614179 0.00557209 0)
(-0.0635906 0.00536158 0)
(-0.0656474 0.0051062 0)
(-0.0675713 0.00480547 0)
(-0.0693455 0.00445937 0)
(-0.0709538 0.00406838 0)
(-0.0723807 0.00363351 0)
(-0.0736113 0.00315627 0)
(-0.0746318 0.00263872 0)
(-0.0754298 0.00208345 0)
(-0.0759939 0.00149358 0)
(-0.0763142 0.000872763 0)
(-0.0763827 0.000225132 0)
(-0.0761927 -0.000444838 0)
(-0.0757392 -0.00113202 0)
(-0.0750197 -0.00183097 0)
(-0.0740331 -0.00253592 0)
(-0.0727805 -0.0032408 0)
(-0.071265 -0.00393931 0)
(-0.069492 -0.00462496 0)
(-0.0674687 -0.00529116 0)
(-0.0652046 -0.00593132 0)
(-0.062711 -0.00653889 0)
(-0.0600015 -0.00710748 0)
(-0.0570914 -0.00763094 0)
(-0.0539979 -0.00810347 0)
(-0.05074 -0.00851967 0)
(-0.0473383 -0.00887469 0)
(-0.0438146 -0.0091643 0)
(-0.0401923 -0.00938497 0)
(-0.0364955 -0.00953395 0)
(-0.0327493 -0.00960936 0)
(-0.0289794 -0.00961021 0)
(-0.0252117 -0.0095365 0)
(-0.021472 -0.00938918 0)
(-0.0177861 -0.00917023 0)
(-0.0141791 -0.00888258 0)
(-0.0106751 -0.00853014 0)
(-0.00729724 -0.00811768 0)
(-0.00406712 -0.00765082 0)
(-0.00100458 -0.00713587 0)
(0.00187248 -0.00657977 0)
(0.00454834 -0.00598992 0)
(0.0070097 -0.00537405 0)
(0.00924576 -0.00474009 0)
(0.0112484 -0.00409596 0)
(0.013012 -0.00344947 0)
(0.014534 -0.00280813 0)
(0.0158141 -0.00217902 0)
(0.0168548 -0.00156867 0)
(0.017661 -0.000982929 0)
(0.0182398 -0.000426905 0)
(0.0186004 9.51258e-05 0)
(0.0187537 0.000579745 0)
(0.0187122 0.00102441 0)
(0.0184895 0.00142742 0)
(0.0181004 0.0017879 0)
(0.0175602 0.0021057 0)
(0.0168845 0.00238128 0)
(0.0160894 0.00261563 0)
(0.0151908 0.00281004 0)
(0.0142045 0.00296597 0)
(0.0131461 0.0030848 0)
(0.0120311 0.00316761 0)
(0.0108746 0.00321494 0)
(0.009692 0.00322653 0)
(0.00849881 0.00320109 0)
(0.007311 0.00313613 0)
(0.00614531 0.00302785 0)
(0.00501951 0.00287122 0)
(0.00395263 0.0026603 0)
(0.00296503 0.00238905 0)
(0.00207849 0.00205278 0)
(0.00131527 0.00165069 0)
(0.000696662 0.00118961 0)
(0.000252433 0.000689594 0)
(3.93937e-05 0.000197013 0)
(1.75157e-05 -0.000180631 0)
(8.69603e-05 -0.00042573 0)
(0.000203244 -0.000571924 0)
(0.000331336 -0.000635695 0)
(0.000450692 -0.00063281 0)
(0.000547866 -0.000577864 0)
(0.00061218 -0.000483613 0)
(0.00063539 -0.000360658 0)
(0.000611338 -0.000217419 0)
(0.000535438 -6.02705e-05 0)
(0.000404244 0.00010622 0)
(0.000215086 0.000279004 0)
(-3.42269e-05 0.000456271 0)
(-0.000345652 0.000637177 0)
(-0.000721097 0.000821592 0)
(-0.00116256 0.00100989 0)
(-0.00167219 0.00120277 0)
(-0.0022524 0.00140111 0)
(-0.00290581 0.00160585 0)
(-0.00363527 0.00181793 0)
(-0.00444385 0.00203818 0)
(-0.00533477 0.00226733 0)
(-0.00631135 0.00250593 0)
(-0.00737696 0.00275438 0)
(-0.00853495 0.00301285 0)
(-0.00978856 0.00328136 0)
(-0.0111409 0.00355969 0)
(-0.0125947 0.00384743 0)
(-0.0141526 0.00414392 0)
(-0.0158165 0.00444828 0)
(-0.0175882 0.00475939 0)
(-0.0194684 0.00507587 0)
(-0.0214576 0.00539606 0)
(-0.0235551 0.00571805 0)
(-0.0257597 0.00603963 0)
(-0.0280689 0.00635829 0)
(-0.0304794 0.00667126 0)
(-0.0329867 0.00697551 0)
(-0.035585 0.00726772 0)
(-0.0382674 0.00754437 0)
(-0.0410256 0.00780172 0)
(-0.0438503 0.00803588 0)
(-0.0467305 0.00824285 0)
(-0.0496542 0.00841853 0)
(-0.0526082 0.00855885 0)
(-0.055578 0.00865977 0)
(-0.0585482 0.00871736 0)
(-0.0615022 0.00872787 0)
(-0.0644228 0.00868782 0)
(-0.067292 0.00859401 0)
(-0.0700914 0.00844363 0)
(-0.0728021 0.00823429 0)
(-0.075405 0.00796413 0)
(-0.0778812 0.00763179 0)
(-0.0802119 0.00723651 0)
(-0.0823786 0.00677817 0)
(-0.0843635 0.00625728 0)
(-0.0861495 0.00567503 0)
(-0.0877205 0.00503331 0)
(-0.0890614 0.0043347 0)
(-0.0901583 0.00358246 0)
(-0.0909988 0.00278054 0)
(-0.0915718 0.00193354 0)
(-0.0918682 0.00104669 0)
(-0.0918803 0.000125842 0)
(-0.0916023 -0.000822364 0)
(-0.0910299 -0.00179124 0)
(-0.0901615 -0.00277336 0)
(-0.0889969 -0.00376088 0)
(-0.0875383 -0.00474567 0)
(-0.0857897 -0.00571931 0)
(-0.0837573 -0.00667323 0)
(-0.0814493 -0.00759873 0)
(-0.0788761 -0.00848714 0)
(-0.07605 -0.00932989 0)
(-0.0729853 -0.0101186 0)
(-0.0696984 -0.0108452 0)
(-0.0662073 -0.0115022 0)
(-0.0625321 -0.0120823 0)
(-0.0586943 -0.0125794 0)
(-0.0547168 -0.0129876 0)
(-0.0506242 -0.0133024 0)
(-0.0464419 -0.01352 0)
(-0.0421964 -0.0136377 0)
(-0.0379148 -0.0136541 0)
(-0.0336249 -0.013569 0)
(-0.0293544 -0.0133834 0)
(-0.025131 -0.0130995 0)
(-0.0209819 -0.0127211 0)
(-0.0169338 -0.0122529 0)
(-0.0130121 -0.011701 0)
(-0.00924115 -0.0110726 0)
(-0.00564339 -0.0103758 0)
(-0.00223957 -0.00961961 0)
(0.000951791 -0.00881373 0)
(0.00391454 -0.00796837 0)
(0.00663511 -0.00709409 0)
(0.0091026 -0.00620156 0)
(0.011309 -0.00530135 0)
(0.0132491 -0.00440378 0)
(0.0149205 -0.00351867 0)
(0.0163238 -0.00265521 0)
(0.0174623 -0.00182176 0)
(0.0183417 -0.00102575 0)
(0.0189703 -0.000273558 0)
(0.0193583 0.00042955 0)
(0.0195182 0.00107945 0)
(0.0194637 0.00167318 0)
(0.0192101 0.00220884 0)
(0.0187737 0.00268556 0)
(0.0181715 0.00310338 0)
(0.017421 0.00346301 0)
(0.0165401 0.0037657 0)
(0.0155466 0.00401298 0)
(0.0144586 0.00420634 0)
(0.013294 0.00434698 0)
(0.0120705 0.00443547 0)
(0.0108061 0.00447142 0)
(0.00951905 0.00445322 0)
(0.00822781 0.00437779 0)
(0.00695168 0.00424049 0)
(0.00571083 0.00403521 0)
(0.00452657 0.00375478 0)
(0.00342157 0.00339182 0)
(0.00242019 0.00294027 0)
(0.00154788 0.00239787 0)
(0.000830243 0.00176951 0)
(0.000305731 0.00107187 0)
(4.90844e-05 0.000343261 0)
(1.60578e-05 -0.000225691 0)
(7.7106e-05 -0.000519488 0)
(0.000174737 -0.000684778 0)
(0.00027476 -0.000745802 0)
(0.00035673 -0.000723641 0)
(0.000407237 -0.000636881 0)
(0.000415814 -0.000501332 0)
(0.000374442 -0.000329929 0)
(0.000277101 -0.000132857 0)
(0.000119223 8.22107e-05 0)
(-0.000102764 0.000309799 0)
(-0.00039178 0.000546286 0)
(-0.000750389 0.000789551 0)
(-0.00118102 0.00103864 0)
(-0.00168613 0.00129348 0)
(-0.00226833 0.00155459 0)
(-0.00293044 0.00182288 0)
(-0.00367552 0.00209948 0)
(-0.00450688 0.00238556 0)
(-0.00542807 0.00268226 0)
(-0.00644279 0.00299059 0)
(-0.00755487 0.00331139 0)
(-0.0087682 0.00364527 0)
(-0.0100866 0.00399258 0)
(-0.0115139 0.00435342 0)
(-0.0130536 0.00472762 0)
(-0.014709 0.0051147 0)
(-0.0164831 0.00551388 0)
(-0.0183781 0.00592407 0)
(-0.020396 0.00634385 0)
(-0.022538 0.00677146 0)
(-0.0248043 0.00720478 0)
(-0.0271946 0.00764133 0)
(-0.0297073 0.00807823 0)
(-0.0323398 0.00851226 0)
(-0.0350884 0.00893981 0)
(-0.037948 0.00935691 0)
(-0.0409122 0.00975925 0)
(-0.0439734 0.0101422 0)
(-0.0471223 0.0105009 0)
(-0.0503485 0.0108303 0)
(-0.0536398 0.0111251 0)
(-0.0569829 0.0113799 0)
(-0.0603632 0.0115895 0)
(-0.0637647 0.0117484 0)
(-0.0671704 0.0118517 0)
(-0.0705622 0.0118943 0)
(-0.0739213 0.0118716 0)
(-0.0772281 0.0117796 0)
(-0.0804624 0.0116144 0)
(-0.083604 0.0113729 0)
(-0.0866324 0.0110526 0)
(-0.0895271 0.0106517 0)
(-0.0922679 0.010169 0)
(-0.0948353 0.00960417 0)
(-0.0972102 0.00895777 0)
(-0.0993744 0.00823108 0)
(-0.101311 0.00742626 0)
(-0.103003 0.00654631 0)
(-0.104437 0.00559508 0)
(-0.105598 0.00457724 0)
(-0.106476 0.00349824 0)
(-0.107059 0.00236433 0)
(-0.107339 0.00118241 0)
(-0.107309 -3.98409e-05 0)
(-0.106965 -0.00129389 0)
(-0.106302 -0.00257118 0)
(-0.10532 -0.00386231 0)
(-0.104019 -0.00515744 0)
(-0.102402 -0.0064464 0)
(-0.100473 -0.00771873 0)
(-0.0982395 -0.00896379 0)
(-0.095709 -0.0101709 0)
(-0.0928927 -0.0113292 0)
(-0.089803 -0.0124283 0)
(-0.0864545 -0.0134578 0)
(-0.0828637 -0.0144077 0)
(-0.0790488 -0.0152686 0)
(-0.0750302 -0.0160317 0)
(-0.0708296 -0.0166891 0)
(-0.0664704 -0.0172336 0)
(-0.0619776 -0.0176592 0)
(-0.0573774 -0.0179611 0)
(-0.052697 -0.0181358 0)
(-0.0479647 -0.0181812 0)
(-0.0432092 -0.0180965 0)
(-0.0384597 -0.0178827 0)
(-0.0337455 -0.0175424 0)
(-0.0290958 -0.0170795 0)
(-0.0245391 -0.0164997 0)
(-0.0201032 -0.0158101 0)
(-0.0158146 -0.0150193 0)
(-0.0116985 -0.0141372 0)
(-0.0077782 -0.0131748 0)
(-0.00407508 -0.0121439 0)
(-0.000608084 -0.0110572 0)
(0.00260635 -0.00992804 0)
(0.00555452 -0.00876976 0)
(0.0082256 -0.00759589 0)
(0.0106118 -0.00641966 0)
(0.0127082 -0.00525388 0)
(0.014513 -0.0041106 0)
(0.0160276 -0.00300098 0)
(0.0172557 -0.00193511 0)
(0.0182043 -0.000921795 0)
(0.0188825 3.14744e-05 0)
(0.0193018 0.000918626 0)
(0.0194757 0.00173502 0)
(0.0194194 0.00247739 0)
(0.0191496 0.00314378 0)
(0.018684 0.00373341 0)
(0.0180412 0.00424644 0)
(0.0172404 0.00468379 0)
(0.0163012 0.00504678 0)
(0.0152434 0.00533685 0)
(0.0140871 0.00555515 0)
(0.0128523 0.00570219 0)
(0.0115593 0.00577741 0)
(0.0102286 0.00577888 0)
(0.00888114 0.005703 0)
(0.00753836 0.00554437 0)
(0.00622269 0.0052959 0)
(0.0049576 0.00494916 0)
(0.00376811 0.00449523 0)
(0.00268124 0.00392616 0)
(0.00172579 0.00323707 0)
(0.000931797 0.00242898 0)
(0.000345497 0.00151237 0)
(5.59945e-05 0.000514077 0)
(1.37632e-05 -0.000264188 0)
(6.20003e-05 -0.000595344 0)
(0.000132204 -0.000768978 0)
(0.000192768 -0.000816795 0)
(0.000224227 -0.000765238 0)
(0.00021369 -0.000636945 0)
(0.000151265 -0.00045077 0)
(2.94491e-05 -0.0002219 0)
(-0.000157416 3.78421e-05 0)
(-0.000413713 0.000319639 0)
(-0.000743008 0.000617267 0)
(-0.00114839 0.000926676 0)
(-0.00163276 0.00124556 0)
(-0.00219898 0.00157297 0)
(-0.00285008 0.00190895 0)
(-0.00358931 0.00225425 0)
(-0.00442015 0.00261001 0)
(-0.00534639 0.00297761 0)
(-0.00637204 0.00335847 0)
(-0.00750133 0.00375391 0)
(-0.00873861 0.00416506 0)
(-0.0100883 0.00459283 0)
(-0.0115548 0.00503779 0)
(-0.0131425 0.00550021 0)
(-0.0148553 0.00597998 0)
(-0.0166971 0.00647662 0)
(-0.0186711 0.00698927 0)
(-0.0207803 0.00751665 0)
(-0.0230268 0.00805705 0)
(-0.0254121 0.00860834 0)
(-0.0279366 0.00916794 0)
(-0.0305999 0.00973278 0)
(-0.0334005 0.0102993 0)
(-0.0363356 0.0108636 0)
(-0.0394013 0.011421 0)
(-0.042592 0.0119668 0)
(-0.0459008 0.0124955 0)
(-0.0493194 0.0130013 0)
(-0.0528378 0.0134783 0)
(-0.0564445 0.0139199 0)
(-0.0601265 0.0143196 0)
(-0.0638694 0.0146709 0)
(-0.0676572 0.0149668 0)
(-0.0714727 0.0152009 0)
(-0.0752977 0.0153667 0)
(-0.0791127 0.0154579 0)
(-0.0828976 0.0154689 0)
(-0.0866316 0.0153944 0)
(-0.0902932 0.0152297 0)
(-0.0938609 0.0149708 0)
(-0.0973131 0.0146144 0)
(-0.100628 0.0141582 0)
(-0.103785 0.0136006 0)
(-0.106764 0.012941 0)
(-0.109544 0.0121798 0)
(-0.112106 0.0113184 0)
(-0.114433 0.010359 0)
(-0.116507 0.00930499 0)
(-0.118314 0.00816066 0)
(-0.119839 0.00693125 0)
(-0.121069 0.00562291 0)
(-0.121994 0.0042427 0)
(-0.122603 0.00279847 0)
(-0.122889 0.00129893 0)
(-0.122845 -0.000246531 0)
(-0.122467 -0.0018279 0)
(-0.121752 -0.00343441 0)
(-0.120699 -0.00505482 0)
(-0.11931 -0.00667745 0)
(-0.117585 -0.0082902 0)
(-0.115531 -0.00988068 0)
(-0.113153 -0.0114363 0)
(-0.11046 -0.0129443 0)
(-0.107462 -0.0143921 0)
(-0.104171 -0.0157671 0)
(-0.100602 -0.0170571 0)
(-0.0967697 -0.0182502 0)
(-0.0926928 -0.019335 0)
(-0.0883912 -0.0203011 0)
(-0.0838863 -0.0211388 0)
(-0.0792016 -0.0218393 0)
(-0.0743621 -0.0223953 0)
(-0.0693941 -0.0228005 0)
(-0.0643254 -0.0230505 0)
(-0.0591849 -0.0231421 0)
(-0.0540023 -0.0230741 0)
(-0.0488079 -0.0228472 0)
(-0.0436326 -0.0224636 0)
(-0.0385069 -0.0219277 0)
(-0.0334614 -0.0212458 0)
(-0.0285261 -0.0204258 0)
(-0.0237297 -0.0194775 0)
(-0.0191 -0.0184123 0)
(-0.0146631 -0.0172431 0)
(-0.010443 -0.015984 0)
(-0.00646155 -0.0146499 0)
(-0.00273819 -0.0132568 0)
(0.000710452 -0.0118209 0)
(0.00387065 -0.0103586 0)
(0.00673171 -0.00888638 0)
(0.00928611 -0.00742 0)
(0.0115295 -0.00597464 0)
(0.0134607 -0.00456451 0)
(0.0150817 -0.00320258 0)
(0.0163973 -0.00190043 0)
(0.0174153 -0.000668095 0)
(0.018146 0.000486047 0)
(0.0186021 0.0015553 0)
(0.0187982 0.00253467 0)
(0.0187509 0.00342074 0)
(0.0184783 0.00421153 0)
(0.0179995 0.00490634 0)
(0.0173348 0.00550541 0)
(0.016505 0.00600962 0)
(0.0155314 0.00642009 0)
(0.0144359 0.00673775 0)
(0.0132404 0.00696292 0)
(0.0119673 0.00709481 0)
(0.010639 0.00713114 0)
(0.00927867 0.00706781 0)
(0.00790991 0.00689869 0)
(0.00655721 0.0066157 0)
(0.00524622 0.00620908 0)
(0.00400428 0.00566812 0)
(0.00286113 0.00498237 0)
(0.00184892 0.00414339 0)
(0.00100182 0.00314689 0)
(0.000372463 0.0019953 0)
(6.04788e-05 0.000702253 0)
(1.08125e-05 -0.000293682 0)
(4.25082e-05 -0.00064685 0)
(7.76146e-05 -0.000815081 0)
(8.85325e-05 -0.000837088 0)
(5.75791e-05 -0.0007445 0)
(-2.71489e-05 -0.000563892 0)
(-0.000174592 -0.000317028 0)
(-0.000391455 -2.1187e-05 0)
(-0.000682828 0.000310362 0)
(-0.00105276 0.000667861 0)
(-0.00150469 0.00104454 0)
(-0.00204183 0.00143609 0)
(-0.00266734 0.0018402 0)
(-0.00338456 0.00225603 0)
(-0.00419706 0.00268387 0)
(-0.00510873 0.00312473 0)
(-0.00612377 0.00358004 0)
(-0.00724669 0.00405145 0)
(-0.00848221 0.00454058 0)
(-0.00983525 0.00504892 0)
(-0.0113108 0.00557767 0)
(-0.0129138 0.00612772 0)
(-0.0146492 0.00669954 0)
(-0.0165216 0.00729316 0)
(-0.0185352 0.00790817 0)
(-0.020694 0.00854364 0)
(-0.0230012 0.00919816 0)
(-0.0254594 0.00986978 0)
(-0.0280703 0.010556 0)
(-0.0308348 0.0112538 0)
(-0.0337524 0.0119595 0)
(-0.0368218 0.012669 0)
(-0.04004 0.0133774 0)
(-0.043403 0.0140793 0)
(-0.0469049 0.0147689 0)
(-0.0505384 0.0154397 0)
(-0.0542947 0.0160847 0)
(-0.058163 0.0166967 0)
(-0.0621312 0.0172678 0)
(-0.0661855 0.0177901 0)
(-0.0703103 0.0182556 0)
(-0.0744889 0.0186562 0)
(-0.0787029 0.0189838 0)
(-0.0829331 0.0192305 0)
(-0.087159 0.019389 0)
(-0.0913593 0.0194522 0)
(-0.0955121 0.0194138 0)
(-0.0995951 0.0192679 0)
(-0.103586 0.0190097 0)
(-0.107462 0.0186351 0)
(-0.111201 0.0181412 0)
(-0.114781 0.0175258 0)
(-0.118182 0.0167881 0)
(-0.121381 0.0159282 0)
(-0.124361 0.0149474 0)
(-0.127102 0.0138481 0)
(-0.129588 0.0126337 0)
(-0.131802 0.0113089 0)
(-0.133729 0.00987928 0)
(-0.135356 0.00835157 0)