/*--------------------------------*- C++ -*----------------------------------*\
| =========                 |                                                 |
| \\      /  F ield         | OpenFOAM: The Open Source CFD Toolbox           |
|  \\    /   O peration     | Version:  2112                                  |
|   \\  /    A nd           | Website:  www.openfoam.com                      |
|    \\/     M anipulation  |                                                 |
\*---------------------------------------------------------------------------*/
FoamFile
{
    version     2.0;
    format      ascii;
    arch        "LSB;label=32;scalar=64";
    class       volScalarField;
    location    "1";
    object      p;
}
// * * * * * * * * * * * * * * * * * * * * * * * * * * * * * * * * * * * * * //

dimensions      [0 2 -2 0 0 0 0];

internalField   nonuniform List<scalar> 
16641
(
-9.99842e-10
-1.912e-06
-5.63986e-06
-1.02798e-05
-1.49019e-05
-1.89712e-05
-2.21519e-05
-2.42789e-05
-2.52628e-05
-2.50523e-05
-2.36363e-05
-2.10388e-05
-1.72996e-05
-1.2454e-05
-6.52755e-06
4.60297e-07
8.49213e-06
1.7552e-05
2.76271e-05
3.87081e-05
5.07886e-05
6.38631e-05
7.79264e-05
9.29734e-05
0.000108999
0.000125999
0.000143967
0.0001629
0.000182792
0.000203635
0.000225425
0.000248155
0.000271818
0.000296405
0.000321909
0.00034832
0.00037563
0.000403828
0.000432906
0.00046285
0.00049365
0.000525294
0.000557767
0.000591057
0.00062515
0.000660029
0.000695681
0.000732087
0.00076923
0.000807093
0.000845656
0.000884901
0.000924805
0.000965349
0.00100651
0.00104826
0.00109059
0.00113346
0.00117685
0.00122073
0.00126508
0.00130986
0.00135506
0.00140063
0.00144655
0.00149279
0.00153931
0.00158608
0.00163307
0.00168024
0.00172756
0.00177499
0.00182248
0.00187002
0.00191754
0.00196503
0.00201243
0.0020597
0.00210681
0.00215371
0.00220037
0.00224673
0.00229275
0.0023384
0.00238362
0.00242838
0.00247263
0.00251632
0.00255942
0.00260187
0.00264363
0.00268466
0.00272492
0.00276436
0.00280293
0.0028406
0.00287733
0.00291306
0.00294777
0.0029814
0.00301392
0.00304529
0.00307548
0.00310444
0.00313214
0.00315855
0.00318363
0.00320734
0.00322966
0.00325056
0.00327
0.00328795
0.00330439
0.00331927
0.00333257
0.00334426
0.00335428
0.00336261
0.00336921
0.00337403
0.00337707
0.00337833
0.00337784
0.00337573
0.00337222
0.00336771
0.00336282
0.00335851
0.003356
1.99212e-06
8.18914e-08
-2.83731e-06
-6.29724e-06
-9.78058e-06
-1.28555e-05
-1.52227e-05
-1.67118e-05
-1.72241e-05
-1.66944e-05
-1.50834e-05
-1.23795e-05
-8.5918e-06
-3.73677e-06
2.1704e-06
9.11778e-06
1.70948e-05
2.6091e-05
3.60967e-05
4.71037e-05
5.91054e-05
7.20968e-05
8.60728e-05
0.000101029
0.000116959
0.000133859
0.000151724
0.000170549
0.000190328
0.000211055
0.000232724
0.000255329
0.000278861
0.000303314
0.00032868
0.000354949
0.000382112
0.00041016
0.000439081
0.000468866
0.000499503
0.000530979
0.000563281
0.000596395
0.000630308
0.000665004
0.000700468
0.000736683
0.000773632
0.000811296
0.000849658
0.000888696
0.000928392
0.000968723
0.00100967
0.0010512
0.0010933
0.00113595
0.00117911
0.00122276
0.00126687
0.00131142
0.00135638
0.00140171
0.00144739
0.00149338
0.00153965
0.00158617
0.00163291
0.00167983
0.00172689
0.00177406
0.0018213
0.00186857
0.00191584
0.00196306
0.0020102
0.00205722
0.00210406
0.00215071
0.0021971
0.0022432
0.00228896
0.00233435
0.00237932
0.00242382
0.00246782
0.00251126
0.0025541
0.00259631
0.00263783
0.00267862
0.00271864
0.00275784
0.00279618
0.00283363
0.00287013
0.00290565
0.00294014
0.00297356
0.00300588
0.00303706
0.00306705
0.00309583
0.00312335
0.00314959
0.0031745
0.00319805
0.00322022
0.00324097
0.00326028
0.0032781
0.00329442
0.0033092
0.00332242
0.00333405
0.00334406
0.00335242
0.00335913
0.00336417
0.00336755
0.00336931
0.00336954
0.00336836
0.00336602
0.00336283
0.0033593
0.00335599
0.00335349
5.85074e-06
3.08732e-06
1.48073e-07
-2.90252e-06
-5.86489e-06
-8.43026e-06
-1.03457e-05
-1.14503e-05
-1.16512e-05
-1.08898e-05
-9.12342e-06
-6.32544e-06
-2.48647e-06
2.39018e-06
8.29646e-06
1.52247e-05
2.31684e-05
3.21215e-05
4.20773e-05
5.30295e-05
6.49719e-05
7.78995e-05
9.18078e-05
0.000106692
0.000122548
0.00013937
0.000157154
0.000175894
0.000195586
0.000216222
0.000237797
0.000260305
0.000283737
0.000308086
0.000333345
0.000359504
0.000386555
0.000414488
0.000443291
0.000472955
0.000503468
0.000534817
0.00056699
0.000599973
0.000633752
0.000668312
0.000703637
0.00073971
0.000776515
0.000814034
0.000852247
0.000891135
0.000930679
0.000970855
0.00101164
0.00105302
0.00109496
0.00113745
0.00118044
0.00122393
0.00126788
0.00131226
0.00135705
0.00140221
0.00144772
0.00149354
0.00153964
0.00158599
0.00163255
0.00167929
0.00172618
0.00177317
0.00182024
0.00186734
0.00191443
0.00196148
0.00200844
0.00205528
0.00210196
0.00214843
0.00219465
0.00224057
0.00228617
0.00233139
0.00237619
0.00242052
0.00246435
0.00250763
0.00255032
0.00259236
0.00263372
0.00267436
0.00271423
0.00275328
0.00279148
0.00282878
0.00286514
0.00290052
0.00293488
0.00296817
0.00300036
0.00303142
0.00306129
0.00308995
0.00311736
0.00314349
0.0031683
0.00319176
0.00321383
0.0032345
0.00325372
0.00327147
0.00328773
0.00330246
0.00331564
0.00332725
0.00333727
0.00334568
0.00335249
0.00335769
0.00336131
0.00336341
0.00336406
0.00336341
0.00336165
0.00335905
0.00335598
0.00335268
0.00334918
1.06177e-05
6.62899e-06
3.2464e-06
1.81961e-07
-2.60987e-06
-4.93045e-06
-6.59573e-06
-7.4714e-06
-7.47079e-06
-6.54166e-06
-4.64872e-06
-1.76589e-06
2.12306e-06
7.02405e-06
1.29359e-05
1.98548e-05
2.77765e-05
3.66973e-05
4.6613e-05
5.75193e-05
6.94113e-05
8.22844e-05
9.61342e-05
0.000110957
0.000126747
0.000143502
0.000161215
0.000179882
0.000199496
0.000220054
0.000241547
0.000263971
0.000287317
0.000311577
0.000336745
0.000362811
0.000389766
0.000417601
0.000446306
0.000475868
0.000506277
0.000537521
0.000569587
0.000602461
0.00063613
0.000670577
0.000705789
0.000741747
0.000778436
0.000815837
0.000853931
0.000892699
0.000932122
0.000972177
0.00101284
0.0010541
0.00109591
0.00113827
0.00118114
0.0012245
0.00126833
0.00131258
0.00135724
0.00140228
0.00144765
0.00149335
0.00153932
0.00158554
0.00163198
0.00167859
0.00172536
0.00177222
0.00181916
0.00186614
0.00191311
0.00196003
0.00200687
0.00205359
0.00210015
0.0021465
0.0021926
0.00223841
0.00228389
0.002329
0.00237368
0.00241791
0.00246163
0.0025048
0.00254738
0.00258932
0.00263058
0.00267112
0.00271089
0.00274985
0.00278795
0.00282516
0.00286143
0.00289672
0.002931
0.00296421
0.00299632
0.0030273
0.0030571
0.00308569
0.00311303
0.0031391
0.00316384
0.00318724
0.00320927
0.00322988
0.00324906
0.00326677
0.00328299
0.0032977
0.00331088
0.00332249
0.00333254
0.00334102
0.00334791
0.00335324
0.00335704
0.00335936
0.00336027
0.0033599
0.00335839
0.00335596
0.00335289
0.00334912
0.00334428
1.53449e-05
1.01767e-05
6.24379e-06
2.98511e-06
1.82639e-07
-2.03475e-06
-3.55288e-06
-4.28101e-06
-4.14588e-06
-3.09852e-06
-1.10839e-06
1.84576e-06
5.77965e-06
1.07032e-05
1.66204e-05
2.35316e-05
3.14349e-05
4.03279e-05
5.02081e-05
6.10725e-05
7.29177e-05
8.57401e-05
9.95355e-05
0.0001143
0.00013003
0.000146721
0.000164368
0.000182966
0.00020251
0.000222993
0.000244411
0.000266757
0.000290023
0.000314203
0.000339287
0.000365268
0.000392136
0.000419883
0.000448497
0.000477968
0.000508285
0.000539435
0.000571406
0.000604184
0.000637755
0.000672104
0.000707217
0.000743076
0.000779664
0.000816964
0.000854956
0.000893623
0.000932943
0.000972895
0.00101346
0.00105461
0.00109632
0.00113858
0.00118135
0.00122461
0.00126833
0.00131248
0.00135704
0.00140197
0.00144725
0.00149285
0.00153872
0.00158485
0.00163119
0.00167771
0.00172437
0.00177115
0.001818
0.00186488
0.00191176
0.0019586
0.00200535
0.00205199
0.00209846
0.00214472
0.00219075
0.00223648
0.00228188
0.00232691
0.00237153
0.00241568
0.00245933
0.00250243
0.00254495
0.00258682
0.00262802
0.0026685
0.00270821
0.00274711
0.00278516
0.00282232
0.00285853
0.00289378
0.002928
0.00296117
0.00299324
0.00302417
0.00305393
0.00308248
0.00310979
0.00313582
0.00316053
0.0031839
0.0032059
0.00322649
0.00324565
0.00326334
0.00327956
0.00329427
0.00330745
0.00331909
0.00332918
0.00333771
0.00334469
0.00335012
0.00335405
0.00335652
0.00335759
0.00335737
0.00335595
0.00335351
0.00335024
0.00334589
0.00333974
1.95e-05
1.32901e-05
8.81719e-06
5.2911e-06
2.36493e-06
1.37397e-07
-1.3219e-06
-1.96695e-06
-1.74882e-06
-6.2633e-07
1.42835e-06
4.43342e-06
8.40198e-06
1.33437e-05
1.92647e-05
2.6168e-05
3.40541e-05
4.29221e-05
5.27706e-05
6.35974e-05
7.54001e-05
8.81759e-05
0.000101921
0.000116633
0.000132307
0.00014894
0.000166526
0.000185062
0.000204541
0.000224958
0.000246308
0.000268584
0.000291778
0.000315885
0.000340895
0.0003668
0.000393593
0.000421261
0.000449797
0.000479189
0.000509426
0.000540495
0.000572385
0.000605081
0.00063857
0.000672838
0.000707867
0.000743644
0.000780149
0.000817367
0.000855278
0.000893862
0.000933101
0.000972972
0.00101345
0.00105453
0.00109616
0.00113834
0.00118103
0.00122421
0.00126786
0.00131194
0.00135642
0.00140129
0.0014465
0.00149202
0.00153783
0.00158389
0.00163017
0.00167663
0.00172323
0.00176995
0.00181674
0.00186357
0.0019104
0.00195718
0.00200389
0.00205048
0.0020969
0.00214313
0.00218911
0.0022348
0.00228017
0.00232517
0.00236975
0.00241387
0.00245749
0.00250057
0.00254306
0.00258491
0.00262608
0.00266654
0.00270623
0.00274512
0.00278315
0.00282029
0.0028565
0.00289173
0.00292594
0.0029591
0.00299116
0.00302209
0.00305184
0.00308039
0.00310769
0.00313372
0.00315843
0.0031818
0.00320379
0.00322439
0.00324355
0.00326126
0.00327748
0.00329221
0.00330542
0.00331709
0.00332723
0.00333581
0.00334286
0.00334838
0.0033524
0.00335496
0.00335612
0.00335594
0.00335451
0.00335194
0.00334839
0.00334344
0.00333614
2.27372e-05
1.56577e-05
1.06983e-05
6.89739e-06
3.80204e-06
1.4938e-06
2.27378e-08
-5.95017e-07
-3.35477e-07
8.28916e-07
2.92079e-06
5.95609e-06
9.94601e-06
1.48988e-05
2.08205e-05
2.7715e-05
3.55844e-05
4.44292e-05
5.42487e-05
6.50416e-05
7.68061e-05
8.95399e-05
0.00010324
0.000117905
0.000133529
0.000150109
0.000167641
0.00018612
0.000205542
0.000225901
0.00024719
0.000269405
0.000292537
0.00031658
0.000341526
0.000367367
0.000394094
0.000421697
0.000450167
0.000479493
0.000509663
0.000540666
0.000572489
0.00060512
0.000638543
0.000672745
0.00070771
0.000743422
0.000779864
0.000817019
0.000854868
0.000893392
0.000932572
0.000972385
0.00101281
0.00105383
0.00109541
0.00113753
0.00118018
0.00122331
0.00126691
0.00131094
0.00135538
0.00140021
0.00144538
0.00149087
0.00153664
0.00158267
0.00162891
0.00167535
0.00172193
0.00176862
0.00181539
0.00186221
0.00190902
0.00195579
0.00200249
0.00204907
0.00209549
0.00214171
0.00218769
0.00223339
0.00227876
0.00232377
0.00236836
0.00241249
0.00245612
0.00249921
0.00254172
0.00258359
0.00262478
0.00266526
0.00270498
0.00274388
0.00278194
0.00281911
0.00285534
0.0028906
0.00292484
0.00295802
0.00299011
0.00302107
0.00305085
0.00307943
0.00310676
0.00313281
0.00315755
0.00318095
0.00320297
0.0032236
0.00324279
0.00326053
0.00327679
0.00329155
0.0033048
0.00331652
0.0033267
0.00333534
0.00334245
0.00334803
0.00335211
0.00335472
0.0033559
0.00335571
0.00335419
0.00335145
0.00334759
0.00334209
0.00333386
2.48752e-05
1.7094e-05
1.17099e-05
7.65109e-06
4.38239e-06
1.96582e-06
4.4079e-07
-1.91728e-07
7.51815e-08
1.25533e-06
3.36348e-06
6.41211e-06
1.04107e-05
1.53662e-05
2.12841e-05
2.81681e-05
3.60207e-05
4.48433e-05
5.46359e-05
6.53979e-05
7.7128e-05
8.98244e-05
0.000103485
0.000118106
0.000133686
0.00015022
0.000167705
0.000186135
0.000205507
0.000225814
0.000247052
0.000269214
0.000292293
0.000316283
0.000341176
0.000366963
0.000393636
0.000421186
0.000449602
0.000478875
0.000508992
0.000539944
0.000571716
0.000604296
0.00063767
0.000671824
0.000706742
0.000742408
0.000778806
0.000815918
0.000853726
0.000892211
0.000931353
0.000971131
0.00101152
0.00105251
0.00109406
0.00113616
0.00117878
0.00122189
0.00126547
0.00130949
0.00135392
0.00139873
0.00144389
0.00148937
0.00153515
0.00158118
0.00162743
0.00167387
0.00172046
0.00176717
0.00181395
0.00186079
0.00190762
0.00195442
0.00200115
0.00204776
0.00209422
0.00214048
0.0021865
0.00223224
0.00227765
0.0023227
0.00236734
0.00241153
0.00245522
0.00249836
0.00254093
0.00258286
0.00262411
0.00266465
0.00270443
0.0027434
0.00278152
0.00281875
0.00285505
0.00289037
0.00292468
0.00295793
0.00299008
0.0030211
0.00305095
0.00307958
0.00310697
0.00313309
0.00315789
0.00318134
0.00320342
0.0032241
0.00324334
0.00326114
0.00327745
0.00329226
0.00330557
0.00331734
0.00332757
0.00333627
0.00334343
0.00334905
0.00335317
0.0033558
0.00335697
0.00335673
0.0033551
0.00335216
0.003348
0.00334205
0.0033331
2.58075e-05
1.7484e-05
1.17425e-05
7.44776e-06
4.01351e-06
1.48392e-06
-1.13415e-07
-7.86534e-07
-5.37783e-07
6.36979e-07
2.74479e-06
5.79353e-06
9.79035e-06
1.4741e-05
2.06502e-05
2.75212e-05
3.53566e-05
4.41578e-05
5.39253e-05
6.46592e-05
7.63583e-05
8.90214e-05
0.000102646
0.000117231
0.000132771
0.000149266
0.000166709
0.000185098
0.000204427
0.000224691
0.000245886
0.000268004
0.00029104
0.000314987
0.000339837
0.000365581
0.000392213
0.000419721
0.000448097
0.00047733
0.00050741
0.000538324
0.00057006
0.000602606
0.000635947
0.00067007
0.000704959
0.000740599
0.000776972
0.000814061
0.000851849
0.000890316
0.000929443
0.000969208
0.00100959
0.00105057
0.00109212
0.00113422
0.00117684
0.00121995
0.00126354
0.00130757
0.00135202
0.00139685
0.00144204
0.00148755
0.00153335
0.00157941
0.0016257
0.00167218
0.00171882
0.00176558
0.00181242
0.00185931
0.0019062
0.00195307
0.00199986
0.00204654
0.00209307
0.00213941
0.00218551
0.00223134
0.00227684
0.00232198
0.00236671
0.00241099
0.00245477
0.00249802
0.00254067
0.00258271
0.00262406
0.0026647
0.00270458
0.00274366
0.00278189
0.00281922
0.00285562
0.00289105
0.00292545
0.00295881
0.00299106
0.00302218
0.00305212
0.00308085
0.00310833
0.00313453
0.00315942
0.00318296
0.00320512
0.00322588
0.0032452
0.00326307
0.00327945
0.00329434
0.0033077
0.00331954
0.00332984
0.00333858
0.00334579
0.00335145
0.00335559
0.00335822
0.00335937
0.00335905
0.0033573
0.00335417
0.00334975
0.00334343
0.00333394
2.54663e-05
1.67468e-05
1.07216e-05
6.21882e-06
2.62936e-06
-1.09273e-08
-1.68598e-06
-2.41228e-06
-2.19786e-06
-1.04423e-06
1.05001e-06
4.08837e-06
8.07527e-06
1.3015e-05
1.89112e-05
2.57668e-05
3.35842e-05
4.23647e-05
5.2109e-05
6.28172e-05
7.44888e-05
8.71226e-05
0.000100717
0.000115269
0.000130777
0.000147237
0.000164646
0.000183
0.000202295
0.000222525
0.000243685
0.000265769
0.000288772
0.000312686
0.000337503
0.000363217
0.000389818
0.000417298
0.000445647
0.000474854
0.00050491
0.000535802
0.000567518
0.000600046
0.000633372
0.000667481
0.000702359
0.000737991
0.000774359
0.000811446
0.000849234
0.000887705
0.000926839
0.000966615
0.00100701
0.00104801
0.00108958
0.0011317
0.00117435
0.0012175
0.00126113
0.0013052
0.00134969
0.00139457
0.00143981
0.00148538
0.00153125
0.00157738
0.00162374
0.0016703
0.00171702
0.00176386
0.00181079
0.00185777
0.00190477
0.00195173
0.00199863
0.00204542
0.00209207
0.00213852
0.00218474
0.00223069
0.00227632
0.00232159
0.00236645
0.00241087
0.00245479
0.00249817
0.00254097
0.00258314
0.00262464
0.00266542
0.00270545
0.00274466
0.00278303
0.00282051
0.00285705
0.00289262
0.00292717
0.00296066
0.00299304
0.00302429
0.00305437
0.00308322
0.00311083
0.00313715
0.00316216
0.00318581
0.00320808
0.00322894
0.00324836
0.00326632
0.00328279
0.00329776
0.00331121
0.00332312
0.00333348
0.00334228
0.00334954
0.00335523
0.00335939
0.00336201
0.00336312
0.00336273
0.00336085
0.00335755
0.00335291
0.0033463
0.00333641
2.3826e-05
1.4829e-05
8.59044e-06
3.91452e-06
1.84636e-07
-2.56165e-06
-4.31494e-06
-5.09932e-06
-4.92776e-06
-3.80538e-06
-1.73435e-06
1.28551e-06
5.25612e-06
1.01801e-05
1.60601e-05
2.28985e-05
3.06973e-05
3.94577e-05
4.91805e-05
5.98658e-05
7.15132e-05
8.41217e-05
9.76897e-05
0.000112215
0.000127696
0.000144129
0.000161511
0.000179837
0.000199105
0.000219309
0.000240443
0.000262503
0.000285482
0.000309374
0.00033417
0.000359865
0.000386448
0.000413912
0.000442247
0.000471443
0.000501489
0.000532374
0.000564086
0.000596612
0.000629939
0.000664053
0.000698939
0.000734581
0.000770964
0.000808069
0.000845879
0.000884376
0.000923539
0.000963349
0.00100378
0.00104482
0.00108644
0.00112861
0.00117132
0.00121453
0.00125822
0.00130237
0.00134693
0.00139189
0.00143722
0.00148288
0.00152884
0.00157508
0.00162154
0.00166821
0.00171505
0.00176201
0.00180907
0.00185618
0.00190331
0.00195041
0.00199746
0.0020444
0.0020912
0.00213781
0.00218419
0.0022303
0.0022761
0.00232154
0.00236657
0.00241116
0.00245526
0.00249882
0.0025418
0.00258416
0.00262584
0.00266681
0.00270701
0.00274642
0.00278497
0.00282263
0.00285935
0.0028951
0.00292982
0.00296348
0.00299604
0.00302746
0.00305769
0.00308671
0.00311447
0.00314095
0.00316609
0.00318988
0.00321229
0.00323328
0.00325282
0.00327089
0.00328747
0.00330254
0.00331608
0.00332807
0.0033385
0.00334737
0.00335467
0.0033604
0.00336456
0.00336717
0.00336824
0.00336778
0.00336579
0.00336234
0.00335752
0.00335069
0.00334051
2.0899e-05
1.17071e-05
5.31021e-06
4.96427e-07
-3.35437e-06
-6.19898e-06
-8.02878e-06
-8.87264e-06
-8.74781e-06
-7.66232e-06
-5.6207e-06
-2.62507e-06
1.32452e-06
6.22924e-06
1.20907e-05
1.89108e-05
2.66908e-05
3.5432e-05
4.5135e-05
5.58e-05
6.74265e-05
8.00138e-05
9.35603e-05
0.000108064
0.000123524
0.000139936
0.000157297
0.000175604
0.000194853
0.000215039
0.000236157
0.000258202
0.000281167
0.000305047
0.000329834
0.000355521
0.000382099
0.00040956
0.000437894
0.000467092
0.000497144
0.000528037
0.00055976
0.000592302
0.000625647
0.000659783
0.000694695
0.000730368
0.000766784
0.000803928
0.000841781
0.000880326
0.000919541
0.000959408
0.000999905
0.00104101
0.0010827
0.00112495
0.00116774
0.00121104
0.00125483
0.00129907
0.00134374
0.00138882
0.00143426
0.00148004
0.00152613
0.0015725
0.00161911
0.00166592
0.00171291
0.00176003
0.00180725
0.00185453
0.00190183
0.00194912
0.00199635
0.00204347
0.00209046
0.00213727
0.00218386
0.00223017
0.00227618
0.00232183
0.00236708
0.00241188
0.0024562
0.00249998
0.00254319
0.00258576
0.00262767
0.00266886
0.00270929
0.00274892
0.00278769
0.00282557
0.00286252
0.00289848
0.00293341
0.00296729
0.00300005
0.00303167
0.0030621
0.00309131
0.00311926
0.00314591
0.00317123
0.00319519
0.00321775
0.00323889
0.00325858
0.00327678
0.00329349
0.00330867
0.00332231
0.0033344
0.00334491
0.00335384
0.00336119
0.00336695
0.00337113
0.00337373
0.00337476
0.00337423
0.00337215
0.00336857
0.0033636
0.00335659
0.0033462
1.67147e-05
7.37984e-06
8.61229e-07
-4.06207e-06
-8.01379e-06
-1.09463e-05
-1.28489e-05
-1.37518e-05
-1.36751e-05
-1.26292e-05
-1.06206e-05
-7.65276e-06
-3.7273e-06
1.15578e-06
6.99728e-06
1.37983e-05
2.15599e-05
3.0283e-05
3.99682e-05
5.06154e-05
6.22245e-05
7.47945e-05
8.83243e-05
0.000102812
0.000118256
0.000134653
0.000152001
0.000170296
0.000189534
0.000209711
0.000230822
0.000252861
0.000275823
0.000299702
0.00032449
0.00035018
0.000376765
0.000404236
0.000432584
0.000461798
0.00049187
0.000522787
0.000554538
0.00058711
0.000620492
0.000654668
0.000689624
0.000725346
0.000761817
0.00079902
0.000836937
0.000875551
0.000914841
0.000954789
0.000995372
0.00103657
0.00107836
0.00112071
0.00116361
0.00120703
0.00125094
0.00129531
0.00134012
0.00138533
0.00143093
0.00147686
0.00152312
0.00156965
0.00161643
0.00166343
0.0017106
0.00175792
0.00180534
0.00185282
0.00190034
0.00194784
0.00199529
0.00204265
0.00208987
0.00213691
0.00218374
0.0022303
0.00227656
0.00232246
0.00236797
0.00241303
0.00245761
0.00250165
0.00254512
0.00258796
0.00263014
0.00267159
0.00271229
0.00275218
0.00279121
0.00282935
0.00286655
0.00290277
0.00293796
0.00297208
0.00300508
0.00303694
0.0030676
0.00309703
0.0031252
0.00315206
0.00317758
0.00320173
0.00322448
0.00324579
0.00326564
0.003284
0.00330085
0.00331616
0.00332992
0.0033421
0.0033527
0.00336171
0.00336911
0.00337491
0.0033791
0.00338169
0.00338269
0.00338211
0.00337994
0.00337626
0.00337117
0.00336401
0.00335345
1.13002e-05
1.8551e-06
-4.76204e-06
-9.77566e-06
-1.38122e-05
-1.6822e-05
-1.8792e-05
-1.97521e-05
-1.97235e-05
-1.87183e-05
-1.67444e-05
-1.38063e-05
-9.90676e-06
-5.04665e-06
7.74096e-07
7.55606e-06
1.52999e-05
2.40064e-05
3.36757e-05
4.4308e-05
5.5903e-05
6.84598e-05
8.19775e-05
9.64544e-05
0.000111889
0.000128278
0.000145619
0.000163909
0.000183144
0.00020332
0.000224432
0.000246476
0.000269444
0.000293333
0.000318134
0.00034384
0.000370444
0.000397938
0.000426312
0.000455557
0.000485663
0.000516619
0.000548413
0.000581034
0.000614468
0.000648702
0.000683722
0.000719512
0.000756056
0.000793339
0.000831342
0.000870047
0.000909435
0.000949487
0.00099018
0.00103149
0.00107341
0.00111589
0.00115893
0.00120249
0.00124655
0.00129108
0.00133606
0.00138144
0.00142722
0.00147334
0.00151979
0.00156653
0.00161352
0.00166073
0.00170813
0.00175567
0.00180333
0.00185106
0.00189882
0.00194658
0.00199429
0.00204192
0.00208941
0.00213674
0.00218384
0.00223069
0.00227724
0.00232344
0.00236924
0.0024146
0.00245948
0.00250383
0.00254761
0.00259075
0.00263323
0.002675
0.002716
0.00275619
0.00279553
0.00283397
0.00287147
0.00290798
0.00294345
0.00297785
0.00301114
0.00304326
0.00307419
0.00310388
0.00313229
0.00315939
0.00318514
0.00320951
0.00323247
0.00325397
0.00327401
0.00329254
0.00330955
0.003325
0.00333889
0.00335119
0.00336189
0.00337098
0.00337844
0.00338428
0.00338849
0.00339108
0.00339205
0.00339141
0.00338918
0.0033854
0.00338021
0.00337294
0.00336225
4.67383e-06
-4.85975e-06
-1.15593e-05
-1.66509e-05
-2.07613e-05
-2.38394e-05
-2.58712e-05
-2.68859e-05
-2.69045e-05
-2.594e-05
-2.40013e-05
-2.10938e-05
-1.72209e-05
-1.23843e-05
-6.58436e-06
1.78983e-07
7.90614e-06
1.65975e-05
2.62533e-05
3.68735e-05
4.84578e-05
6.10056e-05
7.45157e-05
8.89869e-05
0.000104417
0.000120804
0.000138146
0.000156439
0.000175679
0.000195862
0.000216985
0.000239042
0.000262027
0.000285935
0.00031076
0.000336494
0.000363129
0.000390659
0.000419073
0.000448362
0.000478517
0.000509527
0.000541381
0.000574066
0.00060757
0.00064188
0.000676981
0.000712859
0.000749497
0.00078688
0.000824989
0.000863808
0.000903316
0.000943495
0.000984323
0.00102578
0.00106784
0.00111048
0.00115368
0.00119742
0.00124166
0.00128638
0.00133155
0.00137714
0.00142313
0.00146947
0.00151615
0.00156312
0.00161036
0.00165782
0.00170548
0.00175329
0.00180122
0.00184923
0.00189728
0.00194534
0.00199335
0.00204128
0.00208909
0.00213673
0.00218416
0.00223134
0.00227822
0.00232475
0.0023709
0.0024166
0.00246183
0.00250652
0.00255064
0.00259414
0.00263697
0.00267908
0.00272043
0.00276097
0.00280065
0.00283943
0.00287726
0.0029141
0.0029499
0.00298462
0.00301822
0.00305065
0.00308187
0.00311185
0.00314054
0.00316791
0.00319392
0.00321853
0.00324172
0.00326345
0.00328369
0.00330241
0.00331959
0.00333521
0.00334924
0.00336166
0.00337247
0.00338164
0.00338918
0.00339506
0.0033993
0.00340189
0.00340284
0.00340217
0.00339987
0.00339602
0.00339073
0.00338336
0.00337255
-3.15113e-06
-1.27597e-05
-1.95301e-05
-2.46909e-05
-2.88681e-05
-3.20084e-05
-3.40973e-05
-3.51634e-05
-3.52277e-05
-3.43034e-05
-3.23996e-05
-2.95228e-05
-2.56767e-05
-2.08634e-05
-1.50838e-05
-8.33824e-06
-6.26486e-07
8.05165e-06
1.76963e-05
2.83073e-05
3.98845e-05
5.24272e-05
6.59344e-05
8.0405e-05
9.58371e-05
0.000112229
0.000129577
0.000147879
0.000167132
0.000187332
0.000208474
0.000230553
0.000253565
0.000277504
0.000302363
0.000328136
0.000354815
0.000382392
0.00041086
0.000440207
0.000470426
0.000501505
0.000533434
0.0005662
0.000599791
0.000634194
0.000669395
0.000705379
0.000742131
0.000779634
0.000817872
0.000856826
0.000896477
0.000936807
0.000977793
0.00101942
0.00106165
0.00110448
0.00114787
0.00119181
0.00123625
0.00128119
0.00132659
0.00137242
0.00141865
0.00146525
0.00151218
0.00155943
0.00160694
0.00165469
0.00170264
0.00175076
0.001799
0.00184734
0.00189571
0.0019441
0.00199246
0.00204074
0.0020889
0.0021369
0.0021847
0.00223225
0.0022795
0.00232641
0.00237294
0.00241903
0.00246464
0.00250973
0.00255424
0.00259812
0.00264134
0.00268384
0.00272558
0.0027665
0.00280657
0.00284573
0.00288393
0.00292114
0.00295731
0.00299239
0.00302633
0.0030591
0.00309066
0.00312095
0.00314995
0.00317762
0.00320391
0.0032288
0.00325224
0.00327421
0.00329468
0.00331361
0.00333099
0.00334678
0.00336097
0.00337353
0.00338445
0.00339372
0.00340133
0.00340727
0.00341154
0.00341414
0.00341508
0.00341437
0.00341202
0.0034081
0.00340274
0.00339527
0.00338435
-1.21631e-05
-2.18406e-05
-2.86747e-05
-3.38983e-05
-3.81375e-05
-4.13359e-05
-4.34783e-05
-4.45933e-05
-4.47017e-05
-4.38165e-05
-4.19472e-05
-3.91006e-05
-3.52808e-05
-3.04903e-05
-2.47303e-05
-1.80013e-05
-1.03033e-05
-1.63644e-06
7.99949e-06
1.86044e-05
3.01779e-05
4.27196e-05
5.62285e-05
7.07035e-05
8.61429e-05
0.000102545
0.000119907
0.000138226
0.000157499
0.000177722
0.000198892
0.000221004
0.000244052
0.000268032
0.000292936
0.000318759
0.000345494
0.000373132
0.000401666
0.000431085
0.000461382
0.000492545
0.000524564
0.000557427
0.000591122
0.000625636
0.000660955
0.000697065
0.00073395
0.000771594
0.00080998
0.000849091
0.000888908
0.000929412
0.000970581
0.0010124
0.00105483
0.00109787
0.00114148
0.00118564
0.00123033
0.00127552
0.00132117
0.00136727
0.00141377
0.00146066
0.00150789
0.00155544
0.00160327
0.00165134
0.00169963
0.00174808
0.00179668
0.00184537
0.00189411
0.00194287
0.00199161
0.00204028
0.00208884
0.00213724
0.00218544
0.0022334
0.00228107
0.00232841
0.00237536
0.00242188
0.00246792
0.00251344
0.00255838
0.0026027
0.00264635
0.00268929
0.00273145
0.0027728
0.00281329
0.00285287
0.00289149
0.00292911
0.00296568
0.00300115
0.00303548
0.00306862
0.00310054
0.00313119
0.00316053
0.00318852
0.00321513
0.00324031
0.00326404
0.00328627
0.00330699
0.00332615
0.00334374
0.00335972
0.00337408
0.00338679
0.00339785
0.00340722
0.00341492
0.00342092
0.00342523
0.00342784
0.00342878
0.00342804
0.00342564
0.00342166
0.00341622
0.00340867
0.00339764
-2.2352e-05
-3.20987e-05
-3.89935e-05
-4.42761e-05
-4.85737e-05
-5.18276e-05
-5.40213e-05
-5.51832e-05
-5.5334e-05
-5.44869e-05
-5.26513e-05
-4.98342e-05
-4.604e-05
-4.12715e-05
-3.55299e-05
-2.88161e-05
-2.11303e-05
-1.24725e-05
-2.84271e-06
7.75902e-06
1.93324e-05
3.18771e-05
4.53921e-05
5.98764e-05
7.53286e-05
9.17466e-05
0.000109128
0.000127471
0.000146772
0.000167028
0.000188234
0.000210386
0.00023348
0.000257511
0.000282472
0.000308356
0.000335158
0.000362869
0.000391482
0.000420987
0.000451376
0.000482638
0.000514763
0.000547739
0.000581554
0.000616196
0.000651651
0.000687905
0.000724943
0.000762748
0.000801304
0.000840594
0.000880599
0.0009213
0.000962677
0.00100471
0.00104737
0.00109064
0.0011345
0.00117892
0.00122388
0.00126934
0.00131528
0.00136167
0.00140849
0.00145569
0.00150326
0.00155114
0.00159932
0.00164776
0.00169641
0.00174525
0.00179423
0.00184332
0.00189247
0.00194164
0.0019908
0.0020399
0.00208889
0.00213774
0.00218639
0.00223481
0.00228293
0.00233073
0.00237815
0.00242514
0.00247166
0.00251765
0.00256307
0.00260787
0.002652
0.0026954
0.00273804
0.00277986
0.00282082
0.00286086
0.00289993
0.002938
0.002975
0.0030109
0.00304566
0.00307921
0.00311153
0.00314256
0.00317228
0.00320063
0.00322757
0.00325308
0.00327711
0.00329964
0.00332062
0.00334003
0.00335785
0.00337404
0.00338859
0.00340147
0.00341266
0.00342216
0.00342994
0.00343601
0.00344037
0.00344301
0.00344395
0.00344319
0.00344075
0.00343672
0.00343121
0.00342357
0.00341242
-3.37115e-05
-4.35309e-05
-5.04872e-05
-5.58271e-05
-6.01811e-05
-6.34888e-05
-6.57323e-05
-6.69398e-05
-6.7132e-05
-6.63219e-05
-6.45192e-05
-6.17308e-05
-5.79613e-05
-5.32136e-05
-4.74894e-05
-4.07893e-05
-3.31138e-05
-2.44629e-05
-1.48366e-05
-4.23504e-06
7.34171e-06
1.98932e-05
3.34187e-05
4.79171e-05
6.33873e-05
7.98273e-05
9.72352e-05
0.000115608
0.000134944
0.00015524
0.00017649
0.000198693
0.000221842
0.000245933
0.00027096
0.000296918
0.000323798
0.000351594
0.000380299
0.000409903
0.000440398
0.000471773
0.000504019
0.000537124
0.000571076
0.000605864
0.000641473
0.000677889
0.000715099
0.000753085
0.000791832
0.000831323
0.000871538
0.00091246
0.000954067
0.00099634
0.00103926
0.00108279
0.00112692
0.00117163
0.00121688
0.00126265
0.00130891
0.00135563
0.00140279
0.00145035
0.00149827
0.00154654
0.0015951
0.00164393
0.00169299
0.00174224
0.00179165
0.00184117
0.00189077
0.0019404
0.00199002
0.00203959
0.00208906
0.00213839
0.00218753
0.00223645
0.00228508
0.00233338
0.00238131
0.00242882
0.00247585
0.00252236
0.0025683
0.00261362
0.00265827
0.0027022
0.00274535
0.00278768
0.00282915
0.00286969
0.00290926
0.00294781
0.00298529
0.00302166
0.00305687
0.00309087
0.00312362
0.00315508
0.00318519
0.00321393
0.00324125
0.00326711
0.00329147
0.00331431
0.00333559
0.00335527
0.00337334
0.00338975
0.0034045
0.00341756
0.00342891
0.00343853
0.00344643
0.00345258
0.00345699
0.00345966
0.00346061
0.00345983
0.00345736
0.00345327
0.0034477
0.00343997
0.0034287
-4.62393e-05
-5.61364e-05
-6.31567e-05
-6.85545e-05
-7.29643e-05
-7.6325e-05
-7.86175e-05
-7.98698e-05
-8.01025e-05
-7.93286e-05
-7.7558e-05
-7.47974e-05
-7.10518e-05
-6.63239e-05
-6.06157e-05
-5.39278e-05
-4.62607e-05
-3.76146e-05
-2.79892e-05
-1.73848e-05
-5.80134e-06
6.76076e-06
2.03009e-05
3.48182e-05
5.03114e-05
6.6779e-05
8.4219e-05
0.000102629
0.000122007
0.00014235
0.000163654
0.000185914
0.000209128
0.000233289
0.000258393
0.000284433
0.000311404
0.000339297
0.000368106
0.000397822
0.000428436
0.000459939
0.000492321
0.00052557
0.000559676
0.000594626
0.000630407
0.000667005
0.000704405
0.000742593
0.000781552
0.000821264
0.000861712
0.000902878
0.00094474
0.000987279
0.00103047
0.0010743
0.00111873
0.00116375
0.00120933
0.00125544
0.00130205
0.00134913
0.00139666
0.0014446
0.00149293
0.0015416
0.00159058
0.00163985
0.00168935
0.00173906
0.00178893
0.00183893
0.00188901
0.00193913
0.00198926
0.00203934
0.00208933
0.00213919
0.00218887
0.00223832
0.0022875
0.00233635
0.00238484
0.0024329
0.0024805
0.00252757
0.00257408
0.00261996
0.00266517
0.00270966
0.00275337
0.00279626
0.00283827
0.00287936
0.00291946
0.00295854
0.00299655
0.00303342
0.00306913