/*--------------------------------*- C++ -*----------------------------------*\
| =========                 |                                                 |
| \\      /  F ield         | OpenFOAM: The Open Source CFD Toolbox           |
|  \\    /   O peration     | Version:  2112                                  |
|   \\  /    A nd           | Website:  www.openfoam.com                      |
|    \\/     M anipulation  |                                                 |
\*---------------------------------------------------------------------------*/
FoamFile
{
    version     2.0;
    format      ascii;
    arch        "LSB;label=32;scalar=64";
    class       surfaceScalarField;
    location    "1";
    object      phi;
}
// * * * * * * * * * * * * * * * * * * * * * * * * * * * * * * * * * * * * * //

dimensions      [0 3 -1 0 0 0 0];

oriented        oriented;

internalField   nonuniform List<scalar> 
33024
(
3.02585e-09
-3.02516e-09
3.43912e-09
-4.13276e-10
-1.04466e-09
4.48378e-09
-1.05061e-08
9.4616e-09
-2.42901e-08
1.37841e-08
-4.14837e-08
1.71936e-08
-6.12089e-08
1.97252e-08
-8.27205e-08
2.15115e-08
-1.05422e-07
2.27018e-08
-1.28861e-07
2.34382e-08
-1.52707e-07
2.38463e-08
-1.76736e-07
2.40289e-08
-2.00799e-07
2.40634e-08
-2.24803e-07
2.40041e-08
-2.48691e-07
2.38871e-08
-2.72426e-07
2.37357e-08
-2.9599e-07
2.3564e-08
-3.1937e-07
2.338e-08
-3.42558e-07
2.31873e-08
-3.65545e-07
2.29873e-08
-3.88325e-07
2.27797e-08
-4.10889e-07
2.2564e-08
-4.33228e-07
2.23395e-08
-4.55334e-07
2.21054e-08
-4.77195e-07
2.18611e-08
-4.98801e-07
2.16063e-08
-5.20142e-07
2.13406e-08
-5.41205e-07
2.10635e-08
-5.6198e-07
2.07749e-08
-5.82455e-07
2.04747e-08
-6.02618e-07
2.01629e-08
-6.22457e-07
1.98393e-08
-6.41961e-07
1.9504e-08
-6.61118e-07
1.91569e-08
-6.79916e-07
1.8798e-08
-6.98344e-07
1.84273e-08
-7.16389e-07
1.80448e-08
-7.34039e-07
1.76505e-08
-7.51284e-07
1.72446e-08
-7.68111e-07
1.6827e-08
-7.84509e-07
1.63976e-08
-8.00465e-07
1.59567e-08
-8.15969e-07
1.55042e-08
-8.3101e-07
1.50403e-08
-8.45575e-07
1.4565e-08
-8.59653e-07
1.40784e-08
-8.73234e-07
1.35806e-08
-8.86306e-07
1.30717e-08
-8.98858e-07
1.25517e-08
-9.10879e-07
1.20209e-08
-9.22358e-07
1.14792e-08
-9.33285e-07
1.09269e-08
-9.43649e-07
1.03642e-08
-9.5344e-07
9.791e-09
-9.62648e-07
9.20763e-09
-9.71262e-07
8.61423e-09
-9.79273e-07
8.01098e-09
-9.86671e-07
7.39809e-09
-9.93447e-07
6.77579e-09
-9.99591e-07
6.1443e-09
-1.00509e-06
5.50388e-09
-1.00995e-06
4.85477e-09
-1.01415e-06
4.19723e-09
-1.01768e-06
3.53155e-09
-1.02054e-06
2.85802e-09
-1.02271e-06
2.17698e-09
-1.0242e-06
1.48875e-09
-1.025e-06
7.93704e-10
-1.02509e-06
9.22849e-11
-1.02447e-06
-6.1527e-10
-1.02314e-06
-1.32836e-09
-1.0211e-06
-2.04663e-09
-1.01833e-06
-2.76961e-09
-1.01483e-06
-3.49681e-09
-1.0106e-06
-4.22776e-09
-1.00564e-06
-4.96191e-09
-9.99943e-07
-5.69874e-09
-9.93505e-07
-6.43768e-09
-9.86327e-07
-7.17814e-09
-9.78407e-07
-7.91953e-09
-9.69746e-07
-8.66121e-09
-9.60343e-07
-9.40253e-09
-9.50201e-07
-1.01428e-08
-9.39319e-07
-1.08814e-08
-9.27701e-07
-1.16176e-08
-9.15351e-07
-1.23507e-08
-9.02271e-07
-1.30798e-08
-8.88467e-07
-1.38043e-08
-8.73943e-07
-1.45234e-08
-8.58707e-07
-1.52363e-08
-8.42765e-07
-1.59423e-08
-8.26124e-07
-1.66404e-08
-8.08794e-07
-1.73299e-08
-7.90784e-07
-1.801e-08
-7.72104e-07
-1.86799e-08
-7.52766e-07
-1.93387e-08
-7.3278e-07
-1.99856e-08
-7.1216e-07
-2.06198e-08
-6.9092e-07
-2.12406e-08
-6.69073e-07
-2.1847e-08
-6.46634e-07
-2.24384e-08
-6.2362e-07
-2.3014e-08
-6.00047e-07
-2.35733e-08
-5.75932e-07
-2.41155e-08
-5.51291e-07
-2.46401e-08
-5.26145e-07
-2.51468e-08
-5.0051e-07
-2.56352e-08
-4.74405e-07
-2.61051e-08
-4.47848e-07
-2.65562e-08
-4.2086e-07
-2.69884e-08
-3.93459e-07
-2.7401e-08
-3.65666e-07
-2.77926e-08
-3.37506e-07
-2.81601e-08
-3.09008e-07
-2.84976e-08
-2.80214e-07
-2.87945e-08
-2.5118e-07
-2.90332e-08
-2.21995e-07
-2.91855e-08
-1.92785e-07
-2.92093e-08
-1.63742e-07
-2.90439e-08
-1.35135e-07
-2.86062e-08
-1.07348e-07
-2.77873e-08
-8.08971e-08
-2.6451e-08
-5.64601e-08
-2.4437e-08
-3.48897e-08
-2.15704e-08
-1.72001e-08
-1.76896e-08
-4.48272e-09
-1.27173e-08
2.3369e-09
-6.81956e-09
3.13235e-09
-7.95382e-10
3.1324e-09
4.46135e-10
-3.47128e-09
-6.68537e-09
6.71823e-09
-2.45512e-08
2.23495e-08
-5.33582e-08
3.82686e-08
-9.19646e-08
5.23904e-08
-1.38695e-07
6.39235e-08
-1.91755e-07
7.27861e-08
-2.49494e-07
7.92498e-08
-3.1051e-07
8.37184e-08
-3.7369e-07
8.66175e-08
-4.38185e-07
8.8341e-08
-5.03378e-07
8.92223e-08
-5.68838e-07
8.95234e-08
-6.34272e-07
8.94382e-08
-6.99488e-07
8.91026e-08
-7.6436e-07
8.86075e-08
-8.28807e-07
8.80107e-08
-8.92773e-07
8.73467e-08
-9.5622e-07
8.66341e-08
-1.01911e-06
8.58818e-08
-1.08143e-06
8.5093e-08
-1.14313e-06
8.42681e-08
-1.2042e-06
8.3406e-08
-1.2646e-06
8.25055e-08
-1.3243e-06
8.15649e-08
-1.38328e-06
8.05831e-08
-1.4415e-06
7.95591e-08
-1.49893e-06
7.84922e-08
-1.55553e-06
7.73818e-08
-1.61129e-06
7.62277e-08
-1.66615e-06
7.50296e-08
-1.7201e-06
7.37875e-08
-1.7731e-06
7.25013e-08
-1.82511e-06
7.11711e-08
-1.87611e-06
6.97969e-08
-1.92606e-06
6.83788e-08
-1.97494e-06
6.6917e-08
-2.0227e-06
6.54115e-08
-2.06932e-06
6.38628e-08
-2.11476e-06
6.2271e-08
-2.159e-06
6.06364e-08
-2.202e-06
5.89593e-08
-2.24374e-06
5.724e-08
-2.28418e-06
5.54789e-08
-2.32329e-06
5.36762e-08
-2.36104e-06
5.18326e-08
-2.39741e-06
4.99482e-08
-2.43236e-06
4.80237e-08
-2.46587e-06
4.60595e-08
-2.4979e-06
4.4056e-08
-2.52844e-06
4.20139e-08
-2.55745e-06
3.99336e-08
-2.5849e-06
3.78158e-08
-2.61077e-06
3.56612e-08
-2.63503e-06
3.34703e-08
-2.65766e-06
3.1244e-08
-2.67863e-06
2.8983e-08
-2.69792e-06
2.66881e-08
-2.71551e-06
2.43602e-08
-2.73136e-06
2.20003e-08
-2.74547e-06
1.96092e-08
-2.7578e-06
1.71879e-08
-2.76834e-06
1.47375e-08
-2.77707e-06
1.22592e-08
-2.78396e-06
9.75393e-09
-2.78901e-06
7.22311e-09
-2.79219e-06
4.66798e-09
-2.79349e-06
2.08993e-09
-2.79288e-06
-5.0957e-10
-2.79037e-06
-3.12914e-09
-2.78593e-06
-5.76711e-09
-2.77956e-06
-8.4219e-09
-2.77123e-06
-1.10918e-08
-2.76096e-06
-1.37751e-08
-2.74871e-06
-1.64699e-08
-2.7345e-06
-1.91744e-08
-2.71831e-06
-2.18865e-08
-2.70015e-06
-2.46042e-08
-2.68e-06
-2.73255e-08
-2.65787e-06
-3.0048e-08
-2.63376e-06
-3.27696e-08
-2.60768e-06
-3.54879e-08
-2.57962e-06
-3.82006e-08
-2.5496e-06
-4.09051e-08
-2.51762e-06
-4.35989e-08
-2.48369e-06
-4.62794e-08
-2.44782e-06
-4.89441e-08
-2.41004e-06
-5.15901e-08
-2.37034e-06
-5.42149e-08
-2.32877e-06
-5.68156e-08
-2.28532e-06
-5.93894e-08
-2.24003e-06
-6.19334e-08
-2.19291e-06
-6.44448e-08
-2.144e-06
-6.69207e-08
-2.09332e-06
-6.93581e-08
-2.04091e-06
-7.17542e-08
-1.98679e-06
-7.41061e-08
-1.93099e-06
-7.6411e-08
-1.87357e-06
-7.8666e-08
-1.81455e-06
-8.08683e-08
-1.75397e-06
-8.30153e-08
-1.69188e-06
-8.51044e-08
-1.62832e-06
-8.71333e-08
-1.56334e-06
-8.90997e-08
-1.49698e-06
-9.10016e-08
-1.42929e-06
-9.28373e-08
-1.36032e-06
-9.46052e-08
-1.29012e-06
-9.63039e-08
-1.21874e-06
-9.79316e-08
-1.14624e-06
-9.94858e-08
-1.07268e-06
-1.00962e-07
-9.98124e-07
-1.02352e-07
-9.22645e-07
-1.03639e-07
-8.46344e-07
-1.04799e-07
-7.69353e-07
-1.05785e-07
-6.91858e-07
-1.06528e-07
-6.14122e-07
-1.06922e-07
-5.3652e-07
-1.06811e-07
-4.59584e-07
-1.05981e-07
-3.84044e-07
-1.04146e-07
-3.10883e-07
-1.00948e-07
-2.41377e-07
-9.5957e-08
-1.77118e-07
-8.86959e-08
-1.19994e-07
-7.86941e-08
-7.20881e-08
-6.55955e-08
-3.54328e-08
-4.93725e-08
-1.15635e-08
-3.06887e-08
-7.82502e-10
-1.15763e-08
2.3499e-09
-4.49221e-09
1.02094e-09
-2.23909e-08
2.46171e-08
-5.54911e-08
5.54497e-08
-1.03509e-07
8.62867e-08
-1.64933e-07
1.13814e-07
-2.37631e-07
1.36621e-07
-3.19296e-07
1.54451e-07
-4.07745e-07
1.67698e-07
-5.01073e-07
1.77046e-07
-5.9772e-07
1.83265e-07
-6.9647e-07
1.8709e-07
-7.96408e-07
1.8916e-07
-8.96874e-07
1.89989e-07
-9.97405e-07
1.89969e-07
-1.09768e-06
1.89381e-07
-1.19749e-06
1.88418e-07
-1.29669e-06
1.87207e-07
-1.39517e-06
1.85826e-07
-1.49286e-06
1.84321e-07
-1.58969e-06
1.82715e-07
-1.68562e-06
1.81019e-07
-1.78058e-06
1.79238e-07
-1.87455e-06
1.77371e-07
-1.96746e-06
1.75418e-07
-2.05927e-06
1.73376e-07
-2.14993e-06
1.71244e-07
-2.2394e-06
1.69021e-07
-2.32761e-06
1.66705e-07
-2.41452e-06
1.64295e-07
-2.50009e-06
1.61792e-07
-2.58425e-06
1.59195e-07
-2.66697e-06
1.56503e-07
-2.74818e-06
1.53718e-07
-2.82785e-06
1.50839e-07
-2.90592e-06
1.47866e-07
-2.98234e-06
1.448e-07
-3.05707e-06
1.41642e-07
-3.13005e-06
1.38392e-07
-3.20124e-06
1.35051e-07
-3.27058e-06
1.31618e-07
-3.33804e-06
1.28096e-07
-3.40357e-06
1.24484e-07
-3.46711e-06
1.20784e-07
-3.52863e-06
1.16997e-07
-3.58808e-06
1.13123e-07
-3.64541e-06
1.09163e-07
-3.70058e-06
1.05118e-07
-3.75355e-06
1.00991e-07
-3.80427e-06
9.67802e-08
-3.8527e-06
9.24886e-08
-3.8988e-06
8.81171e-08
-3.94254e-06
8.3667e-08
-3.98386e-06
7.91396e-08
-4.02273e-06
7.45365e-08
-4.05912e-06
6.98592e-08
-4.09299e-06
6.51094e-08
-4.12429e-06
6.02888e-08
-4.15301e-06
5.53992e-08
-4.17909e-06
5.04426e-08
-4.20251e-06
4.54209e-08
-4.22323e-06
4.03363e-08
-4.24124e-06
3.51908e-08
-4.25649e-06
2.99869e-08
-4.26895e-06
2.4727e-08
-4.27861e-06
1.94134e-08
-4.28544e-06
1.40491e-08
-4.28941e-06
8.63662e-09
-4.2905e-06
3.17902e-09
-4.28869e-06
-2.32068e-09
-4.28396e-06
-7.85933e-09
-4.27629e-06
-1.34336e-08
-4.26567e-06
-1.90401e-08
-4.25209e-06
-2.46752e-08
-4.23553e-06
-3.03353e-08
-4.21598e-06
-3.60165e-08
-4.19344e-06
-4.17148e-08
-4.1679e-06
-4.7426e-08
-4.13936e-06
-5.3146e-08
-4.10782e-06
-5.88703e-08
-4.07327e-06
-6.45943e-08
-4.03572e-06
-7.03134e-08
-3.99519e-06
-7.60227e-08
-3.95167e-06
-8.17173e-08
-3.90519e-06
-8.73921e-08
-3.85574e-06
-9.30418e-08
-3.80336e-06
-9.86612e-08
-3.74806e-06
-1.04245e-07
-3.68986e-06
-1.09787e-07
-3.6288e-06
-1.15283e-07
-3.56489e-06
-1.20726e-07
-3.49817e-06
-1.2611e-07
-3.42867e-06
-1.3143e-07
-3.35643e-06
-1.3668e-07
-3.2815e-06
-1.41855e-07
-3.20391e-06
-1.46947e-07
-3.12371e-06
-1.51951e-07
-3.04096e-06
-1.56862e-07
-2.9557e-06
-1.61673e-07
-2.86798e-06
-1.66378e-07
-2.77788e-06
-1.70973e-07
-2.68544e-06
-1.75451e-07
-2.59074e-06
-1.79807e-07
-2.49384e-06
-1.84036e-07
-2.3948e-06
-1.88134e-07
-2.29371e-06
-1.92096e-07
-2.19063e-06
-1.95919e-07
-2.08564e-06
-1.99598e-07
-1.97881e-06
-2.03129e-07
-1.87024e-06
-2.06507e-07
-1.76e-06
-2.09724e-07
-1.64819e-06
-2.12769e-07
-1.53492e-06
-2.1562e-07
-1.42032e-06
-2.18238e-07
-1.30456e-06
-2.20564e-07
-1.18784e-06
-2.22498e-07
-1.07048e-06
-2.2389e-07
-9.52891e-07
-2.24514e-07
-8.35648e-07
-2.24053e-07
-7.19552e-07
-2.22076e-07
-6.05678e-07
-2.18021e-07
-4.95431e-07
-2.11195e-07
-3.90592e-07
-2.00796e-07
-2.93321e-07
-1.85966e-07
-2.06109e-07
-1.65907e-07
-1.31623e-07
-1.40081e-07
-7.24287e-08
-1.08567e-07
-3.05332e-08
-7.25842e-08
-6.7568e-09
-3.53526e-08
-4.40692e-09
-9.52571e-09
1.05465e-08
-3.8509e-08
5.36004e-08
-8.67031e-08
1.03644e-07
-1.52876e-07
1.52459e-07
-2.34951e-07
1.9589e-07
-3.30393e-07
2.32063e-07
-4.36551e-07
2.60609e-07
-5.50913e-07
2.8206e-07
-6.71269e-07
2.97403e-07
-7.95782e-07
3.07778e-07
-9.2299e-07
3.14298e-07
-1.05177e-06
3.17945e-07
-1.18131e-06
3.19525e-07
-1.311e-06
3.19661e-07
-1.44043e-06
3.18812e-07
-1.56931e-06
3.17296e-07
-1.69743e-06
3.15327e-07
-1.82465e-06
3.13041e-07
-1.95084e-06
3.10519e-07
-2.07594e-06
3.07807e-07
-2.19985e-06
3.04927e-07
-2.3225e-06
3.01892e-07
-2.44383e-06
2.98704e-07
-2.56378e-06
2.95363e-07
-2.68227e-06
2.91869e-07
-2.79925e-06
2.8822e-07
-2.91464e-06
2.84413e-07
-3.02838e-06
2.80449e-07
-3.14041e-06
2.76325e-07
-3.25066e-06
2.72043e-07
-3.35907e-06
2.67601e-07
-3.46557e-06
2.63e-07
-3.57009e-06
2.58241e-07
-3.67258e-06
2.53324e-07
-3.77296e-06
2.48249e-07
-3.87118e-06
2.43019e-07
-3.96717e-06
2.37633e-07
-4.06087e-06
2.32093e-07
-4.15222e-06
2.264e-07
-4.24116e-06
2.20556e-07
-4.32762e-06
2.14561e-07
-4.41156e-06
2.08418e-07
-4.4929e-06
2.02128e-07
-4.57159e-06
1.95692e-07
-4.64758e-06
1.89113e-07
-4.72081e-06
1.82391e-07
-4.79122e-06
1.7553e-07
-4.85876e-06
1.68531e-07
-4.92338e-06
1.61395e-07
-4.98502e-06
1.54126e-07
-5.04363e-06
1.46726e-07
-5.09916e-06
1.39196e-07
-5.15156e-06
1.3154e-07
-5.20078e-06
1.2376e-07
-5.24678e-06
1.15859e-07
-5.28951e-06
1.0784e-07
-5.32893e-06
9.97058e-08
-5.36499e-06
9.14593e-08
-5.39765e-06
8.31043e-08
-5.42687e-06
7.4644e-08
-5.45262e-06
6.60821e-08
-5.47485e-06
5.74223e-08
-5.49353e-06
4.86688e-08
-5.50863e-06
3.98254e-08
-5.52011e-06
3.08968e-08
-5.52795e-06
2.18872e-08
-5.53212e-06
1.28016e-08
-5.53258e-06
3.64469e-09
-5.52933e-06
-5.57827e-09
-5.52232e-06
-1.4862e-08
-5.51156e-06
-2.42009e-08
-5.49701e-06
-3.35893e-08
-5.47866e-06
-4.30213e-08
-5.45651e-06
-5.24906e-08
-5.43053e-06
-6.19908e-08
-5.40073e-06
-7.15153e-08
-5.3671e-06
-8.10573e-08
-5.32964e-06
-9.06096e-08
-5.28834e-06
-1.00165e-07
-5.24322e-06
-1.09716e-07
-5.19428e-06
-1.19255e-07
-5.14153e-06
-1.28773e-07
-5.08498e-06
-1.38264e-07
-5.02466e-06
-1.47717e-07
-4.96057e-06
-1.57126e-07
-4.89275e-06
-1.6648e-07
-4.82123e-06
-1.75772e-07
-4.74602e-06
-1.84992e-07
-4.66717e-06
-1.94131e-07
-4.58472e-06
-2.03179e-07
-4.4987e-06
-2.12128e-07
-4.40917e-06
-2.20967e-07
-4.31616e-06
-2.29687e-07
-4.21974e-06
-2.38279e-07
-4.11995e-06
-2.46732e-07
-4.01686e-06
-2.55037e-07
-3.91054e-06
-2.63185e-07
-3.80105e-06
-2.71166e-07
-3.68846e-06
-2.7897e-07
-3.57284e-06
-2.86588e-07
-3.45428e-06
-2.94011e-07
-3.33286e-06
-3.01232e-07
-3.20865e-06
-3.0824e-07
-3.08176e-06
-3.15028e-07
-2.95226e-06
-3.2159e-07
-2.82027e-06
-3.27917e-07
-2.68586e-06
-3.34002e-07
-2.54915e-06
-3.39838e-07
-2.41025e-06
-3.45413e-07
-2.26926e-06
-3.50713e-07
-2.12631e-06
-3.55713e-07
-1.98156e-06
-3.60373e-07
-1.83517e-06
-3.64625e-07
-1.68738e-06
-3.68362e-07
-1.53846e-06
-3.71417e-07
-1.38881e-06
-3.73536e-07
-1.23897e-06
-3.74351e-07
-1.08968e-06
-3.73348e-07
-9.41913e-07
-3.6984e-07
-7.96986e-07
-3.62948e-07
-6.56576e-07
-3.51605e-07
-5.22776e-07
-3.34596e-07
-3.98089e-07
-3.10654e-07
-2.85365e-07
-2.78631e-07
-1.87655e-07
-2.37791e-07
-1.07972e-07
-1.8825e-07
-4.89611e-08
-1.31595e-07
-1.25638e-08
-7.175e-08
-1.69707e-08
-1.39494e-08
2.44959e-08
-5.29733e-08
9.26243e-08
-1.14899e-07
1.6557e-07
-1.97341e-07
2.34901e-07
-2.97537e-07
2.96085e-07
-4.12527e-07
3.47053e-07
-5.3937e-07
3.87452e-07
-6.75331e-07
4.1802e-07
-8.18005e-07
4.40077e-07
-9.65384e-07
4.55157e-07
-1.11586e-06
4.6477e-07
-1.26817e-06
4.70262e-07
-1.4214e-06
4.72751e-07
-1.57485e-06
4.73112e-07
-1.72803e-06
4.71995e-07
-1.8806e-06
4.69861e-07
-2.03229e-06
4.67022e-07
-2.18293e-06
4.6368e-07
-2.33237e-06
4.59959e-07
-2.4805e-06
4.55932e-07
-2.62721e-06
4.5164e-07
-2.77242e-06
4.47102e-07
-2.91604e-06
4.42327e-07
-3.058e-06
4.37318e-07
-3.1982e-06
4.32075e-07
-3.33658e-06
4.26597e-07
-3.47305e-06
4.20883e-07
-3.60753e-06
4.14933e-07
-3.73995e-06
4.08745e-07
-3.87023e-06
4.0232e-07
-3.99829e-06
3.95658e-07
-4.12405e-06
3.8876e-07
-4.24743e-06
3.81627e-07
-4.36837e-06
3.7426e-07
-4.48678e-06
3.66661e-07
-4.60259e-06
3.5883e-07
-4.71573e-06
3.50771e-07
-4.82612e-06
3.42485e-07
-4.9337e-06
3.33974e-07
-5.03838e-06
3.2524e-07
-5.14011e-06
3.16285e-07
-5.2388e-06
3.07113e-07
-5.3344e-06
2.97724e-07
-5.42683e-06
2.88123e-07
-5.51603e-06
2.78312e-07
-5.60193e-06
2.68294e-07
-5.68447e-06
2.58071e-07
-5.76359e-06
2.47648e-07
-5.83922e-06
2.37027e-07
-5.91131e-06
2.26212e-07
-5.97979e-06
2.15206e-07
-6.0446e-06
2.04013e-07
-6.1057e-06
1.92637e-07
-6.16302e-06
1.81082e-07
-6.21651e-06
1.69353e-07
-6.26613e-06
1.57454e-07
-6.31181e-06
1.45389e-07
-6.35351e-06
1.33163e-07
-6.39119e-06
1.20781e-07
-6.4248e-06
1.0825e-07
-6.45429e-06
9.5573e-08
-6.47962e-06
8.2757e-08
-6.50076e-06
6.98078e-08
-6.51767e-06
5.67316e-08
-6.53031e-06
4.35348e-08
-6.53864e-06
3.02241e-08
-6.54265e-06
1.68067e-08
-6.54229e-06
3.28973e-09
-6.53755e-06
-1.03192e-08
-6.5284e-06
-2.40121e-08
-6.51482e-06
-3.7781e-08
-6.49679e-06
-5.16174e-08
-6.4743e-06
-6.55124e-08
-6.44734e-06
-7.9457e-08
-6.41588e-06
-9.34418e-08
-6.37994e-06
-1.07457e-07
-6.33951e-06
-1.21493e-07
-6.29458e-06
-1.35539e-07
-6.24516e-06
-1.49584e-07
-6.19126e-06
-1.63618e-07
-6.13288e-06
-1.77629e-07
-6.07005e-06
-1.91606e-07
-6.00278e-06
-2.05537e-07
-5.93108e-06
-2.19409e-07
-5.855e-06
-2.33211e-07
-5.77455e-06
-2.4693e-07
-5.68977e-06
-2.60552e-07
-5.60069e-06
-2.74066e-07
-5.50737e-06
-2.87457e-07
-5.40984e-06
-3.00711e-07
-5.30815e-06
-3.13817e-07
-5.20236e-06
-3.26758e-07
-5.09252e-06
-3.39523e-07
-4.9787e-06
-3.52096e-07
-4.86097e-06
-3.64464e-07
-4.73939e-06
-3.76614e-07
-4.61405e-06
-3.8853e-07
-4.48502e-06
-4.00199e-07
-4.35238e-06
-4.11608e-07
-4.21622e-06
-4.22744e-07
-4.07664e-06
-4.33593e-07
-3.93373e-06
-4.44142e-07
-3.78759e-06
-4.5438e-07
-3.63832e-06
-4.64294e-07
-3.48604e-06
-4.73874e-07
-3.33085e-06
-4.83107e-07
-3.17287e-06
-4.91983e-07
-3.01222e-06
-5.00487e-07
-2.84903e-06
-5.08603e-07
-2.68344e-06
-5.16304e-07
-2.5156e-06
-5.23551e-07
-2.3457e-06
-5.3028e-07
-2.17393e-06
-5.36388e-07
-2.00058e-06
-5.41715e-07
-1.82599e-06
-5.46011e-07
-1.65061e-06
-5.48908e-07
-1.47509e-06
-5.49879e-07
-1.30024e-06
-5.48196e-07
-1.12719e-06
-5.42894e-07
-9.57378e-07
-5.32756e-07
-7.92664e-07
-5.16318e-07
-6.35325e-07
-4.91935e-07
-4.88072e-07
-4.57906e-07
-3.54e-07
-4.12703e-07
-2.36475e-07
-3.55316e-07
-1.38968e-07
-2.85757e-07
-6.48757e-08
-2.05687e-07
-1.74234e-08
-1.19202e-07
-3.43941e-08
-1.74998e-08
4.19957e-08
-6.49855e-08
1.4011e-07
-1.38655e-07
2.39239e-07
-2.35015e-07
3.31261e-07
-3.50595e-07
4.11665e-07
-4.81994e-07
4.78452e-07
-6.25992e-07
5.31451e-07
-7.79672e-07
5.717e-07
-9.40497e-07
6.00902e-07
-1.10635e-06
6.2101e-07
-1.27553e-06
6.33949e-07
-1.44671e-06
6.41444e-07
-1.61889e-06
6.44933e-07
-1.79133e-06
6.45552e-07
-1.96349e-06
6.44152e-07
-2.13497e-06
6.41342e-07
-2.30549e-06
6.3754e-07
-2.47483e-06
6.33019e-07
-2.64282e-06
6.27953e-07
-2.80933e-06
6.22445e-07
-2.97425e-06
6.16553e-07
-3.13746e-06
6.1031e-07
-3.29886e-06
6.03731e-07
-3.45836e-06
5.96822e-07
-3.61588e-06
5.89587e-07
-3.77131e-06
5.82026e-07
-3.92456e-06
5.74138e-07
-4.07555e-06
5.65923e-07
-4.22419e-06
5.57383e-07
-4.37039e-06
5.48517e-07
-4.51405e-06
5.39326e-07
-4.65511e-06
5.29812e-07
-4.79346e-06
5.19977e-07
-4.92902e-06
5.09823e-07
-5.06171e-06
4.99352e-07
-5.19145e-06
4.88567e-07
-5.31815e-06
4.7747e-07
-5.44173e-06
4.66065e-07
-5.56211e-06
4.54354e-07
-5.67921e-06
4.42341e-07
-5.79295e-06
4.30029e-07
-5.90326e-06
4.17422e-07
-6.01006e-06
4.04523e-07
-6.11327e-06
3.91337e-07
-6.21283e-06
3.77867e-07
-6.30865e-06
3.64118e-07
-6.40068e-06
3.50095e-07
-6.48883e-06
3.358e-07
-6.57304e-06
3.21241e-07
-6.65325e-06
3.0642e-07
-6.72939e-06
2.91345e-07
-6.8014e-06
2.76019e-07
-6.86921e-06
2.60448e-07
-6.93277e-06
2.44639e-07
-6.99201e-06
2.28597e-07
-7.04688e-06
2.12328e-07
-7.09733e-06
1.95839e-07
-7.14331e-06
1.79136e-07
-7.18475e-06
1.62228e-07
-7.22162e-06
1.4512e-07
-7.25387e-06
1.27821e-07
-7.28145e-06
1.10338e-07
-7.30432e-06
9.26801e-08
-7.32245e-06
7.48554e-08
-7.33579e-06
5.68728e-08
-7.3443e-06
3.87416e-08
-7.34797e-06
2.04714e-08
-7.34675e-06
2.07212e-09
-7.34062e-06
-1.64459e-08
-7.32956e-06
-3.50719e-08
-7.31355e-06
-5.37948e-08
-7.29256e-06
-7.26031e-08
-7.26659e-06
-9.1485e-08
-7.23562e-06
-1.10428e-07
-7.19964e-06
-1.2942e-07
-7.15865e-06
-1.48447e-07
-7.11265e-06
-1.67496e-07
-7.06164e-06
-1.86552e-07
-7.00562e-06
-2.05603e-07
-6.94461e-06
-2.24632e-07
-6.87861e-06
-2.43625e-07
-6.80765e-06
-2.62566e-07
-6.73175e-06
-2.8144e-07
-6.65093e-06
-3.00229e-07
-6.56522e-06
-3.18918e-07
-6.47466e-06
-3.3749e-07
-6.37929e-06
-3.55927e-07
-6.27914e-06
-3.74212e-07
-6.17427e-06
-3.92326e-07
-6.06473e-06
-4.10253e-07
-5.95057e-06
-4.27974e-07
-5.83186e-06
-4.4547e-07
-5.70866e-06
-4.62723e-07
-5.58104e-06
-4.79714e-07
-5.44908e-06
-4.96426e-07
-5.31286e-06
-5.12838e-07
-5.17245e-06
-5.28932e-07
-5.02796e-06
-5.44691e-07
-4.87947e-06
-5.60096e-07
-4.72709e-06
-5.75129e-07
-4.57091e-06
-5.89773e-07
-4.41104e-06
-6.04009e-07
-4.2476e-06
-6.17823e-07
-4.0807e-06
-6.31197e-07
-3.91045e-06
-6.44116e-07
-3.737e-06
-6.56563e-07
-3.56046e-06
-6.68521e-07
-3.38098e-06
-6.79971e-07
-3.19869e-06
-6.90887e-07
-3.01377e-06
-7.01229e-07
-2.82637e-06
-7.10942e-07
-2.63672e-06
-7.19935e-07
-2.44504e-06
-7.28066e-07
-2.25164e-06
-7.35112e-07
-2.05691e-06
-7.40741e-07
-1.86136e-06
-7.44461e-07
-1.66566e-06
-7.45576e-07
-1.47073e-06
-7.43134e-07
-1.27773e-06
-7.35887e-07
-1.08822e-06
-7.22265e-07
-9.04145e-07
-7.00398e-07
-7.2789e-07
-6.6819e-07
-5.62317e-07
-6.2348e-07
-4.10715e-07
-5.64305e-07
-2.76746e-07
-4.89286e-07
-1.64351e-07
-3.98151e-07
-7.76935e-08
-2.92345e-07
-2.11954e-08
-1.757e-07
-5.55894e-08
-2.02042e-08
6.21999e-08
-7.44428e-08
1.94348e-07
-1.57679e-07
3.22475e-07
-2.65474e-07
4.39057e-07
-3.93702e-07
5.39893e-07
-5.38531e-07
6.2328e-07
-6.96472e-07
6.89392e-07
-8.64439e-07
7.39667e-07
-1.03979e-06
7.76251e-07
-1.22033e-06
8.01553e-07
-1.40431e-06
8.17931e-07
-1.59037e-06
8.27498e-07
-1.77746e-06
8.3202e-07
-1.9648e-06
8.32897e-07
-2.15183e-06
8.31184e-07
-2.33813e-06
8.27643e-07
-2.52339e-06
8.22799e-07
-2.70738e-06
8.17002e-07
-2.8899e-06
8.10473e-07
-3.0708e-06
8.03349e-07
-3.24996e-06
7.9571e-07
-3.42725e-06
7.876e-07
-3.60256e-06
7.79043e-07
-3.77579e-06
7.7005e-07
-3.94683e-06
7.60628e-07
-4.11558e-06
7.50778e-07
-4.28194e-06
7.40502e-07
-4.44582e-06
7.29801e-07
-4.60712e-06
7.18677e-07
-4.76573e-06
7.0713e-07
-4.92157e-06
6.95163e-07
-5.07453e-06
6.82778e-07
-5.22453e-06
6.69979e-07
-5.37148e-06
6.56767e-07
-5.51527e-06
6.43148e-07
-5.65583e-06
6.29123e-07
-5.79306e-06
6.14698e-07
-5.92687e-06
5.99876e-07
-6.05718e-06
5.84661e-07
-6.18389e-06
5.69059e-07
-6.30694e-06
5.53074e-07
-6.42623e-06
5.36711e-07
-6.54168e-06
5.19974e-07
-6.65321e-06
5.0287e-07
-6.76075e-06
4.85404e-07
-6.86421e-06
4.67581e-07
-6.96352e-06
4.49408e-07
-7.05861e-06
4.3089e-07
-7.14941e-06
4.12034e-07
-7.23583e-06
3.92848e-07
-7.31783e-06
3.73336e-07
-7.39531e-06
3.53507e-07
-7.46824e-06
3.33369e-07
-7.53652e-06
3.12928e-07
-7.60012e-06
2.92192e-07
-7.65896e-06
2.71171e-07
-7.71299e-06
2.49871e-07
-7.76216e-06
2.28303e-07
-7.80641e-06
2.06476e-07
-7.84569e-06
1.84398e-07
-7.87995e-06
1.6208e-07
-7.90914e-06
1.39533e-07
-7.93323e-06
1.16766e-07
-7.95216e-06
9.37919e-08
-7.96591e-06
7.06211e-08
-7.97444e-06
4.72659e-08
-7.9777e-06
2.37386e-08
-7.97568e-06
5.20763e-11
-7.96835e-06
-2.37803e-08
-7.95568e-06
-4.77448e-08
-7.93764e-06
-7.18272e-08
-7.91424e-06
-9.60126e-08
-7.88543e-06
-1.20286e-07
-7.85123e-06
-1.44631e-07
-7.81162e-06
-1.69032e-07
-7.76659e-06
-1.93472e-07
-7.71615e-06
-2.17934e-07
-7.66031e-06
-2.424e-07
-7.59906e-06
-2.66852e-07
-7.53242e-06
-2.9127e-07
-7.46041e-06
-3.15636e-07
-7.38304e-06
-3.3993e-07
-7.30035e-06
-3.64132e-07
-7.21236e-06
-3.8822e-07
-7.1191e-06
-4.12175e-07
-7.02062e-06
-4.35974e-07
-6.91695e-06
-4.59596e-07
-6.80815e-06
-4.83018e-07
-6.69425e-06
-5.06218e-07
-6.57533e-06
-5.29173e-07
-6.45145e-06
-5.5186e-07
-6.32266e-06
-5.74255e-07
-6.18905e-06
-5.96336e-07
-6.05069e-06
-6.18079e-07
-5.90765e-06
-6.39459e-07
-5.76004e-06
-6.60454e-07
-5.60793e-06
-6.8104e-07
-5.45143e-06
-7.01194e-07
-5.29063e-06
-7.20892e-07
-5.12565e-06
-7.40112e-07
-4.95659e-06
-7.58831e-07
-4.78357e-06
-7.77028e-07
-4.60671e-06
-7.94681e-07
-4.42614e-06
-8.11768e-07
-4.24199e-06
-8.28269e-07
-4.05439e-06
-8.44163e-07
-3.86348e-06
-8.59426e-07
-3.66942e-06
-8.7403e-07
-3.47237e-06
-8.87941e-07
-3.27249e-06
-9.01106e-07
-3.06999e-06
-9.13449e-07
-2.86507e-06
-9.24852e-07
-2.65801e-06
-9.35129e-07
-2.44912e-06
-9.43998e-07
-2.23883e-06
-9.51034e-07
-2.02767e-06
-9.55623e-07
-1.81635e-06
-9.56895e-07
-1.60581e-06
-9.53673e-07
-1.39728e-06
-9.44415e-07
-1.19234e-06
-9.27198e-07
-9.93012e-07
-8.99731e-07
-8.01751e-07
-8.5945e-07
-6.21535e-07
-8.03697e-07
-4.5583e-07
-7.30009e-07
-3.08585e-07
-6.36531e-07
-1.84196e-07
-5.2254e-07
-8.75212e-08
-3.8902e-07
-2.39824e-08
-2.39239e-07
-7.95718e-08
-2.21866e-08
8.43865e-08
-8.15925e-08
2.53754e-07
-1.7232e-07
4.13202e-07
-2.89187e-07
5.55924e-07
-4.27509e-07
6.78216e-07
-5.83064e-07
7.78836e-07
-7.52108e-07
8.58436e-07
-9.31396e-07
9.18955e-07
-1.11819e-06
9.63044e-07
-1.31024e-06
9.93607e-07
-1.50577e-06
1.01346e-06
-1.70337e-06
1.0251e-06
-1.902e-06
1.03065e-06
-2.10086e-06
1.03176e-06
-2.29936e-06
1.02969e-06
-2.49708e-06
1.02536e-06
-2.69369e-06
1.01941e-06
-2.88894e-06
1.01225e-06
-3.08264e-06
1.00417e-06
-3.27461e-06
9.95322e-07
-3.46472e-06
9.85819e-07
-3.65284e-06
9.75716e-07
-3.83884e-06
9.65046e-07
-4.02262e-06
9.53825e-07
-4.20405e-06
9.42062e-07
-4.38304e-06
9.29764e-07
-4.55947e-06
9.16932e-07
-4.73323e-06
9.0357e-07
-4.90424e-06
8.8968e-07
-5.07237e-06
8.75265e-07
-5.23754e-06
8.60328e-07
-5.39963e-06
8.44873e-07
-5.55856e-06
8.28903e-07
-5.71421e-06
8.12423e-07
-5.8665e-06
7.95438e-07
-6.01533e-06
7.77952e-07
-6.16061e-06
7.59972e-07
-6.30223e-06
7.41501e-07
-6.44012e-06
7.22546e-07
-6.57417e-06
7.03114e-07
-6.70431e-06
6.83209e-07
-6.83044e-06
6.62839e-07
-6.95247e-06
6.42011e-07
-7.07033e-06
6.2073e-07
-7.18393e-06
5.99005e-07
-7.2932e-06
5.76843e-07
-7.39804e-06
5.5425e-07
-7.49838e-06
5.31236e-07
-7.59416e-06
5.07809e-07
-7.68529e-06
4.83976e-07
-7.7717e-06
4.59747e-07
-7.85332e-06
4.3513e-07
-7.93009e-06
4.10135e-07
-8.00193e-06
3.84772e-07
-8.06879e-06
3.59051e-07
-8.1306e-06
3.32982e-07
-8.18731e-06
3.06576e-07
-8.23885e-06
2.79843e-07
-8.28517e-06
2.52796e-07
-8.32622e-06
2.25447e-07
-8.36194e-06
1.97807e-07
-8.3923e-06
1.69891e-07
-8.41724e-06
1.4171e-07
-8.43673e-06
1.13279e-07
-8.45072e-06
8.4613e-08
-8.45918e-06
5.57257e-08
-8.46208e-06
2.66328e-08
-8.45938e-06
-2.6497e-09
-8.45105e-06
-3.21054e-08
-8.43708e-06
-6.17173e-08
-8.41744e-06
-9.14677e-08
-8.39211e-06
-1.21338e-07
-8.36109e-06
-1.51311e-07
-8.32435e-06
-1.81365e-07
-8.2819e-06
-2.11482e-07
-8.23374e-06
-2.4164e-07
-8.17985e-06
-2.71819e-07
-8.12026e-06
-3.01996e-07
-8.05496e-06
-3.32149e-07
-7.98397e-06
-3.62256e-07
-7.90732e-06
-3.92292e-07
-7.82502e-06
-4.22233e-07
-7.73709e-06
-4.52055e-07
-7.64358e-06
-4.81732e-07
-7.54452e-06
-5.11239e-07
-7.43994e-06
-5.4055e-07
-7.3299e-06
-5.69637e-07
-7.21444e-06
-5.98474e-07
-7.09363e-06
-6.27033e-07
-6.96752e-06
-6.55285e-07
-6.83617e-06
-6.83204e-07
-6.69967e-06
-7.10761e-07
-6.55808e-06
-7.37927e-07
-6.41148e-06
-7.64673e-07
-6.25997e-06
-7.9097e-07
-6.10364e-06
-8.1679e-07
-5.94257e-06
-8.42105e-07
-5.77688e-06
-8.66884e-07
-5.60667e-06
-8.91101e-07
-5.43206e-06
-9.14727e-07
-5.25315e-06
-9.37735e-07
-5.07008e-06
-9.60098e-07
-4.88298e-06
-9.81789e-07
-4.69196e-06
-1.00278e-06
-4.49718e-06
-1.02305e-06
-4.29878e-06
-1.04256e-06
-4.09691e-06
-1.0613e-06
-3.89172e-06
-1.07921e-06
-3.6834e-06
-1.09627e-06
-3.47211e-06
-1.11239e-06
-3.25807e-06
-1.12749e-06
-3.04151e-06
-1.14141e-06
-2.82271e-06
-1.15393e-06
-2.602e-06
-1.16471e-06
-2.37981e-06
-1.17322e-06
-2.1567e-06
-1.17873e-06
-1.9334e-06
-1.1802e-06
-1.71087e-06
-1.17621e-06
-1.49035e-06
-1.16494e-06
-1.27345e-06
-1.14409e-06
-1.06223e-06
-1.11096e-06
-8.59204e-07
-1.06247e-06
-6.6746e-07
-9.95441e-07
-4.9063e-07
-9.06839e-07
-3.32929e-07
-7.94232e-07
-1.99166e-07
-6.56303e-07
-9.4782e-08
-4.93403e-07
-2.59671e-08
-3.08054e-07
-1.05539e-07
-2.3589e-08
1.07976e-07
-8.68162e-08
3.16981e-07
-1.83222e-07
5.09608e-07
-3.07078e-07
6.7978e-07
-4.53253e-07
8.2439e-07
-6.17189e-07
9.42773e-07
-7.94915e-07
1.03616e-06
-9.83034e-07
1.10707e-06
-1.17872e-06
1.15873e-06
-1.37968e-06
1.19457e-06
-1.5841e-06
1.21787e-06
-1.79057e-06
1.23157e-06
-1.99802e-06
1.2381e-06
-2.20567e-06
1.2394e-06
-2.41292e-06
1.23694e-06
-2.61932e-06
1.23177e-06
-2.82456e-06
1.22464e-06
-3.02836e-06
1.21606e-06
-3.23054e-06
1.20634e-06
-3.43091e-06
1.19569e-06
-3.62933e-06
1.18424e-06
-3.82566e-06
1.17204e-06
-4.01977e-06
1.15916e-06
-4.21154e-06
1.14559e-06
-4.40085e-06
1.13138e-06
-4.58759e-06
1.11651e-06
-4.77165e-06
1.10099e-06
-4.95291e-06
1.08483e-06
-5.13127e-06
1.06804e-06
-5.30661e-06
1.05061e-06
-5.47884e-06
1.03255e-06
-5.64784e-06
1.01387e-06
-5.81352e-06
9.94577e-07
-5.97576e-06
9.74667e-07
-6.13447e-06
9.5415e-07
-6.28955e-06
9.33034e-07
-6.4409e-06
9.11324e-07
-6.58843e-06
8.89027e-07
-6.73204e-06
8.66151e-07
-6.87163e-06
8.42704e-07
-7.00711e-06
8.18693e-07
-7.1384e-06
7.94126e-07
-7.2654e-06
7.69011e-07
-7.38802e-06
7.43357e-07
-7.50619e-06
7.17174e-07
-7.61982e-06
6.90469e-07
-7.72882e-06
6.63253e-07
-7.83312e-06
6.35535e-07
-7.93264e-06
6.07326e-07
-8.0273e-06
5.78635e-07
-8.11702e-06
5.49474e-07
-8.20175e-06
5.19854e-07
-8.2814e-06
4.89786e-07
-8.35591e-06
4.59281e-07
-8.42521e-06
4.28353e-07
-8.48924e-06
3.97014e-07
-8.54794e-06
3.65276e-07
-8.60125e-06
3.33154e-07
-8.64912e-06
3.00661e-07
-8.69148e-06
2.67812e-07
-8.72829e-06
2.34622e-07
-8.75951e-06
2.01106e-07
-8.78508e-06
1.67281e-07
-8.80496e-06
1.33163e-07
-8.81912e-06
9.87697e-08
-8.82751e-06
6.41184e-08
-8.83011e-06
2.92277e-08
-8.82688e-06
-5.88323e-09
-8.81779e-06
-4.11947e-08
-8.80282e-06
-7.66863e-08
-8.78195e-06
-1.12337e-07
-8.75516e-06
-1.48125e-07
-8.72245e-06
-1.84028e-07
-8.68379e-06
-2.20022e-07
-8.63918e-06
-2.56085e-07
-8.58863e-06
-2.92191e-07
-8.53214e-06
-3.28315e-07
-8.4697e-06
-3.64431e-07
-8.40134e-06
-4.00512e-07
-8.32706e-06
-4.36532e-07
-8.24689e-06
-4.72461e-07
-8.16086e-06
-5.08272e-07
-8.06898e-06
-5.43935e-07
-7.97129e-06
-5.79419e-07
-7.86783e-06
-6.14695e-07
-7.75865e-06
-6.49731e-07
-7.64379e-06
-6.84496e-07
-7.52331e-06
-7.18957e-07
-7.39726e-06
-7.53081e-07
-7.26571e-06
-7.86836e-07
-7.12873e-06
-8.20188e-07
-6.98639e-06
-8.53104e-07
-6.83876e-06
-8.85549e-07
-6.68595e-06
-9.17489e-07
-6.52802e-06
-9.48891e-07
-6.36509e-06
-9.7972e-07
-6.19726e-06
-1.00994e-06
-6.02462e-06
-1.03952e-06
-5.84729e-06
-1.06843e-06
-5.66538e-06
-1.09663e-06
-5.47903e-06
-1.12409e-06
-5.28836e-06
-1.15077e-06
-5.09349e-06
-1.17665e-06
-4.89458e-06
-1.2017e-06
-4.69176e-06
-1.22587e-06
-4.48518e-06
-1.24914e-06
-4.275e-06
-1.27147e-06
-4.0614e-06
-1.29282e-06
-3.84454e-06
-1.31313e-06
-3.62462e-06
-1.33231e-06
-3.40184e-06
-1.35026e-06
-3.17646e-06
-1.3668e-06
-2.94875e-06
-1.38164e-06
-2.71907e-06
-1.39439e-06
-2.48784e-06
-1.40445e-06
-2.25564e-06
-1.41093e-06
-2.0232e-06
-1.41264e-06
-1.79148e-06
-1.40793e-06
-1.56175e-06
-1.39467e-06
-1.33562e-06
-1.37021e-06
-1.11519e-06
-1.33139e-06
-9.03031e-07
-1.27463e-06
-7.02318e-07
-1.19615e-06
-5.16846e-07
-1.09231e-06
-3.51073e-07