/*--------------------------------*- C++ -*----------------------------------*\
| =========                 |                                                 |
| \\      /  F ield         | OpenFOAM: The Open Source CFD Toolbox           |
|  \\    /   O peration     | Version:  2112                                  |
|   \\  /    A nd           | Website:  www.openfoam.com                      |
|    \\/     M anipulation  |                                                 |
\*---------------------------------------------------------------------------*/
FoamFile
{
    version     2.0;
    format      ascii;
    arch        "LSB;label=32;scalar=64";
    class       volVectorField;
    location    "1";
    object      U;
}
// * * * * * * * * * * * * * * * * * * * * * * * * * * * * * * * * * * * * * //

dimensions      [0 1 -1 0 0 0 0];

internalField   nonuniform List<vector> 
16641
(
(2.46138e-06 -2.42447e-06 0)
(5.32975e-06 -1.65166e-06 0)
(2.93404e-06 6.6236e-07 0)
(-6.13359e-06 2.99144e-06 0)
(-2.13609e-05 4.9388e-06 0)
(-4.15705e-05 6.39944e-06 0)
(-6.56012e-05 7.43103e-06 0)
(-9.23893e-05 8.12356e-06 0)
(-0.000121058 8.55643e-06 0)
(-0.000150931 8.79828e-06 0)
(-0.000181511 8.90949e-06 0)
(-0.000212448 8.93875e-06 0)
(-0.000243506 8.92002e-06 0)
(-0.000274535 8.87417e-06 0)
(-0.000305441 8.81337e-06 0)
(-0.000336167 8.74508e-06 0)
(-0.000366681 8.67384e-06 0)
(-0.000396964 8.60194e-06 0)
(-0.000427004 8.52998e-06 0)
(-0.000456789 8.4575e-06 0)
(-0.000486312 8.38368e-06 0)
(-0.000515562 8.30781e-06 0)
(-0.000544528 8.22935e-06 0)
(-0.000573198 8.14792e-06 0)
(-0.000601559 8.06319e-06 0)
(-0.000629599 7.97485e-06 0)
(-0.000657303 7.88265e-06 0)
(-0.000684657 7.78643e-06 0)
(-0.000711647 7.68608e-06 0)
(-0.000738256 7.58156e-06 0)
(-0.000764471 7.47282e-06 0)
(-0.000790277 7.35982e-06 0)
(-0.000815657 7.24251e-06 0)
(-0.000840597 7.12085e-06 0)
(-0.000865082 6.99484e-06 0)
(-0.000889096 6.86445e-06 0)
(-0.000912624 6.72968e-06 0)
(-0.000935651 6.59053e-06 0)
(-0.000958162 6.44696e-06 0)
(-0.000980142 6.29898e-06 0)
(-0.00100157 6.14657e-06 0)
(-0.00102245 5.98976e-06 0)
(-0.00104274 5.82856e-06 0)
(-0.00106245 5.66296e-06 0)
(-0.00108155 5.49299e-06 0)
(-0.00110002 5.31864e-06 0)
(-0.00111787 5.13993e-06 0)
(-0.00113506 4.95689e-06 0)
(-0.00115159 4.76955e-06 0)
(-0.00116745 4.57792e-06 0)
(-0.00118261 4.38203e-06 0)
(-0.00119706 4.18192e-06 0)
(-0.0012108 3.97763e-06 0)
(-0.0012238 3.76919e-06 0)
(-0.00123606 3.55665e-06 0)
(-0.00124756 3.34005e-06 0)
(-0.00125828 3.11946e-06 0)
(-0.00126822 2.89493e-06 0)
(-0.00127737 2.66653e-06 0)
(-0.0012857 2.43436e-06 0)
(-0.00129322 2.19849e-06 0)
(-0.0012999 1.959e-06 0)
(-0.00130574 1.71598e-06 0)
(-0.00131073 1.46953e-06 0)
(-0.00131485 1.21974e-06 0)
(-0.0013181 9.66736e-07 0)
(-0.00132047 7.10628e-07 0)
(-0.00132194 4.51548e-07 0)
(-0.00132252 1.89636e-07 0)
(-0.00132218 -7.49131e-08 0)
(-0.00132093 -3.41998e-07 0)
(-0.00131875 -6.11442e-07 0)
(-0.00131565 -8.83068e-07 0)
(-0.00131161 -1.1567e-06 0)
(-0.00130663 -1.43214e-06 0)
(-0.0013007 -1.70919e-06 0)
(-0.00129382 -1.98765e-06 0)
(-0.001286 -2.2673e-06 0)
(-0.00127721 -2.54791e-06 0)
(-0.00126748 -2.82925e-06 0)
(-0.00125678 -3.11107e-06 0)
(-0.00124513 -3.39312e-06 0)
(-0.00123252 -3.67513e-06 0)
(-0.00121896 -3.95684e-06 0)
(-0.00120445 -4.23795e-06 0)
(-0.00118899 -4.51818e-06 0)
(-0.00117258 -4.79724e-06 0)
(-0.00115524 -5.07482e-06 0)
(-0.00113697 -5.35061e-06 0)
(-0.00111777 -5.62429e-06 0)
(-0.00109766 -5.89556e-06 0)
(-0.00107664 -6.16407e-06 0)
(-0.00105473 -6.42952e-06 0)
(-0.00103193 -6.69155e-06 0)
(-0.00100826 -6.94985e-06 0)
(-0.000983736 -7.20407e-06 0)
(-0.000958368 -7.45388e-06 0)
(-0.000932173 -7.69895e-06 0)
(-0.000905169 -7.93896e-06 0)
(-0.000877373 -8.17358e-06 0)
(-0.000848804 -8.40252e-06 0)
(-0.000819483 -8.62548e-06 0)
(-0.000789429 -8.8422e-06 0)
(-0.000758665 -9.05244e-06 0)
(-0.000727212 -9.25602e-06 0)
(-0.000695094 -9.45281e-06 0)
(-0.000662334 -9.64274e-06 0)
(-0.000628956 -9.82584e-06 0)
(-0.000594984 -1.00022e-05 0)
(-0.000560441 -1.01721e-05 0)
(-0.000525353 -1.03356e-05 0)
(-0.000489746 -1.04927e-05 0)
(-0.000453648 -1.06431e-05 0)
(-0.000417092 -1.07854e-05 0)
(-0.000380122 -1.09166e-05 0)
(-0.0003428 -1.1031e-05 0)
(-0.000305215 -1.11187e-05 0)
(-0.000267502 -1.11639e-05 0)
(-0.000229859 -1.11423e-05 0)
(-0.000192577 -1.1019e-05 0)
(-0.000156073 -1.07457e-05 0)
(-0.000120919 -1.02585e-05 0)
(-8.78832e-05 -9.47599e-06 0)
(-5.79566e-05 -8.30011e-06 0)
(-3.23607e-05 -6.62499e-06 0)
(-1.24892e-05 -4.37297e-06 0)
(2.67364e-07 -1.59091e-06 0)
(5.02766e-06 1.31598e-06 0)
(2.67538e-06 2.67305e-06 0)
(1.70144e-06 -5.34503e-06 0)
(-9.18301e-07 9.66675e-07 0)
(-1.67643e-05 1.2508e-05 0)
(-4.70724e-05 2.43465e-05 0)
(-9.09908e-05 3.47356e-05 0)
(-0.000146558 4.30592e-05 0)
(-0.000211449 4.93272e-05 0)
(-0.000283385 5.38072e-05 0)
(-0.000360369 5.68357e-05 0)
(-0.000440777 5.87446e-05 0)
(-0.00052335 5.98326e-05 0)
(-0.00060716 6.03475e-05 0)
(-0.000691543 6.04796e-05 0)
(-0.000776046 6.03649e-05 0)
(-0.000860364 6.00955e-05 0)
(-0.000944303 5.97314e-05 0)
(-0.00102774 5.931e-05 0)
(-0.00111058 5.88523e-05 0)
(-0.00119277 5.83693e-05 0)
(-0.00127427 5.78649e-05 0)
(-0.00135504 5.73399e-05 0)
(-0.00143504 5.67931e-05 0)
(-0.00151424 5.62233e-05 0)
(-0.00159259 5.5629e-05 0)
(-0.00167007 5.50088e-05 0)
(-0.00174663 5.43616e-05 0)
(-0.00182223 5.36865e-05 0)
(-0.00189683 5.29829e-05 0)
(-0.00197039 5.22503e-05 0)
(-0.00204288 5.14884e-05 0)
(-0.00211424 5.06971e-05 0)
(-0.00218443 4.98763e-05 0)
(-0.00225342 4.90259e-05 0)
(-0.00232117 4.81458e-05 0)
(-0.00238762 4.7236e-05 0)
(-0.00245274 4.62965e-05 0)
(-0.00251649 4.53274e-05 0)
(-0.00257883 4.43288e-05 0)
(-0.00263972 4.33007e-05 0)
(-0.00269911 4.22433e-05 0)
(-0.00275696 4.11568e-05 0)
(-0.00281324 4.00412e-05 0)
(-0.00286791 3.88968e-05 0)
(-0.00292092 3.77237e-05 0)
(-0.00297224 3.65221e-05 0)
(-0.00302183 3.52924e-05 0)
(-0.00306964 3.40346e-05 0)
(-0.00311566 3.27491e-05 0)
(-0.00315982 3.14362e-05 0)
(-0.0032021 3.00961e-05 0)
(-0.00324247 2.87292e-05 0)
(-0.00328088 2.73358e-05 0)
(-0.00331731 2.59162e-05 0)
(-0.00335171 2.4471e-05 0)
(-0.00338405 2.30004e-05 0)
(-0.0034143 2.1505e-05 0)
(-0.00344244 1.99852e-05 0)
(-0.00346841 1.84416e-05 0)
(-0.0034922 1.68747e-05 0)
(-0.00351378 1.52851e-05 0)
(-0.00353311 1.36735e-05 0)
(-0.00355017 1.20404e-05 0)
(-0.00356493 1.03866e-05 0)
(-0.00357736 8.71279e-06 0)
(-0.00358744 7.0197e-06 0)
(-0.00359515 5.30817e-06 0)
(-0.00360046 3.57907e-06 0)
(-0.00360335 1.83331e-06 0)
(-0.00360381 7.18615e-08 0)
(-0.0036018 -1.70422e-06 0)
(-0.00359732 -3.49393e-06 0)
(-0.00359035 -5.29615e-06 0)
(-0.00358087 -7.10975e-06 0)
(-0.00356888 -8.93351e-06 0)
(-0.00355435 -1.07662e-05 0)
(-0.00353729 -1.26065e-05 0)
(-0.00351768 -1.44531e-05 0)
(-0.00349553 -1.63045e-05 0)
(-0.00347081 -1.81593e-05 0)
(-0.00344355 -2.00161e-05 0)
(-0.00341372 -2.18732e-05 0)
(-0.00338135 -2.3729e-05 0)
(-0.00334642 -2.55818e-05 0)
(-0.00330896 -2.743e-05 0)
(-0.00326896 -2.92718e-05 0)
(-0.00322644 -3.11054e-05 0)
(-0.00318142 -3.29289e-05 0)
(-0.00313391 -3.47404e-05 0)
(-0.00308394 -3.65382e-05 0)
(-0.00303151 -3.83202e-05 0)
(-0.00297666 -4.00844e-05 0)
(-0.00291942 -4.18289e-05 0)
(-0.00285981 -4.35517e-05 0)
(-0.00279786 -4.52507e-05 0)
(-0.00273362 -4.69238e-05 0)
(-0.00266711 -4.85691e-05 0)
(-0.00259839 -5.01846e-05 0)
(-0.00252748 -5.17681e-05 0)
(-0.00245445 -5.33178e-05 0)
(-0.00237933 -5.48317e-05 0)
(-0.00230217 -5.63079e-05 0)
(-0.00222304 -5.77447e-05 0)
(-0.00214198 -5.91404e-05 0)
(-0.00205905 -6.04935e-05 0)
(-0.00197432 -6.18026e-05 0)
(-0.00188784 -6.30667e-05 0)
(-0.00179968 -6.42849e-05 0)
(-0.0017099 -6.54565e-05 0)
(-0.00161857 -6.65807e-05 0)
(-0.00152575 -6.76567e-05 0)
(-0.00143153 -6.86822e-05 0)
(-0.00133597 -6.96529e-05 0)
(-0.00123916 -7.05601e-05 0)
(-0.00114123 -7.13876e-05 0)
(-0.00104231 -7.21074e-05 0)
(-0.000942596 -7.26734e-05 0)
(-0.000842374 -7.3014e-05 0)
(-0.000742042 -7.30225e-05 0)
(-0.000642172 -7.25479e-05 0)
(-0.000543563 -7.13854e-05 0)
(-0.000447305 -6.92698e-05 0)
(-0.000354847 -6.58758e-05 0)
(-0.000268038 -6.08286e-05 0)
(-0.00018914 -5.3735e-05 0)
(-0.000120771 -4.42607e-05 0)
(-6.56826e-05 -3.23035e-05 0)
(-2.62933e-05 -1.83326e-05 0)
(-4.06367e-06 -4.09357e-06 0)
(1.32612e-06 5.02797e-06 0)
(-6.46846e-07 -2.9711e-06 0)
(-1.25308e-05 1.68057e-05 0)
(-4.53021e-05 4.52232e-05 0)
(-9.80757e-05 7.41074e-05 0)
(-0.000169272 9.98901e-05 0)
(-0.000256483 0.00012112 0)
(-0.000356757 0.000137575 0)
(-0.000467126 0.000149681 0)
(-0.000584918 0.00015813 0)
(-0.000707888 0.000163675 0)
(-0.000834251 0.000167024 0)
(-0.000962648 0.000168783 0)
(-0.00109208 0.000169433 0)
(-0.00122185 0.000169337 0)
(-0.00135145 0.000168751 0)
(-0.00148056 0.000167848 0)
(-0.00160896 0.00016674 0)
(-0.00173649 0.000165494 0)
(-0.00186304 0.000164148 0)
(-0.00198852 0.000162721 0)
(-0.00211287 0.000161221 0)
(-0.00223601 0.000159649 0)
(-0.00235789 0.000158005 0)
(-0.00247844 0.000156286 0)
(-0.0025976 0.00015449 0)
(-0.00271531 0.000152616 0)
(-0.00283151 0.000150661 0)
(-0.00294613 0.000148624 0)
(-0.0030591 0.000146504 0)
(-0.00317036 0.000144302 0)
(-0.00327985 0.000142016 0)
(-0.00338751 0.000139646 0)
(-0.00349326 0.000137193 0)
(-0.00359705 0.000134656 0)
(-0.0036988 0.000132036 0)
(-0.00379846 0.000129333 0)
(-0.00389597 0.000126548 0)
(-0.00399126 0.00012368 0)
(-0.00408426 0.00012073 0)
(-0.00417492 0.000117698 0)
(-0.00426317 0.000114587 0)
(-0.00434896 0.000111395 0)
(-0.00443223 0.000108123 0)
(-0.00451291 0.000104773 0)
(-0.00459094 0.000101344 0)
(-0.00466628 9.78388e-05 0)
(-0.00473886 9.42567e-05 0)
(-0.00480862 9.05992e-05 0)
(-0.00487551 8.68672e-05 0)
(-0.00493948 8.30616e-05 0)
(-0.00500047 7.91835e-05 0)
(-0.00505842 7.52339e-05 0)
(-0.0051133 7.12142e-05 0)
(-0.00516504 6.71255e-05 0)
(-0.00521359 6.29691e-05 0)
(-0.00525892 5.87466e-05 0)
(-0.00530097 5.44593e-05 0)
(-0.00533969 5.01089e-05 0)
(-0.00537504 4.56971e-05 0)
(-0.00540698 4.12255e-05 0)
(-0.00543546 3.6696e-05 0)
(-0.00546045 3.21105e-05 0)
(-0.00548191 2.7471e-05 0)
(-0.0054998 2.27797e-05 0)
(-0.00551408 1.80387e-05 0)
(-0.00552472 1.32504e-05 0)
(-0.00553169 8.41727e-06 0)
(-0.00553496 3.54196e-06 0)
(-0.0055345 -1.37285e-06 0)
(-0.00553028 -6.32433e-06 0)
(-0.00552229 -1.13095e-05 0)
(-0.0055105 -1.63254e-05 0)
(-0.0054949 -2.13687e-05 0)
(-0.00547546 -2.64362e-05 0)
(-0.00545217 -3.15243e-05 0)
(-0.00542503 -3.66296e-05 0)
(-0.00539401 -4.17482e-05 0)
(-0.00535913 -4.68764e-05 0)
(-0.00532038 -5.20102e-05 0)
(-0.00527775 -5.71454e-05 0)
(-0.00523125 -6.22778e-05 0)
(-0.00518088 -6.7403e-05 0)
(-0.00512667 -7.25166e-05 0)
(-0.00506861 -7.76139e-05 0)
(-0.00500673 -8.26901e-05 0)
(-0.00494105 -8.77405e-05 0)
(-0.00487158 -9.27602e-05 0)
(-0.00479837 -9.7744e-05 0)
(-0.00472144 -0.000102687 0)
(-0.00464082 -0.000107584 0)
(-0.00455655 -0.000112429 0)
(-0.00446868 -0.000117218 0)
(-0.00437725 -0.000121945 0)
(-0.00428231 -0.000126604 0)
(-0.00418392 -0.00013119 0)
(-0.00408213 -0.000135698 0)
(-0.00397701 -0.000140123 0)
(-0.00386862 -0.000144458 0)
(-0.00375704 -0.0001487 0)
(-0.00364233 -0.000152841 0)
(-0.00352457 -0.000156879 0)
(-0.00340384 -0.000160807 0)
(-0.00328024 -0.000164621 0)
(-0.00315383 -0.000168318 0)
(-0.00302473 -0.000171893 0)
(-0.00289301 -0.000175343 0)
(-0.00275878 -0.000178665 0)
(-0.00262213 -0.000181855 0)
(-0.00248317 -0.000184911 0)
(-0.00234201 -0.000187825 0)
(-0.00219876 -0.00019059 0)
(-0.00205355 -0.000193186 0)
(-0.00190653 -0.000195583 0)
(-0.00175788 -0.00019773 0)
(-0.00160785 -0.000199538 0)
(-0.00145677 -0.000200875 0)
(-0.00130507 -0.000201537 0)
(-0.00115339 -0.000201234 0)
(-0.00100259 -0.000199566 0)
(-0.000853876 -0.00019601 0)
(-0.000708821 -0.000189907 0)
(-0.000569475 -0.000180485 0)
(-0.000438382 -0.000166902 0)
(-0.000318573 -0.000148352 0)
(-0.000213453 -0.000124266 0)
(-0.000126486 -9.46848e-05 0)
(-6.0615e-05 -6.08559e-05 0)
(-1.81867e-05 -2.62874e-05 0)
(-1.55591e-06 3.04893e-07 0)
(-3.00533e-06 6.11453e-06 0)
(-2.45152e-05 4.7213e-05 0)
(-7.45488e-05 9.80616e-05 0)
(-0.000149117 0.000148501 0)
(-0.000245506 0.000193559 0)
(-0.000360836 0.000231037 0)
(-0.000491697 0.000260491 0)
(-0.000634687 0.0002825 0)
(-0.000786724 0.000298134 0)
(-0.000945188 0.000308619 0)
(-0.00110795 0.000315135 0)
(-0.00127337 0.00031872 0)
(-0.00144021 0.000320214 0)
(-0.00160757 0.000320263 0)
(-0.00177481 0.000319339 0)
(-0.0019415 0.000317764 0)
(-0.00210732 0.000315755 0)
(-0.00227205 0.000313445 0)
(-0.00243553 0.000310912 0)
(-0.00259764 0.000308201 0)
(-0.00275827 0.000305331 0)
(-0.00291733 0.000302312 0)
(-0.00307472 0.000299145 0)
(-0.00323036 0.000295829 0)
(-0.00338418 0.000292363 0)
(-0.00353608 0.000288743 0)
(-0.00368598 0.000284967 0)
(-0.00383379 0.000281034 0)
(-0.00397943 0.000276943 0)
(-0.00412283 0.000272694 0)
(-0.00426388 0.000268285 0)
(-0.00440251 0.000263718 0)
(-0.00453864 0.000258991 0)
(-0.00467218 0.000254107 0)
(-0.00480305 0.000249065 0)
(-0.00493117 0.000243867 0)
(-0.00505646 0.000238513 0)
(-0.00517883 0.000233004 0)
(-0.0052982 0.000227341 0)
(-0.00541451 0.000221525 0)
(-0.00552766 0.000215559 0)
(-0.00563759 0.000209442 0)
(-0.00574421 0.000203178 0)
(-0.00584745 0.000196766 0)
(-0.00594724 0.000190209 0)
(-0.00604351 0.000183509 0)
(-0.00613617 0.000176667 0)
(-0.00622517 0.000169685 0)
(-0.00631043 0.000162566 0)
(-0.00639188 0.00015531 0)
(-0.00646945 0.000147921 0)
(-0.00654309 0.000140401 0)
(-0.00661272 0.000132753 0)
(-0.00667828 0.000124978 0)
(-0.00673971 0.000117079 0)
(-0.00679696 0.00010906 0)
(-0.00684996 0.000100923 0)
(-0.00689865 9.26716e-05 0)
(-0.00694299 8.43088e-05 0)
(-0.00698292 7.58381e-05 0)
(-0.00701839 6.72631e-05 0)
(-0.00704934 5.85875e-05 0)
(-0.00707574 4.98151e-05 0)
(-0.00709754 4.09502e-05 0)
(-0.0071147 3.1997e-05 0)
(-0.00712717 2.296e-05 0)
(-0.00713492 1.3844e-05 0)
(-0.00713791 4.65382e-06 0)
(-0.00713612 -4.6053e-06 0)
(-0.00712951 -1.39281e-05 0)
(-0.00711805 -2.3309e-05 0)
(-0.00710173 -3.27421e-05 0)
(-0.00708051 -4.22216e-05 0)
(-0.00705439 -5.17413e-05 0)
(-0.00702335 -6.12945e-05 0)
(-0.00698738 -7.08747e-05 0)
(-0.00694647 -8.0475e-05 0)
(-0.00690061 -9.00881e-05 0)
(-0.00684981 -9.97067e-05 0)
(-0.00679407 -0.000109323 0)
(-0.0067334 -0.00011893 0)
(-0.0066678 -0.000128518 0)
(-0.0065973 -0.00013808 0)
(-0.00652191 -0.000147608 0)
(-0.00644166 -0.000157091 0)
(-0.00635657 -0.000166523 0)
(-0.00626669 -0.000175893 0)
(-0.00617203 -0.000185192 0)
(-0.00607266 -0.000194412 0)
(-0.00596861 -0.000203541 0)
(-0.00585993 -0.000212572 0)
(-0.00574668 -0.000221494 0)
(-0.00562892 -0.000230298 0)
(-0.00550672 -0.000238973 0)
(-0.00538015 -0.000247509 0)
(-0.00524928 -0.000255898 0)
(-0.00511419 -0.000264128 0)
(-0.00497497 -0.00027219 0)
(-0.0048317 -0.000280076 0)
(-0.00468448 -0.000287774 0)
(-0.00453341 -0.000295277 0)
(-0.00437859 -0.000302575 0)
(-0.00422014 -0.00030966 0)
(-0.00405815 -0.000316524 0)
(-0.00389275 -0.000323159 0)
(-0.00372406 -0.00032956 0)
(-0.0035522 -0.000335718 0)
(-0.0033773 -0.000341627 0)
(-0.00319949 -0.000347276 0)
(-0.00301892 -0.000352653 0)
(-0.00283574 -0.000357734 0)
(-0.00265012 -0.000362482 0)
(-0.00246228 -0.00036683 0)
(-0.00227245 -0.000370674 0)
(-0.00208096 -0.000373846 0)
(-0.00188824 -0.00037609 0)
(-0.00169488 -0.00037703 0)
(-0.00150167 -0.000376139 0)
(-0.00130971 -0.000372704 0)
(-0.00112045 -0.000365805 0)
(-0.000935818 -0.000354319 0)
(-0.000758225 -0.000336952 0)
(-0.000590647 -0.000312344 0)
(-0.000436569 -0.000279249 0)
(-0.000299879 -0.000236865 0)
(-0.00018453 -0.000185358 0)
(-9.39993e-05 -0.000126629 0)
(-3.19487e-05 -6.54664e-05 0)
(-4.28948e-06 -1.23187e-05 0)
(-4.99828e-06 2.14826e-05 0)
(-3.51531e-05 9.14832e-05 0)
(-0.000100961 0.000169647 0)
(-0.000195267 0.000245065 0)
(-0.000314012 0.000311994 0)
(-0.000453749 0.000367804 0)
(-0.000610652 0.000411974 0)
(-0.000780988 0.000445294 0)
(-0.000961412 0.000469236 0)
(-0.00114907 0.000485517 0)
(-0.00134164 0.000495823 0)
(-0.00153728 0.000501651 0)
(-0.00173461 0.000504237 0)
(-0.0019326 0.000504543 0)
(-0.00213051 0.000503279 0)
(-0.00232781 0.000500945 0)
(-0.00252413 0.000497877 0)
(-0.00271918 0.00049429 0)
(-0.00291278 0.000490316 0)
(-0.00310474 0.000486029 0)
(-0.00329494 0.00048147 0)
(-0.00348326 0.000476657 0)
(-0.00366958 0.000471598 0)
(-0.0038538 0.000466295 0)
(-0.00403582 0.000460746 0)
(-0.00421553 0.000454949 0)
(-0.00439284 0.000448903 0)
(-0.00456763 0.000442606 0)
(-0.0047398 0.000436057 0)
(-0.00490927 0.000429256 0)
(-0.00507592 0.000422204 0)
(-0.00523965 0.0004149 0)
(-0.00540038 0.000407346 0)
(-0.00555799 0.000399542 0)
(-0.00571239 0.00039149 0)
(-0.00586349 0.000383192 0)
(-0.00601119 0.00037465 0)
(-0.00615539 0.000365864 0)
(-0.006296 0.000356838 0)
(-0.00643293 0.000347573 0)
(-0.00656608 0.000338072 0)
(-0.00669538 0.000328337 0)
(-0.00682072 0.000318372 0)
(-0.00694201 0.000308177 0)
(-0.00705919 0.000297757 0)
(-0.00717215 0.000287115 0)
(-0.00728081 0.000276252 0)
(-0.0073851 0.000265174 0)
(-0.00748494 0.000253883 0)
(-0.00758023 0.000242382 0)
(-0.00767092 0.000230676 0)
(-0.00775691 0.000218768 0)
(-0.00783814 0.000206662 0)
(-0.00791454 0.000194363 0)
(-0.00798603 0.000181874 0)
(-0.00805255 0.000169202 0)
(-0.00811403 0.00015635 0)
(-0.00817041 0.000143324 0)
(-0.00822163 0.000130128 0)
(-0.00826762 0.000116769 0)
(-0.00830833 0.000103252 0)
(-0.0083437 8.95838e-05 0)
(-0.00837369 7.57698e-05 0)
(-0.00839824 6.18169e-05 0)
(-0.00841731 4.7732e-05 0)
(-0.00843085 3.35223e-05 0)
(-0.00843882 1.91952e-05 0)
(-0.00844118 4.75848e-06 0)
(-0.0084379 -9.77971e-06 0)
(-0.00842895 -2.4411e-05 0)
(-0.00841429 -3.91267e-05 0)
(-0.00839391 -5.39178e-05 0)
(-0.00836778 -6.87747e-05 0)
(-0.00833588 -8.3688e-05 0)
(-0.00829821 -9.86473e-05 0)
(-0.00825474 -0.000113642 0)
(-0.00820547 -0.000128663 0)
(-0.00815041 -0.000143696 0)
(-0.00808956 -0.000158733 0)
(-0.00802291 -0.00017376 0)
(-0.00795049 -0.000188765 0)
(-0.00787231 -0.000203737 0)
(-0.00778838 -0.000218662 0)
(-0.00769874 -0.000233527 0)
(-0.00760341 -0.000248319 0)
(-0.00750244 -0.000263024 0)
(-0.00739585 -0.000277628 0)
(-0.00728371 -0.000292118 0)
(-0.00716604 -0.000306478 0)
(-0.00704293 -0.000320695 0)
(-0.00691441 -0.000334753 0)
(-0.00678057 -0.000348638 0)
(-0.00664147 -0.000362334 0)
(-0.00649719 -0.000375827 0)
(-0.00634782 -0.000389102 0)
(-0.00619344 -0.000402143 0)
(-0.00603416 -0.000414935 0)
(-0.00587006 -0.000427464 0)
(-0.00570125 -0.000439715 0)
(-0.00552785 -0.000451673 0)
(-0.00534997 -0.000463324 0)
(-0.00516773 -0.000474655 0)
(-0.00498126 -0.000485653 0)
(-0.00479069 -0.000496304 0)
(-0.00459615 -0.000506598 0)
(-0.0043978 -0.000516523 0)
(-0.00419576 -0.000526066 0)
(-0.00399021 -0.000535214 0)
(-0.00378129 -0.000543949 0)
(-0.00356918 -0.000552246 0)
(-0.00335407 -0.000560065 0)
(-0.00313616 -0.000567339 0)
(-0.00291571 -0.00057396 0)
(-0.00269302 -0.000579758 0)
(-0.00246846 -0.000584466 0)
(-0.00224257 -0.000587687 0)
(-0.00201601 -0.000588846 0)
(-0.00178971 -0.000587148 0)
(-0.00156492 -0.000581531 0)
(-0.00134325 -0.000570648 0)
(-0.00112683 -0.000552873 0)
(-0.00091831 -0.000526367 0)
(-0.000720915 -0.000489224 0)
(-0.000538419 -0.000439735 0)
(-0.000375059 -0.000376802 0)
(-0.000235237 -0.000300566 0)
(-0.00012305 -0.000213219 0)
(-4.36494e-05 -0.000120095 0)
(-6.47921e-06 -3.19202e-05 0)
(-6.51989e-06 4.19878e-05 0)
(-4.3821e-05 0.00014778 0)
(-0.000123074 0.000257765 0)
(-0.000234306 0.000361166 0)
(-0.000372131 0.000452042 0)
(-0.000532481 0.000527692 0)
(-0.000711109 0.000587727 0)
(-0.000903995 0.000633259 0)
(-0.0011076 0.000666214 0)
(-0.00131891 0.000688833 0)
(-0.00153549 0.000703324 0)
(-0.00175539 0.000711665 0)
(-0.00197713 0.000715503 0)
(-0.00219961 0.000716131 0)
(-0.00242203 0.000714515 0)
(-0.00264378 0.000711345 0)
(-0.00286444 0.000707089 0)
(-0.00308371 0.000702053 0)
(-0.00330134 0.000696428 0)
(-0.00351714 0.000690326 0)
(-0.00373094 0.000683811 0)
(-0.00394261 0.000676916 0)
(-0.00415202 0.000669655 0)
(-0.00435903 0.000662035 0)
(-0.00456354 0.000654057 0)
(-0.00476542 0.00064572 0)
(-0.00496455 0.000637024 0)
(-0.00516081 0.000627967 0)
(-0.0053541 0.000618551 0)
(-0.0055443 0.000608774 0)
(-0.00573129 0.000598638 0)
(-0.00591496 0.000588144 0)
(-0.0060952 0.000577295 0)
(-0.00627191 0.000566091 0)
(-0.00644496 0.000554535 0)
(-0.00661425 0.000542631 0)
(-0.00677968 0.00053038 0)
(-0.00694113 0.000517786 0)
(-0.00709851 0.000504852 0)
(-0.00725171 0.000491582 0)
(-0.00740063 0.000477979 0)
(-0.00754517 0.000464048 0)
(-0.00768523 0.000449791 0)
(-0.00782071 0.000435213 0)
(-0.00795152 0.000420319 0)
(-0.00807756 0.000405114 0)
(-0.00819875 0.000389601 0)
(-0.00831498 0.000373786 0)
(-0.00842618 0.000357674 0)
(-0.00853225 0.00034127 0)
(-0.00863312 0.00032458 0)
(-0.00872869 0.000307609 0)
(-0.00881889 0.000290364 0)
(-0.00890364 0.000272851 0)
(-0.00898287 0.000255077 0)
(-0.00905649 0.000237047 0)
(-0.00912444 0.00021877 0)
(-0.00918665 0.000200253 0)
(-0.00924305 0.000181504 0)
(-0.00929358 0.00016253 0)
(-0.00933818 0.00014334 0)
(-0.00937678 0.000123942 0)
(-0.00940934 0.000104346 0)
(-0.00943579 8.4561e-05 0)
(-0.0094561 6.4597e-05 0)
(-0.0094702 4.44643e-05 0)
(-0.00947807 2.41733e-05 0)
(-0.00947966 3.73516e-06 0)
(-0.00947493 -1.68386e-05 0)
(-0.00946385 -3.75362e-05 0)
(-0.00944639 -5.83453e-05 0)
(-0.00942253 -7.9253e-05 0)
(-0.00939225 -0.000100246 0)
(-0.00935552 -0.000121311 0)
(-0.00931234 -0.000142433 0)
(-0.0092627 -0.000163599 0)
(-0.00920659 -0.000184792 0)
(-0.00914401 -0.000205997 0)
(-0.00907497 -0.000227199 0)
(-0.00899948 -0.00024838 0)
(-0.00891756 -0.000269525 0)
(-0.00882921 -0.000290614 0)
(-0.00873448 -0.000311632 0)
(-0.00863338 -0.000332559 0)
(-0.00852596 -0.000353376 0)
(-0.00841226 -0.000374066 0)
(-0.00829232 -0.000394609 0)
(-0.00816619 -0.000414984 0)
(-0.00803394 -0.000435173 0)
(-0.00789563 -0.000455154 0)
(-0.00775133 -0.000474908 0)
(-0.0076011 -0.000494414 0)
(-0.00744505 -0.00051365 0)
(-0.00728325 -0.000532597 0)
(-0.0071158 -0.000551233 0)
(-0.00694279 -0.000569538 0)
(-0.00676434 -0.00058749 0)
(-0.00658055 -0.000605069 0)
(-0.00639155 -0.000622255 0)
(-0.00619745 -0.000639027 0)
(-0.0059984 -0.000655366 0)
(-0.00579451 -0.000671253 0)
(-0.00558594 -0.000686669 0)
(-0.00537283 -0.000701596 0)
(-0.00515533 -0.000716018 0)
(-0.00493361 -0.000729916 0)
(-0.00470782 -0.000743273 0)
(-0.00447814 -0.000756066 0)
(-0.00424475 -0.000768268 0)
(-0.00400785 -0.000779839 0)
(-0.00376764 -0.000790718 0)
(-0.00352438 -0.000800804 0)
(-0.00327833 -0.000809942 0)
(-0.00302985 -0.000817886 0)
(-0.00277937 -0.00082426 0)
(-0.00252745 -0.000828514 0)
(-0.00227485 -0.000829859 0)
(-0.00202257 -0.000827213 0)
(-0.00177192 -0.000819153 0)
(-0.00152466 -0.000803883 0)
(-0.001283 -0.000779257 0)
(-0.00104975 -0.000742868 0)
(-0.000828276 -0.000692237 0)
(-0.000622576 -0.000625132 0)
(-0.000437186 -0.000540048 0)
(-0.000276959 -0.000436874 0)
(-0.000146665 -0.000317699 0)
(-5.28801e-05 -0.000187751 0)
(-8.09107e-06 -5.70968e-05 0)
(-7.6244e-06 6.6517e-05 0)
(-5.05119e-05 0.000213894 0)
(-0.00014063 0.000359641 0)
(-0.000265731 0.000493625 0)
(-0.000419264 0.000610156 0)
(-0.000596539 0.000706781 0)
(-0.000792891 0.000783459 0)
(-0.00100403 0.000841755 0)
(-0.00122625 0.000884129 0)
(-0.00145643 0.000913381 0)
(-0.00169204 0.000932269 0)
(-0.0019311 0.000943262 0)
(-0.00217206 0.000948426 0)
(-0.00241378 0.000949396 0)
(-0.00265541 0.0009474 0)
(-0.00289632 0.000943321 0)
(-0.00313606 0.000937768 0)
(-0.00337429 0.000931142 0)
(-0.00361074 0.000923697 0)
(-0.00384519 0.000915588 0)
(-0.00407747 0.000906903 0)
(-0.00430741 0.000897692 0)
(-0.00453488 0.000887978 0)
(-0.00475972 0.000877775 0)
(-0.00498181 0.000867086 0)
(-0.005201 0.000855914 0)
(-0.00541719 0.000844259 0)
(-0.00563022 0.000832122 0)
(-0.00583999 0.000819504 0)
(-0.00604636 0.000806406 0)
(-0.00624921 0.000792829 0)
(-0.00644842 0.000778778 0)
(-0.00664386 0.000764253 0)
(-0.00683542 0.000749259 0)
(-0.00702298 0.000733799 0)
(-0.00720642 0.000717878 0)
(-0.00738561 0.000701498 0)
(-0.00756046 0.000684666 0)
(-0.00773085 0.000667385 0)
(-0.00789666 0.000649661 0)
(-0.00805778 0.000631499 0)
(-0.00821411 0.000612904 0)
(-0.00836554 0.000593883 0)
(-0.00851197 0.00057444 0)
(-0.0086533 0.000554582 0)
(-0.00878942 0.000534315 0)
(-0.00892023 0.000513646 0)
(-0.00904564 0.000492582 0)
(-0.00916556 0.00047113 0)
(-0.00927989 0.000449298 0)
(-0.00938854 0.000427092 0)
(-0.00949143 0.000404522 0)
(-0.00958846 0.000381594 0)
(-0.00967956 0.000358319 0)
(-0.00976465 0.000334705 0)
(-0.00984364 0.00031076 0)
(-0.00991646 0.000286495 0)
(-0.00998304 0.000261921 0)
(-0.0100433 0.000237046 0)
(-0.0100972 0.000211882 0)
(-0.0101446 0.00018644 0)
(-0.0101856 0.000160733 0)
(-0.01022 0.000134771 0)
(-0.0102477 0.000108568 0)
(-0.0102688 8.21372e-05 0)
(-0.0102832 5.54916e-05 0)
(-0.0102908 2.86456e-05 0)
(-0.0102916 1.61372e-06 0)
(-0.0102856 -2.55887e-05 0)
(-0.0102727 -5.29461e-05 0)
(-0.0102529 -8.0442e-05 0)
(-0.0102262 -0.00010806 0)
(-0.0101925 -0.000135781 0)
(-0.0101519 -0.000163589 0)
(-0.0101043 -0.000191465 0)
(-0.0100497 -0.000219389 0)
(-0.0099881 -0.000247342 0)
(-0.00991954 -0.000275303 0)
(-0.00984401 -0.000303251 0)
(-0.00976152 -0.000331164 0)
(-0.00967208 -0.000359022 0)
(-0.00957573 -0.0003868 0)
(-0.00947248 -0.000414476 0)
(-0.00936238 -0.000442026 0)
(-0.00924547 -0.000469425 0)
(-0.00912178 -0.00049665 0)
(-0.00899138 -0.000523674 0)
(-0.00885432 -0.000550473 0)
(-0.00871066 -0.00057702 0)
(-0.00856048 -0.00060329 0)
(-0.00840385 -0.000629255 0)
(-0.00824085 -0.000654889 0)
(-0.00807158 -0.000680164 0)
(-0.00789613 -0.000705055 0)
(-0.0077146 -0.000729533 0)
(-0.0075271 -0.000753571 0)
(-0.00733375 -0.000777143 0)
(-0.00713466 -0.000800222 0)
(-0.00692997 -0.00082278 0)
(-0.00671981 -0.000844793 0)
(-0.00650432 -0.000866233 0)
(-0.00628364 -0.000887077 0)
(-0.00605793 -0.000907299 0)
(-0.00582735 -0.000926876 0)
(-0.00559206 -0.000945784 0)
(-0.00535223 -0.000964 0)
(-0.00510805 -0.000981496 0)
(-0.0048597 -0.000998243 0)
(-0.00460738 -0.0010142 0)
(-0.0043513 -0.00102931 0)
(-0.0040917 -0.00104349 0)
(-0.00382884 -0.00105661 0)
(-0.00356302 -0.00106845 0)
(-0.00329462 -0.00107868 0)
(-0.0030241 -0.00108683 0)
(-0.00275207 -0.00109217 0)
(-0.00247931 -0.0010937 0)
(-0.00220687 -0.00109005 0)
(-0.00193613 -0.00107941 0)
(-0.00166887 -0.00105954 0)
(-0.00140741 -0.00102776 0)
(-0.0011546 -0.000981069 0)
(-0.000913962 -0.000916369 0)
(-0.000689647 -0.000830829 0)
(-0.000486485 -0.000722398 0)
(-0.000309776 -0.000590484 0)
(-0.000164945 -0.000436717 0)
(-5.98028e-05 -0.00026575 0)
(-9.21495e-06 -8.64763e-05 0)
(-8.39755e-06 9.40433e-05 0)
(-5.54745e-05 0.000287645 0)
(-0.000154012 0.00047246 0)
(-0.000290054 0.000639242 0)
(-0.000456102 0.000782852 0)
(-0.000646905 0.000901345 0)
(-0.000857403 0.000995216 0)
(-0.00108305 0.00106662 0)
(-0.00131997 0.00111862 0)
(-0.00156497 0.00115464 0)
(-0.00181547 0.001178 0)
(-0.00206942 0.00119169 0)
(-0.00232528 0.00119819 0)
(-0.00258188 0.00119948 0)
(-0.00283834 0.00119706 0)
(-0.00309402 0.001192 0)
(-0.00334845 0.00118506 0)
(-0.00360128 0.00117673 0)
(-0.0038522 0.00116733 0)
(-0.00410101 0.00115706 0)
(-0.00434749 0.00114604 0)
(-0.00459149 0.00113432 0)
(-0.00483283 0.00112196 0)
(-0.00507138 0.00110896 0)
(-0.00530697 0.00109534 0)
(-0.00553948 0.0010811 0)
(-0.00576875 0.00106624 0)
(-0.00599466 0.00105077 0)
(-0.00621708 0.00103469 0)
(-0.00643585 0.001018 0)
(-0.00665086 0.0010007 0)
(-0.00686198 0.000982797 0)
(-0.00706907 0.000964298 0)
(-0.007272 0.000945207 0)
(-0.00747066 0.000925527 0)
(-0.00766491 0.000905265 0)
(-0.00785464 0.000884427 0)
(-0.00803972 0.000863018 0)
(-0.00822003 0.000841045 0)
(-0.00839546 0.000818516 0)
(-0.00856589 0.000795436 0)
(-0.00873121 0.000771813 0)
(-0.0088913 0.000747654 0)
(-0.00904606 0.000722968 0)
(-0.00919538 0.000697763 0)
(-0.00933915 0.000672047 0)
(-0.00947728 0.000645828 0)
(-0.00960965 0.000619117 0)
(-0.00973617 0.000591921 0)
(-0.00985674 0.000564251 0)
(-0.00997128 0.000536117 0)
(-0.0100797 0.000507529 0)
(-0.0101819 0.000478499 0)
(-0.0102777 0.000449036 0)
(-0.0103672 0.000419153 0)
(-0.0104502 0.000388861 0)
(-0.0105267 0.000358174 0)
(-0.0105965 0.000327103 0)
(-0.0106597 0.000295662 0)
(-0.010716 0.000263866 0)
(-0.0107656 0.000231728 0)
(-0.0108082 0.000199263 0)
(-0.0108439 0.000166487 0)
(-0.0108726 0.000133416 0)
(-0.0108942 0.000100066 0)
(-0.0109087 6.64555e-05 0)
(-0.010916 3.26012e-05 0)
(-0.0109161 -1.47817e-06 0)
(-0.010909 -3.57633e-05 0)
(-0.0108947 -7.02344e-05 0)
(-0.010873 -0.000104871 0)
(-0.010844 -0.000139652 0)
(-0.0108076 -0.000174555 0)
(-0.0107639 -0.000209557 0)
(-0.0107129 -0.000244636 0)
(-0.0106544 -0.000279768 0)
(-0.0105886 -0.000314927 0)
(-0.0105154 -0.000350088 0)
(-0.0104348 -0.000385224 0)
(-0.0103469 -0.00042031 0)
(-0.0102517 -0.000455317 0)
(-0.0101492 -0.000490217 0)
(-0.0100393 -0.000524981 0)
(-0.00992231 -0.00055958 0)
(-0.00979809 -0.000593983 0)
(-0.00966672 -0.00062816 0)
(-0.00952828 -0.000662079 0)
(-0.00938282 -0.000695709 0)
(-0.00923041 -0.000729018 0)
(-0.00907112 -0.000761972 0)
(-0.00890504 -0.000794539 0)
(-0.00873225 -0.000826685 0)
(-0.00855285 -0.000858378 0)
(-0.00836695 -0.000889583 0)
(-0.00817464 -0.000920266 0)
(-0.00797605 -0.000950395 0)
(-0.00777129 -0.000979935 0)
(-0.0075605 -0.00100885 0)
(-0.00734381 -0.00103712 0)
(-0.00712136 -0.00106469 0)
(-0.00689331 -0.00109154 0)
(-0.00665979 -0.00111765 0)
(-0.00642099 -0.00114297 0)
(-0.00617706 -0.00116748 0)
(-0.00592817 -0.00119114 0)
(-0.00567453 -0.00121393 0)
(-0.0054163 -0.00123581 0)
(-0.0051537 -0.00125675 0)
(-0.00488693 -0.00127668 0)
(-0.00461622 -0.00129553 0)
(-0.00434181 -0.00131319 0)
(-0.004064 -0.0013295 0)
(-0.00378309 -0.00134418 0)
(-0.00349948 -0.00135682 0)
(-0.00321366 -0.00136683 0)
(-0.00292624 -0.00137332 0)
(-0.00263804 -0.00137508 0)
(-0.00235013 -0.00137042 0)
(-0.00206391 -0.00135717 0)
(-0.0017812 -0.00133262 0)
(-0.00150433 -0.00129355 0)
(-0.00123624 -0.00123633 0)
(-0.000980538 -0.0011572 0)
(-0.000741541 -0.00105264 0)