/*--------------------------------*- C++ -*----------------------------------*\
| =========                 |                                                 |
| \\      /  F ield         | OpenFOAM: The Open Source CFD Toolbox           |
|  \\    /   O peration     | Version:  2112                                  |
|   \\  /    A nd           | Website:  www.openfoam.com                      |
|    \\/     M anipulation  |                                                 |
\*---------------------------------------------------------------------------*/
FoamFile
{
    version     2.0;
    format      ascii;
    arch        "LSB;label=32;scalar=64";
    class       volScalarField;
    location    "6";
    object      p;
}
// * * * * * * * * * * * * * * * * * * * * * * * * * * * * * * * * * * * * * //

dimensions      [0 2 -2 0 0 0 0];

internalField   nonuniform List<scalar> 
25600
(
4.0176e-14
5.88807e-14
6.32541e-14
6.37659e-14
6.40966e-14
6.44108e-14
6.46712e-14
6.48847e-14
6.50783e-14
6.5266e-14
6.54426e-14
6.57117e-14
6.58758e-14
6.61099e-14
6.62837e-14
6.65049e-14
6.67803e-14
6.70423e-14
6.73615e-14
6.76518e-14
6.78955e-14
6.8168e-14
6.84368e-14
6.87194e-14
6.90001e-14
6.92012e-14
6.93732e-14
6.96658e-14
6.99333e-14
7.01056e-14
7.02416e-14
7.04256e-14
7.06406e-14
7.08744e-14
7.10445e-14
7.12531e-14
7.14485e-14
7.17367e-14
7.19698e-14
7.20654e-14
7.22542e-14
7.24823e-14
7.2763e-14
7.30188e-14
7.31838e-14
7.35046e-14
7.38144e-14
7.41194e-14
7.44989e-14
7.48834e-14
7.52415e-14
7.54615e-14
7.57746e-14
7.61252e-14
7.63973e-14
7.6802e-14
7.70801e-14
7.73749e-14
7.76642e-14
7.78919e-14
7.82667e-14
7.84571e-14
7.86609e-14
7.89045e-14
7.90948e-14
7.94425e-14
7.96491e-14
7.97394e-14
7.98158e-14
7.99971e-14
8.02388e-14
8.03776e-14
8.04888e-14
8.05166e-14
8.04864e-14
8.06044e-14
8.06386e-14
8.05383e-14
8.05669e-14
8.06146e-14
8.07551e-14
8.07965e-14
8.05073e-14
8.03398e-14
8.02891e-14
8.04254e-14
8.05655e-14
8.0373e-14
8.00645e-14
7.99405e-14
8.01478e-14
8.02881e-14
8.00638e-14
7.98246e-14
7.99849e-14
8.01128e-14
7.98911e-14
7.96962e-14
7.94472e-14
7.94552e-14
7.96417e-14
7.93549e-14
7.90789e-14
7.87434e-14
7.86279e-14
7.85659e-14
7.84274e-14
7.81116e-14
7.78276e-14
7.77428e-14
7.76892e-14
7.77713e-14
7.73353e-14
7.70007e-14
7.71158e-14
7.71774e-14
7.70144e-14
7.65061e-14
7.61023e-14
7.60652e-14
7.60237e-14
7.58444e-14
7.53893e-14
7.49041e-14
7.47495e-14
7.47409e-14
7.45385e-14
7.39985e-14
7.34593e-14
7.32857e-14
7.31364e-14
7.28175e-14
7.21867e-14
7.17448e-14
7.15357e-14
7.12144e-14
7.08976e-14
7.04583e-14
7.00261e-14
6.97291e-14
6.94597e-14
6.91208e-14
6.86696e-14
6.82899e-14
6.81084e-14
6.78537e-14
6.76722e-14
6.73821e-14
6.70433e-14
6.66793e-14
6.64161e-14
6.64984e-14
6.62979e-14
6.57678e-14
6.54383e-14
6.5282e-14
6.53264e-14
6.52481e-14
6.49378e-14
6.47728e-14
6.46741e-14
6.49757e-14
6.49323e-14
6.46441e-14
6.47126e-14
6.44375e-14
6.44237e-14
6.43369e-14
6.39687e-14
6.3897e-14
6.38249e-14
6.39756e-14
6.38467e-14
6.37531e-14
6.37111e-14
6.35381e-14
6.34207e-14
6.31065e-14
6.32735e-14
6.33168e-14
6.30384e-14
6.33421e-14
6.32369e-14
6.31444e-14
6.31257e-14
6.2827e-14
6.31205e-14
6.30278e-14
6.28926e-14
6.31114e-14
6.29123e-14
6.30114e-14
6.30805e-14
6.28452e-14
6.31208e-14
6.32184e-14
6.33159e-14
6.31573e-14
6.29416e-14
6.35665e-14
6.36487e-14
6.38017e-14
6.36307e-14
6.34199e-14
6.41225e-14
6.44524e-14
6.42631e-14
6.39125e-14
6.41018e-14
6.48864e-14
6.54094e-14
6.52925e-14
6.48896e-14
6.55706e-14
6.61647e-14
6.57288e-14
6.61849e-14
6.69274e-14
6.71413e-14
6.70854e-14
6.65543e-14
6.70112e-14
6.77934e-14
6.79687e-14
6.7831e-14
6.72663e-14
6.77129e-14
6.81257e-14
6.81682e-14
6.82656e-14
6.79137e-14
6.81792e-14
6.83814e-14
6.84076e-14
6.86858e-14
6.84027e-14
6.84605e-14
6.8637e-14
6.86806e-14
6.88657e-14
6.85019e-14
6.86671e-14
6.87275e-14
6.86256e-14
6.89218e-14
6.84603e-14
6.7934e-14
6.77877e-14
6.80201e-14
6.81926e-14
6.76086e-14
6.75698e-14
6.76203e-14
6.75238e-14
6.75711e-14
6.69049e-14
6.68584e-14
6.68106e-14
6.6678e-14
6.68749e-14
6.63918e-14
6.62266e-14
6.6213e-14
6.59519e-14
6.58112e-14
6.51409e-14
6.48989e-14
6.49775e-14
6.49279e-14
6.47907e-14
6.42078e-14
6.39534e-14
6.39195e-14
6.38625e-14
6.38448e-14
6.34368e-14
6.33254e-14
6.33645e-14
6.29597e-14
6.29024e-14
6.2652e-14
6.24495e-14
6.25224e-14
6.24039e-14
6.24099e-14
6.20269e-14
6.16195e-14
6.17485e-14
6.20632e-14
6.20056e-14
6.14745e-14
6.14696e-14
6.18365e-14
6.2076e-14
6.17621e-14
6.14674e-14
6.17863e-14
6.19477e-14
6.22591e-14
6.20161e-14
6.16754e-14
6.20024e-14
6.22818e-14
6.27714e-14
6.28473e-14
6.25713e-14
6.24178e-14
6.23162e-14
6.26656e-14
6.25866e-14
6.24396e-14
6.23993e-14
6.20024e-14
6.22804e-14
6.23938e-14
6.20595e-14
6.20653e-14
6.18418e-14
6.17458e-14
5.79353e-14
5.80724e-14
6.16925e-14
6.31316e-14
6.36747e-14
6.39916e-14
6.42471e-14
6.45755e-14
6.48343e-14
6.50039e-14
6.52371e-14
6.54331e-14
6.56557e-14
6.5844e-14
6.61197e-14
6.62432e-14
6.64666e-14
6.67729e-14
6.70505e-14
6.72849e-14
6.76257e-14
6.7915e-14
6.81822e-14
6.84365e-14
6.86176e-14
6.8918e-14
6.92741e-14
6.9485e-14
6.96806e-14
6.9845e-14
7.00955e-14
7.02756e-14
7.04727e-14
7.06625e-14
7.0854e-14
7.10393e-14
7.13119e-14
7.14825e-14
7.1706e-14
7.20369e-14
7.2089e-14
7.22506e-14
7.24442e-14
7.27066e-14
7.30379e-14
7.32565e-14
7.34713e-14
7.37483e-14
7.41419e-14
7.44992e-14
7.48858e-14
7.51723e-14
7.55075e-14
7.58345e-14
7.61916e-14
7.64884e-14
7.67006e-14
7.70424e-14
7.73695e-14
7.77299e-14
7.79645e-14
7.82244e-14
7.84505e-14
7.86659e-14
7.8951e-14
7.91198e-14
7.94522e-14
7.96781e-14
7.97289e-14
7.98665e-14
8.00751e-14
8.02523e-14
8.03351e-14
8.04845e-14
8.05151e-14
8.05358e-14
8.05628e-14
8.05793e-14
8.06142e-14
8.05996e-14
8.06598e-14
8.07588e-14
8.07119e-14
8.05099e-14
8.03892e-14
8.03974e-14
8.04585e-14
8.0398e-14
8.03083e-14
8.02543e-14
8.00444e-14
8.01235e-14
8.01549e-14
8.00538e-14
7.99465e-14
7.9968e-14
7.9931e-14
7.98603e-14
7.97706e-14
7.96066e-14
7.95089e-14
7.94638e-14
7.92585e-14
7.90691e-14
7.88521e-14
7.86553e-14
7.84776e-14
7.83299e-14
7.8232e-14
7.78898e-14
7.7652e-14
7.76671e-14
7.76005e-14
7.73808e-14
7.72449e-14
7.71303e-14
7.70536e-14
7.69182e-14
7.66047e-14
7.61694e-14
7.60318e-14
7.60298e-14
7.5782e-14
7.54677e-14
7.50685e-14
7.47822e-14
7.46496e-14
7.44582e-14
7.40522e-14
7.35774e-14
7.33164e-14
7.30792e-14
7.27759e-14
7.22582e-14
7.17638e-14
7.14871e-14
7.11433e-14
7.08893e-14
7.05541e-14
7.00424e-14
6.96833e-14
6.94871e-14
6.91198e-14
6.86921e-14
6.82829e-14
6.80295e-14
6.78528e-14
6.75731e-14
6.7206e-14
6.70747e-14
6.68148e-14
6.65125e-14
6.63299e-14
6.60582e-14
6.58213e-14
6.55731e-14
6.53713e-14
6.52719e-14
6.5228e-14
6.49759e-14
6.47953e-14
6.47743e-14
6.48924e-14
6.48686e-14
6.46934e-14
6.46795e-14
6.45225e-14
6.42841e-14
6.41659e-14
6.40761e-14
6.39818e-14
6.39263e-14
6.37744e-14
6.37844e-14
6.36881e-14
6.35761e-14
6.36564e-14
6.35152e-14
6.3286e-14
6.31754e-14
6.30895e-14
6.32451e-14
6.3313e-14
6.31625e-14
6.3046e-14
6.30227e-14
6.30646e-14
6.3075e-14
6.30052e-14
6.29386e-14
6.28317e-14
6.29241e-14
6.30066e-14
6.30111e-14
6.30638e-14
6.29945e-14
6.30698e-14
6.31749e-14
6.33444e-14
6.33654e-14
6.33593e-14
6.34666e-14
6.36485e-14
6.37863e-14
6.38395e-14
6.39623e-14
6.40771e-14
6.41168e-14
6.42494e-14
6.44536e-14
6.46636e-14
6.49665e-14
6.51921e-14
6.52598e-14
6.55918e-14
6.58753e-14
6.6099e-14
6.64346e-14
6.65741e-14
6.68133e-14
6.70794e-14
6.70264e-14
6.72359e-14
6.75113e-14
6.76818e-14
6.77711e-14
6.76878e-14
6.78842e-14
6.80055e-14
6.81485e-14
6.81007e-14
6.79636e-14
6.81365e-14
6.83152e-14
6.84729e-14
6.86393e-14
6.85925e-14
6.85844e-14
6.84726e-14
6.85111e-14
6.86958e-14
6.87496e-14
6.88164e-14
6.87527e-14
6.86072e-14
6.86507e-14
6.84372e-14
6.81809e-14
6.80127e-14
6.79782e-14
6.79409e-14
6.76234e-14
6.7655e-14
6.7743e-14
6.76123e-14
6.73467e-14
6.69324e-14
6.6964e-14
6.69388e-14
6.67322e-14
6.66354e-14
6.6469e-14
6.6383e-14
6.62205e-14
6.58978e-14
6.56828e-14
6.52649e-14
6.51274e-14
6.49061e-14
6.47563e-14
6.4703e-14
6.43203e-14
6.40243e-14
6.37639e-14
6.37939e-14
6.38226e-14
6.34642e-14
6.33858e-14
6.31596e-14
6.30435e-14
6.29603e-14
6.27132e-14
6.25902e-14
6.23844e-14
6.23026e-14
6.2298e-14
6.19665e-14
6.18368e-14
6.18796e-14
6.19239e-14
6.18307e-14
6.15116e-14
6.16748e-14
6.18405e-14
6.17535e-14
6.1756e-14
6.16566e-14
6.17552e-14
6.19967e-14
6.19726e-14
6.20307e-14
6.19322e-14
6.20258e-14
6.23484e-14
6.26155e-14
6.2606e-14
6.24502e-14
6.24947e-14
6.2592e-14
6.26346e-14
6.25495e-14
6.23418e-14
6.231e-14
6.21052e-14
6.20853e-14
6.21958e-14
6.21223e-14
6.20282e-14
6.17851e-14
6.16246e-14
6.07628e-14
6.13885e-14
6.22493e-14
6.29815e-14
6.35764e-14
6.38952e-14
6.40997e-14
6.45149e-14
6.48309e-14
6.50054e-14
6.51515e-14
6.53511e-14
6.56502e-14
6.58514e-14
6.61e-14
6.62535e-14
6.64497e-14
6.68125e-14
6.70657e-14
6.72388e-14
6.76897e-14
6.79331e-14
6.82042e-14
6.84208e-14
6.85812e-14
6.89253e-14
6.92845e-14
6.95149e-14
6.97067e-14
6.98602e-14
7.01201e-14
7.03387e-14
7.05252e-14
7.06504e-14
7.08609e-14
7.10965e-14
7.13416e-14
7.15125e-14
7.16859e-14
7.21085e-14
7.21567e-14
7.22435e-14
7.24405e-14
7.27149e-14
7.30204e-14
7.32576e-14
7.34631e-14
7.37841e-14
7.41449e-14
7.44827e-14
7.48015e-14
7.51111e-14
7.55656e-14
7.59636e-14
7.62766e-14
7.64622e-14
7.66813e-14
7.70971e-14
7.73632e-14
7.77155e-14
7.79642e-14
7.82375e-14
7.85567e-14
7.86884e-14
7.88607e-14
7.92288e-14
7.95364e-14
7.96721e-14
7.97731e-14
7.99357e-14
8.01356e-14
8.02834e-14
8.03418e-14
8.05053e-14
8.05936e-14
8.05527e-14
8.04939e-14
8.04943e-14
8.06763e-14
8.075e-14
8.07403e-14
8.07777e-14
8.06321e-14
8.05702e-14
8.04721e-14
8.04399e-14
8.04712e-14
8.0316e-14
8.02133e-14
8.02482e-14
8.01311e-14
8.00058e-14
8.01307e-14
8.01839e-14
8.00059e-14
7.99219e-14
7.98678e-14
7.98657e-14
7.97675e-14
7.96617e-14
7.96194e-14
7.9447e-14
7.92649e-14
7.90211e-14
7.88356e-14
7.86294e-14
7.8428e-14
7.82879e-14
7.8235e-14
7.79176e-14
7.76378e-14
7.75625e-14
7.7483e-14
7.74473e-14
7.73938e-14
7.70833e-14
7.69529e-14
7.69854e-14
7.67008e-14
7.6164e-14
7.59627e-14
7.58892e-14
7.57867e-14
7.54692e-14
7.52344e-14
7.49287e-14
7.47073e-14
7.44456e-14
7.40729e-14
7.37183e-14
7.34614e-14
7.31849e-14
7.26798e-14
7.22776e-14
7.1825e-14
7.14199e-14
7.11902e-14
7.09351e-14
7.05291e-14
6.9975e-14
6.96931e-14
6.94969e-14
6.91109e-14
6.86492e-14
6.82409e-14
6.80531e-14
6.77366e-14
6.74823e-14
6.71885e-14
6.71089e-14
6.69085e-14
6.65662e-14
6.61795e-14
6.59786e-14
6.5767e-14
6.56354e-14
6.54269e-14
6.52647e-14
6.51592e-14
6.49536e-14
6.48341e-14
6.48102e-14
6.47952e-14
6.48819e-14
6.47718e-14
6.46514e-14
6.45275e-14
6.42689e-14
6.41565e-14
6.41638e-14
6.40361e-14
6.38878e-14
6.38269e-14
6.38338e-14
6.35633e-14
6.34067e-14
6.35109e-14
6.35026e-14
6.34181e-14
6.31653e-14
6.29514e-14
6.31758e-14
6.32171e-14
6.31559e-14
6.31111e-14
6.3095e-14
6.31614e-14
6.30516e-14
6.29727e-14
6.29023e-14
6.27458e-14
6.29296e-14
6.29954e-14
6.30104e-14
6.30787e-14
6.29047e-14
6.29769e-14
6.31339e-14
6.33646e-14
6.3568e-14
6.33218e-14
6.34548e-14
6.35507e-14
6.38519e-14
6.399e-14
6.39061e-14
6.39315e-14
6.40406e-14
6.42803e-14
6.44992e-14
6.46128e-14
6.47594e-14
6.51053e-14
6.53477e-14
6.55901e-14
6.59682e-14
6.62701e-14
6.64543e-14
6.64288e-14
6.66781e-14
6.71366e-14
6.73059e-14
6.7399e-14
6.73549e-14
6.75837e-14
6.77566e-14
6.78967e-14
6.80299e-14
6.80293e-14
6.81501e-14
6.79709e-14
6.79463e-14
6.81365e-14
6.82956e-14
6.85547e-14
6.85825e-14
6.85918e-14
6.86104e-14
6.83956e-14
6.85546e-14
6.86765e-14
6.86759e-14
6.88822e-14
6.88963e-14
6.8734e-14
6.84646e-14
6.83203e-14
6.83482e-14
6.82376e-14
6.80025e-14
6.78975e-14
6.78354e-14
6.77643e-14
6.7642e-14
6.7549e-14
6.74251e-14
6.71025e-14
6.69942e-14
6.68621e-14
6.67567e-14
6.67228e-14
6.66954e-14
6.64783e-14
6.61102e-14
6.57904e-14
6.56983e-14
6.5321e-14
6.53038e-14
6.49139e-14
6.47024e-14
6.46545e-14
6.43095e-14
6.39732e-14
6.37167e-14
6.37693e-14
6.38241e-14
6.3383e-14
6.33256e-14
6.31728e-14
6.31129e-14
6.30495e-14
6.26267e-14
6.26199e-14
6.23799e-14
6.21588e-14
6.22388e-14
6.19441e-14
6.1897e-14
6.20041e-14
6.18978e-14
6.17247e-14
6.15039e-14
6.15869e-14
6.1777e-14
6.17379e-14
6.18121e-14
6.16921e-14
6.17574e-14
6.20302e-14
6.18953e-14
6.20784e-14
6.21761e-14
6.22143e-14
6.24154e-14
6.24111e-14
6.24069e-14
6.23337e-14
6.27127e-14
6.28364e-14
6.26564e-14
6.24602e-14
6.21042e-14
6.22051e-14
6.22312e-14
6.19541e-14
6.21746e-14
6.20783e-14
6.20268e-14
6.18565e-14
6.14847e-14
6.14133e-14
6.18412e-14
6.25452e-14
6.28227e-14
6.33816e-14
6.38814e-14
6.40034e-14
6.43846e-14
6.47728e-14
6.49345e-14
6.50509e-14
6.52403e-14
6.56899e-14
6.59032e-14
6.60914e-14
6.62059e-14
6.64698e-14
6.68746e-14
6.70018e-14
6.72468e-14
6.76975e-14
6.79395e-14
6.83034e-14
6.85194e-14
6.86542e-14
6.90568e-14
6.94333e-14
6.94977e-14
6.96971e-14
6.98019e-14
7.01998e-14
7.03999e-14
7.04469e-14
7.07027e-14
7.09652e-14
7.1187e-14
7.13255e-14
7.14846e-14
7.18e-14
7.20597e-14
7.21363e-14
7.2314e-14
7.24212e-14
7.26751e-14
7.30631e-14
7.31648e-14
7.34838e-14
7.38661e-14
7.42343e-14
7.44767e-14
7.48027e-14
7.51347e-14
7.55535e-14
7.60895e-14
7.62266e-14
7.64549e-14
7.67815e-14
7.70923e-14
7.73355e-14
7.77486e-14
7.79773e-14
7.82479e-14
7.85366e-14
7.86662e-14
7.90354e-14
7.94191e-14
7.96424e-14
7.97374e-14
7.97733e-14
8.00229e-14
8.02322e-14
8.03629e-14
8.03163e-14
8.04817e-14
8.0587e-14
8.05527e-14
8.05411e-14
8.05801e-14
8.06694e-14
8.07499e-14
8.07871e-14
8.08631e-14
8.05653e-14
8.06323e-14
8.035e-14
8.04057e-14
8.05574e-14
8.05369e-14
8.0217e-14
8.02328e-14
8.01486e-14
7.98558e-14
7.99937e-14
8.01681e-14
8.01245e-14
7.99946e-14
7.99461e-14
7.9879e-14
7.96262e-14
7.97151e-14
7.95634e-14
7.948e-14
7.92619e-14
7.89511e-14
7.88007e-14
7.87294e-14
7.85257e-14
7.83548e-14
7.81792e-14
7.77495e-14
7.76502e-14
7.73522e-14
7.73599e-14
7.74646e-14
7.73725e-14
7.71458e-14
7.7013e-14
7.68321e-14
7.66898e-14
7.63199e-14
7.60869e-14
7.57879e-14
7.55605e-14
7.5477e-14
7.52699e-14
7.50197e-14
7.49311e-14
7.45586e-14
7.40955e-14
7.3903e-14
7.35091e-14
7.31443e-14
7.27029e-14
7.23698e-14
7.18987e-14
7.12933e-14
7.11106e-14
7.08872e-14
7.05392e-14
7.00355e-14
6.96878e-14
6.94211e-14
6.90668e-14
6.85407e-14
6.83318e-14
6.80206e-14
6.76372e-14
6.74693e-14
6.71253e-14
6.70978e-14
6.69498e-14
6.64837e-14
6.60244e-14
6.61393e-14
6.58297e-14
6.55868e-14
6.54967e-14
6.51698e-14
6.49206e-14
6.49217e-14
6.49252e-14
6.48571e-14
6.47123e-14
6.47936e-14
6.47571e-14
6.47717e-14
6.45985e-14
6.42903e-14
6.40918e-14
6.41361e-14
6.41382e-14
6.40411e-14
6.39981e-14
6.37098e-14
6.3478e-14
6.34603e-14
6.34048e-14
6.34353e-14
6.33817e-14
6.312e-14
6.28021e-14
6.30838e-14
6.32169e-14
6.32476e-14
6.33329e-14
6.30379e-14
6.29992e-14
6.29587e-14
6.28661e-14
6.27642e-14
6.27738e-14
6.2999e-14
6.29227e-14
6.29988e-14
6.31072e-14
6.29905e-14
6.30414e-14
6.3187e-14
6.32494e-14
6.33452e-14
6.33631e-14
6.3442e-14
6.3525e-14
6.38339e-14
6.40397e-14
6.38578e-14
6.39489e-14
6.40238e-14
6.41392e-14
6.42851e-14
6.4594e-14
6.4894e-14
6.5118e-14
6.53834e-14
6.56226e-14
6.59505e-14
6.6144e-14
6.64298e-14
6.66592e-14
6.67834e-14
6.71219e-14
6.74123e-14
6.74784e-14
6.74586e-14
6.74836e-14
6.77829e-14
6.79882e-14
6.81421e-14
6.81341e-14
6.82127e-14
6.81631e-14
6.80153e-14
6.81584e-14
6.82795e-14
6.84443e-14
6.83953e-14
6.85691e-14
6.89129e-14
6.85518e-14
6.83369e-14
6.8565e-14
6.89749e-14
6.89796e-14
6.876e-14
6.87577e-14
6.85785e-14
6.84539e-14
6.84244e-14
6.82642e-14
6.82264e-14
6.80534e-14
6.79574e-14
6.77904e-14
6.77769e-14
6.74685e-14
6.73193e-14
6.71713e-14
6.7019e-14
6.69527e-14
6.66765e-14
6.66868e-14
6.69492e-14
6.63385e-14
6.60644e-14
6.60167e-14
6.59188e-14
6.5396e-14
6.5212e-14
6.51006e-14
6.47986e-14
6.43826e-14
6.40565e-14
6.39682e-14
6.38855e-14
6.39543e-14
6.3705e-14
6.34699e-14
6.32969e-14
6.31537e-14
6.30362e-14
6.2973e-14
6.28071e-14
6.25073e-14
6.23113e-14
6.20971e-14
6.20565e-14
6.20711e-14
6.19846e-14
6.18527e-14
6.16372e-14
6.16543e-14
6.16612e-14
6.16605e-14
6.15509e-14
6.15543e-14
6.18176e-14
6.20303e-14
6.18051e-14
6.17945e-14
6.19017e-14
6.22037e-14
6.23355e-14
6.22638e-14
6.24988e-14
6.25769e-14
6.23795e-14
6.25948e-14
6.27238e-14
6.27009e-14
6.2599e-14
6.24262e-14
6.21816e-14
6.22289e-14
6.21249e-14
6.19623e-14
6.20728e-14
6.20144e-14
6.21167e-14
6.20518e-14
6.16689e-14
6.16466e-14
6.22788e-14
6.27686e-14
6.29795e-14
6.33543e-14
6.37229e-14
6.40577e-14
6.4383e-14
6.45669e-14
6.49599e-14
6.50553e-14
6.53854e-14
6.57429e-14
6.60125e-14
6.60275e-14
6.60921e-14
6.66681e-14
6.68417e-14
6.69368e-14
6.72681e-14
6.77451e-14
6.80896e-14
6.84774e-14
6.86676e-14
6.87088e-14
6.90384e-14
6.93328e-14
6.94552e-14
6.96269e-14
6.99479e-14
7.02211e-14
7.05031e-14
7.04834e-14
7.06878e-14
7.10382e-14
7.13968e-14
7.13814e-14
7.14556e-14
7.1691e-14
7.20489e-14
7.22013e-14
7.23252e-14
7.25412e-14
7.27593e-14
7.3094e-14
7.32964e-14
7.35835e-14
7.38132e-14
7.42572e-14
7.45102e-14
7.48312e-14
7.5181e-14
7.56757e-14
7.61051e-14
7.62758e-14
7.65127e-14
7.68275e-14
7.71165e-14
7.74022e-14
7.788e-14
7.81259e-14
7.83266e-14
7.8522e-14
7.87214e-14
7.89418e-14
7.93645e-14
7.96557e-14
8.00002e-14
8.0082e-14
8.00585e-14
8.03786e-14
8.03852e-14
8.0274e-14
8.06122e-14
8.08517e-14
8.06611e-14
8.06291e-14
8.07782e-14
8.05213e-14
8.06238e-14
8.07002e-14
8.07491e-14
8.06674e-14
8.06506e-14
8.03022e-14
8.03949e-14
8.06225e-14
8.05118e-14
8.05336e-14
8.02398e-14
7.99492e-14
7.99718e-14
7.99469e-14
8.01597e-14
8.02669e-14
8.01592e-14
7.99739e-14
7.9933e-14
7.97878e-14
7.97149e-14
7.95645e-14
7.94869e-14
7.92708e-14
7.89026e-14
7.88579e-14
7.86991e-14
7.86105e-14
7.83361e-14
7.80115e-14
7.76399e-14
7.74851e-14
7.73206e-14
7.72418e-14
7.74555e-14
7.73506e-14
7.73269e-14
7.69528e-14
7.67966e-14
7.66951e-14
7.63608e-14
7.61085e-14
7.5803e-14
7.55264e-14
7.5435e-14
7.52212e-14
7.49249e-14
7.49633e-14
7.48349e-14
7.43411e-14
7.39848e-14
7.35017e-14
7.30657e-14
7.28615e-14
7.24003e-14
7.18627e-14
7.13583e-14
7.09764e-14
7.09367e-14
7.06328e-14
7.01477e-14
6.95869e-14
6.93806e-14
6.90418e-14
6.86605e-14
6.8236e-14
6.80813e-14
6.77749e-14
6.74381e-14
6.70804e-14
6.70859e-14
6.67245e-14
6.63803e-14
6.61663e-14
6.62598e-14
6.59548e-14
6.56439e-14
6.52695e-14
6.50279e-14
6.492e-14
6.50586e-14
6.49973e-14
6.48414e-14
6.46648e-14
6.48172e-14
6.48451e-14
6.47975e-14
6.45975e-14
6.43162e-14
6.41921e-14
6.40758e-14
6.4193e-14
6.39387e-14
6.37877e-14
6.35678e-14
6.35257e-14
6.35267e-14
6.34118e-14
6.33548e-14
6.32235e-14
6.2899e-14
6.27938e-14
6.30359e-14
6.32608e-14
6.33645e-14
6.33182e-14
6.29139e-14
6.28668e-14
6.29551e-14
6.28808e-14
6.26653e-14
6.26963e-14
6.30209e-14
6.29342e-14
6.29252e-14
6.30485e-14
6.30751e-14
6.29397e-14
6.31587e-14
6.32709e-14
6.31958e-14
6.32882e-14
6.3464e-14
6.36024e-14
6.39812e-14
6.39024e-14
6.38494e-14
6.39879e-14
6.39921e-14
6.40859e-14
6.42551e-14
6.47014e-14
6.48639e-14
6.5101e-14
6.53879e-14
6.56426e-14
6.59037e-14
6.60939e-14
6.65138e-14
6.69381e-14
6.69187e-14
6.72052e-14
6.74738e-14
6.74014e-14
6.76224e-14
6.75632e-14
6.78542e-14
6.81172e-14
6.81017e-14
6.83788e-14
6.84005e-14
6.82687e-14
6.81468e-14
6.80892e-14
6.81826e-14
6.8338e-14
6.84526e-14
6.86e-14
6.90178e-14
6.87389e-14
6.82932e-14
6.86738e-14
6.89298e-14
6.88588e-14
6.86787e-14
6.88425e-14
6.86218e-14
6.86773e-14
6.84827e-14
6.83496e-14
6.82911e-14
6.80821e-14
6.78551e-14
6.78201e-14
6.77704e-14
6.77135e-14
6.74403e-14
6.7099e-14
6.71261e-14
6.70243e-14
6.69556e-14
6.68157e-14
6.66884e-14
6.63803e-14
6.61077e-14
6.61894e-14
6.60159e-14
6.54596e-14
6.5154e-14
6.50915e-14
6.47699e-14
6.43054e-14
6.40267e-14
6.39456e-14
6.39776e-14
6.38282e-14
6.3594e-14
6.36087e-14
6.34178e-14
6.32813e-14
6.29137e-14
6.28295e-14
6.27303e-14
6.23429e-14
6.23154e-14
6.22557e-14
6.20256e-14
6.22035e-14
6.19925e-14
6.16047e-14
6.14061e-14
6.14076e-14
6.17637e-14
6.16195e-14
6.15966e-14
6.1716e-14
6.18978e-14
6.21892e-14
6.1873e-14
6.1569e-14
6.17731e-14
6.23071e-14
6.24071e-14
6.22587e-14
6.26659e-14
6.28859e-14
6.25577e-14
6.26328e-14
6.27003e-14
6.26644e-14
6.25395e-14
6.24228e-14
6.22212e-14
6.21164e-14
6.22059e-14
6.20944e-14
6.18836e-14
6.21367e-14
6.2315e-14
6.22675e-14
6.19538e-14
6.19104e-14
6.25949e-14
6.28301e-14
6.31978e-14
6.35159e-14
6.36915e-14
6.39502e-14
6.42778e-14
6.45116e-14
6.48452e-14
6.51279e-14
6.53922e-14
6.58309e-14
6.60116e-14
6.60696e-14
6.61795e-14
6.66565e-14
6.68003e-14
6.73248e-14
6.74765e-14
6.78771e-14
6.81699e-14
6.86006e-14
6.87138e-14
6.88765e-14
6.90454e-14
6.9334e-14
6.95079e-14
6.97819e-14
7.00199e-14
7.02555e-14
7.05008e-14
7.05951e-14
7.07959e-14
7.11236e-14
7.1435e-14
7.13978e-14
7.14823e-14
7.16113e-14
7.19881e-14
7.2352e-14
7.22735e-14
7.27456e-14
7.29815e-14
7.31522e-14
7.32138e-14
7.35225e-14
7.37364e-14
7.41487e-14
7.45814e-14
7.49119e-14
7.52977e-14
7.579e-14
7.60217e-14
7.62842e-14
7.66992e-14
7.68836e-14
7.723e-14
7.7545e-14
7.78759e-14
7.80858e-14
7.85986e-14
7.85095e-14
7.87428e-14
7.89998e-14
7.95261e-14
7.97956e-14
7.99785e-14
8.00297e-14
8.02487e-14
8.04816e-14
8.06543e-14
8.05276e-14
8.08266e-14
8.0944e-14
8.06627e-14
8.06009e-14
8.0707e-14
8.06033e-14
8.06812e-14
8.06851e-14
8.06881e-14
8.06155e-14
8.05083e-14
8.04228e-14
8.06168e-14
8.07925e-14
8.06057e-14
8.03131e-14
8.00307e-14
8.00435e-14
8.00111e-14
7.99977e-14
8.0157e-14
8.03375e-14
8.01133e-14
7.99129e-14
8.01254e-14
8.02019e-14
7.9713e-14
7.94614e-14
7.95518e-14
7.92151e-14
7.886e-14
7.8852e-14
7.86925e-14
7.85837e-14
7.82814e-14
7.77954e-14
7.76009e-14
7.75327e-14
7.72957e-14
7.71781e-14
7.74471e-14
7.74232e-14
7.73022e-14
7.7064e-14
7.68335e-14
7.66275e-14
7.64234e-14
7.61608e-14
7.56403e-14
7.55935e-14
7.55267e-14
7.53649e-14
7.51273e-14
7.50819e-14
7.48715e-14
7.45877e-14
7.41072e-14
7.35589e-14
7.32603e-14
7.27193e-14
7.21633e-14
7.17858e-14
7.15868e-14
7.10273e-14
7.09081e-14
7.06755e-14
7.01164e-14
6.95753e-14
6.94078e-14
6.90417e-14
6.87364e-14
6.83242e-14
6.82553e-14
6.77575e-14
6.72643e-14
6.69972e-14
6.67887e-14
6.67031e-14
6.64359e-14
6.62141e-14
6.61296e-14
6.58299e-14
6.56049e-14
6.52059e-14
6.49595e-14
6.47901e-14
6.50017e-14
6.50354e-14
6.48506e-14
6.48351e-14
6.49863e-14
6.49942e-14
6.45593e-14
6.44259e-14
6.42962e-14
6.41827e-14
6.41479e-14
6.43007e-14
6.39797e-14
6.36908e-14
6.37081e-14
6.35749e-14
6.32533e-14
6.32015e-14
6.31398e-14
6.32527e-14
6.30753e-14
6.28806e-14
6.28073e-14
6.29263e-14
6.32016e-14
6.31124e-14
6.30421e-14
6.28621e-14
6.2933e-14
6.30018e-14
6.26212e-14
6.26145e-14
6.28959e-14
6.2996e-14
6.28826e-14
6.29026e-14
6.29514e-14
6.30335e-14
6.32355e-14
6.30673e-14
6.31705e-14
6.33406e-14
6.35943e-14
6.364e-14
6.36725e-14
6.38844e-14
6.37683e-14
6.40989e-14
6.39604e-14
6.40751e-14
6.42913e-14
6.47371e-14
6.50512e-14
6.50054e-14
6.53595e-14
6.57935e-14
6.60854e-14
6.63261e-14
6.64734e-14
6.67529e-14
6.72403e-14
6.74313e-14
6.75375e-14
6.76829e-14
6.77147e-14
6.75479e-14
6.77597e-14
6.81193e-14
6.83147e-14
6.85843e-14
6.84227e-14
6.82278e-14
6.81273e-14
6.81065e-14
6.82277e-14
6.84553e-14
6.85578e-14
6.87657e-14
6.90411e-14
6.87579e-14
6.84916e-14
6.86945e-14
6.86321e-14
6.87876e-14
6.88472e-14
6.88215e-14
6.86271e-14
6.85156e-14
6.85378e-14
6.84742e-14
6.84745e-14
6.84453e-14
6.79774e-14
6.77513e-14
6.78041e-14
6.76867e-14
6.74698e-14
6.72668e-14
6.71787e-14
6.72444e-14
6.70627e-14
6.68132e-14
6.67285e-14
6.64202e-14
6.62591e-14
6.62235e-14
6.58736e-14
6.55355e-14
6.51908e-14
6.51494e-14
6.47402e-14
6.4414e-14
6.4096e-14
6.39297e-14
6.38269e-14
6.37724e-14
6.37178e-14
6.38485e-14
6.33297e-14
6.30786e-14
6.29581e-14
6.28807e-14
6.26655e-14
6.25099e-14
6.22669e-14
6.22065e-14
6.20015e-14
6.20365e-14
6.19448e-14
6.16172e-14
6.13184e-14
6.15157e-14
6.15942e-14
6.15461e-14
6.17596e-14
6.18823e-14
6.19331e-14
6.19722e-14
6.17648e-14
6.16817e-14
6.20945e-14
6.24836e-14
6.24496e-14
6.25061e-14
6.27395e-14
6.29765e-14
6.25912e-14
6.24603e-14
6.28195e-14
6.27545e-14
6.26492e-14
6.238e-14
6.22528e-14
6.20895e-14
6.21734e-14
6.21384e-14
6.19136e-14
6.22293e-14
6.23527e-14
6.23049e-14
6.22017e-14
6.25039e-14
6.27669e-14
6.31089e-14
6.34169e-14
6.34656e-14
6.34683e-14
6.39543e-14
6.43025e-14
6.45449e-14
6.48256e-14
6.50173e-14
6.54588e-14
6.56524e-14
6.58863e-14
6.59742e-14
6.62638e-14
6.67068e-14
6.69558e-14
6.74255e-14
6.76016e-14
6.81772e-14
6.84936e-14
6.88006e-14
6.85683e-14
6.89263e-14
6.89952e-14
6.9471e-14
6.95097e-14
6.98388e-14
6.99933e-14
7.00626e-14
7.05234e-14
7.06936e-14
7.0981e-14
7.11022e-14
7.15174e-14
7.16366e-14
7.17186e-14
7.17526e-14
7.18343e-14
7.23089e-14
7.24948e-14
7.28322e-14
7.29918e-14
7.31678e-14
7.33137e-14
7.3517e-14
7.34354e-14
7.40587e-14
7.48108e-14
7.5037e-14
7.54111e-14
7.5891e-14
7.59617e-14
7.63438e-14
7.66402e-14
7.69005e-14
7.72059e-14
7.74747e-14
7.80088e-14
7.80271e-14
7.86168e-14
7.8712e-14
7.91818e-14
7.9289e-14
7.95911e-14
7.99221e-14
7.99433e-14
8.01659e-14
8.01972e-14
8.05771e-14
8.08234e-14
8.05872e-14
8.07909e-14
8.09895e-14
8.05982e-14
8.06429e-14
8.09563e-14
8.07813e-14
8.08697e-14
8.06984e-14
8.04355e-14
8.04667e-14
8.07169e-14
8.08084e-14
8.08054e-14
8.06431e-14
8.06927e-14
8.02073e-14
7.99564e-14
8.01657e-14
8.01889e-14
7.98695e-14
8.00913e-14
8.0398e-14
8.02865e-14
8.02014e-14
8.03091e-14
8.02745e-14
7.98678e-14
7.94934e-14
7.96865e-14
7.91144e-14
7.88423e-14
7.90246e-14
7.87857e-14
7.8664e-14
7.8163e-14
7.77198e-14
7.74271e-14
7.75008e-14
7.73437e-14
7.7312e-14
7.75275e-14
7.73043e-14
7.7163e-14
7.6974e-14
7.66899e-14
7.66886e-14
7.65798e-14
7.61292e-14
7.5822e-14
7.55043e-14
7.54853e-14
7.55889e-14
7.54236e-14
7.51392e-14
7.47916e-14
7.45049e-14
7.40823e-14
7.375e-14
7.36673e-14
7.26619e-14
7.19988e-14
7.18993e-14
7.18146e-14
7.107e-14
7.07415e-14
7.05384e-14
7.02192e-14
6.95904e-14
6.92329e-14
6.90533e-14
6.86849e-14
6.84872e-14
6.8044e-14
6.76479e-14
6.70972e-14
6.69227e-14
6.68625e-14
6.65995e-14
6.63698e-14
6.62302e-14
6.59059e-14
6.57434e-14
6.56659e-14
6.52087e-14
6.47377e-14
6.4681e-14
6.51671e-14
6.51069e-14
6.48973e-14
6.50838e-14
6.51136e-14
6.51051e-14
6.46407e-14
6.42657e-14
6.42501e-14
6.42372e-14
6.40517e-14
6.43086e-14
6.39836e-14
6.37212e-14
6.38177e-14
6.35804e-14
6.3342e-14
6.30645e-14
6.29725e-14
6.30494e-14
6.30333e-14
6.30809e-14
6.27392e-14
6.27436e-14
6.30013e-14
6.31836e-14
6.31988e-14
6.28863e-14
6.29567e-14
6.28468e-14
6.24276e-14
6.26614e-14
6.27067e-14
6.30243e-14
6.28121e-14
6.27999e-14
6.30286e-14
6.29059e-14
6.31075e-14
6.29597e-14
6.33942e-14
6.33766e-14
6.35961e-14
6.38061e-14
6.3579e-14
6.39041e-14
6.39474e-14
6.38889e-14
6.39756e-14
6.40906e-14
6.42623e-14
6.46461e-14
6.5191e-14
6.50788e-14
6.52739e-14
6.59398e-14
6.62753e-14
6.63737e-14
6.66735e-14
6.68904e-14
6.73645e-14
6.76298e-14
6.7557e-14
6.78597e-14
6.77497e-14
6.74544e-14
6.78474e-14
6.83009e-14
6.8646e-14
6.86932e-14
6.84356e-14
6.80438e-14
6.81387e-14
6.8033e-14
6.82522e-14
6.86355e-14
6.87322e-14
6.87099e-14
6.88223e-14
6.89137e-14
6.86348e-14
6.85821e-14
6.84752e-14
6.8931e-14
6.88176e-14
6.88672e-14
6.85996e-14
6.86626e-14
6.86548e-14
6.84835e-14
6.87466e-14
6.85155e-14
6.80266e-14
6.79971e-14
6.78968e-14
6.76744e-14
6.75445e-14
6.71888e-14
6.71868e-14
6.74662e-14
6.72981e-14
6.70847e-14
6.67639e-14
6.65512e-14
6.63727e-14
6.63546e-14
6.5811e-14
6.55108e-14
6.51231e-14
6.50975e-14
6.48912e-14
6.45113e-14
6.41823e-14
6.39812e-14
6.3916e-14
6.39422e-14
6.38612e-14
6.38339e-14
6.32906e-14
6.31807e-14
6.28977e-14
6.27083e-14
6.26399e-14
6.24162e-14
6.23199e-14
6.22494e-14
6.19372e-14
6.1977e-14
6.17753e-14
6.16328e-14
6.12519e-14
6.14861e-14
6.14401e-14
6.17777e-14
6.18727e-14
6.20512e-14
6.20061e-14
6.17298e-14
6.18877e-14
6.1834e-14
6.23831e-14
6.25984e-14
6.25969e-14
6.26855e-14
6.2895e-14
6.30032e-14
6.2971e-14
6.26722e-14
6.28144e-14
6.28651e-14
6.25785e-14
6.25021e-14
6.21543e-14
6.19425e-14
6.20657e-14
6.2075e-14
6.2161e-14
6.23899e-14
6.23851e-14
6.24957e-14
6.22481e-14
6.25671e-14
6.27968e-14
6.32852e-14
6.33345e-14
6.36512e-14
6.35496e-14
6.40051e-14
6.43014e-14
6.44507e-14
6.46139e-14
6.48736e-14
6.5234e-14
6.55936e-14
6.58631e-14
6.61119e-14
6.65001e-14
6.6726e-14
6.70473e-14
6.7444e-14
6.77783e-14
6.82697e-14
6.88199e-14
6.89171e-14
6.8838e-14
6.89323e-14
6.90343e-14
6.91718e-14
6.94468e-14
6.97648e-14
6.99683e-14
7.02294e-14
7.06287e-14
7.07658e-14
7.11204e-14
7.11856e-14
7.14141e-14
7.1634e-14
7.20187e-14
7.19104e-14
7.18862e-14
7.23489e-14
7.27406e-14
7.2964e-14
7.29892e-14
7.28555e-14
7.3223e-14
7.36588e-14
7.37069e-14
7.41231e-14
7.4676e-14
7.5169e-14
7.55237e-14
7.60191e-14
7.63959e-14
7.6571e-14
7.65499e-14
7.68026e-14
7.7244e-14
7.73632e-14
7.76444e-14
7.82252e-14
7.8813e-14
7.90248e-14
7.93658e-14
7.95073e-14
7.98559e-14
8.01565e-14
7.9936e-14
8.00691e-14
8.0324e-14
8.06543e-14
8.07068e-14
8.07922e-14
8.08369e-14
8.09911e-14
8.08921e-14
8.08167e-14
8.08089e-14
8.09551e-14
8.10838e-14
8.08164e-14
8.07136e-14
8.07143e-14
8.06697e-14
8.07205e-14
8.11174e-14
8.07934e-14
8.06559e-14
8.04794e-14
7.99333e-14
8.02662e-14
8.03061e-14
7.99342e-14
8.00012e-14
8.00901e-14
8.03967e-14
8.0784e-14
8.0492e-14
8.02303e-14
7.97997e-14
7.97641e-14
7.96316e-14
7.91707e-14
7.91555e-14
7.90983e-14
7.89203e-14
7.85032e-14
7.8219e-14
7.8095e-14
7.74227e-14
7.74436e-14
7.75578e-14
7.75259e-14
7.74284e-14
7.72681e-14
7.69527e-14
7.68773e-14
7.70598e-14
7.68437e-14
7.64819e-14
7.60346e-14
7.60481e-14
7.55722e-14
7.52271e-14
7.55235e-14
7.52775e-14
7.51104e-14
7.50596e-14
7.45828e-14
7.39132e-14
7.39959e-14
7.38238e-14
7.28852e-14
7.19575e-14
7.21159e-14
7.17776e-14
7.12735e-14
7.0758e-14
7.06081e-14
6.97722e-14
6.93514e-14
6.92188e-14
6.8838e-14
6.88024e-14
6.87038e-14
6.83116e-14
6.778e-14
6.70537e-14
6.68777e-14
6.67445e-14
6.65801e-14
6.63256e-14
6.61117e-14
6.58401e-14
6.57081e-14
6.56075e-14
6.51618e-14
6.49902e-14
6.49675e-14
6.501e-14
6.50173e-14
6.51035e-14
6.51275e-14
6.51384e-14
6.48831e-14
6.45577e-14
6.45598e-14
6.43662e-14
6.40948e-14
6.4091e-14
6.40356e-14
6.41456e-14
6.38526e-14
6.38288e-14
6.34778e-14
6.30617e-14
6.28598e-14
6.28415e-14
6.30752e-14
6.30279e-14
6.31669e-14
6.30482e-14
6.26411e-14
6.25879e-14
6.29835e-14
6.31489e-14
6.29584e-14
6.26687e-14
6.2771e-14
6.26007e-14
6.25133e-14
6.26108e-14
6.28445e-14
6.29047e-14
6.25294e-14
6.28428e-14
6.27737e-14
6.29931e-14
6.32595e-14
6.34631e-14
6.33294e-14
6.33563e-14
6.36411e-14
6.37276e-14
6.40047e-14