/*--------------------------------*- C++ -*----------------------------------*\
| =========                 |                                                 |
| \\      /  F ield         | OpenFOAM: The Open Source CFD Toolbox           |
|  \\    /   O peration     | Version:  2112                                  |
|   \\  /    A nd           | Website:  www.openfoam.com                      |
|    \\/     M anipulation  |                                                 |
\*---------------------------------------------------------------------------*/
FoamFile
{
    version     2.0;
    format      ascii;
    arch        "LSB;label=32;scalar=64";
    class       surfaceScalarField;
    location    "6";
    object      phi;
}
// * * * * * * * * * * * * * * * * * * * * * * * * * * * * * * * * * * * * * //

dimensions      [0 3 -1 0 0 0 0];

oriented        oriented;

internalField   nonuniform List<scalar> 
50800
(
4.74439e-05
-6.59736e-18
4.74439e-05
-2.55272e-18
4.74439e-05
-8.57837e-19
4.74439e-05
-4.21075e-19
4.74439e-05
-2.13233e-19
4.74439e-05
-1.05237e-19
4.74439e-05
-7.0006e-20
4.74439e-05
-4.44875e-20
4.74439e-05
-2.14734e-20
4.74439e-05
-1.56783e-20
4.74439e-05
-2.53605e-21
4.74439e-05
-2.02146e-20
4.74439e-05
-7.67274e-23
4.74439e-05
-4.84141e-21
4.74439e-05
-2.47467e-20
4.74439e-05
1.72035e-20
4.74439e-05
4.1923e-21
4.74439e-05
-1.6111e-20
4.74439e-05
-2.58946e-20
4.74439e-05
-3.6056e-20
4.74439e-05
-1.47832e-20
4.74439e-05
-7.49877e-21
4.74439e-05
-2.44395e-20
4.74439e-05
-2.07179e-20
4.74439e-05
-3.56109e-20
4.74439e-05
-2.59474e-20
4.74439e-05
2.99871e-20
4.74439e-05
-4.83827e-21
4.74439e-05
-3.86215e-20
4.74439e-05
-2.73349e-20
4.74439e-05
2.46737e-21
4.74439e-05
4.66165e-20
4.74439e-05
3.07364e-20
4.74439e-05
8.06089e-21
4.74439e-05
1.41907e-20
4.74439e-05
4.23106e-21
4.74439e-05
3.13944e-20
4.74439e-05
-3.81378e-21
4.74439e-05
-2.64422e-20
4.74439e-05
5.17975e-20
4.74439e-05
7.89019e-22
4.74439e-05
1.6883e-20
4.74439e-05
-4.78472e-21
4.74439e-05
-3.10079e-20
4.74439e-05
4.35138e-20
4.74439e-05
4.66249e-21
4.74439e-05
2.61747e-20
4.74439e-05
1.43254e-20
4.74439e-05
7.74318e-21
4.74439e-05
-5.08355e-21
4.74439e-05
-4.01058e-20
4.74439e-05
3.82302e-20
4.74439e-05
-1.31177e-20
4.74439e-05
-1.50886e-20
4.74439e-05
3.22673e-20
4.74439e-05
-3.11192e-20
4.74439e-05
9.98864e-21
4.74439e-05
5.72555e-21
4.74439e-05
1.69797e-21
4.74439e-05
4.86196e-20
4.74439e-05
-4.22493e-20
4.74439e-05
3.64724e-20
4.74439e-05
1.44309e-20
4.74439e-05
-3.49292e-21
4.74439e-05
3.70722e-20
4.74439e-05
-4.07058e-20
4.74439e-05
-8.81061e-21
4.74439e-05
4.1117e-21
4.74439e-05
2.0169e-20
4.74439e-05
1.16119e-20
4.74439e-05
-3.33433e-20
4.74439e-05
-1.2075e-20
4.74439e-05
-2.28197e-20
4.74439e-05
-2.47098e-20
4.74439e-05
6.23793e-20
4.74439e-05
-3.64358e-20
4.74439e-05
-7.32935e-20
4.74439e-05
3.83395e-20
4.74439e-05
1.0429e-20
4.74439e-05
5.17443e-20
4.74439e-05
-4.6174e-20
4.74439e-05
-9.744e-20
4.74439e-05
3.69329e-20
4.74439e-05
6.31483e-20
4.74439e-05
6.30473e-20
4.74439e-05
-6.0564e-21
4.74439e-05
-8.42622e-20
4.74439e-05
-4.26652e-20
4.74439e-05
5.58247e-20
4.74439e-05
1.11142e-19
4.74439e-05
-2.64201e-20
4.74439e-05
-1.10798e-19
4.74439e-05
-2.85942e-21
4.74439e-05
9.039e-20
4.74439e-05
5.41491e-22
4.74439e-05
-1.01123e-19
4.74439e-05
-2.87131e-20
4.74439e-05
-1.71925e-20
4.74439e-05
8.33163e-20
4.74439e-05
2.75482e-20
4.74439e-05
-1.52014e-19
4.74439e-05
-4.68203e-21
4.74439e-05
-5.21255e-20
4.74439e-05
3.55477e-20
4.74439e-05
3.06201e-20
4.74439e-05
-3.50501e-20
4.74439e-05
-6.79663e-20
4.74439e-05
-6.75288e-22
4.74439e-05
5.86555e-20
4.74439e-05
5.97739e-21
4.74439e-05
2.61076e-20
4.74439e-05
-1.80939e-19
4.74439e-05
3.3041e-20
4.74439e-05
1.33914e-19
4.74439e-05
-3.52042e-21
4.74439e-05
-6.35084e-20
4.74439e-05
-1.20608e-19
4.74439e-05
3.36246e-20
4.74439e-05
1.17978e-19
4.74439e-05
3.30231e-20
4.74439e-05
-4.00619e-20
4.74439e-05
-1.14008e-19
4.74439e-05
9.90611e-22
4.74439e-05
1.58424e-19
4.74439e-05
5.51985e-20
4.74439e-05
-7.79337e-20
4.74439e-05
-1.32686e-19
4.74439e-05
-6.62253e-21
4.74439e-05
1.51628e-19
4.74439e-05
1.82231e-20
4.74439e-05
-8.68231e-20
4.74439e-05
-1.00635e-19
4.74439e-05
4.98807e-20
4.74439e-05
1.05747e-19
4.74439e-05
-2.15864e-20
4.74439e-05
8.81648e-22
4.74439e-05
-5.74368e-20
4.74439e-05
-5.43222e-21
4.74439e-05
9.37761e-20
4.74439e-05
3.24174e-20
4.74439e-05
-2.01397e-20
4.74439e-05
-7.58088e-20
4.74439e-05
1.37375e-20
4.74439e-05
5.1689e-20
4.74439e-05
-5.40539e-22
4.74439e-05
5.38638e-22
4.74439e-05
-8.86642e-20
4.74439e-05
-2.29023e-20
4.74439e-05
-4.85253e-21
4.74439e-05
3.96987e-20
4.74439e-05
1.00339e-19
4.74439e-05
-1.15368e-19
4.74439e-05
-1.04048e-19
4.74439e-05
6.5687e-20
4.74439e-05
8.07363e-20
4.74439e-05
7.92529e-20
4.74439e-05
-4.39102e-20
4.74439e-05
-7.85069e-20
4.74439e-05
6.18186e-20
4.74439e-05
5.34162e-20
4.74439e-05
1.10857e-19
4.74439e-05
-1.20547e-19
4.74439e-05
-6.74222e-20
4.74439e-05
1.02479e-19
4.74439e-05
-1.06727e-19
4.74439e-05
5.02551e-20
4.74439e-05
-4.79123e-20
4.74439e-05
-1.15129e-19
4.74439e-05
7.06048e-20
4.74439e-05
6.66946e-21
4.74439e-05
3.60799e-20
4.74439e-05
-1.0797e-19
4.74439e-05
-2.03311e-20
4.74439e-05
1.67102e-20
4.74439e-05
-5.90743e-20
4.74439e-05
1.74621e-20
4.74439e-05
-7.17238e-20
4.74439e-05
1.67079e-19
4.74439e-05
-1.02259e-20
4.74439e-05
-7.54315e-20
4.74439e-05
1.45816e-19
4.74439e-05
-1.59922e-19
4.74439e-05
-3.147e-20
4.74439e-05
2.77716e-20
4.74439e-05
-5.38676e-20
4.74439e-05
1.6133e-19
4.74439e-05
-1.14927e-19
4.74439e-05
-2.85002e-20
4.74439e-05
8.84164e-20
4.74439e-05
-1.48157e-19
4.74439e-05
6.41532e-20
4.74439e-05
-1.93495e-20
4.74439e-05
-8.56274e-20
4.74439e-05
1.66022e-19
4.74439e-05
-4.78042e-20
4.74439e-05
-1.01769e-23
4.74439e-05
-8.31322e-20
4.74439e-05
2.56936e-21
4.74439e-05
2.56521e-19
4.74439e-05
-1.38231e-19
4.74439e-05
-1.3496e-20
4.74439e-05
-8.94192e-20
4.74439e-05
1.26685e-20
4.74439e-05
2.63754e-19
4.74439e-05
-1.05561e-19
4.74439e-05
-1.60815e-19
4.74439e-05
-5.81383e-20
4.74439e-05
1.37704e-19
4.74439e-05
1.89026e-19
4.74439e-05
-5.70777e-20
4.74439e-05
-1.84049e-19
4.74439e-05
-1.09197e-19
4.74439e-05
3.10063e-19
4.74439e-05
3.63426e-21
4.74439e-05
-3.065e-19
4.74439e-05
2.52854e-19
4.74439e-05
7.53972e-20
4.74439e-05
-1.55867e-19
4.74439e-05
-1.19629e-19
4.74439e-05
-1.38832e-19
4.74439e-05
3.18756e-19
4.74439e-05
1.2355e-19
4.74439e-05
-1.91261e-19
4.74439e-05
-1.34741e-19
4.74439e-05
-1.29524e-19
4.74439e-05
3.16431e-19
4.74439e-05
1.38539e-20
4.74439e-05
-1.32214e-19
4.74439e-05
-2.99413e-21
4.74439e-05
-1.33843e-19
4.74439e-05
1.93278e-19
4.74439e-05
-5.39342e-21
4.74439e-05
-2.02958e-20
4.74439e-05
5.52207e-20
4.74439e-05
-2.29898e-19
4.74439e-05
7.91057e-20
4.74439e-05
4.99379e-20
4.74439e-05
-5.23018e-21
4.74439e-05
6.10865e-20
4.74439e-05
-1.73309e-19
4.74439e-05
1.28822e-19
4.74439e-05
-4.72327e-20
4.74439e-05
-3.80074e-20
4.74439e-05
1.03648e-19
4.74439e-05
-2.67661e-19
4.74439e-05
-2.60243e-20
4.74439e-05
1.13733e-19
4.74439e-05
1.27059e-19
4.74439e-05
8.77689e-21
4.74439e-05
-2.06449e-19
4.74439e-05
1.8616e-19
4.74439e-05
5.78311e-20
4.74439e-05
-4.18155e-20
4.74439e-05
2.7648e-20
4.74439e-05
-1.84651e-19
4.74439e-05
2.14038e-19
4.74439e-05
3.36505e-20
4.74439e-05
-2.98813e-20
4.74439e-05
8.37009e-20
4.74439e-05
-2.12072e-19
4.74439e-05
1.01775e-19
4.74439e-05
4.27148e-20
4.74439e-05
-6.79352e-20
4.74439e-05
2.31814e-20
4.74439e-05
-1.42539e-19
4.74439e-05
1.63704e-19
4.74439e-05
1.15866e-19
4.74439e-05
-1.78956e-20
4.74439e-05
-5.07233e-20
4.74439e-05
-1.60234e-19
4.74439e-05
9.70501e-20
4.74439e-05
7.6273e-20
4.74439e-05
3.62086e-20
4.74439e-05
-5.98208e-21
4.74439e-05
-1.36034e-19
4.74439e-05
5.02555e-20
4.74439e-05
2.21582e-20
4.74439e-05
-1.12469e-19
4.74439e-05
8.03906e-20
4.74439e-05
-5.74761e-20
4.74439e-05
1.59847e-20
4.74439e-05
1.00406e-19
4.74439e-05
-3.68222e-20
4.74439e-05
-3.15177e-21
4.74439e-05
-1.15461e-19
4.74439e-05
2.08585e-21
4.74439e-05
1.77692e-19
4.74439e-05
3.56984e-20
4.74439e-05
-1.59671e-19
4.74439e-05
-1.24946e-19
4.74439e-05
1.62169e-19
4.74439e-05
9.18321e-20
4.74439e-05
-5.83674e-20
4.74439e-05
-1.53865e-19
4.74439e-05
-9.87025e-21
4.74439e-05
2.06114e-19
4.74439e-05
-4.38564e-20
4.74439e-05
1.52986e-20
4.74439e-05
-1.74382e-19
4.74439e-05
-2.55665e-20
4.74439e-05
2.30046e-19
4.74439e-05
-2.37453e-21
4.74439e-05
6.75186e-20
4.74439e-05
-1.67637e-19
4.74439e-05
-1.89648e-19
4.74439e-05
3.23561e-21
4.74439e-05
1.67477e-20
4.74439e-05
1.34165e-19
4.74439e-05
-1.50148e-19
4.74439e-05
-2.66324e-20
4.74439e-05
6.97697e-21
4.74439e-05
-9.56928e-20
4.74439e-05
1.90765e-19
4.74439e-05
-1.06183e-19
4.74439e-05
-1.80971e-19
4.74439e-05
-2.27129e-20
4.74439e-05
-2.94802e-19
4.74439e-05
-3.34651e-19
4.74439e-05
-8.83739e-19
-2.64606e-18
0.000139952
-3.424e-18
0.000139952
-2.33095e-18
0.000139952
-1.22835e-18
0.000139952
-7.08479e-19
0.000139952
-3.98485e-19
0.000139952
-2.21353e-19
0.000139952
-1.58194e-19
0.000139952
-9.05371e-20
0.000139952
-5.2078e-20
0.000139952
-2.22909e-21
0.000139952
7.82025e-21
0.000139952
-2.31156e-20
0.000139952
-1.41007e-21
0.000139952
-8.27229e-21
0.000139952
-5.10567e-20
0.000139952
-1.0715e-21
0.000139952
-4.7519e-21
0.000139952
-3.82619e-20
0.000139952
-6.93302e-20
0.000139952
-8.72543e-20
0.000139952
-3.5996e-20
0.000139952
-5.99439e-20
0.000139952
-7.0188e-20
0.000139952
-6.13235e-20
0.000139952
-7.93122e-20
0.000139952
-4.68738e-20
0.000139952
2.78753e-20
0.000139952
-9.91186e-21
0.000139952
-7.13517e-20
0.000139952
-6.75615e-20
0.000139952
2.38559e-20
0.000139952
1.24204e-19
0.000139952
1.04286e-19
0.000139952
2.99414e-20
0.000139952
2.0205e-20
0.000139952
4.68621e-20
0.000139952
8.5927e-20
0.000139952
2.98499e-20
0.000139952
-2.06967e-20
0.000139952
7.33307e-20
0.000139952
7.79078e-21
0.000139952
-4.1893e-21
0.000139952
-4.16703e-22
0.000139952
-2.86085e-20
0.000139952
3.83606e-20
0.000139952
4.76473e-20
0.000139952
3.91319e-20
0.000139952
4.16608e-20
0.000139952
3.34591e-20
0.000139952
3.17846e-20
0.000139952
-2.92896e-20
0.000139952
1.58467e-20
0.000139952
-3.28519e-20
0.000139952
-2.6857e-20
0.000139952
7.10945e-20
0.000139952
-3.20433e-20
0.000139952
4.53471e-21
0.000139952
3.55068e-20
0.000139952
4.02057e-20
0.000139952
7.19347e-20
0.000139952
-5.28947e-20
0.000139952
8.02935e-20
0.000139952
4.13583e-20
0.000139952
1.91227e-20
0.000139952
5.78609e-20
0.000139952
-7.9586e-20
0.000139952
9.84841e-21
0.000139952
2.11743e-20
0.000139952
3.22392e-20
0.000139952
3.12717e-20
0.000139952
-7.7706e-20
0.000139952
-5.79702e-20
0.000139952
-7.93904e-20
0.000139952
-2.89475e-20
0.000139952
1.26725e-19
0.000139952
-7.50605e-20
0.000139952
-1.19319e-19
0.000139952
2.77458e-20
0.000139952
-1.74235e-20
0.000139952
5.34336e-20
0.000139952
-5.98685e-20
0.000139952
-1.25019e-19
0.000139952
4.43933e-20
0.000139952
9.93823e-20
0.000139952
9.77647e-20
0.000139952
-6.36128e-21
0.000139952
-5.32522e-20
0.000139952
-6.01451e-20
0.000139952
6.22476e-20
0.000139952
1.77518e-19
0.000139952
-5.45318e-21
0.000139952
-1.37173e-19
0.000139952
-2.63752e-20
0.000139952
5.73266e-20
0.000139952
-9.36295e-21
0.000139952
-1.32595e-19
0.000139952
-7.91329e-20
0.000139952
-3.16185e-20
0.000139952
3.59589e-20
0.000139952
-2.66524e-20
0.000139952
-1.88224e-19
0.000139952
-8.51281e-20
0.000139952
-1.12442e-19
0.000139952
-1.79207e-20
0.000139952
2.5622e-20
0.000139952
-2.94803e-20
0.000139952
-1.58722e-19
0.000139952
-7.83659e-20
0.000139952
9.1407e-20
0.000139952
7.41709e-20
0.000139952
1.37093e-20
0.000139952
-2.96572e-19
0.000139952
9.0008e-21
0.000139952
2.25462e-19
0.000139952
5.95414e-20
0.000139952
-6.87283e-20
0.000139952
-2.63216e-19
0.000139952
-4.70065e-20
0.000139952
2.68316e-19
0.000139952
1.45056e-19
0.000139952
-8.2252e-20
0.000139952
-2.18623e-19
0.000139952
4.66023e-20
0.000139952
3.16158e-19
0.000139952
1.62527e-19
0.000139952
-1.56735e-19
0.000139952
-3.55804e-19
0.000139952
9.49875e-22
0.000139952
2.66539e-19
0.000139952
2.59741e-20
0.000139952
-1.65372e-19
0.000139952
-2.01062e-19
0.000139952
7.17123e-20
0.000139952
2.33543e-19
0.000139952
4.95379e-20
0.000139952
-4.69831e-20
0.000139952
-1.51646e-19
0.000139952
-4.22116e-21
0.000139952
2.74075e-19
0.000139952
1.26434e-19
0.000139952
-4.31776e-20
0.000139952
-1.7568e-19
0.000139952
-5.56337e-22
0.000139952
1.16912e-19
0.000139952
-4.82835e-20
0.000139952
-1.03697e-19
0.000139952
-1.88506e-19
0.000139952
6.63596e-21
0.000139952
1.95357e-20
0.000139952
1.70683e-20
0.000139952
1.14806e-19
0.000139952
-1.74586e-19
0.000139952
-1.59895e-19
0.000139952
1.22047e-19
0.000139952
1.45041e-19
0.000139952
1.6672e-19
0.000139952
-3.08481e-20
0.000139952
-9.57321e-20
0.000139952
8.91828e-20
0.000139952
1.38766e-19
0.000139952
1.72537e-19
0.000139952
-1.76633e-19
0.000139952
-1.28485e-19
0.000139952
1.33673e-19
0.000139952
-1.3304e-19
0.000139952
-8.23797e-21
0.000139952
-1.07532e-19
0.000139952
-2.02497e-19
0.000139952
5.81984e-20
0.000139952
1.81494e-20
0.000139952
-6.90744e-20
0.000139952
-2.21282e-19
0.000139952
-9.18054e-20
0.000139952
6.41334e-20
0.000139952
4.28398e-20
0.000139952
-7.2906e-20
0.000139952
-9.29539e-20
0.000139952
2.33003e-19
0.000139952
-1.50851e-21
0.000139952
1.84129e-20
0.000139952
1.27993e-19
0.000139952
-3.12996e-19
0.000139952
-1.12726e-19
0.000139952
4.06977e-20
0.000139952
-4.58068e-20
0.000139952
1.88101e-19
0.000139952
-1.70853e-19
0.000139952
-1.0306e-19
0.000139952
1.17211e-19
0.000139952
-1.4264e-19
0.000139952
-4.6243e-21
0.000139952
-7.03205e-20
0.000139952
-1.10704e-19
0.000139952
1.72217e-19
0.000139952
3.49542e-21
0.000139952
-1.70776e-20
0.000139952
-6.52659e-20
0.000139952
6.44461e-20
0.000139952
2.59214e-19
0.000139952
-9.51045e-20
0.000139952
-5.46061e-20
0.000139952
-8.65629e-20
0.000139952
5.78565e-20
0.000139952
2.81297e-19
0.000139952
-7.72227e-20
0.000139952
-2.10289e-19
0.000139952
-1.12146e-19
0.000139952
1.90338e-19
0.000139952
2.26998e-19
0.000139952
-6.9318e-20
0.000139952
-1.96846e-19
0.000139952
-1.49493e-19
0.000139952
4.42544e-19
0.000139952
3.92253e-20
0.000139952
-4.41457e-19
0.000139952
3.00706e-19
0.000139952
6.8237e-20
0.000139952
-1.49329e-19
0.000139952
-1.97687e-19
0.000139952
-2.85579e-19
0.000139952
4.75424e-19
0.000139952
1.5793e-19
0.000139952
-2.08909e-19
0.000139952
-2.027e-19
0.000139952
-2.42366e-19
0.000139952
4.89607e-19
0.000139952
5.67079e-20
0.000139952
-2.68665e-19
0.000139952
-6.48976e-20
0.000139952
-1.48249e-19
0.000139952
3.28775e-19
0.000139952
3.71238e-20
0.000139952
-1.8067e-20
0.000139952
1.5595e-20
0.000139952
-4.16635e-19
0.000139952
2.35983e-20
0.000139952
6.01663e-20
0.000139952
1.75214e-19
0.000139952
1.48269e-19
0.000139952
-3.46141e-19
0.000139952
1.14526e-19
0.000139952
-1.13557e-19
0.000139952
-2.31181e-20
0.000139952
9.94407e-20
0.000139952
-5.1555e-19
0.000139952
2.24556e-20
0.000139952
2.12466e-19
0.000139952
1.99854e-19
0.000139952
8.0305e-21
0.000139952
-3.34922e-19
0.000139952
3.9877e-19
0.000139952
1.57484e-19
0.000139952
-7.32443e-20
0.000139952
-7.4872e-20
0.000139952
-2.8461e-19
0.000139952
5.25835e-19
0.000139952
1.01363e-19
0.000139952
-6.61946e-20
0.000139952
9.4242e-20
0.000139952
-3.7255e-19
0.000139952
1.64377e-19
0.000139952
5.94844e-20
0.000139952
-9.09024e-20
0.000139952
-1.9462e-20
0.000139952
-1.80699e-19
0.000139952
3.88312e-19
0.000139952
1.51418e-19
0.000139952
3.29815e-21
0.000139952
-5.19372e-20
0.000139952
-3.2529e-19
0.000139952
1.58533e-19
0.000139952
1.28739e-19
0.000139952
1.49927e-19
0.000139952
-4.04261e-20
0.000139952
-3.78443e-19
0.000139952
1.09946e-19
0.000139952
9.38476e-21
0.000139952
-9.63247e-20
0.000139952
9.8426e-20
0.000139952
-2.37609e-19
0.000139952
1.23022e-19
0.000139952
1.42641e-19
0.000139952
2.85107e-20
0.000139952
1.06214e-20
0.000139952
-3.19673e-19
0.000139952
1.10864e-19
0.000139952
2.64152e-19
0.000139952
4.55805e-22
0.000139952
-2.72527e-19
0.000139952
-2.0329e-19
0.000139952
3.14999e-19
0.000139952
1.48084e-19
0.000139952
-1.647e-19
0.000139952
-1.30828e-19
0.000139952
-4.82171e-20
0.000139952
2.48452e-19
0.000139952
6.4819e-20
0.000139952
-1.49602e-19
0.000139952
-1.94075e-19
0.000139952
-9.15285e-20
0.000139952
3.14548e-19
0.000139952
1.80939e-19
0.000139952
2.83632e-20
0.000139952
-3.5388e-19
0.000139952
-3.88999e-19
0.000139952
6.88401e-20
0.000139952
2.28697e-20
0.000139952
6.6752e-20
0.000139952
-2.92685e-19
0.000139952
-1.92262e-20
0.000139952
8.57958e-20
0.000139952
-1.00863e-19
0.000139952
2.09115e-19
0.000139952
-1.48068e-19
0.000139952
-3.24876e-19
0.000139952
-2.0721e-19
0.000139952
-5.67143e-19
0.000139952
-5.66575e-19
0.000139952
-1.24014e-18
-2.48924e-18
0.000230065
-2.24051e-18
0.000230065
-1.83084e-18
0.000230065
-1.18985e-18
0.000230065
-7.70826e-19
0.000230065
-5.18944e-19
0.000230065
-3.00937e-19
0.000230065
-1.71134e-19
0.000230065
-8.45032e-20
0.000230065
-3.36421e-20
0.000230065
3.40827e-21
0.000230065
3.97859e-20
0.000230065
-2.02389e-20
0.000230065
8.79667e-21
0.000230065
-1.65567e-20
0.000230065
-7.42524e-20
0.000230065
-4.10376e-20
0.000230065
-3.27259e-20
0.000230065
-4.80192e-20
0.000230065
-9.15621e-20
0.000230065
-8.6632e-20
0.000230065
-5.20991e-20
0.000230065
-1.25232e-19
0.000230065
-1.44378e-19
0.000230065
-1.14346e-19
0.000230065
-1.33826e-19
0.000230065
-1.11799e-19
0.000230065
1.20697e-20
0.000230065
-1.41397e-20
0.000230065
-6.13234e-20
0.000230065
-6.86851e-20
0.000230065
8.75274e-20
0.000230065
2.46115e-19
0.000230065
1.56877e-19
0.000230065
3.1077e-20
0.000230065
1.66932e-20
0.000230065
5.85075e-20
0.000230065
1.56577e-19
0.000230065
8.61773e-20
0.000230065
3.77118e-20
0.000230065
7.49236e-20
0.000230065
2.57058e-20
0.000230065
1.78067e-20
0.000230065
3.20851e-20
0.000230065
-3.82413e-20
0.000230065
4.70154e-20
0.000230065
8.13255e-20
0.000230065
5.50915e-20
0.000230065
4.85278e-20
0.000230065
5.36287e-20
0.000230065
4.35616e-20
0.000230065
-8.9828e-21
0.000230065
2.90505e-20
0.000230065
-1.98671e-20
0.000230065
7.65116e-21
0.000230065
6.73025e-20
0.000230065
-3.39598e-20
0.000230065
3.64974e-20
0.000230065
7.45217e-20
0.000230065
6.17515e-20
0.000230065
1.1384e-19
0.000230065
-1.98759e-20
0.000230065
1.52421e-19
0.000230065
8.53119e-20
0.000230065
-1.85827e-20
0.000230065
4.41346e-20
0.000230065
-1.10335e-19
0.000230065
2.07868e-20
0.000230065
5.80314e-20
0.000230065
4.7253e-20
0.000230065
5.66083e-20
0.000230065
-1.34834e-19
0.000230065
-8.68446e-20
0.000230065
-1.02379e-19
0.000230065
8.67054e-21
0.000230065
1.27892e-19
0.000230065
-1.34534e-19
0.000230065
-1.58362e-19
0.000230065
-1.02638e-20
0.000230065
-2.41872e-20
0.000230065
7.39873e-20
0.000230065
-7.13998e-20
0.000230065
-9.96459e-20
0.000230065
8.72698e-20
0.000230065
1.58905e-19
0.000230065
8.58858e-20
0.000230065
-7.07897e-20
0.000230065
-7.89312e-20
0.000230065
-5.74158e-20
0.000230065
-4.9215e-21
0.000230065
1.68943e-19
0.000230065
5.35682e-20
0.000230065
-3.75118e-20
0.000230065
2.91597e-20
0.000230065
7.61908e-21
0.000230065
-6.46443e-20
0.000230065
-1.9157e-19
0.000230065
-1.3072e-19
0.000230065
-5.51872e-20
0.000230065
-1.06584e-19
0.000230065
-7.98674e-20
0.000230065
-1.6108e-19
0.000230065
-1.77545e-19
0.000230065
-2.20681e-19
0.000230065
-1.36414e-19
0.000230065
-4.7486e-20
0.000230065
-8.40988e-20
0.000230065
-2.96915e-19
0.000230065
-2.21331e-19
0.000230065
1.64805e-19
0.000230065
1.835e-19
0.000230065
-5.11238e-21
0.000230065
-3.44094e-19
0.000230065
-1.85009e-20
0.000230065
2.36258e-19
0.000230065
1.04029e-19
0.000230065
-2.35211e-20
0.000230065
-3.01132e-19
0.000230065
-1.30562e-19
0.000230065
3.45777e-19
0.000230065
2.60036e-19
0.000230065
-1.65285e-19
0.000230065
-2.92095e-19
0.000230065
9.90831e-20
0.000230065
4.90207e-19
0.000230065
2.57396e-19
0.000230065
-1.84129e-19
0.000230065
-5.09476e-19
0.000230065
-5.47417e-20
0.000230065
3.15763e-19
0.000230065
7.23239e-20
0.000230065
-1.54603e-19
0.000230065
-2.27423e-19
0.000230065
3.89018e-20
0.000230065
3.22268e-19
0.000230065
1.61636e-19
0.000230065
-4.29651e-20
0.000230065
-2.05776e-19
0.000230065
1.01236e-22
0.000230065
4.26837e-19
0.000230065
2.3352e-19
0.000230065
-9.79812e-20
0.000230065
-2.85687e-19
0.000230065
4.81842e-20
0.000230065
1.11824e-19
0.000230065
-8.7612e-20
0.000230065
-1.77731e-19
0.000230065
-3.41125e-19
0.000230065
5.08313e-20
0.000230065
7.44213e-20
0.000230065
-2.45357e-20
0.000230065
1.13994e-19
0.000230065
-1.70248e-19
0.000230065
-1.20391e-19
0.000230065
1.10762e-19
0.000230065
1.86321e-19
0.000230065
1.87691e-19
0.000230065
-1.30781e-20
0.000230065
-3.39558e-20
0.000230065
1.59315e-19
0.000230065
2.02159e-19
0.000230065
1.83851e-19
0.000230065
-2.2744e-19
0.000230065
-1.00304e-19
0.000230065
1.70262e-19
0.000230065
-1.84314e-19
0.000230065
-1.39054e-19
0.000230065
-1.27264e-19
0.000230065
-1.34307e-19
0.000230065
-4.8833e-20
0.000230065
-9.77303e-20
0.000230065
-1.89254e-19
0.000230065
-3.21858e-19
0.000230065
-1.25913e-19
0.000230065
1.60801e-19
0.000230065
9.43047e-20
0.000230065
-1.82482e-19
0.000230065
-1.49492e-19
0.000230065
9.67731e-20
0.000230065
6.49208e-20
0.000230065
1.8063e-19
0.000230065
2.17776e-21
0.000230065
-4.62265e-19
0.000230065
-1.84689e-19
0.000230065
4.62305e-20
0.000230065
2.21257e-21
0.000230065
1.29888e-19
0.000230065
-1.23607e-19
0.000230065
-9.94367e-20
0.000230065
9.74829e-20
0.000230065
-9.62744e-20
0.000230065
-1.08389e-19
0.000230065
-8.99928e-20
0.000230065
-1.23701e-19
0.000230065
7.91386e-20
0.000230065
4.66054e-20
0.000230065
-6.94994e-20
0.000230065
-2.90274e-20
0.000230065
9.79834e-20
0.000230065
2.36435e-19
0.000230065
3.71469e-20
0.000230065
-3.26396e-20
0.000230065
-9.6186e-20
0.000230065
1.12495e-19
0.000230065
1.89337e-19
0.000230065
-4.49872e-20
0.000230065
-1.39455e-19
0.000230065
-1.44397e-19
0.000230065
1.5128e-19
0.000230065
1.56652e-19
0.000230065
-3.58266e-20
0.000230065
-1.27699e-19
0.000230065
-2.20517e-19
0.000230065
4.41518e-19
0.000230065
8.43193e-20
0.000230065
-3.35221e-19
0.000230065
2.61971e-19
0.000230065
-5.03506e-20
0.000230065
-4.3372e-20
0.000230065
-2.2261e-19
0.000230065
-3.74143e-19
0.000230065
4.64082e-19
0.000230065
1.23918e-19
0.000230065
-1.22689e-19
0.000230065
-1.26279e-19
0.000230065
-3.5639e-19
0.000230065
4.94786e-19
0.000230065
7.4242e-20
0.000230065
-4.123e-19
0.000230065
-1.20338e-19
0.000230065
-1.27352e-19
0.000230065
4.8454e-19
0.000230065
1.01637e-19
0.000230065
-8.22358e-20
0.000230065
-4.15289e-20
0.000230065
-5.06612e-19
0.000230065
-1.06244e-19
0.000230065
-2.97887e-20
0.000230065
3.97054e-19
0.000230065
2.80463e-19
0.000230065
-4.56328e-19
0.000230065
3.4441e-20
0.000230065
-2.46311e-19
0.000230065
-7.02083e-20
0.000230065
8.42561e-20
0.000230065
-6.90713e-19
0.000230065
6.33864e-20
0.000230065
2.03992e-19
0.000230065
1.94452e-19
0.000230065
5.02697e-20
0.000230065
-3.60572e-19
0.000230065
5.4786e-19
0.000230065
2.90072e-19
0.000230065
-1.06911e-19
0.000230065
-1.55568e-19
0.000230065
-2.23399e-19
0.000230065
7.95752e-19
0.000230065
1.50786e-19
0.000230065
-8.57291e-20
0.000230065
1.45849e-19
0.000230065
-4.243e-19
0.000230065
1.25561e-19
0.000230065
1.6857e-22
0.000230065
-4.6486e-20
0.000230065
-6.20771e-20
0.000230065
-1.74324e-19
0.000230065
5.27432e-19
0.000230065
1.23538e-19
0.000230065
9.16134e-20
0.000230065
2.06301e-20
0.000230065
-4.34019e-19
0.000230065
2.75332e-19
0.000230065
1.10032e-19
0.000230065
1.59449e-19
0.000230065
-2.12457e-20
0.000230065
-5.9694e-19
0.000230065
1.56128e-19
0.000230065
-6.1914e-20
0.000230065
-9.61604e-21
0.000230065
1.73727e-19
0.000230065
-4.77838e-19
0.000230065
2.18624e-19
0.000230065
1.0496e-19
0.000230065
5.93574e-20
0.000230065
9.75599e-20
0.000230065
-5.29994e-19
0.000230065
2.48929e-19
0.000230065
2.64579e-19
0.000230065
-1.55388e-19
0.000230065
-2.25776e-19
0.000230065
-2.58282e-19
0.000230065
4.749e-19
0.000230065
1.78247e-19
0.000230065
-1.98937e-19
0.000230065
-5.30673e-20
0.000230065
-1.63307e-19
0.000230065
2.49707e-19
0.000230065
2.07651e-19
0.000230065
-2.59388e-19
0.000230065
-2.11451e-19
0.000230065
-1.91803e-19
0.000230065
3.94224e-19
0.000230065
2.9253e-19
0.000230065
-8.68553e-20
0.000230065
-4.70148e-19
0.000230065
-4.86448e-19
0.000230065
1.51811e-19
0.000230065
-2.24662e-20
0.000230065
-9.31093e-20
0.000230065
-2.52242e-19
0.000230065
-9.68022e-20
0.000230065
2.06481e-19
0.000230065
-1.01804e-19
0.000230065
9.56123e-20
0.000230065
-5.18756e-20
0.000230065
-4.71395e-19
0.000230065
-4.41307e-19
0.000230065
-7.03404e-19
0.000230065
-6.29082e-19
0.000230065
-1.23161e-18
-2.04022e-18
0.000317772
-1.60634e-18
0.000317772
-1.40525e-18
0.000317772
-1.09605e-18
0.000317772
-7.83407e-19
0.000317772
-5.13507e-19
0.000317772
-3.55718e-19
0.000317772
-1.86721e-19
0.000317772
-3.69481e-20
0.000317772
-4.85809e-20
0.000317772
-1.61386e-20
0.000317772
-2.70618e-20
0.000317772
-6.31045e-21
0.000317772
-1.68895e-20
0.000317772
-1.42655e-20
0.000317772
-6.52226e-20
0.000317772
-8.19464e-20
0.000317772
-2.02583e-20
0.000317772
-6.8601e-20
0.000317772
-1.19279e-19
0.000317772
-1.01711e-19
0.000317772
-8.30573e-20
0.000317772
-1.6264e-19
0.000317772
-2.02045e-19
0.000317772
-1.74156e-19
0.000317772
-1.42942e-19
0.000317772
-4.68901e-20
0.000317772
3.33794e-20
0.000317772
-1.86576e-20
0.000317772
-8.55571e-20
0.000317772
-6.63454e-21
0.000317772
1.15675e-19
0.000317772
2.79754e-19
0.000317772
2.06864e-19
0.000317772
7.66252e-20
0.000317772
1.60734e-20
0.000317772
6.22847e-20
0.000317772
2.02999e-19
0.000317772
1.79637e-19
0.000317772
2.47418e-20
0.000317772
8.08718e-20
0.000317772
7.74802e-20
0.000317772
3.63986e-20
0.000317772
3.8139e-20
0.000317772
-1.79196e-20
0.000317772
1.37779e-20
0.000317772
6.35584e-20
0.000317772
1.41566e-19
0.000317772
1.15427e-19
0.000317772
7.3859e-20
0.000317772
5.52839e-20
0.000317772
1.3844e-20
0.000317772
2.83591e-20
0.000317772
4.75432e-20
0.000317772
3.09422e-20
0.000317772
7.73792e-20
0.000317772
-2.54119e-20
0.000317772
4.04442e-20
0.000317772
9.75437e-20
0.000317772
1.14933e-19
0.000317772
1.14742e-19
0.000317772
-5.2538e-20
0.000317772
1.86385e-19
0.000317772
1.11621e-19
0.000317772
7.32718e-20
0.000317772
8.57317e-20
0.000317772
-1.05602e-19
0.000317772
2.69207e-20
0.000317772
-7.40629e-21
0.000317772
8.04499e-20
0.000317772
7.00276e-20
0.000317772
-1.10555e-19
0.000317772
-1.10512e-19
0.000317772
-1.7063e-19
0.000317772
-8.33766e-20
0.000317772
5.91575e-20
0.000317772
-1.61873e-19
0.000317772
-1.70412e-19
0.000317772
-4.08607e-22
0.000317772
-9.47275e-21
0.000317772
1.06663e-19
0.000317772
7.74974e-21
0.000317772
-1.22238e-19
0.000317772
7.24237e-20
0.000317772
1.55102e-19
0.000317772
8.27897e-20
0.000317772
-1.10856e-19
0.000317772
-5.9902e-20
0.000317772
-8.98055e-20
0.000317772
-1.85423e-20
0.000317772
2.21463e-19
0.000317772
1.89293e-20
0.000317772
-7.04074e-20
0.000317772
9.90099e-21
0.000317772
9.29223e-21
0.000317772
-5.23473e-20
0.000317772
-2.38062e-19
0.000317772
-2.06247e-19
0.000317772
-2.19377e-19
0.000317772
-2.27061e-19
0.000317772
-1.89609e-19
0.000317772
-2.5363e-19
0.000317772
-2.90728e-19
0.000317772
-3.28914e-19
0.000317772
-3.00286e-19
0.000317772
-1.05173e-19
0.000317772
-1.22659e-19
0.000317772
-3.40977e-19
0.000317772
-2.60296e-19
0.000317772
1.09286e-19
0.000317772
2.24741e-19
0.000317772
-4.94468e-20
0.000317772
-3.85404e-19
0.000317772
-1.01151e-19
0.000317772
2.46174e-19
0.000317772
1.69554e-19
0.000317772
-2.37421e-20
0.000317772
-3.37385e-19
0.000317772
-1.01715e-19
0.000317772
4.29518e-19
0.000317772
2.8354e-19
0.000317772
-2.33131e-19
0.000317772
-3.52531e-19
0.000317772
7.96302e-20
0.000317772
5.79066e-19
0.000317772
4.49151e-19
0.000317772
-1.6552e-19
0.000317772
-5.32578e-19
0.000317772
-5.40262e-20
0.000317772
4.03237e-19
0.000317772
5.01353e-20
0.000317772
-1.70552e-19
0.000317772
-1.98119e-19
0.000317772
5.7903e-20
0.000317772
3.88077e-19
0.000317772
2.28834e-19
0.000317772
8.55654e-21
0.000317772
-2.87839e-19
0.000317772
-3.63751e-20
0.000317772
4.54638e-19
0.000317772
2.89934e-19
0.000317772
-1.10981e-19
0.000317772
-2.99067e-19
0.000317772
-1.50708e-20
0.000317772
1.2024e-19
0.000317772
-1.17107e-19
0.000317772
-2.56182e-19
0.000317772
-3.61058e-19
0.000317772
2.90769e-20
0.000317772
8.44347e-20
0.000317772
2.9564e-20
0.000317772
1.2804e-19
0.000317772
-1.65323e-19
0.000317772
-1.28336e-19
0.000317772
1.09305e-19
0.000317772
2.60976e-19
0.000317772
2.58047e-19
0.000317772
-1.63909e-20
0.000317772
-5.5396e-20
0.000317772
1.15919e-19
0.000317772
2.35391e-19
0.000317772
2.43962e-19
0.000317772
-2.03303e-19
0.000317772
-1.14886e-19
0.000317772
6.86478e-20
0.000317772
-2.84404e-19
0.000317772
-1.53614e-19
0.000317772
-1.43231e-19
0.000317772
-1.49451e-19
0.000317772
-5.73514e-20
0.000317772
-1.52598e-19
0.000317772
-1.84361e-19
0.000317772
-4.16583e-19
0.000317772
-1.23067e-19
0.000317772
2.28323e-19
0.000317772
-7.42793e-20
0.000317772
-2.28896e-19
0.000317772
-1.66299e-19
0.000317772
1.65197e-20
0.000317772
5.18537e-20
0.000317772
2.18449e-19
0.000317772
-1.24475e-20
0.000317772
-6.18687e-19
0.000317772
-2.79182e-19
0.000317772
8.47786e-20
0.000317772
1.45001e-20
0.000317772
3.519e-20
0.000317772
-2.07924e-19
0.000317772
-3.28321e-20
0.000317772
1.08924e-19
0.000317772
-1.21499e-19
0.000317772
-1.35568e-19
0.000317772
-1.13243e-19
0.000317772
-1.53012e-19
0.000317772
5.28034e-20
0.000317772
7.21368e-20
0.000317772
6.64629e-21
0.000317772
-2.9923e-20
0.000317772
3.26067e-20
0.000317772
1.94423e-19
0.000317772
1.12771e-19
0.000317772
3.6818e-21
0.000317772
-1.07421e-19
0.000317772
3.55145e-20
0.000317772
1.75156e-19
0.000317772
-3.79723e-20
0.000317772
-1.15797e-19
0.000317772
-1.50038e-19
0.000317772
9.18518e-20
0.000317772
8.26706e-20
0.000317772
-5.20249e-20
0.000317772
-4.62097e-20
0.000317772
-2.1053e-19
0.000317772
4.20136e-19
0.000317772
1.74949e-19
0.000317772
-2.42448e-19
0.000317772
2.64745e-19
0.000317772
-1.15388e-19
0.000317772
-7.36295e-20
0.000317772
-2.47161e-19
0.000317772
-4.40985e-19
0.000317772
4.69566e-19
0.000317772
1.8058e-19
0.000317772
-1.29208e-20
0.000317772
-1.34704e-19
0.000317772
-4.6007e-19
0.000317772
4.0232e-19
0.000317772
1.02506e-19
0.000317772
-3.83469e-19
0.000317772
-9.60646e-20
0.000317772
-1.17896e-19
0.000317772
4.82377e-19