/*--------------------------------*- C++ -*----------------------------------*\
| =========                 |                                                 |
| \\      /  F ield         | OpenFOAM: The Open Source CFD Toolbox           |
|  \\    /   O peration     | Version:  2112                                  |
|   \\  /    A nd           | Website:  www.openfoam.com                      |
|    \\/     M anipulation  |                                                 |
\*---------------------------------------------------------------------------*/
FoamFile
{
    version     2.0;
    format      ascii;
    arch        "LSB;label=32;scalar=64";
    class       volVectorField;
    location    "6";
    object      U;
}
// * * * * * * * * * * * * * * * * * * * * * * * * * * * * * * * * * * * * * //

dimensions      [0 1 -1 0 0 0 0];

internalField   nonuniform List<vector> 
25600
(
(0.0379551 -2.92359e-15 0)
(0.0379551 -1.29167e-15 0)
(0.0379551 -3.80807e-16 0)
(0.0379551 -1.64189e-16 0)
(0.0379551 -8.01461e-17 0)
(0.0379551 -4.2151e-17 0)
(0.0379551 -3.35432e-17 0)
(0.0379551 -1.909e-17 0)
(0.0379551 -1.30711e-17 0)
(0.0379551 -1.14881e-17 0)
(0.0379551 2.93423e-19 0)
(0.0379551 -1.4409e-17 0)
(0.0379551 2.02628e-18 0)
(0.0379551 -2.28035e-18 0)
(0.0379551 -1.44892e-17 0)
(0.0379551 1.25195e-17 0)
(0.0379551 -1.63183e-18 0)
(0.0379551 -9.21576e-18 0)
(0.0379551 -7.2067e-18 0)
(0.0379551 -9.97194e-18 0)
(0.0379551 -2.96921e-20 0)
(0.0379551 4.34076e-18 0)
(0.0379551 -3.40508e-18 0)
(0.0379551 -1.22973e-17 0)
(0.0379551 -2.06543e-17 0)
(0.0379551 -7.02729e-18 0)
(0.0379551 3.39514e-17 0)
(0.0379551 3.52317e-19 0)
(0.0379551 -3.3574e-17 0)
(0.0379551 -1.08061e-17 0)
(0.0379551 9.89046e-18 0)
(0.0379551 1.48243e-17 0)
(0.0379551 4.36426e-18 0)
(0.0379551 -3.76563e-18 0)
(0.0379551 1.16684e-18 0)
(0.0379551 -3.89401e-19 0)
(0.0379551 3.15915e-18 0)
(0.0379551 -5.87801e-18 0)
(0.0379551 -1.02194e-17 0)
(0.0379551 1.64347e-17 0)
(0.0379551 2.28533e-18 0)
(0.0379551 2.29811e-17 0)
(0.0379551 -1.51734e-17 0)
(0.0379551 -2.47324e-17 0)
(0.0379551 3.45468e-17 0)
(0.0379551 -1.04651e-17 0)
(0.0379551 7.5767e-18 0)
(0.0379551 4.53381e-18 0)
(0.0379551 3.96897e-19 0)
(0.0379551 -4.38613e-18 0)
(0.0379551 -3.37388e-17 0)
(0.0379551 3.43061e-17 0)
(0.0379551 -2.27039e-18 0)
(0.0379551 -4.14313e-18 0)
(0.0379551 2.90699e-17 0)
(0.0379551 -3.65573e-17 0)
(0.0379551 -4.15289e-19 0)
(0.0379551 -1.2206e-17 0)
(0.0379551 2.23097e-18 0)
(0.0379551 5.12797e-17 0)
(0.0379551 -3.61399e-17 0)
(0.0379551 3.39299e-18 0)
(0.0379551 3.30989e-18 0)
(0.0379551 7.4021e-19 0)
(0.0379551 2.14486e-17 0)
(0.0379551 -2.23908e-17 0)
(0.0379551 -6.57058e-18 0)
(0.0379551 -1.2528e-17 0)
(0.0379551 1.80336e-17 0)
(0.0379551 2.46663e-18 0)
(0.0379551 -1.05233e-17 0)
(0.0379551 -2.58703e-18 0)
(0.0379551 -2.24998e-18 0)
(0.0379551 -5.52582e-18 0)
(0.0379551 8.89609e-18 0)
(0.0379551 -4.06572e-18 0)
(0.0379551 -2.36601e-17 0)
(0.0379551 1.68368e-17 0)
(0.0379551 3.78747e-18 0)
(0.0379551 3.83164e-17 0)
(0.0379551 -4.40769e-17 0)
(0.0379551 -4.99338e-17 0)
(0.0379551 4.01178e-17 0)
(0.0379551 2.08421e-17 0)
(0.0379551 4.27928e-17 0)
(0.0379551 -5.45004e-18 0)
(0.0379551 -7.48439e-17 0)
(0.0379551 -1.06286e-17 0)
(0.0379551 3.91085e-17 0)
(0.0379551 5.57364e-17 0)
(0.0379551 -8.60345e-18 0)
(0.0379551 -8.57095e-17 0)
(0.0379551 -2.43201e-18 0)
(0.0379551 8.12645e-17 0)
(0.0379551 3.0481e-18 0)
(0.0379551 -7.81338e-17 0)
(0.0379551 -9.78745e-18 0)
(0.0379551 1.45772e-18 0)
(0.0379551 7.78338e-17 0)
(0.0379551 3.20011e-17 0)
(0.0379551 -1.18311e-16 0)
(0.0379551 -9.77977e-18 0)
(0.0379551 -2.62282e-18 0)
(0.0379551 7.2864e-17 0)
(0.0379551 1.07135e-17 0)
(0.0379551 -3.55854e-17 0)
(0.0379551 -3.91465e-17 0)
(0.0379551 2.66445e-17 0)
(0.0379551 4.29366e-17 0)
(0.0379551 -1.76003e-17 0)
(0.0379551 2.20699e-17 0)
(0.0379551 -1.2167e-16 0)
(0.0379551 3.33434e-17 0)
(0.0379551 8.43358e-17 0)
(0.0379551 -5.22148e-19 0)
(0.0379551 -4.84354e-17 0)
(0.0379551 -8.35029e-17 0)
(0.0379551 6.44055e-17 0)
(0.0379551 6.49539e-17 0)
(0.0379551 1.45108e-17 0)
(0.0379551 -1.59285e-17 0)
(0.0379551 -8.38015e-17 0)
(0.0379551 -4.02733e-18 0)
(0.0379551 8.39938e-17 0)
(0.0379551 1.27391e-17 0)
(0.0379551 -5.20966e-17 0)
(0.0379551 -5.52746e-17 0)
(0.0379551 1.63384e-18 0)
(0.0379551 8.6704e-17 0)
(0.0379551 3.38965e-18 0)
(0.0379551 -4.98907e-17 0)
(0.0379551 -4.84913e-17 0)
(0.0379551 3.99161e-17 0)
(0.0379551 4.97196e-17 0)
(0.0379551 -3.98238e-17 0)
(0.0379551 -3.35289e-17 0)
(0.0379551 -6.53592e-18 0)
(0.0379551 5.92413e-17 0)
(0.0379551 2.26174e-17 0)
(0.0379551 -3.22868e-17 0)
(0.0379551 -4.2464e-17 0)
(0.0379551 -1.25514e-17 0)
(0.0379551 6.97089e-17 0)
(0.0379551 1.53602e-17 0)
(0.0379551 -5.73815e-17 0)
(0.0379551 5.86343e-17 0)
(0.0379551 -1.44949e-17 0)
(0.0379551 -6.40531e-17 0)
(0.0379551 -9.87331e-18 0)
(0.0379551 7.77917e-18 0)
(0.0379551 7.96467e-17 0)
(0.0379551 -1.09674e-17 0)
(0.0379551 -7.327e-17 0)
(0.0379551 6.29447e-18 0)
(0.0379551 4.59439e-17 0)
(0.0379551 4.38737e-17 0)
(0.0379551 -3.87648e-17 0)
(0.0379551 -5.23546e-17 0)
(0.0379551 3.98398e-17 0)
(0.0379551 1.94173e-17 0)
(0.0379551 7.70759e-17 0)
(0.0379551 -8.67393e-17 0)
(0.0379551 -7.94929e-17 0)
(0.0379551 7.98812e-17 0)
(0.0379551 -2.16111e-18 0)
(0.0379551 7.02457e-17 0)
(0.0379551 -6.15195e-17 0)
(0.0379551 -2.54543e-17 0)
(0.0379551 -4.21066e-18 0)
(0.0379551 -5.95853e-17 0)
(0.0379551 1.20881e-16 0)
(0.0379551 -6.24728e-17 0)
(0.0379551 -9.44118e-18 0)
(0.0379551 1.81857e-19 0)
(0.0379551 -5.13557e-17 0)
(0.0379551 1.19626e-16 0)
(0.0379551 -7.11336e-17 0)
(0.0379551 9.142e-18 0)
(0.0379551 -8.54659e-18 0)
(0.0379551 -5.37733e-17 0)
(0.0379551 1.42321e-16 0)
(0.0379551 -8.11649e-17 0)
(0.0379551 -1.20536e-17 0)
(0.0379551 5.54023e-18 0)
(0.0379551 -5.91241e-17 0)
(0.0379551 1.38234e-16 0)
(0.0379551 -7.1837e-17 0)
(0.0379551 -5.70388e-18 0)
(0.0379551 6.65658e-17 0)
(0.0379551 -1.34299e-16 0)
(0.0379551 6.40712e-17 0)
(0.0379551 -5.48068e-18 0)
(0.0379551 -6.64052e-17 0)
(0.0379551 1.42484e-16 0)
(0.0379551 -5.17735e-17 0)
(0.0379551 -9.62686e-18 0)
(0.0379551 -7.45128e-17 0)
(0.0379551 5.54808e-18 0)
(0.0379551 2.15433e-16 0)
(0.0379551 -1.29658e-16 0)
(0.0379551 -1.93217e-17 0)
(0.0379551 -7.61876e-17 0)
(0.0379551 1.1502e-17 0)
(0.0379551 2.17427e-16 0)
(0.0379551 -1.31154e-16 0)
(0.0379551 -9.71872e-17 0)
(0.0379551 -3.33175e-18 0)
(0.0379551 9.46679e-17 0)
(0.0379551 1.53708e-16 0)
(0.0379551 -6.70347e-17 0)
(0.0379551 -1.63041e-16 0)
(0.0379551 -7.53425e-17 0)
(0.0379551 2.34357e-16 0)
(0.0379551 -1.87492e-18 0)
(0.0379551 -2.31361e-16 0)
(0.0379551 2.17333e-16 0)
(0.0379551 7.97248e-17 0)
(0.0379551 -1.43451e-16 0)
(0.0379551 -9.53244e-17 0)
(0.0379551 -8.38132e-17 0)
(0.0379551 2.40816e-16 0)
(0.0379551 8.97039e-17 0)
(0.0379551 -1.55997e-16 0)
(0.0379551 -1.02176e-16 0)
(0.0379551 -7.77283e-17 0)
(0.0379551 2.35772e-16 0)
(0.0379551 1.24737e-17 0)
(0.0379551 -9.05116e-17 0)
(0.0379551 -2.53923e-17 0)
(0.0379551 -1.30281e-16 0)
(0.0379551 2.24953e-16 0)
(0.0379551 1.2962e-17 0)
(0.0379551 -1.26261e-16 0)
(0.0379551 4.98359e-17 0)
(0.0379551 -9.12045e-17 0)
(0.0379551 1.34066e-16 0)
(0.0379551 1.5539e-17 0)
(0.0379551 -5.88839e-17 0)
(0.0379551 -2.74164e-18 0)
(0.0379551 -1.41904e-16 0)
(0.0379551 2.03355e-16 0)
(0.0379551 2.58734e-18 0)
(0.0379551 -6.90042e-17 0)
(0.0379551 6.62925e-17 0)
(0.0379551 -1.68632e-16 0)
(0.0379551 -1.24653e-17 0)
(0.0379551 8.55255e-17 0)
(0.0379551 8.92365e-17 0)
(0.0379551 -1.09278e-18 0)
(0.0379551 -1.6163e-16 0)
(0.0379551 8.81044e-17 0)
(0.0379551 1.73682e-17 0)
(0.0379551 -5.02102e-18 0)
(0.0379551 5.45721e-17 0)
(0.0379551 -1.50123e-16 0)
(0.0379551 9.49877e-17 0)
(0.0379551 1.0168e-17 0)
(0.0379551 -2.68441e-18 0)
(0.0379551 7.01338e-17 0)
(0.0379551 -1.56509e-16 0)
(0.0379551 6.42793e-17 0)
(0.0379551 8.58222e-18 0)
(0.0379551 -3.23204e-18 0)
(0.0379551 6.36875e-17 0)
(0.0379551 -1.44169e-16 0)
(0.0379551 8.09755e-17 0)
(0.0379551 7.50651e-17 0)
(0.0379551 -5.84891e-17 0)
(0.0379551 -1.63897e-17 0)
(0.0379551 -8.81491e-17 0)
(0.0379551 8.07522e-17 0)
(0.0379551 7.1549e-17 0)
(0.0379551 -1.04905e-16 0)
(0.0379551 5.51469e-17 0)
(0.0379551 -1.79262e-17 0)
(0.0379551 1.9246e-17 0)
(0.0379551 5.18034e-17 0)
(0.0379551 -1.34267e-16 0)
(0.0379551 6.21917e-17 0)
(0.0379551 -1.09442e-17 0)
(0.0379551 8.80187e-18 0)
(0.0379551 6.25904e-17 0)
(0.0379551 -1.18698e-16 0)
(0.0379551 6.0617e-17 0)
(0.0379551 -1.86205e-17 0)
(0.0379551 -4.87092e-17 0)
(0.0379551 1.43023e-16 0)
(0.0379551 -5.10799e-17 0)
(0.0379551 -4.21645e-17 0)
(0.0379551 -8.43596e-17 0)
(0.0379551 4.65088e-17 0)
(0.0379551 2.12345e-16 0)
(0.0379551 -8.14439e-18 0)
(0.0379551 -2.17625e-16 0)
(0.0379551 -2.79327e-17 0)
(0.0379551 9.67186e-17 0)
(0.0379551 1.90114e-17 0)
(0.0379551 1.1341e-16 0)
(0.0379551 -2.01693e-16 0)
(0.0379551 -2.79037e-17 0)
(0.0379551 9.56011e-17 0)
(0.0379551 1.27584e-17 0)
(0.0379551 6.13808e-17 0)
(0.0379551 -1.3959e-16 0)
(0.0379551 2.60849e-17 0)
(0.0379551 7.81487e-18 0)
(0.0379551 -5.90263e-17 0)
(0.0379551 1.21544e-16 0)
(0.0379551 -8.77849e-17 0)
(0.0379551 -1.50642e-17 0)
(0.0379551 -5.13929e-18 0)
(0.0379551 -7.6245e-17 0)
(0.0379551 1.40142e-16 0)
(0.0379551 -8.10505e-17 0)
(0.0379551 -1.18065e-16 0)
(0.0379551 2.36848e-17 0)
(0.0379551 -8.62068e-17 0)
(0.0379551 -8.28182e-17 0)
(0.0379551 -4.40699e-16 0)
(0.0379551 -1.37639e-15 0)
(0.111961 -4.31011e-15 0)
(0.111961 -2.22884e-15 0)
(0.111961 -9.65627e-16 0)
(0.111961 -5.0421e-16 0)
(0.111961 -2.64287e-16 0)
(0.111961 -1.3579e-16 0)
(0.111961 -9.38868e-17 0)
(0.111961 -5.86822e-17 0)
(0.111961 -3.21013e-17 0)
(0.111961 -6.06904e-18 0)
(0.111961 2.45583e-18 0)
(0.111961 -2.55113e-17 0)
(0.111961 -5.24109e-18 0)
(0.111961 -1.79576e-18 0)
(0.111961 -3.19919e-17 0)
(0.111961 7.60451e-18 0)
(0.111961 4.60139e-18 0)
(0.111961 -1.55177e-17 0)
(0.111961 -4.5639e-17 0)
(0.111961 -5.61617e-17 0)
(0.111961 -1.9504e-17 0)
(0.111961 -1.83814e-17 0)
(0.111961 -3.31583e-17 0)
(0.111961 -3.67667e-17 0)
(0.111961 -5.44826e-17 0)
(0.111961 -2.744e-17 0)
(0.111961 3.85294e-17 0)
(0.111961 -4.71862e-18 0)
(0.111961 -4.95638e-17 0)
(0.111961 -4.15181e-17 0)
(0.111961 4.63558e-19 0)
(0.111961 6.48014e-17 0)
(0.111961 5.19325e-17 0)
(0.111961 1.23786e-17 0)
(0.111961 1.65684e-17 0)
(0.111961 2.44473e-17 0)
(0.111961 5.00317e-17 0)
(0.111961 -8.78166e-18 0)
(0.111961 -2.52629e-17 0)
(0.111961 7.10322e-17 0)
(0.111961 -5.47148e-18 0)
(0.111961 -6.03412e-18 0)
(0.111961 -6.1163e-18 0)
(0.111961 -2.24241e-17 0)
(0.111961 5.18724e-17 0)
(0.111961 1.12955e-17 0)
(0.111961 2.15662e-17 0)
(0.111961 2.0837e-17 0)
(0.111961 1.34137e-17 0)
(0.111961 9.03289e-18 0)
(0.111961 -4.56441e-17 0)
(0.111961 3.25394e-17 0)
(0.111961 -1.6733e-17 0)
(0.111961 -1.75986e-17 0)
(0.111961 5.04338e-17 0)
(0.111961 -3.29379e-17 0)
(0.111961 2.8641e-18 0)
(0.111961 1.81215e-17 0)
(0.111961 1.49679e-17 0)
(0.111961 4.2008e-17 0)
(0.111961 -4.11932e-17 0)
(0.111961 4.2724e-17 0)
(0.111961 2.24404e-17 0)
(0.111961 1.2864e-17 0)
(0.111961 3.1497e-17 0)
(0.111961 -4.85185e-17 0)
(0.111961 -3.46521e-18 0)
(0.111961 1.26895e-17 0)
(0.111961 2.01185e-17 0)
(0.111961 2.28393e-17 0)
(0.111961 -4.70943e-17 0)
(0.111961 -2.75459e-17 0)
(0.111961 -3.7948e-17 0)
(0.111961 -4.04346e-17 0)
(0.111961 1.02792e-16 0)
(0.111961 -5.41278e-17 0)
(0.111961 -9.62882e-17 0)
(0.111961 4.79843e-17 0)
(0.111961 4.84136e-18 0)
(0.111961 4.98433e-17 0)
(0.111961 -3.70299e-17 0)
(0.111961 -1.20396e-16 0)
(0.111961 1.28182e-17 0)
(0.111961 8.84962e-17 0)
(0.111961 8.57803e-17 0)
(0.111961 -3.03255e-18 0)
(0.111961 -9.65396e-17 0)
(0.111961 -5.76716e-17 0)
(0.111961 9.7516e-17 0)
(0.111961 1.41941e-16 0)
(0.111961 -2.78771e-17 0)
(0.111961 -1.26992e-16 0)
(0.111961 -2.23523e-17 0)
(0.111961 8.7575e-17 0)
(0.111961 -2.12229e-18 0)
(0.111961 -1.21356e-16 0)
(0.111961 -4.72821e-17 0)
(0.111961 -1.03815e-17 0)
(0.111961 9.13953e-17 0)
(0.111961 1.9286e-17 0)
(0.111961 -1.73655e-16 0)
(0.111961 -2.04726e-17 0)
(0.111961 -7.4176e-17 0)
(0.111961 1.91658e-17 0)
(0.111961 4.52789e-17 0)
(0.111961 -4.42944e-17 0)
(0.111961 -8.54381e-17 0)
(0.111961 2.24661e-18 0)
(0.111961 6.43587e-17 0)
(0.111961 6.19602e-18 0)
(0.111961 2.29621e-17 0)
(0.111961 -2.02551e-16 0)
(0.111961 2.64608e-17 0)
(0.111961 1.77167e-16 0)
(0.111961 1.06846e-18 0)
(0.111961 -7.81867e-17 0)
(0.111961 -1.4178e-16 0)
(0.111961 1.25738e-17 0)
(0.111961 1.39385e-16 0)
(0.111961 3.63158e-17 0)
(0.111961 -3.26726e-17 0)
(0.111961 -1.14689e-16 0)
(0.111961 1.97165e-17 0)
(0.111961 1.8717e-16 0)
(0.111961 6.65118e-17 0)
(0.111961 -1.00894e-16 0)
(0.111961 -1.67422e-16 0)
(0.111961 -7.48524e-19 0)
(0.111961 1.69947e-16 0)
(0.111961 1.86785e-17 0)
(0.111961 -1.16203e-16 0)
(0.111961 -1.14616e-16 0)
(0.111961 5.35287e-17 0)
(0.111961 1.20062e-16 0)
(0.111961 2.66052e-18 0)
(0.111961 1.65928e-17 0)
(0.111961 -9.22321e-17 0)
(0.111961 -4.25622e-17 0)
(0.111961 1.36791e-16 0)
(0.111961 7.42543e-17 0)
(0.111961 1.44447e-17 0)
(0.111961 -1.0897e-16 0)
(0.111961 -4.04278e-17 0)
(0.111961 7.53655e-17 0)
(0.111961 3.22629e-17 0)
(0.111961 -4.26575e-17 0)
(0.111961 -1.50024e-16 0)
(0.111961 -1.78914e-17 0)
(0.111961 9.25173e-18 0)
(0.111961 8.53247e-17 0)
(0.111961 9.88229e-17 0)
(0.111961 -2.02709e-16 0)
(0.111961 -1.34889e-16 0)
(0.111961 1.16791e-16 0)
(0.111961 1.13164e-16 0)
(0.111961 9.8122e-17 0)
(0.111961 -4.51022e-17 0)
(0.111961 -7.15541e-17 0)
(0.111961 6.83845e-17 0)
(0.111961 6.96191e-17 0)
(0.111961 1.23594e-16 0)
(0.111961 -1.21985e-16 0)
(0.111961 -4.62438e-17 0)
(0.111961 9.60879e-17 0)
(0.111961 -1.7401e-16 0)
(0.111961 3.2033e-17 0)
(0.111961 -5.33528e-17 0)
(0.111961 -1.99267e-16 0)
(0.111961 1.36932e-16 0)
(0.111961 8.48289e-17 0)
(0.111961 -3.07977e-17 0)
(0.111961 -1.62394e-16 0)
(0.111961 -4.37123e-17 0)
(0.111961 1.92337e-17 0)
(0.111961 -6.12917e-17 0)
(0.111961 -3.40731e-17 0)
(0.111961 -1.5153e-17 0)
(0.111961 2.80847e-16 0)
(0.111961 -3.9096e-17 0)
(0.111961 -1.11967e-16 0)
(0.111961 1.55411e-16 0)
(0.111961 -1.67269e-16 0)
(0.111961 -5.689e-17 0)
(0.111961 3.19771e-18 0)
(0.111961 -6.3705e-17 0)
(0.111961 1.749e-16 0)
(0.111961 -1.18293e-16 0)
(0.111961 -3.51653e-17 0)
(0.111961 9.16233e-17 0)
(0.111961 -1.70301e-16 0)
(0.111961 4.15667e-17 0)
(0.111961 -2.92786e-17 0)
(0.111961 -9.05571e-17 0)
(0.111961 1.85248e-16 0)
(0.111961 -4.14956e-17 0)
(0.111961 -1.6413e-17 0)
(0.111961 -8.89917e-17 0)
(0.111961 3.97808e-17 0)
(0.111961 2.89017e-16 0)
(0.111961 -1.42045e-16 0)
(0.111961 -4.64488e-17 0)
(0.111961 -9.89334e-17 0)
(0.111961 3.85959e-17 0)
(0.111961 3.05501e-16 0)
(0.111961 -8.40964e-17 0)
(0.111961 -2.38871e-16 0)
(0.111961 -1.13459e-16 0)
(0.111961 2.10294e-16 0)
(0.111961 2.39984e-16 0)
(0.111961 -7.90457e-17 0)
(0.111961 -2.26145e-16 0)
(0.111961 -1.16983e-16 0)
(0.111961 3.49558e-16 0)
(0.111961 1.543e-17 0)
(0.111961 -3.45908e-16 0)
(0.111961 2.67052e-16 0)
(0.111961 1.1138e-16 0)
(0.111961 -1.81921e-16 0)
(0.111961 -1.70445e-16 0)
(0.111961 -1.55708e-16 0)
(0.111961 3.60815e-16 0)
(0.111961 1.5002e-16 0)
(0.111961 -2.09186e-16 0)
(0.111961 -1.78729e-16 0)
(0.111961 -1.38594e-16 0)
(0.111961 3.57532e-16 0)
(0.111961 3.63186e-17 0)
(0.111961 -1.56256e-16 0)
(0.111961 1.25751e-17 0)
(0.111961 -1.06806e-16 0)
(0.111961 1.03323e-16 0)
(0.111961 -3.29045e-17 0)
(0.111961 7.22187e-17 0)
(0.111961 4.80056e-17 0)
(0.111961 -2.85715e-16 0)
(0.111961 4.53722e-17 0)
(0.111961 9.69749e-17 0)
(0.111961 1.51475e-17 0)
(0.111961 4.45274e-17 0)
(0.111961 -1.70895e-16 0)
(0.111961 8.11623e-17 0)
(0.111961 -4.24084e-17 0)
(0.111961 -1.07309e-17 0)
(0.111961 7.93381e-17 0)
(0.111961 -3.04595e-16 0)
(0.111961 -2.16663e-17 0)
(0.111961 1.43734e-16 0)
(0.111961 1.48371e-16 0)
(0.111961 1.0482e-18 0)
(0.111961 -2.27554e-16 0)
(0.111961 1.8764e-16 0)
(0.111961 8.4025e-17 0)
(0.111961 -1.16386e-17 0)
(0.111961 2.63086e-17 0)
(0.111961 -2.05352e-16 0)
(0.111961 2.25144e-16 0)
(0.111961 6.51213e-17 0)
(0.111961 -2.58986e-18 0)
(0.111961 8.22005e-17 0)
(0.111961 -2.50743e-16 0)
(0.111961 8.27818e-17 0)
(0.111961 8.39963e-17 0)
(0.111961 -8.55972e-17 0)
(0.111961 -2.05198e-17 0)
(0.111961 -1.18366e-16 0)
(0.111961 2.01259e-16 0)
(0.111961 1.43447e-16 0)
(0.111961 1.42986e-17 0)
(0.111961 -1.04036e-16 0)
(0.111961 -1.90206e-16 0)
(0.111961 1.10987e-16 0)
(0.111961 8.12885e-17 0)
(0.111961 1.3125e-16 0)
(0.111961 -8.44587e-17 0)
(0.111961 -2.07687e-16 0)
(0.111961 7.75186e-17 0)
(0.111961 9.80811e-19 0)
(0.111961 -1.00236e-16 0)
(0.111961 7.96081e-17 0)
(0.111961 -6.85431e-17 0)
(0.111961 3.90731e-17 0)
(0.111961 1.33165e-16 0)
(0.111961 2.1991e-17 0)
(0.111961 -7.55741e-17 0)
(0.111961 -1.83237e-16 0)
(0.111961 3.5339e-17 0)
(0.111961 1.94226e-16 0)
(0.111961 1.28596e-16 0)
(0.111961 -2.44388e-16 0)
(0.111961 -1.49163e-16 0)
(0.111961 2.27898e-16 0)
(0.111961 4.27742e-18 0)
(0.111961 -7.15743e-17 0)
(0.111961 -1.23537e-16 0)
(0.111961 -9.36229e-19 0)
(0.111961 2.88036e-16 0)
(0.111961 -9.71439e-17 0)
(0.111961 -7.50931e-17 0)
(0.111961 -1.45747e-16 0)
(0.111961 -1.10753e-17 0)
(0.111961 3.14501e-16 0)
(0.111961 -3.53547e-17 0)
(0.111961 5.85045e-17 0)
(0.111961 -1.48911e-16 0)
(0.111961 -3.65545e-16 0)
(0.111961 -1.57428e-17 0)
(0.111961 8.07604e-17 0)
(0.111961 1.39959e-16 0)
(0.111961 -1.64777e-16 0)
(0.111961 -3.527e-17 0)
(0.111961 1.99587e-17 0)
(0.111961 -8.79509e-17 0)
(0.111961 1.8541e-16 0)
(0.111961 -1.17557e-16 0)
(0.111961 -2.17736e-16 0)
(0.111961 -2.84928e-17 0)
(0.111961 -3.82354e-16 0)
(0.111961 -4.59444e-16 0)
(0.111961 -9.48738e-16 0)
(0.111961 -2.30753e-15 0)
(0.184052 -2.41698e-15 0)
(0.184052 -1.68843e-15 0)
(0.184052 -9.9605e-16 0)
(0.184052 -6.1887e-16 0)
(0.184052 -3.79628e-16 0)
(0.184052 -2.23259e-16 0)
(0.184052 -1.41598e-16 0)
(0.184052 -7.41374e-17 0)
(0.184052 -3.65933e-17 0)
(0.184052 -5.4557e-18 0)
(0.184052 1.18138e-17 0)
(0.184052 -1.15083e-17 0)
(0.184052 4.965e-18 0)
(0.184052 -1.27692e-17 0)
(0.184052 -4.88175e-17 0)
(0.184052 -1.82591e-17 0)
(0.184052 -1.31688e-17 0)
(0.184052 -3.57919e-17 0)
(0.184052 -6.44178e-17 0)
(0.184052 -6.99622e-17 0)
(0.184052 -3.67488e-17 0)
(0.184052 -8.17847e-17 0)
(0.184052 -9.14168e-17 0)
(0.184052 -6.09017e-17 0)
(0.184052 -7.33093e-17 0)
(0.184052 -6.8127e-17 0)
(0.184052 -2.29457e-18 0)
(0.184052 -6.78681e-18 0)
(0.184052 -4.89559e-17 0)
(0.184052 -6.72258e-17 0)
(0.184052 4.11307e-17 0)
(0.184052 1.59561e-16 0)
(0.184052 1.06935e-16 0)
(0.184052 1.99978e-17 0)
(0.184052 1.42852e-17 0)
(0.184052 4.11826e-17 0)
(0.184052 9.54313e-17 0)
(0.184052 4.80691e-17 0)
(0.184052 7.69321e-18 0)
(0.184052 5.3522e-17 0)
(0.184052 1.21266e-17 0)
(0.184052 6.39992e-18 0)
(0.184052 2.22519e-17 0)
(0.184052 -3.23378e-17 0)
(0.184052 1.23062e-17 0)
(0.184052 6.4254e-17 0)
(0.184052 3.70685e-17 0)
(0.184052 3.72699e-17 0)
(0.184052 3.93654e-17 0)
(0.184052 2.45718e-17 0)
(0.184052 -1.42408e-18 0)
(0.184052 4.98161e-19 0)
(0.184052 -3.07371e-17 0)
(0.184052 -6.02653e-18 0)
(0.184052 4.48281e-17 0)
(0.184052 -2.15784e-17 0)
(0.184052 1.4814e-17 0)
(0.184052 4.35119e-17 0)
(0.184052 4.41408e-17 0)
(0.184052 6.62317e-17 0)
(0.184052 -3.80783e-17 0)
(0.184052 1.13378e-16 0)
(0.184052 4.56857e-17 0)
(0.184052 -1.85589e-17 0)
(0.184052 6.52414e-17 0)
(0.184052 -7.76955e-17 0)
(0.184052 -2.57764e-18 0)
(0.184052 3.52689e-17 0)
(0.184052 2.92077e-17 0)
(0.184052 2.50672e-17 0)
(0.184052 -7.5533e-17 0)
(0.184052 -5.66036e-17 0)
(0.184052 -7.20238e-17 0)
(0.184052 1.05536e-17 0)
(0.184052 9.54204e-17 0)
(0.184052 -8.87158e-17 0)
(0.184052 -1.22761e-16 0)
(0.184052 9.25887e-18 0)
(0.184052 -9.36667e-18 0)
(0.184052 3.81818e-17 0)
(0.184052 -5.53205e-17 0)
(0.184052 -8.02774e-17 0)
(0.184052 6.6439e-17 0)
(0.184052 9.34117e-17 0)
(0.184052 6.68454e-17 0)
(0.184052 -1.49162e-17 0)
(0.184052 -1.90157e-17 0)
(0.184052 -6.76409e-17 0)
(0.184052 -1.30478e-17 0)
(0.184052 1.52681e-16 0)
(0.184052 1.49088e-17 0)
(0.184052 -6.37963e-17 0)
(0.184052 1.76953e-17 0)
(0.184052 1.46108e-18 0)
(0.184052 -3.06893e-17 0)
(0.184052 -9.64876e-17 0)
(0.184052 -8.41522e-17 0)
(0.184052 -3.8773e-17 0)
(0.184052 -3.60055e-17 0)
(0.184052 -4.42262e-17 0)
(0.184052 -1.04754e-16 0)
(0.184052 -1.00283e-16 0)
(0.184052 -1.14892e-16 0)
(0.184052 -6.84968e-17 0)
(0.184052 -2.47369e-17 0)
(0.184052 -2.02765e-17 0)
(0.184052 -1.75475e-16 0)
(0.184052 -1.33514e-16 0)
(0.184052 9.53796e-17 0)
(0.184052 1.1907e-16 0)
(0.184052 4.54072e-18 0)
(0.184052 -2.57005e-16 0)
(0.184052 -1.99067e-18 0)
(0.184052 1.83988e-16 0)
(0.184052 6.65475e-17 0)
(0.184052 -4.23116e-17 0)
(0.184052 -2.24262e-16 0)
(0.184052 -8.57433e-17 0)
(0.184052 2.64827e-16 0)
(0.184052 1.6975e-16 0)
(0.184052 -1.15672e-16 0)
(0.184052 -2.05993e-16 0)
(0.184052 4.74902e-17 0)
(0.184052 3.38436e-16 0)
(0.184052 2.15447e-16 0)
(0.184052 -1.47324e-16 0)
(0.184052 -4.25721e-16 0)
(0.184052 -1.04558e-17 0)
(0.184052 2.53099e-16 0)
(0.184052 4.7924e-17 0)
(0.184052 -1.10873e-16 0)
(0.184052 -2.27665e-16 0)
(0.184052 4.94856e-17 0)
(0.184052 2.54657e-16 0)
(0.184052 7.16955e-17 0)
(0.184052 -6.12859e-17 0)
(0.184052 -1.30505e-16 0)
(0.184052 1.99504e-17 0)
(0.184052 2.75216e-16 0)
(0.184052 1.33489e-16 0)
(0.184052 -6.67784e-17 0)
(0.184052 -1.60082e-16 0)
(0.184052 3.3455e-17 0)
(0.184052 8.37558e-17 0)
(0.184052 -8.98294e-17 0)
(0.184052 -1.46359e-16 0)
(0.184052 -1.49165e-16 0)
(0.184052 5.74331e-17 0)
(0.184052 1.34267e-17 0)
(0.184052 -5.83388e-17 0)
(0.184052 1.07402e-16 0)
(0.184052 -7.48269e-17 0)
(0.184052 -1.43398e-16 0)
(0.184052 5.16156e-17 0)
(0.184052 1.16885e-16 0)
(0.184052 1.73731e-16 0)
(0.184052 1.50625e-17 0)
(0.184052 -6.88017e-17 0)
(0.184052 7.45529e-17 0)
(0.184052 1.46385e-16 0)
(0.184052 1.47446e-16 0)
(0.184052 -1.53079e-16 0)
(0.184052 -1.30616e-16 0)
(0.184052 1.14097e-16 0)
(0.184052 -6.67923e-17 0)
(0.184052 -6.93871e-17 0)
(0.184052 -9.35987e-17 0)
(0.184052 -1.07278e-16 0)
(0.184052 -3.10099e-17 0)
(0.184052 -5.39931e-17 0)
(0.184052 -1.14072e-16 0)
(0.184052 -1.85795e-16 0)
(0.184052 -7.02976e-17 0)
(0.184052 8.13421e-17 0)
(0.184052 1.03829e-16 0)
(0.184052 -1.31357e-16 0)
(0.184052 -1.41738e-16 0)
(0.184052 1.23494e-16 0)
(0.184052 6.33785e-17 0)
(0.184052 1.57875e-16 0)
(0.184052 1.26755e-17 0)
(0.184052 -3.58952e-16 0)
(0.184052 -1.38571e-16 0)
(0.184052 6.20637e-17 0)
(0.184052 2.84048e-17 0)
(0.184052 1.36114e-16 0)
(0.184052 -1.41338e-16 0)
(0.184052 -1.29599e-16 0)
(0.184052 9.77688e-17 0)
(0.184052 -4.49107e-17 0)
(0.184052 -5.83866e-17 0)
(0.184052 -6.83924e-17 0)
(0.184052 -6.43336e-17 0)
(0.184052 5.25821e-17 0)
(0.184052 1.94272e-17 0)
(0.184052 -1.71634e-17 0)
(0.184052 -1.45399e-17 0)
(0.184052 6.27123e-17 0)
(0.184052 1.42718e-16 0)
(0.184052 9.93158e-18 0)
(0.184052 -2.86758e-17 0)
(0.184052 -3.94364e-17 0)
(0.184052 4.96365e-17 0)
(0.184052 1.17299e-16 0)
(0.184052 -1.2932e-17 0)
(0.184052 -9.35169e-17 0)
(0.184052 -6.73215e-17 0)
(0.184052 8.16299e-17 0)
(0.184052 1.09749e-16 0)
(0.184052 -2.11094e-17 0)
(0.184052 -1.04438e-16 0)
(0.184052 -1.29263e-16 0)
(0.184052 3.41042e-16 0)
(0.184052 4.25302e-17 0)
(0.184052 -2.96889e-16 0)
(0.184052 2.15662e-16 0)
(0.184052 -3.52304e-17 0)
(0.184052 -7.84001e-17 0)
(0.184052 -1.4957e-16 0)
(0.184052 -2.78293e-16 0)
(0.184052 3.9597e-16 0)
(0.184052 1.1155e-16 0)
(0.184052 -1.34212e-16 0)
(0.184052 -1.22079e-16 0)
(0.184052 -2.51245e-16 0)
(0.184052 4.06733e-16 0)
(0.184052 6.17508e-17 0)
(0.184052 -2.53872e-16 0)
(0.184052 -1.25837e-16 0)
(0.184052 -1.77221e-16 0)
(0.184052 3.98925e-16 0)
(0.184052 1.00246e-16 0)
(0.184052 -8.17593e-17 0)
(0.184052 -3.87764e-19 0)
(0.184052 -3.54427e-16 0)
(0.184052 -2.71707e-17 0)
(0.184052 -5.24494e-17 0)
(0.184052 2.44313e-16 0)
(0.184052 2.58136e-16 0)
(0.184052 -3.545e-16 0)
(0.184052 1.26456e-18 0)
(0.184052 -1.62507e-16 0)
(0.184052 3.57727e-17 0)
(0.184052 1.11821e-16 0)
(0.184052 -5.54918e-16 0)
(0.184052 1.10391e-17 0)
(0.184052 1.9478e-16 0)
(0.184052 1.94103e-16 0)
(0.184052 2.31479e-18 0)
(0.184052 -3.04376e-16 0)
(0.184052 4.85638e-16 0)
(0.184052 1.81993e-16 0)
(0.184052 -1.67262e-16 0)
(0.184052 -1.69298e-16 0)
(0.184052 -1.9489e-16 0)
(0.184052 6.52097e-16 0)
(0.184052 9.54614e-17 0)
(0.184052 -1.47031e-16 0)
(0.184052 6.79549e-17 0)
(0.184052 -2.91746e-16 0)
(0.184052 2.03769e-16 0)
(0.184052 3.55749e-17 0)
(0.184052 -9.21997e-17 0)
(0.184052 -6.88581e-17 0)
(0.184052 -1.86561e-16 0)
(0.184052 4.23747e-16 0)
(0.184052 1.41647e-16 0)
(0.184052 -2.66574e-17 0)
(0.184052 1.23076e-17 0)
(0.184052 -2.89315e-16 0)
(0.184052 1.50027e-16 0)
(0.184052 1.04965e-16 0)
(0.184052 9.65524e-17 0)
(0.184052 6.19691e-18 0)
(0.184052 -3.73203e-16 0)
(0.184052 6.0268e-17 0)
(0.184052 -6.44998e-18 0)
(0.184052 -1.94596e-17 0)
(0.184052 9.56407e-17 0)
(0.184052 -2.83266e-16 0)
(0.184052 1.11093e-16 0)
(0.184052 9.60218e-17 0)
(0.184052 4.72077e-17 0)
(0.184052 6.64779e-17 0)
(0.184052 -3.10887e-16 0)
(0.184052 1.261e-16 0)
(0.184052 2.04158e-16 0)
(0.184052 -9.2447e-17 0)
(0.184052 -1.54747e-16 0)
(0.184052 -1.70256e-16 0)
(0.184052 2.41498e-16 0)
(0.184052 1.64455e-16 0)
(0.184052 -1.81657e-16 0)
(0.184052 -4.8334e-18 0)
(0.184052 -5.07623e-17 0)
(0.184052 4.38268e-17 0)
(0.184052 1.95703e-16 0)
(0.184052 -1.41561e-16 0)
(0.184052 -1.39285e-16 0)
(0.184052 -1.3936e-16 0)
(0.184052 1.92206e-16 0)
(0.184052 3.60995e-16 0)
(0.184052 -1.74776e-17 0)
(0.184052 -4.67149e-16 0)
(0.184052 -2.77882e-16 0)
(0.184052 7.03467e-17 0)
(0.184052 6.42941e-19 0)
(0.184052 1.07958e-17 0)
(0.184052 -2.82925e-16 0)
(0.184052 7.84758e-18 0)
(0.184052 6.41333e-17 0)
(0.184052 -9.03599e-17 0)
(0.184052 1.73812e-16 0)
(0.184052 -1.2707e-16 0)
(0.184052 -2.60828e-16 0)
(0.184052 -3.00902e-16 0)
(0.184052 -5.35689e-16 0)
(0.184052 -4.47336e-16 0)
(0.184052 -1.06931e-15 0)
(0.184052 -1.83665e-15 0)
(0.254218 -1.4644e-15 0)
(0.254218 -1.261e-15 0)
(0.254218 -9.15821e-16 0)
(0.254218 -6.29443e-16 0)
(0.254218 -4.24988e-16 0)
(0.254218 -2.67894e-16 0)
(0.254218 -1.47998e-16 0)
(0.254218 -5.56926e-17 0)
(0.254218 -3.99608e-17 0)
(0.254218 -4.96187e-18 0)
(0.254218 6.94663e-18 0)
(0.254218 -1.47655e-17 0)
(0.254218 -1.35678e-18 0)
(0.254218 -8.06884e-18 0)
(0.254218 -5.22205e-17 0)
(0.254218 -4.42181e-17 0)
(0.254218 -1.84496e-17 0)
(0.254218 -5.19537e-17 0)
(0.254218 -8.13867e-17 0)
(0.254218 -7.49336e-17 0)
(0.254218 -5.67167e-17 0)
(0.254218 -1.16501e-16 0)
(0.254218 -1.41226e-16 0)
(0.254218 -1.23537e-16 0)
(0.254218 -1.20724e-16 0)
(0.254218 -5.85283e-17 0)
(0.254218 2.64049e-17 0)
(0.254218 -2.81772e-17 0)
(0.254218 -6.88315e-17 0)
(0.254218 -1.92811e-17 0)
(0.254218 8.71662e-17 0)
(0.254218 1.96463e-16 0)
(0.254218 1.49832e-16 0)
(0.254218 5.08582e-17 0)
(0.254218 1.19898e-17 0)
(0.254218 4.03044e-17 0)
(0.254218 1.47665e-16 0)
(0.254218 1.21068e-16 0)
(0.254218 2.47248e-17 0)
(0.254218 5.66591e-17 0)
(0.254218 4.63104e-17 0)
(0.254218 2.0752e-17 0)
(0.254218 2.18166e-17 0)
(0.254218 -1.27386e-17 0)
(0.254218 2.31464e-17 0)
(0.254218 5.5249e-17 0)
(0.254218 8.05925e-17 0)
(0.254218 5.43802e-17 0)
(0.254218 5.08848e-17 0)
(0.254218 4.53647e-17 0)
(0.254218 -5.10154e-18 0)
(0.254218 2.67011e-17 0)
(0.254218 1.22502e-17 0)
(0.254218 -1.16646e-18 0)
(0.254218 4.91025e-17 0)
(0.254218 -2.54402e-17 0)
(0.254218 2.91451e-17 0)
(0.254218 6.43518e-17 0)
(0.254218 5.73246e-17 0)
(0.254218 1.02349e-16 0)
(0.254218 -5.53485e-18 0)
(0.254218 1.10676e-16 0)
(0.254218 8.139e-17 0)
(0.254218 3.45391e-17 0)
(0.254218 2.97663e-17 0)
(0.254218 -8.59513e-17 0)
(0.254218 4.09031e-17 0)
(0.254218 1.18484e-17 0)
(0.254218 5.37586e-17 0)
(0.254218 6.95984e-17 0)
(0.254218 -1.23218e-16 0)
(0.254218 -8.51497e-17 0)
(0.254218 -1.25262e-16 0)
(0.254218 -3.73458e-17 0)
(0.254218 9.59134e-17 0)
(0.254218 -1.17413e-16 0)
(0.254218 -1.21217e-16 0)
(0.254218 -1.46678e-17 0)
(0.254218 -1.56396e-17 0)
(0.254218 8.3197e-17 0)
(0.254218 -4.50677e-17 0)
(0.254218 -8.82352e-17 0)
(0.254218 7.90841e-17 0)
(0.254218 1.23704e-16 0)
(0.254218 5.63104e-17 0)
(0.254218 -8.30219e-17 0)
(0.254218 -3.17027e-17 0)
(0.254218 -3.05516e-17 0)
(0.254218 -1.12176e-17 0)
(0.254218 1.18719e-16 0)
(0.254218 3.97485e-17 0)
(0.254218 -1.64927e-17 0)
(0.254218 1.59346e-17 0)
(0.254218 3.43969e-18 0)
(0.254218 -5.88584e-17 0)
(0.254218 -1.82186e-16 0)
(0.254218 -1.15868e-16 0)
(0.254218 -9.07544e-17 0)
(0.254218 -1.49162e-16 0)
(0.254218 -1.07795e-16 0)
(0.254218 -1.60016e-16 0)
(0.254218 -1.92429e-16 0)
(0.254218 -2.34914e-16 0)
(0.254218 -1.6472e-16 0)
(0.254218 -1.82241e-17 0)
(0.254218 -7.77284e-17 0)
(0.254218 -2.83932e-16 0)
(0.254218 -2.21527e-16 0)
(0.254218 1.39361e-16 0)
(0.254218 1.99249e-16 0)
(0.254218 -4.46367e-17 0)
(0.254218 -2.97988e-16 0)
(0.254218 -3.21743e-17 0)
(0.254218 1.742e-16 0)
(0.254218 1.2824e-16 0)
(0.254218 4.08777e-17 0)
(0.254218 -3.01115e-16 0)
(0.254218 -1.35608e-16 0)
(0.254218 3.12317e-16 0)
(0.254218 2.74181e-16 0)
(0.254218 -1.56678e-16 0)
(0.254218 -3.05823e-16 0)
(0.254218 1.15927e-16 0)
(0.254218 4.34642e-16 0)
(0.254218 2.13575e-16 0)
(0.254218 -1.18735e-16 0)
(0.254218 -3.88646e-16 0)
(0.254218 -9.48775e-17 0)
(0.254218 2.7972e-16 0)
(0.254218 6.48415e-17 0)
(0.254218 -1.56769e-16 0)
(0.254218 -1.47024e-16 0)
(0.254218 3.1181e-17 0)
(0.254218 2.86832e-16 0)
(0.254218 1.89116e-16 0)
(0.254218 -2.52738e-17 0)
(0.254218 -2.35996e-16 0)
(0.254218 -3.07123e-17 0)
(0.254218 4.28156e-16 0)
(0.254218 2.41652e-16 0)
(0.254218 -1.16963e-16 0)
(0.254218 -3.06189e-16 0)
(0.254218 2.74838e-17 0)
(0.254218 1.2694e-16 0)
(0.254218 -5.9357e-17 0)
(0.254218 -1.50634e-16 0)
(0.254218 -3.85119e-16 0)
(0.254218 1.98391e-17 0)
(0.254218 1.15148e-16 0)
(0.254218 3.95705e-17 0)
(0.254218 5.12817e-17 0)
(0.254218 -2.12721e-16 0)
(0.254218 -2.8066e-17 0)
(0.254218 1.34585e-16 0)
(0.254218 1.65755e-16 0)
(0.254218 1.53436e-16 0)
(0.254218 -3.6611e-17 0)
(0.254218 -2.76057e-17 0)
(0.254218 1.55606e-16 0)
(0.254218 1.83009e-16 0)
(0.254218 1.51908e-16 0)
(0.254218 -2.14995e-16 0)
(0.254218 -7.60005e-17 0)
(0.254218 1.47642e-16 0)
(0.254218 -1.92801e-16 0)
(0.254218 -1.36475e-16 0)
(0.254218 -1.1911e-16 0)
(0.254218 -1.13892e-16 0)
(0.254218 -5.65611e-17 0)
(0.254218 -1.08753e-16 0)
(0.254218 -1.53615e-16 0)