/*--------------------------------*- C++ -*----------------------------------*\
| =========                 |                                                 |
| \\      /  F ield         | OpenFOAM: The Open Source CFD Toolbox           |
|  \\    /   O peration     | Version:  2112                                  |
|   \\  /    A nd           | Website:  www.openfoam.com                      |
|    \\/     M anipulation  |                                                 |
\*---------------------------------------------------------------------------*/
FoamFile
{
    version     2.0;
    format      ascii;
    arch        "LSB;label=32;scalar=64";
    class       volScalarField;
    location    "2.4";
    object      p;
}
// * * * * * * * * * * * * * * * * * * * * * * * * * * * * * * * * * * * * * //

dimensions      [0 2 -2 0 0 0 0];

internalField   nonuniform List<scalar> 
16641
(
-2.32812e-08
1.12657e-05
2.13702e-05
2.65629e-05
2.40149e-05
1.23607e-05
-8.74073e-06
-3.90731e-05
-7.81367e-05
-0.000125294
-0.000179858
-0.000241161
-0.000308586
-0.000381593
-0.000459735
-0.000542663
-0.000630126
-0.000721966
-0.000818111
-0.000918563
-0.00102339
-0.00113269
-0.00124661
-0.00136531
-0.00148895
-0.00161767
-0.00175158
-0.00189078
-0.00203528
-0.00218507
-0.00234004
-0.00250002
-0.00266476
-0.00283392
-0.00300706
-0.00318363
-0.00336299
-0.00354438
-0.00372694
-0.00390969
-0.00409152
-0.00427122
-0.00444746
-0.00461881
-0.00478374
-0.00494063
-0.00508779
-0.00522346
-0.00534585
-0.00545317
-0.0055436
-0.00561541
-0.00566688
-0.00569645
-0.00570266
-0.00568422
-0.00564006
-0.00556936
-0.00547155
-0.00534641
-0.00519402
-0.00501485
-0.00480975
-0.00457998
-0.00432721
-0.00405355
-0.0037615
-0.00345384
-0.00313403
-0.00280564
-0.00247258
-0.00213905
-0.00180944
-0.00148825
-0.00118005
-0.000889383
-0.000620685
-0.000378184
-0.00016583
1.27972e-05
0.00015457
0.000256883
0.000317718
0.000335691
0.000310095
0.000240919
0.000128849
-2.47441e-05
-0.000217834
-0.000447792
-0.000711458
-0.00100518
-0.00132496
-0.00166651
-0.00202538
-0.00239701
-0.00277692
-0.0031607
-0.00354417
-0.00392344
-0.00429493
-0.0046555
-0.00500238
-0.0053333
-0.00564639
-0.00594026
-0.00621391
-0.00646675
-0.00669855
-0.00690938
-0.00709959
-0.00726972
-0.00742051
-0.00755278
-0.00766743
-0.00776536
-0.00784747
-0.00791456
-0.00796738
-0.00800656
-0.00803267
-0.00804624
-0.00804788
-0.00803841
-0.00801919
-0.0079925
-0.00796219
-0.00793399
-0.00791663
-1.22582e-05
-6.9332e-07
6.35421e-06
7.8922e-06
2.72983e-06
-1.02101e-05
-3.13459e-05
-6.0646e-05
-9.78231e-05
-0.000142439
-0.000193984
-0.000251932
-0.00031578
-0.000385076
-0.000459437
-0.000538555
-0.000622205
-0.000710238
-0.000802577
-0.000899213
-0.00100019
-0.00110559
-0.00121553
-0.00133014
-0.00144955
-0.00157388
-0.00170323
-0.00183768
-0.00197724
-0.00212189
-0.00227154
-0.00242602
-0.00258511
-0.00274849
-0.00291576
-0.0030864
-0.00325983
-0.00343534
-0.00361212
-0.00378925
-0.00396569
-0.0041403
-0.00431183
-0.00447892
-0.00464012
-0.00479389
-0.00493861
-0.0050726
-0.00519416
-0.00530153
-0.005393
-0.00546686
-0.00552147
-0.00555529
-0.00556689
-0.00555502
-0.00551861
-0.00545682
-0.00536909
-0.00525515
-0.00511504
-0.00494917
-0.00475834
-0.00454369
-0.00430682
-0.00404972
-0.00377475
-0.00348466
-0.00318259
-0.00287202
-0.00255674
-0.00224075
-0.00192827
-0.00162364
-0.00133125
-0.00105547
-0.000800571
-0.00057062
-0.000369419
-0.000200411
-6.66062e-05
2.94934e-05
8.59497e-05
0.00010144
7.52915e-05
7.5014e-06
-0.000101262
-0.000249672
-0.000435777
-0.000657047
-0.000910436
-0.00119246
-0.00149928
-0.0018268
-0.00217076
-0.00252684
-0.00289073
-0.00325828
-0.00362551
-0.00398874
-0.00434458
-0.00469006
-0.00502259
-0.00534
-0.00564055
-0.00592293
-0.0061862
-0.0064298
-0.0066535
-0.00685737
-0.00704172
-0.00720704
-0.00735402
-0.00748341
-0.00759605
-0.0076928
-0.00777452
-0.007842
-0.007896
-0.00793723
-0.00796634
-0.00798399
-0.00799094
-0.00798813
-0.00797689
-0.00795921
-0.00793798
-0.00791673
-0.00789928
-2.30891e-05
-8.22752e-06
-1.0972e-06
-7.08947e-07
-6.9107e-06
-2.04127e-05
-4.15281e-05
-7.02153e-05
-0.000106235
-0.00014923
-0.000198774
-0.000254415
-0.000315718
-0.000382285
-0.000453775
-0.000529914
-0.000610497
-0.00069539
-0.000784524
-0.000877889
-0.000975525
-0.00107751
-0.00118395
-0.00129497
-0.00141069
-0.00153123
-0.00165669
-0.00178714
-0.0019226
-0.00206307
-0.00220846
-0.00235864
-0.0025134
-0.00267245
-0.00283543
-0.00300188
-0.00317123
-0.00334284
-0.00351595
-0.00368968
-0.00386307
-0.00403501
-0.00420432
-0.0043697
-0.00452973
-0.00468294
-0.00482775
-0.00496253
-0.0050856
-0.00519524
-0.00528974
-0.00536743
-0.00542666
-0.00546589
-0.00548368
-0.00547875
-0.00545
-0.00539657
-0.00531783
-0.00521346
-0.00508344
-0.00492813
-0.00474822
-0.00454481
-0.00431939
-0.0040739
-0.00381045
-0.00353195
-0.00324135
-0.00294203
-0.00263768
-0.00233224
-0.00202984
-0.00173474
-0.00145127
-0.00118373
-0.000936329
-0.000713077
-0.000517729
-0.000353689
-0.000223929
-0.000130925
-7.65929e-05
-6.22407e-05
-8.85341e-05
-0.000155476
-0.000262404
-0.000408007
-0.000590357
-0.000806953
-0.00105479
-0.00133043
-0.00163011
-0.00194977
-0.00228525
-0.0026323
-0.00298672
-0.00334446
-0.00370163
-0.00405467
-0.00440031
-0.00473567
-0.00505828
-0.00536608
-0.00565741
-0.00593104
-0.00618612
-0.00642213
-0.0066389
-0.00683653
-0.00701533
-0.00717584
-0.00731871
-0.00744472
-0.00755468
-0.00764945
-0.00772988
-0.00779678
-0.00785092
-0.00789303
-0.00792378
-0.00794386
-0.007954
-0.00795505
-0.00794809
-0.00793464
-0.00791677
-0.00789556
-0.00787093
-2.88979e-05
-1.02251e-05
-1.91167e-06
-1.59253e-06
-8.11619e-06
-2.18621e-05
-4.29733e-05
-7.13091e-05
-0.000106605
-0.000148512
-0.00019663
-0.000250547
-0.000309862
-0.000374212
-0.000443288
-0.000516844
-0.000594693
-0.000676721
-0.000762874
-0.000853152
-0.000947602
-0.00104631
-0.00114939
-0.00125698
-0.00136919
-0.00148617
-0.00160801
-0.0017348
-0.00186659
-0.00200339
-0.00214514
-0.00229173
-0.002443
-0.0025987
-0.00275849
-0.00292196
-0.00308861
-0.00325783
-0.00342892
-0.00360104
-0.00377329
-0.0039446
-0.00411384
-0.00427974
-0.00444094
-0.00459597
-0.00474327
-0.00488124
-0.00500819
-0.0051224
-0.00522215
-0.00530574
-0.00537149
-0.00541781
-0.00544322
-0.00544638
-0.00542613
-0.00538153
-0.0053119
-0.00521683
-0.00509623
-0.00495037
-0.00477988
-0.00458578
-0.00436952
-0.00413298
-0.00387801
-0.00360766
-0.00332481
-0.00303278
-0.00273521
-0.00243602
-0.00213931
-0.00184932
-0.00157038
-0.00130678
-0.00106274
-0.000842285
-0.000649186
-0.000486862
-0.000358308
-0.00026602
-0.000211937
-0.000197386
-0.000223048
-0.000288938
-0.000394404
-0.000538137
-0.000718207
-0.00093211
-0.00117683
-0.00144893
-0.00174461
-0.00205985
-0.00239046
-0.00273219
-0.00308088
-0.00343247
-0.00378313
-0.00412933
-0.00446785
-0.0047959
-0.00511105
-0.00541133
-0.00569516
-0.00596141
-0.00620927
-0.00643835
-0.00664852
-0.00683994
-0.00701301
-0.00716829
-0.00730648
-0.0074284
-0.0075349
-0.00762684
-0.00770511
-0.00777053
-0.00782388
-0.00786589
-0.00789722
-0.00791851
-0.00793038
-0.00793349
-0.00792855
-0.00791662
-0.00789901
-0.00787472
-0.0078408
-2.68062e-05
-5.43028e-06
3.81314e-06
4.14755e-06
-2.6281e-06
-1.66402e-05
-3.78638e-05
-6.60551e-05
-0.000100896
-0.000142019
-0.000189029
-0.000241526
-0.000299133
-0.000361512
-0.000428378
-0.000499506
-0.000574738
-0.000653979
-0.000737195
-0.000824404
-0.000915674
-0.00101111
-0.00111084
-0.00121501
-0.00132378
-0.00143728
-0.00155566
-0.00167902
-0.00180744
-0.00194096
-0.00207956
-0.00222318
-0.00237169
-0.00252488
-0.00268249
-0.00284414
-0.00300939
-0.00317768
-0.00334836
-0.00352065
-0.00369368
-0.00386644
-0.00403781
-0.00420656
-0.00437134
-0.00453068
-0.00468304
-0.00482678
-0.00496019
-0.00508152
-0.005189
-0.00528086
-0.00535537
-0.00541086
-0.00544578
-0.0054587
-0.00544836
-0.00541376
-0.0053541
-0.00526889
-0.00515797
-0.00502152
-0.00486008
-0.00467462
-0.00446646
-0.00423723
-0.00398957
-0.00372567
-0.00344856
-0.00316158
-0.00286838
-0.00257286
-0.00227915
-0.00199149
-0.00171425
-0.00145175
-0.00120826
-0.000987844
-0.000794334
-0.000631204
-0.000501507
-0.000407797
-0.000352064
-0.000335683
-0.000359377
-0.000423191
-0.000526494
-0.000667986
-0.000845734
-0.00105722
-0.00129941
-0.00156883
-0.00186164
-0.00217377
-0.00250101
-0.00283905
-0.00318369
-0.00353086
-0.00387671
-0.0042177
-0.00455064
-0.00487273
-0.00518162
-0.00547538
-0.0057525
-0.0060119
-0.0062529
-0.00647515
-0.00667864
-0.00686359
-0.0070305
-0.00718
-0.00731286
-0.00742995
-0.00753219
-0.00762049
-0.00769575
-0.00775884
-0.00781056
-0.00785161
-0.00788265
-0.00790421
-0.00791681
-0.00792086
-0.00791675
-0.00790506
-0.0078865
-0.00785837
-0.00781536
-1.53158e-05
7.33903e-06
1.68926e-05
1.69871e-05
9.77838e-06
-4.6776e-06
-2.62229e-05
-5.45162e-05
-8.91801e-05
-0.000129817
-0.000176021
-0.000227393
-0.000283569
-0.000344228
-0.000409106
-0.000478001
-0.00055078
-0.000627373
-0.000707773
-0.000792026
-0.000880227
-0.000972508
-0.00106903
-0.00116997
-0.00127551
-0.00138583
-0.0015011
-0.00162148
-0.00174707
-0.00187797
-0.00201421
-0.00215578
-0.0023026
-0.00245453
-0.00261135
-0.00277276
-0.00293836
-0.00310765
-0.00328003
-0.00345477
-0.00363102
-0.00380781
-0.00398404
-0.00415847
-0.00432974
-0.00449638
-0.0046568
-0.0048093
-0.00495214
-0.00508348
-0.00520148
-0.00530427
-0.00539003
-0.00545698
-0.00550346
-0.00552795
-0.00552909
-0.00550574
-0.00545704
-0.00538239
-0.00528154
-0.00515457
-0.00500199
-0.00482467
-0.00462391
-0.00440136
-0.00415931
-0.00390024
-0.0036271
-0.00334322
-0.00305223
-0.00275807
-0.00246488
-0.00217698
-0.00189875
-0.0016346
-0.00138885
-0.00116567
-0.000968946
-0.00080226
-0.000668748
-0.000571055
-0.000511255
-0.000490804
-0.000510492
-0.000570424
-0.000670011
-0.000807981
-0.000982412
-0.00119078
-0.00143002
-0.00169663
-0.00198671
-0.00229614
-0.0026206
-0.00295576
-0.00329731
-0.00364113
-0.00398331
-0.00432025
-0.00464874
-0.00496599
-0.00526962
-0.00555774
-0.00582889
-0.00608204
-0.00631658
-0.00653224
-0.0067291
-0.00690749
-0.00706798
-0.0072113
-0.00733833
-0.00745
-0.0075473
-0.00763121
-0.00770271
-0.00776267
-0.00781193
-0.00785119
-0.00788105
-0.007902
-0.00791441
-0.00791848
-0.0079143
-0.00790207
-0.00788202
-0.00785014
-0.00779935
6.15927e-06
2.87007e-05
3.78109e-05
3.72322e-05
2.92613e-05
1.40752e-05
-8.06491e-06
-3.6737e-05
-7.15089e-05
-0.00011195
-0.000157636
-0.000208169
-0.000263187
-0.000322383
-0.000385512
-0.000452399
-0.000522937
-0.000597086
-0.000674871
-0.000756377
-0.000841735
-0.000931116
-0.00102472
-0.00112277
-0.0012255
-0.00133313
-0.00144589
-0.00156399
-0.00168759
-0.00181684
-0.00195184
-0.00209264
-0.00223924
-0.00239157
-0.00254945
-0.00271266
-0.00288086
-0.0030536
-0.00323031
-0.00341031
-0.00359276
-0.00377671
-0.00396103
-0.00414448
-0.00432565
-0.00450302
-0.00467493
-0.0048396
-0.00499519
-0.00513976
-0.00527135
-0.00538797
-0.00548768
-0.00556857
-0.00562887
-0.00566691
-0.00568123
-0.00567058
-0.00563398
-0.00557075
-0.00548055
-0.00536338
-0.00521967
-0.00505025
-0.0048564
-0.00463966
-0.00440231
-0.00414685
-0.00387621
-0.00359373
-0.00330307
-0.00300817
-0.00271324
-0.00242263
-0.0021408
-0.00187225
-0.00162137
-0.00139244
-0.00118947
-0.00101613
-0.0008757
-0.000770937
-0.000704037
-0.00067657
-0.000689431
-0.000742818
-0.000836217
-0.000968414
-0.00113752
-0.00134104
-0.00157588
-0.00183851
-0.00212499
-0.00243112
-0.00275251
-0.00308471
-0.00342335
-0.00376418
-0.0041032
-0.00443675
-0.00476152
-0.00507468
-0.00537383
-0.00565705
-0.00592289
-0.00617037
-0.00639891
-0.00660832
-0.00679876
-0.00697065
-0.00712465
-0.0072616
-0.00738247
-0.0074883
-0.00758016
-0.00765911
-0.00772619
-0.00778234
-0.00782841
-0.00786511
-0.00789304
-0.0079126
-0.00792405
-0.00792743
-0.00792256
-0.00790937
-0.00788771
-0.00785266
-0.00779589
3.77379e-05
5.88796e-05
6.67512e-05
6.49725e-05
5.58192e-05
3.95516e-05
1.65085e-05
-1.28301e-05
-4.79877e-05
-8.85048e-05
-0.000133943
-0.000183899
-0.000238018
-0.000296005
-0.000357638
-0.000422768
-0.000491319
-0.000563288
-0.000638742
-0.000717809
-0.000800667
-0.000887541
-0.000978687
-0.00107438
-0.00117492
-0.00128059
-0.00139168
-0.00150848
-0.00163122
-0.00176013
-0.00189538
-0.00203711
-0.00218539
-0.0023402
-0.00250148
-0.00266904
-0.00284259
-0.00302174
-0.00320596
-0.00339456
-0.00358672
-0.00378145
-0.00397761
-0.00417389
-0.00436881
-0.00456076
-0.00474796
-0.00492854
-0.00510051
-0.0052618
-0.0054103
-0.00554388
-0.00566046
-0.00575798
-0.00583452
-0.00588831
-0.00591773
-0.00592144
-0.00589835
-0.00584768
-0.005769
-0.00566225
-0.00552778
-0.00536637
-0.00517924
-0.00496795
-0.0047347
-0.00448199
-0.00421275
-0.00393032
-0.00363837
-0.00334089
-0.00304212
-0.00274647
-0.0024585
-0.00218276
-0.00192377
-0.00168591
-0.00147334
-0.00128987
-0.00113892
-0.00102341
-0.000945697
-0.0009075
-0.000909865
-0.000953124
-0.00103688
-0.00116003
-0.00132074
-0.00151657
-0.00174446
-0.00200085
-0.00228179
-0.00258298
-0.00289998
-0.00322824
-0.00356325
-0.00390066
-0.00423634
-0.00456651
-0.00488777
-0.00519719
-0.00549229
-0.0057711
-0.00603217
-0.00627448
-0.0064975
-0.00670106
-0.0068854
-0.007051
-0.00719863
-0.00732921
-0.00744382
-0.0075436
-0.00762971
-0.00770332
-0.00776553
-0.00781734
-0.00785966
-0.00789321
-0.00791859
-0.00793615
-0.00794607
-0.00794826
-0.00794237
-0.00792808
-0.00790502
-0.00786765
-0.00780687
7.92913e-05
9.78728e-05
0.000103734
0.000100199
8.9409e-05
7.16854e-05
4.74199e-05
1.713e-05
-1.86783e-05
-5.95268e-05
-0.000104969
-0.000154599
-0.000208073
-0.000265116
-0.000325529
-0.000389193
-0.00045607
-0.000526203
-0.000599706
-0.000676763
-0.000757611
-0.000842539
-0.000931871
-0.00102596
-0.00112517
-0.00122988
-0.00134046
-0.00145727
-0.00158065
-0.00171092
-0.00184834
-0.00199313
-0.00214545
-0.00230537
-0.00247287
-0.00264786
-0.00283007
-0.00301916
-0.00321458
-0.00341566
-0.00362155
-0.0038312
-0.0040434
-0.00425675
-0.00446966
-0.00468039
-0.00488703
-0.00508755
-0.0052798
-0.00546154
-0.00563049
-0.00578438
-0.00592095
-0.00603799
-0.00613344
-0.00620538
-0.00625208
-0.00627208
-0.00626419
-0.00622752
-0.00616158
-0.00606622
-0.00594174
-0.00578883
-0.00560859
-0.00540283
-0.00517345
-0.00492298
-0.00465435
-0.0043709
-0.0040763
-0.00377458
-0.00347001
-0.00316707
-0.00287037
-0.00258456
-0.00231429
-0.00206406
-0.00183817
-0.00164062
-0.001475
-0.00134443
-0.00125145
-0.001198
-0.00118531
-0.00121391
-0.00128356
-0.00139331
-0.00154148
-0.00172568
-0.00194295
-0.00218974
-0.00246208
-0.00275566
-0.00306595
-0.0033883
-0.0037181
-0.00405084
-0.00438228
-0.00470847
-0.00502588
-0.00533144
-0.00562258
-0.00589723
-0.00615386
-0.00639142
-0.00660936
-0.00680752
-0.00698617
-0.00714586
-0.00728741
-0.00741184
-0.00752031
-0.00761406
-0.00769437
-0.00776248
-0.00781959
-0.00786677
-0.00790497
-0.00793498
-0.00795738
-0.00797254
-0.00798057
-0.00798129
-0.00797423
-0.00795893
-0.00793485
-0.00789611
-0.00783324
0.000130547
0.000145524
0.000148646
0.000142809
0.000129935
0.000110386
8.45886e-05
5.30776e-05
1.63696e-05
-2.50492e-05
-7.07341e-05
-0.000120285
-0.000173378
-0.000229761
-0.000289265
-0.00035181
-0.000417403
-0.00048614
-0.000558195
-0.000633815
-0.000713312
-0.000797051
-0.000885439
-0.000978918
-0.00107795
-0.00118301
-0.00129457
-0.00141309
-0.00153903
-0.0016728
-0.00181476
-0.00196524
-0.00212449
-0.00229265
-0.00246978
-0.00265582
-0.00285055
-0.00305363
-0.0032645
-0.00348245
-0.00370657
-0.00393572
-0.00416859
-0.00440363
-0.00463913
-0.00487317
-0.00510367
-0.00532841
-0.00554506
-0.0057512
-0.00594438
-0.00612212
-0.00628201
-0.0064217
-0.00653895
-0.00663172
-0.00669817
-0.0067367
-0.00674603
-0.00672519
-0.00667357
-0.00659097
-0.00647761
-0.00633412
-0.00616157
-0.0059616
-0.00573618
-0.00548777
-0.00521928
-0.004934
-0.00463563
-0.00432818
-0.00401595
-0.00370348
-0.00339543
-0.00309657
-0.00281164
-0.0025453
-0.00230201
-0.00208595
-0.00190095
-0.00175034
-0.00163692
-0.00156286
-0.00152966
-0.00153809
-0.00158816
-0.00167912
-0.00180947
-0.00197699
-0.00217882
-0.00241151
-0.00267111
-0.00295331
-0.00325353
-0.00356705
-0.00388912
-0.00421512
-0.00454063
-0.00486155
-0.00517418
-0.00547529
-0.00576214
-0.00603255
-0.00628486
-0.00651795
-0.00673119
-0.00692442
-0.00709786
-0.00725212
-0.00738805
-0.00750673
-0.00760941
-0.00769741
-0.0077721
-0.00783481
-0.00788683
-0.00792931
-0.00796329
-0.00798958
-0.00800882
-0.00802137
-0.00802733
-0.00802649
-0.0080183
-0.00800221
-0.00797758
-0.00793844
-0.00787525
0.000191136
0.000201546
0.000201252
0.000192605
0.000177225
0.000155505
0.000127891
9.49099e-05
5.7074e-05
1.48615e-05
-3.12943e-05
-8.10191e-05
-0.000134011
-0.00019005
-0.000249007
-0.000310849
-0.000375641
-0.000443538
-0.000514785
-0.00058971
-0.000668708
-0.000752238
-0.000840809
-0.000934968
-0.00103529
-0.00114236
-0.00125678
-0.00137912
-0.00150997
-0.00164984
-0.00179923
-0.00195855
-0.00212814
-0.00230823
-0.00249893
-0.0027002
-0.00291185
-0.0031335
-0.00336456
-0.00360424
-0.00385152
-0.00410516
-0.00436368
-0.00462537
-0.00488834
-0.00515047
-0.00540948
-0.00566295
-0.00590835
-0.00614305
-0.00636441
-0.00656978
-0.00675657
-0.00692227
-0.00706451
-0.00718109
-0.00727006
-0.00732972
-0.00735866
-0.00735582
-0.00732052
-0.00725245
-0.00715176
-0.00701899
-0.00685517
-0.0066618
-0.00644083
-0.00619466
-0.00592613
-0.00563851
-0.00533545
-0.00502096
-0.00469935
-0.00437517
-0.00405316
-0.00373817
-0.00343505
-0.00314861
-0.00288349
-0.0026441
-0.00243448
-0.00225826
-0.00211851
-0.00201773
-0.00195771
-0.00193954
-0.00196353
-0.00202923
-0.00213539
-0.00228003
-0.00246047
-0.0026734
-0.00291497
-0.0031809
-0.00346661
-0.00376731
-0.00407818
-0.00439444
-0.00471152
-0.00502514
-0.0053314
-0.00562688
-0.00590866
-0.00617436
-0.00642217
-0.00665085
-0.00685965
-0.00704833
-0.00721707
-0.00736646
-0.00749735
-0.00761086
-0.00770829
-0.00779103
-0.00786051
-0.00791817
-0.00796537
-0.00800336
-0.00803323
-0.00805588
-0.00807197
-0.00808192
-0.00808584
-0.00808351
-0.00807436
-0.0080578
-0.00803315
-0.00799453
-0.0079326
0.000260594
0.000265543
0.000261207
0.00024928
0.000231014
0.000206815
0.00017713
0.000142459
0.00010329
6.00747e-05
1.32163e-05
-3.69435e-05
-9.01388e-05
-0.000146194
-0.000205031
-0.000266674
-0.000331254
-0.000399001
-0.000470245
-0.000545403
-0.000624974
-0.000709528
-0.000799689
-0.00089613
-0.000999553
-0.00111068
-0.00123025
-0.00135897
-0.00149755
-0.00164664
-0.00180685
-0.0019787
-0.0021626
-0.00235884
-0.00256758
-0.00278879
-0.00302224
-0.00326751
-0.00352394
-0.00379061
-0.00406637
-0.0043498
-0.00463925
-0.00493282
-0.00522837
-0.00552359
-0.00581598
-0.00610288
-0.00638155
-0.00664917
-0.00690289
-0.00713989
-0.0073574
-0.00755275
-0.00772343
-0.00786712
-0.00798174
-0.00806545
-0.00811677
-0.00813451
-0.00811789
-0.00806653
-0.00798044
-0.00786009
-0.00770642
-0.00752083
-0.00730516
-0.00706174
-0.00679333
-0.00650313
-0.00619474
-0.00587211
-0.00553956
-0.00520164
-0.00486312
-0.00452892
-0.00420402
-0.00389336
-0.00360178
-0.0033339
-0.00309405
-0.00288615
-0.00271361
-0.00257928
-0.00248535
-0.00243328
-0.00242377
-0.00245672
-0.00253126
-0.0026457
-0.00279763
-0.00298397
-0.00320103
-0.00344464
-0.00371025
-0.00399306
-0.00428819
-0.00459074
-0.00489598
-0.00519944
-0.005497
-0.00578503
-0.00606036
-0.00632042
-0.00656319
-0.00678722
-0.00699162
-0.00717601
-0.0073405
-0.00748557
-0.00761207
-0.0077211
-0.00781397
-0.00789212
-0.00795704
-0.00801023
-0.00805312
-0.00808705
-0.00811318
-0.00813248
-0.00814568
-0.00815325
-0.00815533
-0.00815174
-0.00814192
-0.00812528
-0.00810113
-0.00806384
-0.00800452
0.00033836
0.000337003
0.000328044
0.000312417
0.000290928
0.000263984
0.000232011
0.000195462
0.000154774
0.000110353
6.25565e-05
1.16801e-05
-4.20623e-05
-9.85522e-05
-0.000157774
-0.000219823
-0.000284907
-0.000353347
-0.000425571
-0.000502104
-0.000583563
-0.000670647
-0.000764115
-0.000864781
-0.000973496
-0.00109113
-0.00121858
-0.00135669
-0.00150633
-0.00166826
-0.0018432
-0.00203178
-0.00223446
-0.00245161
-0.00268336
-0.00292967
-0.00319027
-0.00346464
-0.00375198
-0.00405124
-0.00436108
-0.00467989
-0.00500579
-0.00533664
-0.0056701
-0.00600358
-0.00633436
-0.00665956
-0.00697621
-0.00728129
-0.00757175
-0.00784458
-0.00809685
-0.00832574
-0.0085286
-0.00870297
-0.00884664
-0.00895767
-0.00903444
-0.00907566
-0.00908045
-0.00904829
-0.00897909
-0.00887322
-0.00873148
-0.00855516
-0.00834599
-0.00810618
-0.00783837
-0.00754567
-0.00723159
-0.00690002
-0.00655523
-0.00620174
-0.00584435
-0.00548803
-0.00513783
-0.00479885
-0.00447611
-0.00417447
-0.00389855
-0.00365258
-0.00344037
-0.00326517
-0.00312961
-0.00303561
-0.00298433
-0.00297615
-0.00301061
-0.00308645
-0.00320164
-0.00335338
-0.00353826
-0.00375229
-0.00399103
-0.00424973
-0.00452347
-0.00480727
-0.00509626
-0.00538577
-0.00567148
-0.00594948
-0.00621636
-0.00646928
-0.00670596
-0.00692473
-0.00712448
-0.00730464
-0.00746516
-0.00760642
-0.00772916
-0.00783444
-0.00792355
-0.00799792
-0.00805908
-0.00810856
-0.00814787
-0.00817839
-0.00820136
-0.00821784
-0.00822861
-0.0082342
-0.00823483
-0.00823034
-0.00822023
-0.00820395
-0.00818082
-0.00814559
-0.00808995
0.000423759
0.000415279
0.000401167
0.00038147
0.000356468
0.000326556
0.000292117
0.000253526
0.000211147
0.00016532
0.000116339
6.44335e-05
9.74946e-06
-4.76646e-05
-0.00010787
-0.000171046
-0.000237496
-0.000307645
-0.000382032
-0.000461312
-0.00054624
-0.000637657
-0.000736477
-0.000843675
-0.000960266
-0.00108729
-0.00122579
-0.00137679
-0.00154128
-0.00172016
-0.00191426
-0.00212427
-0.00235072
-0.00259397
-0.00285415
-0.00313116
-0.00342462
-0.00373388
-0.00405799
-0.0043957
-0.00474545
-0.00510541
-0.00547343
-0.00584715
-0.00622394
-0.00660099
-0.00697531
-0.00734379
-0.00770326
-0.00805047
-0.00838218
-0.00869522
-0.00898648
-0.00925299
-0.00949196
-0.00970079
-0.00987714
-0.010019
-0.0101245
-0.0101924
-0.0102215
-0.0102113
-0.0101616
-0.0100725
-0.00994474
-0.00977948
-0.0095783
-0.00934325
-0.00907686
-0.00878208
-0.00846231
-0.00812136
-0.00776337
-0.00739285
-0.00701455
-0.00663347
-0.00625475
-0.00588358
-0.00552516
-0.00518459
-0.00486677
-0.00457628
-0.00431735
-0.00409366
-0.00390835
-0.00376387
-0.00366192
-0.00360344
-0.00358851
-0.00361639
-0.00368553
-0.00379356
-0.00393742
-0.0041134
-0.00431728
-0.00454443
-0.00478995
-0.00504883
-0.00531608
-0.00558686
-0.00585661
-0.00612116
-0.00637682
-0.00662044
-0.00684944
-0.00706186
-0.0072563
-0.00743198
-0.00758861
-0.00772639
-0.00784593
-0.00794818
-0.00803435
-0.00810583
-0.00816414
-0.00821084
-0.00824744
-0.00827539
-0.008296
-0.00831036
-0.00831934
-0.00832354
-0.00832322
-0.00831832
-0.00830839
-0.00829293
-0.00827131
-0.00823874
-0.00818762
0.000515966
0.000499597
0.000479835
0.000455739
0.000426985
0.000393928
0.000356879
0.000316105
0.000271874
0.000224435
0.000173996
0.000120704
6.46207e-05
5.70868e-06
-5.61875e-05
-0.000121348
-0.000190184
-0.000263242
-0.000341199
-0.000424851
-0.000515107
-0.000612974
-0.000719538
-0.000835951
-0.000963408
-0.00110313
-0.00125632
-0.00142416
-0.00160778
-0.00180821
-0.00202635
-0.00226295
-0.00251858
-0.00279355
-0.00308795
-0.00340157
-0.0037339
-0.00408412
-0.00445106
-0.00483325
-0.0052289
-0.00563588
-0.00605181
-0.00647403
-0.00689967
-0.00732563
-0.00774869
-0.00816552
-0.00857269
-0.00896678
-0.00934434
-0.00970203
-0.0100366
-0.0103449
-0.0106239
-0.0108711
-0.0110839
-0.01126
-0.0113977
-0.0114954
-0.011552
-0.0115667
-0.0115391
-0.0114693
-0.0113578
-0.0112056
-0.0110142
-0.0107854
-0.0105215
-0.0102254
-0.00990039
-0.00955001
-0.00917834
-0.00878979
-0.00838905
-0.0079811
-0.0075711
-0.00716434
-0.00676616
-0.00638187
-0.00601664
-0.00567542
-0.00536282
-0.00508306
-0.00483977
-0.00463601
-0.00447412
-0.00435565
-0.00428135
-0.00425112
-0.00426399
-0.00431816
-0.00441105
-0.00453936
-0.00469918
-0.0048861
-0.00509535
-0.00532193
-0.00556079
-0.00580694
-0.00605561
-0.00630235
-0.00654316
-0.00677456
-0.00699361
-0.007198
-0.00738602
-0.00755656
-0.00770906
-0.00784348
-0.00796021
-0.00806005
-0.00814406
-0.00821356
-0.00827
-0.00831492
-0.00834982
-0.00837619
-0.00839536
-0.00840847
-0.00841646
-0.00841998
-0.00841938
-0.00841464
-0.00840542
-0.00839126
-0.00837162
-0.00834217
-0.00829616
0.000614012
0.000589004
0.000563139
0.000534365
0.000501667
0.000465326
0.000425551
0.00038247
0.000336225
0.00028695
0.000234746
0.000179655
0.000121639
6.05542e-05
-3.86247e-06
-7.20105e-05
-0.00014443
-0.000221807
-0.00030497
-0.000394881
-0.000492622
-0.000599382
-0.000716437
-0.000845131
-0.000986849
-0.00114299
-0.00131494
-0.00150402
-0.0017115
-0.0019385
-0.00218599
-0.00245475
-0.00274532
-0.00305797
-0.00339267
-0.00374907
-0.00412649
-0.00452388
-0.00493985
-0.00537266
-0.00582022
-0.00628016
-0.00674978
-0.00722615
-0.00770611
-0.00818632
-0.0086633
-0.00913347
-0.0095932
-0.0100388
-0.0104668
-0.0108735
-0.0112556
-0.0116097
-0.0119328
-0.0122221
-0.0124748
-0.0126888
-0.012862
-0.0129928
-0.0130798
-0.0131222
-0.0131194
-0.0130714
-0.0129785
-0.0128416
-0.0126618
-0.0124409
-0.0121811
-0.0118849
-0.0115554
-0.011196
-0.0108107
-0.0104038
-0.00997972
-0.00954347
-0.00910017
-0.00865514
-0.00821384
-0.00778172
-0.00736422
-0.00696662
-0.00659395
-0.00625088
-0.00594166
-0.00566995
-0.00543878
-0.00525044
-0.00510643
-0.00500739
-0.00495309
-0.00494242
-0.00497342
-0.00504335
-0.00514875
-0.00528555
-0.00544922
-0.00563487
-0.00583746
-0.00605191
-0.00627325
-0.00649677
-0.00671815
-0.00693353
-0.0071396
-0.00733363
-0.00751353
-0.0076778
-0.00782554
-0.00795639
-0.00807047
-0.00816834
-0.00825088
-0.00831924
-0.00837479
-0.00841897
-0.00845326
-0.00847911
-0.00849788
-0.00851074
-0.00851866
-0.00852234
-0.00852219
-0.00851828
-0.00851033
-0.00849797
-0.0084807
-0.00845475
-0.00841418
0.000716734
0.000682372
0.000649994
0.00061631
0.000579516
0.000539785
0.00049719
0.000451687
0.000403257
0.000351895
0.000297569
0.000240199
0.000179626
0.000115583
4.76775e-05
-2.46244e-05
-0.000102013
-0.000185335
-0.00027559
-0.000373921
-0.000481605
-0.000600032
-0.000730681
-0.000875099
-0.00103487
-0.00121157
-0.00140675
-0.00162188
-0.00185834
-0.00211732
-0.00239983
-0.00270662
-0.00303819
-0.0033947
-0.00377598
-0.00418149
-0.00461032
-0.00506118
-0.0055324
-0.00602194
-0.00652743
-0.00704617
-0.00757518
-0.00811124
-0.00865089
-0.00919053
-0.00972643
-0.0102548
-0.0107717
-0.0112734
-0.011756
-0.0122159
-0.0126494
-0.0130532
-0.0134239
-0.0137587
-0.0140549
-0.0143099
-0.0145216
-0.0146883
-0.0148086
-0.0148813
-0.0149059
-0.0148822
-0.0148102
-0.0146907
-0.0145246
-0.0143135
-0.0140594
-0.0137645
-0.0134318
-0.0130645
-0.0126664
-0.0122413
-0.0117938
-0.0113287
-0.010851
-0.010366
-0.00987925
-0.00939623
-0.0089226
-0.00846394
-0.00802565
-0.00761289
-0.00723045
-0.00688266
-0.00657328
-0.00630539
-0.00608133
-0.00590261
-0.00576985
-0.00568278
-0.00564024
-0.00564018
-0.00567975
-0.0057554
-0.00586297
-0.00599781
-0.00615499
-0.0063294
-0.00651596
-0.00670971
-0.00690601
-0.00710061
-0.00728978
-0.00747035
-0.00763976
-0.00779606
-0.00793792
-0.00806461
-0.00817588
-0.00827199
-0.00835356
-0.00842153
-0.00847709
-0.00852155
-0.00855631
-0.00858277
-0.00860225
-0.00861592
-0.00862477
-0.00862952
-0.00863065
-0.00862828
-0.0086222
-0.00861212
-0.0085976
-0.00857539
-0.00854039
0.000822768
0.000778376
0.000739118
0.000700331
0.000659328
0.000616131
0.000570639
0.000522594
0.000471788
0.000418046
0.000361184
0.000300975
0.000237117
0.000169205
9.66964e-05
1.88991e-05
-6.50455e-05
-0.000156163
-0.000255646
-0.000364839
-0.000485231
-0.000618426
-0.000766119
-0.000930064
-0.00111204
-0.00131381
-0.00153707
-0.00178343
-0.00205432
-0.002351
-0.00267446
-0.00302541
-0.00340423
-0.00381094
-0.00424518
-0.00470617
-0.00519274
-0.00570332
-0.00623593
-0.00678821
-0.00735747
-0.0079407
-0.00853459
-0.00913562
-0.00974006
-0.010344
-0.0109435
-0.0115345
-0.0121129
-0.0126747
-0.0132158
-0.0137325
-0.014221
-0.0146776
-0.0150992
-0.0154825
-0.0158248
-0.0161235
-0.0163763
-0.0165815
-0.0167373
-0.0168428
-0.016897
-0.0168996
-0.0168507
-0.0167506
-0.0166003
-0.016401
-0.0161545
-0.0158629
-0.0155287
-0.015155
-0.0147453
-0.0143032
-0.0138332
-0.0133397
-0.0128276
-0.0123021
-0.0117687
-0.011233
-0.0107007
-0.0101777
-0.00966951
-0.00918189
-0.00872011
-0.00828914
-0.00789349
-0.00753707
-0.00722312
-0.0069541
-0.00673162
-0.0065564
-0.00642821
-0.0063459
-0.00630743
-0.0063099
-0.00634972
-0.00642266
-0.00652401
-0.00664879
-0.00679184
-0.00694804
-0.00711245
-0.00728044
-0.00744783
-0.00761095
-0.00776671
-0.00791267
-0.00804699
-0.00816844
-0.00827636
-0.00837062
-0.00845148
-0.00851962
-0.00857597
-0.00862167
-0.00865796
-0.00868614
-0.00870745
-0.00872303
-0.00873385
-0.00874066
-0.00874392
-0.00874383
-0.00874024
-0.0087329
-0.00872145
-0.00870313
-0.00867364
0.000930529
0.000875478
0.000829017
0.000784978
0.000739684
0.000692968
0.000644505
0.000593787
0.000540381
0.000483917
0.00042403
0.000360329
0.000292349
0.000219521
0.000141134
5.63177e-05
-3.59745e-05
-0.00013697
-0.000248071
-0.000370846
-0.000507008
-0.000658387
-0.0008269
-0.00101451
-0.00122319
-0.00145487
-0.00171138
-0.00199442
-0.00230547
-0.00264579
-0.00301633
-0.00341769
-0.00385011
-0.00431339
-0.00480695
-0.00532974
-0.00588028
-0.00645667
-0.00705661
-0.0076774
-0.00831601
-0.00896908
-0.00963299
-0.0103039
-0.0109778
-0.0116505
-0.0123178
-0.0129753
-0.0136189
-0.0142442
-0.014847
-0.0154235
-0.0159696
-0.0164818
-0.0169565
-0.0173906
-0.0177812
-0.0181255
-0.0184214
-0.0186667
-0.01886
-0.0189999
-0.0190855
-0.0191163
-0.0190923
-0.0190136
-0.018881
-0.0186954
-0.0184585
-0.0181721
-0.0178386
-0.0174606
-0.0170413
-0.0165842
-0.0160933
-0.0155728
-0.0150275
-0.0144624
-0.0138828
-0.0132941
-0.0127023
-0.0121131
-0.0115326
-0.0109666
-0.010421
-0.00990126
-0.00941267
-0.00895995
-0.00854729
-0.00817816
-0.00785526
-0.0075804
-0.00735447
-0.00717739
-0.00704811
-0.00696465
-0.00692415
-0.00692299
-0.0069569
-0.00702116
-0.00711067
-0.00722026
-0.00734472
-0.0074791
-0.00761873
-0.00775942
-0.00789753
-0.00803002