/*--------------------------------*- C++ -*----------------------------------*\
| =========                 |                                                 |
| \\      /  F ield         | OpenFOAM: The Open Source CFD Toolbox           |
|  \\    /   O peration     | Version:  2112                                  |
|   \\  /    A nd           | Website:  www.openfoam.com                      |
|    \\/     M anipulation  |                                                 |
\*---------------------------------------------------------------------------*/
FoamFile
{
    version     2.0;
    format      ascii;
    arch        "LSB;label=32;scalar=64";
    class       surfaceScalarField;
    location    "2.4";
    object      phi;
}
// * * * * * * * * * * * * * * * * * * * * * * * * * * * * * * * * * * * * * //

dimensions      [0 3 -1 0 0 0 0];

oriented        oriented;

internalField   nonuniform List<scalar> 
33024
(
-1.36742e-11
1.38424e-11
2.22006e-10
-2.35673e-10
7.06978e-10
-4.84974e-10
1.36419e-09
-6.57207e-10
2.12089e-09
-7.56698e-10
2.91801e-09
-7.97123e-10
3.70993e-09
-7.91912e-10
4.46266e-09
-7.52738e-10
5.15171e-09
-6.89052e-10
5.76002e-09
-6.08319e-10
6.2764e-09
-5.1637e-10
6.69412e-09
-4.17725e-10
7.00991e-09
-3.1579e-10
7.22296e-09
-2.13035e-10
7.33411e-09
-1.11156e-10
7.3453e-09
-1.11955e-11
7.25886e-09
8.64513e-11
7.07713e-09
1.81726e-10
6.80209e-09
2.75033e-10
6.43505e-09
3.6704e-10
5.97644e-09
4.58613e-10
5.4257e-09
5.50742e-10
4.78121e-09
6.44484e-10
4.04033e-09
7.4089e-10
3.19938e-09
8.40945e-10
2.25384e-09
9.45538e-10
1.19842e-09
1.05542e-09
2.72439e-11
1.17117e-09
-1.26597e-09
1.29321e-09
-2.68771e-09
1.42174e-09
-4.24452e-09
1.55681e-09
-5.94277e-09
1.69825e-09
-7.78849e-09
1.84572e-09
-9.78718e-09
1.9987e-09
-1.19437e-08
2.15649e-09
-1.42619e-08
2.31825e-09
-1.67449e-08
2.48292e-09
-1.93942e-08
2.64934e-09
-2.22103e-08
2.81614e-09
-2.51922e-08
2.98182e-09
-2.83369e-08
3.14472e-09
-3.16399e-08
3.30302e-09
-3.50947e-08
3.4548e-09
-3.86927e-08
3.59799e-09
-4.24231e-08
3.73041e-09
-4.62729e-08
3.84982e-09
-5.02268e-08
3.9539e-09
-5.42671e-08
4.04029e-09
-5.83737e-08
4.10662e-09
-6.25243e-08
4.15057e-09
-6.66941e-08
4.16985e-09
-7.08564e-08
4.1623e-09
-7.49823e-08
4.12586e-09
-7.90409e-08
4.05867e-09
-8.3e-08
3.95907e-09
-8.68257e-08
3.82565e-09
-9.0483e-08
3.65732e-09
-9.39362e-08
3.45326e-09
-9.71493e-08
3.21307e-09
-1.00086e-07
2.93671e-09
-1.02711e-07
2.62458e-09
-1.04988e-07
2.27752e-09
-1.06885e-07
1.89685e-09
-1.08369e-07
1.48441e-09
-1.09412e-07
1.04258e-09
-1.09986e-07
5.74227e-10
-1.1007e-07
8.40168e-11
-1.09641e-07
-4.29289e-10
-1.08686e-07
-9.5482e-10
-1.07195e-07
-1.49112e-09
-1.05162e-07
-2.03249e-09
-1.02589e-07
-2.57328e-09
-9.94816e-08
-3.10759e-09
-9.58524e-08
-3.62926e-09
-9.17204e-08
-4.132e-09
-8.71109e-08
-4.60947e-09
-8.20555e-08
-5.05539e-09
-7.65919e-08
-5.46365e-09
-7.07634e-08
-5.82845e-09
-6.4619e-08
-6.14441e-09
-5.82123e-08
-6.40672e-09
-5.1601e-08
-6.61126e-09
-4.48463e-08
-6.7547e-09
-3.80117e-08
-6.83463e-09
-3.11621e-08
-6.84963e-09
-2.43627e-08
-6.79937e-09
-1.76781e-08
-6.6846e-09
-1.11709e-08
-6.50721e-09
-4.9007e-09
-6.27018e-09
1.07688e-09
-5.97758e-09
6.71142e-09
-5.63454e-09
1.19581e-08
-5.24668e-09
1.67789e-08
-4.82078e-09
2.11429e-08
-4.364e-09
2.50267e-08
-3.88386e-09
2.84149e-08
-3.38813e-09
3.12994e-08
-2.88454e-09
3.36801e-08
-2.38064e-09
3.55637e-08
-1.88361e-09
3.69638e-08
-1.40011e-09
3.78999e-08
-9.36102e-10
3.83967e-08
-4.96791e-10
3.84832e-08
-8.65153e-11
3.81918e-08
2.91339e-10
3.75576e-08
6.34259e-10
3.66169e-08
9.40715e-10
3.54068e-08
1.21004e-09
3.39644e-08
1.44241e-09
3.23257e-08
1.63872e-09
3.05252e-08
1.80054e-09
2.85952e-08
1.92996e-09
2.65658e-08
2.02944e-09
2.44641e-08
2.10172e-09
2.23145e-08
2.14958e-09
2.01388e-08
2.1757e-09
1.79564e-08
2.18242e-09
1.57849e-08
2.1715e-09
1.3641e-08
2.14382e-09
1.15419e-08
2.09911e-09
9.50637e-09
2.03557e-09
7.55683e-09
1.94953e-09
5.72171e-09
1.83512e-09
4.03769e-09
1.68403e-09
2.55205e-09
1.48563e-09
1.32389e-09
1.22816e-09
4.21347e-10
9.02545e-10
-9.07247e-11
5.12073e-10
-1.90889e-10
1.00164e-10
-1.90889e-10
2.35194e-10
-2.21345e-10
1.014e-09
-1.01447e-09
2.25785e-09
-1.72883e-09
3.84171e-09
-2.24107e-09
5.63251e-09
-2.5475e-09
7.50898e-09
-2.6736e-09
9.36903e-09
-2.65196e-09
1.11309e-08
-2.51461e-09
1.27317e-08
-2.28987e-09
1.41249e-08
-2.00145e-09
1.52773e-08
-1.66877e-09
1.61668e-08
-1.30729e-09
1.678e-08
-9.28966e-10
1.71097e-08
-5.42731e-10
1.71534e-08
-1.54829e-10
1.69115e-08
2.30724e-10
1.63859e-08
6.12005e-10
1.55791e-08
9.88577e-10
1.44927e-08
1.3614e-09
1.31273e-08
1.73242e-09
1.14816e-08
2.10434e-09
9.55202e-09
2.48031e-09
7.33281e-09
2.8637e-09
4.81582e-09
3.25787e-09
1.99078e-09
3.66599e-09
-1.15452e-09
4.09084e-09
-4.63382e-09
4.53473e-09
-8.46199e-09
4.99935e-09
-1.26545e-08
5.48576e-09
-1.72271e-08
5.99432e-09
-2.2195e-08
6.52467e-09
-2.75725e-08
7.07574e-09
-3.33726e-08
7.64577e-09
-3.96062e-08
8.23231e-09
-4.62819e-08
8.83224e-09
-5.34055e-08
9.4418e-09
-6.09792e-08
1.00566e-08
-6.90016e-08
1.06718e-08
-7.74671e-08
1.12817e-08
-8.63656e-08
1.18803e-08
-9.56818e-08
1.24609e-08
-1.05395e-07
1.30166e-08
-1.15481e-07
1.35399e-08
-1.25906e-07
1.4023e-08
-1.36633e-07
1.44578e-08
-1.47619e-07
1.48361e-08
-1.58815e-07
1.51496e-08
-1.70165e-07
1.53901e-08
-1.81607e-07
1.55493e-08
-1.93076e-07
1.56195e-08
-2.045e-07
1.55933e-08
-2.15801e-07
1.54637e-08
-2.269e-07
1.52245e-08
-2.37711e-07
1.48703e-08
-2.48149e-07
1.43966e-08
-2.58123e-07
1.37998e-08
-2.67543e-07
1.30776e-08
-2.76319e-07
1.22289e-08
-2.8436e-07
1.12539e-08
-2.91577e-07
1.01543e-08
-2.97886e-07
8.93318e-09
-3.03204e-07
7.59519e-09
-3.07453e-07
6.14657e-09
-3.10564e-07
4.5952e-09
-3.12472e-07
2.95071e-09
-3.13123e-07
1.22454e-09
-3.12468e-07
-5.70642e-10
-3.10472e-07
-2.42509e-09
-3.0711e-07
-4.31734e-09
-3.02368e-07
-6.23295e-09
-2.96246e-07
-8.15404e-09
-2.88758e-07
-1.00617e-08
-2.79929e-07
-1.19362e-08
-2.69801e-07
-1.37573e-08
-2.58429e-07
-1.55046e-08
-2.4588e-07
-1.71576e-08
-2.3224e-07
-1.86961e-08
-2.17603e-07
-2.01008e-08
-2.02078e-07
-2.13533e-08
-1.85785e-07
-2.24368e-08
-1.68856e-07
-2.3336e-08
-1.51429e-07
-2.40381e-08
-1.33651e-07
-2.45327e-08
-1.15674e-07
-2.48121e-08
-9.76516e-08
-2.48719e-08
-7.97401e-08
-2.47108e-08
-6.20936e-08
-2.43311e-08
-4.48623e-08
-2.37385e-08
-2.81902e-08
-2.29422e-08
-1.22131e-08
-2.19547e-08
2.94398e-09
-2.07916e-08
1.71688e-08
-1.94715e-08
3.03631e-08
-1.80151e-08
4.24445e-08
-1.64454e-08
5.33474e-08
-1.47867e-08
6.30237e-08
-1.30644e-08
7.14431e-08
-1.13039e-08
7.8593e-08
-9.53055e-09
8.44781e-08
-7.76869e-09
8.91193e-08
-6.04135e-09
9.25528e-08
-4.36964e-09
9.48284e-08
-2.77238e-09
9.60077e-08
-1.26575e-09
9.61621e-08
1.36921e-10
9.5371e-08
1.4253e-09
9.37196e-08
2.59214e-09
9.12965e-08
3.63313e-09
8.81921e-08
4.54685e-09
8.44963e-08
5.33449e-09
8.02973e-08
5.99958e-09
7.56796e-08
6.54758e-09
7.07236e-08
6.98547e-09
6.55041e-08
7.32122e-09
6.00905e-08
7.56321e-09
5.45466e-08
7.71954e-09
4.89318e-08
7.7973e-09
4.33015e-08
7.80174e-09
3.771e-08
7.73538e-09
3.22121e-08
7.59701e-09
2.68668e-08
7.38081e-09
2.17409e-08
7.07546e-09
1.69123e-08
6.66372e-09
1.24737e-08
6.12259e-09
8.5342e-09
5.42514e-09
5.21663e-09
4.54574e-09
2.64679e-09
3.47239e-09
9.29093e-10
2.22977e-09
1.03521e-10
9.25741e-10
-8.73692e-11
4.86046e-10
-7.07393e-10
1.73262e-09
-2.26104e-09
3.56667e-09
-3.56288e-09
5.81519e-09
-4.4896e-09
8.3076e-09
-5.0399e-09
1.08873e-08
-5.25329e-09
1.34186e-08
-5.18325e-09
1.57891e-08
-4.88511e-09
1.79091e-08
-4.40985e-09
1.97095e-08
-3.80185e-09
2.1139e-08
-3.09833e-09
2.21613e-08
-2.32959e-09
2.27519e-08
-1.5195e-09
2.28953e-08
-6.86148e-10
2.25829e-08
1.57563e-10
2.18104e-08
1.00319e-09
2.05761e-08
1.84628e-09
1.88792e-08
2.68556e-09
1.67181e-08
3.52244e-09
1.40901e-08
4.3604e-09
1.09901e-08
5.20438e-09
7.41012e-09
6.06029e-09
3.33935e-09
6.93446e-09
-1.23596e-09
7.83318e-09
-6.3323e-09
8.76233e-09
-1.19684e-08
9.72697e-09
-1.81649e-08
1.07312e-08
-2.49432e-08
1.17776e-08
-3.23252e-08
1.28678e-08
-4.03324e-08
1.40016e-08
-4.8985e-08
1.51772e-08
-5.83008e-08
1.63916e-08
-6.82949e-08
1.76399e-08
-7.89787e-08
1.89161e-08
-9.03589e-08
2.02125e-08
-1.02437e-07
2.15201e-08
-1.15209e-07
2.28286e-08
-1.28664e-07
2.41266e-08
-1.42784e-07
2.54013e-08
-1.57543e-07
2.66391e-08
-1.72907e-07
2.78251e-08
-1.88834e-07
2.8944e-08
-2.05274e-07
2.99796e-08
-2.22166e-07
3.09151e-08
-2.39442e-07
3.17336e-08
-2.57024e-07
3.24181e-08
-2.74826e-07
3.29517e-08
-2.92753e-07
3.33178e-08
-3.10705e-07
3.35006e-08
-3.2857e-07
3.34851e-08
-3.46235e-07
3.32575e-08
-3.63576e-07
3.28055e-08
-3.8047e-07
3.21183e-08
-3.96787e-07
3.11871e-08
-4.12396e-07
3.00053e-08
-4.27164e-07
2.85684e-08
-4.40961e-07
2.68745e-08
-4.53657e-07
2.49242e-08
-4.65124e-07
2.27211e-08
-4.75241e-07
2.02713e-08
-4.83892e-07
1.75841e-08
-4.90968e-07
1.46716e-08
-4.96371e-07
1.15489e-08
-5.00009e-07
8.23406e-09
-5.01807e-07
4.74829e-09
-5.01701e-07
1.11812e-09
-4.99633e-07
-2.63849e-09
-4.95572e-07
-6.48593e-09
-4.89496e-07
-1.03931e-08
-4.81402e-07
-1.43273e-08
-4.71302e-07
-1.82536e-08
-4.59229e-07
-2.2135e-08
-4.45231e-07
-2.59337e-08
-4.29378e-07
-2.96111e-08
-4.11754e-07
-3.31284e-08
-3.92464e-07
-3.6447e-08
-3.71631e-07
-3.95292e-08
-3.49393e-07
-4.2339e-08
-3.25904e-07
-4.4842e-08
-3.01334e-07
-4.7007e-08
-2.75864e-07
-4.88059e-08
-2.49688e-07
-5.02148e-08
-2.23006e-07
-5.12141e-08
-1.96029e-07
-5.17896e-08
-1.68968e-07
-5.19327e-08
-1.42038e-07
-5.16406e-08
-1.15452e-07
-5.09169e-08
-8.94192e-08
-4.97717e-08
-6.41402e-08
-4.82212e-08
-3.98067e-08
-4.62882e-08
-1.65971e-08
-4.40013e-08
5.32562e-09
-4.13942e-08
2.58165e-08
-3.8506e-08
4.47502e-08
-3.53791e-08
6.20234e-08
-3.20599e-08
7.75552e-08
-2.85962e-08
9.12887e-08
-2.50374e-08
1.03191e-07
-2.14326e-08
1.13252e-07
-1.783e-08
1.21486e-07
-1.42756e-08
1.27929e-07
-1.08123e-08
1.32636e-07
-7.47915e-09
1.3568e-07
-4.31056e-09
1.37153e-07
-1.33567e-09
1.37156e-07
1.42192e-09
1.35804e-07
3.9445e-09
1.33217e-07
6.22008e-09
1.29522e-07
8.24238e-09
1.24846e-07
1.00104e-08
1.19317e-07
1.15279e-08
1.13062e-07
1.2803e-08
1.06201e-07
1.38467e-08
9.88493e-08
1.46726e-08
9.11172e-08
1.52953e-08
8.31075e-08
1.57293e-08
7.49176e-08
1.59872e-08
6.66409e-08
1.60785e-08
5.83685e-08
1.60077e-08
5.0193e-08
1.57726e-08
4.22112e-08
1.53626e-08
3.45289e-08
1.47578e-08
2.72642e-08
1.39284e-08
2.05507e-08
1.28361e-08
1.45373e-08
1.14385e-08
9.3843e-09
9.69879e-09
5.25091e-09
7.60579e-09
2.27351e-09
5.20717e-09
5.30436e-10
2.66882e-09
4.43067e-10
6.62091e-10
-1.36949e-09
2.25522e-09
-3.85418e-09
4.51032e-09
-5.81797e-09
7.20254e-09
-7.18182e-09
1.0129e-08
-7.96641e-09
1.3109e-08
-8.23326e-09
1.59858e-08
-8.06005e-09
1.86278e-08
-7.5271e-09
2.09277e-08
-6.70972e-09
2.28005e-08
-5.67467e-09
2.41811e-08
-4.47894e-09
2.50211e-08
-3.16957e-09
2.52857e-08
-1.78412e-09
2.49509e-08
-3.51372e-10
2.40006e-08
1.10785e-09
2.24241e-08
2.57974e-09
2.02137e-08
4.05664e-09
1.73633e-08
5.53602e-09
1.38661e-08
7.01958e-09
9.71423e-09
8.51227e-09
4.89717e-09
1.00214e-08
-5.98423e-10
1.15559e-08
-6.789e-09
1.3125e-08
-1.36941e-08
1.47382e-08
-2.13357e-08
1.6404e-08
-2.97383e-08
1.81296e-08
-3.89275e-08
1.99203e-08
-4.89292e-08
2.17794e-08
-5.97692e-08
2.37077e-08
-7.14711e-08
2.57035e-08
-8.40564e-08
2.77624e-08
-9.75422e-08
2.98774e-08
-1.11941e-07
3.20389e-08
-1.2726e-07
3.42347e-08
-1.43498e-07
3.64503e-08
-1.60646e-07
3.86689e-08
-1.78689e-07
4.08715e-08
-1.976e-07
4.30372e-08
-2.17342e-07
4.51432e-08
-2.37868e-07
4.71652e-08
-2.5912e-07
4.90774e-08
-2.81029e-07
5.08532e-08
-3.03515e-07
5.24649e-08
-3.26484e-07
5.38847e-08
-3.49835e-07
5.50845e-08
-3.73454e-07
5.60367e-08
-3.97216e-07
5.67143e-08
-4.2099e-07
5.70918e-08
-4.44635e-07
5.71449e-08
-4.68001e-07
5.68516e-08
-4.90936e-07
5.61922e-08
-5.1328e-07
5.51497e-08
-5.34872e-07
5.37105e-08
-5.55549e-07
5.18641e-08
-5.75148e-07
4.96039e-08
-5.93507e-07
4.69273e-08
-6.10468e-07
4.38357e-08
-6.25878e-07
4.03347e-08
-6.39592e-07
3.64343e-08
-6.51469e-07
3.21489e-08
-6.61382e-07
2.74974e-08
-6.69214e-07
2.2503e-08
-6.74858e-07
1.71931e-08
-6.78223e-07
1.15995e-08
-6.79232e-07
5.75729e-09
-6.77831e-07
-2.83418e-10
-6.73962e-07
-6.5069e-09
-6.67609e-07
-1.2839e-08
-6.58762e-07
-1.92401e-08
-6.47432e-07
-2.56573e-08
-6.3365e-07
-3.20357e-08
-6.17466e-07
-3.83188e-08
-5.98952e-07
-4.44486e-08
-5.78196e-07
-5.03665e-08
-5.55311e-07
-5.60141e-08
-5.30424e-07
-6.13333e-08
-5.03686e-07
-6.62677e-08
-4.75262e-07
-7.07633e-08
-4.45335e-07
-7.47689e-08
-4.14104e-07
-7.82378e-08
-3.81782e-07
-8.11279e-08
-3.48593e-07
-8.34031e-08
-3.14774e-07
-8.5034e-08
-2.80565e-07
-8.59985e-08
-2.46214e-07
-8.62829e-08
-2.11973e-07
-8.5882e-08
-1.7809e-07
-8.48001e-08
-1.44811e-07
-8.30508e-08
-1.12375e-07
-8.0657e-08
-8.10119e-08
-7.76513e-08
-5.09381e-08
-7.40751e-08
-2.2354e-08
-6.99783e-08
4.5583e-09
-6.54183e-08
2.96383e-08
-6.04592e-08
5.27483e-08
-5.51699e-08
7.37761e-08
-4.9624e-08
9.26357e-08
-4.38971e-08
1.09269e-07
-3.80654e-08
1.23643e-07
-3.22048e-08
1.35756e-07
-2.63884e-08
1.4563e-07
-2.06858e-08
1.53311e-07
-1.51609e-08
1.58872e-07
-9.87146e-09
1.62404e-07
-4.86755e-09
1.64017e-07
-1.91084e-10
1.63837e-07
4.1249e-09
1.62001e-07
8.05613e-09
1.58656e-07
1.15873e-08
1.53955e-07
1.47117e-08
1.48052e-07
1.74301e-08
1.41105e-07
1.97506e-08
1.33265e-07
2.16865e-08
1.24682e-07
2.32554e-08
1.155e-07
2.44774e-08
1.05857e-07
2.53725e-08
9.58852e-08
2.5959e-08
8.57133e-08
2.62504e-08
7.54676e-08
2.62534e-08
6.52753e-08
2.59649e-08
5.52677e-08
2.53703e-08
4.5584e-08
2.44415e-08
3.63749e-08
2.31374e-08
2.78048e-08
2.14062e-08
2.00517e-08
1.91916e-08
1.33041e-08
1.64464e-08
7.75283e-09
1.3157e-08
3.57977e-09
9.38024e-09
9.45756e-10
5.30282e-09
1.38882e-09
7.67517e-10
-2.137e-09
2.57593e-09
-5.66259e-09
5.08111e-09
-8.32315e-09
8.01113e-09
-1.01118e-08
1.11344e-08
-1.10897e-08
1.42513e-08
-1.13501e-08
1.7191e-08
-1.09997e-08
1.98096e-08
-1.01457e-08
2.19886e-08
-8.88873e-09
2.36324e-08
-7.31848e-09
2.46657e-08
-5.51227e-09
2.50306e-08
-3.53448e-09
2.46835e-08
-1.43694e-09
2.35918e-08
7.40292e-10
2.17317e-08
2.96796e-09
1.9085e-08
5.22643e-09
1.56371e-08
7.50452e-09
1.1375e-08
9.79817e-09
6.28539e-09
1.21092e-08
3.53837e-10
1.44438e-08
-6.43643e-09
1.68117e-08
-1.41049e-08
1.92243e-08
-2.26739e-08
2.1694e-08
-3.21684e-08
2.42327e-08
-4.26155e-08
2.68512e-08
-5.40439e-08
2.9558e-08
-6.64825e-08
3.23589e-08
-7.99595e-08
3.52564e-08
-9.45011e-08
3.82494e-08
-1.10131e-07
4.13329e-08
-1.26866e-07
4.44978e-08
-1.4472e-07
4.77312e-08
-1.63697e-07
5.10161e-08
-1.83794e-07
5.4332e-08
-2.04999e-07
5.76548e-08
-2.27287e-07
6.09568e-08
-2.50623e-07
6.42077e-08
-2.7496e-07
6.73741e-08
-3.00237e-07
7.04206e-08
-3.26381e-07
7.33094e-08
-3.53305e-07
7.60014e-08
-3.80909e-07
7.84566e-08
-4.09078e-07
8.06341e-08
-4.37687e-07
8.24934e-08
-4.66597e-07
8.39945e-08
-4.95659e-07
8.50986e-08
-5.24713e-07
8.57688e-08
-5.53592e-07
8.59708e-08
-5.8212e-07
8.56732e-08
-6.10117e-07
8.48485e-08
-6.37398e-07
8.34729e-08
-6.63776e-07
8.15276e-08
-6.89064e-07
7.89984e-08
-7.13076e-07
7.58766e-08
-7.35631e-07
7.21589e-08
-7.56552e-07
6.78479e-08
-7.75668e-07
6.29516e-08
-7.92818e-07
5.74844e-08
-8.07849e-07
5.14661e-08
-8.20623e-07
4.49226e-08
-8.31011e-07
3.78854e-08
-8.38899e-07
3.03915e-08
-8.4419e-07
2.24835e-08
-8.46799e-07
1.4209e-08
-8.46663e-07
5.62135e-09
-8.43725e-07
-3.22198e-09
-8.37966e-07
-1.2266e-08
-8.29367e-07
-2.14378e-08
-8.17937e-07
-3.06705e-08
-8.03701e-07
-3.98925e-08
-7.86708e-07
-4.90295e-08
-7.67021e-07
-5.80051e-08
-7.44728e-07
-6.67414e-08
-7.19935e-07
-7.51602e-08
-6.92766e-07
-8.31833e-08
-6.63365e-07
-9.07337e-08
-6.31897e-07
-9.77362e-08
-5.98541e-07
-1.04119e-07
-5.63496e-07
-1.09814e-07
-5.26975e-07
-1.14759e-07
-4.89207e-07
-1.18896e-07
-4.50431e-07
-1.22179e-07
-4.109e-07
-1.24565e-07
-3.70874e-07
-1.26025e-07
-3.30619e-07
-1.26537e-07
-2.90407e-07
-1.26095e-07
-2.50507e-07
-1.247e-07
-2.11189e-07
-1.22369e-07
-1.72717e-07
-1.19129e-07
-1.35347e-07
-1.15021e-07
-9.9323e-08
-1.10099e-07
-6.48739e-08
-1.04427e-07
-3.22114e-08
-9.80808e-08
-1.52682e-09
-9.11437e-08
2.70123e-08
-8.3709e-08
5.32631e-08
-7.58748e-08
7.711e-08
-6.7744e-08
9.84662e-08
-5.94216e-08
1.17274e-07
-5.10127e-08
1.33506e-07
-4.26202e-08
1.47163e-07
-3.43428e-08
1.58275e-07
-2.6273e-08
1.66899e-07
-1.84958e-08
1.73118e-07
-1.10862e-08
1.77036e-07
-4.10894e-09
1.78778e-07
2.38292e-09
1.78486e-07
8.34844e-09
1.76314e-07
1.37587e-08
1.72429e-07
1.85968e-08
1.67002e-07
2.28569e-08
1.60209e-07
2.65432e-08
1.52228e-07
2.96684e-08
1.43232e-07
3.22513e-08
1.33394e-07
3.43152e-08
1.22882e-07
3.58843e-08
1.1186e-07
3.69811e-08
1.00487e-07
3.76228e-08
8.89227e-08
3.7818e-08
7.73245e-08
3.75631e-08
6.58546e-08
3.68402e-08
5.46814e-08
3.56146e-08
4.39832e-08
3.38356e-08
3.39502e-08
3.14392e-08
2.47855e-08
2.83563e-08
1.67047e-08
2.45272e-08
9.93458e-09
1.99272e-08
4.7131e-09
1.46017e-08
1.29692e-09
8.71901e-09
2.68575e-09
8.14669e-10
-2.95167e-09
2.71497e-09
-7.5629e-09
5.30672e-09
-1.09149e-08
8.28144e-09
-1.30866e-08
1.13842e-08
-1.41924e-08
1.44005e-08
-1.43665e-08
1.71498e-08
-1.3749e-08
1.94806e-08
-1.24765e-08
2.12674e-08
-1.06755e-08
2.24077e-08
-8.4588e-09
2.28193e-08
-5.9238e-09
2.24367e-08
-3.15196e-09
2.1209e-08
-2.09158e-10
1.90958e-08
2.85341e-09
1.60656e-08
5.99812e-09
1.20925e-08
9.19954e-09
7.15418e-09
1.24429e-08
1.2299e-09
1.57224e-08
-5.70089e-09
1.904e-08
-1.36599e-08
2.24028e-08
-2.26706e-08
2.58225e-08
-3.2759e-08
2.93127e-08
-4.39531e-08
3.28881e-08
-5.62827e-08
3.65624e-08
-6.9779e-08
4.03475e-08
-8.44732e-08
4.42522e-08
-1.00396e-07
4.82812e-08
-1.17574e-07
5.24346e-08
-1.36032e-07
5.67074e-08
-1.55788e-07
6.1089e-08
-1.76853e-07
6.55634e-08
-1.99231e-07
7.01091e-08
-2.22914e-07
7.46992e-08
-2.47884e-07
7.93018e-08
-2.7411e-07
8.38804e-08
-3.01547e-07
8.83938e-08
-3.30137e-07
9.27974e-08
-3.59806e-07
9.70431e-08
-3.90465e-07
1.0108e-07
-4.22011e-07
1.04855e-07
-4.54324e-07
1.08315e-07
-4.87271e-07
1.11403e-07
-5.20704e-07
1.14067e-07
-5.54462e-07
1.16252e-07
-5.88374e-07
1.17906e-07
-6.22256e-07
1.18981e-07
-6.55919e-07
1.19432e-07
-6.89165e-07
1.19217e-07
-7.21792e-07
1.183e-07
-7.53594e-07
1.16651e-07
-7.84367e-07
1.14246e-07
-8.13907e-07
1.11067e-07
-8.42012e-07
1.07104e-07
-8.68488e-07
1.02352e-07
-8.93146e-07
9.68166e-08
-9.15806e-07
9.05078e-08
-9.36298e-07
8.34443e-08
-9.54466e-07
7.56518e-08
-9.70163e-07
6.7163e-08
-9.83258e-07
5.80175e-08
-9.93634e-07
4.82614e-08
-1.00119e-06
3.79472e-08
-1.00584e-06
2.71334e-08
-1.00751e-06
1.58844e-08
-1.00616e-06
4.27116e-09
-1.00175e-06
-7.63596e-09
-9.94261e-07
-1.97558e-08
-9.83695e-07
-3.20038e-08
-9.70072e-07
-4.42934e-08
-9.5343e-07
-5.65345e-08
-9.33825e-07
-6.86341e-08
-9.11333e-07
-8.04972e-08
-8.86047e-07
-9.20273e-08
-8.5808e-07
-1.03128e-07
-8.27562e-07
-1.13701e-07
-7.94643e-07
-1.23653e-07
-7.5949e-07
-1.32889e-07
-7.22287e-07
-1.41321e-07
-6.83237e-07
-1.48864e-07
-6.42556e-07
-1.55439e-07
-6.00477e-07
-1.60975e-07
-5.57246e-07
-1.6541e-07
-5.1312e-07
-1.68691e-07
-4.68367e-07
-1.70778e-07
-4.23263e-07
-1.71642e-07
-3.78088e-07
-1.7127e-07
-3.33126e-07
-1.69661e-07
-2.88663e-07
-1.66832e-07
-2.44978e-07
-1.62814e-07
-2.02346e-07
-1.57653e-07
-1.61033e-07
-1.51412e-07
-1.21291e-07
-1.44169e-07
-8.33581e-08
-1.36014e-07
-4.74509e-08
-1.27051e-07
-1.3766e-08
-1.17394e-07
1.75255e-08
-1.07166e-07
4.62785e-08
-9.64971e-08
7.23769e-08
-8.552e-08
9.57343e-08
-7.43701e-08
1.16295e-07
-6.31811e-08
1.34035e-07
-5.20827e-08
1.4896e-07
-4.11983e-08
1.61107e-07
-3.06425e-08
1.7054e-07
-2.0519e-08
1.7735e-07
-1.09187e-08
1.81652e-07
-1.91891e-09
1.83582e-07
6.41855e-09
1.83294e-07
1.40468e-08
1.80956e-07
2.09343e-08
1.76749e-07
2.7064e-08
1.7086e-07
3.24324e-08
1.63481e-07
3.70473e-08
1.54806e-07
4.09259e-08
1.4503e-07
4.40912e-08
1.34345e-07
4.65694e-08
1.22941e-07
4.83854e-08
1.11005e-07
4.95586e-08
9.87241e-08
5.0099e-08
8.62843e-08
5.0003e-08
7.38748e-08
4.92497e-08
6.16904e-08
4.77991e-08
4.99339e-08
4.55921e-08
3.88193e-08
4.25538e-08
2.85743e-08
3.86013e-08
1.94432e-08
3.36583e-08
1.16921e-08
2.76782e-08
5.61831e-09
2.06755e-08
1.57031e-09
1.2767e-08
4.25606e-09
8.14748e-10
-3.76642e-09
2.69708e-09
-9.44524e-09
5.22442e-09
-1.34422e-08
8.06416e-09
-1.59263e-08
1.0945e-08
-1.70732e-08
1.36424e-08
-1.70639e-08
1.59695e-08
-1.60762e-08
1.77707e-08
-1.42776e-08
1.89166e-08
-1.18214e-08
1.93009e-08
-8.84307e-09
1.88364e-08
-5.45939e-09
1.74526e-08
-1.76811e-09
1.50918e-08
2.1516e-09
1.17072e-08
6.23806e-09
7.25949e-09
1.04458e-08
1.71513e-09
1.47439e-08
-4.95615e-09
1.91142e-08
-1.27829e-08
2.35492e-08
-2.17936e-08
2.80506e-08
-3.20173e-08
3.26265e-08
-4.34843e-08
3.72895e-08
-5.62267e-08
4.20551e-08
-7.02777e-08
4.6939e-08
-8.5671e-08
5.19557e-08
-1.0244e-07
5.71167e-08
-1.20617e-07
6.24292e-08
-1.40231e-07
6.78951e-08
-1.61306e-07
7.35096e-08
-1.8386e-07
7.92613e-08
-2.07903e-07
8.51318e-08
-2.33434e-07
9.10951e-08
-2.60444e-07
9.71183e-08
-2.88906e-07
1.03162e-07
-3.18783e-07
1.09179e-07
-3.50022e-07
1.15119e-07
-3.82551e-07
1.20923e-07
-4.16286e-07
1.26532e-07
-4.51122e-07
1.31879e-07
-4.86939e-07
1.36897e-07
-5.236e-07
1.41517e-07
-5.60954e-07
1.45668e-07
-5.98833e-07
1.49282e-07
-6.37056e-07
1.5229e-07
-6.75433e-07
1.54628e-07
-7.1376e-07
1.56233e-07
-7.51828e-07
1.5705e-07
-7.89423e-07
1.57026e-07
-8.26324e-07
1.56118e-07
-8.62314e-07
1.54289e-07
-8.97172e-07
1.5151e-07
-9.30685e-07
1.47758e-07
-9.62641e-07
1.43023e-07
-9.92839e-07
1.37301e-07
-1.02108e-06
1.30597e-07
-1.04719e-06
1.22926e-07
-1.07099e-06
1.14309e-07
-1.09233e-06
1.04779e-07
-1.11105e-06
9.43737e-08
-1.12703e-06
8.31413e-08
-1.14015e-06
7.11358e-08
-1.1503e-06
5.84185e-08
-1.15741e-06
4.50573e-08
-1.16141e-06
3.11264e-08
-1.16223e-06
1.67059e-08
-1.15984e-06
1.88481e-09
-1.15422e-06
-1.32568e-08
-1.14536e-06
-2.86141e-08
-1.13328e-06
-4.40902e-08
-1.11799e-06
-5.95816e-08
-1.09954e-06
-7.49817e-08
-1.07799e-06
-9.01807e-08
-1.05342e-06
-1.05067e-07
-1.02593e-06
-1.19526e-07
-9.95608e-07
-1.33445e-07
-9.626e-07
-1.46709e-07
-9.27047e-07
-1.59206e-07
-8.89112e-07
-1.70824e-07
-8.48975e-07
-1.81458e-07
-8.06833e-07
-1.91006e-07
-7.62901e-07
-1.99372e-07
-7.17406e-07
-2.0647e-07
-6.70594e-07
-2.12222e-07
-6.2272e-07
-2.16564e-07
-5.74055e-07
-2.19443e-07
-5.24876e-07
-2.20821e-07
-4.75471e-07
-2.20675e-07
-4.26131e-07
-2.19001e-07
-3.77152e-07
-2.15812e-07
-3.28826e-07
-2.1114e-07
-2.81444e-07
-2.05034e-07
-2.35291e-07
-1.97566e-07
-1.90639e-07
-1.88821e-07
-1.47748e-07
-1.78905e-07
-1.06861e-07
-1.67938e-07
-6.82008e-08
-1.56055e-07
-3.19661e-08
-1.43401e-07
1.66884e-09
-1.30132e-07
3.25586e-08
-1.1641e-07
6.05868e-08
-1.02398e-07
8.56687e-08
-8.82631e-08
1.07752e-07
-7.41656e-08
1.26815e-07
-6.02615e-08
1.42869e-07
-4.66972e-08
1.55958e-07
-3.36072e-08
1.66151e-07
-2.11121e-08
1.73548e-07
-9.31625e-09
1.78274e-07
1.69327e-09
1.80472e-07
1.1848e-08
1.8031e-07
2.10972e-08
1.77965e-07
2.94086e-08
1.73631e-07
3.67664e-08
1.67508e-07
4.31698e-08
1.59805e-07
4.86297e-08
1.5073e-07
5.31663e-08
1.40495e-07
5.68042e-08
1.29312e-07
5.95684e-08
1.17391e-07
6.1479e-08
1.04944e-07
6.25462e-08
9.21814e-08
6.27657e-08
7.93168e-08
6.21143e-08
6.65687e-08
6.05471e-08
5.41634e-08
5.79975e-08
4.23381e-08
5.43792e-08
3.13454e-08
4.95939e-08
2.14598e-08
4.35439e-08
1.2987e-08
3.61511e-08
6.27995e-09
2.73825e-08
1.76577e-09
1.72812e-08
6.02184e-09
7.76537e-10
-4.54296e-09
2.54461e-09
-1.12133e-08
4.8702e-09
-1.57678e-08
7.40868e-09
-1.84648e-08
9.88021e-09
-1.95448e-08
1.20555e-08
-1.92392e-08
1.37453e-08
-1.7766e-08
1.47928e-08
-1.53251e-08
1.50676e-08
-1.20962e-08
1.44615e-08
-8.23705e-09
1.28848e-08
-3.88269e-09
1.02627e-08
8.54043e-10
6.53244e-09
5.88184e-09
1.64092e-09
1.11296e-08
-4.45801e-09
1.65447e-08
-1.18055e-08
2.20914e-08
-2.04398e-08
2.77484e-08
-3.03972e-08
3.35067e-08
-4.1714e-08
3.93673e-08
-5.44263e-08
4.53388e-08
-6.8571e-08
5.14343e-08
-8.41856e-08
5.76697e-08
-1.01307e-07
6.40605e-08
-1.19972e-07
7.06205e-08
-1.40214e-07
7.73587e-08
-1.62063e-07
8.42787e-08
-1.85545e-07
9.13766e-08
-2.10676e-07
9.86407e-08
-2.37465e-07
1.0605e-07
-2.65909e-07
1.13576e-07
-2.95992e-07
1.21178e-07
-3.27684e-07
1.2881e-07
-3.6094e-07
1.36417e-07
-3.95695e-07
1.43935e-07
-4.3187e-07
1.51294e-07
-4.69366e-07
1.58419e-07
-5.08065e-07
1.65231e-07
-5.47831e-07
1.71645e-07
-5.88512e-07
1.77578e-07
-6.29939e-07
1.82943e-07
-6.71926e-07
1.87656e-07
-7.14276e-07
1.91632e-07
-7.56781e-07
1.94795e-07
-7.9922e-07
1.97068e-07
-8.4137e-07
1.98383e-07
-8.83002e-07
1.98681e-07
-9.23883e-07
1.97908e-07
-9.63786e-07
1.96021e-07
-1.00248e-06
1.92985e-07
-1.03975e-06
1.88777e-07
-1.07537e-06
1.83383e-07
-1.10915e-06
1.76801e-07
-1.14089e-06
1.69036e-07
-1.1704e-06
1.60107e-07
-1.19751e-06
1.50041e-07
-1.22208e-06
1.38873e-07
-1.24395e-06
1.26649e-07
-1.263e-06
1.13423e-07
-1.27911e-06
9.92556e-08
-1.29219e-06
8.42159e-08
-1.30215e-06
6.83795e-08
-1.30892e-06
5.18287e-08
-1.31245e-06
3.46516e-08
-1.31268e-06
1.69421e-08
-1.3096e-06
-1.19519e-09
-1.30319e-06
-1.9671e-08
-1.29344e-06
-3.83615e-08
-1.28037e-06
-5.71585e-08
-1.26401e-06
-7.59443e-08
-1.2444e-06
-9.45977e-08
-1.22158e-06
-1.12994e-07
-1.19564e-06
-1.31007e-07
-1.16666e-06
-1.48508e-07
-1.13474e-06
-1.65365e-07
-1.1e-06
-1.81449e-07
-1.06257e-06
-1.96631e-07
-1.02262e-06
-2.10782e-07
-9.80297e-07
-2.23778e-07
-9.35802e-07
-2.35501e-07
-8.89336e-07
-2.45838e-07
-8.4112e-07
-2.54686e-07
-7.91392e-07
-2.6195e-07
-7.40405e-07
-2.67552e-07
-6.88425e-07
-2.71423e-07
-6.35731e-07
-2.73514e-07
-5.82614e-07
-2.73792e-07
-5.2937e-07
-2.72245e-07
-4.76302e-07
-2.68879e-07
-4.23717e-07
-2.63725e-07
-3.7192e-07
-2.56832e-07
-3.2121e-07
-2.48276e-07
-2.71881e-07
-2.3815e-07
-2.24214e-07
-2.26571e-07
-1.78478e-07
-2.13674e-07
-1.34921e-07
-1.99612e-07
-9.37694e-08
-1.84552e-07
-5.52266e-08
-1.68675e-07
-1.9468e-08
-1.52168e-07
1.33604e-08
-1.35227e-07
4.31439e-08
-1.18047e-07
6.98001e-08
-1.00822e-07
9.32799e-08
-8.37413e-08
1.13568e-07
-6.69848e-08
1.3068e-07
-5.07198e-08
1.44667e-07
-3.50985e-08
1.55606e-07
-2.02555e-08
1.63605e-07
-6.306e-09
1.68797e-07
6.65568e-09
1.71338e-07
1.85565e-08
1.71402e-07
2.93444e-08
1.69181e-07
3.89873e-08
1.6488e-07
4.74715e-08
1.58711e-07
5.47981e-08
1.50897e-07
6.09802e-08
1.41664e-07
6.6038e-08
1.31239e-07
6.99935e-08
1.19852e-07
7.28653e-08
1.07736e-07
7.46625e-08
9.51226e-08
7.5379e-08
8.2248e-08
7.49888e-08
6.93529e-08
7.34423e-08
5.66856e-08
7.06648e-08
4.45064e-08
6.65583e-08
3.30933e-08
6.1007e-08
2.27502e-08
5.3887e-08
1.38199e-08
4.50814e-08
6.70344e-09
3.4499e-08
1.88826e-09
2.20964e-08
7.91009e-09
7.06189e-10
-5.24914e-09
2.27501e-09
-1.27821e-08
4.27402e-09
-1.77668e-08
6.35743e-09
-2.05482e-08
8.24493e-09
-2.14323e-08
9.7081e-09
-2.07024e-08
1.05595e-08
-1.86174e-08
1.06443e-08
-1.54099e-08
9.83346e-09
-1.12854e-08
8.01904e-09
-6.42263e-09
5.10986e-09
-9.73504e-10
1.02837e-09
4.93552e-09
-4.29235e-09
1.12026e-08
-1.0911e-08
1.77483e-08
-1.88804e-08
2.45141e-08
-2.82487e-08
3.14598e-08
-3.90618e-08
3.85615e-08
-5.13637e-08
4.58086e-08
-6.51977e-08
5.32013e-08
-8.06067e-08
6.07478e-08
-9.76331e-08
6.84607e-08
-1.16318e-07
7.6355e-08
-1.36702e-07
8.44445e-08
-1.58822e-07
9.27396e-08
-1.82708e-07
1.01245e-07
-2.08387e-07
1.09958e-07
-2.35876e-07
1.18866e-07
-2.65182e-07
1.27947e-07
-2.96299e-07
1.37167e-07
-3.29208e-07
1.46484e-07
-3.63872e-07
1.55843e-07
-4.00239e-07
1.65178e-07
-4.38237e-07
1.74415e-07
-4.77775e-07
1.83472e-07
-5.18742e-07
1.92261e-07
-5.61007e-07
2.00685e-07
-6.04422e-07
2.08645e-07
-6.48817e-07
2.16041e-07
-6.94009e-07
2.2277e-07
-7.39797e-07
2.28731e-07
-7.85967e-07
2.33826e-07
-8.32297e-07
2.37963e-07
-8.78555e-07
2.41052e-07
-9.24503e-07
2.43015e-07
-9.69901e-07
2.43782e-07
-1.01451e-06
2.43291e-07
-1.05809e-06
2.41492e-07
-1.10042e-06
2.38347e-07
-1.14127e-06
2.3383e-07
-1.18042e-06
2.27927e-07
-1.21767e-06
2.20633e-07
-1.25283e-06
2.11959e-07
-1.28571e-06
2.01925e-07
-1.31617e-06
1.9056e-07
-1.34403e-06
1.77908e-07
-1.36918e-06
1.64017e-07
-1.39147e-06
1.48946e-07
-1.41081e-06
1.32764e-07
-1.4271e-06
1.15545e-07
-1.44026e-06
9.73705e-08
-1.45021e-06
7.83285e-08
-1.45689e-06
5.85135e-08
-1.46027e-06
3.80253e-08
-1.46029e-06
1.69696e-08
-1.45695e-06
-4.54178e-09
-1.45022e-06
-2.63994e-08
-1.4401e-06
-4.8477e-08
-1.42661e-06
-7.06513e-08
-1.40976e-06
-9.27934e-08
-1.38959e-06
-1.1477e-07
-1.36614e-06
-1.36444e-07
-1.33947e-06
-1.57675e-07
-1.30966e-06
-1.7832e-07
-1.27679e-06
-1.98233e-07
-1.24097e-06
-2.1727e-07
-1.20232e-06
-2.35284e-07
-1.16097e-06
-2.52129e-07
-1.11708e-06
-2.67665e-07
-1.07083e-06
-2.81755e-07
-1.0224e-06
-2.94267e-07
-9.72008e-07
-3.05079e-07
-9.19878e-07
-3.1408e-07
-8.66258e-07
-3.21172e-07
-8.1141e-07
-3.26272e-07
-7.5561e-07
-3.29313e-07
-6.99152e-07
-3.30251e-07
-6.42335e-07
-3.29061e-07
-5.85472e-07
-3.25742e-07
-5.2888e-07
-3.20317e-07
-4.72876e-07
-3.12836e-07
-4.17779e-07
-3.03372e-07
-3.63903e-07
-2.92026e-07
-3.11551e-07
-2.78922e-07
-2.61017e-07
-2.64209e-07
-2.12574e-07
-2.48054e-07
-1.6648e-07
-2.30647e-07
-1.22966e-07
-2.12189e-07
-8.22374e-08
-1.92897e-07
-4.44714e-08
-1.72993e-07
-9.81311e-09
-1.52705e-07
2.16252e-08
-1.3226e-07
4.97653e-08
-1.11881e-07
7.45634e-08
-9.17829e-08
9.60103e-08
-7.21667e-08
1.14131e-07
-5.32188e-08
1.28982e-07
-3.51066e-08
1.40652e-07
-1.79761e-08
1.49258e-07
-1.95047e-09
1.54943e-07
1.28713e-08
1.57874e-07
2.64137e-08
1.58236e-07
3.86248e-08
1.56234e-07
4.94737e-08
1.52084e-07
5.89481e-08
1.46014e-07
6.70503e-08
1.3826e-07
7.37924e-08
1.29062e-07
7.91908e-08
1.18668e-07
8.32598e-08
1.07325e-07
8.60054e-08
9.52855e-08
8.74185e-08
8.28053e-08
8.7469e-08
7.01457e-08
8.61019e-08
5.75764e-08
8.32341e-08
4.53803e-08
7.87545e-08
3.38597e-08
7.25276e-08
2.33463e-08
6.44004e-08
1.42152e-08
5.42125e-08
6.90489e-09
4.18093e-08
1.94465e-09
2.70566e-08
9.85474e-09
6.07708e-10
-5.85685e-09
1.90083e-09
-1.40753e-08
3.45885e-09
-1.93249e-08
4.94441e-09
-2.20338e-08
6.08449e-09
-2.25723e-08
6.65747e-09
-2.12754e-08
6.4821e-09
-1.84421e-08
5.40866e-09
-1.43364e-08
3.31192e-09
-9.18865e-09
8.58038e-11
-3.19651e-09
-4.36062e-09
3.47292e-09
-1.01069e-08
1.06818e-08
-1.72235e-08
1.83192e-08
-2.57742e-08
2.62989e-08
-3.58175e-08
3.45574e-08
-4.74087e-08
4.3051e-08
-6.06005e-08