/*--------------------------------*- C++ -*----------------------------------*\
| =========                 |                                                 |
| \\      /  F ield         | OpenFOAM: The Open Source CFD Toolbox           |
|  \\    /   O peration     | Version:  2112                                  |
|   \\  /    A nd           | Website:  www.openfoam.com                      |
|    \\/     M anipulation  |                                                 |
\*---------------------------------------------------------------------------*/
FoamFile
{
    version     2.0;
    format      ascii;
    arch        "LSB;label=32;scalar=64";
    class       volVectorField;
    location    "2.4";
    object      U;
}
// * * * * * * * * * * * * * * * * * * * * * * * * * * * * * * * * * * * * * //

dimensions      [0 1 -1 0 0 0 0];

internalField   nonuniform List<vector> 
16641
(
(-5.62039e-06 5.60003e-06 0)
(5.42696e-06 -6.57714e-06 0)
(5.44379e-05 -1.95604e-05 0)
(0.000130087 -2.82661e-05 0)
(0.000222913 -3.30825e-05 0)
(0.000324532 -3.49722e-05 0)
(0.000428145 -3.47615e-05 0)
(0.000528626 -3.30958e-05 0)
(0.000622245 -3.04528e-05 0)
(0.000706365 -2.71825e-05 0)
(0.000779201 -2.3543e-05 0)
(0.000839631 -1.97255e-05 0)
(0.000887036 -1.58682e-05 0)
(0.000921176 -1.20675e-05 0)
(0.000942075 -8.38673e-06 0)
(0.000949932 -4.86065e-06 0)
(0.000945034 -1.50092e-06 0)
(0.000927695 1.70129e-06 0)
(0.000898206 4.76841e-06 0)
(0.000856783 7.73478e-06 0)
(0.000803545 1.06424e-05 0)
(0.000738485 1.3538e-05 0)
(0.000661466 1.64706e-05 0)
(0.000572209 1.94891e-05 0)
(0.000470306 2.26395e-05 0)
(0.000355225 2.59634e-05 0)
(0.000226327 2.94975e-05 0)
(8.28884e-05 3.32712e-05 0)
(-7.58817e-05 3.73075e-05 0)
(-0.000250813 4.16227e-05 0)
(-0.00044275 4.62255e-05 0)
(-0.000652534 5.11176e-05 0)
(-0.000880968 5.62941e-05 0)
(-0.0011288 6.17442e-05 0)
(-0.00139671 6.74509e-05 0)
(-0.00168526 7.33905e-05 0)
(-0.0019949 7.95336e-05 0)
(-0.00232594 8.58445e-05 0)
(-0.00267852 9.22812e-05 0)
(-0.0030526 9.87947e-05 0)
(-0.00344792 0.00010533 0)
(-0.00386402 0.000111825 0)
(-0.00430018 0.000118211 0)
(-0.00475543 0.000124413 0)
(-0.00522853 0.000130351 0)
(-0.00571794 0.000135936 0)
(-0.00622183 0.000141078 0)
(-0.00673807 0.00014568 0)
(-0.00726424 0.000149643 0)
(-0.00779757 0.000152865 0)
(-0.00833505 0.000155245 0)
(-0.00887334 0.000156681 0)
(-0.00940885 0.000157074 0)
(-0.00993771 0.00015633 0)
(-0.0104558 0.000154359 0)
(-0.010959 0.00015108 0)
(-0.0114427 0.000146421 0)
(-0.0119024 0.000140322 0)
(-0.0123334 0.000132737 0)
(-0.0127311 0.000123635 0)
(-0.0130908 0.000113001 0)
(-0.0134079 0.000100842 0)
(-0.0136781 8.71837e-05 0)
(-0.013897 7.20742e-05 0)
(-0.0140607 5.55902e-05 0)
(-0.0141656 3.78259e-05 0)
(-0.0142086 1.88882e-05 0)
(-0.0141868 -9.50859e-07 0)
(-0.0140978 -2.16911e-05 0)
(-0.0139402 -4.30923e-05 0)
(-0.0137129 -6.49128e-05 0)
(-0.0134156 -8.69094e-05 0)
(-0.0130489 -0.000108824 0)
(-0.0126138 -0.000130381 0)
(-0.0121126 -0.000151299 0)
(-0.0115479 -0.000171286 0)
(-0.0109235 -0.000190051 0)
(-0.0102438 -0.000207309 0)
(-0.00951413 -0.000222787 0)
(-0.00874041 -0.00023623 0)
(-0.00792927 -0.000247409 0)
(-0.00708793 -0.000256127 0)
(-0.00622406 -0.000262225 0)
(-0.00534574 -0.000265588 0)
(-0.00446127 -0.000266147 0)
(-0.00357908 -0.000263888 0)
(-0.00270756 -0.000258848 0)
(-0.00185495 -0.000251119 0)
(-0.00102917 -0.000240845 0)
(-0.000237651 -0.000228223 0)
(0.000512711 -0.000213498 0)
(0.00121575 -0.000196931 0)
(0.00186613 -0.000178845 0)
(0.00245937 -0.000159571 0)
(0.00299198 -0.000139455 0)
(0.00346143 -0.000118849 0)
(0.00386621 -9.80973e-05 0)
(0.0042058 -7.75316e-05 0)
(0.00448063 -5.74602e-05 0)
(0.00469204 -3.81618e-05 0)
(0.00484216 -1.98793e-05 0)
(0.00493388 -2.81592e-06 0)
(0.00497068 1.28675e-05 0)
(0.00495655 2.70528e-05 0)
(0.00489586 3.96673e-05 0)
(0.00479324 5.06785e-05 0)
(0.00465346 6.00924e-05 0)
(0.00448132 6.79501e-05 0)
(0.00428156 7.4323e-05 0)
(0.00405874 7.93083e-05 0)
(0.00381719 8.30229e-05 0)
(0.00356094 8.55976e-05 0)
(0.00329368 8.71709e-05 0)
(0.00301874 8.78823e-05 0)
(0.0027391 8.78636e-05 0)
(0.00245739 8.72305e-05 0)
(0.00217599 8.60714e-05 0)
(0.00189708 8.44348e-05 0)
(0.00162281 8.23137e-05 0)
(0.00135545 7.9627e-05 0)
(0.00109761 7.61965e-05 0)
(0.00085252 7.17211e-05 0)
(0.000624329 6.57476e-05 0)
(0.000418435 5.76477e-05 0)
(0.000241768 4.66436e-05 0)
(0.000102712 3.19966e-05 0)
(1.01274e-05 1.35967e-05 0)
(-2.87354e-05 -6.27518e-06 0)
(-1.70063e-05 -1.70491e-05 0)
(6.47986e-06 -5.35212e-06 0)
(6.42612e-05 -6.43278e-05 0)
(0.000198335 -0.000120721 0)
(0.00038534 -0.000160831 0)
(0.000606852 -0.000184561 0)
(0.000846737 -0.00019444 0)
(0.00109055 -0.000193332 0)
(0.00132638 -0.000183877 0)
(0.00154497 -0.000168296 0)
(0.00173932 -0.000148385 0)
(0.00190438 -0.000125573 0)
(0.00203667 -0.000100974 0)
(0.00213394 -7.54382e-05 0)
(0.00219493 -4.95869e-05 0)
(0.00221907 -2.38491e-05 0)
(0.00220628 1.51289e-06 0)
(0.00215674 2.63732e-05 0)
(0.00207076 5.07244e-05 0)
(0.00194863 7.46514e-05 0)
(0.00179053 9.83105e-05 0)
(0.0015964 0.000121908 0)
(0.00136596 0.000145683 0)
(0.00109859 0.00016989 0)
(0.000793402 0.000194782 0)
(0.000449199 0.000220598 0)
(6.452e-05 0.000247553 0)
(-0.00036232 0.000275826 0)
(-0.000833181 0.000305557 0)
(-0.00135004 0.000336841 0)
(-0.00191492 0.000369727 0)
(-0.00252983 0.000404215 0)
(-0.0031967 0.000440259 0)
(-0.00391731 0.000477765 0)
(-0.0046932 0.000516595 0)
(-0.00552567 0.000556567 0)
(-0.00641564 0.000597455 0)
(-0.00736365 0.000638991 0)
(-0.00836976 0.000680868 0)
(-0.00943354 0.000722738 0)
(-0.010554 0.000764213 0)
(-0.0117294 0.000804868 0)
(-0.0129577 0.000844243 0)
(-0.0142357 0.000881845 0)
(-0.0155597 0.000917152 0)
(-0.0169254 0.000949616 0)
(-0.0183275 0.000978672 0)
(-0.0197599 0.00100374 0)
(-0.021216 0.00102423 0)
(-0.0226882 0.00103957 0)
(-0.0241682 0.00104916 0)
(-0.0256471 0.00105247 0)
(-0.0271154 0.00104896 0)
(-0.0285628 0.00103813 0)
(-0.0299787 0.00101954 0)
(-0.0313521 0.0009928 0)
(-0.0326714 0.000957588 0)
(-0.0339252 0.000913652 0)
(-0.0351016 0.000860828 0)
(-0.036189 0.00079904 0)
(-0.0371758 0.000728314 0)
(-0.0380508 0.000648781 0)
(-0.0388031 0.000560683 0)
(-0.0394224 0.00046438 0)
(-0.0398991 0.000360353 0)
(-0.0402245 0.000249215 0)
(-0.040391 0.000131674 0)
(-0.0403919 8.47151e-06 0)
(-0.0402218 -0.000119078 0)
(-0.0398766 -0.00025016 0)
(-0.039354 -0.000383571 0)
(-0.038653 -0.000517995 0)
(-0.0377744 -0.000652054 0)
(-0.0367209 -0.000784301 0)
(-0.0354966 -0.000913242 0)
(-0.0341079 -0.00103735 0)
(-0.0325626 -0.00115509 0)
(-0.0308706 -0.00126494 0)
(-0.0290435 -0.00136544 0)
(-0.0270946 -0.0014552 0)
(-0.0250385 -0.00153291 0)
(-0.0228916 -0.00159744 0)
(-0.0206713 -0.00164779 0)
(-0.0183961 -0.00168317 0)
(-0.0160853 -0.00170299 0)
(-0.0137586 -0.00170692 0)
(-0.0114362 -0.00169488 0)
(-0.00913807 -0.00166703 0)
(-0.00688398 -0.00162384 0)
(-0.00469294 -0.00156601 0)
(-0.00258308 -0.00149451 0)
(-0.000571264 -0.00141054 0)
(0.00132713 -0.0013155 0)
(0.00309847 -0.00121098 0)
(0.0047311 -0.00109872 0)
(0.00621541 -0.000980534 0)
(0.00754407 -0.0008583 0)
(0.00871201 -0.000733904 0)
(0.00971646 -0.00060919 0)
(0.0105569 -0.000485921 0)
(0.0112351 -0.000365738 0)
(0.0117547 -0.000250126 0)
(0.0121214 -0.000140384 0)
(0.0123423 -3.76071e-05 0)
(0.012426 5.73309e-05 0)
(0.0123825 0.000143784 0)
(0.0122223 0.000221332 0)
(0.0119568 0.000289771 0)
(0.0115975 0.000349102 0)
(0.0111561 0.000399514 0)
(0.0106442 0.000441354 0)
(0.010073 0.000475103 0)
(0.00945302 0.000501342 0)
(0.00879441 0.000520712 0)
(0.00810645 0.000533877 0)
(0.00739772 0.000541472 0)
(0.00667613 0.000544051 0)
(0.00594905 0.000542026 0)
(0.00522348 0.000535598 0)
(0.00450637 0.000524688 0)
(0.00380498 0.00050885 0)
(0.0031273 0.000487203 0)
(0.00248257 0.000458362 0)
(0.00188172 0.000420415 0)
(0.00133778 0.000371007 0)
(0.000865955 0.00030769 0)
(0.000482739 0.000228913 0)
(0.000203499 0.000136155 0)
(3.97755e-05 3.89694e-05 0)
(-6.03492e-06 -2.87939e-05 0)
(1.95791e-05 -5.43702e-05 0)
(0.000121043 -0.00019843 0)
(0.000325048 -0.000324394 0)
(0.000595011 -0.000415097 0)
(0.000905998 -0.000469612 0)
(0.00123766 -0.00049189 0)
(0.00157121 -0.000487349 0)
(0.00189055 -0.000461519 0)
(0.00218268 -0.000419401 0)
(0.00243744 -0.000365274 0)
(0.00264716 -0.000302678 0)
(0.00280628 -0.000234459 0)
(0.00291096 -0.000162842 0)
(0.00295869 -8.94929e-05 0)
(0.00294802 -1.55895e-05 0)
(0.00287816 5.81152e-05 0)
(0.00274879 0.000131226 0)
(0.00255978 0.000203652 0)
(0.00231103 0.000275552 0)
(0.00200228 0.000347271 0)
(0.00163305 0.000419291 0)
(0.0012025 0.000492183 0)
(0.000709428 0.000566558 0)
(0.000152246 0.000643026 0)
(-0.00047101 0.000722158 0)
(-0.00116263 0.000804459 0)
(-0.00192516 0.000890337 0)
(-0.00276134 0.000980092 0)
(-0.00367401 0.0010739 0)
(-0.00466597 0.0011718 0)
(-0.00573993 0.00127371 0)
(-0.00689839 0.00137939 0)
(-0.00814349 0.00148849 0)
(-0.00947696 0.00160052 0)
(-0.0109 0.00171485 0)
(-0.0124132 0.00183076 0)
(-0.0140163 0.00194738 0)
(-0.0157084 0.00206375 0)
(-0.0174877 0.00217879 0)
(-0.0193514 0.00229132 0)
(-0.0212956 0.00240008 0)
(-0.0233155 0.00250371 0)
(-0.025405 0.00260079 0)
(-0.027557 0.00268983 0)
(-0.0297632 0.00276931 0)
(-0.0320142 0.00283768 0)
(-0.0342994 0.00289337 0)
(-0.0366072 0.00293485 0)
(-0.0389248 0.00296062 0)
(-0.0412386 0.00296924 0)
(-0.0435341 0.00295936 0)
(-0.045796 0.00292973 0)
(-0.0480082 0.00287924 0)
(-0.0501545 0.00280695 0)
(-0.0522178 0.00271208 0)
(-0.0541813 0.00259406 0)
(-0.0560279 0.00245254 0)
(-0.0577407 0.00228742 0)
(-0.059303 0.00209882 0)
(-0.0606989 0.00188714 0)
(-0.0619129 0.00165308 0)
(-0.0629305 0.00139758 0)
(-0.0637383 0.0011219 0)
(-0.0643239 0.00082758 0)
(-0.0646767 0.000516453 0)
(-0.0647875 0.000190629 0)
(-0.0646485 -0.000147682 0)
(-0.0642539 -0.000495516 0)
(-0.0636004 -0.000850092 0)
(-0.0626861 -0.00120835 0)
(-0.0615118 -0.00156698 0)
(-0.0600802 -0.00192251 0)
(-0.0583967 -0.00227133 0)
(-0.0564688 -0.00260975 0)
(-0.0543064 -0.00293405 0)
(-0.051922 -0.00324053 0)
(-0.04933 -0.00352554 0)
(-0.0465473 -0.00378559 0)
(-0.0435929 -0.00401736 0)
(-0.0404876 -0.00421783 0)
(-0.0372542 -0.00438426 0)
(-0.0339169 -0.00451434 0)
(-0.0305012 -0.00460619 0)
(-0.0270337 -0.00465845 0)
(-0.0235417 -0.00467028 0)
(-0.0200527 -0.00464147 0)
(-0.0165944 -0.0045724 0)
(-0.0131942 -0.00446407 0)
(-0.00987843 -0.00431812 0)
(-0.00667266 -0.00413678 0)
(-0.00360079 -0.00392286 0)
(-0.00068491 -0.00367966 0)
(0.00205504 -0.00341094 0)
(0.00460157 -0.00312084 0)
(0.00693989 -0.00281378 0)
(0.00905807 -0.00249435 0)
(0.0109472 -0.00216722 0)
(0.0126015 -0.00183703 0)
(0.0140182 -0.00150826 0)
(0.0151977 -0.00118519 0)
(0.016143 -0.000871748 0)
(0.0168602 -0.000571478 0)
(0.0173578 -0.000287447 0)
(0.0176462 -2.22102e-05 0)
(0.0177381 0.000222219 0)
(0.0176475 0.000444383 0)
(0.0173895 0.000643375 0)
(0.0169803 0.000818816 0)
(0.0164363 0.000970815 0)
(0.0157742 0.00109992 0)
(0.0150102 0.00120705 0)
(0.0141604 0.0012934 0)
(0.0132401 0.00136038 0)
(0.0122638 0.00140947 0)
(0.0112452 0.0014421 0)
(0.0101973 0.00145954 0)
(0.00913223 0.00146272 0)
(0.00806186 0.00145209 0)
(0.00699792 0.00142742 0)
(0.00595252 0.00138766 0)
(0.00493862 0.00133081 0)
(0.00397054 0.00125384 0)
(0.00306446 0.00115281 0)
(0.00223867 0.00102323 0)
(0.00151344 0.000861059 0)
(0.000909698 0.000664855 0)
(0.000446093 0.000439554 0)
(0.000140384 0.000203813 0)
(1.46803e-05 1.12164e-05 0)
(2.85168e-05 -0.000130333 0)
(0.000162057 -0.000386125 0)
(0.000417535 -0.000594725 0)
(0.000745026 -0.000742148 0)
(0.0011136 -0.000828994 0)
(0.00149983 -0.000861448 0)
(0.00188216 -0.000847822 0)
(0.00224192 -0.000796787 0)
(0.00256371 -0.000716446 0)
(0.00283523 -0.000613928 0)
(0.00304689 -0.000495269 0)
(0.00319145 -0.000365418 0)
(0.00326364 -0.000228301 0)
(0.00325977 -8.69062e-05 0)
(0.00317733 5.66183e-05 0)
(0.00301466 0.000200864 0)
(0.00277064 0.000345061 0)
(0.00244444 0.000488977 0)
(0.00203528 0.000632819 0)
(0.00154223 0.000777134 0)
(0.000964127 0.000922716 0)
(0.000299451 0.00107051 0)
(-0.000453721 0.00122154 0)
(-0.00129771 0.00137682 0)
(-0.00223523 0.00153729 0)
(-0.00326928 0.00170375 0)
(-0.00440313 0.00187683 0)
(-0.00564012 0.00205695 0)
(-0.00698362 0.00224429 0)
(-0.00843687 0.00243877 0)
(-0.0100028 0.00264006 0)
(-0.0116839 0.00284757 0)
(-0.0134822 0.00306043 0)
(-0.0153989 0.00327756 0)
(-0.0174345 0.0034976 0)
(-0.0195884 0.00371898 0)
(-0.021859 0.0039399 0)
(-0.0242435 0.00415836 0)
(-0.026738 0.00437217 0)
(-0.029337 0.00457896 0)
(-0.0320339 0.00477622 0)
(-0.0348203 0.00496129 0)
(-0.0376865 0.00513144 0)
(-0.0406216 0.00528384 0)
(-0.0436128 0.00541564 0)
(-0.0466462 0.005524 0)
(-0.0497064 0.00560611 0)
(-0.052777 0.00565926 0)
(-0.0558402 0.00568084 0)
(-0.0588772 0.00566845 0)
(-0.0618687 0.00561988 0)
(-0.0647943 0.00553319 0)
(-0.0676334 0.00540672 0)
(-0.070365 0.00523916 0)
(-0.072968 0.00502956 0)
(-0.0754213 0.00477735 0)
(-0.0777043 0.0044824 0)
(-0.079797 0.00414501 0)
(-0.08168 0.00376592 0)
(-0.0833347 0.00334637 0)
(-0.0847441 0.00288804 0)
(-0.085892 0.00239311 0)
(-0.0867642 0.00186422 0)
(-0.0873478 0.00130449 0)
(-0.087632 0.000717422 0)
(-0.0876082 0.000107031 0)
(-0.0872692 -0.00052176 0)
(-0.0866103 -0.00116467 0)
(-0.0856297 -0.00181644 0)
(-0.0843275 -0.00247154 0)
(-0.0827063 -0.00312418 0)
(-0.0807715 -0.00376838 0)
(-0.0785308 -0.00439798 0)
(-0.0759946 -0.00500674 0)
(-0.0731759 -0.00558837 0)
(-0.0700902 -0.00613669 0)
(-0.0667554 -0.00664563 0)
(-0.0631919 -0.00710938 0)
(-0.0594223 -0.00752248 0)
(-0.0554712 -0.00787988 0)
(-0.0513652 -0.00817709 0)
(-0.0471326 -0.00841026 0)
(-0.0428032 -0.00857625 0)
(-0.0384077 -0.00867276 0)
(-0.0339779 -0.00869837 0)
(-0.029546 -0.0086526 0)
(-0.0251443 -0.008536 0)
(-0.0208047 -0.00835011 0)
(-0.0165588 -0.00809751 0)
(-0.0124368 -0.00778178 0)
(-0.00846758 -0.00740744 0)
(-0.00467811 -0.00697993 0)
(-0.00109313 -0.00650544 0)
(0.00226515 -0.00599086 0)
(0.00537744 -0.00544357 0)
(0.00822758 -0.00487139 0)
(0.0108027 -0.00428231 0)
(0.0130936 -0.00368435 0)
(0.0150943 -0.00308542 0)
(0.0168026 -0.0024931 0)
(0.0182198 -0.00191452 0)
(0.0193504 -0.00135622 0)
(0.0202021 -0.000823969 0)
(0.0207855 -0.000322749 0)
(0.0211137 0.000143374 0)
(0.021202 0.000571262 0)
(0.0210675 0.000958736 0)
(0.0207286 0.00130454 0)
(0.0202048 0.00160829 0)
(0.0195159 0.00187041 0)
(0.0186822 0.00209203 0)
(0.0177236 0.00227481 0)
(0.0166596 0.00242083 0)
(0.0155092 0.00253237 0)
(0.0142907 0.00261169 0)
(0.0130213 0.00266081 0)
(0.0117179 0.00268122 0)
(0.0103969 0.00267365 0)
(0.00907447 0.00263773 0)
(0.00776721 0.00257183 0)
(0.00649246 0.00247282 0)
(0.00526881 0.00233607 0)
(0.00411654 0.00215573 0)
(0.0030578 0.0019254 0)
(0.00211654 0.00163973 0)
(0.00131718 0.00129735 0)
(0.000682096 0.000905646 0)
(0.000238633 0.000488719 0)
(3.45233e-05 0.000107733 0)
(3.3709e-05 -0.000224159 0)
(0.000187124 -0.000609403 0)
(0.00047439 -0.000907096 0)
(0.000834808 -0.00111122 0)
(0.00123219 -0.00122656 0)
(0.00164047 -0.00126279 0)
(0.00203613 -0.00123165 0)
(0.00239883 -0.00114514 0)
(0.00271169 -0.00101459 0)
(0.00296098 -0.000850075 0)
(0.00313579 -0.000660247 0)
(0.0032276 -0.00045229 0)
(0.00322997 -0.000231966 0)
(0.00313808 -3.70425e-06 0)
(0.00294838 0.000229269 0)
(0.00265824 0.000464806 0)
(0.0022656 0.000701695 0)
(0.00176874 0.00093952 0)
(0.00116602 0.00117851 0)
(0.000455675 0.0014194 0)
(-0.000364286 0.00166329 0)
(-0.00129619 0.0019115 0)
(-0.00234273 0.00216544 0)
(-0.00350698 0.00242651 0)
(-0.00479232 0.00269598 0)
(-0.00620236 0.00297489 0)
(-0.00774086 0.00326402 0)
(-0.00941154 0.00356377 0)
(-0.011218 0.00387418 0)
(-0.0131633 0.00419487 0)
(-0.0152504 0.00452506 0)
(-0.0174811 0.00486352 0)
(-0.0198567 0.00520864 0)
(-0.0223773 0.00555839 0)
(-0.0250419 0.00591037 0)
(-0.0278482 0.0062618 0)
(-0.0307923 0.00660959 0)
(-0.033869 0.00695034 0)
(-0.0370713 0.00728035 0)
(-0.0403907 0.00759571 0)
(-0.0438167 0.00789231 0)
(-0.0473372 0.00816588 0)
(-0.0509385 0.00841206 0)
(-0.054605 0.00862645 0)
(-0.0583196 0.00880467 0)
(-0.0620638 0.00894243 0)
(-0.0658177 0.0090356 0)
(-0.06956 0.00908025 0)
(-0.0732685 0.00907274 0)
(-0.0769203 0.0090098 0)
(-0.0804917 0.00888853 0)
(-0.0839587 0.00870653 0)
(-0.0872971 0.0084619 0)
(-0.0904829 0.00815329 0)
(-0.0934922 0.00777994 0)
(-0.0963019 0.00734173 0)
(-0.0988895 0.00683916 0)
(-0.101234 0.00627341 0)
(-0.103314 0.0056463 0)
(-0.105111 0.00496035 0)
(-0.106609 0.00421871 0)
(-0.107791 0.00342519 0)
(-0.108644 0.00258425 0)
(-0.109156 0.00170097 0)
(-0.109317 0.000780933 0)
(-0.10912 -0.000169641 0)
(-0.108559 -0.00114356 0)
(-0.107633 -0.00213411 0)
(-0.10634 -0.00313355 0)
(-0.104684 -0.0041338 0)
(-0.102667 -0.00512652 0)
(-0.100299 -0.0061031 0)
(-0.0975883 -0.00705476 0)
(-0.0945475 -0.00797265 0)
(-0.0911915 -0.00884794 0)
(-0.0875379 -0.00967189 0)
(-0.0836064 -0.010436 0)
(-0.0794193 -0.0111322 0)
(-0.0750009 -0.0117527 0)
(-0.070378 -0.0122905 0)
(-0.0655791 -0.0127392 0)
(-0.0606343 -0.0130934 0)
(-0.0555756 -0.0133487 0)
(-0.050436 -0.0135016 0)
(-0.0452495 -0.0135501 0)
(-0.0400509 -0.0134932 0)
(-0.0348752 -0.0133315 0)
(-0.0297574 -0.0130669 0)
(-0.0247318 -0.0127028 0)
(-0.0198322 -0.012244 0)
(-0.0150908 -0.0116967 0)
(-0.0105383 -0.0110682 0)
(-0.00620314 -0.0103671 0)
(-0.00211147 -0.00960315 0)
(0.00171349 -0.00878668 0)
(0.00525163 -0.00792881 0)
(0.0084863 -0.00704106 0)
(0.0114044 -0.00613508 0)
(0.0139965 -0.00522252 0)
(0.0162572 -0.00431467 0)
(0.0181847 -0.00342232 0)
(0.0197811 -0.00255548 0)
(0.021052 -0.00172323 0)
(0.0220066 -0.000933548 0)
(0.0226568 -0.000193168 0)
(0.0230177 0.000492483 0)
(0.0231066 0.00111934 0)
(0.0229426 0.0016847 0)
(0.0225466 0.00218717 0)
(0.0219405 0.00262656 0)
(0.0211467 0.00300378 0)
(0.0201881 0.00332062 0)
(0.0190874 0.00357954 0)
(0.0178672 0.0037834 0)
(0.0165493 0.00393514 0)
(0.0151551 0.00403742 0)
(0.0137055 0.00409225 0)
(0.012221 0.00410064 0)
(0.0107218 0.00406215 0)
(0.00922855 0.00397465 0)
(0.00776247 0.00383406 0)
(0.00634581 0.0036344 0)
(0.00500228 0.00336818 0)
(0.00375726 0.00302731 0)
(0.00263798 0.00260503 0)
(0.00167251 0.00209921 0)
(0.000888004 0.00151713 0)
(0.00032289 0.000882906 0)
(5.07471e-05 0.00025418 0)
(3.6078e-05 -0.000327649 0)
(0.000198434 -0.000852145 0)
(0.000498549 -0.00124074 0)
(0.000868508 -0.00149793 0)
(0.00126805 -0.00163473 0)
(0.00166891 -0.00166559 0)
(0.0020461 -0.00160626 0)
(0.0023782 -0.00147241 0)
(0.00264742 -0.00127865 0)
(0.00283917 -0.00103805 0)
(0.00294163 -0.000761887 0)
(0.00294538 -0.000459584 0)
(0.00284299 -0.000138749 0)
(0.00262867 0.000194721 0)
(0.00229786 0.000536502 0)
(0.00184694 0.000883683 0)
(0.00127286 0.00123459 0)
(0.000572907 0.00158858 0)
(-0.000255546 0.00194591 0)
(-0.00121519 0.00230746 0)
(-0.00230893 0.00267459 0)
(-0.00353994 0.00304897 0)
(-0.00491171 0.00343235 0)
(-0.006428 0.00382643 0)
(-0.00809276 0.0042327 0)
(-0.00991006 0.00465234 0)
(-0.0118839 0.00508607 0)
(-0.014018 0.00553414 0)
(-0.0163159 0.0059962 0)
(-0.0187803 0.00647134 0)
(-0.021413 0.00695803 0)
(-0.0242152 0.00745412 0)
(-0.0271866 0.0079569 0)
(-0.0303255 0.00846306 0)
(-0.0336289 0.00896878 0)
(-0.0370918 0.00946974 0)
(-0.0407077 0.00996115 0)
(-0.0444681 0.0104378 0)
(-0.0483625 0.0108943 0)
(-0.0523784 0.0113248 0)
(-0.0565014 0.0117233 0)
(-0.0607153 0.0120836 0)
(-0.0650018 0.0123998 0)
(-0.0693411 0.0126656 0)
(-0.0737116 0.0128751 0)
(-0.0780904 0.0130226 0)
(-0.0824534 0.0131028 0)
(-0.0867755 0.0131106 0)
(-0.0910309 0.0130417 0)
(-0.0951932 0.0128922 0)
(-0.0992359 0.0126588 0)
(-0.103133 0.0123392 0)
(-0.106857 0.0119315 0)
(-0.110384 0.0114349 0)
(-0.113688 0.0108492 0)
(-0.116745 0.0101754 0)
(-0.119534 0.00941485 0)
(-0.122032 0.00857021 0)
(-0.124221 0.00764475 0)
(-0.126082 0.00664265 0)
(-0.127599 0.00556887 0)
(-0.128758 0.00442916 0)
(-0.129548 0.00323003 0)
(-0.129957 0.00197871 0)
(-0.12998 0.000683104 0)
(-0.129608 -0.000648324 0)
(-0.128841 -0.00200663 0)
(-0.127676 -0.00338195 0)
(-0.126114 -0.00476423 0)
(-0.124161 -0.00614298 0)
(-0.12182 -0.00750735 0)
(-0.119102 -0.00884624 0)
(-0.116017 -0.0101484 0)
(-0.112579 -0.0114024 0)
(-0.108802 -0.012597 0)
(-0.104705 -0.013721 0)
(-0.100309 -0.0147636 0)
(-0.0956357 -0.0157144 0)
(-0.0907109 -0.0165634 0)
(-0.0855612 -0.0173017 0)
(-0.0802157 -0.0179209 0)
(-0.0747054 -0.018414 0)
(-0.0690627 -0.018775 0)
(-0.0633215 -0.0189993 0)
(-0.0575171 -0.019084 0)
(-0.0516852 -0.0190275 0)
(-0.0458626 -0.0188302 0)
(-0.0400859 -0.0184942 0)
(-0.0343916 -0.0180234 0)
(-0.0288156 -0.0174235 0)
(-0.023393 -0.016702 0)
(-0.0181572 -0.0158681 0)
(-0.01314 -0.0149327 0)
(-0.0083706 -0.0139079 0)
(-0.00387595 -0.0128071 0)
(0.000320191 -0.0116445 0)
(0.00419738 -0.0104353 0)
(0.0077387 -0.00919481 0)
(0.0109311 -0.00793848 0)
(0.0137653 -0.00668155 0)
(0.0162362 -0.00543874 0)
(0.0183426 -0.00422391 0)
(0.0200873 -0.00304986 0)
(0.0214769 -0.00192802 0)
(0.0225214 -0.000868336 0)
(0.0232342 0.000120914 0)
(0.0236316 0.0010332 0)
(0.0237325 0.0018638 0)
(0.0235576 0.0026097 0)
(0.0231296 0.00326958 0)
(0.0224723 0.00384361 0)
(0.0216103 0.00433324 0)
(0.0205686 0.0047409 0)
(0.0193723 0.0050697 0)
(0.0180464 0.00532296 0)
(0.0166156 0.0055038 0)
(0.0151041 0.00561464 0)
(0.0135361 0.00565671 0)
(0.0119355 0.00562954 0)
(0.0103265 0.00553062 0)
(0.00873371 0.0053551 0)
(0.00718276 0.00509587 0)
(0.00570039 0.00474398 0)
(0.00431506 0.00428965 0)
(0.00305731 0.0037243 0)
(0.00195925 0.00304365 0)
(0.00105345 0.00225218 0)
(0.00038929 0.00136913 0)
(6.29347e-05 0.000441144 0)
(3.6359e-05 -0.000433978 0)
(0.000198303 -0.0010993 0)
(0.000493968 -0.00157548 0)
(0.000851722 -0.00187849 0)
(0.00122866 -0.00202691 0)
(0.00159489 -0.00204091 0)
(0.00192444 -0.00194089 0)
(0.00219528 -0.00174642 0)
(0.00238914 -0.00147553 0)
(0.00249093 -0.00114424 0)
(0.0024883 -0.00076639 0)
(0.00237115 -0.000353576 0)
(0.00213132 8.4818e-05 0)
(0.00176214 0.000541489 0)
(0.00125814 0.00101105 0)
(0.000614704 0.00148986 0)
(-0.000172237 0.00197578 0)
(-0.00110642 0.00246797 0)
(-0.0021915 0.00296664 0)
(-0.00343113 0.00347281 0)
(-0.00482916 0.00398806 0)
(-0.0063896 0.0045143 0)
(-0.00811668 0.00505351 0)
(-0.0100147 0.00560758 0)
(-0.0120882 0.00617807 0)
(-0.0143412 0.00676607 0)
(-0.0167779 0.00737207 0)
(-0.0194016 0.00799587 0)
(-0.0222152 0.00863648 0)
(-0.0252206 0.00929212 0)
(-0.0284183 0.00996018 0)
(-0.0318078 0.0106373 0)
(-0.0353867 0.0113191 0)
(-0.0391512 0.0120009 0)
(-0.0430952 0.0126769 0)
(-0.0472108 0.0133409 0)
(-0.0514879 0.0139861 0)
(-0.0559144 0.0146053 0)
(-0.0604757 0.0151909 0)
(-0.0651553 0.0157349 0)
(-0.0699345 0.0162295 0)
(-0.0747927 0.0166665 0)
(-0.0797074 0.017038 0)
(-0.0846545 0.0173363 0)
(-0.0896086 0.0175541 0)
(-0.094543 0.0176843 0)
(-0.0994303 0.0177208 0)
(-0.104242 0.0176577 0)
(-0.108951 0.0174904 0)
(-0.113528 0.0172148 0)
(-0.117945 0.0168279 0)
(-0.122174 0.0163277 0)
(-0.126189 0.015713 0)
(-0.129965 0.0149839 0)
(-0.133476 0.0141416 0)
(-0.136701 0.013188 0)
(-0.139617 0.0121263 0)
(-0.142205 0.0109607 0)
(-0.144447 0.00969628 0)
(-0.146327 0.0083391 0)
(-0.147831 0.00689608 0)
(-0.148947 0.00537502 0)
(-0.149665 0.00378451 0)
(-0.149977 0.00213389 0)
(-0.149877 0.000433245 0)
(-0.14936 -0.00130673 0)
(-0.148426 -0.00307485 0)
(-0.147074 -0.00485912 0)
(-0.145308 -0.0066472 0)
(-0.14313 -0.00842633 0)
(-0.140548 -0.0101834 0)
(-0.137571 -0.0119049 0)
(-0.134209 -0.0135774 0)
(-0.130476 -0.0151871 0)
(-0.126387 -0.0167204 0)
(-0.12196 -0.0181639 0)
(-0.117214 -0.0195044 0)
(-0.112173 -0.0207294 0)
(-0.106859 -0.0218267 0)
(-0.101301 -0.0227852 0)
(-0.0955252 -0.0235947 0)
(-0.0895636 -0.0242463 0)
(-0.0834481 -0.0247325 0)
(-0.0772128 -0.0250472 0)
(-0.0708931 -0.0251864 0)
(-0.0645254 -0.0251477 0)
(-0.0581473 -0.024931 0)
(-0.0517965 -0.0245381 0)
(-0.0455111 -0.0239732 0)
(-0.0393289 -0.0232427 0)
(-0.0332872 -0.0223552 0)
(-0.0274218 -0.0213213 0)
(-0.0217672 -0.0201538 0)
(-0.0163561 -0.0188671 0)
(-0.0112185 -0.0174774 0)
(-0.00638161 -0.0160021 0)
(-0.00186973 -0.0144595 0)
(0.00229648 -0.0128687 0)
(0.00610009 -0.0112491 0)
(0.00952812 -0.00961984 0)
(0.0125717 -0.00799977 0)
(0.0152259 -0.00640683 0)
(0.0174904 -0.0048578 0)
(0.0193685 -0.00336799 0)
(0.0208676 -0.00195095 0)
(0.0219988 -0.000618294 0)
(0.0227765 0.000620476 0)
(0.0232182 0.00175802 0)
(0.0233441 0.00278919 0)
(0.0231764 0.00371093 0)
(0.0227393 0.00452213 0)
(0.0220584 0.00522335 0)
(0.0211598 0.00581655 0)
(0.0200708 0.00630462 0)
(0.0188185 0.00669093 0)
(0.0174302 0.00697879 0)
(0.0159332 0.00717082 0)
(0.0143546 0.00726836 0)
(0.0127217 0.0072709 0)
(0.0110617 0.00717562 0)
(0.00940245 0.00697705 0)
(0.00777252 0.00666705 0)
(0.00620167 0.00623525 0)
(0.00472138 0.00567005 0)
(0.00336566 0.00496036 0)
(0.00217084 0.00409844 0)
(0.00117503 0.00308352 0)
(0.000437235 0.00192643 0)
(7.1357e-05 0.000658376 0)
(3.50707e-05 -0.000537663 0)
(0.000188671 -0.00133757 0)
(0.000464384 -0.00189264 0)
(0.000789936 -0.00223049 0)
(0.00112125 -0.00237794 0)
(0.00142752 -0.00236152 0)
(0.00168234 -0.00220669 0)
(0.00186349 -0.00193714 0)
(0.0019526 -0.00157434 0)
(0.00193441 -0.00113723 0)
(0.00179628 -0.000642104 0)
(0.00152767 -0.000102579 0)
(0.00111982 0.000470306 0)
(0.000565334 0.00106795 0)
(-0.000142122 0.00168401 0)
(-0.00100812 0.00231415 0)
(-0.00203771 0.00295581 0)
(-0.00323568 0.00360795 0)
(-0.00460668 0.00427073 0)
(-0.00615535 0.00494525 0)
(-0.00788641 0.00563321 0)
(-0.00980467 0.00633665 0)
(-0.0119149 0.00705767 0)
(-0.014222 0.00779811 0)
(-0.0167304 0.0085594 0)
(-0.0194444 0.0093423 0)
(-0.0223676 0.0101468 0)
(-0.0255027 0.0109718 0)
(-0.0288515 0.0118155 0)
(-0.0324143 0.0126749 0)
(-0.0361901 0.0135457 0)
(-0.0401758 0.0144231 0)
(-0.0443667 0.0153008 0)
(-0.0487558 0.0161721 0)
(-0.0533337 0.017029 0)
(-0.058089 0.0178631 0)
(-0.0630077 0.0186654 0)
(-0.0680735 0.0194263 0)
(-0.0732676 0.0201359 0)
(-0.0785694 0.0207843 0)
(-0.0839558 0.0213613 0)
(-0.0894023 0.0218572 0)
(-0.0948823 0.0222622 0)
(-0.100368 0.0225674 0)
(-0.105832 0.0227642 0)
(-0.111243 0.0228449 0)
(-0.116573 0.0228028 0)
(-0.121791 0.0226319 0)
(-0.126868 0.0223275 0)
(-0.131774 0.0218862 0)
(-0.136483 0.0213055 0)
(-0.140966 0.0205844 0)
(-0.145197 0.0197229 0)
(-0.149153 0.0187225 0)
(-0.152811 0.0175858 0)
(-0.156149 0.0163165 0)
(-0.159148 0.0149196 0)
(-0.161791 0.013401 0)
(-0.164062 0.0117678 0)
(-0.165948 0.0100278 0)
(-0.167437 0.00819009 0)
(-0.168518 0.0062643 0)
(-0.169183 0.00426098 0)
(-0.169427 0.00219141 0)
(-0.169244 6.75797e-05 0)
(-0.168632 -0.00209762 0)
(-0.167589 -0.00429126 0)
(-0.166116 -0.00649944 0)
(-0.164217 -0.00870781 0)
(-0.161894 -0.0109016 0)
(-0.159156 -0.0130657 0)
(-0.156008 -0.0151846 0)
(-0.152463 -0.0172425 0)
(-0.148531 -0.0192238 0)
(-0.144227 -0.0211127 0)
(-0.139568 -0.0228934 0)
(-0.134572 -0.0245506 0)
(-0.129259 -0.0260695 0)
(-0.123654 -0.0274358 0)
(-0.11778 -0.0286362 0)
(-0.111666 -0.0296584 0)
(-0.105341 -0.0304916 0)
(-0.0988367 -0.0311264 0)
(-0.0921868 -0.0315551 0)
(-0.0854265 -0.0317722 0)
(-0.0785925 -0.0317742 0)
(-0.0717229 -0.0315601 0)
(-0.0648563 -0.0311312 0)
(-0.0580321 -0.0304917 0)
(-0.0512899 -0.0296481 0)
(-0.0446688 -0.0286098 0)
(-0.0382071 -0.0273886 0)
(-0.0319422 -0.0259988 0)
(-0.0259095 -0.024457 0)
(-0.0201423 -0.0227818 0)
(-0.0146716 -0.0209934 0)
(-0.00952511 -0.0191135 0)
(-0.00472733 -0.0171647 0)
(-0.000299076 -0.0151701 0)
(0.00374278 -0.0131531 0)
(0.00738549 -0.0111365 0)
(0.0106205 -0.00914264 0)
(0.0134438 -0.00719242 0)
(0.0158552 -0.00530527 0)
(0.0178593 -0.00349874 0)
(0.0194642 -0.00178816 0)
(0.020682 -0.000186462 0)
(0.0215283 0.00129592 0)
(0.0220219 0.00265114 0)
(0.0221841 0.00387389 0)
(0.0220386 0.00496119 0)
(0.0216112 0.00591223 0)
(0.0209289 0.00672792 0)
(0.0200198 0.00741052 0)
(0.0189129 0.00796301 0)
(0.0176374 0.00838853 0)
(0.0162231 0.00868965 0)
(0.0146996 0.00886768 0)
(0.0130969 0.00892197 0)
(0.0114452 0.00884937 0)
(0.00977513 0.00864381 0)
(0.00811808 0.00829619 0)
(0.00650672 0.00779465 0)
(0.00497559 0.00712547 0)
(0.00356219 0.00627445 0)
(0.00230699 0.00522923 0)
(0.0012532 0.00398204 0)
(0.000467577 0.00253309 0)
(7.64462e-05 0.000896004 0)
(3.25422e-05 -0.000634212 0)
(0.000170959 -0.00155531 0)
(0.00041282 -0.00217535 0)
(0.000687815 -0.00253332 0)
(0.000952094 -0.00266451 0)
(0.00117472 -0.00260211 0)
(0.00132947 -0.00237686 0)
(0.0013944 -0.00201667 0)
(0.00135136 -0.00154644 0)
(0.00118524 -0.000987894 0)
(0.000883285 -0.000359606 0)
(0.000434726 0.00032294 0)
(-0.000169673 0.00104723 0)
(-0.000937947 0.00180352 0)
(-0.00187722 0.00258461 0)
(-0.00299395 0.00338558 0)
(-0.00429418 0.00420348 0)
(-0.00578365 0.00503708 0)
(-0.007468 0.00588646 0)
(-0.00935277 0.00675271 0)
(-0.0114435 0.00763756 0)
(-0.0137456 0.00854303 0)
(-0.0162643 0.00947108 0)
(-0.0190046 0.0104233 0)
(-0.021971 0.0114008 0)
(-0.0251673 0.0124035 0)
(-0.0285962 0.0134307 0)
(-0.0322595 0.0144801 0)
(-0.0361572 0.0155485 0)
(-0.0402877 0.0166311 0)
(-0.0446476 0.0177222 0)
(-0.0492312 0.0188144 0)
(-0.0540304 0.0198996 0)
(-0.0590348 0.0209685 0)
(-0.0642313 0.0220107 0)
(-0.0696043 0.0230155 0)
(-0.0751359 0.0239711 0)
(-0.0808054 0.0248658 0)
(-0.0865901 0.0256873 0)
(-0.092465 0.0264236 0)
(-0.0984035 0.0270629 0)
(-0.104377 0.0275935 0)
(-0.110357 0.0280046 0)
(-0.116312 0.0282863 0)
(-0.122212 0.0284293 0)
(-0.128025 0.0284257 0)
(-0.133721 0.0282686 0)
(-0.13927 0.0279528 0)
(-0.144641 0.0274742 0)
(-0.149808 0.0268301 0)
(-0.154742 0.0260194 0)
(-0.159418 0.0250424 0)
(-0.163813 0.0239009 0)
(-0.167903 0.0225979 0)
(-0.17167 0.0211377 0)
(-0.175093 0.0195259 0)
(-0.178156 0.0177694 0)
(-0.180845 0.0158759 0)
(-0.183146 0.0138543 0)
(-0.185047 0.0117143 0)
(-0.18654 0.00946658 0)
(-0.187614 0.00712262 0)
(-0.188264 0.00469462 0)
(-0.188484 0.00219549 0)
(-0.18827 -0.000361132 0)
(-0.18762 -0.00296086 0)
(-0.186534 -0.00558902 0)
(-0.18501 -0.00823011 0)
(-0.183052 -0.0108682 0)
(-0.180663 -0.0134867 0)
(-0.177847 -0.0160687 0)
(-0.174613 -0.018597 0)
(-0.170967 -0.021054 0)
(-0.166921 -0.0234219 0)