/*--------------------------------*- C++ -*----------------------------------*\
| =========                 |                                                 |
| \\      /  F ield         | OpenFOAM: The Open Source CFD Toolbox           |
|  \\    /   O peration     | Version:  2112                                  |
|   \\  /    A nd           | Website:  www.openfoam.com                      |
|    \\/     M anipulation  |                                                 |
\*---------------------------------------------------------------------------*/
FoamFile
{
    version     2.0;
    format      ascii;
    arch        "LSB;label=32;scalar=64";
    class       volScalarField;
    location    "4";
    object      p;
}
// * * * * * * * * * * * * * * * * * * * * * * * * * * * * * * * * * * * * * //

dimensions      [0 2 -2 0 0 0 0];

internalField   nonuniform List<scalar> 
16641
(
-9.55024e-10
-1.74179e-06
-5.69916e-06
-1.09217e-05
-1.64924e-05
-2.17981e-05
-2.63952e-05
-2.99792e-05
-3.23475e-05
-3.33671e-05
-3.29562e-05
-3.10706e-05
-2.76928e-05
-2.2823e-05
-1.64733e-05
-8.66272e-06
5.8631e-07
1.1249e-05
2.32997e-05
3.67126e-05
5.1463e-05
6.75285e-05
8.48886e-05
0.000103525
0.000123422
0.000144565
0.00016694
0.000190536
0.000215344
0.000241353
0.000268556
0.000296946
0.000326514
0.000357254
0.000389158
0.000422219
0.000456429
0.000491779
0.000528261
0.000565862
0.000604572
0.000644379
0.000685267
0.000727222
0.000770227
0.000814262
0.000859306
0.000905338
0.000952332
0.00100026
0.0010491
0.00109881
0.00114936
0.00120072
0.00125285
0.00130569
0.00135922
0.00141339
0.00146813
0.00152341
0.00157917
0.00163534
0.00169188
0.00174871
0.00180577
0.00186299
0.00192031
0.00197764
0.00203492
0.00209207
0.00214901
0.00220566
0.00226195
0.00231778
0.00237308
0.00242776
0.00248174
0.00253493
0.00258726
0.00263865
0.00268901
0.00273826
0.00278633
0.00283314
0.00287863
0.00292272
0.00296534
0.00300644
0.00304596
0.00308385
0.00312005
0.00315452
0.00318722
0.00321813
0.0032472
0.00327442
0.00329977
0.00332323
0.0033448
0.00336448
0.00338227
0.00339819
0.00341224
0.00342445
0.00343485
0.00344346
0.00345033
0.0034555
0.00345902
0.00346094
0.00346132
0.00346024
0.00345777
0.00345399
0.00344901
0.00344291
0.00343583
0.00342788
0.00341923
0.00341005
0.00340053
0.0033909
0.00338145
0.0033725
0.00336443
0.00335767
0.00335272
0.00335011
0.00335009
1.73442e-06
-1.2475e-08
-3.14131e-06
-7.08939e-06
-1.12769e-05
-1.52305e-05
-1.85855e-05
-2.10728e-05
-2.24987e-05
-2.27262e-05
-2.1662e-05
-1.92468e-05
-1.54466e-05
-1.0246e-05
-3.6427e-06
4.35657e-06
1.37394e-05
2.44904e-05
3.6592e-05
5.00255e-05
6.47722e-05
8.08139e-05
9.81339e-05
0.000116717
0.000136549
0.000157617
0.000179909
0.000203416
0.000228126
0.000254031
0.000281124
0.000309397
0.000338841
0.00036945
0.000401215
0.000434129
0.000468183
0.000503368
0.000539674
0.00057709
0.000615604
0.000655203
0.000695872
0.000737595
0.000780355
0.000824131
0.000868903
0.000914649
0.000961341
0.00100895
0.00105746
0.00110682
0.00115701
0.00120799
0.00125972
0.00131216
0.00136526
0.00141897
0.00147326
0.00152806
0.00158332
0.00163899
0.001695
0.00175129
0.0018078
0.00186445
0.00192119
0.00197793
0.00203461
0.00209115
0.00214747
0.0022035
0.00225915
0.00231434
0.002369
0.00242304
0.00247638
0.00252893
0.00258063
0.00263138
0.00268111
0.00272975
0.00277721
0.00282343
0.00286833
0.00291185
0.00295393
0.0029945
0.0030335
0.0030709
0.00310663
0.00314066
0.00317295
0.00320346
0.00323217
0.00325906
0.00328411
0.00330731
0.00332864
0.00334813
0.00336576
0.00338155
0.00339552
0.00340769
0.0034181
0.00342676
0.00343374
0.00343907
0.0034428
0.003445
0.00344573
0.00344506
0.00344308
0.00343987
0.00343554
0.00343019
0.00342395
0.00341695
0.00340933
0.00340129
0.00339299
0.00338467
0.00337657
0.00336897
0.00336218
0.00335653
0.00335235
0.00335008
0.00335006
5.70342e-06
3.10052e-06
-4.30429e-08
-3.5417e-06
-7.08761e-06
-1.03223e-05
-1.29527e-05
-1.47534e-05
-1.55542e-05
-1.52294e-05
-1.36889e-05
-1.08716e-05
-6.73794e-06
-1.26561e-06
5.55506e-06
1.37244e-05
2.32364e-05
3.40808e-05
4.62454e-05
5.97164e-05
7.44793e-05
9.05196e-05
0.000107823
0.000126377
0.000146169
0.000167187
0.000189422
0.000212863
0.000237502
0.00026333
0.000290339
0.000318522
0.000347871
0.000378379
0.000410037
0.000442837
0.000476771
0.000511829
0.000548001
0.000585276
0.000623641
0.000663082
0.000703585
0.000745134
0.00078771
0.000831293
0.000875863
0.000921396
0.000967866
0.00101525
0.00106351
0.00111262
0.00116254
0.00121324
0.00126468
0.00131682
0.00136961
0.00142301
0.00147696
0.00153142
0.00158633
0.00164164
0.00169727
0.00175318
0.0018093
0.00186556
0.00192189
0.00197821
0.00203447
0.00209058
0.00214647
0.00220206
0.00225726
0.00231201
0.00236622
0.00241981
0.00247269
0.0025248
0.00257605
0.00262636
0.00267565
0.00272384
0.00277088
0.00281667
0.00286116
0.00290427
0.00294595
0.00298613
0.00302477
0.0030618
0.00309719
0.00313089
0.00316286
0.00319308
0.00322151
0.00324814
0.00327294
0.00329592
0.00331706
0.00333637
0.00335386
0.00336953
0.00338341
0.00339552
0.00340589
0.00341456
0.00342158
0.00342698
0.00343083
0.0034332
0.00343413
0.00343373
0.00343206
0.00342922
0.00342532
0.00342047
0.00341478
0.00340839
0.00340146
0.00339415
0.00338664
0.00337914
0.00337186
0.00336504
0.00335896
0.00335386
0.00335001
0.00334777
0.00334746
1.09708e-05
7.04412e-06
3.41234e-06
-1.03874e-07
-3.43884e-06
-6.32343e-06
-8.53109e-06
-9.88601e-06
-1.02488e-05
-9.51245e-06
-7.59811e-06
-4.4499e-06
-3.02461e-08
5.68422e-06
1.2706e-05
2.10391e-05
3.06813e-05
4.16262e-05
5.38648e-05
6.73864e-05
8.21798e-05
9.82334e-05
0.000115536
0.000134075
0.000153842
0.000174825
0.000197016
0.000220406
0.000244987
0.000270751
0.000297691
0.000325798
0.000355066
0.000385488
0.000417054
0.000449758
0.00048359
0.000518541
0.000554599
0.000591755
0.000629995
0.000669305
0.00070967
0.000751075
0.0007935
0.000836925
0.00088133
0.000926691
0.000972981
0.00102017
0.00106824
0.00111715
0.00116686
0.00121734
0.00126856
0.00132046
0.00137301
0.00142616
0.00147985
0.00153405
0.00158868
0.00164371
0.00169906
0.00175468
0.00181049
0.00186645
0.00192246
0.00197848
0.00203441
0.0020902
0.00214576
0.00220101
0.00225589
0.0023103
0.00236417
0.00241741
0.00246996
0.00252173
0.00257263
0.0026226
0.00267156
0.00271942
0.00276612
0.00281158
0.00285575
0.00289854
0.00293991
0.00297978
0.00301812
0.00305486
0.00308996
0.00312339
0.0031551
0.00318506
0.00321325
0.00323965
0.00326424
0.00328701
0.00330797
0.00332711
0.00334444
0.00335998
0.00337375
0.00338577
0.00339608
0.00340471
0.00341171
0.00341714
0.00342104
0.00342348
0.00342454
0.0034243
0.00342283
0.00342024
0.00341663
0.00341211
0.00340681
0.00340085
0.00339439
0.00338758
0.00338059
0.00337361
0.00336684
0.00336048
0.00335476
0.00334989
0.00334608
0.00334357
0.00334257
1.66225e-05
1.12302e-05
6.90632e-06
3.14476e-06
-2.03503e-07
-2.93846e-06
-4.89241e-06
-5.93931e-06
-5.97345e-06
-4.91001e-06
-2.68457e-06
7.4997e-07
5.42617e-06
1.1365e-05
1.85787e-05
2.70724e-05
3.68463e-05
4.78963e-05
6.02159e-05
7.37969e-05
8.86304e-05
0.000104707
0.000122017
0.000140552
0.000160302
0.000181259
0.000203415
0.000226762
0.000251292
0.000276999
0.000303876
0.000331916
0.000361111
0.000391454
0.000422938
0.000455554
0.000489294
0.000524147
0.000560104
0.000597153
0.000635281
0.000674475
0.000714718
0.000755996
0.000798289
0.000841577
0.000885838
0.000931049
0.000977185
0.00102422
0.00107212
0.00112085
0.00117039
0.00122069
0.00127171
0.00132342
0.00137577
0.00142871
0.00148219
0.00153617
0.00159058
0.00164538
0.0017005
0.00175588
0.00181145
0.00186716
0.00192293
0.00197869
0.00203437
0.0020899
0.00214519
0.00220019
0.00225479
0.00230893
0.00236253
0.00241551
0.00246778
0.00251928
0.00256991
0.0026196
0.00266828
0.00271587
0.0027623
0.00280749
0.00285138
0.00289391
0.00293501
0.00297462
0.00301269
0.00304918
0.00308403
0.0031172
0.00314867
0.0031784
0.00320636
0.00323254
0.00325692
0.00327949
0.00330026
0.00331922
0.00333639
0.00335177
0.00336541
0.00337731
0.00338752
0.00339607
0.00340302
0.00340841
0.00341231
0.00341478
0.0034159
0.00341575
0.00341441
0.00341198
0.00340856
0.00340428
0.00339925
0.0033936
0.00338747
0.00338102
0.0033744
0.00336778
0.00336134
0.00335525
0.00334969
0.00334485
0.00334089
0.00333792
0.00333595
2.20298e-05
1.51642e-05
1.00545e-05
5.90732e-06
2.38958e-06
-3.49109e-07
-2.18811e-06
-3.04611e-06
-2.85061e-06
-1.54008e-06
9.33493e-07
4.60615e-06
9.50351e-06
1.56422e-05
2.30322e-05
3.16777e-05
4.15792e-05
5.2734e-05
6.51372e-05
7.87823e-05
9.36621e-05
0.000109769
0.000127095
0.000145633
0.000165375
0.000186313
0.000208442
0.000231754
0.000256243
0.000281901
0.000308724
0.000336705
0.000365836
0.000396111
0.000427522
0.000460061
0.00049372
0.000528489
0.000564358
0.000601315
0.000639347
0.000678441
0.000718582
0.000759752
0.000801934
0.000845107
0.00088925
0.000934339
0.000980348
0.00102725
0.00107502
0.00112361
0.00117301
0.00122316
0.00127403
0.00132559
0.00137778
0.00143056
0.00148388
0.00153769
0.00159194
0.00164657
0.00170151
0.00175671
0.00181211
0.00186764
0.00192322
0.0019788
0.00203429
0.00208963
0.00214474
0.00219953
0.00225395
0.00230789
0.00236129
0.00241407
0.00246614
0.00251743
0.00256786
0.00261734
0.00266582
0.00271319
0.00275941
0.00280439
0.00284806
0.00289037
0.00293126
0.00297065
0.0030085
0.00304477
0.0030794
0.00311236
0.00314361
0.00317312
0.00320086
0.00322683
0.003251
0.00327338
0.00329395
0.00331272
0.00332971
0.00334493
0.0033584
0.00337016
0.00338023
0.00338867
0.00339552
0.00340084
0.00340468
0.00340712
0.00340823
0.00340809
0.0034068
0.00340445
0.00340114
0.003397
0.00339213
0.00338667
0.00338076
0.00337453
0.00336813
0.00336172
0.00335544
0.00334946
0.00334391
0.00333895
0.00333471
0.00333116
0.0033281
2.67165e-05
1.8447e-05
1.25259e-05
7.91479e-06
4.12695e-06
1.27534e-06
-5.5571e-07
-1.32249e-06
-9.82361e-07
5.03785e-07
3.1671e-06
7.03128e-06
1.21134e-05
1.84248e-05
2.59715e-05
3.47559e-05
4.47774e-05
5.60333e-05
6.85194e-05
8.22303e-05
9.716e-05
0.000113302
0.00013065
0.000149198
0.000168938
0.000189867
0.000211976
0.000235262
0.000259717
0.000285336
0.000312114
0.000340045
0.000369123
0.00039934
0.00043069
0.000463165
0.000496756
0.000531455
0.00056725
0.000604131
0.000642085
0.000681098
0.000721156
0.000762241
0.000804335
0.000847419
0.00089147
0.000936465
0.000982378
0.00102918
0.00107685
0.00112534
0.00117463
0.00122468
0.00127545
0.0013269
0.00137898
0.00143165
0.00148486
0.00153856
0.0015927
0.00164721
0.00170204
0.00175713
0.00181242
0.00186783
0.0019233
0.00197876
0.00203414
0.00208936
0.00214434
0.00219902
0.00225331
0.00230713
0.00236041
0.00241306
0.002465
0.00251616
0.00256645
0.0026158
0.00266413
0.00271136
0.00275742
0.00280225
0.00284577
0.00288791
0.00292862
0.00296784
0.00300552
0.0030416
0.00307604
0.00310881
0.00313986
0.00316918
0.00319672
0.00322249
0.00324646
0.00326863
0.00328899
0.00330757
0.00332436
0.00333939
0.00335268
0.00336426
0.00337417
0.00338245
0.00338916
0.00339435
0.00339808
0.00340043
0.00340147
0.00340128
0.00339996
0.00339761
0.00339433
0.00339023
0.00338543
0.00338006
0.00337424
0.00336811
0.00336181
0.00335547
0.00334924
0.00334323
0.00333757
0.00333238
0.00332776
0.00332358
0.00331944
3.0326e-05
2.07607e-05
1.40461e-05
8.9389e-06
4.82525e-06
1.79181e-06
-1.05265e-07
-8.53305e-07
-4.35405e-07
1.16731e-06
3.97007e-06
7.98423e-06
1.32176e-05
1.9675e-05
2.73582e-05
3.62667e-05
4.63982e-05
5.77492e-05
7.03152e-05
8.40913e-05
9.90722e-05
0.000115252
0.000132627
0.000151189
0.000170935
0.00019186
0.000213957
0.000237224
0.000261654
0.000287243
0.000313985
0.000341877
0.000370911
0.000401082
0.000432383
0.000464806
0.000498343
0.000532986
0.000568724
0.000605547
0.000643441
0.000682393
0.000722388
0.00076341
0.000805441
0.00084846
0.000892447
0.000937377
0.000983225
0.00102996
0.00107757
0.001126
0.00117522
0.00122521
0.00127592
0.0013273
0.00137932
0.00143194
0.00148509
0.00153873
0.00159281
0.00164727
0.00170205
0.00175709
0.00181232
0.00186769
0.00192311
0.00197852
0.00203385
0.00208903
0.00214397
0.0021986
0.00225284
0.00230661
0.00235983
0.00241243
0.00246431
0.0025154
0.00256563
0.0026149
0.00266315
0.0027103
0.00275627
0.00280099
0.0028444
0.00288643
0.00292702
0.00296611
0.00300364
0.00303958
0.00307386
0.00310646
0.00313734
0.00316647
0.00319382
0.00321939
0.00324316
0.00326512
0.00328528
0.00330364
0.00332022
0.00333504
0.00334812
0.00335949
0.0033692
0.00337729
0.00338381
0.00338883
0.0033924
0.0033946
0.0033955
0.00339521
0.00339379
0.00339136
0.00338802
0.00338389
0.00337906
0.00337368
0.00336786
0.00336174
0.00335543
0.00334907
0.00334277
0.00333664
0.00333078
0.00332529
0.00332025
0.00331544
0.00331027
3.25872e-05
2.18488e-05
1.43845e-05
8.77895e-06
4.31411e-06
1.05861e-06
-9.53202e-07
-1.73401e-06
-1.28879e-06
3.83453e-07
3.28358e-06
7.41139e-06
1.27657e-05
1.93443e-05
2.71441e-05
3.61614e-05
4.63916e-05
5.78298e-05
7.04711e-05
8.43102e-05
9.93421e-05
0.000115562
0.000132965
0.000151547
0.000171303
0.00019223
0.000214323
0.000237578
0.000261991
0.000287558
0.000314275
0.000342137
0.000371139
0.000401275
0.000432539
0.000464924
0.000498422
0.000533025
0.000568722
0.000605504
0.000643357
0.000682268
0.000722223
0.000763206
0.000805197
0.000848179
0.000892129
0.000937025
0.00098284
0.00102955
0.00107712
0.00112553
0.00117473
0.00122469
0.00127538
0.00132675
0.00137877
0.00143137
0.00148452
0.00153816
0.00159224
0.00164671
0.0017015
0.00175655
0.0018118
0.00186718
0.00192262
0.00197805
0.00203341
0.0020886
0.00214357
0.00219822
0.00225248
0.00230628
0.00235952
0.00241212
0.00246402
0.00251511
0.00256534
0.0026146
0.00266283
0.00270995
0.00275589
0.00280057
0.00284392
0.00288588
0.00292638
0.00296538
0.00300281
0.00303862
0.00307277
0.00310522
0.00313594
0.0031649
0.00319208
0.00321745
0.00324102
0.00326277
0.00328271
0.00330084
0.00331719
0.00333177
0.00334461
0.00335574
0.00336521
0.00337307
0.00337936
0.00338415
0.00338751
0.00338951
0.00339023
0.00338975
0.00338818
0.00338561
0.00338214
0.00337789
0.00337297
0.0033675
0.0033616
0.00335539
0.00334899
0.00334251
0.00333607
0.00332975
0.00332363
0.0033178
0.00331234
0.00330692
0.00330084
3.32906e-05
2.15026e-05
1.33458e-05
7.25885e-06
2.43806e-06
-1.05968e-06
-3.21649e-06
-4.06551e-06
-3.63005e-06
-1.92463e-06
1.03875e-06
5.24939e-06
1.06977e-05
1.73748e-05
2.52727e-05
3.43837e-05
4.4701e-05
5.62179e-05
6.89284e-05
8.28271e-05
9.79088e-05
0.000114169
0.000131603
0.000150207
0.000169978
0.000190913
0.000213007
0.000236258
0.000260662
0.000286217
0.000312917
0.000340761
0.000369742
0.000399855
0.000431096
0.000463457
0.000496931
0.00053151
0.000567184
0.000603943
0.000641775
0.000680667
0.000720604
0.000761571
0.00080355
0.000846522
0.000890466
0.000935358
0.000981174
0.00102789
0.00107547
0.00112388
0.00117311
0.00122309
0.00127381
0.00132522
0.00137727
0.00142991
0.00148311
0.00153681
0.00159095
0.00164548
0.00170034
0.00175547
0.0018108
0.00186626
0.00192179
0.00197732
0.00203276
0.00208805
0.00214311
0.00219786
0.00225222
0.0023061
0.00235943
0.00241212
0.00246409
0.00251525
0.00256554
0.00261485
0.00266313
0.00271028
0.00275623
0.00280091
0.00284426
0.00288619
0.00292666
0.00296559
0.00300295
0.00303867
0.00307271
0.00310504
0.00313561
0.00316441
0.00319141
0.00321659
0.00323995
0.00326147
0.00328118
0.00329907
0.00331516
0.00332948
0.00334205
0.00335291
0.00336211
0.00336969
0.00337571
0.00338023
0.00338333
0.00338507
0.00338554
0.00338483
0.00338304
0.00338026
0.0033766
0.00337216
0.00336708
0.00336145
0.00335539
0.00334903
0.00334247
0.00333581
0.00332917
0.00332261
0.0033162
0.00331002
0.00330414
0.00329818
0.00329131
3.22734e-05
1.95527e-05
1.07655e-05
4.22529e-06
-9.42358e-07
-4.68801e-06
-7.00623e-06
-7.94653e-06
-7.54721e-06
-5.83602e-06
-2.8363e-06
1.43184e-06
6.95115e-06
1.37066e-05
2.16853e-05
3.0876e-05
4.1269e-05
5.28559e-05
6.56295e-05
7.95836e-05
9.47129e-05
0.000111013
0.000128479
0.000147109
0.000166898
0.000187845
0.000209948
0.000233202
0.000257606
0.000283156
0.000309851
0.000337686
0.000366658
0.000396762
0.000427993
0.000460345
0.000493811
0.000528383
0.000564052
0.000600808
0.000638639
0.000677534
0.000717478
0.000758455
0.000800448
0.000843439
0.000887406
0.000932327
0.000978178
0.00102493
0.00107256
0.00112103
0.00117031
0.00122037
0.00127116
0.00132265
0.00137479
0.00142753
0.00148084
0.00153465
0.00158891
0.00164357
0.00169856
0.00175383
0.0018093
0.00186492
0.0019206
0.00197629
0.0020319
0.00208735
0.00214258
0.00219749
0.00225201
0.00230605
0.00235953
0.00241237
0.00246449
0.00251579
0.0025662
0.00261563
0.002664
0.00271124
0.00275726
0.002802
0.00284538
0.00288733
0.00292779
0.00296671
0.00300401
0.00303967
0.00307362
0.00310584
0.00313628
0.00316492
0.00319175
0.00321673
0.00323987
0.00326117
0.00328062
0.00329825
0.00331406
0.00332809
0.00334036
0.00335091
0.00335979
0.00336706
0.00337276
0.00337696
0.00337975
0.00338118
0.00338135
0.00338035
0.00337828
0.00337523
0.00337132
0.00336665
0.00336133
0.00335548
0.00334921
0.00334263
0.00333585
0.00332897
0.00332208
0.00331525
0.00330854
0.00330201
0.00329573
0.00328928
0.00328177
2.94075e-05
1.58611e-05
6.50513e-06
-4.54333e-07
-5.95138e-06
-9.94075e-06
-1.24265e-05
-1.34715e-05
-1.31262e-05
-1.14293e-05
-8.41392e-06
-4.10857e-06
1.46262e-06
8.27905e-06
1.63233e-05
2.55806e-05
3.60387e-05
4.76872e-05
6.05177e-05
7.4523e-05
8.96975e-05
0.000106036
0.000123536
0.000142193
0.000162005
0.00018297
0.000205086
0.00022835
0.000252762
0.000278318
0.000305017
0.000332855
0.000361831
0.000391939
0.000423174
0.000455532
0.000489006
0.000523589
0.000559272
0.000596045
0.000633898
0.000672819
0.000712794
0.000753807
0.000795843
0.000838882
0.000882905
0.000927889
0.00097381
0.00102064
0.00106836
0.00111692
0.00116631
0.00121648
0.00126739
0.00131901
0.00137129
0.00142419
0.00147766
0.00153164
0.00158608
0.00164093
0.00169612
0.0017516
0.00180728
0.00186312
0.00191903
0.00197494
0.00203079
0.00208648
0.00214194
0.00219708
0.00225183
0.00230611
0.00235982
0.00241287
0.0024652
0.0025167
0.00256729
0.0026169
0.00266543
0.00271281
0.00275895
0.00280379
0.00284725
0.00288926
0.00292976
0.00296868
0.00300597
0.00304158
0.00307546
0.00310758
0.0031379
0.0031664
0.00319304
0.00321783
0.00324074
0.00326179
0.00328098
0.00329831
0.00331382
0.00332752
0.00333946
0.00334967
0.00335819
0.00336509
0.00337043
0.00337427
0.00337669
0.00337776
0.00337758
0.00337624
0.00337383
0.00337046
0.00336624
0.00336127
0.00335567
0.00334954
0.003343
0.00333616
0.00332912
0.00332198
0.00331481
0.00330769
0.00330066
0.00329379
0.00328716
0.0032803
0.00327226
2.45901e-05
1.03141e-05
4.48414e-07
-6.89424e-06
-1.26986e-05
-1.69214e-05
-1.95738e-05
-2.07296e-05
-2.04493e-05
-1.87808e-05
-1.57653e-05
-1.14387e-05
-5.83118e-06
1.03166e-06
9.12826e-06
1.84408e-05
2.89543e-05
4.06567e-05
5.35381e-05
6.75905e-05
8.28077e-05
9.91848e-05
0.000116718
0.000135405
0.000155243
0.00017623
0.000198366
0.000221648
0.000246075
0.000271646
0.00029836
0.000326214
0.000355205
0.00038533
0.000416585
0.000448965
0.000482464
0.000517076
0.000552793
0.000589605
0.000627502
0.000666473
0.000706504
0.000747582
0.000789689
0.000832808
0.000876918
0.000922
0.000968027
0.00101498
0.00106282
0.00111152
0.00116106
0.00121139
0.00126248
0.00131428
0.00136676
0.00141987
0.00147355
0.00152777
0.00158245
0.00163755
0.00169301
0.00174875
0.00180472
0.00186084
0.00191705
0.00197326
0.00202941
0.0020854
0.00214117
0.00219662
0.00225168
0.00230625
0.00236026
0.0024136
0.0024662
0.00251796
0.00256881
0.00261865
0.00266739
0.00271497
0.00276129
0.00280627
0.00284986
0.00289196
0.00293253
0.00297149
0.00300879
0.00304437
0.0030782
0.00311024
0.00314044
0.00316878
0.00319525
0.00321983
0.0032425
0.00326329
0.00328218
0.0032992
0.00331437
0.00332772
0.00333928
0.0033491
0.00335723
0.00336372
0.00336865
0.00337207
0.00337407
0.00337474
0.00337415
0.00337241
0.00336962
0.00336588
0.00336129
0.00335597
0.00335003
0.00334358
0.00333673
0.00332959
0.00332225
0.0033148
0.00330734
0.00329991
0.00329258
0.0032854
0.00327845
0.00327125
0.0032628
1.77368e-05
2.81702e-06
-7.50356e-06
-1.51933e-05
-2.12806e-05
-2.5723e-05
-2.85365e-05
-2.9804e-05
-2.95946e-05
-2.79637e-05
-2.49594e-05
-2.06237e-05
-1.49922e-05
-8.0949e-06
4.3084e-08
9.40092e-06
1.99614e-05
3.17107e-05
4.46376e-05
5.87333e-05
7.3991e-05
9.04058e-05
0.000107974
0.000126692
0.00014656
0.000167574
0.000189736
0.000213042
0.000237494
0.00026309
0.000289829
0.00031771
0.00034673
0.000376886
0.000408176
0.000440594
0.000474136
0.000508797
0.000544567
0.00058144
0.000619404
0.00065845
0.000698564
0.000739734
0.000781942
0.000825173
0.000869405
0.00091462
0.000960792
0.0010079
0.00105591
0.0011048
0.00115453
0.00120507
0.00125638
0.00130842
0.00136115
0.00141453
0.00146849
0.001523
0.00157799
0.0016334
0.00168919
0.00174527
0.00180159
0.00185807
0.00191464
0.00197123
0.00202775
0.00208412
0.00214027
0.0021961
0.00225153
0.00230648
0.00236084
0.00241454
0.00246748
0.00251957
0.00257073
0.00262086
0.00266988
0.0027177
0.00276424
0.00280943
0.00285318
0.00289542
0.00293608
0.00297511
0.00301244
0.00304803
0.00308182
0.00311377
0.00314386
0.00317205
0.00319834
0.00322269
0.00324512
0.00326561
0.00328419
0.00330087
0.00331567
0.00332862
0.00333977
0.00334916
0.00335684
0.00336288
0.00336734
0.0033703
0.00337183
0.00337204
0.00337099
0.0033688
0.00336557
0.0033614
0.0033564
0.00335069
0.00334437
0.00333755
0.00333035
0.00332286
0.00331519
0.00330742
0.00329965
0.00329192
0.00328428
0.00327681
0.00326958
0.00326211
0.00325337
8.77811e-06
-6.70962e-06
-1.74351e-05
-2.54372e-05
-3.17824e-05
-3.64284e-05
-3.93948e-05
-4.07716e-05
-4.06351e-05
-3.90472e-05
-3.60618e-05
-3.17261e-05
-2.60802e-05
-1.9158e-05
-1.09878e-05
-1.59283e-06
9.00745e-06
2.07976e-05
3.37653e-05
4.79011e-05
6.31976e-05
7.96495e-05
9.72531e-05
0.000116006
0.000135906
0.000156953
0.000179146
0.000202485
0.00022697
0.0002526
0.000279375
0.000307294
0.000336356
0.000366558
0.000397898
0.000430372
0.000463975
0.000498703
0.000534548
0.000571503
0.000609559
0.000648706
0.000688931
0.000730221
0.000772562
0.000815936
0.000860326
0.00090571
0.000952066
0.00099937
0.0010476
0.00109671
0.00114669
0.00119749
0.00124907
0.00130141
0.00135445
0.00140814
0.00146245
0.0015173
0.00157266
0.00162847
0.00168464
0.00174114
0.00179787
0.00185478
0.00191179
0.00196882
0.00202579
0.00208261
0.00213921
0.0021955
0.00225138
0.00230676
0.00236156
0.00241568
0.00246903
0.00252152
0.00257305
0.00262353
0.00267288
0.00272101
0.00276782
0.00281325
0.0028572
0.00289961
0.00294041
0.00297954
0.00301692
0.00305252
0.00308628
0.00311817
0.00314815
0.00317619
0.00320227
0.00322639
0.00324854
0.00326873
0.00328696
0.00330326
0.00331765
0.00333017
0.00334086
0.00334978
0.00335697
0.0033625
0.00336645
0.00336889
0.00336991
0.00336959
0.00336804
0.00336535
0.00336163
0.00335698
0.00335152
0.00334536
0.00333861
0.00333139
0.00332379
0.00331593
0.00330791
0.0032998
0.0032917
0.00328367
0.00327575
0.00326802
0.00326056
0.00325288
0.00324394
-2.34431e-06
-1.8333e-05
-2.94183e-05
-3.77005e-05
-4.42792e-05
-4.91118e-05
-5.2221e-05
-5.37025e-05
-5.36384e-05
-5.20962e-05
-4.91347e-05
-4.48054e-05
-3.91523e-05
-3.22126e-05
-2.40174e-05
-1.45921e-05
-3.958e-06
7.86806e-06
2.08728e-05
3.5046e-05
5.03798e-05
6.68688e-05
8.45093e-05
0.000103299
0.000123236
0.000144319
0.000166551
0.000189929
0.000214455
0.000240129
0.000266951
0.000294921
0.000324038
0.000354301
0.000385706
0.000418252
0.000451935
0.000486751
0.000522692
0.000559753
0.000597924
0.000637197
0.000677561
0.000719002
0.000761506
0.000805058
0.00084964
0.000895232
0.000941812
0.000989356
0.00103784
0.00108723
0.0011375
0.00118861
0.00124052
0.0012932
0.00134661
0.00140069
0.00145539
0.00151067
0.00156646
0.00162271
0.00167935
0.00173632
0.00179355
0.00185096
0.00190848
0.00196602
0.00202351
0.00208087
0.00213799
0.0021948
0.0022512
0.0023071
0.00236241
0.00241702
0.00247085
0.0025238
0.00257576
0.00262666
0.0026764
0.00272488
0.00277201
0.00281772
0.00286193
0.00290455
0.00294551
0.00298476
0.00302222
0.00305785
0.00309159
0.00312341
0.00315328
0.00318116
0.00320704
0.0032309
0.00325276
0.00327261
0.00329046
0.00330635
0.00332029
0.00333234
0.00334252
0.00335091
0.00335756
0.00336253
0.00336591
0.00336778
0.00336822
0.00336734
0.00336522
0.00336198
0.00335772
0.00335255
0.00334658
0.00333993
0.00333271
0.00332504
0.00331702
0.00330876
0.00330035
0.0032919
0.00328347
0.00327514
0.00326695
0.00325899
0.00325134
0.0032435
0.00323446
-1.56798e-05
-3.21102e-05
-4.35151e-05
-5.2048e-05
-5.88371e-05
-6.38396e-05
-6.70807e-05
-6.86608e-05
-6.86668e-05
-6.71708e-05
-6.4236e-05
-5.99175e-05
-5.42625e-05
-4.7311e-05
-3.90963e-05
-2.96461e-05
-1.89829e-05
-7.12485e-06
5.9139e-06
2.01225e-05
3.54928e-05
5.20192e-05
6.96979e-05
8.85265e-05
0.000108504
0.00012963
0.000151905
0.000175331
0.000199907
0.000225634
0.000252514
0.000280547
0.000309732
0.000340069
0.000371557
0.000404192
0.000437973
0.000472896
0.000508955
0.000546145
0.000584457
0.000623883
0.000664412
0.000706034
0.000748735
0.000792499
0.000837309
0.000883148
0.000929992
0.00097782
0.0010266
0.00107632
0.00112693
0.0011784
0.0012307
0.00128378
0.00133761
0.00139213
0.0014473
0.00150305
0.00155935
0.00161611
0.00167329
0.00173081
0.0017886
0.00184658
0.00190468
0.00196282
0.00202091
0.00207886
0.00213659
0.002194
0.002251
0.00230749
0.00236337
0.00241855
0.00247293
0.0025264
0.00257887
0.00263024
0.00268042
0.00272931
0.00277682
0.00282286
0.00286736
0.00291022
0.00295138
0.00299078
0.00302833
0.00306401
0.00309774
0.0031295
0.00315924
0.00318695
0.00321261
0.00323621
0.00325774
0.00327722
0.00329466
0.00331009
0.00332355
0.00333506
0.0033447
0.00335251
0.00335856
0.00336292
0.00336568
0.00336692
0.00336673
0.00336522
0.00336248
0.00335863
0.00335378
0.00334803
0.00334151
0.00333433
0.0033266
0.00331845
0.00330997
0.00330128
0.00329248
0.00328366
0.0032749
0.00326628
0.00325785
0.00324968
0.00324187
0.00323394
0.00322485
-3.12707e-05
-4.80908e-05
-5.97791e-05
-6.85362e-05
-7.55144e-05
-8.06708e-05
-8.40326e-05
-8.57045e-05
-8.57773e-05
-8.43268e-05
-8.14199e-05
-7.71149e-05
-7.14615e-05
-6.45023e-05
-5.62724e-05
-4.68013e-05
-3.61127e-05
-2.42258e-05
-1.11553e-05
3.08737e-06
1.84937e-05
3.50581e-05
5.27767e-05
7.16473e-05
9.16691e-05
0.000112842
0.000135168
0.000158647
0.000183282
0.000209072
0.000236021
0.000264128
0.000293395
0.000323821
0.000355406
0.000388149
0.000422046
0.000457097
0.000493295
0.000530636
0.000569114
0.000608719
0.000649444
0.000691278
0.000734207
0.000778217
0.000823293
0.000869417
0.000916567
0.000964721
0.00101385
0.00106394
0.00111494
0.00116683
0.00121956
0.0012731
0.00132741
0.00138244
0.00143813
0.00149443
0.00155129
0.00160865
0.00166643
0.00172456
0.00178299
0.00184162
0.00190038
0.00195919
0.00201795
0.00207658
0.00213499
0.00219308
0.00225075
0.00230791
0.00236445
0.00242026
0.00247526
0.00252932
0.00258236
0.00263427
0.00268495
0.00273431
0.00278224
0.00282866
0.00287349
0.00291663
0.00295802
0.00299759
0.00303526
0.00307099
0.00310472
0.00313641
0.00316604
0.00319356
0.00321898
0.00324228
0.00326346
0.00328254
0.00329953
0.00331446
0.00332738
0.00333832
0.00334735
0.00335453
0.00335992
0.00336362
0.00336569
0.00336624
0.00336537
0.00336317
0.00335977
0.00335525
0.00334975
0.00334338
0.00333626
0.0033285
0.00332022
0.00331154
0.00330258
0.00329344
0.00328422
0.00327503
0.00326595
0.00325704
0.00324838
0.00324003
0.0032321
0.00322411
0.00321506
-4.91527e-05
-6.63175e-05
-7.82573e-05
-8.72144e-05
-9.43626e-05
-9.96581e-05
-0.00010313
-0.000104886
-0.000105022
-0.000103615
-0.000100736
-9.64462e-05
-9.07969e-05
-8.38328e-05
-7.55909e-05
-6.61019e-05
-5.53906e-05
-4.3477e-05
-3.03764e-05
-1.61006e-05
-6.5812e-07
1.59451e-05
3.37055e-05
5.26209e-05
7.26909e-05
9.39162e-05
0.000116298
0.000139839
0.00016454
0.000190403
0.00021743
0.000245624
0.000274985
0.000305515
0.000337212
0.000370078
0.000404111
0.000439309
0.000475668
0.000513184
0.000551852
0.000591664
0.000632613
0.000674688
0.000717879
0.000762171
0.00080755
0.000853998
0.000901495
0.000950019
0.000999545
0.00105005
0.00110149
0.00115385
0.00120707
0.00126113
0.00131598
0.00137157
0.00142786
0.00148477
0.00154227
0.00160027
0.00165873
0.00171756
0.00177669
0.00183605
0.00189555
0.0019551
0.00201462
0.00207401
0.00213318
0.00219203
0.00225045
0.00230835
0.00236562
0.00242215
0.00247783
0.00253257
0.00258624
0.00263875
0.00269
0.00273987
0.00278828
0.00283513
0.00288033
0.00292379
0.00296543
0.00300519
0.003043
0.0030788
0.00311253
0.00314416
0.00317365
0.00320098
0.00322614
0.00324911
0.00326991
0.00328855
0.00330505
0.00331944
0.00333176
0.00334208
0.00335045
0.00335693
0.00336161
0.00336457
0.0033659
0.00336571
0.00336409
0.00336115
0.003357
0.00335177
0.00334557
0.00333852
0.00333074
0.00332236
0.0033135
0.00330427
0.00329479
0.00328517
0.00327553
0.00326596
0.00325655
0.00324737
0.00323849
0.00322999
0.00322197
0.00321397
0.003205
-6.93565e-05
-8.68273e-05
-9.89908e-05
-0.000108126
-0.000115427
-0.000120848
-0.00012442
-0.000126255
-0.000126448
-0.000125083
-0.000122232
-0.000117957
-0.000112313
-0.000105346
-9.70941e-05
-8.75894e-05
-7.68574e-05
-6.49187e-05
-5.17891e-05
-3.74805e-05
-2.20018e-05
-5.35867e-06
1.24454e-05
3.14085e-05
5.15306e-05
7.28128e-05
9.5257e-05
0.000118865
0.00014364
0.000169585
0.000196701
0.000224993
0.000254461
0.000285107
0.000316933
0.000349939
0.000384125
0.00041949
0.00045603
0.000493745
0.000532627
0.000572673
0.000613874
0.000656222
0.000699707
0.000744316
0.000790034
0.000836846
0.000884731
0.000933669
0.000983636
0.0010346
0.00108654
0.00113942
0.00119319
0.00124782
0.00130328
0.00135949
0.00141643
0.00147402
0.00153222
0.00159095
0.00165016
0.00170976
0.00176968
0.00182984
0.00189015
0.00195053
0.00201089
0.00207112
0.00213113
0.00219082
0.00225008
0.0023088
0.00236688
0.00242419
0.00248065
0.00253612
0.0025905
0.00264368
0.00269555
0.002746
0.00279494
0.00284226
0.00288787
0.00293169
0.00297362
0.0030136
0.00305156
0.00308743
0.00312117
0.00315273
0.00318208
0.0032092
0.00323407
0.00325669
0.00327707
0.00329523
0.00331119
0.00332498
0.00333667
0.0033463
0.00335394
0.00335967
0.00336357
0.00336574
0.00336626
0.00336526
0.00336282