/*--------------------------------*- C++ -*----------------------------------*\
| =========                 |                                                 |
| \\      /  F ield         | OpenFOAM: The Open Source CFD Toolbox           |
|  \\    /   O peration     | Version:  2112                                  |
|   \\  /    A nd           | Website:  www.openfoam.com                      |
|    \\/     M anipulation  |                                                 |
\*---------------------------------------------------------------------------*/
FoamFile
{
    version     2.0;
    format      ascii;
    arch        "LSB;label=32;scalar=64";
    class       surfaceScalarField;
    location    "4";
    object      phi;
}
// * * * * * * * * * * * * * * * * * * * * * * * * * * * * * * * * * * * * * //

dimensions      [0 3 -1 0 0 0 0];

oriented        oriented;

internalField   nonuniform List<scalar> 
33024
(
3.41015e-09
-3.4095e-09
5.18983e-09
-1.77971e-09
2.22529e-09
2.96446e-09
-6.04091e-09
8.26625e-09
-1.93919e-08
1.3351e-08
-3.72541e-08
1.78622e-08
-5.89627e-08
2.17085e-08
-8.38761e-08
2.49134e-08
-1.11417e-07
2.75405e-08
-1.41081e-07
2.96644e-08
-1.72439e-07
3.13579e-08
-2.05126e-07
3.26872e-08
-2.38838e-07
3.37119e-08
-2.73322e-07
3.44838e-08
-3.0837e-07
3.50481e-08
-3.43813e-07
3.54428e-08
-3.79513e-07
3.56999e-08
-4.15359e-07
3.58461e-08
-4.51263e-07
3.59038e-08
-4.87154e-07
3.58912e-08
-5.22977e-07
3.58232e-08
-5.58689e-07
3.57117e-08
-5.94254e-07
3.55656e-08
-6.29646e-07
3.53919e-08
-6.64842e-07
3.51959e-08
-6.99823e-07
3.49813e-08
-7.34574e-07
3.47506e-08
-7.69079e-07
3.45051e-08
-8.03325e-07
3.42455e-08
-8.37297e-07
3.39717e-08
-8.7098e-07
3.36832e-08
-9.04359e-07
3.33791e-08
-9.37417e-07
3.30581e-08
-9.70136e-07
3.27189e-08
-1.0025e-06
3.23599e-08
-1.03448e-06
3.19796e-08
-1.06605e-06
3.15762e-08
-1.0972e-06
3.1148e-08
-1.12789e-06
3.06935e-08
-1.1581e-06
3.02109e-08
-1.1878e-06
2.96985e-08
-1.21696e-06
2.91549e-08
-1.24554e-06
2.85782e-08
-1.2735e-06
2.79671e-08
-1.30082e-06
2.732e-08
-1.32746e-06
2.66355e-08
-1.35337e-06
2.59123e-08
-1.37852e-06
2.51491e-08
-1.40286e-06
2.43446e-08
-1.42636e-06
2.34979e-08
-1.44897e-06
2.26078e-08
-1.47064e-06
2.16734e-08
-1.49134e-06
2.0694e-08
-1.51101e-06
1.96689e-08
-1.5296e-06
1.85976e-08
-1.54708e-06
1.748e-08
-1.5634e-06
1.63156e-08
-1.5785e-06
1.51046e-08
-1.59235e-06
1.38471e-08
-1.6049e-06
1.25436e-08
-1.61609e-06
1.11948e-08
-1.62589e-06
9.80145e-09
-1.63426e-06
8.36482e-09
-1.64114e-06
6.88624e-09
-1.64651e-06
5.3674e-09
-1.65032e-06
3.81021e-09
-1.65254e-06
2.21679e-09
-1.65313e-06
5.89716e-10
-1.65206e-06
-1.06862e-09
-1.6493e-06
-2.75457e-09
-1.64484e-06
-4.46517e-09
-1.63864e-06
-6.19685e-09
-1.6307e-06
-7.94589e-09
-1.62099e-06
-9.70822e-09
-1.60951e-06
-1.14795e-08
-1.59625e-06
-1.32553e-08
-1.58122e-06
-1.50309e-08
-1.56442e-06
-1.68017e-08
-1.54586e-06
-1.85625e-08
-1.52555e-06
-2.03085e-08
-1.50352e-06
-2.20344e-08
-1.47978e-06
-2.37352e-08
-1.45437e-06
-2.54058e-08
-1.42733e-06
-2.70409e-08
-1.3987e-06
-2.86356e-08
-1.36851e-06
-3.01847e-08
-1.33683e-06
-3.16836e-08
-1.3037e-06
-3.31276e-08
-1.26919e-06
-3.4512e-08
-1.23336e-06
-3.58324e-08
-1.19627e-06
-3.70848e-08
-1.15801e-06
-3.8265e-08
-1.11864e-06
-3.93694e-08
-1.07825e-06
-4.0394e-08
-1.03691e-06
-4.13355e-08
-9.94719e-07
-4.21903e-08
-9.51764e-07
-4.29553e-08
-9.08137e-07
-4.3627e-08
-8.63935e-07
-4.42019e-08
-8.19259e-07
-4.46763e-08
-7.74212e-07
-4.50465e-08
-7.28903e-07
-4.53084e-08
-6.83446e-07
-4.54574e-08
-6.37958e-07
-4.54881e-08
-5.92563e-07
-4.53949e-08
-5.47392e-07
-4.51713e-08
-5.02581e-07
-4.481e-08
-4.58279e-07
-4.43025e-08
-4.1464e-07
-4.36392e-08
-3.71831e-07
-4.28094e-08
-3.30029e-07
-4.18015e-08
-2.89426e-07
-4.06026e-08
-2.50227e-07
-3.91984e-08
-2.12654e-07
-3.75735e-08
-1.76943e-07
-3.57113e-08
-1.43347e-07
-3.35952e-08
-1.12139e-07
-3.12083e-08
-8.36043e-08
-2.85344e-08
-5.80447e-08
-2.55595e-08
-3.57701e-08
-2.22744e-08
-1.7092e-08
-1.8678e-08
-2.30742e-09
-1.47845e-08
8.33196e-09
-1.06394e-08
1.46576e-08
-6.32575e-09
1.66616e-08
-2.00395e-09
1.46731e-08
1.98848e-09
9.61882e-09
5.05382e-09
3.50464e-09
6.11302e-09
3.50351e-09
1.79998e-09
-5.20953e-09
-2.96424e-09
2.98434e-09
-1.83616e-08
1.83616e-08
-4.57981e-08
3.57026e-08
-8.50905e-08
5.26435e-08
-1.35316e-07
6.80877e-08
-1.95218e-07
8.16102e-08
-2.6345e-07
9.31454e-08
-3.38708e-07
1.02799e-07
-4.19795e-07
1.10751e-07
-5.0564e-07
1.17203e-07
-5.95312e-07
1.22359e-07
-6.88008e-07
1.26408e-07
-7.83047e-07
1.29523e-07
-8.79856e-07
1.31857e-07
-9.77958e-07
1.33544e-07
-1.07696e-06
1.34698e-07
-1.17653e-06
1.35416e-07
-1.2764e-06
1.35781e-07
-1.37637e-06
1.35861e-07
-1.47626e-06
1.35711e-07
-1.57592e-06
1.35377e-07
-1.67525e-06
1.34894e-07
-1.77415e-06
1.34292e-07
-1.87255e-06
1.3359e-07
-1.97037e-06
1.32805e-07
-2.06757e-06
1.31947e-07
-2.16409e-06
1.31023e-07
-2.25988e-06
1.30037e-07
-2.35489e-06
1.28989e-07
-2.44909e-06
1.2788e-07
-2.54242e-06
1.26706e-07
-2.63482e-06
1.25464e-07
-2.72625e-06
1.2415e-07
-2.81665e-06
1.22758e-07
-2.90596e-06
1.21283e-07
-2.9941e-06
1.1972e-07
-3.08101e-06
1.18062e-07
-3.16662e-06
1.16304e-07
-3.25085e-06
1.14439e-07
-3.33361e-06
1.12462e-07
-3.41483e-06
1.10367e-07
-3.4944e-06
1.08149e-07
-3.57223e-06
1.05801e-07
-3.64823e-06
1.03319e-07
-3.72229e-06
1.00698e-07
-3.79431e-06
9.79319e-08
-3.86418e-06
9.50172e-08
-3.93179e-06
9.19493e-08
-3.99701e-06
8.87243e-08
-4.05974e-06
8.53387e-08
-4.11986e-06
8.17894e-08
-4.17724e-06
7.80736e-08
-4.23176e-06
7.41891e-08
-4.2833e-06
7.01342e-08
-4.33173e-06
6.59081e-08
-4.37692e-06
6.15101e-08
-4.41876e-06
5.69406e-08
-4.45711e-06
5.22004e-08
-4.49186e-06
4.72913e-08
-4.52288e-06
4.22159e-08
-4.55005e-06
3.69776e-08
-4.57327e-06
3.15807e-08
-4.59241e-06
2.60304e-08
-4.60738e-06
2.03328e-08
-4.61807e-06
1.44952e-08
-4.62437e-06
8.52558e-09
-4.62622e-06
2.43306e-09
-4.62351e-06
-3.77213e-09
-4.61619e-06
-1.00792e-08
-4.60418e-06
-1.64759e-08
-4.58743e-06
-2.29491e-08
-4.56589e-06
-2.94853e-08
-4.53953e-06
-3.60696e-08
-4.50832e-06
-4.26866e-08
-4.47225e-06
-4.932e-08
-4.43133e-06
-5.5953e-08
-4.38557e-06
-6.25682e-08
-4.33498e-06
-6.91478e-08
-4.27962e-06
-7.56735e-08
-4.21952e-06
-8.21269e-08
-4.15477e-06
-8.84892e-08
-4.08543e-06
-9.4742e-08
-4.01161e-06
-1.00867e-07
-3.9334e-06
-1.06845e-07
-3.85092e-06
-1.12659e-07
-3.76432e-06
-1.18291e-07
-3.67372e-06
-1.23724e-07
-3.57929e-06
-1.28941e-07
-3.4812e-06
-1.33926e-07
-3.37962e-06
-1.38663e-07
-3.27475e-06
-1.43138e-07
-3.16678e-06
-1.47337e-07
-3.05593e-06
-1.51246e-07
-2.94241e-06
-1.5485e-07
-2.82647e-06
-1.58138e-07
-2.70833e-06
-1.61095e-07
-2.58824e-06
-1.6371e-07
-2.46648e-06
-1.65968e-07
-2.3433e-06
-1.67854e-07
-2.21899e-06
-1.69355e-07
-2.09384e-06
-1.70453e-07
-1.96817e-06
-1.71129e-07
-1.8423e-06
-1.71365e-07
-1.71656e-06
-1.71136e-07
-1.59131e-06
-1.70418e-07
-1.46694e-06
-1.69181e-07
-1.34384e-06
-1.67395e-07
-1.22246e-06
-1.65022e-07
-1.10325e-06
-1.62023e-07
-9.86694e-07
-1.58354e-07
-8.73329e-07
-1.53968e-07
-7.63716e-07
-1.48812e-07
-6.58457e-07
-1.42832e-07
-5.58194e-07
-1.35974e-07
-4.63609e-07
-1.2818e-07
-3.7542e-07
-1.19397e-07
-2.94374e-07
-1.0958e-07
-2.21237e-07
-9.86967e-08
-1.56773e-07
-8.67383e-08
-1.01715e-07
-7.37359e-08
-5.67145e-08
-5.97846e-08
-2.22733e-08
-4.50804e-08
1.38201e-09
-2.99811e-08
1.45212e-08
-1.51433e-08
1.80669e-08
-1.55671e-09
1.40558e-08
9.06655e-09
6.0778e-09
1.40934e-08
9.58066e-09
-2.96083e-09
-2.24877e-09
-1.84469e-08
1.84705e-08
-4.98382e-08
4.97527e-08
-9.82264e-08
8.40907e-08
-1.63338e-07
1.17755e-07
-2.44051e-07
1.48801e-07
-3.38798e-07
1.76357e-07
-4.45836e-07
2.00183e-07
-5.63416e-07
2.2038e-07
-6.89883e-07
2.37217e-07
-8.2372e-07
2.5104e-07
-9.63575e-07
2.62214e-07
-1.10826e-06
2.71096e-07
-1.25676e-06
2.7802e-07
-1.40819e-06
2.83287e-07
-1.56181e-06
2.87166e-07
-1.717e-06
2.89889e-07
-1.87325e-06
2.91659e-07
-2.03011e-06
2.92647e-07
-2.18725e-06
2.92995e-07
-2.34436e-06
2.92824e-07
-2.50121e-06
2.92231e-07
-2.65761e-06
2.91294e-07
-2.81339e-06
2.90074e-07
-2.96842e-06
2.88619e-07
-3.12258e-06
2.86965e-07
-3.27577e-06
2.85137e-07
-3.4279e-06
2.83151e-07
-3.57888e-06
2.81017e-07
-3.72863e-06
2.7874e-07
-3.87707e-06
2.76319e-07
-4.02412e-06
2.7375e-07
-4.16968e-06
2.71028e-07
-4.31368e-06
2.68145e-07
-4.45601e-06
2.65089e-07
-4.59658e-06
2.61852e-07
-4.73528e-06
2.58421e-07
-4.872e-06
2.54784e-07
-5.00663e-06
2.50929e-07
-5.13903e-06
2.46845e-07
-5.26909e-06
2.42519e-07
-5.39666e-06
2.3794e-07
-5.52161e-06
2.33095e-07
-5.64378e-06
2.27974e-07
-5.76303e-06
2.22565e-07
-5.87919e-06
2.16858e-07
-5.9921e-06
2.10844e-07
-6.10159e-06
2.04512e-07
-6.2075e-06
1.97854e-07
-6.30964e-06
1.90863e-07
-6.40783e-06
1.8353e-07
-6.50189e-06
1.75849e-07
-6.59163e-06
1.67816e-07
-6.67687e-06
1.59425e-07
-6.75741e-06
1.50674e-07
-6.83306e-06
1.41561e-07
-6.90363e-06
1.32084e-07
-6.96894e-06
1.22246e-07
-7.02879e-06
1.12047e-07
-7.08299e-06
1.01493e-07
-7.13136e-06
9.05885e-08
-7.17373e-06
7.93412e-08
-7.20991e-06
6.77606e-08
-7.23973e-06
5.58576e-08
-7.26305e-06
4.36457e-08
-7.27969e-06
3.114e-08
-7.28952e-06
1.83578e-08
-7.29241e-06
5.31845e-09
-7.28822e-06
-7.9566e-09
-7.27686e-06
-2.14443e-08
-7.25822e-06
-3.51191e-08
-7.23221e-06
-4.89537e-08
-7.19878e-06
-6.29189e-08
-7.15786e-06
-7.6984e-08
-7.10943e-06
-9.11166e-08
-7.05347e-06
-1.05283e-07
-6.98998e-06
-1.19447e-07
-6.91897e-06
-1.33573e-07
-6.8405e-06
-1.47624e-07
-6.75461e-06
-1.61561e-07
-6.66139e-06
-1.75346e-07
-6.56094e-06
-1.88941e-07
-6.45337e-06
-2.02305e-07
-6.33884e-06
-2.15402e-07
-6.21749e-06
-2.28192e-07
-6.08951e-06
-2.40638e-07
-5.9551e-06
-2.52702e-07
-5.81448e-06
-2.6435e-07
-5.66787e-06
-2.75545e-07
-5.51555e-06
-2.86254e-07
-5.35776e-06
-2.96445e-07
-5.19482e-06
-3.06086e-07
-5.02701e-06
-3.15146e-07
-4.85466e-06
-3.23597e-07
-4.6781e-06
-3.31408e-07
-4.49768e-06
-3.38552e-07
-4.31378e-06
-3.45e-07
-4.12676e-06
-3.50724e-07
-3.93704e-06
-3.55692e-07
-3.74502e-06
-3.59875e-07
-3.55113e-06
-3.63238e-07
-3.35584e-06
-3.65745e-07
-3.15962e-06
-3.67355e-07
-2.96296e-06
-3.68025e-07
-2.76639e-06
-3.67704e-07
-2.57047e-06
-3.66337e-07
-2.37579e-06
-3.63861e-07
-2.18298e-06
-3.60208e-07
-1.9927e-06
-3.553e-07
-1.80567e-06
-3.49053e-07
-1.62265e-06
-3.41375e-07
-1.44445e-06
-3.32165e-07
-1.27194e-06
-3.21319e-07
-1.10605e-06
-3.08726e-07
-9.47748e-07
-2.94275e-07
-7.98068e-07
-2.77859e-07
-6.58085e-07
-2.5938e-07
-5.28903e-07
-2.38762e-07
-4.11637e-07
-2.15963e-07
-3.07376e-07
-1.90998e-07
-2.17138e-07
-1.63974e-07
-1.41789e-07
-1.35134e-07
-8.19418e-08
-1.04927e-07
-3.78007e-08
-7.41222e-08
-8.98778e-09
-4.39568e-08
5.80663e-09
-1.63523e-08
9.10354e-09
5.76887e-09
5.00823e-09
1.81898e-08
1.45887e-08
-8.37422e-09
6.12524e-09
-3.62192e-08
4.63153e-08
-8.5044e-08
9.85774e-08
-1.55133e-07
1.54179e-07
-2.45773e-07
2.08395e-07
-3.55558e-07
2.58586e-07
-4.8267e-07
3.03469e-07
-6.25104e-07
3.42617e-07
-7.80826e-07
3.76102e-07
-9.47878e-07
4.04269e-07
-1.12444e-06
4.27601e-07
-1.30886e-06
4.46634e-07
-1.49967e-06
4.61905e-07
-1.69558e-06
4.7393e-07
-1.89548e-06
4.83183e-07
-2.0984e-06
4.90092e-07
-2.30354e-06
4.95032e-07
-2.51022e-06
4.98334e-07
-2.71785e-06
5.00278e-07
-2.92596e-06
5.01104e-07
-3.13415e-06
5.01013e-07
-3.34208e-06
5.00168e-07
-3.54949e-06
4.98704e-07
-3.75615e-06
4.96726e-07
-3.96184e-06
4.94318e-07
-4.16642e-06
4.91541e-07
-4.36973e-06
4.88443e-07
-4.57163e-06
4.85053e-07
-4.772e-06
4.8139e-07
-4.97073e-06
4.77466e-07
-5.16769e-06
4.73281e-07
-5.36277e-06
4.68832e-07
-5.55585e-06
4.6411e-07
-5.74681e-06
4.59102e-07
-5.93552e-06
4.53794e-07
-6.12183e-06
4.48169e-07
-6.30562e-06
4.42208e-07
-6.48673e-06
4.35892e-07
-6.665e-06
4.29202e-07
-6.84027e-06
4.22119e-07
-7.01238e-06
4.14622e-07
-7.18113e-06
4.06693e-07
-7.34635e-06
3.98311e-07
-7.50783e-06
3.8946e-07
-7.66539e-06
3.8012e-07
-7.8188e-06
3.70274e-07
-7.96787e-06
3.59907e-07
-8.11236e-06
3.49002e-07
-8.25205e-06
3.37547e-07
-8.38671e-06
3.25527e-07
-8.51612e-06
3.12931e-07
-8.64001e-06
2.99748e-07
-8.75817e-06
2.85971e-07
-8.87034e-06
2.71593e-07
-8.97627e-06
2.56607e-07
-9.07572e-06
2.41013e-07
-9.16845e-06
2.24809e-07
-9.2542e-06
2.07997e-07
-9.33273e-06
1.90581e-07
-9.40381e-06
1.72569e-07
-9.46719e-06
1.53971e-07
-9.52265e-06
1.348e-07
-9.56996e-06
1.15071e-07
-9.60891e-06
9.48038e-08
-9.63928e-06
7.40212e-08
-9.66089e-06
5.27489e-08
-9.67355e-06
3.1016e-08
-9.67709e-06
8.85541e-09
-9.67135e-06
-1.36971e-08
-9.65619e-06
-3.66022e-08
-9.63149e-06
-5.98172e-08
-9.59715e-06
-8.32966e-08
-9.55308e-06
-1.06991e-07
-9.49921e-06
-1.3085e-07
-9.43551e-06
-1.54818e-07
-9.36195e-06
-1.7884e-07
-9.27854e-06
-2.02856e-07
-9.18531e-06
-2.26805e-07
-9.08231e-06
-2.50626e-07
-8.96961e-06
-2.74255e-07
-8.84733e-06
-2.97629e-07
-8.71559e-06
-3.20682e-07
-8.57455e-06
-3.4335e-07
-8.42438e-06
-3.65569e-07
-8.2653e-06
-3.87275e-07
-8.09753e-06
-4.08405e-07
-7.92133e-06
-4.28898e-07
-7.73699e-06
-4.48694e-07
-7.5448e-06
-4.67734e-07
-7.34509e-06
-4.85963e-07
-7.13821e-06
-5.03324e-07
-6.92453e-06
-5.19766e-07
-6.70444e-06
-5.35237e-07
-6.47835e-06
-5.49686e-07
-6.2467e-06
-5.63064e-07
-6.00993e-06
-5.75324e-07
-5.76851e-06
-5.86415e-07
-5.52294e-06
-5.96289e-07
-5.27374e-06
-6.04894e-07
-5.02144e-06
-6.12174e-07
-4.76661e-06
-6.18073e-07
-4.50983e-06
-6.22527e-07
-4.25171e-06
-6.25466e-07
-3.99293e-06
-6.26814e-07
-3.73414e-06
-6.26485e-07
-3.4761e-06
-6.24384e-07
-3.21955e-06
-6.20406e-07
-2.96533e-06
-6.14432e-07
-2.7143e-06
-6.06333e-07
-2.46738e-06
-5.95968e-07
-2.22557e-06
-5.83183e-07
-1.98992e-06
-5.67814e-07
-1.76155e-06
-5.4969e-07
-1.54164e-06
-5.28633e-07
-1.33145e-06
-5.04469e-07
-1.13227e-06
-4.77034e-07
-9.45467e-07
-4.46185e-07
-7.72408e-07
-4.11821e-07
-6.14466e-07
-3.73905e-07
-4.72962e-07
-3.32502e-07
-3.49105e-07
-2.87831e-07
-2.43904e-07
-2.40335e-07
-1.5805e-07
-1.90781e-07
-9.17629e-08
-1.40409e-07
-4.45961e-08
-9.1123e-08
-1.51863e-08
-4.5762e-08
-9.89048e-10
-8.42917e-09
2.05585e-09
1.51452e-08
1.66445e-08
-1.37003e-08
1.98253e-08
-5.40228e-08
8.66376e-08
-1.20445e-07
1.65e-07
-2.12082e-07
2.45816e-07
-3.27538e-07
3.23851e-07
-4.64992e-07
3.9604e-07
-6.22343e-07
4.6082e-07
-7.97361e-07
5.17634e-07
-9.87797e-07
5.66538e-07
-1.19148e-06
6.07957e-07
-1.40639e-06
6.42507e-07
-1.63065e-06
6.70895e-07
-1.86259e-06
6.93848e-07
-2.10073e-06
7.12069e-07
-2.34377e-06
7.26219e-07
-2.59057e-06
7.36897e-07
-2.84018e-06
7.44639e-07
-3.09176e-06
7.49917e-07
-3.34463e-06
7.5314e-07
-3.59818e-06
7.54656e-07
-3.85192e-06
7.54759e-07
-4.10545e-06
7.53692e-07
-4.3584e-06
7.51656e-07
-4.61048e-06
7.4881e-07
-4.86145e-06
7.4528e-07
-5.11107e-06
7.41163e-07
-5.35915e-06
7.36528e-07
-5.60553e-06
7.31427e-07
-5.85003e-06
7.2589e-07
-6.0925e-06
7.19936e-07
-6.33279e-06
7.13571e-07
-6.57074e-06
7.0679e-07
-6.80622e-06
6.99583e-07
-7.03905e-06
6.91935e-07
-7.26908e-06
6.83824e-07
-7.49614e-06
6.75227e-07
-7.72005e-06
6.66119e-07
-7.94063e-06
6.56473e-07
-8.15769e-06
6.4626e-07
-8.37102e-06
6.35453e-07
-8.58042e-06
6.24022e-07
-8.78567e-06
6.11941e-07
-8.98654e-06
5.99182e-07
-9.1828e-06
5.85717e-07
-9.3742e-06
5.71521e-07
-9.5605e-06
5.56569e-07
-9.74143e-06
5.40837e-07
-9.91673e-06
5.24304e-07
-1.00861e-05
5.06949e-07
-1.02494e-05
4.88753e-07
-1.04061e-05
4.69699e-07
-1.05562e-05
4.49774e-07
-1.06991e-05
4.28964e-07
-1.08348e-05
4.07261e-07
-1.09629e-05
3.84658e-07
-1.1083e-05
3.61152e-07
-1.11949e-05
3.36742e-07
-1.12984e-05
3.11433e-07
-1.1393e-05
2.85231e-07
-1.14786e-05
2.58148e-07
-1.15548e-05
2.30199e-07
-1.16214e-05
2.01403e-07
-1.16781e-05
1.71787e-07
-1.17247e-05
1.41377e-07
-1.17609e-05
1.10209e-07
-1.17865e-05
7.83209e-08
-1.18012e-05
4.57566e-08
-1.18049e-05
1.25648e-08
-1.17974e-05
-2.1201e-08
-1.17785e-05
-5.54823e-08
-1.17481e-05
-9.0216e-08
-1.17061e-05
-1.25334e-07
-1.16523e-05
-1.60765e-07
-1.15868e-05
-1.96432e-07
-1.15093e-05
-2.32255e-07
-1.142e-05
-2.68151e-07
-1.13188e-05
-3.04033e-07
-1.12058e-05
-3.39812e-07
-1.10811e-05
-3.75396e-07
-1.09446e-05
-4.10692e-07
-1.07966e-05
-4.45607e-07
-1.06373e-05
-4.80045e-07
-1.04667e-05
-5.13911e-07
-1.02852e-05
-5.47111e-07
-1.00929e-05
-5.79551e-07
-9.89016e-06
-6.1114e-07
-9.67727e-06
-6.41786e-07
-9.45457e-06
-6.71401e-07
-9.2224e-06
-6.99899e-07
-8.98117e-06
-7.27198e-07
-8.73128e-06
-7.53215e-07
-8.47317e-06
-7.77872e-07
-8.20731e-06
-8.01094e-07
-7.93419e-06
-8.22804e-07
-7.65433e-06
-8.42931e-07
-7.36825e-06
-8.614e-07
-7.07653e-06
-8.78139e-07
-6.77974e-06
-8.93073e-07
-6.47852e-06
-9.06122e-07
-6.17348e-06
-9.17206e-07
-5.86532e-06
-9.26235e-07
-5.55473e-06
-9.33116e-07
-5.24246e-06
-9.37741e-07
-4.92927e-06
-9.39997e-07
-4.61601e-06
-9.39754e-07
-4.30352e-06
-9.36871e-07
-3.99273e-06
-9.31189e-07
-3.68463e-06
-9.22535e-07
-3.38025e-06
-9.10717e-07
-3.08069e-06
-8.95527e-07
-2.78713e-06
-8.76741e-07
-2.50082e-06
-8.54124e-07
-2.22308e-06
-8.27429e-07
-1.95531e-06
-7.96406e-07
-1.69896e-06
-7.60815e-07
-1.45556e-06
-7.20432e-07
-1.22668e-06
-6.75074e-07
-1.01387e-06
-6.24623e-07
-8.18716e-07
-5.69062e-07
-6.4269e-07
-5.08529e-07
-4.87141e-07
-4.4338e-07
-3.53186e-07
-3.7429e-07
-2.41593e-07
-3.02374e-07
-1.52642e-07
-2.2936e-07
-8.59525e-08
-1.57812e-07
-4.02886e-08
-9.14255e-08
-1.33645e-08
-3.53537e-08
-1.62173e-09
3.40244e-09
1.50229e-08
-1.85947e-08
3.84199e-08
-7.08042e-08
1.38847e-07
-1.54179e-07
2.48374e-07
-2.66554e-07
3.58192e-07
-4.05714e-07
4.6301e-07
-5.69314e-07
5.5964e-07
-7.54915e-07
6.46421e-07
-9.60042e-07
7.2276e-07
-1.18226e-06
7.88754e-07
-1.41923e-06
8.44926e-07
-1.66876e-06
8.92039e-07
-1.92884e-06
9.30975e-07
-2.19764e-06
9.6265e-07
-2.47354e-06
9.87964e-07
-2.75509e-06
1.00777e-06
-3.04103e-06
1.02284e-06
-3.33028e-06
1.03389e-06
-3.62189e-06
1.04153e-06
-3.91507e-06
1.04632e-06
-4.20913e-06
1.04872e-06
-4.5035e-06
1.04913e-06
-4.79768e-06
1.04787e-06
-5.09125e-06
1.04523e-06
-5.38387e-06
1.04143e-06
-5.67522e-06
1.03663e-06
-5.96503e-06
1.03098e-06
-6.25307e-06
1.02457e-06
-6.53912e-06
1.01748e-06
-6.82298e-06
1.00975e-06
-7.10446e-06
1.00141e-06
-7.38337e-06
9.92483e-07
-7.65954e-06
9.82953e-07
-7.93277e-06
9.72813e-07
-8.20288e-06
9.62043e-07
-8.46967e-06
9.50618e-07
-8.73295e-06
9.38508e-07
-8.99251e-06
9.25678e-07
-9.24813e-06
9.12094e-07
-9.49959e-06
8.97719e-07
-9.74666e-06
8.82515e-07
-9.98908e-06
8.66445e-07
-1.02266e-05
8.49471e-07
-1.0459e-05
8.31557e-07
-1.06859e-05
8.12666e-07
-1.09072e-05
7.92764e-07
-1.11224e-05
7.71818e-07
-1.13314e-05
7.49796e-07
-1.15337e-05
7.26669e-07
-1.17292e-05
7.02409e-07
-1.19174e-05
6.76993e-07
-1.20981e-05
6.50397e-07
-1.2271e-05
6.22603e-07
-1.24356e-05
5.93595e-07
-1.25917e-05
5.63362e-07
-1.27389e-05
5.31895e-07
-1.2877e-05
4.99191e-07
-1.30055e-05
4.6525e-07
-1.31241e-05
4.30078e-07
-1.32326e-05
3.93687e-07
-1.33305e-05
3.56091e-07
-1.34177e-05
3.17315e-07
-1.34936e-05
2.77384e-07
-1.35582e-05
2.36335e-07
-1.3611e-05
1.94207e-07
-1.36518e-05
1.51047e-07
-1.36804e-05
1.0691e-07
-1.36965e-05
6.1855e-08
-1.36999e-05
1.595e-08
-1.36904e-05
-3.07315e-08
-1.36678e-05
-7.81091e-08
-1.36319e-05
-1.26096e-07
-1.35826e-05
-1.746e-07
-1.35199e-05
-2.23521e-07
-1.34435e-05
-2.72756e-07
-1.33536e-05
-3.22195e-07
-1.325e-05
-3.71723e-07
-1.31328e-05
-4.21224e-07
-1.30021e-05
-4.70575e-07
-1.28578e-05
-5.19652e-07
-1.27002e-05
-5.68328e-07
-1.25293e-05
-6.16475e-07
-1.23454e-05
-6.63964e-07
-1.21486e-05
-7.10666e-07
-1.19393e-05
-7.56453e-07
-1.17177e-05
-8.01196e-07
-1.1484e-05
-8.44771e-07
-1.12388e-05
-8.87055e-07
-1.09822e-05
-9.27927e-07
-1.07149e-05
-9.6727e-07
-1.04371e-05
-1.00497e-06
-1.01494e-05
-1.04092e-06
-9.85224e-06
-1.07501e-06
-9.54621e-06
-1.10713e-06
-9.23183e-06
-1.13718e-06
-8.9097e-06
-1.16507e-06
-8.58041e-06
-1.19068e-06
-8.24463e-06
-1.21393e-06
-7.903e-06
-1.2347e-06
-7.55625e-06
-1.25288e-06
-7.20508e-06
-1.26837e-06
-6.85028e-06
-1.28104e-06
-6.49265e-06
-1.29075e-06
-6.13302e-06
-1.29737e-06
-5.77229e-06
-1.30073e-06
-5.41139e-06
-1.30065e-06
-5.05131e-06
-1.29695e-06
-4.69309e-06
-1.2894e-06
-4.33786e-06
-1.27777e-06
-3.98678e-06
-1.2618e-06
-3.6411e-06
-1.2412e-06
-3.30216e-06
-1.21568e-06
-2.97136e-06
-1.18493e-06
-2.65018e-06
-1.14861e-06
-2.34017e-06
-1.10641e-06
-2.04297e-06
-1.05801e-06
-1.76026e-06
-1.00314e-06
-1.49376e-06
-9.41579e-07
-1.24518e-06
-8.73196e-07
-1.01624e-06
-7.98008e-07
-8.08528e-07
-7.16238e-07
-6.2351e-07
-6.28398e-07
-4.62396e-07
-5.35404e-07
-3.2605e-07
-4.3872e-07
-2.14865e-07
-3.40545e-07
-1.28623e-07
-2.44054e-07
-6.63573e-08
-1.53691e-07
-2.62197e-08
-7.54913e-08
-5.38777e-09
-1.74295e-08
9.63519e-09
-2.29629e-08
6.13827e-08
-8.61324e-08
2.02016e-07
-1.85363e-07
3.47605e-07
-3.17248e-07
4.90077e-07
-4.78701e-07
6.24463e-07
-6.66793e-07
7.47732e-07
-8.78689e-07
8.58317e-07
-1.11164e-06
9.55715e-07
-1.36303e-06
1.04014e-06
-1.63035e-06
1.11225e-06
-1.91128e-06
1.17297e-06
-2.2037e-06
1.22339e-06
-2.50565e-06
1.26461e-06
-2.81542e-06
1.29773e-06
-3.13144e-06
1.32379e-06
-3.45236e-06
1.34376e-06
-3.77701e-06
1.35853e-06
-4.10434e-06
1.36886e-06
-4.43348e-06
1.37546e-06
-4.76366e-06
1.3789e-06
-5.09424e-06
1.37971e-06
-5.42467e-06
1.3783e-06
-5.75446e-06
1.37502e-06
-6.08321e-06
1.37017e-06
-6.41056e-06
1.36398e-06
-6.73619e-06
1.35662e-06
-7.05984e-06
1.34822e-06
-7.38125e-06
1.33888e-06
-7.70017e-06
1.32867e-06
-8.01639e-06
1.31763e-06
-8.32968e-06
1.30578e-06
-8.63984e-06
1.29311e-06
-8.94666e-06
1.27963e-06
-9.2499e-06
1.26529e-06
-9.54936e-06
1.25008e-06
-9.8448e-06
1.23395e-06
-1.0136e-05
1.21686e-06
-1.04227e-05
1.19878e-06
-1.07046e-05
1.17965e-06
-1.09815e-05
1.15943e-06
-1.12531e-05
1.13807e-06
-1.15192e-05
1.11552e-06
-1.17794e-05
1.09173e-06
-1.20334e-05
1.06667e-06
-1.22809e-05
1.04028e-06
-1.25216e-05
1.01253e-06
-1.27552e-05
9.83369e-07
-1.29813e-05
9.52767e-07
-1.31995e-05
9.20688e-07
-1.34097e-05
8.87101e-07
-1.36112e-05
8.51979e-07
-1.38039e-05
8.15297e-07
-1.39874e-05
7.77037e-07
-1.41612e-05
7.37185e-07
-1.4325e-05
6.9573e-07
-1.44785e-05
6.5267e-07
-1.46213e-05
6.08006e-07
-1.47529e-05
5.61748e-07
-1.48732e-05
5.1391e-07
-1.49816e-05
4.64515e-07
-1.50779e-05
4.13593e-07
-1.51617e-05
3.61181e-07
-1.52327e-05
3.07324e-07
-1.52905e-05
2.52076e-07
-1.5335e-05
1.955e-07
-1.53657e-05
1.37666e-07
-1.53825e-05
7.86525e-08
-1.53851e-05
1.8548e-08
-1.53733e-05
-4.25513e-08
-1.53469e-05
-1.04541e-07
-1.53057e-05
-1.67308e-07
-1.52495e-05
-2.30731e-07
-1.51784e-05
-2.94682e-07
-1.50921e-05
-3.59027e-07
-1.49907e-05
-4.23622e-07
-1.48741e-05
-4.88321e-07
-1.47423e-05
-5.52971e-07
-1.45955e-05
-6.17414e-07
-1.44337e-05
-6.81489e-07
-1.42569e-05
-7.45034e-07
-1.40655e-05
-8.07882e-07
-1.38596e-05
-8.69866e-07
-1.36395e-05
-9.30821e-07
-1.34054e-05
-9.90581e-07
-1.31576e-05
-1.04898e-06
-1.28965e-05
-1.10586e-06
-1.26225e-05
-1.16106e-06
-1.2336e-05
-1.21442e-06
-1.20375e-05
-1.2658e-06
-1.17274e-05
-1.31504e-06
-1.14063e-05
-1.36201e-06
-1.10747e-05
-1.40656e-06
-1.07333e-05
-1.44856e-06
-1.03826e-05
-1.48787e-06
-1.00233e-05
-1.52437e-06
-9.65607e-06
-1.55792e-06
-9.28161e-06
-1.58839e-06
-8.90065e-06
-1.61565e-06
-8.51399e-06
-1.63954e-06
-8.12243e-06
-1.65993e-06
-7.72681e-06
-1.67665e-06
-7.32803e-06
-1.68954e-06
-6.927e-06
-1.69839e-06
-6.52473e-06
-1.70301e-06
-6.12222e-06
-1.70316e-06
-5.72058e-06
-1.69859e-06
-5.32096e-06
-1.68903e-06
-4.92457e-06
-1.67416e-06
-4.53271e-06
-1.65366e-06
-4.14674e-06
-1.62717e-06
-3.76811e-06
-1.59431e-06
-3.39835e-06
-1.55469e-06
-3.03907e-06
-1.5079e-06
-2.69194e-06
-1.45353e-06
-2.35873e-06
-1.39123e-06
-2.04123e-06
-1.32064e-06
-1.74128e-06
-1.24153e-06
-1.46071e-06
-1.15376e-06
-1.20133e-06
-1.05739e-06
-9.64842e-07
-9.52727e-07
-7.52793e-07
-8.40447e-07
-5.66497e-07
-7.217e-07
-4.06936e-07
-5.98281e-07
-2.74661e-07
-4.7282e-07
-1.69686e-07
-3.49029e-07
-9.13987e-08
-2.31979e-07
-3.84842e-08
-1.28406e-07
-8.90882e-09
-4.70049e-08
7.2638e-10
-2.68149e-08
8.81975e-08
-9.99031e-08
2.75104e-07
-2.13687e-07
4.61389e-07
-3.63622e-07
6.40012e-07
-5.45773e-07
8.06614e-07
-7.56602e-07
9.5856e-07
-9.92847e-07
1.09456e-06
-1.25147e-06
1.21433e-06
-1.52962e-06
1.31829e-06
-1.82465e-06
1.40728e-06
-2.13413e-06
1.48245e-06
-2.45582e-06
1.54508e-06
-2.78769e-06
1.59647e-06
-3.12791e-06
1.63795e-06
-3.47486e-06
1.67074e-06
-3.82711e-06
1.69602e-06
-4.1834e-06
1.71482e-06
-4.54264e-06
1.7281e-06
-4.90387e-06
1.73669e-06
-5.26628e-06
1.74131e-06
-5.62915e-06
1.74258e-06
-5.99188e-06
1.74103e-06
-6.35394e-06
1.73709e-06
-6.71488e-06
1.73111e-06
-7.0743e-06
1.7234e-06
-7.43184e-06
1.71416e-06
-7.7872e-06
1.70357e-06
-8.14007e-06
1.69176e-06
-8.4902e-06
1.6788e-06
-8.83732e-06
1.66476e-06
-9.1812e-06
1.64966e-06
-9.52159e-06
1.6335e-06
-9.85824e-06
1.61628e-06
-1.01909e-05
1.59797e-06
-1.05194e-05
1.57853e-06
-1.08433e-05
1.55792e-06
-1.11626e-05
1.53609e-06
-1.14768e-05
1.51299e-06
-1.17857e-05
1.48856e-06
-1.2089e-05
1.46275e-06
-1.23864e-05
1.43549e-06
-1.26776e-05
1.40674e-06
-1.29623e-05
1.37643e-06
-1.32402e-05
1.34451e-06
-1.35108e-05
1.31092e-06
-1.37739e-05
1.27562e-06
-1.40291e-05
1.23855e-06
-1.4276e-05
1.19967e-06
-1.45142e-05
1.15894e-06
-1.47435e-05
1.11632e-06
-1.49633e-05
1.07178e-06
-1.51732e-05
1.02529e-06
-1.5373e-05
9.76822e-07
-1.55622e-05
9.26367e-07
-1.57404e-05
8.73912e-07
-1.59072e-05
8.19454e-07
-1.60622e-05
7.62997e-07
-1.6205e-05
7.04553e-07
-1.63352e-05
6.44142e-07
-1.64525e-05
5.81794e-07
-1.65564e-05
5.17547e-07
-1.66467e-05
4.51449e-07
-1.67229e-05
3.83559e-07
-1.67848e-05
3.13943e-07
-1.6832e-05
2.42682e-07
-1.68642e-05
1.69864e-07
-1.68811e-05
9.5588e-08
-1.68825e-05
1.99656e-08
-1.68682e-05
-5.68826e-08
-1.68379e-05
-1.34825e-07
-1.67915e-05
-2.13721e-07
-1.67288e-05
-2.93419e-07
-1.66498e-05
-3.73758e-07
-1.65542e-05
-4.5457e-07
-1.64422e-05
-5.35678e-07
-1.63136e-05
-6.16897e-07
-1.61685e-05
-6.98038e-07
-1.6007e-05
-7.78904e-07
-1.58292e-05
-8.59295e-07
-1.56352e-05
-9.39008e-07
-1.54253e-05
-1.01784e-06
-1.51996e-05
-1.09557e-06
-1.49584e-05
-1.17201e-06
-1.4702e-05
-1.24695e-06
-1.44308e-05
-1.32018e-06
-1.41452e-05
-1.3915e-06
-1.38455e-05
-1.46071e-06
-1.35323e-05
-1.52763e-06
-1.32061e-05
-1.59206e-06
-1.28673e-05
-1.65382e-06
-1.25166e-05
-1.71273e-06
-1.21545e-05
-1.76862e-06
-1.17817e-05
-1.82132e-06
-1.1399e-05
-1.87067e-06
-1.10068e-05
-1.91649e-06
-1.06061e-05
-1.95863e-06
-1.01976e-05
-1.99693e-06
-9.78203e-06
-2.0312e-06
-9.3603e-06
-2.06127e-06
-8.93328e-06
-2.08696e-06
-8.50186e-06
-2.10807e-06
-8.06703e-06
-2.12437e-06
-7.62978e-06
-2.13564e-06
-7.19117e-06
-2.14162e-06
-6.75231e-06
-2.14202e-06
-6.31438e-06
-2.13652e-06
-5.87861e-06
-2.12479e-06
-5.44632e-06
-2.10645e-06
-5.01887e-06
-2.0811e-06
-4.59775e-06
-2.0483e-06
-4.18447e-06
-2.00758e-06
-3.78068e-06
-1.95848e-06
-3.38807e-06
-1.90051e-06
-3.00842e-06
-1.83319e-06
-2.64357e-06
-1.75608e-06
-2.29542e-06
-1.66879e-06
-1.96589e-06
-1.57106e-06
-1.6569e-06
-1.46275e-06
-1.37033e-06
-1.34396e-06
-1.10798e-06
-1.21508e-06
-8.71468e-07
-1.07695e-06
-6.6223e-07
-9.30939e-07
-4.8138e-07
-7.79131e-07
-3.29659e-07
-6.24541e-07
-2.07355e-07
-4.71333e-07
-1.14242e-07
-3.25092e-07
-4.9554e-08
-1.93093e-07
-1.20092e-08
-8.45497e-08
-1.12828e-08
-3.01954e-08
1.18393e-07
-1.12163e-07
3.57071e-07
-2.39138e-07
5.88363e-07
-4.05573e-07
8.06447e-07
-6.06742e-07
1.00778e-06
-8.38507e-07
1.19033e-06
-1.09717e-06
1.35322e-06
-1.37938e-06
1.49654e-06
-1.68206e-06
1.62097e-06
-2.00241e-06
1.72763e-06
-2.33786e-06
1.81791e-06
-2.68608e-06
1.8933e-06
-3.04497e-06
1.95536e-06
-3.41263e-06
2.00561e-06
-3.78739e-06
2.04549e-06
-4.16774e-06
2.07636e-06
-4.55237e-06
2.09945e-06
-4.94013e-06
2.11587e-06
-5.33003e-06
2.12659e-06
-5.72119e-06
2.13247e-06
-6.11286e-06
2.13425e-06
-6.50439e-06
2.13255e-06
-6.8952e-06
2.1279e-06
-7.28482e-06
2.12073e-06
-7.67279e-06
2.11137e-06
-8.05874e-06
2.10011e-06
-8.44231e-06
2.08714e-06
-8.82318e-06
2.07263e-06
-9.20107e-06
2.05669e-06
-9.57568e-06
2.03937e-06
-9.94674e-06
2.02072e-06
-1.0314e-05
2.00074e-06
-1.06771e-05
1.97944e-06
-1.10359e-05
1.95677e-06
-1.13901e-05
1.9327e-06
-1.17394e-05
1.90718e-06
-1.20835e-05
1.88016e-06
-1.2422e-05
1.85157e-06
-1.27548e-05
1.82134e-06
-1.30815e-05
1.78942e-06
-1.34017e-05
1.75572e-06
-1.37152e-05
1.72019e-06
-1.40215e-05
1.68276e-06
-1.43204e-05
1.64336e-06
-1.46114e-05
1.60192e-06
-1.48941e-05
1.55839e-06
-1.51683e-05
1.51271e-06
-1.54335e-05
1.46483e-06
-1.56892e-05
1.4147e-06
-1.59352e-05
1.36226e-06
-1.61709e-05
1.3075e-06
-1.6396e-05
1.25036e-06
-1.661e-05
1.19083e-06
-1.68125e-05
1.12888e-06
-1.70031e-05
1.06452e-06
-1.71813e-05
9.97722e-07
-1.73469e-05
9.28509e-07
-1.74992e-05
8.56891e-07
-1.7638e-05
7.82896e-07
-1.77627e-05
7.06561e-07
-1.78731e-05
6.27932e-07
-1.79687e-05
5.47072e-07
-1.80492e-05
4.64049e-07
-1.81142e-05
3.7895e-07
-1.81634e-05
2.9187e-07
-1.81965e-05
2.02919e-07
-1.82131e-05
1.12218e-07
-1.8213e-05
1.99022e-08
-1.8196e-05
-7.38803e-08
-1.81619e-05
-1.6897e-07
-1.81104e-05
-2.65194e-07
-1.80415e-05
-3.6237e-07
-1.79549e-05
-4.60302e-07
-1.78507e-05
-5.58786e-07
-1.77288e-05
-6.57607e-07
-1.75891e-05
-7.56541e-07
-1.74318e-05
-8.55359e-07
-1.72569e-05
-9.53822e-07
-1.70645e-05
-1.05169e-06
-1.68548e-05
-1.14871e-06
-1.6628e-05
-1.24465e-06
-1.63843e-05
-1.33924e-06
-1.61241e-05
-1.43224e-06
-1.58476e-05
-1.52341e-06
-1.55553e-05
-1.61248e-06
-1.52476e-05
-1.69923e-06
-1.49249e-05
-1.78341e-06
-1.45877e-05
-1.86479e-06
-1.42366e-05
-1.94315e-06
-1.38722e-05
-2.01826e-06
-1.3495e-05
-2.0899e-06
-1.31058e-05
-2.15788e-06
-1.27051e-05
-2.22198e-06
-1.22938e-05
-2.282e-06
-1.18725e-05
-2.33774e-06
-1.14421e-05
-2.38902e-06
-1.10035e-05
-2.43561e-06
-1.05573e-05
-2.47732e-06
-1.01047e-05
-2.51394e-06
-9.64638e-06
-2.54524e-06
-9.18347e-06
-2.57097e-06
-8.71696e-06
-2.59088e-06
-8.24791e-06
-2.60469e-06
-7.77746e-06
-2.61207e-06
-7.30677e-06
-2.6127e-06
-6.8371e-06
-2.60619e-06
-6.36976e-06
-2.59214e-06
-5.90611e-06
-2.5701e-06
-5.44763e-06
-2.53959e-06
-4.99583e-06
-2.50009e-06
-4.55234e-06
-2.45107e-06
-4.11885e-06
-2.39197e-06
-3.69714e-06
-2.32222e-06
-3.28906e-06
-2.24127e-06
-2.89652e-06
-2.14862e-06
-2.52147e-06
-2.04384e-06
-2.16592e-06
-1.92661e-06
-1.83184e-06
-1.79683e-06
-1.52119e-06
-1.65461e-06
-1.23583e-06
-1.50045e-06
-9.7749e-07
-1.3353e-06
-7.47698e-07
-1.16073e-06
-5.47726e-07
-9.79102e-07
-3.78522e-07
-7.93745e-07
-2.40654e-07