/*--------------------------------*- C++ -*----------------------------------*\
| =========                 |                                                 |
| \\      /  F ield         | OpenFOAM: The Open Source CFD Toolbox           |
|  \\    /   O peration     | Version:  2112                                  |
|   \\  /    A nd           | Website:  www.openfoam.com                      |
|    \\/     M anipulation  |                                                 |
\*---------------------------------------------------------------------------*/
FoamFile
{
    version     2.0;
    format      ascii;
    arch        "LSB;label=32;scalar=64";
    class       volVectorField;
    location    "4";
    object      U;
}
// * * * * * * * * * * * * * * * * * * * * * * * * * * * * * * * * * * * * * //

dimensions      [0 1 -1 0 0 0 0];

internalField   nonuniform List<vector> 
16641
(
(2.60307e-06 -2.602e-06 0)
(6.57193e-06 -2.31167e-06 0)
(6.15717e-06 -1.91611e-07 0)
(-9.86983e-07 2.22962e-06 0)
(-1.5039e-05 4.47829e-06 0)
(-3.53304e-05 6.394e-06 0)
(-6.10232e-05 7.9608e-06 0)
(-9.12589e-05 9.21612e-06 0)
(-0.000125243 1.02089e-05 0)
(-0.000162274 1.09854e-05 0)
(-0.000201749 1.15846e-05 0)
(-0.000243158 1.2039e-05 0)
(-0.000286069 1.23757e-05 0)
(-0.000330125 1.2618e-05 0)
(-0.000375031 1.27852e-05 0)
(-0.000420546 1.28928e-05 0)
(-0.000466472 1.29532e-05 0)
(-0.000512651 1.29764e-05 0)
(-0.000558955 1.29711e-05 0)
(-0.000605284 1.2944e-05 0)
(-0.000651556 1.29006e-05 0)
(-0.000697709 1.28449e-05 0)
(-0.000743694 1.27798e-05 0)
(-0.00078947 1.27075e-05 0)
(-0.000835006 1.26297e-05 0)
(-0.000880276 1.25475e-05 0)
(-0.000925259 1.24616e-05 0)
(-0.000969934 1.23722e-05 0)
(-0.00101428 1.22791e-05 0)
(-0.00105829 1.21821e-05 0)
(-0.00110193 1.20809e-05 0)
(-0.00114519 1.1975e-05 0)
(-0.00118805 1.18638e-05 0)
(-0.00123048 1.17466e-05 0)
(-0.00127246 1.16227e-05 0)
(-0.00131397 1.14914e-05 0)
(-0.00135497 1.1352e-05 0)
(-0.00139543 1.12038e-05 0)
(-0.00143533 1.10462e-05 0)
(-0.00147462 1.08785e-05 0)
(-0.00151327 1.07e-05 0)
(-0.00155124 1.05101e-05 0)
(-0.00158849 1.0308e-05 0)
(-0.00162498 1.00933e-05 0)
(-0.00166065 9.86531e-06 0)
(-0.00169546 9.62352e-06 0)
(-0.00172936 9.36734e-06 0)
(-0.00176231 9.09626e-06 0)
(-0.00179425 8.8098e-06 0)
(-0.00182512 8.50755e-06 0)
(-0.00185487 8.18909e-06 0)
(-0.00188345 7.854e-06 0)
(-0.00191079 7.50191e-06 0)
(-0.00193683 7.1326e-06 0)
(-0.00196153 6.74592e-06 0)
(-0.00198481 6.34172e-06 0)
(-0.00200663 5.91987e-06 0)
(-0.00202691 5.48027e-06 0)
(-0.0020456 5.02299e-06 0)
(-0.00206263 4.5482e-06 0)
(-0.00207796 4.05616e-06 0)
(-0.00209151 3.54716e-06 0)
(-0.00210324 3.02159e-06 0)
(-0.00211309 2.47997e-06 0)
(-0.00212101 1.92295e-06 0)
(-0.00212694 1.35125e-06 0)
(-0.00213083 7.65598e-07 0)
(-0.00213265 1.66944e-07 0)
(-0.00213235 -4.43473e-07 0)
(-0.0021299 -1.06468e-06 0)
(-0.00212525 -1.69531e-06 0)
(-0.00211838 -2.33403e-06 0)
(-0.00210926 -2.97945e-06 0)
(-0.00209788 -3.62999e-06 0)
(-0.00208421 -4.28391e-06 0)
(-0.00206826 -4.93947e-06 0)
(-0.00205001 -5.59492e-06 0)
(-0.00202948 -6.24842e-06 0)
(-0.00200667 -6.89798e-06 0)
(-0.00198159 -7.5416e-06 0)
(-0.00195427 -8.17731e-06 0)
(-0.00192474 -8.80318e-06 0)
(-0.00189304 -9.41726e-06 0)
(-0.0018592 -1.00175e-05 0)
(-0.00182327 -1.06017e-05 0)
(-0.00178532 -1.11682e-05 0)
(-0.0017454 -1.1715e-05 0)
(-0.00170358 -1.22404e-05 0)
(-0.00165993 -1.27426e-05 0)
(-0.00161454 -1.32199e-05 0)
(-0.00156749 -1.36708e-05 0)
(-0.00151887 -1.40938e-05 0)
(-0.00146877 -1.44874e-05 0)
(-0.0014173 -1.48504e-05 0)
(-0.00136456 -1.51813e-05 0)
(-0.00131066 -1.5479e-05 0)
(-0.00125571 -1.57426e-05 0)
(-0.00119984 -1.59707e-05 0)
(-0.00114316 -1.61623e-05 0)
(-0.0010858 -1.6316e-05 0)
(-0.0010279 -1.64307e-05 0)
(-0.000969583 -1.65051e-05 0)
(-0.000911004 -1.65377e-05 0)
(-0.000852307 -1.65266e-05 0)
(-0.000793649 -1.64699e-05 0)
(-0.000735192 -1.63656e-05 0)
(-0.000677111 -1.62113e-05 0)
(-0.000619587 -1.60038e-05 0)
(-0.000562815 -1.57397e-05 0)
(-0.000507003 -1.5415e-05 0)
(-0.000452372 -1.50257e-05 0)
(-0.00039916 -1.45669e-05 0)
(-0.000347623 -1.4033e-05 0)
(-0.000298035 -1.34177e-05 0)
(-0.000250692 -1.27143e-05 0)
(-0.00020591 -1.19154e-05 0)
(-0.000164028 -1.10131e-05 0)
(-0.000125406 -9.99876e-06 0)
(-9.0426e-05 -8.86381e-06 0)
(-5.94836e-05 -7.60004e-06 0)
(-3.29834e-05 -6.20076e-06 0)
(-1.13219e-05 -4.66369e-06 0)
(5.12954e-06 -2.99841e-06 0)
(1.6083e-05 -1.2249e-06 0)
(2.13968e-05 6.03057e-07 0)
(2.12166e-05 2.31083e-06 0)
(1.62342e-05 3.60563e-06 0)
(8.38774e-06 3.84746e-06 0)
(2.05157e-06 2.05692e-06 0)
(2.33025e-06 -6.58525e-06 0)
(2.10418e-06 -2.08306e-06 0)
(-1.0216e-05 9.0161e-06 0)
(-3.77013e-05 2.17026e-05 0)
(-8.09063e-05 3.39867e-05 0)
(-0.000138975 4.50163e-05 0)
(-0.000210402 5.45204e-05 0)
(-0.00029345 6.25081e-05 0)
(-0.000386383 6.91027e-05 0)
(-0.000487574 7.44669e-05 0)
(-0.000595554 7.87679e-05 0)
(-0.000709031 8.21634e-05 0)
(-0.000826889 8.47961e-05 0)
(-0.000948174 8.67929e-05 0)
(-0.00107208 8.82642e-05 0)
(-0.00119794 8.93046e-05 0)
(-0.00132518 8.99939e-05 0)
(-0.00145335 9.03992e-05 0)
(-0.00158207 9.05764e-05 0)
(-0.00171103 9.05718e-05 0)
(-0.00183999 9.04229e-05 0)
(-0.00196874 9.01597e-05 0)
(-0.00209713 8.98057e-05 0)
(-0.00222501 8.93787e-05 0)
(-0.00235229 8.88923e-05 0)
(-0.00247887 8.83564e-05 0)
(-0.00260468 8.77774e-05 0)
(-0.00272964 8.71591e-05 0)
(-0.00285369 8.65035e-05 0)
(-0.00297678 8.58106e-05 0)
(-0.00309884 8.50794e-05 0)
(-0.00321981 8.43077e-05 0)
(-0.00333962 8.34928e-05 0)
(-0.00345821 8.26312e-05 0)
(-0.00357551 8.17193e-05 0)
(-0.00369144 8.07531e-05 0)
(-0.00380592 7.97285e-05 0)
(-0.00391885 7.86413e-05 0)
(-0.00403015 7.74874e-05 0)
(-0.00413972 7.62628e-05 0)
(-0.00424746 7.49632e-05 0)
(-0.00435325 7.35847e-05 0)
(-0.00445699 7.21232e-05 0)
(-0.00455854 7.0575e-05 0)
(-0.0046578 6.89365e-05 0)
(-0.00475462 6.7204e-05 0)
(-0.00484888 6.53743e-05 0)
(-0.00494043 6.34441e-05 0)
(-0.00502913 6.14104e-05 0)
(-0.00511485 5.92705e-05 0)
(-0.00519742 5.7022e-05 0)
(-0.00527669 5.46625e-05 0)
(-0.00535251 5.21902e-05 0)
(-0.00542473 4.96034e-05 0)
(-0.00549317 4.6901e-05 0)
(-0.00555769 4.40822e-05 0)
(-0.00561812 4.11466e-05 0)
(-0.00567429 3.80942e-05 0)
(-0.00572605 3.49256e-05 0)
(-0.00577324 3.16418e-05 0)
(-0.0058157 2.82447e-05 0)
(-0.00585327 2.47363e-05 0)
(-0.00588581 2.11197e-05 0)
(-0.00591317 1.73981e-05 0)
(-0.0059352 1.35759e-05 0)
(-0.00595177 9.65783e-06 0)
(-0.00596276 5.6494e-06 0)
(-0.00596805 1.55672e-06 0)
(-0.00596752 -2.61326e-06 0)
(-0.00596107 -6.85303e-06 0)
(-0.00594862 -1.11543e-05 0)
(-0.00593009 -1.55081e-05 0)
(-0.0059054 -1.99052e-05 0)
(-0.00587451 -2.43354e-05 0)
(-0.00583739 -2.87881e-05 0)
(-0.005794 -3.32521e-05 0)
(-0.00574434 -3.77158e-05 0)
(-0.00568842 -4.21674e-05 0)
(-0.00562626 -4.65945e-05 0)
(-0.00555791 -5.09845e-05 0)
(-0.00548342 -5.53246e-05 0)
(-0.00540287 -5.96022e-05 0)
(-0.00531636 -6.38045e-05 0)
(-0.00522399 -6.79186e-05 0)
(-0.00512589 -7.1932e-05 0)
(-0.00502221 -7.58322e-05 0)
(-0.00491311 -7.96072e-05 0)
(-0.00479877 -8.32452e-05 0)
(-0.00467938 -8.67349e-05 0)
(-0.00455515 -9.00652e-05 0)
(-0.0044263 -9.32256e-05 0)
(-0.00429308 -9.62063e-05 0)
(-0.00415573 -9.89974e-05 0)
(-0.00401453 -0.00010159 0)
(-0.00386974 -0.000103975 0)
(-0.00372167 -0.000106143 0)
(-0.0035706 -0.000108086 0)
(-0.00341687 -0.000109796 0)
(-0.00326079 -0.000111263 0)
(-0.00310272 -0.000112479 0)
(-0.002943 -0.000113433 0)
(-0.00278201 -0.000114115 0)
(-0.00262013 -0.000114513 0)
(-0.00245778 -0.000114614 0)
(-0.00229538 -0.000114402 0)
(-0.00213337 -0.000113863 0)
(-0.00197225 -0.000112975 0)
(-0.0018125 -0.00011172 0)
(-0.00165467 -0.000110071 0)
(-0.00149934 -0.000108002 0)
(-0.00134711 -0.000105485 0)
(-0.00119864 -0.000102485 0)
(-0.00105464 -9.89677e-05 0)
(-0.000915847 -9.4895e-05 0)
(-0.000783077 -9.02266e-05 0)
(-0.000657181 -8.49213e-05 0)
(-0.000539062 -7.89387e-05 0)
(-0.000429668 -7.22412e-05 0)
(-0.000329981 -6.47981e-05 0)
(-0.000240995 -5.65921e-05 0)
(-0.000163689 -4.76295e-05 0)
(-9.89752e-05 -3.79575e-05 0)
(-4.7622e-05 -2.76959e-05 0)
(-1.01141e-05 -1.70743e-05 0)
(1.34501e-05 -6.53271e-06 0)
(2.37249e-05 3.14222e-06 0)
(2.24764e-05 1.05867e-05 0)
(1.34437e-05 1.34929e-05 0)
(3.81164e-06 8.36676e-06 0)
(2.18056e-07 -6.20632e-06 0)
(-9.05277e-06 1.02398e-05 0)
(-3.8719e-05 3.8535e-05 0)
(-9.01646e-05 7.02417e-05 0)
(-0.000163605 0.000101365 0)
(-0.000258086 0.000129931 0)
(-0.000371782 0.000155111 0)
(-0.000502483 0.000176725 0)
(-0.000647896 0.000194913 0)
(-0.000805805 0.000209969 0)
(-0.000974152 0.000222243 0)
(-0.00115108 0.000232096 0)
(-0.00133496 0.00023987 0)
(-0.00152437 0.000245882 0)
(-0.00171808 0.000250414 0)
(-0.00191505 0.000253714 0)
(-0.00211442 0.000255995 0)
(-0.00231544 0.000257441 0)
(-0.00251752 0.000258207 0)
(-0.00272015 0.00025842 0)
(-0.00292293 0.000258188 0)
(-0.00312551 0.000257597 0)
(-0.00332761 0.000256715 0)
(-0.00352902 0.000255596 0)
(-0.00372953 0.000254281 0)
(-0.00392899 0.000252801 0)
(-0.00412727 0.000251177 0)
(-0.00432422 0.000249422 0)
(-0.00451976 0.000247544 0)
(-0.00471375 0.000245547 0)
(-0.00490611 0.000243428 0)
(-0.00509673 0.000241184 0)
(-0.00528549 0.000238808 0)
(-0.00547228 0.000236293 0)
(-0.00565699 0.000233629 0)
(-0.0058395 0.000230807 0)
(-0.00601966 0.000227815 0)
(-0.00619735 0.000224643 0)
(-0.0063724 0.00022128 0)
(-0.00654468 0.000217714 0)
(-0.00671401 0.000213935 0)
(-0.00688023 0.000209932 0)
(-0.00704315 0.000205694 0)
(-0.00720258 0.000201211 0)
(-0.00735835 0.000196474 0)
(-0.00751024 0.000191472 0)
(-0.00765804 0.000186197 0)
(-0.00780155 0.00018064 0)
(-0.00794054 0.000174793 0)
(-0.00807478 0.000168649 0)
(-0.00820405 0.0001622 0)
(-0.00832811 0.000155443 0)
(-0.00844672 0.00014837 0)
(-0.00855965 0.000140979 0)
(-0.00866663 0.000133266 0)
(-0.00876744 0.000125229 0)
(-0.00886181 0.000116868 0)
(-0.00894952 0.000108184 0)
(-0.0090303 9.91769e-05 0)
(-0.00910392 8.98515e-05 0)
(-0.00917014 8.02125e-05 0)
(-0.00922872 7.02664e-05 0)
(-0.00927943 6.00214e-05 0)
(-0.00932206 4.94872e-05 0)
(-0.00935639 3.86757e-05 0)
(-0.00938221 2.76003e-05 0)
(-0.00939933 1.62765e-05 0)
(-0.00940757 4.72151e-06 0)
(-0.00940677 -7.0459e-06 0)
(-0.00939677 -1.90046e-05 0)
(-0.00937745 -3.11318e-05 0)
(-0.00934867 -4.34033e-05 0)
(-0.00931036 -5.57927e-05 0)
(-0.00926241 -6.82727e-05 0)
(-0.0092048 -8.0814e-05 0)
(-0.00913746 -9.3386e-05 0)
(-0.00906041 -0.000105957 0)
(-0.00897365 -0.000118495 0)
(-0.00887722 -0.000130965 0)
(-0.00877118 -0.000143334 0)
(-0.00865563 -0.000155567 0)
(-0.00853068 -0.000167629 0)
(-0.00839647 -0.000179485 0)
(-0.00825317 -0.0001911 0)
(-0.00810097 -0.000202439 0)
(-0.0079401 -0.00021347 0)
(-0.00777079 -0.000224158 0)
(-0.00759332 -0.000234472 0)
(-0.00740798 -0.000244379 0)
(-0.00721509 -0.00025385 0)
(-0.00701498 -0.000262856 0)
(-0.00680801 -0.000271368 0)
(-0.00659458 -0.000279359 0)
(-0.00637507 -0.000286804 0)
(-0.00614992 -0.000293676 0)
(-0.00591956 -0.000299951 0)
(-0.00568445 -0.000305603 0)
(-0.00544509 -0.000310607 0)
(-0.00520196 -0.000314937 0)
(-0.0049556 -0.000318567 0)
(-0.00470656 -0.000321465 0)
(-0.00445539 -0.000323602 0)
(-0.00420271 -0.000324941 0)
(-0.00394913 -0.000325444 0)
(-0.00369533 -0.000325067 0)
(-0.00344199 -0.000323762 0)
(-0.00318986 -0.000321473 0)
(-0.00293973 -0.00031814 0)
(-0.00269241 -0.000313695 0)
(-0.00244882 -0.000308061 0)
(-0.00220988 -0.000301155 0)
(-0.00197663 -0.000292888 0)
(-0.00175014 -0.000283164 0)
(-0.00153157 -0.000271881 0)
(-0.00132214 -0.000258937 0)
(-0.00112316 -0.000244227 0)
(-0.000935984 -0.000227659 0)
(-0.00076202 -0.000209151 0)
(-0.00060271 -0.000188652 0)
(-0.00045949 -0.000166161 0)
(-0.000333737 -0.00014175 0)
(-0.000226695 -0.00011562 0)
(-0.000139356 -8.81597e-05 0)
(-7.23001e-05 -6.00639e-05 0)
(-2.54888e-05 -3.25124e-05 0)
(2.05533e-06 -7.3474e-06 0)
(1.26133e-05 1.24675e-05 0)
(1.05527e-05 2.2505e-05 0)
(3.54151e-06 1.61309e-05 0)
(-2.23987e-06 9.73756e-07 0)
(-2.20311e-05 3.79628e-05 0)
(-7.12396e-05 9.01362e-05 0)
(-0.000148241 0.000146794 0)
(-0.000252265 0.000202322 0)
(-0.000382047 0.000253689 0)
(-0.00053546 0.000299473 0)
(-0.000709963 0.000339233 0)
(-0.00090291 0.00037308 0)
(-0.0011117 0.000401411 0)
(-0.00133388 0.000424761 0)
(-0.00156721 0.000443711 0)
(-0.00180967 0.000458834 0)
(-0.00205949 0.000470674 0)
(-0.00231511 0.000479725 0)
(-0.00257521 0.000486429 0)
(-0.00283866 0.000491175 0)
(-0.00310448 0.000494297 0)
(-0.00337187 0.000496082 0)
(-0.00364017 0.000496773 0)
(-0.0039088 0.000496568 0)
(-0.00417729 0.000495635 0)
(-0.00444527 0.000494104 0)
(-0.00471241 0.000492082 0)
(-0.00497844 0.000489649 0)
(-0.00524311 0.000486867 0)
(-0.00550624 0.000483779 0)
(-0.00576764 0.000480416 0)
(-0.00602715 0.000476794 0)
(-0.00628461 0.000472922 0)
(-0.00653986 0.000468801 0)
(-0.00679277 0.000464425 0)
(-0.00704317 0.000459784 0)
(-0.00729092 0.000454866 0)
(-0.00753584 0.000449655 0)
(-0.00777778 0.000444132 0)
(-0.00801654 0.000438279 0)
(-0.00825195 0.000432077 0)
(-0.0084838 0.000425505 0)
(-0.00871189 0.000418543 0)
(-0.00893601 0.000411171 0)
(-0.00915592 0.00040337 0)
(-0.00937139 0.00039512 0)
(-0.00958217 0.000386403 0)
(-0.00978802 0.000377199 0)
(-0.00998866 0.000367492 0)
(-0.0101838 0.000357265 0)
(-0.0103732 0.000346502 0)
(-0.0105566 0.000335189 0)
(-0.0107336 0.000323313 0)
(-0.010904 0.000310861 0)
(-0.0110675 0.000297823 0)
(-0.0112237 0.00028419 0)
(-0.0113723 0.000269955 0)
(-0.0115131 0.000255113 0)
(-0.0116456 0.000239661 0)
(-0.0117697 0.000223597 0)
(-0.0118849 0.000206924 0)
(-0.0119909 0.000189646 0)
(-0.0120875 0.000171769 0)
(-0.0121743 0.000153304 0)
(-0.012251 0.000134262 0)
(-0.0123174 0.00011466 0)
(-0.0123731 9.45171e-05 0)
(-0.0124178 7.38551e-05 0)
(-0.0124514 5.26999e-05 0)
(-0.0124736 3.10807e-05 0)
(-0.0124841 9.03025e-06 0)
(-0.0124827 -1.34156e-05 0)
(-0.0124693 -3.62176e-05 0)
(-0.0124436 -5.9333e-05 0)
(-0.0124056 -8.2716e-05 0)
(-0.012355 -0.000106318 0)
(-0.0122919 -0.000130086 0)
(-0.012216 -0.000153967 0)
(-0.0121275 -0.000177903 0)
(-0.0120263 -0.000201835 0)
(-0.0119123 -0.000225702 0)
(-0.0117857 -0.000249442 0)
(-0.0116466 -0.000272991 0)
(-0.011495 -0.000296285 0)
(-0.0113311 -0.000319257 0)
(-0.0111551 -0.000341844 0)
(-0.0109672 -0.00036398 0)
(-0.0107677 -0.000385601 0)
(-0.0105568 -0.000406644 0)
(-0.0103348 -0.000427048 0)
(-0.0101022 -0.00044675 0)
(-0.00985921 -0.000465694 0)
(-0.00960633 -0.000483822 0)
(-0.00934397 -0.00050108 0)
(-0.00907259 -0.000517413 0)
(-0.00879268 -0.000532771 0)
(-0.00850476 -0.000547104 0)
(-0.00820937 -0.000560362 0)
(-0.00790709 -0.000572499 0)
(-0.00759851 -0.000583464 0)
(-0.00728425 -0.00059321 0)
(-0.00696495 -0.000601684 0)
(-0.00664131 -0.000608835 0)
(-0.00631403 -0.000614603 0)
(-0.00598384 -0.000618927 0)
(-0.00565153 -0.000621738 0)
(-0.00531792 -0.000622961 0)
(-0.00498386 -0.00062251 0)
(-0.00465027 -0.000620292 0)
(-0.00431811 -0.000616201 0)
(-0.00398839 -0.00061012 0)
(-0.00366222 -0.000601919 0)
(-0.00334073 -0.000591455 0)
(-0.00302518 -0.000578573 0)
(-0.00271688 -0.000563107 0)
(-0.00241721 -0.000544881 0)
(-0.00212769 -0.000523712 0)
(-0.00184986 -0.000499419 0)
(-0.00158539 -0.000471827 0)
(-0.001336 -0.000440781 0)
(-0.00110345 -0.000406163 0)
(-0.000889519 -0.000367918 0)
(-0.000695969 -0.000326091 0)
(-0.000524452 -0.00028088 0)
(-0.000376431 -0.000232715 0)
(-0.000253044 -0.000182369 0)
(-0.000154935 -0.00013112 0)
(-8.20259e-05 -8.09967e-05 0)
(-3.324e-05 -3.50697e-05 0)
(-6.1651e-06 2.09844e-06 0)
(3.43856e-06 2.40036e-05 0)
(2.26816e-06 2.10805e-05 0)
(-4.5829e-06 1.52824e-05 0)
(-3.4919e-05 8.19985e-05 0)
(-0.000103972 0.00016456 0)
(-0.000206632 0.000251276 0)
(-0.000340736 0.000335562 0)
(-0.000504475 0.00041364 0)
(-0.000695324 0.000483622 0)
(-0.000910423 0.000544845 0)
(-0.00114685 0.00059738 0)
(-0.00140173 0.000641717 0)
(-0.00167235 0.000678565 0)
(-0.00195617 0.000708722 0)
(-0.00225093 0.000733004 0)
(-0.00255458 0.000752196 0)
(-0.00286532 0.000767024 0)
(-0.0031816 0.000778149 0)
(-0.00350207 0.000786155 0)
(-0.00382559 0.000791555 0)
(-0.00415116 0.000794791 0)
(-0.00447797 0.000796236 0)
(-0.00480532 0.000796207 0)
(-0.00513263 0.000794964 0)
(-0.00545941 0.000792718 0)
(-0.00578525 0.000789639 0)
(-0.00610979 0.000785859 0)
(-0.00643273 0.000781479 0)
(-0.00675381 0.000776572 0)
(-0.00707279 0.000771189 0)
(-0.00738946 0.000765362 0)
(-0.0077036 0.000759107 0)
(-0.00801503 0.000752431 0)
(-0.00832355 0.000745327 0)
(-0.00862896 0.000737782 0)
(-0.00893107 0.000729779 0)
(-0.00922967 0.000721294 0)
(-0.00952455 0.000712301 0)
(-0.00981548 0.000702773 0)
(-0.0101022 0.000692679 0)
(-0.0103846 0.00068199 0)
(-0.0106622 0.000670674 0)
(-0.010935 0.000658702 0)
(-0.0112025 0.000646042 0)
(-0.0114645 0.000632666 0)
(-0.0117207 0.000618543 0)
(-0.0119709 0.000603647 0)
(-0.0122146 0.00058795 0)
(-0.0124515 0.000571426 0)
(-0.0126814 0.000554053 0)
(-0.0129038 0.000535807 0)
(-0.0131184 0.000516669 0)
(-0.0133249 0.000496619 0)
(-0.0135229 0.000475643 0)
(-0.013712 0.000453728 0)
(-0.0138918 0.000430862 0)
(-0.014062 0.000407039 0)
(-0.0142222 0.000382253 0)
(-0.0143719 0.000356506 0)
(-0.0145109 0.0003298 0)
(-0.0146388 0.000302142 0)
(-0.0147551 0.000273544 0)
(-0.0148596 0.000244022 0)
(-0.0149518 0.000213597 0)
(-0.0150314 0.000182294 0)
(-0.0150981 0.000150144 0)
(-0.0151516 0.000117182 0)
(-0.0151915 8.34504e-05 0)
(-0.0152176 4.89945e-05 0)
(-0.0152295 1.38662e-05 0)
(-0.0152271 -2.18775e-05 0)
(-0.0152102 -5.81747e-05 0)
(-0.0151784 -9.49582e-05 0)
(-0.0151317 -0.000132156 0)
(-0.01507 -0.000169691 0)
(-0.014993 -0.000207482 0)
(-0.0149008 -0.000245443 0)
(-0.0147932 -0.000283486 0)
(-0.0146703 -0.000321517 0)
(-0.0145322 -0.000359443 0)
(-0.0143788 -0.000397164 0)
(-0.0142103 -0.000434581 0)
(-0.0140268 -0.000471594 0)
(-0.0138285 -0.000508101 0)
(-0.0136156 -0.000544 0)
(-0.0133884 -0.000579191 0)
(-0.0131472 -0.000613574 0)
(-0.0128924 -0.000647049 0)
(-0.0126242 -0.00067952 0)
(-0.0123431 -0.000710892 0)
(-0.0120496 -0.000741074 0)
(-0.0117441 -0.000769977 0)
(-0.0114272 -0.000797514 0)
(-0.0110994 -0.000823601 0)
(-0.0107613 -0.000848158 0)
(-0.0104135 -0.000871104 0)
(-0.0100567 -0.000892363 0)
(-0.00969147 -0.000911857 0)
(-0.00931861 -0.000929508 0)
(-0.00893883 -0.000945237 0)
(-0.00855291 -0.000958962 0)
(-0.00816167 -0.000970597 0)
(-0.00776594 -0.000980047 0)
(-0.00736661 -0.000987214 0)
(-0.00696462 -0.000991985 0)
(-0.00656095 -0.000994239 0)
(-0.00615662 -0.00099384 0)
(-0.00575272 -0.000990637 0)
(-0.00535041 -0.000984463 0)
(-0.0049509 -0.000975131 0)
(-0.00455551 -0.000962437 0)
(-0.0041656 -0.000946159 0)
(-0.00378265 -0.000926055 0)
(-0.00340823 -0.000901869 0)
(-0.00304398 -0.000873334 0)
(-0.00269167 -0.000840176 0)
(-0.00235313 -0.000802128 0)
(-0.00203031 -0.00075894 0)
(-0.00172518 -0.000710399 0)
(-0.00143978 -0.000656361 0)
(-0.00117616 -0.000596789 0)
(-0.000936285 -0.000531806 0)
(-0.000722018 -0.000461778 0)
(-0.000534976 -0.000387419 0)
(-0.000376417 -0.000309939 0)
(-0.000247067 -0.000231253 0)
(-0.000146923 -0.000154257 0)
(-7.50022e-05 -8.31921e-05 0)
(-2.90453e-05 -2.4083e-05 0)
(-5.42914e-06 1.47684e-05 0)
(6.64166e-07 2.14877e-05 0)
(-6.65523e-06 3.62322e-05 0)
(-4.68949e-05 0.00014191 0)
(-0.000135021 0.000261455 0)
(-0.000262436 0.000383186 0)
(-0.000425419 0.000500179 0)
(-0.000621441 0.000608307 0)
(-0.000847469 0.000705429 0)
(-0.00110028 0.000790762 0)
(-0.00137669 0.000864386 0)
(-0.00167359 0.0009269 0)
(-0.00198806 0.000979188 0)
(-0.00231737 0.00102227 0)
(-0.00265905 0.00105721 0)
(-0.00301088 0.00108503 0)
(-0.00337086 0.00110671 0)
(-0.00373726 0.00112314 0)
(-0.00410859 0.00113511 0)
(-0.00448352 0.00114333 0)
(-0.00486095 0.00114842 0)
(-0.00523992 0.00115088 0)
(-0.00561963 0.00115118 0)
(-0.00599939 0.00114967 0)
(-0.00637861 0.00114667 0)
(-0.00675681 0.00114241 0)
(-0.00713356 0.00113708 0)
(-0.0075085 0.00113084 0)
(-0.00788128 0.00112379 0)
(-0.00825164 0.00111601 0)
(-0.00861929 0.00110755 0)
(-0.008984 0.00109845 0)
(-0.00934551 0.0010887 0)
(-0.00970359 0.00107831 0)
(-0.010058 0.00106726 0)
(-0.0104085 0.00105553 0)
(-0.0107549 0.00104308 0)
(-0.0110969 0.0010299 0)
(-0.0114342 0.00101593 0)
(-0.0117665 0.00100113 0)
(-0.0120937 0.000985468 0)
(-0.0124153 0.000968899 0)
(-0.0127311 0.00095138 0)
(-0.0130407 0.000932869 0)
(-0.0133439 0.000913324 0)
(-0.0136403 0.000892706 0)
(-0.0139294 0.000870975 0)
(-0.0142111 0.000848094 0)
(-0.0144848 0.000824028 0)
(-0.0147502 0.000798744 0)
(-0.0150069 0.000772211 0)
(-0.0152545 0.000744401 0)
(-0.0154925 0.00071529 0)
(-0.0157207 0.000684856 0)
(-0.0159384 0.00065308 0)
(-0.0161454 0.00061995 0)
(-0.0163412 0.000585456 0)
(-0.0165253 0.000549593 0)
(-0.0166973 0.000512361 0)
(-0.0168568 0.000473767 0)
(-0.0170034 0.000433821 0)
(-0.0171366 0.000392542 0)
(-0.0172561 0.000349953 0)
(-0.0173614 0.000306084 0)
(-0.0174521 0.000260973 0)
(-0.0175279 0.000214664 0)
(-0.0175884 0.00016721 0)
(-0.0176333 0.000118668 0)
(-0.0176622 6.91062e-05 0)
(-0.0176748 1.85976e-05 0)
(-0.0176709 -3.27762e-05 0)
(-0.0176502 -8.49265e-05 0)
(-0.0176125 -0.000137757 0)
(-0.0175577 -0.000191167 0)
(-0.0174854 -0.000245045 0)
(-0.0173957 -0.000299276 0)
(-0.0172885 -0.00035374 0)
(-0.0171637 -0.000408309 0)
(-0.0170213 -0.000462853 0)
(-0.0168613 -0.000517238 0)
(-0.0166839 -0.000571324 0)
(-0.0164892 -0.000624972 0)
(-0.0162772 -0.000678039 0)
(-0.0160483 -0.000730382 0)
(-0.0158027 -0.000781857 0)
(-0.0155407 -0.000832322 0)
(-0.0152626 -0.000881635 0)
(-0.0149689 -0.000929658 0)
(-0.0146599 -0.000976253 0)
(-0.0143361 -0.00102129 0)
(-0.013998 -0.00106463 0)
(-0.0136463 -0.00110616 0)
(-0.0132814 -0.00114574 0)
(-0.012904 -0.00118327 0)
(-0.0125148 -0.00121863 0)
(-0.0121144 -0.00125169 0)
(-0.0117037 -0.00128236 0)
(-0.0112833 -0.00131051 0)
(-0.0108541 -0.00133605 0)
(-0.010417 -0.00135885 0)
(-0.00997276 -0.00137879 0)
(-0.00952236 -0.00139575 0)
(-0.00906677 -0.00140959 0)
(-0.00860699 -0.00142018 0)
(-0.00814407 -0.00142734 0)
(-0.00767915 -0.0014309 0)
(-0.00721339 -0.00143068 0)
(-0.00674804 -0.00142644 0)
(-0.00628439 -0.00141796 0)
(-0.00582385 -0.00140496 0)
(-0.00536789 -0.00138716 0)
(-0.00491807 -0.00136425 0)
(-0.00447606 -0.00133589 0)
(-0.00404361 -0.00130172 0)
(-0.00362259 -0.00126139 0)
(-0.00321497 -0.00121451 0)
(-0.00282279 -0.00116074 0)
(-0.0024482 -0.00109974 0)
(-0.0020934 -0.00103127 0)
(-0.00176062 -0.000955151 0)
(-0.00145209 -0.000871388 0)
(-0.00116995 -0.000780208 0)
(-0.000916202 -0.00068217 0)
(-0.000692603 -0.000578297 0)
(-0.000500526 -0.000470258 0)
(-0.000340825 -0.000360596 0)
(-0.000213668 -0.000253035 0)
(-0.000118314 -0.000152861 0)
(-5.28597e-05 -6.73515e-05 0)
(-1.45913e-05 -6.24978e-06 0)
(-9.46536e-07 1.69577e-05 0)
(-8.43839e-06 6.31689e-05 0)
(-5.76818e-05 0.000216625 0)
(-0.00016355 0.000379616 0)
(-0.000314215 0.000541168 0)
(-0.000504392 0.000694562 0)
(-0.000730738 0.000835702 0)
(-0.00098963 0.000962445 0)
(-0.00127743 0.00107404 0)
(-0.00159065 0.00117066 0)
(-0.00192599 0.00125306 0)
(-0.00228033 0.00132232 0)
(-0.00265079 0.00137968 0)
(-0.00303475 0.00142647 0)
(-0.00342984 0.00146395 0)
(-0.00383394 0.00149336 0)
(-0.00424518 0.00151582 0)
(-0.00466192 0.00153235 0)
(-0.00508275 0.00154386 0)
(-0.00550644 0.00155113 0)
(-0.00593193 0.00155486 0)
(-0.00635831 0.00155561 0)
(-0.00678483 0.00155389 0)
(-0.00721081 0.00155008 0)
(-0.00763569 0.00154453 0)
(-0.00805898 0.00153748 0)
(-0.00848025 0.00152914 0)
(-0.00889913 0.00151966 0)
(-0.00931526 0.00150914 0)
(-0.00972835 0.00149766 0)
(-0.0101381 0.00148526 0)
(-0.0105442 0.00147197 0)
(-0.0109464 0.00145777 0)
(-0.0113444 0.00144266 0)
(-0.011738 0.0014266 0)
(-0.0121268 0.00140957 0)
(-0.0125106 0.00139151 0)
(-0.012889 0.00137238 0)
(-0.0132618 0.00135213 0)
(-0.0136287 0.0013307 0)
(-0.0139892 0.00130804 0)
(-0.0143431 0.0012841 0)
(-0.01469 0.00125882 0)
(-0.0150295 0.00123214 0)
(-0.0153612 0.00120402 0)
(-0.0156848 0.00117441 0)
(-0.0159998 0.00114324 0)
(-0.0163059 0.00111049 0)
(-0.0166025 0.00107611 0)
(-0.0168892 0.00104005 0)
(-0.0171656 0.00100229 0)
(-0.0174313 0.000962779 0)
(-0.0176857 0.000921504 0)
(-0.0179284 0.000878439 0)
(-0.018159 0.000833567 0)
(-0.0183769 0.000786876 0)
(-0.0185817 0.000738361 0)
(-0.0187729 0.000688025 0)
(-0.01895 0.000635875 0)
(-0.0191126 0.00058193 0)
(-0.0192601 0.000526214 0)
(-0.0193923 0.000468759 0)
(-0.0195085 0.000409608 0)
(-0.0196085 0.000348811 0)
(-0.0196917 0.000286429 0)
(-0.0197578 0.000222532 0)
(-0.0198064 0.000157199 0)
(-0.0198371 9.05205e-05 0)
(-0.0198497 2.25948e-05 0)
(-0.0198438 -4.64689e-05 0)
(-0.0198192 -0.000116552 0)
(-0.0197756 -0.000187526 0)
(-0.0197129 -0.000259255 0)
(-0.0196308 -0.000331592 0)
(-0.0195293 -0.000404385 0)
(-0.0194082 -0.000477472 0)
(-0.0192676 -0.000550685 0)
(-0.0191074 -0.000623851 0)
(-0.0189277 -0.00069679 0)
(-0.0187286 -0.00076932 0)
(-0.0185102 -0.000841254 0)
(-0.0182727 -0.000912404 0)
(-0.0180163 -0.00098258 0)
(-0.0177415 -0.00105159 0)
(-0.0174483 -0.00111925 0)
(-0.0171374 -0.00118538 0)
(-0.0168091 -0.00124977 0)
(-0.0164638 -0.00131227 0)
(-0.0161021 -0.00137268 0)
(-0.0157246 -0.00143084 0)
(-0.0153319 -0.00148658 0)
(-0.0149247 -0.00153973 0)
(-0.0145035 -0.00159015 0)
(-0.0140693 -0.00163766 0)
(-0.0136226 -0.00168213 0)
(-0.0131645 -0.00172341 0)
(-0.0126956 -0.00176134 0)
(-0.012217 -0.00179577 0)
(-0.0117295 -0.00182655 0)
(-0.0112342 -0.00185353 0)
(-0.0107319 -0.00187652 0)
(-0.0102239 -0.00189536 0)
(-0.00971126 -0.00190984 0)
(-0.00919508 -0.00191975 0)
(-0.00867663 -0.00192485 0)
(-0.00815721 -0.00192489 0)
(-0.00763818 -0.00191957 0)
(-0.00712098 -0.00190858 0)
(-0.00660715 -0.00189157 0)
(-0.00609831 -0.00186815 0)
(-0.00559615 -0.00183793 0)
(-0.00510251 -0.00180045 0)
(-0.0046193 -0.00175528 0)
(-0.00414854 -0.00170192 0)
(-0.00369235 -0.00163993 0)
(-0.00325296 -0.00156884 0)
(-0.00283267 -0.00148828 0)
(-0.00243382 -0.00139793 0)
(-0.0020588 -0.00129763 0)
(-0.00170997 -0.00118743 0)
(-0.0013896 -0.00106766 0)
(-0.00109982 -0.000939091 0)
(-0.000842513 -0.000803063 0)
(-0.000619175 -0.000661685 0)
(-0.000430835 -0.000518087 0)
(-0.000277905 -0.000376738 0)
(-0.000159995 -0.000243813 0)
(-7.5672e-05 -0.000127607 0)
(-2.32336e-05 -3.89482e-05 0)
(-2.40412e-06 7.67243e-06 0)
(-9.9635e-06 9.54069e-05 0)
(-6.72582e-05 0.000304825 0)
(-0.000189307 0.00051743 0)
(-0.000361413 0.000723424 0)
(-0.000576815 0.000916717 0)
(-0.000831334 0.00109358 0)
(-0.00112071 0.00125212 0)
(-0.00144085 0.0013918 0)
(-0.00178795 0.00151296 0)
(-0.00215848 0.0016166 0)
(-0.00254914 0.00170401 0)
(-0.00295693 0.00177672 0)
(-0.00337909 0.00183627 0)
(-0.00381314 0.00188423 0)
(-0.00425686 0.00192206 0)
(-0.00470828 0.00195113 0)
(-0.00516566 0.0019727 0)
(-0.00562751 0.00198786 0)
(-0.0060925 0.0019976 0)
(-0.00655949 0.00200277 0)
(-0.0070275 0.00200409 0)
(-0.0074957 0.00200217 0)
(-0.00796334 0.00199753 0)
(-0.00842982 0.00199058 0)
(-0.00889457 0.00198165 0)
(-0.00935712 0.00197099 0)
(-0.00981703 0.0019588 0)
(-0.0102739 0.00194523 0)
(-0.0107274 0.00193038 0)
(-0.0111773 0.00191429 0)
(-0.011623 0.00189701 0)
(-0.0120645 0.00187853 0)
(-0.0125012 0.00185884 0)
(-0.012933 0.0018379 0)
(-0.0133595 0.00181569 0)
(-0.0137804 0.00179213 0)
(-0.0141954 0.00176719 0)
(-0.014604 0.00174078 0)
(-0.015006 0.00171286 0)
(-0.015401 0.00168334 0)
(-0.0157886 0.00165217 0)
(-0.0161684 0.00161927 0)
(-0.0165399 0.00158458 0)
(-0.0169029 0.00154804 0)
(-0.0172568 0.00150957 0)
(-0.0176011 0.00146913 0)
(-0.0179355 0.00142665 0)
(-0.0182595 0.00138208 0)
(-0.0185725 0.00133537 0)
(-0.0188742 0.00128648 0)
(-0.0191639 0.00123537 0)
(-0.0194413 0.00118201 0)
(-0.0197057 0.00112636 0)
(-0.0199567 0.00106841 0)
(-0.0201938 0.00100815 0)
(-0.0204164 0.000945568 0)
(-0.0206241 0.000880672 0)
(-0.0208163 0.000813474 0)
(-0.0209925 0.000743997 0)
(-0.0211523 0.000672274 0)
(-0.0212951 0.000598349 0)
(-0.0214205 0.000522276 0)
(-0.021528 0.000444122 0)
(-0.0216172 0.000363965 0)
(-0.0216876 0.000281895 0)
(-0.0217389 0.000198015 0)
(-0.0217707 0.000112439 0)
(-0.0217826 2.52956e-05 0)
(-0.0217743 -6.32767e-05 0)
(-0.0217456 -0.000153126 0)
(-0.0216962 -0.000244089 0)
(-0.0216259 -0.000335992 0)
(-0.0215344 -0.000428648 0)
(-0.0214218 -0.000521863 0)
(-0.0212879 -0.000615431 0)
(-0.0211327 -0.00070914 0)
(-0.0209562 -0.000802769 0)
(-0.0207585 -0.000896091 0)
(-0.0205396 -0.000988874 0)
(-0.0202997 -0.00108088 0)
(-0.0200391 -0.00117188 0)
(-0.019758 -0.00126162 0)
(-0.0194568 -0.00134987 0)
(-0.0191358 -0.00143639 0)
(-0.0187954 -0.00152093 0)
(-0.0184361 -0.00160328 0)
(-0.0180584 -0.0016832 0)
(-0.017663 -0.00176046 0)
(-0.0172504 -0.00183485 0)
(-0.0168212 -0.00190616 0)
(-0.0163763 -0.00197417 0)
(-0.0159164 -0.0020387 0)
(-0.0154422 -0.00209953 0)
(-0.0149547 -0.00215649 0)
(-0.0144546 -0.00220938 0)
(-0.013943 -0.00225801 0)
(-0.0134208 -0.00230219 0)
(-0.012889 -0.00234171 0)
(-0.0123487 -0.00237639 0)
(-0.0118009 -0.002406 0)
(-0.0112469 -0.0024303 0)
(-0.0106879 -0.00244906 0)
(-0.0101251 -0.00246199 0)
(-0.00955979 -0.0024688 0)
(-0.00899346 -0.00246915 0)
(-0.00842755 -0.00246268 0)
(-0.00786361 -0.002449 0)
(-0.00730328 -0.00242765 0)
(-0.00674829 -0.00239818 0)
(-0.00620048 -0.00236006 0)
(-0.00566179 -0.00231276 0)
(-0.00513425 -0.00225572 0)
(-0.00462001 -0.00218835 0)
(-0.00412131 -0.0021101 0)
(-0.00364051 -0.00202044 0)
(-0.00318001 -0.0019189 0)
(-0.00274229 -0.00180515 0)
(-0.00232983 -0.00167901 0)
(-0.0019451 -0.00154059 0)
(-0.00159048 -0.00139035 0)
(-0.00126821 -0.00122925 0)
(-0.00098029 -0.00105894 0)
(-0.000728369 -0.000881917 0)
(-0.000513682 -0.000701853 0)
(-0.000336934 -0.000523848 0)
(-0.000198134 -0.000354815 0)
(-9.63704e-05 -0.000203834 0)
(-3.09261e-05 -8.25162e-05 0)
(-3.63986e-06 -5.93513e-06 0)
(-1.12704e-05 0.000132302 0)
(-7.57026e-05 0.000405143 0)
(-0.000212328 0.000673142 0)
(-0.000403956 0.000927977 0)
(-0.000642489 0.0011645 0)
(-0.000922938 0.00137963 0)
(-0.0012404 0.00157196 0)
(-0.0015903 0.00174128 0)
(-0.00196849 0.0018883 0)
(-0.00237121 0.00201427 0)
(-0.00279499 0.00212079 0)
(-0.00323668 0.00220964 0)