/*--------------------------------*- C++ -*----------------------------------*\
| =========                 |                                                 |
| \\      /  F ield         | OpenFOAM: The Open Source CFD Toolbox           |
|  \\    /   O peration     | Version:  2112                                  |
|   \\  /    A nd           | Website:  www.openfoam.com                      |
|    \\/     M anipulation  |                                                 |
\*---------------------------------------------------------------------------*/
FoamFile
{
    version     2.0;
    format      ascii;
    arch        "LSB;label=32;scalar=64";
    class       volScalarField;
    location    "20";
    object      p;
}
// * * * * * * * * * * * * * * * * * * * * * * * * * * * * * * * * * * * * * //

dimensions      [0 2 -2 0 0 0 0];

internalField   nonuniform List<scalar> 
16641
(
-4.80948e-09
8.26444e-06
1.40843e-05
1.54101e-05
1.04834e-05
-1.4264e-06
-2.03515e-05
-4.59914e-05
-7.79046e-05
-0.000115608
-0.000158627
-0.000206528
-0.000258931
-0.000315518
-0.000376037
-0.000440291
-0.00050814
-0.000579494
-0.000654302
-0.000732546
-0.000814237
-0.000899404
-0.000988085
-0.00108032
-0.00117616
-0.00127561
-0.00137871
-0.00148542
-0.00159571
-0.00170948
-0.00182662
-0.00194695
-0.00207023
-0.00219616
-0.00232439
-0.00245449
-0.00258594
-0.00271817
-0.00285051
-0.0029822
-0.00311242
-0.00324026
-0.00336472
-0.00348473
-0.00359916
-0.0037068
-0.0038064
-0.00389668
-0.00397632
-0.00404401
-0.00409843
-0.00413831
-0.00416243
-0.00416967
-0.00415901
-0.00412954
-0.00408056
-0.00401153
-0.00392214
-0.00381231
-0.00368223
-0.0035324
-0.00336358
-0.00317688
-0.00297372
-0.00275582
-0.00252518
-0.0022843
-0.00203573
-0.00178236
-0.00152733
-0.00127394
-0.00102564
-0.000785951
-0.000558408
-0.000346514
-0.000153659
1.69395e-05
0.000162309
0.000279783
0.000367064
0.000422274
0.000444006
0.000431352
0.000383934
0.000301913
0.000185989
3.73882e-05
-0.000142167
-0.000350501
-0.000585024
-0.000842805
-0.00112064
-0.00141512
-0.00172272
-0.00203985
-0.00236297
-0.00268863
-0.00301353
-0.00333461
-0.00364908
-0.00395442
-0.00424847
-0.0045294
-0.00479571
-0.00504627
-0.00528025
-0.00549713
-0.00569668
-0.00587888
-0.00604396
-0.00619228
-0.00632435
-0.00644077
-0.00654219
-0.00662926
-0.00670263
-0.0067629
-0.0068106
-0.00684622
-0.00687019
-0.00688292
-0.00688494
-0.00687697
-0.00686025
-0.00683684
-0.00681015
-0.00678526
-0.00676994
-8.64698e-06
-3.68519e-07
3.46558e-06
2.51414e-06
-3.8445e-06
-1.62054e-05
-3.47191e-05
-5.92487e-05
-8.95216e-05
-0.000125197
-0.000165916
-0.000211331
-0.000261127
-0.000315028
-0.000372806
-0.00043428
-0.000499317
-0.000567822
-0.000639734
-0.000715029
-0.0007937
-0.000875765
-0.000961247
-0.00105017
-0.00114258
-0.00123847
-0.00133786
-0.00144072
-0.00154702
-0.00165666
-0.00176953
-0.00188546
-0.00200424
-0.00212558
-0.00224916
-0.00237457
-0.00250134
-0.00262892
-0.00275669
-0.00288395
-0.00300993
-0.00313375
-0.0032545
-0.00337115
-0.00348264
-0.00358783
-0.00368553
-0.00377452
-0.00385354
-0.00392134
-0.00397665
-0.00401826
-0.004045
-0.00405577
-0.00404958
-0.00402556
-0.003983
-0.00392137
-0.00384033
-0.0037398
-0.00361994
-0.00348118
-0.00332424
-0.00315014
-0.00296022
-0.00275616
-0.00253986
-0.00231349
-0.00207968
-0.00184116
-0.00160092
-0.00136212
-0.00112805
-0.000902075
-0.0006876
-0.000487977
-0.000306456
-0.000146121
-9.82264e-06
9.98851e-05
0.000180802
0.000231133
0.000249532
0.000235138
0.000187594
0.000107063
-5.77528e-06
-0.00014974
-0.000323175
-0.000523989
-0.000749708
-0.000997525
-0.00126438
-0.00154702
-0.00184208
-0.00214617
-0.0024559
-0.002768
-0.00307937
-0.00338709
-0.00368853
-0.00398132
-0.00426341
-0.00453309
-0.00478894
-0.00502989
-0.00525516
-0.00546426
-0.00565695
-0.00583323
-0.00599327
-0.00613741
-0.00626614
-0.00637998
-0.00647955
-0.00656549
-0.0066384
-0.0066989
-0.00674755
-0.00678489
-0.00681144
-0.00682774
-0.00683444
-0.00683238
-0.00682274
-0.00680731
-0.00678869
-0.00677003
-0.00675463
-1.50548e-05
-4.61507e-06
-7.44236e-07
-2.40407e-06
-9.30804e-06
-2.18335e-05
-4.00846e-05
-6.39439e-05
-9.31884e-05
-0.000127541
-0.0001667
-0.000210368
-0.000258271
-0.000310162
-0.000365836
-0.000425125
-0.000487902
-0.000554077
-0.00062359
-0.000696413
-0.000772538
-0.000851976
-0.000934746
-0.00102088
-0.00111039
-0.00120331
-0.00129963
-0.00139934
-0.0015024
-0.00160875
-0.00171827
-0.00183081
-0.00194617
-0.00206411
-0.00218432
-0.00230641
-0.00242996
-0.00255445
-0.0026793
-0.00280385
-0.00292736
-0.00304903
-0.00316795
-0.00328316
-0.00339364
-0.00349829
-0.00359595
-0.00368545
-0.00376555
-0.00383503
-0.00389266
-0.00393722
-0.00396755
-0.00398256
-0.00398126
-0.00396276
-0.00392632
-0.00387139
-0.00379761
-0.00370484
-0.00359319
-0.00346305
-0.00331507
-0.00315021
-0.00296977
-0.00277536
-0.00256855
-0.00235185
-0.0021276
-0.00189847
-0.00166739
-0.00143743
-0.00121183
-0.000993876
-0.000786911
-0.000594229
-0.000419026
-0.000264337
-0.000132969
-2.74388e-05
5.00858e-05
9.7835e-05
0.000114482
9.91782e-05
5.15734e-05
-2.81703e-05
-0.000139381
-0.000280892
-0.000451071
-0.000647855
-0.000868805
-0.00111117
-0.00137192
-0.00164789
-0.00193577
-0.00223224
-0.002534
-0.00283787
-0.00314082
-0.00344004
-0.00373298
-0.00401736
-0.00429122
-0.00455293
-0.00480114
-0.00503485
-0.00525333
-0.00545614
-0.00564308
-0.00581415
-0.00596958
-0.00610969
-0.00623497
-0.00634595
-0.00644326
-0.0065275
-0.00659932
-0.00665933
-0.0067081
-0.00674621
-0.00677419
-0.00679262
-0.00680211
-0.00680341
-0.00679751
-0.00678578
-0.00677007
-0.00675143
-0.00672961
-1.67761e-05
-3.99907e-06
5.18321e-07
-1.24094e-06
-8.339e-06
-2.09381e-05
-3.90432e-05
-6.24884e-05
-9.10493e-05
-0.000124465
-0.000162462
-0.000204773
-0.000251146
-0.000301359
-0.000355227
-0.000412594
-0.000473345
-0.000537397
-0.000604697
-0.000675219
-0.00074896
-0.000825932
-0.000906159
-0.000989673
-0.0010765
-0.00116668
-0.0012602
-0.00135708
-0.00145729
-0.00156077
-0.00166743
-0.00177715
-0.00188975
-0.00200501
-0.00212266
-0.00224235
-0.00236368
-0.00248618
-0.00260931
-0.00273244
-0.00285487
-0.00297584
-0.00309448
-0.00320986
-0.00332098
-0.00342678
-0.00352613
-0.00361784
-0.00370072
-0.00377352
-0.00383501
-0.00388397
-0.00391922
-0.00393963
-0.00394419
-0.00393195
-0.00390216
-0.00385419
-0.00378763
-0.00370229
-0.00359821
-0.00347572
-0.00333541
-0.00317819
-0.00300524
-0.00281799
-0.00261854
-0.00240877
-0.0021911
-0.00196822
-0.00174298
-0.00151846
-0.00129786
-0.00108445
-0.00088157
-0.000692499
-0.000520437
-0.000368423
-0.00023927
-0.000135504
-5.93043e-05
-1.24538e-05
3.70984e-06
-1.16736e-05
-5.89622e-05
-0.000138001
-0.000248122
-0.00038816
-0.000556483
-0.000751025
-0.000969343
-0.00120868
-0.00146602
-0.00173818
-0.00202188
-0.00231378
-0.00261063
-0.00290926
-0.00320667
-0.0035001
-0.00378705
-0.00406529
-0.00433292
-0.00458837
-0.00483037
-0.00505797
-0.00527051
-0.0054676
-0.00564911
-0.0058151
-0.00596581
-0.00610164
-0.00622309
-0.00633073
-0.00642521
-0.00650715
-0.00657723
-0.00663606
-0.00668424
-0.00672234
-0.0067509
-0.00677042
-0.00678145
-0.00678457
-0.00678043
-0.00676999
-0.00675447
-0.00673311
-0.00670303
-1.19359e-05
2.20316e-06
7.064e-06
5.16286e-06
-2.16501e-06
-1.49226e-05
-3.30162e-05
-5.62265e-05
-8.43076e-05
-0.000117002
-0.000154051
-0.000195202
-0.000240225
-0.000288918
-0.00034111
-0.000396662
-0.000455472
-0.000517467
-0.000582604
-0.000650868
-0.000722263
-0.00079681
-0.000874543
-0.000955506
-0.00103974
-0.00112728
-0.00121817
-0.00131241
-0.00141
-0.00151091
-0.00161509
-0.00172243
-0.0018328
-0.00194601
-0.00206181
-0.00217991
-0.00229994
-0.00242148
-0.00254401
-0.00266696
-0.00278966
-0.00291138
-0.00303128
-0.00314846
-0.00326193
-0.00337064
-0.00347347
-0.00356923
-0.00365671
-0.00373464
-0.00380176
-0.00385683
-0.0038986
-0.00392592
-0.00393769
-0.00393292
-0.00391078
-0.00387058
-0.00381185
-0.00373431
-0.00363794
-0.003523
-0.00339002
-0.00323985
-0.00307363
-0.00289276
-0.00269916
-0.0024948
-0.00228208
-0.00206362
-0.0018423
-0.00162116
-0.00140342
-0.00119237
-0.000991349
-0.000803679
-0.000632588
-0.000481147
-0.00035221
-0.000248341
-0.000171762
-0.000124293
-0.000107309
-0.000121699
-0.000167848
-0.000245618
-0.000354352
-0.000492889
-0.000659588
-0.00085237
-0.00106878
-0.00130602
-0.00156106
-0.00183068
-0.00211157
-0.00240037
-0.00269381
-0.00298869
-0.00328204
-0.00357108
-0.00385333
-0.00412659
-0.00438901
-0.00463905
-0.0048755
-0.00509747
-0.00530439
-0.00549591
-0.00567197
-0.00583271
-0.00597842
-0.00610958
-0.00622672
-0.00633047
-0.00642153
-0.00650056
-0.00656825
-0.00662526
-0.00667219
-0.00670961
-0.00673801
-0.00675787
-0.00676959
-0.00677356
-0.00677014
-0.00675988
-0.00674349
-0.0067187
-0.00668052
3.41869e-07
1.47006e-05
1.93724e-05
1.70745e-05
9.32379e-06
-3.77001e-06
-2.20378e-05
-4.52107e-05
-7.30204e-05
-0.000105207
-0.000141515
-0.000181705
-0.000225563
-0.000272904
-0.000323572
-0.000377448
-0.00043444
-0.000494492
-0.000557576
-0.00062369
-0.000692851
-0.000765096
-0.000840479
-0.000919056
-0.00100089
-0.00108605
-0.00117458
-0.00126652
-0.00136192
-0.00146076
-0.00156302
-0.00166865
-0.00177755
-0.00188956
-0.0020045
-0.0021221
-0.00224205
-0.00236396
-0.00248737
-0.00261172
-0.00273638
-0.00286065
-0.00298371
-0.00310467
-0.00322255
-0.00333628
-0.00344473
-0.00354669
-0.00364089
-0.00372605
-0.00380084
-0.00386394
-0.00391407
-0.00394997
-0.00397049
-0.00397454
-0.00396121
-0.00392974
-0.00387956
-0.00381032
-0.00372194
-0.00361459
-0.00348874
-0.00334519
-0.00318504
-0.00300964
-0.00282083
-0.00262063
-0.0024114
-0.00219576
-0.00197659
-0.00175695
-0.00154008
-0.00132931
-0.00112802
-0.000939582
-0.000767275
-0.000614235
-0.000483379
-0.000377341
-0.000298407
-0.000248463
-0.000228944
-0.000240793
-0.000284441
-0.000359787
-0.000466199
-0.000602525
-0.000767126
-0.000957912
-0.00117239
-0.00140775
-0.00166091
-0.00192859
-0.00220742
-0.00249402
-0.00278502
-0.00307722
-0.00336759
-0.00365332
-0.00393192
-0.00420119
-0.00445929
-0.00470471
-0.00493627
-0.00515313
-0.0053548
-0.00554099
-0.0057117
-0.00586714
-0.00600769
-0.00613389
-0.00624636
-0.00634579
-0.00643292
-0.00650848
-0.0065732
-0.00662776
-0.0066728
-0.00670886
-0.00673642
-0.00675588
-0.00676752
-0.00677156
-0.00676808
-0.00675732
-0.00673955
-0.00671139
-0.00666621
2.02767e-05
3.37773e-05
3.76661e-05
3.46098e-05
2.61558e-05
1.24862e-05
-6.17355e-06
-2.95203e-05
-5.7269e-05
-8.91521e-05
-0.000124919
-0.000164342
-0.000207221
-0.000253386
-0.0003027
-0.00035506
-0.000410393
-0.000468662
-0.000529855
-0.000593989
-0.000661104
-0.000731258
-0.000804527
-0.000880996
-0.000960754
-0.0010439
-0.00113051
-0.00122068
-0.00131447
-0.00141192
-0.00151307
-0.00161788
-0.00172632
-0.00183828
-0.00195363
-0.00207215
-0.00219357
-0.00231754
-0.00244363
-0.00257133
-0.00270004
-0.00282904
-0.00295755
-0.00308465
-0.00320935
-0.00333057
-0.00344711
-0.00355773
-0.00366111
-0.00375587
-0.00384063
-0.00391397
-0.00397451
-0.00402091
-0.0040519
-0.00406633
-0.00406317
-0.00404156
-0.00400086
-0.00394063
-0.0038607
-0.00376119
-0.0036425
-0.00350537
-0.0033509
-0.00318029
-0.00299546
-0.00279839
-0.00259143
-0.00237722
-0.00215863
-0.00193878
-0.00172092
-0.00150844
-0.00130478
-0.00111337
-0.000937578
-0.000780617
-0.000645491
-0.000534926
-0.000451301
-0.000396592
-0.000372323
-0.000379519
-0.000418682
-0.000489773
-0.000592204
-0.00072486
-0.000886113
-0.00107387
-0.00128563
-0.00151853
-0.00176945
-0.00203506
-0.00231191
-0.00259654
-0.00288553
-0.00317557
-0.0034636
-0.00374672
-0.00402241
-0.00428844
-0.00454295
-0.00478442
-0.00501171
-0.00522403
-0.00542084
-0.00560199
-0.00576754
-0.00591776
-0.00605313
-0.00617424
-0.0062818
-0.00637659
-0.0064594
-0.00653105
-0.0065923
-0.00664388
-0.00668644
-0.00672054
-0.00674663
-0.00676504
-0.00677598
-0.00677948
-0.00677542
-0.00676378
-0.00674452
-0.00671347
-0.00666282
4.77633e-05
5.94357e-05
6.19377e-05
5.77152e-05
4.82297e-05
3.37137e-05
1.44292e-05
-9.30428e-06
-3.71905e-05
-6.89616e-05
-0.000104373
-0.00014321
-0.000185289
-0.000230456
-0.000278593
-0.000329617
-0.000383479
-0.000440161
-0.000499676
-0.000562064
-0.000627394
-0.000695753
-0.000767247
-0.000841995
-0.000920127
-0.00100178
-0.00108708
-0.00117616
-0.00126914
-0.00136611
-0.00146715
-0.00157231
-0.00168159
-0.00179495
-0.00191229
-0.00203347
-0.00215825
-0.00228633
-0.00241731
-0.00255069
-0.00268589
-0.0028222
-0.0029588
-0.00309479
-0.00322911
-0.00336062
-0.00348808
-0.00361017
-0.00372546
-0.0038325
-0.0039298
-0.00401582
-0.00408909
-0.00414815
-0.00419161
-0.00421822
-0.00422683
-0.0042165
-0.00418647
-0.00413623
-0.00406553
-0.0039744
-0.0038632
-0.0037326
-0.00358361
-0.00341758
-0.00323623
-0.00304156
-0.00283595
-0.00262201
-0.00240267
-0.00218106
-0.00196048
-0.00174437
-0.00153625
-0.00133963
-0.00115796
-0.000994559
-0.000852537
-0.000734735
-0.000643652
-0.000581387
-0.000549579
-0.000549369
-0.000581362
-0.000645613
-0.000741613
-0.000868304
-0.0010241
-0.00120694
-0.0014143
-0.00164332
-0.00189081
-0.0021534
-0.00242757
-0.00270977
-0.00299647
-0.00328427
-0.00357012
-0.00385085
-0.00412398
-0.00438721
-0.00463861
-0.00487665
-0.00510017
-0.00530837
-0.00550078
-0.00567725
-0.00583792
-0.00598312
-0.00611339
-0.00622942
-0.00633199
-0.00642197
-0.00650023
-0.00656765
-0.00662506
-0.00667324
-0.00671287
-0.00674453
-0.00676865
-0.00678552
-0.00679528
-0.00679784
-0.00679291
-0.00678028
-0.00675971
-0.00672647
-0.00667202
8.25311e-05
9.15118e-05
9.20548e-05
8.62512e-05
7.53974e-05
5.97576e-05
3.96131e-05
1.52885e-05
-1.292e-05
-4.47622e-05
-7.99913e-05
-0.000118417
-0.000159872
-0.000204224
-0.000251379
-0.000301275
-0.00035389
-0.000409232
-0.000467343
-0.000528295
-0.000592189
-0.000659152
-0.000729327
-0.000802879
-0.000879988
-0.000960837
-0.00104562
-0.00113451
-0.0012277
-0.00132535
-0.00142759
-0.00153455
-0.00164628
-0.00176281
-0.0018841
-0.00201005
-0.00214048
-0.0022751
-0.00241356
-0.00255536
-0.00269992
-0.0028465
-0.00299427
-0.00314225
-0.00328934
-0.00343433
-0.00357587
-0.00371254
-0.00384281
-0.00396511
-0.00407781
-0.00417926
-0.00426786
-0.00434201
-0.00440021
-0.00444107
-0.00446336
-0.004466
-0.00444816
-0.00440921
-0.00434883
-0.00426699
-0.00416396
-0.00404036
-0.00389709
-0.00373565
-0.00355756
-0.00336487
-0.00315991
-0.00294534
-0.00272408
-0.00249929
-0.00227433
-0.0020527
-0.00183798
-0.00163377
-0.00144363
-0.00127099
-0.00111909
-0.000990907
-0.000889098
-0.000815906
-0.000773127
-0.00076205
-0.000783427
-0.000837443
-0.000923709
-0.00104127
-0.00118861
-0.00136371
-0.00156411
-0.00178691
-0.00202893
-0.00228672
-0.00255672
-0.00283526
-0.00311874
-0.00340367
-0.00368676
-0.00396492
-0.00423546
-0.00449598
-0.0047445
-0.00497943
-0.00519955
-0.00540404
-0.00559245
-0.00576464
-0.00592078
-0.00606125
-0.00618666
-0.00629776
-0.00639544
-0.00648061
-0.00655425
-0.0066173
-0.00667068
-0.0067152
-0.0067516
-0.00678048
-0.00680228
-0.00681728
-0.00682554
-0.00682693
-0.00682102
-0.00680748
-0.00678592
-0.00675131
-0.00669471
0.000124207
0.000129727
0.000127779
0.00012
0.000107453
9.04211e-05
6.91951e-05
4.40878e-05
1.53779e-05
-1.66926e-05
-5.1909e-05
-9.00956e-05
-0.00013111
-0.000174846
-0.000221235
-0.000270248
-0.000321888
-0.000376197
-0.000433252
-0.000493166
-0.000556079
-0.000622164
-0.000691616
-0.000764656
-0.00084152
-0.000922457
-0.00100772
-0.00109758
-0.00119227
-0.00129204
-0.0013971
-0.00150763
-0.00162378
-0.00174563
-0.0018732
-0.00200645
-0.00214521
-0.00228925
-0.0024382
-0.00259158
-0.00274877
-0.00290901
-0.00307139
-0.00323488
-0.00339828
-0.00356026
-0.00371939
-0.00387409
-0.00402272
-0.00416356
-0.00429483
-0.00441476
-0.00452158
-0.00461356
-0.00468909
-0.00474663
-0.00478482
-0.00480249
-0.00479868
-0.0047727
-0.00472411
-0.00465281
-0.00455901
-0.00444324
-0.0043064
-0.00414982
-0.00397509
-0.00378419
-0.00357946
-0.00336354
-0.00313934
-0.00291007
-0.00267912
-0.00245003
-0.00222648
-0.00201214
-0.00181069
-0.0016257
-0.00146055
-0.00131838
-0.00120203
-0.00111393
-0.00105606
-0.0010299
-0.00103641
-0.00107594
-0.00114828
-0.0012526
-0.00138754
-0.00155116
-0.00174106
-0.00195439
-0.00218796
-0.0024383
-0.00270179
-0.00297468
-0.00325328
-0.00353396
-0.0038133
-0.00408811
-0.00435555
-0.0046131
-0.00485867
-0.00509056
-0.00530749
-0.0055086
-0.00569338
-0.0058617
-0.00601371
-0.00614984
-0.00627075
-0.00637725
-0.00647027
-0.00655083
-0.00661997
-0.0066787
-0.00672802
-0.00676882
-0.00680187
-0.00682781
-0.00684711
-0.00686005
-0.00686668
-0.00686681
-0.00685996
-0.0068457
-0.00682356
-0.00678841
-0.00673117
0.000172344
0.000173707
0.000168782
0.000158662
0.000144116
0.000125449
0.000102941
7.68761e-05
4.75065e-05
1.50483e-05
-2.0315e-05
-5.84361e-05
-9.92029e-05
-0.000142542
-0.000188417
-0.000236831
-0.000287825
-0.00034148
-0.000397916
-0.00045729
-0.000519796
-0.000585662
-0.000655146
-0.000728533
-0.000806133
-0.000888271
-0.000975283
-0.00106751
-0.00116529
-0.00126894
-0.00137877
-0.00149503
-0.00161794
-0.00174765
-0.00188425
-0.00202772
-0.00217794
-0.00233469
-0.00249758
-0.00266612
-0.00283964
-0.00301732
-0.00319817
-0.00338104
-0.00356465
-0.00374752
-0.00392807
-0.0041046
-0.00427529
-0.00443827
-0.00459161
-0.00473338
-0.00486166
-0.00497457
-0.00507035
-0.00514733
-0.00520404
-0.00523918
-0.00525167
-0.00524071
-0.00520579
-0.00514669
-0.00506354
-0.00495681
-0.00482734
-0.00467635
-0.0045054
-0.00431644
-0.00411175
-0.00389396
-0.00366599
-0.00343103
-0.0031925
-0.00295402
-0.00271931
-0.00249215
-0.00227633
-0.00207557
-0.00189341
-0.00173319
-0.00159793
-0.00149031
-0.00141253
-0.00136633
-0.00135289
-0.00137282
-0.0014261
-0.00151214
-0.00162974
-0.00177713
-0.001952
-0.0021516
-0.00237279
-0.00261208
-0.00286583
-0.00313023
-0.00340147
-0.00367583
-0.00394973
-0.00421985
-0.00448317
-0.00473704
-0.00497923
-0.00520789
-0.00542165
-0.00561953
-0.00580097
-0.00596578
-0.0061141
-0.00624637
-0.00636324
-0.00646557
-0.00655436
-0.00663066
-0.00669559
-0.00675026
-0.0067957
-0.00683288
-0.00686264
-0.00688567
-0.00690248
-0.00691335
-0.00691836
-0.00691729
-0.00690964
-0.00689493
-0.00687267
-0.00683774
-0.00678123
0.000226427
0.000222989
0.000214642
0.000201844
0.000185035
0.000164515
0.000140545
0.000113369
8.31954e-05
5.0202e-05
1.45327e-05
-2.37034e-05
-6.44339e-05
-0.000107623
-0.000153274
-0.000201428
-0.000252172
-0.000305634
-0.000361985
-0.000421436
-0.000484245
-0.000550707
-0.000621153
-0.000695949
-0.000775488
-0.000860187
-0.000950474
-0.00104679
-0.00114955
-0.0012592
-0.0013761
-0.00150062
-0.00163304
-0.00177358
-0.00192237
-0.00207944
-0.00224467
-0.00241784
-0.00259855
-0.00278625
-0.0029802
-0.00317949
-0.00338304
-0.00358956
-0.00379762
-0.00400561
-0.00421177
-0.00441424
-0.00461103
-0.0048001
-0.00497935
-0.00514668
-0.0053
-0.00543729
-0.00555664
-0.00565623
-0.00573446
-0.0057899
-0.00582135
-0.0058279
-0.00580892
-0.00576409
-0.00569344
-0.00559735
-0.00547656
-0.00533221
-0.0051658
-0.0049792
-0.00477463
-0.00455468
-0.00432226
-0.00408053
-0.00383295
-0.00358314
-0.00333491
-0.00309213
-0.00285871
-0.00263849
-0.00243523
-0.00225247
-0.00209346
-0.00196113
-0.00185799
-0.00178605
-0.00174678
-0.0017411
-0.0017693
-0.00183104
-0.00192536
-0.00205072
-0.002205
-0.00238557
-0.00258939
-0.00281304
-0.00305285
-0.00330498
-0.00356554
-0.00383069
-0.00409672
-0.00436013
-0.00461774
-0.00486673
-0.00510466
-0.00532954
-0.00553984
-0.00573445
-0.0059127
-0.0060743
-0.00621935
-0.00634823
-0.00646159
-0.00656031
-0.00664539
-0.00671795
-0.00677916
-0.00683017
-0.0068721
-0.00690598
-0.00693271
-0.00695304
-0.00696751
-0.00697647
-0.00698
-0.00697791
-0.0069697
-0.00695489
-0.00693296
-0.00689898
-0.00684435
0.00028587
0.000277021
0.000264845
0.000249075
0.000229765
0.000207202
0.00018162
0.000153198
0.00012209
8.84202e-05
5.22828e-05
1.37375e-05
-2.71909e-05
-7.0512e-05
-0.000116275
-0.000164573
-0.000215542
-0.000269367
-0.000326278
-0.000386555
-0.000450528
-0.000518573
-0.000591108
-0.000668593
-0.000751521
-0.000840409
-0.000935793
-0.00103822
-0.00114822
-0.00126632
-0.00139301
-0.00152871
-0.0016738
-0.00182854
-0.00199312
-0.00216758
-0.00235181
-0.00254555
-0.00274836
-0.00295962
-0.00317849
-0.00340396
-0.00363479
-0.00386957
-0.00410668
-0.00434435
-0.00458065
-0.00481351
-0.00504078
-0.00526022
-0.00546955
-0.0056665
-0.00584882
-0.00601432
-0.00616091
-0.00628667
-0.00638981
-0.00646878
-0.00652226
-0.00654919
-0.00654882
-0.00652071
-0.00646477
-0.00638127
-0.00627085
-0.00613455
-0.00597374
-0.00579021
-0.00558612
-0.00536397
-0.00512663
-0.00487724
-0.00461924
-0.00435629
-0.00409222
-0.00383099
-0.00357663
-0.00333315
-0.00310447
-0.00289437
-0.00270637
-0.00254369
-0.00240915
-0.00230511
-0.00223342
-0.00219534
-0.00219151
-0.00222197
-0.00228608
-0.00238258
-0.00250962
-0.00266479
-0.00284519
-0.0030475
-0.00326812
-0.0035032
-0.0037488
-0.00400097
-0.00425586
-0.00450981
-0.00475944
-0.00500172
-0.00523402
-0.00545415
-0.00566035
-0.00585136
-0.00602635
-0.00618489
-0.00632698
-0.00645293
-0.00656334
-0.00665904
-0.00674106
-0.00681052
-0.00686861
-0.00691656
-0.00695552
-0.00698658
-0.00701071
-0.00702872
-0.00704121
-0.00704855
-0.00705089
-0.00704807
-0.00703962
-0.00702507
-0.00700392
-0.00697151
-0.00691973
0.000349994
0.000335164
0.000318783
0.000299778
0.000277761
0.000253
0.000225677
0.000195894
0.000163732
0.000129247
9.24706e-05
5.34022e-05
1.20113e-05
-3.17672e-05
-7.80396e-05
-0.000126956
-0.000178714
-0.000233562
-0.000291805
-0.000353801
-0.000419968
-0.000490773
-0.000566739
-0.000648432
-0.000736458
-0.000831453
-0.00093407
-0.00104497
-0.00116481
-0.00129422
-0.00143377
-0.00158399
-0.00174532
-0.00191807
-0.00210246
-0.00229852
-0.00250614
-0.00272499
-0.00295459
-0.00319418
-0.00344284
-0.00369938
-0.00396244
-0.00423041
-0.0045015
-0.00477374
-0.005045
-0.00531302
-0.00557546
-0.00582986
-0.00607379
-0.00630476
-0.00652035
-0.00671821
-0.00689609
-0.00705189
-0.00718369
-0.00728977
-0.00736867
-0.00741919
-0.00744044
-0.00743184
-0.00739315
-0.00732453
-0.00722653
-0.00709995
-0.0069461
-0.00676666
-0.00656368
-0.00633957
-0.00609712
-0.00583941
-0.00556985
-0.0052921
-0.00501001
-0.00472763
-0.00444906
-0.00417848
-0.00392
-0.00367762
-0.00345516
-0.00325616
-0.00308379
-0.00294081
-0.00282947
-0.00275149
-0.00270793
-0.00269926
-0.00272527
-0.00278507
-0.00287717
-0.00299944
-0.00314923
-0.00332341
-0.00351848
-0.00373064
-0.00395595
-0.00419037
-0.00442992
-0.0046708
-0.0049094
-0.00514249
-0.00536717
-0.00558102
-0.00578206
-0.00596878
-0.00614015
-0.00629557
-0.00643488
-0.00655826
-0.00666621
-0.00675952
-0.00683915
-0.00690623
-0.00696195
-0.00700754
-0.00704421
-0.00707311
-0.00709524
-0.00711146
-0.00712245
-0.00712863
-0.00713019
-0.00712702
-0.00711871
-0.00710482
-0.00708488
-0.00705457
-0.0070064
0.00041803
0.00039667
0.000375739
0.000353268
0.000328375
0.000301287
0.000272119
0.000240875
0.000207544
0.0001721
0.000134498
9.46678e-05
5.25108e-05
7.8958e-06
-3.93492e-05
-8.94415e-05
-0.000142651
-0.000199303
-0.000259788
-0.000324557
-0.000394126
-0.000469076
-0.000550043
-0.000637717
-0.000732831
-0.000836151
-0.000948462
-0.00107055
-0.0012032
-0.00134713
-0.00150304
-0.00167151
-0.00185306
-0.00204803
-0.00225664
-0.00247892
-0.0027147
-0.00296359
-0.003225
-0.00349806
-0.00378169
-0.00407454
-0.00437507
-0.00468146
-0.00499174
-0.00530372
-0.00561506
-0.00592329
-0.00622585
-0.0065201
-0.00680338
-0.00707305
-0.00732647
-0.00756112
-0.00777457
-0.00796456
-0.008129
-0.00826602
-0.00837399
-0.00845157
-0.00849769
-0.00851163
-0.00849302
-0.00844185
-0.00835859
-0.00824358
-0.00809832
-0.00792428
-0.00772334
-0.00749781
-0.00725035
-0.00698398
-0.00670203
-0.00640814
-0.00610616
-0.00580016
-0.00549435
-0.00519303
-0.00490049
-0.00462097
-0.00435857
-0.00411717
-0.00390034
-0.00371127
-0.00355268
-0.00342676
-0.00333513
-0.00327875
-0.00325791
-0.00327224
-0.00332066
-0.00340148
-0.00351236
-0.00365045
-0.00381245
-0.00399469
-0.00419324
-0.00440406
-0.00462308
-0.00484631
-0.00506996
-0.00529055
-0.00550492
-0.00571036
-0.00590462
-0.00608591
-0.00625294
-0.00640488
-0.00654136
-0.00666237
-0.00676829
-0.00685977
-0.0069377
-0.00700315
-0.00705728
-0.00710134
-0.00713653
-0.00716403
-0.00718489
-0.00720001
-0.00721012
-0.00721569
-0.00721698
-0.00721393
-0.00720619
-0.00719337
-0.00717505
-0.00714729
-0.00710328
0.000489094
0.000460679
0.000434879
0.000408745
0.000380835
0.000351319
0.000320221
0.000287425
0.000252812
0.000216256
0.000177621
0.000136755
9.34804e-05
4.75877e-05
-1.1708e-06
-5.30896e-05
-0.000108523
-0.00016789
-0.000231677
-0.000300443
-0.000374821
-0.000455516
-0.000543297
-0.000638991
-0.000743473
-0.000857651
-0.000982449
-0.00111879
-0.00126757
-0.00142964
-0.00160577
-0.00179662
-0.00200275
-0.00222453
-0.00246216
-0.00271563
-0.0029847
-0.00326889
-0.00356747
-0.00387942
-0.0042035
-0.00453817
-0.00488166
-0.00523196
-0.00558687
-0.00594398
-0.00630073
-0.00665442
-0.00700227
-0.00734143
-0.00766903
-0.00798221
-0.00827817
-0.00855419
-0.00880765
-0.00903611
-0.00923731
-0.0094092
-0.00955001
-0.0096582
-0.00973257
-0.00977222
-0.00977662
-0.00974552
-0.00967899
-0.0095781
-0.00944341
-0.00927633
-0.00907867
-0.00885257
-0.00860058
-0.00832558
-0.00803083
-0.00771987
-0.00739655
-0.00706493
-0.00672928
-0.00639399
-0.00606351
-0.0057423
-0.00543475
-0.00514507
-0.00487723
-0.00463489
-0.00442128
-0.00423915
-0.0040907
-0.00397748
-0.00390041
-0.0038597
-0.00385483
-0.00388463
-0.00394722
-0.00404014
-0.00416037
-0.00430447
-0.00446864
-0.00464886
-0.004841
-0.00504096
-0.00524476
-0.00544865
-0.0056492
-0.00584338
-0.00602861
-0.00620278
-0.0063643
-0.00651203
-0.00664532
-0.00676395
-0.00686807
-0.00695819
-0.00703504
-0.00709961
-0.00715299
-0.00719638
-0.00723097
-0.00725794
-0.00727836
-0.00729317
-0.00730312
-0.00730876
-0.00731038
-0.00730799
-0.00730129
-0.00728996
-0.00727361
-0.00724874
-0.00720926
0.000562176
0.000526204
0.000495249
0.000465282
0.000434242
0.000402217
0.000369119
0.000334688
0.000298672
0.000260833
0.000220931
0.000178713
0.000133911
8.62299e-05
3.53333e-05
-1.91667e-05
-7.77211e-05
-0.000140853
-0.000209163
-0.000283334
-0.000364132
-0.000452403
-0.000549062
-0.000655089
-0.000771514
-0.000899397
-0.00103981
-0.00119381
-0.00136242
-0.00154659
-0.00174717
-0.0019649
-0.00220033
-0.00245386
-0.00272564
-0.0030156
-0.0033234
-0.00364843
-0.00398979
-0.00434632
-0.00471655
-0.00509873
-0.00549088
-0.00589076
-0.0062959
-0.00670368
-0.00711128
-0.00751578
-0.00791416
-0.00830335
-0.00868027
-0.00904184
-0.00938505
-0.00970699
-0.0100048
-0.010276
-0.010518
-0.0107287
-0.010906
-0.0110484
-0.0111543
-0.0112228
-0.0112531
-0.0112449
-0.0111981
-0.0111132
-0.010991
-0.0108327
-0.0106398
-0.0104143
-0.0101586
-0.00987547
-0.00956798
-0.0092396
-0.00889408
-0.00853545
-0.00816799
-0.00779614
-0.00742448
-0.00705766
-0.0067003
-0.00635694
-0.00603198
-0.00572951
-0.00545333
-0.00520676
-0.00499266
-0.00481326
-0.00467017
-0.0045643
-0.00449582
-0.00446421
-0.00446817
-0.00450576
-0.00457439
-0.00467096
-0.00479189
-0.00493328
-0.00509103
-0.00526094
-0.00543888
-0.00562086
-0.00580315
-0.00598238
-0.0061556
-0.00632034
-0.00647461
-0.00661693
-0.00674632
-0.00686225
-0.0069646
-0.00705364
-0.00712994
-0.00719431
-0.00724774
-0.00729133
-0.00732624
-0.00735361
-0.0073745
-0.00738986
-0.00740049
-0.00740694
-0.00740955
-0.0074084
-0.00740324
-0.00739382
-0.00737978
-0.00735805
-0.00732328
0.000636126
0.00059213
0.000555758
0.000521817
0.000487559
0.000452964
0.000417803
0.00038165
0.000344102
0.000304786
0.00026334
0.000219403
0.000172603
0.000122544
6.87874e-05
1.08405e-05
-5.18599e-05
-0.000119957
-0.000194182
-0.000275358
-0.000364401
-0.000462312
-0.000570171
-0.000689123
-0.000820363
-0.000965111
-0.00112459
-0.00129999
-0.00149246
-0.00170304
-0.00193265
-0.00218207
-0.00245186
-0.00274238
-0.00305374
-0.00338574
-0.00373794
-0.00410957
-0.00449955
-0.0049065
-0.00532872
-0.00576426
-0.00621086
-0.00666603
-0.00712706
-0.00759105
-0.00805494
-0.00851556
-0.00896966
-0.00941391
-0.009845
-0.0102597
-0.0106546
-0.0110268
-0.0113733
-0.0116911
-0.0119778
-0.0122308
-0.0124481
-0.0126279
-0.0127685
-0.0128688
-0.0129278
-0.012945
-0.0129203
-0.0128538
-0.0127463
-0.0125986
-0.0124122
-0.0121889
-0.0119307
-0.0116404
-0.0113209
-0.0109753
-0.0106075
-0.0102212
-0.00982083
-0.00941073
-0.00899555
-0.00858009
-0.00816917
-0.00776762
-0.0073802
-0.00701147
-0.00666574
-0.00634698
-0.00605871
-0.00580391
-0.00558497
-0.0054036
-0.00526079
-0.00515676
-0.00509099
-0.00506219
-0.00506837
-0.00510687
-0.0051745
-0.0052676
-0.00538218
-0.00551405
-0.00565895
-0.00581269
-0.00597124
-0.00613089
-0.00628828
-0.00644051
-0.00658516
-0.00672034
-0.00684465
-0.00695718
-0.00705748
-0.00714552
-0.00722161
-0.00728635
-0.00734056
-0.00738521
-0.00742135
-0.00745006
-0.00747237
-0.00748922
-0.00750137
-0.00750944
-0.00751377
-0.00751447
-0.00751138
-0.00750426
-0.00749284
-0.00747443
-0.0074444
0.000709656
0.000657192
0.000615173
0.000577144
0.000539602
0.000502388
0.000465108
0.00042714
0.000387908
0.000346888
0.00030358
0.000257499
0.000208157
0.000155042
9.76011e-05
3.52213e-05
-3.27886e-05
-0.000107208
-0.000188917
-0.000278896
-0.000378226
-0.000488081
-0.000609719
-0.000744461
-0.000893677
-0.00105875
-0.00124105
-0.00144192
-0.00166259
-0.0019042
-0.00216772
-0.00245393
-0.0027634
-0.00309641
-0.00345297
-0.00383279
-0.00423524
-0.00465937
-0.00510389
-0.00556719
-0.00604732
-0.00654205
-0.00704886
-0.00756499
-0.00808746
-0.00861308
-0.00913853
-0.00966037
-0.0101751
-0.0106791
-0.0111689
-0.011641
-0.0120919
-0.0125182
-0.012917
-0.013285
-0.0136196
-0.0139182
-0.0141785
-0.0143985
-0.0145765
-0.0147111
-0.0148013
-0.0148464
-0.014846
-0.0148002
-0.0147093
-0.0145743
-0.0143963
-0.0141769
-0.013918
-0.0136219
-0.0132915
-0.0129298
-0.0125403
-0.0121268
-0.0116933
-0.0112443
-0.0107844
-0.0103185
-0.00985149
-0.00938844
-0.00893441
-0.00849439
-0.0080732
-0.00767541
-0.00730522
-0.00696641
-0.00666219
-0.00639518
-0.00616727
-0.00597961
-0.00583254
-0.00572563
-0.00565763