/*--------------------------------*- C++ -*----------------------------------*\
| =========                 |                                                 |
| \\      /  F ield         | OpenFOAM: The Open Source CFD Toolbox           |
|  \\    /   O peration     | Version:  2112                                  |
|   \\  /    A nd           | Website:  www.openfoam.com                      |
|    \\/     M anipulation  |                                                 |
\*---------------------------------------------------------------------------*/
FoamFile
{
    version     2.0;
    format      ascii;
    arch        "LSB;label=32;scalar=64";
    class       surfaceScalarField;
    location    "20";
    object      phi;
}
// * * * * * * * * * * * * * * * * * * * * * * * * * * * * * * * * * * * * * //

dimensions      [0 3 -1 0 0 0 0];

oriented        oriented;

internalField   nonuniform List<scalar> 
33024
(
8.74449e-10
-8.70444e-10
2.04623e-08
-1.95875e-08
5.72515e-08
-3.67893e-08
1.0483e-07
-4.75783e-08
1.57718e-07
-5.28882e-08
2.11775e-07
-5.40564e-08
2.64002e-07
-5.2227e-08
3.12313e-07
-4.83116e-08
3.55307e-07
-4.29937e-08
3.9208e-07
-3.6773e-08
4.22085e-07
-3.00051e-08
4.45024e-07
-2.29399e-08
4.60768e-07
-1.5744e-08
4.69289e-07
-8.52055e-09
4.70617e-07
-1.3274e-09
4.64798e-07
5.81819e-09
4.51876e-07
1.29218e-08
4.31868e-07
2.00087e-08
4.0475e-07
2.7118e-08
3.70453e-07
3.42972e-08
3.28854e-07
4.15982e-08
2.79778e-07
4.90754e-08
2.22996e-07
5.67825e-08
1.58226e-07
6.47701e-08
8.51414e-08
7.30851e-08
3.37253e-09
8.17691e-08
-8.74845e-08
9.08568e-08
-1.8786e-07
1.00375e-07
-2.98204e-07
1.10344e-07
-4.18974e-07
1.2077e-07
-5.50625e-07
1.31652e-07
-6.93602e-07
1.42977e-07
-8.48323e-07
1.54721e-07
-1.01517e-06
1.66847e-07
-1.19448e-06
1.79306e-07
-1.38651e-06
1.92035e-07
-1.59147e-06
2.0496e-07
-1.80946e-06
2.1799e-07
-2.04048e-06
2.31023e-07
-2.28443e-06
2.43944e-07
-2.54105e-06
2.56623e-07
-2.80997e-06
2.6892e-07
-3.09065e-06
2.80681e-07
-3.3824e-06
2.91743e-07
-3.68433e-06
3.01934e-07
-3.9954e-06
3.1107e-07
-4.31437e-06
3.18967e-07
-4.6398e-06
3.25432e-07
-4.97007e-06
3.30272e-07
-5.30337e-06
3.33297e-07
-5.63769e-06
3.34319e-07
-5.97084e-06
3.33158e-07
-6.30049e-06
3.29642e-07
-6.6241e-06
3.23618e-07
-6.93905e-06
3.14944e-07
-7.24255e-06
3.03503e-07
-7.53175e-06
2.89201e-07
-7.80372e-06
2.7197e-07
-8.0555e-06
2.51775e-07
-8.28411e-06
2.28614e-07
-8.48663e-06
2.0252e-07
-8.6602e-06
1.73567e-07
-8.80207e-06
1.41869e-07
-8.90965e-06
1.07584e-07
-8.98058e-06
7.09285e-08
-9.01277e-06
3.21857e-08
-9.0041e-06
-8.66267e-09
-8.95335e-06
-5.07568e-08
-8.85921e-06
-9.41373e-08
-8.72096e-06
-1.38253e-07
-8.53828e-06
-1.82674e-07
-8.31135e-06
-2.26931e-07
-8.04082e-06
-2.70531e-07
-7.72786e-06
-3.12962e-07
-7.37415e-06
-3.53705e-07
-6.98192e-06
-3.92238e-07
-6.55387e-06
-4.2805e-07
-6.09322e-06
-4.60646e-07
-5.60366e-06
-4.89564e-07
-5.08928e-06
-5.14377e-07
-4.55457e-06
-5.3471e-07
-4.00432e-06
-5.50247e-07
-3.44358e-06
-5.60741e-07
-2.87756e-06
-5.66018e-07
-2.31157e-06
-5.65989e-07
-1.75092e-06
-5.60653e-07
-1.20083e-06
-5.50094e-07
-6.66338e-07
-5.34488e-07
-1.5224e-07
-5.14098e-07
3.37034e-07
-4.89274e-07
7.97458e-07
-4.60424e-07
1.2255e-06
-4.28038e-07
1.61815e-06
-3.92655e-07
1.973e-06
-3.54853e-07
2.28824e-06
-3.15238e-07
2.56267e-06
-2.74429e-07
2.79571e-06
-2.33039e-07
2.98738e-06
-1.91666e-07
3.13825e-06
-1.50876e-07
3.24944e-06
-1.11192e-07
3.32253e-06
-7.30833e-08
3.35948e-06
-3.69576e-08
3.36264e-06
-3.15546e-09
3.33458e-06
2.80572e-08
3.2781e-06
5.64827e-08
3.1961e-06
8.19988e-08
3.09155e-06
1.04551e-07
2.9674e-06
1.24149e-07
2.82654e-06
1.4086e-07
2.67174e-06
1.548e-07
2.50561e-06
1.66128e-07
2.33059e-06
1.75028e-07
2.14888e-06
1.81704e-07
1.96252e-06
1.86364e-07
1.77332e-06
1.892e-07
1.58294e-06
1.90377e-07
1.39293e-06
1.90007e-07
1.2048e-06
1.88129e-07
1.02012e-06
1.84684e-07
8.40637e-07
1.79484e-07
6.6845e-07
1.72187e-07
5.06184e-07
1.62266e-07
3.57191e-07
1.48994e-07
2.25739e-07
1.31452e-07
1.17106e-07
1.08633e-07
3.73278e-08
7.97785e-08
-7.91502e-09
4.5243e-08
-1.68397e-08
8.92507e-09
-1.68395e-08
1.96021e-08
-2.04728e-08
7.89389e-08
-7.8925e-08
1.69312e-07
-1.27162e-07
2.80356e-07
-1.58622e-07
4.02031e-07
-1.74563e-07
5.25776e-07
-1.77802e-07
6.44797e-07
-1.71248e-07
7.53954e-07
-1.57468e-07
8.49507e-07
-1.38547e-07
9.28832e-07
-1.16098e-07
9.90159e-07
-9.13318e-08
1.03235e-06
-6.51268e-08
1.05469e-06
-3.80903e-08
1.05679e-06
-1.06174e-08
1.0384e-06
1.70566e-08
9.99383e-07
4.48404e-08
9.39581e-07
7.27235e-08
8.58817e-07
1.00773e-07
7.56831e-07
1.29104e-07
6.33264e-07
1.57864e-07
4.87643e-07
1.87219e-07
3.19376e-07
2.17343e-07
1.2775e-07
2.48408e-07
-8.80576e-08
2.80577e-07
-3.2897e-07
3.13998e-07
-5.95996e-07
3.48795e-07
-8.90209e-07
3.8507e-07
-1.21272e-06
4.22891e-07
-1.56468e-06
4.62296e-07
-1.94719e-06
5.03281e-07
-2.36134e-06
5.45806e-07
-2.80815e-06
5.89783e-07
-3.28851e-06
6.35085e-07
-3.8032e-06
6.81533e-07
-4.35279e-06
7.28901e-07
-4.93767e-06
7.76916e-07
-5.55797e-06
8.25254e-07
-6.21352e-06
8.73544e-07
-6.90387e-06
9.21365e-07
-7.62817e-06
9.6825e-07
-8.38524e-06
1.01369e-06
-9.17344e-06
1.05713e-06
-9.99074e-06
1.09798e-06
-1.08346e-05
1.13562e-06
-1.17021e-05
1.16941e-06
-1.25897e-05
1.19868e-06
-1.34935e-05
1.22276e-06
-1.4409e-05
1.24097e-06
-1.53314e-05
1.25263e-06
-1.62552e-05
1.25709e-06
-1.71746e-05
1.25374e-06
-1.80834e-05
1.24199e-06
-1.89751e-05
1.22129e-06
-1.98427e-05
1.19119e-06
-2.0679e-05
1.15129e-06
-2.14768e-05
1.10128e-06
-2.22285e-05
1.04093e-06
-2.29267e-05
9.70136e-07
-2.35638e-05
8.88906e-07
-2.41326e-05
7.97359e-07
-2.46258e-05
6.95749e-07
-2.50367e-05
5.8446e-07
-2.53588e-05
4.64017e-07
-2.55863e-05
3.35081e-07
-2.57139e-05
1.98483e-07
-2.5737e-05
5.53161e-08
-2.56518e-05
-9.38615e-08
-2.54552e-05
-2.47404e-07
-2.51453e-05
-4.04045e-07
-2.47211e-05
-5.62403e-07
-2.41828e-05
-7.20951e-07
-2.35317e-05
-8.78088e-07
-2.27701e-05
-1.03215e-06
-2.19016e-05
-1.18144e-06
-2.0931e-05
-1.32424e-06
-1.98644e-05
-1.45885e-06
-1.87089e-05
-1.58361e-06
-1.74726e-05
-1.69692e-06
-1.61649e-05
-1.79731e-06
-1.47958e-05
-1.88341e-06
-1.33765e-05
-1.95402e-06
-1.19186e-05
-2.00814e-06
-1.04344e-05
-2.04498e-06
-8.93642e-06
-2.06398e-06
-7.43755e-06
-2.06486e-06
-5.95061e-06
-2.0476e-06
-4.48825e-06
-2.01245e-06
-3.06278e-06
-1.95996e-06
-1.68592e-06
-1.89095e-06
-3.68685e-07
-1.80651e-06
8.78852e-07
-1.70796e-06
2.04765e-06
-1.59684e-06
3.12989e-06
-1.47489e-06
4.11901e-06
-1.34398e-06
5.00986e-06
-1.20609e-06
5.79871e-06
-1.06327e-06
6.48323e-06
-9.17567e-07
7.06257e-06
-7.71004e-07
7.53722e-06
-6.25525e-07
7.90898e-06
-4.82954e-07
8.18086e-06
-3.44964e-07
8.35694e-06
-2.13039e-07
8.44224e-06
-8.8453e-08
8.44255e-06
2.77445e-08
8.3643e-06
1.34742e-07
8.21433e-06
2.31965e-07
7.9998e-06
3.19076e-07
7.728e-06
3.95954e-07
7.40618e-06
4.62683e-07
7.04145e-06
5.19526e-07
6.64069e-06
5.66892e-07
6.21041e-06
6.05303e-07
5.75677e-06
6.35349e-07
5.28549e-06
6.57643e-07
4.80192e-06
6.72762e-07
4.31111e-06
6.81191e-07
3.81786e-06
6.83252e-07
3.32696e-06
6.79031e-07
2.84334e-06
6.68302e-07
2.37237e-06
6.50454e-07
1.92014e-06
6.24422e-07
1.49375e-06
5.88653e-07
1.10161e-06
5.41131e-07
7.53529e-07
4.79535e-07
4.60464e-07
4.01699e-07
2.33553e-07
3.06689e-07
8.19675e-08
1.96829e-07
9.16965e-09
8.17228e-08
-7.66965e-09
3.70533e-08
-5.75263e-08
1.27699e-07
-1.69571e-07
2.56488e-07
-2.55951e-07
4.09469e-07
-3.11603e-07
5.73894e-07
-3.38988e-07
7.38758e-07
-3.42666e-07
8.95032e-07
-3.27522e-07
1.03561e-06
-2.98046e-07
1.15509e-06
-2.58026e-07
1.24949e-06
-2.10498e-07
1.31596e-06
-1.57802e-07
1.35251e-06
-1.01673e-07
1.35776e-06
-4.33425e-08
1.33077e-06
1.63686e-08
1.27086e-06
7.69675e-08
1.17748e-06
1.38222e-07
1.05011e-06
2.00091e-07
8.88208e-07
2.62677e-07
6.91125e-07
3.26187e-07
4.58095e-07
3.90894e-07
1.88206e-07
4.57109e-07
-1.1961e-07
5.25159e-07
-4.66569e-07
5.95367e-07
-8.54024e-07
6.68032e-07
-1.28345e-06
7.43423e-07
-1.75641e-06
8.21756e-07
-2.27453e-06
9.03193e-07
-2.83947e-06
9.87828e-07
-3.45285e-06
1.07568e-06
-4.11624e-06
1.16667e-06
-4.8311e-06
1.26066e-06
-5.59872e-06
1.3574e-06
-6.42016e-06
1.45653e-06
-7.29623e-06
1.5576e-06
-8.2274e-06
1.66006e-06
-9.21373e-06
1.76326e-06
-1.02549e-05
1.86641e-06
-1.135e-05
1.96867e-06
-1.24977e-05
2.06907e-06
-1.3696e-05
2.16655e-06
-1.49423e-05
2.25998e-06
-1.62333e-05
2.34813e-06
-1.75651e-05
2.42973e-06
-1.89329e-05
2.50344e-06
-2.03314e-05
2.5679e-06
-2.17544e-05
2.62171e-06
-2.31951e-05
2.66348e-06
-2.4646e-05
2.69184e-06
-2.60989e-05
2.70546e-06
-2.75448e-05
2.70307e-06
-2.89746e-05
2.68347e-06
-3.03782e-05
2.6456e-06
-3.17454e-05
2.58849e-06
-3.30655e-05
2.51136e-06
-3.43278e-05
2.41356e-06
-3.55212e-05
2.29466e-06
-3.66347e-05
2.15444e-06
-3.76574e-05
1.99287e-06
-3.85787e-05
1.81021e-06
-3.93883e-05
1.60691e-06
-4.00762e-05
1.38371e-06
-4.06334e-05
1.14162e-06
-4.10513e-05
8.81874e-07
-4.13222e-05
6.06004e-07
-4.14394e-05
3.15732e-07
-4.1398e-05
1.38735e-08
-4.11925e-05
-2.99359e-07
-4.08204e-05
-6.19457e-07
-4.028e-05
-9.4447e-07
-3.95709e-05
-1.27149e-06
-3.86944e-05
-1.59749e-06
-3.76531e-05
-1.91932e-06
-3.64515e-05
-2.23375e-06
-3.50955e-05
-2.53748e-06
-3.35925e-05
-2.82724e-06
-3.19516e-05
-3.09978e-06
-3.01832e-05
-3.35195e-06
-2.82994e-05
-3.58075e-06
-2.63133e-05
-3.78337e-06
-2.42395e-05
-3.95725e-06
-2.20934e-05
-4.10015e-06
-1.98914e-05
-4.21016e-06
-1.76505e-05
-4.2858e-06
-1.53885e-05
-4.326e-06
-1.31232e-05
-4.33021e-06
-1.08724e-05
-4.29833e-06
-8.65406e-06
-4.23083e-06
-6.48534e-06
-4.12868e-06
-4.38294e-06
-3.99336e-06
-2.36258e-06
-3.82687e-06
-4.38873e-07
-3.63167e-06
1.37494e-06
-3.41065e-06
3.06711e-06
-3.16706e-06
4.62759e-06
-2.90445e-06
6.04812e-06
-2.62663e-06
7.32236e-06
-2.33751e-06
8.4459e-06
-2.0411e-06
9.41628e-06
-1.74139e-06
1.0233e-05
-1.44223e-06
1.08974e-05
-1.14733e-06
1.14125e-05
-8.60089e-07
1.17831e-05
-5.83623e-07
1.20153e-05
-3.20648e-07
1.21165e-05
-7.34675e-08
1.20952e-05
1.56061e-07
1.19606e-05
3.66544e-07
1.17226e-05
5.5704e-07
1.13915e-05
7.27047e-07
1.09777e-05
8.76477e-07
1.04916e-05
1.00561e-06
9.9435e-06
1.11504e-06
9.34321e-06
1.20559e-06
8.70028e-06
1.27827e-06
8.0238e-06
1.33413e-06
7.32237e-06
1.37419e-06
6.60427e-06
1.39929e-06
5.87752e-06
1.41e-06
5.1501e-06
1.40646e-06
4.43018e-06
1.38821e-06
3.72649e-06
1.35415e-06
3.04855e-06
1.30236e-06
2.40704e-06
1.23016e-06
1.814e-06
1.13417e-06
1.28279e-06
1.01074e-06
8.27704e-07
8.56784e-07
4.6286e-07
6.71533e-07
2.00248e-07
4.59441e-07
4.66522e-08
2.35318e-07
3.89826e-08
4.81595e-08
-1.05685e-07
1.59757e-07
-2.81169e-07
3.12811e-07
-4.09005e-07
4.89877e-07
-4.88669e-07
6.76085e-07
-5.25197e-07
8.58874e-07
-5.25453e-07
1.0279e-06
-4.96544e-07
1.17485e-06
-4.45004e-07
1.29326e-06
-3.76437e-07
1.37818e-06
-2.95415e-07
1.4259e-06
-2.05518e-07
1.43367e-06
-1.09446e-07
1.39947e-06
-9.14074e-09
1.32175e-06
9.40862e-08
1.19929e-06
1.9943e-07
1.03102e-06
3.06491e-07
8.15936e-07
4.15174e-07
5.52996e-07
5.25617e-07
2.41064e-07
6.38118e-07
-1.21126e-07
7.53084e-07
-5.34996e-07
8.70979e-07
-1.00213e-06
9.92292e-07
-1.52426e-06
1.1175e-06
-2.10326e-06
1.24703e-06
-2.7411e-06
1.38127e-06
-3.43983e-06
1.52049e-06
-4.20152e-06
1.66488e-06
-5.0282e-06
1.81451e-06
-5.92183e-06
1.96931e-06
-6.88421e-06
2.12905e-06
-7.91691e-06
2.29337e-06
-9.02124e-06
2.46172e-06
-1.01981e-05
2.6334e-06
-1.1448e-05
2.80752e-06
-1.2771e-05
2.98301e-06
-1.41663e-05
3.15863e-06
-1.56329e-05
3.33298e-06
-1.71687e-05
3.50448e-06
-1.8771e-05
3.67139e-06
-2.04363e-05
3.83183e-06
-2.21601e-05
3.98381e-06
-2.39372e-05
4.12522e-06
-2.57613e-05
4.25385e-06
-2.76254e-05
4.36746e-06
-2.95212e-05
4.46377e-06
-3.144e-05
4.54049e-06
-3.33719e-05
4.59536e-06
-3.53063e-05
4.62622e-06
-3.72318e-05
4.63099e-06
-3.91365e-05
4.60774e-06
-4.10077e-05
4.55471e-06
-4.28325e-05
4.47035e-06
-4.45973e-05
4.35338e-06
-4.62888e-05
4.20277e-06
-4.7893e-05
4.0178e-06
-4.93964e-05
3.79808e-06
-5.07856e-05
3.54359e-06
-5.20474e-05
3.25466e-06
-5.31691e-05
2.93199e-06
-5.41389e-05
2.5767e-06
-5.49455e-05
2.19029e-06
-5.55785e-05
1.77465e-06
-5.60288e-05
1.33209e-06
-5.62881e-05
8.65292e-07
-5.63497e-05
3.77337e-07
-5.62075e-05
-1.28241e-07
-5.58585e-05
-6.48403e-07
-5.52996e-05
-1.17834e-06
-5.45301e-05
-1.71395e-06
-5.35509e-05
-2.25072e-06
-5.23645e-05
-2.78389e-06
-5.09753e-05
-3.30856e-06
-4.93893e-05
-3.81974e-06
-4.76144e-05
-4.31238e-06
-4.56602e-05
-4.78146e-06
-4.35379e-05
-5.22205e-06
-4.12605e-05
-5.62937e-06
-3.88424e-05
-5.99886e-06
-3.62995e-05
-6.32628e-06
-3.36489e-05
-6.60777e-06
-3.09092e-05
-6.8399e-06
-2.80995e-05
-7.0198e-06
-2.52402e-05
-7.14515e-06
-2.23519e-05
-7.21433e-06
-1.94557e-05
-7.22639e-06
-1.65729e-05
-7.18114e-06
-1.37245e-05
-7.07916e-06
-1.09314e-05
-6.92182e-06
-8.21349e-06
-6.71127e-06
-5.58993e-06
-6.45043e-06
-3.07868e-06
-6.14292e-06
-6.96288e-07
-5.79304e-06
1.54234e-06
-5.40569e-06
3.62413e-06
-4.98624e-06
5.53798e-06
-4.54048e-06
7.27495e-06
-4.07448e-06
8.82829e-06
-3.59444e-06
1.01935e-05
-3.10662e-06
1.13685e-05
-2.61716e-06
1.23531e-05
-2.13199e-06
1.31497e-05
-1.65667e-06
1.37624e-05
-1.19634e-06
1.41974e-05
-7.55595e-07
1.44623e-05
-3.38402e-07
1.45664e-05
5.19237e-08
1.45202e-05
4.12774e-07
1.4335e-05
7.42256e-07
1.40229e-05
1.03916e-06
1.35964e-05
1.30293e-06
1.30684e-05
1.53364e-06
1.24516e-05
1.73187e-06
1.17585e-05
1.8986e-06
1.10017e-05
2.03514e-06
1.01929e-05
2.1429e-06
9.34382e-06
2.22328e-06
8.46561e-06
2.2775e-06
7.56929e-06
2.30632e-06
6.66582e-06
2.30993e-06
5.76636e-06
2.28767e-06
4.88257e-06
2.23794e-06
4.0269e-06
2.15803e-06
3.21288e-06
2.04419e-06
2.45523e-06
1.89182e-06
1.76989e-06
1.69608e-06
1.17366e-06
1.45302e-06
6.83453e-07
1.16174e-06
3.15279e-07
8.27615e-07
8.31719e-08
4.67425e-07
1.22154e-07
5.37128e-08
-1.59398e-07
1.75771e-07
-4.03226e-07
3.39444e-07
-5.72679e-07
5.24358e-07
-6.73583e-07
7.13928e-07
-7.14766e-07
8.94515e-07
-7.06041e-07
1.05498e-06
-6.57005e-07
1.18633e-06
-5.76351e-07
1.28142e-06
-4.71532e-07
1.33467e-06
-3.48666e-07
1.34174e-06
-2.12587e-07
1.29926e-06
-6.69688e-08
1.2046e-06
8.5526e-08
1.0556e-06
2.4308e-07
8.50464e-07
4.04568e-07
5.87539e-07
5.69416e-07
2.65242e-07
7.37471e-07
-1.18042e-07
9.08901e-07
-5.64016e-07
1.08409e-06
-1.07451e-06
1.26358e-06
-1.65151e-06
1.44797e-06
-2.29712e-06
1.63791e-06
-3.01361e-06
1.83399e-06
-3.80334e-06
2.03676e-06
-4.66872e-06
2.24665e-06
-5.6122e-06
2.46397e-06
-6.63616e-06
2.68884e-06
-7.74288e-06
2.92123e-06
-8.93445e-06
3.16087e-06
-1.02127e-05
3.40727e-06
-1.1579e-05
3.65971e-06
-1.30345e-05
3.91719e-06
-1.45796e-05
4.17848e-06
-1.62141e-05
4.44205e-06
-1.79372e-05
4.70615e-06
-1.97474e-05
4.96874e-06
-2.16419e-05
5.22755e-06
-2.36175e-05
5.48005e-06
-2.56696e-05
5.72353e-06
-2.77929e-05
5.95508e-06
-2.99807e-05
6.17162e-06
-3.22254e-05
6.36996e-06
-3.45184e-05
6.54683e-06
-3.68498e-05
6.6989e-06
-3.92089e-05
6.82285e-06
-4.15839e-05
6.91544e-06
-4.3962e-05
6.97351e-06
-4.63299e-05
6.99407e-06
-4.86732e-05
6.97432e-06
-5.09772e-05
6.91174e-06
-5.32266e-05
6.80413e-06
-5.54059e-05
6.64961e-06
-5.74992e-05
6.44672e-06
-5.94909e-05
6.19443e-06
-6.13652e-05
5.89216e-06
-6.3107e-05
5.53984e-06
-6.47013e-05
5.13787e-06
-6.61338e-05
4.68721e-06
-6.73912e-05
4.18933e-06
-6.84607e-05
3.64624e-06
-6.93309e-05
3.06048e-06
-6.99913e-05
2.43509e-06
-7.04329e-05
1.77365e-06
-7.06478e-05
1.08023e-06
-7.06299e-05
3.59402e-07
-7.0374e-05
-3.84092e-07
-6.98775e-05
-1.14491e-06
-6.91388e-05
-1.91712e-06
-6.8158e-05
-2.69473e-06
-6.69372e-05
-3.47146e-06
-6.54804e-05
-4.24076e-06
-6.3793e-05
-4.99594e-06
-6.18825e-05
-5.7302e-06
-5.97582e-05
-6.43669e-06
-5.7431e-05
-7.10866e-06
-5.49136e-05
-7.73943e-06
-5.22204e-05
-8.32258e-06
-4.93673e-05
-8.85198e-06
-4.63717e-05
-9.32191e-06
-4.32523e-05
-9.72714e-06
-4.00292e-05
-1.0063e-05
-3.67233e-05
-1.03256e-05
-3.33567e-05
-1.05118e-05
-2.99519e-05
-1.06191e-05
-2.65319e-05
-1.06463e-05
-2.31202e-05
-1.05929e-05
-1.97399e-05
-1.04594e-05
-1.6414e-05
-1.02477e-05
-1.31651e-05
-9.96024e-06
-1.00146e-05
-9.6009e-06
-6.98313e-06
-9.17439e-06
-4.08984e-06
-8.68634e-06
-1.35229e-06
-8.14324e-06
1.21378e-06
-7.55231e-06
3.59466e-06
-6.92136e-06
5.77882e-06
-6.25864e-06
7.75708e-06
-5.5727e-06
9.52266e-06
-4.8722e-06
1.10713e-05
-4.16576e-06
1.24011e-05
-3.46178e-06
1.35127e-05
-2.76827e-06
1.4409e-05
-2.09268e-06
1.50952e-05
-1.44181e-06
1.55785e-05
-8.21684e-07
1.58678e-05
-2.37427e-07
1.59739e-05
3.06749e-07
1.59085e-05
8.07666e-07
1.56846e-05
1.263e-06
1.53161e-05
1.67144e-06
1.48172e-05
2.03251e-06
1.42026e-05
2.3465e-06
1.34869e-05
2.61433e-06
1.26846e-05
2.83738e-06
1.18103e-05
3.01728e-06
1.08778e-05
3.1557e-06
9.90124e-06
3.25411e-06
8.89412e-06
3.31344e-06
7.87014e-06
3.33391e-06
6.84312e-06
3.31469e-06
5.82733e-06
3.25373e-06
4.83772e-06
3.14765e-06
3.89016e-06
2.99175e-06
3.00163e-06
2.78035e-06
2.19025e-06
2.50745e-06
1.47523e-06
2.16804e-06
8.7664e-07
1.76033e-06
4.15459e-07
1.2888e-06
1.1415e-07
7.68734e-07
2.36304e-07
5.48391e-08
-2.14237e-07
1.77836e-07
-5.26223e-07
3.39461e-07
-7.34304e-07
5.17313e-07
-8.51435e-07
6.9359e-07
-8.91043e-07
8.53953e-07
-8.66404e-07
9.86816e-07
-7.89869e-07
1.08284e-06
-6.72375e-07
1.13453e-06
-5.23223e-07
1.13591e-06
-3.5004e-07
1.08218e-06
-1.5886e-07
9.69487e-07
4.57226e-08
7.94647e-07
2.60365e-07
5.54946e-07
4.82781e-07
2.47966e-07
7.11548e-07
-1.28553e-07
9.45935e-07
-5.76821e-07
1.18574e-06
-1.09908e-06
1.43116e-06
-1.69765e-06
1.68266e-06
-2.37496e-06
1.94089e-06
-3.13357e-06
2.20658e-06
-3.97615e-06
2.48049e-06
-4.90545e-06
2.76329e-06
-5.92428e-06
3.05558e-06
-7.03542e-06
3.3578e-06
-8.24162e-06
3.67016e-06
-9.54543e-06
3.99266e-06
-1.09492e-05
4.32502e-06
-1.2455e-05
4.66665e-06
-1.40644e-05
5.01663e-06
-1.57784e-05
5.37373e-06
-1.75975e-05
5.73631e-06
-1.95214e-05
6.10241e-06
-2.15491e-05
6.46969e-06
-2.36784e-05
6.83546e-06
-2.59063e-05
7.19666e-06
-2.82287e-05
7.54995e-06
-3.06403e-05
7.89166e-06
-3.31347e-05
8.21789e-06
-3.57041e-05
8.52449e-06
-3.83396e-05
8.80717e-06
-4.10312e-05
9.06153e-06
-4.37675e-05
9.28308e-06
-4.65359e-05
9.46738e-06
-4.93232e-05
9.61007e-06
-5.21146e-05
9.70691e-06
-5.4895e-05
9.7539e-06
-5.76483e-05
9.74733e-06
-6.03578e-05
9.68383e-06
-6.30065e-05
9.56047e-06
-6.55772e-05
9.37477e-06
-6.80523e-05
9.12477e-06
-7.04147e-05
8.8091e-06
-7.26472e-05
8.42697e-06
-7.47333e-05
7.97823e-06
-7.66568e-05
7.46337e-06
-7.84025e-05
6.88354e-06
-7.99558e-05
6.24055e-06
-8.13034e-05
5.53689e-06
-8.24328e-05
4.77568e-06
-8.3333e-05
3.96068e-06
-8.39942e-05
3.09626e-06
-8.44079e-05
2.18739e-06
-8.45673e-05
1.23962e-06
-8.44671e-05
2.59202e-07
-8.41033e-05
-7.47968e-07
-8.34738e-05
-1.77437e-06
-8.25782e-05
-2.81267e-06
-8.14178e-05
-3.85515e-06
-7.99955e-05
-4.89377e-06
-7.8316e-05
-5.92027e-06
-7.63858e-05
-6.92619e-06
-7.4213e-05
-7.90298e-06
-7.18076e-05
-8.84208e-06
-6.91813e-05
-9.73499e-06
-6.63473e-05
-1.05734e-05
-6.33207e-05
-1.13492e-05
-6.01179e-05
-1.20547e-05
-5.67571e-05
-1.26828e-05
-5.32575e-05
-1.32267e-05
-4.964e-05
-1.36806e-05
-4.59263e-05
-1.40394e-05
-4.21392e-05
-1.42989e-05
-3.83024e-05
-1.4456e-05
-3.44401e-05
-1.45087e-05
-3.05768e-05
-1.44562e-05
-2.67372e-05
-1.4299e-05
-2.2946e-05
-1.40389e-05
-1.92273e-05
-1.36789e-05
-1.56047e-05
-1.32235e-05
-1.21007e-05
-1.26783e-05
-8.7368e-06
-1.20502e-05
-5.53285e-06
-1.13472e-05
-2.507e-06
-1.05782e-05
3.2454e-07
-9.7529e-06
2.94775e-06
-8.88185e-06
5.35093e-06
-7.97588e-06
7.52486e-06
-7.04613e-06
9.46288e-06
-6.10378e-06
1.1161e-05
-5.15987e-06
1.26177e-05
-4.22498e-06
1.38342e-05
-3.30916e-06
1.4814e-05
-2.42167e-06
1.55632e-05
-1.57085e-06
1.60897e-05
-7.63971e-07
1.64038e-05
-7.27706e-09
1.65168e-05
6.94597e-07
1.64421e-05
1.33768e-06
1.6194e-05
1.9196e-06
1.57875e-05
2.43901e-06
1.52384e-05
2.89559e-06
1.45628e-05
3.28987e-06
1.37772e-05
3.62307e-06
1.28976e-05
3.8968e-06
1.19405e-05
4.11284e-06
1.09219e-05
4.27273e-06
9.85779e-06
4.37753e-06
8.76426e-06
4.42744e-06
7.65749e-06
4.42146e-06
6.55404e-06
4.35718e-06
5.47106e-06
4.23062e-06
4.42656e-06
4.03626e-06
3.43954e-06
3.76737e-06
2.53026e-06
3.41672e-06
1.72045e-06
2.97786e-06
1.03367e-06
2.44711e-06
4.96137e-07
1.82633e-06
1.38445e-07
1.12643e-06
3.74749e-07
5.2456e-08
-2.66694e-07
1.68095e-07
-6.41862e-07
3.16214e-07
-8.82423e-07
4.73368e-07
-1.00859e-06
6.21122e-07
-1.0388e-06
7.44828e-07
-9.90109e-07
8.32761e-07
-8.77803e-07
8.75496e-07
-7.1511e-07
8.65418e-07
-5.13145e-07
7.9634e-07
-2.80962e-07
6.63181e-07
-2.57018e-08
4.61688e-07
2.47216e-07
1.882e-07
5.33853e-07
-1.60542e-07
8.31523e-07
-5.87551e-07
1.13856e-06
-1.09572e-06
1.4541e-06
-1.68791e-06
1.77793e-06
-2.36701e-06
2.11026e-06
-3.13598e-06
2.45164e-06
-3.99789e-06
2.8028e-06
-4.95586e-06
3.16455e-06
-6.01308e-06
3.53771e-06
-7.17277e-06
3.92298e-06
-8.43811e-06
4.32092e-06
-9.81217e-06
4.73186e-06
-1.12978e-05
5.15583e-06
-1.28977e-05
5.59255e-06
-1.46141e-05
6.04135e-06
-1.64486e-05
6.50117e-06
-1.84024e-05
6.97047e-06
-2.0476e-05
7.4473e-06
-2.26689e-05
7.92921e-06
-2.49798e-05
8.41327e-06
-2.74062e-05
8.8961e-06
-2.99446e-05
9.37386e-06
-3.25902e-05
9.84229e-06
-3.5337e-05
1.02967e-05
-3.81776e-05
1.07322e-05
-4.11032e-05
1.11435e-05
-4.41038e-05
1.15251e-05
-4.71679e-05
1.18713e-05
-5.02829e-05
1.21765e-05
-5.34347e-05
1.2435e-05
-5.66085e-05
1.26412e-05
-5.97882e-05
1.27897e-05
-6.29569e-05
1.28756e-05
-6.60971e-05
1.28941e-05
-6.91906e-05
1.28409e-05
-7.22191e-05
1.27123e-05
-7.51639e-05
1.25052e-05
-7.80063e-05
1.22172e-05
-8.07281e-05
1.18465e-05
-8.33111e-05
1.13921e-05
-8.57378e-05
1.08537e-05
-8.79914e-05
1.02319e-05
-9.0056e-05
9.52792e-06
-9.19164e-05
8.74398e-06
-9.35588e-05
7.88292e-06
-9.49703e-05
6.94838e-06
-9.61394e-05
5.94475e-06
-9.70558e-05
4.87711e-06
-9.77107e-05
3.75121e-06
-9.80968e-05
2.57344e-06
-9.8208e-05
1.3508e-06
-9.80401e-05
9.13858e-08
-9.75898e-05
-1.19828e-06
-9.68561e-05
-2.50813e-06
-9.5839e-05
-3.8297e-06
-9.45405e-05
-5.15364e-06
-9.2964e-05
-6.47029e-06
-9.11146e-05
-7.76974e-06
-8.89988e-05
-9.0419e-06
-8.66252e-05
-1.02766e-05
-8.40037e-05
-1.14636e-05
-8.1146e-05
-1.25927e-05
-7.80652e-05
-1.36541e-05
-7.47764e-05
-1.4638e-05
-7.1296e-05
-1.55352e-05
-6.76418e-05
-1.63369e-05
-6.38335e-05
-1.70351e-05
-5.98916e-05
-1.76224e-05
-5.58383e-05
-1.80927e-05
-5.16967e-05
-1.84405e-05
-4.74908e-05
-1.86618e-05
-4.32456e-05
-1.87539e-05
-3.89863e-05
-1.87154e-05
-3.47389e-05
-1.85465e-05
-3.0529e-05
-1.82488e-05
-2.63823e-05
-1.78256e-05
-2.2324e-05
-1.72818e-05
-1.83785e-05
-1.66238e-05
-1.45692e-05
-1.58595e-05
-1.09182e-05
-1.49982e-05
-7.44597e-06
-1.40504e-05
-4.17106e-06
-1.30278e-05
-1.11003e-06
-1.19429e-05
1.72291e-06
-1.08088e-05
4.31603e-06
-9.63925e-06
6.66009e-06
-8.44785e-06
8.74873e-06
-7.2485e-06
1.05782e-05
-6.05444e-06
1.21475e-05
-4.87845e-06
1.34583e-05
-3.73248e-06
1.45149e-05
-2.62742e-06
1.53239e-05
-1.573e-06
1.58942e-05
-5.77606e-07
1.62369e-05
3.51895e-07
1.63646e-05
1.20999e-06
1.62915e-05
1.99271e-06
1.6033e-05
2.69749e-06
1.56056e-05
3.32306e-06
1.50262e-05
3.86925e-06
1.43124e-05
4.33682e-06
1.34821e-05
4.72711e-06
1.25532e-05
5.04174e-06
1.15437e-05
5.28222e-06
1.04717e-05
5.44958e-06
9.35517e-06
5.54391e-06
8.21256e-06
5.56407e-06
7.06245e-06
5.50729e-06
5.92403e-06
5.36905e-06
4.81724e-06
5.14305e-06
3.76311e-06
4.8215e-06
2.78407e-06
4.39576e-06
1.90448e-06
3.85745e-06
1.15143e-06
3.20016e-06
5.56113e-07
2.42164e-06
1.56098e-07
1.52644e-06
5.30847e-07
4.72471e-08
-3.13941e-07
1.48356e-07
-7.4297e-07
2.72701e-07
-1.00677e-06
3.96715e-07
-1.1326e-06
5.01947e-07
-1.14403e-06
5.73858e-07
-1.06202e-06
6.00898e-07
-9.04842e-07
5.73789e-07
-6.88001e-07
4.84994e-07
-4.2435e-07
3.28275e-07
-1.24244e-07
9.83809e-08
2.04193e-07
-2.09251e-07
5.54848e-07
-5.987e-07
9.23303e-07
-1.07374e-06
1.30656e-06
-1.63797e-06
1.70279e-06
-2.29492e-06
2.11105e-06
-3.0481e-06
2.53111e-06
-3.90107e-06
2.96323e-06
-4.85744e-06
3.40801e-06
-5.92087e-06
3.86623e-06
-7.09505e-06
4.33873e-06
-8.38365e-06
4.82631e-06
-9.79028e-06
5.32961e-06
-1.13184e-05
5.84904e-06
-1.29712e-05
6.38469e-06
-1.47517e-05
6.93628e-06
-1.66622e-05
7.50309e-06
-1.87047e-05
8.08388e-06
-2.08805e-05
8.6769e-06
-2.31898e-05
9.27984e-06
-2.56323e-05
9.88977e-06
-2.82063e-05
1.05032e-05
-3.09091e-05
1.11161e-05
-3.37367e-05
1.17237e-05
-3.66837e-05
1.23209e-05
-3.97434e-05
1.2902e-05
-4.29076e-05
1.34609e-05
-4.61665e-05
1.39912e-05
-4.9509e-05
1.44861e-05
-5.29226e-05
1.49387e-05
-5.63933e-05
1.5342e-05
-5.9906e-05
1.56891e-05
-6.34442e-05
1.59732e-05
-6.69908e-05
1.61877e-05
-7.05275e-05
1.63265e-05
-7.40356e-05
1.63837e-05
-7.74958e-05
1.63542e-05
-8.08885e-05
1.62336e-05
-8.41942e-05
1.6018e-05
-8.73935e-05
1.57045e-05
-9.0467e-05
1.52908e-05
-9.33962e-05
1.47757e-05
-9.61631e-05
1.4159e-05
-9.87504e-05
1.3441e-05
-0.000101142
1.26232e-05
-0.000103322
1.1708e-05
-0.000105276
1.06987e-05
-0.000106993
9.59918e-06
-0.000108459
8.41445e-06
-0.000109664
7.15013e-06
-0.0001106
5.81263e-06
-0.000111258
4.40904e-06
-0.000111631
2.94711e-06
-0.000111716
1.4352e-06
-0.000111507
-1.17231e-07
-0.000111003
-1.70223e-06
-0.000110203
-3.30835e-06
-0.000109107
-4.92569e-06
-0.000107717
-6.54347e-06
-0.000106037
-8.15057e-06
-0.000104071
-9.73559e-06
-0.000101826
-1.12869e-05
-9.93095e-05
-1.27929e-05
-9.65314e-05
-1.42417e-05
-9.35026e-05
-1.56216e-05
-9.02358e-05
-1.6921e-05
-8.67451e-05
-1.81287e-05
-8.30465e-05
-1.92338e-05
-7.91574e-05
-2.0226e-05
-7.50968e-05
-2.10957e-05
-7.0885e-05
-2.18342e-05
-6.6544e-05
-2.24337e-05
-6.20968e-05
-2.28877e-05
-5.75676e-05
-2.3191e-05
-5.29818e-05
-2.33398e-05
-4.83652e-05
-2.3332e-05
-4.37445e-05
-2.31672e-05
-3.91465e-05
-2.28468e-05
-3.45982e-05
-2.23739e-05
-3.01264e-05
-2.17537e-05
-2.5757e-05
-2.09931e-05
-2.15156e-05
-2.01009e-05
-1.74264e-05
-1.90875e-05
-1.35119e-05
-1.79648e-05
-9.79343e-06
-1.67463e-05
-6.28986e-06
-1.54464e-05
-3.01804e-06
-1.40806e-05
7.63313e-09
-1.26649e-05
2.7756e-06
-1.12158e-05
5.27669e-06
-9.74959e-06
7.50476e-06
-8.28251e-06
9.4565e-06
-6.8302e-06
1.11314e-05
-5.40742e-06
1.25319e-05
-4.02787e-06
1.36628e-05
-2.70393e-06
1.45317e-05
-1.44646e-06
1.51483e-05
-2.64723e-07
1.55245e-05
8.33758e-07
1.56741e-05
1.84315e-06
1.56123e-05
2.75933e-06
1.53556e-05
3.57973e-06
1.49217e-05
4.30316e-06
1.43289e-05
4.9296e-06
1.35962e-05
5.45984e-06
1.27428e-05
5.89509e-06
1.17884e-05
6.23664e-06
1.07527e-05
6.48529e-06
9.65561e-06
6.641e-06
8.51732e-06
6.70235e-06
7.35837e-06
6.66625e-06
6.1998e-06
6.52761e-06
5.0635e-06
6.27935e-06
3.97247e-06
5.91253e-06
2.95134e-06
5.41689e-06
2.02708e-06
4.78171e-06
1.23011e-06
3.99713e-06
5.95934e-07
3.05582e-06
1.67573e-07
1.9548e-06
6.98419e-07
3.96814e-08
-3.53622e-07
1.19993e-07
-8.23282e-07
2.11341e-07
-1.09812e-06
2.90845e-07
-1.21211e-06
3.4064e-07
-1.19383e-06
3.46739e-07
-1.06812e-06
2.98079e-07
-8.56182e-07
1.85772e-07
-5.75694e-07
2.52459e-09
-2.41103e-07
-2.5779e-07
1.36071e-07
-6.00523e-07
5.46925e-07
-1.03047e-06
9.84791e-07
-1.55207e-06
1.44491e-06
-2.16961e-06
1.9241e-06
-2.88724e-06
2.42042e-06
-3.70912e-06
2.93293e-06
-4.63943e-06
3.46141e-06
-5.68237e-06
4.00617e-06
-6.84217e-06
4.56782e-06
-8.12308e-06
5.14714e-06
-9.52929e-06
5.74494e-06
-1.10649e-05
6.3619e-06
-1.27338e-05
6.99848e-06
-1.45395e-05
7.65482e-06
-1.64855e-05
8.33063e-06
-1.85743e-05
9.02512e-06
-2.08082e-05
9.73693e-06
-2.31884e-05
1.04641e-05
-2.57154e-05
1.12039e-05
-2.83887e-05
1.19531e-05
-3.12065e-05
1.27076e-05
-3.41658e-05
1.34625e-05
-3.72622e-05
1.42125e-05
-4.04899e-05
1.49514e-05
-4.38414e-05
1.56724e-05
-4.73079e-05
1.63684e-05
-5.08787e-05
1.70317e-05
-5.45418e-05
1.76543e-05
-5.82836e-05
1.82279e-05
-6.20892e-05
1.87442e-05
-6.59422e-05
1.9195e-05
-6.98251e-05
1.95721e-05
-7.37197e-05
1.98678e-05
-7.76067e-05
2.00747e-05
-8.14663e-05
2.01861e-05
-8.52784e-05
2.01957e-05
-8.90225e-05
2.00984e-05
-9.26785e-05
1.98896e-05
-9.62263e-05
1.95658e-05
-9.96462e-05
1.91244e-05
-0.000102919
1.85639e-05
-0.000106027
1.78837e-05
-0.000108953
1.70844e-05
-0.000111679
1.61675e-05
-0.000114191
1.51354e-05
-0.000116475
1.39917e-05
-0.000118517
1.27408e-05
-0.000120306
1.13879e-05
-0.000121831
9.93918e-06
-0.000123082
8.40142e-06
-0.000124052
6.78227e-06
-0.000124733
5.09004e-06
-0.000125119
3.3337e-06
-0.000125207
1.52284e-06
-0.000124992
-3.322e-07
-0.000124473
-2.22153e-06
-0.000123648
-4.13317e-06
-0.000122518
-6.05573e-06
-0.000121084
-7.97718e-06
-0.00011935
-9.88509e-06
-0.000117318
-1.17667e-05
-0.000114996
-1.36091e-05
-0.00011239
-1.53991e-05
-0.000109508
-1.71234e-05
-0.000106361
-1.87688e-05
-0.00010296
-2.03221e-05
-9.9318e-05
-2.17705e-05
-9.54504e-05
-2.31014e-05
-9.13736e-05
-2.43028e-05
-8.71057e-05
-2.53636e-05
-8.26665e-05
-2.62734e-05
-7.80774e-05
-2.70228e-05
-7.33612e-05
-2.76038e-05
-6.85422e-05
-2.801e-05
-6.36458e-05
-2.82362e-05
-5.86985e-05
-2.82794e-05
-5.37275e-05
-2.81382e-05
-4.87607e-05
-2.78135e-05
-4.38264e-05
-2.73082e-05
-3.89529e-05
-2.66273e-05
-3.41679e-05
-2.5778e-05
-2.9499e-05
-2.47698e-05
-2.49725e-05
-2.3614e-05
-2.06134e-05
-2.23239e-05
-1.64454e-05
-2.09143e-05
-1.249e-05
-1.94018e-05
-8.76677e-06
-1.78039e-05
-5.29267e-06
-1.6139e-05
-2.08222e-06
-1.44263e-05
8.53016e-07
-1.26848e-05
3.50428e-06
-1.09338e-05
5.8658e-06
-9.19172e-06
7.93482e-06
-7.47644e-06
9.71152e-06
-5.80457e-06
1.1199e-05
-4.19138e-06
1.2403e-05
-2.65048e-06
1.3332e-05
-1.19372e-06
1.39968e-05
1.68986e-07
1.44102e-05
1.4297e-06
1.45872e-05
2.58238e-06
1.4544e-05
3.62284e-06
1.42986e-05
4.54857e-06
1.38698e-05
5.35844e-06
1.32772e-05
6.05239e-06
1.25413e-05
6.63101e-06
1.16829e-05
7.09509e-06
1.07231e-05
7.44507e-06
9.6835e-06
7.68059e-06
8.58595e-06
7.7999e-06
7.45273e-06
7.79948e-06
6.30667e-06
7.67366e-06
5.17151e-06
7.41451e-06
4.0722e-06
7.01184e-06
3.03553e-06
6.45356e-06
2.09095e-06
5.72629e-06
1.27179e-06
4.81629e-06
6.16998e-07
3.71061e-06
1.73473e-07
2.39833e-06
8.71892e-07
3.00618e-08
-3.83685e-07
8.39893e-08
-8.7721e-07
1.33971e-07
-1.1481e-06
1.58518e-07
-1.23666e-06
1.40917e-07
-1.17622e-06
6.81785e-08
-9.95381e-07
-6.99525e-08
-7.18051e-07
-2.81739e-07
-3.63908e-07
-5.7405e-07
5.12086e-08
-9.52822e-07
5.14843e-07
-1.42338e-06
1.01748e-06
-1.9907e-06
1.55211e-06
-2.65958e-06
2.11379e-06
-3.43474e-06
2.69926e-06
-4.32091e-06
3.30659e-06
-5.32286e-06
3.93488e-06
-6.4454e-06