/*--------------------------------*- C++ -*----------------------------------*\
| =========                 |                                                 |
| \\      /  F ield         | OpenFOAM: The Open Source CFD Toolbox           |
|  \\    /   O peration     | Version:  2112                                  |
|   \\  /    A nd           | Website:  www.openfoam.com                      |
|    \\/     M anipulation  |                                                 |
\*---------------------------------------------------------------------------*/
FoamFile
{
    version     2.0;
    format      ascii;
    arch        "LSB;label=32;scalar=64";
    class       volVectorField;
    location    "20";
    object      U;
}
// * * * * * * * * * * * * * * * * * * * * * * * * * * * * * * * * * * * * * //

dimensions      [0 1 -1 0 0 0 0];

internalField   nonuniform List<vector> 
16641
(
(-3.1793e-06 3.05105e-06 0)
(7.77203e-06 -6.33236e-06 0)
(4.65145e-05 -1.54034e-05 0)
(0.000102517 -2.0927e-05 0)
(0.000168498 -2.35391e-05 0)
(0.000238433 -2.41231e-05 0)
(0.000307709 -2.33557e-05 0)
(0.000373072 -2.17256e-05 0)
(0.00043232 -1.95687e-05 0)
(0.000484005 -1.71123e-05 0)
(0.000527224 -1.45072e-05 0)
(0.00056146 -1.18535e-05 0)
(0.000586457 -9.21384e-06 0)
(0.000602128 -6.62369e-06 0)
(0.000608488 -4.10031e-06 0)
(0.000605594 -1.64467e-06 0)
(0.000593514 7.51448e-07 0)
(0.000572288 3.10234e-06 0)
(0.000541918 5.42801e-06 0)
(0.000502344 7.75122e-06 0)
(0.000453445 1.0096e-05 0)
(0.000395029 1.24873e-05 0)
(0.000326833 1.49499e-05 0)
(0.000248527 1.75071e-05 0)
(0.000159718 2.01808e-05 0)
(5.99544e-05 2.29915e-05 0)
(-5.12649e-05 2.59567e-05 0)
(-0.000174481 2.90918e-05 0)
(-0.000310264 3.24093e-05 0)
(-0.000459202 3.59179e-05 0)
(-0.000621888 3.96225e-05 0)
(-0.000798906 4.35247e-05 0)
(-0.000990816 4.76218e-05 0)
(-0.00119814 5.19071e-05 0)
(-0.00142134 5.63692e-05 0)
(-0.00166081 6.09917e-05 0)
(-0.00191685 6.57536e-05 0)
(-0.00218966 7.06286e-05 0)
(-0.00247933 7.55849e-05 0)
(-0.00278577 8.05856e-05 0)
(-0.00310876 8.55884e-05 0)
(-0.00344792 9.05452e-05 0)
(-0.00380264 9.54025e-05 0)
(-0.00417213 0.000100102 0)
(-0.00455538 0.000104579 0)
(-0.00495116 0.000108766 0)
(-0.00535797 0.00011259 0)
(-0.00577411 0.000115975 0)
(-0.00619759 0.000118841 0)
(-0.0066262 0.000121109 0)
(-0.00705747 0.000122695 0)
(-0.0074887 0.00012352 0)
(-0.00791695 0.000123504 0)
(-0.00833909 0.000122571 0)
(-0.00875178 0.000120648 0)
(-0.00915152 0.000117671 0)
(-0.00953467 0.000113581 0)
(-0.00989749 0.000108333 0)
(-0.0102362 0.000101888 0)
(-0.0105469 9.42237e-05 0)
(-0.0108258 8.53311e-05 0)
(-0.0110691 7.52174e-05 0)
(-0.0112733 6.39075e-05 0)
(-0.0114349 5.14478e-05 0)
(-0.0115507 3.79181e-05 0)
(-0.0116177 2.3429e-05 0)
(-0.0116333 8.03191e-06 0)
(-0.0115953 -8.25281e-06 0)
(-0.0115021 -2.51424e-05 0)
(-0.0113523 -4.24751e-05 0)
(-0.0111452 -6.00818e-05 0)
(-0.0108809 -7.7768e-05 0)
(-0.0105597 -9.5322e-05 0)
(-0.0101829 -0.000112521 0)
(-0.00975228 -0.000129135 0)
(-0.00927041 -0.000144931 0)
(-0.00874044 -0.000159677 0)
(-0.00816623 -0.000173148 0)
(-0.00755221 -0.000185131 0)
(-0.00690344 -0.000195429 0)
(-0.00622545 -0.000203867 0)
(-0.00552425 -0.000210299 0)
(-0.0048062 -0.000214609 0)
(-0.00407794 -0.000216718 0)
(-0.00334629 -0.000216582 0)
(-0.00261811 -0.000214203 0)
(-0.00190021 -0.000209622 0)
(-0.00119925 -0.000202922 0)
(-0.000521582 -0.000194227 0)
(0.00012682 -0.000183702 0)
(0.000740474 -0.000171534 0)
(0.00131449 -0.00015795 0)
(0.00184465 -0.000143198 0)
(0.00232745 -0.000127539 0)
(0.00276014 -0.000111245 0)
(0.00314078 -9.45882e-05 0)
(0.00346824 -7.78375e-05 0)
(0.00374215 -6.12487e-05 0)
(0.00396291 -4.50596e-05 0)
(0.00413161 -2.94846e-05 0)
(0.00425001 -1.47108e-05 0)
(0.00432042 -8.94679e-07 0)
(0.00434563 1.18396e-05 0)
(0.00432883 2.34006e-05 0)
(0.00427351 3.3731e-05 0)
(0.00418335 4.28046e-05 0)
(0.00406218 5.06247e-05 0)
(0.00391383 5.72207e-05 0)
(0.00374207 6.26458e-05 0)
(0.00355057 6.69729e-05 0)
(0.00334281 7.02898e-05 0)
(0.00312206 7.26949e-05 0)
(0.00289131 7.42922e-05 0)
(0.0026533 7.51853e-05 0)
(0.0024105 7.54712e-05 0)
(0.00216515 7.52323e-05 0)
(0.0019193 7.45281e-05 0)
(0.00167489 7.33842e-05 0)
(0.00143388 7.17798e-05 0)
(0.00119837 6.96319e-05 0)
(0.000970806 6.67769e-05 0)
(0.000754191 6.29479e-05 0)
(0.000552338 5.775e-05 0)
(0.000370151 5.06407e-05 0)
(0.000213851 4.09497e-05 0)
(9.08811e-05 2.80445e-05 0)
(9.01731e-06 1.18595e-05 0)
(-2.53579e-05 -5.56117e-06 0)
(-1.50134e-05 -1.5043e-05 0)
(6.28766e-06 -7.85047e-06 0)
(5.20666e-05 -5.20372e-05 0)
(0.000151929 -9.06092e-05 0)
(0.000285491 -0.000115579 0)
(0.000438396 -0.000128197 0)
(0.000598983 -0.000131085 0)
(0.000757386 -0.000126733 0)
(0.000905925 -0.000117223 0)
(0.00103895 -0.000104171 0)
(0.00115243 -8.87872e-05 0)
(0.00124362 -7.19495e-05 0)
(0.00131069 -5.42815e-05 0)
(0.0013525 -3.62048e-05 0)
(0.00136838 -1.79864e-05 0)
(0.00135796 2.26218e-07 0)
(0.001321 1.83746e-05 0)
(0.00125732 3.64681e-05 0)
(0.00116674 5.45643e-05 0)
(0.00104898 7.27544e-05 0)
(0.000903641 9.11511e-05 0)
(0.000730193 0.00010988 0)
(0.00052795 0.000129071 0)
(0.000296068 0.000148854 0)
(3.35531e-05 0.000169353 0)
(-0.000260724 0.000190681 0)
(-0.000588016 0.000212936 0)
(-0.000949672 0.000236201 0)
(-0.00134711 0.000260539 0)
(-0.0017818 0.000285992 0)
(-0.00225519 0.000312575 0)
(-0.00276872 0.000340278 0)
(-0.00332376 0.000369063 0)
(-0.00392154 0.000398862 0)
(-0.00456315 0.000429577 0)
(-0.00524949 0.000461077 0)
(-0.00598118 0.000493199 0)
(-0.00675855 0.000525747 0)
(-0.00758161 0.000558489 0)
(-0.00844996 0.000591161 0)
(-0.00936277 0.000623468 0)
(-0.0103187 0.00065508 0)
(-0.0113161 0.000685638 0)
(-0.0123524 0.000714754 0)
(-0.0134248 0.000742014 0)
(-0.0145297 0.000766982 0)
(-0.0156629 0.000789205 0)
(-0.0168197 0.000808214 0)
(-0.0179947 0.000823534 0)
(-0.0191818 0.000834689 0)
(-0.0203744 0.000841205 0)
(-0.0215652 0.000842624 0)
(-0.0227465 0.000838505 0)
(-0.0239099 0.000828438 0)
(-0.0250468 0.000812048 0)
(-0.0261481 0.000789007 0)
(-0.0272044 0.000759039 0)
(-0.0282062 0.00072193 0)
(-0.0291437 0.000677537 0)
(-0.0300072 0.000625794 0)
(-0.0307872 0.00056672 0)
(-0.0314743 0.000500423 0)
(-0.0320595 0.00042711 0)
(-0.0325342 0.000347088 0)
(-0.0328903 0.000260771 0)
(-0.0331208 0.000168694 0)
(-0.0332192 7.15025e-05 0)
(-0.0331802 -3.0237e-05 0)
(-0.032999 -0.000135611 0)
(-0.0326727 -0.00024364 0)
(-0.0321992 -0.000353333 0)
(-0.0315782 -0.000463614 0)
(-0.0308103 -0.000573329 0)
(-0.0298981 -0.000681271 0)
(-0.0288453 -0.000786193 0)
(-0.0276575 -0.000886831 0)
(-0.0263415 -0.000981923 0)
(-0.0249058 -0.00107023 0)
(-0.0233604 -0.00115056 0)
(-0.0217165 -0.0012218 0)
(-0.0199867 -0.00128292 0)
(-0.0181848 -0.00133303 0)
(-0.0163253 -0.00137135 0)
(-0.0144239 -0.0013973 0)
(-0.0124965 -0.00141047 0)
(-0.0105596 -0.00141063 0)
(-0.0086299 -0.00139778 0)
(-0.00672381 -0.00137212 0)
(-0.00485749 -0.00133407 0)
(-0.0030465 -0.00128425 0)
(-0.00130557 -0.00122351 0)
(0.000351666 -0.00115283 0)
(0.00191282 -0.00107338 0)
(0.00336699 -0.000986461 0)
(0.00470487 -0.000893471 0)
(0.00591889 -0.000795879 0)
(0.0070033 -0.000695184 0)
(0.0079542 -0.000592885 0)
(0.00876954 -0.000490445 0)
(0.00944909 -0.000389254 0)
(0.00999438 -0.000290605 0)
(0.0104085 -0.000195662 0)
(0.0106961 -0.000105445 0)
(0.0108631 -2.08108e-05 0)
(0.0109165 5.7555e-05 0)
(0.0108642 0.000129145 0)
(0.0107149 0.000193625 0)
(0.0104776 0.000250834 0)
(0.0101617 0.000300764 0)
(0.00977656 0.000343552 0)
(0.00933156 0.000379458 0)
(0.00883572 0.000408844 0)
(0.0082977 0.000432145 0)
(0.00772569 0.000449838 0)
(0.00712735 0.000462411 0)
(0.00650981 0.000470322 0)
(0.00587975 0.000473954 0)
(0.00524349 0.000473567 0)
(0.00460715 0.000469242 0)
(0.00397693 0.000460823 0)
(0.0033594 0.000447848 0)
(0.00276185 0.000429493 0)
(0.00219272 0.000404519 0)
(0.00166196 0.000371253 0)
(0.00118134 0.000327665 0)
(0.000764476 0.000271671 0)
(0.00042603 0.000201998 0)
(0.00017954 0.000120074 0)
(3.50118e-05 3.44097e-05 0)
(-5.39424e-06 -2.54126e-05 0)
(1.55619e-05 -4.66612e-05 0)
(9.11758e-05 -0.000152007 0)
(0.00023731 -0.000236547 0)
(0.000424157 -0.000291845 0)
(0.000632637 -0.000319855 0)
(0.000848111 -0.000325141 0)
(0.00105777 -0.000312619 0)
(0.0012512 -0.000286751 0)
(0.00142041 -0.000251242 0)
(0.00155943 -0.000209011 0)
(0.00166396 -0.00016228 0)
(0.00173095 -0.000112673 0)
(0.00175828 -6.13313e-05 0)
(0.00174453 -9.0031e-06 0)
(0.00168869 4.38726e-05 0)
(0.00159 9.7091e-05 0)
(0.0014478 0.00015063 0)
(0.00126143 0.000204602 0)
(0.00103012 0.00025921 0)
(0.000752976 0.000314719 0)
(0.000428919 0.00037143 0)
(5.66712e-05 0.000429659 0)
(-0.000365242 0.000489717 0)
(-0.000838482 0.0005519 0)
(-0.00136488 0.000616472 0)
(-0.00194641 0.000683658 0)
(-0.00258514 0.000753631 0)
(-0.0032832 0.000826509 0)
(-0.00404271 0.000902343 0)
(-0.00486575 0.000981111 0)
(-0.0057543 0.00106272 0)
(-0.00671014 0.00114698 0)
(-0.0077348 0.00123363 0)
(-0.00882952 0.00132232 0)
(-0.00999512 0.00141259 0)
(-0.011232 0.0015039 0)
(-0.0125399 0.00159563 0)
(-0.0139182 0.00168704 0)
(-0.0153655 0.00177732 0)
(-0.0168794 0.00186556 0)
(-0.0184572 0.00195079 0)
(-0.0200949 0.00203194 0)
(-0.021788 0.00210789 0)
(-0.0235309 0.00217745 0)
(-0.0253171 0.00223941 0)
(-0.0271391 0.0022925 0)
(-0.0289885 0.00233546 0)
(-0.0308561 0.00236702 0)
(-0.0327318 0.00238593 0)
(-0.0346044 0.002391 0)
(-0.0364624 0.00238107 0)
(-0.0382931 0.00235508 0)
(-0.0400836 0.00231209 0)
(-0.0418204 0.00225125 0)
(-0.0434895 0.00217188 0)
(-0.0450769 0.00207346 0)
(-0.0465683 0.00195564 0)
(-0.0479496 0.0018183 0)
(-0.0492067 0.00166149 0)
(-0.0503263 0.00148554 0)
(-0.0512951 0.00129097 0)
(-0.052101 0.00107859 0)
(-0.0527323 0.000849426 0)
(-0.0531787 0.000604774 0)
(-0.0534309 0.000346138 0)
(-0.0534813 7.52854e-05 0)
(-0.0533231 -0.000205422 0)
(-0.0529513 -0.000493949 0)
(-0.0523629 -0.000787884 0)
(-0.0515567 -0.00108454 0)
(-0.0505333 -0.00138109 0)
(-0.0492951 -0.00167457 0)
(-0.0478468 -0.00196192 0)
(-0.046195 -0.00224004 0)
(-0.0443483 -0.00250579 0)
(-0.0423173 -0.00275608 0)
(-0.0401148 -0.0029879 0)
(-0.0377552 -0.00319836 0)
(-0.0352548 -0.00338476 0)
(-0.0326315 -0.00354464 0)
(-0.0299047 -0.00367585 0)
(-0.0270949 -0.00377657 0)
(-0.0242239 -0.00384536 0)
(-0.0213141 -0.00388122 0)
(-0.0183884 -0.00388362 0)
(-0.01547 -0.00385251 0)
(-0.012582 -0.00378836 0)
(-0.00974705 -0.00369213 0)
(-0.00698714 -0.00356529 0)
(-0.00432321 -0.00340978 0)
(-0.00177491 -0.003228 0)
(0.000639728 -0.00302273 0)
(0.00290454 -0.00279711 0)
(0.00500542 -0.00255453 0)
(0.00693054 -0.00229862 0)
(0.00867044 -0.0020331 0)
(0.0102182 -0.00176173 0)
(0.0115693 -0.00148824 0)
(0.012722 -0.00121623 0)
(0.0136767 -0.000949089 0)
(0.0144363 -0.000689938 0)
(0.015006 -0.000441576 0)
(0.0153927 -0.000206423 0)
(0.0156054 1.35093e-05 0)
(0.0156542 0.000216638 0)
(0.0155506 0.000401815 0)
(0.0153072 0.000568329 0)
(0.0149369 0.000715869 0)
(0.0144532 0.000844507 0)
(0.0138695 0.000954651 0)
(0.0131993 0.00104699 0)
(0.0124554 0.00112241 0)
(0.0116506 0.00118196 0)
(0.0107967 0.0012267 0)
(0.00990527 0.00125767 0)
(0.00898706 0.00127572 0)
(0.00805256 0.00128142 0)
(0.00711202 0.00127489 0)
(0.00617577 0.00125573 0)
(0.00525463 0.00122283 0)
(0.00436025 0.00117429 0)
(0.0035056 0.0011074 0)
(0.00270529 0.00101867 0)
(0.00197576 0.000904255 0)
(0.00133517 0.000760753 0)
(0.000802116 0.000587104 0)
(0.00039306 0.000387913 0)
(0.000123345 0.000179795 0)
(1.26698e-05 9.81841e-06 0)
(2.13312e-05 -0.000103192 0)
(0.000116813 -0.000286177 0)
(0.00029348 -0.000423616 0)
(0.000512673 -0.000511273 0)
(0.000751371 -0.000553546 0)
(0.000992933 -0.000557583 0)
(0.0012228 -0.000531018 0)
(0.00142895 -0.000480916 0)
(0.00160192 -0.000413309 0)
(0.00173444 -0.000333082 0)
(0.00182101 -0.000244034 0)
(0.00185756 -0.00014901 0)
(0.00184109 -5.0039e-05 0)
(0.00176935 5.15161e-05 0)
(0.00164061 0.000154829 0)
(0.00145344 0.000259495 0)
(0.00120651 0.000365433 0)
(0.000898549 0.000472798 0)
(0.000528154 0.000581916 0)
(9.37874e-05 0.000693227 0)
(-0.00040628 0.000807231 0)
(-0.000973987 0.000924455 0)
(-0.00161148 0.00104542 0)
(-0.00232108 0.0011706 0)
(-0.0031053 0.00130041 0)
(-0.00396673 0.00143521 0)
(-0.00490804 0.00157523 0)
(-0.0059319 0.00172059 0)
(-0.00704091 0.00187129 0)
(-0.0082375 0.00202717 0)
(-0.00952388 0.00218795 0)
(-0.0109019 0.00235314 0)
(-0.0123731 0.00252213 0)
(-0.0139383 0.00269411 0)
(-0.0155979 0.00286808 0)
(-0.0173516 0.00304291 0)
(-0.0191981 0.00321724 0)
(-0.0211354 0.00338959 0)
(-0.0231605 0.00355827 0)
(-0.0252694 0.00372148 0)
(-0.027457 0.00387726 0)
(-0.029717 0.00402353 0)
(-0.0320419 0.0041581 0)
(-0.0344233 0.00427874 0)
(-0.0368512 0.00438312 0)
(-0.0393147 0.00446892 0)
(-0.0418017 0.00453382 0)
(-0.044299 0.00457555 0)
(-0.0467924 0.00459191 0)
(-0.0492668 0.00458084 0)
(-0.0517064 0.00454042 0)
(-0.0540946 0.00446893 0)
(-0.0564142 0.00436487 0)
(-0.0586479 0.00422702 0)
(-0.060778 0.00405444 0)
(-0.0627867 0.00384653 0)
(-0.0646566 0.00360305 0)
(-0.0663706 0.00332411 0)
(-0.0679118 0.00301024 0)
(-0.0692645 0.00266238 0)
(-0.0704136 0.00228186 0)
(-0.0713452 0.00187046 0)
(-0.0720466 0.00143039 0)
(-0.0725065 0.000964251 0)
(-0.0727153 0.000475046 0)
(-0.0726648 -3.38249e-05 0)
(-0.0723489 -0.000558176 0)
(-0.0717637 -0.00109423 0)
(-0.0709068 -0.00163752 0)
(-0.0697782 -0.00218326 0)
(-0.0683802 -0.00272647 0)
(-0.0667172 -0.003262 0)
(-0.0647959 -0.00378457 0)
(-0.0626253 -0.00428885 0)
(-0.0602167 -0.0047695 0)
(-0.0575835 -0.00522128 0)
(-0.0547414 -0.0056391 0)
(-0.051708 -0.0060181 0)
(-0.0485029 -0.00635376 0)
(-0.0451476 -0.00664196 0)
(-0.041665 -0.00687907 0)
(-0.0380794 -0.00706203 0)
(-0.0344166 -0.00718842 0)
(-0.0307028 -0.00725652 0)
(-0.0269652 -0.00726539 0)
(-0.0232311 -0.00721488 0)
(-0.019528 -0.00710568 0)
(-0.0158829 -0.00693932 0)
(-0.0123221 -0.00671816 0)
(-0.00887104 -0.00644538 0)
(-0.00555364 -0.00612492 0)
(-0.00239226 -0.0057614 0)
(0.000592763 -0.00536006 0)
(0.00338331 -0.00492666 0)
(0.00596374 -0.00446732 0)
(0.0083211 -0.00398845 0)
(0.0104452 -0.00349659 0)
(0.0123289 -0.00299824 0)
(0.0139677 -0.0024998 0)
(0.0153604 -0.00200735 0)
(0.0165084 -0.0015266 0)
(0.0174159 -0.00106274 0)
(0.0180896 -0.00062037 0)
(0.0185384 -0.000203412 0)
(0.0187734 0.000184921 0)
(0.0188074 0.000542166 0)
(0.0186544 0.000866619 0)
(0.0183297 0.00115728 0)
(0.0178494 0.00141383 0)
(0.0172296 0.00163659 0)
(0.0164872 0.00182638 0)
(0.0156383 0.00198446 0)
(0.0146993 0.00211233 0)
(0.0136857 0.00221164 0)
(0.0126127 0.00228398 0)
(0.011495 0.0023307 0)
(0.0103469 0.00235266 0)
(0.00918246 0.00235006 0)
(0.0080159 0.00232221 0)
(0.00686183 0.00226732 0)
(0.00573571 0.0021824 0)
(0.00465422 0.00206325 0)
(0.00363556 0.00190471 0)
(0.00269957 0.00170127 0)
(0.00186766 0.00144845 0)
(0.00116156 0.00114539 0)
(0.000601005 0.000798981 0)
(0.000209678 0.000430797 0)
(2.9986e-05 9.47304e-05 0)
(2.41975e-05 -0.000170158 0)
(0.000129846 -0.000439924 0)
(0.000321253 -0.000632079 0)
(0.000553232 -0.000749747 0)
(0.000799617 -0.000801564 0)
(0.00104223 -0.0007981 0)
(0.00126541 -0.00075003 0)
(0.0014562 -0.00066714 0)
(0.00160428 -0.000557843 0)
(0.00170154 -0.000429036 0)
(0.00174167 -0.000286155 0)
(0.0017198 -0.000133315 0)
(0.00163211 2.6507e-05 0)
(0.00147559 0.00019129 0)
(0.00124773 0.000359787 0)
(0.000946362 0.000531366 0)
(0.000569419 0.00070587 0)
(0.000114864 0.000883494 0)
(-0.000419428 0.00106468 0)
(-0.00103573 0.00125005 0)
(-0.00173649 0.00144029 0)
(-0.00252436 0.00163613 0)
(-0.00340217 0.00183829 0)
(-0.00437291 0.00204741 0)
(-0.00543967 0.00226402 0)
(-0.00660561 0.00248854 0)
(-0.00787386 0.00272119 0)
(-0.00924745 0.00296202 0)
(-0.0107292 0.00321086 0)
(-0.0123217 0.00346729 0)
(-0.0140271 0.00373065 0)
(-0.0158469 0.00400001 0)
(-0.0177822 0.00427417 0)
(-0.0198333 0.00455166 0)
(-0.0219994 0.00483071 0)
(-0.024279 0.00510927 0)
(-0.0266695 0.00538505 0)
(-0.0291671 0.00565546 0)
(-0.0317666 0.00591772 0)
(-0.0344617 0.00616879 0)
(-0.0372447 0.00640546 0)
(-0.0401063 0.00662436 0)
(-0.0430362 0.00682201 0)
(-0.0460223 0.00699484 0)
(-0.0490513 0.00713927 0)
(-0.0521088 0.00725173 0)
(-0.0551788 0.00732874 0)
(-0.0582444 0.00736693 0)
(-0.0612878 0.00736316 0)
(-0.0642902 0.00731451 0)
(-0.0672322 0.00721835 0)
(-0.0700937 0.00707244 0)
(-0.0728546 0.00687491 0)
(-0.0754944 0.00662437 0)
(-0.077993 0.00631989 0)
(-0.0803302 0.00596109 0)
(-0.0824865 0.00554813 0)
(-0.0844432 0.00508174 0)
(-0.0861823 0.00456325 0)
(-0.0876869 0.00399459 0)
(-0.0889415 0.00337828 0)
(-0.0899317 0.00271747 0)
(-0.0906451 0.00201585 0)
(-0.0910707 0.00127774 0)
(-0.0911994 0.000507979 0)
(-0.0910239 -0.000288124 0)
(-0.0905392 -0.0011048 0)
(-0.0897425 -0.00193564 0)
(-0.0886329 -0.00277402 0)
(-0.0872119 -0.00361294 0)
(-0.0854832 -0.00444512 0)
(-0.083453 -0.00526308 0)
(-0.0811297 -0.00605919 0)
(-0.078524 -0.00682581 0)
(-0.075649 -0.00755531 0)
(-0.0725199 -0.00824021 0)
(-0.0691543 -0.00887328 0)
(-0.0655716 -0.00944764 0)
(-0.0617935 -0.00995686 0)
(-0.0578433 -0.0103951 0)
(-0.0537459 -0.0107571 0)
(-0.049528 -0.0110386 0)
(-0.0452173 -0.0112361 0)
(-0.0408426 -0.0113469 0)
(-0.0364334 -0.0113696 0)
(-0.0320196 -0.011304 0)
(-0.0276315 -0.0111507 0)
(-0.0232989 -0.0109118 0)
(-0.0190513 -0.0105904 0)
(-0.014917 -0.0101909 0)
(-0.0109234 -0.00971871 0)
(-0.00709605 -0.00918024 0)
(-0.00345884 -0.00858287 0)
(-3.32659e-05 -0.00793474 0)
(0.0031616 -0.00724463 0)
(0.00610944 -0.00652175 0)
(0.00879685 -0.00577562 0)
(0.0112135 -0.00501583 0)
(0.0133523 -0.00425184 0)
(0.0152092 -0.00349284 0)
(0.0167834 -0.00274751 0)
(0.0180774 -0.0020239 0)
(0.0190963 -0.00132925 0)
(0.0198482 -0.000669914 0)
(0.0203435 -5.1217e-05 0)
(0.020595 0.000522554 0)
(0.0206173 0.00104823 0)
(0.0204265 0.00152367 0)
(0.02004 0.00194777 0)
(0.0194759 0.00232036 0)
(0.018753 0.00264211 0)
(0.0178903 0.00291433 0)
(0.0169065 0.00313883 0)
(0.0158205 0.00331763 0)
(0.0146506 0.00345277 0)
(0.0134149 0.00354599 0)
(0.012131 0.00359844 0)
(0.0108165 0.00361036 0)
(0.00948903 0.00358081 0)
(0.00816671 0.0035074 0)
(0.00686825 0.00338617 0)
(0.00561347 0.00321164 0)
(0.0044235 0.00297716 0)
(0.00332104 0.00267573 0)
(0.00233035 0.00230173 0)
(0.00147641 0.0018537 0)
(0.000783151 0.00133861 0)
(0.000283956 0.000778214 0)
(4.41652e-05 0.000223554 0)
(2.49594e-05 -0.000241265 0)
(0.000132389 -0.000600678 0)
(0.000323849 -0.000845645 0)
(0.000550501 -0.000988209 0)
(0.000784062 -0.00104256 0)
(0.00100524 -0.00102345 0)
(0.0011977 -0.000944978 0)
(0.00134802 -0.000819769 0)
(0.00144545 -0.000658632 0)
(0.00148139 -0.000470449 0)
(0.00144901 -0.000262255 0)
(0.0013428 -3.94038e-05 0)
(0.00115829 0.000194211 0)
(0.000891747 0.000435925 0)
(0.000539897 0.000684082 0)
(9.97695e-05 0.000937833 0)
(-0.000431491 0.00119695 0)
(-0.00105673 0.00146165 0)
(-0.00177889 0.00173251 0)
(-0.00260102 0.00201028 0)
(-0.00352634 0.00229585 0)
(-0.00455822 0.00259012 0)
(-0.00570018 0.00289395 0)
(-0.00695582 0.00320808 0)
(-0.00832876 0.0035331 0)
(-0.00982259 0.00386939 0)
(-0.0114407 0.00421707 0)
(-0.0131864 0.00457596 0)
(-0.0150625 0.00494557 0)
(-0.0170714 0.00532505 0)
(-0.0192147 0.00571319 0)
(-0.0214936 0.00610836 0)
(-0.0239081 0.00650855 0)
(-0.0264574 0.00691137 0)
(-0.0291395 0.00731398 0)
(-0.031951 0.0077132 0)
(-0.0348876 0.00810546 0)
(-0.0379429 0.00848683 0)
(-0.0411096 0.0088531 0)
(-0.0443784 0.00919978 0)
(-0.0477388 0.00952215 0)
(-0.0511783 0.00981534 0)
(-0.0546831 0.0100744 0)
(-0.0582379 0.0102942 0)
(-0.0618259 0.01047 0)
(-0.065429 0.0105967 0)
(-0.0690279 0.0106699 0)
(-0.0726024 0.010685 0)
(-0.0761314 0.0106381 0)
(-0.079593 0.0105256 0)
(-0.0829651 0.0103444 0)
(-0.0862252 0.0100919 0)
(-0.089351 0.00976622 0)
(-0.0923201 0.00936606 0)
(-0.0951108 0.00889089 0)
(-0.097702 0.00834087 0)
(-0.100073 0.00771695 0)
(-0.102206 0.00702082 0)
(-0.104081 0.00625496 0)
(-0.105682 0.00542264 0)
(-0.106994 0.00452786 0)
(-0.108004 0.00357538 0)
(-0.1087 0.00257068 0)
(-0.109071 0.00151994 0)
(-0.109111 0.000429972 0)
(-0.108812 -0.000691905 0)
(-0.108172 -0.0018377 0)
(-0.107188 -0.00299886 0)
(-0.105861 -0.00416649 0)
(-0.104194 -0.00533131 0)
(-0.102191 -0.00648374 0)
(-0.0998607 -0.00761398 0)
(-0.0972113 -0.0087121 0)
(-0.0942549 -0.00976817 0)
(-0.0910054 -0.0107723 0)
(-0.087479 -0.0117148 0)
(-0.083694 -0.0125863 0)
(-0.0796706 -0.013378 0)
(-0.0754312 -0.0140814 0)
(-0.0709999 -0.0146889 0)
(-0.0664027 -0.0151938 0)
(-0.0616671 -0.0155903 0)
(-0.0568218 -0.0158736 0)
(-0.051897 -0.0160403 0)
(-0.0469234 -0.0160883 0)
(-0.0419326 -0.0160167 0)
(-0.0369565 -0.0158264 0)
(-0.032027 -0.0155197 0)
(-0.0271756 -0.0151002 0)
(-0.0224332 -0.0145734 0)
(-0.0178296 -0.013946 0)
(-0.0133932 -0.013226 0)
(-0.00915088 -0.0124229 0)
(-0.00512713 -0.0115472 0)
(-0.00134421 -0.0106101 0)
(0.00217831 -0.00962377 0)
(0.00542378 -0.00860073 0)
(0.00837868 -0.00755375 0)
(0.0110327 -0.00649555 0)
(0.0133791 -0.00543866 0)
(0.0154141 -0.004395 0)
(0.0171377 -0.00337582 0)
(0.018553 -0.00239141 0)
(0.0196661 -0.00145092 0)
(0.0204861 -0.000562263 0)
(0.0210249 0.000267994 0)
(0.0212965 0.00103466 0)
(0.0213169 0.00173406 0)
(0.021104 0.00236383 0)
(0.0206768 0.00292291 0)
(0.0200554 0.00341138 0)
(0.0192603 0.00383029 0)
(0.0183125 0.00418139 0)
(0.0172332 0.00446686 0)
(0.0160434 0.00468897 0)
(0.0147638 0.00484973 0)
(0.0134153 0.00495045 0)
(0.0120184 0.00499141 0)
(0.0105939 0.00497143 0)
(0.00916286 0.00488764 0)
(0.00774693 0.00473525 0)
(0.00636871 0.00450766 0)
(0.005052 0.00419686 0)
(0.00382209 0.00379437 0)
(0.0027062 0.00329295 0)
(0.00173284 0.00268939 0)
(0.000930759 0.00198829 0)
(0.000342939 0.00120733 0)
(5.48729e-05 0.000388208 0)
(2.41969e-05 -0.000311389 0)
(0.000126381 -0.000756981 0)
(0.00030477 -0.00104885 0)
(0.000509577 -0.00120844 0)
(0.000711536 -0.00125623 0)
(0.000890743 -0.00121174 0)
(0.00103062 -0.00109274 0)
(0.00111763 -0.000914814 0)
(0.00114089 -0.00069115 0)
(0.00109164 -0.000432533 0)
(0.000962696 -0.000147498 0)
(0.000748119 0.000157462 0)
(0.000442873 0.00047762 0)
(4.25506e-05 0.000809739 0)
(-0.000456849 0.00115181 0)
(-0.0010591 0.00150279 0)
(-0.00176789 0.0018624 0)
(-0.00258692 0.00223091 0)
(-0.00351995 0.00260898 0)
(-0.00457086 0.0029975 0)
(-0.00574364 0.0033975 0)
(-0.0070424 0.00380998 0)
(-0.00847127 0.00423588 0)
(-0.0100344 0.00467598 0)
(-0.0117358 0.00513079 0)
(-0.0135795 0.00560053 0)
(-0.0155689 0.00608507 0)
(-0.0177072 0.00658383 0)
(-0.019997 0.00709581 0)
(-0.0224403 0.0076195 0)
(-0.025038 0.0081529 0)
(-0.0277902 0.00869345 0)
(-0.0306957 0.00923806 0)
(-0.0337522 0.00978312 0)
(-0.0369559 0.0103245 0)
(-0.0403013 0.0108575 0)
(-0.0437817 0.0113771 0)
(-0.0473882 0.0118776 0)
(-0.0511105 0.0123534 0)
(-0.0549364 0.0127981 0)
(-0.0588521 0.0132054 0)
(-0.0628419 0.0135689 0)
(-0.0668887 0.0138818 0)
(-0.0709739 0.0141378 0)
(-0.0750772 0.0143305 0)
(-0.0791775 0.014454 0)
(-0.0832526 0.0145024 0)
(-0.0872792 0.0144706 0)
(-0.0912339 0.014354 0)
(-0.0950927 0.0141485 0)
(-0.0988315 0.0138509 0)
(-0.102426 0.0134586 0)
(-0.105854 0.0129701 0)
(-0.10909 0.0123846 0)
(-0.112114 0.0117023 0)
(-0.114905 0.0109242 0)
(-0.117441 0.0100524 0)
(-0.119704 0.00908991 0)
(-0.121678 0.00804057 0)
(-0.123346 0.00690923 0)
(-0.124694 0.00570157 0)
(-0.12571 0.00442413 0)
(-0.126383 0.00308424 0)
(-0.126705 0.00168998 0)
(-0.12667 0.000250171 0)
(-0.126272 -0.00122563 0)
(-0.125508 -0.00272752 0)
(-0.124378 -0.00424483 0)
(-0.122884 -0.00576651 0)
(-0.121028 -0.0072811 0)
(-0.118816 -0.00877681 0)
(-0.116256 -0.0102417 0)
(-0.113358 -0.0116635 0)
(-0.110132 -0.0130303 0)
(-0.106594 -0.0143298 0)
(-0.102759 -0.0155504 0)
(-0.0986459 -0.0166806 0)
(-0.0942743 -0.0177094 0)
(-0.0896666 -0.0186266 0)
(-0.084847 -0.0194227 0)
(-0.0798414 -0.0200893 0)
(-0.0746775 -0.0206189 0)
(-0.0693844 -0.0210057 0)
(-0.0639926 -0.0212449 0)
(-0.0585338 -0.0213337 0)
(-0.0530404 -0.0212706 0)
(-0.0475455 -0.0210561 0)
(-0.0420824 -0.0206926 0)
(-0.0366844 -0.0201841 0)
(-0.0313843 -0.0195368 0)
(-0.0262143 -0.0187585 0)
(-0.0212053 -0.0178588 0)
(-0.0163866 -0.0168489 0)
(-0.0117858 -0.0157413 0)
(-0.00742817 -0.0145499 0)
(-0.00333647 -0.0132896 0)
(0.000469416 -0.0119759 0)
(0.00397271 -0.0106247 0)
(0.00715985 -0.00925217 0)
(0.0100207 -0.00787422 0)
(0.0125488 -0.00650624 0)
(0.0147411 -0.00516291 0)
(0.016598 -0.00385783 0)
(0.0181233 -0.00260337 0)
(0.0193243 -0.00141039 0)
(0.0202109 -0.000288157 0)
(0.0207961 0.000755742 0)
(0.0210952 0.00171556 0)
(0.0211257 0.00258722 0)
(0.0209068 0.00336833 0)
(0.020459 0.00405794 0)
(0.019804 0.00465641 0)
(0.0189642 0.00516511 0)
(0.0179626 0.00558603 0)
(0.016822 0.00592141 0)
(0.0155659 0.00617332 0)
(0.0142175 0.00634312 0)
(0.0128 0.00643104 0)
(0.0113369 0.0064357 0)
(0.00985195 0.00635377 0)
(0.0083695 0.00617976 0)
(0.00691468 0.00590604 0)
(0.00551383 0.00552327 0)
(0.00419486 0.00502128 0)
(0.00298801 0.00439064 0)
(0.00192553 0.00362514 0)
(0.0010411 0.00272488 0)
(0.000386227 0.00170033 0)
(6.23806e-05 0.000579931 0)
(2.22995e-05 -0.000376472 0)
(0.000113353 -0.000898866 0)
(0.000267084 -0.00122767 0)
(0.000435083 -0.00139359 0)
(0.000588219 -0.00142372 0)
(0.000706552 -0.00134259 0)
(0.000773693 -0.00117184 0)
(0.000776338 -0.000930023 0)
(0.000703781 -0.000632631 0)
(0.000547265 -0.000292227 0)
(0.000299478 8.12973e-05 0)
(-4.58335e-05 0.000480458 0)
(-0.00049418 0.000899825 0)
(-0.00105058 0.0013357 0)
(-0.00171975 0.00178579 0)
(-0.00250626 0.00224894 0)
(-0.00341464 0.00272484 0)
(-0.00444944 0.00321379 0)
(-0.00561528 0.00371654 0)
(-0.00691685 0.00423408 0)
(-0.00835891 0.0047675 0)
(-0.00994622 0.00531787 0)
(-0.0116835 0.00588608 0)
(-0.0135753 0.0064728 0)
(-0.015626 0.00707835 0)
(-0.0178396 0.00770261 0)
(-0.0202196 0.008345 0)
(-0.0227688 0.00900436 0)
(-0.0254893 0.00967892 0)
(-0.0283822 0.0103663 0)
(-0.0314475 0.0110634 0)
(-0.0346839 0.0117664 0)
(-0.0380885 0.012471 0)
(-0.0416571 0.013172 0)
(-0.0453837 0.0138636 0)
(-0.0492605 0.0145395 0)
(-0.0532778 0.0151928 0)
(-0.0574241 0.0158162 0)
(-0.0616859 0.0164019 0)
(-0.066048 0.016942 0)
(-0.0704931 0.0174283 0)
(-0.0750025 0.0178526 0)
(-0.0795558 0.0182069 0)
(-0.0841313 0.0184833 0)
(-0.0887061 0.0186743 0)
(-0.0932561 0.0187728 0)
(-0.097757 0.0187723 0)
(-0.102183 0.0186671 0)
(-0.10651 0.0184523 0)
(-0.110712 0.0181239 0)
(-0.114764 0.0176787 0)
(-0.118642 0.0171148 0)
(-0.122322 0.0164311 0)
(-0.12578 0.0156278 0)
(-0.128997 0.0147061 0)
(-0.13195 0.0136683 0)
(-0.134621 0.0125178 0)
(-0.136993 0.0112591 0)
(-0.139049 0.00989763 0)
(-0.140775 0.00843991 0)
(-0.142159 0.00689336 0)
(-0.143188 0.00526628 0)
(-0.143855 0.00356785 0)
(-0.144152 0.00180796 0)
(-0.144073 -2.66554e-06 0)
(-0.143614 -0.0018524 0)
(-0.142772 -0.00372959 0)
(-0.141549 -0.00562161 0)
(-0.139944 -0.00751543 0)
(-0.137963 -0.00939757 0)
(-0.135609 -0.0112543 0)
(-0.132891 -0.0130715 0)
(-0.129817 -0.014835 0)
(-0.126398 -0.0165307 0)
(-0.122649 -0.0181444 0)
(-0.118584 -0.0196623 0)
(-0.114221 -0.0210708 0)
(-0.109579 -0.0223569 0)
(-0.104679 -0.0235085 0)
(-0.099545 -0.0245141 0)
(-0.0942027 -0.0253634 0)
(-0.0886791 -0.0260475 0)
(-0.0830033 -0.0265587 0)
(-0.0772058 -0.0268912 0)
(-0.0713186 -0.0270409 0)
(-0.0653748 -0.0270054 0)
(-0.0594084 -0.0267849 0)
(-0.0534539 -0.0263812 0)
(-0.0475461 -0.0257987 0)
(-0.0417198 -0.0250439 0)
(-0.036009 -0.0241254 0)
(-0.0304472 -0.0230541 0)
(-0.0250664 -0.0218427 0)
(-0.019897 -0.0205058 0)
(-0.0149673 -0.0190596 0)
(-0.0103032 -0.0175215 0)
(-0.00592794 -0.01591 0)
(-0.00186161 -0.0142442 0)
(0.00187878 -0.0125436 0)
(0.00527982 -0.0108277 0)
(0.00833183 -0.00911537 0)
(0.0110286 -0.00742497 0)
(0.0133677 -0.00577367 0)
(0.0153503 -0.00417728 0)
(0.0169812 -0.00264997 0)
(0.0182684 -0.00120408 0)
(0.0192232 0.000150069 0)
(0.0198595 0.00140416 0)
(0.0201941 0.00255198 0)
(0.0202456 0.00358932 0)
(0.0200347 0.00451379 0)
(0.0195835 0.00532465 0)
(0.0189153 0.00602245 0)
(0.0180541 0.00660865 0)
(0.0170248 0.00708517 0)
(0.0158525 0.00745387 0)
(0.0145624 0.007716 0)
(0.0131802 0.00787162 0)
(0.0117318 0.00791911 0)
(0.0102433 0.00785469 0)
(0.00874155 0.00767219 0)
(0.00725407 0.00736299 0)
(0.0058097 0.00691633 0)
(0.004439 0.00632007 0)
(0.00317524 0.00556204 0)
(0.00205441 0.00463192 0)
(0.00111472 0.00352375 0)
(0.000414634 0.00223878 0)
(6.70855e-05 0.000790341 0)
(1.95076e-05 -0.000433209 0)
(9.43984e-05 -0.00101773 0)
(0.000213199 -0.00136956 0)
(0.000330821 -0.00152832 0)
(0.000419303 -0.00152768 0)
(0.000459275 -0.00139723 0)
(0.000434999 -0.00116247 0)
(0.000333761 -0.000844853 0)
(0.000145286 -0.000462034 0)
(-0.00013897 -2.81857e-05 0)
(-0.000526314 0.000445652 0)
(-0.0010232 0.00095118 0)
(-0.00163553 0.00148243 0)
(-0.00236891 0.00203538 0)
(-0.00322874 0.00260757 0)
(-0.00422037 0.00319777 0)
(-0.00534916 0.00380568 0)
(-0.00662052 0.00443166 0)
(-0.00803991 0.00507651 0)
(-0.0096128 0.00574126 0)
(-0.0113446 0.00642699 0)
(-0.0132408 0.0071347 0)
(-0.0153064 0.00786513 0)
(-0.0175465 0.00861869 0)
(-0.0199654 0.0093953 0)
(-0.022567 0.0101943 0)
(-0.0253546 0.0110145 0)
(-0.0283303 0.0118538 0)
(-0.0314955 0.0127095 0)
(-0.0348501 0.013578 0)
(-0.0383926 0.0144549 0)
(-0.04212 0.0153348 0)
(-0.0460276 0.0162117 0)
(-0.0501088 0.0170788 0)
(-0.0543551 0.0179283 0)
(-0.0587559 0.0187521 0)
(-0.0632986 0.0195411 0)
(-0.0679687 0.0202863 0)
(-0.0727496 0.0209778 0)
(-0.0776228 0.0216058 0)
(-0.082568 0.0221605 0)
(-0.0875636 0.0226321 0)
(-0.0925862 0.0230112 0)
(-0.0976117 0.0232886 0)
(-0.102615 0.0234559 0)
(-0.10757 0.0235055 0)
(-0.11245 0.0234303 0)
(-0.11723 0.0232245 0)
(-0.121882 0.0228834 0)
(-0.126383 0.0224031 0)
(-0.130706 0.0217813 0)
(-0.134827 0.0210167 0)
(-0.138724 0.0201094 0)
(-0.142375 0.0190605 0)
(-0.145759 0.0178728 0)
(-0.148856 0.0165497 0)
(-0.151651 0.0150964 0)
(-0.154125 0.0135188 0)
(-0.156265 0.011824 0)
(-0.158059 0.0100201 0)
(-0.159493 0.00811627 0)
(-0.16056 0.00612242 0)
(-0.16125 0.00404941 0)
(-0.161557 0.00190884 0)
(-0.161476 -0.000286888 0)
(-0.161002 -0.00252468 0)
(-0.160135 -0.00479092 0)
(-0.158874 -0.00707134 0)