/*--------------------------------*- C++ -*----------------------------------*\
| =========                 |                                                 |
| \\      /  F ield         | OpenFOAM: The Open Source CFD Toolbox           |
|  \\    /   O peration     | Version:  2112                                  |
|   \\  /    A nd           | Website:  www.openfoam.com                      |
|    \\/     M anipulation  |                                                 |
\*---------------------------------------------------------------------------*/
FoamFile
{
    version     2.0;
    format      ascii;
    arch        "LSB;label=32;scalar=64";
    class       volScalarField;
    location    "34";
    object      p;
}
// * * * * * * * * * * * * * * * * * * * * * * * * * * * * * * * * * * * * * //

dimensions      [0 2 -2 0 0 0 0];

internalField   nonuniform List<scalar> 
16641
(
5.56008e-07
1.51194e-05
2.92432e-05
3.8009e-05
3.78647e-05
2.69657e-05
4.73084e-06
-2.86833e-05
-7.27111e-05
-0.00012657
-0.000189383
-0.00026026
-0.000338365
-0.00042296
-0.000513429
-0.000609291
-0.000710209
-0.00081598
-0.000926532
-0.0010419
-0.00116223
-0.0012877
-0.00141857
-0.00155511
-0.00169759
-0.00184627
-0.00200135
-0.00216299
-0.0023313
-0.00250628
-0.00268787
-0.00287588
-0.00307007
-0.00327002
-0.00347526
-0.00368515
-0.00389895
-0.00411577
-0.00433459
-0.00455426
-0.00477347
-0.00499079
-0.00520464
-0.00541333
-0.00561504
-0.00580783
-0.00598969
-0.00615853
-0.0063122
-0.00644856
-0.00656544
-0.00666075
-0.00673245
-0.00677863
-0.00679754
-0.00678762
-0.00674755
-0.0066763
-0.00657315
-0.00643776
-0.00627015
-0.00607081
-0.00584065
-0.00558105
-0.0052939
-0.00498154
-0.0046468
-0.00429289
-0.00392375
-0.00354345
-0.0031565
-0.00276773
-0.0023822
-0.00200514
-0.00164185
-0.0012976
-0.000977559
-0.000686691
-0.000429624
-0.000210578
-3.3259e-05
9.92263e-05
0.000184444
0.000220698
0.000207071
0.000143457
3.05642e-05
-0.000130097
-0.000336245
-0.000584879
-0.000872483
-0.00119472
-0.00154707
-0.00192458
-0.00232211
-0.0027344
-0.00315625
-0.0035826
-0.00400862
-0.00442981
-0.00484209
-0.00524183
-0.00562591
-0.00599173
-0.0063372
-0.00666078
-0.00696139
-0.00723843
-0.00749169
-0.00772134
-0.00792786
-0.00811195
-0.00827452
-0.00841658
-0.00853924
-0.00864359
-0.0087307
-0.00880156
-0.00885705
-0.00889794
-0.00892488
-0.00893849
-0.00893943
-0.0089286
-0.00890743
-0.00887838
-0.00884555
-0.00881506
-0.00879635
-1.33689e-05
9.98938e-07
1.08852e-05
1.47995e-05
1.10527e-05
-1.81305e-06
-2.44318e-05
-5.6847e-05
-9.87471e-05
-0.000149602
-0.000208758
-0.000275525
-0.000349229
-0.000429263
-0.000515106
-0.000606345
-0.000702682
-0.000803935
-0.000910028
-0.00102098
-0.00113689
-0.00125793
-0.0013843
-0.00151623
-0.00165396
-0.00179769
-0.00194762
-0.00210388
-0.00226656
-0.00243568
-0.00261117
-0.00279287
-0.00298055
-0.00317384
-0.00337231
-0.00357536
-0.0037823
-0.00399232
-0.00420446
-0.00441764
-0.00463063
-0.00484209
-0.00505052
-0.00525431
-0.00545173
-0.00564093
-0.00582
-0.00598692
-0.00613964
-0.00627607
-0.00639413
-0.00649179
-0.00656706
-0.00661807
-0.00664311
-0.00664063
-0.00660932
-0.00654815
-0.00645638
-0.00633362
-0.00617986
-0.00599549
-0.00578137
-0.00553876
-0.00526944
-0.00497568
-0.00466019
-0.00432597
-0.00397669
-0.00361638
-0.00324936
-0.00288027
-0.00251398
-0.00215551
-0.00180998
-0.00148247
-0.00117797
-0.000901255
-0.000656786
-0.000448632
-0.000280363
-0.000154969
-7.47903e-05
-4.14538e-05
-5.58326e-05
-0.00011802
-0.000227324
-0.000382281
-0.000580694
-0.000819679
-0.00109576
-0.00140496
-0.00174278
-0.00210455
-0.00248534
-0.00288014
-0.00328399
-0.00369208
-0.00409983
-0.00450298
-0.00489766
-0.00528046
-0.00564842
-0.00599911
-0.00633057
-0.00664133
-0.0069304
-0.0071972
-0.00744153
-0.00766356
-0.0078637
-0.00804261
-0.00820112
-0.00834019
-0.00846081
-0.00856405
-0.0086509
-0.00872234
-0.00877927
-0.00882251
-0.00885281
-0.00887093
-0.0088777
-0.00887413
-0.00886164
-0.00884235
-0.00881937
-0.00879647
-0.00877766
-2.72944e-05
-8.72931e-06
1.15727e-06
3.52491e-06
-1.66607e-06
-1.54203e-05
-3.8215e-05
-7.00645e-05
-0.000110712
-0.000159716
-0.000216527
-0.000280552
-0.00035121
-0.000427966
-0.000510365
-0.000598039
-0.000690726
-0.000788265
-0.00089059
-0.000997725
-0.00110977
-0.00122687
-0.00134922
-0.00147705
-0.00161056
-0.00174998
-0.00189546
-0.00204717
-0.00220518
-0.00236952
-0.00254015
-0.00271693
-0.00289966
-0.00308803
-0.0032816
-0.00347987
-0.00368219
-0.0038878
-0.00409579
-0.00430516
-0.00451475
-0.00472326
-0.00492927
-0.00513124
-0.00532747
-0.0055162
-0.00569554
-0.00586352
-0.00601813
-0.00615732
-0.00627901
-0.00638118
-0.00646185
-0.00651914
-0.00655131
-0.0065568
-0.00653425
-0.00648257
-0.00640098
-0.00628903
-0.00614662
-0.00597409
-0.00577218
-0.00554208
-0.00528551
-0.0050047
-0.0047018
-0.00438042
-0.00404381
-0.00369587
-0.00334086
-0.00298333
-0.00262807
-0.00228002
-0.00194421
-0.00162567
-0.00132932
-0.00105988
-0.000821752
-0.000618974
-0.000455074
-0.000333016
-0.000255116
-0.000222989
-0.000237498
-0.000298737
-0.000406021
-0.000557902
-0.000752204
-0.000986081
-0.00125609
-0.00155827
-0.00188827
-0.00224143
-0.00261288
-0.00299775
-0.00339117
-0.00378842
-0.00418505
-0.00457693
-0.0049603
-0.00533188
-0.00568883
-0.00602884
-0.00635005
-0.0066511
-0.00693107
-0.00718946
-0.00742612
-0.00764124
-0.00783527
-0.00800889
-0.00816291
-0.00829828
-0.008416
-0.0085171
-0.00860259
-0.00867344
-0.00873055
-0.00877477
-0.00880688
-0.00882765
-0.00883787
-0.00883848
-0.00883061
-0.00881588
-0.00879651
-0.00877366
-0.008747
-3.612e-05
-1.26051e-05
-1.20412e-06
1.07424e-06
-4.56831e-06
-1.87244e-05
-4.16438e-05
-7.32095e-05
-0.000113116
-0.000160926
-0.000216118
-0.000278143
-0.000346465
-0.000420596
-0.000500119
-0.000584709
-0.000674131
-0.000768252
-0.000867029
-0.000970503
-0.00107878
-0.00119203
-0.00131045
-0.00143427
-0.0015637
-0.00169897
-0.00184028
-0.00198776
-0.00214155
-0.00230167
-0.00246813
-0.00264082
-0.00281957
-0.00300412
-0.0031941
-0.00338904
-0.00358836
-0.00379135
-0.00399717
-0.00420488
-0.00441335
-0.00462137
-0.00482755
-0.00503039
-0.00522825
-0.00541936
-0.00560187
-0.00577383
-0.0059332
-0.00607793
-0.00620593
-0.00631513
-0.0064035
-0.00646913
-0.0065102
-0.00652508
-0.00651235
-0.00647084
-0.00639967
-0.00629831
-0.00616658
-0.00600472
-0.0058134
-0.00559373
-0.00534745
-0.00507702
-0.00478304
-0.00447051
-0.00414237
-0.00380235
-0.00345468
-0.00310385
-0.00275465
-0.002412
-0.00208093
-0.00176646
-0.00147353
-0.00120687
-0.000970926
-0.000769741
-0.000606878
-0.00048533
-0.000407443
-0.000374855
-0.000388454
-0.00044835
-0.000553869
-0.000703566
-0.000895266
-0.00112611
-0.00139266
-0.00169092
-0.00201651
-0.00236487
-0.00273096
-0.00311
-0.00349711
-0.00388761
-0.00427705
-0.00466136
-0.00503685
-0.00540029
-0.00574894
-0.00608055
-0.00639338
-0.00668615
-0.00695805
-0.00720864
-0.00743789
-0.00764605
-0.00783364
-0.00800139
-0.00815017
-0.00828097
-0.00839481
-0.00849275
-0.00857582
-0.008645
-0.00870122
-0.0087453
-0.00877803
-0.0088001
-0.0088122
-0.00881504
-0.00880938
-0.00879631
-0.00877724
-0.00875113
-0.00871439
-3.62203e-05
-8.93822e-06
3.80711e-06
6.19202e-06
2.5654e-07
-1.42736e-05
-3.74335e-05
-6.89565e-05
-0.000108455
-0.000155457
-0.000209439
-0.000269862
-0.000336214
-0.000408033
-0.000484938
-0.000566632
-0.000652917
-0.00074369
-0.000838939
-0.000938732
-0.00104321
-0.00115255
-0.00126699
-0.00138677
-0.00151215
-0.00164336
-0.00178062
-0.00192413
-0.00207402
-0.00223039
-0.00239325
-0.00256258
-0.00273824
-0.00292003
-0.00310764
-0.00330067
-0.00349859
-0.00370076
-0.00390641
-0.00411463
-0.00432437
-0.00453445
-0.00474351
-0.00495007
-0.00515251
-0.00534906
-0.00553786
-0.00571693
-0.0058842
-0.00603755
-0.00617483
-0.00629392
-0.0063927
-0.00646915
-0.00652137
-0.00654764
-0.00654641
-0.00651643
-0.00645672
-0.00636663
-0.0062459
-0.00609468
-0.00591356
-0.00570359
-0.00546617
-0.00520273
-0.00491781
-0.00461251
-0.0042906
-0.00395601
-0.00361294
-0.00326592
-0.00291972
-0.00257931
-0.00224975
-0.00193609
-0.00164334
-0.00137628
-0.00113941
-0.000936851
-0.000772241
-0.000648638
-0.000568453
-0.000533385
-0.000544374
-0.000601569
-0.000704326
-0.000851215
-0.00104006
-0.001268
-0.00153154
-0.00182668
-0.002149
-0.00249378
-0.00285611
-0.00323103
-0.00361364
-0.00399922
-0.00438332
-0.00476183
-0.00513108
-0.00548788
-0.00582951
-0.0061538
-0.00645907
-0.00674413
-0.00700826
-0.00725114
-0.00747282
-0.00767366
-0.00785426
-0.00801545
-0.00815818
-0.0082835
-0.00839251
-0.0084863
-0.00856595
-0.00863248
-0.00868681
-0.00872977
-0.00876211
-0.00878444
-0.0087973
-0.00880116
-0.00879641
-0.00878363
-0.00876359
-0.00873339
-0.00868682
-2.55964e-05
3.84134e-06
1.72779e-05
1.95322e-05
1.31379e-05
-1.94984e-06
-2.55851e-05
-5.73603e-05
-9.67972e-05
-0.000143372
-0.000196534
-0.000255737
-0.000320474
-0.000390303
-0.000464866
-0.000543896
-0.00062723
-0.000714803
-0.000806641
-0.000902853
-0.00100362
-0.00110916
-0.00121975
-0.00133568
-0.00145723
-0.00158469
-0.00171832
-0.00185837
-0.00200503
-0.00215843
-0.00231867
-0.00248577
-0.00265967
-0.00284023
-0.00302721
-0.00322029
-0.00341899
-0.00362274
-0.00383083
-0.0040424
-0.00425643
-0.00447175
-0.00468704
-0.0049008
-0.00511139
-0.00531701
-0.00551575
-0.00570555
-0.00588428
-0.00604972
-0.00619962
-0.00633174
-0.00644384
-0.0065338
-0.00659958
-0.00663933
-0.00665141
-0.00663441
-0.00658727
-0.00650924
-0.00639995
-0.00625946
-0.00608829
-0.00588745
-0.00565835
-0.0054027
-0.00512348
-0.00482331
-0.00450561
-0.00417421
-0.00383332
-0.00348748
-0.00314151
-0.00280041
-0.00246929
-0.00215331
-0.00185751
-0.00158678
-0.00134574
-0.00113858
-0.000969069
-0.000840356
-0.000754961
-0.00071468
-0.000720539
-0.00077276
-0.000870756
-0.00101314
-0.00119775
-0.00142172
-0.00168155
-0.00197318
-0.00229213
-0.00263362
-0.00299265
-0.00336417
-0.0037432
-0.00412494
-0.00450485
-0.00487877
-0.005243
-0.00559431
-0.00593
-0.00624791
-0.00654641
-0.00682438
-0.00708116
-0.00731655
-0.00753068
-0.00772402
-0.00789731
-0.00805145
-0.00818751
-0.00830663
-0.00840998
-0.00849876
-0.00857408
-0.00863701
-0.00868849
-0.00872936
-0.00876031
-0.00878189
-0.0087945
-0.00879835
-0.00879352
-0.00878019
-0.00875858
-0.00872442
-0.00866945
-3.34956e-06
2.66147e-05
3.98952e-05
4.15411e-05
3.43182e-05
1.83452e-05
-6.08726e-06
-3.84526e-05
-7.81857e-05
-0.000124703
-0.000177417
-0.000235762
-0.000299231
-0.000367391
-0.000439905
-0.00051654
-0.000597168
-0.000681768
-0.000770416
-0.000863273
-0.000960569
-0.00106259
-0.00116966
-0.00128211
-0.00140032
-0.00152461
-0.00165533
-0.00179277
-0.0019372
-0.00208884
-0.00224785
-0.00241432
-0.00258828
-0.00276968
-0.00295835
-0.00315402
-0.00335631
-0.00356469
-0.00377849
-0.00399689
-0.00421888
-0.0044433
-0.00466879
-0.00489382
-0.0051167
-0.00533554
-0.00554834
-0.00575293
-0.00594705
-0.00612836
-0.00629447
-0.00644299
-0.00657154
-0.00667784
-0.00675972
-0.00681519
-0.00684247
-0.00684005
-0.00680674
-0.00674169
-0.00664445
-0.006515
-0.00635378
-0.00616173
-0.00594028
-0.00569113
-0.00541695
-0.00512061
-0.00480549
-0.0044754
-0.00413458
-0.00378758
-0.00343927
-0.00309471
-0.0027591
-0.00243764
-0.00213552
-0.00185772
-0.00160897
-0.00139363
-0.00121556
-0.0010781
-0.000983881
-0.00093485
-0.000932158
-0.000976145
-0.00106632
-0.00120137
-0.00137919
-0.00159694
-0.00185112
-0.00213763
-0.00245196
-0.00278923
-0.00314435
-0.00351218
-0.00388761
-0.00426572
-0.00464187
-0.00501179
-0.00537169
-0.00571828
-0.00604882
-0.00636111
-0.00665355
-0.00692503
-0.00717496
-0.0074032
-0.00760998
-0.00779588
-0.00796174
-0.00810858
-0.00823758
-0.00834999
-0.00844709
-0.00853016
-0.0086004
-0.00865892
-0.00870672
-0.00874462
-0.00877331
-0.00879325
-0.00880473
-0.00880779
-0.0088022
-0.00878784
-0.00876455
-0.00872705
-0.00866568
3.08347e-05
5.97996e-05
7.19984e-05
7.24202e-05
6.38751e-05
4.6599e-05
2.09943e-05
-1.23186e-05
-5.26987e-05
-9.95053e-05
-0.000152112
-0.000209935
-0.000272461
-0.000339267
-0.00041004
-0.000484578
-0.000562801
-0.000644737
-0.000730522
-0.00082038
-0.00091461
-0.00101357
-0.00111765
-0.00122728
-0.00134289
-0.0014649
-0.00159374
-0.0017298
-0.00187342
-0.00202492
-0.00218456
-0.00235252
-0.00252892
-0.00271379
-0.00290705
-0.0031085
-0.00331781
-0.00353451
-0.00375795
-0.00398731
-0.00422156
-0.00445951
-0.00469974
-0.00494064
-0.0051804
-0.00541704
-0.00564839
-0.00587214
-0.00608587
-0.00628708
-0.00647319
-0.00664165
-0.00678991
-0.00691554
-0.0070162
-0.00708977
-0.00713434
-0.00714828
-0.00713029
-0.00707941
-0.00699513
-0.00687734
-0.00672643
-0.00654325
-0.00632912
-0.00608602
-0.00581631
-0.00552288
-0.00520911
-0.00487884
-0.00453631
-0.00418611
-0.00383314
-0.00348253
-0.00313954
-0.00280949
-0.00249765
-0.00220916
-0.00194887
-0.00172131
-0.00153053
-0.00138002
-0.00127261
-0.00121044
-0.00119483
-0.00122629
-0.00130447
-0.0014282
-0.00159546
-0.00180348
-0.0020488
-0.00232733
-0.00263452
-0.00296542
-0.00331488
-0.00367761
-0.0040484
-0.00442217
-0.00479415
-0.00515994
-0.0055156
-0.00585774
-0.00618351
-0.00649068
-0.00677758
-0.00704311
-0.00728669
-0.00750822
-0.007708
-0.00788669
-0.00804524
-0.00818477
-0.00830658
-0.00841205
-0.00850255
-0.00857947
-0.00864409
-0.00869761
-0.00874107
-0.00877533
-0.00880105
-0.00881867
-0.00882838
-0.00883008
-0.00882335
-0.00880782
-0.00878305
-0.00874315
-0.00867755
7.69669e-05
0.000103543
0.000113741
0.000112275
0.000101863
8.28279e-05
5.5656e-05
2.10377e-05
-2.03251e-05
-6.77446e-05
-0.000120563
-0.000178179
-0.000240081
-0.000305859
-0.000375226
-0.000448022
-0.000524218
-0.000603905
-0.000687287
-0.000774665
-0.000866423
-0.000963002
-0.00106489
-0.00117262
-0.0012867
-0.00140769
-0.00153609
-0.0016724
-0.0018171
-0.0019706
-0.00213327
-0.0023054
-0.00248722
-0.00267883
-0.00288023
-0.0030913
-0.00331175
-0.00354111
-0.00377874
-0.00402378
-0.00427518
-0.00453164
-0.00479164
-0.00505344
-0.00531509
-0.00557442
-0.0058291
-0.00607663
-0.00631439
-0.00653968
-0.00674973
-0.00694181
-0.00711319
-0.00726126
-0.00738355
-0.00747779
-0.00754193
-0.00757425
-0.00757332
-0.00753813
-0.00746805
-0.00736293
-0.00722307
-0.00704928
-0.00684282
-0.00660568
-0.00634012
-0.00604903
-0.00573577
-0.00540415
-0.00505843
-0.00470321
-0.00434344
-0.00398427
-0.00363106
-0.0032892
-0.0029641
-0.00266102
-0.00238499
-0.00214072
-0.00193246
-0.00176392
-0.00163818
-0.00155759
-0.00152373
-0.00153731
-0.00159822
-0.00170545
-0.00185716
-0.00205071
-0.00228271
-0.00254913
-0.00284543
-0.00316662
-0.00350748
-0.00386263
-0.00422671
-0.0045945
-0.00496107
-0.00532183
-0.0056727
-0.00601012
-0.00633112
-0.00663334
-0.00691503
-0.00717503
-0.00741274
-0.00762804
-0.00782129
-0.0079932
-0.00814478
-0.00827726
-0.00839204
-0.00849059
-0.00857443
-0.00864503
-0.00870379
-0.00875197
-0.00879069
-0.00882086
-0.00884314
-0.00885798
-0.0088655
-0.00886552
-0.00885749
-0.00884087
-0.00881505
-0.00877379
-0.0087061
0.000134885
0.00015781
0.000165132
0.000161121
0.000148295
0.000127044
9.79182e-05
6.16538e-05
1.89942e-05
-2.934e-05
-8.26703e-05
-0.000140391
-0.000201994
-0.000267094
-0.000335441
-0.000406923
-0.000481572
-0.000559553
-0.000641154
-0.000726767
-0.000816873
-0.000912022
-0.00101282
-0.00111989
-0.0012339
-0.0013555
-0.00148535
-0.00162407
-0.00177225
-0.00193044
-0.00209914
-0.00227875
-0.00246959
-0.00267187
-0.00288564
-0.00311082
-0.00334714
-0.00359413
-0.0038511
-0.00411713
-0.00439106
-0.00467146
-0.00495666
-0.00524474
-0.00553356
-0.00582074
-0.00610373
-0.00637982
-0.00664617
-0.00689985
-0.00713791
-0.0073574
-0.00755544
-0.00772924
-0.00787618
-0.00799386
-0.00808012
-0.00813311
-0.00815133
-0.00813367
-0.00807942
-0.00798836
-0.00786074
-0.00769728
-0.00749922
-0.00726841
-0.00700713
-0.0067182
-0.00640494
-0.00607113
-0.00572101
-0.00535919
-0.00499061
-0.00462047
-0.00425418
-0.00389723
-0.00355514
-0.00323332
-0.00293698
-0.00267103
-0.00243997
-0.00224777
-0.00209777
-0.00199264
-0.00193423
-0.00192357
-0.00196081
-0.00204522
-0.00217519
-0.00234827
-0.00256124
-0.00281018
-0.00309058
-0.00339751
-0.00372568
-0.00406963
-0.00442388
-0.00478308
-0.00514209
-0.00549616
-0.005841
-0.00617287
-0.0064886
-0.00678567
-0.00706221
-0.00731693
-0.00754916
-0.00775874
-0.00794601
-0.00811169
-0.00825683
-0.00838275
-0.00849091
-0.00858289
-0.0086603
-0.00872473
-0.00877766
-0.00882046
-0.00885432
-0.00888021
-0.00889885
-0.00891068
-0.00891582
-0.00891406
-0.00890475
-0.00888728
-0.00886093
-0.00881935
-0.00875155
0.000204311
0.000222421
0.000226051
0.00021887
0.000203109
0.000179213
0.000147774
0.000109552
6.53084e-05
1.57788e-05
-3.83534e-05
-9.64889e-05
-0.000158141
-0.000222958
-0.000290735
-0.000361424
-0.000435131
-0.000512107
-0.000592736
-0.00067752
-0.000767056
-0.000862018
-0.000963142
-0.0010712
-0.001187
-0.00131133
-0.001445
-0.00158879
-0.00174343
-0.00190962
-0.00208797
-0.002279
-0.00248313
-0.00270064
-0.00293164
-0.00317605
-0.00343359
-0.00370373
-0.00398572
-0.00427849
-0.00458074
-0.00489087
-0.005207
-0.00552699
-0.00584846
-0.00616881
-0.00648523
-0.00679476
-0.00709435
-0.00738084
-0.00765107
-0.00790192
-0.0081303
-0.0083333
-0.00850814
-0.00865229
-0.00876349
-0.00883978
-0.00887958
-0.00888167
-0.00884529
-0.00877011
-0.0086563
-0.00850453
-0.00831596
-0.00809233
-0.00783587
-0.00754931
-0.00723591
-0.00689941
-0.00654397
-0.00617417
-0.00579496
-0.00541156
-0.0050294
-0.00465405
-0.00429115
-0.00394624
-0.00362474
-0.00333178
-0.00307212
-0.00285003
-0.00266919
-0.0025326
-0.00244248
-0.00240024
-0.00240638
-0.00246053
-0.00256139
-0.00270679
-0.00289376
-0.00311857
-0.00337683
-0.00366368
-0.00397385
-0.00430183
-0.00464205
-0.004989
-0.00533738
-0.00568224
-0.00601905
-0.00634384
-0.00665325
-0.00694453
-0.00721561
-0.00746505
-0.00769203
-0.00789631
-0.00807815
-0.00823824
-0.00837763
-0.00849766
-0.00859985
-0.00868584
-0.00875734
-0.00881602
-0.00886346
-0.00890113
-0.0089303
-0.00895202
-0.00896706
-0.00897591
-0.00897871
-0.00897524
-0.00896485
-0.00894688
-0.00892055
-0.00887966
-0.00881349
0.000284867
0.000297074
0.000296247
0.000285319
0.000266148
0.000239221
0.000205153
0.000164696
0.00011861
6.76234e-05
1.24041e-05
-4.64726e-05
-0.000108556
-0.000173541
-0.000241286
-0.000311819
-0.000385334
-0.000462185
-0.00054287
-0.000628014
-0.000718352
-0.000814704
-0.00091796
-0.00102905
-0.00114895
-0.00127862
-0.00141903
-0.00157112
-0.00173579
-0.00191387
-0.00210612
-0.00231316
-0.00253548
-0.00277342
-0.0030271
-0.00329642
-0.00358105
-0.00388035
-0.00419343
-0.00451906
-0.00485573
-0.00520161
-0.00555459
-0.00591227
-0.006272
-0.00663091
-0.00698594
-0.00733389
-0.00767144
-0.00799525
-0.00830194
-0.00858819
-0.00885078
-0.00908663
-0.00929284
-0.00946676
-0.00960602
-0.00970856
-0.00977269
-0.00979713
-0.00978101
-0.00972392
-0.00962592
-0.00948759
-0.00931001
-0.00909479
-0.00884406
-0.00856047
-0.00824715
-0.00790776
-0.00754639
-0.00716755
-0.00677615
-0.00637738
-0.00597671
-0.00557976
-0.00519224
-0.00481987
-0.00446823
-0.00414271
-0.00384833
-0.00358972
-0.00337091
-0.00319531
-0.00306559
-0.00298358
-0.00295025
-0.00296566
-0.00302893
-0.00313828
-0.00329107
-0.00348384
-0.00371244
-0.00397215
-0.00425775
-0.00456378
-0.00488459
-0.00521455
-0.0055482
-0.00588036
-0.0062063
-0.00652177
-0.00682314
-0.00710742
-0.00737229
-0.00761609
-0.00783781
-0.00803704
-0.00821391
-0.00836904
-0.00850341
-0.00861835
-0.00871538
-0.00879619
-0.00886254
-0.00891616
-0.00895874
-0.00899181
-0.00901674
-0.00903465
-0.0090464
-0.00905253
-0.00905323
-0.00904832
-0.00903717
-0.00901912
-0.0089934
-0.00895409
-0.00889101
0.000376066
0.000381329
0.000375335
0.000360137
0.000337139
0.000306848
0.00026988
0.000226952
0.000178793
0.000126098
6.94999e-05
9.52942e-06
-5.34166e-05
-0.0001191
-0.000187457
-0.000258607
-0.000332852
-0.000410662
-0.00049267
-0.000579645
-0.00067248
-0.000772162
-0.000879754
-0.000996372
-0.00112316
-0.00126129
-0.0014119
-0.00157611
-0.00175497
-0.00194948
-0.00216048
-0.00238871
-0.00263472
-0.00289884
-0.00318118
-0.00348158
-0.00379957
-0.00413439
-0.00448495
-0.00484979
-0.00522717
-0.00561498
-0.00601083
-0.00641204
-0.00681568
-0.00721858
-0.00761744
-0.00800879
-0.00838909
-0.00875478
-0.00910229
-0.00942814
-0.00972894
-0.0100015
-0.0102427
-0.0104499
-0.0106206
-0.0107526
-0.0108441
-0.0108937
-0.0109006
-0.0108641
-0.0107842
-0.0106614
-0.0104967
-0.0102914
-0.0100477
-0.00976803
-0.00945538
-0.00911328
-0.00874573
-0.00835713
-0.0079523
-0.0075364
-0.00711487
-0.00669336
-0.00627765
-0.00587358
-0.00548691
-0.00512327
-0.00478798
-0.00448601
-0.00422182
-0.00399926
-0.0038215
-0.00369089
-0.00360895
-0.00357627
-0.00359249
-0.00365634
-0.0037656
-0.00391723
-0.0041074
-0.0043316
-0.00458483
-0.00486166
-0.00515645
-0.00546351
-0.00577722
-0.0060922
-0.00640347
-0.00670651
-0.00699739
-0.00727282
-0.00753017
-0.00776751
-0.00798358
-0.00817774
-0.00834994
-0.00850063
-0.0086307
-0.00874138
-0.00883417
-0.00891075
-0.00897289
-0.00902237
-0.00906093
-0.00909018
-0.00911157
-0.0091263
-0.00913531
-0.0091392
-0.00913825
-0.00913231
-0.00912083
-0.00910318
-0.00907863
-0.00904167
-0.00898287
0.00047728
0.000474596
0.000462775
0.000442846
0.000415662
0.000381734
0.000341644
0.000296044
0.0002456
0.00019095
0.000132664
7.12049e-05
6.89599e-06
-6.01103e-05
-0.000129848
-0.000202548
-0.000278635
-0.000358719
-0.000443584
-0.000534169
-0.000631542
-0.000736878
-0.000851438
-0.000976536
-0.00111352
-0.00126376
-0.00142859
-0.0016093
-0.00180711
-0.00202314
-0.00225834
-0.0025135
-0.00278919
-0.00308572
-0.00340312
-0.00374112
-0.00409908
-0.00447603
-0.00487063
-0.00528118
-0.00570563
-0.00614159
-0.00658634
-0.00703691
-0.00749006
-0.00794237
-0.00839024
-0.00882997
-0.0092578
-0.00966995
-0.0100627
-0.0104324
-0.0107754
-0.0110886
-0.0113686
-0.0116127
-0.0118183
-0.0119831
-0.0121052
-0.0121831
-0.0122158
-0.0122026
-0.0121434
-0.0120385
-0.0118886
-0.0116952
-0.0114601
-0.0111856
-0.0108745
-0.0105303
-0.0101567
-0.0097581
-0.00933907
-0.00890472
-0.00846044
-0.00801186
-0.0075648
-0.00712519
-0.00669896
-0.00629192
-0.00590973
-0.00555769
-0.00524071
-0.00496312
-0.00472865
-0.00454024
-0.00440002
-0.00430923
-0.00426816
-0.00427613
-0.00433151
-0.00443177
-0.00457353
-0.00475265
-0.00496439
-0.0052035
-0.00546442
-0.00574142
-0.0060288
-0.006321
-0.00661277
-0.00689932
-0.0071764
-0.00744035
-0.00768823
-0.00791775
-0.00812733
-0.00831604
-0.00848358
-0.00863017
-0.00875652
-0.00886374
-0.00895322
-0.00902658
-0.00908556
-0.00913196
-0.00916754
-0.00919397
-0.00921274
-0.00922513
-0.00923214
-0.00923447
-0.00923247
-0.00922606
-0.00921477
-0.00919804
-0.0091752
-0.00914122
-0.0090876
0.000587717
0.000576108
0.000557859
0.000532796
0.000501129
0.000463342
0.000419954
0.000371513
0.000318587
0.000261724
0.000201408
0.000138009
7.17513e-05
2.68205e-06
-6.93518e-05
-0.000144711
-0.000223966
-0.000307888
-0.000397436
-0.000493735
-0.000598053
-0.000711775
-0.000836374
-0.000973384
-0.00112437
-0.0012909
-0.00147451
-0.00167666
-0.00189871
-0.00214189
-0.00240723
-0.00269552
-0.00300732
-0.00334286
-0.00370204
-0.0040844
-0.0044891
-0.00491491
-0.00536021
-0.00582297
-0.00630084
-0.0067911
-0.0072907
-0.00779637
-0.00830456
-0.00881157
-0.00931354
-0.00980653
-0.0102866
-0.0107497
-0.011192
-0.0116097
-0.011999
-0.0123566
-0.0126792
-0.0129638
-0.0132078
-0.0134087
-0.0135645
-0.0136738
-0.0137353
-0.0137482
-0.0137122
-0.0136276
-0.0134949
-0.0133154
-0.0130907
-0.0128229
-0.0125147
-0.0121694
-0.0117904
-0.0113819
-0.0109484
-0.0104949
-0.0100266
-0.00954916
-0.00906828
-0.00858996
-0.00812025
-0.00766517
-0.00723062
-0.00682228
-0.00644546
-0.00610503
-0.00580528
-0.00554983
-0.00534149
-0.00518223
-0.0050731
-0.00501414
-0.00500446
-0.00504217
-0.00512448
-0.00524776
-0.00540767
-0.00559927
-0.00581716
-0.00605569
-0.0063091
-0.00657171
-0.00683804
-0.007103
-0.007362
-0.00761102
-0.0078467
-0.00806637
-0.00826805
-0.00845047
-0.00861298
-0.00875552
-0.00887855
-0.00898296
-0.00906999
-0.00914115
-0.00919809
-0.00924256
-0.00927633
-0.00930106
-0.00931828
-0.00932934
-0.00933529
-0.0093369
-0.00933459
-0.00932837
-0.00931787
-0.00930259
-0.00928194
-0.00925146
-0.0092036
0.000706376
0.000684914
0.000659673
0.000629132
0.000592745
0.000550933
0.00050411
0.000452679
0.000397072
0.000337719
0.000274982
0.000209116
0.000140222
6.82169e-05
-7.19122e-06
-8.65174e-05
-0.0001705
-0.000260093
-0.000356453
-0.000460915
-0.000574966
-0.000700217
-0.000838373
-0.000991196
-0.00116047
-0.00134798
-0.00155544
-0.00178446
-0.00203654
-0.00231295
-0.00261478
-0.00294278
-0.00329743
-0.00367882
-0.00408668
-0.0045203
-0.00497858
-0.00545999
-0.00596256
-0.00648396
-0.00702147
-0.00757202
-0.00813226
-0.00869857
-0.00926712
-0.00983393
-0.0103949
-0.0109458
-0.0114826
-0.012001
-0.0124969
-0.0129666
-0.013406
-0.0138117
-0.0141804
-0.0145088
-0.0147944
-0.0150345
-0.0152271
-0.0153706
-0.0154636
-0.0155052
-0.015495
-0.0154331
-0.0153199
-0.0151564
-0.0149441
-0.0146848
-0.0143812
-0.014036
-0.0136527
-0.0132352
-0.0127877
-0.0123151
-0.0118223
-0.0113149
-0.0107986
-0.0102794
-0.00976326
-0.00925641
-0.00876498
-0.00829494
-0.00785202
-0.00744161
-0.00706858
-0.00673724
-0.00645116
-0.00621313
-0.00602501
-0.00588776
-0.00580129
-0.00576455
-0.0057755
-0.00583118
-0.0059278
-0.00606086
-0.0062253
-0.00641563
-0.00662615
-0.0068511
-0.00708483
-0.00732197
-0.00755757
-0.00778723
-0.00800713
-0.00821416
-0.0084059
-0.00858062
-0.00873727
-0.00887543
-0.00899524
-0.00909729
-0.0091826
-0.00925248
-0.00930845
-0.00935218
-0.00938534
-0.0094096
-0.00942648
-0.00943733
-0.00944327
-0.00944512
-0.00944335
-0.00943807
-0.009429
-0.00941572
-0.0093977
-0.00937109
-0.00932932
0.000832039
0.000799823
0.000767082
0.000730776
0.000689487
0.000643529
0.000593166
0.000538604
0.000480107
0.000417946
0.000352335
0.000283382
0.000211043
0.000135081
5.50387e-05
-2.97763e-05
-0.000120294
-0.000217675
-0.000323294
-0.000438716
-0.000565667
-0.000706002
-0.000861667
-0.00103466
-0.00122698
-0.00144062
-0.00167744
-0.00193921
-0.00222748
-0.00254359
-0.00288856
-0.0032631
-0.00366752
-0.00410174
-0.00456522
-0.00505699
-0.00557562
-0.00611923
-0.00668552
-0.00727176
-0.00787489
-0.00849148
-0.00911784
-0.00975004
-0.010384
-0.0110153
-0.0116398
-0.012253
-0.0128505
-0.0134281
-0.0139815
-0.0145066
-0.0149995
-0.0154565
-0.0158743
-0.0162495
-0.0165794
-0.0168615
-0.0170935
-0.0172736
-0.0174005
-0.0174732
-0.0174912
-0.0174542
-0.0173626
-0.0172172
-0.0170193
-0.0167706
-0.0164733
-0.01613
-0.015744
-0.0153188
-0.0148585
-0.0143675
-0.0138508
-0.0133135
-0.0127613
-0.0122001
-0.0116358
-0.0110748
-0.0105232
-0.00998736
-0.00947331
-0.0089869
-0.00853362
-0.00811843
-0.00774571
-0.0074191
-0.00714141
-0.00691456
-0.00673945
-0.006616
-0.00654309
-0.00651861
-0.00653953
-0.00660196
-0.00670132
-0.00683246
-0.00698986
-0.00716778
-0.00736047
-0.00756233
-0.00776807
-0.00797287
-0.00817246
-0.00836321
-0.00854219
-0.00870715
-0.00885658
-0.00898958
-0.00910588
-0.00920573
-0.00928982
-0.0093592
-0.0094152
-0.0094593
-0.00949308
-0.00951811
-0.00953589
-0.00954775
-0.00955482
-0.00955795
-0.00955765
-0.00955411
-0.00954713
-0.00953637
-0.00952139
-0.00949888
-0.00946328
0.000963222
0.000919397
0.000878699
0.000836396
0.000790074
0.000739895
0.000685898
0.000628063
0.000566438
0.000501098
0.000432079
0.000359315
0.000282587
0.00020148
0.000115347
2.32945e-05
-7.58243e-05
-0.000183399
-0.000301044
-0.000430574
-0.00057397
-0.000733339
-0.000910874
-0.00110881
-0.00132935
-0.00157466
-0.00184676
-0.00214748
-0.00247844
-0.00284093
-0.00323591
-0.00366393
-0.00412511
-0.00461911
-0.00514509
-0.00570176
-0.00628731
-0.0068995
-0.00753563
-0.0081926
-0.00886696
-0.00955493
-0.0102525
-0.0109554
-0.0116592
-0.0123594
-0.0130514
-0.0137306
-0.0143925
-0.0150326
-0.0156464
-0.0162299
-0.016779
-0.0172899
-0.0177591
-0.0181834
-0.0185598
-0.0188858
-0.0191591
-0.0193779
-0.0195407
-0.0196463
-0.0196942
-0.0196841
-0.019616
-0.0194907
-0.0193093
-0.0190731
-0.0187842
-0.0184449
-0.0180582
-0.0176273
-0.0171559
-0.0166483
-0.016109
-0.0155431
-0.0149558
-0.0143529
-0.0137402
-0.0131241
-0.0125107
-0.0119066
-0.011318
-0.0107512
-0.0102121
-0.00970655
-0.00923954
-0.00881563
-0.00843863
-0.00811149
-0.00783623
-0.0076139
-0.00744445
-0.00732684
-0.00725896
-0.00723778
-0.00725939
-0.00731918
-0.00741196
-0.00753217
-0.00767407
-0.00783189
-0.00800007
-0.00817337
-0.00834704
-0.0085169
-0.00867945
-0.00883187
-0.00897206
-0.00909857
-0.00921065
-0.00930808
-0.00939116
-0.00946061
-0.00951745
-0.00956295
-0.0095985
-0.00962554
-0.00964547
-0.00965957
-0.00966894
-0.00967442
-0.00967657
-0.0096756
-0.00967138
-0.00966365
-0.00965203
-0.00963377
-0.00960422
0.00109816
0.00104192
0.00099287
0.000944387
0.000892972
0.000838494
0.000780783
0.000719517
0.000654482
0.000585524
0.000512467
0.000435044
0.000352835
0.000265219
0.000171334
7.00587e-05
-3.99911e-05
-0.000160456
-0.00029321
-0.000440334
-0.000604073
-0.000786795
-0.000990935
-0.00121895
-0.00147323
-0.0017561
-0.00206966
-0.00241581
-0.00279613
-0.00321183
-0.00366373
-0.00415217
-0.00467701
-0.0052376
-0.00583275
-0.00646079
-0.00711952
-0.00780627
-0.00851795
-0.00925107
-0.0100018
-0.010766
-0.0115392
-0.012317
-0.0130946
-0.0138672
-0.0146301
-0.0153784
-0.0161073
-0.0168124
-0.017489
-0.0181329
-0.0187399
-0.0193063
-0.0198286
-0.0203033
-0.0207275
-0.0210987
-0.0214146
-0.0216732
-0.0218731
-0.022013
-0.0220922
-0.0221103
-0.0220673
-0.0219639
-0.0218007
-0.0215791
-0.0213007
-0.0209677
-0.0205826
-0.0201484
-0.0196686
-0.0191468
-0.0185874
-0.0179951
-0.0173747
-0.0167319
-0.0160723
-0.0154018
-0.0147269
-0.0140539
-0.0133893
-0.0127396
-0.0121114
-0.0115108
-0.0109436
-0.0104153
-0.00993071
-0.00949381
-0.00910784
-0.00877508
-0.00849675
-0.00827304
-0.00810301
-0.00798468
-0.00791508
-0.00789035
-0.00790587
-0.00795643
-0.00803646
-0.00814016
-0.00826176
-0.00839567
-0.00853664
-0.00867996
-0.00882146
-0.00895769
-0.00908589
-0.00920398
-0.00931058
-0.00940496
-0.00948689
-0.00955668
-0.00961498
-0.00966273
-0.00970108
-0.00973128
-0.00975456