/*--------------------------------*- C++ -*----------------------------------*\
| =========                 |                                                 |
| \\      /  F ield         | OpenFOAM: The Open Source CFD Toolbox           |
|  \\    /   O peration     | Version:  2112                                  |
|   \\  /    A nd           | Website:  www.openfoam.com                      |
|    \\/     M anipulation  |                                                 |
\*---------------------------------------------------------------------------*/
FoamFile
{
    version     2.0;
    format      ascii;
    arch        "LSB;label=32;scalar=64";
    class       surfaceScalarField;
    location    "34";
    object      phi;
}
// * * * * * * * * * * * * * * * * * * * * * * * * * * * * * * * * * * * * * //

dimensions      [0 3 -1 0 0 0 0];

oriented        oriented;

internalField   nonuniform List<scalar> 
33024
(
-3.79729e-09
3.41066e-09
2.28154e-08
-2.66115e-08
8.00804e-08
-5.72651e-08
1.5955e-07
-7.94703e-08
2.52636e-07
-9.30848e-08
3.52038e-07
-9.94008e-08
4.51917e-07
-9.98792e-08
5.47792e-07
-9.58764e-08
6.36338e-07
-8.8546e-08
7.15183e-07
-7.88444e-08
7.82742e-07
-6.75575e-08
8.38062e-07
-5.53209e-08
8.80696e-07
-4.26354e-08
9.10579e-07
-2.9882e-08
9.27912e-07
-1.73331e-08
9.33077e-07
-5.16443e-09
9.26538e-07
6.53945e-09
9.08776e-07
1.77621e-08
8.80222e-07
2.85535e-08
8.41213e-07
3.9009e-08
7.91953e-07
4.92592e-08
7.32498e-07
5.94556e-08
6.62739e-07
6.97592e-08
5.8241e-07
8.03289e-08
4.91098e-07
9.13129e-08
3.88257e-07
1.02841e-07
2.73235e-07
1.15021e-07
1.453e-07
1.27935e-07
3.66398e-09
1.41636e-07
-1.52486e-07
1.5615e-07
-3.23964e-07
1.71479e-07
-5.11561e-07
1.87597e-07
-7.16019e-07
2.04458e-07
-9.38014e-07
2.21994e-07
-1.17813e-06
2.40117e-07
-1.43685e-06
2.5872e-07
-1.71453e-06
2.77678e-07
-2.01138e-06
2.9685e-07
-2.32745e-06
3.16076e-07
-2.66263e-06
3.3518e-07
-3.0166e-06
3.53968e-07
-3.38884e-06
3.72233e-07
-3.77859e-06
3.89752e-07
-4.18487e-06
4.06286e-07
-4.60646e-06
4.2159e-07
-5.04187e-06
4.35407e-07
-5.48934e-06
4.47473e-07
-5.94687e-06
4.57523e-07
-6.41216e-06
4.65291e-07
-6.88267e-06
4.70517e-07
-7.35562e-06
4.72945e-07
-7.82795e-06
4.72336e-07
-8.29642e-06
4.68462e-07
-8.75753e-06
4.61118e-07
-9.20766e-06
4.50123e-07
-9.64298e-06
4.35325e-07
-1.00596e-05
4.16602e-07
-1.04535e-05
3.9387e-07
-1.08205e-05
3.67085e-07
-1.11568e-05
3.36246e-07
-1.14582e-05
3.01398e-07
-1.17208e-05
2.62637e-07
-1.19409e-05
2.20107e-07
-1.21149e-05
1.74015e-07
-1.22396e-05
1.24645e-07
-1.23119e-05
7.23204e-08
-1.23293e-05
1.74185e-08
-1.22893e-05
-4.00598e-08
-1.21903e-05
-9.89178e-08
-1.20313e-05
-1.59039e-07
-1.18115e-05
-2.19778e-07
-1.1531e-05
-2.80511e-07
-1.11904e-05
-3.40582e-07
-1.07911e-05
-3.99305e-07
-1.03352e-05
-4.55978e-07
-9.82527e-06
-5.09888e-07
-9.26494e-06
-5.60327e-07
-8.65834e-06
-6.06605e-07
-8.01027e-06
-6.48062e-07
-7.32619e-06
-6.84084e-07
-6.61207e-06
-7.14117e-07
-5.87439e-06
-7.37683e-07
-5.12e-06
-7.54391e-07
-4.35604e-06
-7.63955e-07
-3.58984e-06
-7.66198e-07
-2.82878e-06
-7.61066e-07
-2.08015e-06
-7.4863e-07
-1.35106e-06
-7.29089e-07
-6.48292e-07
-7.02766e-07
2.18246e-08
-6.70117e-07
6.53626e-07
-6.31801e-07
1.2419e-06
-5.88277e-07
1.78234e-06
-5.40438e-07
2.27141e-06
-4.89068e-07
2.70645e-06
-4.35042e-07
3.08569e-06
-3.7924e-07
3.40824e-06
-3.22548e-07
3.67408e-06
-2.65836e-07
3.884e-06
-2.09929e-07
4.0396e-06
-1.55591e-07
4.14311e-06
-1.0351e-07
4.19739e-06
-5.42812e-08
4.20579e-06
-8.402e-09
4.17205e-06
3.37423e-08
4.10018e-06
7.18679e-08
3.99437e-06
1.05805e-07
3.85889e-06
1.35484e-07
3.69796e-06
1.60934e-07
3.51569e-06
1.82267e-07
3.31602e-06
1.99673e-07
3.10261e-06
2.13401e-07
2.87887e-06
2.23749e-07
2.64783e-06
2.31039e-07
2.41222e-06
2.35606e-07
2.17445e-06
2.37774e-07
1.93662e-06
2.37827e-07
1.70063e-06
2.35989e-07
1.46825e-06
2.32386e-07
1.24123e-06
2.27014e-07
1.02153e-06
2.19702e-07
8.11461e-07
2.10068e-07
6.13978e-07
1.97483e-07
4.3293e-07
1.81048e-07
2.73325e-07
1.59604e-07
1.41469e-07
1.31857e-07
4.46638e-08
9.68047e-08
-1.01457e-08
5.48095e-08
-2.07287e-08
1.05831e-08
-2.07286e-08
2.6349e-08
-2.2937e-08
1.17734e-07
-1.17995e-07
2.67733e-07
-2.07264e-07
4.62184e-07
-2.73922e-07
6.85266e-07
-3.16167e-07
9.22025e-07
-3.3616e-07
1.15948e-06
-3.37332e-07
1.38696e-06
-3.23354e-07
1.59606e-06
-2.97651e-07
1.78046e-06
-2.63245e-07
1.93562e-06
-2.2272e-07
2.05853e-06
-1.78228e-07
2.1474e-06
-1.31506e-07
2.20142e-06
-8.39032e-08
2.2205e-06
-3.6405e-08
2.205e-06
1.03303e-08
2.15559e-06
5.59484e-08
2.07301e-06
1.00348e-07
1.95792e-06
1.43638e-07
1.81083e-06
1.86101e-07
1.63195e-06
2.28139e-07
1.42117e-06
2.70232e-07
1.17804e-06
3.12897e-07
9.0172e-07
3.56646e-07
5.91077e-07
4.01956e-07
2.44673e-07
4.49245e-07
-1.39154e-07
4.98849e-07
-5.62233e-07
5.51013e-07
-1.02648e-06
6.05884e-07
-1.53384e-06
6.63508e-07
-2.0862e-06
7.23835e-07
-2.68532e-06
7.86721e-07
-3.3328e-06
8.51936e-07
-4.02997e-06
9.19167e-07
-4.77788e-06
9.88026e-07
-5.57721e-06
1.05805e-06
-6.42826e-06
1.12872e-06
-7.33086e-06
1.19944e-06
-8.28434e-06
1.26956e-06
-9.28752e-06
1.33836e-06
-1.03386e-05
1.40508e-06
-1.14353e-05
1.4689e-06
-1.25745e-05
1.52897e-06
-1.37526e-05
1.5844e-06
-1.49653e-05
1.63426e-06
-1.62075e-05
1.67764e-06
-1.74736e-05
1.71359e-06
-1.87573e-05
1.74119e-06
-2.00515e-05
1.75953e-06
-2.13488e-05
1.76776e-06
-2.26409e-05
1.76504e-06
-2.39192e-05
1.75064e-06
-2.51746e-05
1.72387e-06
-2.63976e-05
1.68415e-06
-2.75785e-05
1.631e-06
-2.87072e-05
1.56406e-06
-2.97737e-05
1.48309e-06
-3.07679e-05
1.388e-06
-3.16796e-05
1.27882e-06
-3.24991e-05
1.15576e-06
-3.32169e-05
1.01918e-06
-3.38239e-05
8.69617e-07
-3.43115e-05
7.07755e-07
-3.4672e-05
5.34481e-07
-3.48983e-05
3.50912e-07
-3.49842e-05
1.58263e-07
-3.49248e-05
-4.20199e-08
-3.47155e-05
-2.49283e-07
-3.43539e-05
-4.60562e-07
-3.38384e-05
-6.74524e-07
-3.3169e-05
-8.89198e-07
-3.2347e-05
-1.1025e-06
-3.13753e-05
-1.31225e-06
-3.02584e-05
-1.51621e-06
-2.90023e-05
-1.71212e-06
-2.76145e-05
-1.89769e-06
-2.61041e-05
-2.07067e-06
-2.44819e-05
-2.22889e-06
-2.27597e-05
-2.37028e-06
-2.09508e-05
-2.49292e-06
-1.90698e-05
-2.5951e-06
-1.71322e-05
-2.67533e-06
-1.51542e-05
-2.73239e-06
-1.31527e-05
-2.7654e-06
-1.11452e-05
-2.77379e-06
-9.14882e-06
-2.75739e-06
-7.18105e-06
-2.7164e-06
-5.25874e-06
-2.65141e-06
-3.39809e-06
-2.56341e-06
-1.6144e-06
-2.4538e-06
7.81185e-08
-2.32432e-06
1.6669e-06
-2.17706e-06
3.14071e-06
-2.01425e-06
4.49021e-06
-1.83857e-06
5.70796e-06
-1.65279e-06
6.78848e-06
-1.45976e-06
7.72833e-06
-1.26239e-06
8.52606e-06
-1.06357e-06
9.18221e-06
-8.66081e-07
9.69918e-06
-6.72561e-07
1.00811e-05
-4.85427e-07
1.03336e-05
-3.06832e-07
1.04639e-05
-1.3863e-07
1.048e-05
1.76598e-08
1.0391e-05
1.60862e-07
1.02066e-05
2.90156e-07
9.93703e-06
4.05069e-07
9.59251e-06
5.05456e-07
9.1833e-06
5.91479e-07
8.7194e-06
6.6357e-07
8.21041e-06
7.22391e-07
7.66538e-06
7.68779e-07
7.09273e-06
8.0369e-07
6.5002e-06
8.28133e-07
5.89488e-06
8.43095e-07
5.28325e-06
8.49456e-07
4.67134e-06
8.47894e-07
4.06495e-06
8.38785e-07
3.46987e-06
8.22092e-07
2.89231e-06
7.97263e-07
2.33925e-06
7.63129e-07
1.81887e-06
7.17856e-07
1.34096e-06
6.58958e-07
9.17071e-07
5.83496e-07
5.60281e-07
4.88647e-07
2.84032e-07
3.73053e-07
9.95041e-08
2.39338e-07
1.09826e-08
9.91042e-08
-9.74588e-09
5.71077e-08
-8.00447e-08
2.07298e-07
-2.68186e-07
4.32247e-07
-4.32211e-07
7.12216e-07
-5.5389e-07
1.02679e-06
-6.30741e-07
1.35659e-06
-6.65963e-07
1.68437e-06
-6.6511e-07
1.99549e-06
-6.3447e-07
2.27804e-06
-5.80205e-07
2.52274e-06
-5.07947e-07
2.72266e-06
-4.22642e-07
2.87293e-06
-3.2849e-07
2.97036e-06
-2.28939e-07
3.01316e-06
-1.26704e-07
3.00055e-06
-2.37947e-08
2.93247e-06
7.84127e-08
2.80927e-06
1.79146e-07
2.63149e-06
2.78129e-07
2.39961e-06
3.7552e-07
2.11389e-06
4.71814e-07
1.77428e-06
5.67754e-07
1.38027e-06
6.64241e-07
9.30916e-07
7.6225e-07
4.24814e-07
8.62748e-07
-1.39862e-07
9.66632e-07
-7.6529e-07
1.07467e-06
-1.45392e-06
1.18748e-06
-2.20836e-06
1.30546e-06
-3.0313e-06
1.42882e-06
-3.92536e-06
1.55757e-06
-4.893e-06
1.69148e-06
-5.93643e-06
1.83015e-06
-7.05747e-06
1.97298e-06
-8.25749e-06
2.11918e-06
-9.53729e-06
2.26783e-06
-1.08971e-05
2.41782e-06
-1.23363e-05
2.56792e-06
-1.38536e-05
2.71676e-06
-1.54468e-05
2.86283e-06
-1.7113e-05
3.00455e-06
-1.88482e-05
3.1402e-06
-2.06473e-05
3.26799e-06
-2.25044e-05
3.38608e-06
-2.44125e-05
3.49257e-06
-2.63638e-05
3.58553e-06
-2.83492e-05
3.66306e-06
-3.03589e-05
3.72326e-06
-3.2382e-05
3.7643e-06
-3.44069e-05
3.78444e-06
-3.64212e-05
3.78205e-06
-3.84118e-05
3.75565e-06
-4.03651e-05
3.7039e-06
-4.22669e-05
3.62569e-06
-4.41029e-05
3.52011e-06
-4.58583e-05
3.38648e-06
-4.75187e-05
3.22439e-06
-4.90693e-05
3.0337e-06
-5.04958e-05
2.81455e-06
-5.17844e-05
2.56738e-06
-5.29216e-05
2.29296e-06
-5.38947e-05
1.99233e-06
-5.4692e-05
1.66687e-06
-5.53025e-05
1.31827e-06
-5.57165e-05
9.48544e-07
-5.59258e-05
5.60131e-07
-5.59238e-05
1.56329e-07
-5.57035e-05
-2.62331e-07
-5.52621e-05
-6.90691e-07
-5.45972e-05
-1.12549e-06
-5.37084e-05
-1.5633e-06
-5.25973e-05
-2.00029e-06
-5.12674e-05
-2.43245e-06
-4.9724e-05
-2.8556e-06
-4.79747e-05
-3.26551e-06
-4.60289e-05
-3.65791e-06
-4.38981e-05
-4.02852e-06
-4.15956e-05
-4.37319e-06
-3.91366e-05
-4.68787e-06
-3.65381e-05
-4.96876e-06
-3.38187e-05
-5.21233e-06
-3.09984e-05
-5.41542e-06
-2.80984e-05
-5.57528e-06
-2.51411e-05
-5.68967e-06
-2.21496e-05
-5.75693e-06
-1.91474e-05
-5.77599e-06
-1.61583e-05
-5.74646e-06
-1.32061e-05
-5.66865e-06
-1.03139e-05
-5.54359e-06
-7.50427e-06
-5.37304e-06
-4.79861e-06
-5.15946e-06
-2.21694e-06
-4.90599e-06
2.22413e-07
-4.61641e-06
2.50321e-06
-4.29505e-06
4.61118e-06
-3.94654e-06
6.53471e-06
-3.57632e-06
8.26462e-06
-3.18967e-06
9.79442e-06
-2.79218e-06
1.11203e-05
-2.38944e-06
1.22411e-05
-1.98692e-06
1.31584e-05
-1.58987e-06
1.38762e-05
-1.20318e-06
1.44007e-05
-8.31308e-07
1.47402e-05
-4.78185e-07
1.4905e-05
-1.47139e-07
1.49067e-05
1.5914e-07
1.47583e-05
4.38641e-07
1.44733e-05
6.9001e-07
1.40662e-05
9.12558e-07
1.35515e-05
1.10621e-06
1.29436e-05
1.27145e-06
1.22568e-05
1.40924e-06
1.15046e-05
1.52093e-06
1.07001e-05
1.60817e-06
9.85556e-06
1.67271e-06
8.98233e-06
1.71633e-06
8.09117e-06
1.74062e-06
7.19224e-06
1.74682e-06
6.2954e-06
1.73563e-06
5.4105e-06
1.70699e-06
4.54784e-06
1.65992e-06
3.71858e-06
1.59239e-06
2.93521e-06
1.50123e-06
2.21184e-06
1.38233e-06
1.56427e-06
1.23106e-06
1.00958e-06
1.04334e-06
5.64763e-07
8.17868e-07
2.44427e-07
5.59674e-07
5.6959e-08
2.86572e-07
4.72131e-08
7.97263e-08
-1.59771e-07
2.75302e-07
-4.63763e-07
5.56398e-07
-7.13307e-07
8.96754e-07
-8.94245e-07
1.27184e-06
-1.00583e-06
1.65916e-06
-1.05328e-06
2.0387e-06
-1.04465e-06
2.39332e-06
-9.89089e-07
2.70881e-06
-8.95688e-07
2.9738e-06
-7.72938e-07
3.17957e-06
-6.28414e-07
3.31972e-06
-4.68639e-07
3.38981e-06
-2.99033e-07
3.38701e-06
-1.23902e-07
3.3097e-06
5.35184e-08
3.15711e-06
2.30999e-07
2.92902e-06
4.07232e-07
2.62544e-06
5.8171e-07
2.24636e-06
7.54606e-07
1.79154e-06
9.26632e-07
1.2604e-06
1.09889e-06
6.51903e-07
1.27274e-06
-3.54869e-08
1.44964e-06
-8.03784e-07
1.63104e-06
-1.65543e-06
1.81828e-06
-2.59321e-06
2.01246e-06
-3.62015e-06
2.21442e-06
-4.73937e-06
2.42467e-06
-5.95393e-06
2.64339e-06
-7.26673e-06
2.87037e-06
-8.68032e-06
3.10507e-06
-1.01968e-05
3.34661e-06
-1.18176e-05
3.59378e-06
-1.35435e-05
3.84506e-06
-1.53743e-05
4.09868e-06
-1.73091e-05
4.3526e-06
-1.93457e-05
4.60453e-06
-2.14809e-05
4.85199e-06
-2.37104e-05
5.0923e-06
-2.60285e-05
5.32262e-06
-2.84282e-05
5.53998e-06
-3.09015e-05
5.7413e-06
-3.34389e-05
5.92346e-06
-3.60296e-05
6.08329e-06
-3.86618e-05
6.21764e-06
-4.13221e-05
6.32345e-06
-4.39966e-05
6.39773e-06
-4.667e-05
6.4377e-06
-4.93263e-05
6.44074e-06
-5.19488e-05
6.40449e-06
-5.452e-05
6.3269e-06
-5.70223e-05
6.20621e-06
-5.94377e-05
6.04105e-06
-6.1748e-05
5.83043e-06
-6.39353e-05
5.57377e-06
-6.59818e-05
5.27093e-06
-6.78703e-05
4.92221e-06
-6.95842e-05
4.52839e-06
-7.11075e-05
4.09069e-06
-7.24253e-05
3.6108e-06
-7.35239e-05
3.09089e-06
-7.43906e-05
2.53358e-06
-7.50143e-05
1.94193e-06
-7.53852e-05
1.31945e-06
-7.54947e-05
6.69669e-07
-7.53399e-05
1.54042e-09
-7.49106e-05
-6.91698e-07
-7.42077e-05
-1.39355e-06
-7.32301e-05
-2.10309e-06
-7.19791e-05
-2.81429e-06
-7.04582e-05
-3.52117e-06
-6.86731e-05
-4.21759e-06
-6.66315e-05
-4.89723e-06
-6.43433e-05
-5.55371e-06
-6.18206e-05
-6.18061e-06
-5.90775e-05
-6.7716e-06
-5.61302e-05
-7.32046e-06
-5.29969e-05
-7.82122e-06
-4.96974e-05
-8.26822e-06
-4.62535e-05
-8.65623e-06
-4.26884e-05
-8.98053e-06
-3.90266e-05
-9.23704e-06
-3.52939e-05
-9.42238e-06
-3.15168e-05
-9.534e-06
-2.77226e-05
-9.57022e-06
-2.39387e-05
-9.53034e-06
-2.01927e-05
-9.41468e-06
-1.65117e-05
-9.22459e-06
-1.29222e-05
-8.96252e-06
-9.44972e-06
-8.63196e-06
-6.11828e-06
-8.23743e-06
-2.95031e-06
-7.78438e-06
3.38096e-08
-7.27916e-06
2.81628e-06
-6.72901e-06
5.3814e-06
-6.14143e-06
7.7165e-06
-5.52478e-06
9.81185e-06
-4.88753e-06
1.16607e-05
-4.23831e-06
1.32595e-05
-3.58566e-06
1.46075e-05
-2.93791e-06
1.57073e-05
-2.30293e-06
1.6564e-05
-1.68801e-06
1.71855e-05
-1.09973e-06
1.75821e-05
-5.43784e-07
1.77662e-05
-2.49689e-08
1.77519e-05
4.52963e-07
1.75547e-05
8.87251e-07
1.71911e-05
1.27618e-06
1.66783e-05
1.61901e-06
1.60338e-05
1.91591e-06
1.52752e-05
2.16785e-06
1.44196e-05
2.37648e-06
1.34839e-05
2.54394e-06
1.24839e-05
2.67266e-06
1.14351e-05
2.76512e-06
1.03521e-05
2.82363e-06
9.24893e-06
2.85e-06
8.1393e-06
2.84526e-06
7.03689e-06
2.8094e-06
5.95574e-06
2.74108e-06
4.91066e-06
2.63747e-06
3.91763e-06
2.49425e-06
2.99411e-06
2.30585e-06
2.15902e-06
2.06615e-06
1.43242e-06
1.76994e-06
8.34733e-07
1.41556e-06
3.85434e-07
1.00897e-06
1.01823e-07
5.70183e-07
1.49036e-07
9.42287e-08
-2.53999e-07
3.20173e-07
-6.89708e-07
6.37843e-07
-1.03098e-06
1.01485e-06
-1.27125e-06
1.42284e-06
-1.41383e-06
1.83676e-06
-1.46719e-06
2.23466e-06
-1.44255e-06
2.59775e-06
-1.35217e-06
2.91031e-06
-1.20825e-06
3.15959e-06
-1.02223e-06
3.3356e-06
-8.04417e-07
3.43073e-06
-5.63776e-07
3.4395e-06
-3.07794e-07
3.35807e-06
-4.24728e-08
3.18394e-06
2.27645e-07
2.91554e-06
4.99398e-07
2.55188e-06
7.70892e-07
2.09224e-06
1.04135e-06
1.53591e-06
1.31093e-06
8.81988e-07
1.58056e-06
1.29207e-07
1.85167e-06
-7.24125e-07
2.12607e-06
-1.68017e-06
2.40569e-06
-2.74155e-06
2.69242e-06
-3.91122e-06
2.98795e-06
-5.19244e-06
3.29367e-06
-6.58855e-06
3.61053e-06
-8.10287e-06
3.93899e-06
-9.73849e-06
4.27901e-06
-1.14981e-05
4.62999e-06
-1.33839e-05
4.99082e-06
-1.53971e-05
5.35989e-06
-1.75384e-05
5.73507e-06
-1.98072e-05
6.11384e-06
-2.22018e-05
6.49324e-06
-2.47191e-05
6.86994e-06
-2.73549e-05
7.2403e-06
-3.01033e-05
7.60038e-06
-3.2957e-05
7.94602e-06
-3.59072e-05
8.27284e-06
-3.89436e-05
8.57634e-06
-4.20542e-05
8.85194e-06
-4.52258e-05
9.09504e-06
-4.84436e-05
9.30109e-06
-5.16916e-05
9.46564e-06
-5.49526e-05
9.58446e-06
-5.82084e-05
9.65353e-06
-6.14399e-05
9.6692e-06
-6.46273e-05
9.62815e-06
-6.77504e-05
9.52755e-06
-7.07885e-05
9.365e-06
-7.3721e-05
9.13868e-06
-7.65272e-05
8.8473e-06
-7.9187e-05
8.49018e-06
-8.16804e-05
8.06722e-06
-8.39885e-05
7.57898e-06
-8.60929e-05
7.0266e-06
-8.79763e-05
6.41187e-06
-8.96228e-05
5.73719e-06
-9.10176e-05
5.00556e-06
-9.21473e-05
4.22057e-06
-9.30001e-05
3.38637e-06
-9.35658e-05
2.50769e-06
-9.38362e-05
1.58977e-06
-9.3805e-05
6.38512e-07
-9.34641e-05
-3.39392e-07
-9.28161e-05
-1.33967e-06
-9.18568e-05
-2.35282e-06
-9.05879e-05
-3.37202e-06
-8.90125e-05
-4.38965e-06
-8.7136e-05
-5.3977e-06
-8.49656e-05
-6.38795e-06
-8.25109e-05
-7.35199e-06
-7.97832e-05
-8.28135e-06
-7.67963e-05
-9.16755e-06
-7.35657e-05
-1.00022e-05
-7.0109e-05
-1.07771e-05
-6.64458e-05
-1.14844e-05
-6.25974e-05
-1.21166e-05
-5.85869e-05
-1.26667e-05
-5.4439e-05
-1.31285e-05
-5.01796e-05
-1.34964e-05
-4.58362e-05
-1.37658e-05
-4.14369e-05
-1.39333e-05
-3.70108e-05
-1.39963e-05
-3.25873e-05
-1.39538e-05
-2.81962e-05
-1.38058e-05
-2.38668e-05
-1.35539e-05
-1.96283e-05
-1.32011e-05
-1.55086e-05
-1.27516e-05
-1.15349e-05
-1.22111e-05
-7.7325e-06
-1.15868e-05
-4.12487e-06
-1.08868e-05
-7.33444e-07
-1.01204e-05
2.4231e-06
-9.29798e-06
5.32868e-06
-8.43036e-06
7.97024e-06
-7.52909e-06
1.03379e-05
-6.60594e-06
1.24249e-05
-5.6727e-06
1.4228e-05
-4.741e-06
1.57471e-05
-3.822e-06
1.69852e-05
-2.92618e-06
1.79487e-05
-2.06317e-06
1.86464e-05
-1.24152e-06
1.90901e-05
-4.68608e-07
1.92935e-05
2.4954e-07
1.92725e-05
9.0826e-07
1.90444e-05
1.50427e-06
1.86277e-05
2.03569e-06
1.80417e-05
2.50189e-06
1.73061e-05
2.90345e-06
1.64407e-05
3.24193e-06
1.54649e-05
3.51967e-06
1.43981e-05
3.73949e-06
1.32588e-05
3.90443e-06
1.20651e-05
4.01735e-06
1.08345e-05
4.08057e-06
9.5843e-06
4.09546e-06
8.33162e-06
4.06207e-06
7.09387e-06
3.97882e-06
5.88907e-06
3.84227e-06
4.73623e-06
3.6471e-06
3.65559e-06
3.3865e-06
2.66878e-06
3.05296e-06
1.79882e-06
2.6399e-06
1.06996e-06
2.14442e-06
5.07734e-07
1.5712e-06
1.39779e-07
9.38138e-07
2.88814e-07
1.01879e-07
-3.55877e-07
3.43813e-07
-9.31641e-07
6.79036e-07
-1.3662e-06
1.07018e-06
-1.6624e-06
1.48563e-06
-1.82927e-06
1.89819e-06
-1.87975e-06
2.28448e-06
-1.82885e-06
2.6246e-06
-1.69229e-06
2.90187e-06
-1.48552e-06
3.10266e-06
-1.22302e-06
3.21608e-06
-9.17834e-07
3.23366e-06
-5.81358e-07
3.14902e-06
-2.23156e-07
2.95748e-06
1.49072e-07
2.65565e-06
5.29471e-07
2.24111e-06
9.13939e-07
1.71201e-06
1.29999e-06
1.06681e-06
1.68655e-06
3.03971e-07
2.07377e-06
-5.78205e-07
2.46273e-06
-1.58173e-06
2.8552e-06
-2.709e-06
3.25334e-06
-3.96281e-06
3.6595e-06
-5.34629e-06
4.0759e-06
-6.86282e-06
4.50449e-06
-8.51589e-06
4.94674e-06
-1.03089e-05
5.40355e-06
-1.22451e-05
5.87512e-06
-1.4327e-05
6.36095e-06
-1.65568e-05
6.85977e-06
-1.89355e-05
7.3696e-06
-2.14634e-05
7.88778e-06
-2.41393e-05
8.41098e-06
-2.69608e-05
8.93528e-06
-2.99238e-05
9.45623e-06
-3.30227e-05
9.9689e-06
-3.62504e-05
1.0468e-05
-3.95978e-05
1.09478e-05
-4.30541e-05
1.14024e-05
-4.6607e-05
1.18257e-05
-5.02421e-05
1.22115e-05
-5.39438e-05
1.25536e-05
-5.76947e-05
1.2846e-05
-6.14763e-05
1.30826e-05
-6.52686e-05
1.3258e-05
-6.90509e-05
1.33667e-05
-7.28014e-05
1.34041e-05
-7.6498e-05
1.33658e-05
-8.01182e-05
1.32483e-05
-8.36391e-05
1.30485e-05
-8.70383e-05
1.27642e-05
-9.02934e-05
1.23938e-05
-9.33828e-05
1.19367e-05
-9.62854e-05
1.13928e-05
-9.89813e-05
1.07631e-05
-0.000101451
1.00491e-05
-0.000103678
9.25319e-06
-0.000105645
8.37853e-06
-0.000107336
7.42895e-06
-0.00010874
6.409e-06
-0.000109843
5.32388e-06
-0.000110636
4.17942e-06
-0.000111111
2.98205e-06
-0.00011126
1.73879e-06
-0.000111079
4.57435e-07
-0.000110563
-8.54634e-07
-0.000109714
-2.18881e-06
-0.000108531
-3.53583e-06
-0.000107017
-4.88647e-06
-0.000105175
-6.23113e-06
-0.000103013
-7.55989e-06
-0.000100538
-8.8626e-06
-9.77614e-05
-1.01289e-05
-9.46943e-05
-1.13485e-05
-9.1351e-05
-1.25108e-05
-8.77476e-05
-1.36057e-05
-8.39018e-05
-1.46229e-05
-7.98335e-05
-1.55528e-05
-7.55641e-05
-1.6386e-05
-7.11168e-05
-1.7114e-05
-6.65166e-05
-1.77287e-05
-6.17897e-05
-1.82232e-05
-5.69639e-05
-1.85916e-05
-5.2068e-05
-1.88292e-05
-4.71317e-05
-1.89327e-05
-4.21853e-05
-1.89001e-05
-3.72598e-05
-1.87314e-05
-3.23859e-05
-1.84278e-05
-2.75943e-05
-1.79927e-05
-2.29151e-05
-1.74308e-05
-1.83774e-05
-1.67489e-05
-1.40089e-05
-1.59553e-05
-9.83589e-06
-1.50598e-05
-5.88247e-06
-1.40739e-05
-2.17045e-06
-1.301e-05
1.281e-06
-1.18818e-05
4.4556e-06
-1.07037e-05
7.34017e-06
-9.4905e-06
9.92482e-06
-8.25736e-06
1.22031e-05
-7.01924e-06
1.41718e-05
-5.79076e-06
1.58315e-05
-4.58583e-06
1.71857e-05
-3.41741e-06
1.82414e-05
-2.29724e-06
1.90085e-05
-1.23568e-06
1.94995e-05
-2.41472e-07
1.97294e-05
6.78323e-07
1.97153e-05
1.51839e-06
1.94759e-05
2.27515e-06
1.9031e-05
2.94672e-06
1.84017e-05
3.53279e-06
1.76093e-05
4.03438e-06
1.66753e-05
4.45362e-06
1.56214e-05
4.79339e-06
1.44689e-05
5.05698e-06
1.32386e-05
5.24759e-06
1.19513e-05
5.3679e-06
1.06272e-05
5.41954e-06
9.28661e-06
5.40266e-06
7.94994e-06
5.31549e-06
6.63812e-06
5.15409e-06
5.37286e-06
4.91236e-06
4.17703e-06
4.58233e-06
3.07494e-06
4.15505e-06
2.09269e-06
3.62214e-06
1.25878e-06
2.97833e-06
6.05113e-07
2.22487e-06
1.69251e-07
1.374e-06
4.58065e-07
1.03947e-07
-4.59825e-07
3.48928e-07
-1.17662e-06
6.83955e-07
-1.70123e-06
1.0681e-06
-2.04654e-06
1.46725e-06
-2.22843e-06
1.85261e-06
-2.26511e-06
2.19977e-06
-2.176e-06
2.4881e-06
-1.98063e-06
2.70039e-06
-1.69781e-06
2.82246e-06
-1.34509e-06
2.84286e-06
-9.38227e-07
2.75249e-06
-4.90988e-07
2.54427e-06
-1.49424e-08
2.21277e-06
4.80577e-07
1.75378e-06
9.88455e-07
1.16403e-06
1.50369e-06
4.40802e-07
2.02322e-06
-4.1835e-07
2.54571e-06
-1.41582e-06
3.07124e-06
-2.55415e-06
3.60106e-06
-3.83611e-06
4.13716e-06
-5.26479e-06
4.68203e-06
-6.84353e-06
5.23824e-06
-8.57587e-06
5.80824e-06
-1.04654e-05
6.39401e-06
-1.25156e-05
6.99692e-06
-1.47296e-05
7.61753e-06
-1.71099e-05
8.2555e-06
-1.96585e-05
8.90956e-06
-2.23762e-05
9.57745e-06
-2.52626e-05
1.0256e-05
-2.8316e-05
1.09411e-05
-3.15329e-05
1.16279e-05
-3.49085e-05
1.23108e-05
-3.84357e-05
1.29835e-05
-4.2106e-05
1.36391e-05
-4.59084e-05
1.42705e-05
-4.98306e-05
1.48699e-05
-5.38578e-05
1.54296e-05
-5.79738e-05
1.59416e-05
-6.21604e-05
1.63982e-05
-6.63982e-05
1.67914e-05
-7.06661e-05
1.71138e-05
-7.49419e-05
1.73585e-05
-7.92027e-05
1.75187e-05
-8.34247e-05
1.75887e-05
-8.75837e-05
1.75631e-05
-9.16556e-05
1.74377e-05
-9.56161e-05
1.72088e-05
-9.94414e-05
1.68738e-05
-0.000103108
1.64311e-05
-0.000106594
1.58799e-05
-0.000109878
1.52205e-05
-0.000112939
1.44541e-05
-0.000115759
1.35828e-05
-0.00011832
1.26096e-05
-0.000120605
1.15383e-05
-0.0001226
1.03737e-05
-0.000124292
9.12111e-06
-0.00012567
7.78672e-06
-0.000126723
6.37736e-06
-0.000127444
4.90048e-06
-0.000127826
3.36415e-06
-0.000127865
1.77697e-06
-0.000127556
1.48668e-07
-0.000126898
-1.51268e-06
-0.000125891
-3.19561e-06
-0.000124537
-4.88993e-06
-0.000122839
-6.58469e-06
-0.000120801
-8.26862e-06
-0.000118431
-9.9301e-06
-0.000115736
-1.15573e-05
-0.000112727
-1.31381e-05
-0.000109415
-1.46603e-05
-0.000105814
-1.61118e-05
-0.000101939
-1.74805e-05
-9.78079e-05
-1.87544e-05
-9.34388e-05
-1.99219e-05
-8.88529e-05
-2.0972e-05
-8.40727e-05
-2.18942e-05
-7.91225e-05
-2.26789e-05
-7.40282e-05
-2.33175e-05
-6.88172e-05
-2.38027e-05
-6.35181e-05
-2.41283e-05
-5.81608e-05
-2.429e-05
-5.27761e-05
-2.42849e-05
-4.73953e-05
-2.41121e-05
-4.20504e-05
-2.37728e-05
-3.67731e-05
-2.327e-05
-3.15949e-05
-2.26089e-05
-2.6547e-05
-2.17969e-05
-2.1659e-05
-2.08432e-05
-1.69596e-05
-1.97592e-05
-1.24755e-05
-1.8558e-05
-8.23128e-06
-1.72542e-05
-4.24917e-06
-1.58639e-05
-5.48582e-07
-1.44043e-05
2.85409e-06
-1.28932e-05
5.94566e-06
-1.13489e-05
8.71636e-06
-9.78994e-06
1.11599e-05
-8.23432e-06
1.32736e-05
-6.69954e-06
1.50583e-05
-5.20207e-06
1.65182e-05
-3.75712e-06
1.76608e-05
-2.37829e-06
1.84968e-05
-1.07744e-06
1.90395e-05
1.35548e-07
1.9305e-05
1.25293e-06
1.93112e-05
2.26892e-06
1.9078e-05
3.1799e-06
1.86267e-05
3.98416e-06
1.79794e-05
4.68171e-06
1.71589e-05
5.27403e-06
1.61887e-05
5.76365e-06
1.50919e-05
6.15374e-06
1.3892e-05
6.44756e-06
1.26119e-05
6.64793e-06
1.12749e-05
6.75662e-06
9.90372e-06
6.77379e-06
8.52168e-06
6.69753e-06
7.15228e-06
6.52349e-06
5.81982e-06
6.24482e-06
4.54973e-06
5.85242e-06
3.36904e-06
5.33573e-06
2.30711e-06
4.68407e-06
1.3967e-06
3.88874e-06
6.75724e-07
2.94584e-06
1.90162e-07
1.85956e-06
6.48227e-07
1.01459e-07
-5.61285e-07
3.3807e-07
-1.41323e-06
6.56632e-07
-2.01979e-06
1.01407e-06
-2.40397e-06
1.37468e-06
-2.58904e-06
1.70866e-06
-2.59909e-06
1.99101e-06
-2.45835e-06
2.20078e-06
-2.19039e-06
2.3205e-06
-1.81754e-06
2.33576e-06
-1.36034e-06
2.23477e-06
-8.37243e-07
2.00803e-06
-2.64249e-07
1.64792e-06
3.45172e-07
1.14833e-06
9.80166e-07
5.04336e-07
1.63245e-06
-2.88173e-07
2.2962e-06
-1.23278e-06
2.96783e-06
-2.33281e-06
3.64573e-06
-3.59151e-06
4.32995e-06
-5.01226e-06
5.0218e-06
-6.59854e-06
5.72345e-06
-8.35402e-06
6.43751e-06
-1.02825e-05
7.1667e-06
-1.23876e-05
7.91339e-06
-1.4673e-05
8.67941e-06
-1.71418e-05
9.46568e-06
-1.97964e-05
1.02721e-05
-2.26385e-05
1.10976e-05
-2.56684e-05
1.19395e-05
-2.88854e-05
1.27944e-05
-3.2287e-05
1.36575e-05
-3.58688e-05
1.4523e-05
-3.96249e-05
1.5384e-05
-4.3547e-05
1.62329e-05
-4.76249e-05
1.70614e-05
-5.18462e-05
1.78604e-05
-5.61965e-05
1.86207e-05
-6.06593e-05
1.93327e-05
-6.52162e-05
1.99865e-05
-6.9847e-05
2.05725e-05
-7.453e-05
2.10812e-05
-7.92423e-05
2.15036e-05
-8.39596e-05
2.18312e-05
-8.86572e-05
2.2056e-05
-9.33096e-05
2.21712e-05
-9.78913e-05
2.21704e-05
-0.000102377
2.20487e-05
-0.000106741
2.1802e-05
-0.00011096
2.14274e-05
-0.000115009
2.09232e-05
-0.000118867
2.02886e-05
-0.000122511
1.95243e-05
-0.000125923
1.86317e-05
-0.000129082
1.76136e-05
-0.000131973
1.64735e-05
-0.000134579
1.52161e-05
-0.000136888
1.38467e-05
-0.000138885
1.23715e-05
-0.000140562
1.07977e-05
-0.000141908
9.13268e-06
-0.000142915
7.38491e-06
-0.000143578
5.56326e-06
-0.000143891
3.6772e-06
-0.000143851
1.73672e-06
-0.000143455
-2.47307e-07
-0.000142703
-2.26504e-06
-0.000141594
-4.30398e-06
-0.000140132
-6.35253e-06
-0.000138318
-8.39839e-06
-0.000136158
-1.04289e-05
-0.000133657
-1.24309e-05
-0.000130823
-1.43912e-05
-0.000127665
-1.62961e-05
-0.000124194
-1.81318e-05
-0.000120421
-1.98844e-05
-0.000116361
-2.15402e-05
-0.00011203
-2.30853e-05
-0.000107446
-2.45065e-05
-0.000102627
-2.57907e-05
-9.75954e-05
-2.69257e-05
-9.23743e-05
-2.79e-05
-8.69885e-05
-2.87033e-05
-8.14647e-05
-2.93265e-05
-7.58311e-05
-2.97619e-05
-7.01173e-05
-3.00037e-05
-6.43542e-05
-3.00479e-05
-5.85737e-05
-2.98926e-05
-5.28082e-05
-2.95383e-05
-4.70907e-05
-2.89875e-05
-4.14541e-05
-2.82455e-05
-3.5931e-05
-2.732e-05
-3.05532e-05
-2.62209e-05
-2.53517e-05
-2.49608e-05
-2.03556e-05
-2.35541e-05
-1.55923e-05
-2.20175e-05
-1.1087e-05
-2.03692e-05
-6.86216e-06
-1.86291e-05
-2.9374e-06
-1.68179e-05
6.70836e-07
-1.49572e-05
3.94948e-06
-1.30686e-05
6.88898e-06
-1.11738e-05
9.48343e-06
-9.29399e-06
1.17306e-05
-7.44921e-06
1.36318e-05
-5.65831e-06
1.51919e-05
-3.93843e-06
1.64192e-05
-2.30477e-06
1.73251e-05
-7.70372e-07
1.7924e-05
6.54098e-07
1.82325e-05
1.96036e-06
1.82699e-05
3.14254e-06
1.8057e-05
4.19707e-06
1.76162e-05
5.1225e-06
1.6971e-05
5.91918e-06
1.61458e-05
6.58885e-06
1.51654e-05
7.13418e-06
1.40548e-05
7.55817e-06
1.28392e-05
7.86349e-06
1.1544e-05
8.05185e-06
1.01945e-05
8.12333e-06
8.81619e-06
8.07579e-06
7.43521e-06
7.90447e-06
6.07828e-06
7.60175e-06
4.77334e-06
7.15736e-06
3.55019e-06
6.55888e-06
2.44138e-06
5.79288e-06
1.48365e-06
4.84647e-06
7.20053e-07
3.70944e-06
2.03015e-07
2.3766e-06
8.51241e-07
9.51422e-08
-6.56428e-07
3.13256e-07
-1.63135e-06
6.0047e-07
-2.307e-06
9.12839e-07
-2.71634e-06
1.21403e-06
-2.89023e-06
1.4739e-06
-2.85896e-06
1.66734e-06
-2.6518e-06
1.77345e-06
-2.2965e-06
1.77483e-06
-1.81891e-06
1.65706e-06
-1.24257e-06
1.40824e-06
-5.88425e-07
1.0186e-06
1.25386e-07
4.80118e-07
8.83657e-07
-2.13871e-07
1.67415e-06
-1.06897e-06
2.48755e-06
-2.09006e-06
3.31729e-06
-3.28155e-06
4.15931e-06
-4.64758e-06
5.01177e-06
-6.19226e-06
5.87463e-06
-7.91964e-06
6.74919e-06
-9.83386e-06
7.63766e-06
-1.1939e-05
8.54265e-06
-1.4239e-05
9.46673e-06
-1.67376e-05
1.0412e-05
-1.94379e-05
1.13797e-05
-2.23423e-05
1.23701e-05
-2.54522e-05
1.3382e-05
-2.87677e-05
1.4413e-05
-3.22873e-05
1.54592e-05
-3.6008e-05
1.65151e-05
-3.99245e-05
1.75741e-05
-4.40297e-05
1.86282e-05
-4.83141e-05
1.96684e-05
-5.2766e-05
2.06849e-05
-5.73715e-05
2.16669e-05
-6.21143e-05
2.26033e-05
-6.69762e-05
2.34826e-05
-7.19368e-05
2.42933e-05
-7.69741e-05
2.50238e-05
-8.20645e-05
2.56629e-05
-8.71832e-05
2.61999e-05
-9.23045e-05
2.66249e-05
-9.7402e-05
2.69287e-05
-0.000102449
2.71031e-05
-0.000107419
2.71413e-05
-0.000112286
2.70374e-05
-0.000117025
2.67871e-05
-0.00012161
2.6387e-05
-0.000126018
2.58356e-05
-0.000130227
2.51322e-05
-0.000134216
2.42778e-05
-0.000137966
2.32742e-05
-0.000141459
2.21247e-05
-0.000144679
2.08335e-05
-0.000147611
1.94059e-05
-0.000150243
1.78479e-05
-0.000152563
1.61664e-05
-0.00015456
1.43691e-05
-0.000156227
1.24644e-05
-0.000157555
1.04612e-05
-0.000158539
8.36896e-06
-0.000159174
6.19787e-06
-0.000159455
3.95845e-06
-0.00015938
1.66179e-06
-0.000158947
-6.80508e-07
-0.000158155
-3.05687e-06
-0.000157005
-5.45437e-06
-0.000155497
-7.86016e-06
-0.000153635
-1.02609e-05
-0.000151421
-1.26426e-05
-0.000148861
-1.49912e-05
-0.00014596
-1.72919e-05
-0.000142727
-1.95297e-05
-0.000139169
-2.16894e-05
-0.000135298
-2.37555e-05
-0.000131126
-2.57124e-05
-0.000126666
-2.75448e-05
-0.000121935
-2.92373e-05
-0.000116951
-3.07751e-05
-0.000111733
-3.2144e-05
-0.000106302
-3.33304e-05
-0.000100684
-3.43221e-05
-9.49022e-05
-3.51079e-05
-8.89856e-05
-3.56785e-05
-8.2963e-05
-3.60263e-05
-7.68653e-05
-3.61456e-05
-7.07246e-05
-3.60334e-05
-6.45739e-05
-3.56889e-05
-5.84472e-05
-3.51142e-05
-5.23788e-05
-3.43139e-05
-4.64031e-05
-3.32958e-05
-4.05538e-05
-3.20702e-05
-3.48642e-05
-3.06504e-05
-2.93661e-05
-2.90522e-05
-2.40895e-05
-2.7294e-05
-1.90628e-05
-2.5396e-05
-1.43114e-05
-2.33805e-05
-9.85821e-06
-2.12711e-05
-5.72301e-06
-1.90924e-05
-1.92216e-06
-1.68694e-05
1.53152e-06
-1.46275e-05
4.62889e-06
-1.23914e-05
7.36458e-06
-1.01849e-05
9.73697e-06
-8.0307e-06
1.17482e-05
-5.94964e-06
1.3404e-05
-3.96053e-06
1.47134e-05
-2.07982e-06
1.56889e-05
-3.21403e-07
1.63457e-05
1.30354e-06
1.67018e-05
2.78649e-06
1.67772e-05
4.12163e-06
1.65942e-05
5.30557e-06
1.61762e-05
6.33711e-06
1.55483e-05
7.21679e-06
1.47361e-05
7.94636e-06
1.37661e-05
8.52819e-06
1.26651e-05
8.96451e-06
1.14602e-05
9.25674e-06
1.01788e-05
9.40466e-06
8.84882e-06
9.40581e-06
7.49839e-06
9.2549e-06
6.15665e-06
8.9435e-06
4.85401e-06
8.46e-06
3.62293e-06
7.78997e-06
2.49894e-06
6.91687e-06
1.52223e-06
5.82318e-06
7.39826e-07
4.49184e-06
2.08549e-07
2.90788e-06
1.05979e-06
8.54668e-08
-7.41893e-07
2.7593e-07
-1.82181e-06
5.18075e-07
-2.54915e-06
7.68235e-07
-2.9665e-06
9.90363e-07
-3.11236e-06
1.15468e-06
-3.02328e-06
1.23653e-06
-2.73365e-06
1.21542e-06
-2.2754e-06
1.07433e-06
-1.67782e-06
7.99051e-07
-9.67296e-07
3.77768e-07
-1.67141e-07
-1.99421e-07
7.02575e-07
-9.40854e-07
1.62509e-06
-1.85365e-06
2.58695e-06
-2.94403e-06
3.57793e-06
-4.21757e-06
4.59082e-06
-5.67942e-06
5.62116e-06
-7.33452e-06