/*--------------------------------*- C++ -*----------------------------------*\
| =========                 |                                                 |
| \\      /  F ield         | OpenFOAM: The Open Source CFD Toolbox           |
|  \\    /   O peration     | Version:  2112                                  |
|   \\  /    A nd           | Website:  www.openfoam.com                      |
|    \\/     M anipulation  |                                                 |
\*---------------------------------------------------------------------------*/
FoamFile
{
    version     2.0;
    format      ascii;
    arch        "LSB;label=32;scalar=64";
    class       volVectorField;
    location    "34";
    object      U;
}
// * * * * * * * * * * * * * * * * * * * * * * * * * * * * * * * * * * * * * //

dimensions      [0 1 -1 0 0 0 0];

internalField   nonuniform List<vector> 
16641
(
(-7.76234e-06 7.47395e-06 0)
(2.84674e-06 -6.57497e-06 0)
(5.94045e-05 -2.23238e-05 0)
(0.000149886 -3.33942e-05 0)
(0.000263171 -3.98963e-05 0)
(0.000389078 -4.2795e-05 0)
(0.00051906 -4.30095e-05 0)
(0.00064645 -4.12972e-05 0)
(0.000766248 -3.82439e-05 0)
(0.000874823 -3.42996e-05 0)
(0.000969662 -2.98142e-05 0)
(0.00104916 -2.50591e-05 0)
(0.00111246 -2.02406e-05 0)
(0.00115926 -1.55105e-05 0)
(0.00118966 -1.09736e-05 0)
(0.00120409 -6.69303e-06 0)
(0.00120309 -2.69473e-06 0)
(0.00118732 1.02788e-06 0)
(0.00115736 4.5043e-06 0)
(0.00111372 7.78379e-06 0)
(0.00105677 1.09294e-05 0)
(0.000986666 1.40124e-05 0)
(0.000903388 1.71069e-05 0)
(0.000806689 2.02856e-05 0)
(0.000696125 2.36163e-05 0)
(0.000571073 2.71586e-05 0)
(0.000430754 3.09629e-05 0)
(0.000274265 3.5069e-05 0)
(0.00010062 3.95058e-05 0)
(-9.12228e-05 4.42915e-05 0)
(-0.000302322 4.94348e-05 0)
(-0.000533718 5.49352e-05 0)
(-0.000786407 6.0784e-05 0)
(-0.00106131 6.69654e-05 0)
(-0.00135925 7.34568e-05 0)
(-0.00168091 8.0229e-05 0)
(-0.00202685 8.72462e-05 0)
(-0.00239743 9.44662e-05 0)
(-0.00279283 0.00010184 0)
(-0.00321301 0.000109311 0)
(-0.0036577 0.000116817 0)
(-0.00412635 0.000124286 0)
(-0.00461816 0.00013164 0)
(-0.00513201 0.000138794 0)
(-0.00566646 0.000145655 0)
(-0.00621978 0.000152125 0)
(-0.00678987 0.0001581 0)
(-0.00737429 0.000163472 0)
(-0.00797029 0.000168128 0)
(-0.00857474 0.000171954 0)
(-0.00918419 0.000174836 0)
(-0.00979488 0.00017666 0)
(-0.0104027 0.000177316 0)
(-0.0110034 0.000176698 0)
(-0.0115923 0.000174706 0)
(-0.0121645 0.000171249 0)
(-0.0127152 0.000166248 0)
(-0.0132391 0.000159635 0)
(-0.0137311 0.000151358 0)
(-0.0141859 0.000141381 0)
(-0.0145983 0.000129689 0)
(-0.0149631 0.000116284 0)
(-0.0152755 0.000101194 0)
(-0.0155306 8.44705e-05 0)
(-0.0157241 6.62105e-05 0)
(-0.0158519 4.65346e-05 0)
(-0.0159104 2.55277e-05 0)
(-0.0158962 3.42583e-06 0)
(-0.0158069 -1.97163e-05 0)
(-0.0156407 -4.36168e-05 0)
(-0.0153963 -6.8015e-05 0)
(-0.0150735 -9.26465e-05 0)
(-0.0146725 -0.000117226 0)
(-0.0141947 -0.000141449 0)
(-0.0136423 -0.000164997 0)
(-0.0130184 -0.000187544 0)
(-0.012327 -0.000208762 0)
(-0.011573 -0.000228328 0)
(-0.0107622 -0.000245929 0)
(-0.00990138 -0.000261274 0)
(-0.00899778 -0.000274099 0)
(-0.00805948 -0.000284173 0)
(-0.00709512 -0.000291309 0)
(-0.00611376 -0.000295368 0)
(-0.00512475 -0.000296268 0)
(-0.0041376 -0.000293983 0)
(-0.00316182 -0.000288547 0)
(-0.00220673 -0.000280059 0)
(-0.00128132 -0.000268673 0)
(-0.000393991 -0.000254616 0)
(0.000447316 -0.000238223 0)
(0.00123555 -0.000219658 0)
(0.00196473 -0.000199378 0)
(0.00262971 -0.000177748 0)
(0.00322647 -0.000155167 0)
(0.00375214 -0.000132033 0)
(0.00420502 -0.000108743 0)
(0.00458451 -8.5678e-05 0)
(0.00489113 -6.31924e-05 0)
(0.00512644 -4.16057e-05 0)
(0.00529291 -2.1196e-05 0)
(0.00539388 -2.19465e-06 0)
(0.00543336 1.52161e-05 0)
(0.00541596 3.0904e-05 0)
(0.00534671 4.47895e-05 0)
(0.00523092 5.68396e-05 0)
(0.00507409 6.70661e-05 0)
(0.00488169 7.55208e-05 0)
(0.00465916 8.22907e-05 0)
(0.00441168 8.74917e-05 0)
(0.00414419 9.12622e-05 0)
(0.00386125 9.37566e-05 0)
(0.00356702 9.5138e-05 0)
(0.00326522 9.55706e-05 0)
(0.00295916 9.52106e-05 0)
(0.00265174 9.41964e-05 0)
(0.00234551 9.26368e-05 0)
(0.0020428 9.05967e-05 0)
(0.00174586 8.80799e-05 0)
(0.00145703 8.50081e-05 0)
(0.00117899 8.11964e-05 0)
(0.000915093 7.63235e-05 0)
(0.000669666 6.98998e-05 0)
(0.000448402 6.12418e-05 0)
(0.000258671 4.94982e-05 0)
(0.000109429 3.38571e-05 0)
(1.01623e-05 1.42008e-05 0)
(-3.13334e-05 -7.00473e-06 0)
(-1.84275e-05 -1.84768e-05 0)
(6.35965e-06 -3.21214e-06 0)
(7.27542e-05 -7.31009e-05 0)
(0.000232438 -0.00014293 0)
(0.000459939 -0.00019474 0)
(0.000733904 -0.000227188 0)
(0.0010347 -0.000242557 0)
(0.00134417 -0.00024392 0)
(0.00164698 -0.000234323 0)
(0.00193085 -0.000216464 0)
(0.00218636 -0.000192634 0)
(0.00240657 -0.000164743 0)
(0.00258669 -0.00013435 0)
(0.00272372 -0.000102695 0)
(0.00281607 -7.07268e-05 0)
(0.0028632 -3.91289e-05 0)
(0.00286539 -8.34413e-06 0)
(0.00282334 2.13978e-05 0)
(0.00273801 5.00509e-05 0)
(0.00261036 7.77202e-05 0)
(0.00244117 0.00010463 0)
(0.00223092 0.000131089 0)
(0.0019797 0.000157461 0)
(0.00168714 0.000184134 0)
(0.00135241 0.000211491 0)
(0.000974235 0.000239891 0)
(0.000550925 0.000269647 0)
(8.0469e-05 0.000301021 0)
(-0.000439407 0.000334205 0)
(-0.00101114 0.000369329 0)
(-0.00163724 0.000406452 0)
(-0.00232021 0.000445566 0)
(-0.00306242 0.000486605 0)
(-0.00386605 0.000529442 0)
(-0.00473301 0.000573898 0)
(-0.00566487 0.000619742 0)
(-0.00666274 0.000666699 0)
(-0.00772727 0.000714444 0)
(-0.00885856 0.00076261 0)
(-0.0100561 0.000810787 0)
(-0.0113187 0.000858523 0)
(-0.0126444 0.000905324 0)
(-0.0140307 0.000950659 0)
(-0.0154739 0.000993961 0)
(-0.01697 0.00103463 0)
(-0.0185136 0.00107205 0)
(-0.0200987 0.00110558 0)
(-0.0217186 0.00113455 0)
(-0.0233654 0.00115831 0)
(-0.0250305 0.0011762 0)
(-0.0267045 0.00118758 0)
(-0.0283773 0.00119184 0)
(-0.0300381 0.00118838 0)
(-0.0316752 0.00117667 0)
(-0.0332769 0.00115621 0)
(-0.0348305 0.00112659 0)
(-0.0363233 0.00108746 0)
(-0.0377424 0.00103854 0)
(-0.0390746 0.000979668 0)
(-0.0403069 0.000910769 0)
(-0.0414265 0.000831877 0)
(-0.0424208 0.000743146 0)
(-0.0432779 0.000644847 0)
(-0.0439864 0.000537381 0)
(-0.0445356 0.00042129 0)
(-0.0449159 0.000297301 0)
(-0.045119 0.000166193 0)
(-0.0451374 2.84484e-05 0)
(-0.044965 -0.000114083 0)
(-0.0445972 -0.000260614 0)
(-0.0440316 -0.000409835 0)
(-0.043267 -0.000560298 0)
(-0.0423043 -0.00071048 0)
(-0.0411461 -0.000858781 0)
(-0.0397973 -0.00100354 0)
(-0.0382645 -0.00114305 0)
(-0.0365566 -0.00127561 0)
(-0.0346842 -0.0013995 0)
(-0.0326602 -0.00151308 0)
(-0.0304991 -0.00161476 0)
(-0.0282173 -0.00170307 0)
(-0.0258329 -0.00177671 0)
(-0.023365 -0.00183451 0)
(-0.0208344 -0.00187556 0)
(-0.0182625 -0.00189917 0)
(-0.0156715 -0.00190492 0)
(-0.0130837 -0.00189267 0)
(-0.0105217 -0.0018626 0)
(-0.00800756 -0.00181516 0)
(-0.00556276 -0.00175114 0)
(-0.00320767 -0.00167161 0)
(-0.000961334 -0.001578 0)
(0.00115878 -0.00147174 0)
(0.00313729 -0.00135467 0)
(0.00496098 -0.00122876 0)
(0.00661893 -0.00109614 0)
(0.0081028 -0.000958915 0)
(0.00940682 -0.000819236 0)
(0.0105278 -0.000679221 0)
(0.0114653 -0.000540891 0)
(0.0122211 -0.000406129 0)
(0.0127995 -0.000276637 0)
(0.0132069 -0.000153903 0)
(0.0134516 -3.91791e-05 0)
(0.0135434 6.65399e-05 0)
(0.0134935 0.000162523 0)
(0.0133142 0.000248301 0)
(0.0130183 0.000323657 0)
(0.012619 0.000388611 0)
(0.0121298 0.0004434 0)
(0.0115636 0.000488447 0)
(0.0109331 0.000524326 0)
(0.0102505 0.000551733 0)
(0.00952706 0.000571434 0)
(0.00877316 0.000584222 0)
(0.00799837 0.000590865 0)
(0.00721141 0.000592042 0)
(0.00642031 0.000588278 0)
(0.00563262 0.000579866 0)
(0.00485573 0.000566784 0)
(0.00409727 0.000548608 0)
(0.00336561 0.000524422 0)
(0.00267044 0.000492749 0)
(0.00202325 0.000451523 0)
(0.00143781 0.000398175 0)
(0.000930273 0.000330015 0)
(0.000518251 0.000245316 0)
(0.000218165 0.000145653 0)
(4.22661e-05 4.13159e-05 0)
(-6.71977e-06 -3.14e-05 0)
(2.21488e-05 -5.93966e-05 0)
(0.00014282 -0.000232708 0)
(0.000390885 -0.000390599 0)
(0.000724349 -0.000509008 0)
(0.00111414 -0.000584443 0)
(0.00153544 -0.000620093 0)
(0.00196458 -0.000621606 0)
(0.00238084 -0.000595285 0)
(0.00276709 -0.000547177 0)
(0.00310973 -0.000482716 0)
(0.00339838 -0.00040661 0)
(0.00362553 -0.000322811 0)
(0.0037861 -0.000234536 0)
(0.00387698 -0.000144295 0)
(0.00389662 -5.3934e-05 0)
(0.00384455 3.53109e-05 0)
(0.00372106 0.000122747 0)
(0.0035268 0.000208158 0)
(0.00326247 0.000291724 0)
(0.00292861 0.000373942 0)
(0.00252538 0.000455532 0)
(0.00205244 0.000537365 0)
(0.00150886 0.000620377 0)
(0.000893115 0.000705497 0)
(0.000203105 0.000793594 0)
(-0.000563775 0.000885422 0)
(-0.00141054 0.000981588 0)
(-0.00234048 0.00108252 0)
(-0.00335706 0.00118848 0)
(-0.00446373 0.00129952 0)
(-0.00566381 0.00141552 0)
(-0.00696034 0.00153618 0)
(-0.00835595 0.00166103 0)
(-0.00985273 0.00178945 0)
(-0.0114521 0.00192068 0)
(-0.0131547 0.00205382 0)
(-0.0149604 0.00218783 0)
(-0.016868 0.00232155 0)
(-0.0188752 0.00245372 0)
(-0.0209788 0.00258297 0)
(-0.0231741 0.00270781 0)
(-0.0254555 0.00282668 0)
(-0.0278159 0.00293795 0)
(-0.030247 0.00303993 0)
(-0.0327391 0.00313087 0)
(-0.0352814 0.00320903 0)
(-0.0378616 0.00327266 0)
(-0.0404663 0.00332003 0)
(-0.0430812 0.00334948 0)
(-0.0456906 0.00335943 0)
(-0.0482781 0.00334839 0)
(-0.0508263 0.00331502 0)
(-0.0533174 0.00325812 0)
(-0.0557329 0.00317668 0)
(-0.058054 0.00306991 0)
(-0.0602618 0.00293722 0)
(-0.0623374 0.00277827 0)
(-0.0642621 0.00259299 0)
(-0.0660176 0.00238158 0)
(-0.0675862 0.00214452 0)
(-0.0689511 0.00188262 0)
(-0.0700965 0.00159695 0)
(-0.0710076 0.00128892 0)
(-0.0716711 0.00096028 0)
(-0.0720754 0.000613139 0)
(-0.072211 0.000249864 0)
(-0.072069 -0.000127985 0)
(-0.0716429 -0.000516056 0)
(-0.0709295 -0.000911574 0)
(-0.0699271 -0.00131128 0)
(-0.0686362 -0.00171154 0)
(-0.0670602 -0.00210854 0)
(-0.0652048 -0.0024983 0)
(-0.0630783 -0.00287675 0)
(-0.0606916 -0.00323976 0)
(-0.0580582 -0.00358322 0)
(-0.0551942 -0.00390309 0)
(-0.052118 -0.00419543 0)
(-0.0488504 -0.00445654 0)
(-0.0454144 -0.00468299 0)
(-0.0418349 -0.00487169 0)
(-0.0381386 -0.00501998 0)
(-0.0343537 -0.00512568 0)
(-0.0305095 -0.00518718 0)
(-0.0266363 -0.00520348 0)
(-0.0227646 -0.00517423 0)
(-0.0189253 -0.00509978 0)
(-0.0151485 -0.00498118 0)
(-0.0114641 -0.00482018 0)
(-0.00790028 -0.00461924 0)
(-0.00448396 -0.00438148 0)
(-0.00123995 -0.00411058 0)
(0.00180936 -0.00381072 0)
(0.00464422 -0.00348651 0)
(0.00724789 -0.00314309 0)
(0.00960695 -0.0027856 0)
(0.0117112 -0.00241932 0)
(0.0135541 -0.00204955 0)
(0.0151323 -0.00168143 0)
(0.0164462 -0.00131982 0)
(0.0174994 -0.000969234 0)
(0.0182985 -0.000633714 0)
(0.018853 -0.000316772 0)
(0.019175 -2.13283e-05 0)
(0.0192786 0.000250324 0)
(0.0191799 0.000496535 0)
(0.0188959 0.00071629 0)
(0.0184451 0.00090919 0)
(0.0178459 0.0010754 0)
(0.0171173 0.0012156 0)
(0.0162778 0.0013309 0)
(0.0153454 0.00142274 0)
(0.0143374 0.00149281 0)
(0.0132699 0.0015429 0)
(0.0121584 0.00157477 0)
(0.011017 0.00158999 0)
(0.00985916 0.00158977 0)
(0.00869771 0.00157478 0)
(0.00754524 0.00154496 0)
(0.00641462 0.00149932 0)
(0.00531955 0.00143578 0)
(0.00427517 0.00135115 0)
(0.00329856 0.00124116 0)
(0.00240909 0.00110091 0)
(0.0016283 0.000925953 0)
(0.000978538 0.000714602 0)
(0.000479697 0.000472107 0)
(0.000150582 0.000218519 0)
(1.54692e-05 1.14455e-05 0)
(3.34083e-05 -0.00014983 0)
(0.000195661 -0.000460836 0)
(0.000511748 -0.000724513 0)
(0.000922595 -0.000918816 0)
(0.00139161 -0.00104085 0)
(0.00189 -0.00109564 0)
(0.00239052 -0.00109176 0)
(0.00286904 -0.00103907 0)
(0.00330531 -0.000947345 0)
(0.00368291 -0.000825639 0)
(0.00398896 -0.000681967 0)
(0.00421381 -0.000523185 0)
(0.00435059 -0.000354955 0)
(0.00439472 -0.000181753 0)
(0.00434345 -6.92018e-06 0)
(0.00419534 0.000167262 0)
(0.00394987 0.000339468 0)
(0.00360697 0.000509215 0)
(0.00316671 0.000676724 0)
(0.002629 0.000842776 0)
(0.00199333 0.00100856 0)
(0.0012587 0.00117554 0)
(0.000423429 0.00134527 0)
(-0.000514766 0.00151932 0)
(-0.00155879 0.00169914 0)
(-0.00271204 0.00188595 0)
(-0.0039783 0.00208071 0)
(-0.00536159 0.00228406 0)
(-0.00686593 0.00249628 0)
(-0.00849523 0.0027173 0)
(-0.010253 0.00294671 0)
(-0.0121424 0.00318373 0)
(-0.0141656 0.00342729 0)
(-0.0163241 0.003676 0)
(-0.0186185 0.00392823 0)
(-0.0210478 0.00418203 0)
(-0.0236103 0.00443526 0)
(-0.0263024 0.00468553 0)
(-0.0291193 0.00493027 0)
(-0.0320546 0.00516669 0)
(-0.0351001 0.0053919 0)
(-0.0382461 0.00560283 0)
(-0.0414813 0.00579635 0)
(-0.0447927 0.00596925 0)
(-0.0481655 0.00611831 0)
(-0.0515836 0.00624035 0)
(-0.0550294 0.00633224 0)
(-0.0584838 0.00639098 0)
(-0.0619268 0.00641374 0)
(-0.0653371 0.00639791 0)
(-0.0686927 0.00634112 0)
(-0.0719709 0.00624133 0)
(-0.0751486 0.00609682 0)
(-0.0782024 0.00590626 0)
(-0.081109 0.00566874 0)
(-0.0838454 0.00538378 0)
(-0.0863889 0.00505134 0)
(-0.0887175 0.0046719 0)
(-0.0908102 0.0042464 0)
(-0.0926472 0.0037763 0)
(-0.0942099 0.00326354 0)
(-0.0954811 0.0027106 0)
(-0.0964456 0.00212042 0)
(-0.0970896 0.00149644 0)
(-0.0974018 0.000842361 0)
(-0.097374 0.000162612 0)
(-0.0969981 -0.000536088 0)
(-0.0962682 -0.00125054 0)
(-0.095184 -0.00197481 0)
(-0.0937456 -0.00270274 0)
(-0.0919561 -0.00342802 0)
(-0.0898215 -0.00414409 0)
(-0.0873503 -0.00484421 0)
(-0.084554 -0.00552154 0)
(-0.0814468 -0.00616919 0)
(-0.0780455 -0.00678033 0)
(-0.0743698 -0.00734827 0)
(-0.0704418 -0.00786657 0)
(-0.0662861 -0.00832912 0)
(-0.0619297 -0.00873029 0)
(-0.0574015 -0.00906502 0)
(-0.0527323 -0.00932892 0)
(-0.0479548 -0.00951839 0)
(-0.0431027 -0.00963074 0)
(-0.0382107 -0.00966424 0)
(-0.0333143 -0.00961822 0)
(-0.028449 -0.00949313 0)
(-0.0236503 -0.00929054 0)
(-0.0189527 -0.0090132 0)
(-0.01439 -0.00866499 0)
(-0.00999415 -0.00825088 0)
(-0.00579528 -0.00777684 0)
(-0.00182092 -0.00724977 0)
(0.00190389 -0.00667734 0)
(0.00535749 -0.00606787 0)
(0.00852181 -0.00543011 0)
(0.0113822 -0.00477311 0)
(0.0139281 -0.00410595 0)
(0.0161526 -0.00343759 0)
(0.0180532 -0.00277668 0)
(0.019631 -0.00213132 0)
(0.020891 -0.00150895 0)
(0.0218418 -0.000916194 0)
(0.0224951 -0.000358716 0)
(0.0228656 0.000158838 0)
(0.0229705 0.000632899 0)
(0.0228291 0.001061 0)
(0.022462 0.00144174 0)
(0.0218912 0.00177473 0)
(0.0211392 0.00206055 0)
(0.0202287 0.00230054 0)
(0.0191821 0.00249675 0)
(0.0180215 0.00265168 0)
(0.0167679 0.00276809 0)
(0.0154416 0.00284878 0)
(0.014062 0.00289628 0)
(0.0126474 0.00291256 0)
(0.0112157 0.00289875 0)
(0.00978449 0.00285477 0)
(0.00837144 0.00277911 0)
(0.00699506 0.00266858 0)
(0.0056751 0.00251831 0)
(0.00443307 0.002322 0)
(0.00329248 0.00207266 0)
(0.00227883 0.00176438 0)
(0.00141818 0.0013955 0)
(0.000734425 0.000973804 0)
(0.000256562 0.000525155 0)
(3.67967e-05 0.000115304 0)
(4.03679e-05 -0.000263916 0)
(0.000230225 -0.000737189 0)
(0.000591831 -0.00111687 0)
(0.00105183 -0.00138897 0)
(0.00156674 -0.00155451 0)
(0.00210423 -0.00162194 0)
(0.00263435 -0.00160345 0)
(0.0031307 -0.00151273 0)
(0.00357103 -0.00136346 0)
(0.00393705 -0.00116848 0)
(0.00421418 -0.000939297 0)
(0.00439116 -0.000685877 0)
(0.00445968 -0.00041653 0)
(0.00441384 -0.00013789 0)
(0.00424969 0.000145041 0)
(0.00396469 0.0004288 0)
(0.00355731 0.000711331 0)
(0.00302653 0.000991814 0)
(0.00237152 0.00127047 0)
(0.00159127 0.00154836 0)
(0.00068444 0.00182714 0)
(-0.000350867 0.00210885 0)
(-0.00151714 0.00239569 0)
(-0.00281747 0.00268985 0)
(-0.00425549 0.0029933 0)
(-0.00583525 0.0033077 0)
(-0.00756106 0.00363425 0)
(-0.00943726 0.00397363 0)
(-0.0114681 0.004326 0)
(-0.0136572 0.00469093 0)
(-0.0160079 0.00506742 0)
(-0.0185225 0.00545397 0)
(-0.0212023 0.00584853 0)
(-0.0240472 0.00624859 0)
(-0.0270558 0.00665121 0)
(-0.0302252 0.00705303 0)
(-0.0335507 0.00745033 0)
(-0.0370256 0.00783908 0)
(-0.0406417 0.00821495 0)
(-0.0443884 0.00857336 0)
(-0.0482534 0.00890958 0)
(-0.0522224 0.00921869 0)
(-0.056279 0.00949576 0)
(-0.0604052 0.00973582 0)
(-0.064581 0.00993397 0)
(-0.0687851 0.0100855 0)
(-0.0729945 0.0101858 0)
(-0.0771852 0.0102306 0)
(-0.0813319 0.0102161 0)
(-0.0854087 0.0101388 0)
(-0.0893893 0.0099957 0)
(-0.093247 0.00978439 0)
(-0.096955 0.00950301 0)
(-0.100487 0.00915035 0)
(-0.103817 0.00872583 0)
(-0.10692 0.00822959 0)
(-0.109772 0.00766243 0)
(-0.112349 0.00702589 0)
(-0.114631 0.0063222 0)
(-0.116597 0.00555428 0)
(-0.118229 0.00472576 0)
(-0.119511 0.00384094 0)
(-0.120428 0.00290478 0)
(-0.12097 0.00192283 0)
(-0.121126 0.000901107 0)
(-0.120887 -0.000153592 0)
(-0.120249 -0.0012321 0)
(-0.119212 -0.00232869 0)
(-0.117774 -0.00343475 0)
(-0.115938 -0.0045414 0)
(-0.11371 -0.00563959 0)
(-0.111097 -0.00671998 0)
(-0.10811 -0.00777307 0)
(-0.104763 -0.00878922 0)
(-0.101073 -0.00975881 0)
(-0.097057 -0.0106723 0)
(-0.0927378 -0.0115204 0)
(-0.0881391 -0.0122941 0)
(-0.0832871 -0.012985 0)
(-0.0782107 -0.0135851 0)
(-0.0729406 -0.0140874 0)
(-0.0675096 -0.0144858 0)
(-0.0619522 -0.0147751 0)
(-0.0563042 -0.0149514 0)
(-0.0506028 -0.0150122 0)
(-0.0448857 -0.0149562 0)
(-0.039191 -0.0147838 0)
(-0.0335572 -0.014497 0)
(-0.028022 -0.0140993 0)
(-0.0226223 -0.0135958 0)
(-0.0173939 -0.0129932 0)
(-0.0123705 -0.0122995 0)
(-0.00758389 -0.0115243 0)
(-0.00306306 -0.0106782 0)
(0.00116601 -0.00977286 0)
(0.00508084 -0.00882059 0)
(0.00866258 -0.00783435 0)
(0.0118963 -0.00682727 0)
(0.0147714 -0.00581246 0)
(0.0172813 -0.00480272 0)
(0.0194238 -0.00381025 0)
(0.021201 -0.00284644 0)
(0.0226188 -0.00192163 0)
(0.0236872 -0.0010449 0)
(0.0244194 -0.000223926 0)
(0.0248322 0.000535102 0)
(0.0249447 0.00122756 0)
(0.0247783 0.0018504 0)
(0.0243565 0.00240208 0)
(0.0237036 0.00288246 0)
(0.0228448 0.00329268 0)
(0.0218058 0.00363494 0)
(0.0206121 0.00391225 0)
(0.0192885 0.00412808 0)
(0.0178596 0.00428609 0)
(0.0163491 0.00438966 0)
(0.0147798 0.00444147 0)
(0.0131741 0.00444312 0)
(0.0115542 0.0043946 0)
(0.00994212 0.00429401 0)
(0.00836068 0.00413725 0)
(0.00683365 0.00391805 0)
(0.00538626 0.00362839 0)
(0.00404553 0.00325947 0)
(0.00284051 0.00280383 0)
(0.00180118 0.00225889 0)
(0.000956546 0.00163228 0)
(0.000347454 0.000949718 0)
(5.42474e-05 0.000273105 0)
(4.40062e-05 -0.000392095 0)
(0.000248681 -0.00104311 0)
(0.00063376 -0.00154372 0)
(0.00111571 -0.00189129 0)
(0.0016454 -0.0020934 0)
(0.00218738 -0.00216352 0)
(0.00270955 -0.00211835 0)
(0.00318395 -0.00197585 0)
(0.00358701 -0.00175378 0)
(0.00389928 -0.00146883 0)
(0.00410505 -0.00113609 0)
(0.00419194 -0.000768671 0)
(0.00415048 -0.000377595 0)
(0.00397366 2.82951e-05 0)
(0.00365639 0.000442285 0)
(0.00319504 0.000859684 0)
(0.00258696 0.00127766 0)
(0.00183006 0.00169504 0)
(0.000922415 0.00211201 0)
(-0.000138 0.00252987 0)
(-0.00135355 0.00295071 0)
(-0.00272706 0.00337712 0)
(-0.00426189 0.00381188 0)
(-0.00596188 0.00425769 0)
(-0.00783127 0.00471695 0)
(-0.00987455 0.00519157 0)
(-0.0120962 0.0056828 0)
(-0.0145006 0.00619116 0)
(-0.0170915 0.00671639 0)
(-0.0198721 0.00725738 0)
(-0.0228444 0.00781225 0)
(-0.0260094 0.00837834 0)
(-0.0293664 0.00895225 0)
(-0.0329133 0.00952993 0)
(-0.0366459 0.0101067 0)
(-0.0405579 0.0106773 0)
(-0.0446413 0.0112362 0)
(-0.0488855 0.0117771 0)
(-0.0532777 0.0122936 0)
(-0.057803 0.012779 0)
(-0.0624441 0.0132265 0)
(-0.0671818 0.013629 0)
(-0.0719946 0.0139798 0)
(-0.0768594 0.0142719 0)
(-0.0817512 0.0144988 0)
(-0.0866437 0.0146544 0)
(-0.0915095 0.0147327 0)
(-0.0963202 0.0147287 0)
(-0.101047 0.0146377 0)
(-0.10566 0.0144557 0)
(-0.110131 0.0141797 0)
(-0.11443 0.0138073 0)
(-0.118529 0.0133371 0)
(-0.1224 0.0127686 0)
(-0.126018 0.012102 0)
(-0.129356 0.0113387 0)
(-0.13239 0.0104808 0)
(-0.1351 0.00953148 0)
(-0.137464 0.00849463 0)
(-0.139464 0.00737509 0)
(-0.141084 0.00617849 0)
(-0.14231 0.00491127 0)
(-0.14313 0.00358063 0)
(-0.143534 0.00219451 0)
(-0.143514 0.000761614 0)
(-0.143065 -0.000708859 0)
(-0.142185 -0.00220809 0)
(-0.140874 -0.00372457 0)
(-0.139133 -0.00524763 0)
(-0.136966 -0.00676611 0)
(-0.134381 -0.00826839 0)
(-0.131388 -0.00974255 0)
(-0.127997 -0.0111765 0)
(-0.124223 -0.0125579 0)
(-0.120083 -0.0138746 0)
(-0.115597 -0.0151145 0)
(-0.110787 -0.0162658 0)
(-0.105676 -0.0173171 0)
(-0.100291 -0.0182575 0)
(-0.0946609 -0.019077 0)
(-0.0888174 -0.0197664 0)
(-0.082793 -0.0203178 0)
(-0.0766228 -0.0207244 0)
(-0.0703432 -0.0209809 0)
(-0.063992 -0.0210837 0)
(-0.0576082 -0.0210309 0)
(-0.0512312 -0.0208225 0)
(-0.044901 -0.0204605 0)
(-0.0386573 -0.019949 0)
(-0.0325394 -0.0192939 0)
(-0.0265855 -0.0185034 0)
(-0.0208324 -0.0175875 0)
(-0.0153152 -0.0165578 0)
(-0.0100663 -0.0154278 0)
(-0.00511541 -0.0142123 0)
(-0.000489174 -0.0129271 0)
(0.00378951 -0.011589 0)
(0.00770156 -0.0102151 0)
(0.0112321 -0.00882289 0)
(0.0143704 -0.00742945 0)
(0.0171104 -0.00605138 0)
(0.0194503 -0.00470436 0)
(0.0213928 -0.00340288 0)
(0.0229448 -0.00215995 0)
(0.024117 -0.000986874 0)
(0.0249243 0.000106926 0)
(0.0253843 0.00111402 0)
(0.0255179 0.00202902 0)
(0.0253482 0.00284856 0)
(0.0249003 0.00357119 0)
(0.0242007 0.00419722 0)
(0.0232767 0.00472847 0)
(0.0221563 0.00516795 0)
(0.0208672 0.00551947 0)
(0.0194372 0.0057872 0)
(0.0178936 0.00597515 0)
(0.0162631 0.00608658 0)
(0.0145721 0.00612348 0)
(0.0128468 0.00608598 0)
(0.0111133 0.00597189 0)
(0.0093981 0.00577644 0)
(0.00772864 0.00549222 0)
(0.00613356 0.00510969 0)
(0.00464323 0.00461829 0)
(0.00329029 0.00400852 0)
(0.00210908 0.0032755 0)
(0.00113443 0.00242367 0)
(0.00041888 0.00147343 0)
(6.73214e-05 0.000474653 0)
(4.5171e-05 -0.000526311 0)
(0.000253617 -0.00136093 0)
(0.000641802 -0.00198141 0)
(0.00112013 -0.00239788 0)
(0.00163545 -0.0026262 0)
(0.00214978 -0.00268623 0)
(0.00262945 -0.00260001 0)
(0.0030454 -0.00239018 0)
(0.00337333 -0.0020788 0)
(0.00359311 -0.0016865 0)
(0.0036883 -0.0012319 0)
(0.00364578 -0.000731236 0)
(0.00345522 -0.000198172 0)
(0.00310868 0.000356282 0)
(0.00260004 0.000923733 0)
(0.0019246 0.00149829 0)
(0.00107859 0.00207637 0)
(5.8756e-05 0.00265641 0)
(-0.00113794 0.00323858 0)
(-0.00251465 0.00382436 0)
(-0.00407477 0.00441623 0)
(-0.00582208 0.00501722 0)
(-0.00776075 0.00563055 0)
(-0.00989523 0.00625928 0)
(-0.0122302 0.00690604 0)
(-0.0147702 0.00757274 0)
(-0.0175197 0.0082604 0)
(-0.0204823 0.00896905 0)
(-0.0236611 0.00969763 0)
(-0.0270578 0.010444 0)
(-0.0306728 0.011205 0)
(-0.0345048 0.0119763 0)
(-0.0385505 0.0127528 0)
(-0.0428046 0.0135283 0)
(-0.0472595 0.0142962 0)
(-0.0519051 0.0150488 0)
(-0.0567288 0.0157782 0)
(-0.0617156 0.0164758 0)
(-0.066848 0.0171328 0)
(-0.072106 0.0177401 0)
(-0.0774674 0.0182887 0)
(-0.0829078 0.0187694 0)
(-0.088401 0.0191735 0)
(-0.0939191 0.0194925 0)
(-0.0994329 0.0197183 0)
(-0.104912 0.0198438 0)
(-0.110326 0.0198622 0)
(-0.115643 0.0197678 0)
(-0.120831 0.0195558 0)
(-0.125861 0.0192225 0)
(-0.1307 0.0187652 0)
(-0.135321 0.0181822 0)
(-0.139694 0.0174732 0)
(-0.143793 0.0166387 0)
(-0.147592 0.0156807 0)
(-0.151068 0.0146021 0)
(-0.154198 0.0134067 0)
(-0.156963 0.0120996 0)
(-0.159345 0.0106867 0)
(-0.161329 0.00917504 0)
(-0.162899 0.0075723 0)
(-0.164046 0.00588711 0)
(-0.164759 0.00412887 0)
(-0.165032 0.0023077 0)
(-0.164858 0.000434531 0)
(-0.164234 -0.00147906 0)
(-0.16316 -0.00342167 0)
(-0.161636 -0.0053801 0)
(-0.159666 -0.00734127 0)
(-0.157254 -0.00929161 0)
(-0.154409 -0.0112172 0)
(-0.151139 -0.0131037 0)
(-0.147456 -0.0149367 0)
(-0.143375 -0.0167015 0)
(-0.138911 -0.0183836 0)
(-0.134084 -0.0199684 0)
(-0.128915 -0.0214417 0)
(-0.123425 -0.0227897 0)
(-0.117643 -0.0239994 0)
(-0.111594 -0.0250584 0)
(-0.10531 -0.0259554 0)
(-0.0988233 -0.0266806 0)
(-0.0921676 -0.0272252 0)
(-0.0853795 -0.0275825 0)
(-0.0784968 -0.0277475 0)
(-0.0715585 -0.0277174 0)
(-0.064605 -0.0274915 0)
(-0.057677 -0.0270714 0)
(-0.0508157 -0.0264614 0)
(-0.0440622 -0.025668 0)
(-0.0374568 -0.0247004 0)
(-0.0310388 -0.02357 0)
(-0.0248462 -0.0222907 0)
(-0.0189145 -0.0208781 0)
(-0.0132772 -0.01935 0)
(-0.00796444 -0.0177255 0)
(-0.00300318 -0.0160251 0)
(0.00158337 -0.0142698 0)
(0.00577607 -0.0124813 0)
(0.00956006 -0.0106811 0)
(0.012925 -0.00889029 0)
(0.015865 -0.00712908 0)
(0.0183789 -0.0054164 0)
(0.02047 -0.00376957 0)
(0.0221459 -0.00220397 0)
(0.0234184 -0.000732766 0)
(0.0243031 0.000633218 0)
(0.0248191 0.00188564 0)
(0.0249883 0.00301867 0)
(0.0248354 0.0040289 0)
(0.0243869 0.00491514 0)
(0.023671 0.00567823 0)
(0.0227169 0.00632064 0)
(0.0215544 0.00684599 0)
(0.0202136 0.00725856 0)
(0.0187247 0.00756263 0)
(0.0171176 0.00776181 0)
(0.0154221 0.00785835 0)
(0.0136678 0.00785249 0)
(0.0118844 0.00774184 0)
(0.010102 0.00752107 0)
(0.00835118 0.00718181 0)
(0.00666399 0.00671308 0)
(0.0050741 0.00610234 0)
(0.0036179 0.00533748 0)
(0.00233431 0.0044098 0)
(0.00126409 0.00331801 0)
(0.000470056 0.0020733 0)
(7.62862e-05 0.000708737 0)
(4.44782e-05 -0.000660045 0)
(0.000247277 -0.0016749 0)
(0.000620187 -0.00240791 0)
(0.00107121 -0.00288229 0)
(0.00154485 -0.00312318 0)
(0.00200143 -0.00315777 0)
(0.00240631 -0.00301408 0)
(0.00272988 -0.00271984 0)
(0.00294751 -0.00230157 0)
(0.00303878 -0.00178386 0)
(0.00298691 -0.00118878 0)
(0.0027783 -0.000535585 0)
(0.00240202 0.000159541 0)
(0.00184931 0.000883538 0)
(0.00111319 0.00162644 0)
(0.000187917 0.00238123 0)
(-0.000931375 0.00314362 0)
(-0.00224907 0.00391169 0)
(-0.00376935 0.00468555 0)
(-0.00549646 0.00546685 0)
(-0.00743481 0.00625831 0)
(-0.00958903 0.00706328 0)
(-0.0119639 0.00788524 0)
(-0.0145644 0.00872737 0)
(-0.0173953 0.00959222 0)
(-0.0204608 0.0104814 0)
(-0.0237647 0.0113953 0)
(-0.0273097 0.012333 0)
(-0.0310972 0.0132923 0)
(-0.0351271 0.0142696 0)
(-0.0393971 0.0152598 0)
(-0.0439031 0.0162567 0)
(-0.0486384 0.0172528 0)
(-0.0535939 0.0182397 0)
(-0.0587576 0.0192079 0)
(-0.064115 0.0201474 0)
(-0.0696487 0.0210475 0)
(-0.0753389 0.0218971 0)
(-0.0811629 0.0226847 0)
(-0.0870958 0.0233991 0)
(-0.0931106 0.0240289 0)
(-0.0991782 0.0245633 0)
(-0.105268 0.0249916 0)
(-0.111349 0.0253042 0)
(-0.117388 0.0254922 0)
(-0.123353 0.0255476 0)
(-0.129209 0.0254635 0)
(-0.134926 0.0252344 0)
(-0.140469 0.024856 0)
(-0.14581 0.0243252 0)
(-0.150917 0.0236405 0)
(-0.155762 0.0228016 0)
(-0.160319 0.0218095 0)
(-0.164563 0.0206667 0)
(-0.168471 0.0193769 0)
(-0.172021 0.0179449 0)
(-0.175195 0.0163766 0)
(-0.177976 0.0146792 0)
(-0.180349 0.0128606 0)
(-0.182301 0.0109299 0)
(-0.183821 0.0088968 0)
(-0.1849 0.00677199 0)
(-0.185531 0.00456684 0)
(-0.185707 0.00229343 0)
(-0.185426 -3.54438e-05 0)
(-0.184685 -0.00240615 0)
(-0.183485 -0.00480514 0)
(-0.181825 -0.00721765 0)
(-0.179711 -0.00962861 0)
(-0.177146 -0.0120225 0)
(-0.174137 -0.0143832 0)
(-0.170693 -0.0166946 0)
(-0.166825 -0.0189399 0)
(-0.162545 -0.0211024 0)
(-0.157869 -0.0231652 0)
(-0.152812 -0.0251116 0)
(-0.147395 -0.0269251 0)
(-0.141639 -0.0285895 0)
(-0.135567 -0.0300894 0)
(-0.129207 -0.0314101 0)
(-0.122586 -0.0325382 0)
(-0.115737 -0.0334614 0)
(-0.108692 -0.0341692 0)
(-0.101486 -0.0346529 0)
(-0.0941576 -0.0349059 0)
(-0.0867454 -0.0349239 0)
(-0.0792898 -0.0347052 0)
(-0.0718324 -0.0342509 0)
(-0.0644156 -0.0335649 0)
(-0.0570819 -0.0326539 0)
(-0.0498737 -0.0315276 0)
(-0.0428327 -0.0301988 0)
(-0.0359995 -0.0286827 0)
(-0.0294129 -0.0269972 0)
(-0.0231096 -0.0251627 0)
(-0.0171236 -0.0232013 0)
(-0.0114857 -0.0211369 0)
(-0.00622325 -0.0189944 0)
(-0.00135948 -0.0167995 0)
(0.00308645 -0.0145783 0)
(0.00709991 -0.0123562 0)
(0.0106709 -0.0101582 0)
(0.0137942 -0.00800782 0)
(0.0164691 -0.00592696 0)
(0.0186998 -0.0039354 0)
(0.0204947 -0.0020505 0)
(0.0218667 -0.000286934 0)
(0.0228324 0.00134346 0)
(0.023412 0.00283181 0)
(0.0236288 0.00417209 0)
(0.0235086 0.00536105 0)
(0.0230796 0.00639789 0)
(0.0223715 0.00728394 0)
(0.0214151 0.00802209 0)
(0.0202424 0.00861622 0)
(0.0188855 0.00907049 0)
(0.0173769 0.00938852 0)
(0.0157492 0.00957265 0)
(0.0140351 0.00962307 0)
(0.0122672 0.00953719 0)
(0.0104789 0.00930915 0)
(0.00870409 0.00892966 0)
(0.00697777 0.00838623 0)
(0.00533705 0.00766413 0)
(0.00382208 0.00674792 0)
(0.00247627 0.00562389 0)
(0.00134585 0.00428319 0)
(0.000501828 0.0027254 0)
(8.15951e-05 0.000964482 0)
(4.23225e-05 -0.000787945 0)
(0.000231327 -0.00197121 0)
(0.00057238 -0.00280316 0)
(0.000974214 -0.00331997 0)
(0.0013806 -0.00355654 0)
(0.00175113 -0.0035479 0)
(0.00205085 -0.0033285 0)
(0.0022502 -0.00293142 0)
(0.00232463 -0.00238773 0)
(0.00225379 -0.00172591 0)
(0.00202083 -0.000971399 0)
(0.00161192 -0.000146279 0)
(0.00101568 0.000730908 0)
(0.000222747 0.00164522 0)
(-0.000774687 0.00258526 0)
(-0.00198329 0.00354301 0)
(-0.00340898 0.00451352 0)
(-0.00505721 0.00549457 0)
(-0.00693327 0.00648616 0)
(-0.00904238 0.00749002 0)
(-0.0113899 0.00850901 0)
(-0.013981 0.00954659 0)
(-0.0168211 0.0106062 0)
(-0.0199151 0.0116909 0)
(-0.0232675 0.0128027 0)
(-0.0268819 0.0139425 0)
(-0.0307608 0.0151097 0)
(-0.0349054 0.0163021 0)
(-0.0393148 0.0175155 0)
(-0.0439862 0.0187445 0)
(-0.0489141 0.0199816 0)
(-0.0540908 0.0212182 0)
(-0.0595056 0.0224441 0)
(-0.0651447 0.0236481 0)
(-0.0709917 0.024818 0)
(-0.077027 0.0259407 0)
(-0.0832284 0.0270028 0)
(-0.0895708 0.0279906 0)
(-0.096027 0.0288903 0)
(-0.102567 0.0296883 0)
(-0.10916 0.0303715 0)
(-0.115774 0.0309275 0)
(-0.122374 0.0313446 0)
(-0.128925 0.0316125 0)
(-0.135395 0.0317218 0)
(-0.141749 0.0316648 0)
(-0.147952 0.0314351 0)
(-0.153974 0.0310279 0)
(-0.159782 0.03044 0)
(-0.165347 0.0296698 0)
(-0.170641 0.0287175 0)
(-0.175639 0.0275845 0)
(-0.180316 0.0262739 0)
(-0.18465 0.0247901 0)
(-0.188623 0.0231387 0)
(-0.192216 0.0213267 0)
(-0.195413 0.0193622 0)
(-0.1982 0.017254 0)
(-0.200566 0.0150123 0)
(-0.2025 0.0126477 0)
(-0.203993 0.010172 0)
(-0.205038 0.00759728 0)
(-0.20563 0.00493675 0)
(-0.205763 0.00220403 0)
(-0.205436 -0.000586546 0)
(-0.204646 -0.00342007 0)
(-0.203392 -0.00628107 0)
(-0.201677 -0.0091534 0)
(-0.199502 -0.0120204 0)
(-0.196871 -0.0148649 0)
(-0.19379 -0.0176692 0)
(-0.190266 -0.0204151 0)
(-0.186306 -0.0230842 0)
(-0.181923 -0.0256578 0)
(-0.177128 -0.0281168 0)
(-0.171936 -0.0304423 0)
(-0.166364 -0.0326155 0)
(-0.16043 -0.0346179 0)
(-0.154158 -0.0364316 0)