/*--------------------------------*- C++ -*----------------------------------*\
| =========                 |                                                 |
| \\      /  F ield         | OpenFOAM: The Open Source CFD Toolbox           |
|  \\    /   O peration     | Version:  2112                                  |
|   \\  /    A nd           | Website:  www.openfoam.com                      |
|    \\/     M anipulation  |                                                 |
\*---------------------------------------------------------------------------*/
FoamFile
{
    version     2.0;
    format      ascii;
    arch        "LSB;label=32;scalar=64";
    class       volScalarField;
    location    "8";
    object      p;
}
// * * * * * * * * * * * * * * * * * * * * * * * * * * * * * * * * * * * * * //

dimensions      [0 2 -2 0 0 0 0];

internalField   nonuniform List<scalar> 
16641
(
3.27734e-09
-1.36146e-06
-6.39516e-06
-1.41735e-05
-2.35526e-05
-3.37518e-05
-4.40503e-05
-5.4009e-05
-6.32775e-05
-7.16166e-05
-7.88824e-05
-8.49941e-05
-8.99179e-05
-9.36536e-05
-9.62209e-05
-9.76558e-05
-9.80017e-05
-9.73026e-05
-9.56013e-05
-9.29372e-05
-8.93445e-05
-8.48516e-05
-7.94774e-05
-7.32327e-05
-6.61223e-05
-5.8144e-05
-4.92881e-05
-3.95401e-05
-2.88796e-05
-1.72805e-05
-4.7136e-06
8.85246e-06
2.34519e-05
3.91211e-05
5.58974e-05
7.38183e-05
9.29214e-05
0.000113243
0.000134817
0.000157675
0.000181845
0.000207355
0.000234223
0.000262466
0.000292096
0.000323118
0.00035553
0.000389321
0.000424477
0.000460971
0.000498771
0.000537832
0.000578103
0.000619522
0.000662015
0.000705501
0.000749886
0.000795066
0.000840925
0.000887338
0.00093417
0.000981276
0.0010285
0.00107568
0.00112265
0.00116922
0.00121522
0.00126045
0.00130471
0.00134783
0.00138959
0.00142982
0.0014683
0.00150486
0.00153932
0.00157151
0.00160125
0.00162841
0.00165285
0.00167444
0.00169309
0.0017087
0.00172121
0.00173057
0.00173675
0.00173977
0.00173962
0.00173636
0.00173004
0.00172076
0.0017086
0.0016937
0.00167619
0.00165624
0.00163402
0.00160971
0.00158351
0.00155563
0.00152629
0.0014957
0.00146409
0.00143168
0.0013987
0.00136538
0.00133193
0.00129857
0.00126551
0.00123295
0.00120109
0.00117011
0.00114021
0.00111154
0.00108428
0.00105859
0.00103461
0.00101249
0.00099236
0.000974353
0.000958585
0.000945161
0.000934174
0.000925694
0.000919756
0.000916343
0.000915348
0.000916511
0.000919312
0.000922899
0.00092598
1.03842e-06
-3.22721e-07
-4.51298e-06
-1.08112e-05
-1.84008e-05
-2.67022e-05
-3.52016e-05
-4.35048e-05
-5.13056e-05
-5.83838e-05
-6.45878e-05
-6.98225e-05
-7.40365e-05
-7.72062e-05
-7.93316e-05
-8.0429e-05
-8.05219e-05
-7.96385e-05
-7.78071e-05
-7.50551e-05
-7.14079e-05
-6.68847e-05
-6.14978e-05
-5.52545e-05
-4.81568e-05
-4.01997e-05
-3.13733e-05
-2.16633e-05
-1.10489e-05
4.94425e-07
1.29931e-05
2.64766e-05
4.09769e-05
5.65276e-05
7.31627e-05
9.09177e-05
0.000109827
0.000129924
0.000151239
0.000173801
0.000197636
0.000222767
0.000249211
0.000276983
0.000306094
0.000336544
0.000368331
0.000401444
0.000435865
0.00047157
0.000508523
0.000546682
0.000585996
0.000626403
0.000667832
0.000710203
0.000753423
0.000797393
0.000842
0.000887122
0.000932629
0.000978381
0.00102423
0.00107001
0.00111557
0.00116073
0.00120531
0.00124913
0.00129201
0.00133376
0.00137419
0.00141312
0.00145036
0.00148572
0.00151905
0.00155018
0.00157894
0.0016052
0.00162883
0.00164972
0.00166775
0.00168286
0.00169497
0.00170405
0.00171008
0.00171304
0.00171296
0.00170989
0.00170387
0.00169499
0.00168336
0.00166908
0.0016523
0.00163317
0.00161186
0.00158854
0.00156341
0.00153666
0.00150851
0.00147917
0.00144885
0.00141777
0.00138615
0.0013542
0.00132214
0.00129018
0.00125851
0.00122734
0.00119684
0.00116721
0.00113862
0.00111123
0.0010852
0.00106067
0.0010378
0.0010167
0.000997502
0.000980313
0.000965231
0.000952337
0.000941694
0.000933339
0.000927272
0.000923439
0.000921712
0.000921843
0.000923421
0.000925978
0.000929059
5.66179e-06
3.50206e-06
-6.7939e-07
-6.41504e-06
-1.31683e-05
-2.04697e-05
-2.79174e-05
-3.51838e-05
-4.20144e-05
-4.82145e-05
-5.36443e-05
-5.82124e-05
-6.1861e-05
-6.45606e-05
-6.63032e-05
-6.70933e-05
-6.69446e-05
-6.58752e-05
-6.39046e-05
-6.10538e-05
-5.73404e-05
-5.27766e-05
-4.7371e-05
-4.11279e-05
-3.40455e-05
-2.61177e-05
-1.73339e-05
-7.67814e-06
2.87049e-06
1.43352e-05
2.67419e-05
4.01195e-05
5.44983e-05
6.99096e-05
8.63865e-05
0.000103963
0.000122671
0.000142542
0.000163604
0.000185886
0.000209411
0.0002342
0.000260271
0.000287635
0.000316302
0.000346273
0.000377543
0.000410102
0.000443933
0.000479008
0.000515295
0.00055275
0.000591325
0.000630957
0.000671579
0.00071311
0.000755461
0.000798534
0.000842219
0.0008864
0.000930946
0.000975722
0.00102058
0.00106537
0.00110993
0.0011541
0.00119769
0.00124054
0.00128245
0.00132326
0.00136277
0.00140081
0.00143719
0.00147175
0.00150431
0.00153471
0.00156281
0.00158846
0.00161154
0.00163194
0.00164955
0.00166431
0.00167614
0.00168501
0.0016909
0.00169381
0.00169375
0.00169077
0.00168491
0.00167627
0.00166495
0.00165105
0.00163472
0.0016161
0.00159536
0.00157267
0.00154822
0.0015222
0.00149482
0.00146629
0.00143682
0.00140662
0.00137591
0.00134489
0.00131377
0.00128275
0.00125204
0.00122182
0.00119227
0.00116358
0.00113591
0.00110941
0.00108425
0.00106055
0.00103846
0.00101809
0.000999545
0.000982934
0.000968336
0.000955818
0.000945429
0.000937189
0.000931088
0.000927071
0.000925028
0.000924759
0.000925958
0.000928531
0.000932649
1.32045e-05
9.50038e-06
4.70851e-06
-1.06486e-06
-7.5474e-06
-1.43678e-05
-2.12034e-05
-2.77975e-05
-3.39442e-05
-3.94839e-05
-4.43011e-05
-4.83145e-05
-5.14726e-05
-5.37484e-05
-5.51315e-05
-5.56227e-05
-5.52302e-05
-5.39661e-05
-5.18461e-05
-4.88855e-05
-4.50958e-05
-4.04853e-05
-3.50591e-05
-2.88176e-05
-2.17571e-05
-1.38702e-05
-5.14408e-06
4.43894e-06
1.48993e-05
2.62601e-05
3.85478e-05
5.17907e-05
6.6018e-05
8.12605e-05
9.7551e-05
0.000114922
0.000133404
0.000153026
0.000173818
0.000195805
0.000219011
0.000243456
0.000269156
0.000296124
0.000324366
0.000353884
0.000384675
0.000416726
0.000450021
0.000484534
0.000520232
0.000557074
0.00059501
0.000633982
0.00067392
0.000714749
0.000756381
0.000798718
0.000841655
0.000885077
0.000928857
0.000972862
0.00101695
0.00106097
0.00110476
0.00114816
0.00119101
0.00123311
0.00127431
0.00131442
0.00135325
0.00139064
0.0014264
0.00146036
0.00149237
0.00152225
0.00154986
0.00157507
0.00159775
0.00161779
0.00163509
0.00164959
0.00166121
0.00166991
0.00167569
0.00167853
0.00167845
0.0016755
0.00166973
0.00166122
0.00165007
0.00163641
0.00162035
0.00160205
0.00158167
0.00155939
0.00153538
0.00150985
0.001483
0.00145502
0.00142614
0.00139655
0.00136647
0.00133611
0.00130566
0.00127534
0.00124533
0.00121581
0.00118698
0.00115899
0.00113201
0.0011062
0.00108171
0.00105865
0.00103716
0.00101735
0.000999322
0.000983162
0.000968945
0.00095673
0.000946556
0.000938442
0.000932378
0.000928324
0.000926202
0.000925868
0.000927112
0.000930121
0.00093549
2.26117e-05
1.6916e-05
1.11442e-05
4.98735e-06
-1.55133e-06
-8.18081e-06
-1.46564e-05
-2.07868e-05
-2.64159e-05
-3.14242e-05
-3.5722e-05
-3.9246e-05
-4.19573e-05
-4.38349e-05
-4.4871e-05
-4.50661e-05
-4.44265e-05
-4.29627e-05
-4.06874e-05
-3.76105e-05
-3.374e-05
-2.90815e-05
-2.36362e-05
-1.7402e-05
-1.03737e-05
-2.54139e-06
6.11037e-06
1.55998e-05
2.59478e-05
3.71786e-05
4.93189e-05
6.23962e-05
7.64396e-05
9.14807e-05
0.000107551
0.000124683
0.000142905
0.000162248
0.000182739
0.000204404
0.000227266
0.000251344
0.000276655
0.000303211
0.000331019
0.00036008
0.000390391
0.000421942
0.000454714
0.000488685
0.000523821
0.000560084
0.000597424
0.000635784
0.000675098
0.000715291
0.000756277
0.000797962
0.000840242
0.000883004
0.000926124
0.000969472
0.00101291
0.00105628
0.00109944
0.00114222
0.00118445
0.00122597
0.00126659
0.00130614
0.00134445
0.00138133
0.00141661
0.00145012
0.0014817
0.00151118
0.00153843
0.00156331
0.00158568
0.00160545
0.00162252
0.0016368
0.00164825
0.00165682
0.00166249
0.00166526
0.00166514
0.00166218
0.00165644
0.001648
0.00163695
0.00162342
0.00160753
0.00158943
0.00156928
0.00154727
0.00152356
0.00149836
0.00147187
0.00144428
0.00141581
0.00138667
0.00135706
0.00132719
0.00129726
0.00126746
0.00123799
0.00120903
0.00118076
0.00115334
0.00112693
0.00110168
0.00107773
0.0010552
0.00103422
0.00101488
0.000997285
0.000981509
0.000967621
0.000955674
0.000945704
0.000937729
0.000931746
0.000927733
0.000925644
0.000925383
0.000926808
0.000930311
0.000936775
3.30681e-05
2.51393e-05
1.81464e-05
1.13526e-05
4.5068e-06
-2.16936e-06
-8.49556e-06
-1.43434e-05
-1.9609e-05
-2.42091e-05
-2.80829e-05
-3.11906e-05
-3.35083e-05
-3.50247e-05
-3.5738e-05
-3.56513e-05
-3.47733e-05
-3.31151e-05
-3.06862e-05
-2.74945e-05
-2.35461e-05
-1.88436e-05
-1.33856e-05
-7.16858e-06
-1.85025e-07
7.57792e-06
1.6137e-05
2.55114e-05
3.57233e-05
4.67981e-05
5.87625e-05
7.16443e-05
8.54736e-05
0.000100282
0.000116101
0.000132961
0.000150894
0.000169928
0.000190091
0.000211408
0.000233902
0.000257595
0.000282502
0.000308635
0.000336002
0.000364605
0.000394442
0.000425502
0.000457769
0.000491221
0.000525828
0.00056155
0.00059834
0.000636144
0.000674897
0.000714525
0.000754945
0.000796066
0.000837784
0.000879989
0.000922561
0.00096537
0.00100828
0.00105114
0.00109379
0.00113609
0.00117786
0.00121893
0.00125913
0.00129828
0.00133621
0.00137273
0.00140768
0.00144088
0.00147216
0.00150139
0.00152839
0.00155304
0.00157522
0.00159481
0.00161171
0.00162586
0.00163718
0.00164565
0.00165123
0.00165393
0.00165376
0.00165077
0.00164502
0.00163658
0.00162556
0.00161207
0.00159624
0.00157822
0.00155819
0.0015363
0.00151275
0.00148773
0.00146144
0.00143409
0.00140588
0.00137701
0.0013477
0.00131816
0.00128857
0.00125914
0.00123006
0.0012015
0.00117364
0.00114665
0.00112067
0.00109585
0.00107233
0.00105022
0.00102963
0.00101067
0.000993426
0.000977965
0.000964351
0.000952635
0.000942851
0.000935018
0.000929143
0.000925218
0.000923227
0.000923106
0.000924762
0.000928714
0.000936031
4.38031e-05
3.35907e-05
2.52442e-05
1.76467e-05
1.03087e-05
3.40356e-06
-2.94238e-06
-8.66145e-06
-1.36955e-05
-1.79983e-05
-2.15402e-05
-2.43044e-05
-2.62849e-05
-2.74829e-05
-2.79043e-05
-2.75591e-05
-2.64604e-05
-2.46198e-05
-2.20469e-05
-1.87493e-05
-1.47313e-05
-9.99367e-06
-4.53423e-06
1.65228e-06
8.57634e-06
1.62528e-05
2.46993e-05
3.39365e-05
4.39884e-05
5.48808e-05
6.66409e-05
7.92981e-05
9.28836e-05
0.000107429
0.000122965
0.000139524
0.000157138
0.000175835
0.000195643
0.000216589
0.000238696
0.000261986
0.000286475
0.000312176
0.000339097
0.000367243
0.000396611
0.000427193
0.000458974
0.000491933
0.000526042
0.000561263
0.000597552
0.000634855
0.000673109
0.000712244
0.000752178
0.000792821
0.000834073
0.000875825
0.000917957
0.000960343
0.00100285
0.00104532
0.00108761
0.00112957
0.00117101
0.00121179
0.00125171
0.00129061
0.0013283
0.00136461
0.00139937
0.0014324
0.00146354
0.00149263
0.00151951
0.00154405
0.00156613
0.00158564
0.00160246
0.00161654
0.00162779
0.0016362
0.00164172
0.00164436
0.00164414
0.0016411
0.00163529
0.00162681
0.00161574
0.00160222
0.00158636
0.00156833
0.00154829
0.00152641
0.00150289
0.00147791
0.00145167
0.0014244
0.00139628
0.00136754
0.00133837
0.00130899
0.00127959
0.00125037
0.00122152
0.00119321
0.00116562
0.00113891
0.00111323
0.00108871
0.0010655
0.00104369
0.00102341
0.00100473
0.000987753
0.000972536
0.000959141
0.000947615
0.000937992
0.000930295
0.000924536
0.000920723
0.000918857
0.0009189
0.000920786
0.000925109
0.000933041
5.42637e-05
4.17631e-05
3.20017e-05
2.34979e-05
1.55476e-05
8.28586e-06
1.79234e-06
-3.91581e-06
-8.82411e-06
-1.29235e-05
-1.62134e-05
-1.87012e-05
-2.03991e-05
-2.13218e-05
-2.14862e-05
-2.09114e-05
-1.96144e-05
-1.76094e-05
-1.49082e-05
-1.15186e-05
-7.44422e-06
-2.68579e-06
2.75962e-06
8.89974e-06
1.57469e-05
2.3317e-05
3.16294e-05
4.07066e-05
5.05735e-05
6.12566e-05
7.27847e-05
8.51889e-05
9.85008e-05
0.000112752
0.000127976
0.000144205
0.000161471
0.000179804
0.000199233
0.000219784
0.000241484
0.000264353
0.00028841
0.00031367
0.000340141
0.00036783
0.000396734
0.000426849
0.000458161
0.000490651
0.000524292
0.00055905
0.000594881
0.000631734
0.00066955
0.000708257
0.000747779
0.000788025
0.000828899
0.000870293
0.000912089
0.000954161
0.000996373
0.00103858
0.00108064
0.00112238
0.00116364
0.00120425
0.00124404
0.00128282
0.00132043
0.00135667
0.00139138
0.00142437
0.00145549
0.00148457
0.00151145
0.001536
0.00155809
0.0015776
0.00159443
0.0016085
0.00161975
0.00162814
0.00163363
0.00163624
0.00163596
0.00163286
0.00162698
0.00161841
0.00160726
0.00159363
0.00157767
0.00155953
0.00153938
0.0015174
0.00149378
0.00146872
0.00144241
0.00141507
0.00138691
0.00135814
0.00132897
0.00129961
0.00127025
0.0012411
0.00121233
0.00118414
0.00115668
0.00113012
0.00110461
0.00108028
0.00105726
0.00103565
0.00101556
0.000997087
0.000980295
0.000965256
0.000952024
0.000940645
0.000931155
0.000923577
0.000917929
0.000914227
0.000912489
0.00091269
0.000914777
0.000919382
0.000927731
6.39488e-05
4.92072e-05
3.80131e-05
2.85499e-05
1.99145e-05
1.22092e-05
5.4778e-06
-3.07815e-07
-5.17467e-06
-9.14752e-06
-1.22544e-05
-1.45257e-05
-1.59915e-05
-1.66821e-05
-1.66273e-05
-1.5854e-05
-1.43847e-05
-1.22385e-05
-9.42941e-06
-5.96625e-06
-1.85386e-06
2.90674e-06
8.31986e-06
1.43949e-05
2.11449e-05
2.85872e-05
3.67431e-05
4.56361e-05
5.5292e-05
6.57389e-05
7.70077e-05
8.91304e-05
0.000102139
0.000116068
0.000130951
0.000146821
0.000163712
0.000181655
0.000200679
0.000220814
0.000242087
0.00026452
0.000288132
0.000312941
0.000338958
0.000366189
0.000394635
0.000424292
0.000455151
0.000487194
0.000520396
0.000554724
0.00059014
0.000626592
0.000664023
0.000702366
0.000741543
0.00078147
0.000822049
0.000863174
0.000904729
0.00094659
0.000988621
0.00103068
0.00107261
0.00111427
0.00115547
0.00119605
0.00123583
0.00127464
0.00131229
0.0013486
0.00138339
0.00141648
0.0014477
0.0014769
0.0015039
0.00152857
0.00155076
0.00157038
0.0015873
0.00160145
0.00161275
0.00162117
0.00162668
0.00162927
0.00162896
0.00162579
0.00161983
0.00161115
0.00159985
0.00158607
0.00156995
0.00155163
0.00153128
0.0015091
0.00148528
0.00146001
0.00143351
0.00140599
0.00137766
0.00134873
0.00131942
0.00128994
0.00126049
0.00123126
0.00120245
0.00117424
0.00114679
0.00112026
0.0010948
0.00107054
0.0010476
0.00102609
0.00100611
0.000987749
0.000971071
0.000956144
0.000943021
0.000931746
0.000922353
0.000914869
0.000909315
0.000905714
0.00090409
0.000904427
0.000906677
0.000911487
0.000920103
7.24302e-05
5.5519e-05
4.2907e-05
3.2464e-05
2.31016e-05
1.48994e-05
7.86886e-06
1.93994e-06
-2.95072e-06
-6.85949e-06
-9.84138e-06
-1.19482e-05
-1.3229e-05
-1.37305e-05
-1.3494e-05
-1.25549e-05
-1.09429e-05
-8.68189e-06
-5.78857e-06
-2.2744e-06
1.85371e-06
6.59503e-06
1.19549e-05
1.79431e-05
2.45736e-05
3.18654e-05
3.98408e-05
4.85243e-05
5.79429e-05
6.8127e-05
7.91091e-05
9.09222e-05
0.0001036
0.000117177
0.000131691
0.000147176
0.000163665
0.000181193
0.00019979
0.000219489
0.000240316
0.000262297
0.000285453
0.000309804
0.000335361
0.000362134
0.000390127
0.000419338
0.000449759
0.000481375
0.000514165
0.000548098
0.000583136
0.000619232
0.000656331
0.000694368
0.000733267
0.000772944
0.000813306
0.000854247
0.000895652
0.000937399
0.000979351
0.00102137
0.00106329
0.00110497
0.00114624
0.00118691
0.00122682
0.00126577
0.0013036
0.0013401
0.00137511
0.00140842
0.00143988
0.00146931
0.00149655
0.00152145
0.00154386
0.00156368
0.00158078
0.00159508
0.00160651
0.00161502
0.00162059
0.00162319
0.00162287
0.00161964
0.00161358
0.00160477
0.00159332
0.00157934
0.00156299
0.00154442
0.00152381
0.00150134
0.00147722
0.00145165
0.00142485
0.00139703
0.0013684
0.0013392
0.00130962
0.0012799
0.00125023
0.00122081
0.00119183
0.00116348
0.00113591
0.0011093
0.00108378
0.00105948
0.00103653
0.00101502
0.000995061
0.000976726
0.000960089
0.00094521
0.000932141
0.000920923
0.00091159
0.00090417
0.000898687
0.000895165
0.000893636
0.000894084
0.000896459
0.000901413
0.000910194
7.93283e-05
6.03343e-05
4.6339e-05
3.49163e-05
2.48109e-05
1.60824e-05
8.71237e-06
2.59379e-06
-2.37009e-06
-6.2645e-06
-9.16868e-06
-1.11565e-05
-1.22963e-05
-1.2649e-05
-1.22673e-05
-1.11961e-05
-9.47249e-06
-7.12479e-06
-4.17403e-06
-6.35104e-07
3.48398e-06
8.1825e-06
1.34655e-05
1.9343e-05
2.58303e-05
3.29472e-05
4.0717e-05
4.91649e-05
5.83202e-05
6.82152e-05
7.88832e-05
9.03588e-05
0.000102678
0.000115878
0.000129996
0.000145069
0.000161132
0.000178222
0.000196371
0.000215614
0.000235979
0.000257494
0.000280183
0.000304068
0.000329163
0.000355479
0.000383024
0.000411798
0.000441797
0.000473008
0.000505411
0.00053898
0.000573678
0.000609462
0.000646277
0.000684062
0.000722744
0.00076224
0.000802457
0.000843293
0.000884634
0.000926357
0.000968327
0.0010104
0.00105243
0.00109424
0.00113568
0.00117657
0.00121672
0.00125595
0.00129408
0.00133091
0.00136625
0.00139992
0.00143174
0.00146153
0.00148912
0.00151435
0.00153709
0.00155721
0.00157458
0.00158912
0.00160075
0.00160942
0.00161509
0.00161776
0.00161744
0.00161418
0.00160803
0.00159908
0.00158744
0.00157323
0.00155661
0.00153774
0.00151679
0.00149396
0.00146946
0.0014435
0.00141629
0.00138806
0.00135904
0.00132944
0.00129949
0.00126941
0.0012394
0.00120967
0.00118041
0.0011518
0.00112401
0.0010972
0.00107152
0.00104708
0.00102401
0.00100242
0.000982396
0.000964015
0.000947349
0.000932456
0.000919384
0.000908176
0.000898863
0.000891474
0.000886033
0.000882568
0.000881109
0.000881642
0.000884114
0.000889171
0.000898056
8.43046e-05
6.33191e-05
4.7985e-05
3.56009e-05
2.47537e-05
1.54855e-05
7.75238e-06
1.41299e-06
-3.65999e-06
-7.5777e-06
-1.04433e-05
-1.23525e-05
-1.33904e-05
-1.36315e-05
-1.31402e-05
-1.19707e-05
-1.01666e-05
-7.76206e-06
-4.78305e-06
-1.24708e-06
2.83683e-06
7.46683e-06
1.26473e-05
1.83891e-05
2.47082e-05
3.16247e-05
3.91625e-05
4.7349e-05
5.62152e-05
6.57944e-05
7.61216e-05
8.72333e-05
9.91679e-05
0.000111964
0.000125662
0.000140298
0.000155913
0.000172543
0.000190225
0.000208994
0.000228881
0.000249919
0.000272132
0.000295545
0.000320175
0.000346037
0.00037314
0.000401488
0.00043108
0.000461904
0.000493946
0.00052718
0.000561574
0.000597085
0.000633663
0.000671247
0.000709769
0.000749146
0.000789288
0.000830093
0.000871449
0.000913233
0.00095531
0.000997538
0.00103976
0.00108182
0.00112355
0.00116476
0.00120527
0.0012449
0.00128345
0.00132072
0.00135653
0.00139068
0.00142298
0.00145325
0.00148131
0.001507
0.00153018
0.00155069
0.00156843
0.0015833
0.0015952
0.00160409
0.00160994
0.00161271
0.00161245
0.00160917
0.00160294
0.00159385
0.00158201
0.00156755
0.00155062
0.0015314
0.00151006
0.0014868
0.00146185
0.0014354
0.0014077
0.00137898
0.00134945
0.00131936
0.00128893
0.00125838
0.00122792
0.00119777
0.00116812
0.00113915
0.00111104
0.00108393
0.00105798
0.00103331
0.00101004
0.000988276
0.000968103
0.000949602
0.000932838
0.00091787
0.000904742
0.000893495
0.000884161
0.000876768
0.000871341
0.000867906
0.000866496
0.000867093
0.00086964
0.000874776
0.000883739
8.70506e-05
6.41628e-05
4.75434e-05
3.42262e-05
2.2649e-05
1.28404e-05
4.73291e-06
-1.84656e-06
-7.05294e-06
-1.1023e-05
-1.38831e-05
-1.5748e-05
-1.67182e-05
-1.6882e-05
-1.63151e-05
-1.50796e-05
-1.32265e-05
-1.07962e-05
-7.81892e-06
-4.31422e-06
-2.9314e-07
4.24107e-06
9.29272e-06
1.48728e-05
2.09974e-05
2.7687e-05
3.49668e-05
4.28661e-05
5.14172e-05
6.06544e-05
7.0615e-05
8.1338e-05
9.28634e-05
0.000105232
0.000118484
0.000132663
0.000147807
0.000163959
0.000181155
0.000199434
0.000218832
0.000239381
0.000261111
0.000284047
0.000308211
0.000333621
0.000360289
0.000388222
0.00041742
0.000447878
0.000479582
0.00051251
0.000546631
0.000581907
0.00061829
0.000655722
0.000694135
0.000733452
0.000773581
0.000814424
0.000855868
0.000897791
0.00094006
0.00098253
0.00102505
0.00106745
0.00110956
0.00115121
0.0011922
0.00123233
0.00127142
0.00130927
0.00134566
0.00138041
0.00141331
0.00144418
0.00147284
0.0014991
0.00152282
0.00154385
0.00156206
0.00157734
0.00158961
0.0015988
0.00160488
0.00160782
0.00160764
0.00160438
0.0015981
0.00158888
0.00157684
0.00156211
0.00154485
0.00152523
0.00150345
0.00147971
0.00145423
0.00142724
0.00139896
0.00136965
0.00133953
0.00130885
0.00127783
0.00124671
0.00121572
0.00118504
0.0011549
0.00112547
0.00109693
0.00106943
0.00104312
0.00101813
0.000994572
0.000972552
0.000952157
0.000933464
0.000916539
0.000901434
0.000888197
0.000876864
0.000867468
0.000860036
0.000854592
0.000851164
0.000849782
0.000850425
0.000853034
0.000858241
0.000867283
8.72795e-05
6.25787e-05
4.47284e-05
3.05114e-05
1.82246e-05
7.88374e-06
-6.00056e-07
-7.42881e-06
-1.27852e-05
-1.68306e-05
-1.9712e-05
-2.1561e-05
-2.24942e-05
-2.26124e-05
-2.20009e-05
-2.07306e-05
-1.88601e-05
-1.64352e-05
-1.34892e-05
-1.00447e-05
-6.11518e-06
-1.70457e-06
3.19143e-06
8.5831e-06
1.44862e-05
2.09225e-05
2.79187e-05
3.55052e-05
4.37153e-05
5.25854e-05
6.21551e-05
7.24654e-05
8.35579e-05
9.54753e-05
0.000108261
0.00012196
0.000136616
0.000152271
0.000168966
0.000186742
0.000205638
0.00022569
0.000246929
0.000269386
0.000293084
0.000318045
0.000344285
0.000371813
0.000400633
0.000430742
0.000462129
0.000494776
0.000528655
0.00056373
0.000599956
0.000637279
0.000675632
0.000714939
0.000755113
0.000796055
0.000837653
0.000879787
0.000922324
0.000965118
0.00100802
0.00105085
0.00109345
0.00113564
0.0011772
0.00121796
0.00125771
0.00129624
0.00133334
0.00136881
0.00140244
0.00143403
0.0014634
0.00149036
0.00151474
0.00153639
0.00155518
0.00157098
0.00158371
0.00159328
0.00159967
0.00160284
0.00160281
0.00159961
0.0015933
0.00158396
0.00157173
0.00155672
0.00153912
0.00151908
0.00149682
0.00147254
0.00144648
0.00141886
0.00138994
0.00135996
0.00132916
0.0012978
0.00126611
0.00123433
0.00120269
0.0011714
0.00114067
0.00111069
0.00108162
0.00105364
0.00102689
0.00100149
0.000977565
0.000955214
0.000934525
0.000915573
0.000898422
0.000883125
0.000869725
0.00085826
0.000848761
0.000841254
0.000835764
0.000832319
0.000830946
0.000831625
0.000834288
0.000839571
0.000848714
8.4724e-05
5.82949e-05
3.92678e-05
2.41881e-05
1.12174e-05
3.59013e-07
-8.49561e-06
-1.55774e-05
-2.10955e-05
-2.52334e-05
-2.81567e-05
-3.00146e-05
-3.09378e-05
-3.10382e-05
-3.04113e-05
-2.91368e-05
-2.72796e-05
-2.48899e-05
-2.20048e-05
-1.865e-05
-1.48404e-05
-1.05809e-05
-5.86809e-06
-6.92396e-07
4.96257e-06
1.11198e-05
1.78069e-05
2.50552e-05
3.28995e-05
4.13787e-05
5.05342e-05
6.04088e-05
7.10459e-05
8.2491e-05
9.47906e-05
0.000107992
0.000122141
0.000137282
0.000153462
0.000170724
0.000189108
0.000208655
0.000229399
0.000251374
0.000274607
0.000299123
0.000324941
0.000352073
0.000380527
0.000410303
0.000441393
0.000473782
0.000507444
0.000542349
0.000578452
0.000615703
0.000654037
0.00069338
0.000733648
0.000774742
0.000816553
0.000858961
0.000901834
0.000945027
0.000988386
0.00103174
0.00107492
0.00111773
0.00115998
0.00120147
0.00124198
0.00128131
0.00131923
0.00135555
0.00139003
0.00142247
0.00145268
0.00148046
0.00150562
0.00152802
0.00154749
0.00156392
0.00157721
0.00158727
0.00159405
0.00159752
0.0015977
0.00159461
0.00158832
0.0015789
0.00156649
0.00155121
0.00153325
0.00151277
0.00149
0.00146514
0.00143845
0.00141015
0.00138051
0.00134979
0.00131823
0.00128611
0.00125366
0.00122113
0.00118876
0.00115676
0.00112536
0.00109473
0.00106506
0.00103651
0.00100922
0.000983341
0.000958971
0.000936217
0.000915165
0.00089589
0.000878453
0.000862907
0.000849294
0.000837651
0.000828008
0.000820392
0.000814829
0.000811344
0.000809965
0.00081067
0.000813388
0.00081876
0.000828036
7.9128e-05
5.10517e-05
3.09029e-05
1.49989e-05
1.373e-06
-9.98348e-06
-1.91999e-05
-2.65348e-05
-3.22213e-05
-3.64634e-05
-3.94459e-05
-4.13335e-05
-4.22699e-05
-4.23783e-05
-4.17639e-05
-4.05141e-05
-3.8699e-05
-3.63736e-05
-3.35787e-05
-3.03423e-05
-2.66806e-05
-2.25998e-05
-1.8098e-05
-1.31653e-05
-7.78445e-06
-1.93185e-06
4.42089e-06
1.13062e-05
1.87612e-05
2.68266e-05
3.55455e-05
4.49624e-05
5.51233e-05
6.60763e-05
7.78709e-05
9.05567e-05
0.000104183
0.000118798
0.00013445
0.000151186
0.000169051
0.000188086
0.000208331
0.000229822
0.000252591
0.000276664
0.000302065
0.00032881
0.000356909
0.000386365
0.000417173
0.000449322
0.00048279
0.000517547
0.000553555
0.000590763
0.00062911
0.000668527
0.000708928
0.000750218
0.000792291
0.000835026
0.000878294
0.00092195
0.000965837
0.00100979
0.00105362
0.00109715
0.00114018
0.00118249
0.00122388
0.00126411
0.00130298
0.00134026
0.00137572
0.00140914
0.00144031
0.00146903
0.00149512
0.00151838
0.00153867
0.00155585
0.00156981
0.00158045
0.00158773
0.0015916
0.00159207
0.00158916
0.00158293
0.00157348
0.00156092
0.00154539
0.00152707
0.00150614
0.00148284
0.00145737
0.00143
0.00140097
0.00137056
0.00133903
0.00130664
0.00127367
0.00124038
0.00120702
0.00117384
0.00114105
0.00110888
0.00107752
0.00104716
0.00101796
0.000990071
0.000963625
0.000938738
0.000915511
0.000894031
0.00087437
0.00085659
0.000840741
0.000826865
0.000814999
0.000805173
0.000797415
0.000791749
0.000788202
0.000786804
0.000787529
0.000790306
0.000795785
0.000805239
7.02466e-05
4.06025e-05
1.93857e-05
2.69695e-06
-1.15533e-05
-2.33873e-05
-3.29546e-05
-4.05391e-05
-4.63966e-05
-5.07519e-05
-5.38074e-05
-5.57422e-05
-5.67124e-05
-5.68528e-05
-5.62771e-05
-5.50787e-05
-5.33334e-05
-5.11006e-05
-4.84241e-05
-4.53338e-05
-4.18476e-05
-3.79734e-05
-3.37097e-05
-2.90462e-05
-2.3965e-05
-1.84423e-05
-1.24488e-05
-5.95004e-06
1.09286e-06
8.72236e-06
1.69829e-05
2.59213e-05
3.55865e-05
4.60292e-05
5.73016e-05
6.9456e-05
8.25452e-05
9.66211e-05
0.000111735
0.000127935
0.000145272
0.000163789
0.000183531
0.000204536
0.00022684
0.000250473
0.000275461
0.000301824
0.000329574
0.000358719
0.000389256
0.000421178
0.000454465
0.000489091
0.000525021
0.000562206
0.000600591
0.000640105
0.000680667
0.000722186
0.000764556
0.000807661
0.000851369
0.000895538
0.000940011
0.000984619
0.00102918
0.00107351
0.00111739
0.00116062
0.00120298
0.00124423
0.00128416
0.00132251
0.00135907
0.0013936
0.00142588
0.00145568
0.00148282
0.00150709
0.00152833
0.0015464
0.00156115
0.00157251
0.0015804
0.00158477
0.00158562
0.00158298
0.0015769
0.00156747
0.0015548
0.00153905
0.0015204
0.00149903
0.00147518
0.00144909
0.00142101
0.00139121
0.00135997
0.00132756
0.00129428
0.0012604
0.0012262
0.00119193
0.00115784
0.00112418
0.00109116
0.00105899
0.00102786
0.000997934
0.000969363
0.000942282
0.000916809
0.000893043
0.000871072
0.000850965
0.000832785
0.00081658
0.000802393
0.00079026
0.000780212
0.000772278
0.000766482
0.000762853
0.00076142
0.000762161
0.000765003
0.000770611
0.000780289
5.7847e-05
2.67107e-05
4.47879e-06
-1.29553e-05
-2.78001e-05
-4.00909e-05
-4.99955e-05
-5.78229e-05
-6.38521e-05
-6.83271e-05
-7.14663e-05
-7.34633e-05
-7.44871e-05
-7.46818e-05
-7.41683e-05
-7.30467e-05
-7.13979e-05
-6.92848e-05
-6.67536e-05
-6.38363e-05
-6.0553e-05
-5.69127e-05
-5.29133e-05
-4.85446e-05
-4.37885e-05
-3.86207e-05
-3.30101e-05
-2.69206e-05
-2.03119e-05
-1.31403e-05
-5.35886e-06
3.08158e-06
1.22326e-05
2.21475e-05
3.28812e-05
4.44898e-05
5.70289e-05
7.05533e-05
8.51171e-05
0.000100773
0.000117574
0.000135568
0.000154802
0.000175318
0.000197154
0.000220346
0.000244921
0.000270902
0.000298306
0.000327143
0.000357412
0.00038911
0.000422222
0.000456723
0.000492581
0.000529752
0.000568181
0.000607803
0.000648541
0.000690305
0.000732993
0.000776489
0.000820667
0.000865382
0.000910481
0.000955793
0.00100114
0.00104632
0.00109114
0.00113537
0.00117878
0.00122115
0.00126224
0.0013018
0.00133958
0.00137535
0.00140887
0.0014399
0.00146824
0.00149367
0.00151602
0.00153512
0.00155083
0.00156304
0.00157168
0.00157668
0.00157804
0.00157578
0.00156994
0.00156061
0.00154791
0.001532
0.00151304
0.00149126
0.00146688
0.00144015
0.00141134
0.00138074
0.00134863
0.00131531
0.00128107
0.00124621
0.00121102
0.00117576
0.0011407
0.00110608
0.00107214
0.00103908
0.0010071
0.00097637
0.000947043
0.000919257
0.000893129
0.000868759
0.000846234
0.000825623
0.000806987
0.000790375
0.000775829
0.000763385
0.000753076
0.000744932
0.000738977
0.000735243
0.000733763
0.000734516
0.000737428
0.000743187
0.000753136
4.17047e-05
9.14913e-06
-1.40465e-05
-3.21883e-05
-4.75984e-05
-6.03234e-05
-7.05506e-05
-7.86139e-05
-8.48139e-05
-8.94126e-05
-9.2645e-05
-9.47187e-05
-9.58137e-05
-9.60825e-05
-9.56535e-05
-9.46329e-05
-9.31057e-05
-9.11377e-05
-8.87778e-05
-8.60605e-05
-8.30072e-05
-7.96267e-05
-7.59173e-05
-7.18689e-05
-6.74633e-05
-6.26744e-05
-5.74697e-05
-5.18119e-05
-4.56595e-05
-3.89668e-05
-3.16845e-05
-2.3761e-05
-1.51422e-05
-5.77193e-06
4.40785e-06
1.54563e-05
2.7432e-05
4.03927e-05
5.43957e-05
6.94977e-05
8.57538e-05
0.000103217
0.000121936
0.000141957
0.000163321
0.000186066
0.000210223
0.000235818
0.00026287
0.000291391
0.000321387
0.000352855
0.000385782
0.00042015
0.000455927
0.000493074
0.000531539
0.000571262
0.000612168
0.000654172
0.000697176
0.000741066
0.000785719
0.000830992
0.000876735
0.000922778
0.000968941
0.00101503
0.00106083
0.00110612
0.00115067
0.00119425
0.0012366
0.00127747
0.0013166
0.00135375
0.00138865
0.00142106
0.00145076
0.00147753
0.00150115
0.00152146
0.0015383
0.00155154
0.0015611
0.0015669
0.00156892
0.00156718
0.00156171
0.0015526
0.00153997
0.00152397
0.00150479
0.00148263
0.00145775
0.0014304
0.00140087
0.00136945
0.00133644
0.00130216
0.00126692
0.00123103
0.00119478
0.00115846
0.00112235
0.0010867
0.00105176
0.00101773
0.000984824
0.000953213
0.000923058
0.000894496
0.000867645
0.000842607
0.000819465
0.000798291
0.000779144
0.000762072
0.000747119
0.000734321
0.000723711
0.00071532
0.000709177
0.000705315
0.000703772
0.000704528
0.000707514
0.000713443
0.000723707
2.16048e-05
-1.23004e-05
-3.64118e-05
-5.52248e-05
-7.11697e-05
-8.43067e-05
-9.4842e-05
-0.000103133
-0.000109502
-0.000114228
-0.000117562
-0.000119726
-0.000120908
-0.000121269
-0.000120946
-0.000120049
-0.000118667
-0.000116869
-0.000114707
-0.000112215
-0.000109418
-0.000106323
-0.000102929
-9.92265e-05
-9.51957e-05
-9.08092e-05
-8.60335e-05
-8.083e-05
-7.51557e-05
-6.89627e-05
-6.21993e-05
-5.48115e-05
-4.67428e-05
-3.79339e-05
-2.83237e-05
-1.78503e-05
-6.45192e-06
5.93208e-06
1.93623e-05