/*--------------------------------*- C++ -*----------------------------------*\
| =========                 |                                                 |
| \\      /  F ield         | OpenFOAM: The Open Source CFD Toolbox           |
|  \\    /   O peration     | Version:  2112                                  |
|   \\  /    A nd           | Website:  www.openfoam.com                      |
|    \\/     M anipulation  |                                                 |
\*---------------------------------------------------------------------------*/
FoamFile
{
    version     2.0;
    format      ascii;
    arch        "LSB;label=32;scalar=64";
    class       surfaceScalarField;
    location    "8";
    object      phi;
}
// * * * * * * * * * * * * * * * * * * * * * * * * * * * * * * * * * * * * * //

dimensions      [0 3 -1 0 0 0 0];

oriented        oriented;

internalField   nonuniform List<scalar> 
33024
(
5.22736e-09
-5.22792e-09
1.15632e-08
-6.33545e-09
1.37736e-08
-2.21107e-09
9.80088e-09
3.97272e-09
-7.83832e-10
1.05845e-08
-1.76667e-08
1.68832e-08
-4.02564e-08
2.25893e-08
-6.7793e-08
2.7537e-08
-9.95029e-08
3.17097e-08
-1.34657e-07
3.5154e-08
-1.72598e-07
3.79417e-08
-2.12754e-07
4.01551e-08
-2.54633e-07
4.1879e-08
-2.97825e-07
4.31921e-08
-3.41993e-07
4.41684e-08
-3.86868e-07
4.48747e-08
-4.32237e-07
4.53689e-08
-4.77938e-07
4.57008e-08
-5.23849e-07
4.59115e-08
-5.69884e-07
4.60342e-08
-6.1598e-07
4.60963e-08
-6.62098e-07
4.61184e-08
-7.08214e-07
4.61154e-08
-7.54312e-07
4.60982e-08
-8.00385e-07
4.60733e-08
-8.46429e-07
4.60436e-08
-8.92439e-07
4.60097e-08
-9.38409e-07
4.59701e-08
-9.8433e-07
4.59208e-08
-1.03019e-06
4.58564e-08
-1.07596e-06
4.57708e-08
-1.12161e-06
4.56568e-08
-1.16712e-06
4.55063e-08
-1.21243e-06
4.53112e-08
-1.25749e-06
4.50628e-08
-1.30225e-06
4.4752e-08
-1.34661e-06
4.43695e-08
-1.39052e-06
4.39066e-08
-1.43388e-06
4.33547e-08
-1.47658e-06
4.27048e-08
-1.51853e-06
4.19486e-08
-1.55961e-06
4.1078e-08
-1.59969e-06
4.00853e-08
-1.63866e-06
3.89631e-08
-1.67636e-06
3.77049e-08
-1.71267e-06
3.63045e-08
-1.74742e-06
3.47568e-08
-1.78048e-06
3.30572e-08
-1.81168e-06
3.12019e-08
-1.84087e-06
2.91882e-08
-1.86788e-06
2.70145e-08
-1.89256e-06
2.46802e-08
-1.91475e-06
2.21856e-08
-1.93428e-06
1.95324e-08
-1.95101e-06
1.67236e-08
-1.96477e-06
1.37637e-08
-1.97543e-06
1.06583e-08
-1.98284e-06
7.41439e-09
-1.98688e-06
4.04079e-09
-1.98743e-06
5.48303e-10
-1.98438e-06
-3.05414e-09
-1.97763e-06
-6.75087e-09
-1.9671e-06
-1.05285e-08
-1.95273e-06
-1.43712e-08
-1.93446e-06
-1.82615e-08
-1.91228e-06
-2.21811e-08
-1.88617e-06
-2.61102e-08
-1.85614e-06
-3.0028e-08
-1.82223e-06
-3.39127e-08
-1.78449e-06
-3.77415e-08
-1.743e-06
-4.14914e-08
-1.69786e-06
-4.51387e-08
-1.6492e-06
-4.86593e-08
-1.59717e-06
-5.20295e-08
-1.54194e-06
-5.52257e-08
-1.48372e-06
-5.82249e-08
-1.42271e-06
-6.1005e-08
-1.35917e-06
-6.35446e-08
-1.29335e-06
-6.5824e-08
-1.22552e-06
-6.7825e-08
-1.15599e-06
-6.95315e-08
-1.08506e-06
-7.09294e-08
-1.01305e-06
-7.2007e-08
-9.40298e-07
-7.27551e-08
-8.6713e-07
-7.31671e-08
-7.93891e-07
-7.32393e-08
-7.2092e-07
-7.29711e-08
-6.48555e-07
-7.23643e-08
-5.77131e-07
-7.1424e-08
-5.06973e-07
-7.0158e-08
-4.38397e-07
-6.85766e-08
-3.71704e-07
-6.6693e-08
-3.07181e-07
-6.45225e-08
-2.45099e-07
-6.20824e-08
-1.85707e-07
-5.93919e-08
-1.29235e-07
-5.64721e-08
-7.58902e-08
-5.33448e-08
-2.58571e-08
-5.00332e-08
2.07039e-08
-4.65611e-08
6.36568e-08
-4.2953e-08
1.02888e-07
-3.92311e-08
1.38308e-07
-3.54205e-08
1.69853e-07
-3.15446e-08
1.97479e-07
-2.76258e-08
2.21165e-07
-2.36861e-08
2.40912e-07
-1.97468e-08
2.5674e-07
-1.58279e-08
2.68688e-07
-1.19488e-08
2.76817e-07
-8.12859e-09
2.81203e-07
-4.38564e-09
2.81942e-07
-7.39061e-10
2.79148e-07
2.79338e-09
2.72958e-07
6.19e-09
2.63529e-07
9.42933e-09
2.51042e-07
1.24861e-08
2.35711e-07
1.53307e-08
2.17783e-07
1.79277e-08
1.9755e-07
2.02333e-08
1.75357e-07
2.21926e-08
1.51621e-07
2.37364e-08
1.26845e-07
2.47758e-08
1.01648e-07
2.51967e-08
7.6796e-08
2.48524e-08
5.3241e-08
2.35552e-08
3.21646e-08
2.10765e-08
1.49902e-08
1.71746e-08
3.31293e-09
1.16776e-08
-1.48963e-09
4.80271e-09
-1.48962e-09
6.31653e-09
-1.1544e-08
9.81399e-09
-9.83345e-09
2.7421e-09
4.86154e-09
-1.85578e-08
2.52729e-08
-5.54461e-08
4.74734e-08
-1.07713e-07
6.91495e-08
-1.74236e-07
8.91128e-08
-2.53499e-07
1.068e-07
-3.4382e-07
1.2203e-07
-4.43514e-07
1.34849e-07
-5.50996e-07
1.45423e-07
-6.64825e-07
1.53985e-07
-7.83736e-07
1.60789e-07
-9.06638e-07
1.66094e-07
-1.03261e-06
1.70145e-07
-1.16091e-06
1.73169e-07
-1.29091e-06
1.75367e-07
-1.42212e-06
1.76917e-07
-1.55418e-06
1.77965e-07
-1.68678e-06
1.78637e-07
-1.81971e-06
1.79031e-07
-1.95282e-06
1.79227e-07
-2.08599e-06
1.79283e-07
-2.21913e-06
1.79242e-07
-2.35219e-06
1.79132e-07
-2.48512e-06
1.78966e-07
-2.61786e-06
1.78751e-07
-2.75037e-06
1.78482e-07
-2.8826e-06
1.78149e-07
-3.01447e-06
1.77734e-07
-3.14592e-06
1.77216e-07
-3.27683e-06
1.7657e-07
-3.40709e-06
1.75768e-07
-3.53656e-06
1.74781e-07
-3.66508e-06
1.73579e-07
-3.79245e-06
1.72128e-07
-3.91848e-06
1.70397e-07
-4.04293e-06
1.68354e-07
-4.16554e-06
1.65966e-07
-4.28604e-06
1.63203e-07
-4.40412e-06
1.60034e-07
-4.51947e-06
1.5643e-07
-4.63175e-06
1.52365e-07
-4.7406e-06
1.47813e-07
-4.84565e-06
1.42749e-07
-4.9465e-06
1.37155e-07
-5.04275e-06
1.31012e-07
-5.134e-06
1.24304e-07
-5.21982e-06
1.1702e-07
-5.29978e-06
1.09152e-07
-5.37346e-06
1.00696e-07
-5.44043e-06
9.16511e-08
-5.50027e-06
8.20218e-08
-5.55255e-06
7.18165e-08
-5.59688e-06
6.10485e-08
-5.63285e-06
4.9736e-08
-5.66009e-06
3.79021e-08
-5.67826e-06
2.55752e-08
-5.687e-06
1.2788e-08
-5.68604e-06
-4.12027e-10
-5.67509e-06
-1.40017e-08
-5.65393e-06
-2.79115e-08
-5.62237e-06
-4.20953e-08
-5.58025e-06
-5.64934e-08
-5.52746e-06
-7.10418e-08
-5.46397e-06
-8.56725e-08
-5.38977e-06
-1.00313e-07
-5.30491e-06
-1.14887e-07
-5.20951e-06
-1.29316e-07
-5.10373e-06
-1.43517e-07
-4.98782e-06
-1.57408e-07
-4.86205e-06
-1.70903e-07
-4.72679e-06
-1.83917e-07
-4.58246e-06
-1.96365e-07
-4.42952e-06
-2.08162e-07
-4.26852e-06
-2.19227e-07
-4.10004e-06
-2.29481e-07
-3.92474e-06
-2.38849e-07
-3.7433e-06
-2.47262e-07
-3.55647e-06
-2.54656e-07
-3.36503e-06
-2.60973e-07
-3.1698e-06
-2.66163e-07
-2.97162e-06
-2.70187e-07
-2.77136e-06
-2.7301e-07
-2.56992e-06
-2.74611e-07
-2.36818e-06
-2.74975e-07
-2.16705e-06
-2.741e-07
-1.96742e-06
-2.71993e-07
-1.77018e-06
-2.68671e-07
-1.57618e-06
-2.6416e-07
-1.38625e-06
-2.58498e-07
-1.20122e-06
-2.51729e-07
-1.02184e-06
-2.43906e-07
-8.48825e-07
-2.35092e-07
-6.82864e-07
-2.25353e-07
-5.24574e-07
-2.14762e-07
-3.74521e-07
-2.03398e-07
-2.33214e-07
-1.91341e-07
-1.011e-07
-1.78675e-07
2.1434e-08
-1.65486e-07
1.34064e-07
-1.51861e-07
2.36525e-07
-1.37881e-07
3.28614e-07
-1.23634e-07
4.1019e-07
-1.09201e-07
4.81168e-07
-9.46641e-08
5.41522e-07
-8.01001e-08
5.91279e-07
-6.55855e-08
6.30525e-07
-5.11941e-08
6.59395e-07
-3.69988e-08
6.78081e-07
-2.30718e-08
6.86829e-07
-9.4861e-09
6.8594e-07
3.68176e-09
6.75778e-07
1.63519e-08
6.56773e-07
2.84344e-08
6.29429e-07
3.98294e-08
5.94339e-07
5.04205e-08
5.52197e-07
6.00697e-08
5.03819e-07
6.86108e-08
4.50171e-07
7.58415e-08
3.92395e-07
8.15129e-08
3.31852e-07
8.53189e-08
2.70164e-07
8.68849e-08
2.09259e-07
8.57583e-08
1.51405e-07
8.14094e-08
9.92159e-08
7.32656e-08
5.55619e-08
6.08286e-08
2.33112e-08
4.39281e-08
4.77298e-09
2.33405e-08
3.28348e-09
2.3201e-09
-1.38649e-08
-4.91672e-09
-2.59639e-09
-2.91844e-08
2.91289e-08
-7.44611e-08
7.05502e-08
-1.42172e-07
1.15183e-07
-2.32063e-07
1.59041e-07
-3.42784e-07
1.99833e-07
-4.72369e-07
2.36384e-07
-6.18568e-07
2.6823e-07
-7.7907e-07
2.9535e-07
-9.51638e-07
3.17991e-07
-1.1342e-06
3.36548e-07
-1.3249e-06
3.51488e-07
-1.52211e-06
3.63301e-07
-1.72443e-06
3.72464e-07
-1.93068e-06
3.79427e-07
-2.13991e-06
3.84596e-07
-2.35133e-06
3.88329e-07
-2.56429e-06
3.90932e-07
-2.77832e-06
3.92664e-07
-2.99302e-06
3.93735e-07
-3.20811e-06
3.94312e-07
-3.42335e-06
3.94524e-07
-3.63857e-06
3.94461e-07
-3.85363e-06
3.94188e-07
-4.0684e-06
3.93741e-07
-4.28278e-06
3.93133e-07
-4.49666e-06
3.9236e-07
-4.70991e-06
3.91402e-07
-4.92241e-06
3.90228e-07
-5.13399e-06
3.88794e-07
-5.34447e-06
3.8705e-07
-5.55364e-06
3.84941e-07
-5.76126e-06
3.82405e-07
-5.96707e-06
3.79379e-07
-6.17073e-06
3.75797e-07
-6.37193e-06
3.71593e-07
-6.57028e-06
3.66699e-07
-6.76536e-06
3.6105e-07
-6.95674e-06
3.54581e-07
-7.14393e-06
3.47231e-07
-7.32644e-06
3.38939e-07
-7.50373e-06
3.29651e-07
-7.67523e-06
3.19315e-07
-7.84037e-06
3.07884e-07
-7.99853e-06
2.95317e-07
-8.1491e-06
2.81579e-07
-8.29143e-06
2.66641e-07
-8.4249e-06
2.50482e-07
-8.54883e-06
2.33088e-07
-8.66259e-06
2.14454e-07
-8.76552e-06
1.94583e-07
-8.85699e-06
1.73487e-07
-8.93636e-06
1.51189e-07
-9.00303e-06
1.27721e-07
-9.05642e-06
1.03125e-07
-9.09597e-06
7.74534e-08
-9.12117e-06
5.07701e-08
-9.13153e-06
2.31491e-08
-9.12662e-06
-5.3224e-09
-9.10606e-06
-3.4556e-08
-9.06953e-06
-6.44389e-08
-9.01677e-06
-9.48568e-08
-8.94758e-06
-1.25684e-07
-8.86184e-06
-1.56785e-07
-8.75949e-06
-1.88016e-07
-8.64058e-06
-2.19225e-07
-8.50522e-06
-2.50252e-07
-8.3536e-06
-2.80933e-07
-8.18602e-06
-3.11097e-07
-8.00286e-06
-3.40571e-07
-7.80458e-06
-3.69178e-07
-7.59176e-06
-3.96743e-07
-7.36503e-06
-4.23089e-07
-7.12515e-06
-4.48045e-07
-6.87293e-06
-4.71442e-07
-6.60929e-06
-4.9312e-07
-6.33522e-06
-5.12924e-07
-6.05177e-06
-5.30713e-07
-5.76007e-06
-5.46356e-07
-5.4613e-06
-5.59735e-07
-5.15672e-06
-5.70751e-07
-4.84759e-06
-5.79318e-07
-4.53522e-06
-5.85371e-07
-4.22097e-06
-5.88862e-07
-3.90618e-06
-5.89764e-07
-3.59221e-06
-5.8807e-07
-3.28041e-06
-5.83796e-07
-2.97211e-06
-5.76973e-07
-2.66861e-06
-5.67658e-07
-2.37118e-06
-5.55924e-07
-2.08105e-06
-5.41862e-07
-1.79938e-06
-5.25581e-07
-1.52726e-06
-5.07205e-07
-1.26574e-06
-4.86872e-07
-1.01578e-06
-4.64731e-07
-7.78234e-07
-4.4094e-07
-5.53909e-07
-4.15667e-07
-3.43502e-07
-3.89083e-07
-1.47625e-07
-3.61364e-07
3.32007e-08
-3.32686e-07
1.98549e-07
-3.03229e-07
3.48081e-07
-2.73166e-07
4.81549e-07
-2.4267e-07
5.98797e-07
-2.11912e-07
6.99755e-07
-1.81057e-07
7.84438e-07
-1.50268e-07
8.52948e-07
-1.19705e-07
9.05473e-07
-8.95237e-08
9.42285e-07
-5.98836e-08
9.63744e-07
-3.09459e-08
9.70305e-07
-2.87899e-09
9.62518e-07
2.41381e-08
9.41044e-07
4.99082e-08
9.06663e-07
7.42103e-08
8.60293e-07
9.67904e-08
8.03011e-07
1.17351e-07
7.3608e-07
1.35542e-07
6.60982e-07
1.5094e-07
5.79453e-07
1.63042e-07
4.93527e-07
1.71245e-07
4.05578e-07
1.74834e-07
3.18352e-07
1.72984e-07
2.34983e-07
1.64779e-07
1.58955e-07
1.49294e-07
9.3983e-08
1.25801e-07
4.37667e-08
9.41445e-08
1.15814e-08
5.55256e-08
1.48651e-08
-4.04004e-09
-9.82451e-09
-2.61691e-08
1.95327e-08
-7.24815e-08
7.54418e-08
-1.46068e-07
1.44136e-07
-2.47927e-07
2.17043e-07
-3.77486e-07
2.886e-07
-5.33087e-07
3.55434e-07
-7.12416e-07
4.15714e-07
-9.12826e-07
4.68639e-07
-1.13156e-06
5.14086e-07
-1.36593e-06
5.5236e-07
-1.6134e-06
5.84018e-07
-1.87167e-06
6.09757e-07
-2.13869e-06
6.30323e-07
-2.41269e-06
6.46463e-07
-2.69215e-06
6.58887e-07
-2.9758e-06
6.68244e-07
-3.26258e-06
6.75115e-07
-3.55165e-06
6.79999e-07
-3.84231e-06
6.83323e-07
-4.13401e-06
6.85436e-07
-4.42631e-06
6.86617e-07
-4.71887e-06
6.87084e-07
-5.01141e-06
6.86996e-07
-5.30368e-06
6.86461e-07
-5.59549e-06
6.85546e-07
-5.88663e-06
6.84279e-07
-6.17693e-06
6.82656e-07
-6.46618e-06
6.80651e-07
-6.75416e-06
6.78211e-07
-7.04063e-06
6.75269e-07
-7.32533e-06
6.71746e-07
-7.60794e-06
6.67548e-07
-7.88811e-06
6.62578e-07
-8.16546e-06
6.5673e-07
-8.43956e-06
6.49896e-07
-8.70993e-06
6.41967e-07
-8.97607e-06
6.32833e-07
-9.2374e-06
6.22385e-07
-9.49334e-06
6.10519e-07
-9.74324e-06
5.97132e-07
-9.98643e-06
5.82127e-07
-1.02222e-05
5.65416e-07
-1.04498e-05
5.46915e-07
-1.06685e-05
5.26549e-07
-1.08774e-05
5.04255e-07
-1.10758e-05
4.79977e-07
-1.12628e-05
4.53673e-07
-1.14377e-05
4.25312e-07
-1.15994e-05
3.94878e-07
-1.17474e-05
3.62367e-07
-1.18806e-05
3.2779e-07
-1.19983e-05
2.91176e-07
-1.20996e-05
2.52568e-07
-1.21839e-05
2.12026e-07
-1.22504e-05
1.69626e-07
-1.22984e-05
1.25463e-07
-1.23273e-05
7.96501e-08
-1.23365e-05
3.23157e-08
-1.23254e-05
-1.63927e-08
-1.22937e-05
-6.63131e-08
-1.22408e-05
-1.17262e-07
-1.21667e-05
-1.69043e-07
-1.20709e-05
-2.21442e-07
-1.19534e-05
-2.74233e-07
-1.18143e-05
-3.27173e-07
-1.16535e-05
-3.80009e-07
-1.14713e-05
-4.32475e-07
-1.12679e-05
-4.84298e-07
-1.10438e-05
-5.35195e-07
-1.07995e-05
-5.8488e-07
-1.05356e-05
-6.33064e-07
-1.02529e-05
-6.79456e-07
-9.95223e-06
-7.23769e-07
-9.63456e-06
-7.6572e-07
-9.30097e-06
-8.05034e-07
-8.95264e-06
-8.41448e-07
-8.59085e-06
-8.74712e-07
-8.21697e-06
-9.04593e-07
-7.83245e-06
-9.30879e-07
-7.4388e-06
-9.5338e-07
-7.03763e-06
-9.7193e-07
-6.63055e-06
-9.86393e-07
-6.21926e-06
-9.96661e-07
-5.80547e-06
-1.00266e-06
-5.39089e-06
-1.00434e-06
-4.97728e-06
-1.00169e-06
-4.56634e-06
-9.94733e-07
-4.15978e-06
-9.83529e-07
-3.75928e-06
-9.68162e-07
-3.36645e-06
-9.48753e-07
-2.98287e-06
-9.25448e-07
-2.61002e-06
-8.98426e-07
-2.24934e-06
-8.67887e-07
-1.90216e-06
-8.34055e-07
-1.56971e-06
-7.97175e-07
-1.25315e-06
-7.57505e-07
-9.53496e-07
-7.15318e-07
-6.71682e-07
-6.70897e-07
-4.08517e-07
-6.24529e-07
-1.64696e-07
-5.76507e-07
5.91992e-08
-5.27125e-07
2.62707e-07
-4.76673e-07
4.45476e-07
-4.25439e-07
6.07273e-07
-3.73709e-07
7.47978e-07
-3.21762e-07
8.67581e-07
-2.69872e-07
9.66187e-07
-2.18311e-07
1.04401e-06
-1.67349e-07
1.10139e-06
-1.1726e-07
1.13876e-06
-6.83217e-08
1.15671e-06
-2.08277e-08
1.15594e-06
2.49105e-08
1.1373e-06
6.8552e-08
1.10179e-06
1.09716e-07
1.05061e-06
1.47968e-07
9.85157e-07
1.82807e-07
9.07051e-07
2.13648e-07
8.18188e-07
2.39803e-07
7.20768e-07
2.60462e-07
6.17332e-07
2.7468e-07
5.10799e-07
2.81367e-07
4.04486e-07
2.79297e-07
3.02109e-07
2.67156e-07
2.07745e-07
2.43658e-07
1.25752e-07
2.07794e-07
6.06455e-08
1.59251e-07
1.70237e-08
9.91474e-08
3.18888e-08
-1.11716e-08
1.34702e-09
-5.04498e-08
5.88112e-08
-1.21533e-07
1.46524e-07
-2.26133e-07
2.48737e-07
-3.64361e-07
3.5527e-07
-5.35047e-07
4.59286e-07
-7.36105e-07
5.56491e-07
-9.64853e-07
6.44462e-07
-1.2183e-06
7.22083e-07
-1.49334e-06
7.8913e-07
-1.78695e-06
8.45965e-07
-2.09624e-06
8.93312e-07
-2.41858e-06
9.32101e-07
-2.75162e-06
9.63355e-07
-3.09326e-06
9.88106e-07
-3.44172e-06
1.00735e-06
-3.79548e-06
1.022e-06
-4.15325e-06
1.03289e-06
-4.51399e-06
1.04074e-06
-4.87683e-06
1.04616e-06
-5.24105e-06
1.04966e-06
-5.60608e-06
1.05165e-06
-5.97146e-06
1.05246e-06
-6.33678e-06
1.05232e-06
-6.70171e-06
1.05139e-06
-7.06595e-06
1.04978e-06
-7.42921e-06
1.04754e-06
-7.79121e-06
1.04466e-06
-8.15168e-06
1.04111e-06
-8.51029e-06
1.03682e-06
-8.86672e-06
1.0317e-06
-9.22059e-06
1.02562e-06
-9.57149e-06
1.01845e-06
-9.91897e-06
1.01006e-06
-1.02625e-05
1.00029e-06
-1.06016e-05
9.8898e-07
-1.09356e-05
9.75978e-07
-1.12639e-05
9.6112e-07
-1.15858e-05
9.44252e-07
-1.19005e-05
9.25219e-07
-1.22072e-05
9.03877e-07
-1.25052e-05
8.80087e-07
-1.27935e-05
8.53721e-07
-1.30712e-05
8.24661e-07
-1.33375e-05
7.92804e-07
-1.35913e-05
7.58061e-07
-1.38317e-05
7.20359e-07
-1.40576e-05
6.79642e-07
-1.42682e-05
6.35873e-07
-1.44624e-05
5.89036e-07
-1.46391e-05
5.39134e-07
-1.47975e-05
4.86196e-07
-1.49366e-05
4.30269e-07
-1.50555e-05
3.71428e-07
-1.51532e-05
3.09771e-07
-1.5229e-05
2.4542e-07
-1.52821e-05
1.78524e-07
-1.53117e-05
1.09255e-07
-1.53172e-05
3.78134e-08
-1.5298e-05
-3.55791e-08
-1.52536e-05
-1.10674e-07
-1.51837e-05
-1.87199e-07
-1.50879e-05
-2.64859e-07
-1.4966e-05
-3.43337e-07
-1.48179e-05
-4.22295e-07
-1.46437e-05
-5.01377e-07
-1.44435e-05
-5.80209e-07
-1.42176e-05
-6.58402e-07
-1.39663e-05
-7.35556e-07
-1.36903e-05
-8.11259e-07
-1.33901e-05
-8.85094e-07
-1.30665e-05
-9.5664e-07
-1.27205e-05
-1.02548e-06
-1.23531e-05
-1.09119e-06
-1.19654e-05
-1.15336e-06
-1.15589e-05
-1.2116e-06
-1.11348e-05
-1.26553e-06
-1.06947e-05
-1.31478e-06
-1.02403e-05
-1.35903e-06
-9.77318e-06
-1.39797e-06
-9.29525e-06
-1.43131e-06
-8.80835e-06
-1.45883e-06
-8.31442e-06
-1.48032e-06
-7.81544e-06
-1.49564e-06
-7.31342e-06
-1.50467e-06
-6.81042e-06
-1.50734e-06
-6.30847e-06
-1.50364e-06
-5.8096e-06
-1.4936e-06
-5.31582e-06
-1.4773e-06
-4.82911e-06
-1.45487e-06
-4.35139e-06
-1.42647e-06
-3.88451e-06
-1.39233e-06
-3.43026e-06
-1.35268e-06
-2.99031e-06
-1.30783e-06
-2.56627e-06
-1.2581e-06
-2.15962e-06
-1.20383e-06
-1.77171e-06
-1.14541e-06
-1.40381e-06
-1.08323e-06
-1.05701e-06
-1.01769e-06
-7.32317e-07
-9.49224e-07
-4.30572e-07
-8.78252e-07
-1.52494e-07
-8.05203e-07
1.01337e-07
-7.30504e-07
3.30478e-07
-6.5458e-07
5.3462e-07
-5.77851e-07
7.13589e-07
-5.00731e-07
8.67347e-07
-4.2363e-07
9.95993e-07
-3.46956e-07
1.09976e-06
-2.71115e-07
1.17902e-06
-1.96519e-07
1.23429e-06
-1.23593e-07
1.26624e-06
-5.27789e-08
1.2757e-06
1.5449e-08
1.26368e-06
8.05749e-08
1.23137e-06
1.42026e-07
1.18018e-06
1.99155e-07
1.11177e-06
2.51222e-07
1.02804e-06
2.97373e-07
9.31226e-07
3.3662e-07
8.23868e-07
3.6782e-07
7.0889e-07
3.89658e-07
5.89607e-07
4.0065e-07
4.69748e-07
3.99157e-07
3.53456e-07
3.83448e-07
2.45278e-07
3.51836e-07
1.50147e-07
3.02925e-07
7.34017e-08
2.35996e-07
2.09511e-08
1.51598e-07
5.284e-08
-1.84481e-08
1.97955e-08
-7.57316e-08
1.16094e-07
-1.72899e-07
2.43691e-07
-3.09939e-07
3.85777e-07
-4.85771e-07
5.31102e-07
-6.98413e-07
6.71928e-07
-9.45199e-07
8.03277e-07
-1.22302e-06
9.22279e-07
-1.52852e-06
1.02758e-06
-1.8583e-06
1.11891e-06
-2.20903e-06
1.1967e-06
-2.57757e-06
1.26185e-06
-2.96103e-06
1.31556e-06
-3.35679e-06
1.35912e-06
-3.76254e-06
1.39386e-06
-4.17628e-06
1.42108e-06
-4.59627e-06
1.44199e-06
-5.02105e-06
1.45767e-06
-5.44939e-06
1.46908e-06
-5.88027e-06
1.47704e-06
-6.31283e-06
1.48223e-06
-6.74638e-06
1.4852e-06
-7.18032e-06
1.4864e-06
-7.61414e-06
1.48614e-06
-8.04741e-06
1.48466e-06
-8.47971e-06
1.48209e-06
-8.91068e-06
1.47851e-06
-9.33993e-06
1.47392e-06
-9.76709e-06
1.46827e-06
-1.01917e-05
1.46148e-06
-1.06135e-05
1.45342e-06
-1.10318e-05
1.44393e-06
-1.14462e-05
1.43284e-06
-1.18561e-05
1.41996e-06
-1.22609e-05
1.40509e-06
-1.26599e-05
1.388e-06
-1.30524e-05
1.3685e-06
-1.34377e-05
1.34637e-06
-1.38148e-05
1.3214e-06
-1.4183e-05
1.29338e-06
-1.45412e-05
1.26212e-06
-1.48886e-05
1.22744e-06
-1.5224e-05
1.18918e-06
-1.55465e-05
1.14717e-06
-1.5855e-05
1.10129e-06
-1.61484e-05
1.05142e-06
-1.64255e-05
9.97483e-07
-1.66853e-05
9.394e-07
-1.69265e-05
8.77138e-07
-1.71482e-05
8.10686e-07
-1.73491e-05
7.40062e-07
-1.75282e-05
6.65315e-07
-1.76845e-05
5.86525e-07
-1.78169e-05
5.03806e-07
-1.79244e-05
4.17302e-07
-1.80062e-05
3.27194e-07
-1.80613e-05
2.33695e-07
-1.80891e-05
1.3705e-07
-1.80889e-05
3.75423e-08
-1.80599e-05
-6.45176e-08
-1.80018e-05
-1.68784e-07
-1.79141e-05
-2.74879e-07
-1.77966e-05
-3.82397e-07
-1.7649e-05
-4.90902e-07
-1.74714e-05
-5.99935e-07
-1.72638e-05
-7.09008e-07
-1.70264e-05
-8.17614e-07
-1.67595e-05
-9.25228e-07
-1.64638e-05
-1.03131e-06
-1.61397e-05
-1.1353e-06
-1.57882e-05
-1.23664e-06
-1.54101e-05
-1.33477e-06
-1.50064e-05
-1.42911e-06
-1.45785e-05
-1.51912e-06
-1.41276e-05
-1.60424e-06
-1.36553e-05
-1.68395e-06
-1.31631e-05
-1.75774e-06
-1.26527e-05
-1.82511e-06
-1.21261e-05
-1.88564e-06
-1.15852e-05
-1.93891e-06
-1.10319e-05
-1.98455e-06
-1.04685e-05
-2.02224e-06
-9.89713e-06
-2.05173e-06
-9.31997e-06
-2.0728e-06
-8.73933e-06
-2.0853e-06
-8.15751e-06
-2.08916e-06
-7.57682e-06
-2.08434e-06
-6.99953e-06
-2.07089e-06
-6.42793e-06
-2.0489e-06
-5.86425e-06
-2.01856e-06
-5.31064e-06
-1.98008e-06
-4.76922e-06
-1.93375e-06
-4.242e-06
-1.8799e-06
-3.7309e-06
-1.81893e-06
-3.23772e-06
-1.75127e-06
-2.76416e-06
-1.67739e-06
-2.31177e-06
-1.5978e-06
-1.88198e-06
-1.51301e-06
-1.47608e-06
-1.42359e-06
-1.09521e-06
-1.3301e-06
-7.40345e-07
-1.23312e-06
-4.12329e-07
-1.13322e-06
-1.11845e-07
-1.03099e-06
1.60579e-07
-9.27003e-07
4.04566e-07
-8.21838e-07
6.19895e-07
-7.16059e-07
8.06497e-07
-6.10233e-07
9.6446e-07
-5.04919e-07
1.09403e-06
-4.00683e-07
1.19561e-06
-2.98097e-07
1.26976e-06
-1.97752e-07
1.31725e-06
-1.00266e-07
1.339e-06
-6.29646e-09
1.33613e-06
8.34393e-08
1.31001e-06
1.68151e-07
1.26221e-06
2.46953e-07
1.19459e-06
3.1884e-07
1.1093e-06
3.82666e-07
1.0088e-06
4.3712e-07
8.95915e-07
4.80705e-07
7.7385e-07
5.11723e-07
6.46221e-07
5.28279e-07
5.17074e-07
5.28305e-07
3.90897e-07
5.09625e-07
2.72647e-07
4.70086e-07
1.67792e-07
4.0778e-07
8.2436e-08
3.21352e-07
2.36026e-08
2.10432e-07
7.64427e-08
-2.56086e-08
4.54037e-08
-1.00953e-07
1.91439e-07
-2.2455e-07
3.67288e-07
-3.94509e-07
5.55736e-07
-6.08383e-07
7.44977e-07
-8.63213e-07
9.26757e-07
-1.15563e-06
1.09569e-06
-1.482e-06
1.24865e-06
-1.8386e-06
1.38418e-06
-2.22169e-06
1.502e-06
-2.6277e-06
1.60271e-06
-3.05325e-06
1.6874e-06
-3.49522e-06
1.75754e-06
-3.95082e-06
1.81471e-06
-4.41754e-06
1.86058e-06
-4.89321e-06
1.89675e-06
-5.37592e-06
1.9247e-06
-5.86406e-06
1.94581e-06
-6.35626e-06
1.96128e-06
-6.85135e-06
1.97213e-06
-7.34837e-06
1.97924e-06
-7.84649e-06
1.98332e-06
-8.34499e-06
1.9849e-06
-8.84328e-06
1.98442e-06
-9.3408e-06
1.98217e-06
-9.83705e-06
1.97834e-06
-1.03316e-05
1.97301e-06
-1.08238e-05
1.9662e-06
-1.13134e-05
1.95785e-06
-1.17998e-05
1.94786e-06
-1.22824e-05
1.93606e-06
-1.27608e-05
1.92225e-06
-1.32342e-05
1.90623e-06
-1.37019e-05
1.88773e-06
-1.41634e-05
1.86651e-06
-1.46177e-05
1.8423e-06
-1.5064e-05
1.81483e-06
-1.55014e-05
1.78382e-06
-1.5929e-05
1.74902e-06
-1.63458e-05
1.71016e-06
-1.67507e-05
1.66701e-06
-1.71426e-05
1.61933e-06
-1.75203e-05
1.56693e-06
-1.78828e-05
1.5096e-06
-1.82287e-05
1.44721e-06
-1.85569e-05
1.3796e-06
-1.88661e-05
1.30668e-06
-1.91551e-05
1.22839e-06
-1.94226e-05
1.14468e-06
-1.96675e-05
1.05555e-06
-1.98884e-05
9.61048e-07
-2.00844e-05
8.61252e-07
-2.02541e-05
7.56282e-07
-2.03966e-05
6.46299e-07
-2.05108e-05
5.31507e-07
-2.05958e-05
4.12153e-07
-2.06506e-05
2.88526e-07
-2.06745e-05
1.60957e-07
-2.06668e-05
2.98191e-08
-2.06268e-05
-1.04474e-07
-2.05542e-05
-2.41469e-07
-2.04484e-05
-3.80671e-07
-2.03092e-05
-5.21553e-07
-2.01366e-05
-6.63551e-07
-1.99304e-05
-8.06068e-07
-1.9691e-05
-9.4848e-07
-1.94184e-05
-1.09013e-06
-1.91133e-05
-1.23036e-06
-1.87762e-05
-1.36846e-06
-1.84077e-05
-1.50373e-06
-1.80089e-05
-1.63545e-06
-1.75808e-05
-1.76291e-06
-1.71245e-05
-1.88538e-06
-1.66415e-05
-2.00217e-06
-1.61331e-05
-2.11256e-06
-1.56012e-05
-2.2159e-06
-1.50474e-05
-2.31154e-06
-1.44737e-05
-2.39886e-06
-1.3882e-05
-2.4773e-06
-1.32746e-05
-2.54633e-06
-1.26536e-05
-2.60551e-06
-1.20214e-05
-2.65442e-06
-1.13804e-05
-2.69272e-06
-1.07331e-05
-2.72015e-06
-1.00819e-05
-2.73653e-06
-9.42927e-06
-2.74174e-06
-8.77787e-06
-2.73575e-06
-8.13015e-06
-2.7186e-06
-7.48861e-06
-2.69044e-06
-6.85571e-06
-2.65146e-06
-6.23382e-06
-2.60197e-06
-5.62526e-06
-2.54231e-06
-5.03224e-06
-2.47291e-06
-4.45689e-06
-2.39428e-06
-3.90121e-06
-2.30696e-06
-3.36706e-06
-2.21154e-06
-2.85617e-06
-2.10868e-06
-2.37014e-06
-1.99905e-06
-1.91037e-06
-1.88335e-06
-1.47816e-06
-1.76231e-06
-1.0746e-06
-1.63667e-06
-7.00639e-07
-1.50718e-06
-3.57044e-07
-1.37458e-06
-4.44212e-08
-1.23963e-06
2.36796e-07
-1.10305e-06
4.86342e-07
-9.65606e-07
7.04124e-07
-8.28014e-07
8.90219e-07
-6.91014e-07
1.04488e-06
-5.55345e-07
1.16854e-06
-4.21757e-07
1.26182e-06
-2.91027e-07
1.32552e-06
-1.63966e-07
1.36066e-06
-4.14369e-08
1.36847e-06
7.56233e-08
1.35044e-06
1.86187e-07
1.30828e-06
2.89109e-07
1.24402e-06
3.83101e-07
1.15998e-06
4.66708e-07
1.05882e-06
5.38279e-07
9.43574e-07
5.95949e-07
8.17673e-07
6.37624e-07
6.84969e-07
6.60983e-07
5.49767e-07
6.63506e-07
4.16859e-07
6.42533e-07
2.91568e-07
5.95377e-07
1.79848e-07
5.195e-07
8.84579e-08
4.12743e-07
2.5281e-08
2.73609e-07
1.01724e-07
-3.24945e-08
7.78985e-08
-1.25562e-07
2.84506e-07
-2.75333e-07
5.1706e-07
-4.78036e-07
7.58438e-07
-7.29781e-07
9.96722e-07
-1.02653e-06
1.2235e-06
-1.3641e-06
1.43327e-06
-1.7383e-06
1.62285e-06
-2.14494e-06
1.79081e-06
-2.57996e-06
1.93703e-06
-3.03952e-06
2.06226e-06
-3.52002e-06
2.1679e-06
-4.01817e-06
2.25568e-06
-4.53099e-06
2.32753e-06
-5.05584e-06
2.38543e-06
-5.59039e-06
2.43129e-06
-6.13261e-06
2.46693e-06
-6.68077e-06
2.49397e-06
-7.23337e-06
2.51388e-06
-7.78914e-06
2.5279e-06
-8.34698e-06
2.53709e-06
-8.90597e-06
2.54231e-06
-9.46531e-06
2.54424e-06
-1.00243e-05
2.54338e-06
-1.05822e-05
2.54011e-06
-1.11385e-05
2.53466e-06
-1.16926e-05
2.52714e-06
-1.2244e-05
2.51756e-06
-1.2792e-05
2.50587e-06
-1.33361e-05
2.49192e-06
-1.38756e-05
2.47553e-06
-1.44098e-05
2.45646e-06
-1.4938e-05
2.43443e-06
-1.54594e-05
2.40916e-06
-1.59732e-05
2.38031e-06
-1.64785e-05
2.34758e-06
-1.69742e-05
2.31062e-06
-1.74595e-05
2.26911e-06
-1.79332e-05
2.22273e-06
-1.83943e-05
2.17117e-06
-1.88414e-05
2.11414e-06
-1.92734e-05
2.05136e-06
-1.96891e-05
1.9826e-06
-2.00871e-05
1.90764e-06
-2.04662e-05
1.82629e-06
-2.0825e-05
1.7384e-06
-2.11622e-05
1.64387e-06
-2.14764e-05
1.54262e-06
-2.17664e-05
1.43463e-06
-2.20308e-05
1.31993e-06
-2.22683e-05
1.19857e-06
-2.24777e-05
1.0707e-06
-2.26579e-05
9.36457e-07
-2.28077e-05
7.96079e-07
-2.2926e-05
6.49834e-07
-2.30119e-05
4.98045e-07
-2.30645e-05
3.41087e-07
-2.30829e-05
1.79386e-07
-2.30665e-05
1.34184e-08
-2.30147e-05
-1.56295e-07
-2.2927e-05
-3.29179e-07
-2.2803e-05
-5.04618e-07
-2.26426e-05
-6.81952e-07
-2.24457e-05
-8.6048e-07
-2.22123e-05
-1.03946e-06
-2.19426e-05
-1.21813e-06
-2.16371e-05
-1.39568e-06
-2.12962e-05
-1.57128e-06
-2.09206e-05
-1.74408e-06
-2.05111e-05
-1.91321e-06
-2.00687e-05
-2.0778e-06
-1.95947e-05
-2.23697e-06
-1.90902e-05
-2.38984e-06
-1.85568e-05
-2.53554e-06
-1.79962e-05
-2.67323e-06
-1.741e-05
-2.80208e-06
-1.68002e-05
-2.9213e-06
-1.61689e-05
-3.03016e-06
-1.55183e-05
-3.12794e-06
-1.48506e-05
-3.21402e-06
-1.41683e-05
-3.28783e-06
-1.34738e-05
-3.34887e-06
-1.27698e-05
-3.39674e-06
-1.20589e-05
-3.43109e-06
-1.13437e-05
-3.45171e-06
-1.0627e-05
-3.45844e-06
-9.91147e-06
-3.45125e-06
-9.19988e-06
-3.43019e-06
-8.49489e-06
-3.39543e-06
-7.79914e-06
-3.34721e-06
-7.11522e-06
-3.28589e-06
-6.44562e-06
-3.2119e-06
-5.79276e-06
-3.12578e-06
-5.15891e-06
-3.02812e-06
-4.54627e-06
-2.91961e-06
-3.95685e-06
-2.80097e-06
-3.39253e-06
-2.673e-06
-2.85505e-06
-2.53653e-06
-2.34596e-06
-2.39244e-06
-1.86665e-06
-2.24163e-06
-1.41832e-06
-2.085e-06
-1.00202e-06
-1.92348e-06
-6.18587e-07
-1.75802e-06
-2.68692e-07
-1.58952e-06
4.71827e-08
-1.41893e-06
3.2874e-07
-1.24716e-06
5.75865e-07
-1.07514e-06
7.88632e-07
-9.03782e-07
9.67305e-07
-7.34018e-07
1.11234e-06
-5.66794e-07
1.2244e-06
-4.03085e-07
1.30435e-06
-2.43912e-07
1.35327e-06
-9.03597e-08
1.37249e-06
5.6401e-08
1.36359e-06
1.95089e-07
1.32841e-06
3.24285e-07
1.26911e-06
4.42405e-07
1.18815e-06
5.4767e-07
1.08835e-06
6.38078e-07
9.72913e-07
7.11383e-07
8.45455e-07
7.65082e-07
7.10026e-07
7.96412e-07
5.71159e-07
8.02374e-07
4.33911e-07
7.79781e-07
3.03938e-07
7.2535e-07
1.87615e-07
6.35823e-07
9.22238e-08
5.08133e-07
2.62672e-08
3.39566e-07
1.27991e-07
-3.90622e-08
1.1696e-07
-1.49292e-07
3.94737e-07
-3.24623e-07
6.92391e-07
-5.59459e-07
9.93274e-07
-8.48459e-07
1.28572e-06
-1.18645e-06
1.56149e-06
-1.5684e-06
1.81523e-06
-1.98946e-06
2.04391e-06
-2.44496e-06
2.24631e-06
-2.93049e-06
2.42255e-06
-3.44191e-06
2.57369e-06
-3.97542e-06
2.70141e-06
-4.52755e-06
2.80781e-06
-5.09518e-06
2.89517e-06
-5.67554e-06
2.96579e-06
-6.26618e-06
3.02193e-06
-6.86496e-06
3.06571e-06
-7.47005e-06
3.09906e-06
-8.07985e-06
3.12368e-06
-8.69299e-06
3.14104e-06
-9.30829e-06
3.15239e-06
-9.92471e-06
3.15874e-06
-1.05414e-05
3.16089e-06
-1.11575e-05
3.15946e-06
-1.17722e-05
3.15488e-06
-1.2385e-05
3.14742e-06
-1.29951e-05
3.13721e-06
-1.36018e-05
3.12429e-06
-1.42045e-05
3.10857e-06
-1.48025e-05
3.0899e-06
-1.5395e-05
3.06804e-06
-1.59812e-05
3.04271e-06
-1.65604e-05
3.0136e-06
-1.71316e-05
2.98034e-06
-1.76938e-05
2.94257e-06
-1.82461e-05
2.89989e-06
-1.87874e-05
2.85193e-06
-1.93166e-05
2.79828e-06
-1.98325e-05
2.73858e-06
-2.03338e-05
2.67246e-06
-2.08192e-05
2.59958e-06
-2.12875e-05
2.51964e-06
-2.17372e-05
2.43235e-06
-2.2167e-05
2.33747e-06
-2.25755e-05
2.23479e-06
-2.29613e-05
2.12417e-06
-2.33229e-05
2.00548e-06
-2.3659e-05
1.87866e-06
-2.39681e-05
1.74372e-06
-2.42488e-05
1.60071e-06
-2.45e-05
1.44972e-06
-2.47202e-05
1.29092e-06
-2.49083e-05
1.12456e-06
-2.50631e-05
9.50901e-07
-2.51836e-05
7.70307e-07
-2.52688e-05
5.83183e-07
-2.53177e-05
3.89999e-07
-2.53296e-05
1.91282e-07
-2.53038e-05
-1.23783e-08
-2.52397e-05
-2.20348e-07
-2.5137e-05
-4.31924e-07
-2.49952e-05
-6.46361e-07
-2.48143e-05
-8.62862e-07
-2.45942e-05
-1.08058e-06
-2.4335e-05
-1.29864e-06
-2.40371e-05
-1.51611e-06
-2.37007e-05
-1.73203e-06
-2.33266e-05
-1.94542e-06
-2.29154e-05
-2.15526e-06
-2.24681e-05
-2.36052e-06
-2.19857e-05
-2.56016e-06
-2.14696e-05
-2.75313e-06
-2.0921e-05
-2.93839e-06
-2.03416e-05
-3.11492e-06
-1.97332e-05
-3.28169e-06
-1.90975e-05
-3.43774e-06
-1.84367e-05
-3.58213e-06
-1.77529e-05
-3.71396e-06
-1.70484e-05
-3.8324e-06
-1.63257e-05
-3.9367e-06
-1.55874e-05
-4.02618e-06
-1.4836e-05
-4.10024e-06
-1.40744e-05
-4.15838e-06
-1.33053e-05
-4.20021e-06
-1.25315e-05
-4.22544e-06
-1.17561e-05
-4.23391e-06
-1.09818e-05
-4.22555e-06
-1.02115e-05
-4.20042e-06
-9.44824e-06
-4.15872e-06
-8.69472e-06
-4.10074e-06
-7.95372e-06
-4.02689e-06
-7.22794e-06
-3.93769e-06
-6.51993e-06
-3.83378e-06
-5.83218e-06
-3.71588e-06
-5.167e-06
-3.58478e-06
-4.52658e-06
-3.44139e-06
-3.91294e-06
-3.28664e-06
-3.32794e-06
-3.12153e-06
-2.77325e-06
-2.94713e-06
-2.25037e-06
-2.7645e-06
-1.76061e-06
-2.57476e-06
-1.30507e-06
-2.37902e-06
-8.84668e-07
-2.17842e-06
-5.00126e-07
-1.97406e-06
-1.51964e-07
-1.76709e-06
1.59494e-07
-1.55862e-06
4.34124e-07
-1.34977e-06
6.72003e-07
-1.14166e-06
8.73411e-07
-9.35425e-07
1.03883e-06
-7.32216e-07
1.16897e-06
-5.33221e-07
1.26474e-06
-3.39685e-07
1.32731e-06
-1.52924e-07
1.35807e-06
2.56425e-08
1.35869e-06
1.9447e-07
1.33112e-06
3.51854e-07
1.27762e-06
4.95903e-07
1.20079e-06
6.24504e-07
1.10357e-06
7.35294e-07
9.89316e-07
8.25636e-07
8.61794e-07
8.92603e-07
7.25233e-07
9.32972e-07
5.84369e-07
9.43238e-07
4.445e-07
9.1965e-07
3.11575e-07
8.58275e-07
1.92317e-07
7.55081e-07
9.44168e-08
6.06034e-07
2.67924e-08
4.0719e-07
1.54784e-07
-4.53062e-08
1.62266e-07
-1.72034e-07
5.21465e-07
-3.72102e-07
8.92458e-07
-6.38185e-07
1.25936e-06
-9.63517e-07
1.61105e-06
-1.34178e-06
1.93976e-06
-1.76706e-06