/*--------------------------------*- C++ -*----------------------------------*\
| =========                 |                                                 |
| \\      /  F ield         | OpenFOAM: The Open Source CFD Toolbox           |
|  \\    /   O peration     | Version:  2112                                  |
|   \\  /    A nd           | Website:  www.openfoam.com                      |
|    \\/     M anipulation  |                                                 |
\*---------------------------------------------------------------------------*/
FoamFile
{
    version     2.0;
    format      ascii;
    arch        "LSB;label=32;scalar=64";
    class       volVectorField;
    location    "8";
    object      U;
}
// * * * * * * * * * * * * * * * * * * * * * * * * * * * * * * * * * * * * * //

dimensions      [0 1 -1 0 0 0 0];

internalField   nonuniform List<vector> 
16641
(
(3.42988e-06 -3.543e-06 0)
(1.14629e-05 -4.86318e-06 0)
(1.76916e-05 -3.11249e-06 0)
(1.7004e-05 -3.47159e-07 0)
(7.70717e-06 2.56087e-06 0)
(-1.01198e-05 5.2302e-06 0)
(-3.57964e-05 7.57654e-06 0)
(-6.83353e-05 9.54223e-06 0)
(-0.000106754 1.11417e-05 0)
(-0.000150076 1.24162e-05 0)
(-0.0001974 1.34115e-05 0)
(-0.00024793 1.41729e-05 0)
(-0.000300977 1.47417e-05 0)
(-0.00035596 1.51537e-05 0)
(-0.000412401 1.54412e-05 0)
(-0.000469909 1.56326e-05 0)
(-0.000528176 1.57519e-05 0)
(-0.000586962 1.58194e-05 0)
(-0.000646087 1.58509e-05 0)
(-0.000705418 1.58587e-05 0)
(-0.000764861 1.58529e-05 0)
(-0.000824352 1.58409e-05 0)
(-0.000883852 1.58279e-05 0)
(-0.000943336 1.58174e-05 0)
(-0.00100279 1.58113e-05 0)
(-0.00106221 1.58096e-05 0)
(-0.00112159 1.58123e-05 0)
(-0.00118092 1.58183e-05 0)
(-0.00124019 1.58257e-05 0)
(-0.0012994 1.58319e-05 0)
(-0.00135851 1.58342e-05 0)
(-0.00141749 1.58296e-05 0)
(-0.0014763 1.58149e-05 0)
(-0.0015349 1.57868e-05 0)
(-0.00159321 1.57418e-05 0)
(-0.00165116 1.56762e-05 0)
(-0.00170866 1.55863e-05 0)
(-0.00176563 1.54688e-05 0)
(-0.00182194 1.53202e-05 0)
(-0.00187748 1.51371e-05 0)
(-0.00193212 1.49161e-05 0)
(-0.00198571 1.46541e-05 0)
(-0.00203809 1.43478e-05 0)
(-0.00208912 1.39944e-05 0)
(-0.00213861 1.35911e-05 0)
(-0.00218639 1.31355e-05 0)
(-0.00223227 1.26252e-05 0)
(-0.00227606 1.20583e-05 0)
(-0.00231756 1.14329e-05 0)
(-0.00235656 1.07478e-05 0)
(-0.00239285 1.00021e-05 0)
(-0.00242625 9.19512e-06 0)
(-0.00245652 8.32664e-06 0)
(-0.00248348 7.39687e-06 0)
(-0.00250691 6.4066e-06 0)
(-0.00252661 5.35714e-06 0)
(-0.00254241 4.25027e-06 0)
(-0.0025541 3.08833e-06 0)
(-0.00256153 1.87439e-06 0)
(-0.00256452 6.12042e-07 0)
(-0.00256294 -6.95794e-07 0)
(-0.00255664 -2.04336e-06 0)
(-0.00254551 -3.42541e-06 0)
(-0.00252947 -4.83618e-06 0)
(-0.00250843 -6.26928e-06 0)
(-0.00248235 -7.71776e-06 0)
(-0.0024512 -9.1741e-06 0)
(-0.00241498 -1.06303e-05 0)
(-0.00237372 -1.20778e-05 0)
(-0.00232748 -1.35079e-05 0)
(-0.00227635 -1.49116e-05 0)
(-0.00222044 -1.62794e-05 0)
(-0.0021599 -1.76019e-05 0)
(-0.0020949 -1.88695e-05 0)
(-0.00202567 -2.00729e-05 0)
(-0.00195243 -2.1203e-05 0)
(-0.00187545 -2.22507e-05 0)
(-0.00179504 -2.32075e-05 0)
(-0.00171152 -2.40653e-05 0)
(-0.00162523 -2.48169e-05 0)
(-0.00153655 -2.54556e-05 0)
(-0.00144585 -2.59758e-05 0)
(-0.00135356 -2.63727e-05 0)
(-0.00126009 -2.66425e-05 0)
(-0.00116587 -2.67827e-05 0)
(-0.00107134 -2.67918e-05 0)
(-0.000976931 -2.66695e-05 0)
(-0.00088309 -2.64167e-05 0)
(-0.000790247 -2.60356e-05 0)
(-0.000698831 -2.55292e-05 0)
(-0.000609255 -2.49021e-05 0)
(-0.000521917 -2.41595e-05 0)
(-0.0004372 -2.33077e-05 0)
(-0.000355461 -2.23541e-05 0)
(-0.000277038 -2.13063e-05 0)
(-0.000202239 -2.0173e-05 0)
(-0.000131347 -1.89631e-05 0)
(-6.46153e-05 -1.76857e-05 0)
(-2.26543e-06 -1.6351e-05 0)
(5.55103e-05 -1.49687e-05 0)
(0.000108551 -1.35467e-05 0)
(0.000156726 -1.20958e-05 0)
(0.000199937 -1.0625e-05 0)
(0.000238114 -9.14277e-06 0)
(0.000271215 -7.65765e-06 0)
(0.000299228 -6.17763e-06 0)
(0.000322167 -4.71004e-06 0)
(0.00034007 -3.26177e-06 0)
(0.000353 -1.8394e-06 0)
(0.000361047 -4.49168e-07 0)
(0.000364322 9.02639e-07 0)
(0.000362959 2.20948e-06 0)
(0.000357121 3.46555e-06 0)
(0.000346995 4.66358e-06 0)
(0.000332798 5.79543e-06 0)
(0.000314786 6.85133e-06 0)
(0.00029325 7.81918e-06 0)
(0.000268538 8.68348e-06 0)
(0.000241057 9.42383e-06 0)
(0.000211293 1.00131e-05 0)
(0.000179834 1.04143e-05 0)
(0.000147397 1.05764e-05 0)
(0.000114868 1.04283e-05 0)
(8.33473e-05 9.86963e-06 0)
(5.42148e-05 8.76422e-06 0)
(2.91652e-05 6.94739e-06 0)
(1.01437e-05 4.26958e-06 0)
(-7.83194e-07 8.15205e-07 0)
(-1.98045e-06 -1.97606e-06 0)
(4.74136e-06 -1.14644e-05 0)
(1.271e-05 -1.28012e-05 0)
(1.19616e-05 -2.73557e-06 0)
(-5.50852e-06 1.19918e-05 0)
(-4.29129e-05 2.79768e-05 0)
(-0.00010063 4.33928e-05 0)
(-0.000177651 5.74354e-05 0)
(-0.000272173 6.97142e-05 0)
(-0.00038207 8.01497e-05 0)
(-0.000505131 8.88211e-05 0)
(-0.000639227 9.58837e-05 0)
(-0.000782393 0.000101528 0)
(-0.000932878 0.000105952 0)
(-0.00108916 0.000109348 0)
(-0.00124995 0.000111895 0)
(-0.00141417 0.000113757 0)
(-0.00158095 0.000115078 0)
(-0.00174957 0.00011598 0)
(-0.00191948 0.000116566 0)
(-0.00209027 0.000116921 0)
(-0.0022616 0.000117112 0)
(-0.00243325 0.000117192 0)
(-0.00260503 0.0001172 0)
(-0.00277683 0.000117163 0)
(-0.00294855 0.000117099 0)
(-0.00312012 0.000117015 0)
(-0.00329149 0.000116914 0)
(-0.0034626 0.000116793 0)
(-0.00363338 0.000116642 0)
(-0.00380375 0.000116449 0)
(-0.00397362 0.000116198 0)
(-0.00414288 0.000115872 0)
(-0.00431138 0.000115451 0)
(-0.00447895 0.000114914 0)
(-0.00464541 0.000114241 0)
(-0.00481052 0.000113408 0)
(-0.00497404 0.000112393 0)
(-0.00513567 0.000111174 0)
(-0.00529511 0.000109729 0)
(-0.00545201 0.000108037 0)
(-0.00560599 0.000106075 0)
(-0.00575666 0.000103826 0)
(-0.00590359 0.000101268 0)
(-0.00604634 9.83841e-05 0)
(-0.00618442 9.51581e-05 0)
(-0.00631735 9.1575e-05 0)
(-0.00644461 8.76218e-05 0)
(-0.00656568 8.32874e-05 0)
(-0.00668002 7.85626e-05 0)
(-0.00678708 7.34413e-05 0)
(-0.00688631 6.79193e-05 0)
(-0.00697717 6.19955e-05 0)
(-0.00705909 5.56714e-05 0)
(-0.00713154 4.89517e-05 0)
(-0.00719397 4.18443e-05 0)
(-0.00724588 3.43604e-05 0)
(-0.00728677 2.65146e-05 0)
(-0.00731616 1.83251e-05 0)
(-0.00733362 9.81344e-06 0)
(-0.00733873 1.00497e-06 0)
(-0.00733112 -8.06815e-06 0)
(-0.00731048 -1.73762e-05 0)
(-0.00727652 -2.68829e-05 0)
(-0.00722903 -3.6548e-05 0)
(-0.00716784 -4.6328e-05 0)
(-0.00709285 -5.61769e-05 0)
(-0.00700403 -6.6045e-05 0)
(-0.0069014 -7.58805e-05 0)
(-0.00678509 -8.56288e-05 0)
(-0.00665526 -9.52337e-05 0)
(-0.00651219 -0.000104637 0)
(-0.0063562 -0.000113781 0)
(-0.00618772 -0.000122605 0)
(-0.00600724 -0.00013105 0)
(-0.00581534 -0.000139058 0)
(-0.00561268 -0.000146572 0)
(-0.00539997 -0.000153537 0)
(-0.00517802 -0.000159899 0)
(-0.0049477 -0.000165611 0)
(-0.00470993 -0.000170628 0)
(-0.00446569 -0.000174909 0)
(-0.00421603 -0.000178419 0)
(-0.00396201 -0.00018113 0)
(-0.00370474 -0.000183019 0)
(-0.00344537 -0.000184069 0)
(-0.00318504 -0.000184271 0)
(-0.00292491 -0.000183624 0)
(-0.00266614 -0.000182133 0)
(-0.00240989 -0.000179809 0)
(-0.00215727 -0.000176671 0)
(-0.00190938 -0.000172746 0)
(-0.00166729 -0.000168065 0)
(-0.001432 -0.000162667 0)
(-0.00120449 -0.000156593 0)
(-0.000985652 -0.000149893 0)
(-0.000776323 -0.000142616 0)
(-0.000577272 -0.000134818 0)
(-0.000389193 -0.000126556 0)
(-0.000212703 -0.000117888 0)
(-4.83401e-05 -0.000108875 0)
(0.000103435 -9.95742e-05 0)
(0.000242243 -9.00446e-05 0)
(0.000367784 -8.03461e-05 0)
(0.000479836 -7.05349e-05 0)
(0.000578253 -6.06656e-05 0)
(0.000662965 -5.07914e-05 0)
(0.000733972 -4.09632e-05 0)
(0.000791347 -3.12302e-05 0)
(0.000835232 -2.16406e-05 0)
(0.00086584 -1.22415e-05 0)
(0.00088345 -3.08047e-06 0)
(0.000888416 5.7931e-06 0)
(0.000881165 1.43275e-05 0)
(0.000862207 2.24655e-05 0)
(0.00083214 3.01423e-05 0)
(0.00079167 3.72818e-05 0)
(0.000741619 4.3793e-05 0)
(0.000682955 4.95646e-05 0)
(0.000616819 5.44581e-05 0)
(0.00054456 5.82997e-05 0)
(0.000467782 6.08699e-05 0)
(0.000388395 6.1891e-05 0)
(0.000308678 6.10138e-05 0)
(0.000231332 5.78072e-05 0)
(0.00015953 5.17723e-05 0)
(9.68425e-05 4.24248e-05 0)
(4.69524e-05 2.95116e-05 0)
(1.36197e-05 1.36751e-05 0)
(7.88961e-07 -7.89688e-07 0)
(3.17998e-06 -1.78189e-05 0)
(2.78567e-06 -1.20138e-05 0)
(-1.58824e-05 1.56335e-05 0)
(-5.99242e-05 5.32892e-05 0)
(-0.000132635 9.4208e-05 0)
(-0.000234556 0.000134354 0)
(-0.000364483 0.000171524 0)
(-0.000520148 0.000204632 0)
(-0.000698751 0.000233293 0)
(-0.000897291 0.000257536 0)
(-0.0011128 0.000277634 0)
(-0.00134248 0.000293987 0)
(-0.00158379 0.00030705 0)
(-0.00183446 0.000317292 0)
(-0.00209257 0.000325163 0)
(-0.00235644 0.00033108 0)
(-0.00262471 0.000335419 0)
(-0.00289625 0.000338507 0)
(-0.00317015 0.000340624 0)
(-0.00344571 0.000342003 0)
(-0.00372235 0.000342832 0)
(-0.00399965 0.00034326 0)
(-0.00427727 0.000343401 0)
(-0.00455497 0.000343336 0)
(-0.00483254 0.000343118 0)
(-0.00510982 0.000342777 0)
(-0.00538667 0.000342325 0)
(-0.00566293 0.000341755 0)
(-0.00593847 0.000341049 0)
(-0.00621313 0.000340174 0)
(-0.00648671 0.000339092 0)
(-0.006759 0.000337756 0)
(-0.00702975 0.000336116 0)
(-0.00729867 0.000334116 0)
(-0.00756542 0.000331697 0)
(-0.00782964 0.000328801 0)
(-0.00809089 0.000325366 0)
(-0.00834872 0.000321334 0)
(-0.00860262 0.000316642 0)
(-0.00885203 0.000311234 0)
(-0.00909637 0.000305053 0)
(-0.009335 0.000298044 0)
(-0.00956724 0.000290158 0)
(-0.00979239 0.000281345 0)
(-0.0100097 0.000271564 0)
(-0.0102184 0.000260776 0)
(-0.0104178 0.000248947 0)
(-0.0106069 0.000236051 0)
(-0.010785 0.000222066 0)
(-0.0109512 0.000206978 0)
(-0.0111047 0.000190779 0)
(-0.0112447 0.000173471 0)
(-0.0113703 0.000155063 0)
(-0.0114807 0.000135571 0)
(-0.0115751 0.000115022 0)
(-0.0116527 9.3452e-05 0)
(-0.0117128 7.09053e-05 0)
(-0.0117547 4.74366e-05 0)
(-0.0117778 2.31097e-05 0)
(-0.0117814 -2.00132e-06 0)
(-0.0117651 -2.78089e-05 0)
(-0.0117284 -5.42232e-05 0)
(-0.0116709 -8.11411e-05 0)
(-0.0115923 -0.00010845 0)
(-0.0114923 -0.00013603 0)
(-0.011371 -0.000163752 0)
(-0.0112283 -0.000191479 0)
(-0.0110642 -0.000219069 0)
(-0.0108791 -0.000246372 0)
(-0.0106731 -0.000273235 0)
(-0.0104467 -0.0002995 0)
(-0.0102005 -0.00032501 0)
(-0.00993515 -0.000349603 0)
(-0.00965142 -0.00037312 0)
(-0.00935021 -0.000395405 0)
(-0.00903253 -0.000416304 0)
(-0.0086995 -0.000435671 0)
(-0.00835235 -0.000453365 0)
(-0.0079924 -0.000469257 0)
(-0.00762107 -0.000483227 0)
(-0.00723983 -0.000495169 0)
(-0.00685027 -0.00050499 0)
(-0.00645402 -0.000512613 0)
(-0.00605273 -0.000517978 0)
(-0.00564814 -0.000521042 0)
(-0.00524199 -0.000521779 0)
(-0.00483601 -0.000520185 0)
(-0.00443196 -0.000516271 0)
(-0.00403158 -0.000510071 0)
(-0.00363656 -0.000501632 0)
(-0.00324857 -0.000491024 0)
(-0.00286922 -0.000478329 0)
(-0.00250004 -0.000463648 0)
(-0.00214251 -0.000447094 0)
(-0.001798 -0.000428793 0)
(-0.0014678 -0.000408882 0)
(-0.00115309 -0.000387504 0)
(-0.000854949 -0.000364811 0)
(-0.000574336 -0.000340961 0)
(-0.000312101 -0.000316113 0)
(-6.89743e-05 -0.000290428 0)
(0.000154432 -0.000264064 0)
(0.000357623 -0.000237181 0)
(0.000540225 -0.000209933 0)
(0.000701976 -0.000182474 0)
(0.00084273 -0.000154951 0)
(0.000962452 -0.000127508 0)
(0.00106122 -0.000100285 0)
(0.00113922 -7.34226e-05 0)
(0.00119674 -4.7058e-05 0)
(0.0012342 -2.13319e-05 0)
(0.00125212 3.60954e-06 0)
(0.00125113 2.76099e-05 0)
(0.00123204 5.04981e-05 0)
(0.00119574 7.20814e-05 0)
(0.00114334 9.21362e-05 0)
(0.00107612 0.000110399 0)
(0.000995569 0.000126556 0)
(0.000903453 0.000140223 0)
(0.000801834 0.000150938 0)
(0.000693132 0.000158135 0)
(0.000580178 0.000161135 0)
(0.000466264 0.000159128 0)
(0.000355189 0.000151199 0)
(0.00025126 0.00013639 0)
(0.000159135 0.000113926 0)
(8.34332e-05 8.36382e-05 0)
(2.93197e-05 4.69526e-05 0)
(4.19532e-06 1.00553e-05 0)
(4.41596e-07 -1.7176e-05 0)
(-1.24014e-05 5.89273e-06 0)
(-5.52168e-05 6.00002e-05 0)
(-0.000132047 0.000128973 0)
(-0.000245167 0.000202975 0)
(-0.000394796 0.000275764 0)
(-0.000579367 0.000343654 0)
(-0.000796196 0.000404698 0)
(-0.00104199 0.000458084 0)
(-0.00131321 0.000503724 0)
(-0.0016063 0.000541976 0)
(-0.00191785 0.000573455 0)
(-0.00224475 0.000598906 0)
(-0.00258417 0.000619121 0)
(-0.00293365 0.000634881 0)
(-0.00329108 0.000646924 0)
(-0.00365465 0.00065592 0)
(-0.00402289 0.000662465 0)
(-0.00439456 0.000667069 0)
(-0.00476868 0.000670163 0)
(-0.00514446 0.000672102 0)
(-0.00552127 0.000673168 0)
(-0.00589861 0.000673576 0)
(-0.00627608 0.000673485 0)
(-0.00665336 0.000673001 0)
(-0.00703015 0.000672189 0)
(-0.00740622 0.000671074 0)
(-0.00778131 0.000669652 0)
(-0.00815519 0.000667889 0)
(-0.00852757 0.000665735 0)
(-0.00889818 0.000663119 0)
(-0.00926668 0.000659958 0)
(-0.0096327 0.000656159 0)
(-0.00999581 0.000651621 0)
(-0.0103555 0.000646237 0)
(-0.0107114 0.000639898 0)
(-0.0110627 0.000632492 0)
(-0.0114089 0.000623908 0)
(-0.0117493 0.000614036 0)
(-0.0120832 0.000602768 0)
(-0.0124097 0.000590001 0)
(-0.0127279 0.000575637 0)
(-0.0130371 0.000559582 0)
(-0.0133362 0.000541751 0)
(-0.0136243 0.000522068 0)
(-0.0139003 0.000500465 0)
(-0.0141633 0.000476883 0)
(-0.0144122 0.000451278 0)
(-0.0146459 0.000423614 0)
(-0.0148632 0.000393871 0)
(-0.0150633 0.000362043 0)
(-0.0152449 0.000328136 0)
(-0.0154069 0.000292175 0)
(-0.0155485 0.0002542 0)
(-0.0156685 0.000214265 0)
(-0.015766 0.000172446 0)
(-0.01584 0.000128832 0)
(-0.0158898 8.35333e-05 0)
(-0.0159146 3.66762e-05 0)
(-0.0159135 -1.15948e-05 0)
(-0.015886 -6.11183e-05 0)
(-0.0158315 -0.000111714 0)
(-0.0157497 -0.000163185 0)
(-0.0156401 -0.000215318 0)
(-0.0155026 -0.000267887 0)
(-0.0153371 -0.000320648 0)
(-0.0151436 -0.000373346 0)
(-0.0149223 -0.000425714 0)
(-0.0146735 -0.000477474 0)
(-0.0143976 -0.000528343 0)
(-0.0140953 -0.00057803 0)
(-0.0137673 -0.00062624 0)
(-0.0134145 -0.00067268 0)
(-0.0130379 -0.000717057 0)
(-0.0126387 -0.000759083 0)
(-0.0122183 -0.000798478 0)
(-0.0117781 -0.000834975 0)
(-0.0113196 -0.000868317 0)
(-0.0108447 -0.000898268 0)
(-0.010355 -0.000924611 0)
(-0.00985262 -0.000947151 0)
(-0.00933944 -0.000965721 0)
(-0.00881759 -0.00098018 0)
(-0.00828921 -0.000990418 0)
(-0.00775648 -0.000996357 0)
(-0.00722164 -0.000997951 0)
(-0.00668691 -0.00099519 0)
(-0.00615452 -0.000988095 0)
(-0.00562671 -0.000976725 0)
(-0.00510563 -0.000961168 0)
(-0.00459342 -0.000941548 0)
(-0.00409215 -0.000918015 0)
(-0.00360379 -0.000890751 0)
(-0.00313022 -0.000859961 0)
(-0.00267324 -0.000825874 0)
(-0.0022345 -0.000788738 0)
(-0.00181554 -0.000748817 0)
(-0.00141777 -0.00070639 0)
(-0.00104245 -0.000661741 0)
(-0.000690694 -0.000615165 0)
(-0.000363482 -0.000566958 0)
(-6.16357e-05 -0.000517416 0)
(0.000214171 -0.000466832 0)
(0.000463415 -0.000415497 0)
(0.00068572 -0.000363696 0)
(0.000880858 -0.00031171 0)
(0.00104874 -0.000259812 0)
(0.00118944 -0.000208273 0)
(0.00130316 -0.000157359 0)
(0.00139024 -0.000107342 0)
(0.00145119 -5.84947e-05 0)
(0.00148668 -1.11063e-05 0)
(0.00149751 3.45168e-05 0)
(0.00148469 7.80384e-05 0)
(0.00144942 0.000119081 0)
(0.0013931 0.000157214 0)
(0.00131739 0.000191935 0)
(0.00122424 0.000222652 0)
(0.00111589 0.000248663 0)
(0.00099499 0.000269133 0)
(0.000864573 0.000283074 0)
(0.000728153 0.000289332 0)
(0.000589747 0.00028659 0)
(0.0004539 0.000273415 0)
(0.000325682 0.000248394 0)
(0.000210502 0.000210438 0)
(0.000113755 0.000159325 0)
(4.21429e-05 9.67215e-05 0)
(6.81709e-06 2.8899e-05 0)
(-2.62254e-06 -7.57207e-06 0)
(-2.97455e-05 4.50724e-05 0)
(-0.000100114 0.000135104 0)
(-0.000213444 0.000243273 0)
(-0.00037026 0.000357301 0)
(-0.000570028 0.000469075 0)
(-0.000810579 0.000573579 0)
(-0.00108872 0.000668031 0)
(-0.00140072 0.000751178 0)
(-0.00174258 0.000822787 0)
(-0.0021103 0.000883282 0)
(-0.00250005 0.00093349 0)
(-0.00290826 0.000974454 0)
(-0.00333169 0.00100731 0)
(-0.00376748 0.0010332 0)
(-0.00421312 0.00105322 0)
(-0.0046665 0.00106838 0)
(-0.00512582 0.00107957 0)
(-0.00558957 0.00108758 0)
(-0.00605652 0.00109307 0)
(-0.00652568 0.00109659 0)
(-0.00699622 0.00109857 0)
(-0.00746747 0.00109938 0)
(-0.00793889 0.00109924 0)
(-0.00841001 0.00109835 0)
(-0.00888041 0.0010968 0)
(-0.00934974 0.00109465 0)
(-0.00981763 0.00109189 0)
(-0.0102837 0.00108847 0)
(-0.0107476 0.00108433 0)
(-0.0112089 0.00107936 0)
(-0.0116672 0.00107343 0)
(-0.0121219 0.0010664 0)
(-0.0125725 0.00105811 0)
(-0.0130184 0.0010484 0)
(-0.0134589 0.00103711 0)
(-0.0138933 0.00102406 0)
(-0.0143207 0.00100907 0)
(-0.0147403 0.000991987 0)
(-0.0151511 0.000972637 0)
(-0.0155522 0.000950862 0)
(-0.0159425 0.000926513 0)
(-0.0163209 0.000899449 0)
(-0.0166863 0.000869543 0)
(-0.0170375 0.00083668 0)
(-0.0173732 0.00080076 0)
(-0.0176923 0.0007617 0)
(-0.0179934 0.000719437 0)
(-0.0182753 0.000673926 0)
(-0.0185367 0.000625144 0)
(-0.0187762 0.000573089 0)
(-0.0189927 0.000517784 0)
(-0.0191849 0.000459276 0)
(-0.0193516 0.000397638 0)
(-0.0194915 0.000332968 0)
(-0.0196037 0.000265392 0)
(-0.0196871 0.000195061 0)
(-0.0197406 0.000122158 0)
(-0.0197635 4.68871e-05 0)
(-0.0197548 -3.05151e-05 0)
(-0.0197139 -0.000109789 0)
(-0.0196403 -0.000190646 0)
(-0.0195335 -0.000272773 0)
(-0.0193931 -0.000355834 0)
(-0.019219 -0.000439469 0)
(-0.0190111 -0.000523297 0)
(-0.0187696 -0.000606918 0)
(-0.0184946 -0.000689916 0)
(-0.0181867 -0.000771861 0)
(-0.0178463 -0.000852311 0)
(-0.0174744 -0.000930816 0)
(-0.0170718 -0.00100692 0)
(-0.0166396 -0.00108018 0)
(-0.0161791 -0.00115013 0)
(-0.0156917 -0.00121634 0)
(-0.015179 -0.00127838 0)
(-0.0146427 -0.00133584 0)
(-0.0140849 -0.00138832 0)
(-0.0135074 -0.00143547 0)
(-0.0129124 -0.00147695 0)
(-0.0123023 -0.00151247 0)
(-0.0116794 -0.00154176 0)
(-0.0110461 -0.00156462 0)
(-0.0104051 -0.00158088 0)
(-0.00975877 -0.00159042 0)
(-0.00910988 -0.00159317 0)
(-0.00846104 -0.0015891 0)
(-0.00781486 -0.00157826 0)
(-0.00717397 -0.00156074 0)
(-0.00654094 -0.00153665 0)
(-0.00591828 -0.0015062 0)
(-0.00530843 -0.00146962 0)
(-0.00471375 -0.00142717 0)
(-0.00413647 -0.00137918 0)
(-0.00357871 -0.00132599 0)
(-0.00304246 -0.00126798 0)
(-0.00252955 -0.00120556 0)
(-0.00204167 -0.00113915 0)
(-0.00158035 -0.00106919 0)
(-0.00114694 -0.000996141 0)
(-0.000742636 -0.000920455 0)
(-0.00036844 -0.000842592 0)
(-2.51918e-05 -0.000763011 0)
(0.000286448 -0.000682164 0)
(0.000565995 -0.000600501 0)
(0.000813139 -0.000518461 0)
(0.00102774 -0.000436481 0)
(0.00120984 -0.000354991 0)
(0.00135966 -0.00027442 0)
(0.00147757 -0.000195204 0)
(0.00156415 -0.000117788 0)
(0.00162018 -4.26376e-05 0)
(0.0016466 2.9748e-05 0)
(0.0016446 9.88251e-05 0)
(0.00161559 0.000163988 0)
(0.00156125 0.000224548 0)
(0.00148354 0.000279716 0)
(0.00138475 0.000328571 0)
(0.00126755 0.000370041 0)
(0.00113498 0.000402875 0)
(0.000990581 0.000425622 0)
(0.000838358 0.000436626 0)
(0.00068285 0.000434045 0)
(0.000529141 0.000415924 0)
(0.000382871 0.000380366 0)
(0.00025008 0.000325858 0)
(0.000136923 0.000251817 0)
(5.16107e-05 0.000159447 0)
(8.60001e-06 5.37335e-05 0)
(-5.64864e-06 1.15059e-05 0)
(-4.76199e-05 0.000107216 0)
(-0.000147061 0.000243381 0)
(-0.000298773 0.000398842 0)
(-0.000501085 0.000559603 0)
(-0.000752379 0.000716139 0)
(-0.00104965 0.000862384 0)
(-0.00138907 0.000994867 0)
(-0.0017664 0.00111196 0)
(-0.00217724 0.00121332 0)
(-0.00261721 0.00129946 0)
(-0.00308211 0.00137141 0)
(-0.00356803 0.00143052 0)
(-0.00407142 0.0014783 0)
(-0.00458909 0.00151628 0)
(-0.00511826 0.00154591 0)
(-0.00565653 0.00156856 0)
(-0.00620183 0.00158548 0)
(-0.00675246 0.00159772 0)
(-0.00730696 0.00160622 0)
(-0.00786413 0.00161174 0)
(-0.00842298 0.0016149 0)
(-0.00898269 0.00161619 0)
(-0.00954255 0.00161596 0)
(-0.010102 0.00161447 0)
(-0.0106604 0.00161187 0)
(-0.0112173 0.00160823 0)
(-0.0117723 0.00160357 0)
(-0.0123248 0.00159783 0)
(-0.0128743 0.0015909 0)
(-0.0134204 0.00158265 0)
(-0.0139624 0.00157289 0)
(-0.0144996 0.00156144 0)
(-0.0150315 0.00154807 0)
(-0.0155572 0.00153257 0)
(-0.0160759 0.00151468 0)
(-0.0165867 0.00149419 0)
(-0.0170886 0.00147084 0)
(-0.0175806 0.0014444 0)
(-0.0180616 0.00141465 0)
(-0.0185305 0.00138136 0)
(-0.0189859 0.00134433 0)
(-0.0194266 0.00130336 0)
(-0.0198514 0.00125829 0)
(-0.0202587 0.00120897 0)
(-0.0206473 0.00115525 0)
(-0.0210156 0.00109703 0)
(-0.0213622 0.00103425 0)
(-0.0216857 0.000966831 0)
(-0.0219847 0.000894772 0)
(-0.0222576 0.00081808 0)
(-0.0225031 0.000736802 0)
(-0.0227197 0.000651019 0)
(-0.0229062 0.000560847 0)
(-0.0230612 0.000466441 0)
(-0.0231836 0.000367992 0)
(-0.0232722 0.00026573 0)
(-0.023326 0.000159921 0)
(-0.0233439 5.08707e-05 0)
(-0.0233252 -6.10787e-05 0)
(-0.0232692 -0.000175549 0)
(-0.0231753 -0.000292125 0)
(-0.023043 -0.000410358 0)
(-0.0228721 -0.000529768 0)
(-0.0226623 -0.000649843 0)
(-0.0224137 -0.000770045 0)
(-0.0221266 -0.000889808 0)
(-0.0218012 -0.00100855 0)
(-0.0214382 -0.00112566 0)
(-0.0210382 -0.00124052 0)
(-0.0206022 -0.00135251 0)
(-0.0201312 -0.00146099 0)
(-0.0196266 -0.00156533 0)
(-0.0190898 -0.0016649 0)
(-0.0185225 -0.0017591 0)
(-0.0179266 -0.00184732 0)
(-0.0173039 -0.00192901 0)
(-0.0166567 -0.0020036 0)
(-0.0159873 -0.00207062 0)
(-0.015298 -0.00212959 0)
(-0.0145916 -0.0021801 0)
(-0.0138707 -0.00222181 0)
(-0.0131381 -0.00225441 0)
(-0.0123965 -0.00227767 0)
(-0.011649 -0.00229143 0)
(-0.0108985 -0.00229559 0)
(-0.0101479 -0.00229012 0)
(-0.00940031 -0.00227507 0)
(-0.00865856 -0.00225056 0)
(-0.0079256 -0.00221677 0)
(-0.00720427 -0.00217396 0)
(-0.00649732 -0.00212246 0)
(-0.00580742 -0.00206263 0)
(-0.00513711 -0.00199492 0)
(-0.00448878 -0.00191981 0)
(-0.00386471 -0.00183782 0)
(-0.003267 -0.00174952 0)
(-0.00269756 -0.00165551 0)
(-0.00215815 -0.00155639 0)
(-0.00165034 -0.00145281 0)
(-0.0011755 -0.00134539 0)
(-0.000734793 -0.0012348 0)
(-0.000329214 -0.00112166 0)
(4.04604e-05 -0.00100663 0)
(0.000373645 -0.000890337 0)
(0.000669954 -0.000773412 0)
(0.0009292 -0.000656478 0)
(0.0011514 -0.000540152 0)
(0.00133675 -0.000425055 0)
(0.00148569 -0.000311817 0)
(0.00159883 -0.000201085 0)
(0.00167703 -9.35367e-05 0)
(0.00172136 1.01047e-05 0)
(0.00173315 0.000109052 0)
(0.00171398 0.000202432 0)
(0.00166575 0.000289263 0)
(0.00159067 0.000368429 0)
(0.00149131 0.000438645 0)
(0.00137063 0.000498434 0)
(0.00123204 0.000546098 0)
(0.0010794 0.000579701 0)
(0.000917125 0.000597066 0)
(0.000750133 0.00059581 0)
(0.000583933 0.000573427 0)
(0.000424643 0.000527461 0)
(0.000278875 0.000455821 0)
(0.000153528 0.000357233 0)
(5.81399e-05 0.00023189 0)
(9.7226e-06 8.27608e-05 0)
(-8.55257e-06 3.9989e-05 0)
(-6.52923e-05 0.000192795 0)
(-0.000194094 0.000385766 0)
(-0.000384772 0.000596822 0)
(-0.000633227 0.000810938 0)
(-0.000936524 0.00101768 0)
(-0.00129063 0.00121027 0)
(-0.00169095 0.00138478 0)
(-0.00213267 0.00153935 0)
(-0.00261094 0.00167359 0)
(-0.00312104 0.00178814 0)
(-0.00365844 0.00188429 0)
(-0.00421894 0.00196373 0)
(-0.00479873 0.00202832 0)
(-0.00539438 0.00207999 0)
(-0.00600287 0.0021206 0)
(-0.00662159 0.00215189 0)
(-0.00724827 0.00217544 0)
(-0.007881 0.00219264 0)
(-0.00851814 0.00220467 0)
(-0.00915835 0.00221254 0)
(-0.00980046 0.00221706 0)
(-0.0104435 0.00221887 0)
(-0.0110866 0.00221844 0)
(-0.0117291 0.0022161 0)
(-0.0123702 0.00221208 0)
(-0.0130094 0.00220647 0)
(-0.013646 0.00219929 0)
(-0.0142795 0.00219047 0)
(-0.0149092 0.00217988 0)
(-0.0155344 0.00216733 0)
(-0.0161544 0.00215261 0)
(-0.0167684 0.00213546 0)
(-0.0173757 0.00211559 0)
(-0.0179753 0.00209272 0)
(-0.0185662 0.00206653 0)
(-0.0191474 0.00203671 0)
(-0.0197177 0.00200296 0)
(-0.020276 0.00196496 0)
(-0.020821 0.00192243 0)
(-0.0213513 0.00187507 0)
(-0.0218656 0.00182264 0)
(-0.0223623 0.00176487 0)
(-0.0228401 0.00170156 0)
(-0.0232974 0.00163252 0)
(-0.0237326 0.00155759 0)
(-0.0241441 0.00147663 0)
(-0.0245303 0.00138957 0)
(-0.0248897 0.00129635 0)
(-0.0252206 0.00119696 0)
(-0.0255214 0.00109145 0)
(-0.0257907 0.00097988 0)
(-0.0260269 0.000862389 0)
(-0.0262287 0.000739148 0)
(-0.0263946 0.000610379 0)
(-0.0265233 0.000476354 0)
(-0.0266137 0.000337393 0)
(-0.0266648 0.000193865 0)
(-0.0266754 4.61898e-05 0)
(-0.0266448 -0.000105169 0)
(-0.0265723 -0.000259698 0)
(-0.0264573 -0.00041684 0)
(-0.0262994 -0.000575994 0)
(-0.0260983 -0.000736521 0)
(-0.0258539 -0.000897741 0)
(-0.0255664 -0.00105894 0)
(-0.0252361 -0.00121937 0)
(-0.0248633 -0.00137827 0)
(-0.0244488 -0.00153484 0)
(-0.0239935 -0.00168826 0)
(-0.0234983 -0.00183773 0)
(-0.0229646 -0.00198241 0)
(-0.0223937 -0.00212148 0)
(-0.0217874 -0.00225412 0)
(-0.0211474 -0.00237953 0)
(-0.0204759 -0.00249695 0)
(-0.019775 -0.00260563 0)
(-0.0190471 -0.00270487 0)
(-0.0182948 -0.00279401 0)
(-0.0175207 -0.00287247 0)
(-0.0167276 -0.0029397 0)
(-0.0159186 -0.00299525 0)
(-0.0150966 -0.00303873 0)
(-0.0142649 -0.00306983 0)
(-0.0134265 -0.00308835 0)
(-0.0125847 -0.00309414 0)
(-0.0117428 -0.00308718 0)
(-0.0109041 -0.00306753 0)
(-0.0100718 -0.00303534 0)
(-0.00924897 -0.00299085 0)
(-0.00843887 -0.00293439 0)
(-0.00764451 -0.00286637 0)
(-0.0068688 -0.00278729 0)
(-0.00611455 -0.00269772 0)
(-0.00538441 -0.00259829 0)
(-0.00468089 -0.00248968 0)
(-0.00400631 -0.00237262 0)
(-0.00336281 -0.0022479 0)
(-0.00275234 -0.00211633 0)
(-0.00217663 -0.00197872 0)
(-0.00163723 -0.00183593 0)
(-0.00113545 -0.00168881 0)
(-0.000672399 -0.0015382 0)
(-0.000248969 -0.00138496 0)
(0.000134174 -0.00122994 0)
(0.000476578 -0.00107397 0)
(0.000778011 -0.000917881 0)
(0.00103846 -0.000762508 0)
(0.00125815 -0.000608685 0)
(0.0014375 -0.00045726 0)
(0.0015772 -0.00030911 0)
(0.00167816 -0.000165151 0)
(0.00174156 -2.63584e-05 0)
(0.00176884 0.000106207 0)
(0.00176173 0.000231377 0)
(0.00172231 0.000347849 0)
(0.00165298 0.000454148 0)
(0.00155653 0.000548602 0)
(0.00143617 0.000629304 0)
(0.00129555 0.000694089 0)
(0.00113885 0.000740518 0)
(0.000970738 0.000765876 0)
(0.000796476 0.000767213 0)
(0.00062192 0.000741422 0)
(0.000453613 0.000685404 0)
(0.000298695 0.000596322 0)
(0.000164742 0.000471954 0)
(6.23638e-05 0.00031113 0)
(1.03749e-05 0.000114517 0)
(-1.1283e-05 7.75365e-05 0)
(-8.23827e-05 0.000301552 0)
(-0.00024015 0.000562227 0)
(-0.000469528 0.000837321 0)
(-0.000763933 0.0011114 0)
(-0.00111898 0.00137361 0)
(-0.00152947 0.00161684 0)
(-0.00198993 0.00183694 0)
(-0.0024949 0.002032 0)
(-0.00303904 0.00220174 0)
(-0.00361725 0.00234699 0)
(-0.0042247 0.00246935 0)
(-0.00485694 0.00257085 0)
(-0.00550992 0.00265377 0)
(-0.00618002 0.00272045 0)
(-0.00686403 0.00277314 0)
(-0.00755915 0.00281398 0)
(-0.00826297 0.0028449 0)
(-0.00897341 0.00286762 0)
(-0.00968868 0.00288359 0)
(-0.0104073 0.00289407 0)
(-0.0111279 0.00290006 0)
(-0.0118495 0.00290235 0)
(-0.012571 0.00290155 0)
(-0.0132916 0.00289808 0)
(-0.0140105 0.00289221 0)
(-0.0147269 0.00288407 0)
(-0.0154401 0.00287369 0)
(-0.0161494 0.00286098 0)
(-0.016854 0.00284578 0)
(-0.0175531 0.00282788 0)
(-0.0182459 0.00280699 0)
(-0.0189314 0.00278279 0)
(-0.0196086 0.00275494 0)
(-0.0202766 0.00272306 0)
(-0.0209342 0.00268679 0)
(-0.0215802 0.00264572 0)
(-0.0222134 0.00259947 0)
(-0.0228323 0.00254767 0)
(-0.0234355 0.00248995 0)
(-0.0240217 0.00242597 0)
(-0.0245891 0.00235541 0)
(-0.0251363 0.00227797 0)
(-0.0256616 0.00219339 0)
(-0.0261632 0.00210144 0)
(-0.0266396 0.00200196 0)
(-0.0270889 0.00189479 0)
(-0.0275095 0.00177984 0)
(-0.0278996 0.00165709 0)
(-0.0282576 0.00152653 0)
(-0.0285817 0.00138823 0)
(-0.0288704 0.00124233 0)
(-0.0291221 0.001089 0)
(-0.0293353 0.000928488 0)
(-0.0295085 0.000761098 0)
(-0.0296405 0.000587193 0)
(-0.0297301 0.0004072 0)
(-0.0297761 0.000221604 0)
(-0.0297776 3.09482e-05 0)
(-0.0297338 -0.000164164 0)
(-0.0296439 -0.000363073 0)
(-0.0295075 -0.000565067 0)
(-0.0293241 -0.000769381 0)
(-0.0290937 -0.000975201 0)
(-0.0288161 -0.00118167 0)
(-0.0284915 -0.00138788 0)
(-0.0281203 -0.00159291 0)
(-0.0277032 -0.00179579 0)
(-0.0272408 -0.00199551 0)
(-0.0267341 -0.00219107 0)
(-0.0261843 -0.00238144 0)
(-0.0255928 -0.0025656 0)
(-0.0249612 -0.00274252 0)
(-0.0242913 -0.00291117 0)
(-0.0235851 -0.00307058 0)
(-0.0228448 -0.00321977 0)
(-0.0220728 -0.00335783 0)
(-0.0212716 -0.00348388 0)
(-0.0204441 -0.0035971 0)
(-0.019593 -0.00369677 0)
(-0.0187215 -0.00378221 0)
(-0.0178326 -0.00385284 0)
(-0.0169298 -0.00390819 0)
(-0.0160163 -0.00394788 0)
(-0.0150956 -0.00397162 0)
(-0.0141711 -0.00397927 0)
(-0.0132465 -0.00397077 0)
(-0.0123252 -0.0039462 0)
(-0.0114106 -0.00390574 0)
(-0.0105063 -0.00384969 0)
(-0.0096156 -0.00377846 0)
(-0.0087418 -0.00369256 0)
(-0.00788806 -0.00359262 0)
(-0.00705741 -0.00347933 0)
(-0.00625276 -0.00335348 0)
(-0.0054768 -0.00321594 0)
(-0.00473206 -0.00306762 0)
(-0.00402087 -0.0029095 0)
(-0.00334536 -0.00274258 0)
(-0.00270742 -0.00256792 0)
(-0.00210873 -0.00238658 0)
(-0.00155074 -0.00219962 0)
(-0.00103467 -0.00200814 0)
(-0.000561483 -0.0018132 0)
(-0.000131931 -0.00161588 0)
(0.000253483 -0.00141724 0)
(0.000594493 -0.00121835 0)
(0.000891074 -0.00102027 0)
(0.00114344 -0.000824078 0)
(0.00135206 -0.000630855 0)
(0.00151765 -0.000441728 0)
(0.00164118 -0.000257876 0)
(0.00172392 -8.055e-05 0)
(0.00176741 8.88947e-05 0)
(0.00177353 0.000248973 0)
(0.00174446 0.000398036 0)
(0.00168278 0.000534234 0)
(0.00159146 0.000655485 0)
(0.00147391 0.000759436 0)
(0.00133399 0.000843441 0)
(0.0011761 0.000904537 0)
(0.00100516 0.000939453 0)
(0.000826694 0.000944636 0)
(0.000646879 0.00091633 0)
(0.000472635 0.000850701 0)
(0.000311576 0.000744032 0)
(0.000171862 0.000592976 0)
(6.4911e-05 0.000394826 0)
(1.07147e-05 0.000147928 0)
(-1.38414e-05 0.000123773 0)
(-9.87472e-05 0.000432863 0)
(-0.000284689 0.000772146 0)
(-0.000551964 0.00111978 0)
(-0.000891541 0.00146044 0)
(-0.00129753 0.00178329 0)
(-0.00176349 0.00208124 0)
(-0.00228297 0.00235023 0)
(-0.00284982 0.00258849 0)
(-0.00345816 0.00279597 0)
(-0.00410247 0.00297382 0)
(-0.00477763 0.00312401 0)
(-0.00547893 0.00324897 0)
(-0.00620213 0.00335143 0)
(-0.00694342 0.00343413 0)
(-0.00769945 0.00349976 0)
(-0.00846727 0.00355086 0)
(-0.00924432 0.00358971 0)
(-0.0100284 0.00361836 0)
(-0.0108176 0.00363856 0)
(-0.0116103 0.0036518 0)
(-0.0124051 0.00365928 0)