# Probe 0 (0.5 0.0547 0.05)
# Probe 1 (0.5 0.0625 0.05)
# Probe 2 (0.5 0.0703 0.05)
# Probe 3 (0.5 0.1016 0.05)
# Probe 4 (0.5 0.1719 0.05)
# Probe 5 (0.5 0.2813 0.05)
# Probe 6 (0.5 0.4531 0.05)
# Probe 7 (0.5 0.5 0.05)
# Probe 8 (0.5 0.6172 0.05)
# Probe 9 (0.5 0.7344 0.05)
# Probe 10 (0.5 0.8516 0.05)
# Probe 11 (0.5 0.9531 0.05)
# Probe 12 (0.5 0.9609 0.05)
# Probe 13 (0.5 0.9688 0.05)
# Probe 14 (0.5 0.9766 0.05)
#       Probe             0             1             2             3             4             5             6             7             8             9            10            11            12            13            14
#        Time
        0.005     0.0246512     0.0246518     0.0246525     0.0246563     0.0246619     0.0246713     0.0246804     0.0246788     0.0246684      0.024654     0.0246455     0.0246394     0.0246395     0.0246396     0.0246398
         0.01     0.0209128     0.0209127     0.0209126      0.020912      0.020912     0.0209096     0.0209054     0.0209033     0.0208962      0.020884      0.020867     0.0208529     0.0208521     0.0208513     0.0208505
        0.015     0.0186525     0.0186524     0.0186524     0.0186525     0.0186518     0.0186512     0.0186451     0.0186416     0.0186258     0.0185971     0.0185563      0.018522     0.0185199     0.0185179     0.0185161
         0.02     0.0166556     0.0166553     0.0166551     0.0166554     0.0166547     0.0166514     0.0166378     0.0166305     0.0166013      0.016551     0.0164815     0.0164239     0.0164204     0.0164171      0.016414
        0.025     0.0150372      0.015037     0.0150369     0.0150371     0.0150354     0.0150306     0.0150102     0.0149996     0.0149578      0.014886     0.0147873     0.0147059      0.014701     0.0146963     0.0146919
         0.03     0.0136894     0.0136893     0.0136892     0.0136891     0.0136868     0.0136803     0.0136531     0.0136393     0.0135848     0.0134921     0.0133648       0.01326     0.0132536     0.0132476      0.013242
        0.035     0.0125645     0.0125645     0.0125646     0.0125641      0.012561     0.0125529     0.0125196     0.0125026     0.0124362     0.0123235      0.012169     0.0120416     0.0120338     0.0120265     0.0120197
         0.04      0.011618      0.011618      0.011618     0.0116174     0.0116138     0.0116042     0.0115648     0.0115449     0.0114669     0.0113348     0.0111536     0.0110043     0.0109953     0.0109867     0.0109788
        0.045     0.0108153     0.0108153     0.0108152     0.0108142     0.0108102     0.0107991     0.0107541     0.0107315     0.0106426     0.0104921     0.0102857     0.0101155     0.0101052     0.0100955     0.0100865
         0.05      0.010131     0.0101309     0.0101308     0.0101297     0.0101252     0.0101127     0.0100623     0.0100369     0.0099373    0.00976866    0.00953728    0.00934637    0.00933479     0.0093239    0.00931391
        0.055    0.00954113    0.00954105    0.00954093    0.00953967    0.00953492    0.00952106     0.0094654    0.00943747    0.00932772    0.00914187    0.00888657    0.00867568    0.00866287    0.00865085    0.00863988
         0.06    0.00903006    0.00902995    0.00902979    0.00902842    0.00902332    0.00900819    0.00894748    0.00891702    0.00879736    0.00859461    0.00831579    0.00808519    0.00807118    0.00805804    0.00804613
        0.065    0.00858339    0.00858315    0.00858283    0.00858112     0.0085759     0.0085595    0.00849379    0.00846102    0.00833168    0.00811223    0.00781016    0.00756008    0.00754487    0.00753064    0.00751783
         0.07    0.00819106     0.0081908    0.00819047    0.00818868    0.00818313    0.00816551    0.00809496    0.00805978     0.0079209    0.00768508    0.00736009    0.00709063    0.00707424    0.00705894    0.00704527
        0.075    0.00784348     0.0078432    0.00784285    0.00784099     0.0078351    0.00781628    0.00774095    0.00770339    0.00755507    0.00730303    0.00695524    0.00666645    0.00664888    0.00663252    0.00661802
         0.08      0.007533    0.00753268    0.00753228     0.0075304    0.00752435    0.00750434    0.00742433    0.00738434    0.00722679    0.00695871    0.00658821    0.00628014    0.00626138    0.00624397    0.00622865
        0.085     0.0072551    0.00725476    0.00725436    0.00725244    0.00724604    0.00722485     0.0071402    0.00709788    0.00693108    0.00664701    0.00625393    0.00592658    0.00590665    0.00588821    0.00587214
         0.09    0.00700325     0.0070029    0.00700254    0.00700082    0.00699408    0.00697176    0.00688274    0.00683803    0.00666222    0.00636257    0.00594734    0.00560086    0.00557978    0.00556033    0.00554352
        0.095    0.00677537    0.00677502    0.00677468    0.00677307    0.00676587    0.00674244     0.0066488     0.0066017    0.00641647    0.00610066    0.00566259    0.00529651    0.00527427    0.00525382    0.00523629
          0.1    0.00656751    0.00656715    0.00656679    0.00656508    0.00655752    0.00653297    0.00643484    0.00638548    0.00619122    0.00585969    0.00539923     0.0050138     0.0049904    0.00496896    0.00495076
        0.105    0.00637662    0.00637628     0.0063759    0.00637402    0.00636598    0.00634047    0.00623782    0.00618634    0.00598307    0.00563585    0.00515307    0.00474832    0.00472375    0.00470134    0.00468246
         0.11    0.00620142    0.00620109    0.00620072    0.00619872    0.00619019    0.00616358    0.00605631    0.00600249    0.00578996    0.00542662    0.00492085    0.00449625    0.00447051    0.00444714    0.00442764
        0.115    0.00603878    0.00603843    0.00603804    0.00603594    0.00602708    0.00599939    0.00588769    0.00583163    0.00561012     0.0052311    0.00470285    0.00425865    0.00423176    0.00420743    0.00418732
         0.12    0.00588775     0.0058874      0.005887     0.0058848    0.00587555     0.0058468    0.00573069    0.00567238    0.00544195    0.00504728    0.00449653    0.00403264     0.0040046    0.00397935    0.00395867
        0.125    0.00574664     0.0057463     0.0057459    0.00574353    0.00573381    0.00570415    0.00558354    0.00552314    0.00528381    0.00487352    0.00430025    0.00381665    0.00378746    0.00376128    0.00374004
         0.13    0.00561497    0.00561463    0.00561421    0.00561179    0.00560172    0.00557097    0.00544596    0.00538332    0.00513505    0.00470906    0.00411314    0.00360961    0.00357927    0.00355219    0.00353042
        0.135    0.00549123    0.00549087    0.00549044    0.00548795    0.00547753    0.00544573    0.00531637    0.00525152    0.00499438     0.0045528    0.00393431    0.00341084    0.00337936     0.0033514    0.00332911
         0.14     0.0053744    0.00537403    0.00537358    0.00537097    0.00536034    0.00532743    0.00519373    0.00512666    0.00486069    0.00440357    0.00376245    0.00321892    0.00318631    0.00315747     0.0031347
        0.145    0.00526458    0.00526419    0.00526372    0.00526105    0.00525011    0.00521613    0.00507814    0.00500888    0.00473411    0.00426146    0.00359772    0.00303409    0.00300035    0.00297066    0.00294742
         0.15    0.00516018    0.00515974    0.00515924    0.00515645    0.00514546    0.00511023     0.0049681    0.00489649    0.00461296    0.00412479    0.00343839     0.0028545    0.00281964    0.00278911    0.00276542
        0.155    0.00506163    0.00506118    0.00506065    0.00505778    0.00504652    0.00501022    0.00486385    0.00479008    0.00449782    0.00399419    0.00328517    0.00268101    0.00264504    0.00261368    0.00258957
         0.16     0.0049677    0.00496719    0.00496661     0.0049636    0.00495227    0.00491476    0.00476429    0.00468826    0.00438715    0.00386794    0.00313612     0.0025115    0.00247443    0.00244227    0.00241775
        0.165    0.00487855    0.00487802    0.00487742    0.00487432    0.00486269    0.00482416    0.00466946    0.00459126    0.00428144    0.00374676    0.00299221     0.0023471    0.00230891    0.00227595    0.00225104
         0.17    0.00479351    0.00479296    0.00479234    0.00478914    0.00477721    0.00473766    0.00457872    0.00449836    0.00417981    0.00362961    0.00285222    0.00218647    0.00214719    0.00211345    0.00208816
        0.175    0.00471186    0.00471126     0.0047106    0.00470725    0.00469508    0.00465454    0.00449147    0.00440905    0.00408186    0.00351634    0.00271631    0.00203003    0.00198966    0.00195516    0.00192952
         0.18    0.00463429    0.00463371    0.00463305    0.00462968    0.00461715    0.00457561    0.00440834    0.00432375    0.00398799    0.00340714    0.00258435    0.00187728    0.00183583    0.00180058     0.0017746
        0.185    0.00455936    0.00455874    0.00455805    0.00455453    0.00454172    0.00449924    0.00432782    0.00424116    0.00389679    0.00330058    0.00245504    0.00172721    0.00168468    0.00164869    0.00162239
         0.19    0.00448821    0.00448758    0.00448687    0.00448323    0.00447002    0.00442659    0.00425084    0.00416199    0.00380879     0.0031968    0.00232789    0.00157879    0.00153518    0.00149845    0.00147183
        0.195     0.0044193    0.00441866    0.00441793    0.00441423    0.00440075     0.0043563    0.00417643    0.00408546    0.00372368    0.00309634    0.00220452    0.00143436    0.00138969    0.00135226    0.00132534
          0.2    0.00435309    0.00435244     0.0043517    0.00434791    0.00433411     0.0042887    0.00410469    0.00401162     0.0036413    0.00299861    0.00208385    0.00129254    0.00124683     0.0012087     0.0011815
        0.205    0.00428925    0.00428858    0.00428783    0.00428397    0.00426985    0.00422348    0.00403537    0.00394021    0.00356139    0.00290342    0.00196576    0.00115324    0.00110648    0.00106766     0.0010402
         0.21    0.00422779    0.00422712    0.00422636    0.00422241    0.00420796    0.00416063    0.00396839    0.00387112    0.00348374     0.0028104    0.00184964    0.00101571   0.000967915   0.000928422     0.0009007
        0.215    0.00416467    0.00416405    0.00416334    0.00415956    0.00414458    0.00409544    0.00389914    0.00379975    0.00340353    0.00271465    0.00173062   0.000875154   0.000826317   0.000786155   0.000758183
         0.22    0.00410871    0.00410808    0.00410735    0.00410349    0.00408821    0.00403812    0.00383777     0.0037363    0.00333157    0.00262738    0.00162025   0.000743203   0.000693339   0.000652526    0.00062432
        0.225     0.0040531    0.00405245    0.00405171    0.00404777    0.00403218    0.00398114    0.00377672    0.00367318    0.00325998    0.00254049    0.00151025   0.000611568   0.000560692   0.000519244   0.000490818
         0.23    0.00399947     0.0039988    0.00399803    0.00399394    0.00397803    0.00392625    0.00371765    0.00361195    0.00319035    0.00245556     0.0014022   0.000481787   0.000429911   0.000387842    0.00035921
        0.235    0.00394756    0.00394687    0.00394609    0.00394192     0.0039257    0.00387297    0.00366033    0.00355259    0.00312255     0.0023725    0.00129596   0.000353724   0.000300849   0.000258168    0.00022934
         0.24    0.00389717    0.00389647    0.00389567    0.00389143    0.00387491    0.00382123    0.00360457    0.00349477    0.00305633    0.00229102    0.00119127   0.000227118   0.000173252    0.00012997   0.000100955
        0.245    0.00384832     0.0038476    0.00384677    0.00384239    0.00382548    0.00377113    0.00355025    0.00343836    0.00299163    0.00221103    0.00108798   0.000101719   4.68762e-05   3.00807e-06  -2.61784e-05
         0.25    0.00380111    0.00380036    0.00379951    0.00379497     0.0037775    0.00372253    0.00349712    0.00338346    0.00292843    0.00213246   0.000985904   -2.2437e-05  -7.82663e-05   -0.00012272  -0.000152073
        0.255    0.00375468    0.00375393    0.00375306    0.00374845    0.00373068    0.00367475    0.00344558    0.00332997    0.00286678    0.00205595   0.000886604  -0.000143628  -0.000200407  -0.000245415  -0.000274912
         0.26    0.00370989    0.00370912    0.00370825     0.0037036    0.00368566     0.0036287    0.00339574    0.00327783    0.00280626    0.00198026   0.000787545  -0.000265117  -0.000322852  -0.000368415  -0.000398053
        0.265    0.00366612    0.00366534    0.00366445    0.00365973    0.00364149    0.00358358    0.00334673     0.0032268    0.00274696    0.00190586   0.000689906  -0.000385054  -0.000443737  -0.000489842  -0.000519611
         0.27    0.00362367    0.00362289    0.00362199    0.00361718    0.00359864    0.00353981    0.00329901    0.00317703    0.00268887    0.00183263   0.000593297  -0.000504112  -0.000563736  -0.000610377  -0.000640268
        0.275    0.00358242    0.00358163    0.00358071    0.00357584    0.00355699    0.00349722    0.00325243    0.00312838    0.00263184    0.00176033   0.000497441  -0.000622584  -0.000683145  -0.000730312  -0.000760317
         0.28    0.00354201     0.0035412    0.00354027    0.00353532    0.00351618    0.00345546    0.00320681    0.00308075    0.00257594    0.00168933   0.000403089  -0.000739502  -0.000800986  -0.000848664  -0.000878769
        0.285    0.00350265    0.00350183    0.00350089    0.00349587    0.00347643    0.00341478    0.00316226    0.00303419    0.00252115     0.0016195   0.000309913  -0.000855297  -0.000917695  -0.000965874  -0.000996069
         0.29    0.00346429    0.00346346     0.0034625    0.00345737    0.00343742     0.0033748    0.00311831     0.0029885    0.00246736    0.00155094   0.000218233  -0.000969387   -0.00103269   -0.00108136   -0.00111163
        0.295    0.00342725     0.0034264    0.00342543    0.00342023    0.00339999    0.00333641    0.00307595    0.00294401    0.00241435    0.00148263   0.000126195   -0.00108442   -0.00114863   -0.00119779   -0.00122814
          0.3    0.00339041    0.00338956    0.00338858    0.00338332    0.00336288    0.00329847    0.00303423    0.00290023    0.00236247    0.00141567   3.57509e-05   -0.00119778   -0.00126287   -0.00131249   -0.00134289
        0.305    0.00335465    0.00335379    0.00335279    0.00334746    0.00332674    0.00326142    0.00299336    0.00285736    0.00231144    0.00134968   -5.3625e-05   -0.00131004   -0.00137602   -0.00142609   -0.00145655
         0.31     0.0033197    0.00331882    0.00331782    0.00331241    0.00329141    0.00322516     0.0029533     0.0028153    0.00226122     0.0012845  -0.000142222   -0.00142161   -0.00148845   -0.00153897   -0.00156947
        0.315    0.00328568     0.0032848    0.00328378     0.0032783    0.00325691    0.00318964    0.00291398    0.00277407    0.00221182    0.00122026  -0.000229781   -0.00153204   -0.00159974    -0.0016507   -0.00168122
         0.32    0.00325228    0.00325139    0.00325035    0.00324481    0.00322314    0.00315496    0.00287551    0.00273361    0.00216324    0.00115679  -0.000316654   -0.00164197   -0.00171052    -0.0017619   -0.00179244
        0.325    0.00321959    0.00321868    0.00321763    0.00321202    0.00319007    0.00312098    0.00283777    0.00269389    0.00211543    0.00109411  -0.000402731   -0.00175114   -0.00182053   -0.00187232   -0.00190287
         0.33     0.0031876    0.00318668    0.00318563    0.00317994    0.00315771    0.00308772    0.00280074    0.00265489    0.00206834    0.00103216  -0.000488095   -0.00185965   -0.00192987   -0.00198207   -0.00201261
        0.335    0.00315623     0.0031553    0.00315423    0.00314848    0.00312596    0.00305507    0.00276436    0.00261656    0.00202199   0.000971039   -0.00057255   -0.00196724   -0.00203828   -0.00209086   -0.00212139
         0.34    0.00312548    0.00312454    0.00312346    0.00311764    0.00309485    0.00302306    0.00272865    0.00257891    0.00197636   0.000910706   -0.00065617   -0.00207401   -0.00214586   -0.00219881   -0.00222932
        0.345    0.00309568    0.00309474    0.00309365    0.00308777    0.00306465    0.00299176    0.00269366    0.00254191    0.00193118   0.000850691  -0.000739617   -0.00218082   -0.00225346   -0.00230679   -0.00233727
         0.35    0.00306616     0.0030652     0.0030641    0.00305815    0.00303476    0.00296096    0.00265915    0.00250547     0.0018868   0.000791603  -0.000822041   -0.00228649   -0.00235992    -0.0024136   -0.00244403
        0.355    0.00303719    0.00303623    0.00303511     0.0030291    0.00300544    0.00293075    0.00262528    0.00246968    0.00184312   0.000733324  -0.000903546   -0.00239122   -0.00246542   -0.00251944   -0.00254981
         0.36     0.0030092    0.00300823    0.00300711    0.00300105     0.0029771    0.00290126     0.0025922    0.00243454     0.0017998   0.000675112  -0.000985276   -0.00249647   -0.00257145    -0.0026258    -0.0026561
        0.365     0.0029813    0.00298031    0.00297917    0.00297303    0.00294882    0.00287235    0.00255938    0.00239987    0.00175723   0.000617834   -0.00106598   -0.00260049   -0.00267622    -0.0027309   -0.00276112
         0.37    0.00295397    0.00295298    0.00295183    0.00294564    0.00292116    0.00284355    0.00252717    0.00236569    0.00171526   0.000561449   -0.00114542    -0.0027032   -0.00277967   -0.00283465   -0.00286478
        0.375    0.00292724    0.00292625    0.00292509    0.00291885    0.00289411    0.00281536    0.00249557    0.00233208    0.00167389   0.000505719   -0.00122414   -0.00280513   -0.00288232   -0.00293759   -0.00296761
         0.38    0.00290145    0.00290045     0.0028993    0.00289304    0.00286812    0.00278818    0.00246501    0.00229943      0.001633   0.000449765   -0.00130372   -0.00290813   -0.00298606   -0.00304162   -0.00307154
        0.385    0.00287527    0.00287425    0.00287307    0.00286668     0.0028414     0.0027612    0.00243381    0.00226662    0.00159254   0.000395029   -0.00138158   -0.00300945   -0.00308808    -0.0031439   -0.00317369
         0.39     0.0028499    0.00284886    0.00284767     0.0028412    0.00281567    0.00273486    0.00240367     0.0022346    0.00155266   0.000340597   -0.00145932   -0.00311056   -0.00318989   -0.00324597   -0.00327563
        0.395    0.00282495    0.00282391     0.0028227    0.00281616    0.00279036     0.0027087     0.0023739    0.00220296    0.00151324   0.000286764   -0.00153627   -0.00321083   -0.00329084   -0.00334717   -0.00337668
          0.4    0.00280055    0.00279951    0.00279829    0.00279172    0.00276564    0.00268284    0.00234458    0.00217172    0.00147425   0.000233404   -0.00161263   -0.00331049   -0.00339116   -0.00344772   -0.00347707
        0.405    0.00277665    0.00277559    0.00277437    0.00276772    0.00274139    0.00265772    0.00231583    0.00214109    0.00143581   0.000180543   -0.00168861    -0.0034098   -0.00349114   -0.00354792    -0.0035771
         0.41    0.00275303    0.00275196    0.00275072    0.00274402    0.00271743    0.00263292    0.00228745    0.00211083    0.00139783   0.000128234   -0.00176392   -0.00350838   -0.00359037   -0.00364735   -0.00367635
        0.415    0.00273012    0.00272905    0.00272781    0.00272109    0.00269431    0.00260844    0.00225968      0.002081    0.00136015   7.61151e-05   -0.00183914   -0.00360687   -0.00368949   -0.00374666   -0.00377547
         0.42    0.00270709    0.00270601    0.00270475    0.00269795    0.00267087    0.00258438    0.00223193    0.00205152    0.00132313   2.50173e-05   -0.00191297   -0.00370384   -0.00378706   -0.00384441     -0.003873
        0.425    0.00268474    0.00268366     0.0026824    0.00267557    0.00264835    0.00256069    0.00220501    0.00202262    0.00128653  -2.56476e-05   -0.00198628    -0.0038002   -0.00388403   -0.00394155   -0.00396992
         0.43    0.00266248    0.00266139    0.00266012    0.00265322    0.00262569    0.00253731    0.00217798    0.00199383    0.00125027  -7.59043e-05   -0.00205919   -0.00389616   -0.00398057   -0.00403823   -0.00406637
        0.435    0.00264102    0.00263992    0.00263864    0.00263167    0.00260387    0.00251467    0.00215174    0.00196572    0.00121434  -0.000126285   -0.00213267   -0.00399293   -0.00407792   -0.00413572   -0.00416363
         0.44    0.00261944    0.00261833    0.00261704    0.00261001    0.00258197    0.00249192    0.00212547    0.00193764     0.0011788  -0.000175639   -0.00220448   -0.00408762   -0.00417317   -0.00423109   -0.00425875
        0.445    0.00259872     0.0025976     0.0025963    0.00258923    0.00256102    0.00247005    0.00210025    0.00191051    0.00114384   -0.00022501   -0.00227688   -0.00418325   -0.00426936   -0.00432741    -0.0043548
         0.45    0.00257797    0.00257684    0.00257553    0.00256838    0.00253981    0.00244807    0.00207445    0.00188291    0.00110872  -0.000274063   -0.00234841   -0.00427763   -0.00436426   -0.00442239   -0.00444951
        0.455    0.00255756    0.00255642     0.0025551    0.00254789    0.00251909    0.00242655    0.00204952    0.00185619    0.00107453  -0.000322098   -0.00241886   -0.00437088   -0.00445802   -0.00451624   -0.00454306
         0.46    0.00253755    0.00253641    0.00253507     0.0025278    0.00249875     0.0024054    0.00202487    0.00182972    0.00104051  -0.000370076   -0.00248932   -0.00446414   -0.00455179   -0.00461007   -0.00463659
        0.465    0.00251787    0.00251672    0.00251537    0.00250804    0.00247874    0.00238456    0.00200052    0.00180356    0.00100681  -0.000417691   -0.00255937   -0.00455695   -0.00464508   -0.00470343   -0.00472964
         0.47    0.00249843    0.00249727    0.00249591    0.00248853    0.00245898    0.00236398    0.00197648    0.00177771   0.000973485  -0.000464817   -0.00262877   -0.00464895   -0.00473756   -0.00479594   -0.00482182
        0.475    0.00247927     0.0024781    0.00247674    0.00246929     0.0024395     0.0023437    0.00195277    0.00175221   0.000940551  -0.000511471   -0.00269758   -0.00474025   -0.00482931   -0.00488772   -0.00491326
         0.48    0.00246052    0.00245934    0.00245797    0.00245049    0.00242052    0.00232375    0.00192943      0.001727   0.000907833  -0.000557886   -0.00276619   -0.00483139   -0.00492091   -0.00497933   -0.00500453
        0.485      0.002442    0.00244082    0.00243943    0.00243189    0.00240167    0.00230407    0.00190628    0.00170206   0.000875449  -0.000603957   -0.00283433   -0.00492189   -0.00501183   -0.00507025   -0.00509509
         0.49    0.00242364    0.00242245    0.00242106     0.0024135    0.00238317    0.00228472     0.0018834    0.00167748   0.000843578  -0.000649128    -0.0029012   -0.00501059   -0.00510093   -0.00515933   -0.00518379
        0.495    0.00240565    0.00240445    0.00240305    0.00239539    0.00236469    0.00226552    0.00186096    0.00165322   0.000811974  -0.000694412   -0.00296839   -0.00510019   -0.00519093   -0.00524929   -0.00527337
          0.5    0.00238781    0.00238659    0.00238517    0.00237743    0.00234642     0.0022466    0.00183854    0.00162906   0.000780557  -0.000739394   -0.00303513   -0.00518886   -0.00527996   -0.00533827   -0.00536195
        0.505    0.00237032     0.0023691    0.00236767    0.00235988    0.00232862    0.00222801    0.00181656    0.00160532   0.000749507  -0.000783884   -0.00310129   -0.00527691   -0.00536838   -0.00542663    -0.0054499
         0.51    0.00235311    0.00235188    0.00235045    0.00234262    0.00231119    0.00220962    0.00179488    0.00158183   0.000718653  -0.000828026   -0.00316698   -0.00536445   -0.00545627   -0.00551445   -0.00553729
        0.515      0.002336    0.00233476    0.00233332    0.00232544    0.00229377    0.00219142    0.00177335    0.00155857   0.000688233  -0.000871572   -0.00323176   -0.00545072   -0.00554286   -0.00560094   -0.00562335
         0.52    0.00231951    0.00231827    0.00231681    0.00230887    0.00227696    0.00217381    0.00175234    0.00153577   0.000658034  -0.000915333   -0.00329719   -0.00553782   -0.00563027   -0.00568826   -0.00571023
        0.525    0.00230284    0.00230159    0.00230013    0.00229213    0.00225999    0.00215604    0.00173122    0.00151292    0.00062805  -0.000958376   -0.00336135   -0.00562326     -0.005716   -0.00577386   -0.00579537
         0.53    0.00228679    0.00228554    0.00228406    0.00227601    0.00224362    0.00213889    0.00171068    0.00149061   0.000598395   -0.00100142   -0.00342579   -0.00570908    -0.0058021   -0.00585983   -0.00588088
        0.535    0.00227071    0.00226944    0.00226796    0.00225985    0.00222722    0.00212169    0.00169012    0.00146831   0.000568934   -0.00104399   -0.00348941   -0.00579377   -0.00588706   -0.00594464   -0.00596521
         0.54    0.00225482    0.00225355    0.00225206    0.00224391    0.00221113    0.00210475    0.00166992    0.00144636   0.000539931   -0.00108571   -0.00355187   -0.00587684   -0.00597037   -0.00602779   -0.00604786
        0.545    0.00223952    0.00223824    0.00223674    0.00222854    0.00219553    0.00208836    0.00165014    0.00142481   0.000511081   -0.00112785   -0.00361521   -0.00596115   -0.00605491   -0.00611216   -0.00613173
         0.55    0.00222393    0.00222264    0.00222114    0.00221286    0.00217953     0.0020717    0.00163025    0.00140327   0.000482502    -0.0011694   -0.00367725   -0.00604385   -0.00613782   -0.00619486   -0.00621391
        0.555    0.00220879    0.00220749    0.00220597    0.00219763    0.00216406    0.00205544    0.00161067    0.00138197   0.000454147    -0.0012106     -0.003739     -0.006126   -0.00622015   -0.00627698   -0.00629551
         0.56    0.00219382    0.00219251    0.00219098    0.00218259    0.00214879    0.00203942    0.00159141      0.001361   0.000426144   -0.00125138   -0.00380018   -0.00620738   -0.00630171   -0.00635831   -0.00637629
        0.565    0.00217908    0.00217776    0.00217623    0.00216778    0.00213374    0.00202361    0.00157233    0.00134023   0.000398345   -0.00129192   -0.00386104   -0.00628831   -0.00638279   -0.00643915   -0.00645659
         0.57    0.00216445    0.00216313    0.00216158    0.00215308    0.00211882    0.00200793    0.00155342    0.00131962   0.000370798   -0.00133205   -0.00392124   -0.00636831   -0.00646293   -0.00651903   -0.00653591
        0.575     0.0021503    0.00214897    0.00214741    0.00213885    0.00210435     0.0019927    0.00153488    0.00129936   0.000343445   -0.00137221   -0.00398168   -0.00644858   -0.00654332   -0.00659916   -0.00661547
         0.58    0.00213619    0.00213485    0.00213327    0.00212462     0.0020898    0.00197759    0.00151644    0.00127921   0.000316441   -0.00141203   -0.00404155   -0.00652795   -0.00662279   -0.00667835   -0.00669407
        0.585    0.00212211    0.00212076    0.00211918    0.00211048    0.00207544    0.00196253    0.00149825    0.00125935    0.00028969   -0.00145122   -0.00410043   -0.00660606   -0.00670098   -0.00675623   -0.00677136
         0.59    0.00210832    0.00210696    0.00210537    0.00209662    0.00206135    0.00194769     0.0014802    0.00123961   0.000263073   -0.00149025   -0.00415907   -0.00668376   -0.00677875   -0.00683369   -0.00684821
        0.595    0.00209471    0.00209334    0.00209174    0.00208293    0.00204743    0.00193304    0.00146235     0.0012201   0.000236695   -0.00152897   -0.00421726   -0.00676081   -0.00685584   -0.00691046   -0.00692436
          0.6    0.00208129    0.00207991     0.0020783    0.00206944     0.0020337    0.00191854    0.00144466    0.00120074   0.000210548   -0.00156733    -0.0042749   -0.00683708   -0.00693214   -0.00698642   -0.00699969
        0.605     0.0020682    0.00206683    0.00206522    0.00205633    0.00202047    0.00190437     0.0014273    0.00118172   0.000184435   -0.00160569   -0.00433269   -0.00691348   -0.00700857    -0.0070625   -0.00707514
         0.61    0.00205524    0.00205386    0.00205223    0.00204325    0.00200706    0.00189045    0.00141014    0.00116284   0.000158864   -0.00164368   -0.00438981   -0.00698884   -0.00708392   -0.00713747   -0.00714946
        0.615    0.00204247    0.00204107    0.00203944    0.00203041    0.00199399    0.00187661    0.00139304    0.00114405   0.000133174   -0.00168174   -0.00444713    -0.0070644   -0.00715946   -0.00721264   -0.00722398
         0.62    0.00202973    0.00202833    0.00202669    0.00201765     0.0019811    0.00186277    0.00137612    0.00112553   0.000107757   -0.00171892   -0.00450297   -0.00713795   -0.00723298   -0.00728576   -0.00729644
        0.625    0.00201731    0.00201591    0.00201426    0.00200516    0.00196839    0.00184936    0.00135955     0.0011073   8.27795e-05   -0.00175589   -0.00455857   -0.00721108   -0.00730606   -0.00735843   -0.00736842
         0.63     0.0020049    0.00200348    0.00200182    0.00199262    0.00195553    0.00183602    0.00134304     0.0010891   5.80636e-05   -0.00179271   -0.00461381    -0.0072836   -0.00737849   -0.00743043   -0.00743973
        0.635    0.00199269    0.00199127    0.00198959    0.00198035    0.00194304    0.00182279    0.00132668     0.0010711   3.33523e-05   -0.00182934   -0.00466883   -0.00735573   -0.00745053   -0.00750203   -0.00751063
         0.64     0.0019807    0.00197926    0.00197758    0.00196828    0.00193075    0.00180979    0.00131054    0.00105331   8.88203e-06   -0.00186564   -0.00472334    -0.0074271   -0.00752179   -0.00757284   -0.00758074
        0.645    0.00196886    0.00196742    0.00196572    0.00195637    0.00191862    0.00179696    0.00129459    0.00103572  -1.53769e-05   -0.00190166   -0.00477741   -0.00749779   -0.00759235   -0.00764293   -0.00765011
         0.65    0.00195714    0.00195569    0.00195399    0.00194459    0.00190661    0.00178422    0.00127874    0.00101824  -3.94555e-05   -0.00193738   -0.00483094   -0.00756762   -0.00766204   -0.00771213   -0.00771859