/*--------------------------------*- C++ -*----------------------------------*\
| =========                 |                                                 |
| \\      /  F ield         | OpenFOAM: The Open Source CFD Toolbox           |
|  \\    /   O peration     | Version:  2112                                  |
|   \\  /    A nd           | Website:  www.openfoam.com                      |
|    \\/     M anipulation  |                                                 |
\*---------------------------------------------------------------------------*/
FoamFile
{
    version     2.0;
    format      ascii;
    arch        "LSB;label=32;scalar=64";
    class       volScalarField;
    location    "2";
    object      p;
}
// * * * * * * * * * * * * * * * * * * * * * * * * * * * * * * * * * * * * * //

dimensions      [0 2 -2 0 0 0 0];

internalField   nonuniform List<scalar> 
16641
(
2.25383e-09
-1.31091e-06
-4.26281e-06
-8.13462e-06
-1.22283e-05
-1.60861e-05
-1.93684e-05
-2.18397e-05
-2.33443e-05
-2.37841e-05
-2.3102e-05
-2.12698e-05
-1.82791e-05
-1.41346e-05
-8.84902e-06
-2.43945e-06
5.07549e-06
1.36774e-05
2.3349e-05
3.40752e-05
4.58428e-05
5.86412e-05
7.24615e-05
8.72969e-05
0.000103142
0.000119992
0.000137844
0.000156695
0.000176544
0.000197388
0.000219226
0.000242056
0.000265876
0.000290685
0.000316479
0.000343256
0.000371013
0.000399746
0.000429451
0.000460122
0.000491755
0.000524343
0.000557879
0.000592355
0.000627763
0.000664092
0.000701333
0.000739474
0.000778503
0.000818405
0.000859166
0.000900771
0.000943202
0.000986441
0.00103047
0.00107526
0.0011208
0.00116706
0.00121402
0.00126165
0.00130992
0.00135881
0.00140827
0.00145829
0.00150882
0.00155983
0.00161129
0.00166315
0.00171538
0.00176793
0.00182076
0.00187383
0.00192708
0.00198049
0.00203398
0.00208753
0.00214106
0.00219454
0.00224791
0.00230112
0.0023541
0.00240681
0.00245918
0.00251116
0.00256269
0.00261371
0.00266417
0.002714
0.00276314
0.00281153
0.00285913
0.00290586
0.00295166
0.00299649
0.00304028
0.00308297
0.00312451
0.00316485
0.00320392
0.00324169
0.00327809
0.00331308
0.0033466
0.00337862
0.00340908
0.00343793
0.00346515
0.00349067
0.00351447
0.0035365
0.00355672
0.0035751
0.0035916
0.0036062
0.00361886
0.00362956
0.0036383
0.00364507
0.00364988
0.00365278
0.00365381
0.0036531
0.00365078
0.0036471
0.00364239
0.00363713
0.00363185
0.00362769
0.00362562
1.30898e-06
-7.05745e-09
-2.33051e-06
-5.23888e-06
-8.29394e-06
-1.11413e-05
-1.35064e-05
-1.51839e-05
-1.60252e-05
-1.5927e-05
-1.48208e-05
-1.2664e-05
-9.43336e-06
-5.11923e-06
2.78938e-07
6.75577e-06
1.43025e-05
2.29089e-05
3.25643e-05
4.32588e-05
5.49831e-05
6.77294e-05
8.14908e-05
9.62618e-05
0.000112038
0.000128815
0.000146591
0.000165362
0.000185127
0.000205884
0.000227631
0.000250366
0.000274087
0.000298792
0.000324478
0.000351143
0.000378783
0.000407394
0.000436971
0.00046751
0.000499006
0.000531451
0.000564839
0.000599161
0.000634409
0.000670573
0.000707643
0.000745607
0.000784452
0.000824165
0.00086473
0.000906133
0.000948356
0.00099138
0.00103519
0.00107975
0.00112506
0.00117108
0.00121779
0.00126516
0.00131317
0.00136179
0.00141098
0.00146072
0.00151096
0.00156168
0.00161284
0.0016644
0.00171631
0.00176855
0.00182106
0.0018738
0.00192673
0.00197979
0.00203295
0.00208614
0.00213933
0.00219246
0.00224547
0.00229831
0.00235094
0.00240328
0.00245528
0.0025069
0.00255806
0.00260872
0.0026588
0.00270827
0.00275704
0.00280508
0.00285231
0.00289868
0.00294413
0.00298861
0.00303205
0.0030744
0.00311561
0.00315562
0.00319438
0.00323183
0.00326793
0.00330262
0.00333586
0.0033676
0.0033978
0.0034264
0.00345338
0.00347869
0.00350229
0.00352414
0.00354422
0.00356249
0.00357892
0.00359349
0.0036062
0.00361701
0.00362595
0.00363302
0.00363825
0.0036417
0.00364345
0.00364362
0.00364237
0.00363992
0.00363658
0.00363275
0.0036289
0.00362566
0.0036236
4.25888e-06
2.30424e-06
-2.40744e-08
-2.59192e-06
-5.16791e-06
-7.48304e-06
-9.31882e-06
-1.05059e-05
-1.09141e-05
-1.04472e-05
-9.03681e-06
-6.63687e-06
-3.21809e-06
1.23624e-06
6.73385e-06
1.32762e-05
2.08608e-05
2.94828e-05
3.9136e-05
4.98142e-05
6.15113e-05
7.42215e-05
8.79398e-05
0.000102662
0.000118384
0.000135104
0.000152818
0.000171525
0.000191222
0.000211907
0.00023358
0.000256237
0.000279877
0.000304498
0.000330097
0.000356671
0.000384216
0.000412729
0.000442205
0.00047264
0.000504027
0.00053636
0.000569631
0.000603834
0.000638959
0.000674996
0.000711934
0.000749763
0.000788469
0.000828039
0.000868458
0.00090971
0.000951778
0.000994644
0.00103829
0.00108269
0.00112782
0.00117367
0.0012202
0.00126739
0.00131522
0.00136364
0.00141264
0.00146218
0.00151222
0.00156274
0.00161369
0.00166503
0.00171673
0.00176875
0.00182104
0.00187355
0.00192625
0.00197909
0.00203201
0.00208497
0.00213793
0.00219081
0.00224359
0.00229619
0.00234857
0.00240066
0.00245243
0.0025038
0.00255471
0.00260513
0.00265497
0.00270419
0.00275272
0.00280052
0.00284751
0.00289365
0.00293886
0.00298311
0.00302632
0.00306845
0.00310944
0.00314923
0.00318778
0.00322503
0.00326092
0.00329542
0.00332847
0.00336003
0.00339006
0.0034185
0.00344532
0.00347049
0.00349397
0.00351571
0.0035357
0.00355391
0.0035703
0.00358488
0.00359762
0.00360853
0.00361762
0.00362491
0.00363043
0.00363426
0.00363647
0.00363719
0.00363658
0.00363482
0.00363219
0.00362901
0.00362565
0.00362243
0.0036195
8.1439e-06
5.20574e-06
2.52248e-06
-5.15235e-08
-2.4703e-06
-4.5314e-06
-6.06561e-06
-6.94158e-06
-7.05345e-06
-6.31878e-06
-4.67624e-06
-2.08195e-06
1.49402e-06
6.0709e-06
1.16599e-05
1.82664e-05
2.58919e-05
3.45352e-05
4.41936e-05
5.48635e-05
6.65413e-05
7.92233e-05
9.2906e-05
0.000107586
0.000123262
0.00013993
0.000157589
0.000176236
0.000195871
0.000216492
0.000238096
0.000260682
0.000284249
0.000308793
0.000334312
0.000360804
0.000388265
0.000416691
0.000446077
0.000476418
0.00050771
0.000539945
0.000573116
0.000607215
0.000642234
0.000678162
0.00071499
0.000752705
0.000791295
0.000830746
0.000871044
0.000912172
0.000954114
0.000996851
0.00104036
0.00108463
0.00112963
0.00117534
0.00122173
0.00126878
0.00131646
0.00136474
0.00141359
0.00146298
0.00151287
0.00156323
0.00161402
0.00166521
0.00171675
0.00176861
0.00182073
0.00187308
0.00192562
0.00197829
0.00203105
0.00208384
0.00213663
0.00218935
0.00224195
0.00229438
0.00234659
0.00239852
0.00245011
0.00250131
0.00255206
0.0026023
0.00265198
0.00270103
0.0027494
0.00279703
0.00284386
0.00288983
0.00293489
0.00297898
0.00302204
0.00306401
0.00310485
0.00314449
0.0031829
0.00322
0.00325576
0.00329012
0.00332305
0.00335448
0.00338439
0.00341272
0.00343944
0.00346451
0.00348791
0.00350958
0.00352952
0.00354769
0.00356407
0.00357866
0.00359145
0.00360244
0.00361165
0.0036191
0.00362484
0.00362893
0.00363146
0.00363253
0.0036323
0.00363092
0.00362861
0.00362562
0.00362226
0.00361857
0.00361425
1.22678e-05
8.25601e-06
5.07308e-06
2.32889e-06
-9.4946e-08
-2.0494e-06
-3.40829e-06
-4.07663e-06
-3.97383e-06
-3.03375e-06
-1.20499e-06
1.55102e-06
5.26212e-06
9.94762e-06
1.56201e-05
2.22873e-05
2.9953e-05
3.86189e-05
4.82847e-05
5.89493e-05
7.06108e-05
8.32673e-05
9.6917e-05
0.000111558
0.000127189
0.000143807
0.000161412
0.000180002
0.000199576
0.000220133
0.00024167
0.000264187
0.000287682
0.000312152
0.000337595
0.000364007
0.000391387
0.000419729
0.000449029
0.000479283
0.000510485
0.000542628
0.000575705
0.000609709
0.00064463
0.00068046
0.000717187
0.000754799
0.000793285
0.000832631
0.000872821
0.000913841
0.000955673
0.000998299
0.0010417
0.00108585
0.00113074
0.00117633
0.0012226
0.00126954
0.0013171
0.00136526
0.00141399
0.00146326
0.00151303
0.00156327
0.00161394
0.001665
0.00171642
0.00176816
0.00182016
0.00187239
0.0019248
0.00197735
0.00202999
0.00208266
0.00213532
0.00218792
0.0022404
0.00229271
0.0023448
0.00239661
0.00244808
0.00249916
0.00254979
0.00259992
0.00264948
0.00269841
0.00274667
0.00279418
0.0028409
0.00288676
0.00293171
0.00297569
0.00301864
0.00306051
0.00310124
0.00314079
0.00317909
0.00321609
0.00325175
0.00328602
0.00331886
0.00335021
0.00338003
0.00340828
0.00343493
0.00345994
0.00348328
0.00350491
0.00352481
0.00354297
0.00355935
0.00357396
0.00358679
0.00359786
0.00360716
0.00361475
0.00362065
0.00362494
0.00362769
0.003629
0.00362899
0.00362781
0.00362562
0.00362262
0.00361903
0.00361468
0.003609
1.61635e-05
1.10907e-05
7.34781e-06
4.3346e-06
1.79495e-06
-1.6244e-07
-1.44671e-06
-1.99516e-06
-1.75093e-06
-6.64481e-07
1.30442e-06
4.18727e-06
8.00797e-06
1.27841e-05
1.85281e-05
2.52485e-05
3.29504e-05
4.16371e-05
5.13103e-05
6.19704e-05
7.36172e-05
8.62504e-05
9.98692e-05
0.000114473
0.000130061
0.000146632
0.000164185
0.00018272
0.000202235
0.000222731
0.000244204
0.000266654
0.00029008
0.000314479
0.000339848
0.000366186
0.000393489
0.000421753
0.000450974
0.000481146
0.000512265
0.000544324
0.000577316
0.000611234
0.000646069
0.00068181
0.000718448
0.000755972
0.000794368
0.000833623
0.000873723
0.000914651
0.000956392
0.000998926
0.00104223
0.0010863
0.00113109
0.00117659
0.00122278
0.00126962
0.00131709
0.00136516
0.00141381
0.00146299
0.00151267
0.00156282
0.00161341
0.00166439
0.00171573
0.00176738
0.0018193
0.00187145
0.00192379
0.00197626
0.00202882
0.00208141
0.002134
0.00218653
0.00223894
0.00229118
0.0023432
0.00239494
0.00244634
0.00249736
0.00254793
0.00259799
0.00264748
0.00269636
0.00274455
0.00279201
0.00283866
0.00288447
0.00292936
0.00297328
0.00301617
0.00305798
0.00309866
0.00313815
0.00317639
0.00321334
0.00324895
0.00328317
0.00331595
0.00334725
0.00337703
0.00340524
0.00343185
0.00345683
0.00348013
0.00350174
0.00352163
0.00353978
0.00355618
0.00357081
0.00358369
0.00359481
0.0036042
0.00361188
0.0036179
0.00362232
0.0036252
0.00362664
0.00362675
0.00362563
0.00362341
0.00362024
0.0036163
0.00361125
0.00360425
1.94748e-05
1.34189e-05
9.11121e-06
5.77811e-06
3.05302e-06
1.01612e-06
-2.69389e-07
-7.67988e-07
-4.43887e-07
7.36933e-07
2.80345e-06
5.7794e-06
9.68369e-06
1.4531e-05
2.03325e-05
2.70962e-05
3.48279e-05
4.35317e-05
5.32102e-05
6.38653e-05
7.54978e-05
8.81087e-05
0.000101698
0.000116266
0.000131813
0.000148339
0.000165843
0.000184325
0.000203785
0.000224221
0.000245634
0.000268021
0.000291381
0.000315713
0.000341014
0.000367282
0.000394514
0.000422706
0.000451854
0.000481952
0.000512997
0.000544981
0.000577898
0.00061174
0.000646499
0.000682165
0.000718728
0.000756176
0.000794498
0.000833679
0.000873705
0.000914561
0.00095623
0.000998694
0.00104193
0.00108593
0.00113065
0.00117609
0.00122221
0.00126899
0.00131641
0.00136442
0.00141301
0.00146213
0.00151177
0.00156187
0.00161241
0.00166335
0.00171464
0.00176625
0.00181814
0.00187025
0.00192255
0.00197499
0.00202753
0.0020801
0.00213266
0.00218516
0.00223755
0.00228978
0.00234178
0.00239351
0.0024449
0.0024959
0.00254646
0.00259651
0.002646
0.00269486
0.00274305
0.0027905
0.00283715
0.00288294
0.00292783
0.00297174
0.00301463
0.00305643
0.0030971
0.00313658
0.00317482
0.00321176
0.00324736
0.00328157
0.00331434
0.00334563
0.00337539
0.0034036
0.0034302
0.00345517
0.00347847
0.00350008
0.00351997
0.00353814
0.00355455
0.00356921
0.00358213
0.00359329
0.00360274
0.00361049
0.00361658
0.00362108
0.00362403
0.00362552
0.00362564
0.00362447
0.00362212
0.00361869
0.00361435
0.00360861
0.00360043
2.19432e-05
1.50136e-05
1.01721e-05
6.50519e-06
3.55975e-06
1.39681e-06
5.87481e-08
-4.40941e-07
-8.43356e-08
1.14878e-06
3.27688e-06
6.31603e-06
1.02798e-05
1.51794e-05
2.10238e-05
2.78202e-05
3.5574e-05
4.42896e-05
5.39701e-05
6.46182e-05
7.62358e-05
8.88244e-05
0.000102385
0.000116919
0.000132427
0.000148909
0.000166366
0.000184798
0.000204205
0.000224585
0.00024594
0.000268267
0.000291567
0.000315836
0.000341074
0.000367278
0.000394444
0.000422571
0.000451652
0.000481685
0.000512664
0.000544582
0.000577434
0.000611212
0.000645907
0.00068151
0.000718011
0.000755399
0.000793661
0.000832785
0.000872756
0.000913559
0.000955176
0.000997591
0.00104078
0.00108473
0.00112942
0.00117482
0.0012209
0.00126765
0.00131503
0.00136302
0.00141159
0.00146069
0.00151031
0.0015604
0.00161093
0.00166186
0.00171315
0.00176477
0.00181666
0.00186878
0.0019211
0.00197355
0.0020261
0.00207869
0.00213128
0.00218381
0.00223623
0.00228849
0.00234053
0.00239229
0.00244372
0.00249477
0.00254537
0.00259546
0.00264499
0.0026939
0.00274214
0.00278963
0.00283633
0.00288217
0.00292709
0.00297105
0.00301398
0.00305582
0.00309653
0.00313605
0.00317432
0.0032113
0.00324693
0.00328116
0.00331396
0.00334527
0.00337506
0.00340329
0.00342991
0.0034549
0.00347822
0.00349985
0.00351977
0.00353796
0.0035544
0.0035691
0.00358204
0.00359325
0.00360274
0.00361053
0.00361666
0.00362118
0.00362415
0.00362564
0.0036257
0.00362442
0.00362187
0.00361815
0.00361338
0.003607
0.00359782
2.33856e-05
1.57009e-05
1.03754e-05
6.38424e-06
3.20746e-06
8.9395e-07
-5.28979e-07
-1.06514e-06
-7.11216e-07
5.41243e-07
2.7014e-06
5.77818e-06
9.77995e-06
1.47142e-05
2.05876e-05
2.74057e-05
3.51733e-05
4.38946e-05
5.35731e-05
6.42116e-05
7.58127e-05
8.83786e-05
0.000101911
0.000116412
0.000131882
0.000148322
0.000165734
0.000184118
0.000203474
0.000223802
0.000245102
0.000267374
0.000290617
0.000314829
0.000340008
0.000366153
0.000393261
0.000421329
0.000450352
0.000480328
0.000511249
0.000543112
0.000575909
0.000609634
0.000644277
0.000679831
0.000716284
0.000753626
0.000791846
0.000830929
0.000870863
0.000911631
0.000953218
0.000995604
0.00103877
0.0010827
0.00112737
0.00117276
0.00121884
0.00126558
0.00131296
0.00136096
0.00140953
0.00145865
0.00150829
0.0015584
0.00160896
0.00165993
0.00171126
0.00176291
0.00181485
0.00186703
0.0019194
0.00197191
0.00202453
0.00207719
0.00212985
0.00218246
0.00223496
0.0022873
0.00233943
0.00239128
0.0024428
0.00249394
0.00254463
0.00259482
0.00264445
0.00269346
0.00274179
0.00278938
0.00283617
0.00288211
0.00292713
0.00297118
0.0030142
0.00305613
0.00309692
0.00313652
0.00317487
0.00321192
0.00324762
0.00328193
0.00331479
0.00334616
0.003376
0.00340428
0.00343095
0.00345599
0.00347935
0.00350102
0.00352098
0.0035392
0.00355568
0.00357041
0.00358339
0.00359463
0.00360414
0.00361195
0.0036181
0.00362262
0.00362557
0.00362699
0.00362696
0.00362553
0.00362275
0.00361872
0.00361354
0.0036066
0.00359659
2.3674e-05
1.53502e-05
9.59811e-06
5.30569e-06
1.9019e-06
-5.71475e-07
-2.09763e-06
-2.69357e-06
-2.36756e-06
-1.12084e-06
1.04781e-06
4.14098e-06
8.16219e-06
1.31154e-05
1.90047e-05
2.5834e-05
3.36073e-05
4.23281e-05
5.19999e-05
6.26257e-05
7.42084e-05
8.67506e-05
0.000100255
0.000114722
0.000130156
0.000146556
0.000163925
0.000182263
0.000201572
0.000221851
0.000243101
0.000265321
0.000288511
0.00031267
0.000337797
0.00036389
0.000390946
0.000418962
0.000447936
0.000477862
0.000508737
0.000540554
0.000573307
0.00060699
0.000641595
0.000677112
0.000713532
0.000750844
0.000789037
0.000828098
0.000868013
0.000908766
0.000950342
0.000992723
0.00103589
0.00107982
0.0011245
0.0011699
0.001216
0.00126277
0.00131018
0.00135821
0.00140683
0.001456
0.00150569
0.00155587
0.00160649
0.00165753
0.00170894
0.00176068
0.00181271
0.00186498
0.00191745
0.00197008
0.0020228
0.00207558
0.00212837
0.0021811
0.00223373
0.0022862
0.00233847
0.00239046
0.00244212
0.00249341
0.00254425
0.00259459
0.00264436
0.00269352
0.002742
0.00278974
0.00283668
0.00288276
0.00292792
0.00297211
0.00301527
0.00305733
0.00309825
0.00313798
0.00317645
0.00321361
0.00324942
0.00328383
0.00331679
0.00334826
0.00337819
0.00340654
0.00343329
0.00345839
0.00348182
0.00350355
0.00352356
0.00354183
0.00355835
0.00357312
0.00358613
0.00359739
0.00360693
0.00361474
0.00362088
0.00362538
0.00362827
0.00362961
0.00362946
0.00362785
0.00362484
0.0036205
0.00361495
0.00360752
0.00359682
2.27212e-05
1.38651e-05
7.74486e-06
3.18095e-06
-4.36293e-07
-3.06864e-06
-4.70631e-06
-5.37609e-06
-5.09521e-06
-3.87263e-06
-1.71372e-06
1.3787e-06
5.40383e-06
1.03624e-05
1.6256e-05
2.3087e-05
3.08581e-05
3.95724e-05
4.9233e-05
5.98428e-05
7.1405e-05
8.39223e-05
9.73973e-05
0.000111833
0.00012723
0.000143592
0.00016092
0.000179215
0.000198479
0.000218713
0.000239916
0.000262089
0.000285232
0.000309344
0.000334425
0.000360471
0.000387482
0.000415455
0.000444387
0.000474273
0.00050511
0.000536892
0.000569613
0.000603267
0.000637845
0.00067334
0.000709742
0.00074704
0.000785223
0.000824279
0.000864194
0.000904952
0.000946539
0.000988936
0.00103213
0.00107609
0.0011208
0.00116624
0.00121239
0.00125921
0.00130669
0.00135479
0.00140348
0.00145273
0.00150251
0.00155279
0.00160352
0.00165467
0.0017062
0.00175806
0.00181022
0.00186264
0.00191525
0.00196803
0.00202092
0.00207386
0.00212681
0.00217972
0.00223253
0.00228519
0.00233764
0.00238982
0.00244169
0.00249316
0.0025442
0.00259474
0.00264472
0.00269408
0.00274275
0.00279069
0.00283783
0.0028841
0.00292946
0.00297383
0.00301717
0.00305942
0.00310051
0.0031404
0.00317903
0.00321635
0.00325231
0.00328686
0.00331995
0.00335154
0.00338159
0.00341005
0.0034369
0.00346209
0.00348561
0.00350741
0.00352749
0.00354582
0.00356239
0.0035772
0.00359024
0.00360153
0.00361107
0.00361888
0.003625
0.00362945
0.00363227
0.00363351
0.00363322
0.00363143
0.00362818
0.00362356
0.00361767
0.00360982
0.00359857
2.04693e-05
1.11757e-05
4.74303e-06
-6.02628e-08
-3.87246e-06
-6.65651e-06
-8.40707e-06
-9.15794e-06
-8.93313e-06
-7.74764e-06
-5.61212e-06
-2.53389e-06
1.48258e-06
6.43506e-06
1.2323e-05
1.91472e-05
2.69092e-05
3.56114e-05
4.52563e-05
5.58471e-05
6.73866e-05
7.98777e-05
9.33235e-05
0.000107727
0.000123089
0.000139414
0.000156703
0.000174959
0.000194181
0.000214373
0.000235533
0.000257664
0.000280765
0.000304835
0.000329875
0.000355883
0.000382856
0.000410794
0.000439692
0.000469548
0.000500357
0.000532115
0.000564815
0.000598452
0.000633018
0.000668504
0.000704903
0.000742203
0.000780394
0.000819463
0.000859397
0.000900181
0.000941799
0.000984236
0.00102747
0.00107149
0.00111626
0.00116177
0.00120799
0.0012549
0.00130247
0.00135067
0.00139947
0.00144884
0.00149875
0.00154916
0.00160003
0.00165133
0.00170302
0.00175505
0.00180739
0.00185999
0.0019128
0.00196577
0.00201886
0.00207202
0.00212519
0.00217833
0.00223137
0.00228426
0.00233695
0.00238937
0.00244148
0.0024932
0.00254449
0.00259528
0.00264551
0.00269512
0.00274405
0.00279223
0.00283961
0.00288613
0.00293172
0.00297633
0.0030199
0.00306237
0.00310368
0.00314378
0.00318261
0.00322013
0.00325627
0.00329099
0.00332425
0.003356
0.00338619
0.00341479
0.00344176
0.00346707
0.00349069
0.00351258
0.00353274
0.00355114
0.00356777
0.00358263
0.00359571
0.00360701
0.00361655
0.00362435
0.00363044
0.00363483
0.00363757
0.0036387
0.00363826
0.00363629
0.00363282
0.00362793
0.00362175
0.00361355
0.00360185
1.68826e-05
7.23299e-06
5.38355e-07
-4.47273e-06
-8.45948e-06
-1.13844e-05
-1.32447e-05
-1.40792e-05
-1.39167e-05
-1.27769e-05
-1.06746e-05
-7.62082e-06
-3.62296e-06
1.3142e-06
7.1882e-06
1.39983e-05
2.1745e-05
3.043e-05
4.00556e-05
5.06243e-05
6.21391e-05
7.4603e-05
8.80191e-05
0.00010239
0.000117719
0.000134009
0.000151261
0.000169479
0.000188663
0.000208816
0.000229939
0.000252032
0.000275096
0.000299131
0.000324136
0.000350111
0.000377055
0.000404965
0.000433839
0.000463674
0.000494466
0.00052621
0.000558902
0.000592535
0.000627101
0.000662594
0.000699005
0.000736324
0.000774539
0.00081364
0.000853612
0.000894442
0.000936114
0.000978612
0.00102192
0.00106601
0.00111087
0.00115648
0.0012028
0.00124983
0.00129752
0.00134585
0.0013948
0.00144432
0.00149439
0.00154497
0.00159602
0.00164752
0.00169941
0.00175165
0.00180421
0.00185703
0.00191008
0.0019633
0.00201664
0.00207006
0.00212349
0.0021769
0.00223022
0.0022834
0.00233637
0.00238909
0.0024415
0.00249352
0.00254511
0.0025962
0.00264673
0.00269664
0.00274587
0.00279435
0.00284203
0.00288884
0.00293472
0.00297961
0.00302346
0.00306619
0.00310776
0.00314811
0.00318719
0.00322493
0.00326129
0.00329623
0.00332968
0.00336161
0.00339198
0.00342074
0.00344786
0.00347331
0.00349705
0.00351905
0.00353931
0.00355779
0.00357449
0.00358939
0.00360251
0.00361383
0.00362337
0.00363116
0.0036372
0.00364153
0.00364419
0.0036452
0.00364461
0.00364246
0.00363878
0.00363365
0.00362721
0.00361871
0.00360666
1.19409e-05
2.00374e-06
-4.90886e-06
-1.00984e-05
-1.42394e-05
-1.72928e-05
-1.92572e-05
-2.01745e-05
-2.00773e-05
-1.89885e-05
-1.69263e-05
-1.39043e-05
-9.93274e-06
-5.01824e-06
8.35017e-07
7.625e-06
1.53513e-05
2.40149e-05
3.36176e-05
4.41618e-05
5.56502e-05
6.80859e-05
8.1472e-05
9.58117e-05
0.000111108
0.000127364
0.000144582
0.000162764
0.000181914
0.000202032
0.000223121
0.000245181
0.000268213
0.000292218
0.000317196
0.000343146
0.000370068
0.000397959
0.000426818
0.000456641
0.000487426
0.000519168
0.000551863
0.000585504
0.000620086
0.0006556
0.000692039
0.000729392
0.000767649
0.0008068
0.00084683
0.000887727
0.000929475
0.000972057
0.00101546
0.00105965
0.00110463
0.00115036
0.00119682
0.00124398
0.00129183
0.00134033
0.00138945
0.00143916
0.00148943
0.00154022
0.00159149
0.00164322
0.00169535
0.00174784
0.00180066
0.00185376
0.00190709
0.0019606
0.00201424
0.00206796
0.00212172
0.00217545
0.0022291
0.00228261
0.00233592
0.00238899
0.00244174
0.00249412
0.00254606
0.0025975
0.00264839
0.00269865
0.00274823
0.00279706
0.00284508
0.00289223
0.00293845
0.00298366
0.00302783
0.00307087
0.00311275
0.00315339
0.00319274
0.00323076
0.00326738
0.00330255
0.00333624
0.00336839
0.00339896
0.00342791
0.0034552
0.0034808
0.00350468
0.00352681
0.00354717
0.00356575
0.00358252
0.00359748
0.00361063
0.00362198
0.00363152
0.00363929
0.00364529
0.00364955
0.00365211
0.00365301
0.00365228
0.00364996
0.00364608
0.00364074
0.00363406
0.00362531
0.00361297
5.63514e-06
-4.53366e-06
-1.16269e-05
-1.6969e-05
-2.12452e-05
-2.44145e-05
-2.64759e-05
-2.74734e-05
-2.7442e-05
-2.64072e-05
-2.43893e-05
-2.14046e-05
-1.7465e-05
-1.25788e-05
-6.75165e-06
1.3371e-08
7.71505e-06
1.63537e-05
2.59306e-05
3.64481e-05
4.79086e-05
6.03153e-05
7.36714e-05
8.79801e-05
0.000103245
0.000119468
0.000136654
0.000154805
0.000173922
0.00019401
0.000215069
0.0002371
0.000260107
0.000284088
0.000309044
0.000334976
0.000361883
0.000389764
0.000418616
0.000448439
0.000479227
0.000510979
0.000543689
0.000577352
0.000611962
0.000647511
0.000683993
0.000721398
0.000759715
0.000798934
0.000839042
0.000880026
0.000921871
0.000964561
0.00100808
0.0010524
0.00109752
0.0011434
0.00119002
0.00123736
0.0012854
0.00133409
0.00138342
0.00143336
0.00148386
0.0015349
0.00158643
0.00163843
0.00169084
0.00174363
0.00179675
0.00185017
0.00190382
0.00195767
0.00201166
0.00206574
0.00211986
0.00217396
0.00222799
0.00228188
0.00233559
0.00238905
0.0024422
0.00249498
0.00254733
0.00259918
0.00265047
0.00270113
0.00275112
0.00280035
0.00284876
0.0028963
0.0029429
0.00298849
0.00303302
0.00307642
0.00311864
0.00315961
0.00319929
0.00323761
0.00327452
0.00330998
0.00334392
0.00337632
0.00340712
0.00343628
0.00346377
0.00348955
0.00351358
0.00353586
0.00355634
0.00357501
0.00359187
0.00360689
0.00362009
0.00363145
0.003641
0.00364874
0.0036547
0.00365889
0.00366136
0.00366214
0.00366127
0.00365879
0.00365473
0.00364919
0.00364231
0.00363335
0.00362076
-2.03643e-06
-1.23923e-05
-1.96355e-05
-2.51078e-05
-2.95022e-05
-3.27757e-05
-3.49266e-05
-3.60006e-05
-3.60341e-05
-3.50544e-05
-3.30837e-05
-3.01398e-05
-2.62361e-05
-2.13825e-05
-1.55856e-05
-8.84937e-06
-1.17575e-06
7.43502e-06
1.69839e-05
2.74729e-05
3.89045e-05
5.12816e-05
6.46077e-05
7.8886e-05
9.412e-05
0.000110313
0.000127469
0.00014559
0.000164679
0.000184739
0.000205773
0.000227781
0.000250766
0.000274729
0.000299671
0.000325592
0.000352492
0.000380371
0.000409226
0.000439056
0.000469859
0.000501631
0.000534368
0.000568066
0.000602718
0.000638318
0.000674858
0.000712331
0.000750725
0.000790031
0.000830237
0.000871329
0.000913293
0.000956113
0.000999772
0.00104425
0.00108953
0.00113559
0.0011824
0.00122995
0.0012782
0.00132713
0.00137671
0.0014269
0.00147767
0.00152899
0.00158082
0.00163313
0.00168587
0.00173899
0.00179247
0.00184624
0.00190027
0.0019545
0.00200888
0.00206337
0.0021179
0.00217243
0.00222688
0.00228122
0.00233537
0.00238928
0.00244288
0.00249611
0.00254892
0.00260122
0.00265297
0.0027041
0.00275453
0.00280421
0.00285307
0.00290104
0.00294807
0.00299408
0.00303902
0.00308283
0.00312543
0.00316678
0.00320682
0.00324548
0.00328272
0.00331849
0.00335273
0.00338541
0.00341646
0.00344586
0.00347356
0.00349954
0.00352375
0.00354618
0.0035668
0.00358559
0.00360253
0.00361763
0.00363087
0.00364226
0.00365181
0.00365952
0.00366543
0.00366956
0.00367194
0.00367261
0.00367161
0.00366897
0.00366474
0.00365902
0.00365195
0.0036428
0.00363
-1.10709e-05
-2.15792e-05
-2.89479e-05
-3.45318e-05
-3.903e-05
-4.23969e-05
-4.46303e-05
-4.57766e-05
-4.58732e-05
-4.49486e-05
-4.30264e-05
-4.01256e-05
-3.62609e-05
-3.14429e-05
-2.56794e-05
-1.89749e-05
-1.1332e-05
-2.75133e-06
6.76771e-06
1.72268e-05
2.86285e-05
4.09758e-05
5.42719e-05
6.85205e-05
8.37251e-05
9.98894e-05
0.000117017
0.000135111
0.000154175
0.000174211
0.000195223
0.000217213
0.000240183
0.000264134
0.000289067
0.000314984
0.000341885
0.000369769
0.000398636
0.000428484
0.000459311
0.000491114
0.000523891
0.000557635
0.000592343
0.000628008
0.000664623
0.00070218
0.000740669
0.00078008
0.000820402
0.000861623
0.000903727
0.0009467
0.000990525
0.00103518
0.00108066
0.00112692
0.00117396
0.00122174
0.00127024
0.00131943
0.00136928
0.00141977
0.00147085
0.00152249
0.00157466
0.00162732
0.00168042
0.00173393
0.0017878
0.00184198
0.00189642
0.00195109
0.00200591
0.00206085
0.00211585
0.00217084
0.00222578
0.00228061
0.00233525
0.00238966
0.00244377
0.00249751
0.00255082
0.00260364
0.0026559
0.00270753
0.00275847
0.00280865
0.002858
0.00290647
0.00295397
0.00300045
0.00304585
0.0030901
0.00313313
0.0031749
0.00321533
0.00325438
0.00329199
0.0033281
0.00336267
0.00339565
0.00342699
0.00345665
0.0034846
0.00351079
0.0035352
0.00355779
0.00357856
0.00359747
0.00361452
0.00362969
0.00364298
0.00365439
0.00366394
0.00367164
0.00367751
0.00368157
0.00368386
0.00368441
0.00368328
0.00368049
0.0036761
0.00367021
0.00366298
0.00365366
0.00364067
-2.14626e-05
-3.20975e-05
-3.95726e-05
-4.52534e-05
-4.98431e-05
-5.32943e-05
-5.56038e-05
-5.68182e-05
-5.69758e-05
-5.61058e-05
-5.42326e-05
-5.13763e-05
-4.75523e-05
-4.27722e-05
-3.70443e-05
-3.03737e-05
-2.27636e-05
-1.42149e-05
-4.72718e-06
5.70108e-06
1.70723e-05
2.93894e-05
4.26558e-05
5.68753e-05
7.20516e-05
8.81886e-05
0.00010529
0.00012336
0.000142401
0.000162418
0.000183412
0.000205388
0.000228346
0.00025229
0.000277222
0.000303141
0.00033005
0.000357948
0.000386835
0.00041671
0.000447572
0.000479418
0.000512245
0.000546049
0.000580826
0.00061657
0.000653274
0.000690931
0.000729532
0.000769067
0.000809525
0.000850894
0.00089316
0.000936309
0.000980324
0.00102519
0.00107088
0.00111738
0.00116466
0.00121271
0.00126149
0.00131098
0.00136114
0.00141195
0.00146338
0.00151539
0.00156793
0.00162098
0.00167449
0.00172842
0.00178272
0.00183736
0.00189227
0.00194741
0.00200273
0.00205817
0.00211368
0.0021692
0.00222467
0.00228003
0.00233523
0.00239019
0.00244486
0.00249916
0.00255304
0.00260642
0.00265924
0.00271144
0.00276293
0.00281367
0.00286356
0.00291256
0.0029606
0.0030076
0.0030535
0.00309824
0.00314175
0.00318397
0.00322485
0.00326432
0.00330233
0.00333882
0.00337375
0.00340706
0.00343871
0.00346866
0.00349686
0.00352329
0.00354792
0.0035707
0.00359162
0.00361067
0.00362782
0.00364307
0.00365642
0.00366787
0.00367742
0.0036851
0.00369092
0.00369491
0.00369711
0.00369755
0.00369629
0.00369337
0.00368883
0.00368278
0.00367539
0.0036659
0.00365275
-3.32052e-05
-4.39478e-05
-5.1515e-05
-5.72811e-05
-6.19529e-05
-6.54807e-05
-6.78608e-05
-6.91396e-05
-6.93558e-05
-6.85393e-05
-6.67152e-05
-6.39041e-05
-6.01221e-05
-5.53814e-05
-4.96907e-05
-4.30558e-05
-3.548e-05
-2.69646e-05
-1.75093e-05
-7.11276e-06
4.22742e-06
1.65143e-05
2.97513e-05
4.39423e-05
5.90912e-05
7.52023e-05
9.22795e-05
0.000110327
0.000129349
0.000149348
0.000170329
0.000192295
0.000215247
0.00023919
0.000264124
0.000290053
0.000316977
0.000344896
0.000373812
0.000403723
0.000434629
0.000466528
0.000499417
0.000533293
0.000568152
0.000603988
0.000640797
0.00067857
0.000717299
0.000756976
0.000797589
0.000839126
0.000881576
0.000924922
0.00096915
0.00101424
0.00106018
0.00110694
0.0011545
0.00120284
0.00125193
0.00130175
0.00135226
0.00140344
0.00145525
0.00150765
0.00156061
0.00161409
0.00166805
0.00172245
0.00177723
0.00183236
0.00188779
0.00194346
0.00199931
0.00205531
0.00211138
0.00216748
0.00222354
0.0022795
0.00233529
0.00239086
0.00244614
0.00250106
0.00255556
0.00260956
0.002663
0.00271581
0.00276792
0.00281925
0.00286975
0.00291934
0.00296795
0.00301552
0.00306197
0.00310724
0.00315127
0.003194
0.00323536
0.00327529
0.00331373
0.00335064
0.00338596
0.00341964
0.00345163
0.00348189
0.00351038
0.00353707
0.00356192
0.0035849
0.003606
0.00362519
0.00364245
0.00365779
0.0036712
0.00368268
0.00369224
0.00369989
0.00370567
0.0037096
0.00371171
0.00371204
0.00371066
0.00370759
0.0037029
0.0036967
0.00368916
0.00367952
0.0036662
-4.62921e-05
-5.71295e-05
-6.47786e-05
-7.06214e-05
-7.53676e-05
-7.89661e-05
-8.14121e-05
-8.27521e-05
-8.3025e-05
-8.2261e-05
-8.04856e-05
-7.772e-05
-7.39807e-05
-6.92805e-05
-6.36283e-05
-5.70302e-05
-4.949e-05
-4.10089e-05
-3.1587e-05
-2.12228e-05
-9.91402e-06
2.34241e-06
1.55501e-05
2.97132e-05
4.48357e-05
6.09222e-05
7.79769e-05
9.60044e-05
0.000115009
0.000134995
0.000155965
0.000177924
0.000200875
0.000224821
0.000249765
0.000275708
0.000302653
0.000330602
0.000359554
0.00038951
0.000420469
0.000452431
0.000485393
0.000519352
0.000554306
0.000590249
0.000627176
0.00066508
0.000703954
0.000743789
0.000784576
0.000826302
0.000868955
0.000912522
0.000956986
0.00100233
0.00104854
0.00109559
0.00114345
0.00119212
0.00124155
0.00129173
0.00134263
0.0013942
0.00144643
0.00149927
0.00155268
0.00160664
0.00166109
0.00171599
0.00177131
0.00182698
0.00188296
0.00193921
0.00199566
0.00205225
0.00210895
0.00216567
0.00222237
0.00227897
0.00233543
0.00239166
0.00244761
0.0025032
0.00255837
0.00261305
0.00266716
0.00272064
0.00277341
0.00282541
0.00287656
0.00292679
0.00297603
0.00302421
0.00307127
0.00311712
0.00316172
0.00320499
0.00324687
0.0032873
0.00332622
0.00336358
0.00339932