/*--------------------------------*- C++ -*----------------------------------*\
| =========                 |                                                 |
| \\      /  F ield         | OpenFOAM: The Open Source CFD Toolbox           |
|  \\    /   O peration     | Version:  2112                                  |
|   \\  /    A nd           | Website:  www.openfoam.com                      |
|    \\/     M anipulation  |                                                 |
\*---------------------------------------------------------------------------*/
FoamFile
{
    version     2.0;
    format      ascii;
    arch        "LSB;label=32;scalar=64";
    class       surfaceScalarField;
    location    "2";
    object      phi;
}
// * * * * * * * * * * * * * * * * * * * * * * * * * * * * * * * * * * * * * //

dimensions      [0 3 -1 0 0 0 0];

oriented        oriented;

internalField   nonuniform List<scalar> 
33024
(
2.53067e-09
-2.53221e-09
3.79107e-09
-1.26041e-09
1.45483e-09
2.33624e-09
-4.88929e-09
6.34425e-09
-1.50708e-08
1.01816e-08
-2.86373e-08
1.35665e-08
-4.50584e-08
1.64211e-08
-6.38158e-08
1.87574e-08
-8.44372e-08
2.06213e-08
-1.06509e-07
2.20714e-08
-1.29677e-07
2.31688e-08
-1.5365e-07
2.39724e-08
-1.78186e-07
2.45367e-08
-2.03097e-07
2.49103e-08
-2.28232e-07
2.51352e-08
-2.53479e-07
2.52462e-08
-2.78751e-07
2.52722e-08
-3.03986e-07
2.52358e-08
-3.29141e-07
2.51546e-08
-3.54183e-07
2.50418e-08
-3.7909e-07
2.49067e-08
-4.03846e-07
2.47559e-08
-4.28439e-07
2.45935e-08
-4.52862e-07
2.44222e-08
-4.77105e-07
2.42432e-08
-5.01162e-07
2.40572e-08
-5.25026e-07
2.38641e-08
-5.48689e-07
2.36634e-08
-5.72144e-07
2.34547e-08
-5.95381e-07
2.32373e-08
-6.18391e-07
2.30105e-08
-6.41165e-07
2.27736e-08
-6.63691e-07
2.25261e-08
-6.85959e-07
2.22674e-08
-7.07955e-07
2.19969e-08
-7.2967e-07
2.17141e-08
-7.51088e-07
2.14185e-08
-7.72198e-07
2.11096e-08
-7.92985e-07
2.0787e-08
-8.13435e-07
2.04503e-08
-8.33534e-07
2.0099e-08
-8.53267e-07
1.97328e-08
-8.72618e-07
1.93512e-08
-8.91572e-07
1.89538e-08
-9.10112e-07
1.85403e-08
-9.28222e-07
1.81104e-08
-9.45885e-07
1.76635e-08
-9.63085e-07
1.71995e-08
-9.79803e-07
1.6718e-08
-9.96022e-07
1.62187e-08
-1.01172e-06
1.57013e-08
-1.02689e-06
1.51655e-08
-1.0415e-06
1.46111e-08
-1.05554e-06
1.40379e-08
-1.06898e-06
1.34455e-08
-1.08182e-06
1.28338e-08
-1.09402e-06
1.22027e-08
-1.10557e-06
1.15521e-08
-1.11645e-06
1.08818e-08
-1.12664e-06
1.01918e-08
-1.13613e-06
9.4821e-09
-1.14488e-06
8.75273e-09
-1.15288e-06
8.00376e-09
-1.16012e-06
7.23531e-09
-1.16657e-06
6.44754e-09
-1.17221e-06
5.6407e-09
-1.17702e-06
4.81508e-09
-1.18099e-06
3.97099e-09
-1.1841e-06
3.10884e-09
-1.18633e-06
2.22905e-09
-1.18766e-06
1.33214e-09
-1.18808e-06
4.18692e-10
-1.18757e-06
-5.10636e-10
-1.18612e-06
-1.45511e-09
-1.1837e-06
-2.41395e-09
-1.18032e-06
-3.3863e-09
-1.17594e-06
-4.37125e-09
-1.17058e-06
-5.3678e-09
-1.1642e-06
-6.37489e-09
-1.15681e-06
-7.3914e-09
-1.14839e-06
-8.41613e-09
-1.13895e-06
-9.44783e-09
-1.12846e-06
-1.04852e-08
-1.11693e-06
-1.15268e-08
-1.10436e-06
-1.25712e-08
-1.09075e-06
-1.3617e-08
-1.07608e-06
-1.46625e-08
-1.06038e-06
-1.57063e-08
-1.04363e-06
-1.67466e-08
-1.02585e-06
-1.77819e-08
-1.00704e-06
-1.88105e-08
-9.87208e-07
-1.98306e-08
-9.66367e-07
-2.08405e-08
-9.44529e-07
-2.18386e-08
-9.21705e-07
-2.28233e-08
-8.97912e-07
-2.37928e-08
-8.73167e-07
-2.47453e-08
-8.47488e-07
-2.56793e-08
-8.20895e-07
-2.65931e-08
-7.9341e-07
-2.7485e-08
-7.65057e-07
-2.83535e-08
-7.3586e-07
-2.91966e-08
-7.05847e-07
-3.00126e-08
-6.75048e-07
-3.07992e-08
-6.43494e-07
-3.15539e-08
-6.11221e-07
-3.22733e-08
-5.78268e-07
-3.29533e-08
-5.44679e-07
-3.35886e-08
-5.10507e-07
-3.41723e-08
-4.75812e-07
-3.46952e-08
-4.40666e-07
-3.51455e-08
-4.05158e-07
-3.55079e-08
-3.69395e-07
-3.57631e-08
-3.33508e-07
-3.58873e-08
-2.97656e-07
-3.58511e-08
-2.62037e-07
-3.5619e-08
-2.26888e-07
-3.5149e-08
-1.92496e-07
-3.4392e-08
-1.59205e-07
-3.32914e-08
-1.27421e-07
-3.17834e-08
-9.76244e-08
-2.97969e-08
-7.03694e-08
-2.72549e-08
-4.62918e-08
-2.40776e-08
-2.61014e-08
-2.01905e-08
-1.05556e-08
-1.55458e-08
-3.56852e-10
-1.01986e-08
4.17613e-09
-4.53278e-09
3.34354e-09
8.3275e-10
3.34366e-09
1.26681e-09
-3.79902e-09
-2.46785e-09
2.47422e-09
-1.42392e-08
1.41074e-08
-3.5086e-08
2.7191e-08
-6.48373e-08
3.99329e-08
-1.02744e-07
5.14735e-08
-1.47783e-07
6.14602e-08
-1.98849e-07
6.98232e-08
-2.54864e-07
7.66362e-08
-3.14836e-07
8.20435e-08
-3.77888e-07
8.62197e-08
-4.43263e-07
8.93473e-08
-5.10329e-07
9.16027e-08
-5.78567e-07
9.31489e-08
-6.47562e-07
9.41303e-08
-7.16987e-07
9.46709e-08
-7.86589e-07
9.48741e-08
-8.56177e-07
9.48233e-08
-9.25606e-07
9.45845e-08
-9.94773e-07
9.42079e-08
-1.0636e-06
9.37307e-08
-1.13202e-06
9.31793e-08
-1.2e-06
9.25721e-08
-1.2675e-06
9.19205e-08
-1.33449e-06
9.12316e-08
-1.40094e-06
9.05089e-08
-1.46683e-06
8.97537e-08
-1.53213e-06
8.89659e-08
-1.59682e-06
8.81443e-08
-1.66087e-06
8.72873e-08
-1.72425e-06
8.63929e-08
-1.78694e-06
8.54592e-08
-1.84889e-06
8.44843e-08
-1.91009e-06
8.34662e-08
-1.9705e-06
8.24032e-08
-2.03008e-06
8.12934e-08
-2.0888e-06
8.01354e-08
-2.14661e-06
7.89273e-08
-2.20349e-06
7.76679e-08
-2.2594e-06
7.63556e-08
-2.31429e-06
7.4989e-08
-2.36812e-06
7.35668e-08
-2.42086e-06
7.20876e-08
-2.47246e-06
7.05501e-08
-2.52287e-06
6.8953e-08
-2.57205e-06
6.72952e-08
-2.61996e-06
6.55754e-08
-2.66656e-06
6.37927e-08
-2.71179e-06
6.19459e-08
-2.7556e-06
6.00341e-08
-2.79796e-06
5.80563e-08
-2.8388e-06
5.60115e-08
-2.87809e-06
5.3899e-08
-2.91577e-06
5.17179e-08
-2.95179e-06
4.94676e-08
-2.9861e-06
4.71476e-08
-3.01866e-06
4.47574e-08
-3.0494e-06
4.22967e-08
-3.07829e-06
3.97653e-08
-3.10526e-06
3.71632e-08
-3.13027e-06
3.44902e-08
-3.15326e-06
3.17468e-08
-3.17419e-06
2.89332e-08
-3.19301e-06
2.60501e-08
-3.20966e-06
2.3098e-08
-3.22409e-06
2.0078e-08
-3.23627e-06
1.69911e-08
-3.24614e-06
1.38386e-08
-3.25365e-06
1.0622e-08
-3.25876e-06
7.34297e-09
-3.26143e-06
4.00349e-09
-3.26162e-06
6.05715e-10
-3.25928e-06
-2.84789e-09
-3.25439e-06
-6.35472e-09
-3.24689e-06
-9.91187e-09
-3.23676e-06
-1.35162e-08
-3.22396e-06
-1.71644e-08
-3.20848e-06
-2.08528e-08
-3.19028e-06
-2.45777e-08
-3.16933e-06
-2.83348e-08
-3.14563e-06
-3.21199e-08
-3.11915e-06
-3.59284e-08
-3.08988e-06
-3.97556e-08
-3.05781e-06
-4.35965e-08
-3.02293e-06
-4.74459e-08
-2.98525e-06
-5.12985e-08
-2.94477e-06
-5.51487e-08
-2.90148e-06
-5.89908e-08
-2.85541e-06
-6.2819e-08
-2.80656e-06
-6.66274e-08
-2.75496e-06
-7.041e-08
-2.70063e-06
-7.41607e-08
-2.6436e-06
-7.78735e-08
-2.5839e-06
-8.1542e-08
-2.52156e-06
-8.51602e-08
-2.45663e-06
-8.87221e-08
-2.38916e-06
-9.22214e-08
-2.31918e-06
-9.56522e-08
-2.24677e-06
-9.90082e-08
-2.17197e-06
-1.02283e-07
-2.09485e-06
-1.05471e-07
-2.01548e-06
-1.08564e-07
-1.93394e-06
-1.11556e-07
-1.8503e-06
-1.14437e-07
-1.76466e-06
-1.17196e-07
-1.67711e-06
-1.19822e-07
-1.58777e-06
-1.22297e-07
-1.49676e-06
-1.24599e-07
-1.40423e-06
-1.26702e-07
-1.31035e-06
-1.28569e-07
-1.21534e-06
-1.30156e-07
-1.11945e-06
-1.31405e-07
-1.02297e-06
-1.32244e-07
-9.26268e-07
-1.32584e-07
-8.29801e-07
-1.32318e-07
-7.341e-07
-1.3132e-07
-6.39809e-07
-1.2944e-07
-5.47693e-07
-1.26508e-07
-4.58652e-07
-1.22333e-07
-3.7373e-07
-1.16705e-07
-2.94122e-07
-1.09405e-07
-2.21169e-07
-1.00208e-07
-1.56332e-07
-8.89142e-08
-1.0114e-07
-7.53828e-08
-5.706e-08
-5.96252e-08
-2.52651e-08
-4.19933e-08
-6.31013e-09
-2.34875e-08
8.2818e-10
-6.30529e-09
4.17192e-09
-2.33772e-09
-1.46128e-09
-1.41508e-08
1.42875e-08
-3.79265e-08
3.7883e-08
-7.44534e-08
6.37178e-08
-1.23472e-07
8.89521e-08
-1.84055e-07
1.12056e-07
-2.54904e-07
1.32309e-07
-3.34572e-07
1.49492e-07
-4.21604e-07
1.63668e-07
-5.14619e-07
1.75059e-07
-6.12368e-07
1.83969e-07
-7.13754e-07
1.90733e-07
-8.17839e-07
1.95687e-07
-9.23841e-07
1.99151e-07
-1.03112e-06
2.01411e-07
-1.13917e-06
2.02719e-07
-1.24758e-06
2.03286e-07
-1.35605e-06
2.03288e-07
-1.46432e-06
2.02863e-07
-1.57223e-06
2.02118e-07
-1.67964e-06
2.01135e-07
-1.78643e-06
1.99973e-07
-1.89253e-06
1.98673e-07
-1.99788e-06
1.97262e-07
-2.1024e-06
1.95759e-07
-2.20607e-06
1.94172e-07
-2.30882e-06
1.92507e-07
-2.41062e-06
1.90766e-07
-2.51142e-06
1.88946e-07
-2.61118e-06
1.87046e-07
-2.70985e-06
1.85062e-07
-2.80738e-06
1.82992e-07
-2.90373e-06
1.8083e-07
-2.99884e-06
1.78575e-07
-3.09265e-06
1.76222e-07
-3.18513e-06
1.73769e-07
-3.27621e-06
1.71211e-07
-3.36582e-06
1.68546e-07
-3.45393e-06
1.65771e-07
-3.54045e-06
1.62883e-07
-3.62534e-06
1.59879e-07
-3.70853e-06
1.56757e-07
-3.78996e-06
1.53514e-07
-3.86956e-06
1.50147e-07
-3.94726e-06
1.46655e-07
-4.023e-06
1.43034e-07
-4.0967e-06
1.39282e-07
-4.16831e-06
1.35398e-07
-4.23774e-06
1.3138e-07
-4.30493e-06
1.27224e-07
-4.36981e-06
1.22931e-07
-4.43229e-06
1.18497e-07
-4.49232e-06
1.13921e-07
-4.5498e-06
1.09203e-07
-4.60467e-06
1.0434e-07
-4.65686e-06
9.93314e-08
-4.70628e-06
9.41773e-08
-4.75286e-06
8.88768e-08
-4.79652e-06
8.34295e-08
-4.83719e-06
7.78355e-08
-4.8748e-06
7.20951e-08
-4.90926e-06
6.62089e-08
-4.9405e-06
6.01779e-08
-4.96846e-06
5.40033e-08
-4.99305e-06
4.76868e-08
-5.0142e-06
4.12304e-08
-5.03184e-06
3.46366e-08
-5.04591e-06
2.79081e-08
-5.05634e-06
2.10482e-08
-5.06306e-06
1.40606e-08
-5.066e-06
6.94951e-09
-5.06512e-06
-2.80426e-10
-5.06034e-06
-7.62416e-09
-5.05162e-06
-1.5076e-08
-5.0389e-06
-2.26299e-08
-5.02214e-06
-3.02793e-08
-5.00129e-06
-3.80171e-08
-4.9763e-06
-4.58358e-08
-4.94715e-06
-5.37273e-08
-4.9138e-06
-6.16831e-08
-4.87623e-06
-6.96941e-08
-4.83441e-06
-7.77509e-08
-4.78832e-06
-8.58435e-08
-4.73795e-06
-9.39617e-08
-4.68331e-06
-1.02095e-07
-4.62437e-06
-1.10231e-07
-4.56116e-06
-1.1836e-07
-4.49368e-06
-1.26469e-07
-4.42196e-06
-1.34546e-07
-4.34601e-06
-1.42579e-07
-4.26586e-06
-1.50556e-07
-4.18156e-06
-1.58464e-07
-4.09314e-06
-1.6629e-07
-4.00066e-06
-1.74022e-07
-3.90417e-06
-1.81646e-07
-3.80375e-06
-1.8915e-07
-3.69945e-06
-1.96521e-07
-3.59135e-06
-2.03747e-07
-3.47955e-06
-2.10813e-07
-3.36412e-06
-2.17708e-07
-3.24518e-06
-2.24416e-07
-3.12282e-06
-2.30923e-07
-2.99716e-06
-2.37213e-07
-2.86833e-06
-2.43264e-07
-2.73648e-06
-2.49055e-07
-2.60174e-06
-2.54555e-07
-2.46431e-06
-2.59728e-07
-2.32438e-06
-2.64527e-07
-2.18219e-06
-2.68892e-07
-2.03802e-06
-2.72745e-07
-1.89219e-06
-2.7599e-07
-1.74509e-06
-2.78502e-07
-1.5972e-06
-2.80132e-07
-1.44909e-06
-2.80692e-07
-1.30145e-06
-2.79962e-07
-1.15509e-06
-2.77681e-07
-1.01098e-06
-2.73548e-07
-8.70264e-07
-2.67222e-07
-7.34268e-07
-2.58329e-07
-6.04503e-07
-2.4647e-07
-4.82669e-07
-2.31238e-07
-3.70632e-07
-2.12245e-07
-2.70371e-07
-1.89175e-07
-1.83887e-07
-1.61867e-07
-1.13038e-07
-1.30474e-07
-5.92874e-08
-9.5744e-08
-2.33145e-08
-5.94602e-08
-4.48331e-09
-2.51363e-08
-3.11313e-10
-6.39651e-09
4.93509e-09
-2.74267e-08
3.53178e-08
-6.41452e-08
7.46015e-08
-1.16717e-07
1.1629e-07
-1.84535e-07
1.5677e-07
-2.66431e-07
1.93952e-07
-3.60894e-07
2.26772e-07
-4.66245e-07
2.54843e-07
-5.80781e-07
2.78203e-07
-7.02865e-07
2.97143e-07
-8.30991e-07
3.12095e-07
-9.63819e-07
3.2356e-07
-1.10019e-06
3.32054e-07
-1.23911e-06
3.38073e-07
-1.37977e-06
3.42074e-07
-1.52151e-06
3.4446e-07
-1.6638e-06
3.45576e-07
-1.80622e-06
3.45709e-07
-1.94845e-06
3.4509e-07
-2.09023e-06
3.439e-07
-2.23137e-06
3.42277e-07
-2.37172e-06
3.40323e-07
-2.51116e-06
3.3811e-07
-2.64959e-06
3.3569e-07
-2.78692e-06
3.33093e-07
-2.92309e-06
3.3034e-07
-3.05802e-06
3.27442e-07
-3.19166e-06
3.24403e-07
-3.32394e-06
3.21223e-07
-3.45479e-06
3.179e-07
-3.58416e-06
3.1443e-07
-3.71198e-06
3.10807e-07
-3.83817e-06
3.07028e-07
-3.96268e-06
3.03086e-07
-4.08544e-06
2.98976e-07
-4.20636e-06
2.94694e-07
-4.32538e-06
2.90234e-07
-4.44243e-06
2.85591e-07
-4.55742e-06
2.80761e-07
-4.67028e-06
2.7574e-07
-4.78092e-06
2.70523e-07
-4.88927e-06
2.65106e-07
-4.99524e-06
2.59485e-07
-5.09875e-06
2.53656e-07
-5.19971e-06
2.47616e-07
-5.29804e-06
2.4136e-07
-5.39364e-06
2.34886e-07
-5.48643e-06
2.28189e-07
-5.57632e-06
2.21268e-07
-5.66321e-06
2.14118e-07
-5.74702e-06
2.06738e-07
-5.82765e-06
1.99124e-07
-5.905e-06
1.91275e-07
-5.97899e-06
1.83188e-07
-6.04951e-06
1.74861e-07
-6.11647e-06
1.66294e-07
-6.17978e-06
1.57486e-07
-6.23934e-06
1.48435e-07
-6.29505e-06
1.39142e-07
-6.34682e-06
1.29606e-07
-6.39455e-06
1.1983e-07
-6.43816e-06
1.09813e-07
-6.47754e-06
9.95587e-08
-6.5126e-06
8.90681e-08
-6.54326e-06
7.83447e-08
-6.56942e-06
6.7392e-08
-6.591e-06
5.62142e-08
-6.60791e-06
4.48163e-08
-6.62006e-06
3.32038e-08
-6.62739e-06
2.13831e-08
-6.6298e-06
9.36133e-09
-6.62723e-06
-2.85364e-09
-6.6196e-06
-1.52532e-08
-6.60685e-06
-2.7828e-08
-6.58891e-06
-4.05677e-08
-6.56573e-06
-5.34613e-08
-6.53725e-06
-6.64971e-08
-6.50342e-06
-7.96624e-08
-6.4642e-06
-9.29437e-08
-6.41956e-06
-1.06327e-07
-6.36946e-06
-1.19797e-07
-6.31387e-06
-1.33338e-07
-6.25278e-06
-1.46934e-07
-6.18617e-06
-1.60568e-07
-6.11405e-06
-1.74221e-07
-6.0364e-06
-1.87876e-07
-5.95325e-06
-2.01513e-07
-5.8646e-06
-2.15113e-07
-5.77049e-06
-2.28655e-07
-5.67095e-06
-2.42121e-07
-5.56602e-06
-2.55489e-07
-5.45575e-06
-2.68737e-07
-5.34019e-06
-2.81846e-07
-5.21942e-06
-2.94794e-07
-5.0935e-06
-3.0756e-07
-4.96253e-06
-3.20122e-07
-4.82659e-06
-3.3246e-07
-4.68579e-06
-3.4455e-07
-4.54023e-06
-3.56373e-07
-4.39003e-06
-3.67905e-07
-4.23533e-06
-3.79121e-07
-4.07626e-06
-3.89997e-07
-3.91297e-06
-4.00502e-07
-3.74563e-06
-4.10603e-07
-3.57442e-06
-4.20258e-07
-3.39956e-06
-4.29416e-07
-3.22128e-06
-4.38015e-07
-3.03983e-06
-4.45972e-07
-2.85554e-06
-4.53184e-07
-2.66876e-06
-4.59521e-07
-2.47994e-06
-4.64817e-07
-2.28957e-06
-4.68866e-07
-2.09829e-06
-4.71416e-07
-1.90682e-06
-4.72161e-07
-1.71604e-06
-4.70738e-07
-1.527e-06
-4.66724e-07
-1.34091e-06
-4.59634e-07
-1.15921e-06
-4.48929e-07
-9.83511e-07
-4.34025e-07
-8.15671e-07
-4.14311e-07
-6.5773e-07
-3.89179e-07
-5.11895e-07
-3.58079e-07
-3.80478e-07
-3.20592e-07
-2.65784e-07
-2.76561e-07
-1.6996e-07
-2.26298e-07
-9.47798e-08
-1.70924e-07
-4.13881e-08
-1.12852e-07
-1.0009e-08
-5.65153e-08
-1.03202e-08
-1.034e-08
1.5275e-08
-4.05437e-08
6.55215e-08
-9.01296e-08
1.24187e-07
-1.58374e-07
1.84534e-07
-2.44143e-07
2.42539e-07
-3.45944e-07
2.95753e-07
-4.62032e-07
3.4286e-07
-5.90538e-07
3.83349e-07
-7.29576e-07
4.17241e-07
-8.77331e-07
4.44898e-07
-1.03212e-06
4.66886e-07
-1.19243e-06
4.83874e-07
-1.35695e-06
4.96567e-07
-1.52453e-06
5.05653e-07
-1.69423e-06
5.11772e-07
-1.86526e-06
5.15497e-07
-2.03701e-06
5.1732e-07
-2.20896e-06
5.17656e-07
-2.38071e-06
5.16841e-07
-2.55195e-06
5.15142e-07
-2.72243e-06
5.12763e-07
-2.89197e-06
5.09858e-07
-3.0604e-06
5.06538e-07
-3.22759e-06
5.0288e-07
-3.39343e-06
4.98937e-07
-3.55783e-06
4.94741e-07
-3.7207e-06
4.90312e-07
-3.88196e-06
4.85658e-07
-4.04152e-06
4.80783e-07
-4.1993e-06
4.75684e-07
-4.35523e-06
4.70358e-07
-4.50922e-06
4.64798e-07
-4.66119e-06
4.58999e-07
-4.81106e-06
4.52954e-07
-4.95874e-06
4.46654e-07
-5.10414e-06
4.40095e-07
-5.24717e-06
4.33268e-07
-5.38775e-06
4.26168e-07
-5.52577e-06
4.18788e-07
-5.66116e-06
4.11122e-07
-5.7938e-06
4.03164e-07
-5.9236e-06
3.94909e-07
-6.05046e-06
3.86351e-07
-6.17429e-06
3.77484e-07
-6.29498e-06
3.68304e-07
-6.41243e-06
3.58806e-07
-6.52653e-06
3.48985e-07
-6.63717e-06
3.38836e-07
-6.74426e-06
3.28355e-07
-6.84768e-06
3.17539e-07
-6.94732e-06
3.06383e-07
-7.04309e-06
2.94885e-07
-7.13485e-06
2.83041e-07
-7.22251e-06
2.70848e-07
-7.30596e-06
2.58306e-07
-7.38507e-06
2.45411e-07
-7.45975e-06
2.32164e-07
-7.52988e-06
2.18564e-07
-7.59535e-06
2.0461e-07
-7.65605e-06
1.90303e-07
-7.71186e-06
1.75646e-07
-7.76269e-06
1.6064e-07
-7.80842e-06
1.45288e-07
-7.84894e-06
1.29593e-07
-7.88416e-06
1.13562e-07
-7.91397e-06
9.71989e-08
-7.93826e-06
8.05104e-08
-7.95695e-06
6.35041e-08
-7.96993e-06
4.61884e-08
-7.97712e-06
2.8573e-08
-7.97843e-06
1.06685e-08
-7.97377e-06
-7.51347e-09
-7.96307e-06
-2.596e-08
-7.94624e-06
-4.46571e-08
-7.92321e-06
-6.35896e-08
-7.89393e-06
-8.27413e-08
-7.85834e-06
-1.02095e-07
-7.81637e-06
-1.21631e-07
-7.76798e-06
-1.41331e-07
-7.71313e-06
-1.61174e-07
-7.65179e-06
-1.81137e-07
-7.58393e-06
-2.01197e-07
-7.50954e-06
-2.21331e-07
-7.42859e-06
-2.41514e-07
-7.34109e-06
-2.61718e-07
-7.24705e-06
-2.81918e-07
-7.14648e-06
-3.02086e-07
-7.0394e-06
-3.22193e-07
-6.92584e-06
-3.4221e-07
-6.80586e-06
-3.62107e-07
-6.67949e-06
-3.81855e-07
-6.54681e-06
-4.01423e-07
-6.40787e-06
-4.2078e-07
-6.26277e-06
-4.39895e-07
-6.11159e-06
-4.58738e-07
-5.95444e-06
-4.77276e-07
-5.79142e-06
-4.95479e-07
-5.62266e-06
-5.13314e-07
-5.44828e-06
-5.3075e-07
-5.26843e-06
-5.47751e-07
-5.08327e-06
-5.64282e-07
-4.89297e-06
-5.80304e-07
-4.6977e-06
-5.95771e-07
-4.49767e-06
-6.10633e-07
-4.2931e-06
-6.24825e-07
-4.08424e-06
-6.38272e-07
-3.87138e-06
-6.50877e-07
-3.65484e-06
-6.62516e-07
-3.43498e-06
-6.73037e-07
-3.21226e-06
-6.82242e-07
-2.98719e-06
-6.89889e-07
-2.76038e-06
-6.95674e-07
-2.53257e-06
-6.9923e-07
-2.30461e-06
-7.00113e-07
-2.07755e-06
-6.97801e-07
-1.85259e-06
-6.91688e-07
-1.63113e-06
-6.8109e-07
-1.41481e-06
-6.65251e-07
-1.20547e-06
-6.43363e-07
-1.00519e-06
-6.14591e-07
-8.16241e-07
-5.78128e-07
-6.41065e-07
-5.33256e-07
-4.82201e-07
-4.79456e-07
-3.42198e-07
-4.16563e-07
-2.23493e-07
-3.45003e-07
-1.2827e-07
-2.66146e-07
-5.83477e-08
-1.82774e-07
-1.51406e-08
-9.97223e-08
-2.54607e-08
-1.38894e-08
2.91644e-08
-5.26531e-08
1.04285e-07
-1.14372e-07
1.85906e-07
-1.97366e-07
2.67528e-07
-2.99885e-07
3.45058e-07
-4.20038e-07
4.15905e-07
-5.55815e-07
4.78637e-07
-7.05156e-07
5.32689e-07
-8.66018e-07
5.78104e-07
-1.03645e-06
6.15332e-07
-1.21465e-06
6.45081e-07
-1.39897e-06
6.68198e-07
-1.58799e-06
6.85582e-07
-1.78046e-06
6.98121e-07
-1.97533e-06
7.06646e-07
-2.17174e-06
7.11908e-07
-2.36898e-06
7.14559e-07
-2.56647e-06
7.15149e-07
-2.76376e-06
7.14129e-07
-2.96048e-06
7.1186e-07
-3.15634e-06
7.08621e-07
-3.3511e-06
7.04622e-07
-3.54458e-06
7.00018e-07
-3.73662e-06
6.9492e-07
-3.92709e-06
6.89402e-07
-4.11586e-06
6.83512e-07
-4.30283e-06
6.7728e-07
-4.48789e-06
6.70722e-07
-4.67095e-06
6.63845e-07
-4.85192e-06
6.56648e-07
-5.03069e-06
6.49128e-07
-5.20717e-06
6.41279e-07
-5.38126e-06
6.33094e-07
-5.55287e-06
6.24563e-07
-5.7219e-06
6.15679e-07
-5.88823e-06
6.06433e-07
-6.05178e-06
5.96817e-07
-6.21244e-06
5.86823e-07
-6.3701e-06
5.76443e-07
-6.52464e-06
5.65669e-07
-6.67597e-06
5.54494e-07
-6.82397e-06
5.4291e-07
-6.96853e-06
5.30911e-07
-7.10954e-06
5.1849e-07
-7.24688e-06
5.0564e-07
-7.38043e-06
4.92356e-07
-7.51007e-06
4.7863e-07
-7.6357e-06
4.64459e-07
-7.75718e-06
4.49836e-07
-7.87439e-06
4.34756e-07
-7.98722e-06
4.19216e-07
-8.09555e-06
4.0321e-07
-8.19925e-06
3.86736e-07
-8.29819e-06
3.69791e-07
-8.39225e-06
3.52372e-07
-8.48132e-06
3.34477e-07
-8.56526e-06
3.16106e-07
-8.64396e-06
2.97259e-07
-8.71728e-06
2.77935e-07
-8.78512e-06
2.58137e-07
-8.84734e-06
2.37867e-07
-8.90383e-06
2.17128e-07
-8.95446e-06
1.95926e-07
-8.99913e-06
1.74264e-07
-9.03772e-06
1.52151e-07
-9.07012e-06
1.29593e-07
-9.09621e-06
1.06601e-07
-9.11589e-06
8.31842e-08
-9.12906e-06
5.93551e-08
-9.13561e-06
3.51266e-08
-9.13545e-06
1.05137e-08
-9.1285e-06
-1.44677e-08
-9.11466e-06
-3.97999e-08
-9.09385e-06
-6.54637e-08
-9.066e-06
-9.14384e-08
-9.03104e-06
-1.17702e-07
-8.98891e-06
-1.4423e-07
-8.93954e-06
-1.70998e-07
-8.88289e-06
-1.97979e-07
-8.81892e-06
-2.25144e-07
-8.7476e-06
-2.52464e-07
-8.66889e-06
-2.79907e-07
-8.58278e-06
-3.07441e-07
-8.48926e-06
-3.35032e-07
-8.38833e-06
-3.62644e-07
-8.28001e-06
-3.90242e-07
-8.16431e-06
-4.17787e-07
-8.04126e-06
-4.45242e-07
-7.91091e-06
-4.72566e-07
-7.77329e-06
-4.99721e-07
-7.62848e-06
-5.26665e-07
-7.47655e-06
-5.53358e-07
-7.31757e-06
-5.79757e-07
-7.15164e-06
-6.05821e-07
-6.97887e-06
-6.31508e-07
-6.79937e-06
-6.56775e-07
-6.61327e-06
-6.8158e-07
-6.42071e-06
-7.05878e-07
-6.22183e-06
-7.29625e-07
-6.01681e-06
-7.52774e-07
-5.80582e-06
-7.75276e-07
-5.58905e-06
-7.97075e-07
-5.36671e-06
-8.18109e-07
-5.13904e-06
-8.38306e-07
-4.90628e-06
-8.57578e-07
-4.66874e-06
-8.75817e-07
-4.42673e-06
-8.9289e-07
-4.18061e-06
-9.08628e-07
-3.93083e-06
-9.22818e-07
-3.67788e-06
-9.35193e-07
-3.42235e-06
-9.45422e-07
-3.16493e-06
-9.53097e-07
-2.90644e-06
-9.57722e-07
-2.64784e-06
-9.58705e-07
-2.39029e-06
-9.55353e-07
-2.13511e-06
-9.46868e-07
-1.88385e-06
-9.32354e-07
-1.63827e-06
-9.10829e-07
-1.40038e-06
-8.81253e-07
-1.17241e-06
-8.42565e-07
-9.56788e-07
-7.93746e-07
-7.56135e-07
-7.33908e-07
-5.73179e-07
-6.62412e-07
-4.10701e-07
-5.79042e-07
-2.71455e-07
-4.84249e-07
-1.58112e-07
-3.79488e-07
-7.32577e-08
-2.67629e-07
-1.9508e-08
-1.53472e-07
-4.49688e-08
-1.69627e-08
4.61271e-08
-6.33922e-08
1.50715e-07
-1.36134e-07
2.58648e-07
-2.32602e-07
3.63996e-07
-3.50407e-07
4.62863e-07
-4.87224e-07
5.52722e-07
-6.40752e-07
6.32165e-07
-8.08725e-07
7.00662e-07
-9.88953e-07
7.58332e-07
-1.17937e-06
8.05747e-07
-1.37806e-06
8.43774e-07
-1.58331e-06
8.73447e-07
-1.7936e-06
8.95868e-07
-2.00761e-06
9.1213e-07
-2.22422e-06
9.23262e-07
-2.44251e-06
9.30198e-07
-2.6617e-06
9.33754e-07
-2.88118e-06
9.34624e-07
-3.10043e-06
9.33379e-07
-3.31905e-06
9.30478e-07
-3.5367e-06
9.26279e-07
-3.75314e-06
9.21056e-07
-3.96813e-06
9.15011e-07
-4.1815e-06
9.08288e-07
-4.39309e-06
9.00989e-07
-4.60275e-06
8.93179e-07
-4.81038e-06
8.84901e-07
-5.01583e-06
8.76179e-07
-5.21901e-06
8.67023e-07
-5.4198e-06
8.57438e-07
-5.61809e-06
8.4742e-07
-5.81378e-06
8.36964e-07
-6.00674e-06
8.26061e-07
-6.19688e-06
8.14702e-07
-6.38408e-06
8.02878e-07
-6.56823e-06
7.90578e-07
-6.7492e-06
7.77794e-07
-6.92689e-06
7.64515e-07
-7.10118e-06
7.50732e-07
-7.27195e-06
7.36436e-07
-7.43907e-06
7.21618e-07
-7.60243e-06
7.06269e-07
-7.7619e-06
6.90382e-07
-7.91736e-06
6.73947e-07
-8.06868e-06
6.56957e-07
-8.21573e-06
6.39406e-07
-8.35838e-06
6.21285e-07
-8.49651e-06
6.02588e-07
-8.62999e-06
5.8331e-07
-8.75867e-06
5.63443e-07
-8.88244e-06
5.42984e-07
-9.00116e-06
5.21928e-07
-9.11469e-06
5.00269e-07
-9.22291e-06
4.78007e-07
-9.32567e-06
4.55137e-07
-9.42286e-06
4.31659e-07
-9.51432e-06
4.07571e-07
-9.59994e-06
3.82874e-07
-9.67957e-06
3.5757e-07
-9.75309e-06
3.3166e-07
-9.82038e-06
3.05148e-07
-9.88129e-06
2.7804e-07
-9.9357e-06
2.50341e-07
-9.9835e-06
2.22059e-07
-1.00245e-05
1.93203e-07
-1.00587e-05
1.63783e-07
-1.0086e-05
1.33812e-07
-1.01061e-05
1.03305e-07
-1.0119e-05
7.22749e-08
-1.01246e-05
4.0741e-08
-1.01228e-05
8.72188e-09
-1.01135e-05
-2.37613e-08
-1.00966e-05
-5.66858e-08
-1.00721e-05
-9.00265e-08
-1.00398e-05
-1.23757e-07
-9.99961e-06
-1.57848e-07
-9.95157e-06
-1.92269e-07
-9.89558e-06
-2.26988e-07
-9.83159e-06
-2.61969e-07
-9.75955e-06
-2.97177e-07
-9.67945e-06
-3.32574e-07
-9.59124e-06
-3.68118e-07
-9.49491e-06
-4.03768e-07
-9.39046e-06
-4.3948e-07
-9.27789e-06
-4.7521e-07
-9.15722e-06
-5.10911e-07
-9.02848e-06
-5.46535e-07
-8.89169e-06
-5.82032e-07
-8.7469e-06
-6.17352e-07
-8.59418e-06
-6.52445e-07
-8.43358e-06
-6.87257e-07
-8.2652e-06
-7.21737e-07
-8.08913e-06
-7.55831e-07
-7.90547e-06
-7.89485e-07
-7.71433e-06
-8.22645e-07
-7.51585e-06
-8.55257e-07
-7.31016e-06
-8.87264e-07
-7.09743e-06
-9.18612e-07
-6.87781e-06
-9.49241e-07
-6.6515e-06
-9.7909e-07
-6.41868e-06
-1.00809e-06
-6.17957e-06
-1.03618e-06
-5.93441e-06
-1.06327e-06
-5.68345e-06
-1.08927e-06
-5.42697e-06
-1.11405e-06
-5.1653e-06
-1.13749e-06
-4.89879e-06
-1.1594e-06
-4.62785e-06
-1.17957e-06
-4.35295e-06
-1.19771e-06
-4.07464e-06
-1.2135e-06
-3.79357e-06
-1.22649e-06
-3.51049e-06
-1.23618e-06
-3.22628e-06
-1.24193e-06
-2.94199e-06
-1.243e-06
-2.65883e-06
-1.2385e-06
-2.37824e-06
-1.22746e-06
-2.10185e-06
-1.20875e-06
-1.83153e-06
-1.18115e-06
-1.56938e-06
-1.1434e-06
-1.31776e-06
-1.09419e-06
-1.07922e-06
-1.03229e-06
-8.5651e-07
-9.56615e-07
-6.52546e-07
-8.66375e-07
-4.70348e-07
-7.6124e-07
-3.13016e-07
-6.41581e-07
-1.83739e-07
-5.08766e-07
-8.58604e-08
-3.65507e-07
-2.30868e-08
-2.16245e-07
-6.80555e-08
-1.95632e-08
6.56904e-08
-7.26666e-08
2.03818e-07
-1.55153e-07
3.41134e-07
-2.63629e-07
4.72472e-07
-3.95103e-07
5.94337e-07
-5.46814e-07
7.04434e-07
-7.16156e-07
8.01506e-07
-9.00648e-07
8.85155e-07
-1.09795e-06
9.55635e-07
-1.30588e-06
1.01368e-06
-1.52245e-06
1.06034e-06
-1.74587e-06
1.09686e-06
-1.97454e-06
1.12455e-06
-2.20712e-06
1.1447e-06
-2.44243e-06
1.15857e-06
-2.67949e-06
1.16726e-06
-2.91749e-06
1.17176e-06
-3.15577e-06
1.17291e-06
-3.3938e-06
1.1714e-06
-3.63112e-06
1.1678e-06
-3.8674e-06
1.16255e-06
-4.10232e-06
1.15598e-06
-4.33567e-06
1.14835e-06
-4.56722e-06
1.13984e-06
-4.79681e-06
1.13058e-06
-5.02428e-06
1.12065e-06
-5.24949e-06
1.11011e-06
-5.4723e-06
1.09899e-06
-5.69258e-06
1.08731e-06
-5.91022e-06
1.07508e-06
-6.12509e-06
1.06229e-06
-6.33707e-06
1.04894e-06
-6.54604e-06
1.03503e-06
-6.75188e-06
1.02054e-06
-6.95446e-06
1.00546e-06
-7.15366e-06
9.89781e-07
-7.34936e-06
9.73493e-07
-7.54143e-06
9.56583e-07
-7.72974e-06
9.39043e-07
-7.91416e-06
9.2086e-07
-8.09457e-06
9.02024e-07
-8.27083e-06
8.82527e-07
-8.4428e-06
8.62358e-07
-8.61036e-06
8.41507e-07
-8.77337e-06
8.19967e-07
-8.9317e-06
7.97729e-07
-9.08519e-06
7.74784e-07
-9.23373e-06
7.51125e-07
-9.37717e-06
7.26745e-07
-9.51536e-06
7.01638e-07
-9.64817e-06
6.75798e-07
-9.77547e-06
6.4922e-07
-9.8971e-06
6.21899e-07
-1.00129e-05
5.93833e-07
-1.01228e-05
5.65019e-07
-1.02266e-05
5.35455e-07
-1.03242e-05
5.05142e-07
-1.04154e-05
4.7408e-07
-1.05001e-05
4.42272e-07
-1.05781e-05
4.0972e-07
-1.06494e-05
3.76431e-07
-1.07138e-05
3.4241e-07
-1.07711e-05
3.07666e-07
-1.08213e-05
2.72209e-07
-1.08641e-05
2.36051e-07
-1.08995e-05
1.99204e-07
-1.09274e-05
1.61685e-07
-1.09476e-05
1.23511e-07
-1.096e-05
8.47018e-08
-1.09646e-05
4.52793e-08
-1.09611e-05
5.26748e-09
-1.09496e-05
-3.53074e-08
-1.09299e-05
-7.64168e-08
-1.09018e-05
-1.1803e-07
-1.08655e-05
-1.60112e-07
-1.08207e-05
-2.0263e-07
-1.07674e-05
-2.45543e-07
-1.07056e-05
-2.88813e-07
-1.06352e-05
-3.32395e-07
-1.05561e-05
-3.76246e-07
-1.04684e-05
-4.20317e-07
-1.03719e-05
-4.64558e-07
-1.02668e-05
-5.08919e-07
-1.01529e-05
-5.53345e-07
-1.00303e-05
-5.97781e-07
-9.89909e-06
-6.42169e-07
-9.75917e-06
-6.86451e-07
-9.61064e-06
-7.30564e-07
-9.45354e-06
-7.74448e-07
-9.28795e-06
-8.1804e-07
-9.11393e-06
-8.61274e-07
-8.93158e-06
-9.04087e-07
-8.741e-06
-9.46412e-07
-8.5423e-06
-9.88183e-07
-8.33562e-06
-1.02933e-06
-8.12108e-06
-1.06979e-06
-7.89885e-06
-1.1095e-06
-7.66909e-06
-1.14837e-06
-7.43198e-06
-1.18635e-06
-7.18772e-06
-1.22335e-06
-6.93652e-06
-1.25929e-06
-6.67862e-06
-1.29408e-06
-6.41427e-06
-1.32762e-06
-6.14375e-06
-1.35979e-06
-5.86736e-06
-1.39044e-06
-5.58545e-06
-1.4194e-06
-5.2984e-06
-1.44645e-06
-5.00665e-06
-1.47131e-06
-4.71072e-06
-1.49365e-06
-4.41118e-06
-1.51304e-06
-4.10873e-06
-1.52895e-06
-3.80415e-06
-1.54076e-06
-3.49839e-06
-1.54769e-06
-3.19255e-06
-1.54884e-06
-2.8879e-06
-1.54315e-06
-2.58593e-06
-1.52943e-06
-2.28834e-06
-1.50634e-06
-1.99707e-06
-1.47242e-06
-1.71432e-06
-1.42615e-06
-1.44251e-06
-1.366e-06
-1.1843e-06
-1.29049e-06
-9.42586e-07
-1.19833e-06
-7.20451e-07
-1.08851e-06
-5.21163e-07
-9.60528e-07
-3.48181e-07
-8.14563e-07
-2.05195e-07
-6.51752e-07
-9.62469e-08
-4.74455e-07
-2.59573e-08
-2.86535e-07
-9.40128e-08
-2.17267e-08
8.74173e-08
-8.05189e-08
2.6261e-07
-1.71432e-07
4.32047e-07
-2.90395e-07
5.91435e-07
-4.33873e-07
7.37815e-07
-5.98694e-07
8.69255e-07
-7.81949e-07
9.84761e-07
-9.80942e-07
1.08415e-06
-1.19318e-06
1.16787e-06
-1.41637e-06
1.23687e-06
-1.64845e-06
1.29242e-06
-1.88755e-06
1.33597e-06
-2.13206e-06
1.36906e-06
-2.38057e-06
1.39321e-06
-2.63187e-06
1.40987e-06
-2.88495e-06
1.42034e-06
-3.13899e-06
1.42579e-06
-3.39328e-06
1.4272e-06
-3.64726e-06
1.42539e-06
-3.90048e-06
1.42102e-06
-4.15255e-06
1.41462e-06
-4.40316e-06
1.4066e-06
-4.65206e-06
1.39725e-06
-4.89902e-06
1.38681e-06
-5.14386e-06
1.37541e-06
-5.3864e-06
1.36319e-06
-5.62648e-06
1.35019e-06
-5.86397e-06
1.33647e-06
-6.09872e-06
1.32206e-06
-6.33059e-06
1.30695e-06
-6.55946e-06
1.29116e-06
-6.78519e-06
1.27467e-06
-7.00765e-06
1.25749e-06
-7.22672e-06
1.2396e-06
-7.44225e-06
1.22099e-06
-7.65412e-06
1.20165e-06
-7.8622e-06
1.18157e-06
-8.06634e-06
1.16073e-06
-8.26642e-06
1.13912e-06
-8.46229e-06
1.11673e-06
-8.65382e-06
1.09356e-06
-8.84087e-06
1.06958e-06
-9.0233e-06
1.04479e-06
-9.20097e-06
1.01917e-06
-9.37373e-06
9.92728e-07
-9.54144e-06
9.65441e-07
-9.70396e-06
9.37303e-07
-9.86114e-06
9.08306e-07
-1.00128e-05
8.78442e-07
-1.01589e-05
8.47705e-07
-1.02992e-05
8.16088e-07
-1.04336e-05
7.83586e-07
-1.05619e-05
7.50195e-07
-1.06839e-05
7.15911e-07
-1.07996e-05
6.80731e-07
-1.09088e-05
6.44656e-07
-1.10114e-05
6.07685e-07
-1.11071e-05
5.69821e-07
-1.11959e-05
5.31065e-07
-1.12776e-05
4.91424e-07
-1.13521e-05
4.50904e-07
-1.14192e-05
4.09513e-07
-1.14788e-05
3.67261e-07
-1.15307e-05
3.24162e-07
-1.15749e-05
2.8023e-07
-1.16112e-05
2.35481e-07
-1.16395e-05
1.89934e-07
-1.16596e-05
1.43612e-07
-1.16714e-05
9.65376e-08
-1.16749e-05
4.8738e-08
-1.16698e-05
2.42292e-10
-1.16562e-05
-4.89178e-08
-1.16339e-05
-9.87075e-08
-1.16029e-05
-1.49089e-07
-1.1563e-05
-2.00023e-07
-1.15141e-05
-2.51466e-07
-1.14563e-05
-3.03372e-07
-1.13894e-05
-3.55692e-07
-1.13134e-05
-4.08375e-07
-1.12283e-05
-4.61367e-07
-1.1134e-05
-5.14611e-07
-1.10305e-05
-5.68046e-07
-1.09178e-05
-6.21612e-07
-1.07959e-05
-6.75243e-07
-1.06648e-05
-7.28873e-07
-1.05246e-05
-7.82433e-07
-1.03752e-05
-8.35853e-07
-1.02167e-05
-8.89059e-07
-1.00492e-05
-9.41977e-07
-9.87266e-06
-9.94532e-07
-9.68729e-06
-1.04665e-06
-9.49313e-06
-1.09824e-06
-9.2903e-06
-1.14924e-06
-9.07892e-06
-1.19957e-06
-8.85912e-06
-1.24913e-06
-8.63106e-06
-1.29786e-06
-8.39489e-06
-1.34566e-06
-8.1508e-06
-1.39246e-06
-7.89898e-06
-1.43817e-06
-7.63964e-06
-1.48269e-06
-7.37301e-06
-1.52592e-06
-7.09933e-06
-1.56776e-06
-6.81888e-06
-1.60807e-06
-6.53195e-06
-1.64672e-06
-6.23887e-06
-1.68353e-06
-5.94e-06
-1.71827e-06
-5.63574e-06
-1.7507e-06
-5.32658e-06
-1.78048e-06
-5.01303e-06
-1.8072e-06
-4.69571e-06
-1.83035e-06
-4.37535e-06
-1.84932e-06
-4.05276e-06
-1.86334e-06
-3.72893e-06
-1.87152e-06
-3.40499e-06
-1.87278e-06
-3.08226e-06
-1.86588e-06
-2.76227e-06
-1.84942e-06
-2.44678e-06
-1.82183e-06
-2.13777e-06
-1.78143e-06
-1.83749e-06
-1.72643e-06
-1.54845e-06
-1.65504e-06
-1.27342e-06
-1.56553e-06
-1.01541e-06
-1.45634e-06
-7.77674e-07
-1.32624e-06
-5.63741e-07
-1.17446e-06
-3.77409e-07