/*--------------------------------*- C++ -*----------------------------------*\
| =========                 |                                                 |
| \\      /  F ield         | OpenFOAM: The Open Source CFD Toolbox           |
|  \\    /   O peration     | Version:  2112                                  |
|   \\  /    A nd           | Website:  www.openfoam.com                      |
|    \\/     M anipulation  |                                                 |
\*---------------------------------------------------------------------------*/
FoamFile
{
    version     2.0;
    format      ascii;
    arch        "LSB;label=32;scalar=64";
    class       volVectorField;
    location    "2";
    object      U;
}
// * * * * * * * * * * * * * * * * * * * * * * * * * * * * * * * * * * * * * //

dimensions      [0 1 -1 0 0 0 0];

internalField   nonuniform List<vector> 
16641
(
(1.93924e-06 -1.94204e-06 0)
(4.85673e-06 -1.69955e-06 0)
(4.4274e-06 -8.80878e-08 0)
(-1.09966e-06 1.74603e-06 0)
(-1.18485e-05 3.44908e-06 0)
(-2.72931e-05 4.89359e-06 0)
(-4.67726e-05 6.06405e-06 0)
(-6.95982e-05 6.98654e-06 0)
(-9.51223e-05 7.6967e-06 0)
(-0.00012277 8.2298e-06 0)
(-0.000152044 8.61811e-06 0)
(-0.00018253 8.89018e-06 0)
(-0.000213883 9.07077e-06 0)
(-0.000245828 9.18092e-06 0)
(-0.000278149 9.23808e-06 0)
(-0.000310676 9.25635e-06 0)
(-0.000343284 9.2469e-06 0)
(-0.000375879 9.21829e-06 0)
(-0.000408394 9.17692e-06 0)
(-0.00044078 9.12736e-06 0)
(-0.000473004 9.07271e-06 0)
(-0.000505041 9.01494e-06 0)
(-0.000536875 8.95519e-06 0)
(-0.000568494 8.89401e-06 0)
(-0.000599886 8.83158e-06 0)
(-0.000631042 8.76781e-06 0)
(-0.000661954 8.70242e-06 0)
(-0.000692612 8.63507e-06 0)
(-0.000723006 8.56536e-06 0)
(-0.000753125 8.49292e-06 0)
(-0.000782957 8.41741e-06 0)
(-0.000812491 8.33852e-06 0)
(-0.000841713 8.25597e-06 0)
(-0.000870608 8.16948e-06 0)
(-0.000899163 8.0788e-06 0)
(-0.00092736 7.9837e-06 0)
(-0.000955184 7.88395e-06 0)
(-0.000982619 7.77938e-06 0)
(-0.00100965 7.66978e-06 0)
(-0.00103625 7.55498e-06 0)
(-0.00106241 7.43478e-06 0)
(-0.0010881 7.30902e-06 0)
(-0.00111332 7.17752e-06 0)
(-0.00113803 7.04011e-06 0)
(-0.00116222 6.89662e-06 0)
(-0.00118586 6.74689e-06 0)
(-0.00120894 6.59076e-06 0)
(-0.00123143 6.42808e-06 0)
(-0.00125332 6.25871e-06 0)
(-0.00127457 6.08251e-06 0)
(-0.00129516 5.89937e-06 0)
(-0.00131507 5.70916e-06 0)
(-0.00133428 5.51175e-06 0)
(-0.00135277 5.30703e-06 0)
(-0.0013705 5.09488e-06 0)
(-0.00138746 4.8752e-06 0)
(-0.00140361 4.64792e-06 0)
(-0.00141894 4.41298e-06 0)
(-0.00143341 4.17033e-06 0)
(-0.00144701 3.91992e-06 0)
(-0.00145971 3.66173e-06 0)
(-0.00147147 3.39577e-06 0)
(-0.00148229 3.12203e-06 0)
(-0.00149212 2.84054e-06 0)
(-0.00150095 2.55136e-06 0)
(-0.00150876 2.25456e-06 0)
(-0.00151551 1.95025e-06 0)
(-0.00152118 1.63855e-06 0)
(-0.00152575 1.31958e-06 0)
(-0.0015292 9.93495e-07 0)
(-0.0015315 6.60485e-07 0)
(-0.00153263 3.20765e-07 0)
(-0.00153258 -2.5407e-08 0)
(-0.00153132 -3.77762e-07 0)
(-0.00152882 -7.35999e-07 0)
(-0.00152509 -1.09979e-06 0)
(-0.00152009 -1.46879e-06 0)
(-0.00151381 -1.8426e-06 0)
(-0.00150624 -2.22082e-06 0)
(-0.00149736 -2.60301e-06 0)
(-0.00148717 -2.9887e-06 0)
(-0.00147565 -3.37741e-06 0)
(-0.00146279 -3.7686e-06 0)
(-0.00144859 -4.16175e-06 0)
(-0.00143305 -4.55628e-06 0)
(-0.00141616 -4.95162e-06 0)
(-0.00139792 -5.34715e-06 0)
(-0.00137833 -5.74223e-06 0)
(-0.0013574 -6.13624e-06 0)
(-0.00133512 -6.52853e-06 0)
(-0.00131152 -6.91844e-06 0)
(-0.00128659 -7.30527e-06 0)
(-0.00126036 -7.68836e-06 0)
(-0.00123283 -8.06708e-06 0)
(-0.00120401 -8.44077e-06 0)
(-0.00117394 -8.80877e-06 0)
(-0.00114263 -9.17038e-06 0)
(-0.0011101 -9.525e-06 0)
(-0.00107638 -9.87202e-06 0)
(-0.00104149 -1.02109e-05 0)
(-0.00100547 -1.05409e-05 0)
(-0.00096834 -1.08616e-05 0)
(-0.000930142 -1.11722e-05 0)
(-0.000890909 -1.14722e-05 0)
(-0.000850681 -1.17606e-05 0)
(-0.000809501 -1.20366e-05 0)
(-0.000767417 -1.22986e-05 0)
(-0.000724482 -1.25449e-05 0)
(-0.000680759 -1.27735e-05 0)
(-0.000636319 -1.29811e-05 0)
(-0.000591247 -1.31635e-05 0)
(-0.000545645 -1.33153e-05 0)
(-0.000499639 -1.34295e-05 0)
(-0.00045338 -1.34971e-05 0)
(-0.000407054 -1.3507e-05 0)
(-0.00036089 -1.34451e-05 0)
(-0.000315165 -1.32948e-05 0)
(-0.000270217 -1.30357e-05 0)
(-0.00022645 -1.26435e-05 0)
(-0.000184347 -1.20896e-05 0)
(-0.000144479 -1.13401e-05 0)
(-0.000107512 -1.03549e-05 0)
(-7.42177e-05 -9.08698e-06 0)
(-4.54745e-05 -7.48239e-06 0)
(-2.22359e-05 -5.48793e-06 0)
(-5.40732e-06 -3.09896e-06 0)
(4.05884e-06 -4.99785e-07 0)
(6.06542e-06 1.97403e-06 0)
(2.65442e-06 2.66537e-06 0)
(1.70381e-06 -4.86429e-06 0)
(1.38629e-06 -1.38208e-06 0)
(-8.10442e-06 7.02888e-06 0)
(-2.90435e-05 1.66167e-05 0)
(-6.1818e-05 2.5879e-05 0)
(-0.000105727 3.41461e-05 0)
(-0.000159552 4.11911e-05 0)
(-0.000221873 4.70064e-05 0)
(-0.000291257 5.16804e-05 0)
(-0.000366358 5.53417e-05 0)
(-0.000445961 5.81317e-05 0)
(-0.000529012 6.01907e-05 0)
(-0.000614615 6.16502e-05 0)
(-0.000702033 6.26285e-05 0)
(-0.000790665 6.32289e-05 0)
(-0.000880037 6.35386e-05 0)
(-0.00096978 6.36291e-05 0)
(-0.00105961 6.35576e-05 0)
(-0.00114932 6.33686e-05 0)
(-0.00123874 6.30954e-05 0)
(-0.00132777 6.27624e-05 0)
(-0.00141631 6.23864e-05 0)
(-0.0015043 6.19788e-05 0)
(-0.00159169 6.15463e-05 0)
(-0.00167845 6.10928e-05 0)
(-0.00176452 6.06201e-05 0)
(-0.00184989 6.01283e-05 0)
(-0.00193452 5.96167e-05 0)
(-0.00201837 5.90842e-05 0)
(-0.00210142 5.85292e-05 0)
(-0.00218362 5.79502e-05 0)
(-0.00226494 5.73457e-05 0)
(-0.00234535 5.67142e-05 0)
(-0.0024248 5.60542e-05 0)
(-0.00250324 5.53644e-05 0)
(-0.00258064 5.46436e-05 0)
(-0.00265696 5.38905e-05 0)
(-0.00273213 5.31039e-05 0)
(-0.00280613 5.22829e-05 0)
(-0.00287888 5.14263e-05 0)
(-0.00295036 5.05331e-05 0)
(-0.0030205 4.96023e-05 0)
(-0.00308925 4.8633e-05 0)
(-0.00315656 4.76241e-05 0)
(-0.00322237 4.65749e-05 0)
(-0.00328662 4.54843e-05 0)
(-0.00334926 4.43515e-05 0)
(-0.00341023 4.31757e-05 0)
(-0.00346947 4.19562e-05 0)
(-0.00352692 4.06922e-05 0)
(-0.00358252 3.9383e-05 0)
(-0.00363619 3.80279e-05 0)
(-0.0036879 3.66263e-05 0)
(-0.00373756 3.51776e-05 0)
(-0.00378511 3.36812e-05 0)
(-0.00383049 3.21368e-05 0)
(-0.00387364 3.05439e-05 0)
(-0.00391448 2.89024e-05 0)
(-0.00395296 2.72119e-05 0)
(-0.003989 2.54725e-05 0)
(-0.00402254 2.3684e-05 0)
(-0.00405352 2.18466e-05 0)
(-0.00408186 1.99604e-05 0)
(-0.00410751 1.80259e-05 0)
(-0.0041304 1.60434e-05 0)
(-0.00415047 1.40136e-05 0)
(-0.00416765 1.19371e-05 0)
(-0.00418188 9.81481e-06 0)
(-0.00419311 7.64768e-06 0)
(-0.00420127 5.43685e-06 0)
(-0.0042063 3.18362e-06 0)
(-0.00420816 8.89459e-07 0)
(-0.00420678 -1.444e-06 0)
(-0.00420213 -3.81492e-06 0)
(-0.00419414 -6.22135e-06 0)
(-0.00418278 -8.66117e-06 0)
(-0.004168 -1.11321e-05 0)
(-0.00414977 -1.36316e-05 0)
(-0.00412805 -1.61571e-05 0)
(-0.00410281 -1.87057e-05 0)
(-0.00407402 -2.12745e-05 0)
(-0.00404165 -2.38604e-05 0)
(-0.0040057 -2.646e-05 0)
(-0.00396613 -2.90699e-05 0)
(-0.00392296 -3.16866e-05 0)
(-0.00387616 -3.43063e-05 0)
(-0.00382574 -3.69251e-05 0)
(-0.0037717 -3.95393e-05 0)
(-0.00371406 -4.21446e-05 0)
(-0.00365284 -4.47372e-05 0)
(-0.00358804 -4.73126e-05 0)
(-0.00351971 -4.98669e-05 0)
(-0.00344787 -5.23956e-05 0)
(-0.00337256 -5.48947e-05 0)
(-0.00329384 -5.73598e-05 0)
(-0.00321174 -5.97868e-05 0)
(-0.00312632 -6.21714e-05 0)
(-0.00303765 -6.45096e-05 0)
(-0.00294579 -6.67971e-05 0)
(-0.00285082 -6.90298e-05 0)
(-0.00275281 -7.12036e-05 0)
(-0.00265186 -7.33137e-05 0)
(-0.00254805 -7.53554e-05 0)
(-0.00244148 -7.7323e-05 0)
(-0.00233226 -7.92098e-05 0)
(-0.00222052 -8.10074e-05 0)
(-0.00210639 -8.27051e-05 0)
(-0.00199002 -8.42891e-05 0)
(-0.00187158 -8.57415e-05 0)
(-0.00175129 -8.7039e-05 0)
(-0.00162939 -8.81514e-05 0)
(-0.00150617 -8.90402e-05 0)
(-0.00138198 -8.96566e-05 0)
(-0.00125725 -8.99406e-05 0)
(-0.00113251 -8.98183e-05 0)
(-0.00100838 -8.92016e-05 0)
(-0.000885614 -8.79858e-05 0)
(-0.000765123 -8.60496e-05 0)
(-0.000647976 -8.32547e-05 0)
(-0.000535424 -7.94459e-05 0)
(-0.000428912 -7.44539e-05 0)
(-0.000330081 -6.80997e-05 0)
(-0.00024075 -6.02061e-05 0)
(-0.000162876 -5.06235e-05 0)
(-9.84437e-05 -3.9293e-05 0)
(-4.92424e-05 -2.64175e-05 0)
(-1.65326e-05 -1.28209e-05 0)
(-2.49663e-07 -2.51264e-07 0)
(1.95157e-06 6.05967e-06 0)
(9.66454e-08 -4.44711e-06 0)
(-7.05193e-06 8.11288e-06 0)
(-2.95862e-05 2.94972e-05 0)
(-6.84867e-05 5.33994e-05 0)
(-0.000123862 7.6784e-05 0)
(-0.000194908 9.81007e-05 0)
(-0.000280117 0.000116669 0)
(-0.00037766 0.000132312 0)
(-0.000485629 0.000145127 0)
(-0.000602174 0.000155352 0)
(-0.000725587 0.00016329 0)
(-0.00085435 0.000169269 0)
(-0.00098715 0.000173609 0)
(-0.00112288 0.000176609 0)
(-0.00126063 0.000178536 0)
(-0.00139966 0.000179621 0)
(-0.00153939 0.000180057 0)
(-0.00167936 0.000180003 0)
(-0.00181923 0.000179582 0)
(-0.00195872 0.000178891 0)
(-0.00209764 0.000178 0)
(-0.00223583 0.000176962 0)
(-0.00237317 0.000175811 0)
(-0.00250957 0.00017457 0)
(-0.00264495 0.000173254 0)
(-0.00277925 0.000171871 0)
(-0.0029124 0.000170423 0)
(-0.00304435 0.000168911 0)
(-0.00317504 0.000167333 0)
(-0.00330442 0.000165686 0)
(-0.00343242 0.000163968 0)
(-0.00355899 0.000162173 0)
(-0.00368405 0.0001603 0)
(-0.00380756 0.000158345 0)
(-0.00392943 0.000156304 0)
(-0.00404961 0.000154174 0)
(-0.00416802 0.000151952 0)
(-0.00428459 0.000149635 0)
(-0.00439923 0.00014722 0)
(-0.00451189 0.000144706 0)
(-0.00462247 0.000142088 0)
(-0.00473091 0.000139366 0)
(-0.0048371 0.000136535 0)
(-0.00494098 0.000133594 0)
(-0.00504246 0.000130541 0)
(-0.00514145 0.000127373 0)
(-0.00523787 0.000124088 0)
(-0.00533162 0.000120684 0)
(-0.00542261 0.00011716 0)
(-0.00551076 0.000113513 0)
(-0.00559596 0.000109742 0)
(-0.00567813 0.000105844 0)
(-0.00575717 0.00010182 0)
(-0.00583299 9.76658e-05 0)
(-0.00590548 9.3382e-05 0)
(-0.00597455 8.89671e-05 0)
(-0.00604011 8.44205e-05 0)
(-0.00610205 7.97415e-05 0)
(-0.00616029 7.49299e-05 0)
(-0.00621471 6.99855e-05 0)
(-0.00626522 6.49084e-05 0)
(-0.00631173 5.96992e-05 0)
(-0.00635413 5.43586e-05 0)
(-0.00639234 4.88877e-05 0)
(-0.00642625 4.32879e-05 0)
(-0.00645577 3.75609e-05 0)
(-0.00648082 3.17088e-05 0)
(-0.0065013 2.5734e-05 0)
(-0.00651712 1.96395e-05 0)
(-0.0065282 1.34284e-05 0)
(-0.00653445 7.10452e-06 0)
(-0.00653579 6.71921e-07 0)
(-0.00653216 -5.86481e-06 0)
(-0.00652347 -1.25007e-05 0)
(-0.00650966 -1.92302e-05 0)
(-0.00649066 -2.60475e-05 0)
(-0.00646641 -3.29464e-05 0)
(-0.00643686 -3.99198e-05 0)
(-0.00640195 -4.69608e-05 0)
(-0.00636165 -5.40614e-05 0)
(-0.00631591 -6.12137e-05 0)
(-0.00626471 -6.84091e-05 0)
(-0.00620801 -7.56387e-05 0)
(-0.0061458 -8.2893e-05 0)
(-0.00607807 -9.01623e-05 0)
(-0.00600481 -9.74367e-05 0)
(-0.00592602 -0.000104706 0)
(-0.00584172 -0.000111959 0)
(-0.00575193 -0.000119185 0)
(-0.00565667 -0.000126373 0)
(-0.00555597 -0.000133512 0)
(-0.00544989 -0.00014059 0)
(-0.00533847 -0.000147596 0)
(-0.00522177 -0.000154518 0)
(-0.00509987 -0.000161345 0)
(-0.00497284 -0.000168065 0)
(-0.00484077 -0.000174666 0)
(-0.00470375 -0.000181138 0)
(-0.00456189 -0.000187469 0)
(-0.00441529 -0.000193647 0)
(-0.00426409 -0.000199659 0)
(-0.00410842 -0.000205492 0)
(-0.00394841 -0.000211133 0)
(-0.00378423 -0.000216563 0)
(-0.00361604 -0.000221762 0)
(-0.00344403 -0.000226705 0)
(-0.00326843 -0.000231361 0)
(-0.00308946 -0.000235688 0)
(-0.00290742 -0.000239633 0)
(-0.00272262 -0.000243129 0)
(-0.00253545 -0.000246088 0)
(-0.00234637 -0.000248402 0)
(-0.00215594 -0.000249935 0)
(-0.00196483 -0.000250519 0)
(-0.00177383 -0.000249953 0)
(-0.00158392 -0.000248 0)
(-0.00139623 -0.000244381 0)
(-0.00121213 -0.000238782 0)
(-0.00103321 -0.000230852 0)
(-0.000861286 -0.000220209 0)
(-0.000698445 -0.000206458 0)
(-0.000546993 -0.000189209 0)
(-0.000409433 -0.000168127 0)
(-0.00028837 -0.00014301 0)
(-0.000186367 -0.00011395 0)
(-0.000105644 -8.16435e-05 0)
(-4.76141e-05 -4.79091e-05 0)
(-1.26826e-05 -1.6507e-05 0)
(-4.93867e-07 4.0604e-06 0)
(-1.75438e-06 1.10215e-06 0)
(-1.67712e-05 2.91624e-05 0)
(-5.38498e-05 6.84681e-05 0)
(-0.000111689 0.000111044 0)
(-0.000189636 0.00015261 0)
(-0.000286627 0.000190774 0)
(-0.000400893 0.000224362 0)
(-0.000530316 0.000252977 0)
(-0.000672677 0.000276682 0)
(-0.000825797 0.00029581 0)
(-0.000987636 0.000310834 0)
(-0.00115635 0.000322291 0)
(-0.00133032 0.000330726 0)
(-0.00150817 0.000336658 0)
(-0.00168873 0.000340562 0)
(-0.00187107 0.000342853 0)
(-0.00205442 0.000343885 0)
(-0.00223818 0.000343948 0)
(-0.00242187 0.000343276 0)
(-0.00260512 0.000342051 0)
(-0.00278766 0.000340411 0)
(-0.00296927 0.000338455 0)
(-0.00314977 0.000336257 0)
(-0.00332902 0.000333862 0)
(-0.00350691 0.000331303 0)
(-0.00368334 0.000328598 0)
(-0.00385822 0.000325755 0)
(-0.00403147 0.000322778 0)
(-0.00420301 0.000319665 0)
(-0.00437275 0.000316414 0)
(-0.00454061 0.00031302 0)
(-0.00470652 0.000309477 0)
(-0.00487038 0.000305779 0)
(-0.00503211 0.000301921 0)
(-0.00519161 0.000297898 0)
(-0.00534881 0.000293703 0)
(-0.0055036 0.000289332 0)
(-0.00565589 0.00028478 0)
(-0.00580558 0.000280041 0)
(-0.00595256 0.000275112 0)
(-0.00609675 0.000269987 0)
(-0.00623802 0.000264662 0)
(-0.00637628 0.000259133 0)
(-0.00651143 0.000253396 0)
(-0.00664334 0.000247447 0)
(-0.0067719 0.000241282 0)
(-0.00689702 0.000234898 0)
(-0.00701856 0.000228291 0)
(-0.00713642 0.000221457 0)
(-0.00725047 0.000214394 0)
(-0.0073606 0.000207098 0)
(-0.00746669 0.000199567 0)
(-0.00756862 0.000191799 0)
(-0.00766626 0.000183791 0)
(-0.0077595 0.000175541 0)
(-0.00784821 0.000167047 0)
(-0.00793226 0.00015831 0)
(-0.00801154 0.000149327 0)
(-0.00808592 0.000140099 0)
(-0.00815528 0.000130626 0)
(-0.00821949 0.000120908 0)
(-0.00827843 0.000110946 0)
(-0.00833199 0.000100743 0)
(-0.00838003 9.03001e-05 0)
(-0.00842245 7.96204e-05 0)
(-0.00845913 6.87074e-05 0)
(-0.00848995 5.75653e-05 0)
(-0.0085148 4.61989e-05 0)
(-0.00853357 3.46136e-05 0)
(-0.00854616 2.28159e-05 0)
(-0.00855246 1.08127e-05 0)
(-0.00855238 -1.38803e-06 0)
(-0.00854582 -1.37777e-05 0)
(-0.00853269 -2.63469e-05 0)
(-0.00851292 -3.90854e-05 0)
(-0.00848641 -5.19821e-05 0)
(-0.00845311 -6.50251e-05 0)
(-0.00841293 -7.82018e-05 0)
(-0.00836583 -9.14986e-05 0)
(-0.00831176 -0.000104901 0)
(-0.00825065 -0.000118395 0)
(-0.00818249 -0.000131963 0)
(-0.00810724 -0.000145589 0)
(-0.00802487 -0.000159256 0)
(-0.00793539 -0.000172946 0)
(-0.00783879 -0.000186641 0)
(-0.00773507 -0.00020032 0)
(-0.00762425 -0.000213965 0)
(-0.00750637 -0.000227555 0)
(-0.00738145 -0.00024107 0)
(-0.00724955 -0.000254488 0)
(-0.00711073 -0.000267789 0)
(-0.00696505 -0.000280951 0)
(-0.00681259 -0.000293954 0)
(-0.00665345 -0.000306775 0)
(-0.00648774 -0.000319393 0)
(-0.00631555 -0.000331787 0)
(-0.00613702 -0.000343935 0)
(-0.00595227 -0.000355815 0)
(-0.00576147 -0.000367405 0)
(-0.00556477 -0.00037868 0)
(-0.00536233 -0.000389616 0)
(-0.00515436 -0.000400182 0)
(-0.00494105 -0.000410347 0)
(-0.00472263 -0.000420069 0)
(-0.00449935 -0.000429298 0)
(-0.00427149 -0.000437972 0)
(-0.00403937 -0.000446011 0)
(-0.00380336 -0.000453312 0)
(-0.0035639 -0.000459744 0)
(-0.00332149 -0.000465142 0)
(-0.00307673 -0.0004693 0)
(-0.00283035 -0.000471962 0)
(-0.00258322 -0.000472818 0)
(-0.00233637 -0.000471498 0)
(-0.00209103 -0.000467569 0)
(-0.00184866 -0.000460531 0)
(-0.00161095 -0.000449825 0)
(-0.00137987 -0.000434838 0)
(-0.00115767 -0.000414925 0)
(-0.000946867 -0.000389433 0)
(-0.000750212 -0.000357757 0)
(-0.000570645 -0.000319422 0)
(-0.000411187 -0.000274222 0)
(-0.000274783 -0.000222465 0)
(-0.000164 -0.00016539 0)
(-8.05727e-05 -0.000105777 0)
(-2.59439e-05 -4.89212e-05 0)
(-3.02016e-06 -5.27198e-06 0)
(-3.49951e-06 1.19708e-05 0)
(-2.62975e-05 6.23066e-05 0)
(-7.79313e-05 0.000124274 0)
(-0.000154489 0.00018919 0)
(-0.00025426 0.000252014 0)
(-0.000375752 0.000309744 0)
(-0.000516875 0.000360805 0)
(-0.000675245 0.0004046 0)
(-0.000848406 0.000441155 0)
(-0.00103395 0.000470889 0)
(-0.0012296 0.000494442 0)
(-0.0014333 0.000512567 0)
(-0.0016432 0.000526049 0)
(-0.00185773 0.000535649 0)
(-0.00207555 0.000542071 0)
(-0.00229555 0.000545939 0)
(-0.00251683 0.000547791 0)
(-0.00273865 0.000548075 0)
(-0.00296045 0.000547152 0)
(-0.00318177 0.000545308 0)
(-0.00340225 0.000542763 0)
(-0.00362162 0.000539677 0)
(-0.00383965 0.000536168 0)
(-0.00405616 0.000532317 0)
(-0.004271 0.000528177 0)
(-0.00448404 0.00052378 0)
(-0.00469516 0.000519145 0)
(-0.00490425 0.000514281 0)
(-0.0051112 0.000509188 0)
(-0.00531591 0.000503865 0)
(-0.00551828 0.000498305 0)
(-0.0057182 0.000492501 0)
(-0.00591558 0.000486447 0)
(-0.00611029 0.000480133 0)
(-0.00630224 0.000473552 0)
(-0.0064913 0.000466697 0)
(-0.00667737 0.000459559 0)
(-0.00686033 0.000452132 0)
(-0.00704006 0.000444409 0)
(-0.00721643 0.000436382 0)
(-0.00738934 0.000428046 0)
(-0.00755865 0.000419393 0)
(-0.00772423 0.000410418 0)
(-0.00788596 0.000401115 0)
(-0.00804371 0.000391478 0)
(-0.00819733 0.000381501 0)
(-0.00834671 0.00037118 0)
(-0.00849171 0.000360509 0)
(-0.00863218 0.000349484 0)
(-0.00876799 0.000338099 0)
(-0.00889901 0.000326351 0)
(-0.00902508 0.000314236 0)
(-0.00914607 0.000301751 0)
(-0.00926183 0.000288893 0)
(-0.00937223 0.000275659 0)
(-0.00947712 0.000262047 0)
(-0.00957635 0.000248056 0)
(-0.00966979 0.000233685 0)
(-0.00975728 0.000218935 0)
(-0.00983869 0.000203805 0)
(-0.00991388 0.000188297 0)
(-0.0099827 0.000172414 0)
(-0.010045 0.000156157 0)
(-0.0101007 0.000139532 0)
(-0.0101496 0.000122543 0)
(-0.0101915 0.000105196 0)
(-0.0102265 8.74965e-05 0)
(-0.0102542 6.94538e-05 0)
(-0.0102747 5.10763e-05 0)
(-0.0102877 3.23742e-05 0)
(-0.0102932 1.33587e-05 0)
(-0.0102911 -5.95771e-06 0)
(-0.0102812 -2.55614e-05 0)
(-0.0102635 -4.54376e-05 0)
(-0.0102378 -6.557e-05 0)
(-0.0102041 -8.59414e-05 0)
(-0.0101622 -0.000106533 0)
(-0.0101122 -0.000127325 0)
(-0.010054 -0.000148297 0)
(-0.00998738 -0.000169425 0)
(-0.00991245 -0.000190687 0)
(-0.00982912 -0.000212058 0)
(-0.00973737 -0.000233511 0)
(-0.00963718 -0.000255021 0)
(-0.00952853 -0.000276559 0)
(-0.00941143 -0.000298096 0)
(-0.0092859 -0.000319602 0)
(-0.00915196 -0.000341047 0)
(-0.00900963 -0.000362399 0)
(-0.00885899 -0.000383628 0)
(-0.00870007 -0.0004047 0)
(-0.00853296 -0.000425582 0)
(-0.00835774 -0.000446243 0)
(-0.00817451 -0.000466648 0)
(-0.00798338 -0.000486764 0)
(-0.00778447 -0.000506558 0)
(-0.00757793 -0.000525996 0)
(-0.00736389 -0.000545044 0)
(-0.00714252 -0.000563668 0)
(-0.006914 -0.000581831 0)
(-0.00667852 -0.000599495 0)
(-0.00643628 -0.00061662 0)
(-0.00618753 -0.000633157 0)
(-0.00593249 -0.000649053 0)
(-0.00567145 -0.000664241 0)
(-0.00540471 -0.000678642 0)
(-0.0051326 -0.000692151 0)
(-0.00485552 -0.000704642 0)
(-0.00457392 -0.000715949 0)
(-0.00428831 -0.000725865 0)
(-0.0039993 -0.000734129 0)
(-0.00370763 -0.000740416 0)
(-0.00341415 -0.000744332 0)
(-0.00311988 -0.000745396 0)
(-0.00282604 -0.000743043 0)
(-0.00253406 -0.000736613 0)
(-0.00224564 -0.000725358 0)
(-0.00196272 -0.000708446 0)
(-0.00168754 -0.000684982 0)
(-0.00142265 -0.000654037 0)
(-0.00117084 -0.000614699 0)
(-0.000935181 -0.000566153 0)
(-0.000718903 -0.000507797 0)
(-0.000525329 -0.000439434 0)
(-0.000357737 -0.000361564 0)
(-0.000219095 -0.000275844 0)
(-0.000111676 -0.000185721 0)
(-3.8303e-05 -9.73288e-05 0)
(-5.30226e-06 -2.17363e-05 0)
(-5.01213e-06 2.77101e-05 0)
(-3.49691e-05 0.000107019 0)
(-0.000100302 0.000196358 0)
(-0.00019453 0.000287088 0)
(-0.00031478 0.000373879 0)
(-0.000459012 0.000453407 0)
(-0.000624746 0.000523858 0)
(-0.000809312 0.000584509 0)
(-0.00101004 0.000635383 0)
(-0.00122433 0.000676999 0)
(-0.00144975 0.00071017 0)
(-0.00168407 0.000735873 0)
(-0.0019253 0.000755139 0)
(-0.00217172 0.000768983 0)
(-0.00242186 0.000778351 0)
(-0.00267449 0.000784094 0)
(-0.0029286 0.000786949 0)
(-0.00318337 0.000787534 0)
(-0.00343813 0.000786356 0)
(-0.00369237 0.000783817 0)
(-0.00394567 0.000780226 0)
(-0.00419768 0.000775817 0)
(-0.00444816 0.00077076 0)
(-0.00469686 0.000765175 0)
(-0.00494362 0.000759143 0)
(-0.00518826 0.000752715 0)
(-0.00543065 0.000745922 0)
(-0.00567064 0.000738779 0)
(-0.00590811 0.000731292 0)
(-0.00614294 0.000723461 0)
(-0.006375 0.000715279 0)
(-0.00660417 0.000706738 0)
(-0.00683032 0.000697831 0)
(-0.00705333 0.000688546 0)
(-0.00727307 0.000678873 0)
(-0.00748942 0.000668804 0)
(-0.00770223 0.000658328 0)
(-0.00791137 0.000647435 0)
(-0.00811672 0.000636117 0)
(-0.00831812 0.000624365 0)
(-0.00851545 0.000612169 0)
(-0.00870855 0.000599522 0)
(-0.00889729 0.000586416 0)
(-0.00908152 0.000572843 0)
(-0.00926109 0.000558795 0)
(-0.00943585 0.000544265 0)
(-0.00960564 0.000529246 0)
(-0.00977033 0.000513732 0)
(-0.00992975 0.000497716 0)
(-0.0100837 0.000481194 0)
(-0.0102322 0.000464159 0)
(-0.0103749 0.000446606 0)
(-0.0105116 0.000428532 0)
(-0.0106424 0.000409933 0)
(-0.0107669 0.000390806 0)
(-0.0108851 0.00037115 0)
(-0.0109967 0.000350961 0)
(-0.0111016 0.000330241 0)
(-0.0111997 0.000308989 0)
(-0.0112908 0.000287207 0)
(-0.0113747 0.000264898 0)
(-0.0114514 0.000242064 0)
(-0.0115205 0.000218711 0)
(-0.011582 0.000194844 0)
(-0.0116357 0.000170471 0)
(-0.0116816 0.0001456 0)
(-0.0117193 0.000120241 0)
(-0.0117489 9.44065e-05 0)
(-0.0117701 6.81084e-05 0)
(-0.0117828 4.13615e-05 0)
(-0.011787 1.41821e-05 0)
(-0.0117824 -1.3412e-05 0)
(-0.011769 -4.14014e-05 0)
(-0.0117467 -6.97649e-05 0)
(-0.0117154 -9.84795e-05 0)
(-0.0116749 -0.000127521 0)
(-0.0116252 -0.000156862 0)
(-0.0115662 -0.000186475 0)
(-0.0114978 -0.00021633 0)
(-0.01142 -0.000246397 0)
(-0.0113328 -0.00027664 0)
(-0.011236 -0.000307027 0)
(-0.0111297 -0.00033752 0)
(-0.0110138 -0.000368081 0)
(-0.0108884 -0.000398672 0)
(-0.0107534 -0.000429252 0)
(-0.0106089 -0.000459779 0)
(-0.0104549 -0.00049021 0)
(-0.0102915 -0.000520502 0)
(-0.0101186 -0.000550609 0)
(-0.00993643 -0.000580487 0)
(-0.009745 -0.00061009 0)
(-0.00954443 -0.000639371 0)
(-0.00933484 -0.000668284 0)
(-0.00911634 -0.000696782 0)
(-0.00888909 -0.000724817 0)
(-0.00865324 -0.000752343 0)
(-0.00840895 -0.00077931 0)
(-0.00815643 -0.000805669 0)
(-0.00789586 -0.000831369 0)
(-0.00762747 -0.000856355 0)
(-0.0073515 -0.000880566 0)
(-0.0070682 -0.000903935 0)
(-0.00677787 -0.000926381 0)
(-0.00648081 -0.000947809 0)
(-0.00617737 -0.000968102 0)
(-0.00586794 -0.00098711 0)
(-0.00555298 -0.00100465 0)
(-0.00523298 -0.00102048 0)
(-0.00490855 -0.00103432 0)
(-0.00458037 -0.00104578 0)
(-0.00424928 -0.00105442 0)
(-0.00391623 -0.00105968 0)
(-0.00358238 -0.00106089 0)
(-0.00324907 -0.00105728 0)
(-0.0029179 -0.00104793 0)
(-0.00259072 -0.00103185 0)
(-0.00226965 -0.0010079 0)
(-0.00195714 -0.000974895 0)
(-0.00165591 -0.000931619 0)
(-0.00136898 -0.000876894 0)
(-0.00109963 -0.000809689 0)
(-0.00085131 -0.000729268 0)
(-0.000627609 -0.000635403 0)
(-0.00043215 -0.000528694 0)
(-0.000268373 -0.000411017 0)
(-0.000139224 -0.000286103 0)
(-4.89783e-05 -0.00016029 0)
(-7.16054e-06 -4.42834e-05 0)
(-6.27413e-06 4.77331e-05 0)
(-4.25499e-05 0.000162256 0)
(-0.000120262 0.000283465 0)
(-0.00023061 0.000403284 0)
(-0.00036958 0.000516487 0)
(-0.00053453 0.000619714 0)
(-0.000722542 0.000711088 0)
(-0.000930633 0.000789873 0)
(-0.00115591 0.000856154 0)
(-0.00139562 0.000910578 0)
(-0.00164718 0.000954154 0)
(-0.00190824 0.00098809 0)
(-0.00217672 0.00101367 0)
(-0.00245078 0.00103218 0)
(-0.00272886 0.00104481 0)
(-0.00300964 0.00105264 0)
(-0.00329204 0.00105662 0)
(-0.00357516 0.00105756 0)
(-0.00385828 0.00105611 0)
(-0.00414082 0.0010528 0)
(-0.00442232 0.00104803 0)
(-0.00470238 0.00104212 0)
(-0.00498072 0.0010353 0)
(-0.00525706 0.00102774 0)
(-0.00553121 0.00101953 0)
(-0.00580296 0.00101076 0)
(-0.00607215 0.00100148 0)
(-0.00633862 0.000991704 0)
(-0.00660223 0.000981447 0)
(-0.00686282 0.000970711 0)
(-0.00712027 0.000959491 0)
(-0.00737441 0.000947781 0)
(-0.00762513 0.000935569 0)
(-0.00787227 0.000922845 0)
(-0.00811569 0.000909596 0)
(-0.00835524 0.000895811 0)
(-0.00859078 0.000881478 0)
(-0.00882216 0.000866586 0)
(-0.00904922 0.000851122 0)
(-0.00927182 0.000835078 0)
(-0.0094898 0.00081844 0)
(-0.009703 0.000801201 0)
(-0.00991127 0.000783349 0)
(-0.0101144 0.000764876 0)
(-0.0103123 0.000745771 0)
(-0.0105048 0.000726027 0)
(-0.0106917 0.000705634 0)
(-0.0108729 0.000684585 0)
(-0.0110481 0.000662873 0)
(-0.0112172 0.00064049 0)
(-0.0113801 0.00061743 0)
(-0.0115366 0.000593688 0)
(-0.0116864 0.000569259 0)
(-0.0118295 0.000544138 0)
(-0.0119656 0.000518324 0)
(-0.0120946 0.000491812 0)
(-0.0122163 0.000464604 0)
(-0.0123306 0.000436697 0)
(-0.0124372 0.000408094 0)
(-0.012536 0.000378797 0)
(-0.0126269 0.00034881 0)
(-0.0127096 0.000318138 0)
(-0.0127841 0.000286788 0)
(-0.01285 0.000254768 0)
(-0.0129074 0.000222089 0)
(-0.0129559 0.000188761 0)
(-0.0129956 0.0001548 0)
(-0.0130261 0.00012022 0)
(-0.0130475 8.5039e-05 0)
(-0.0130595 4.92768e-05 0)
(-0.013062 1.29551e-05 0)
(-0.0130548 -2.39024e-05 0)
(-0.013038 -6.12696e-05 0)
(-0.0130113 -9.91183e-05 0)
(-0.0129746 -0.000137418 0)
(-0.0129279 -0.000176136 0)
(-0.012871 -0.000215237 0)
(-0.012804 -0.000254685 0)
(-0.0127266 -0.000294439 0)
(-0.0126389 -0.000334458 0)
(-0.0125407 -0.000374699 0)
(-0.0124322 -0.000415115 0)
(-0.0123132 -0.000455659 0)
(-0.0121837 -0.000496281 0)
(-0.0120437 -0.000536928 0)
(-0.0118932 -0.000577549 0)
(-0.0117323 -0.000618088 0)
(-0.0115611 -0.000658489 0)
(-0.0113794 -0.000698694 0)
(-0.0111875 -0.000738645 0)
(-0.0109854 -0.000778282 0)
(-0.0107732 -0.000817544 0)
(-0.010551 -0.000856372 0)
(-0.0103189 -0.000894703 0)
(-0.0100771 -0.000932476 0)
(-0.00982579 -0.000969628 0)
(-0.00956505 -0.0010061 0)
(-0.00929512 -0.00104182 0)
(-0.0090162 -0.00107672 0)
(-0.00872851 -0.00111075 0)
(-0.0084323 -0.00114381 0)
(-0.00812784 -0.00117584 0)
(-0.00781541 -0.00120674 0)
(-0.00749532 -0.0012364 0)
(-0.00716793 -0.00126469 0)
(-0.00683362 -0.00129146 0)
(-0.00649282 -0.00131649 0)
(-0.00614602 -0.00133956 0)
(-0.0057938 -0.00136033 0)
(-0.00543679 -0.00137842 0)
(-0.00507577 -0.00139335 0)
(-0.00471163 -0.00140451 0)
(-0.00434542 -0.00141119 0)
(-0.00397838 -0.00141251 0)
(-0.00361195 -0.00140747 0)
(-0.00324785 -0.00139493 0)
(-0.00288804 -0.00137357 0)
(-0.00253477 -0.00134199 0)
(-0.00219062 -0.00129869 0)
(-0.00185845 -0.00124217 0)
(-0.00154144 -0.00117096 0)
(-0.00124302 -0.0010838 0)
(-0.000966861 -0.000979786 0)
(-0.000716797 -0.00085859 0)
(-0.000496822 -0.000720775 0)
(-0.000310899 -0.000568215 0)
(-0.00016269 -0.000404577 0)
(-5.78364e-05 -0.000235906 0)
(-8.61241e-06 -7.19495e-05 0)
(-7.30711e-06 7.14161e-05 0)
(-4.90128e-05 0.000226756 0)
(-0.000137595 0.000383998 0)
(-0.000262262 0.000535952 0)
(-0.000417959 0.000677803 0)
(-0.000601446 0.000806392 0)
(-0.000809347 0.000919962 0)
(-0.00103835 0.00101788 0)
(-0.00128534 0.00110038 0)
(-0.00154739 0.00116828 0)
(-0.0018218 0.00122281 0)
(-0.00210614 0.00126542 0)
(-0.00239821 0.00129768 0)
(-0.00269612 0.00132113 0)
(-0.00299825 0.00133722 0)
(-0.00330321 0.00134728 0)
(-0.00360986 0.00135248 0)
(-0.00391726 0.00135378 0)
(-0.00422464 0.00135202 0)
(-0.00453136 0.00134785 0)
(-0.00483694 0.00134179 0)
(-0.00514095 0.00133422 0)
(-0.00544305 0.00132544 0)
(-0.00574297 0.00131567 0)
(-0.00604046 0.00130504 0)
(-0.00633531 0.00129366 0)
(-0.00662733 0.00128159 0)
(-0.00691634 0.00126886 0)
(-0.00720218 0.00125549 0)
(-0.00748468 0.0012415 0)
(-0.00776369 0.00122687 0)
(-0.00803904 0.0012116 0)
(-0.0083106 0.00119569 0)
(-0.00857819 0.0011791 0)
(-0.00884165 0.00116185 0)
(-0.00910084 0.0011439 0)
(-0.0093556 0.00112525 0)
(-0.00960575 0.00110588 0)
(-0.00985113 0.00108578 0)
(-0.0100916 0.00106494 0)
(-0.0103269 0.00104335 0)
(-0.010557 0.00102099 0)
(-0.0107817 0.00099785 0)
(-0.0110007 0.000973922 0)
(-0.011214 0.000949193 0)
(-0.0114213 0.000923654 0)
(-0.0116225 0.000897295 0)
(-0.0118173 0.000870106 0)
(-0.0120057 0.000842079 0)
(-0.0121874 0.000813207 0)
(-0.0123622 0.000783482 0)
(-0.01253 0.000752897 0)
(-0.0126906 0.000721448 0)
(-0.0128438 0.000689131 0)
(-0.0129895 0.000655941 0)
(-0.0131273 0.000621878 0)
(-0.0132573 0.000586941 0)
(-0.0133791 0.000551129 0)
(-0.0134926 0.000514446 0)
(-0.0135976 0.000476895 0)
(-0.013694 0.000438482 0)
(-0.0137815 0.000399214 0)
(-0.01386 0.000359101 0)
(-0.0139294 0.000318153 0)
(-0.0139894 0.000276383 0)
(-0.01404 0.000233808 0)
(-0.0140808 0.000190446 0)
(-0.0141119 0.000146315 0)
(-0.0141329 0.00010144 0)
(-0.0141439 5.58445e-05 0)
(-0.0141447 9.55712e-06 0)
(-0.014135 -3.73919e-05 0)
(-0.0141149 -8.49695e-05 0)
(-0.0140841 -0.00013314 0)
(-0.0140426 -0.000181864 0)
(-0.0139903 -0.000231101 0)
(-0.0139271 -0.000280806 0)
(-0.0138529 -0.000330932 0)
(-0.0137676 -0.00038143 0)
(-0.0136712 -0.000432247 0)
(-0.0135636 -0.000483328 0)
(-0.0134448 -0.000534614 0)
(-0.0133148 -0.000586047 0)
(-0.0131735 -0.000637564 0)
(-0.013021 -0.000689099 0)
(-0.0128573 -0.000740585 0)
(-0.0126823 -0.000791954 0)
(-0.0124963 -0.000843135 0)
(-0.0122991 -0.000894056 0)
(-0.012091 -0.000944643 0)
(-0.0118719 -0.000994821 0)
(-0.011642 -0.00104452 0)
(-0.0114014 -0.00109365 0)
(-0.0111503 -0.00114214 0)
(-0.0108888 -0.00118992 0)
(-0.0106171 -0.00123691 0)
(-0.0103353 -0.00128302 0)
(-0.0100437 -0.00132817 0)
(-0.0097425 -0.00137229 0)
(-0.00943195 -0.00141527 0)
(-0.00911232 -0.00145704 0)
(-0.00878387 -0.00149747 0)
(-0.00844694 -0.00153646 0)
(-0.00810185 -0.00157387 0)
(-0.00774899 -0.00160953 0)
(-0.00738877 -0.00164323 0)
(-0.00702166 -0.00167472 0)
(-0.00664818 -0.00170368 0)
(-0.00626896 -0.00172973 0)
(-0.00588468 -0.00175236 0)
(-0.00549616 -0.00177096 0)
(-0.00510435 -0.00178479 0)
(-0.00471036 -0.00179295 0)
(-0.0043155 -0.00179437 0)
(-0.00392129 -0.00178782 0)
(-0.00352951 -0.00177187 0)
(-0.00314221 -0.00174495 0)
(-0.00276174 -0.00170534 0)
(-0.00239076 -0.00165124 0)
(-0.00203224 -0.00158082 0)
(-0.00168949 -0.00149234 0)
(-0.00136608 -0.00138428 0)
(-0.00106587 -0.0012555 0)
(-0.000792963 -0.00110547 0)
(-0.00055174 -0.000934591 0)
(-0.000346688 -0.00074452 0)
(-0.000182169 -0.000538577 0)
(-6.50123e-05 -0.00032217 0)
(-9.72536e-06 -0.000103762 0)
(-8.14149e-06 9.8164e-05 0)
(-5.44221e-05 0.00029922 0)