/*--------------------------------*- C++ -*----------------------------------*\
| =========                 |                                                 |
| \\      /  F ield         | OpenFOAM: The Open Source CFD Toolbox           |
|  \\    /   O peration     | Version:  2112                                  |
|   \\  /    A nd           | Website:  www.openfoam.com                      |
|    \\/     M anipulation  |                                                 |
\*---------------------------------------------------------------------------*/
FoamFile
{
    version     2.0;
    format      ascii;
    arch        "LSB;label=32;scalar=64";
    class       volScalarField;
    location    "2.7";
    object      p;
}
// * * * * * * * * * * * * * * * * * * * * * * * * * * * * * * * * * * * * * //

dimensions      [0 2 -2 0 0 0 0];

internalField   nonuniform List<scalar> 
16641
(
-2.26281e-07
1.29064e-05
2.53669e-05
3.26296e-05
3.14754e-05
2.03028e-05
-1.3554e-06
-3.3312e-05
-7.50284e-05
-0.000125788
-0.000184803
-0.000251287
-0.000324508
-0.000403821
-0.000488685
-0.00057868
-0.000673507
-0.000772983
-0.000877033
-0.000985676
-0.00109901
-0.00121719
-0.00134041
-0.00146888
-0.00160283
-0.00174245
-0.00188792
-0.00203936
-0.00219683
-0.00236033
-0.00252977
-0.00270499
-0.00288573
-0.0030716
-0.00326216
-0.0034568
-0.00365483
-0.00385543
-0.00405764
-0.00426039
-0.00446247
-0.00466254
-0.00485914
-0.00505071
-0.00523555
-0.00541187
-0.0055778
-0.00573141
-0.00587072
-0.00599373
-0.00609845
-0.00618294
-0.00624532
-0.00628382
-0.00629683
-0.0062829
-0.00624084
-0.0061697
-0.00606883
-0.00593792
-0.00577705
-0.00558666
-0.00536764
-0.00512131
-0.00484945
-0.0045543
-0.0042385
-0.00390509
-0.00355777
-0.00320037
-0.00283715
-0.00247262
-0.00211154
-0.0017588
-0.00141938
-0.00109822
-0.000800154
-0.000529813
-0.000291526
-8.92292e-05
7.36247e-05
0.000194144
0.000270071
0.000299837
0.000282606
0.000218296
0.000107589
-4.8086e-05
-0.00024658
-0.00048508
-0.000760233
-0.00106805
-0.00140424
-0.00176418
-0.00214303
-0.00253587
-0.00293782
-0.00334412
-0.00375022
-0.00415191
-0.00454534
-0.00492706
-0.00529413
-0.00564407
-0.00597489
-0.0062851
-0.00657365
-0.00683993
-0.00708371
-0.00730511
-0.00750453
-0.0076826
-0.00784013
-0.00797806
-0.00809738
-0.00819911
-0.00828421
-0.00835361
-0.00840811
-0.00844842
-0.00847516
-0.00848891
-0.00849029
-0.00848019
-0.00845998
-0.00843206
-0.00840039
-0.00837097
-0.00835286
-1.32018e-05
-8.78166e-08
8.65709e-06
1.16028e-05
7.29599e-06
-5.53489e-06
-2.74225e-05
-5.83713e-05
-9.80805e-05
-0.000146061
-0.000201725
-0.000264459
-0.000333672
-0.000408825
-0.000489461
-0.000575214
-0.000665818
-0.000761105
-0.000860997
-0.000965498
-0.00107468
-0.00118867
-0.00130762
-0.00143173
-0.00156116
-0.0016961
-0.0018367
-0.00198305
-0.00213522
-0.0022932
-0.00245691
-0.00262621
-0.00280084
-0.00298048
-0.00316468
-0.00335292
-0.00354454
-0.00373877
-0.00393473
-0.0041314
-0.00432765
-0.00452223
-0.00471375
-0.00490072
-0.00508153
-0.00525448
-0.00541779
-0.0055696
-0.005708
-0.00583107
-0.0059369
-0.00602359
-0.00608932
-0.00613237
-0.00615115
-0.00614424
-0.00611044
-0.00604881
-0.00595869
-0.00583972
-0.00569193
-0.00551571
-0.00531186
-0.00508162
-0.00482666
-0.00454911
-0.00425152
-0.00393678
-0.0036083
-0.00326986
-0.00292553
-0.00257966
-0.00223682
-0.00190171
-0.00157914
-0.00127384
-0.000990501
-0.000733567
-0.000507213
-0.00031523
-0.000160943
-4.71328e-05
2.40312e-05
5.10455e-05
3.31127e-05
-2.98359e-05
-0.000137136
-0.000287403
-0.000478566
-0.000707919
-0.000972195
-0.00126765
-0.00159011
-0.00193515
-0.00229817
-0.00267446
-0.00305938
-0.0034484
-0.00383722
-0.00422183
-0.00459858
-0.00496424
-0.00531602
-0.00565159
-0.00596908
-0.00626709
-0.00654463
-0.00680112
-0.00703634
-0.0072504
-0.00744366
-0.0076167
-0.00777027
-0.00790523
-0.00802251
-0.00812306
-0.00820783
-0.00827769
-0.00833349
-0.00837599
-0.00840591
-0.00842394
-0.00843089
-0.00842775
-0.00841588
-0.00839734
-0.00837515
-0.00835297
-0.00833477
-2.55844e-05
-8.71553e-06
2.12941e-08
1.56641e-06
-4.02272e-06
-1.76087e-05
-3.95909e-05
-6.99565e-05
-0.000108457
-0.000154691
-0.000208165
-0.000268355
-0.000334745
-0.000406866
-0.000484313
-0.00056676
-0.000653973
-0.000745799
-0.000842171
-0.000943094
-0.00104864
-0.00115891
-0.00127408
-0.0013943
-0.00151976
-0.00165061
-0.00178701
-0.00192905
-0.0020768
-0.00223026
-0.00238938
-0.00255403
-0.00272398
-0.00289895
-0.00307854
-0.00326225
-0.00344948
-0.00363952
-0.00383154
-0.00402458
-0.00421757
-0.00440931
-0.00459849
-0.00478366
-0.00496329
-0.00513571
-0.00529919
-0.00545191
-0.00559202
-0.00571761
-0.00582678
-0.00591766
-0.00598843
-0.00603735
-0.00606282
-0.00606341
-0.00603788
-0.00598523
-0.00590474
-0.00579603
-0.00565903
-0.00549408
-0.00530189
-0.00508359
-0.00484081
-0.00457565
-0.00429019
-0.00398776
-0.00367144
-0.0033449
-0.00301213
-0.0026774
-0.00234519
-0.00202015
-0.00170698
-0.00141037
-0.00113492
-0.00088504
-0.000664849
-0.000478094
-0.000328065
-0.000217514
-0.000148588
-0.000122777
-0.000140869
-0.000202933
-0.000308312
-0.000455635
-0.000642856
-0.000867301
-0.00112574
-0.00141446
-0.00172939
-0.00206615
-0.00242021
-0.00278697
-0.00316188
-0.00354051
-0.00391866
-0.00429247
-0.00465838
-0.0050133
-0.00535455
-0.00567989
-0.00598758
-0.00627629
-0.00654511
-0.00679354
-0.0070214
-0.00722883
-0.00741622
-0.00758416
-0.00773339
-0.00786478
-0.00797924
-0.00807771
-0.00816113
-0.0082304
-0.00828636
-0.00832978
-0.00836143
-0.00838201
-0.0083923
-0.00839319
-0.00838579
-0.00837169
-0.00835301
-0.00833087
-0.00830518
-3.28886e-05
-1.16265e-05
-1.54922e-06
-1.09105e-07
-6.10933e-06
-2.00359e-05
-4.20909e-05
-7.21473e-05
-0.000109916
-0.000155005
-0.000206951
-0.000265268
-0.000329482
-0.000399163
-0.000473944
-0.000553536
-0.000637726
-0.000726386
-0.000819466
-0.000916987
-0.00101903
-0.00112571
-0.0012372
-0.00135367
-0.00147531
-0.00160228
-0.00173474
-0.00187282
-0.00201659
-0.00216609
-0.00232128
-0.00248206
-0.00264826
-0.00281962
-0.00299579
-0.00317633
-0.00336069
-0.00354821
-0.00373811
-0.0039295
-0.00412136
-0.00431254
-0.00450177
-0.00468765
-0.00486867
-0.0050432
-0.00520953
-0.00536586
-0.00551032
-0.005641
-0.00575598
-0.00585337
-0.00593129
-0.00598797
-0.00602176
-0.00603114
-0.00601483
-0.00597173
-0.00590107
-0.00580237
-0.00567548
-0.00552065
-0.00533852
-0.00513016
-0.00489719
-0.00464193
-0.00436505
-0.00407114
-0.00376297
-0.00344408
-0.00311841
-0.0027902
-0.0024639
-0.00214415
-0.00183563
-0.00154305
-0.00127102
-0.00102394
-0.000805978
-0.000620886
-0.000471983
-0.000362048
-0.000293252
-0.000267109
-0.000284426
-0.000345287
-0.000449044
-0.000594331
-0.000779101
-0.00100067
-0.00125581
-0.00154079
-0.00185151
-0.00218363
-0.00253256
-0.00289373
-0.00326259
-0.00363474
-0.00400603
-0.0043726
-0.00473098
-0.00507814
-0.00541146
-0.00572881
-0.00602852
-0.00630935
-0.00657049
-0.00681151
-0.00703232
-0.00723313
-0.00741439
-0.00757675
-0.00772099
-0.00784801
-0.00795877
-0.00805422
-0.00813533
-0.00820301
-0.00825811
-0.00830141
-0.00833364
-0.00835548
-0.00836758
-0.00837061
-0.00836534
-0.00835283
-0.00833444
-0.0083091
-0.00827372
-3.18619e-05
-7.3419e-06
3.87808e-06
5.36493e-06
-9.23161e-07
-1.5183e-05
-3.74262e-05
-6.7396e-05
-0.000104738
-0.000149033
-0.000199816
-0.000256616
-0.000318981
-0.000386508
-0.000458859
-0.000535771
-0.000617062
-0.000702632
-0.000792455
-0.000886576
-0.000985098
-0.00108817
-0.00119596
-0.00130868
-0.00142653
-0.00154971
-0.0016784
-0.00181274
-0.00195286
-0.00209881
-0.00225061
-0.0024082
-0.00257145
-0.00274017
-0.00291405
-0.00309271
-0.00327567
-0.00346231
-0.00365193
-0.00384367
-0.00403656
-0.00422951
-0.00442126
-0.00461045
-0.00479559
-0.00497504
-0.00514708
-0.0053099
-0.00546158
-0.00560019
-0.00572374
-0.00583027
-0.00591784
-0.00598459
-0.00602877
-0.0060488
-0.00604326
-0.006011
-0.00595113
-0.00586306
-0.00574658
-0.00560183
-0.00542939
-0.00523027
-0.00500577
-0.00475732
-0.00448903
-0.00420206
-0.00389992
-0.0035863
-0.00326514
-0.00294069
-0.00261741
-0.00229994
-0.00199303
-0.0017014
-0.00142972
-0.00118245
-0.000963802
-0.000777602
-0.000627231
-0.000515531
-0.000444735
-0.000416409
-0.000431408
-0.000489853
-0.000591121
-0.000733858
-0.000916017
-0.0011349
-0.00138726
-0.00166932
-0.00197695
-0.00230573
-0.00265106
-0.00300832
-0.00337289
-0.00374037
-0.00410655
-0.00446761
-0.00482006
-0.0051609
-0.00548756
-0.00579797
-0.00609051
-0.00636403
-0.00661782
-0.00685154
-0.00706519
-0.00725907
-0.00743372
-0.00758986
-0.00772838
-0.00785022
-0.00795639
-0.00804792
-0.00812579
-0.00819095
-0.00824427
-0.00828652
-0.0083184
-0.00834049
-0.00835333
-0.00835735
-0.00835294
-0.0083407
-0.00832134
-0.00829202
-0.00824718
-2.0728e-05
5.52832e-06
1.72562e-05
1.8551e-05
1.18052e-05
-2.96769e-06
-2.56191e-05
-5.57746e-05
-9.30052e-05
-0.000136847
-0.000186817
-0.00024244
-0.000303276
-0.000368937
-0.000439109
-0.000513557
-0.000592128
-0.000674752
-0.00076144
-0.000852269
-0.000947375
-0.00104694
-0.00115118
-0.00126033
-0.00137462
-0.00149431
-0.00161961
-0.00175071
-0.00188777
-0.00203091
-0.0021802
-0.00233564
-0.00249716
-0.00266462
-0.00283779
-0.00301636
-0.00319989
-0.00338784
-0.00357954
-0.00377421
-0.00397089
-0.00416851
-0.00436585
-0.00456153
-0.00475404
-0.00494174
-0.00512285
-0.00529549
-0.00545769
-0.00560743
-0.00574264
-0.00586123
-0.00596118
-0.0060405
-0.00609734
-0.00612998
-0.00613692
-0.00611687
-0.00606884
-0.00599216
-0.0058865
-0.00575194
-0.00558897
-0.00539854
-0.00518199
-0.00494097
-0.00467822
-0.00439623
-0.00409821
-0.00378775
-0.0034688
-0.00314562
-0.00282272
-0.00250477
-0.00219658
-0.00190294
-0.00162858
-0.00137806
-0.00115568
-0.000965357
-0.000810579
-0.000694282
-0.000618795
-0.000585772
-0.000596149
-0.000650113
-0.000747091
-0.000885765
-0.0010641
-0.0012794
-0.00152838
-0.00180725
-0.0021118
-0.00243755
-0.00277984
-0.00313393
-0.00349515
-0.00385901
-0.00422125
-0.00457798
-0.00492569
-0.00526134
-0.00558239
-0.00588676
-0.00617291
-0.00643973
-0.00668659
-0.00691324
-0.00711977
-0.00730658
-0.00747433
-0.00762383
-0.00775605
-0.00787204
-0.00797289
-0.00805969
-0.00813348
-0.00819526
-0.0082459
-0.00828618
-0.00831677
-0.00833817
-0.00835077
-0.0083548
-0.00835032
-0.00833753
-0.00831664
-0.00828343
-0.0082305
1.27313e-06
2.77496e-05
3.91826e-05
3.98316e-05
3.22796e-05
1.66884e-05
-6.66942e-06
-3.73201e-05
-7.47613e-05
-0.000118482
-0.000167973
-0.000222746
-0.000282364
-0.000346452
-0.000414717
-0.000486949
-0.000563031
-0.000642929
-0.000726696
-0.000814451
-0.000906377
-0.0010027
-0.0011037
-0.00120965
-0.00132084
-0.00143758
-0.00156014
-0.00168877
-0.00182371
-0.00196514
-0.00211318
-0.00226792
-0.00242937
-0.00259745
-0.00277201
-0.0029528
-0.00313945
-0.00333147
-0.00352824
-0.00372899
-0.00393281
-0.00413862
-0.00434518
-0.00455109
-0.00475478
-0.00495455
-0.00514853
-0.00533475
-0.00551113
-0.00567553
-0.00582575
-0.00595957
-0.00607482
-0.0061694
-0.0062413
-0.00628869
-0.00630992
-0.0063036
-0.00626864
-0.00620425
-0.00611002
-0.00598595
-0.00583245
-0.00565042
-0.0054412
-0.00520643
-0.00494857
-0.00467032
-0.00437486
-0.00406577
-0.00374702
-0.00342288
-0.00309792
-0.00277688
-0.0024646
-0.00216599
-0.00188586
-0.00162888
-0.00139945
-0.00120165
-0.00103906
-0.000914777
-0.000831249
-0.000790261
-0.000792867
-0.000839359
-0.000929252
-0.0010613
-0.0012335
-0.0014432
-0.00168709
-0.00196135
-0.00226174
-0.00258369
-0.00292244
-0.00327318
-0.00363111
-0.00399164
-0.00435041
-0.00470341
-0.00504708
-0.00537832
-0.00569452
-0.00599362
-0.00627407
-0.00653479
-0.0067752
-0.00699512
-0.00719474
-0.00737455
-0.0075353
-0.00767793
-0.00780351
-0.00791319
-0.00800816
-0.00808959
-0.00815861
-0.00821624
-0.00826342
-0.00830092
-0.00832939
-0.00834926
-0.00836081
-0.00836408
-0.00835888
-0.00834509
-0.00832255
-0.00828608
-0.00822697
3.43703e-05
5.96565e-05
6.99276e-05
6.93572e-05
6.05438e-05
4.37482e-05
1.93393e-05
-1.21304e-05
-5.0098e-05
-9.40094e-05
-0.000143327
-0.000197552
-0.000256248
-0.000319052
-0.000385691
-0.000455987
-0.00052986
-0.000607323
-0.000688475
-0.000773493
-0.000862616
-0.000956138
-0.00105439
-0.00115772
-0.00126651
-0.00138111
-0.00150188
-0.00162917
-0.00176327
-0.00190445
-0.00205294
-0.0022089
-0.00237242
-0.00254351
-0.0027221
-0.00290799
-0.00310088
-0.00330033
-0.00350574
-0.00371635
-0.00393124
-0.00414931
-0.00436926
-0.00458962
-0.00480875
-0.00502482
-0.00523585
-0.00543974
-0.00563426
-0.0058171
-0.00598591
-0.00613832
-0.006272
-0.00638468
-0.00647422
-0.00653865
-0.00657619
-0.00658534
-0.00656489
-0.00651396
-0.00643206
-0.0063191
-0.00617545
-0.00600192
-0.0057998
-0.0055708
-0.00531726
-0.00504187
-0.0047478
-0.00443865
-0.0041184
-0.00379136
-0.00346213
-0.00313551
-0.00281643
-0.00250987
-0.00222077
-0.0019539
-0.00171383
-0.00150476
-0.00133046
-0.00119418
-0.00109854
-0.00104551
-0.00103629
-0.00107134
-0.00115031
-0.00127205
-0.00143468
-0.00163557
-0.00187146
-0.00213852
-0.00243249
-0.00274872
-0.00308238
-0.00342854
-0.00378229
-0.00413891
-0.00449388
-0.00484311
-0.00518288
-0.00550999
-0.00582177
-0.00611609
-0.00639136
-0.0066465
-0.00688096
-0.00709457
-0.00728761
-0.00746065
-0.00761452
-0.00775029
-0.00786911
-0.00797226
-0.00806103
-0.00813667
-0.00820041
-0.00825335
-0.00829645
-0.00833054
-0.00835622
-0.00837392
-0.00838381
-0.0083858
-0.0083795
-0.00836458
-0.0083406
-0.00830176
-0.00823854
7.85135e-05
0.000101328
0.000109584
0.000107181
9.66046e-05
7.81867e-05
5.23682e-05
1.97568e-05
-1.90397e-05
-6.3433e-05
-0.000112864
-0.000166829
-0.000224892
-0.000286708
-0.000352031
-0.000420717
-0.000492733
-0.000568141
-0.000647104
-0.000729862
-0.000816729
-0.000908074
-0.00100431
-0.00110587
-0.00121322
-0.00132682
-0.00144711
-0.00157454
-0.00170951
-0.00185239
-0.0020035
-0.0021631
-0.00233138
-0.00250844
-0.00269428
-0.00288876
-0.00309163
-0.00330246
-0.00352067
-0.00374548
-0.00397592
-0.00421083
-0.00444883
-0.00468832
-0.00492754
-0.0051645
-0.00539708
-0.00562299
-0.00583982
-0.00604509
-0.00623626
-0.00641079
-0.00656617
-0.00669998
-0.00680993
-0.0068939
-0.00694999
-0.00697659
-0.00697238
-0.00693639
-0.00686805
-0.0067672
-0.00663415
-0.00646962
-0.00627481
-0.00605161
-0.00580212
-0.00552905
-0.00523555
-0.00492522
-0.00460205
-0.00427037
-0.00393481
-0.00360023
-0.00327162
-0.00295406
-0.00265261
-0.00237218
-0.00211748
-0.00189291
-0.00170241
-0.00154946
-0.00143689
-0.00136688
-0.00134086
-0.0013595
-0.00142263
-0.00152928
-0.00167771
-0.00186542
-0.00208921
-0.00234529
-0.0026294
-0.00293687
-0.00326279
-0.00360212
-0.00394984
-0.00430107
-0.00465117
-0.00499584
-0.00533126
-0.00565406
-0.00596144
-0.00625118
-0.0065216
-0.00677158
-0.00700054
-0.00720832
-0.00739523
-0.00756189
-0.00770921
-0.00783834
-0.00795055
-0.00804721
-0.0081297
-0.00819941
-0.00825764
-0.00830556
-0.00834421
-0.00837445
-0.00839692
-0.008412
-0.00841984
-0.00842025
-0.00841271
-0.00839673
-0.00837172
-0.00833152
-0.00826622
0.000133488
0.000152671
0.000158103
0.000153263
0.000140421
0.000119966
9.23893e-05
5.8329e-05
1.8421e-05
-2.6726e-05
-7.65422e-05
-0.00013053
-0.000188257
-0.000249407
-0.000313765
-0.000381233
-0.000451829
-0.000525681
-0.00060302
-0.000684169
-0.000769526
-0.000859553
-0.000954762
-0.0010557
-0.00116292
-0.001277
-0.00139852
-0.00152802
-0.00166603
-0.00181304
-0.00196948
-0.00213572
-0.00231204
-0.00249863
-0.00269555
-0.00290271
-0.00311988
-0.00334665
-0.00358239
-0.00382627
-0.00407725
-0.00433405
-0.00459515
-0.00485881
-0.00512309
-0.00538582
-0.00564468
-0.00589716
-0.00614067
-0.00637252
-0.00658998
-0.00679032
-0.00697086
-0.00712901
-0.00726233
-0.00736858
-0.00744573
-0.00749206
-0.00750614
-0.00748692
-0.00743375
-0.0073464
-0.00722509
-0.00707051
-0.0068838
-0.00666671
-0.00642137
-0.00615043
-0.00585702
-0.0055447
-0.00521744
-0.00487957
-0.00453575
-0.00419087
-0.00385
-0.0035183
-0.00320094
-0.00290298
-0.00262932
-0.00238453
-0.0021728
-0.00199784
-0.00186276
-0.00177001
-0.00172129
-0.00171754
-0.00175886
-0.00184452
-0.001973
-0.00214195
-0.00234833
-0.00258846
-0.00285811
-0.00315261
-0.00346702
-0.00379622
-0.00413507
-0.00447854
-0.00482182
-0.00516045
-0.0054904
-0.00580815
-0.00611072
-0.00639573
-0.00666138
-0.00690647
-0.00713031
-0.00733274
-0.00751403
-0.00767484
-0.00781612
-0.00793906
-0.00804504
-0.0081355
-0.00821195
-0.00827584
-0.00832858
-0.00837144
-0.00840552
-0.00843175
-0.00845078
-0.00846304
-0.00846865
-0.00846737
-0.00845862
-0.00844183
-0.00841627
-0.00837573
-0.00831024
0.000198973
0.000213458
0.000215311
0.00020746
0.000191879
0.000168998
0.000139339
0.000103548
6.22705e-05
1.61155e-05
-3.43516e-05
-8.86399e-05
-0.000146349
-0.000207191
-0.000270996
-0.00033772
-0.000407444
-0.000480373
-0.000556822
-0.000637206
-0.000722029
-0.000811861
-0.000907331
-0.00100911
-0.00111788
-0.00123436
-0.00135924
-0.00149322
-0.00163696
-0.00179108
-0.00195612
-0.00213257
-0.00232081
-0.00252108
-0.00273351
-0.00295804
-0.00319443
-0.00344222
-0.00370072
-0.00396903
-0.00424595
-0.00453005
-0.00481965
-0.00511281
-0.00540736
-0.00570093
-0.00599097
-0.00627476
-0.00654947
-0.0068122
-0.00706003
-0.00729004
-0.00749937
-0.00768529
-0.0078452
-0.00797674
-0.00807775
-0.00814641
-0.00818119
-0.00818096
-0.00814497
-0.00807291
-0.00796492
-0.0078216
-0.00764406
-0.00743391
-0.00719325
-0.00692465
-0.00663117
-0.00631633
-0.00598406
-0.00563868
-0.00528483
-0.00492742
-0.00457158
-0.00422254
-0.00388559
-0.00356594
-0.00326866
-0.00299856
-0.00276007
-0.00255719
-0.00239334
-0.0022713
-0.00219311
-0.00216005
-0.00217256
-0.00223024
-0.00233185
-0.0024753
-0.00265778
-0.00287576
-0.00312513
-0.00340127
-0.00369926
-0.00401391
-0.00434
-0.00467236
-0.005006
-0.00533628
-0.00565896
-0.00597029
-0.0062671
-0.00654682
-0.00680746
-0.00704766
-0.00726663
-0.00746411
-0.00764031
-0.00779586
-0.00793172
-0.00804912
-0.00814946
-0.00823428
-0.00830514
-0.00836361
-0.00841118
-0.0084492
-0.00847886
-0.00850115
-0.0085168
-0.00852626
-0.00852966
-0.00852677
-0.008517
-0.00849972
-0.00847418
-0.00843424
-0.00837022
0.000274547
0.000283334
0.000280907
0.00026952
0.00025077
0.000225114
0.000193085
0.000155316
0.000112434
6.50332e-05
1.3657e-05
-4.12311e-05
-9.92697e-05
-0.000160214
-0.000223953
-0.000290506
-0.000360035
-0.000432832
-0.000509313
-0.000590002
-0.000675524
-0.000766577
-0.000863925
-0.000968381
-0.00108079
-0.001202
-0.00133287
-0.00147426
-0.00162695
-0.0017917
-0.0019692
-0.00216003
-0.00236464
-0.00258335
-0.00281629
-0.00306342
-0.00332443
-0.00359881
-0.00388575
-0.0041842
-0.0044928
-0.00480991
-0.00513364
-0.00546182
-0.00579204
-0.00612168
-0.00644794
-0.00676787
-0.00707842
-0.00737648
-0.00765892
-0.00792263
-0.0081646
-0.00838193
-0.00857191
-0.00873201
-0.00886
-0.00895393
-0.00901218
-0.00903351
-0.00901709
-0.0089625
-0.00886979
-0.00873947
-0.00857256
-0.00837055
-0.00813545
-0.00786975
-0.0075764
-0.00725885
-0.00692095
-0.00656697
-0.00620153
-0.00582954
-0.00545614
-0.00508663
-0.00472639
-0.00438079
-0.00405509
-0.00375431
-0.00348319
-0.00324602
-0.00304659
-0.00288805
-0.00277287
-0.00270274
-0.00267851
-0.00270019
-0.00276692
-0.00287699
-0.00302787
-0.00321628
-0.00343832
-0.0036895
-0.00396495
-0.00425949
-0.00456783
-0.00488467
-0.00520489
-0.00552362
-0.0058364
-0.00613925
-0.00642875
-0.00670208
-0.00695704
-0.00719205
-0.00740615
-0.00759893
-0.0077705
-0.00792139
-0.00805252
-0.00816511
-0.00826058
-0.00834049
-0.00840648
-0.00846016
-0.00850312
-0.00853679
-0.00856245
-0.00858115
-0.00859369
-0.00860058
-0.00860201
-0.00859777
-0.00858728
-0.00856992
-0.00854494
-0.00850648
-0.00844533
0.000359683
0.000361825
0.000354466
0.00033907
0.000316768
0.000288038
0.000253395
0.000213431
0.000168735
0.000119861
6.73111e-05
1.15022e-05
-4.72572e-05
-0.000108783
-0.000173033
-0.000240111
-0.00031027
-0.000383908
-0.000461556
-0.000543869
-0.000631605
-0.000725615
-0.000826819
-0.00093619
-0.00105474
-0.0011835
-0.00132349
-0.00147571
-0.00164112
-0.00182062
-0.00201499
-0.00222492
-0.00245093
-0.00269336
-0.00295234
-0.00322776
-0.00351926
-0.00382618
-0.00414757
-0.00448217
-0.00482842
-0.00518446
-0.00554811
-0.00591697
-0.00628835
-0.00665937
-0.00702699
-0.007388
-0.00773914
-0.00807708
-0.00839849
-0.00870009
-0.00897872
-0.00923132
-0.00945504
-0.00964726
-0.0098056
-0.00992802
-0.0100128
-0.0100586
-0.0100644
-0.0100298
-0.00995468
-0.00983943
-0.00968496
-0.00949264
-0.00926434
-0.00900243
-0.00870976
-0.00838963
-0.00804581
-0.00768249
-0.00730421
-0.00691584
-0.00652253
-0.00612962
-0.00574256
-0.00536686
-0.00500794
-0.00467107
-0.00436129
-0.00408323
-0.00384105
-0.00363837
-0.0034781
-0.00336244
-0.00329273
-0.00326951
-0.00329238
-0.00336009
-0.00347053
-0.00362079
-0.00380723
-0.0040256
-0.00427116
-0.0045388
-0.00482321
-0.00511903
-0.00542097
-0.00572397
-0.00602335
-0.00631486
-0.00659478
-0.00686003
-0.00710811
-0.00733721
-0.00754612
-0.00773421
-0.00790142
-0.00804816
-0.00817524
-0.00828381
-0.00837526
-0.00845115
-0.00851313
-0.00856288
-0.00860202
-0.00863206
-0.00865436
-0.00867005
-0.00867999
-0.00868477
-0.00868463
-0.00867942
-0.00866863
-0.00865166
-0.00862778
-0.00859155
-0.0085344
0.000453726
0.000448313
0.00043542
0.000415592
0.000389419
0.000357361
0.000319903
0.000277561
0.000230858
0.000180286
0.00012628
6.91932e-05
9.2628e-06
-5.34062e-05
-0.000118857
-0.000187293
-0.000259078
-0.00033473
-0.000414917
-0.00050044
-0.000592217
-0.000691265
-0.000798681
-0.000915622
-0.00104328
-0.00118287
-0.0013356
-0.00150263
-0.00168508
-0.00188396
-0.00210017
-0.00233447
-0.0025874
-0.0028593
-0.00315026
-0.00346008
-0.00378825
-0.00413395
-0.00449604
-0.00487301
-0.00526304
-0.00566401
-0.00607347
-0.00648871
-0.00690679
-0.00732455
-0.0077387
-0.00814578
-0.00854231
-0.00892475
-0.00928958
-0.00963338
-0.00995279
-0.0102446
-0.010506
-0.010734
-0.0109262
-0.0110805
-0.0111951
-0.0112684
-0.0112994
-0.0112875
-0.0112325
-0.0111346
-0.0109947
-0.0108139
-0.0105939
-0.010337
-0.0100459
-0.00972372
-0.00937408
-0.00900105
-0.00860908
-0.00820297
-0.00778781
-0.00736895
-0.0069519
-0.00654224
-0.00614559
-0.00576743
-0.00541308
-0.00508754
-0.0047954
-0.00454072
-0.00432696
-0.00415686
-0.00403238
-0.00395464
-0.00392383
-0.00393929
-0.00399942
-0.00410179
-0.00424319
-0.00441967
-0.00462675
-0.00485946
-0.00511256
-0.00538064
-0.00565832
-0.00594036
-0.00622184
-0.00649822
-0.0067655
-0.00702025
-0.00725966
-0.0074816
-0.00768455
-0.00786762
-0.00803052
-0.00817344
-0.00829704
-0.00840234
-0.00849064
-0.00856347
-0.00862244
-0.00866925
-0.00870554
-0.00873288
-0.00875267
-0.00876612
-0.00877417
-0.00877746
-0.00877632
-0.00877068
-0.00876007
-0.00874398
-0.00872172
-0.00868834
-0.00863606
0.000555872
0.000542021
0.00052304
0.000498413
0.000468098
0.000432513
0.000392078
0.000347204
0.000298312
0.000245806
0.000190035
0.000131261
6.96342e-05
5.16106e-06
-6.23089e-05
-0.000133094
-0.000207687
-0.000286749
-0.000371103
-0.000461716
-0.000559683
-0.000666212
-0.000782594
-0.000910185
-0.00105038
-0.00120458
-0.00137417
-0.00156049
-0.00176478
-0.0019882
-0.0022317
-0.00249609
-0.0027819
-0.00308943
-0.00341866
-0.00376926
-0.00414053
-0.00453145
-0.00494061
-0.00536624
-0.00580624
-0.00625818
-0.00671931
-0.00718664
-0.00765694
-0.00812677
-0.00859257
-0.00905069
-0.00949738
-0.00992893
-0.0103416
-0.0107319
-0.0110963
-0.0114314
-0.0117341
-0.0120016
-0.0122313
-0.0124209
-0.0125685
-0.0126725
-0.0127317
-0.0127453
-0.0127131
-0.0126351
-0.0125119
-0.0123446
-0.0121348
-0.0118844
-0.0115961
-0.0112727
-0.0109178
-0.0105352
-0.0101292
-0.00970449
-0.00926612
-0.00881935
-0.00836971
-0.00792285
-0.00748449
-0.00706034
-0.00665598
-0.00627674
-0.00592765
-0.00561327
-0.00533763
-0.00510409
-0.00491526
-0.00477295
-0.00467808
-0.00463065
-0.00462974
-0.00467354
-0.00475935
-0.00488371
-0.00504249
-0.00523098
-0.00544411
-0.0056765
-0.00592273
-0.00617742
-0.00643541
-0.0066919
-0.00694256
-0.00718358
-0.00741181
-0.00762471
-0.00782042
-0.00799771
-0.00815598
-0.00829516
-0.00841566
-0.00851833
-0.00860432
-0.00867504
-0.00873205
-0.00877699
-0.00881152
-0.00883722
-0.00885552
-0.00886768
-0.0088747
-0.0088773
-0.00887586
-0.0088704
-0.00886055
-0.00884584
-0.00882568
-0.00879564
-0.0087488
0.000665124
0.000641993
0.000616412
0.000586673
0.000551997
0.000512732
0.000469193
0.000421648
0.000370387
0.000315694
0.000257805
0.000196873
0.000132933
6.5876e-05
-4.57434e-06
-7.88741e-05
-0.000157665
-0.000241771
-0.000332189
-0.000430075
-0.000536725
-0.00065355
-0.000782055
-0.000923807
-0.00108041
-0.00125345
-0.00144451
-0.00165507
-0.00188651
-0.00214005
-0.00241672
-0.0027173
-0.00304229
-0.00339188
-0.00376591
-0.00416385
-0.00458478
-0.00502742
-0.00549007
-0.00597065
-0.00646676
-0.00697563
-0.00749423
-0.00801924
-0.00854714
-0.00907424
-0.00959672
-0.0101107
-0.0106122
-0.0110973
-0.0115622
-0.0120031
-0.0124163
-0.0127985
-0.0131463
-0.0134569
-0.0137275
-0.0139557
-0.0141394
-0.0142771
-0.0143673
-0.0144092
-0.0144023
-0.0143466
-0.0142425
-0.0140909
-0.0138932
-0.0136511
-0.0133671
-0.0130438
-0.0126846
-0.012293
-0.0118733
-0.0114298
-0.0109676
-0.0104918
-0.0100078
-0.00952128
-0.0090381
-0.00856408
-0.00810503
-0.00766662
-0.00725427
-0.00687305
-0.00652755
-0.00622182
-0.00595917
-0.0057422
-0.00557263
-0.00545126
-0.00537798
-0.00535172
-0.00537049
-0.00543145
-0.00553098
-0.00566476
-0.005828
-0.00601548
-0.00622181
-0.00644152
-0.00666929
-0.00690002
-0.00712906
-0.00735222
-0.00756591
-0.00776719
-0.00795376
-0.00812399
-0.00827689
-0.00841204
-0.00852957
-0.00863005
-0.00871443
-0.00878393
-0.00884
-0.0088842
-0.00891812
-0.00894333
-0.00896126
-0.00897319
-0.00898018
-0.00898298
-0.00898205
-0.00897748
-0.00896899
-0.00895618
-0.00893855
-0.00891222
-0.00887116
0.000780284
0.000747063
0.000714417
0.000679304
0.000640101
0.000597043
0.000550299
0.000499954
0.000446131
0.000388964
0.00032855
0.000264906
0.000197932
0.00012738
5.28264e-05
-2.63431e-05
-0.000110941
-0.000201975
-0.00030064
-0.000408299
-0.000526465
-0.000656776
-0.000800957
-0.000960797
-0.0011381
-0.00133467
-0.00155223
-0.00179241
-0.00205668
-0.00234632
-0.00266236
-0.00300553
-0.00337622
-0.00377449
-0.00419996
-0.00465188
-0.00512905
-0.00562988
-0.00615235
-0.00669406
-0.00725226
-0.00782387
-0.00840551
-0.00899357
-0.00958425
-0.0101736
-0.0107575
-0.0113318
-0.0118925
-0.0124353
-0.0129563
-0.0134516
-0.0139174
-0.0143501
-0.0147464
-0.0151031
-0.0154176
-0.0156873
-0.01591
-0.0160839
-0.0162078
-0.0162804
-0.0163013
-0.0162702
-0.0161874
-0.0160536
-0.01587
-0.0156382
-0.0153602
-0.0150387
-0.0146766
-0.0142773
-0.0138447
-0.0133832
-0.0128973
-0.0123922
-0.0118731
-0.0113457
-0.0108157
-0.0102891
-0.00977183
-0.00926989
-0.00878903
-0.0083348
-0.00791236
-0.00752642
-0.00718107
-0.00687972
-0.00662498
-0.00641859
-0.00626135
-0.00615311
-0.00609275
-0.0060782
-0.00610652
-0.00617398
-0.00627622
-0.00640831
-0.00656499
-0.00674084
-0.00693038
-0.00712831
-0.00732962
-0.00752975
-0.00772466
-0.00791091
-0.00808572
-0.00824699
-0.00839326
-0.00852369
-0.00863802
-0.00873648
-0.00881974
-0.00888878
-0.00894487
-0.0089894
-0.00902387
-0.00904977
-0.00906851
-0.00908136
-0.00908939
-0.00909338
-0.00909383
-0.00909091
-0.00908441
-0.00907402
-0.0090593
-0.00903692
-0.00900174
0.000899919
0.00085584
0.000815715
0.000775017
0.000731164
0.000684231
0.000634198
0.000580921
0.000524319
0.000464346
0.000400929
0.000333924
0.000263075
0.000187971
0.000108018
2.24215e-05
-6.98231e-05
-0.00016993
-0.000279311
-0.000399558
-0.00053242
-0.000679767
-0.00084356
-0.00102581
-0.00122852
-0.00145368
-0.00170315
-0.00197868
-0.00228179
-0.00261378
-0.00297562
-0.00336794
-0.003791
-0.00424461
-0.00472819
-0.00524066
-0.00578054
-0.00634588
-0.00693431
-0.00754309
-0.00816911
-0.00880894
-0.00945889
-0.010115
-0.0107733
-0.0114293
-0.012079
-0.0127178
-0.0133414
-0.0139456
-0.0145262
-0.0150791
-0.0156004
-0.0160865
-0.0165339
-0.0169395
-0.0173002
-0.0176137
-0.0178776
-0.0180901
-0.0182496
-0.018355
-0.0184057
-0.0184012
-0.0183417
-0.0182278
-0.0180603
-0.0178408
-0.0175709
-0.017253
-0.0168899
-0.0164847
-0.016041
-0.0155627
-0.0150544
-0.0145208
-0.0139671
-0.0133986
-0.0128212
-0.0122408
-0.0116633
-0.011095
-0.0105419
-0.0100099
-0.00950476
-0.00903184
-0.00859596
-0.00820141
-0.00785175
-0.0075497
-0.00729715
-0.00709497
-0.00694307
-0.00684037
-0.0067848
-0.00677341
-0.00680244
-0.00686747
-0.00696352
-0.0070853
-0.00722733
-0.00738414
-0.00755044
-0.00772126
-0.00789209
-0.00805898
-0.00821861
-0.00836831
-0.00850607
-0.00863057
-0.00874105
-0.00883734
-0.00891971
-0.00898886
-0.00904575
-0.0090916
-0.00912772
-0.00915549
-0.00917624
-0.00919118
-0.00920136
-0.00920756
-0.00921032
-0.00920984
-0.00920598
-0.0091985
-0.00918701
-0.00916872
-0.00913933
0.00102234
0.000966688
0.00091872
0.000872273
0.000823688
0.000772824
0.000719423
0.000663067
0.000603434
0.00054026
0.000473277
0.000402157
0.000326459
0.000245587
0.000158755
6.49668e-05
-3.69998e-05
-0.000148586
-0.000271441
-0.000407403
-0.000558466
-0.000726745
-0.000914435
-0.00112376
-0.00135693
-0.00161607
-0.00190317
-0.00222005
-0.00256825
-0.002949
-0.0033632
-0.00381131
-0.00429337
-0.00480896
-0.00535716
-0.00593661
-0.00654543
-0.00718131
-0.00784153
-0.00852296
-0.00922213
-0.00993524
-0.0106583
-0.011387
-0.012117
-0.0128438
-0.0135628
-0.0142695
-0.0149593
-0.0156278
-0.0162706
-0.0168836
-0.0174627
-0.0180042
-0.0185047
-0.0189607
-0.0193694
-0.0197282
-0.0200348
-0.0202873
-0.020484
-0.0206237
-0.0207057
-0.0207295
-0.020695
-0.0206027
-0.0204532
-0.0202478
-0.0199882
-0.0196761
-0.0193143
-0.0189054
-0.0184527
-0.01796
-0.0174314
-0.0168713
-0.0162846
-0.0156765
-0.0150526
-0.0144187
-0.0137807
-0.013145
-0.0125177
-0.0119051
-0.0113134
-0.0107484
-0.0102158
-0.00972071
-0.0092676
-0.00886031
-0.00850181
-0.0081942
-0.00793856
-0.00773496
-0.00758244
-0.00747903
-0.00742182
-0.00740706
-0.00743031
-0.00748657
-0.0075705
-0.00767657
-0.00779927
-0.00793328
-0.00807363
-0.00821581
-0.0083559
-0.0084906
-0.00861731
-0.00873406
-0.00883956
-0.0089331
-0.0090145
-0.00908404