/*--------------------------------*- C++ -*----------------------------------*\
| =========                 |                                                 |
| \\      /  F ield         | OpenFOAM: The Open Source CFD Toolbox           |
|  \\    /   O peration     | Version:  2112                                  |
|   \\  /    A nd           | Website:  www.openfoam.com                      |
|    \\/     M anipulation  |                                                 |
\*---------------------------------------------------------------------------*/
FoamFile
{
    version     2.0;
    format      ascii;
    arch        "LSB;label=32;scalar=64";
    class       surfaceScalarField;
    location    "2.7";
    object      phi;
}
// * * * * * * * * * * * * * * * * * * * * * * * * * * * * * * * * * * * * * //

dimensions      [0 3 -1 0 0 0 0];

oriented        oriented;

internalField   nonuniform List<scalar> 
33024
(
-2.53368e-11
2.71172e-11
2.26382e-10
-2.51695e-10
7.58999e-10
-5.32646e-10
1.49101e-09
-7.32001e-10
2.34239e-09
-8.51399e-10
3.24658e-09
-9.04167e-10
4.15102e-09
-9.04427e-10
5.0159e-09
-8.64889e-10
5.81201e-09
-7.96114e-10
6.51871e-09
-7.06694e-10
7.12225e-09
-6.03551e-10
7.61442e-09
-4.92165e-10
7.99123e-09
-3.76795e-10
8.25185e-09
-2.60631e-10
8.39774e-09
-1.45902e-10
8.43178e-09
-3.40323e-11
8.35746e-09
7.43264e-11
8.17842e-09
1.79048e-10
7.89784e-09
2.80573e-10
7.51813e-09
3.79711e-10
7.04058e-09
4.77547e-10
6.46523e-09
5.75346e-10
5.7908e-09
6.74438e-10
5.01464e-09
7.76154e-10
4.13289e-09
8.81748e-10
3.14056e-09
9.92333e-10
2.03173e-09
1.10883e-09
7.99773e-10
1.23195e-09
-5.62418e-10
1.36219e-09
-2.06221e-09
1.49979e-09
-3.70699e-09
1.64478e-09
-5.50396e-09
1.79697e-09
-7.4599e-09
1.95594e-09
-9.58101e-09
2.1211e-09
-1.18727e-08
2.29166e-09
-1.43393e-08
2.46664e-09
-1.69842e-08
2.6449e-09
-1.98094e-08
2.82513e-09
-2.28152e-08
3.00585e-09
-2.60006e-08
3.1854e-09
-2.93626e-08
3.36199e-09
-3.28962e-08
3.53365e-09
-3.65945e-08
3.69829e-09
-4.04482e-08
3.8537e-09
-4.44458e-08
3.99752e-09
-4.85731e-08
4.12734e-09
-5.28138e-08
4.24067e-09
-5.71488e-08
4.33499e-09
-6.15566e-08
4.40779e-09
-6.60131e-08
4.45657e-09
-7.0492e-08
4.47892e-09
-7.49646e-08
4.47252e-09
-7.93998e-08
4.43522e-09
-8.37649e-08
4.36504e-09
-8.80251e-08
4.26024e-09
-9.21444e-08
4.11935e-09
-9.60856e-08
3.94118e-09
-9.98105e-08
3.72492e-09
-1.03281e-07
3.47013e-09
-1.06457e-07
3.17678e-09
-1.09303e-07
2.8453e-09
-1.11779e-07
2.47656e-09
-1.13851e-07
2.07197e-09
-1.15485e-07
1.63348e-09
-1.16649e-07
1.16376e-09
-1.17314e-07
6.65864e-10
-1.17458e-07
1.43575e-10
-1.17055e-07
-4.03024e-10
-1.16092e-07
-9.6291e-10
-1.14557e-07
-1.53465e-09
-1.12445e-07
-2.11216e-09
-1.09756e-07
-2.68949e-09
-1.06495e-07
-3.26037e-09
-1.02677e-07
-3.81827e-09
-9.83206e-08
-4.35651e-09
-9.34523e-08
-4.86831e-09
-8.81053e-08
-5.34697e-09
-8.23194e-08
-5.78593e-09
-7.61404e-08
-6.17895e-09
-6.96202e-08
-6.52023e-09
-6.28157e-08
-6.80455e-09
-5.57882e-08
-7.02741e-09
-4.86031e-08
-7.18516e-09
-4.1328e-08
-7.27512e-09
-3.40323e-08
-7.29566e-09
-2.6786e-08
-7.24631e-09
-1.96582e-08
-7.12778e-09
-1.27162e-08
-6.942e-09
-6.02413e-09
-6.69205e-09
3.58129e-10
-6.38226e-09
6.37653e-09
-6.0184e-09
1.19823e-08
-5.60576e-09
1.71344e-08
-5.15212e-09
2.17995e-08
-4.66504e-09
2.59521e-08
-4.15267e-09
2.95755e-08
-3.62334e-09
3.26609e-08
-3.08541e-09
3.52079e-08
-2.54705e-09
3.7224e-08
-2.01603e-09
3.87235e-08
-1.49956e-09
3.97276e-08
-1.00411e-09
4.02629e-08
-5.35313e-10
4.03608e-08
-9.78659e-11
4.00562e-08
3.04572e-10
3.9387e-08
6.69284e-10
3.83923e-08
9.94632e-10
3.71124e-08
1.27991e-09
3.55871e-08
1.52534e-09
3.38551e-08
1.73193e-09
3.19537e-08
1.90139e-09
2.99177e-08
2.03604e-09
2.77791e-08
2.1386e-09
2.5567e-08
2.21206e-09
2.33075e-08
2.25952e-09
2.10236e-08
2.28393e-09
1.87357e-08
2.28793e-09
1.64621e-08
2.27351e-09
1.42204e-08
2.24179e-09
1.20277e-08
2.19262e-09
9.90351e-09
2.12423e-09
7.87061e-09
2.03289e-09
5.95811e-09
1.9125e-09
4.20373e-09
1.75438e-09
2.65635e-09
1.54738e-09
1.37726e-09
1.27908e-09
4.37389e-10
9.39875e-10
-9.56558e-11
5.33044e-10
-1.99419e-10
1.03763e-10
-1.99418e-10
2.5191e-10
-2.24774e-10
1.10424e-09
-1.10404e-09
2.48751e-09
-1.91589e-09
4.26767e-09
-2.51218e-09
6.29793e-09
-2.88165e-09
8.44166e-09
-3.04789e-09
1.05817e-08
-3.04452e-09
1.2623e-08
-2.90613e-09
1.44911e-08
-2.66426e-09
1.61306e-08
-2.34611e-09
1.75015e-08
-1.97451e-09
1.85775e-08
-1.56813e-09
1.93425e-08
-1.14181e-09
1.97888e-08
-7.06913e-10
1.99145e-08
-2.71578e-10
1.97217e-08
1.5877e-10
1.92146e-08
5.81358e-10
1.83983e-08
9.95379e-10
1.7277e-08
1.40182e-09
1.58537e-08
1.80306e-09
1.41288e-08
2.20244e-09
1.21002e-08
2.60395e-09
9.76275e-09
3.01189e-09
7.10837e-09
3.43054e-09
4.12623e-09
3.8639e-09
8.0306e-10
4.31551e-09
-2.87635e-09
4.78824e-09
-6.92862e-09
5.28422e-09
-1.13712e-08
5.80476e-09
-1.62217e-08
6.35028e-09
-2.14973e-08
6.92038e-09
-2.72141e-08
7.51383e-09
-3.33868e-08
8.12857e-09
-4.00275e-08
8.76182e-09
-4.71459e-08
9.41007e-09
-5.47484e-08
1.00691e-08
-6.28375e-08
1.07341e-08
-7.14119e-08
1.13995e-08
-8.04655e-08
1.20594e-08
-8.9987e-08
1.2707e-08
-9.99602e-08
1.33351e-08
-1.10363e-07
1.39362e-08
-1.21167e-07
1.45022e-08
-1.32338e-07
1.50247e-08
-1.43835e-07
1.54951e-08
-1.55612e-07
1.59044e-08
-1.67616e-07
1.62439e-08
-1.79785e-07
1.65048e-08
-1.92056e-07
1.66783e-08
-2.04356e-07
1.67564e-08
-2.16608e-07
1.6731e-08
-2.2873e-07
1.65949e-08
-2.40637e-07
1.63417e-08
-2.52237e-07
1.59656e-08
-2.63439e-07
1.5462e-08
-2.74147e-07
1.48273e-08
-2.84265e-07
1.40591e-08
-2.93696e-07
1.31563e-08
-3.02346e-07
1.21193e-08
-3.10119e-07
1.09499e-08
-3.16925e-07
9.65136e-09
-3.22677e-07
8.22878e-09
-3.27294e-07
6.6887e-09
-3.307e-07
5.03954e-09
-3.32828e-07
3.29186e-09
-3.33619e-07
1.45734e-09
-3.33025e-07
-4.51012e-10
-3.31003e-07
-2.42431e-09
-3.27529e-07
-4.437e-09
-3.22589e-07
-6.47525e-09
-3.16181e-07
-8.52022e-09
-3.08318e-07
-1.0552e-08
-2.99029e-07
-1.25497e-08
-2.88355e-07
-1.44919e-08
-2.76355e-07
-1.63571e-08
-2.631e-07
-1.81233e-08
-2.48677e-07
-1.97693e-08
-2.33189e-07
-2.12743e-08
-2.16749e-07
-2.26187e-08
-1.99485e-07
-2.37842e-08
-1.81535e-07
-2.47547e-08
-1.63046e-07
-2.55161e-08
-1.44175e-07
-2.60569e-08
-1.25081e-07
-2.63689e-08
-1.0593e-07
-2.64469e-08
-8.68868e-08
-2.62891e-08
-6.81167e-08
-2.58978e-08
-4.978e-08
-2.52787e-08
-3.20308e-08
-2.44413e-08
-1.50143e-08
-2.33987e-08
1.13494e-09
-2.21676e-08
1.62969e-08
-2.07677e-08
3.03654e-08
-1.92206e-08
4.32518e-08
-1.75514e-08
5.48852e-08
-1.57861e-08
6.52135e-08
-1.39516e-08
7.42037e-08
-1.20756e-08
8.18419e-08
-1.01853e-08
8.81328e-08
-8.3069e-09
9.30986e-08
-6.4653e-09
9.67778e-08
-4.68333e-09
9.92238e-08
-2.98132e-09
1.00503e-07
-1.37679e-09
1.00691e-07
1.15854e-10
9.98753e-08
1.48545e-09
9.81458e-08
2.72415e-09
9.55983e-08
3.82736e-09
9.23301e-08
4.79358e-09
8.84378e-08
5.62417e-09
8.40162e-08
6.32305e-09
7.9156e-08
6.89625e-09
7.39431e-08
7.35147e-09
6.84577e-08
7.6975e-09
6.27735e-08
7.94364e-09
5.69586e-08
8.09893e-09
5.10751e-08
8.17136e-09
4.51816e-08
8.16703e-09
3.93343e-08
8.08912e-09
3.359e-08
7.93688e-09
2.80096e-08
7.70465e-09
2.26616e-08
7.38094e-09
1.76262e-08
6.94787e-09
1.29991e-08
6.38145e-09
8.89313e-09
5.65337e-09
5.43566e-09
4.73654e-09
2.75754e-09
3.618e-09
9.67551e-10
2.32303e-09
1.07468e-10
9.63845e-10
-9.19488e-11
5.33126e-10
-7.57928e-10
1.91908e-09
-2.48999e-09
3.9794e-09
-3.97622e-09
6.52791e-09
-5.06066e-09
9.37577e-09
-5.7295e-09
1.23463e-08
-6.01839e-09
1.52838e-08
-5.98205e-09
1.80576e-08
-5.67998e-09
2.05623e-08
-5.16891e-09
2.27158e-08
-4.4996e-09
2.44571e-08
-3.71579e-09
2.57429e-08
-2.85399e-09
2.65448e-08
-1.94372e-09
2.68458e-08
-1.00786e-09
2.66373e-08
-6.30953e-11
2.5917e-08
8.79117e-10
2.46856e-08
1.81269e-09
2.29456e-08
2.73544e-09
2.06986e-08
3.64875e-09
1.79449e-08
4.55681e-09
1.46815e-08
5.46579e-09
1.09023e-08
6.38316e-09
6.59723e-09
7.317e-09
1.7524e-09
8.27536e-09
-3.64946e-09
9.26576e-09
-9.62861e-09
1.02947e-08
-1.62076e-08
1.13672e-08
-2.34103e-08
1.24869e-08
-3.12612e-08
1.36557e-08
-3.97843e-08
1.48734e-08
-4.90021e-08
1.61382e-08
-5.89347e-08
1.74464e-08
-6.95989e-08
1.87928e-08
-8.10073e-08
2.01703e-08
-9.31676e-08
2.15703e-08
-1.06081e-07
2.29829e-08
-1.19744e-07
2.43966e-08
-1.34143e-07
2.57987e-08
-1.49259e-07
2.71754e-08
-1.65064e-07
2.85116e-08
-1.8152e-07
2.97914e-08
-1.98582e-07
3.09981e-08
-2.16194e-07
3.21142e-08
-2.34291e-07
3.31217e-08
-2.52798e-07
3.40025e-08
-2.71632e-07
3.47384e-08
-2.907e-07
3.53115e-08
-3.09899e-07
3.57041e-08
-3.2912e-07
3.58996e-08
-3.48246e-07
3.58823e-08
-3.67153e-07
3.56378e-08
-3.85711e-07
3.51532e-08
-4.03787e-07
3.44175e-08
-4.21243e-07
3.34217e-08
-4.3794e-07
3.2159e-08
-4.53738e-07
3.06252e-08
-4.68498e-07
2.88185e-08
-4.82081e-07
2.674e-08
-4.94356e-07
2.43936e-08
-5.05192e-07
2.17862e-08
-5.14468e-07
1.89277e-08
-5.22071e-07
1.58311e-08
-5.27894e-07
1.25124e-08
-5.31846e-07
8.9907e-09
-5.33843e-07
5.2892e-09
-5.33824e-07
1.43891e-09
-5.31722e-07
-2.55335e-09
-5.27507e-07
-6.63906e-09
-5.21157e-07
-1.07874e-08
-5.12667e-07
-1.49652e-08
-5.02052e-07
-1.91356e-08
-4.89344e-07
-2.326e-08
-4.74595e-07
-2.72984e-08
-4.57877e-07
-3.12101e-08
-4.39279e-07
-3.49543e-08
-4.18913e-07
-3.849e-08
-3.96905e-07
-4.17775e-08
-3.73401e-07
-4.47782e-08
-3.48564e-07
-4.74558e-08
-3.22571e-07
-4.97767e-08
-2.95615e-07
-5.17109e-08
-2.67899e-07
-5.32324e-08
-2.39636e-07
-5.432e-08
-2.11046e-07
-5.4958e-08
-1.82357e-07
-5.51366e-08
-1.53793e-07
-5.48524e-08
-1.25583e-07
-5.41085e-08
-9.79467e-08
-5.29149e-08
-7.10994e-08
-5.12886e-08
-4.5245e-08
-4.92531e-08
-2.05742e-08
-4.68385e-08
2.73862e-09
-4.40805e-08
2.45385e-08
-4.10205e-08
4.46905e-08
-3.77035e-08
6.30836e-08
-3.41791e-08
7.96305e-08
-3.04985e-08
9.42694e-08
-2.67145e-08
1.06964e-07
-2.28799e-08
1.17703e-07
-1.90463e-08
1.26502e-07
-1.52635e-08
1.33396e-07
-1.15777e-08
1.38446e-07
-8.03094e-09
1.41729e-07
-4.66044e-09
1.43343e-07
-1.4977e-09
1.43396e-07
1.43176e-09
1.42012e-07
4.10882e-09
1.39319e-07
6.52053e-09
1.35452e-07
8.66013e-09
1.3055e-07
1.05267e-08
1.24748e-07
1.21244e-08
1.18182e-07
1.34621e-08
1.10982e-07
1.45521e-08
1.0327e-07
1.54095e-08
9.5163e-08
1.60504e-08
8.6771e-08
1.6491e-08
7.81966e-08
1.67457e-08
6.9538e-08
1.68257e-08
6.08905e-08
1.67366e-08
5.23503e-08
1.64772e-08
4.40176e-08
1.60373e-08
3.60018e-08
1.53967e-08
2.84249e-08
1.45248e-08
2.14247e-08
1.33816e-08
1.51557e-08
1.19224e-08
9.78381e-09
1.01084e-08
5.47478e-09
7.92704e-09
2.37058e-09
5.42722e-09
5.53095e-10
2.78134e-09
4.61147e-10
7.3616e-10
-1.49407e-09
2.52707e-09
-4.28093e-09
5.08482e-09
-6.53395e-09
8.16402e-09
-8.13985e-09
1.15388e-08
-9.10433e-09
1.50045e-08
-9.48407e-09
1.83811e-08
-9.35858e-09
2.15153e-08
-8.81421e-09
2.42811e-08
-7.93472e-09
2.6578e-08
-6.79657e-09
2.8329e-08
-5.46674e-09
2.9477e-08
-4.00194e-09
2.99818e-08
-2.44854e-09
2.98168e-08
-8.42911e-10
2.89657e-08
7.87993e-10
2.74191e-08
2.42576e-09
2.5172e-08
4.05979e-09
2.22213e-08
5.68608e-09
1.85639e-08
7.30619e-09
1.41946e-08
8.92608e-09
9.10554e-09
1.05549e-08
3.28485e-09
1.22038e-08
-3.28316e-09
1.3885e-08
-1.06182e-08
1.56104e-08
-1.87436e-08
1.73911e-08
-2.76853e-08
1.92364e-08
-3.74713e-08
2.11532e-08
-4.81303e-08
2.31459e-08
-5.96905e-08
2.52159e-08
-7.21785e-08
2.73614e-08
-8.56177e-08
2.95774e-08
-1.00027e-07
3.18561e-08
-1.15421e-07
3.41867e-08
-1.31806e-07
3.65554e-08
-1.49182e-07
3.89459e-08
-1.67539e-07
4.13396e-08
-1.86858e-07
4.37154e-08
-2.07109e-07
4.60503e-08
-2.28253e-07
4.83194e-08
-2.50238e-07
5.04961e-08
-2.72999e-07
5.25526e-08
-2.96461e-07
5.446e-08
-3.20535e-07
5.61886e-08
-3.45122e-07
5.77085e-08
-3.7011e-07
5.89899e-08
-3.95375e-07
6.00034e-08
-4.20784e-07
6.07206e-08
-4.46194e-07
6.11144e-08
-4.71454e-07
6.11597e-08
-4.96405e-07
6.08336e-08
-5.20883e-07
6.01157e-08
-5.44719e-07
5.89888e-08
-5.6774e-07
5.74391e-08
-5.89775e-07
5.54565e-08
-6.10651e-07
5.30347e-08
-6.30197e-07
5.01716e-08
-6.48248e-07
4.68695e-08
-6.64643e-07
4.3135e-08
-6.79229e-07
3.89794e-08
-6.91861e-07
3.44183e-08
-7.02405e-07
2.9472e-08
-7.10739e-07
2.41652e-08
-7.16754e-07
1.85271e-08
-7.20354e-07
1.25911e-08
-7.21456e-07
6.39131e-09
-7.20027e-07
9.89679e-12
-7.15972e-07
-6.60858e-09
-7.09296e-07
-1.3315e-08
-6.99987e-07
-2.00966e-08
-6.88056e-07
-2.68958e-08
-6.73537e-07
-3.3655e-08
-6.56482e-07
-4.03148e-08
-6.36966e-07
-4.68145e-08
-6.15084e-07
-5.30927e-08
-5.9095e-07
-5.90877e-08
-5.64702e-07
-6.47386e-08
-5.36493e-07
-6.99858e-08
-5.06499e-07
-7.47721e-08
-4.74912e-07
-7.90433e-08
-4.41939e-07
-8.27495e-08
-4.07804e-07
-8.58458e-08
-3.72743e-07
-8.82934e-08
-3.37003e-07
-9.00602e-08
-3.00839e-07
-9.11223e-08
-2.64511e-07
-9.14641e-08
-2.28285e-07
-9.10792e-08
-1.92422e-07
-8.9971e-08
-1.57184e-07
-8.81531e-08
-1.22823e-07
-8.56489e-08
-8.95843e-08
-8.24922e-08
-5.76965e-08
-7.87263e-08
-2.73736e-08
-7.44034e-08
1.19007e-09
-6.95842e-08
2.78232e-08
-6.43366e-08
5.23779e-08
-5.87338e-08
7.47334e-08
-5.2854e-08
9.47969e-08
-4.6778e-08
1.12504e-07
-4.05874e-08
1.27822e-07
-3.43634e-08
1.40743e-07
-2.81846e-08
1.51291e-07
-2.21256e-08
1.59515e-07
-1.62555e-08
1.65491e-07
-1.06364e-08
1.69316e-07
-5.32234e-09
1.71106e-07
-3.58628e-10
1.70996e-07
4.21901e-09
1.69132e-07
8.38436e-09
1.65671e-07
1.21209e-08
1.60777e-07
1.54214e-08
1.54614e-07
1.82869e-08
1.4735e-07
2.07263e-08
1.39148e-07
2.27545e-08
1.30166e-07
2.43909e-08
1.20559e-07
2.56579e-08
1.10471e-07
2.65781e-08
1.00045e-07
2.71721e-08
8.94147e-08
2.7456e-08
7.87128e-08
2.74385e-08
6.8072e-08
2.7118e-08
5.76288e-08
2.64805e-08
4.75275e-08
2.5498e-08
3.79243e-08
2.4128e-08
2.89893e-08
2.23166e-08
2.0907e-08
2.00048e-08
1.38728e-08
1.71426e-08
8.0854e-09
1.37145e-08
3.73404e-09
9.77858e-09
9.86797e-10
5.52858e-09
1.44794e-09
8.62904e-10
-2.35698e-09
2.91704e-09
-6.33505e-09
5.78755e-09
-9.40445e-09
9.17421e-09
-1.15265e-08
1.28174e-08
-1.27475e-08
1.64899e-08
-1.31565e-08
1.99946e-08
-1.28633e-08
2.31639e-08
-1.19836e-08
2.58585e-08
-1.06293e-08
2.79656e-08
-8.90358e-09
2.93962e-08
-6.89735e-09
3.00826e-08
-4.68838e-09
2.99748e-08
-2.34073e-09
2.90369e-08
9.49479e-11
2.72442e-08
2.58075e-09
2.45793e-08
5.0906e-09
2.10301e-08
7.60904e-09
1.65863e-08
1.01299e-08
1.12379e-08
1.26546e-08
4.97317e-09
1.51908e-08
-2.22239e-09
1.77505e-08
-1.03669e-08
2.03483e-08
-1.94821e-08
2.30002e-08
-2.95935e-08
2.57219e-08
-4.07296e-08
2.85272e-08
-5.29207e-08
3.14275e-08
-6.61982e-08
3.44307e-08
-8.05928e-08
3.75405e-08
-9.61331e-08
4.07563e-08
-1.12844e-07
4.40726e-08
-1.30746e-07
4.74794e-08
-1.49852e-07
5.09621e-08
-1.70167e-07
5.45017e-08
-1.91687e-07
5.8075e-08
-2.14396e-07
6.16551e-08
-2.38268e-07
6.52114e-08
-2.63263e-07
6.87102e-08
-2.89328e-07
7.21151e-08
-3.16395e-07
7.53871e-08
-3.44384e-07
7.84853e-08
-3.73199e-07
8.13674e-08
-4.02729e-07
8.39902e-08
-4.32851e-07
8.63101e-08
-4.63426e-07
8.82838e-08
-4.94305e-07
8.98689e-08
-5.25326e-07
9.10245e-08
-5.56318e-07
9.17122e-08
-5.871e-07
9.18961e-08
-6.17484e-07
9.1544e-08
-6.47278e-07
9.06276e-08
-6.76285e-07
8.91233e-08
-7.04309e-07
8.70123e-08
-7.31151e-07
8.4281e-08
-7.56616e-07
8.09217e-08
-7.80514e-07
7.69324e-08
-8.02659e-07
7.23169e-08
-8.22875e-07
6.70853e-08
-8.40993e-07
6.12536e-08
-8.56858e-07
5.48439e-08
-8.70324e-07
4.78841e-08
-8.8126e-07
4.04081e-08
-8.8955e-07
3.24554e-08
-8.95094e-07
2.40709e-08
-8.97808e-07
1.53047e-08
-8.9763e-07
6.2134e-09
-8.94481e-07
-3.13878e-09
-8.88381e-07
-1.27088e-08
-8.79289e-07
-2.2407e-08
-8.67218e-07
-3.21669e-08
-8.522e-07
-4.19147e-08
-8.34282e-07
-5.1573e-08
-8.13534e-07
-6.10622e-08
-7.90048e-07
-7.03011e-08
-7.63932e-07
-7.9208e-08
-7.35319e-07
-8.77009e-08
-7.04359e-07
-9.56991e-08
-6.71221e-07
-1.03124e-07
-6.36094e-07
-1.09899e-07
-5.99184e-07
-1.15953e-07
-5.60714e-07
-1.21219e-07
-5.20923e-07
-1.25637e-07
-4.80061e-07
-1.29156e-07
-4.38391e-07
-1.3173e-07
-3.96186e-07
-1.33327e-07
-3.53726e-07
-1.33925e-07
-3.11293e-07
-1.33512e-07
-2.69174e-07
-1.3209e-07
-2.27651e-07
-1.29676e-07
-1.87004e-07
-1.26297e-07
-1.47501e-07
-1.21995e-07
-1.09401e-07
-1.16826e-07
-7.29478e-08
-1.10857e-07
-3.83656e-08
-1.04166e-07
-5.85828e-09
-9.68439e-08
2.4395e-08
-8.89871e-08
5.22414e-08
-8.07004e-08
7.75567e-08
-7.20932e-08
1.00247e-07
-6.32773e-08
1.20248e-07
-5.4365e-08
1.3753e-07
-4.54662e-08
1.52091e-07
-3.6687e-08
1.63962e-07
-2.81267e-08
1.73202e-07
-1.98765e-08
1.79898e-07
-1.20175e-08
1.84158e-07
-4.61932e-09
1.86117e-07
2.26067e-09
1.85923e-07
8.57824e-09
1.83741e-07
1.43021e-08
1.79749e-07
1.94141e-08
1.74128e-07
2.39079e-08
1.67066e-07
2.77884e-08
1.58751e-07
3.10695e-08
1.49369e-07
3.37725e-08
1.39104e-07
3.59232e-08
1.28133e-07
3.7549e-08
1.16629e-07
3.86755e-08
1.04762e-07
3.93232e-08
9.26974e-08
3.95033e-08
8.06008e-08
3.92146e-08
6.86412e-08
3.84401e-08
5.69938e-08
3.71453e-08
4.58437e-08
3.52781e-08
3.5388e-08
3.27723e-08
2.58376e-08
2.95552e-08
1.74162e-08
2.55639e-08
1.03597e-08
2.07709e-08
4.91611e-09
1.52222e-08
1.35334e-09
9.09136e-09
2.80128e-09
9.25857e-10
-3.28282e-09
3.10854e-09
-8.51772e-09
6.11356e-09
-1.24095e-08
9.59699e-09
-1.501e-08
1.32707e-08
-1.64213e-08
1.68894e-08
-1.67752e-08
2.02437e-08
-1.62176e-08
2.31564e-08
-1.48963e-08
2.54799e-08
-1.29528e-08
2.70932e-08
-1.05169e-08
2.78996e-08
-7.70374e-09
2.78231e-08
-4.61189e-09
2.68054e-08
-1.32306e-09
2.48025e-08
2.09786e-09
2.17812e-08
5.60206e-09
1.77161e-08
9.1557e-09
1.25867e-08
1.27384e-08
6.37491e-09
1.63417e-08
-9.37225e-10
1.99667e-08
-9.36895e-09
2.36225e-08
-1.8942e-08
2.73235e-08
-2.96811e-08
3.10874e-08
-4.16142e-08
3.49333e-08
-5.47717e-08
3.88794e-08
-6.91861e-08
4.29416e-08
-8.48904e-08
4.71318e-08
-1.01917e-07
5.1457e-08
-1.20295e-07
5.59186e-08
-1.4005e-07
6.05115e-08
-1.61202e-07
6.52244e-08
-1.83762e-07
7.00393e-08
-2.07732e-07
7.4932e-08
-2.33102e-07
7.98724e-08
-2.59852e-07
8.48248e-08
-2.87945e-07
8.97483e-08
-3.17332e-07
9.45976e-08
-3.47945e-07
9.93234e-08
-3.79703e-07
1.03873e-07
-4.12506e-07
1.08191e-07
-4.46241e-07
1.1222e-07
-4.80775e-07
1.15901e-07
-5.15962e-07
1.19177e-07
-5.51641e-07
1.21989e-07
-5.87637e-07
1.2428e-07
-6.23764e-07
1.25996e-07
-6.59825e-07
1.27086e-07
-6.95617e-07
1.27504e-07
-7.30927e-07
1.27206e-07
-7.65541e-07
1.26158e-07
-7.99242e-07
1.24329e-07
-8.31813e-07
1.21695e-07
-8.63041e-07
1.1824e-07
-8.92714e-07
1.13954e-07
-9.2063e-07
1.08838e-07
-9.46594e-07
1.02896e-07
-9.70419e-07
9.61422e-08
-9.91932e-07
8.85984e-08
-1.01097e-06
8.02928e-08
-1.02739e-06
7.12613e-08
-1.04105e-06
6.15465e-08
-1.05184e-06
5.11977e-08
-1.05966e-06
4.02704e-08
-1.06441e-06
2.88262e-08
-1.06604e-06
1.69328e-08
-1.06449e-06
4.66442e-09
-1.05972e-06
-7.90568e-09
-1.05174e-06
-2.06953e-08
-1.04053e-06
-3.36148e-08
-1.02612e-06
-4.65743e-08
-1.00856e-06
-5.94807e-08
-9.87891e-07
-7.22377e-08
-9.64206e-07
-8.47467e-08
-9.376e-07
-9.69076e-08
-9.08188e-07
-1.0862e-07
-8.76107e-07
-1.19782e-07
-8.41512e-07
-1.30295e-07
-8.04575e-07
-1.40061e-07
-7.65488e-07
-1.48986e-07
-7.2446e-07
-1.56981e-07
-6.81716e-07
-1.63963e-07
-6.37497e-07
-1.69856e-07
-5.92058e-07
-1.74594e-07
-5.45668e-07
-1.7812e-07
-4.98604e-07
-1.8039e-07
-4.51156e-07
-1.81373e-07
-4.03615e-07
-1.81052e-07
-3.5628e-07
-1.79426e-07
-3.09447e-07
-1.76508e-07
-2.63413e-07
-1.72331e-07
-2.18465e-07
-1.66943e-07
-1.74884e-07
-1.60407e-07
-1.32937e-07
-1.52804e-07
-9.28735e-08
-1.4423e-07
-5.49257e-08
-1.34792e-07
-1.93018e-08
-1.24611e-07
1.38152e-08
-1.13817e-07
4.42701e-08
-1.02548e-07
7.19376e-08
-9.09449e-08
9.67241e-08
-7.91514e-08
1.18568e-07
-6.73104e-08
1.37442e-07
-5.55605e-08
1.53349e-07
-4.40338e-08
1.66326e-07
-3.28533e-08
1.76438e-07
-2.21304e-08
1.83782e-07
-1.19631e-08
1.88477e-07
-2.43444e-09
1.90667e-07
6.38854e-09
1.90514e-07
1.44553e-08
1.88196e-07
2.17318e-08
1.83904e-07
2.81997e-08
1.77837e-07
3.38553e-08
1.70199e-07
3.87076e-08
1.61196e-07
4.27756e-08
1.51034e-07
4.60854e-08
1.39916e-07
4.86667e-08
1.28044e-07
5.05479e-08
1.15615e-07
5.17524e-08
1.02825e-07
5.22936e-08
8.98689e-08
5.21704e-08
7.69453e-08
5.13637e-08
6.42568e-08
4.98338e-08
5.20145e-08
4.75205e-08
4.04406e-08
4.43461e-08
2.97717e-08
4.02241e-08
2.02617e-08
3.5074e-08
1.21872e-08
2.88454e-08
5.85807e-09
2.15513e-08
1.63813e-09
1.33113e-08
4.43942e-09
9.36956e-10
-4.21977e-09
3.12756e-09
-1.07083e-08
6.10151e-09
-1.53834e-08
9.48459e-09
-1.8393e-08
1.29677e-08
-1.99044e-08
1.62923e-08
-2.00997e-08
1.92405e-08
-1.91658e-08
2.16294e-08
-1.72852e-08
2.33066e-08
-1.463e-08
2.41465e-08
-1.13568e-08
2.40471e-08
-7.60432e-09
2.29265e-08
-3.49123e-09
2.07196e-08
8.83826e-10
1.73751e-08
5.44235e-09
1.2852e-08
1.01251e-08
7.11675e-09
1.48909e-08
1.40442e-10
1.97147e-08
-8.1035e-09
2.45856e-08
-1.76412e-08
2.95045e-08
-2.84999e-08
3.44812e-08
-4.07085e-08
3.95321e-08
-5.42983e-08
4.46772e-08
-6.93026e-08
4.99375e-08
-8.57557e-08
5.53325e-08
-1.03692e-07
6.08782e-08
-1.23146e-07
6.65852e-08
-1.44146e-07
7.24573e-08
-1.66718e-07
7.84909e-08
-1.90881e-07
8.4674e-08
-2.16642e-07
9.0986e-08
-2.44001e-07
9.73981e-08
-2.72943e-07
1.03873e-07
-3.03437e-07
1.10367e-07
-3.35441e-07
1.16828e-07
-3.68892e-07
1.23199e-07
-4.0371e-07
1.29416e-07
-4.39799e-07
1.35412e-07
-4.77043e-07
1.41117e-07
-5.15308e-07
1.46456e-07
-5.54443e-07
1.51355e-07
-5.94281e-07
1.55739e-07
-6.34638e-07
1.59535e-07
-6.75319e-07
1.6267e-07
-7.16116e-07
1.65076e-07
-7.56811e-07
1.66691e-07
-7.97179e-07
1.67454e-07
-8.36991e-07
1.67316e-07
-8.76016e-07
1.66231e-07
-9.14021e-07
1.64163e-07
-9.50776e-07
1.61084e-07
-9.86058e-07
1.56977e-07
-1.01965e-06
1.5183e-07
-1.05134e-06
1.45643e-07
-1.08093e-06
1.38427e-07
-1.10823e-06
1.30197e-07
-1.13307e-06
1.20981e-07
-1.15528e-06
1.10815e-07
-1.17473e-06
9.97402e-08
-1.19128e-06
8.78087e-08
-1.20481e-06
7.50785e-08
-1.21523e-06
6.16145e-08
-1.22244e-06
4.74882e-08
-1.2264e-06
3.27774e-08
-1.22703e-06
1.75652e-08
-1.22431e-06
1.94438e-09
-1.21821e-06
-1.40023e-08
-1.20874e-06
-3.01677e-08
-1.1959e-06
-4.64506e-08
-1.17973e-06
-6.27447e-08
-1.16027e-06
-7.89399e-08
-1.13759e-06
-9.49231e-08
-1.11176e-06
-1.10579e-07
-1.08287e-06
-1.25789e-07
-1.05106e-06
-1.40437e-07
-1.01644e-06
-1.54403e-07
-9.79161e-07
-1.67569e-07
-9.394e-07
-1.79822e-07
-8.97338e-07
-1.91048e-07
-8.53177e-07
-2.01142e-07
-8.07139e-07
-2.10002e-07
-7.59459e-07
-2.17537e-07
-7.10388e-07
-2.23665e-07
-6.60194e-07
-2.28315e-07
-6.09154e-07
-2.3143e-07
-5.57559e-07
-2.32969e-07
-5.05706e-07
-2.32905e-07
-4.53899e-07
-2.31232e-07
-4.02446e-07
-2.27961e-07
-3.51654e-07
-2.23123e-07
-3.01828e-07
-2.16769e-07
-2.53265e-07
-2.0897e-07
-2.06254e-07
-1.99816e-07
-1.61067e-07
-1.89416e-07
-1.17962e-07
-1.77897e-07
-7.71745e-08
-1.65399e-07
-3.89166e-08
-1.52075e-07
-3.37382e-09
-1.38091e-07
2.92977e-08
-1.23616e-07
5.89727e-08
-1.08826e-07
8.55587e-08
-9.38964e-08
1.08997e-07
-7.89989e-08
1.29263e-07
-6.42998e-08
1.46366e-07
-4.99558e-08
1.60347e-07
-3.61113e-08
1.71279e-07
-2.28955e-08
1.79266e-07
-1.04208e-08
1.84435e-07
1.21894e-09
1.8694e-07
1.19501e-08
1.86955e-07
2.17177e-08
1.84667e-07
3.04869e-08
1.80282e-07
3.8241e-08
1.7401e-07
4.49793e-08
1.66071e-07
5.07145e-08
1.56687e-07
5.54692e-08
1.46082e-07
5.92718e-08
1.34479e-07
6.21511e-08
1.221e-07
6.41315e-08
1.09166e-07
6.5227e-08
9.59e-08
6.54366e-08
8.25247e-08
6.4739e-08
6.92684e-08
6.30901e-08
5.63668e-08
6.04221e-08
4.40667e-08
5.66462e-08
3.2631e-08
5.16599e-08
2.23448e-08
4.53602e-08
1.35262e-08
3.7664e-08
6.54305e-09
2.85345e-08
1.84075e-09
1.80136e-08
6.28016e-09
9.05761e-10
-5.12554e-09
2.99816e-09
-1.28008e-08
5.78975e-09
-1.8175e-08
8.88922e-09
-2.14925e-08
1.19752e-08
-2.29904e-08
1.47812e-08
-2.29058e-08
1.70855e-08
-2.147e-08
1.87026e-08
-1.89024e-08
1.94785e-08
-1.54059e-08
1.92853e-08
-1.11637e-08
1.8018e-08
-6.33698e-09
1.55904e-08
-1.06365e-09
1.19323e-08
4.54194e-09
6.98586e-09
1.03888e-08
7.02833e-10
1.64082e-08
-6.95827e-09
2.2552e-08
-1.60346e-08
2.87911e-08
-2.65612e-08
3.51122e-08
-3.85724e-08
4.15156e-08
-5.2103e-08
4.80118e-08
-6.71888e-08
5.4618e-08
-8.38668e-08
6.13552e-08
-1.02174e-07
6.8245e-08
-1.22148e-07
7.5306e-08
-1.43822e-07
8.25523e-08
-1.67227e-07
8.99906e-08
-1.92389e-07
9.76187e-08
-2.19323e-07
1.05425e-07
-2.48035e-07
1.13387e-07
-2.78521e-07
1.21471e-07
-3.10758e-07
1.29636e-07
-3.44711e-07
1.37826e-07
-3.80326e-07
1.45982e-07
-4.17529e-07
1.54032e-07
-4.56228e-07
1.61899e-07
-4.96312e-07
1.695e-07
-5.37648e-07
1.76748e-07
-5.80085e-07
1.83554e-07
-6.23454e-07
1.89824e-07
-6.67566e-07
1.95468e-07
-7.12222e-07
2.00395e-07
-7.57205e-07
2.04517e-07
-8.02288e-07
2.07753e-07
-8.47236e-07
2.10025e-07
-8.9181e-07
2.11265e-07
-9.35766e-07
2.1141e-07
-9.78858e-07
2.10408e-07
-1.02085e-06
2.08219e-07
-1.06149e-06
2.0481e-07
-1.10057e-06
2.00161e-07
-1.13785e-06
1.94261e-07
-1.17314e-06
1.87113e-07
-1.20622e-06
1.78727e-07
-1.23692e-06
1.69126e-07
-1.26507e-06
1.58343e-07
-1.2905e-06
1.46417e-07
-1.31309e-06
1.33399e-07
-1.33269e-06
1.19348e-07
-1.34921e-06
1.04329e-07
-1.36255e-06
8.84156e-08
-1.37262e-06
7.1687e-08
-1.37936e-06
5.42292e-08
-1.38272e-06
3.61339e-08
-1.38265e-06
1.74982e-08
-1.37914e-06
-1.57118e-09
-1.37216e-06
-2.09797e-08
-1.36173e-06
-4.06033e-08
-1.34785e-06
-6.03296e-08
-1.33055e-06
-8.0038e-08
-1.30989e-06
-9.96042e-08
-1.28591e-06
-1.18901e-07
-1.25869e-06
-1.37797e-07
-1.22832e-06
-1.5616e-07
-1.1949e-06
-1.73855e-07
-1.15856e-06
-1.90748e-07
-1.11942e-06
-2.06704e-07
-1.07766e-06
-2.21591e-07
-1.03343e-06
-2.35278e-07
-9.86927e-07
-2.47641e-07
-9.38367e-07
-2.58561e-07
-8.87974e-07
-2.6793e-07
-8.3599e-07
-2.75648e-07
-7.82677e-07
-2.81628e-07
-7.28309e-07
-2.85798e-07
-6.73175e-07
-2.88103e-07
-6.17574e-07
-2.88506e-07
-5.61816e-07
-2.86991e-07
-5.06215e-07
-2.83562e-07
-4.5109e-07
-2.78248e-07
-3.96758e-07
-2.711e-07
-3.43536e-07
-2.62192e-07
-2.91731e-07
-2.51622e-07
-2.41637e-07
-2.39509e-07
-1.93538e-07
-2.25996e-07
-1.47696e-07
-2.11241e-07
-1.04352e-07
-1.9542e-07
-6.37207e-08
-1.78722e-07
-2.59898e-08
-1.61347e-07
8.684e-09
-1.435e-07
4.01769e-08
-1.25389e-07
6.83987e-08
-1.07221e-07
9.32944e-08
-8.91955e-08
1.14844e-07
-7.15053e-08
1.33062e-07
-5.43293e-08
1.47997e-07
-3.78304e-08
1.59729e-07
-2.21531e-08
1.68369e-07
-7.42116e-09
1.74055e-07
6.26396e-09
1.76949e-07
1.88235e-08
1.77235e-07
3.02013e-08
1.75113e-07
4.03631e-08
1.70798e-07
4.92942e-08
1.64516e-07
5.69967e-08
1.56499e-07
6.34857e-08
1.46987e-07
6.87846e-08
1.36218e-07
7.29195e-08
1.24436e-07
7.59133e-08
1.11884e-07
7.77791e-08
9.88065e-08
7.85144e-08
8.54499e-08
7.80956e-08
7.2066e-08
7.6474e-08
5.8914e-08
7.3574e-08
4.62652e-08
6.92951e-08
3.44085e-08
6.35165e-08
2.36602e-08
5.61085e-08
1.4377e-08
4.69473e-08
6.97626e-09
3.59352e-08
1.96621e-09
2.30236e-08
8.24637e-09
8.3904e-10
-5.96457e-09
2.73927e-09
-1.4701e-08
5.21047e-09
-2.06462e-08
7.85624e-09
-2.41383e-08
1.03516e-08
-2.54857e-08
1.24287e-08
-2.49829e-08
1.38661e-08
-2.29074e-08
1.44797e-08
-1.95159e-08
1.41161e-08
-1.50423e-08
1.26477e-08
-9.69527e-09
9.96816e-09
-3.65743e-09
5.98853e-09
2.91598e-09
6.34391e-10
9.89608e-09
-6.15766e-09
1.71808e-08
-1.44425e-08
2.46931e-08
-2.42692e-08
3.23787e-08
-3.56828e-08
4.02047e-08
-4.87262e-08
4.81557e-08
-6.34416e-08
5.6231e-08
-7.98706e-08
6.44408e-08
-9.8055e-08
7.28024e-08
-1.18036e-07
8.13361e-08
-1.39853e-07
9.00618e-08
-1.63542e-07
9.89952e-08
-1.89135e-07
1.08146e-07
-2.16657e-07
1.17512e-07
-2.46122e-07
1.27084e-07
-2.77536e-07
1.36838e-07
-3.10886e-07
1.46737e-07
-3.46148e-07
1.56733e-07
-3.83277e-07
1.66764e-07
-4.22209e-07
1.76759e-07
-4.62862e-07
1.86635e-07
-5.0513e-07
1.963e-07
-5.48888e-07
2.05656e-07
-5.93986e-07
2.14599e-07
-6.40259e-07
2.23021e-07
-6.87519e-07
2.30814e-07
-7.35562e-07
2.37867e-07
-7.84168e-07
2.44074e-07
-8.33106e-07
2.49332e-07
-8.82133e-07
2.53544e-07
-9.31e-07
2.5662e-07
-9.79454e-07
2.58479e-07
-1.02724e-06
2.59052e-07
-1.07411e-06
2.58278e-07
-1.11981e-06
2.5611e-07
-1.16411e-06
2.52515e-07
-1.20677e-06
2.47469e-07
-1.24757e-06
2.40963e-07
-1.28631e-06
2.33001e-07
-1.32279e-06
2.23598e-07
-1.35684e-06
2.12778e-07
-1.3883e-06
2.00581e-07
-1.41701e-06
1.87052e-07
-1.44284e-06
1.72248e-07
-1.46567e-06
1.56234e-07
-1.48541e-06
1.39081e-07
-1.50195e-06
1.20869e-07
-1.51522e-06
1.01684e-07
-1.52515e-06
8.16187e-08
-1.53169e-06
6.077e-08
-1.5348e-06
3.9241e-08
-1.53444e-06
1.71403e-08
-1.53059e-06
-5.41799e-09
-1.52325e-06
-2.8321e-08
-1.51241e-06
-5.14412e-08
-1.49809e-06
-7.46523e-08
-1.4803e-06
-9.7823e-08
-1.45909e-06
-1.20817e-07
-1.4345e-06
-1.43494e-07
-1.40658e-06
-1.65711e-07
-1.37542e-06
-1.87322e-07
-1.3411e-06
-2.08175e-07
-1.30373e-06
-2.28122e-07
-1.26342e-06
-2.47011e-07
-1.22032e-06
-2.64691e-07
-1.17458e-06
-2.81016e-07
-1.12638e-06
-2.95841e-07
-1.07592e-06
-3.09029e-07
-1.02339e-06
-3.20451e-07
-9.69053e-07
-3.29989e-07
-9.13143e-07
-3.37538e-07
-8.55933e-07
-3.43008e-07
-7.97708e-07
-3.46328e-07
-7.38768e-07
-3.47446e-07
-6.79426e-07
-3.46333e-07
-6.20004e-07
-3.42984e-07
-5.60831e-07
-3.37422e-07
-5.02238e-07
-3.29692e-07
-4.44558e-07
-3.19872e-07
-3.88118e-07
-3.08061e-07
-3.33238e-07
-2.9439e-07
-2.80223e-07
-2.7901e-07
-2.29365e-07
-2.62099e-07
-1.80933e-07
-2.43852e-07
-1.35173e-07
-2.24482e-07
-9.23038e-08
-2.04217e-07
-5.25135e-08
-1.83291e-07
-1.59583e-08
-1.61945e-07
1.72404e-08
-1.40419e-07
4.69965e-08
-1.18952e-07
7.32603e-08
-9.77691e-08
9.60183e-08
-7.70873e-08
1.15293e-07
-5.71048e-08
1.3114e-07
-3.80007e-08
1.43651e-07
-1.99315e-08
1.52944e-07
-3.0294e-09
1.59168e-07
1.25991e-08
1.62497e-07
2.6873e-08
1.63123e-07
3.97363e-08
1.61261e-07
5.11562e-08
1.57138e-07
6.112e-08
1.50992e-07
6.96313e-08
1.43072e-07
7.67049e-08
1.33631e-07
8.23606e-08
1.22927e-07
8.66171e-08
1.11222e-07
8.94844e-08
9.87795e-08
9.09569e-08
8.58677e-08
9.10074e-08
7.27597e-08
8.95819e-08
5.97373e-08
8.65964e-08
4.70953e-08
8.19371e-08
3.51483e-08
7.54634e-08
2.42415e-08
6.70153e-08
1.47648e-08
5.64239e-08
7.17458e-09
4.35255e-08
2.02171e-09
2.81765e-08
1.02681e-08
7.41166e-10
-6.70574e-09
2.36448e-09
-1.63243e-08
4.38839e-09
-2.26701e-08
6.42199e-09
-2.61719e-08
8.14526e-09
-2.7209e-08
9.29567e-09
-2.61334e-08
9.65687e-09
-2.32686e-08
9.04948e-09
-1.89085e-08
7.32387e-09
-1.33167e-08
4.35445e-09
-6.72584e-09
3.50925e-11
6.61934e-10
-5.72423e-09
8.67529e-09
-1.30017e-08
1.71736e-08
-2.18655e-08
2.60446e-08
-3.23766e-08
3.52041e-08
-4.45908e-08
4.45929e-08