/*--------------------------------*- C++ -*----------------------------------*\
| =========                 |                                                 |
| \\      /  F ield         | OpenFOAM: The Open Source CFD Toolbox           |
|  \\    /   O peration     | Version:  2112                                  |
|   \\  /    A nd           | Website:  www.openfoam.com                      |
|    \\/     M anipulation  |                                                 |
\*---------------------------------------------------------------------------*/
FoamFile
{
    version     2.0;
    format      ascii;
    arch        "LSB;label=32;scalar=64";
    class       volVectorField;
    location    "2.7";
    object      U;
}
// * * * * * * * * * * * * * * * * * * * * * * * * * * * * * * * * * * * * * //

dimensions      [0 1 -1 0 0 0 0];

internalField   nonuniform List<vector> 
16641
(
(-6.57556e-06 6.68212e-06 0)
(4.30567e-06 -6.61336e-06 0)
(5.72823e-05 -2.11742e-05 0)
(0.00014098 -3.12015e-05 0)
(0.000244936 -3.69569e-05 0)
(0.000359762 -3.94075e-05 0)
(0.000477713 -3.94331e-05 0)
(0.000592835 -3.7742e-05 0)
(0.000700713 -3.48709e-05 0)
(0.000798175 -3.12254e-05 0)
(0.000883042 -2.71145e-05 0)
(0.000953932 -2.27723e-05 0)
(0.00101009 -1.83742e-05 0)
(0.00105123 -1.40476e-05 0)
(0.00107742 -9.87722e-06 0)
(0.00108897 -5.91374e-06 0)
(0.00108629 -2.17662e-06 0)
(0.00106988 1.34037e-06 0)
(0.00104017 4.66307e-06 0)
(0.000997548 7.83345e-06 0)
(0.000942251 1.09044e-05 0)
(0.00087437 1.39358e-05 0)
(0.000793827 1.69893e-05 0)
(0.000700367 2.01265e-05 0)
(0.000593567 2.34054e-05 0)
(0.000472851 2.68779e-05 0)
(0.000337509 3.05882e-05 0)
(0.000186727 3.45716e-05 0)
(1.96111e-05 3.88549e-05 0)
(-0.000164779 4.34556e-05 0)
(-0.000367402 4.83829e-05 0)
(-0.000589206 5.36377e-05 0)
(-0.000831098 5.92133e-05 0)
(-0.00109392 6.50965e-05 0)
(-0.00137843 7.12667e-05 0)
(-0.00168526 7.76973e-05 0)
(-0.00201492 8.43552e-05 0)
(-0.00236775 9.12012e-05 0)
(-0.0027439 9.81888e-05 0)
(-0.00314335 0.000105265 0)
(-0.00356584 0.00011237 0)
(-0.00401084 0.000119436 0)
(-0.00447761 0.000126389 0)
(-0.00496509 0.000133149 0)
(-0.00547194 0.000139628 0)
(-0.00599651 0.000145731 0)
(-0.00653684 0.00015136 0)
(-0.00709064 0.000156412 0)
(-0.00765529 0.00016078 0)
(-0.00822784 0.000164355 0)
(-0.00880505 0.000167028 0)
(-0.00938335 0.00016869 0)
(-0.00995888 0.000169236 0)
(-0.0105275 0.000168564 0)
(-0.0110849 0.00016658 0)
(-0.0116265 0.000163195 0)
(-0.0121475 0.000158334 0)
(-0.0126431 0.000151932 0)
(-0.0131083 0.000143939 0)
(-0.0135381 0.000134322 0)
(-0.0139276 0.000123064 0)
(-0.0142719 0.000110172 0)
(-0.0145662 9.56693e-05 0)
(-0.0148061 7.96082e-05 0)
(-0.0149873 6.20787e-05 0)
(-0.015106 4.31916e-05 0)
(-0.0151588 2.303e-05 0)
(-0.0151425 1.85079e-06 0)
(-0.0150547 -2.03077e-05 0)
(-0.0148938 -4.31851e-05 0)
(-0.0146585 -6.65299e-05 0)
(-0.0143487 -9.00865e-05 0)
(-0.0139645 -0.000113581 0)
(-0.0135074 -0.000136721 0)
(-0.0129794 -0.000159205 0)
(-0.0123835 -0.000180719 0)
(-0.0117236 -0.000200952 0)
(-0.0110042 -0.000219597 0)
(-0.0102311 -0.000236358 0)
(-0.00941045 -0.000250958 0)
(-0.00854932 -0.000263147 0)
(-0.00765537 -0.000272709 0)
(-0.00673678 -0.000279468 0)
(-0.00580216 -0.000283294 0)
(-0.00486039 -0.000284111 0)
(-0.00392047 -0.000281896 0)
(-0.00299142 -0.000276684 0)
(-0.00208206 -0.00026857 0)
(-0.0012009 -0.000257703 0)
(-0.000355921 -0.000244296 0)
(0.000445408 -0.000228633 0)
(0.00119643 -0.000210943 0)
(0.00189142 -0.00019161 0)
(0.00252552 -0.000170986 0)
(0.00309493 -0.000149446 0)
(0.00359693 -0.000127369 0)
(0.00402986 -0.000105131 0)
(0.00439314 -8.30918e-05 0)
(0.00468723 -6.15865e-05 0)
(0.00491356 -4.09183e-05 0)
(0.00507445 -2.13513e-05 0)
(0.00517298 -3.10626e-06 0)
(0.00521294 1.36425e-05 0)
(0.00519861 2.87673e-05 0)
(0.00513473 4.21902e-05 0)
(0.00502629 5.3877e-05 0)
(0.00487845 6.38355e-05 0)
(0.00469638 7.21121e-05 0)
(0.00448517 7.87861e-05 0)
(0.00424976 8.39643e-05 0)
(0.0039948 8.77754e-05 0)
(0.0037246 9.03633e-05 0)
(0.00344313 9.188e-05 0)
(0.00315394 9.24788e-05 0)
(0.00286018 9.23055e-05 0)
(0.00256466 9.14885e-05 0)
(0.00226985 9.01277e-05 0)
(0.00197802 8.8281e-05 0)
(0.00169138 8.59471e-05 0)
(0.00141225 8.30465e-05 0)
(0.0011433 7.93966e-05 0)
(0.000887813 7.46845e-05 0)
(0.000650053 6.84359e-05 0)
(0.000435586 5.99915e-05 0)
(0.000251589 4.85333e-05 0)
(0.000106774 3.32828e-05 0)
(1.03756e-05 1.41175e-05 0)
(-3.0046e-05 -6.5903e-06 0)
(-1.77547e-05 -1.7802e-05 0)
(6.62119e-06 -4.07414e-06 0)
(6.91767e-05 -6.91092e-05 0)
(0.000217068 -0.000132914 0)
(0.000426111 -0.00017943 0)
(0.000676177 -0.00020792 0)
(0.000949205 -0.000220795 0)
(0.00122875 -0.000221043 0)
(0.00150105 -0.000211527 0)
(0.00175521 -0.000194728 0)
(0.00198294 -0.00017271 0)
(0.00217815 -0.000147157 0)
(0.00233666 -0.000119422 0)
(0.00245581 -9.05619e-05 0)
(0.00253412 -6.13744e-05 0)
(0.00257104 -3.2422e-05 0)
(0.00256664 -4.06598e-06 0)
(0.00252139 2.35119e-05 0)
(0.00243591 5.02804e-05 0)
(0.00231085 7.63313e-05 0)
(0.0021467 0.000101854 0)
(0.00194368 0.000127107 0)
(0.00170171 0.000152393 0)
(0.00142032 0.000178033 0)
(0.00109865 0.000204351 0)
(0.000735477 0.000231648 0)
(0.000329231 0.000260193 0)
(-0.000121939 0.00029021 0)
(-0.000620105 0.000321868 0)
(-0.00116748 0.000355283 0)
(-0.00176636 0.000390511 0)
(-0.00241899 0.00042755 0)
(-0.00312754 0.000466346 0)
(-0.00389403 0.000506787 0)
(-0.00472018 0.000548714 0)
(-0.00560743 0.000591921 0)
(-0.00655684 0.000636154 0)
(-0.00756898 0.000681116 0)
(-0.00864396 0.000726467 0)
(-0.0097813 0.000771824 0)
(-0.0109799 0.000816765 0)
(-0.012238 0.000860828 0)
(-0.0135531 0.000903514 0)
(-0.014922 0.00094429 0)
(-0.0163406 0.000982592 0)
(-0.0178042 0.00101783 0)
(-0.0193071 0.0010494 0)
(-0.0208427 0.00107668 0)
(-0.0224039 0.00109904 0)
(-0.0239826 0.00111586 0)
(-0.0255697 0.00112652 0)
(-0.0271559 0.00113044 0)
(-0.0287307 0.00112705 0)
(-0.0302834 0.00111584 0)
(-0.0318024 0.00109633 0)
(-0.0332761 0.00106811 0)
(-0.0346923 0.00103085 0)
(-0.0360386 0.000984281 0)
(-0.0373024 0.000928237 0)
(-0.0384715 0.00086264 0)
(-0.0395336 0.00078752 0)
(-0.0404766 0.000703018 0)
(-0.0412892 0.00060939 0)
(-0.0419603 0.000507017 0)
(-0.0424798 0.000396413 0)
(-0.0428386 0.000278271 0)
(-0.0430285 0.000153338 0)
(-0.0430425 2.21149e-05 0)
(-0.0428746 -0.000113708 0)
(-0.0425206 -0.000253328 0)
(-0.041978 -0.000395495 0)
(-0.0412457 -0.000538824 0)
(-0.0403245 -0.00068186 0)
(-0.039217 -0.000823074 0)
(-0.0379278 -0.000960879 0)
(-0.0364632 -0.00109365 0)
(-0.0348318 -0.00121976 0)
(-0.0330436 -0.00133758 0)
(-0.0311111 -0.00144554 0)
(-0.029048 -0.00154215 0)
(-0.0268701 -0.00162601 0)
(-0.0245944 -0.00169587 0)
(-0.0222395 -0.00175067 0)
(-0.019825 -0.00178952 0)
(-0.0173713 -0.00181179 0)
(-0.0148995 -0.00181708 0)
(-0.012431 -0.00180528 0)
(-0.00998714 -0.00177656 0)
(-0.00758898 -0.00173137 0)
(-0.00525688 -0.00167044 0)
(-0.00301022 -0.00159481 0)
(-0.000867087 -0.00150579 0)
(0.00115598 -0.0014048 0)
(0.00304435 -0.00129357 0)
(0.00478546 -0.00117396 0)
(0.00636896 -0.00104793 0)
(0.0077869 -0.00091751 0)
(0.00903379 -0.000784723 0)
(0.0101066 -0.000651565 0)
(0.0110047 -0.000519942 0)
(0.01173 -0.000391631 0)
(0.0122863 -0.00026824 0)
(0.0126797 -0.000151176 0)
(0.0129178 -4.16239e-05 0)
(0.0130101 5.94706e-05 0)
(0.0129669 0.00015141 0)
(0.0127999 0.000233741 0)
(0.0125211 0.000306248 0)
(0.012143 0.000368939 0)
(0.0116782 0.000422023 0)
(0.0111391 0.000465886 0)
(0.0105376 0.000501056 0)
(0.00988532 0.000528174 0)
(0.00919284 0.000547949 0)
(0.00847014 0.000561113 0)
(0.00772636 0.000568372 0)
(0.00696986 0.000570349 0)
(0.00620839 0.000567517 0)
(0.00544927 0.000560129 0)
(0.00469971 0.000548135 0)
(0.0039672 0.000531103 0)
(0.00325996 0.000508131 0)
(0.00258748 0.000477784 0)
(0.00196103 0.000438065 0)
(0.00139407 0.000386499 0)
(0.000902338 0.000320504 0)
(0.000502973 0.000238426 0)
(0.000211972 0.000141772 0)
(4.13684e-05 4.04831e-05 0)
(-6.3232e-06 -3.01068e-05 0)
(2.11609e-05 -5.70362e-05 0)
(0.000133158 -0.00021704 0)
(0.000361045 -0.000360421 0)
(0.000665578 -0.000466198 0)
(0.00101946 -0.000532077 0)
(0.00139988 -0.000561625 0)
(0.00178544 -0.0005604 0)
(0.00215754 -0.000534354 0)
(0.00250095 -0.000489058 0)
(0.00280365 -0.000429408 0)
(0.00305651 -0.000359564 0)
(0.00325291 -0.000282962 0)
(0.00338831 -0.000202351 0)
(0.00345987 -0.000119846 0)
(0.00346603 -3.69807e-05 0)
(0.00340617 4.52351e-05 0)
(0.00328026 0.00012624 0)
(0.00308857 0.000205872 0)
(0.0028314 0.000284291 0)
(0.00250892 0.000361914 0)
(0.00212098 0.000439342 0)
(0.00166701 0.000517298 0)
(0.00114596 0.000596558 0)
(0.000556293 0.0006779 0)
(-0.000104015 0.000762052 0)
(-0.000837407 0.00084965 0)
(-0.00164667 0.000941213 0)
(-0.00253483 0.00103711 0)
(-0.00350503 0.00113757 0)
(-0.00456042 0.00124265 0)
(-0.00570405 0.00135223 0)
(-0.00693869 0.00146607 0)
(-0.00826674 0.00158375 0)
(-0.00969015 0.0017047 0)
(-0.0112102 0.00182824 0)
(-0.0128276 0.00195355 0)
(-0.0145421 0.00207966 0)
(-0.0163526 0.00220551 0)
(-0.0182572 0.00232992 0)
(-0.0202527 0.00245162 0)
(-0.0223349 0.00256921 0)
(-0.0244985 0.00268123 0)
(-0.026737 0.00278614 0)
(-0.0290425 0.00288235 0)
(-0.0314061 0.00296822 0)
(-0.0338175 0.00304208 0)
(-0.0362653 0.00310228 0)
(-0.038737 0.00314717 0)
(-0.0412188 0.00317517 0)
(-0.0436961 0.00318475 0)
(-0.0461533 0.00317449 0)
(-0.048574 0.00314309 0)
(-0.0509412 0.0030894 0)
(-0.0532374 0.00301242 0)
(-0.0554447 0.00291137 0)
(-0.0575451 0.00278567 0)
(-0.0595204 0.00263496 0)
(-0.0613527 0.00245916 0)
(-0.0630246 0.00225843 0)
(-0.0645191 0.00203321 0)
(-0.06582 0.00178425 0)
(-0.0669121 0.00151255 0)
(-0.0677811 0.00121946 0)
(-0.0684141 0.000906628 0)
(-0.0688 0.000576069 0)
(-0.0689295 0.00023005 0)
(-0.068794 -0.000129858 0)
(-0.0683873 -0.000499653 0)
(-0.0677061 -0.000876598 0)
(-0.0667486 -0.00125756 0)
(-0.0655154 -0.00163906 0)
(-0.0640096 -0.00201743 0)
(-0.0622366 -0.00238887 0)
(-0.0602043 -0.0027495 0)
(-0.0579233 -0.00309535 0)
(-0.0554064 -0.00342251 0)
(-0.0526689 -0.00372711 0)
(-0.0497285 -0.00400542 0)
(-0.0466052 -0.0042539 0)
(-0.043321 -0.0044693 0)
(-0.0398997 -0.00464868 0)
(-0.0363669 -0.00478954 0)
(-0.0327495 -0.00488983 0)
(-0.0290757 -0.00494803 0)
(-0.0253742 -0.00496321 0)
(-0.0216744 -0.00493507 0)
(-0.0180056 -0.00486396 0)
(-0.0143967 -0.0047509 0)
(-0.0108761 -0.00459757 0)
(-0.00747069 -0.00440631 0)
(-0.00420611 -0.00418009 0)
(-0.00110598 -0.00392242 0)
(0.00180837 -0.00363727 0)
(0.00451818 -0.00332905 0)
(0.00700754 -0.00300252 0)
(0.00926362 -0.00266259 0)
(0.0112768 -0.00231427 0)
(0.0130407 -0.00196255 0)
(0.0145523 -0.00161227 0)
(0.0158118 -0.00126804 0)
(0.0168226 -0.000934101 0)
(0.017591 -0.000614287 0)
(0.0181258 -0.000311911 0)
(0.0184386 -2.97398e-05 0)
(0.0185426 0.000230051 0)
(0.0184528 0.000465887 0)
(0.0181857 0.000676792 0)
(0.0177583 0.000862362 0)
(0.0171884 0.00102273 0)
(0.0164937 0.0011585 0)
(0.0156919 0.00127069 0)
(0.0147999 0.00136062 0)
(0.0138342 0.00142985 0)
(0.0128103 0.00148001 0)
(0.0117427 0.00151271 0)
(0.0106451 0.00152939 0)
(0.00953048 0.00153113 0)
(0.00841115 0.0015185 0)
(0.00729937 0.00149134 0)
(0.00620771 0.00144866 0)
(0.00514954 0.0013884 0)
(0.00413967 0.00130746 0)
(0.00319481 0.0012017 0)
(0.00233386 0.00106641 0)
(0.00157783 0.000897319 0)
(0.000948451 0.000692835 0)
(0.000465127 0.00045803 0)
(0.00014638 0.000212308 0)
(1.53061e-05 1.1575e-05 0)
(3.13677e-05 -0.000140963 0)
(0.000180596 -0.000426803 0)
(0.000468934 -0.000665383 0)
(0.000841789 -0.000838285 0)
(0.001265 -0.000944242 0)
(0.00171222 -0.000988838 0)
(0.00215883 -0.000980556 0)
(0.00258321 -0.000928714 0)
(0.00296735 -0.000842321 0)
(0.00329672 -0.000729532 0)
(0.00355995 -0.000597438 0)
(0.00374848 -0.000452003 0)
(0.00385616 -0.000298072 0)
(0.00387878 -0.000139423 0)
(0.00381368 2.11592e-05 0)
(0.00365927 0.0001818 0)
(0.00341473 0.000341421 0)
(0.0030796 0.000499646 0)
(0.00265353 0.000656675 0)
(0.00213604 0.000813162 0)
(0.0015263 0.000970099 0)
(0.000823078 0.00112869 0)
(2.45865e-05 0.00129023 0)
(-0.000871465 0.00145603 0)
(-0.00186787 0.00162728 0)
(-0.00296782 0.00180502 0)
(-0.00417485 0.00199006 0)
(-0.00549265 0.00218294 0)
(-0.00692493 0.00238389 0)
(-0.00847525 0.00259287 0)
(-0.0101469 0.00280949 0)
(-0.0119427 0.00303307 0)
(-0.0138647 0.00326266 0)
(-0.0159144 0.00349701 0)
(-0.0180921 0.0037346 0)
(-0.0203974 0.00397367 0)
(-0.0228283 0.00421225 0)
(-0.0253817 0.00444812 0)
(-0.0280533 0.00467887 0)
(-0.030837 0.00490194 0)
(-0.0337255 0.00511459 0)
(-0.0367095 0.00531395 0)
(-0.0397787 0.00549706 0)
(-0.0429209 0.0056609 0)
(-0.0461222 0.00580241 0)
(-0.0493677 0.00591856 0)
(-0.0526407 0.00600638 0)
(-0.0559233 0.00606298 0)
(-0.0591966 0.00608566 0)
(-0.0624404 0.00607186 0)
(-0.065634 0.00601932 0)
(-0.0687557 0.00592601 0)
(-0.0717835 0.00579025 0)
(-0.0746951 0.00561072 0)
(-0.0774683 0.00538646 0)
(-0.0800808 0.00511695 0)
(-0.082511 0.00480212 0)
(-0.0847377 0.00444233 0)
(-0.0867406 0.00403845 0)
(-0.0885005 0.00359181 0)
(-0.0899994 0.00310424 0)
(-0.0912206 0.00257806 0)
(-0.0921491 0.00201608 0)
(-0.0927718 0.00142154 0)
(-0.0930774 0.000798036 0)
(-0.0930577 0.000149781 0)
(-0.0927049 -0.000516935 0)
(-0.0920132 -0.00119885 0)
(-0.0909818 -0.0018903 0)
(-0.089611 -0.00258539 0)
(-0.0879035 -0.00327803 0)
(-0.0858648 -0.00396193 0)
(-0.0835032 -0.00463061 0)
(-0.0808295 -0.00527749 0)
(-0.0778575 -0.00589599 0)
(-0.0746032 -0.00647953 0)
(-0.0710855 -0.00702173 0)
(-0.0673257 -0.00751641 0)
(-0.0633475 -0.00795775 0)
(-0.0591766 -0.00834038 0)
(-0.054841 -0.00865948 0)
(-0.0503704 -0.0089109 0)
(-0.0457959 -0.00909123 0)
(-0.0411501 -0.00919795 0)
(-0.0364662 -0.00922943 0)
(-0.0317783 -0.00918509 0)
(-0.0271204 -0.0090654 0)
(-0.0225264 -0.00887189 0)
(-0.0180296 -0.00860721 0)
(-0.013662 -0.00827509 0)
(-0.00945434 -0.00788028 0)
(-0.00543531 -0.00742849 0)
(-0.00163128 -0.00692628 0)
(0.00193403 -0.00638095 0)
(0.00523995 -0.00580039 0)
(0.00826916 -0.00519293 0)
(0.0110078 -0.0045671 0)
(0.0134458 -0.00393153 0)
(0.0155767 -0.00329469 0)
(0.0173979 -0.00266474 0)
(0.0189107 -0.00204937 0)
(0.0201198 -0.00145561 0)
(0.0210331 -0.000889714 0)
(0.021662 -0.000357043 0)
(0.0220203 0.000137998 0)
(0.0221243 0.00059202 0)
(0.0219922 0.00100266 0)
(0.0216438 0.00136858 0)
(0.0210996 0.00168936 0)
(0.0203812 0.00196549 0)
(0.0195099 0.00219821 0)
(0.0185072 0.00238937 0)
(0.0173938 0.00254126 0)
(0.01619 0.00265643 0)
(0.0149151 0.0027374 0)
(0.0135875 0.00278648 0)
(0.012225 0.00280541 0)
(0.0108448 0.00279513 0)
(0.00946386 0.00275545 0)
(0.00809941 0.00268477 0)
(0.00676946 0.00257994 0)
(0.00549328 0.00243621 0)
(0.00429185 0.00224747 0)
(0.00318812 0.002007 0)
(0.00220691 0.00170911 0)
(0.00137359 0.00135227 0)
(0.000711431 0.000944034 0)
(0.000248962 0.000509442 0)
(3.60382e-05 0.000112257 0)
(3.75313e-05 -0.000245868 0)
(0.000210816 -0.000679022 0)
(0.000538361 -0.0010213 0)
(0.000952934 -0.00126234 0)
(0.0014142 -0.00140494 0)
(0.0018927 -0.00145813 0)
(0.00236144 -0.00143394 0)
(0.00279682 -0.00134528 0)
(0.00317907 -0.00120476 0)
(0.00349199 -0.00102391 0)
(0.00372267 -0.000812927 0)
(0.00386111 -0.000580459 0)
(0.00389981 -0.00033362 0)
(0.00383335 -7.80117e-05 0)
(0.00365792 0.000182193 0)
(0.0033709 0.000444137 0)
(0.00297047 0.000706146 0)
(0.00245527 0.000967571 0)
(0.00182404 0.00122862 0)
(0.00107543 0.00149016 0)
(0.000207787 0.00175358 0)
(-0.000780988 0.00202055 0)
(-0.00189347 0.0022929 0)
(-0.00313271 0.00257243 0)
(-0.00450223 0.00286078 0)
(-0.00600584 0.00315932 0)
(-0.00764757 0.00346905 0)
(-0.00943147 0.00379055 0)
(-0.0113614 0.00412392 0)
(-0.0134409 0.00446877 0)
(-0.015673 0.00482421 0)
(-0.0180597 0.00518889 0)
(-0.0206024 0.00556096 0)
(-0.0233011 0.00593815 0)
(-0.0261545 0.00631777 0)
(-0.0291601 0.00669673 0)
(-0.0323136 0.00707162 0)
(-0.0356089 0.00743868 0)
(-0.0390384 0.00779388 0)
(-0.0425925 0.00813296 0)
(-0.0462597 0.00845145 0)
(-0.0500268 0.00874475 0)
(-0.0538787 0.00900818 0)
(-0.0577983 0.00923704 0)
(-0.0617672 0.00942665 0)
(-0.0657652 0.00957249 0)
(-0.0697707 0.00967018 0)
(-0.0737611 0.00971563 0)
(-0.0777125 0.00970505 0)
(-0.0816003 0.00963505 0)
(-0.0853993 0.00950269 0)
(-0.0890842 0.00930554 0)
(-0.0926293 0.00904171 0)
(-0.0960093 0.00870992 0)
(-0.0991992 0.00830951 0)
(-0.102175 0.00784047 0)
(-0.104912 0.00730347 0)
(-0.10739 0.00669986 0)
(-0.109587 0.00603169 0)
(-0.111483 0.00530166 0)
(-0.113061 0.00451319 0)
(-0.114304 0.00367035 0)
(-0.115199 0.00277784 0)
(-0.115734 0.00184098 0)
(-0.115899 0.000865547 0)
(-0.115685 -0.000141937 0)
(-0.11509 -0.00117282 0)
(-0.114109 -0.00222136 0)
(-0.112744 -0.00327931 0)
(-0.110995 -0.00433813 0)
(-0.108868 -0.00538906 0)
(-0.106372 -0.00642311 0)
(-0.103515 -0.00743111 0)
(-0.100312 -0.00840377 0)
(-0.0967777 -0.00933182 0)
(-0.0929301 -0.0102061 0)
(-0.0887901 -0.0110177 0)
(-0.0843808 -0.0117579 0)
(-0.0797277 -0.0124186 0)
(-0.0748585 -0.0129924 0)
(-0.0698031 -0.0134725 0)
(-0.0645929 -0.013853 0)
(-0.0592612 -0.0141291 0)
(-0.0538428 -0.014297 0)
(-0.0483731 -0.0143544 0)
(-0.0428887 -0.0143003 0)
(-0.0374263 -0.014135 0)
(-0.0320226 -0.0138604 0)
(-0.0267141 -0.0134801 0)
(-0.0215361 -0.0129988 0)
(-0.0165228 -0.0124231 0)
(-0.0117067 -0.0117606 0)
(-0.00711809 -0.0110205 0)
(-0.00278467 -0.010213 0)
(0.00126876 -0.00934895 0)
(0.00502072 -0.00844032 0)
(0.00845328 -0.00749933 0)
(0.0115523 -0.00653844 0)
(0.0143076 -0.0055701 0)
(0.0167131 -0.00460642 0)
(0.0187667 -0.00365898 0)
(0.0204703 -0.00273855 0)
(0.0218299 -0.00185493 0)
(0.0228548 -0.00101669 0)
(0.0235577 -0.000231124 0)
(0.0239544 0.000495904 0)
(0.0240633 0.00116 0)
(0.0239047 0.00175825 0)
(0.0235008 0.00228913 0)
(0.0228749 0.00275249 0)
(0.0220508 0.00314931 0)
(0.021053 0.0034816 0)
(0.0199056 0.00375208 0)
(0.0186326 0.00396395 0)
(0.0172572 0.0041205 0)
(0.0158021 0.00422478 0)
(0.0142892 0.00427917 0)
(0.0127403 0.00428498 0)
(0.0111764 0.00424201 0)
(0.00961924 0.00414823 0)
(0.00809077 0.00399957 0)
(0.00661415 0.00378989 0)
(0.00521396 0.00351139 0)
(0.00391653 0.00315559 0)
(0.00275014 0.00271534 0)
(0.00174393 0.00218821 0)
(0.000926142 0.00158165 0)
(0.000336884 0.000920595 0)
(5.29879e-05 0.000265081 0)
(4.05979e-05 -0.000362819 0)
(0.00022599 -0.000956159 0)
(0.000572096 -0.00140563 0)
(0.00100289 -0.00171188 0)
(0.00147312 -0.00188412 0)
(0.00195059 -0.00193633 0)
(0.00240652 -0.0018848 0)
(0.00281594 -0.00174644 0)
(0.00315797 -0.00153756 0)
(0.00341537 -0.00127318 0)
(0.00357421 -0.000966571 0)
(0.00362345 -0.000629138 0)
(0.00355454 -0.00027029 0)
(0.00336096 0.00010251 0)
(0.00303786 0.00048366 0)
(0.00258155 0.00086929 0)
(0.00198914 0.00125709 0)
(0.00125824 0.00164611 0)
(0.000386563 0.00203654 0)
(-0.000628236 0.00242944 0)
(-0.00178878 0.00282654 0)
(-0.00309805 0.00322996 0)
(-0.00455945 0.00364198 0)
(-0.00617677 0.00406482 0)
(-0.0079541 0.00450045 0)
(-0.0098957 0.00495043 0)
(-0.0120058 0.00541578 0)
(-0.0142885 0.0058969 0)
(-0.0167474 0.00639351 0)
(-0.0193854 0.00690461 0)
(-0.0222046 0.0074285 0)
(-0.025206 0.00796276 0)
(-0.028389 0.00850434 0)
(-0.0317517 0.00904954 0)
(-0.0352905 0.00959408 0)
(-0.0389998 0.0101332 0)
(-0.0428722 0.0106615 0)
(-0.0468981 0.0111735 0)
(-0.0510659 0.011663 0)
(-0.0553616 0.0121239 0)
(-0.0597695 0.0125496 0)
(-0.0642716 0.0129335 0)
(-0.0688479 0.0132692 0)
(-0.0734768 0.0135501 0)
(-0.078135 0.0137699 0)
(-0.0827977 0.0139227 0)
(-0.087439 0.0140029 0)
(-0.092032 0.0140053 0)
(-0.0965491 0.0139254 0)
(-0.100962 0.0137593 0)
(-0.105244 0.0135038 0)
(-0.109366 0.0131565 0)
(-0.113301 0.0127159 0)
(-0.117021 0.0121811 0)
(-0.120503 0.0115524 0)
(-0.12372 0.0108308 0)
(-0.126649 0.0100182 0)
(-0.12927 0.00911736 0)
(-0.131561 0.00813197 0)
(-0.133505 0.00706653 0)
(-0.135086 0.00592637 0)
(-0.136289 0.0047176 0)
(-0.137102 0.00344709 0)
(-0.137515 0.00212246 0)
(-0.137521 0.000752061 0)
(-0.137114 -0.000655219 0)
(-0.136292 -0.00209079 0)
(-0.135053 -0.00354361 0)
(-0.1334 -0.00500333 0)
(-0.131336 -0.00645914 0)
(-0.128867 -0.00789977 0)
(-0.126004 -0.00931368 0)
(-0.122757 -0.0106891 0)
(-0.119139 -0.0120143 0)
(-0.115168 -0.0132773 0)
(-0.110863 -0.0144665 0)
(-0.106243 -0.0155706 0)
(-0.101333 -0.0165785 0)
(-0.0961589 -0.0174799 0)
(-0.0907483 -0.0182652 0)
(-0.0851315 -0.0189254 0)
(-0.0793404 -0.0194532 0)
(-0.0734089 -0.019842 0)
(-0.0673724 -0.0200868 0)
(-0.0612673 -0.0201843 0)
(-0.0551314 -0.0201328 0)
(-0.0490026 -0.0199324 0)
(-0.0429195 -0.019585 0)
(-0.0369205 -0.0190947 0)
(-0.0310432 -0.0184672 0)
(-0.0253245 -0.0177104 0)
(-0.0197997 -0.0168339 0)
(-0.0145023 -0.0158489 0)
(-0.00946355 -0.0147684 0)
(-0.00471184 -0.0136063 0)
(-0.000272529 -0.0123779 0)
(0.0038325 -0.011099 0)
(0.00758508 -0.00978618 0)
(0.010971 -0.00845579 0)
(0.0139804 -0.00712415 0)
(0.0166073 -0.00580701 0)
(0.0188502 -0.00451924 0)
(0.0207118 -0.00327458 0)
(0.0221987 -0.00208535 0)
(0.0233214 -0.000962263 0)
(0.0240938 8.57503e-05 0)
(0.0245331 0.00105163 0)
(0.0246591 0.00193027 0)
(0.0244939 0.00271842 0)
(0.0240613 0.00341466 0)
(0.0233868 0.0040192 0)
(0.0224962 0.00453365 0)
(0.0214162 0.00496075 0)
(0.0201735 0.00530396 0)
(0.0187944 0.00556703 0)
(0.0173051 0.00575356 0)
(0.0157312 0.00586641 0)
(0.0140982 0.0059072 0)
(0.0124313 0.00587579 0)
(0.0107555 0.00576984 0)
(0.00909685 0.00558453 0)
(0.00748178 0.00531259 0)
(0.00593817 0.00494474 0)
(0.00449557 0.00447075 0)
(0.00318573 0.00388153 0)
(0.00204199 0.00317242 0)
(0.00109825 0.00234785 0)
(0.000406028 0.00142762 0)
(6.57009e-05 0.000460167 0)
(4.13578e-05 -0.000484324 0)
(0.000228575 -0.00124173 0)
(0.000574261 -0.00179628 0)
(0.000997436 -0.00216084 0)
(0.00144943 -0.00235261 0)
(0.00189598 -0.00239164 0)
(0.00230697 -0.00229926 0)
(0.00265658 -0.0020967 0)
(0.0029233 -0.00180416 0)
(0.00308931 -0.00144012 0)
(0.00314003 -0.00102095 0)
(0.0030637 -0.000560712 0)
(0.00285096 -7.10573e-05 0)
(0.0024944 0.000438737 0)
(0.00198817 0.000961682 0)
(0.00132753 0.00149292 0)
(0.000508557 0.00202951 0)
(-0.000472275 0.0025702 0)
(-0.00161831 0.00311513 0)
(-0.00293295 0.00366553 0)
(-0.0044198 0.00422342 0)
(-0.00608274 0.00479125 0)
(-0.00792595 0.00537165 0)
(-0.00995382 0.00596712 0)
(-0.0121709 0.00657976 0)
(-0.0145815 0.00721111 0)
(-0.0171899 0.00786196 0)
(-0.0199996 0.00853225 0)
(-0.0230136 0.00922096 0)
(-0.0262336 0.00992616 0)
(-0.0296601 0.0106449 0)
(-0.0332922 0.0113734 0)
(-0.0371271 0.0121069 0)
(-0.04116 0.01284 0)
(-0.0453841 0.0135662 0)
(-0.0497904 0.0142788 0)
(-0.0543674 0.0149702 0)
(-0.0591014 0.0156326 0)
(-0.0639764 0.0162577 0)
(-0.068974 0.0168369 0)
(-0.0740734 0.0173616 0)
(-0.0792522 0.0178234 0)
(-0.0844858 0.0182136 0)
(-0.089748 0.0185243 0)
(-0.0950115 0.0187476 0)
(-0.100247 0.0188765 0)
(-0.105427 0.0189044 0)
(-0.110519 0.0188256 0)
(-0.115495 0.0186354 0)
(-0.120324 0.0183298 0)
(-0.124978 0.0179059 0)
(-0.129427 0.0173619 0)
(-0.133644 0.0166972 0)
(-0.137603 0.015912 0)
(-0.141278 0.0150078 0)
(-0.144646 0.0139872 0)
(-0.147686 0.0128537 0)
(-0.150378 0.0116119 0)
(-0.152703 0.0102673 0)
(-0.154647 0.00882661 0)
(-0.156194 0.00729704 0)
(-0.157334 0.00568688 0)
(-0.158056 0.00400513 0)
(-0.158353 0.00226157 0)
(-0.158219 0.000466754 0)
(-0.15765 -0.00136821 0)
(-0.156646 -0.00323207 0)
(-0.155206 -0.00511209 0)
(-0.153334 -0.00699553 0)
(-0.151034 -0.00886921 0)
(-0.148313 -0.0107196 0)
(-0.145181 -0.0125327 0)
(-0.141648 -0.0142946 0)
(-0.137729 -0.015991 0)
(-0.133439 -0.0176077 0)
(-0.128797 -0.0191308 0)
(-0.123822 -0.0205464 0)
(-0.118539 -0.0218414 0)
(-0.112971 -0.0230031 0)
(-0.107146 -0.0240197 0)
(-0.101093 -0.0248803 0)
(-0.0948447 -0.0255755 0)
(-0.0884337 -0.0260972 0)
(-0.0818953 -0.0264388 0)
(-0.0752662 -0.0265957 0)
(-0.0685845 -0.0265653 0)
(-0.0618889 -0.0263471 0)
(-0.055219 -0.0259429 0)
(-0.0486146 -0.0253567 0)
(-0.0421153 -0.024595 0)
(-0.03576 -0.0236668 0)
(-0.0295866 -0.0225829 0)
(-0.0236313 -0.0213568 0)
(-0.0179286 -0.0200035 0)
(-0.0125103 -0.01854 0)
(-0.00740536 -0.0169846 0)
(-0.00263957 -0.0153569 0)
(0.00176495 -0.013677 0)
(0.00578999 -0.0119654 0)
(0.00942149 -0.0102427 0)
(0.0126497 -0.00852892 0)
(0.0154691 -0.00684325 0)
(0.0178788 -0.00520369 0)
(0.0198821 -0.00362666 0)
(0.0214864 -0.00212674 0)
(0.0227031 -0.000716423 0)
(0.0235473 0.000594024 0)
(0.0240372 0.00179667 0)
(0.0241939 0.00288597 0)
(0.0240411 0.00385862 0)
(0.023604 0.00471342 0)
(0.0229097 0.00545107 0)
(0.021986 0.00607375 0)
(0.0208615 0.00658472 0)
(0.0195649 0.00698782 0)
(0.0181253 0.00728686 0)
(0.0165712 0.00748498 0)
(0.0149314 0.007584 0)
(0.0132343 0.0075838 0)
(0.0115085 0.00748179 0)
(0.00978326 0.00727256 0)
(0.00808824 0.00694784 0)
(0.00645443 0.00649692 0)
(0.0049146 0.00590767 0)
(0.0035041 0.00516841 0)
(0.0022607 0.00427085 0)
(0.00122406 0.00321387 0)
(0.000455707 0.00200844 0)
(7.44459e-05 0.000686724 0)
(4.03805e-05 -0.000604337 0)
(0.000220673 -0.0015211 0)
(0.000548862 -0.00217273 0)
(0.000942385 -0.00258461 0)
(0.00135078 -0.00278274 0)
(0.00173845 -0.00279407 0)
(0.00207457 -0.00264547 0)
(0.00233294 -0.00236284 0)
(0.0024918 -0.00197035 0)
(0.00253313 -0.00148994 0)
(0.002442 -0.000940978 0)
(0.00220621 -0.000340054 0)
(0.00181577 0.000299049 0)
(0.0012625 0.000965364 0)
(0.000539676 0.0016506 0)
(-0.000358423 0.00234899 0)
(-0.0014368 0.00305701 0)
(-0.00270004 0.00377309 0)
(-0.00415258 0.00449734 0)
(-0.00579886 0.00523107 0)
(-0.00764342 0.00597649 0)
(-0.00969097 0.00673629 0)
(-0.0119463 0.00751326 0)
(-0.0144143 0.00830995 0)
(-0.0170995 0.00912837 0)
(-0.0200062 0.00996972 0)
(-0.0231381 0.0108342 0)
(-0.0264979 0.011721 0)
(-0.0300871 0.0126279 0)
(-0.0339058 0.0135516 0)
(-0.0379523 0.0144877 0)
(-0.0422231 0.0154303 0)
(-0.0467123 0.0163727 0)
(-0.0514118 0.0173072 0)
(-0.0563109 0.0182252 0)
(-0.0613964 0.0191172 0)
(-0.0666526 0.0199733 0)
(-0.0720612 0.0207833 0)
(-0.0776015 0.0215363 0)
(-0.0832504 0.0222216 0)
(-0.0889828 0.0228285 0)
(-0.0947717 0.0233465 0)
(-0.100588 0.0237656 0)
(-0.106403 0.0240763 0)
(-0.112185 0.0242698 0)
(-0.117904 0.0243383 0)
(-0.123526 0.024275 0)
(-0.129022 0.024074 0)
(-0.134359 0.023731 0)
(-0.139508 0.0232426 0)
(-0.144441 0.0226068 0)
(-0.149128 0.021823 0)
(-0.153544 0.0208919 0)
(-0.157663 0.0198153 0)
(-0.161464 0.0185964 0)
(-0.164925 0.0172396 0)
(-0.168026 0.0157503 0)
(-0.170751 0.0141351 0)
(-0.173085 0.0124016 0)
(-0.175013 0.0105582 0)
(-0.176525 0.0086144 0)
(-0.177611 0.00658034 0)
(-0.178264 0.00446703 0)
(-0.178477 0.00228617 0)
(-0.178246 5.02146e-05 0)
(-0.177569 -0.00222761 0)
(-0.176446 -0.00453401 0)
(-0.174876 -0.00685463 0)
(-0.172864 -0.00917471 0)
(-0.170414 -0.0114791 0)
(-0.167533 -0.0137521 0)
(-0.164228 -0.0159779 0)
(-0.16051 -0.0181403 0)
(-0.156392 -0.0202229 0)
(-0.151888 -0.0222093 0)
(-0.147015 -0.0240833 0)
(-0.141792 -0.0258289 0)
(-0.136239 -0.0274306 0)
(-0.130381 -0.0288733 0)
(-0.124243 -0.0301432 0)
(-0.117853 -0.0312271 0)
(-0.111242 -0.0321135 0)
(-0.104442 -0.0327923 0)
(-0.0974877 -0.0332553 0)
(-0.0904157 -0.0334962 0)
(-0.0832638 -0.0335112 0)
(-0.0760715 -0.0332989 0)
(-0.0688789 -0.0328602 0)
(-0.0617271 -0.0321993 0)
(-0.0546572 -0.0313227 0)
(-0.0477102 -0.0302399 0)
(-0.0409263 -0.0289632 0)
(-0.0343446 -0.0275074 0)
(-0.0280025 -0.0258898 0)
(-0.0219352 -0.0241298 0)
(-0.0161752 -0.0222487 0)
(-0.0107522 -0.0202694 0)
(-0.0056921 -0.0182158 0)
(-0.00101727 -0.0161123 0)
(0.00325417 -0.0139838 0)
(0.00710836 -0.0118545 0)
(0.0105359 -0.00974832 0)
(0.013532 -0.00768753 0)
(0.0160962 -0.00569295 0)
(0.0182327 -0.00378339 0)
(0.0199499 -0.00197533 0)
(0.0212601 -0.000282691 0)
(0.0221794 0.00128328 0)
(0.0227274 0.00271413 0)
(0.0229264 0.00400412 0)
(0.0228013 0.00515006 0)
(0.022379 0.00615111 0)
(0.0216881 0.00700836 0)
(0.0207582 0.00772437 0)
(0.0196198 0.00830259 0)
(0.0183039 0.00874666 0)
(0.0168415 0.00905972 0)
(0.015264 0.00924359 0)
(0.0136029 0.00929807 0)
(0.0118898 0.00922031 0)
(0.0101567 0.00900434 0)
(0.00843651 0.00864092 0)
(0.00676322 0.00811786 0)
(0.00517281 0.00742086 0)
(0.00370426 0.00653501 0)
(0.00239966 0.00544718 0)
(0.00130399 0.00414893 0)
(0.000486777 0.00264007 0)
(7.96671e-05 0.000934327 0)
(3.80319e-05 -0.000717888 0)
(0.000203839 -0.00178141 0)
(0.000499164 -0.00251637 0)
(0.000842739 -0.00296042 0)
(0.00118385 -0.00314874 0)
(0.00148643 -0.00311559 0)
(0.00171959 -0.00289376 0)
(0.00185728 -0.00251396 0)
(0.00187791 -0.00200437 0)
(0.00176351 -0.00139031 0)
(0.00149911 -0.000694004 0)
(0.00107225 6.55891e-05 0)
(0.000472463 0.000872734 0)
(-0.000309029 0.00171493 0)
(-0.00127978 0.00258273 0)
(-0.00244643 0.00346953 0)
(-0.00381497 0.00437128 0)
(-0.00539104 0.00528615 0)
(-0.0071801 0.00621412 0)
(-0.00918753 0.00715656 0)
(-0.0114187 0.00811573 0)
(-0.0138791 0.00909437 0)
(-0.0165738 0.0100952 0)
(-0.0195078 0.0111206 0)
(-0.0226856 0.012172 0)
(-0.0261108 0.0132501 0)
(-0.0297862 0.014354 0)
(-0.033713 0.0154816 0)
(-0.0378908 0.0166293 0)
(-0.0423175 0.0177919 0)
(-0.0469884 0.0189628 0)
(-0.0518968 0.020134 0)
(-0.0570331 0.0212962 0)
(-0.0623853 0.0224391 0)
(-0.0679384 0.0235514 0)
(-0.0736748 0.0246212 0)
(-0.0795741 0.0256357 0)
(-0.0856133 0.0265821 0)
(-0.0917673 0.0274474 0)
(-0.0980086 0.0282187 0)
(-0.104308 0.0288834 0)
(-0.110635 0.0294294 0)
(-0.116957 0.0298456 0)
(-0.123243 0.0301215 0)
(-0.129458 0.030248 0)
(-0.135572 0.0302172 0)
(-0.141551 0.0300225 0)
(-0.147363 0.0296588 0)
(-0.152979 0.0291224 0)
(-0.158369 0.0284115 0)
(-0.163506 0.0275253 0)
(-0.168364 0.0264649 0)
(-0.172919 0.0252328 0)
(-0.177149 0.0238326 0)
(-0.181034 0.0222694 0)
(-0.184556 0.0205496 0)
(-0.187698 0.0186806 0)
(-0.190447 0.0166709 0)
(-0.192789 0.0145299 0)
(-0.194714 0.0122679 0)
(-0.196212 0.00989608 0)
(-0.197276 0.00742641 0)
(-0.197899 0.00487149 0)
(-0.198077 0.00224467 0)
(-0.197806 -0.000440055 0)
(-0.197084 -0.003168 0)
(-0.195911 -0.00592408 0)
(-0.194288 -0.00869247 0)
(-0.192216 -0.0114568 0)
(-0.189699 -0.0142002 0)
(-0.186742 -0.0169054 0)
(-0.183353 -0.0195546 0)
(-0.17954 -0.0221298 0)
(-0.175314 -0.0246126 0)
(-0.170686 -0.0269846 0)
(-0.165671 -0.0292273 0)