/*--------------------------------*- C++ -*----------------------------------*\
| =========                 |                                                 |
| \\      /  F ield         | OpenFOAM: The Open Source CFD Toolbox           |
|  \\    /   O peration     | Version:  2112                                  |
|   \\  /    A nd           | Website:  www.openfoam.com                      |
|    \\/     M anipulation  |                                                 |
\*---------------------------------------------------------------------------*/
FoamFile
{
    version     2.0;
    format      ascii;
    arch        "LSB;label=32;scalar=64";
    class       volScalarField;
    location    "5";
    object      p;
}
// * * * * * * * * * * * * * * * * * * * * * * * * * * * * * * * * * * * * * //

dimensions      [0 2 -2 0 0 0 0];

internalField   nonuniform List<scalar> 
25600
(
-6.74945e-15
-6.70587e-15
-4.72828e-15
-2.55239e-15
-8.39077e-16
6.35876e-16
2.01278e-15
3.36951e-15
4.70108e-15
5.99301e-15
7.30161e-15
8.63274e-15
9.85155e-15
1.10662e-14
1.22438e-14
1.33584e-14
1.45162e-14
1.5651e-14
1.67687e-14
1.77839e-14
1.87199e-14
1.9642e-14
2.05358e-14
2.14487e-14
2.23604e-14
2.31991e-14
2.39973e-14
2.48994e-14
2.57494e-14
2.6489e-14
2.71527e-14
2.78426e-14
2.85774e-14
2.92652e-14
2.98985e-14
3.05256e-14
3.11219e-14
3.17297e-14
3.22651e-14
3.27597e-14
3.33188e-14
3.38301e-14
3.43538e-14
3.48218e-14
3.51386e-14
3.56584e-14
3.61371e-14
3.66086e-14
3.70896e-14
3.75857e-14
3.80331e-14
3.83758e-14
3.87749e-14
3.90736e-14
3.93686e-14
3.97569e-14
3.9999e-14
4.02703e-14
4.05303e-14
4.07231e-14
4.10414e-14
4.12244e-14
4.14027e-14
4.15788e-14
4.1701e-14
4.19457e-14
4.20225e-14
4.20947e-14
4.21002e-14
4.21055e-14
4.21777e-14
4.21926e-14
4.21872e-14
4.21077e-14
4.19771e-14
4.20587e-14
4.20288e-14
4.17281e-14
4.15757e-14
4.14154e-14
4.14036e-14
4.12544e-14
4.08239e-14
4.04471e-14
4.01078e-14
3.99604e-14
3.98482e-14
3.94005e-14
3.88748e-14
3.85477e-14
3.8445e-14
3.82372e-14
3.77195e-14
3.71865e-14
3.70033e-14
3.68475e-14
3.63702e-14
3.59479e-14
3.55804e-14
3.54192e-14
3.53928e-14
3.49188e-14
3.44698e-14
3.40359e-14
3.37702e-14
3.35481e-14
3.31602e-14
3.25643e-14
3.2045e-14
3.17516e-14
3.14359e-14
3.11765e-14
3.03568e-14
2.96082e-14
2.93047e-14
2.90005e-14
2.85125e-14
2.77915e-14
2.7156e-14
2.68265e-14
2.6525e-14
2.61603e-14
2.54317e-14
2.46732e-14
2.43473e-14
2.41785e-14
2.38192e-14
2.30898e-14
2.24324e-14
2.22274e-14
2.20394e-14
2.16318e-14
2.0932e-14
2.04863e-14
2.02758e-14
1.9928e-14
1.95871e-14
1.91614e-14
1.87234e-14
1.84791e-14
1.81861e-14
1.78654e-14
1.74028e-14
1.70096e-14
1.67185e-14
1.63942e-14
1.61897e-14
1.58483e-14
1.53861e-14
1.49381e-14
1.46307e-14
1.46696e-14
1.44119e-14
1.37765e-14
1.33773e-14
1.32115e-14
1.31739e-14
1.29833e-14
1.25364e-14
1.22675e-14
1.21546e-14
1.22959e-14
1.21487e-14
1.18914e-14
1.1971e-14
1.17695e-14
1.18472e-14
1.18738e-14
1.1647e-14
1.16349e-14
1.16671e-14
1.19328e-14
1.1977e-14
1.2009e-14
1.20697e-14
1.20234e-14
1.20622e-14
1.18122e-14
1.20352e-14
1.20954e-14
1.17986e-14
1.21734e-14
1.21528e-14
1.21533e-14
1.22178e-14
1.19984e-14
1.24138e-14
1.24707e-14
1.24959e-14
1.28991e-14
1.28256e-14
1.3067e-14
1.32429e-14
1.30929e-14
1.34207e-14
1.3638e-14
1.38277e-14
1.37216e-14
1.35998e-14
1.42995e-14
1.45048e-14
1.46751e-14
1.45943e-14
1.44512e-14
1.51742e-14
1.55582e-14
1.54507e-14
1.51221e-14
1.53317e-14
1.6145e-14
1.66661e-14
1.64789e-14
1.59762e-14
1.65313e-14
1.70914e-14
1.65175e-14
1.68924e-14
1.75934e-14
1.77399e-14
1.75261e-14
1.68775e-14
1.72432e-14
1.79213e-14
1.79911e-14
1.77475e-14
1.70883e-14
1.74261e-14
1.78517e-14
1.78653e-14
1.79821e-14
1.7554e-14
1.76812e-14
1.77761e-14
1.76387e-14
1.77614e-14
1.73485e-14
1.73257e-14
1.74671e-14
1.74912e-14
1.76249e-14
1.71444e-14
1.7238e-14
1.73132e-14
1.72903e-14
1.76522e-14
1.72793e-14
1.69106e-14
1.68693e-14
1.72463e-14
1.75724e-14
1.71147e-14
1.71903e-14
1.73777e-14
1.75219e-14
1.77457e-14
1.72626e-14
1.7324e-14
1.73752e-14
1.74163e-14
1.77371e-14
1.73426e-14
1.73111e-14
1.74286e-14
1.73588e-14
1.73151e-14
1.6799e-14
1.66981e-14
1.68311e-14
1.69044e-14
1.69126e-14
1.65111e-14
1.64451e-14
1.64826e-14
1.65227e-14
1.652e-14
1.61203e-14
1.5973e-14
1.59421e-14
1.55005e-14
1.53975e-14
1.51537e-14
1.48685e-14
1.48669e-14
1.46429e-14
1.44844e-14
1.39289e-14
1.32984e-14
1.32217e-14
1.33254e-14
1.29615e-14
1.21273e-14
1.17603e-14
1.17097e-14
1.14715e-14
1.0734e-14
9.90512e-15
9.71054e-15
9.41896e-15
9.2076e-15
8.41634e-15
7.48321e-15
7.21729e-15
6.92955e-15
6.86952e-15
6.44656e-15
5.53843e-15
4.77507e-15
3.96981e-15
3.64582e-15
2.86187e-15
2.02255e-15
1.16221e-15
2.16326e-18
-5.26011e-16
-1.38595e-15
-2.61829e-15
-3.51066e-15
-4.75903e-15
-6.02194e-15
-7.10599e-15
-5.84901e-15
-5.0997e-15
-3.591e-15
-1.73256e-15
-3.00559e-16
1.01824e-15
2.31022e-15
3.63346e-15
4.91648e-15
6.16727e-15
7.45035e-15
8.77793e-15
9.97076e-15
1.11979e-14
1.23158e-14
1.34291e-14
1.45829e-14
1.5683e-14
1.67813e-14
1.78412e-14
1.87856e-14
1.97308e-14
2.05984e-14
2.14117e-14
2.22961e-14
2.3229e-14
2.41456e-14
2.49742e-14
2.57006e-14
2.65047e-14
2.72206e-14
2.79355e-14
2.86476e-14
2.92745e-14
2.99109e-14
3.06327e-14
3.11826e-14
3.16748e-14
3.23015e-14
3.28032e-14
3.33739e-14
3.38745e-14
3.43921e-14
3.48175e-14
3.5177e-14
3.56226e-14
3.61445e-14
3.6674e-14
3.71263e-14
3.76045e-14
3.79567e-14
3.8469e-14
3.88194e-14
3.91181e-14
3.94435e-14
3.97166e-14
3.99894e-14
4.02898e-14
4.05567e-14
4.08046e-14
4.10166e-14
4.12903e-14
4.14396e-14
4.16733e-14
4.1715e-14
4.19636e-14
4.20311e-14
4.21314e-14
4.21467e-14
4.21304e-14
4.21729e-14
4.22175e-14
4.21774e-14
4.20674e-14
4.20332e-14
4.20244e-14
4.19908e-14
4.18138e-14
4.1575e-14
4.14565e-14
4.14008e-14
4.11702e-14
4.08103e-14
4.05505e-14
4.01638e-14
3.99592e-14
3.96565e-14
3.9336e-14
3.9052e-14
3.87132e-14
3.84159e-14
3.80622e-14
3.77225e-14
3.7311e-14
3.695e-14
3.66853e-14
3.63026e-14
3.59611e-14
3.57764e-14
3.54949e-14
3.51813e-14
3.48463e-14
3.44934e-14
3.41639e-14
3.38125e-14
3.3472e-14
3.31191e-14
3.26058e-14
3.21211e-14
3.17235e-14
3.14394e-14
3.1016e-14
3.04638e-14
2.98615e-14
2.92653e-14
2.88236e-14
2.83922e-14
2.79112e-14
2.72524e-14
2.67788e-14
2.65081e-14
2.61086e-14
2.54668e-14
2.47902e-14
2.4348e-14
2.40743e-14
2.37805e-14
2.30963e-14
2.25016e-14
2.22802e-14
2.19541e-14
2.15407e-14
2.10131e-14
2.05409e-14
2.01786e-14
1.98539e-14
1.95684e-14
1.92554e-14
1.87557e-14
1.84337e-14
1.8202e-14
1.78427e-14
1.74266e-14
1.70178e-14
1.66697e-14
1.63662e-14
1.60928e-14
1.57057e-14
1.53845e-14
1.5102e-14
1.47649e-14
1.45042e-14
1.41904e-14
1.37721e-14
1.35156e-14
1.33409e-14
1.31305e-14
1.29341e-14
1.25865e-14
1.23212e-14
1.22794e-14
1.21854e-14
1.2042e-14
1.19131e-14
1.18494e-14
1.18522e-14
1.17208e-14
1.17069e-14
1.17604e-14
1.17334e-14
1.17793e-14
1.18138e-14
1.18909e-14
1.19457e-14
1.19083e-14
1.22152e-14
1.21749e-14
1.19973e-14
1.19865e-14
1.18679e-14
1.19718e-14
1.21265e-14
1.20564e-14
1.20461e-14
1.2077e-14
1.22116e-14
1.2352e-14
1.2499e-14
1.24978e-14
1.26328e-14
1.28477e-14
1.30718e-14
1.32309e-14
1.33658e-14
1.33363e-14
1.35146e-14
1.36866e-14
1.38404e-14
1.40111e-14
1.41212e-14
1.43228e-14
1.45079e-14
1.47281e-14
1.48752e-14
1.4975e-14
1.52046e-14
1.53909e-14
1.54419e-14
1.56608e-14
1.59838e-14
1.62392e-14
1.6324e-14
1.63471e-14
1.65864e-14
1.68518e-14
1.69117e-14
1.71459e-14
1.72527e-14
1.73598e-14
1.74358e-14
1.73526e-14
1.7536e-14
1.75979e-14
1.765e-14
1.76811e-14
1.75381e-14
1.75848e-14
1.77951e-14
1.78226e-14
1.78026e-14
1.76532e-14
1.76702e-14
1.77326e-14
1.77064e-14
1.76447e-14
1.75927e-14
1.74155e-14
1.73213e-14
1.7347e-14
1.75047e-14
1.73319e-14
1.73512e-14
1.72713e-14
1.72439e-14
1.73931e-14
1.72041e-14
1.71646e-14
1.71225e-14
1.72241e-14
1.73355e-14
1.71117e-14
1.72202e-14
1.73972e-14
1.76233e-14
1.75309e-14
1.72448e-14
1.74221e-14
1.7481e-14
1.74332e-14
1.75321e-14
1.74125e-14
1.74851e-14
1.74311e-14
1.73346e-14
1.7159e-14
1.69476e-14
1.69609e-14
1.67855e-14
1.67468e-14
1.68077e-14
1.67075e-14
1.6572e-14
1.64216e-14
1.64548e-14
1.65268e-14
1.61983e-14
1.60119e-14
1.57559e-14
1.55519e-14
1.55082e-14
1.52533e-14
1.50176e-14
1.47741e-14
1.45324e-14
1.44558e-14
1.38848e-14
1.35363e-14
1.34041e-14
1.32326e-14
1.28372e-14
1.2279e-14
1.2023e-14
1.17317e-14
1.11626e-14
1.07681e-14
1.01842e-14
9.73522e-15
9.46655e-15
8.98095e-15
8.46785e-15
7.77822e-15
7.26526e-15
7.04147e-15
6.74204e-15
6.29694e-15
5.55219e-15
4.98443e-15
4.37297e-15
3.72035e-15
2.96553e-15
2.10776e-15
1.26876e-15
3.64877e-16
-4.31766e-16
-1.34232e-15
-2.0986e-15
-3.00355e-15
-4.01508e-15
-4.92225e-15
-5.71904e-15
-3.78193e-15
-3.10605e-15
-1.99555e-15
-6.10176e-16
5.50361e-16
1.71778e-15
2.95084e-15
4.07589e-15
5.29855e-15
6.42775e-15
7.70401e-15
9.01009e-15
1.01492e-14
1.13243e-14
1.24437e-14
1.35466e-14
1.46656e-14
1.57876e-14
1.69412e-14
1.80252e-14
1.89594e-14
1.98486e-14
2.06016e-14
2.14188e-14
2.23875e-14
2.3381e-14
2.42974e-14
2.51066e-14
2.58037e-14
2.64769e-14
2.72986e-14
2.81127e-14
2.87542e-14
2.93768e-14
2.99374e-14
3.05577e-14
3.11841e-14
3.1714e-14
3.22608e-14
3.29197e-14
3.34891e-14
3.39711e-14
3.44107e-14
3.48671e-14
3.53238e-14
3.56232e-14
3.61259e-14
3.66909e-14
3.71897e-14
3.75742e-14
3.79996e-14
3.85077e-14
3.8912e-14
3.92078e-14
3.94586e-14
3.97433e-14
3.99994e-14
4.02771e-14
4.06326e-14
4.08376e-14
4.11112e-14
4.13295e-14
4.14962e-14
4.16863e-14
4.17765e-14
4.19836e-14
4.21434e-14
4.22927e-14
4.22176e-14
4.2138e-14
4.21706e-14
4.22748e-14
4.22032e-14
4.20608e-14
4.20698e-14
4.19784e-14
4.19246e-14
4.1954e-14
4.1666e-14
4.14885e-14
4.14058e-14
4.11367e-14
4.08763e-14
4.05492e-14
4.01781e-14
3.98647e-14
3.96198e-14
3.93515e-14
3.91074e-14
3.87879e-14
3.83378e-14
3.80427e-14
3.77153e-14
3.73855e-14
3.69897e-14
3.66398e-14
3.62144e-14
3.60105e-14
3.5877e-14
3.54971e-14
3.51283e-14
3.47932e-14
3.45286e-14
3.41515e-14
3.38306e-14
3.34557e-14
3.31116e-14
3.26938e-14
3.21252e-14
3.17122e-14
3.14316e-14
3.09871e-14
3.05316e-14
3.00059e-14
2.92654e-14
2.87443e-14
2.83715e-14
2.78963e-14
2.73022e-14
2.67476e-14
2.64539e-14
2.60337e-14
2.54897e-14
2.49592e-14
2.44689e-14
2.39842e-14
2.35294e-14
2.30587e-14
2.26461e-14
2.23988e-14
2.19837e-14
2.14411e-14
2.09732e-14
2.05693e-14
2.01545e-14
1.97822e-14
1.96017e-14
1.92425e-14
1.87939e-14
1.84445e-14
1.8199e-14
1.78808e-14
1.73072e-14
1.69972e-14
1.66453e-14
1.63562e-14
1.60949e-14
1.56442e-14
1.53539e-14
1.51205e-14
1.4825e-14
1.44777e-14
1.3987e-14
1.37375e-14
1.35504e-14
1.34062e-14
1.31306e-14
1.28943e-14
1.26237e-14
1.2363e-14
1.23112e-14
1.21032e-14
1.20012e-14
1.18906e-14
1.17643e-14
1.17997e-14
1.17234e-14
1.16513e-14
1.18351e-14
1.1819e-14
1.16894e-14
1.16765e-14
1.18952e-14
1.19447e-14
1.18246e-14
1.21007e-14
1.22182e-14
1.21985e-14
1.20122e-14
1.17045e-14
1.19254e-14
1.20635e-14
1.2e-14
1.20142e-14
1.20853e-14
1.22681e-14
1.22667e-14
1.23504e-14
1.24677e-14
1.25707e-14
1.28454e-14
1.30807e-14
1.32658e-14
1.33882e-14
1.33064e-14
1.35066e-14
1.36269e-14
1.37859e-14
1.4158e-14
1.41192e-14
1.42732e-14
1.45157e-14
1.4747e-14
1.50012e-14
1.50293e-14
1.49706e-14
1.52481e-14
1.55635e-14
1.58723e-14
1.59793e-14
1.60729e-14
1.62374e-14
1.64118e-14
1.66347e-14
1.69338e-14
1.70735e-14
1.72683e-14
1.71456e-14
1.72393e-14
1.73744e-14
1.76201e-14
1.76796e-14
1.75126e-14
1.7535e-14
1.77204e-14
1.77472e-14
1.77411e-14
1.7709e-14
1.77622e-14
1.77019e-14
1.77346e-14
1.77468e-14
1.78051e-14
1.76741e-14
1.75488e-14
1.75508e-14
1.74922e-14
1.73028e-14
1.73902e-14
1.74022e-14
1.72257e-14
1.73252e-14
1.73753e-14
1.7278e-14
1.71905e-14
1.70535e-14
1.72462e-14
1.73121e-14
1.72059e-14
1.72457e-14
1.72644e-14
1.72496e-14
1.72334e-14
1.74663e-14
1.75317e-14
1.74053e-14
1.74957e-14
1.7342e-14
1.74307e-14
1.76143e-14
1.76643e-14
1.75603e-14
1.72253e-14
1.71532e-14
1.71043e-14
1.71984e-14
1.7111e-14
1.67487e-14
1.66568e-14
1.68409e-14
1.67542e-14
1.65833e-14
1.64402e-14
1.65002e-14
1.6562e-14
1.61462e-14
1.6087e-14
1.58452e-14
1.56971e-14
1.56834e-14
1.52844e-14
1.51024e-14
1.47756e-14
1.44155e-14
1.44268e-14
1.38634e-14
1.36707e-14
1.3538e-14
1.32119e-14
1.2864e-14
1.24297e-14
1.2081e-14
1.17066e-14
1.1135e-14
1.09171e-14
1.03374e-14
9.71844e-15
9.54893e-15
8.95307e-15
8.56196e-15
7.99183e-15
7.43702e-15
7.10763e-15
6.6534e-15
6.31729e-15
5.65134e-15
5.27152e-15
4.72806e-15
3.91643e-15
3.23417e-15
2.19442e-15
1.61209e-15
8.47159e-16
-1.66168e-16
-8.38358e-16
-1.43216e-15
-2.20604e-15
-2.85162e-15
-3.4174e-15
-3.84821e-15
-1.5829e-15
-1.23881e-15
-2.92429e-16
7.46935e-16
1.7519e-15
2.75527e-15
3.69996e-15
4.64349e-15
5.84504e-15
6.84049e-15
7.93862e-15
9.23385e-15
1.03416e-14
1.15313e-14
1.27734e-14
1.37819e-14
1.48466e-14
1.59116e-14
1.70907e-14
1.81856e-14
1.9104e-14
2.00636e-14
2.07691e-14
2.14765e-14
2.24606e-14
2.35957e-14
2.44098e-14
2.52831e-14
2.59459e-14
2.65991e-14
2.73031e-14
2.81662e-14
2.8898e-14
2.94715e-14
3.00659e-14
3.05963e-14
3.12362e-14
3.1751e-14
3.22697e-14
3.30133e-14
3.35778e-14
3.4026e-14
3.45586e-14
3.4864e-14
3.53226e-14
3.56933e-14
3.61562e-14
3.68298e-14
3.71876e-14
3.76017e-14
3.80519e-14
3.85466e-14
3.90109e-14
3.9252e-14
3.95494e-14
3.97677e-14
4.00545e-14
4.03491e-14
4.07244e-14
4.0912e-14
4.11889e-14
4.12182e-14
4.14804e-14
4.18886e-14
4.18285e-14
4.20664e-14
4.24528e-14
4.23226e-14
4.21942e-14
4.22659e-14
4.22725e-14
4.22776e-14
4.21974e-14
4.2004e-14
4.21109e-14
4.1973e-14
4.20049e-14
4.19366e-14
4.16897e-14
4.16101e-14
4.15035e-14
4.12463e-14
4.09062e-14
4.05092e-14
4.01664e-14
3.99691e-14
3.98167e-14
3.93382e-14
3.89955e-14
3.87932e-14
3.83684e-14
3.79943e-14
3.76559e-14
3.73213e-14
3.6984e-14
3.66861e-14
3.62238e-14
3.5936e-14
3.58311e-14
3.55272e-14
3.52128e-14
3.48046e-14
3.44963e-14
3.41933e-14
3.3908e-14
3.35224e-14
3.30931e-14
3.2636e-14
3.21838e-14
3.18095e-14
3.13763e-14
3.09277e-14
3.0558e-14
2.99728e-14
2.93317e-14
2.87769e-14
2.8242e-14
2.78117e-14
2.73796e-14
2.66754e-14
2.63162e-14
2.59272e-14
2.5479e-14
2.51001e-14
2.45715e-14
2.39701e-14
2.34785e-14
2.30877e-14
2.26089e-14
2.23317e-14
2.18676e-14
2.13418e-14
2.09811e-14
2.04385e-14
2.01027e-14
1.97574e-14
1.94312e-14
1.91993e-14
1.88692e-14
1.84388e-14
1.81592e-14
1.78527e-14
1.74376e-14
1.70644e-14
1.65332e-14
1.6294e-14
1.60063e-14
1.56585e-14
1.53808e-14
1.50523e-14
1.47623e-14
1.4434e-14
1.40345e-14
1.37989e-14
1.35396e-14
1.34812e-14
1.30379e-14
1.2744e-14
1.24925e-14
1.23704e-14
1.23798e-14
1.20066e-14
1.17759e-14
1.18164e-14
1.1756e-14
1.1812e-14
1.16881e-14
1.17815e-14
1.17951e-14
1.1713e-14
1.16547e-14
1.16732e-14
1.16885e-14
1.19217e-14
1.19199e-14
1.21193e-14
1.22583e-14
1.22053e-14
1.19268e-14
1.15513e-14
1.18504e-14
1.2037e-14
1.20228e-14
1.19412e-14
1.20437e-14
1.22593e-14
1.22422e-14
1.21733e-14
1.23397e-14
1.26599e-14
1.28759e-14
1.29922e-14
1.31296e-14
1.34418e-14
1.35214e-14
1.35314e-14
1.36545e-14
1.36747e-14
1.39228e-14
1.40895e-14
1.43381e-14
1.45307e-14
1.46445e-14
1.4914e-14
1.49585e-14
1.51103e-14
1.52942e-14
1.55005e-14
1.58573e-14
1.61136e-14
1.62547e-14
1.62657e-14
1.63353e-14
1.66558e-14
1.69455e-14
1.71224e-14
1.73694e-14
1.73624e-14
1.73128e-14
1.73628e-14
1.7514e-14
1.7648e-14
1.7466e-14
1.75746e-14
1.7743e-14
1.79563e-14
1.77961e-14
1.76893e-14
1.78407e-14
1.79147e-14
1.7933e-14
1.78109e-14
1.76753e-14
1.75124e-14
1.74081e-14
1.7571e-14
1.75415e-14
1.74563e-14
1.73401e-14
1.71647e-14
1.74135e-14
1.74202e-14
1.70714e-14
1.72372e-14
1.71455e-14
1.70763e-14
1.72566e-14
1.72631e-14
1.7198e-14
1.72687e-14
1.71655e-14
1.72992e-14
1.73819e-14
1.74026e-14
1.7432e-14
1.74554e-14
1.74918e-14
1.72485e-14
1.74144e-14
1.76235e-14
1.79127e-14
1.76499e-14
1.71271e-14
1.72731e-14
1.74151e-14
1.71952e-14
1.68208e-14
1.68526e-14
1.67964e-14
1.66953e-14
1.66121e-14
1.67127e-14
1.66797e-14
1.66288e-14
1.64931e-14
1.63238e-14
1.62362e-14
1.59814e-14
1.57022e-14
1.56527e-14
1.5476e-14
1.51373e-14
1.48464e-14
1.45053e-14
1.43911e-14
1.39891e-14
1.36817e-14
1.33563e-14
1.31637e-14
1.30173e-14
1.27638e-14
1.21592e-14
1.15757e-14
1.1118e-14
1.11634e-14
1.04994e-14
9.82175e-15
9.37949e-15
8.99441e-15
8.66276e-15
8.23274e-15
7.58166e-15
7.23935e-15
6.97678e-15
6.60237e-15
6.19364e-15
5.49273e-15
4.7079e-15
4.26897e-15
3.53419e-15
2.67422e-15
2.10098e-15
1.41831e-15
4.10736e-16
-2.39724e-16
-7.86591e-16
-1.30111e-15
-1.53221e-15
-1.79771e-15
-1.85642e-15
5.11265e-17
4.81535e-16
1.28541e-15
2.10398e-15
2.83116e-15
3.82678e-15
4.62691e-15
5.49596e-15
6.5695e-15
7.37603e-15
8.34386e-15
9.47166e-15
1.08298e-14
1.18899e-14
1.30103e-14
1.4144e-14
1.51144e-14
1.59765e-14
1.71284e-14
1.83709e-14
1.93816e-14
2.02444e-14
2.10322e-14
2.17973e-14
2.27188e-14
2.36583e-14
2.46005e-14
2.55538e-14
2.61034e-14
2.66594e-14
2.73911e-14
2.82012e-14
2.90294e-14
2.96008e-14
3.02154e-14
3.07089e-14
3.13705e-14
3.18251e-14
3.22962e-14
3.3041e-14
3.35365e-14
3.41714e-14
3.45643e-14
3.51033e-14
3.54906e-14
3.57424e-14
3.60953e-14
3.67916e-14
3.71596e-14
3.7672e-14
3.81484e-14
3.86374e-14
3.89779e-14
3.92793e-14
3.9782e-14
4e-14
4.01651e-14
4.03548e-14
4.068e-14
4.09948e-14
4.14584e-14
4.13365e-14
4.15485e-14
4.18332e-14
4.19454e-14
4.20635e-14
4.25055e-14
4.2374e-14
4.23333e-14
4.23106e-14
4.2311e-14
4.23817e-14
4.21852e-14
4.21478e-14
4.21637e-14
4.21891e-14
4.20186e-14
4.1846e-14
4.16816e-14
4.16705e-14
4.14611e-14
4.13261e-14
4.08944e-14
4.05651e-14
4.03376e-14
4.00308e-14
3.98234e-14
3.94436e-14
3.89197e-14
3.88284e-14
3.85266e-14
3.78735e-14
3.74716e-14
3.7218e-14
3.68206e-14
3.63537e-14
3.62474e-14
3.61342e-14
3.58402e-14
3.5388e-14
3.52079e-14
3.48918e-14
3.45821e-14
3.43637e-14
3.40211e-14
3.35514e-14
3.28995e-14
3.26233e-14
3.22658e-14
3.19532e-14
3.1394e-14
3.09826e-14
3.05109e-14
3.01586e-14
2.94209e-14
2.87481e-14
2.80424e-14
2.76467e-14
2.72658e-14
2.67945e-14
2.62504e-14
2.5832e-14
2.55804e-14
2.52582e-14
2.46335e-14
2.39496e-14
2.35987e-14
2.31296e-14
2.25991e-14
2.21833e-14
2.18127e-14
2.14615e-14
2.09125e-14
2.03219e-14
1.99893e-14
1.96901e-14
1.94123e-14
1.92337e-14
1.87117e-14
1.83477e-14
1.79947e-14
1.78119e-14
1.7443e-14
1.70243e-14
1.66545e-14
1.62237e-14
1.5835e-14
1.57649e-14
1.54443e-14
1.50016e-14
1.47947e-14
1.44272e-14
1.41032e-14
1.3829e-14
1.35626e-14
1.32265e-14
1.27936e-14
1.25315e-14
1.24948e-14
1.2423e-14
1.22907e-14
1.20035e-14
1.18379e-14
1.16326e-14
1.16743e-14
1.17187e-14
1.17905e-14
1.17052e-14
1.17814e-14
1.17072e-14
1.17e-14
1.16687e-14
1.16804e-14
1.17866e-14
1.20814e-14
1.21707e-14
1.21763e-14
1.20125e-14
1.17462e-14
1.15287e-14
1.17549e-14
1.19967e-14
1.21e-14
1.20786e-14
1.17765e-14
1.21117e-14
1.22813e-14
1.22975e-14
1.22296e-14
1.25877e-14
1.28985e-14
1.29451e-14
1.29642e-14
1.33836e-14
1.37507e-14
1.36584e-14
1.36168e-14
1.36368e-14
1.36095e-14
1.39555e-14
1.44711e-14
1.45652e-14
1.47133e-14
1.48088e-14
1.49503e-14
1.51849e-14
1.53846e-14
1.55712e-14
1.57344e-14
1.60553e-14
1.63198e-14
1.63251e-14
1.63462e-14
1.66124e-14
1.68925e-14
1.71983e-14
1.73851e-14
1.7427e-14
1.7386e-14
1.74339e-14
1.75151e-14
1.76282e-14
1.74184e-14
1.75175e-14
1.77783e-14
1.80044e-14
1.79628e-14
1.77919e-14
1.80218e-14
1.80271e-14
1.79004e-14
1.76941e-14
1.75766e-14
1.73367e-14
1.72198e-14
1.75682e-14
1.76736e-14
1.75482e-14
1.72213e-14
1.71124e-14
1.74742e-14
1.73025e-14
1.69695e-14
1.7094e-14
1.72245e-14
1.72443e-14
1.73234e-14
1.72831e-14
1.71982e-14
1.71106e-14
1.70398e-14
1.72016e-14
1.74457e-14
1.74786e-14
1.73627e-14
1.74612e-14
1.74475e-14
1.73611e-14
1.75034e-14
1.75321e-14
1.77268e-14
1.76744e-14
1.72835e-14
1.74101e-14
1.7503e-14
1.72373e-14
1.66774e-14
1.69835e-14
1.67874e-14
1.65396e-14
1.66793e-14
1.67472e-14
1.67939e-14
1.67871e-14
1.63398e-14
1.65319e-14
1.63745e-14
1.60368e-14
1.57368e-14
1.54353e-14
1.55253e-14
1.52922e-14
1.49288e-14
1.46325e-14
1.43447e-14
1.4225e-14
1.37406e-14
1.32955e-14
1.30836e-14
1.29867e-14
1.2947e-14
1.22479e-14
1.17135e-14
1.13675e-14
1.12748e-14
1.08813e-14
9.98044e-15
9.31278e-15
9.1113e-15
8.79937e-15
8.58522e-15
7.66336e-15
7.43135e-15
7.41192e-15
6.7346e-15
6.46286e-15
5.937e-15
5.15214e-15
4.63774e-15
3.90251e-15
3.30715e-15
2.68662e-15
2.14551e-15
1.33637e-15
4.36278e-16
1.90772e-16
-1.44469e-17
-3.07245e-16
-1.93932e-16
-1.96841e-16
1.50269e-15
1.76892e-15
2.67898e-15
3.27276e-15
4.23468e-15
4.99904e-15
5.66088e-15
6.29091e-15
7.20795e-15
8.08199e-15
8.96794e-15
9.97958e-15
1.11529e-14
1.21604e-14
1.32038e-14
1.44063e-14
1.53803e-14
1.65287e-14
1.75186e-14
1.84826e-14
1.94265e-14
2.03758e-14
2.14471e-14
2.23156e-14
2.30198e-14
2.36889e-14
2.47992e-14
2.56638e-14
2.61917e-14
2.65507e-14
2.75612e-14
2.84787e-14
2.92926e-14
2.9836e-14
3.0537e-14
3.08808e-14
3.15797e-14
3.19348e-14
3.23393e-14
3.3108e-14
3.34491e-14
3.41699e-14
3.47848e-14
3.53129e-14
3.55251e-14
3.5874e-14
3.62628e-14
3.68384e-14
3.72324e-14
3.78161e-14
3.82201e-14
3.85759e-14
3.90423e-14
3.92608e-14
3.98067e-14
4.02015e-14
4.03775e-14
4.06456e-14
4.07443e-14
4.1068e-14
4.14898e-14
4.15021e-14
4.15848e-14
4.20446e-14
4.21576e-14
4.21151e-14
4.23319e-14
4.23276e-14
4.24929e-14
4.24928e-14
4.25824e-14
4.25075e-14
4.23692e-14
4.22411e-14
4.22989e-14
4.24185e-14
4.20953e-14
4.19381e-14
4.16946e-14
4.16126e-14
4.13198e-14
4.10887e-14
4.09074e-14
4.08638e-14
4.03755e-14
3.99112e-14
3.98423e-14
3.94917e-14
3.90135e-14
3.88402e-14
3.8451e-14
3.78246e-14
3.73252e-14
3.70895e-14
3.65345e-14
3.62883e-14
3.61491e-14
3.62553e-14
3.58584e-14
3.54565e-14
3.52687e-14
3.50021e-14
3.47357e-14
3.45369e-14
3.40407e-14
3.35296e-14
3.30967e-14
3.2646e-14
3.23088e-14
3.20554e-14
3.14184e-14
3.10214e-14
3.04562e-14
2.99815e-14
2.95003e-14
2.87114e-14
2.79597e-14
2.74658e-14
2.7258e-14
2.69676e-14
2.62378e-14
2.58136e-14
2.56046e-14
2.51773e-14
2.47231e-14
2.41701e-14
2.36235e-14
2.31374e-14
2.26118e-14
2.19475e-14
2.16229e-14
2.12554e-14
2.0721e-14
2.01913e-14
2.01313e-14
1.96705e-14
1.92999e-14
1.90487e-14
1.8625e-14
1.80286e-14
1.80051e-14
1.78129e-14
1.73891e-14
1.69167e-14
1.66066e-14
1.6286e-14
1.58989e-14
1.55957e-14
1.53628e-14
1.4862e-14
1.46858e-14
1.4329e-14
1.39866e-14
1.38775e-14
1.35805e-14
1.31863e-14
1.28022e-14
1.23614e-14
1.23933e-14
1.22904e-14
1.20438e-14
1.1978e-14
1.2065e-14
1.16076e-14
1.14698e-14
1.16066e-14
1.17606e-14
1.18492e-14
1.15604e-14
1.15811e-14
1.17233e-14
1.16238e-14
1.15503e-14
1.18639e-14
1.20493e-14
1.19644e-14
1.21877e-14
1.19217e-14
1.17674e-14
1.15759e-14
1.16005e-14
1.17462e-14
1.20274e-14
1.20724e-14
1.18353e-14
1.21138e-14
1.2275e-14
1.23086e-14
1.23125e-14
1.24705e-14
1.27204e-14
1.3049e-14
1.31857e-14
1.31687e-14
1.35815e-14
1.38381e-14
1.38011e-14
1.34814e-14
1.36518e-14
1.3977e-14
1.44902e-14
1.45385e-14
1.46126e-14
1.48224e-14
1.47885e-14
1.52163e-14
1.5447e-14
1.5541e-14
1.59235e-14
1.60917e-14
1.64381e-14
1.64902e-14
1.64106e-14
1.64208e-14
1.68476e-14
1.72497e-14
1.73926e-14
1.75799e-14
1.74653e-14
1.73723e-14
1.74337e-14
1.76023e-14
1.785e-14
1.76005e-14
1.7512e-14
1.79042e-14
1.80816e-14
1.79471e-14
1.80409e-14
1.79671e-14
1.78995e-14
1.77961e-14
1.75158e-14
1.73447e-14
1.72839e-14
1.75417e-14
1.76167e-14
1.74334e-14
1.72355e-14
1.69485e-14
1.72043e-14
1.72496e-14
1.69391e-14
1.69393e-14
1.69757e-14
1.71559e-14
1.72941e-14
1.7237e-14
1.71915e-14
1.71911e-14
1.71021e-14
1.70807e-14
1.72843e-14
1.74206e-14
1.74199e-14
1.76751e-14
1.74826e-14
1.73869e-14
1.75367e-14
1.73657e-14
1.77935e-14
1.76077e-14
1.74136e-14
1.75074e-14
1.73521e-14
1.70095e-14
1.65924e-14
1.68685e-14
1.69361e-14
1.66205e-14
1.65225e-14
1.68105e-14
1.69244e-14
1.69211e-14
1.66053e-14
1.64719e-14
1.63823e-14
1.60282e-14
1.58483e-14
1.54816e-14
1.54872e-14
1.53108e-14
1.50279e-14
1.47683e-14
1.46417e-14
1.44097e-14
1.37609e-14
1.33644e-14
1.31173e-14
1.29833e-14
1.28604e-14
1.23435e-14
1.20846e-14
1.15406e-14
1.14944e-14
1.07469e-14
1.01705e-14
9.68845e-15
9.23234e-15
8.98177e-15
8.71908e-15
7.89502e-15
7.64824e-15
7.34403e-15
7.23569e-15
6.61468e-15
6.13776e-15
5.82367e-15
5.20825e-15
4.66227e-15
3.66975e-15
3.39641e-15
2.67856e-15
2.04639e-15
1.52159e-15
1.25448e-15
1.23051e-15
1.15583e-15
1.18873e-15
1.21187e-15
2.48442e-15
3.26817e-15
3.93833e-15
4.60072e-15
5.50832e-15
6.1558e-15
6.6332e-15
7.22763e-15
7.89935e-15
8.50889e-15
9.39861e-15
1.0497e-14
1.17663e-14
1.24578e-14
1.34561e-14
1.48881e-14
1.56236e-14
1.6704e-14
1.7596e-14
1.87806e-14
1.97763e-14
2.05517e-14
2.15755e-14
2.25582e-14
2.32434e-14
2.41562e-14
2.51582e-14
2.5892e-14
2.63647e-14
2.66212e-14
2.77312e-14
2.86009e-14
2.93756e-14
2.99142e-14
3.06671e-14
3.09147e-14
3.16398e-14
3.21114e-14
3.2686e-14
3.31953e-14
3.37589e-14
3.42299e-14
3.45963e-14
3.53393e-14
3.58389e-14
3.60864e-14
3.65519e-14
3.70274e-14
3.74751e-14
3.80959e-14
3.83696e-14
3.86103e-14
3.92042e-14
3.94366e-14
3.99598e-14
4.00918e-14
4.0483e-14
4.06704e-14
4.07532e-14
4.13063e-14
4.17425e-14
4.20242e-14
4.1806e-14
4.18144e-14
4.20357e-14
4.21783e-14
4.23279e-14
4.24514e-14
4.26635e-14
4.24841e-14
4.28145e-14
4.27175e-14
4.25631e-14
4.27295e-14
4.25052e-14
4.24511e-14
4.1979e-14
4.19004e-14
4.16842e-14
4.16408e-14
4.11409e-14
4.09247e-14
4.10302e-14
4.08082e-14
4.02805e-14
3.99021e-14
3.97448e-14
3.94516e-14
3.89541e-14
3.87377e-14
3.82845e-14
3.7731e-14
3.73851e-14
3.70965e-14
3.65278e-14
3.64651e-14
3.62457e-14
3.6155e-14
3.5816e-14
3.5442e-14
3.53253e-14
3.50748e-14
3.48461e-14
3.43655e-14
3.40594e-14
3.36899e-14
3.33178e-14
3.27062e-14
3.21845e-14
3.21151e-14
3.15764e-14
3.08503e-14
3.0422e-14
2.99042e-14
2.94196e-14
2.87732e-14
2.809e-14
2.75492e-14
2.7072e-14
2.66803e-14
2.63913e-14
2.58383e-14
2.57336e-14
2.52705e-14
2.44443e-14
2.41456e-14
2.34939e-14
2.32587e-14
2.25465e-14
2.20078e-14
2.16588e-14
2.09909e-14
2.05571e-14
2.04112e-14
1.99935e-14
1.93014e-14
1.9064e-14
1.88545e-14
1.87759e-14
1.8051e-14
1.79773e-14
1.76566e-14
1.73062e-14
1.6967e-14
1.66421e-14
1.60734e-14
1.58343e-14
1.5553e-14
1.53646e-14
1.49109e-14
1.45189e-14
1.42186e-14
1.38274e-14
1.40511e-14
1.35624e-14
1.34009e-14
1.29237e-14
1.24628e-14
1.23992e-14
1.21697e-14
1.1702e-14
1.20494e-14
1.18872e-14
1.169e-14
1.15696e-14
1.15689e-14
1.17142e-14
1.15929e-14
1.14875e-14
1.15447e-14
1.17935e-14
1.1782e-14
1.19201e-14
1.18161e-14
1.20703e-14
1.20059e-14
1.20618e-14
1.16021e-14
1.16821e-14
1.17462e-14
1.17511e-14
1.16699e-14
1.1851e-14
1.19801e-14
1.1896e-14
1.20997e-14
1.21961e-14
1.24561e-14
1.23394e-14
1.22794e-14
1.26741e-14
1.2968e-14
1.30746e-14
1.31509e-14
1.3462e-14
1.35355e-14
1.35159e-14
1.35656e-14
1.3717e-14
1.41939e-14
1.44833e-14
1.46035e-14
1.47419e-14
1.45175e-14
1.47529e-14
1.50856e-14
1.55458e-14
1.58413e-14
1.60913e-14
1.61535e-14
1.64482e-14
1.65157e-14
1.67087e-14
1.66744e-14
1.67381e-14
1.68934e-14
1.73441e-14
1.73699e-14
1.7277e-14
1.7506e-14
1.7565e-14
1.77867e-14
1.80399e-14
1.75605e-14
1.76429e-14
1.80527e-14
1.83169e-14
1.80748e-14
1.79595e-14
1.79609e-14
1.80619e-14
1.79155e-14
1.75539e-14
1.73776e-14
1.73817e-14
1.74957e-14
1.7672e-14
1.74315e-14
1.72226e-14
1.67471e-14
1.70687e-14
1.71192e-14
1.70355e-14
1.66705e-14
1.66014e-14
1.68361e-14
1.71462e-14
1.71356e-14
1.71966e-14
1.72792e-14
1.72247e-14
1.70524e-14
1.71388e-14
1.7311e-14
1.72079e-14
1.75717e-14
1.75719e-14
1.73737e-14
1.73184e-14
1.73809e-14
1.76926e-14
1.77459e-14
1.76456e-14
1.73473e-14
1.70145e-14
1.70106e-14
1.64633e-14
1.6684e-14
1.65372e-14
1.6601e-14
1.68006e-14
1.68781e-14
1.68971e-14
1.69043e-14
1.65635e-14
1.66347e-14
1.6468e-14
1.60336e-14
1.58296e-14
1.56557e-14
1.55912e-14
1.5418e-14
1.50629e-14
1.47654e-14
1.45489e-14
1.44143e-14
1.39923e-14
1.34791e-14
1.31518e-14
1.28897e-14
1.27879e-14
1.2442e-14
1.22993e-14
1.19522e-14
1.17313e-14
1.08312e-14
1.05828e-14
1.01286e-14
9.31346e-15
9.20036e-15
8.87865e-15
8.43091e-15
7.82328e-15
7.63646e-15
7.492e-15
6.99249e-15
6.68288e-15
6.39115e-15
5.59772e-15
5.23689e-15
4.45211e-15
4.1591e-15
3.35865e-15
2.82986e-15
2.43443e-15
2.48877e-15
2.63484e-15
2.5417e-15
2.30834e-15
2.35291e-15
3.80271e-15
4.46329e-15
5.25076e-15
5.82529e-15
6.85989e-15
7.38579e-15
7.77465e-15
8.08877e-15
8.68123e-15
8.83492e-15
9.81522e-15
1.10065e-14
1.21448e-14
1.31852e-14
1.41158e-14
1.5134e-14
1.60549e-14
1.68389e-14
1.79155e-14
1.91226e-14
2.02053e-14
2.12996e-14
2.17395e-14
2.26281e-14
2.36451e-14
2.46618e-14
2.53472e-14
2.58735e-14
2.61288e-14
2.69804e-14
2.77833e-14
2.88728e-14
2.96578e-14
2.98924e-14
3.07859e-14
3.11397e-14
3.20157e-14
3.2441e-14
3.27839e-14
3.32897e-14
3.39382e-14
3.4271e-14
3.46796e-14
3.53936e-14
3.58812e-14
3.62568e-14
3.6914e-14
3.70833e-14
3.7629e-14
3.828e-14
3.86491e-14
3.91584e-14
3.9246e-14
3.95545e-14
4.00212e-14
4.02829e-14
4.04105e-14
4.06909e-14
4.10551e-14
4.13901e-14
4.19997e-14
4.20277e-14
4.19533e-14
4.17923e-14
4.19012e-14
4.22008e-14
4.22854e-14
4.24429e-14
4.26826e-14
4.26521e-14
4.26191e-14
4.29429e-14
4.28017e-14
4.28865e-14
4.27028e-14
4.25899e-14
4.19696e-14
4.19239e-14
4.18558e-14
4.15602e-14
4.14454e-14
4.08725e-14
4.08295e-14
4.06154e-14
4.02437e-14
3.98706e-14
3.95249e-14
3.93652e-14
3.89028e-14
3.85851e-14
3.81071e-14
3.74952e-14
3.73095e-14
3.69511e-14
3.6585e-14
3.64893e-14
3.61304e-14
3.59639e-14
3.55741e-14
3.57294e-14
3.54166e-14
3.50214e-14
3.49919e-14
3.44588e-14
3.40359e-14
3.37231e-14
3.32963e-14
3.30189e-14
3.24334e-14
3.17944e-14
3.13047e-14
3.08199e-14
3.07291e-14
3.01786e-14
2.9503e-14
2.87951e-14
2.82044e-14
2.77341e-14
2.72006e-14
2.66464e-14
2.62406e-14
2.58113e-14
2.53533e-14
2.50553e-14
2.44396e-14
2.38157e-14
2.35209e-14
2.30086e-14
2.23548e-14
2.21436e-14
2.17666e-14
2.06831e-14
2.06118e-14
2.03585e-14
1.98883e-14
1.91564e-14
1.8642e-14
1.85705e-14
1.82539e-14
1.80161e-14
1.79649e-14
1.753e-14
1.72978e-14
1.7088e-14
1.67029e-14
1.59979e-14
1.56017e-14
1.56842e-14
1.53061e-14
1.48868e-14
1.45426e-14
1.42335e-14
1.37743e-14
1.36198e-14
1.33694e-14
1.31096e-14
1.28366e-14
1.24706e-14
1.23565e-14
1.23422e-14
1.18088e-14
1.18412e-14
1.17492e-14
1.14236e-14
1.15165e-14
1.18942e-14
1.18955e-14
1.18226e-14
1.12104e-14
1.1372e-14
1.18394e-14
1.18273e-14
1.17711e-14
1.18181e-14
1.17553e-14
1.20106e-14
1.18424e-14
1.17162e-14
1.17364e-14
1.17559e-14
1.18116e-14
1.15446e-14
1.16372e-14
1.19838e-14
1.19449e-14
1.20465e-14
1.224e-14
1.24067e-14
1.26002e-14
1.22056e-14
1.27433e-14
1.27669e-14
1.30377e-14
1.30847e-14
1.33253e-14
1.3299e-14
1.36476e-14
1.38433e-14
1.36736e-14
1.43146e-14
1.45237e-14
1.44975e-14