/*--------------------------------*- C++ -*----------------------------------*\
| =========                 |                                                 |
| \\      /  F ield         | OpenFOAM: The Open Source CFD Toolbox           |
|  \\    /   O peration     | Version:  2112                                  |
|   \\  /    A nd           | Website:  www.openfoam.com                      |
|    \\/     M anipulation  |                                                 |
\*---------------------------------------------------------------------------*/
FoamFile
{
    version     2.0;
    format      ascii;
    arch        "LSB;label=32;scalar=64";
    class       surfaceScalarField;
    location    "5";
    object      phi;
}
// * * * * * * * * * * * * * * * * * * * * * * * * * * * * * * * * * * * * * //

dimensions      [0 3 -1 0 0 0 0];

oriented        oriented;

internalField   nonuniform List<scalar> 
50800
(
4.79947e-05
1.00526e-18
4.79947e-05
2.97385e-19
4.79947e-05
1.53327e-19
4.79947e-05
6.68919e-20
4.79947e-05
7.613e-20
4.79947e-05
7.60065e-20
4.79947e-05
5.71035e-20
4.79947e-05
4.93668e-20
4.79947e-05
3.98095e-20
4.79947e-05
4.3863e-20
4.79947e-05
3.82121e-20
4.79947e-05
-1.27016e-21
4.79947e-05
1.95329e-20
4.79947e-05
1.99663e-20
4.79947e-05
1.46512e-21
4.79947e-05
2.86195e-20
4.79947e-05
1.59013e-20
4.79947e-05
-1.00684e-20
4.79947e-05
-2.64772e-20
4.79947e-05
-3.55521e-20
4.79947e-05
-9.46069e-21
4.79947e-05
-5.44153e-21
4.79947e-05
-2.34124e-20
4.79947e-05
-1.38072e-20
4.79947e-05
-2.7577e-20
4.79947e-05
-2.13546e-20
4.79947e-05
2.00008e-20
4.79947e-05
-1.68146e-20
4.79947e-05
-3.47764e-20
4.79947e-05
-2.13592e-20
4.79947e-05
1.18016e-20
4.79947e-05
4.92875e-20
4.79947e-05
2.48558e-20
4.79947e-05
-3.69647e-21
4.79947e-05
5.56771e-21
4.79947e-05
-5.92678e-21
4.79947e-05
2.93394e-20
4.79947e-05
-3.82376e-22
4.79947e-05
-1.46322e-20
4.79947e-05
4.62984e-20
4.79947e-05
-9.20677e-21
4.79947e-05
9.17285e-21
4.79947e-05
-1.07171e-20
4.79947e-05
-1.55038e-20
4.79947e-05
5.93415e-20
4.79947e-05
1.92156e-20
4.79947e-05
2.57177e-20
4.79947e-05
8.59733e-21
4.79947e-05
2.90681e-21
4.79947e-05
-9.35311e-21
4.79947e-05
-4.7246e-20
4.79947e-05
2.4398e-20
4.79947e-05
-1.25381e-20
4.79947e-05
-1.42606e-20
4.79947e-05
3.8269e-20
4.79947e-05
-3.48807e-20
4.79947e-05
5.61035e-21
4.79947e-05
-2.18683e-21
4.79947e-05
1.42043e-20
4.79947e-05
5.79982e-20
4.79947e-05
-3.95627e-20
4.79947e-05
2.62072e-20
4.79947e-05
1.31236e-20
4.79947e-05
-3.60081e-21
4.79947e-05
5.06752e-20
4.79947e-05
-3.9062e-20
4.79947e-05
-8.74085e-22
4.79947e-05
-6.06842e-21
4.79947e-05
2.0297e-20
4.79947e-05
2.6409e-20
4.79947e-05
-1.77985e-20
4.79947e-05
-1.74426e-20
4.79947e-05
-2.10321e-20
4.79947e-05
-9.81965e-21
4.79947e-05
6.7912e-20
4.79947e-05
-4.17745e-20
4.79947e-05
-8.59596e-20
4.79947e-05
2.8509e-20
4.79947e-05
1.20488e-20
4.79947e-05
4.21091e-20
4.79947e-05
-6.03072e-20
4.79947e-05
-1.08297e-19
4.79947e-05
2.38514e-20
4.79947e-05
4.11157e-20
4.79947e-05
7.07817e-20
4.79947e-05
-6.78098e-21
4.79947e-05
-9.16179e-20
4.79947e-05
-4.89053e-20
4.79947e-05
5.17621e-20
4.79947e-05
9.05942e-20
4.79947e-05
-3.37831e-20
4.79947e-05
-1.00239e-19
4.79947e-05
-2.94164e-21
4.79947e-05
9.43652e-20
4.79947e-05
1.2064e-20
4.79947e-05
-9.57279e-20
4.79947e-05
-9.74403e-21
4.79947e-05
3.75982e-21
4.79947e-05
8.03251e-20
4.79947e-05
3.27039e-20
4.79947e-05
-1.40276e-19
4.79947e-05
4.78383e-21
4.79947e-05
-5.12766e-20
4.79947e-05
3.91044e-20
4.79947e-05
2.19245e-20
4.79947e-05
-4.54218e-20
4.79947e-05
-8.06433e-20
4.79947e-05
2.14782e-20
4.79947e-05
6.3798e-20
4.79947e-05
-4.30433e-21
4.79947e-05
2.4388e-20
4.79947e-05
-1.89068e-19
4.79947e-05
2.04435e-20
4.79947e-05
1.39805e-19
4.79947e-05
2.02033e-20
4.79947e-05
-4.21251e-20
4.79947e-05
-1.05795e-19
4.79947e-05
3.67636e-20
4.79947e-05
1.19835e-19
4.79947e-05
4.60583e-20
4.79947e-05
-2.57359e-20
4.79947e-05
-1.1739e-19
4.79947e-05
7.79779e-21
4.79947e-05
1.71286e-19
4.79947e-05
6.40926e-20
4.79947e-05
-7.05377e-20
4.79947e-05
-1.38912e-19
4.79947e-05
7.06451e-21
4.79947e-05
1.61549e-19
4.79947e-05
1.00236e-20
4.79947e-05
-8.96545e-20
4.79947e-05
-1.03619e-19
4.79947e-05
4.20693e-20
4.79947e-05
1.06234e-19
4.79947e-05
6.93518e-22
4.79947e-05
8.1138e-21
4.79947e-05
-5.69646e-20
4.79947e-05
-2.38287e-21
4.79947e-05
8.46932e-20
4.79947e-05
1.77518e-20
4.79947e-05
-3.24533e-20
4.79947e-05
-8.14862e-20
4.79947e-05
-2.00254e-22
4.79947e-05
4.6724e-20
4.79947e-05
-1.31557e-20
4.79947e-05
2.72013e-21
4.79947e-05
-9.41004e-20
4.79947e-05
-3.00111e-20
4.79947e-05
9.51768e-21
4.79947e-05
5.41393e-20
4.79947e-05
1.00472e-19
4.79947e-05
-1.18022e-19
4.79947e-05
-1.06507e-19
4.79947e-05
7.25175e-20
4.79947e-05
7.87631e-20
4.79947e-05
6.53254e-20
4.79947e-05
-5.65405e-20
4.79947e-05
-7.63769e-20
4.79947e-05
6.13155e-20
4.79947e-05
5.71254e-20
4.79947e-05
1.16627e-19
4.79947e-05
-1.02901e-19
4.79947e-05
-4.82921e-20
4.79947e-05
1.19017e-19
4.79947e-05
-7.44004e-20
4.79947e-05
6.72557e-20
4.79947e-05
-4.37245e-20
4.79947e-05
-1.02922e-19
4.79947e-05
8.19318e-20
4.79947e-05
1.52949e-20
4.79947e-05
5.16781e-20
4.79947e-05
-1.17122e-19
4.79947e-05
-9.13206e-21
4.79947e-05
1.90799e-20
4.79947e-05
-4.76859e-20
4.79947e-05
2.81566e-21
4.79947e-05
-8.26568e-20
4.79947e-05
1.65522e-19
4.79947e-05
-2.45434e-20
4.79947e-05
-8.22059e-20
4.79947e-05
1.49481e-19
4.79947e-05
-1.57345e-19
4.79947e-05
-2.98337e-20
4.79947e-05
2.58568e-20
4.79947e-05
-4.78211e-20
4.79947e-05
1.76306e-19
4.79947e-05
-1.02833e-19
4.79947e-05
-3.3209e-20
4.79947e-05
1.06577e-19
4.79947e-05
-1.52654e-19
4.79947e-05
6.73336e-20
4.79947e-05
-5.81127e-21
4.79947e-05
-8.30292e-20
4.79947e-05
1.80004e-19
4.79947e-05
-3.48188e-20
4.79947e-05
8.24509e-21
4.79947e-05
-7.72011e-20
4.79947e-05
1.73101e-20
4.79947e-05
2.52835e-19
4.79947e-05
-1.56063e-19
4.79947e-05
-2.02716e-20
4.79947e-05
-8.89575e-20
4.79947e-05
1.5138e-20
4.79947e-05
2.68196e-19
4.79947e-05
-9.90731e-20
4.79947e-05
-1.55511e-19
4.79947e-05
-7.64022e-20
4.79947e-05
1.37386e-19
4.79947e-05
1.83855e-19
4.79947e-05
-9.00708e-20
4.79947e-05
-2.03975e-19
4.79947e-05
-1.01336e-19
4.79947e-05
3.18639e-19
4.79947e-05
7.72915e-21
4.79947e-05
-3.12957e-19
4.79947e-05
2.5701e-19
4.79947e-05
6.94764e-20
4.79947e-05
-1.67601e-19
4.79947e-05
-1.23505e-19
4.79947e-05
-1.37833e-19
4.79947e-05
3.10261e-19
4.79947e-05
1.1429e-19
4.79947e-05
-1.71196e-19
4.79947e-05
-1.14487e-19
4.79947e-05
-1.20579e-19
4.79947e-05
3.20498e-19
4.79947e-05
3.04276e-20
4.79947e-05
-1.33443e-19
4.79947e-05
1.30601e-20
4.79947e-05
-1.25096e-19
4.79947e-05
1.81306e-19
4.79947e-05
-1.97574e-20
4.79947e-05
-3.11178e-20
4.79947e-05
7.03631e-20
4.79947e-05
-2.04661e-19
4.79947e-05
7.50201e-20
4.79947e-05
6.5473e-20
4.79947e-05
-2.25706e-21
4.79947e-05
4.82072e-20
4.79947e-05
-1.85878e-19
4.79947e-05
1.37492e-19
4.79947e-05
-3.74081e-20
4.79947e-05
-2.56377e-20
4.79947e-05
1.07874e-19
4.79947e-05
-2.63286e-19
4.79947e-05
-5.95569e-21
4.79947e-05
1.23939e-19
4.79947e-05
1.27885e-19
4.79947e-05
-3.02665e-21
4.79947e-05
-2.25265e-19
4.79947e-05
1.70326e-19
4.79947e-05
4.18337e-20
4.79947e-05
-4.89668e-20
4.79947e-05
-5.04243e-21
4.79947e-05
-2.10457e-19
4.79947e-05
2.06351e-19
4.79947e-05
2.51346e-20
4.79947e-05
-2.90321e-20
4.79947e-05
8.76494e-20
4.79947e-05
-2.18843e-19
4.79947e-05
1.03655e-19
4.79947e-05
4.22404e-20
4.79947e-05
-6.31518e-20
4.79947e-05
1.85793e-20
4.79947e-05
-1.31505e-19
4.79947e-05
1.74731e-19
4.79947e-05
1.39837e-19
4.79947e-05
2.06924e-21
4.79947e-05
-2.60794e-20
4.79947e-05
-1.39749e-19
4.79947e-05
9.83831e-20
4.79947e-05
8.08937e-20
4.79947e-05
2.75988e-20
4.79947e-05
-1.45449e-21
4.79947e-05
-1.37318e-19
4.79947e-05
4.85287e-20
4.79947e-05
2.91669e-20
4.79947e-05
-1.19641e-19
4.79947e-05
7.8661e-20
4.79947e-05
-7.45079e-20
4.79947e-05
5.60576e-21
4.79947e-05
1.01956e-19
4.79947e-05
-4.27661e-20
4.79947e-05
1.26055e-20
4.79947e-05
-1.23783e-19
4.79947e-05
5.90122e-21
4.79947e-05
1.94598e-19
4.79947e-05
5.50069e-20
4.79947e-05
-1.44118e-19
4.79947e-05
-1.17545e-19
4.79947e-05
1.64375e-19
4.79947e-05
1.01508e-19
4.79947e-05
-4.96392e-20
4.79947e-05
-1.50216e-19
4.79947e-05
-4.02337e-21
4.79947e-05
2.10072e-19
4.79947e-05
-3.22072e-20
4.79947e-05
2.22063e-20
4.79947e-05
-1.79284e-19
4.79947e-05
-6.95014e-21
4.79947e-05
2.57057e-19
4.79947e-05
4.32397e-20
4.79947e-05
1.18328e-19
4.79947e-05
-1.37556e-19
4.79947e-05
-1.74616e-19
4.79947e-05
7.51208e-21
4.79947e-05
2.58244e-20
4.79947e-05
1.60316e-19
4.79947e-05
-1.29114e-19
4.79947e-05
-3.86849e-21
4.79947e-05
3.66129e-20
4.79947e-05
-5.7634e-20
4.79947e-05
2.36708e-19
4.79947e-05
-2.99213e-20
4.79947e-05
-5.12916e-20
4.79947e-05
1.33136e-19
4.79947e-05
-1.42613e-20
4.79947e-05
1.46272e-19
4.79947e-05
1.08922e-19
1.96261e-19
0.000141569
4.0937e-19
0.000141569
2.15444e-19
0.000141569
1.40789e-19
0.000141569
1.44326e-19
0.000141569
1.62496e-19
0.000141569
1.59365e-19
0.000141569
1.08263e-19
0.000141569
1.26593e-19
0.000141569
1.1123e-19
0.000141569
1.06742e-19
0.000141569
8.75658e-20
0.000141569
4.89919e-20
0.000141569
6.43054e-20
0.000141569
5.73689e-20
0.000141569
1.12784e-20
0.000141569
4.85152e-20
0.000141569
2.87442e-20
0.000141569
-3.40857e-20
0.000141569
-9.23345e-20
0.000141569
-9.13226e-20
0.000141569
-4.04413e-20
0.000141569
-6.24265e-20
0.000141569
-5.18703e-20
0.000141569
-5.81318e-20
0.000141569
-8.45068e-20
0.000141569
-6.39811e-20
0.000141569
4.41916e-21
0.000141569
-3.78044e-20
0.000141569
-8.13489e-20
0.000141569
-2.25937e-20
0.000141569
4.00406e-20
0.000141569
1.1577e-19
0.000141569
7.52838e-20
0.000141569
1.41226e-22
0.000141569
1.61856e-20
0.000141569
4.8703e-20
0.000141569
8.3272e-20
0.000141569
1.36908e-20
0.000141569
-7.76379e-21
0.000141569
6.03817e-20
0.000141569
3.77537e-22
0.000141569
-5.39369e-21
0.000141569
2.61008e-20
0.000141569
-1.35729e-20
0.000141569
3.80803e-20
0.000141569
7.82943e-20
0.000141569
8.14561e-20
0.000141569
5.09223e-20
0.000141569
2.52575e-20
0.000141569
2.26657e-20
0.000141569
-5.75772e-20
0.000141569
-4.53172e-22
0.000141569
-4.76116e-20
0.000141569
-3.04249e-20
0.000141569
5.44598e-20
0.000141569
-4.5967e-20
0.000141569
8.0146e-21
0.000141569
4.28433e-20
0.000141569
4.4601e-20
0.000141569
8.37702e-20
0.000141569
-6.26631e-20
0.000141569
9.4636e-20
0.000141569
3.80551e-20
0.000141569
1.97497e-20
0.000141569
9.6698e-20
0.000141569
-4.33936e-20
0.000141569
5.40091e-21
0.000141569
9.10761e-22
0.000141569
3.77012e-20
0.000141569
6.20113e-20
0.000141569
-5.27632e-20
0.000141569
-5.08037e-20
0.000141569
-6.75084e-20
0.000141569
-2.19512e-21
0.000141569
1.29551e-19
0.000141569
-7.97107e-20
0.000141569
-1.32028e-19
0.000141569
-4.06726e-21
0.000141569
-2.76994e-20
0.000141569
3.24011e-20
0.000141569
-9.19871e-20
0.000141569
-1.73651e-19
0.000141569
-2.35136e-21
0.000141569
8.64209e-20
0.000141569
8.25939e-20
0.000141569
5.81455e-21
0.000141569
-9.99366e-20
0.000141569
-1.14264e-19
0.000141569
3.27943e-20
0.000141569
1.64813e-19
0.000141569
-3.3528e-20
0.000141569
-1.50639e-19
0.000141569
1.07449e-20
0.000141569
6.67554e-20
0.000141569
-2.21156e-20
0.000141569
-1.27982e-19
0.000141569
-3.12961e-20
0.000141569
-2.25238e-20
0.000141569
4.68671e-20
0.000141569
3.16041e-20
0.000141569
-1.50891e-19
0.000141569
-4.32375e-20
0.000141569
-1.08155e-19
0.000141569
-4.02966e-21
0.000141569
2.07808e-20
0.000141569
-4.12378e-20
0.000141569
-1.62281e-19
0.000141569
-8.36052e-20
0.000141569
1.11887e-19
0.000141569
8.48603e-20
0.000141569
-4.16285e-21
0.000141569
-3.20453e-19
0.000141569
2.11964e-20
0.000141569
2.47336e-19
0.000141569
6.91378e-20
0.000141569
-4.26743e-20
0.000141569
-2.30056e-19
0.000141569
-9.42944e-21
0.000141569
2.9182e-19
0.000141569
1.62741e-19
0.000141569
-7.89856e-20
0.000141569
-2.05107e-19
0.000141569
3.93578e-20
0.000141569
3.25449e-19
0.000141569
1.7237e-19
0.000141569
-1.18508e-19
0.000141569
-2.94512e-19
0.000141569
1.83302e-20
0.000141569
2.57322e-19
0.000141569
2.03908e-20
0.000141569
-1.64205e-19
0.000141569
-2.23163e-19
0.000141569
7.67632e-20
0.000141569
2.56829e-19
0.000141569
5.5344e-20
0.000141569
-3.27846e-21
0.000141569
-1.64835e-19
0.000141569
-3.31702e-20
0.000141569
2.22054e-19
0.000141569
8.3379e-20
0.000141569
-8.54848e-20
0.000141569
-2.24611e-19
0.000141569
-3.29116e-21
0.000141569
9.29661e-20
0.000141569
-3.43972e-20
0.000141569
-1.23162e-19
0.000141569
-2.21802e-19
0.000141569
1.6682e-20
0.000141569
6.30272e-20
0.000141569
6.27524e-20
0.000141569
1.5176e-19
0.000141569
-1.94459e-19
0.000141569
-1.67066e-19
0.000141569
9.05836e-20
0.000141569
1.2503e-19
0.000141569
1.55231e-19
0.000141569
-4.21768e-20
0.000141569
-1.04351e-19
0.000141569
8.9071e-20
0.000141569
1.73446e-19
0.000141569
2.06865e-19
0.000141569
-1.50737e-19
0.000141569
-8.32775e-20
0.000141569
1.99538e-19
0.000141569
-9.58743e-20
0.000141569
3.48393e-20
0.000141569
-8.37036e-20
0.000141569
-1.67727e-19
0.000141569
9.45257e-20
0.000141569
4.99492e-20
0.000141569
-2.56122e-20
0.000141569
-1.55882e-19
0.000141569
-6.84789e-20
0.000141569
4.69734e-20
0.000141569
2.74276e-20
0.000141569
-8.84771e-20
0.000141569
-1.07548e-19
0.000141569
2.15333e-19
0.000141569
-1.36202e-20
0.000141569
1.42824e-20
0.000141569
1.11031e-19
0.000141569
-3.37807e-19
0.000141569
-1.02569e-19
0.000141569
5.82039e-20
0.000141569
-2.9602e-20
0.000141569
2.01326e-19
0.000141569
-1.48458e-19
0.000141569
-6.54517e-20
0.000141569
1.37921e-19
0.000141569
-1.44541e-19
0.000141569
2.45577e-20
0.000141569
-1.52409e-20
0.000141569
-5.70322e-20
0.000141569
2.32996e-19
0.000141569
3.58702e-20
0.000141569
-3.08711e-21
0.000141569
-5.62836e-20
0.000141569
8.76697e-20
0.000141569
2.54462e-19
0.000141569
-1.32994e-19
0.000141569
-7.46162e-20
0.000141569
-1.20488e-19
0.000141569
6.48431e-20
0.000141569
2.8184e-19
0.000141569
-9.31916e-20
0.000141569
-1.80645e-19
0.000141569
-9.8656e-20
0.000141569
1.60742e-19
0.000141569
1.44822e-19
0.000141569
-1.17184e-19
0.000141569
-2.47721e-19
0.000141569
-1.71403e-19
0.000141569
4.58961e-19
0.000141569
4.85888e-20
0.000141569
-4.29457e-19
0.000141569
3.09494e-19
0.000141569
2.83388e-20
0.000141569
-1.7382e-19
0.000141569
-2.26718e-19
0.000141569
-2.87365e-19
0.000141569
4.75664e-19
0.000141569
1.84178e-19
0.000141569
-2.06638e-19
0.000141569
-1.78336e-19
0.000141569
-2.41369e-19
0.000141569
5.1824e-19
0.000141569
8.45018e-20
0.000141569
-2.18141e-19
0.000141569
-2.87013e-20
0.000141569
-1.54087e-19
0.000141569
3.14237e-19
0.000141569
1.21939e-20
0.000141569
-3.75494e-20
0.000141569
5.95447e-20
0.000141569
-3.80397e-19
0.000141569
5.78244e-20
0.000141569
5.38981e-20
0.000141569
1.64748e-19
0.000141569
1.39948e-19
0.000141569
-3.45896e-19
0.000141569
1.11997e-19
0.000141569
-9.92808e-20
0.000141569
-6.96586e-21
0.000141569
1.29584e-19
0.000141569
-5.08737e-19
0.000141569
4.82896e-20
0.000141569
2.45295e-19
0.000141569
2.23382e-19
0.000141569
6.70819e-21
0.000141569
-3.77128e-19
0.000141569
3.44524e-19
0.000141569
9.01836e-20
0.000141569
-1.55887e-19
0.000141569
-1.44927e-19
0.000141569
-3.50616e-19
0.000141569
4.84729e-19
0.000141569
6.22843e-20
0.000141569
-7.22777e-20
0.000141569
8.28744e-20
0.000141569
-3.85175e-19
0.000141569
1.63273e-19
0.000141569
7.19302e-20
0.000141569
-6.40199e-20
0.000141569
1.47248e-20
0.000141569
-1.38363e-19
0.000141569
3.98176e-19
0.000141569
2.29808e-19
0.000141569
9.35532e-20
0.000141569
2.71996e-20
0.000141569
-2.84806e-19
0.000141569
1.95793e-19
0.000141569
1.60333e-19
0.000141569
1.61269e-19
0.000141569
-3.17127e-20
0.000141569
-3.60296e-19
0.000141569
1.23507e-19
0.000141569
-2.32674e-20
0.000141569
-1.39994e-19
0.000141569
5.16935e-20
0.000141569
-2.85937e-19
0.000141569
9.21476e-20
0.000141569
1.3022e-19
0.000141569
4.66355e-20
0.000141569
3.18096e-20
0.000141569
-2.92266e-19
0.000141569
1.66297e-19
0.000141569
3.23743e-19
0.000141569
6.22879e-20
0.000141569
-2.19755e-19
0.000141569
-1.99849e-19
0.000141569
3.33225e-19
0.000141569
1.55062e-19
0.000141569
-1.4679e-19
0.000141569
-8.78661e-20
0.000141569
-2.14702e-20
0.000141569
2.70306e-19
0.000141569
1.15785e-19
0.000141569
-1.38682e-19
0.000141569
-1.76225e-19
0.000141569
-4.93131e-20
0.000141569
4.11715e-19
0.000141569
2.97486e-19
0.000141569
1.50117e-19
0.000141569
-2.76762e-19
0.000141569
-3.6018e-19
0.000141569
9.0193e-20
0.000141569
8.28555e-20
0.000141569
1.24841e-19
0.000141569
-2.27484e-19
0.000141569
1.02973e-20
0.000141569
1.49209e-19
0.000141569
-3.61595e-20
0.000141569
3.28337e-19
0.000141569
9.82654e-21
0.000141569
-1.10681e-19
0.000141569
1.04373e-19
0.000141569
-4.6438e-20
0.000141569
2.49237e-19
0.000141569
9.603e-20
1.1227e-20
0.000232702
1.72649e-19
0.000232702
1.45997e-19
0.000232702
1.1697e-19
0.000232702
1.6534e-19
0.000232702
1.67264e-19
0.000232702
1.86246e-19
0.000232702
2.15292e-19
0.000232702
2.22532e-19
0.000232702
1.66769e-19
0.000232702
1.64859e-19
0.000232702
1.9486e-19
0.000232702
1.29303e-19
0.000232702
1.31415e-19
0.000232702
6.84748e-20
0.000232702
-3.16527e-20
0.000232702
4.89893e-21
0.000232702
-1.75195e-20
0.000232702
-4.31016e-20
0.000232702
-7.74357e-20
0.000232702
-1.00309e-19
0.000232702
-7.50959e-20
0.000232702
-1.36995e-19
0.000232702
-1.49238e-19
0.000232702
-1.03892e-19
0.000232702
-1.22994e-19
0.000232702
-1.04452e-19
0.000232702
-2.61094e-21
0.000232702
-5.35898e-20
0.000232702
-8.20422e-20
0.000232702
-4.26705e-20
0.000232702
1.16781e-19
0.000232702
2.21422e-19
0.000232702
1.35132e-19
0.000232702
1.81932e-20
0.000232702
-1.98132e-20
0.000232702
1.77838e-20
0.000232702
1.14045e-19
0.000232702
7.63995e-20
0.000232702
6.39418e-21
0.000232702
6.32469e-20
0.000232702
6.40057e-20
0.000232702
5.08224e-20
0.000232702
2.6719e-20
0.000232702
1.62956e-20
0.000232702
6.88467e-20
0.000232702
1.25784e-19
0.000232702
9.90401e-20
0.000232702
6.31085e-20
0.000232702
6.94445e-20
0.000232702
1.56195e-20
0.000232702
-4.54861e-20
0.000232702
-4.15748e-21
0.000232702
-4.40685e-20
0.000232702
-2.95507e-20
0.000232702
3.11891e-20
0.000232702
-3.91981e-20
0.000232702
2.53009e-21
0.000232702
4.69564e-20
0.000232702
3.16979e-20
0.000232702
1.16223e-19
0.000232702
-5.78261e-21
0.000232702
1.96935e-19
0.000232702
1.0115e-19
0.000232702
2.34907e-21
0.000232702
1.20585e-19
0.000232702
-6.89786e-20
0.000232702
2.72852e-20
0.000232702
7.80685e-20
0.000232702
9.18601e-20
0.000232702
7.71798e-20
0.000232702
-1.19363e-19
0.000232702
-7.82112e-20
0.000232702
-1.02518e-19
0.000232702
3.46673e-20
0.000232702
1.32559e-19
0.000232702
-1.17159e-19
0.000232702
-1.5699e-19
0.000232702
-1.90346e-20
0.000232702
-4.99238e-20
0.000232702
1.37481e-20
0.000232702
-1.50369e-19
0.000232702
-2.07593e-19
0.000232702
2.51028e-20
0.000232702
7.19451e-20
0.000232702
9.54365e-21
0.000232702
-1.2686e-19
0.000232702
-1.05516e-19
0.000232702
-7.9404e-20
0.000232702
-2.87061e-20
0.000232702
1.44725e-19
0.000232702
-3.01704e-20
0.000232702
-8.41208e-20
0.000232702
2.814e-20
0.000232702
5.05065e-20
0.000232702
-2.57215e-20
0.000232702
-1.42145e-19
0.000232702
-6.75674e-20
0.000232702
-2.25143e-20
0.000232702
-4.90058e-20
0.000232702
-2.51618e-20
0.000232702
-1.16533e-19
0.000232702
-1.35487e-19
0.000232702
-1.95026e-19
0.000232702
-1.20462e-19
0.000232702
-1.58129e-20
0.000232702
-4.38956e-20
0.000232702
-2.58456e-19
0.000232702
-2.14954e-19
0.000232702
1.14494e-19
0.000232702
1.67093e-19
0.000232702
-3.42742e-20
0.000232702
-3.48423e-19
0.000232702
-3.1613e-21
0.000232702
2.73595e-19
0.000232702
1.56494e-19
0.000232702
2.2825e-20
0.000232702
-2.88949e-19
0.000232702
-7.70318e-20
0.000232702
4.04355e-19
0.000232702
3.3508e-19
0.000232702
-1.24271e-19
0.000232702
-3.08893e-19
0.000232702
1.0637e-19
0.000232702
4.86766e-19
0.000232702
2.72855e-19
0.000232702
-1.36279e-19
0.000232702
-4.63441e-19
0.000232702
-6.03209e-20
0.000232702
3.56914e-19
0.000232702
7.27614e-20
0.000232702
-1.70016e-19
0.000232702
-2.32795e-19
0.000232702
4.98707e-20
0.000232702
3.70848e-19
0.000232702
1.77222e-19
0.000232702
-5.06216e-20
0.000232702
-2.09099e-19
0.000232702
-7.09806e-20
0.000232702
3.38641e-19
0.000232702
1.55946e-19
0.000232702
-1.77912e-19
0.000232702
-3.62515e-19
0.000232702
-5.1545e-20
0.000232702
7.66536e-20
0.000232702
-6.2215e-20
0.000232702
-1.81417e-19
0.000232702
-3.13061e-19
0.000232702
4.86524e-20
0.000232702
1.00541e-19
0.000232702
3.64849e-20
0.000232702
1.38121e-19
0.000232702
-1.88258e-19
0.000232702
-1.46418e-19
0.000232702
7.54799e-20
0.000232702
1.37308e-19
0.000232702
1.73712e-19
0.000232702
-1.85171e-20
0.000232702
-5.30232e-20
0.000232702
2.10872e-19
0.000232702
2.53493e-19
0.000232702
2.29807e-19
0.000232702
-1.75559e-19
0.000232702
-2.00453e-20
0.000232702
2.72568e-19
0.000232702
-8.14206e-20
0.000232702
-6.71953e-20
0.000232702
-8.09809e-20
0.000232702
-1.2142e-19
0.000232702
2.11333e-20
0.000232702
1.05191e-20
0.000232702
-9.02109e-20
0.000232702
-2.44367e-19
0.000232702
-9.22841e-20
0.000232702
1.52788e-19
0.000232702
7.80899e-20
0.000232702
-1.9939e-19
0.000232702
-1.75087e-19
0.000232702
8.19903e-20
0.000232702
4.90448e-20
0.000232702
1.51759e-19
0.000232702
-8.00441e-21
0.000232702
-4.64046e-19
0.000232702
-1.60343e-19
0.000232702
1.27927e-19
0.000232702
-4.46387e-21
0.000232702
8.27742e-20
0.000232702
-1.52388e-19
0.000232702
-6.84664e-20
0.000232702
1.1188e-19
0.000232702
-8.42331e-20
0.000232702
-3.52367e-20
0.000232702
1.41205e-20
0.000232702
5.71503e-21
0.000232702
1.94276e-19
0.000232702
1.22587e-19
0.000232702
1.13414e-20
0.000232702
-5.5554e-21
0.000232702
8.58022e-20
0.000232702
2.02951e-19
0.000232702
1.5603e-20
0.000232702
-7.81048e-20
0.000232702
-1.39683e-19
0.000232702
1.09297e-19
0.000232702
2.20921e-19
0.000232702
-3.09166e-20
0.000232702
-1.7312e-19
0.000232702
-1.77197e-19
0.000232702
1.07402e-19
0.000232702
7.20137e-20
0.000232702
-1.10404e-19
0.000232702
-1.91885e-19
0.000232702
-2.76968e-19
0.000232702
4.30144e-19
0.000232702
8.74222e-20
0.000232702
-3.51096e-19
0.000232702
2.20562e-19
0.000232702
-9.64571e-20
0.000232702
-6.46063e-20
0.000232702
-2.35543e-19
0.000232702
-3.95974e-19
0.000232702
5.23901e-19
0.000232702
1.899e-19
0.000232702
-4.81636e-20
0.000232702
-1.28761e-19
0.000232702
-3.1447e-19
0.000232702
5.16125e-19
0.000232702
1.22683e-19
0.000232702
-3.4192e-19
0.000232702
-9.2964e-20
0.000232702
-1.20125e-19
0.000232702
4.65571e-19
0.000232702
1.01709e-19
0.000232702
-3.03397e-20
0.000232702
8.36508e-21
0.000232702
-4.93152e-19
0.000232702
-8.54135e-20
0.000232702
3.58314e-20
0.000232702
3.90017e-19
0.000232702
2.45007e-19
0.000232702
-4.52549e-19
0.000232702
5.6691e-20
0.000232702
-2.49077e-19
0.000232702
-2.8036e-20
0.000232702
1.03142e-19
0.000232702
-6.44076e-19
0.000232702
1.05296e-19
0.000232702
2.25389e-19
0.000232702
2.188e-19
0.000232702
6.31153e-20
0.000232702
-4.18571e-19
0.000232702
4.74154e-19
0.000232702
1.28764e-19
0.000232702
-2.88903e-19
0.000232702
-3.27588e-19
0.000232702
-3.67472e-19
0.000232702
7.17086e-19
0.000232702
9.29667e-20
0.000232702
-7.90081e-20
0.000232702
1.02716e-19
0.000232702
-4.53916e-19
0.000232702
1.27854e-19
0.000232702
-4.00389e-20
0.000232702
-5.65163e-21
0.000232702
1.77406e-20
0.000232702
-1.46347e-19
0.000232702
6.37032e-19
0.000232702
2.86257e-19
0.000232702
2.29997e-19
0.000232702
1.34464e-19
0.000232702
-3.37731e-19
0.000232702
3.50748e-19
0.000232702
1.66268e-19
0.000232702
2.03064e-19
0.000232702
1.75539e-20
0.000232702
-5.73246e-19
0.000232702
1.70941e-19
0.000232702
-1.10691e-19
0.000232702
-1.07475e-19
0.000232702
1.06013e-19
0.000232702
-5.29455e-19
0.000232702
2.03351e-19
0.000232702
5.80895e-20
0.000232702
7.36859e-20
0.000232702
1.0706e-19
0.000232702
-4.99099e-19
0.000232702
3.56996e-19
0.000232702
4.17381e-19
0.000232702
-1.75685e-20
0.000232702
-1.62871e-19
0.000232702
-2.14561e-19
0.000232702
5.27816e-19
0.000232702
2.52686e-19
0.000232702
-1.73253e-19
0.000232702
-2.48202e-20
0.000232702
-1.66228e-19
0.000232702
3.6441e-19
0.000232702
2.64867e-19
0.000232702
-1.9288e-19
0.000232702
-1.38717e-19
0.000232702
-8.70012e-20
0.000232702
5.25721e-19
0.000232702
4.72558e-19
0.000232702
6.65345e-20
0.000232702
-3.61232e-19
0.000232702
-4.56267e-19
0.000232702
2.03633e-19
0.000232702
6.37896e-20
0.000232702
2.59522e-20
0.000232702
-2.04361e-19
0.000232702
-2.88909e-20
0.000232702
2.98146e-19
0.000232702
2.01916e-20
0.000232702
2.19229e-19
0.000232702
1.52084e-19
0.000232702
-2.01758e-19
0.000232702
-2.30197e-20
0.000232702
-3.83549e-20
0.000232702
3.04439e-19
0.000232702
1.06151e-19
-1.7658e-19
0.000321366
1.22788e-19
0.000321366
1.02066e-19
0.000321366
1.34789e-19
0.000321366
1.82732e-19
0.000321366
2.24044e-19
0.000321366
2.475e-19
0.000321366
2.69141e-19
0.000321366
2.57368e-19
0.000321366
2.14431e-19
0.000321366
2.03052e-19
0.000321366
2.08614e-19
0.000321366
1.80861e-19
0.000321366
8.42141e-20
0.000321366
7.44826e-20
0.000321366
-1.50976e-20
0.000321366
-3.92685e-20
0.000321366
-3.96031e-20
0.000321366
-5.64127e-20
0.000321366
-1.05446e-19
0.000321366
-1.28102e-19
0.000321366
-1.31116e-19
0.000321366
-1.57076e-19
0.000321366
-1.98936e-19
0.000321366
-2.23017e-19
0.000321366
-1.99736e-19
0.000321366
-6.331e-20
0.000321366
-1.16477e-20
0.000321366
-8.48728e-20
0.000321366
-8.74984e-20
0.000321366
-1.56626e-20
0.000321366
1.42351e-19
0.000321366
2.84728e-19
0.000321366
1.50562e-19
0.000321366
3.80215e-20
0.000321366
1.20067e-20
0.000321366
1.55669e-20
0.000321366
1.23742e-19
0.000321366
1.01149e-19
0.000321366
-6.8046e-21
0.000321366
1.02806e-19
0.000321366
1.17698e-19
0.000321366
6.06854e-20
0.000321366
8.03326e-20
0.000321366
-1.99158e-20
0.000321366
8.9422e-20
0.000321366
1.67469e-19
0.000321366
2.02194e-19
0.000321366
1.71309e-19
0.000321366
6.70404e-20
0.000321366
1.86493e-21
0.000321366
-5.59301e-20
0.000321366
-1.51826e-20
0.000321366
3.78155e-20
0.000321366
2.62625e-21
0.000321366
1.69448e-20
0.000321366
-9.8717e-20
0.000321366
-1.03951e-20
0.000321366
5.60969e-20
0.000321366
1.01358e-19
0.000321366
1.11655e-19
0.000321366
-7.13204e-20
0.000321366
1.83923e-19
0.000321366
1.43891e-19
0.000321366
1.24006e-19
0.000321366
1.08129e-19
0.000321366
-3.98043e-20
0.000321366
1.44115e-19
0.000321366
1.02263e-19
0.000321366
1.03226e-19
0.000321366
1.20267e-19
0.000321366
-7.68476e-20
0.000321366
-1.27759e-19
0.000321366
-1.31976e-19
0.000321366
-3.00857e-20
0.000321366
9.99044e-20
0.000321366
-1.78415e-19
0.000321366
-1.48013e-19
0.000321366
-3.53611e-20
0.000321366
-7.69064e-20
0.000321366
2.16255e-20
0.000321366
-5.44838e-20
0.000321366
-2.04837e-19
0.000321366
-1.90312e-20
0.000321366
2.06733e-20
0.000321366
-7.3979e-20
0.000321366
-1.75704e-19
0.000321366
-1.14688e-19
0.000321366
-7.57177e-20
0.000321366
-5.30654e-20
0.000321366
1.12664e-19
0.000321366
-4.98011e-20
0.000321366
-9.00152e-20
0.000321366
1.38831e-20
0.000321366
6.77135e-20
0.000321366
6.40681e-20
0.000321366
-1.00409e-19
0.000321366
-1.26434e-19
0.000321366
-1.60391e-19
0.000321366
-1.42009e-19
0.000321366
-6.31077e-20
0.000321366
-1.475e-19
0.000321366
-2.5167e-19
0.000321366
-3.17021e-19
0.000321366
-2.76345e-19
0.000321366
-9.31745e-20
0.000321366
-7.84221e-20
0.000321366
-2.73071e-19
0.000321366
-2.57335e-19
0.000321366
1.12657e-19
0.000321366
1.82544e-19
0.000321366
-4.54147e-20
0.000321366
-4.03364e-19
0.000321366
-5.30219e-20
0.000321366
2.6606e-19
0.000321366
2.21256e-19
0.000321366
-2.82146e-21
0.000321366
-2.73911e-19
0.000321366
-3.60557e-20
0.000321366
5.19655e-19
0.000321366
3.08347e-19
0.000321366
-1.93159e-19
0.000321366
-3.14924e-19
0.000321366
7.17692e-20
0.000321366
5.86766e-19
0.000321366
4.49436e-19
0.000321366
-1.35483e-19
0.000321366
-5.08831e-19
0.000321366
-2.56332e-20
0.000321366
3.7762e-19
0.000321366
2.79269e-20
0.000321366
-2.04883e-19
0.000321366
-2.13097e-19
0.000321366
6.67993e-20
0.000321366
3.99312e-19
0.000321366
2.26135e-19
0.000321366
-4.45828e-20
0.000321366
-3.21408e-19
0.000321366
-1.20496e-19
0.000321366
3.95159e-19
0.000321366
1.96956e-19
0.000321366
-1.59824e-19
0.000321366
-3.97149e-19
0.000321366
-7.36182e-20
0.000321366
5.90129e-20
0.000321366
-1.82425e-19
0.000321366
-2.13823e-19
0.000321366
-3.1901e-19
0.000321366
1.22232e-20
0.000321366
9.13518e-20
0.000321366
2.34056e-20
0.000321366
1.13772e-19
0.000321366
-1.68693e-19
0.000321366
-1.37101e-19
0.000321366
8.97757e-20
0.000321366
2.09036e-19
0.000321366
2.24415e-19
0.000321366
-1.11073e-21
0.000321366
-1.19886e-20
0.000321366
1.65608e-19
0.000321366
2.98226e-19
0.000321366
2.8056e-19
0.000321366
-1.64437e-19
0.000321366
4.97292e-22
0.000321366
2.65159e-19
0.000321366
-1.35289e-19
0.000321366
-4.21566e-20
0.000321366
-1.07206e-19
0.000321366
-4.60424e-20
0.000321366
4.19884e-20
0.000321366
-2.57297e-20
0.000321366
-1.38201e-19
0.000321366
-4.33651e-19
0.000321366
-1.2371e-19
0.000321366
2.78758e-19
0.000321366
-8.52023e-20
0.000321366
-2.34137e-19
0.000321366
-1.59354e-19
0.000321366
3.25731e-21
0.000321366
-2.55469e-21
0.000321366
1.81558e-19
0.000321366
-8.2093e-21
0.000321366
-5.80321e-19
0.000321366
-2.36641e-19
0.000321366
5.63688e-20
0.000321366
3.39381e-20
0.000321366
5.11047e-21
0.000321366
-2.22793e-19
0.000321366
-7.22086e-20
0.000321366
1.70217e-19
0.000321366
-4.24281e-20
0.000321366
-2.85383e-20
0.000321366
2.40641e-20
0.000321366
1.39748e-20
0.000321366
2.08317e-19
0.000321366
2.08607e-19
0.000321366
7.35893e-20
0.000321366
2.56149e-20
0.000321366
2.01191e-20
0.000321366
1.96388e-19
0.000321366
7.8635e-20
0.000321366
-8.07025e-20
0.000321366
-1.28971e-19
0.000321366
5.65693e-20
0.000321366
1.86677e-19
0.000321366
-1.52003e-20
0.000321366
-1.31984e-19
0.000321366
-2.22066e-19
0.000321366
-7.38401e-21
0.000321366
3.54234e-20
0.000321366
-5.46643e-20
0.000321366
-1.2263e-19
0.000321366
-3.18649e-19
0.000321366
3.42857e-19
0.000321366
9.70182e-20
0.000321366
-2.98317e-19
0.000321366
2.21464e-19
0.000321366
-7.786e-20
0.000321366
-2.6484e-21
0.000321366
-2.11144e-19
0.000321366
-4.0895e-19
0.000321366
5.07387e-19
0.000321366
2.08668e-19
0.000321366
7.39418e-20
0.000321366
-4.97622e-20
0.000321366
-4.28802e-19
0.000321366
4.68553e-19
0.000321366
1.08051e-19
0.000321366
-3.18529e-19
0.000321366
-8.83891e-20
0.000321366
-1.13073e-19
0.000321366
5.21991e-19
0.000321366
1.99815e-19
0.000321366
-8.59056e-20
0.000321366