/*--------------------------------*- C++ -*----------------------------------*\
| =========                 |                                                 |
| \\      /  F ield         | OpenFOAM: The Open Source CFD Toolbox           |
|  \\    /   O peration     | Version:  2112                                  |
|   \\  /    A nd           | Website:  www.openfoam.com                      |
|    \\/     M anipulation  |                                                 |
\*---------------------------------------------------------------------------*/
FoamFile
{
    version     2.0;
    format      ascii;
    arch        "LSB;label=32;scalar=64";
    class       volVectorField;
    location    "5";
    object      U;
}
// * * * * * * * * * * * * * * * * * * * * * * * * * * * * * * * * * * * * * //

dimensions      [0 1 -1 0 0 0 0];

internalField   nonuniform List<vector> 
25600
(
(0.0383958 4.38165e-16 0)
(0.0383958 1.17278e-16 0)
(0.0383958 5.08623e-17 0)
(0.0383958 2.46068e-17 0)
(0.0383958 2.10089e-17 0)
(0.0383958 2.06369e-17 0)
(0.0383958 1.0271e-17 0)
(0.0383958 1.00031e-17 0)
(0.0383958 4.43399e-18 0)
(0.0383958 9.11618e-18 0)
(0.0383958 1.5431e-17 0)
(0.0383958 -9.9382e-18 0)
(0.0383958 8.13612e-18 0)
(0.0383958 4.13472e-18 0)
(0.0383958 -7.78938e-18 0)
(0.0383958 2.1353e-17 0)
(0.0383958 5.86443e-18 0)
(0.0383958 -9.0199e-18 0)
(0.0383958 -8.31646e-18 0)
(0.0383958 -9.57678e-18 0)
(0.0383958 3.76989e-18 0)
(0.0383958 6.55749e-18 0)
(0.0383958 -2.39421e-18 0)
(0.0383958 -7.82837e-18 0)
(0.0383958 -1.88033e-17 0)
(0.0383958 -3.12633e-18 0)
(0.0383958 3.03738e-17 0)
(0.0383958 -2.83095e-18 0)
(0.0383958 -2.84298e-17 0)
(0.0383958 -9.57684e-18 0)
(0.0383958 1.14983e-17 0)
(0.0383958 1.85357e-17 0)
(0.0383958 3.07006e-18 0)
(0.0383958 -1.0288e-17 0)
(0.0383958 9.90819e-19 0)
(0.0383958 -4.08548e-18 0)
(0.0383958 3.28246e-18 0)
(0.0383958 -5.9352e-18 0)
(0.0383958 -4.91193e-18 0)
(0.0383958 1.41536e-17 0)
(0.0383958 -6.80332e-20 0)
(0.0383958 1.4814e-17 0)
(0.0383958 -1.85071e-17 0)
(0.0383958 -1.96205e-17 0)
(0.0383958 3.949e-17 0)
(0.0383958 -6.60149e-18 0)
(0.0383958 7.66802e-18 0)
(0.0383958 2.70324e-18 0)
(0.0383958 -2.71205e-18 0)
(0.0383958 -6.11553e-18 0)
(0.0383958 -3.82866e-17 0)
(0.0383958 3.06676e-17 0)
(0.0383958 1.22718e-18 0)
(0.0383958 -1.13842e-18 0)
(0.0383958 3.55687e-17 0)
(0.0383958 -3.59863e-17 0)
(0.0383958 -2.22778e-18 0)
(0.0383958 -1.72535e-17 0)
(0.0383958 6.41183e-18 0)
(0.0383958 5.78425e-17 0)
(0.0383958 -3.58356e-17 0)
(0.0383958 -1.97069e-18 0)
(0.0383958 2.04443e-18 0)
(0.0383958 2.06587e-20 0)
(0.0383958 2.43613e-17 0)
(0.0383958 -2.35138e-17 0)
(0.0383958 -4.41579e-18 0)
(0.0383958 -1.96114e-17 0)
(0.0383958 1.82279e-17 0)
(0.0383958 8.15338e-18 0)
(0.0383958 -5.97344e-18 0)
(0.0383958 -3.8598e-18 0)
(0.0383958 -5.07626e-18 0)
(0.0383958 -1.36224e-18 0)
(0.0383958 1.41873e-17 0)
(0.0383958 -5.13044e-18 0)
(0.0383958 -3.08544e-17 0)
(0.0383958 1.58725e-17 0)
(0.0383958 5.06067e-18 0)
(0.0383958 3.51752e-17 0)
(0.0383958 -4.57553e-17 0)
(0.0383958 -5.09869e-17 0)
(0.0383958 3.62093e-17 0)
(0.0383958 1.4104e-17 0)
(0.0383958 4.93355e-17 0)
(0.0383958 -4.34272e-18 0)
(0.0383958 -7.84947e-17 0)
(0.0383958 -1.22273e-17 0)
(0.0383958 3.93824e-17 0)
(0.0383958 4.92643e-17 0)
(0.0383958 -1.00204e-17 0)
(0.0383958 -8.04029e-17 0)
(0.0383958 -2.98642e-18 0)
(0.0383958 8.16855e-17 0)
(0.0383958 5.75343e-18 0)
(0.0383958 -7.93026e-17 0)
(0.0383958 -2.35419e-18 0)
(0.0383958 7.53887e-18 0)
(0.0383958 7.76493e-17 0)
(0.0383958 3.12171e-17 0)
(0.0383958 -1.16719e-16 0)
(0.0383958 -7.4997e-18 0)
(0.0383958 -2.60241e-18 0)
(0.0383958 7.16219e-17 0)
(0.0383958 8.57033e-18 0)
(0.0383958 -3.91497e-17 0)
(0.0383958 -4.542e-17 0)
(0.0383958 3.35303e-17 0)
(0.0383958 4.4774e-17 0)
(0.0383958 -2.14264e-17 0)
(0.0383958 2.26918e-17 0)
(0.0383958 -1.27494e-16 0)
(0.0383958 3.06564e-17 0)
(0.0383958 8.58085e-17 0)
(0.0383958 7.64357e-18 0)
(0.0383958 -4.15189e-17 0)
(0.0383958 -8.04185e-17 0)
(0.0383958 6.40548e-17 0)
(0.0383958 6.22749e-17 0)
(0.0383958 1.9197e-17 0)
(0.0383958 -1.17118e-17 0)
(0.0383958 -8.72268e-17 0)
(0.0383958 -1.65236e-18 0)
(0.0383958 8.97179e-17 0)
(0.0383958 1.68119e-17 0)
(0.0383958 -4.78813e-17 0)
(0.0383958 -5.95946e-17 0)
(0.0383958 7.03741e-18 0)
(0.0383958 9.40882e-17 0)
(0.0383958 2.79027e-18 0)
(0.0383958 -5.24535e-17 0)
(0.0383958 -4.93568e-17 0)
(0.0383958 3.72887e-17 0)
(0.0383958 4.99192e-17 0)
(0.0383958 -3.13252e-17 0)
(0.0383958 -3.2725e-17 0)
(0.0383958 -5.91591e-18 0)
(0.0383958 6.54585e-17 0)
(0.0383958 2.26064e-17 0)
(0.0383958 -3.4336e-17 0)
(0.0383958 -4.80259e-17 0)
(0.0383958 -1.23294e-17 0)
(0.0383958 6.79357e-17 0)
(0.0383958 1.41252e-17 0)
(0.0383958 -6.30809e-17 0)
(0.0383958 6.04834e-17 0)
(0.0383958 -1.68992e-17 0)
(0.0383958 -6.75892e-17 0)
(0.0383958 -7.00899e-18 0)
(0.0383958 1.3809e-17 0)
(0.0383958 8.30007e-17 0)
(0.0383958 -1.22027e-17 0)
(0.0383958 -7.68955e-17 0)
(0.0383958 1.1207e-17 0)
(0.0383958 4.66432e-17 0)
(0.0383958 3.84956e-17 0)
(0.0383958 -4.24262e-17 0)
(0.0383958 -4.88238e-17 0)
(0.0383958 3.76117e-17 0)
(0.0383958 2.05844e-17 0)
(0.0383958 7.86865e-17 0)
(0.0383958 -8.19477e-17 0)
(0.0383958 -7.63865e-17 0)
(0.0383958 8.44816e-17 0)
(0.0383958 8.83705e-18 0)
(0.0383958 7.73738e-17 0)
(0.0383958 -5.97093e-17 0)
(0.0383958 -2.42454e-17 0)
(0.0383958 -5.7283e-19 0)
(0.0383958 -5.86454e-17 0)
(0.0383958 1.26857e-16 0)
(0.0383958 -6.85861e-17 0)
(0.0383958 -4.38567e-18 0)
(0.0383958 1.88053e-18 0)
(0.0383958 -5.00606e-17 0)
(0.0383958 1.14279e-16 0)
(0.0383958 -7.6274e-17 0)
(0.0383958 8.80796e-18 0)
(0.0383958 -1.10579e-17 0)
(0.0383958 -5.58739e-17 0)
(0.0383958 1.46041e-16 0)
(0.0383958 -7.96415e-17 0)
(0.0383958 -9.02595e-18 0)
(0.0383958 3.26626e-18 0)
(0.0383958 -5.63064e-17 0)
(0.0383958 1.45059e-16 0)
(0.0383958 -6.97152e-17 0)
(0.0383958 -7.12444e-18 0)
(0.0383958 7.51995e-17 0)
(0.0383958 -1.40442e-16 0)
(0.0383958 6.41922e-17 0)
(0.0383958 -1.35622e-18 0)
(0.0383958 -7.09952e-17 0)
(0.0383958 1.44206e-16 0)
(0.0383958 -5.23286e-17 0)
(0.0383958 -7.5435e-18 0)
(0.0383958 -7.45021e-17 0)
(0.0383958 1.33582e-17 0)
(0.0383958 2.13828e-16 0)
(0.0383958 -1.35711e-16 0)
(0.0383958 -1.72408e-17 0)
(0.0383958 -7.63393e-17 0)
(0.0383958 1.21022e-17 0)
(0.0383958 2.20025e-16 0)
(0.0383958 -1.30251e-16 0)
(0.0383958 -9.60207e-17 0)
(0.0383958 -1.05916e-17 0)
(0.0383958 9.76302e-17 0)
(0.0383958 1.57492e-16 0)
(0.0383958 -7.63478e-17 0)
(0.0383958 -1.72413e-16 0)
(0.0383958 -7.65195e-17 0)
(0.0383958 2.40454e-16 0)
(0.0383958 1.27517e-18 0)
(0.0383958 -2.35426e-16 0)
(0.0383958 2.18979e-16 0)
(0.0383958 8.00839e-17 0)
(0.0383958 -1.51034e-16 0)
(0.0383958 -9.39775e-17 0)
(0.0383958 -8.01617e-17 0)
(0.0383958 2.3882e-16 0)
(0.0383958 8.60527e-17 0)
(0.0383958 -1.50482e-16 0)
(0.0383958 -9.75305e-17 0)
(0.0383958 -7.75316e-17 0)
(0.0383958 2.37164e-16 0)
(0.0383958 1.4022e-17 0)
(0.0383958 -9.12992e-17 0)
(0.0383958 -1.82775e-17 0)
(0.0383958 -1.29638e-16 0)
(0.0383958 2.21581e-16 0)
(0.0383958 6.5073e-18 0)
(0.0383958 -1.33303e-16 0)
(0.0383958 5.39328e-17 0)
(0.0383958 -7.95869e-17 0)
(0.0383958 1.32299e-16 0)
(0.0383958 2.00114e-17 0)
(0.0383958 -5.8696e-17 0)
(0.0383958 -5.71179e-18 0)
(0.0383958 -1.4551e-16 0)
(0.0383958 2.09001e-16 0)
(0.0383958 7.08764e-18 0)
(0.0383958 -6.36342e-17 0)
(0.0383958 6.56755e-17 0)
(0.0383958 -1.70175e-16 0)
(0.0383958 -2.18683e-18 0)
(0.0383958 8.91026e-17 0)
(0.0383958 8.91591e-17 0)
(0.0383958 -4.43278e-18 0)
(0.0383958 -1.65015e-16 0)
(0.0383958 8.41814e-17 0)
(0.0383958 1.74662e-17 0)
(0.0383958 -9.36422e-19 0)
(0.0383958 4.99765e-17 0)
(0.0383958 -1.54024e-16 0)
(0.0383958 9.46896e-17 0)
(0.0383958 8.70575e-18 0)
(0.0383958 -1.30209e-18 0)
(0.0383958 7.16364e-17 0)
(0.0383958 -1.57842e-16 0)
(0.0383958 6.61525e-17 0)
(0.0383958 8.24952e-18 0)
(0.0383958 -3.56561e-18 0)
(0.0383958 5.97864e-17 0)
(0.0383958 -1.4051e-16 0)
(0.0383958 8.66347e-17 0)
(0.0383958 8.18572e-17 0)
(0.0383958 -5.69005e-17 0)
(0.0383958 -1.08001e-17 0)
(0.0383958 -8.66578e-17 0)
(0.0383958 7.82552e-17 0)
(0.0383958 7.05321e-17 0)
(0.0383958 -1.07332e-16 0)
(0.0383958 5.60819e-17 0)
(0.0383958 -1.92739e-17 0)
(0.0383958 1.82699e-17 0)
(0.0383958 5.69504e-17 0)
(0.0383958 -1.36051e-16 0)
(0.0383958 6.42459e-17 0)
(0.0383958 -1.77752e-17 0)
(0.0383958 4.18861e-18 0)
(0.0383958 6.47319e-17 0)
(0.0383958 -1.2075e-16 0)
(0.0383958 6.43929e-17 0)
(0.0383958 -2.49092e-17 0)
(0.0383958 -4.7831e-17 0)
(0.0383958 1.47412e-16 0)
(0.0383958 -4.94692e-17 0)
(0.0383958 -4.09863e-17 0)
(0.0383958 -8.42298e-17 0)
(0.0383958 4.7323e-17 0)
(0.0383958 2.14487e-16 0)
(0.0383958 -7.49027e-18 0)
(0.0383958 -2.169e-16 0)
(0.0383958 -2.60165e-17 0)
(0.0383958 9.71324e-17 0)
(0.0383958 1.92939e-17 0)
(0.0383958 1.15165e-16 0)
(0.0383958 -2.07397e-16 0)
(0.0383958 -2.2448e-17 0)
(0.0383958 1.02429e-16 0)
(0.0383958 2.63774e-17 0)
(0.0383958 7.63011e-17 0)
(0.0383958 -1.31732e-16 0)
(0.0383958 2.84249e-17 0)
(0.0383958 8.19479e-18 0)
(0.0383958 -5.63411e-17 0)
(0.0383958 1.33327e-16 0)
(0.0383958 -7.88703e-17 0)
(0.0383958 -1.13553e-17 0)
(0.0383958 6.67369e-18 0)
(0.0383958 -6.23951e-17 0)
(0.0383958 1.56335e-16 0)
(0.0383958 -5.72541e-17 0)
(0.0383958 -7.26088e-17 0)
(0.0383958 7.92501e-17 0)
(0.0383958 1.60481e-17 0)
(0.0383958 1.05871e-16 0)
(0.0383958 -1.24996e-17 0)
(0.0383958 4.35245e-17 0)
(0.113255 5.32568e-16 0)
(0.113255 1.46252e-16 0)
(0.113255 9.58351e-17 0)
(0.113255 7.52775e-17 0)
(0.113255 1.00882e-16 0)
(0.113255 9.59932e-17 0)
(0.113255 6.55495e-17 0)
(0.113255 7.08187e-17 0)
(0.113255 6.36713e-17 0)
(0.113255 6.27351e-17 0)
(0.113255 5.07456e-17 0)
(0.113255 1.35025e-17 0)
(0.113255 2.83972e-17 0)
(0.113255 3.55269e-17 0)
(0.113255 7.07857e-18 0)
(0.113255 3.23521e-17 0)
(0.113255 2.36783e-17 0)
(0.113255 -1.12966e-17 0)
(0.113255 -5.18469e-17 0)
(0.113255 -5.67106e-17 0)
(0.113255 -1.88479e-17 0)
(0.113255 -1.49997e-17 0)
(0.113255 -2.29433e-17 0)
(0.113255 -3.25221e-17 0)
(0.113255 -5.12893e-17 0)
(0.113255 -3.51889e-17 0)
(0.113255 2.31983e-17 0)
(0.113255 -1.97486e-17 0)
(0.113255 -5.18731e-17 0)
(0.113255 -2.10969e-17 0)
(0.113255 1.60621e-17 0)
(0.113255 6.29341e-17 0)
(0.113255 4.0013e-17 0)
(0.113255 -3.87499e-18 0)
(0.113255 6.95702e-18 0)
(0.113255 2.36629e-17 0)
(0.113255 5.21426e-17 0)
(0.113255 -1.0845e-17 0)
(0.113255 -1.39277e-17 0)
(0.113255 6.08412e-17 0)
(0.113255 -1.50797e-17 0)
(0.113255 -6.40092e-18 0)
(0.113255 1.88846e-18 0)
(0.113255 -1.26532e-17 0)
(0.113255 5.74523e-17 0)
(0.113255 3.09538e-17 0)
(0.113255 3.8952e-17 0)
(0.113255 2.05107e-17 0)
(0.113255 9.34173e-18 0)
(0.113255 1.81606e-18 0)
(0.113255 -5.6476e-17 0)
(0.113255 1.91961e-17 0)
(0.113255 -2.44242e-17 0)
(0.113255 -1.73475e-17 0)
(0.113255 4.48636e-17 0)
(0.113255 -3.71521e-17 0)
(0.113255 5.16246e-18 0)
(0.113255 2.16614e-17 0)
(0.113255 2.21699e-17 0)
(0.113255 5.26306e-17 0)
(0.113255 -4.43859e-17 0)
(0.113255 4.4836e-17 0)
(0.113255 2.17025e-17 0)
(0.113255 1.14435e-17 0)
(0.113255 5.19912e-17 0)
(0.113255 -3.66307e-17 0)
(0.113255 -3.85422e-18 0)
(0.113255 2.95635e-19 0)
(0.113255 1.83243e-17 0)
(0.113255 3.89242e-17 0)
(0.113255 -2.63241e-17 0)
(0.113255 -2.65692e-17 0)
(0.113255 -3.25982e-17 0)
(0.113255 -2.33571e-17 0)
(0.113255 1.07001e-16 0)
(0.113255 -6.14502e-17 0)
(0.113255 -1.08259e-16 0)
(0.113255 2.89885e-17 0)
(0.113255 6.37294e-19 0)
(0.113255 3.92566e-17 0)
(0.113255 -5.41799e-17 0)
(0.113255 -1.44276e-16 0)
(0.113255 -9.42029e-18 0)
(0.113255 7.72851e-17 0)
(0.113255 8.67558e-17 0)
(0.113255 2.46118e-18 0)
(0.113255 -1.19454e-16 0)
(0.113255 -8.0246e-17 0)
(0.113255 8.48152e-17 0)
(0.113255 1.32472e-16 0)
(0.113255 -4.11999e-17 0)
(0.113255 -1.26514e-16 0)
(0.113255 -5.73476e-18 0)
(0.113255 9.55549e-17 0)
(0.113255 -2.40277e-18 0)
(0.113255 -1.17417e-16 0)
(0.113255 -2.2571e-17 0)
(0.113255 1.3512e-18 0)
(0.113255 9.02081e-17 0)
(0.113255 4.30485e-17 0)
(0.113255 -1.57847e-16 0)
(0.113255 7.02201e-19 0)
(0.113255 -7.27971e-17 0)
(0.113255 2.62965e-17 0)
(0.113255 3.61073e-17 0)
(0.113255 -5.54483e-17 0)
(0.113255 -9.52528e-17 0)
(0.113255 8.82962e-18 0)
(0.113255 7.87452e-17 0)
(0.113255 6.95699e-18 0)
(0.113255 1.53775e-17 0)
(0.113255 -2.15509e-16 0)
(0.113255 2.24614e-17 0)
(0.113255 1.85959e-16 0)
(0.113255 1.37437e-17 0)
(0.113255 -5.8972e-17 0)
(0.113255 -1.20845e-16 0)
(0.113255 2.82759e-17 0)
(0.113255 1.4736e-16 0)
(0.113255 4.94076e-17 0)
(0.113255 -2.39436e-17 0)
(0.113255 -1.11895e-16 0)
(0.113255 1.7917e-17 0)
(0.113255 1.96252e-16 0)
(0.113255 7.1994e-17 0)
(0.113255 -8.32726e-17 0)
(0.113255 -1.43172e-16 0)
(0.113255 1.29574e-17 0)
(0.113255 1.69409e-16 0)
(0.113255 1.21008e-17 0)
(0.113255 -1.16969e-16 0)
(0.113255 -1.23742e-16 0)
(0.113255 5.33141e-17 0)
(0.113255 1.28743e-16 0)
(0.113255 1.53415e-17 0)
(0.113255 3.94817e-17 0)
(0.113255 -9.23854e-17 0)
(0.113255 -4.8698e-17 0)
(0.113255 1.17498e-16 0)
(0.113255 5.1266e-17 0)
(0.113255 -4.39751e-18 0)
(0.113255 -1.27786e-16 0)
(0.113255 -4.80865e-17 0)
(0.113255 6.65957e-17 0)
(0.113255 3.24199e-17 0)
(0.113255 -5.22204e-17 0)
(0.113255 -1.64781e-16 0)
(0.113255 -1.81786e-17 0)
(0.113255 3.4676e-17 0)
(0.113255 1.1182e-16 0)
(0.113255 1.11892e-16 0)
(0.113255 -2.14675e-16 0)
(0.113255 -1.34412e-16 0)
(0.113255 1.07512e-16 0)
(0.113255 1.07503e-16 0)
(0.113255 8.84371e-17 0)
(0.113255 -5.6992e-17 0)
(0.113255 -7.68957e-17 0)
(0.113255 6.9658e-17 0)
(0.113255 8.46998e-17 0)
(0.113255 1.35505e-16 0)
(0.113255 -1.03122e-16 0)
(0.113255 -1.9261e-17 0)
(0.113255 1.26076e-16 0)
(0.113255 -1.4774e-16 0)
(0.113255 5.57791e-17 0)
(0.113255 -4.44575e-17 0)
(0.113255 -1.7814e-16 0)
(0.113255 1.54263e-16 0)
(0.113255 9.80211e-17 0)
(0.113255 -8.41695e-18 0)
(0.113255 -1.38281e-16 0)
(0.113255 -3.29797e-17 0)
(0.113255 1.23852e-17 0)
(0.113255 -6.13277e-17 0)
(0.113255 -4.53069e-17 0)
(0.113255 -2.48962e-17 0)
(0.113255 2.75142e-16 0)
(0.113255 -4.91108e-17 0)
(0.113255 -1.1801e-16 0)
(0.113255 1.49946e-16 0)
(0.113255 -1.77547e-16 0)
(0.113255 -5.45379e-17 0)
(0.113255 1.02211e-17 0)
(0.113255 -5.329e-17 0)
(0.113255 1.89471e-16 0)
(0.113255 -1.00748e-16 0)
(0.113255 -2.03704e-17 0)
(0.113255 1.04243e-16 0)
(0.113255 -1.72583e-16 0)
(0.113255 4.98251e-17 0)
(0.113255 -8.70952e-18 0)
(0.113255 -7.00348e-17 0)
(0.113255 2.12294e-16 0)
(0.113255 -2.3989e-17 0)
(0.113255 -8.30041e-18 0)
(0.113255 -8.45573e-17 0)
(0.113255 5.55384e-17 0)
(0.113255 2.86984e-16 0)
(0.113255 -1.65846e-16 0)
(0.113255 -5.80272e-17 0)
(0.113255 -1.10859e-16 0)
(0.113255 4.42462e-17 0)
(0.113255 3.08561e-16 0)
(0.113255 -8.78437e-17 0)
(0.113255 -2.22401e-16 0)
(0.113255 -1.13918e-16 0)
(0.113255 2.0012e-16 0)
(0.113255 2.05587e-16 0)
(0.113255 -1.13557e-16 0)
(0.113255 -2.55229e-16 0)
(0.113255 -1.15975e-16 0)
(0.113255 3.66083e-16 0)
(0.113255 2.44543e-17 0)
(0.113255 -3.41924e-16 0)
(0.113255 2.77477e-16 0)
(0.113255 9.21758e-17 0)
(0.113255 -2.00282e-16 0)
(0.113255 -1.88291e-16 0)
(0.113255 -1.60496e-16 0)
(0.113255 3.56247e-16 0)
(0.113255 1.54222e-16 0)
(0.113255 -1.97213e-16 0)
(0.113255 -1.62421e-16 0)
(0.113255 -1.37505e-16 0)
(0.113255 3.70393e-16 0)
(0.113255 5.7818e-17 0)
(0.113255 -1.3763e-16 0)
(0.113255 3.51757e-17 0)
(0.113255 -1.05054e-16 0)
(0.113255 8.98945e-17 0)
(0.113255 -5.01892e-17 0)
(0.113255 5.54009e-17 0)
(0.113255 7.29586e-17 0)
(0.113255 -2.60648e-16 0)
(0.113255 5.86382e-17 0)
(0.113255 1.00784e-16 0)
(0.113255 1.31786e-17 0)
(0.113255 3.60769e-17 0)
(0.113255 -1.78258e-16 0)
(0.113255 8.64075e-17 0)
(0.113255 -3.31713e-17 0)
(0.113255 -1.5922e-18 0)
(0.113255 9.04608e-17 0)
(0.113255 -2.97241e-16 0)
(0.113255 -4.49222e-18 0)
(0.113255 1.64106e-16 0)
(0.113255 1.6001e-16 0)
(0.113255 -3.59104e-18 0)
(0.113255 -2.51625e-16 0)
(0.113255 1.625e-16 0)
(0.113255 5.26569e-17 0)
(0.113255 -4.08494e-17 0)
(0.113255 -9.06046e-18 0)
(0.113255 -2.4026e-16 0)
(0.113255 2.06734e-16 0)
(0.113255 4.71876e-17 0)
(0.113255 -3.03995e-18 0)
(0.113255 8.11761e-17 0)
(0.113255 -2.57549e-16 0)
(0.113255 8.42129e-17 0)
(0.113255 8.74844e-17 0)
(0.113255 -7.16284e-17 0)
(0.113255 -1.19381e-17 0)
(0.113255 -1.02341e-16 0)
(0.113255 2.04102e-16 0)
(0.113255 1.85137e-16 0)
(0.113255 5.54513e-17 0)
(0.113255 -6.59474e-17 0)
(0.113255 -1.67429e-16 0)
(0.113255 1.23144e-16 0)
(0.113255 9.52305e-17 0)
(0.113255 1.27468e-16 0)
(0.113255 -8.07049e-17 0)
(0.113255 -2.00085e-16 0)
(0.113255 8.27961e-17 0)
(0.113255 -8.42831e-18 0)
(0.113255 -1.1822e-16 0)
(0.113255 6.20384e-17 0)
(0.113255 -9.26127e-17 0)
(0.113255 2.58091e-17 0)
(0.113255 1.29032e-16 0)
(0.113255 2.50076e-17 0)
(0.113255 -6.15728e-17 0)
(0.113255 -1.78e-16 0)
(0.113255 5.31677e-17 0)
(0.113255 2.18043e-16 0)
(0.113255 1.63952e-16 0)
(0.113255 -2.20387e-16 0)
(0.113255 -1.46569e-16 0)
(0.113255 2.36468e-16 0)
(0.113255 1.13148e-17 0)
(0.113255 -6.03558e-17 0)
(0.113255 -1.08482e-16 0)
(0.113255 1.00485e-17 0)
(0.113255 2.99284e-16 0)
(0.113255 -7.186e-17 0)
(0.113255 -7.27767e-17 0)
(0.113255 -1.45482e-16 0)
(0.113255 1.02979e-17 0)
(0.113255 3.65621e-16 0)
(0.113255 2.88319e-17 0)
(0.113255 1.29209e-16 0)
(0.113255 -1.07456e-16 0)
(0.113255 -3.48091e-16 0)
(0.113255 -7.57302e-18 0)
(0.113255 1.07411e-16 0)
(0.113255 1.76054e-16 0)
(0.113255 -1.3325e-16 0)
(0.113255 -1.34689e-17 0)
(0.113255 5.8247e-17 0)
(0.113255 -4.61114e-17 0)
(0.113255 2.53875e-16 0)
(0.113255 -1.98147e-17 0)
(0.113255 -7.05649e-17 0)
(0.113255 1.69352e-16 0)
(0.113255 -3.90281e-17 0)
(0.113255 1.01379e-16 0)
(0.113255 8.70496e-17 0)
(0.113255 2.36489e-17 0)
(0.186161 1.88016e-16 0)
(0.186161 1.41345e-16 0)
(0.186161 9.63618e-17 0)
(0.186161 1.18669e-16 0)
(0.186161 1.32293e-16 0)
(0.186161 1.42976e-16 0)
(0.186161 1.30819e-16 0)
(0.186161 1.40468e-16 0)
(0.186161 1.10259e-16 0)
(0.186161 1.07682e-16 0)
(0.186161 1.05333e-16 0)
(0.186161 7.32421e-17 0)
(0.186161 8.06948e-17 0)
(0.186161 5.03242e-17 0)
(0.186161 -2.51643e-18 0)
(0.186161 2.45214e-17 0)
(0.186161 9.20091e-18 0)
(0.186161 -2.99848e-17 0)
(0.186161 -6.83255e-17 0)
(0.186161 -7.2528e-17 0)
(0.186161 -3.87346e-17 0)
(0.186161 -9.14241e-17 0)
(0.186161 -8.48802e-17 0)
(0.186161 -5.21003e-17 0)
(0.186161 -6.88632e-17 0)
(0.186161 -7.1067e-17 0)
(0.186161 -1.62297e-17 0)
(0.186161 -3.86486e-17 0)
(0.186161 -6.0893e-17 0)
(0.186161 -3.18073e-17 0)
(0.186161 5.6626e-17 0)
(0.186161 1.48844e-16 0)
(0.186161 8.54796e-17 0)
(0.186161 5.15344e-18 0)
(0.186161 4.09744e-18 0)
(0.186161 2.31501e-17 0)
(0.186161 7.4534e-17 0)
(0.186161 3.75217e-17 0)
(0.186161 -2.51085e-19 0)
(0.186161 4.43245e-17 0)
(0.186161 2.41036e-17 0)
(0.186161 1.73953e-17 0)
(0.186161 2.96749e-17 0)
(0.186161 -2.46732e-18 0)
(0.186161 2.26743e-17 0)
(0.186161 9.30957e-17 0)
(0.186161 6.99911e-17 0)
(0.186161 4.47727e-17 0)
(0.186161 4.35073e-17 0)
(0.186161 1.7484e-17 0)
(0.186161 -3.09195e-17 0)
(0.186161 -1.98238e-17 0)
(0.186161 -4.61873e-17 0)
(0.186161 -2.78318e-17 0)
(0.186161 2.59237e-17 0)
(0.186161 -2.5695e-17 0)
(0.186161 9.32067e-18 0)
(0.186161 3.63281e-17 0)
(0.186161 3.79264e-17 0)
(0.186161 7.2711e-17 0)
(0.186161 -3.5401e-17 0)
(0.186161 1.37353e-16 0)
(0.186161 4.93258e-17 0)
(0.186161 -8.10916e-18 0)
(0.186161 1.15248e-16 0)
(0.186161 -4.67573e-17 0)
(0.186161 -5.61771e-18 0)
(0.186161 3.1195e-17 0)
(0.186161 5.43262e-17 0)
(0.186161 4.74006e-17 0)
(0.186161 -6.61055e-17 0)
(0.186161 -5.06369e-17 0)
(0.186161 -6.60225e-17 0)
(0.186161 3.07143e-17 0)
(0.186161 9.37017e-17 0)
(0.186161 -8.01353e-17 0)
(0.186161 -1.2396e-16 0)
(0.186161 -4.54763e-18 0)
(0.186161 -2.20182e-17 0)
(0.186161 2.1304e-18 0)
(0.186161 -1.03482e-16 0)
(0.186161 -1.41728e-16 0)
(0.186161 2.33542e-17 0)
(0.186161 5.59871e-17 0)
(0.186161 3.09466e-17 0)
(0.186161 -3.07454e-17 0)
(0.186161 -4.63236e-17 0)
(0.186161 -9.94148e-17 0)
(0.186161 -3.20221e-17 0)
(0.186161 1.35316e-16 0)
(0.186161 -2.95863e-17 0)
(0.186161 -8.82879e-17 0)
(0.186161 3.4663e-17 0)
(0.186161 2.32268e-17 0)
(0.186161 -2.30211e-17 0)
(0.186161 -7.66765e-17 0)
(0.186161 -3.99475e-17 0)
(0.186161 -2.57202e-17 0)
(0.186161 -1.02302e-17 0)
(0.186161 5.70643e-19 0)
(0.186161 -7.04746e-17 0)
(0.186161 -6.95227e-17 0)
(0.186161 -1.0511e-16 0)
(0.186161 -5.6235e-17 0)
(0.186161 -1.69572e-17 0)
(0.186161 -1.25112e-17 0)
(0.186161 -1.5737e-16 0)
(0.186161 -1.31723e-16 0)
(0.186161 7.9635e-17 0)
(0.186161 1.14919e-16 0)
(0.186161 -1.65822e-17 0)
(0.186161 -2.71605e-16 0)
(0.186161 9.12595e-18 0)
(0.186161 2.08839e-16 0)
(0.186161 9.25008e-17 0)
(0.186161 -1.35703e-17 0)
(0.186161 -2.09748e-16 0)
(0.186161 -4.5879e-17 0)
(0.186161 3.04109e-16 0)
(0.186161 2.05074e-16 0)
(0.186161 -1.00793e-16 0)
(0.186161 -2.06479e-16 0)
(0.186161 4.59973e-17 0)
(0.186161 3.41057e-16 0)
(0.186161 2.24951e-16 0)
(0.186161 -1.15065e-16 0)
(0.186161 -3.82494e-16 0)
(0.186161 -6.87094e-19 0)
(0.186161 2.65423e-16 0)
(0.186161 4.63876e-17 0)
(0.186161 -1.14992e-16 0)
(0.186161 -2.39002e-16 0)
(0.186161 5.14148e-17 0)
(0.186161 2.88223e-16 0)
(0.186161 8.22128e-17 0)
(0.186161 -4.23971e-17 0)
(0.186161 -1.35054e-16 0)
(0.186161 -2.02244e-17 0)
(0.186161 2.17212e-16 0)
(0.186161 8.69234e-17 0)
(0.186161 -1.18573e-16 0)
(0.186161 -2.12826e-16 0)
(0.186161 -7.7589e-18 0)
(0.186161 6.26964e-17 0)
(0.186161 -7.20842e-17 0)
(0.186161 -1.49839e-16 0)
(0.186161 -1.54793e-16 0)
(0.186161 5.6777e-17 0)
(0.186161 4.09891e-17 0)
(0.186161 -1.45734e-17 0)
(0.186161 1.36402e-16 0)
(0.186161 -8.47524e-17 0)
(0.186161 -1.59823e-16 0)
(0.186161 2.42948e-17 0)
(0.186161 8.87319e-17 0)
(0.186161 1.63117e-16 0)
(0.186161 9.14254e-18 0)
(0.186161 -8.10511e-17 0)
(0.186161 9.40617e-17 0)
(0.186161 1.82784e-16 0)
(0.186161 1.86657e-16 0)
(0.186161 -1.21685e-16 0)
(0.186161 -8.51952e-17 0)
(0.186161 1.77006e-16 0)
(0.186161 -1.28762e-17 0)
(0.186161 -2.90778e-17 0)
(0.186161 -6.55587e-17 0)
(0.186161 -9.15159e-17 0)
(0.186161 1.03498e-17 0)
(0.186161 1.69628e-18 0)
(0.186161 -5.53719e-17 0)
(0.186161 -1.29486e-16 0)
(0.186161 -4.39268e-17 0)
(0.186161 7.13014e-17 0)
(0.186161 9.27454e-17 0)
(0.186161 -1.49377e-16 0)
(0.186161 -1.58708e-16 0)
(0.186161 1.10152e-16 0)
(0.186161 5.17915e-17 0)
(0.186161 1.44407e-16 0)
(0.186161 -1.80052e-18 0)
(0.186161 -3.71515e-16 0)
(0.186161 -1.25073e-16 0)
(0.186161 1.00874e-16 0)
(0.186161 3.43798e-17 0)
(0.186161 1.22338e-16 0)
(0.186161 -1.39986e-16 0)
(0.186161 -1.02315e-16 0)
(0.186161 1.15249e-16 0)
(0.186161 -4.88665e-17 0)
(0.186161 -1.78096e-17 0)
(0.186161 -1.66458e-18 0)
(0.186161 8.58776e-18 0)
(0.186161 1.21681e-16 0)
(0.186161 5.80488e-17 0)
(0.186161 1.58956e-17 0)
(0.186161 -7.38775e-19 0)
(0.186161 6.93584e-17 0)
(0.186161 1.30216e-16 0)
(0.186161 -1.38101e-17 0)
(0.186161 -5.46758e-17 0)
(0.186161 -7.14848e-17 0)
(0.186161 4.78276e-17 0)
(0.186161 1.28337e-16 0)
(0.186161 -1.27289e-17 0)
(0.186161 -9.36212e-17 0)
(0.186161 -7.47841e-17 0)
(0.186161 5.39219e-17 0)
(0.186161 4.12119e-17 0)
(0.186161 -7.183e-17 0)
(0.186161 -1.49466e-16 0)
(0.186161 -1.60032e-16 0)
(0.186161 3.427e-16 0)
(0.186161 5.38086e-17 0)
(0.186161 -2.9166e-16 0)
(0.186161 2.04634e-16 0)
(0.186161 -7.35588e-17 0)
(0.186161 -9.46939e-17 0)
(0.186161 -1.74074e-16 0)
(0.186161 -2.92042e-16 0)
(0.186161 4.19653e-16 0)
(0.186161 1.49367e-16 0)
(0.186161 -1.06916e-16 0)
(0.186161 -1.09462e-16 0)
(0.186161 -2.32405e-16 0)
(0.186161 4.23902e-16 0)
(0.186161 8.92606e-17 0)
(0.186161 -2.03828e-16 0)
(0.186161 -9.91997e-17 0)
(0.186161 -1.74776e-16 0)
(0.186161 3.84687e-16 0)
(0.186161 8.62796e-17 0)
(0.186161 -6.74568e-17 0)
(0.186161 3.8285e-17 0)
(0.186161 -3.39329e-16 0)
(0.186161 -9.68137e-18 0)
(0.186161 -2.47417e-17 0)
(0.186161 2.35649e-16 0)
(0.186161 2.33505e-16 0)
(0.186161 -3.51738e-16 0)
(0.186161 6.52253e-18 0)
(0.186161 -1.54275e-16 0)
(0.186161 6.46661e-17 0)
(0.186161 1.38493e-16 0)
(0.186161 -5.32055e-16 0)
(0.186161 3.83426e-17 0)
(0.186161 2.16421e-16 0)
(0.186161 2.15201e-16 0)
(0.186161 1.01405e-17 0)
(0.186161 -3.40256e-16 0)
(0.186161 4.35822e-16 0)
(0.186161 9.10611e-17 0)
(0.186161 -2.7832e-16 0)
(0.186161 -2.7259e-16 0)
(0.186161 -2.73142e-16 0)
(0.186161 6.10644e-16 0)
(0.186161 5.738e-17 0)
(0.186161 -1.433e-16 0)
(0.186161 4.96e-17 0)
(0.186161 -3.08751e-16 0)
(0.186161 2.0153e-16 0)
(0.186161 2.82578e-17 0)
(0.186161 -6.99367e-17 0)
(0.186161 -2.78818e-17 0)
(0.186161 -1.56202e-16 0)
(0.186161 4.7041e-16 0)
(0.186161 2.34397e-16 0)
(0.186161 6.74657e-17 0)
(0.186161 9.11454e-17 0)
(0.186161 -2.37791e-16 0)
(0.186161 1.95524e-16 0)
(0.186161 1.37321e-16 0)
(0.186161 1.19601e-16 0)
(0.186161 2.80605e-17 0)
(0.186161 -3.55215e-16 0)
(0.186161 7.08598e-17 0)
(0.186161 -3.87865e-17 0)
(0.186161 -7.70268e-17 0)
(0.186161 4.6173e-17 0)
(0.186161 -3.24949e-16 0)
(0.186161 8.57489e-17 0)
(0.186161 7.27392e-17 0)
(0.186161 5.93218e-17 0)
(0.186161 7.8728e-17 0)
(0.186161 -2.88349e-16 0)
(0.186161 1.8948e-16 0)
(0.186161 2.91142e-16 0)
(0.186161 -1.78391e-17 0)
(0.186161 -1.09287e-16 0)
(0.186161 -1.5509e-16 0)
(0.186161 2.67407e-16 0)
(0.186161 1.91484e-16 0)
(0.186161 -1.70711e-16 0)
(0.186161 2.58722e-17 0)
(0.186161 -4.05548e-17 0)
(0.186161 9.42605e-17 0)
(0.186161 2.37795e-16 0)
(0.186161 -1.13256e-16 0)
(0.186161 -1.04032e-16 0)
(0.186161 -8.37765e-17 0)
(0.186161 2.78676e-16 0)
(0.186161 4.84352e-16 0)
(0.186161 9.48514e-17 0)
(0.186161 -3.94668e-16 0)
(0.186161 -2.55898e-16 0)
(0.186161 9.90294e-17 0)
(0.186161 6.05628e-17 0)
(0.186161 8.22073e-17 0)
(0.186161 -2.3514e-16 0)
(0.186161 4.80211e-17 0)
(0.186161 1.2543e-16 0)
(0.186161 -1.19665e-17 0)
(0.186161 2.74125e-16 0)
(0.186161 2.49215e-17 0)
(0.186161 -6.49981e-17 0)
(0.186161 -2.29298e-19 0)
(0.186161 -4.55168e-17 0)
(0.186161 2.75605e-16 0)
(0.186161 2.46926e-17 0)
(0.186161 -6.67256e-17 0)
(0.257093 1.57576e-16 0)
(0.257093 1.05241e-16 0)
(0.257093 1.04881e-16 0)
(0.257093 1.44996e-16 0)
(0.257093 1.58647e-16 0)
(0.257093 1.77622e-16 0)
(0.257093 2.00552e-16 0)
(0.257093 1.93439e-16 0)
(0.257093 1.50186e-16 0)
(0.257093 1.46067e-16 0)
(0.257093 1.67328e-16 0)
(0.257093 1.26708e-16 0)
(0.257093 9.24189e-17 0)
(0.257093 6.46746e-17 0)
(0.257093 -1.65425e-17 0)
(0.257093 -7.79002e-18 0)
(0.257093 -2.46658e-17 0)
(0.257093 -4.02155e-17 0)
(0.257093 -6.63315e-17 0)
(0.257093 -9.05123e-17 0)
(0.257093 -9.27973e-17 0)
(0.257093 -1.11991e-16 0)
(0.257093 -1.397e-16 0)
(0.257093 -1.39692e-16 0)
(0.257093 -1.40614e-16 0)
(0.257093 -6.28919e-17 0)
(0.257093 -4.11853e-18 0)
(0.257093 -6.6046e-17 0)
(0.257093 -7.75839e-17 0)
(0.257093 -9.81324e-18 0)
(0.257093 1.16659e-16 0)
(0.257093 1.88897e-16 0)
(0.257093 1.24397e-16 0)
(0.257093 3.0196e-17 0)
(0.257093 -1.0268e-17 0)
(0.257093 6.43419e-18 0)
(0.257093 1.00229e-16 0)
(0.257093 8.55688e-17 0)
(0.257093 -7.26616e-19 0)
(0.257093 6.06887e-17 0)
(0.257093 8.07262e-17 0)
(0.257093 4.28022e-17 0)
(0.257093 3.68043e-17 0)
(0.257093 9.20916e-18 0)
(0.257093 5.53034e-17 0)
(0.257093 1.14958e-16 0)
(0.257093 1.22049e-16 0)
(0.257093 8.40456e-17 0)
(0.257093 5.36547e-17 0)
(0.257093 1.08802e-17 0)
(0.257093 -4.45358e-17 0)
(0.257093 4.36961e-19 0)
(0.257093 -1.46806e-18 0)
(0.257093 -2.11087e-17 0)
(0.257093 1.28816e-17 0)
(0.257093 -6.05279e-17 0)
(0.257093 -9.3485e-18 0)
(0.257093 4.33647e-17 0)
(0.257093 4.36316e-17 0)
(0.257093 1.05701e-16 0)
(0.257093 9.03205e-20 0)
(0.257093 1.28407e-16 0)
(0.257093 9.80442e-17 0)
(0.257093 6.35496e-17 0)
(0.257093 7.04087e-17 0)
(0.257093 -3.92092e-17 0)
(0.257093 9.25741e-17 0)
(0.257093 6.71921e-17 0)
(0.257093 7.32756e-17 0)
(0.257093 9.57289e-17 0)
(0.257093 -1.00877e-16 0)
(0.257093 -9.35653e-17 0)
(0.257093 -1.11655e-16 0)
(0.257093 -1.36796e-18 0)
(0.257093 1.20329e-16 0)
(0.257093 -1.16499e-16 0)
(0.257093 -1.121e-16 0)
(0.257093 -3.16884e-17 0)
(0.257093 -5.5312e-17 0)
(0.257093 2.64316e-17 0)
(0.257093 -1.03889e-16 0)
(0.257093 -1.64884e-16 0)
(0.257093 1.34984e-17 0)
(0.257093 3.42016e-17 0)
(0.257093 -3.72773e-17 0)
(0.257093 -1.32522e-16 0)
(0.257093 -6.4414e-17 0)
(0.257093 -3.36781e-17 0)
(0.257093 -3.55112e-17 0)
(0.257093 6.73874e-17 0)
(0.257093 -2.40654e-17 0)
(0.257093 -4.16677e-17 0)
(0.257093 1.35641e-17 0)
(0.257093 3.98109e-17 0)
(0.257093 6.50075e-18 0)
(0.257093 -1.10025e-16 0)
(0.257093 -5.80971e-17 0)
(0.257093 -4.7887e-17 0)
(0.257093 -8.96674e-17 0)
(0.257093 -3.56499e-17 0)
(0.257093 -9.9019e-17 0)
(0.257093 -1.60851e-16 0)
(0.257093 -2.23261e-16 0)
(0.257093 -1.53932e-16 0)
(0.257093 1.09402e-18 0)
(0.257093 -3.83003e-17 0)
(0.257093 -2.45354e-16 0)
(0.257093 -2.1893e-16 0)
(0.257093 1.18957e-16 0)
(0.257093 1.72195e-16 0)
(0.257093 -5.87348e-17 0)
(0.257093 -3.08075e-16 0)
(0.257093 -8.57224e-18 0)
(0.257093 1.93687e-16 0)
(0.257093 1.69594e-16 0)
(0.257093 6.9517e-17 0)
(0.257093 -2.63029e-16 0)
(0.257093 -8.51347e-17 0)
(0.257093 3.73311e-16 0)
(0.257093 3.15419e-16 0)
(0.257093 -1.24866e-16 0)
(0.257093 -3.01578e-16 0)
(0.257093 1.13102e-16 0)
(0.257093 4.27679e-16 0)
(0.257093 2.23174e-16 0)
(0.257093 -8.10116e-17 0)
(0.257093 -3.59762e-16 0)
(0.257093 -8.88064e-17 0)
(0.257093 2.93055e-16 0)
(0.257093 5.92216e-17 0)
(0.257093 -1.74223e-16 0)
(0.257093 -1.59635e-16 0)
(0.257093 4.1132e-17 0)
(0.257093 3.14081e-16 0)
(0.257093 2.02427e-16 0)
(0.257093 -4.69718e-17 0)
(0.257093 -2.57188e-16 0)
(0.257093 -9.86689e-17 0)
(0.257093 3.68858e-16 0)
(0.257093 1.76391e-16 0)
(0.257093 -1.65008e-16 0)
(0.257093 -3.80421e-16 0)
(0.257093 -3.61535e-17 0)
(0.257093 8.30639e-17 0)
(0.257093 -7.16594e-17 0)
(0.257093 -1.38286e-16 0)
(0.257093 -3.54645e-16 0)
(0.257093 1.93995e-17 0)
(0.257093 1.28631e-16 0)
(0.257093 5.91766e-17 0)
(0.257093 5.54493e-17 0)
(0.257093 -2.20584e-16 0)
(0.257093 -4.10887e-17 0)
(0.257093 1.1877e-16 0)
(0.257093 1.27235e-16 0)
(0.257093 1.39296e-16 0)
(0.257093 -3.10008e-17 0)
(0.257093 -1.52743e-17 0)
(0.257093 1.96262e-16 0)
(0.257093 2.2918e-16 0)
(0.257093 1.83301e-16 0)
(0.257093 -1.81685e-16 0)
(0.257093 7.5596e-18 0)
(0.257093 2.74589e-16 0)
(0.257093 -9.30227e-17 0)
(0.257093 -6.13803e-17 0)
(0.257093 -8.57183e-17 0)
(0.257093 -7.26934e-17 0)
(0.257093 5.83615e-18 0)
(0.257093 -1.53305e-17 0)
(0.257093 -9.76869e-17 0)
(0.257093 -2.22136e-16 0)
(0.257093 -1.40833e-16 0)
(0.257093 1.66855e-16 0)