/*--------------------------------*- C++ -*----------------------------------*\
| =========                 |                                                 |
| \\      /  F ield         | OpenFOAM: The Open Source CFD Toolbox           |
|  \\    /   O peration     | Version:  2112                                  |
|   \\  /    A nd           | Website:  www.openfoam.com                      |
|    \\/     M anipulation  |                                                 |
\*---------------------------------------------------------------------------*/
FoamFile
{
    version     2.0;
    format      ascii;
    arch        "LSB;label=32;scalar=64";
    class       volScalarField;
    location    "0.001";
    object      p;
}
// * * * * * * * * * * * * * * * * * * * * * * * * * * * * * * * * * * * * * //

dimensions      [0 2 -2 0 0 0 0];

internalField   nonuniform List<scalar> 
171426
(
0.00320671847901
0.0032484680931
0.00327309822536
0.00329044421998
0.00330372387048
0.00331095626541
0.00331074750109
0.00330223118838
0.0032847242166
0.00325770223146
0.0032208051421
0.00317383967679
0.00311678398977
0.00304999427625
0.00297476619107
0.00288836812419
0.00279344063865
0.0026907318639
0.00258104541645
0.00246533945616
0.00234463696236
0.00221998195353
0.00209240596879
0.00196289753128
0.00183237602435
0.00170167080342
0.00157150577954
0.00144248936167
0.00131510936324
0.00118973227949
0.00106660623707
0.000945866885728
0.000827545541778
0.000711578946983
0.000597819986962
0.000486049728256
0.000375994640046
0.000267324177404
0.000159542275478
5.23907483427e-05
0.00334603042865
0.00339983884227
0.00342789955752
0.00344332934339
0.0034508623126
0.00344917760584
0.00343756177981
0.00341570166402
0.00338340119819
0.00334060325234
0.00328739632441
0.00322400621699
0.00315077620362
0.0030682490482
0.00297782730235
0.00287871086595
0.00277226584035
0.00265945632096
0.00254123821655
0.00241860311721
0.00229254410488
0.00216403203267
0.0020339936792
0.00190329139943
0.00177270593726
0.00164292312564
0.0015145246917
0.00138798307184
0.00126365990466
0.0011418077234
0.00102257429451
0.000906009031484
0.000792070947645
0.000680637650097
0.000571514747021
0.000464445826175
0.000359128376701
0.000255210858221
0.000152141466242
4.96410885569e-05
0.00347393950092
0.00352974565084
0.00355743158351
0.00357025005975
0.00357293830094
0.0035642811322
0.00354384495246
0.00351163930793
0.00346780607152
0.00341263291223
0.00334654531129
0.00327007448844
0.00318375616718
0.00308788082015
0.00298638576533
0.00287664692262
0.00276047269463
0.00263905284267
0.00251344179732
0.00238466454278
0.00225370569016
0.00212149520778
0.00198889345589
0.0018566775196
0.00172553030119
0.0015960328724
0.00146866016164
0.00134377981251
0.00122165384091
0.00110244264372
0.000986210872448
0.000872934692144
0.00076250999213
0.000654761161047
0.000549449898368
0.000446284294737
0.000344934119085
0.000245028452568
0.000145998793642
4.75562420998e-05
0.00360689973458
0.00366348481867
0.00368993194153
0.00369966218205
0.00369735139234
0.00368178360542
0.00365270465542
0.00361038601152
0.00355527069785
0.00348796911306
0.00340923813499
0.00331994421638
0.00322108364137
0.00311395149413
0.0029994043332
0.00287846252882
0.00275227507881
0.00262197543238
0.00248867593013
0.00235343193513
0.0022172269345
0.00208096070303
0.00194543848369
0.00181136268966
0.00167932756935
0.0015498168653
0.0014232042826
0.00129975640549
0.001179637652
0.00106291680156
0.000949574641621
0.000839512321456
0.000732560067086
0.000628485971339
0.000527004441733
0.000427784648121
0.000330465081819
0.000234651091399
0.000139758898068
4.54839435755e-05
0.00374449504408
0.00380173454975
0.00382646325205
0.00383270726569
0.00382517610074
0.00380261148649
0.00376488797106
0.00371250015636
0.00364616387857
0.00356679157013
0.00347545673916
0.00337334639184
0.00326178773219
0.00314246649725
0.00301565562735
0.00288345025083
0.00274702012233
0.00260757291991
0.00246628927203
0.0023242640291
0.00218248917365
0.00204184366147
0.00190308648728
0.00176685330226
0.00163365631908
0.0015038870964
0.00137782172645
0.00125562789257
0.00113737326294
0.00102303471727
0.000912507965365
0.000805617195927
0.000702124485718
0.0006017387755
0.000504124101978
0.000408907521795
0.000315692863704
0.000224057930555
0.000133400433961
4.33880143801e-05
0.00388401416136
0.00394172990848
0.00396437629
0.00396689036527
0.00395405101188
0.00392452721395
0.00387829127344
0.00381603183542
0.00373871104709
0.00364751920021
0.00354382251964
0.00342909804224
0.0033049266487
0.00317318998823
0.00303465244161
0.0028913310792
0.0027446643331
0.00259600263976
0.00244661336364
0.00229764297129
0.00215010231306
0.00200485930841
0.0018626359969
0.00172400980645
0.00158941842179
0.00145916750921
0.00133344054647
0.00121231002574
0.00109574936177
0.000983644938023
0.000875807841273
0.00077198495798
0.000671869226606
0.000575108935755
0.000481315855665
0.000390072712843
0.00030094610336
0.000213483488945
0.000127061968274
4.13115786719e-05
0.00402410834929
0.00408224533596
0.00410259663572
0.00410124052798
0.00408306378532
0.00404664946026
0.00399205211099
0.00392013622862
0.00383209028025
0.00372936144023
0.00361358603088
0.00348650346857
0.00334993348056
0.0032060877296
0.00305597142723
0.00290167600586
0.00274485030413
0.00258698749031
0.00242945177145
0.00227345053309
0.00212002235707
0.00197003275418
0.00182417504112
0.00168297600419
0.00154680551152
0.0014158890448
0.0012903221189
0.00117008564124
0.0010550613952
0.000945046997349
0.000839769855729
0.000738899825419
0.000642060411445
0.000548838485483
0.000458792396575
0.000371459045119
0.000286365934469
0.000203028059301
0.000120800235142
3.92688340857e-05
0.00416359553402
0.00422211281629
0.00424001346149
0.004234703687
0.00421120467738
0.00416800298033
0.00410522595982
0.00402390171248
0.00392542953239
0.00381149450064
0.00368397723558
0.00354484834983
0.00339614940025
0.00324057913534
0.00307913645137
0.00291407381272
0.00274723521718
0.00258025907665
0.00241461194182
0.00225156834632
0.00209220158973
0.00193738208324
0.00178778158892
0.00164388294338
0.00150599419281
0.00137426581507
0.00124870969801
0.00112921867354
0.00101558562592
0.000907521428642
0.00080467120286
0.000706628608855
0.000612948071731
0.000523154981224
0.000436753836042
0.0003532349547
0.000272085662365
0.000192787173727
0.000114671089767
3.72761954393e-05
0.00430121124449
0.00436002737159
0.00437533759579
0.00436602745409
0.00433726254855
0.00428742071872
0.00421669435452
0.00412626558361
0.00401773215936
0.00389300083313
0.00375417252518
0.00360343996278
0.00344294773843
0.00327613071578
0.00310368041908
0.00292813250065
0.0027515054533
0.00257558479746
0.00240194185358
0.00223192155887
0.00206663719851
0.00190697029132
0.00175357739186
0.00160690343315
0.00146720014959
0.00133454788464
0.00120887910478
0.00109000213337
0.000977623923037
0.000871371018297
0.000770808161487
0.000675454265889
0.00058479570654
0.00049829704187
0.000415409227489
0.000335575994068
0.000258244178871
0.000182860711548
0.000108733831978
3.53523004602e-05
0.00443561391455
0.00449460189452
0.00450718949885
0.00449386180231
0.00445992636941
0.0044036391107
0.00432524967159
0.0042260848749
0.00410792918632
0.00397290218365
0.00382333367922
0.00366176754452
0.00349120294551
0.00331244717467
0.00312916043158
0.00294345042557
0.00275734168637
0.00257273354137
0.00239129458322
0.00221444175524
0.00204333292194
0.00187886630124
0.00172168902706
0.00157221369757
0.00143064089294
0.00129698549699
0.00117110473669
0.00105272613878
0.000941473997093
0.000836893383636
0.000738471120756
0.000645653452041
0.000557860413455
0.000474497093132
0.000394961934343
0.000318652803388
0.000244976480289
0.000173345844745
0.000103046285594
3.35153578874e-05
0.00456536898869
0.0046243611359
0.00463410502435
0.00461677339536
0.0045778041778
0.00451531843654
0.00442961474888
0.00432215382146
0.00419489116753
0.00405013935561
0.00389043302251
0.00371852865891
0.00353770145005
0.00334839743894
0.00315495552326
0.00295957734502
0.00276441120933
0.00257147086913
0.00238252363514
0.00219906272772
0.00202229551169
0.00185314221036
0.00169224590118
0.00153999203624
0.00139653494792
0.00126182864966
0.00113565940241
0.0010176779031
0.000907429459112
0.000804381045309
0.000707944630241
0.000617496531146
0.000532392855
0.000451981292607
0.0003756095165
0.000302630954805
0.000232413458772
0.000164336765996
9.76644550661e-05
3.17828437155e-05
0.00468894492684
0.00474774476586
0.00475454716372
0.00473326400823
0.00468944550387
0.00462106693491
0.00452846732849
0.00441322934432
0.00427746211631
0.00412364649393
0.00395448459612
0.00377286344978
0.00358211744208
0.0033833524329
0.00318050400441
0.00297607417131
0.00277238020053
0.00257155819238
0.00237547897207
0.00218571608268
0.00200353078888
0.00182987004861
0.00166537772316
0.00151041692979
0.00136510047278
0.00122932610437
0.00110281360801
0.000985141203038
0.000875779399374
0.000774121066899
0.000679507069081
0.000591247257493
0.000508636947558
0.000430969225116
0.000357543433269
0.000287670662624
0.000220681617777
0.000155924411462
9.26422733962e-05
3.0171354845e-05
0.00480472673517
0.00486312762785
0.00486693275035
0.00484180180737
0.00479337516624
0.00471947505358
0.00462047289265
0.0044980607755
0.00435448369336
0.00419236727584
0.00401455054524
0.00382403082709
0.00362428890039
0.00341677796946
0.0032052826282
0.00299250336009
0.00278090496586
0.00257274529164
0.00236999967697
0.00217432412892
0.00198703695621
0.00180911561323
0.00164120888084
0.00148366192829
0.00133655060957
0.00119972114532
0.00107283167548
0.000955392817074
0.000846805119244
0.000746392064417
0.000653427925494
0.000567160323257
0.000486827677839
0.000411671990354
0.000340947403704
0.000273925416897
0.000209901979609
0.000148195647067
8.80310855203e-05
2.86964295337e-05
0.00491104394212
0.00496885279656
0.0049696693691
0.00494086075886
0.00488813376291
0.00480915535983
0.00470432216772
0.00457542280047
0.0044248200968
0.0042552617433
0.00406969605336
0.00387120707781
0.00366345399333
0.00344804482657
0.00322874700081
0.00300840874144
0.00278962303012
0.00257476341984
0.00236590744344
0.00216479349144
0.00197279833156
0.00179093236235
0.00161985252456
0.00145988994357
0.00131108799921
0.00117324633289
0.00104596675519
0.000928697818693
0.000820775728044
0.000721460129534
0.000629964067
0.000545477992899
0.000467188114499
0.000394289600537
0.00032599519556
0.000261540166348
0.000200188664743
0.000141232250021
8.38790506433e-05
2.73723853307e-05
0.0050062122398
0.00506327588334
0.00506120052168
0.00502896599539
0.00497232253728
0.00488878584369
0.00477877160334
0.00464415172348
0.00448738871154
0.00431133016446
0.0041190072118
0.00391356293099
0.00369884268186
0.00347649719002
0.00325033101369
0.00302331424732
0.0027981513991
0.00257732298035
0.00236300363857
0.00215701154381
0.00196078119955
0.0017753567678
0.00160140551908
0.00143924790874
0.00128889926367
0.00115011792636
0.00102245530096
0.000905304207361
0.00079794301707
0.000699574019874
0.000609355304756
0.000526426084344
0.000449925835902
0.000379007873806
0.000312847995198
0.000250649170621
0.00019164722966
0.000135109737074
8.02304784687e-05
2.62121638132e-05
0.00508858799099
0.00514481868824
0.00514005645131
0.00510474214828
0.00504464939212
0.00495715334385
0.00484268375697
0.00470318234515
0.00454119320846
0.00435964278903
0.00416162090732
0.00395030295432
0.00372971541876
0.00350148065011
0.00326946246299
0.00303673322266
0.0028060929279
0.00258011792529
0.00236107192145
0.00215084733147
0.00195093315666
0.0017624062512
0.00158594518453
0.00142186256679
0.00127015009506
0.00113053051891
0.00100251147692
0.000885437284485
0.000778535968967
0.000680959931995
0.000591819528911
0.000510209538256
0.000435228981926
0.000365994999196
0.000301651503352
0.000241373635817
0.000184372846531
0.000129896092184
7.71251215864e-05
2.52271804769e-05
0.00515663371537
0.00521202933582
0.0052049072225
0.00516696095383
0.00510397220084
0.00501319322946
0.00489506385571
0.0047515818786
0.00458535526844
0.00439936961782
0.00419675177238
0.00398068664673
0.00375537870978
0.00352236891844
0.0032855858786
0.00304818715876
0.00281305176419
0.00258283812255
0.00235988759184
0.0021461579919
0.00194318679088
0.00175208041418
0.0015735284443
0.00140783794194
0.00125498146055
0.001114652362
0.000986321946664
0.000869294199761
0.000762755299604
0.000665816223128
0.000577547748187
0.000497007873582
0.000423262191566
0.000355397997801
0.000292532943687
0.000233819282743
0.000178448436422
0.00012565046807
7.45974618401e-05
2.44271846807e-05
0.00520899103368
0.00526364511206
0.00525461437451
0.00521458458431
0.0051493359617
0.00505602198154
0.00493508934586
0.00478857806327
0.00461914287534
0.00442981049687
0.00422372724934
0.00400407476335
0.00377521960872
0.00353859771251
0.00329819366722
0.00305723328841
0.00281865720765
0.00258518924938
0.00235923336684
0.00214280045956
0.00193746756848
0.00174436552678
0.00156419343848
0.0013972546426
0.0012435071495
0.00110262166681
0.000974041372658
0.000857039017809
0.000750768386941
0.00065430842818
0.000566699361076
0.000486970829975
0.000414162694755
0.00034733931298
0.000285598179559
0.00022807400471
0.000173942874266
0.00012242194152
7.26760319419e-05
2.38201350694e-05
0.00524455544081
0.0052986533307
0.00528827761401
0.00524680200441
0.00518000164656
0.00508496080477
0.00496213049505
0.00481357901562
0.00464199192395
0.00445042265775
0.00424202841939
0.00401998429293
0.00378875499803
0.0035497044407
0.0033068617174
0.00306349733485
0.00282259295221
0.00258691770591
0.00235891952189
0.00214064680627
0.00193370467275
0.00173924138298
0.00155796303257
0.00139017069415
0.00123581257472
0.00109454395376
0.000965788809068
0.00084879855993
0.000742704880652
0.000646564879174
0.0005593979611
0.000480214481599
0.000408036816344
0.000341913755484
0.000280929129634
0.00022420576878
0.000170909382078
0.000120248401536
7.13828133461e-05
2.34120951871e-05
0.00526254507813
0.00531634478519
0.00530527339327
0.00526305683449
0.00519546636161
0.0050995505863
0.00497576261116
0.00482618495368
0.00465351851595
0.00446083001751
0.00425128126655
0.00402804082283
0.00379561884512
0.00355535022897
0.00331128154679
0.00306670626896
0.0028246270214
0.00258783630723
0.00235880479164
0.0021396003188
0.00193184258106
0.00173668892315
0.00155484914005
0.00138662323751
0.00123195448473
0.00109049034269
0.000961645045236
0.000844659185167
0.000738653219742
0.000642673184068
0.000555727939014
0.000476818075245
0.000404957124485
0.000339186008406
0.000278581656126
0.000222260901031
0.000169384217103
0.000119155642911
7.07327476797e-05
2.32071527149e-05
0.00526255423817
0.00531635396584
0.00530528261712
0.00526306612226
0.00519547573101
0.00509956005017
0.00497577217641
0.00482619462049
0.00465352827727
0.00446083985669
0.00425129115541
0.0040280507549
0.00379562883421
0.00355536007588
0.00331129125815
0.00306671582621
0.00282463637711
0.00258784541619
0.00235881361494
0.00213960882434
0.00193185074363
0.00173669672356
0.00155485656394
0.00138663027418
0.001231961126
0.001090496582
0.00096165087699
0.00084466460427
0.000738658221411
0.000642677763773
0.000555732092493
0.00047682179856
0.000404960414078
0.000339188861162
0.000278584069503
0.000222262872513
0.00016938574339
0.000119156725336
7.07333925102e-05
2.32073645668e-05
0.0052445828319
0.00529868079176
0.00528830520658
0.00524682978902
0.00518002967581
0.00508498911701
0.00496215911116
0.00481360793642
0.00464202112706
0.00445045208783
0.00424205798067
0.00402001393416
0.00378878477039
0.00354973382893
0.00330689074263
0.00306352590942
0.00282262092658
0.00258694494172
0.00235894590308
0.00214067223814
0.00193372908079
0.0017392647102
0.00155798523614
0.00139019174192
0.00123583244195
0.0010945626205
0.00096580625818
0.000848814775811
0.000742719848645
0.00064657858537
0.00055941039244
0.000480225626058
0.000408046663048
0.000341922294909
0.000280936354027
0.000224211670463
0.00017091395108
0.000120251641803
7.13847435479e-05
2.34127291614e-05
0.00520903642604
0.00526369062558
0.00525466010915
0.00521463063861
0.00514938242169
0.00505606891008
0.00493513677728
0.00478862599805
0.00461919127399
0.00442985926407
0.00422377617066
0.00400412341333
0.0037752677754
0.00353864602192
0.00329824169916
0.00305728060632
0.00281870352417
0.0025852343402
0.00235927704284
0.00214284256697
0.00193750798615
0.00174440416145
0.00156423021945
0.0013972895162
0.00124354007395
0.001102652608
0.000974070300989
0.00085706590624
0.000750793210037
0.000654331161825
0.00056671998267
0.000486989318738
0.00041417903192
0.000347353482144
0.000285610167358
0.000228083798
0.000173950456182
0.000122427318403
7.26792345794e-05
2.382118642e-05
0.0051566967347
0.00521209253301
0.00520497073285
0.00516702491006
0.00510403671966
0.00501325839646
0.00489512971782
0.00475164843723
0.00458542247247
0.00439943734215
0.00419681975828
0.00398075449857
0.00375544637417
0.0035224362671
0.00328565258282
0.00304825280267
0.00281311599034
0.00258290063439
0.00235994813981
0.00214621637097
0.00194324283773
0.00175213400177
0.00157357947506
0.00140788634065
0.00125502716766
0.00111469532807
0.000986362128321
0.000869331557131
0.000762789795122
0.000665847821214
0.00057757641556
0.000497033579702
0.000423284908918
0.000355417702371
0.000292549615906
0.000233832903527
0.000178458981703
0.000125657946273
7.46019153926e-05
2.44286455378e-05
0.0050886681241
0.00514489906206
0.00514013723212
0.00510482349805
0.00504473145431
0.00495723622382
0.00484276751249
0.00470326697886
0.0045412786614
0.00435972891873
0.00416170745765
0.00395038963168
0.00372980215302
0.00350156664091
0.00326954731355
0.0030368166053
0.0028061744646
0.00258019726617
0.00236114876831
0.00215092143606
0.00195100431835
0.00176247431176
0.00158601002058
0.00142192408145
0.00127020821009
0.00113058516818
0.00100256260168
0.000885484830357
0.000778579884584
0.000681000168762
0.000591856041463
0.000510242285042
0.000435257925629
0.000366020107316
0.000301672749397
0.000241390994235
0.000184386285676
0.000129905622187
7.713079589e-05
2.5229039873e-05
0.00500630884385
0.00506337279635
0.00506129793613
0.00502906409678
0.00497242149088
0.00488888577019
0.00477887256754
0.00464425372535
0.00448749168137
0.00431143395997
0.00411911161567
0.00391366765351
0.00369894751958
0.00347660101433
0.00325043327997
0.00302341460507
0.00279824948247
0.00257741841167
0.00236309607717
0.00215710070247
0.00196086684376
0.00177543871017
0.00160148361121
0.0014393220319
0.00128896932002
0.00115018383172
0.00102251697952
0.000905361588449
0.000797996033774
0.000699622608927
0.000609399407173
0.000526465646232
0.000449960809017
0.000379038216256
0.000312873672851
0.000250670150931
0.000191663473104
0.000135121255075
8.02373346702e-05
2.62144077369e-05
0.00491115625614
0.00496896549219
0.00496978266009
0.00494097484839
0.00488824883257
0.00480927154035
0.00470443952523
0.00457554132522
0.0044249396987
0.00425538225947
0.00406981723989
0.00387132856091
0.00366357549886
0.00344816517734
0.00322886559129
0.00300852511356
0.00278973676045
0.00257487408506
0.00236601465861
0.00216489693096
0.00197289772856
0.00179102750176
0.00161994323375
0.00145997608195
0.00131116944873
0.00117332299012
0.00104603852581
0.000928764614138
0.000820837464192
0.000721516726851
0.000630015451442
0.000545524096955
0.000467228877946
0.000394324971282
0.000326025131233
0.000261564627028
0.000200207602861
0.000141245677912
8.38870412453e-05
2.7374996843e-05
0.00480485389155
0.00486325524167
0.00486706105232
0.00484193101304
0.00479350546845
0.00471960658838
0.00462060572305
0.00449819487822
0.00435461895151
0.00419250346906
0.00401468732011
0.00382416772145
0.00362442558705
0.00341691349311
0.00320541634319
0.00299263470372
0.00278103337525
0.00257287026281
0.00237012077921
0.0021744410008
0.00198714930085
0.00180922318995
0.0016413114941
0.00148375941624
0.00133664283375
0.00119980798245
0.00107291301167
0.000955468544608
0.000846875135469
0.000746456272197
0.000653486234476
0.000567212651268
0.000486873951848
0.000411712147501
0.000340981393045
0.000273953190967
0.000209923482913
0.000148210892564
8.8040154451e-05
2.86993888953e-05
0.0046890859614
0.00474788633604
0.00475468951383
0.00473340736204
0.00468959006148
0.00462121283428
0.00452861462708
0.00441337800448
0.00427761199947
0.00412379735246
0.00395463602273
0.00377301489974
0.00358226859514
0.00338350230624
0.00318065194516
0.00297621950958
0.00277252229749
0.00257169650065
0.00237561302453
0.00218584548651
0.0020036552211
0.00182998924592
0.00166549146925
0.00151052504281
0.00136520279448
0.00122942249158
0.00110290392687
0.000985225325981
0.000875857204336
0.00077419243821
0.000679571899202
0.000591305448861
0.000508688413857
0.000431013892511
0.000357581242236
0.000287701558405
0.000220705537389
0.000155941368407
9.26523562506e-05
3.01746397161e-05
0.00456552284917
0.0046245156122
0.00463426037259
0.0046169298452
0.00457796193453
0.00451547763887
0.00442977544954
0.00432231597326
0.00419505462083
0.00405030386034
0.00389059818349
0.00371869394166
0.00353786650073
0.00334856105573
0.00315511685252
0.00295973572903
0.00276456601796
0.00257162154257
0.00238266968298
0.00219920373516
0.00202243113659
0.00185327217181
0.00169236996562
0.00154011000426
0.00139664664298
0.00126193390952
0.00113575807358
0.00101776983808
0.000907514516124
0.00080445908971
0.000708015536868
0.000617560186731
0.00053244915988
0.000452030162196
0.000375650883172
0.000302664757168
0.000232439627321
0.000164355314956
9.76754794618e-05
3.17864294326e-05
0.00443577946734
0.00449476814544
0.00450735671598
0.00449403022109
0.00446009620016
0.00440381049348
0.00432542265658
0.00422625941063
0.00410810512041
0.0039730792698
0.00382351155607
0.00366194585183
0.00349138176782
0.00331262372738
0.00312933419233
0.00294362090251
0.00275750824583
0.00257289561612
0.0023914516692
0.00221459342606
0.00204347882497
0.00187900614466
0.00172182256512
0.00157234071689
0.00143076120117
0.00129709891452
0.00117121109141
0.00105282526389
0.000941565731404
0.000836977573626
0.000738547623653
0.000645722138983
0.000557921171811
0.000474549828264
0.000395006571484
0.000318689275744
0.00024500471335
0.000173365853979
0.000103058171826
3.35192178088e-05
0.00430138728
0.00436020418974
0.00437551547929
0.0043662066465
0.00433744326697
0.00428760310652
0.00421687846197
0.00412645135898
0.00401791945236
0.00389318940686
0.00375436207299
0.00360363045029
0.003443140731
0.00327631913981
0.00310386566754
0.00292831414365
0.00275168284075
0.00257575733365
0.00240210903068
0.00223208295211
0.00206679245611
0.00190711911941
0.00175371953899
0.00160703867662
0.00146732828463
0.00133466871665
0.00120899244481
0.00109010779655
0.00097772172961
0.000871460796445
0.000770889751278
0.000675527523379
0.000584860506893
0.000498353281568
0.000415456826092
0.000335614881157
0.000258274277038
0.000182882038484
0.000108746493969
3.5356406452e-05
0.00416378077223
0.00422229892319
0.00424020074067
0.00423489239543
0.00421139504263
0.00416819515278
0.00410541999416
0.00402409756193
0.00392562705161
0.00381169344939
0.00368417727445
0.00354504901988
0.00339635017055
0.00324077793999
0.00307933231106
0.00291426580461
0.00274742257277
0.00258044117313
0.00241478828247
0.00225173852709
0.00209236527583
0.00193753899047
0.00178793146825
0.00164402556846
0.00150612935044
0.00137439329864
0.00124882930397
0.00112933020071
0.00101568887729
0.000907616215104
0.000804757348124
0.000706705954717
0.000613016482249
0.000523214345521
0.000436804069899
0.000353275986354
0.000272117414214
0.000192809667079
0.00011468443642
3.728051835e-05
0.00402430144832
0.00408243938887
0.00410279197825
0.004101437439
0.0040832625082
0.00404685015726
0.00399225484809
0.00392034097631
0.00383229692205
0.00372956977601
0.00361379574443
0.00348671402608
0.00335014401741
0.00320629708795
0.00305617764296
0.00290187782547
0.00274504690846
0.00258717830372
0.00242963636879
0.00227362857145
0.00212019354362
0.00197019682957
0.00182433176809
0.0016831251588
0.00154694687638
0.00141602240449
0.00129044725778
0.00117020234389
0.00105516944906
0.000945146197349
0.000839860010311
0.000738980763199
0.000642131986707
0.000548900581737
0.000458844927993
0.000371501941207
0.000286399120548
0.000203051562034
0.000120814172214
3.92733443325e-05
0.00388421373416
0.00394193051459
0.00396457831503
0.00396709412146
0.0039542567641
0.0039247351407
0.00387850145878
0.00381624428199
0.00373892569874
0.00364773596288
0.00354404124288
0.00342931840157
0.00330514795542
0.0031734109304
0.00303486941917
0.00289154251053
0.00274486957434
0.0025962013536
0.00244680531025
0.00229782793006
0.00215028006468
0.00200502963466
0.00186279868125
0.00172416463281
0.00158956517234
0.00145930596266
0.00133357047766
0.00121243120721
0.00109586156736
0.000983747948326
0.000875901450897
0.000772068983676
0.000671943514409
0.000575173365435
0.000481370341985
0.000390117189223
0.000300980501251
0.000213507842219
0.000127076400911
4.13162467787e-05
0.00374469968651
0.00380194029053
0.00382667055096
0.00383291648182
0.00382538752514
0.00380282531569
0.00376510431006
0.00371271904973
0.00364638535846
0.00356701572056
0.00347568376224
0.00337357659733
0.00326202129586
0.00314270215284
0.00301588478235
0.00288367136065
0.00274723340206
0.00260777866663
0.00246648761207
0.00232445493763
0.0021826725339
0.00204201930829
0.0019032542304
0.0017670129367
0.0016338076291
0.0015040298571
0.00137795570534
0.00125575285234
0.00113748896587
0.00102314093157
0.000912604473528
0.000805703804501
0.000702201034155
0.000601805141592
0.000504180202966
0.000408953297286
0.000315728254072
0.000224082978416
0.000133415269469
4.33928113009e-05
0.003607108074
0.00366369429755
0.00369014311695
0.00369987547324
0.00369756711997
0.00368200198289
0.00365292580549
0.00361061001824
0.00355549768752
0.00348819939266
0.00340947245407
0.00332018426259
0.00322133296826
0.00311421441643
0.00299964920966
0.00287869339778
0.0027524955287
0.00262218714037
0.00248887958474
0.00235362775144
0.00221741490458
0.00208114071374
0.0019456103698
0.00181152625704
0.001679482605
0.00154996314198
0.00142334156215
0.0012998844426
0.0011797561994
0.00106302561706
0.000949673497535
0.000839601015894
0.000732638434461
0.000628553888733
0.000527061829984
0.000427831454217
0.000330501256714
0.000234676687088
0.000139774049778
4.54888418826e-05
0.00347415029196
0.00352995761141
0.0035576453654
0.00357046614472
0.00357315704054
0.0035645027543
0.00354406958877
0.00351186706202
0.00346803712194
0.00341286771011
0.00334678506535
0.00327032264252
0.0031840247949
0.00308821870025
0.00298664998015
0.00287688590999
0.00276069858499
0.00263926908012
0.00251364954134
0.00238486416511
0.00225389724698
0.00212167861648
0.00198906856637
0.00185684414444
0.00172568822881
0.00159618187355
0.00146879999375
0.0013439102242
0.00122177457765
0.00110255345561
0.000986311524536
0.000873024977166
0.000762589742177
0.000654830254541
0.000549508260718
0.000446331879902
0.000344970887314
0.000245054465084
0.000146014190854
4.75612240384e-05
0.00334624258124
0.00340005216945
0.00342811478849
0.00344354702023
0.00345108282231
0.00344940119305
0.00343778857769
0.00341593176713
0.00338363475381
0.00334084059349
0.00328763821141
0.00322425430008
0.00315103373047
0.00306851933929
0.00297808054368
0.00287894992552
0.00277249403277
0.00265967531594
0.00254144873244
0.00241880541278
0.0022927382113
0.00216421786428
0.00203417108693
0.0019034601964
0.0017728659109
0.00164307404434
0.00151466630937
0.00138811513285
0.00126378214996
0.00114191989908
0.00102267616325
0.000906100386478
0.000792151624737
0.000680707534071
0.000571573769952
0.000464493946099
0.000359165558092
0.000255237172312
0.000152157058786
4.96461499603e-05
0.00320693133702
0.00324868204346
0.00327331400817
0.00329066244324
0.00330394497921
0.00331118054343
0.00331097510465
0.00330246221137
0.00328495876863
0.00325794051279
0.00322104750236
0.00317408657194
0.0031170354968
0.00305024813852
0.00297501343758
0.00288860622411
0.0027936696542
0.00269095223996
0.00258125745332
0.0024655432735
0.002344832547
0.00222016920641
0.00209258473668
0.00196306762533
0.00183253722981
0.0017018228856
0.00157164848804
0.0014426224358
0.00131523253888
0.00118984529941
0.00106670886418
0.000945958918044
0.000827626823514
0.000711649371734
0.000597879489739
0.000486098261603
0.000376032175322
0.000267350783088
0.000159558009517
5.2395833308e-05
0.00334602817219
0.00339983710119
0.00342789818813
0.00344332817254
0.00345086127015
0.0034491766669
0.00343756094494
0.00341570096174
0.00338340070582
0.00334060316259
0.00328739712134
0.00322400911569
0.00315078404424
0.00306826607618
0.00297783548034
0.00287871409857
0.00277226706006
0.00265945679284
0.00254123842772
0.00241860325402
0.00229254423731
0.00216403218464
0.00203399385647
0.00190329160066
0.0017727061587
0.00164292336316
0.00151452494181
0.00138798333187
0.00126366017268
0.00114180799752
0.00102257457209
0.00090600930852
0.000792071218907
0.00068063790976
0.000571514989406
0.000464446045568
0.000359128566876
0.000255211014663
0.000152141582908
4.96411399576e-05
0.00350856370863
0.00357737176451
0.00360962747328
0.0036226764894
0.0036230804578
0.00361038217208
0.00358471460847
0.00354644831667
0.00349600108866
0.00343391225616
0.00336085159024
0.00327760226719
0.00318504620619
0.00308418093779
0.00297613511521
0.00286165117237
0.0027417230405
0.0026173927079
0.00248967628947
0.00235954503854
0.00222791164148
0.00209562098685
0.00196344145176
0.00183205711888
0.00170206162501
0.00157395398445
0.00144813652613
0.00132491493076
0.00120450021806
0.00108701244927
0.000972485851669
0.000860875051392
0.000752062102274
0.000645864005615
0.000542040156813
0.000440299571969
0.00034031480721
0.000241720528594
0.00014391501653
4.6569376531e-05
0.00365824489015
0.00373040339064
0.00376260657611
0.00377247869071
0.00376674701589
0.00374518186704
0.00370831278899
0.00365694386036
0.0035919447443
0.00351431845052
0.00342519573192
0.00332579803344
0.00321740118125
0.00310133075377
0.00297929819149