/*--------------------------------*- C++ -*----------------------------------*\
| =========                 |                                                 |
| \\      /  F ield         | OpenFOAM: The Open Source CFD Toolbox           |
|  \\    /   O peration     | Version:  2112                                  |
|   \\  /    A nd           | Website:  www.openfoam.com                      |
|    \\/     M anipulation  |                                                 |
\*---------------------------------------------------------------------------*/
FoamFile
{
    version     2.0;
    format      ascii;
    arch        "LSB;label=32;scalar=64";
    class       volScalarField;
    location    "7";
    object      p;
}
// * * * * * * * * * * * * * * * * * * * * * * * * * * * * * * * * * * * * * //

dimensions      [0 2 -2 0 0 0 0];

internalField   nonuniform List<scalar> 
16641
(
9.03638e-10
-1.66005e-06
-6.74018e-06
-1.42122e-05
-2.29557e-05
-3.21433e-05
-4.11589e-05
-4.95495e-05
-5.70016e-05
-6.33113e-05
-6.83528e-05
-7.2056e-05
-7.43926e-05
-7.53654e-05
-7.49994e-05
-7.33311e-05
-7.04014e-05
-6.62533e-05
-6.0929e-05
-5.4469e-05
-4.69095e-05
-3.82812e-05
-2.86077e-05
-1.79068e-05
-6.19118e-06
6.53157e-06
2.02587e-05
3.4993e-05
5.07419e-05
6.75161e-05
8.53287e-05
0.000104195
0.000124131
0.000145157
0.000167294
0.00019056
0.000214976
0.00024056
0.000267329
0.000295299
0.000324486
0.0003549
0.000386547
0.000419434
0.000453559
0.000488919
0.000525503
0.000563297
0.00060228
0.000642425
0.000683698
0.000726058
0.000769457
0.00081384
0.000859143
0.000905295
0.000952216
0.000999819
0.00104801
0.00109668
0.00114572
0.00119501
0.00124443
0.00129384
0.00134311
0.00139209
0.00144063
0.00148859
0.00153579
0.00158209
0.00162734
0.00167136
0.00171401
0.00175514
0.00179459
0.00183221
0.00186789
0.00190148
0.00193286
0.00196194
0.0019886
0.00201277
0.00203437
0.00205335
0.00206966
0.00208328
0.0020942
0.00210241
0.00210795
0.00211084
0.00211115
0.00210893
0.00210427
0.00209727
0.00208802
0.00207666
0.00206332
0.00204813
0.00203124
0.00201283
0.00199304
0.00197205
0.00195003
0.00192717
0.00190363
0.0018796
0.00185525
0.00183077
0.00180633
0.0017821
0.00175824
0.00173493
0.00171233
0.00169059
0.00166988
0.00165033
0.00163211
0.00161535
0.00160021
0.00158682
0.00157531
0.00156581
0.00155842
0.00155321
0.00155021
0.00154931
0.00155023
0.00155233
0.00155491
1.35816e-06
-3.02636e-07
-4.4719e-06
-1.04239e-05
-1.7372e-05
-2.47309e-05
-3.20145e-05
-3.88387e-05
-4.49191e-05
-5.00564e-05
-5.41175e-05
-5.70177e-05
-5.87096e-05
-5.91751e-05
-5.84177e-05
-5.64544e-05
-5.33102e-05
-4.90136e-05
-4.35941e-05
-3.7081e-05
-2.95009e-05
-2.08768e-05
-1.12274e-05
-5.66766e-07
1.10957e-05
2.37549e-05
3.74098e-05
5.20634e-05
6.7723e-05
8.43983e-05
0.000102101
0.000120847
0.000140649
0.000161527
0.000183498
0.00020658
0.00023079
0.000256146
0.000282662
0.000310352
0.000339229
0.000369301
0.000400574
0.00043305
0.000466728
0.000501602
0.00053766
0.000574887
0.00061326
0.000652751
0.000693327
0.000734945
0.00077756
0.000821114
0.000865545
0.000910782
0.000956748
0.00100336
0.00105051
0.00109812
0.00114607
0.00119423
0.00124251
0.00129075
0.00133884
0.00138662
0.00143396
0.00148071
0.00152672
0.00157184
0.00161592
0.0016588
0.00170033
0.00174038
0.00177878
0.00181542
0.00185015
0.00188286
0.00191342
0.00194174
0.00196772
0.00199129
0.00201236
0.0020309
0.00204685
0.0020602
0.00207093
0.00207906
0.00208459
0.00208757
0.00208805
0.00208609
0.00208178
0.0020752
0.00206646
0.00205568
0.00204298
0.00202851
0.00201242
0.00199484
0.00197595
0.00195591
0.00193489
0.00191306
0.00189059
0.00186766
0.00184444
0.0018211
0.00179782
0.00177476
0.00175208
0.00172994
0.0017085
0.00168791
0.00166831
0.00164985
0.00163267
0.00161689
0.00160264
0.00159004
0.00157919
0.00157019
0.0015631
0.00155796
0.00155473
0.00155332
0.00155346
0.00155491
0.00155749
6.07108e-06
3.52518e-06
-6.27314e-07
-6.01076e-06
-1.21235e-05
-1.8506e-05
-2.47742e-05
-3.06155e-05
-3.5786e-05
-4.01061e-05
-4.34505e-05
-4.5736e-05
-4.69122e-05
-4.6954e-05
-4.58543e-05
-4.36196e-05
-4.02651e-05
-3.58108e-05
-3.02791e-05
-2.3692e-05
-1.60692e-05
-7.42777e-06
2.21784e-06
1.28564e-05
2.44806e-05
3.70876e-05
5.06783e-05
6.52571e-05
8.08311e-05
9.74097e-05
0.000115005
0.000133629
0.0001533
0.000174032
0.000195843
0.00021875
0.000242768
0.000267913
0.000294199
0.00032164
0.000350244
0.000380021
0.000410975
0.000443106
0.000476414
0.000510889
0.000546521
0.000583293
0.000621183
0.000660161
0.000700195
0.000741241
0.000783255
0.000826179
0.000869953
0.000914507
0.000959763
0.00100564
0.00105204
0.00109887
0.00114602
0.00119338
0.00124082
0.00128823
0.00133547
0.00138241
0.00142891
0.00147481
0.00151998
0.00156427
0.00160753
0.00164961
0.00169037
0.00172966
0.00176735
0.00180329
0.00183737
0.00186946
0.00189945
0.00192724
0.00195274
0.00197587
0.00199657
0.00201477
0.00203046
0.00204359
0.00205417
0.00206219
0.00206769
0.00207069
0.00207124
0.00206941
0.00206529
0.00205895
0.00205051
0.00204008
0.00202779
0.00201376
0.00199816
0.00198112
0.00196281
0.00194338
0.00192301
0.00190186
0.0018801
0.0018579
0.00183544
0.00181288
0.00179039
0.00176813
0.00174626
0.00172494
0.0017043
0.00168451
0.0016657
0.00164799
0.00163153
0.00161643
0.00160281
0.00159075
0.00158037
0.00157172
0.00156486
0.00155981
0.00155653
0.00155495
0.00155489
0.00155635
0.00155959
1.33123e-05
9.2134e-06
4.4562e-06
-9.56261e-07
-6.79911e-06
-1.27089e-05
-1.83832e-05
-2.35809e-05
-2.81073e-05
-3.18128e-05
-3.45891e-05
-3.63633e-05
-3.70908e-05
-3.67473e-05
-3.53238e-05
-3.28221e-05
-2.92518e-05
-2.4628e-05
-1.89682e-05
-1.22897e-05
-4.60738e-06
4.06596e-06
1.37194e-05
2.43448e-05
3.59369e-05
4.8495e-05
6.20214e-05
7.65219e-05
9.20046e-05
0.000108479
0.000125957
0.000144451
0.000163979
0.000184555
0.000206196
0.000228918
0.000252736
0.000277666
0.00030372
0.000330911
0.000359249
0.00038874
0.000419388
0.000451196
0.000484158
0.000518268
0.000553513
0.000589877
0.000627338
0.000665866
0.000705429
0.000745984
0.000787486
0.000829879
0.000873104
0.00091709
0.000961763
0.00100704
0.00105283
0.00109903
0.00114555
0.00119227
0.00123907
0.00128582
0.00133241
0.0013787
0.00142454
0.0014698
0.00151433
0.00155799
0.00160064
0.00164212
0.00168229
0.00172102
0.00175816
0.00179359
0.00182717
0.00185879
0.00188835
0.00191574
0.00194087
0.00196366
0.00198406
0.002002
0.00201746
0.00203041
0.00204083
0.00204875
0.00205417
0.00205714
0.0020577
0.00205593
0.00205189
0.00204568
0.0020374
0.00202718
0.00201512
0.00200138
0.00198609
0.00196939
0.00195146
0.00193245
0.00191252
0.00189184
0.00187058
0.0018489
0.00182698
0.00180499
0.00178308
0.00176141
0.00174013
0.00171941
0.00169939
0.0016802
0.00166198
0.00164485
0.00162894
0.00161436
0.00160121
0.00158958
0.00157955
0.00157118
0.00156452
0.00155958
0.00155636
0.00155479
0.00155477
0.00155651
0.00156054
2.2048e-05
1.59939e-05
1.02946e-05
4.52842e-06
-1.35489e-06
-7.07365e-06
-1.23961e-05
-1.71473e-05
-2.11842e-05
-2.43923e-05
-2.66873e-05
-2.80116e-05
-2.833e-05
-2.76234e-05
-2.5885e-05
-2.31161e-05
-1.9325e-05
-1.45236e-05
-8.72579e-06
-1.94488e-06
5.80731e-06
1.45208e-05
2.41876e-05
3.48023e-05
4.63627e-05
5.88696e-05
7.23271e-05
8.67418e-05
0.000102123
0.000118481
0.000135828
0.000154177
0.000173545
0.000193948
0.000215402
0.000237923
0.000261525
0.000286224
0.000312032
0.000338961
0.000367021
0.000396218
0.000426556
0.000458037
0.000490655
0.000524405
0.000559273
0.000595244
0.000632294
0.000670397
0.000709518
0.000749617
0.000790649
0.000832559
0.000875288
0.000918767
0.000962923
0.00100767
0.00105293
0.0010986
0.00114457
0.00119074
0.00123699
0.0012832
0.00132924
0.00137499
0.0014203
0.00146503
0.00150904
0.0015522
0.00159434
0.00163534
0.00167505
0.00171333
0.00175004
0.00178505
0.00181824
0.00184949
0.0018787
0.00190576
0.00193059
0.0019531
0.00197325
0.00199096
0.00200622
0.00201899
0.00202927
0.00203707
0.0020424
0.0020453
0.00204582
0.00204404
0.00204002
0.00203386
0.00202566
0.00201554
0.00200362
0.00199005
0.00197495
0.00195848
0.0019408
0.00192207
0.00190245
0.00188211
0.00186121
0.00183992
0.00181841
0.00179684
0.00177537
0.00175417
0.00173336
0.00171312
0.00169359
0.00167489
0.00165715
0.0016405
0.00162504
0.00161089
0.00159813
0.00158685
0.00157712
0.001569
0.00156252
0.00155771
0.00155458
0.00155308
0.00155317
0.00155516
0.00155978
3.1413e-05
2.32463e-05
1.63989e-05
1.00515e-05
3.89724e-06
-1.85078e-06
-7.0218e-06
-1.15004e-05
-1.51905e-05
-1.80149e-05
-1.99169e-05
-2.08583e-05
-2.0816e-05
-1.97794e-05
-1.77462e-05
-1.47211e-05
-1.07136e-05
-5.73499e-06
2.03301e-07
7.09025e-06
1.49164e-05
2.36736e-05
3.33558e-05
4.39601e-05
5.54868e-05
6.79389e-05
8.13218e-05
9.56432e-05
0.000110913
0.000127143
0.000144346
0.000162537
0.000181732
0.000201947
0.000223199
0.000245504
0.000268877
0.000293332
0.000318882
0.000345539
0.000373314
0.000402213
0.00043224
0.000463395
0.000495675
0.000529073
0.000563578
0.000599174
0.000635838
0.000673543
0.000712258
0.000751942
0.00079255
0.000834029
0.00087632
0.000919358
0.000963068
0.00100737
0.00105218
0.00109739
0.00114292
0.00118864
0.00123445
0.00128023
0.00132584
0.00137116
0.00141605
0.00146038
0.001504
0.00154677
0.00158854
0.00162918
0.00166855
0.00170649
0.00174288
0.00177759
0.00181049
0.00184147
0.00187042
0.00189723
0.00192183
0.00194413
0.00196407
0.0019816
0.00199668
0.0020093
0.00201944
0.0020271
0.00203232
0.00203513
0.00203558
0.00203373
0.00202967
0.00202348
0.00201528
0.00200518
0.0019933
0.00197978
0.00196476
0.0019484
0.00193085
0.00191228
0.00189283
0.00187269
0.00185202
0.00183098
0.00180974
0.00178847
0.00176731
0.00174644
0.00172598
0.0017061
0.00168693
0.0016686
0.00165123
0.00163495
0.00161985
0.00160604
0.00159359
0.0015826
0.00157311
0.00156519
0.00155887
0.00155418
0.00155114
0.00154973
0.00154991
0.00155209
0.00155705
4.07291e-05
3.04221e-05
2.23196e-05
1.524e-05
8.64907e-06
2.70628e-06
-2.47069e-06
-6.81934e-06
-1.0287e-05
-1.28317e-05
-1.44249e-05
-1.50494e-05
-1.46974e-05
-1.33684e-05
-1.10678e-05
-7.80555e-06
-3.59375e-06
1.55534e-06
7.63035e-06
1.46213e-05
2.25199e-05
3.13194e-05
4.10155e-05
5.16071e-05
6.30965e-05
7.54885e-05
8.879e-05
0.00010301
0.000118159
0.00013425
0.000151298
0.000169318
0.000188326
0.000208341
0.000229378
0.000251454
0.000274585
0.000298785
0.000324068
0.000350447
0.000377932
0.00040653
0.000436245
0.000467078
0.000499028
0.000532086
0.000566244
0.000601485
0.000637789
0.000675129
0.000713473
0.000752784
0.000793016
0.000834118
0.000876033
0.000918695
0.000962032
0.00100597
0.00105041
0.00109526
0.00114044
0.00118582
0.00123129
0.00127674
0.00132203
0.00136705
0.00141165
0.00145569
0.00149904
0.00154155
0.00158308
0.00162348
0.00166261
0.00170034
0.00173653
0.00177104
0.00180376
0.00183456
0.00186334
0.00188999
0.00191443
0.00193658
0.00195637
0.00197376
0.0019887
0.00200118
0.00201119
0.00201873
0.00202383
0.00202652
0.00202685
0.00202489
0.00202073
0.00201446
0.00200617
0.001996
0.00198406
0.0019705
0.00195546
0.0019391
0.00192156
0.00190301
0.00188363
0.00186356
0.00184299
0.00182207
0.00180097
0.00177986
0.00175889
0.00173821
0.00171798
0.00169834
0.00167941
0.00166134
0.00164424
0.00162822
0.00161338
0.00159982
0.00158761
0.00157683
0.00156753
0.00155977
0.00155358
0.00154899
0.00154603
0.00154469
0.00154494
0.00154721
0.00155231
4.94389e-05
3.70388e-05
2.76466e-05
1.97496e-05
1.26144e-05
6.36173e-06
1.06506e-06
-3.26156e-06
-6.60571e-06
-8.95789e-06
-1.03161e-05
-1.06844e-05
-1.00711e-05
-8.48812e-06
-5.95044e-06
-2.47417e-06
1.92486e-06
7.23219e-06
1.34352e-05
2.05233e-05
2.84884e-05
3.73248e-05
4.70296e-05
5.76033e-05
6.90495e-05
8.13745e-05
9.45863e-05
0.000108695
0.000123714
0.000139656
0.000156537
0.000174373
0.000193183
0.000212984
0.000233794
0.00025563
0.000278508
0.000302444
0.000327452
0.000353546
0.000380737
0.000409032
0.000438437
0.000468953
0.00050058
0.000533311
0.000567137
0.000602045
0.000638013
0.000675018
0.000713028
0.000752006
0.000791909
0.000832687
0.000874283
0.000916634
0.000959668
0.00100331
0.00104746
0.00109205
0.00113696
0.00118209
0.00122733
0.00127256
0.00131765
0.00136247
0.00140688
0.00145076
0.00149395
0.00153632
0.00157772
0.001618
0.00165703
0.00169465
0.00173074
0.00176517
0.0017978
0.00182851
0.00185721
0.00188377
0.00190813
0.00193019
0.00194989
0.00196718
0.00198202
0.00199439
0.00200428
0.0020117
0.00201666
0.00201921
0.0020194
0.0020173
0.00201299
0.00200657
0.00199814
0.00198782
0.00197574
0.00196205
0.00194689
0.00193042
0.00191278
0.00189416
0.00187471
0.00185461
0.00183402
0.0018131
0.00179202
0.00177096
0.00175005
0.00172946
0.00170933
0.00168981
0.00167103
0.00165311
0.00163617
0.00162032
0.00160566
0.00159226
0.00158022
0.00156958
0.00156042
0.00155277
0.00154667
0.00154216
0.00153925
0.00153796
0.00153825
0.00154054
0.00154562
5.70823e-05
4.26757e-05
3.20042e-05
2.32529e-05
1.55114e-05
8.87333e-06
3.37657e-06
-1.0084e-06
-4.30572e-06
-6.53599e-06
-7.72198e-06
-7.88796e-06
-7.05888e-06
-5.26013e-06
-2.51667e-06
1.14825e-06
5.71409e-06
1.11633e-05
1.74811e-05
2.46554e-05
3.26775e-05
4.15421e-05
5.12474e-05
6.17953e-05
7.31903e-05
8.54398e-05
9.85528e-05
0.000112541
0.000127418
0.0001432
0.000159903
0.000177545
0.000196145
0.000215722
0.000236293
0.000257878
0.000280493
0.000304157
0.000328883
0.000354688
0.000381581
0.000409573
0.00043867
0.000468875
0.000500187
0.000532604
0.000566116
0.00060071
0.000636369
0.000673069
0.000710779
0.000749465
0.000789085
0.00082959
0.000870925
0.000913026
0.000955824
0.000999242
0.00104319
0.00108759
0.00113233
0.0011773
0.0012224
0.00126751
0.00131249
0.00135723
0.00140157
0.00144539
0.00148854
0.00153088
0.00157226
0.00161254
0.00165156
0.00168919
0.00172529
0.00175973
0.00179237
0.00182309
0.00185179
0.00187835
0.00190269
0.00192473
0.00194439
0.00196163
0.00197641
0.00198869
0.00199848
0.00200578
0.00201061
0.00201301
0.00201303
0.00201076
0.00200625
0.00199963
0.00199099
0.00198046
0.00196817
0.00195427
0.0019389
0.00192222
0.0019044
0.0018856
0.00186599
0.00184573
0.00182501
0.00180398
0.00178282
0.00176168
0.00174073
0.00172012
0.00169999
0.00168049
0.00166175
0.00164389
0.00162702
0.00161126
0.00159668
0.00158338
0.00157143
0.00156088
0.0015518
0.00154422
0.00153818
0.00153371
0.00153083
0.00152955
0.00152984
0.00153209
0.00153706
6.32784e-05
4.69671e-05
3.50517e-05
2.54412e-05
1.70652e-05
9.99691e-06
4.24512e-06
-2.5674e-07
-3.56579e-06
-5.73027e-06
-6.79599e-06
-6.80677e-06
-5.80406e-06
-3.82638e-06
-9.08558e-07
2.91859e-06
7.62897e-06
1.3201e-05
1.9617e-05
2.6863e-05
3.49295e-05
4.38111e-05
5.35067e-05
6.40186e-05
7.53525e-05
8.75164e-05
0.00010052
0.000114377
0.000129103
0.000144714
0.000161229
0.000178666
0.000197045
0.000216386
0.000236709
0.000258034
0.000280379
0.000303763
0.000328203
0.000353714
0.000380309
0.000407999
0.000436792
0.000466692
0.0004977
0.000529815
0.000563031
0.000597334
0.00063271
0.000669135
0.000706581
0.000745016
0.000784398
0.000824681
0.000865809
0.000907722
0.000950351
0.000993618
0.00103744
0.00108173
0.00112638
0.00117129
0.00121634
0.00126142
0.00130641
0.00135115
0.00139553
0.00143941
0.00148262
0.00152504
0.00156651
0.00160689
0.00164602
0.00168376
0.00171997
0.00175452
0.00178726
0.00181808
0.00184686
0.0018735
0.0018979
0.00191997
0.00193965
0.00195689
0.00197163
0.00198387
0.00199357
0.00200076
0.00200546
0.0020077
0.00200755
0.00200506
0.00200033
0.00199347
0.00198457
0.00197377
0.0019612
0.00194701
0.00193135
0.00191439
0.00189628
0.00187721
0.00185734
0.00183684
0.00181588
0.00179464
0.00177329
0.00175198
0.00173089
0.00171015
0.00168993
0.00167035
0.00165155
0.00163366
0.00161678
0.00160101
0.00158645
0.00157317
0.00156124
0.00155073
0.00154168
0.00153413
0.00152811
0.00152365
0.00152078
0.00151949
0.00151975
0.00152193
0.00152674
6.77021e-05
4.95928e-05
3.64823e-05
2.60274e-05
1.70115e-05
9.49075e-06
3.44989e-06
-1.20956e-06
-4.57388e-06
-6.71623e-06
-7.70416e-06
-7.60033e-06
-6.46183e-06
-4.33951e-06
-1.27786e-06
2.68478e-06
7.51629e-06
1.31904e-05
1.96858e-05
2.69867e-05
3.50827e-05
4.39681e-05
5.36416e-05
6.4106e-05
7.53673e-05
8.74344e-05
0.000100318
0.000114034
0.000128597
0.000144027
0.000160343
0.000177565
0.000195713
0.00021481
0.000234876
0.000255933
0.000278002
0.000301101
0.00032525
0.000350466
0.000376763
0.000404154
0.000432648
0.000462252
0.000492968
0.000524797
0.000557735
0.00059177
0.000626889
0.000663071
0.00070029
0.000738514
0.000777704
0.000817814
0.000858791
0.000900576
0.000943099
0.000986286
0.00103005
0.00107431
0.00111896
0.00116389
0.00120899
0.00125414
0.00129921
0.00134408
0.00138859
0.00143262
0.00147601
0.00151861
0.00156028
0.00160086
0.0016402
0.00167816
0.00171458
0.00174933
0.00178227
0.00181328
0.00184223
0.00186902
0.00189354
0.00191572
0.00193547
0.00195275
0.00196751
0.00197972
0.00198937
0.00199647
0.00200103
0.00200311
0.00200276
0.00200005
0.00199506
0.00198791
0.00197871
0.00196758
0.00195467
0.00194013
0.00192411
0.00190678
0.00188831
0.00186888
0.00184866
0.00182782
0.00180654
0.00178499
0.00176335
0.00174178
0.00172044
0.00169949
0.00167908
0.00165934
0.0016404
0.00162239
0.00160542
0.00158958
0.00157495
0.00156163
0.00154967
0.00153913
0.00153007
0.0015225
0.00151648
0.00151201
0.00150912
0.0015078
0.00150802
0.00151011
0.00151475
7.00668e-05
5.02671e-05
3.60187e-05
2.47457e-05
1.50983e-05
7.11895e-06
7.71044e-07
-4.07216e-06
-7.52254e-06
-9.67619e-06
-1.06211e-05
-1.04373e-05
-9.19613e-06
-6.9602e-06
-3.7834e-06
2.88428e-07
5.21698e-06
1.0971e-05
1.7526e-05
2.48639e-05
3.29731e-05
4.18474e-05
5.14852e-05
6.1889e-05
7.30653e-05
8.50236e-05
9.77765e-05
0.000111339
0.000125731
0.00014097
0.000157077
0.000174073
0.000191982
0.000210826
0.000230629
0.000251413
0.000273199
0.000296011
0.000319867
0.000344788
0.000370789
0.000397886
0.000426088
0.000455406
0.000485843
0.000517403
0.000550082
0.000583874
0.000618764
0.000654735
0.000691763
0.000729817
0.00076886
0.000808848
0.000849729
0.000891444
0.000933927
0.000977102
0.00102089
0.00106519
0.00110991
0.00115495
0.00120019
0.0012455
0.00129076
0.00133584
0.00138059
0.00142487
0.00146853
0.00151142
0.00155339
0.00159428
0.00163393
0.0016722
0.00170893
0.00174398
0.00177721
0.00180849
0.00183769
0.0018647
0.00188943
0.00191177
0.00193166
0.00194903
0.00196384
0.00197606
0.00198568
0.0019927
0.00199715
0.00199906
0.0019985
0.00199554
0.00199028
0.00198281
0.00197325
0.00196175
0.00194844
0.00193349
0.00191704
0.00189928
0.00188037
0.0018605
0.00183984
0.00181857
0.00179688
0.00177494
0.00175292
0.001731
0.00170934
0.00168808
0.0016674
0.00164741
0.00162825
0.00161005
0.00159291
0.00157692
0.00156217
0.00154874
0.0015367
0.00152609
0.00151696
0.00150935
0.00150329
0.00149879
0.00149586
0.00149451
0.00149467
0.00149668
0.00150118
7.01158e-05
4.87305e-05
3.34053e-05
2.13478e-05
1.1087e-05
2.6537e-06
-4.00762e-06
-9.04925e-06
-1.26066e-05
-1.47969e-05
-1.57268e-05
-1.54919e-05
-1.41768e-05
-1.1855e-05
-8.58955e-06
-4.43383e-06
5.67747e-07
6.37952e-06
1.29737e-05
2.033e-05
2.84353e-05
3.72826e-05
4.68697e-05
5.71991e-05
6.82774e-05
8.01149e-05
9.27252e-05
0.000106125
0.000120334
0.000135372
0.000151261
0.000168024
0.000185686
0.000204271
0.000223804
0.00024431
0.000265811
0.000288333
0.000311897
0.000336524
0.000362234
0.000389042
0.000416962
0.000446005
0.000476178
0.000507487
0.00053993
0.000573503
0.000608194
0.000643987
0.000680861
0.000718787
0.000757728
0.000797644
0.000838483
0.000880188
0.000922692
0.000965923
0.0010098
0.00105422
0.0010991
0.00114433
0.00118978
0.00123534
0.00128089
0.00132627
0.00137135
0.00141599
0.00146002
0.0015033
0.00154566
0.00158696
0.00162702
0.0016657
0.00170283
0.00173828
0.00177189
0.00180352
0.00183306
0.00186038
0.00188537
0.00190795
0.00192803
0.00194554
0.00196045
0.00197272
0.00198233
0.00198929
0.00199363
0.00199539
0.00199461
0.00199139
0.00198582
0.001978
0.00196806
0.00195614
0.00194239
0.00192696
0.00191002
0.00189175
0.00187233
0.00185194
0.00183077
0.001809
0.00178681
0.0017644
0.00174192
0.00171956
0.00169749
0.00167586
0.00165482
0.00163451
0.00161506
0.00159659
0.0015792
0.001563
0.00154807
0.00153448
0.0015223
0.00151158
0.00150235
0.00149466
0.00148854
0.00148398
0.00148102
0.00147962
0.00147974
0.00148168
0.00148608
6.76162e-05
4.47446e-05
2.84045e-05
1.56013e-05
4.75144e-06
-4.12356e-06
-1.10963e-05
-1.6343e-05
-2.0021e-05
-2.22667e-05
-2.32033e-05
-2.29411e-05
-2.15766e-05
-1.91937e-05
-1.58641e-05
-1.16486e-05
-6.59716e-06
-7.49486e-07
5.86355e-06
1.32194e-05
2.13034e-05
3.01074e-05
3.96285e-05
4.98691e-05
6.08361e-05
7.25406e-05
8.4997e-05
9.82231e-05
0.000112239
0.000127067
0.00014273
0.000159253
0.000176661
0.000194981
0.00021424
0.000234464
0.000255679
0.000277911
0.000301184
0.000325522
0.000350945
0.000377473
0.000405121
0.000433903
0.000463829
0.000494906
0.000527136
0.000560517
0.000595039
0.000630689
0.000667446
0.000705285
0.000744171
0.000784064
0.000824916
0.000866668
0.000909257
0.000952608
0.00099664
0.00104126
0.00108637
0.00113187
0.00117763
0.00122353
0.00126944
0.00131522
0.00136073
0.00140581
0.00145031
0.00149407
0.00153694
0.00157874
0.00161931
0.00165849
0.00169612
0.00173205
0.00176613
0.00179821
0.00182816
0.00185586
0.0018812
0.00190407
0.0019244
0.00194212
0.00195717
0.00196952
0.00197916
0.00198609
0.00199033
0.00199192
0.00199094
0.00198745
0.00198155
0.00197336
0.001963
0.00195061
0.00193636
0.00192041
0.00190292
0.00188408
0.00186408
0.00184311
0.00182135
0.001799
0.00177624
0.00175327
0.00173026
0.00170739
0.00168483
0.00166274
0.00164127
0.00162057
0.00160076
0.00158195
0.00156427
0.00154779
0.00153262
0.00151882
0.00150645
0.00149557
0.00148622
0.00147843
0.00147221
0.00146759
0.00146458
0.00146314
0.00146323
0.00146515
0.00146949
6.23546e-05
3.80893e-05
2.07953e-05
7.28789e-06
-4.12238e-06
-1.34218e-05
-2.06987e-05
-2.61519e-05
-2.99588e-05
-3.22729e-05
-3.3233e-05
-3.29626e-05
-3.15697e-05
-2.91477e-05
-2.57767e-05
-2.15239e-05
-1.64443e-05
-1.05816e-05
-3.9695e-06
3.36731e-06
1.14125e-05
2.01567e-05
2.95963e-05
3.97336e-05
5.05761e-05
6.21355e-05
7.44269e-05
8.74689e-05
0.000101283
0.000115892
0.000131322
0.000147597
0.000164746
0.000182797
0.000201779
0.00022172
0.000242648
0.000264591
0.000287576
0.000311629
0.000336774
0.000363031
0.00039042
0.000418956
0.000448653
0.000479519
0.00051156
0.000544776
0.00057916
0.0006147
0.00065138
0.000689174
0.000728051
0.000767971
0.000808888
0.000850745
0.000893479
0.000937017
0.000981275
0.00102616
0.00107158
0.00111742
0.00116357
0.00120989
0.00125625
0.00130252
0.00134854
0.00139417
0.00143923
0.00148358
0.00152703
0.00156943
0.0016106
0.00165039
0.00168861
0.00172512
0.00175976
0.00179237
0.00182282
0.00185098
0.00187673
0.00189997
0.00192061
0.00193858
0.00195382
0.0019663
0.001976
0.00198292
0.00198708
0.00198853
0.00198733
0.00198356
0.00197732
0.00196873
0.00195792
0.00194504
0.00193024
0.00191371
0.00189562
0.00187616
0.00185551
0.00183388
0.00181147
0.00178846
0.00176506
0.00174146
0.00171784
0.00169439
0.00167127
0.00164866
0.0016267
0.00160553
0.00158528
0.00156608
0.00154804
0.00153124
0.00151578
0.00150172
0.00148913
0.00147805
0.00146854
0.00146061
0.0014543
0.0014496
0.00144654
0.00144507
0.00144515
0.00144708
0.00145145
5.41334e-05
2.85619e-05
1.03724e-05
-3.79778e-06
-1.57375e-05
-2.54412e-05
-3.30119e-05
-3.86691e-05
-4.26084e-05
-4.49999e-05
-4.59962e-05
-4.57332e-05
-4.43297e-05
-4.18884e-05
-3.84966e-05
-3.42271e-05
-2.91397e-05
-2.32817e-05
-1.66895e-05
-9.38991e-06
-1.40084e-06
7.2671e-06
1.66099e-05
2.66298e-05
3.73348e-05
4.87371e-05
6.08525e-05
7.37006e-05
8.73039e-05
0.000101687
0.000116875
0.000132898
0.000149782
0.000167561
0.000186263
0.000205921
0.000226563
0.00024822
0.000270922
0.000294698
0.000319572
0.00034557
0.000372713
0.000401019
0.000430506
0.000461184
0.000493061
0.00052614
0.000560417
0.000595883
0.000632523
0.000670315
0.000709228
0.000749224
0.000790259
0.000832277
0.000875216
0.000919002
0.000963553
0.00100878
0.00105458
0.00110084
0.00114745
0.00119427
0.00124117
0.00128801
0.00133464
0.00138089
0.00142661
0.00147163
0.00151577
0.00155886
0.00160073
0.00164121
0.00168012
0.0017173
0.00175258
0.00178581
0.00181685
0.00184555
0.00187179
0.00189547
0.00191649
0.00193477
0.00195025
0.0019629
0.00197269
0.00197963
0.00198374
0.00198505
0.00198364
0.00197959
0.00197299
0.00196398
0.0019527
0.00193928
0.00192391
0.00190675
0.001888
0.00186785
0.0018465
0.00182415
0.00180101
0.00177728
0.00175317
0.00172887
0.00170458
0.00168047
0.00165673
0.00163352
0.001611
0.00158931
0.00156857
0.00154892
0.00153046
0.00151329
0.00149748
0.00148312
0.00147027
0.00145897
0.00144927
0.00144119
0.00143476
0.00142998
0.00142687
0.00142539
0.00142549
0.00142747
0.00143193
4.27687e-05
1.59729e-05
-3.05681e-06
-1.78489e-05
-3.02871e-05
-4.03739e-05
-4.82258e-05
-5.40812e-05
-5.81535e-05
-6.06276e-05
-6.16697e-05
-6.14272e-05
-6.00289e-05
-5.75857e-05
-5.41914e-05
-4.99243e-05
-4.48479e-05
-3.90131e-05
-3.24589e-05
-2.52141e-05
-1.72981e-05
-8.72242e-06
5.08669e-07
1.03975e-05
2.09524e-05
3.21859e-05
4.41148e-05
5.67593e-05
7.01433e-05
8.42923e-05
9.92339e-05
0.000114998
0.000131615
0.000149118
0.000167541
0.000186914
0.000207273
0.000228648
0.000251073
0.000274577
0.000299192
0.000324942
0.000351853
0.000379947
0.000409243
0.000439755
0.000471494
0.000504465
0.000538667
0.000574094
0.000610733
0.000648563
0.000687556
0.000727677
0.000768881
0.000811114
0.000854315
0.00089841
0.000943318
0.000988947
0.0010352
0.00108195
0.0011291
0.0011765
0.00122402
0.00127152
0.00131883
0.0013658
0.00141226
0.00145804
0.00150296
0.00154684
0.0015895
0.00163077
0.00167045
0.00170839
0.00174441
0.00177835
0.00181005
0.00183938
0.00186619
0.00189038
0.00191184
0.0019305
0.00194628
0.00195915
0.00196908
0.00197607
0.00198014
0.00198134
0.00197973
0.00197539
0.00196844
0.00195899
0.0019472
0.00193322
0.00191722
0.0018994
0.00187994
0.00185904
0.00183693
0.0018138
0.00178987
0.00176536
0.00174047
0.00171541
0.00169037
0.00166555
0.00164112
0.00161726
0.00159411
0.00157183
0.00155055
0.0015304
0.00151147
0.00149387
0.00147769
0.00146299
0.00144984
0.00143829
0.00142837
0.00142013
0.00141357
0.00140871
0.00140555
0.00140408
0.00140422
0.00140629
0.00141092
2.80869e-05
1.43759e-07
-1.96731e-05
-3.50486e-05
-4.79549e-05
-5.84028e-05
-6.65217e-05
-7.2568e-05
-7.67714e-05
-7.93314e-05
-8.04268e-05
-8.02159e-05
-7.88365e-05
-7.64068e-05
-7.30265e-05
-6.87787e-05
-6.37309e-05
-5.79368e-05
-5.14377e-05
-4.42646e-05
-3.64381e-05
-2.79701e-05
-1.8865e-05
-9.12055e-06
1.27183e-06
1.23253e-05
2.40573e-05
3.64891e-05
4.96455e-05
6.35536e-05
7.82424e-05
9.37434e-05
0.00011009
0.000127316
0.000145458
0.000164549
0.000184626
0.000205724
0.000227877
0.00025112
0.000275484
0.000301
0.000327695
0.000355594
0.000384719
0.000415088
0.000446714
0.000479605
0.000513763
0.000549185
0.000585859
0.000623767
0.000662884
0.000703175
0.000744597
0.000787097
0.000830615
0.000875077
0.000920401
0.000966497
0.00101326
0.00106058
0.00110833
0.00115639
0.00120461
0.00125284
0.00130092
0.00134869
0.00139597
0.0014426
0.00148839
0.00153314
0.00157669
0.00161883
0.00165939
0.00169819
0.00173503
0.00176977
0.00180223
0.00183226
0.00185973
0.00188451
0.00190649
0.00192559
0.00194174
0.00195488
0.00196499
0.00197208
0.00197615
0.00197725
0.00197545
0.00197083
0.00196351
0.00195362
0.0019413
0.00192673
0.00191007
0.00189154
0.00187132
0.00184963
0.0018267
0.00180273
0.00177796
0.00175259
0.00172686
0.00170097
0.00167513
0.00164953
0.00162435
0.00159977
0.00157594
0.00155302
0.00153115
0.00151043
0.001491
0.00147293
0.00145633
0.00144126
0.00142778
0.00141594
0.0014058
0.00139736
0.00139067
0.00138572
0.00138253
0.00138108
0.00138129
0.0013835
0.00138837
9.92419e-06
-1.90938e-05
-3.96481e-05
-5.55703e-05
-6.89153e-05
-7.97021e-05
-8.8073e-05
-9.43016e-05
-9.86333e-05
-0.000101281
-0.000102436
-0.000102266
-0.000100918
-9.85148e-05
-9.51634e-05
-9.09507e-05
-8.59476e-05
-8.02106e-05
-7.37834e-05
-6.66982e-05
-5.89766e-05
-5.0631e-05
-4.1666e-05
-3.20789e-05
-2.18611e-05
-1.09987e-05
5.26417e-07
1.27364e-05
2.56573e-05
3.93176e-05
5.37481e-05
6.8982e-05
8.50544e-05
0.000102002
0.000119863
0.000138673
0.000158472
0.000179297
0.000201185
0.000224174
0.000248298
0.000273592
0.000300085
0.000327806
0.00035678
0.000387028
0.000418565
0.000451403
0.000485548
0.000520996
0.000557741
0.000595766
0.000635047
0.000675551
0.000717237
0.000760054
0.000803939
0.000848821
0.000894619
0.000941239
0.000988579
0.00103653
0.00108495
0.00113373
0.00118271
0.00123175
0.00128068
0.00132932
0.00137752
0.00142508
0.00147181
0.00151754
0.00156205
0.00160517
0.00164669
0.00168643
0.00172421
0.00175983
0.00179314
0.00182397
0.00185218
0.00187764
0.00190022
0.00191984
0.00193642
0.0019499
0.00196025
0.00196747
0.00197158
0.00197262
0.00197065
0.00196577
0.00195808
0.00194774
0.00193488
0.00191968
0.00190234
0.00188306
0.00186204
0.00183951
0.0018157
0.00179083
0.00176515
0.00173888
0.00171225
0.00168547
0.00165876
0.00163231
0.00160632
0.00158097
0.00155641
0.0015328
0.00151027
0.00148896
0.00146897
0.0014504
0.00143334
0.00141786
0.00140402
0.00139188
0.00138148
0.00137284
0.001366
0.00136097
0.00135776
0.00135634
0.00135665
0.00135904
0.00136423
-1.1874e-05
-4.18994e-05
-6.3144e-05
-7.95774e-05
-9.33328e-05
-0.000104437
-0.000113045
-0.000119447
-0.000123904
-0.000126641
-0.000127861
-0.00012774
-0.000126432
-0.000124069
-0.00012076
-0.000116597
-0.000111653
-0.000105989
-9.96499e-05
-9.26682e-05
-8.50664e-05
-7.68574e-05
-6.80459e-05
-5.8629e-05
-4.85977e-05
-3.79374e-05
-2.66294e-05
-1.46503e-05
-1.97301e-06
1.14327e-05
2.55993e-05
4.05616e-05
5.6357e-05
7.30244e-05
9.06035e-05
0.000109134
0.000128657
0.000149213
0.000170842
0.000193585
0.00021748
0.000242563
0.000268868
0.000296427
0.000325268
0.000355415
0.000386886
0.000419697
0.000453855
0.000489361
0.000526209
0.000564384
0.000603866
0.000644624
0.000686616
0.000729792
0.000774091
0.000819442
0.000865763
0.000912961
0.000960933
0.00100956
0.00105873
0.00110829
0.0011581
0.00120801
0.00125785
0.00130745
0.00135663
0.0014052
0.00145297
0.00149974
0.00154531
0.00158949
0.00163207
0.00167286
0.00171165
0.00174827
0.00178252
0.00181425
0.0018433
0.00186952
0.00189279
0.00191302