/*--------------------------------*- C++ -*----------------------------------*\
| =========                 |                                                 |
| \\      /  F ield         | OpenFOAM: The Open Source CFD Toolbox           |
|  \\    /   O peration     | Version:  2112                                  |
|   \\  /    A nd           | Website:  www.openfoam.com                      |
|    \\/     M anipulation  |                                                 |
\*---------------------------------------------------------------------------*/
FoamFile
{
    version     2.0;
    format      ascii;
    arch        "LSB;label=32;scalar=64";
    class       surfaceScalarField;
    location    "7";
    object      phi;
}
// * * * * * * * * * * * * * * * * * * * * * * * * * * * * * * * * * * * * * //

dimensions      [0 3 -1 0 0 0 0];

oriented        oriented;

internalField   nonuniform List<scalar> 
33024
(
4.97046e-09
-4.9704e-09
1.01091e-08
-5.13857e-09
1.05438e-08
-4.34917e-10
4.64296e-09
5.90035e-09
-7.80309e-09
1.2446e-08
-2.6375e-08
1.85718e-08
-5.03725e-08
2.39974e-08
-7.9014e-08
2.86415e-08
-1.11536e-07
3.25218e-08
-1.47235e-07
3.5699e-08
-1.85487e-07
3.82518e-08
-2.25751e-07
4.02642e-08
-2.67569e-07
4.18178e-08
-3.10558e-07
4.29888e-08
-3.54403e-07
4.38457e-08
-3.98852e-07
4.44491e-08
-4.43704e-07
4.48518e-08
-4.88802e-07
4.50978e-08
-5.34025e-07
4.52235e-08
-5.79285e-07
4.52595e-08
-6.24514e-07
4.52296e-08
-6.69667e-07
4.51525e-08
-7.14709e-07
4.50426e-08
-7.59619e-07
4.49098e-08
-8.0438e-07
4.47609e-08
-8.4898e-07
4.45999e-08
-8.93408e-07
4.44289e-08
-9.37656e-07
4.42476e-08
-9.81711e-07
4.40544e-08
-1.02556e-06
4.38462e-08
-1.06918e-06
4.36193e-08
-1.11254e-06
4.33689e-08
-1.15564e-06
4.30901e-08
-1.19841e-06
4.27772e-08
-1.24084e-06
4.2424e-08
-1.28286e-06
4.20242e-08
-1.32443e-06
4.15716e-08
-1.36549e-06
4.10596e-08
-1.40597e-06
4.04819e-08
-1.44581e-06
3.98319e-08
-1.48491e-06
3.91032e-08
-1.5232e-06
3.82898e-08
-1.56058e-06
3.73854e-08
-1.59697e-06
3.63845e-08
-1.63225e-06
3.52816e-08
-1.66632e-06
3.40715e-08
-1.69907e-06
3.27495e-08
-1.73038e-06
3.13115e-08
-1.76014e-06
2.97539e-08
-1.78821e-06
2.80739e-08
-1.81448e-06
2.62692e-08
-1.83882e-06
2.43382e-08
-1.8611e-06
2.22804e-08
-1.88119e-06
2.00959e-08
-1.89898e-06
1.77861e-08
-1.91433e-06
1.53531e-08
-1.92713e-06
1.28005e-08
-1.93727e-06
1.01325e-08
-1.94462e-06
7.35475e-09
-1.9491e-06
4.47407e-09
-1.95059e-06
1.49849e-09
-1.94903e-06
-1.5634e-09
-1.94433e-06
-4.70053e-09
-1.93643e-06
-7.90202e-09
-1.92527e-06
-1.11552e-08
-1.91083e-06
-1.44466e-08
-1.89307e-06
-1.77616e-08
-1.87198e-06
-2.1085e-08
-1.84758e-06
-2.44006e-08
-1.81989e-06
-2.76916e-08
-1.78895e-06
-3.09407e-08
-1.75482e-06
-3.41303e-08
-1.71757e-06
-3.72424e-08
-1.67732e-06
-4.02592e-08
-1.63415e-06
-4.31629e-08
-1.58822e-06
-4.59358e-08
-1.53966e-06
-4.8561e-08
-1.48863e-06
-5.1022e-08
-1.43533e-06
-5.33033e-08
-1.37994e-06
-5.53904e-08
-1.32267e-06
-5.72699e-08
-1.26374e-06
-5.89295e-08
-1.20338e-06
-6.03588e-08
-1.14183e-06
-6.15487e-08
-1.07934e-06
-6.24919e-08
-1.01616e-06
-6.31825e-08
-9.5254e-07
-6.3617e-08
-8.88747e-07
-6.37932e-08
-8.25036e-07
-6.37111e-08
-7.61664e-07
-6.33724e-08
-6.98883e-07
-6.27804e-08
-6.36943e-07
-6.19402e-08
-5.76084e-07
-6.08587e-08
-5.1654e-07
-5.95441e-08
-4.58534e-07
-5.80061e-08
-4.02279e-07
-5.62553e-08
-3.47975e-07
-5.43036e-08
-2.95811e-07
-5.21638e-08
-2.45962e-07
-4.98493e-08
-1.98588e-07
-4.7374e-08
-1.53835e-07
-4.47525e-08
-1.11836e-07
-4.19992e-08
-7.27075e-08
-3.91288e-08
-3.65516e-08
-3.61559e-08
-3.45622e-09
-3.30954e-08
2.65059e-08
-2.99623e-08
5.32757e-08
-2.677e-08
7.68084e-08
-2.35329e-08
9.70723e-08
-2.02642e-08
1.14052e-07
-1.69803e-08
1.27747e-07
-1.36945e-08
1.38169e-07
-1.04223e-08
1.45349e-07
-7.18016e-09
1.49335e-07
-3.98618e-09
1.50197e-07
-8.61525e-10
1.48027e-07
2.17034e-09
1.42948e-07
5.07911e-09
1.35119e-07
7.82929e-09
1.24744e-07
1.03753e-08
1.12084e-07
1.26591e-08
9.74788e-08
1.46053e-08
8.13638e-08
1.61149e-08
6.43081e-08
1.70558e-08
4.70569e-08
1.72513e-08
3.05878e-08
1.64691e-08
1.61644e-08
1.44234e-08
5.36855e-09
1.07959e-08
-5.91397e-11
5.42768e-09
-5.90165e-11
5.12164e-09
-1.0092e-08
5.77549e-09
-5.79246e-09
-4.9933e-09
1.03339e-08
-3.03041e-08
3.12113e-08
-7.10156e-08
5.31575e-08
-1.2659e-07
7.41457e-08
-1.95763e-07
9.31702e-08
-2.76943e-07
1.09821e-07
-3.68443e-07
1.24022e-07
-4.68621e-07
1.35878e-07
-5.75956e-07
1.45587e-07
-6.89085e-07
1.53393e-07
-8.06814e-07
1.59547e-07
-9.28122e-07
1.64297e-07
-1.05215e-06
1.67874e-07
-1.17819e-06
1.70485e-07
-1.30565e-06
1.72314e-07
-1.43407e-06
1.73519e-07
-1.56308e-06
1.74233e-07
-1.69239e-06
1.74569e-07
-1.82177e-06
1.74615e-07
-1.95106e-06
1.74443e-07
-2.08013e-06
1.74109e-07
-2.20887e-06
1.73652e-07
-2.33721e-06
1.73101e-07
-2.46509e-06
1.72475e-07
-2.59244e-06
1.71783e-07
-2.71922e-06
1.71026e-07
-2.84537e-06
1.70202e-07
-2.97082e-06
1.69301e-07
-3.09551e-06
1.68311e-07
-3.21936e-06
1.67217e-07
-3.34227e-06
1.66001e-07
-3.46414e-06
1.64643e-07
-3.58484e-06
1.63122e-07
-3.70423e-06
1.61416e-07
-3.82216e-06
1.59502e-07
-3.93846e-06
1.57358e-07
-4.05293e-06
1.54959e-07
-4.16538e-06
1.52283e-07
-4.27559e-06
1.49307e-07
-4.38331e-06
1.46009e-07
-4.48829e-06
1.42368e-07
-4.59027e-06
1.38362e-07
-4.68896e-06
1.33974e-07
-4.78407e-06
1.29184e-07
-4.8753e-06
1.23978e-07
-4.96233e-06
1.1834e-07
-5.04483e-06
1.12258e-07
-5.12248e-06
1.05724e-07
-5.19494e-06
9.87298e-08
-5.26188e-06
9.12714e-08
-5.32295e-06
8.33481e-08
-5.37781e-06
7.49622e-08
-5.42615e-06
6.61196e-08
-5.46762e-06
5.68301e-08
-5.50193e-06
4.71073e-08
-5.52877e-06
3.69691e-08
-5.54785e-06
2.64372e-08
-5.55891e-06
1.55376e-08
-5.56171e-06
4.30061e-09
-5.55604e-06
-7.23888e-09
-5.5417e-06
-1.90431e-08
-5.51853e-06
-3.10689e-08
-5.48642e-06
-4.32699e-08
-5.44527e-06
-5.55961e-08
-5.39503e-06
-6.79943e-08
-5.33571e-06
-8.0408e-08
-5.26733e-06
-9.27787e-08
-5.18998e-06
-1.05045e-07
-5.10378e-06
-1.17144e-07
-5.00889e-06
-1.29013e-07
-4.90555e-06
-1.40585e-07
-4.79401e-06
-1.51798e-07
-4.67459e-06
-1.62587e-07
-4.54763e-06
-1.72888e-07
-4.41355e-06
-1.82642e-07
-4.27279e-06
-1.91789e-07
-4.12581e-06
-2.00274e-07
-3.97316e-06
-2.08046e-07
-3.81537e-06
-2.15055e-07
-3.65304e-06
-2.21259e-07
-3.48678e-06
-2.2662e-07
-3.31722e-06
-2.31107e-07
-3.14503e-06
-2.34692e-07
-2.97085e-06
-2.37355e-07
-2.79539e-06
-2.39082e-07
-2.61932e-06
-2.39866e-07
-2.44332e-06
-2.39706e-07
-2.26809e-06
-2.38607e-07
-2.09428e-06
-2.36582e-07
-1.92258e-06
-2.33647e-07
-1.75361e-06
-2.29825e-07
-1.58801e-06
-2.25146e-07
-1.42637e-06
-2.19643e-07
-1.26927e-06
-2.13353e-07
-1.11726e-06
-2.06317e-07
-9.70843e-07
-1.98581e-07
-8.30501e-07
-1.90191e-07
-6.96678e-07
-1.81197e-07
-5.69781e-07
-1.7165e-07
-4.5018e-07
-1.616e-07
-3.38207e-07
-1.51101e-07
-2.34158e-07
-1.40206e-07
-1.38287e-07
-1.28967e-07
-5.08127e-08
-1.17436e-07
2.80849e-08
-1.05668e-07
9.82671e-08
-9.37154e-08
1.59627e-07
-8.16241e-08
2.12107e-07
-6.94603e-08
2.55686e-07
-5.72741e-08
2.90391e-07
-4.51268e-08
3.16295e-07
-3.30839e-08
3.33527e-07
-2.1218e-08
3.42278e-07
-9.61183e-09
3.42813e-07
1.63509e-09
3.3548e-07
1.24128e-08
3.20734e-07
2.25752e-08
2.99157e-07
3.19517e-08
2.7149e-07
4.03264e-08
2.38666e-07
4.74289e-08
2.01863e-07
5.29184e-08
1.62552e-07
5.63666e-08
1.22562e-07
5.72418e-08
8.4121e-08
5.491e-08
4.98594e-08
4.86851e-08
2.2685e-08
3.79707e-08
5.39672e-09
2.27162e-08
5.33775e-09
4.90788e-10
-1.0583e-08
-1.04379e-08
5.13577e-09
-3.93564e-08
3.92524e-08
-8.94258e-08
8.12807e-08
-1.61518e-07
1.2525e-07
-2.55001e-07
1.67628e-07
-3.68307e-07
2.06477e-07
-4.99381e-07
2.40894e-07
-6.45965e-07
2.70606e-07
-8.05798e-07
2.95711e-07
-9.76734e-07
3.16523e-07
-1.1568e-06
3.33462e-07
-1.34425e-06
3.46997e-07
-1.53755e-06
3.57598e-07
-1.73539e-06
3.65714e-07
-1.93667e-06
3.71761e-07
-2.14046e-06
3.76107e-07
-2.34602e-06
3.79076e-07
-2.55273e-06
3.80946e-07
-2.76011e-06
3.81947e-07
-2.96777e-06
3.82272e-07
-3.1754e-06
3.82072e-07
-3.38275e-06
3.81467e-07
-3.58965e-06
3.80546e-07
-3.79592e-06
3.79374e-07
-4.00144e-06
3.77992e-07
-4.20608e-06
3.76424e-07
-4.40973e-06
3.74679e-07
-4.61228e-06
3.72752e-07
-4.81361e-06
3.70627e-07
-5.01358e-06
3.68282e-07
-5.21205e-06
3.65685e-07
-5.40885e-06
3.62802e-07
-5.6038e-06
3.59592e-07
-5.79669e-06
3.56012e-07
-5.98729e-06
3.52017e-07
-6.17535e-06
3.47559e-07
-6.36058e-06
3.42593e-07
-6.54269e-06
3.37069e-07
-6.72135e-06
3.30939e-07
-6.8962e-06
3.24158e-07
-7.06687e-06
3.16679e-07
-7.23296e-06
3.08459e-07
-7.39405e-06
2.99455e-07
-7.54971e-06
2.89628e-07
-7.69947e-06
2.78943e-07
-7.84285e-06
2.67367e-07
-7.97939e-06
2.54872e-07
-8.10856e-06
2.41435e-07
-8.22988e-06
2.27037e-07
-8.34281e-06
2.11666e-07
-8.44686e-06
1.95315e-07
-8.54149e-06
1.77986e-07
-8.62622e-06
1.59685e-07
-8.70052e-06
1.40428e-07
-8.76393e-06
1.20237e-07
-8.81597e-06
9.91451e-08
-8.85619e-06
7.71906e-08
-8.88418e-06
5.44224e-08
-8.89954e-06
3.08974e-08
-8.90192e-06
6.68213e-09
-8.89101e-06
-1.815e-08
-8.86653e-06
-4.35156e-08
-8.82828e-06
-6.93233e-08
-8.77608e-06
-9.54745e-08
-8.70981e-06
-1.21863e-07
-8.62943e-06
-1.48377e-07
-8.53494e-06
-1.74896e-07
-8.42642e-06
-2.01298e-07
-8.30401e-06
-2.27455e-07
-8.16792e-06
-2.53236e-07
-8.01842e-06
-2.78506e-07
-7.85588e-06
-3.03133e-07
-7.68069e-06
-3.26982e-07
-7.49336e-06
-3.4992e-07
-7.29443e-06
-3.71817e-07
-7.08452e-06
-3.92548e-07
-6.86432e-06
-4.11991e-07
-6.63456e-06
-4.30032e-07
-6.39605e-06
-4.46564e-07
-6.14961e-06
-4.61489e-07
-5.89615e-06
-4.74718e-07
-5.6366e-06
-4.86173e-07
-5.37192e-06
-4.95789e-07
-5.1031e-06
-5.03509e-07
-4.83116e-06
-5.09294e-07
-4.55713e-06
-5.13113e-07
-4.28204e-06
-5.14951e-07
-4.00694e-06
-5.14807e-07
-3.73286e-06
-5.12689e-07
-3.46082e-06
-5.08622e-07
-3.19183e-06
-5.02641e-07
-2.92686e-06
-4.94794e-07
-2.66687e-06
-4.85136e-07
-2.41277e-06
-4.73737e-07
-2.16545e-06
-4.60672e-07
-1.92574e-06
-4.46026e-07
-1.69444e-06
-4.29889e-07
-1.47227e-06
-4.12357e-07
-1.25994e-06
-3.93532e-07
-1.05807e-06
-3.73517e-07
-8.6725e-07
-3.52419e-07
-6.88006e-07
-3.30346e-07
-5.20805e-07
-3.07407e-07
-3.66059e-07
-2.83712e-07
-2.24124e-07
-2.59372e-07
-9.52959e-08
-2.34497e-07
2.01866e-08
-2.09198e-07
1.2216e-07
-1.83598e-07
2.105e-07
-1.578e-07
2.85164e-07
-1.31937e-07
3.46179e-07
-1.06142e-07
3.93651e-07
-8.05563e-08
4.27775e-07
-5.5342e-08
4.48846e-07
-3.06822e-08
4.57272e-07
-6.79086e-09
4.53604e-07
1.60808e-08
4.38549e-07
3.76295e-08
4.13013e-07
5.74884e-08
3.78129e-07
7.52098e-08
3.35312e-07
9.02461e-08
2.86303e-07
1.01928e-07
2.33225e-07
1.09444e-07
1.78632e-07
1.11835e-07
1.25526e-07
1.08016e-07
7.73309e-08
9.68796e-08
3.77769e-08
7.75248e-08
1.06863e-08
4.98069e-08
1.60241e-08
-6.0067e-09
-4.5764e-09
-3.21125e-08
3.12416e-08
-8.31175e-08
9.02576e-08
-1.61275e-07
1.59439e-07
-2.66986e-07
2.3096e-07
-3.99278e-07
2.9992e-07
-5.56275e-07
3.63474e-07
-7.3557e-07
4.2019e-07
-9.34519e-07
4.69555e-07
-1.15044e-06
5.11628e-07
-1.38073e-06
5.4682e-07
-1.62301e-06
5.75737e-07
-1.87509e-06
5.99076e-07
-2.13505e-06
6.17557e-07
-2.40122e-06
6.31885e-07
-2.67217e-06
6.42714e-07
-2.9467e-06
6.50639e-07
-3.22381e-06
6.56184e-07
-3.50267e-06
6.59802e-07
-3.7826e-06
6.61878e-07
-4.06305e-06
6.62728e-07
-4.34359e-06
6.6261e-07
-4.62385e-06
6.61727e-07
-4.90354e-06
6.60232e-07
-5.1824e-06
6.58237e-07
-5.46023e-06
6.55819e-07
-5.73682e-06
6.5302e-07
-6.012e-06
6.49861e-07
-6.28559e-06
6.46336e-07
-6.55739e-06
6.42425e-07
-6.8272e-06
6.38092e-07
-7.0948e-06
6.33288e-07
-7.35995e-06
6.27957e-07
-7.6224e-06
6.22034e-07
-7.88183e-06
6.15449e-07
-8.13795e-06
6.08128e-07
-8.39038e-06
5.99994e-07
-8.63876e-06
5.90969e-07
-8.88266e-06
5.80974e-07
-9.12165e-06
5.69931e-07
-9.35526e-06
5.57764e-07
-9.58298e-06
5.44397e-07
-9.80428e-06
5.29758e-07
-1.00186e-05
5.13779e-07
-1.02254e-05
4.96398e-07
-1.0424e-05
4.77556e-07
-1.06138e-05
4.57203e-07
-1.07942e-05
4.35293e-07
-1.09646e-05
4.1179e-07
-1.11242e-05
3.86669e-07
-1.12725e-05
3.5991e-07
-1.14087e-05
3.31508e-07
-1.15321e-05
3.01468e-07
-1.16423e-05
2.69805e-07
-1.17384e-05
2.36549e-07
-1.18199e-05
2.01744e-07
-1.18862e-05
1.65445e-07
-1.19367e-05
1.27723e-07
-1.1971e-05
8.86631e-08
-1.19884e-05
4.83647e-08
-1.19887e-05
6.9425e-09
-1.19714e-05
-3.54787e-08
-1.19361e-05
-7.87548e-08
-1.18827e-05
-1.22731e-07
-1.1811e-05
-1.67242e-07
-1.17207e-05
-2.12106e-07
-1.1612e-05
-2.57136e-07
-1.14847e-05
-3.02133e-07
-1.13391e-05
-3.46889e-07
-1.11754e-05
-3.91192e-07
-1.09938e-05
-4.34823e-07
-1.07947e-05
-4.77561e-07
-1.05787e-05
-5.19184e-07
-1.03462e-05
-5.59471e-07
-1.00979e-05
-5.98202e-07
-9.83458e-06
-6.35164e-07
-9.55698e-06
-6.70149e-07
-9.26601e-06
-7.02958e-07
-8.96264e-06
-7.33403e-07
-8.64789e-06
-7.6131e-07
-8.32286e-06
-7.86518e-07
-7.9887e-06
-8.08881e-07
-7.6466e-06
-8.28272e-07
-7.29781e-06
-8.44583e-07
-6.94359e-06
-8.57724e-07
-6.58526e-06
-8.67628e-07
-6.22412e-06
-8.74247e-07
-5.86152e-06
-8.77556e-07
-5.49878e-06
-8.77549e-07
-5.13722e-06
-8.74245e-07
-4.77816e-06
-8.67679e-07
-4.42289e-06
-8.57911e-07
-4.07267e-06
-8.45015e-07
-3.72872e-06
-8.29085e-07
-3.39223e-06
-8.10232e-07
-3.06432e-06
-7.88578e-07
-2.74609e-06
-7.64261e-07
-2.43855e-06
-7.37428e-07
-2.14267e-06
-7.08237e-07
-1.85935e-06
-6.76852e-07
-1.58942e-06
-6.43443e-07
-1.33366e-06
-6.08186e-07
-1.09274e-06
-5.71259e-07
-8.67309e-07
-5.32841e-07
-6.57905e-07
-4.93116e-07
-4.6501e-07
-4.52267e-07
-2.89026e-07
-4.10481e-07
-1.30279e-07
-3.67946e-07
1.09811e-08
-3.24858e-07
1.346e-07
-2.81419e-07
2.40495e-07
-2.37833e-07
3.28694e-07
-1.94341e-07
3.99325e-07
-1.51187e-07
4.52632e-07
-1.08649e-07
4.88996e-07
-6.70466e-08
5.08951e-07
-2.67451e-08
5.13207e-07
1.18249e-08
5.02683e-07
4.81531e-08
4.78541e-07
8.16298e-08
4.42228e-07
1.11524e-07
3.95517e-07
1.36957e-07
3.4056e-07
1.56884e-07
2.79933e-07
1.70071e-07
2.16667e-07
1.751e-07
1.54272e-07
1.70412e-07
9.6721e-08
1.54431e-07
4.84224e-08
1.25823e-07
1.42403e-08
8.39889e-08
3.02645e-08
-1.30334e-08
8.45711e-09
-5.59158e-08
7.41243e-08
-1.3098e-07
1.65322e-07
-2.39061e-07
2.67519e-07
-3.79667e-07
3.71567e-07
-5.51257e-07
4.71509e-07
-7.51538e-07
5.63756e-07
-9.77763e-07
6.46416e-07
-1.22696e-06
7.18755e-07
-1.49613e-06
7.80798e-07
-1.78237e-06
8.33052e-07
-2.08294e-06
8.76307e-07
-2.39536e-06
9.11497e-07
-2.71741e-06
9.39609e-07
-3.04714e-06
9.61616e-07
-3.38286e-06
9.78437e-07
-3.72314e-06
9.90913e-07
-4.06675e-06
9.99793e-07
-4.41267e-06
1.00573e-06
-4.76008e-06
1.00928e-06
-5.10826e-06
1.01091e-06
-5.45666e-06
1.011e-06
-5.80477e-06
1.00984e-06
-6.15222e-06
1.00768e-06
-6.49865e-06
1.00467e-06
-6.84377e-06
1.00094e-06
-7.1873e-06
9.96547e-07
-7.52897e-06
9.91537e-07
-7.86854e-06
9.85904e-07
-8.20574e-06
9.79622e-07
-8.54029e-06
9.72641e-07
-8.87189e-06
9.64894e-07
-9.20023e-06
9.56301e-07
-9.52497e-06
9.46768e-07
-9.84571e-06
9.36195e-07
-1.01621e-05
9.24476e-07
-1.04736e-05
9.11498e-07
-1.07797e-05
8.97149e-07
-1.10801e-05
8.81315e-07
-1.1374e-05
8.63882e-07
-1.1661e-05
8.44739e-07
-1.19404e-05
8.23778e-07
-1.22115e-05
8.00895e-07
-1.24737e-05
7.75994e-07
-1.27263e-05
7.48983e-07
-1.29686e-05
7.19782e-07
-1.31997e-05
6.88318e-07
-1.34189e-05
6.5453e-07
-1.36255e-05
6.1837e-07
-1.38186e-05
5.79803e-07
-1.39975e-05
5.38808e-07
-1.41614e-05
4.95381e-07
-1.43095e-05
4.49534e-07
-1.4441e-05
4.01299e-07
-1.45551e-05
3.50724e-07
-1.46513e-05
2.97879e-07
-1.47287e-05
2.42854e-07
-1.47867e-05
1.85758e-07
-1.48248e-05
1.26722e-07
-1.48423e-05
6.58996e-08
-1.48388e-05
3.46467e-09
-1.48139e-05
-6.03953e-08
-1.47672e-05
-1.25461e-07
-1.46984e-05
-1.91503e-07
-1.46074e-05
-2.58272e-07
-1.4494e-05
-3.255e-07
-1.43582e-05
-3.92908e-07
-1.42002e-05
-4.60201e-07
-1.402e-05
-5.27074e-07
-1.3818e-05
-5.93213e-07
-1.35945e-05
-6.58299e-07
-1.335e-05
-7.22007e-07
-1.30852e-05
-7.84013e-07
-1.28007e-05
-8.43993e-07
-1.24973e-05
-9.01628e-07
-1.21758e-05
-9.56607e-07
-1.18373e-05
-1.00863e-06
-1.14829e-05
-1.05741e-06
-1.11136e-05
-1.10266e-06
-1.07308e-05
-1.14415e-06
-1.03357e-05
-1.18164e-06
-9.92964e-06
-1.21491e-06
-9.51413e-06
-1.24379e-06
-9.0906e-06
-1.26811e-06
-8.66057e-06
-1.28775e-06
-8.22558e-06
-1.30262e-06
-7.78719e-06
-1.31263e-06
-7.34698e-06
-1.31777e-06
-6.90653e-06
-1.31801e-06
-6.46738e-06
-1.31338e-06
-6.03111e-06
-1.30395e-06
-5.59924e-06
-1.28979e-06
-5.17325e-06
-1.271e-06
-4.75461e-06
-1.24773e-06
-4.3447e-06
-1.22014e-06
-3.94489e-06
-1.18839e-06
-3.55645e-06
-1.1527e-06
-3.18062e-06
-1.11326e-06
-2.81854e-06
-1.07032e-06
-2.47128e-06
-1.0241e-06
-2.13987e-06
-9.74862e-07
-1.8252e-06
-9.2285e-07
-1.52813e-06
-8.68326e-07
-1.24942e-06
-8.11554e-07
-9.89737e-07
-7.52801e-07
-7.49666e-07
-6.92338e-07
-5.29706e-07
-6.3044e-07
-3.30263e-07
-5.67389e-07
-1.51648e-07
-5.03473e-07
5.92856e-09
-4.38995e-07
1.42378e-07
-3.74282e-07
2.57704e-07
-3.09667e-07
3.52054e-07
-2.45537e-07
4.25717e-07
-1.82312e-07
4.79141e-07
-1.2047e-07
5.12958e-07
-6.05628e-08
5.28013e-07
-3.22966e-09
5.25389e-07
5.07769e-08
5.06449e-07
1.0057e-07
4.72873e-07
1.45099e-07
4.26703e-07
1.83128e-07
3.70382e-07
2.13205e-07
3.06799e-07
2.33654e-07
2.3932e-07
2.4258e-07
1.71813e-07
2.37918e-07
1.08681e-07
2.17563e-07
5.4919e-08
1.79586e-07
1.62924e-08
1.22615e-07
4.6557e-08
-2.00174e-08
2.84746e-08
-8.00307e-08
1.34138e-07
-1.79812e-07
2.65103e-07
-3.18486e-07
4.06194e-07
-4.94414e-07
5.47495e-07
-7.0528e-07
6.82376e-07
-9.48263e-07
8.06739e-07
-1.22022e-06
9.18372e-07
-1.51786e-06
1.0164e-06
-1.83791e-06
1.10085e-06
-2.17719e-06
1.17234e-06
-2.53274e-06
1.23186e-06
-2.90183e-06
1.28059e-06
-3.28201e-06
1.31979e-06
-3.67112e-06
1.35072e-06
-4.06725e-06
1.37457e-06
-4.46879e-06
1.39245e-06
-4.87434e-06
1.40534e-06
-5.28271e-06
1.41411e-06
-5.69293e-06
1.4195e-06
-6.10417e-06
1.42215e-06
-6.51571e-06
1.42255e-06
-6.92699e-06
1.42112e-06
-7.3375e-06
1.41818e-06
-7.74679e-06
1.41397e-06
-8.15449e-06
1.40864e-06
-8.56024e-06
1.40229e-06
-8.96369e-06
1.39499e-06
-9.36451e-06
1.38672e-06
-9.76236e-06
1.37747e-06
-1.01569e-05
1.36716e-06
-1.05477e-05
1.35572e-06
-1.09344e-05
1.34303e-06
-1.13166e-05
1.32896e-06
-1.16938e-05
1.3134e-06
-1.20655e-05
1.29619e-06
-1.24312e-05
1.27718e-06
-1.27903e-05
1.25623e-06
-1.31422e-05
1.23318e-06
-1.34862e-05
1.20788e-06
-1.38216e-05
1.18017e-06
-1.41478e-05
1.14993e-06
-1.44639e-05
1.117e-06
-1.47691e-05
1.08126e-06
-1.50627e-05
1.0426e-06
-1.53439e-05
1.00089e-06
-1.56116e-05
9.56065e-07
-1.58651e-05
9.0803e-07
-1.61035e-05
8.56731e-07
-1.63258e-05
8.02127e-07
-1.65312e-05
7.44195e-07
-1.67187e-05
6.82939e-07
-1.68876e-05
6.18383e-07
-1.70369e-05
5.50577e-07
-1.71657e-05
4.79597e-07
-1.72734e-05
4.05545e-07
-1.73591e-05
3.28553e-07
-1.74221e-05
2.48778e-07
-1.74618e-05
1.66406e-07
-1.74776e-05
8.16531e-08
-1.74689e-05
-5.23421e-09
-1.74353e-05
-9.39977e-08
-1.73764e-05
-1.84329e-07
-1.7292e-05
-2.75912e-07
-1.71818e-05
-3.68402e-07
-1.70459e-05
-4.61433e-07
-1.68842e-05
-5.54619e-07
-1.66968e-05
-6.47559e-07
-1.64841e-05
-7.39837e-07
-1.62463e-05
-8.31026e-07
-1.59839e-05
-9.20692e-07
-1.56975e-05
-1.0084e-06
-1.53878e-05
-1.0937e-06
-1.50556e-05
-1.17616e-06
-1.47019e-05
-1.25536e-06
-1.43276e-05
-1.33087e-06
-1.3934e-05
-1.40229e-06
-1.35221e-05
-1.46924e-06
-1.30935e-05
-1.53134e-06
-1.26493e-05
-1.58827e-06
-1.21913e-05
-1.6397e-06
-1.17208e-05
-1.68536e-06
-1.12396e-05
-1.72501e-06
-1.07493e-05
-1.75844e-06
-1.02516e-05
-1.78547e-06
-9.74821e-06
-1.80597e-06
-9.24098e-06
-1.81987e-06
-8.73164e-06
-1.8271e-06
-8.22199e-06
-1.82766e-06
-7.71379e-06
-1.82158e-06
-7.2088e-06
-1.80894e-06
-6.70873e-06
-1.78985e-06
-6.21528e-06
-1.76445e-06
-5.73009e-06
-1.73293e-06
-5.25473e-06
-1.69549e-06
-4.79075e-06
-1.65237e-06
-4.3396e-06
-1.60385e-06
-3.90266e-06
-1.5502e-06
-3.48125e-06
-1.49173e-06
-3.07659e-06
-1.42876e-06
-2.68982e-06
-1.36163e-06
-2.322e-06
-1.29067e-06
-1.9741e-06
-1.21623e-06
-1.64698e-06
-1.13867e-06
-1.34142e-06
-1.05836e-06
-1.05809e-06
-9.75665e-07
-7.97576e-07
-8.90954e-07
-5.60348e-07
-8.04617e-07
-3.46768e-07
-7.17053e-07
-1.57083e-07
-6.2868e-07
8.57871e-09
-5.39944e-07
1.50234e-07
-4.51323e-07
2.68038e-07
-3.63341e-07
3.62312e-07
-2.76586e-07
4.33562e-07
-1.9172e-07
4.825e-07
-1.095e-07
5.10072e-07
-3.08019e-08
5.17492e-07
4.33565e-08
5.06276e-07
1.11786e-07
4.78279e-07
1.73097e-07
4.35735e-07
2.25672e-07
3.813e-07
2.6764e-07
3.18085e-07
2.96868e-07
2.49701e-07
3.10964e-07
1.80291e-07
3.07328e-07
1.14604e-07
2.8325e-07
5.81076e-08
2.36083e-07
1.7234e-08
1.63489e-07
6.37911e-08
-2.66987e-08
5.51734e-08
-1.0353e-07
2.10969e-07
-2.27834e-07
3.89406e-07
-3.96942e-07
5.75302e-07
-6.07929e-07
7.58482e-07
-8.57573e-07
9.3202e-07
-1.14241e-06
1.09158e-06
-1.45884e-06
1.2348e-06
-1.80323e-06
1.36079e-06
-2.17203e-06
1.46964e-06
-2.56182e-06
1.56213e-06
-2.96945e-06
1.63948e-06
-3.39198e-06
1.70312e-06
-3.8268e-06
1.75461e-06
-4.27157e-06
1.79549e-06
-4.72422e-06
1.82723e-06
-5.18299e-06
1.85122e-06
-5.64633e-06
1.86868e-06
-6.11294e-06
1.88072e-06
-6.5817e-06
1.88826e-06
-7.05166e-06
1.89211e-06
-7.52202e-06
1.89291e-06
-7.9921e-06
1.89119e-06
-8.46128e-06
1.88737e-06
-8.92906e-06
1.88174e-06
-9.39495e-06
1.87452e-06
-9.85851e-06
1.86586e-06
-1.03193e-05
1.8558e-06
-1.0777e-05
1.84438e-06
-1.12311e-05
1.83154e-06
-1.16811e-05
1.81723e-06
-1.21267e-05
1.80131e-06
-1.25674e-05
1.78368e-06
-1.30026e-05
1.76416e-06
-1.34317e-05
1.74259e-06
-1.38543e-05
1.71878e-06
-1.42697e-05
1.69256e-06
-1.46772e-05
1.66373e-06
-1.50761e-05
1.63208e-06
-1.54657e-05
1.59744e-06
-1.58451e-05
1.55961e-06
-1.62136e-05
1.51841e-06
-1.65703e-05
1.47367e-06
-1.69142e-05
1.42523e-06
-1.72446e-05
1.37293e-06
-1.75603e-05
1.31666e-06
-1.78606e-05
1.25629e-06
-1.81443e-05
1.19173e-06
-1.84104e-05
1.12292e-06
-1.86581e-05
1.04981e-06
-1.88863e-05
9.72382e-07
-1.9094e-05
8.9065e-07
-1.92803e-05
8.04656e-07
-1.94442e-05
7.14474e-07
-1.95848e-05
6.20213e-07
-1.97013e-05
5.22017e-07
-1.97928e-05
4.20064e-07
-1.98586e-05
3.1457e-07
-1.9898e-05
2.05785e-07
-1.99103e-05
9.39974e-08
-1.98951e-05
-2.04705e-08
-1.98518e-05
-1.37265e-07
-1.97801e-05
-2.55993e-07
-1.96798e-05
-3.76233e-07
-1.95507e-05
-4.97537e-07
-1.93927e-05
-6.19427e-07
-1.92059e-05
-7.41404e-07
-1.89905e-05
-8.62946e-07
-1.87468e-05
-9.83517e-07
-1.84753e-05
-1.10257e-06
-1.81765e-05
-1.21954e-06
-1.7851e-05
-1.33386e-06
-1.74997e-05
-1.44498e-06
-1.71235e-05
-1.55233e-06
-1.67235e-05
-1.65537e-06
-1.63008e-05
-1.75357e-06
-1.58567e-05
-1.8464e-06
-1.53926e-05
-1.93337e-06
-1.49099e-05
-2.01404e-06
-1.44102e-05
-2.08795e-06
-1.38952e-05
-2.15472e-06
-1.33666e-05
-2.214e-06
-1.28261e-05
-2.26548e-06
-1.22756e-05
-2.30889e-06
-1.17171e-05
-2.34403e-06
-1.11523e-05
-2.37071e-06
-1.05834e-05
-2.38884e-06
-1.00121e-05
-2.39836e-06
-9.44051e-06
-2.39925e-06
-8.87053e-06
-2.39156e-06
-8.3041e-06
-2.37538e-06
-7.7431e-06
-2.35086e-06
-7.18937e-06
-2.31818e-06
-6.64473e-06
-2.27757e-06
-6.11091e-06
-2.22931e-06
-5.58959e-06
-2.1737e-06
-5.08237e-06
-2.11107e-06
-4.59077e-06
-2.0418e-06
-4.11624e-06
-1.96626e-06
-3.66013e-06
-1.88488e-06
-3.22369e-06
-1.79807e-06
-2.80809e-06
-1.70627e-06
-2.41438e-06
-1.60993e-06
-2.04355e-06
-1.50951e-06
-1.69643e-06
-1.40548e-06
-1.37379e-06
-1.29831e-06
-1.07625e-06
-1.18849e-06
-8.04359e-07
-1.07651e-06
-5.58507e-07
-9.62904e-07
-3.38975e-07
-8.48212e-07
-1.45903e-07
-7.33016e-07
2.07172e-08
-6.17943e-07
1.61059e-07
-5.03682e-07
2.75471e-07
-3.90999e-07
3.64506e-07
-2.80755e-07
4.28941e-07
-1.73935e-07
4.69804e-07
-7.16654e-08
4.8841e-07
2.4751e-08
4.86389e-07
1.13807e-07
4.65728e-07
1.93758e-07
4.28804e-07
2.62595e-07
3.78427e-07
3.18018e-07
3.17876e-07
3.57419e-07
2.50944e-07
3.77896e-07
1.81992e-07
3.76279e-07
1.16037e-07
3.49205e-07
5.88924e-08
2.93227e-07
1.74151e-08
2.04966e-07
8.1206e-08
-3.29837e-08
8.81571e-08
-1.2598e-07
3.03966e-07
-2.74102e-07
5.37528e-07
-4.72931e-07
7.74131e-07
-7.18208e-07
1.00376e-06
-1.00573e-06
1.21954e-06
-1.33131e-06
1.41716e-06
-1.69083e-06
1.59433e-06
-2.08028e-06
1.75024e-06
-2.49581e-06
1.88517e-06
-2.9338e-06
2.00012e-06
-3.39087e-06
2.09655e-06
-3.86395e-06
2.17621e-06
-4.35027e-06
2.24093e-06
-4.84736e-06
2.29257e-06
-5.35302e-06
2.3329e-06
-5.86537e-06
2.36356e-06
-6.38274e-06
2.38606e-06
-6.90372e-06
2.4017e-06
-7.4271e-06
2.41163e-06
-7.95181e-06
2.41682e-06
-8.47697e-06
2.41807e-06
-9.0018e-06
2.41602e-06
-9.52561e-06
2.41117e-06
-1.00478e-05
2.40392e-06
-1.05678e-05
2.39452e-06
-1.10851e-05
2.38314e-06
-1.15991e-05
2.36988e-06
-1.21095e-05
2.35476e-06
-1.26157e-05
2.33774e-06
-1.31172e-05
2.31871e-06
-1.36135e-05
2.29757e-06
-1.41039e-05
2.27414e-06
-1.4588e-05
2.24823e-06
-1.5065e-05
2.21964e-06
-1.55344e-05
2.18815e-06
-1.59954e-05
2.15353e-06
-1.64472e-05
2.11554e-06
-1.68891e-05
2.07395e-06
-1.73201e-05
2.02852e-06
-1.77396e-05
1.97902e-06
-1.81464e-05
1.92524e-06
-1.85397e-05
1.86696e-06
-1.89184e-05
1.80399e-06
-1.92817e-05
1.73616e-06
-1.96283e-05
1.6633e-06
-1.99573e-05
1.5853e-06
-2.02676e-05
1.50204e-06
-2.05582e-05
1.41345e-06
-2.08278e-05
1.31949e-06
-2.10756e-05
1.22014e-06
-2.13004e-05
1.11543e-06
-2.15012e-05
1.00543e-06
-2.16769e-05
8.90242e-07
-2.18267e-05
7.70016e-07
-2.19496e-05
6.44942e-07
-2.20448e-05
5.15255e-07
-2.21115e-05
3.81236e-07
-2.21489e-05
2.43209e-07
-2.21565e-05
1.01541e-07
-2.21336e-05
-4.33563e-08
-2.20798e-05
-1.9103e-07
-2.19948e-05
-3.40986e-07
-2.18784e-05
-4.92695e-07
-2.17303e-05
-6.45591e-07
-2.15507e-05
-7.99077e-07
-2.13395e-05
-9.52529e-07
-2.10972e-05
-1.1053e-06
-2.0824e-05
-1.25672e-06
-2.05205e-05
-1.4061e-06
-2.01872e-05
-1.55276e-06
-1.98251e-05
-1.69601e-06
-1.94349e-05
-1.83514e-06
-1.90178e-05
-1.96946e-06
-1.85748e-05
-2.09832e-06
-1.81074e-05
-2.22104e-06
-1.76168e-05
-2.337e-06
-1.71046e-05
-2.44559e-06
-1.65723e-05
-2.54626e-06
-1.60218e-05
-2.63847e-06
-1.54548e-05
-2.72175e-06
-1.48731e-05
-2.79566e-06
-1.42788e-05
-2.85983e-06
-1.36737e-05
-2.91394e-06
-1.306e-05
-2.95773e-06
-1.24398e-05
-2.99099e-06
-1.1815e-05
-3.01361e-06
-1.11879e-05
-3.0255e-06
-1.05605e-05
-3.02666e-06
-9.93486e-06
-3.01714e-06
-9.31318e-06
-2.99707e-06
-8.69742e-06
-2.96661e-06
-8.08958e-06
-2.92601e-06
-7.49161e-06
-2.87554e-06
-6.90537e-06
-2.81555e-06
-6.33267e-06
-2.7464e-06
-5.77522e-06
-2.66851e-06
-5.23468e-06
-2.58234e-06
-4.71258e-06
-2.48836e-06
-4.21038e-06
-2.38708e-06
-3.72943e-06
-2.27901e-06
-3.27099e-06
-2.16471e-06
-2.83619e-06
-2.04473e-06
-2.42607e-06
-1.91963e-06
-2.04155e-06
-1.79e-06
-1.68345e-06
-1.65642e-06
-1.35244e-06
-1.5195e-06
-1.04909e-06
-1.37986e-06
-7.73828e-07
-1.23816e-06
-5.2696e-07
-1.09508e-06
-3.08629e-07
-9.51347e-07
-1.18823e-07
-8.0775e-07
4.26453e-08
-6.6515e-07
1.76155e-07
-5.24508e-07
2.82298e-07
-3.86899e-07
3.61906e-07
-2.53543e-07
4.16075e-07
-1.25834e-07
4.46197e-07
-5.37099e-09
4.53993e-07
1.0601e-07
4.4155e-07
2.06202e-07
4.11352e-07
2.92793e-07
3.66327e-07
3.63043e-07
3.09881e-07
4.13865e-07
2.4595e-07
4.41827e-07
1.79062e-07
4.43168e-07
1.14429e-07
4.13838e-07
5.80888e-08
3.49568e-07
1.71204e-08
2.45935e-07
9.83263e-08
-3.88568e-08
1.27014e-07
-1.47204e-07
4.12313e-07
-3.1816e-07
7.08484e-07
-5.45648e-07
1.00162e-06
-8.24095e-07
1.28221e-06
-1.14828e-06
1.54373e-06
-1.51327e-06
1.78215e-06
-1.91436e-06
1.99542e-06
-2.34714e-06
2.18302e-06
-2.80745e-06
2.34547e-06
-3.29141e-06
2.48408e-06
-3.7955e-06
2.60063e-06
-4.31647e-06
2.69718e-06
-4.85143e-06
2.77589e-06
-5.39778e-06
2.83893e-06
-5.95326e-06
2.88837e-06
-6.51585e-06
2.92615e-06
-7.08381e-06
2.95402e-06
-7.65564e-06
2.97353e-06
-8.23002e-06
2.98602e-06
-8.80584e-06
2.99264e-06
-9.38209e-06
2.99433e-06
-9.95794e-06
2.99186e-06
-1.05326e-05
2.98584e-06
-1.11054e-05
2.97672e-06
-1.16757e-05
2.96482e-06
-1.22429e-05
2.95036e-06
-1.28065e-05
2.93343e-06
-1.33658e-05
2.91408e-06
-1.39203e-05
2.89225e-06
-1.44694e-05
2.86784e-06
-1.50126e-05
2.84069e-06
-1.5549e-05
2.81062e-06
-1.60782e-05
2.77741e-06
-1.65994e-05
2.7408e-06
-1.71118e-05
2.70055e-06
-1.76146e-05
2.65636e-06
-1.8107e-05
2.60798e-06
-1.85882e-05
2.5551e-06
-1.90571e-05
2.49747e-06
-1.95129e-05
2.4348e-06
-1.99545e-05
2.36684e-06
-2.03809e-05
2.29335e-06
-2.0791e-05
2.21409e-06
-2.11837e-05
2.12888e-06
-2.15579e-05
2.03752e-06
-2.19125e-05
1.93988e-06
-2.22463e-05
1.83583e-06
-2.25581e-05
1.7253e-06
-2.28469e-05
1.60825e-06
-2.31114e-05
1.48467e-06
-2.33506e-05
1.35463e-06
-2.35634e-05
1.2182e-06
-2.37487e-05
1.07554e-06
-2.39055e-05
9.26838e-07
-2.40329e-05
7.72338e-07
-2.413e-05
6.1234e-07
-2.4196e-05
4.47197e-07
-2.42301e-05
2.77313e-07
-2.42317e-05
1.03148e-07
-2.42002e-05
-7.47919e-08
-2.41353e-05
-2.55947e-07
-2.40366e-05
-4.39713e-07
-2.39039e-05
-6.25442e-07
-2.3737e-05
-8.12443e-07
-2.35361e-05
-9.99992e-07
-2.33013e-05
-1.18733e-06
-2.30329e-05
-1.37368e-06
-2.27314e-05
-1.55822e-06
-2.23973e-05
-1.74015e-06
-2.20315e-05
-1.91862e-06
-2.16347e-05
-2.09281e-06
-2.12079e-05
-2.26188e-06
-2.07524e-05
-2.42501e-06
-2.02693e-05
-2.58139e-06
-1.97601e-05
-2.73024e-06
-1.92263e-05
-2.87082e-06
-1.86695e-05
-3.0024e-06
-1.80914e-05
-3.12431e-06
-1.7494e-05
-3.23592e-06
-1.68791e-05
-3.33668e-06
-1.62487e-05
-3.42606e-06
-1.56049e-05
-3.50362e-06
-1.49498e-05
-3.56899e-06
-1.42857e-05
-3.62186e-06
-1.36147e-05
-3.66199e-06
-1.2939e-05
-3.68924e-06
-1.2261e-05
-3.70351e-06
-1.15829e-05
-3.70481e-06
-1.09068e-05
-3.6932e-06
-1.0235e-05
-3.66884e-06
-9.56973e-06
-3.63192e-06
-8.91299e-06
-3.58275e-06
-8.26689e-06
-3.52165e-06
-7.63339e-06
-3.44904e-06
-7.01443e-06
-3.36536e-06
-6.41183e-06
-3.27112e-06
-5.82731e-06
-3.16685e-06
-5.26253e-06
-3.05314e-06
-4.71901e-06
-2.93059e-06
-4.19819e-06
-2.79984e-06
-3.70138e-06
-2.66152e-06
-3.2298e-06
-2.51632e-06
-2.78452e-06
-2.36491e-06
-2.36651e-06
-2.208e-06
-1.97664e-06
-2.0463e-06
-1.6156e-06
-1.88053e-06
-1.28399e-06
-1.71147e-06
-9.82261e-07
-1.53989e-06
-7.10709e-07
-1.36663e-06
-4.69483e-07
-1.19257e-06
-2.5856e-07
-1.01867e-06
-7.77309e-08
-8.45979e-07
7.34115e-08
-6.7565e-07
1.95499e-07
-5.08987e-07
2.89412e-07
-3.47455e-07
3.56302e-07
-1.92724e-07
3.97628e-07
-4.66964e-08
4.15182e-07
8.84558e-08
4.11131e-07
2.10253e-07
3.88045e-07
3.15878e-07
3.48944e-07
4.02144e-07
2.97333e-07
4.65476e-07
2.3726e-07
5.01901e-07
1.73375e-07
5.07053e-07
1.11023e-07
4.76189e-07
5.63693e-08
4.04221e-07
1.65673e-08
2.85737e-07
1.14894e-07
-4.43332e-08
1.71347e-07
-1.67164e-07
5.35144e-07
-3.59828e-07