/*--------------------------------*- C++ -*----------------------------------*\
| =========                 |                                                 |
| \\      /  F ield         | OpenFOAM: The Open Source CFD Toolbox           |
|  \\    /   O peration     | Version:  2112                                  |
|   \\  /    A nd           | Website:  www.openfoam.com                      |
|    \\/     M anipulation  |                                                 |
\*---------------------------------------------------------------------------*/
FoamFile
{
    version     2.0;
    format      ascii;
    arch        "LSB;label=32;scalar=64";
    class       volVectorField;
    location    "7";
    object      U;
}
// * * * * * * * * * * * * * * * * * * * * * * * * * * * * * * * * * * * * * //

dimensions      [0 1 -1 0 0 0 0];

internalField   nonuniform List<vector> 
16641
(
(3.39069e-06 -3.50054e-06 0)
(1.05596e-05 -4.32859e-06 0)
(1.47752e-05 -2.28369e-06 0)
(1.1617e-05 5.85013e-07 0)
(-2.1326e-07 3.47256e-06 0)
(-2.03698e-05 6.07848e-06 0)
(-4.80224e-05 8.30103e-06 0)
(-8.21813e-05 1.01348e-05 0)
(-0.000121835 1.16144e-05 0)
(-0.000166026 1.27847e-05 0)
(-0.000213893 1.36919e-05 0)
(-0.000264683 1.43802e-05 0)
(-0.000317752 1.48888e-05 0)
(-0.000372558 1.52524e-05 0)
(-0.000428653 1.55008e-05 0)
(-0.000485674 1.56594e-05 0)
(-0.00054333 1.57501e-05 0)
(-0.000601392 1.57902e-05 0)
(-0.000659684 1.57933e-05 0)
(-0.000718073 1.5771e-05 0)
(-0.000776458 1.57321e-05 0)
(-0.000834769 1.56832e-05 0)
(-0.000892956 1.56293e-05 0)
(-0.000950984 1.55735e-05 0)
(-0.00100883 1.55174e-05 0)
(-0.00106647 1.54622e-05 0)
(-0.0011239 1.54082e-05 0)
(-0.0011811 1.5355e-05 0)
(-0.00123806 1.53014e-05 0)
(-0.00129476 1.52458e-05 0)
(-0.00135119 1.51864e-05 0)
(-0.0014073 1.51211e-05 0)
(-0.00146308 1.50481e-05 0)
(-0.00151848 1.49649e-05 0)
(-0.00157344 1.48689e-05 0)
(-0.00162793 1.47576e-05 0)
(-0.00168187 1.46284e-05 0)
(-0.00173518 1.4479e-05 0)
(-0.0017878 1.43066e-05 0)
(-0.00183962 1.41087e-05 0)
(-0.00189056 1.38827e-05 0)
(-0.00194051 1.36263e-05 0)
(-0.00198935 1.3337e-05 0)
(-0.00203696 1.30125e-05 0)
(-0.00208322 1.26507e-05 0)
(-0.00212798 1.22494e-05 0)
(-0.00217112 1.18066e-05 0)
(-0.00221247 1.13206e-05 0)
(-0.00225189 1.07898e-05 0)
(-0.00228923 1.02131e-05 0)
(-0.00232432 9.58926e-06 0)
(-0.002357 8.91753e-06 0)
(-0.00238711 8.19741e-06 0)
(-0.00241448 7.42879e-06 0)
(-0.00243895 6.61191e-06 0)
(-0.00246036 5.74738e-06 0)
(-0.00247855 4.83624e-06 0)
(-0.00249338 3.87996e-06 0)
(-0.00250469 2.88041e-06 0)
(-0.00251235 1.84e-06 0)
(-0.00251623 7.6158e-07 0)
(-0.00251621 -3.51381e-07 0)
(-0.00251219 -1.4955e-06 0)
(-0.00250408 -2.66639e-06 0)
(-0.0024918 -3.85937e-06 0)
(-0.00247529 -5.06928e-06 0)
(-0.00245452 -6.29063e-06 0)
(-0.00242947 -7.51758e-06 0)
(-0.00240012 -8.74398e-06 0)
(-0.00236651 -9.96336e-06 0)
(-0.00232868 -1.11689e-05 0)
(-0.00228669 -1.23539e-05 0)
(-0.00224062 -1.35112e-05 0)
(-0.0021906 -1.46338e-05 0)
(-0.00213676 -1.57148e-05 0)
(-0.00207925 -1.67473e-05 0)
(-0.00201825 -1.77243e-05 0)
(-0.00195397 -1.86395e-05 0)
(-0.00188662 -1.94867e-05 0)
(-0.00181645 -2.02601e-05 0)
(-0.00174372 -2.09544e-05 0)
(-0.00166871 -2.15648e-05 0)
(-0.0015917 -2.20869e-05 0)
(-0.00151299 -2.25173e-05 0)
(-0.00143291 -2.28531e-05 0)
(-0.00135178 -2.3092e-05 0)
(-0.00126991 -2.32326e-05 0)
(-0.00118766 -2.32741e-05 0)
(-0.00110534 -2.32167e-05 0)
(-0.00102329 -2.30611e-05 0)
(-0.00094185 -2.28087e-05 0)
(-0.000861332 -2.24618e-05 0)
(-0.000782055 -2.20232e-05 0)
(-0.000704326 -2.14964e-05 0)
(-0.00062844 -2.08854e-05 0)
(-0.000554679 -2.01946e-05 0)
(-0.000483309 -1.94289e-05 0)
(-0.000414582 -1.85935e-05 0)
(-0.000348733 -1.76941e-05 0)
(-0.000285976 -1.67361e-05 0)
(-0.000226511 -1.57255e-05 0)
(-0.000170518 -1.4668e-05 0)
(-0.000118156 -1.35695e-05 0)
(-6.95671e-05 -1.24359e-05 0)
(-2.48735e-05 -1.1273e-05 0)
(1.58203e-05 -1.00866e-05 0)
(5.24292e-05 -8.88162e-06 0)
(8.48874e-05 -7.66337e-06 0)
(0.000113145 -6.43634e-06 0)
(0.000137171 -5.2073e-06 0)
(0.000156956 -3.98028e-06 0)
(0.000172505 -2.76043e-06 0)
(0.000183848 -1.55317e-06 0)
(0.000191033 -3.64272e-07 0)
(0.000194135 7.99492e-07 0)
(0.000193258 1.92983e-06 0)
(0.000188538 3.01818e-06 0)
(0.000180156 4.05189e-06 0)
(0.000168342 5.01494e-06 0)
(0.000153393 5.88602e-06 0)
(0.000135689 6.63574e-06 0)
(0.000115724 7.22267e-06 0)
(9.41368e-05 7.58683e-06 0)
(7.1764e-05 7.63986e-06 0)
(4.97125e-05 7.25339e-06 0)
(2.94349e-05 6.25068e-06 0)
(1.27291e-05 4.40749e-06 0)
(1.63332e-06 1.59533e-06 0)
(-1.1234e-06 -1.11853e-06 0)
(4.2104e-06 -1.05644e-05 0)
(9.73299e-06 -9.82296e-06 0)
(4.54571e-06 1.453e-06 0)
(-1.80915e-05 1.65918e-05 0)
(-6.06507e-05 3.24242e-05 0)
(-0.000123036 4.73859e-05 0)
(-0.000203932 6.07611e-05 0)
(-0.000301409 7.2306e-05 0)
(-0.000413297 8.20225e-05 0)
(-0.000537416 9.00309e-05 0)
(-0.000671708 9.65063e-05 0)
(-0.000814304 0.000101643 0)
(-0.000963552 0.000105636 0)
(-0.00111802 0.000108669 0)
(-0.00127651 0.00011091 0)
(-0.00143801 0.000112507 0)
(-0.00160168 0.000113591 0)
(-0.00176686 0.000114271 0)
(-0.00193301 0.00011464 0)
(-0.00209971 0.000114773 0)
(-0.00226663 0.000114731 0)
(-0.00243353 0.000114562 0)
(-0.0026002 0.000114302 0)
(-0.00276652 0.000113977 0)
(-0.00293236 0.000113605 0)
(-0.00309764 0.000113196 0)
(-0.00326229 0.000112757 0)
(-0.00342622 0.000112287 0)
(-0.00358938 0.000111782 0)
(-0.00375168 0.000111237 0)
(-0.00391305 0.00011064 0)
(-0.00407339 0.000109982 0)
(-0.00423258 0.00010925 0)
(-0.0043905 0.000108429 0)
(-0.00454699 0.000107504 0)
(-0.0047019 0.000106461 0)
(-0.00485502 0.000105283 0)
(-0.00500616 0.000103955 0)
(-0.00515507 0.00010246 0)
(-0.00530151 0.000100782 0)
(-0.00544519 9.89049e-05 0)
(-0.00558583 9.68141e-05 0)
(-0.00572311 9.44944e-05 0)
(-0.00585668 9.19314e-05 0)
(-0.0059862 8.91117e-05 0)
(-0.0061113 8.60227e-05 0)
(-0.00623159 8.26526e-05 0)
(-0.00634667 7.89915e-05 0)
(-0.00645612 7.50305e-05 0)
(-0.00655952 7.07626e-05 0)
(-0.00665645 6.61823e-05 0)
(-0.00674646 6.12862e-05 0)
(-0.00682913 5.60728e-05 0)
(-0.00690401 5.05431e-05 0)
(-0.00697068 4.47005e-05 0)
(-0.0070287 3.85508e-05 0)
(-0.00707768 3.21027e-05 0)
(-0.00711721 2.53675e-05 0)
(-0.00714691 1.83594e-05 0)
(-0.00716643 1.10956e-05 0)
(-0.00717545 3.59611e-06 0)
(-0.00717366 -4.11621e-06 0)
(-0.0071608 -1.20154e-05 0)
(-0.00713665 -2.00727e-05 0)
(-0.00710102 -2.82569e-05 0)
(-0.00705379 -3.65341e-05 0)
(-0.00699486 -4.48678e-05 0)
(-0.00692419 -5.32198e-05 0)
(-0.0068418 -6.15499e-05 0)
(-0.00674777 -6.98163e-05 0)
(-0.00664223 -7.79756e-05 0)
(-0.00652537 -8.59839e-05 0)
(-0.00639744 -9.37966e-05 0)
(-0.00625875 -0.000101369 0)
(-0.00610967 -0.000108658 0)
(-0.00595064 -0.000115618 0)
(-0.00578214 -0.000122208 0)
(-0.00560472 -0.000128387 0)
(-0.00541897 -0.000134116 0)
(-0.00522554 -0.000139359 0)
(-0.00502513 -0.000144084 0)
(-0.00481847 -0.000148259 0)
(-0.00460633 -0.000151859 0)
(-0.00438953 -0.00015486 0)
(-0.00416889 -0.000157246 0)
(-0.00394527 -0.000159001 0)
(-0.00371954 -0.000160116 0)
(-0.00349258 -0.000160586 0)
(-0.00326529 -0.00016041 0)
(-0.00303853 -0.000159594 0)
(-0.00281319 -0.000158144 0)
(-0.00259014 -0.000156073 0)
(-0.0023702 -0.000153399 0)
(-0.00215421 -0.000150141 0)
(-0.00194296 -0.000146324 0)
(-0.0017372 -0.000141972 0)
(-0.00153766 -0.000137117 0)
(-0.00134501 -0.000131789 0)
(-0.00115991 -0.000126021 0)
(-0.000982938 -0.000119848 0)
(-0.00081465 -0.000113306 0)
(-0.000655547 -0.000106431 0)
(-0.000506082 -9.92584e-05 0)
(-0.00036666 -9.18257e-05 0)
(-0.000237634 -8.41691e-05 0)
(-0.000119312 -7.63254e-05 0)
(-1.19497e-05 -6.83298e-05 0)
(8.42478e-05 -6.02181e-05 0)
(0.00016912 -5.20223e-05 0)
(0.00024256 -4.37852e-05 0)
(0.00030452 -3.55406e-05 0)
(0.000355 -2.7328e-05 0)
(0.000394063 -1.91896e-05 0)
(0.000421837 -1.11723e-05 0)
(0.000438525 -3.32959e-06 0)
(0.000444419 4.27546e-06 0)
(0.000439909 1.1567e-05 0)
(0.000425507 1.84532e-05 0)
(0.000401873 2.48183e-05 0)
(0.00036985 3.0515e-05 0)
(0.000330506 3.53546e-05 0)
(0.000285188 3.9092e-05 0)
(0.000235587 4.14075e-05 0)
(0.000183817 4.18854e-05 0)
(0.000132499 4.00017e-05 0)
(8.47687e-05 3.51479e-05 0)
(4.4117e-05 2.67293e-05 0)
(1.45739e-05 1.46336e-05 0)
(1.5681e-06 1.62716e-06 0)
(2.33544e-06 -1.4865e-05 0)
(-1.45348e-06 -4.58987e-06 0)
(-2.5822e-05 2.55226e-05 0)
(-7.61954e-05 6.39181e-05 0)
(-0.000154968 0.000104328 0)
(-0.000262123 0.000143181 0)
(-0.00039608 0.000178606 0)
(-0.000554387 0.000209789 0)
(-0.000734188 0.000236525 0)
(-0.000932523 0.00025896 0)
(-0.00114652 0.000277425 0)
(-0.0013735 0.000292343 0)
(-0.00161107 0.000304168 0)
(-0.00185711 0.000313349 0)
(-0.00210978 0.000320307 0)
(-0.00236753 0.000325428 0)
(-0.00262906 0.000329054 0)
(-0.00289331 0.000331478 0)
(-0.0031594 0.000332954 0)
(-0.00342663 0.00033369 0)
(-0.00369444 0.000333856 0)
(-0.00396239 0.00033359 0)
(-0.00423012 0.000332995 0)
(-0.00449737 0.000332149 0)
(-0.00476391 0.000331109 0)
(-0.00502956 0.00032991 0)
(-0.00529415 0.000328571 0)
(-0.00555754 0.000327098 0)
(-0.00581958 0.000325484 0)
(-0.00608012 0.000323715 0)
(-0.006339 0.000321767 0)
(-0.00659605 0.000319613 0)
(-0.00685105 0.00031722 0)
(-0.00710379 0.000314551 0)
(-0.00735402 0.000311567 0)
(-0.00760145 0.000308225 0)
(-0.00784577 0.000304485 0)
(-0.00808664 0.000300302 0)
(-0.00832368 0.000295634 0)
(-0.00855648 0.000290436 0)
(-0.00878461 0.000284667 0)
(-0.00900759 0.000278284 0)
(-0.00922493 0.000271248 0)
(-0.0094361 0.000263521 0)
(-0.00964055 0.000255067 0)
(-0.00983769 0.000245852 0)
(-0.0100269 0.000235847 0)
(-0.0102076 0.000225025 0)
(-0.0103792 0.000213364 0)
(-0.0105409 0.000200847 0)
(-0.0106921 0.000187462 0)
(-0.0108323 0.000173201 0)
(-0.0109606 0.000158063 0)
(-0.0110764 0.000142053 0)
(-0.0111792 0.000125184 0)
(-0.0112681 0.000107474 0)
(-0.0113427 8.89507e-05 0)
(-0.0114024 6.96475e-05 0)
(-0.0114465 4.96065e-05 0)
(-0.0114746 2.88775e-05 0)
(-0.0114861 7.51821e-06 0)
(-0.0114807 -1.44063e-05 0)
(-0.011458 -3.68219e-05 0)
(-0.0114176 -5.96481e-05 0)
(-0.0113593 -8.27973e-05 0)
(-0.0112829 -0.000106175 0)
(-0.0111883 -0.00012968 0)
(-0.0110755 -0.000153207 0)
(-0.0109445 -0.000176645 0)
(-0.0107955 -0.000199878 0)
(-0.0106287 -0.000222789 0)
(-0.0104444 -0.000245258 0)
(-0.010243 -0.000267164 0)
(-0.010025 -0.000288384 0)
(-0.00979103 -0.0003088 0)
(-0.00954171 -0.000328294 0)
(-0.0092778 -0.000346751 0)
(-0.00900016 -0.000364062 0)
(-0.00870969 -0.000380122 0)
(-0.0084074 -0.000394835 0)
(-0.00809433 -0.000408111 0)
(-0.00777161 -0.000419869 0)
(-0.00744041 -0.000430039 0)
(-0.00710197 -0.000438559 0)
(-0.00675755 -0.000445382 0)
(-0.00640844 -0.000450468 0)
(-0.00605596 -0.000453791 0)
(-0.00570145 -0.000455338 0)
(-0.00534625 -0.000455107 0)
(-0.00499171 -0.000453106 0)
(-0.00463914 -0.000449359 0)
(-0.00428985 -0.000443896 0)
(-0.00394514 -0.000436762 0)
(-0.00360625 -0.00042801 0)
(-0.00327438 -0.0004177 0)
(-0.0029507 -0.000405904 0)
(-0.0026363 -0.000392698 0)
(-0.00233226 -0.000378166 0)
(-0.00203954 -0.000362394 0)
(-0.00175907 -0.000345475 0)
(-0.00149172 -0.000327504 0)
(-0.00123826 -0.000308577 0)
(-0.000999409 -0.000288793 0)
(-0.00077581 -0.00026825 0)
(-0.000568031 -0.000247048 0)
(-0.000376567 -0.000225285 0)
(-0.000201837 -0.000203062 0)
(-4.41806e-05 -0.000180478 0)
(9.61269e-05 -0.000157634 0)
(0.000218899 -0.000134633 0)
(0.000324041 -0.000111585 0)
(0.000411535 -8.86056e-05 0)
(0.000481465 -6.58201e-05 0)
(0.00053402 -4.33685e-05 0)
(0.000569511 -2.14104e-05 0)
(0.000588386 -1.32193e-07 0)
(0.000591258 2.02428e-05 0)
(0.000578929 3.94473e-05 0)
(0.000552428 5.71529e-05 0)
(0.000513057 7.29533e-05 0)
(0.000462445 8.63437e-05 0)
(0.000402611 9.66964e-05 0)
(0.00033603 0.000103236 0)
(0.00026571 0.00010502 0)
(0.000195249 0.00010096 0)
(0.000128775 8.99186e-05 0)
(7.0721e-05 7.09735e-05 0)
(2.65061e-05 4.41132e-05 0)
(4.32492e-06 1.26321e-05 0)
(-5.31852e-07 -1.16893e-05 0)
(-1.70621e-05 1.84891e-05 0)
(-6.57888e-05 7.62079e-05 0)
(-0.000148868 0.000145988 0)
(-0.000267574 0.000218776 0)
(-0.000421544 0.000289044 0)
(-0.000608828 0.000353674 0)
(-0.000826548 0.000411148 0)
(-0.00107137 0.00046096 0)
(-0.0013398 0.000503217 0)
(-0.0016284 0.000538387 0)
(-0.00193394 0.000567133 0)
(-0.00225345 0.0005902 0)
(-0.00258428 0.000608353 0)
(-0.00292413 0.000622327 0)
(-0.003271 0.000632801 0)
(-0.00362319 0.00064039 0)
(-0.00397929 0.000645629 0)
(-0.00433812 0.000648981 0)
(-0.00469874 0.000650836 0)
(-0.00506035 0.000651513 0)
(-0.00542232 0.000651271 0)
(-0.00578414 0.000650311 0)
(-0.00614539 0.000648787 0)
(-0.00650573 0.000646807 0)
(-0.00686486 0.000644446 0)
(-0.00722253 0.000641745 0)
(-0.00757848 0.000638721 0)
(-0.0079325 0.000635367 0)
(-0.00828433 0.000631659 0)
(-0.00863374 0.00062756 0)
(-0.00898044 0.00062302 0)
(-0.00932415 0.000617979 0)
(-0.00966454 0.000612372 0)
(-0.0100013 0.000606126 0)
(-0.0103339 0.000599167 0)
(-0.010662 0.000591417 0)
(-0.0109852 0.000582796 0)
(-0.0113028 0.000573224 0)
(-0.0116144 0.000562621 0)
(-0.0119194 0.00055091 0)
(-0.0122171 0.000538014 0)
(-0.0125069 0.00052386 0)
(-0.0127881 0.000508378 0)
(-0.0130599 0.000491503 0)
(-0.0133216 0.000473177 0)
(-0.0135723 0.000453345 0)
(-0.0138113 0.000431961 0)
(-0.0140378 0.000408987 0)
(-0.0142508 0.000384394 0)
(-0.0144496 0.000358162 0)
(-0.0146333 0.000330283 0)
(-0.014801 0.000300757 0)
(-0.0149519 0.0002696 0)
(-0.0150851 0.000236838 0)
(-0.0151999 0.000202511 0)
(-0.0152954 0.000166675 0)
(-0.0153709 0.000129396 0)
(-0.0154258 9.07589e-05 0)
(-0.0154592 5.086e-05 0)
(-0.0154708 9.81174e-06 0)
(-0.0154599 -3.22601e-05 0)
(-0.0154261 -7.52145e-05 0)
(-0.015369 -0.000118897 0)
(-0.0152883 -0.000163142 0)
(-0.0151838 -0.000207771 0)
(-0.0150555 -0.000252592 0)
(-0.0149032 -0.000297408 0)
(-0.0147272 -0.00034201 0)
(-0.0145276 -0.000386184 0)
(-0.0143048 -0.00042971 0)
(-0.0140591 -0.000472364 0)
(-0.0137912 -0.000513922 0)
(-0.0135017 -0.00055416 0)
(-0.0131914 -0.000592856 0)
(-0.0128611 -0.000629792 0)
(-0.012512 -0.000664759 0)
(-0.0121449 -0.000697555 0)
(-0.0117613 -0.000727988 0)
(-0.0113622 -0.00075588 0)
(-0.0109492 -0.000781067 0)
(-0.0105237 -0.000803403 0)
(-0.0100871 -0.000822756 0)
(-0.00964109 -0.000839017 0)
(-0.00918724 -0.000852095 0)
(-0.00872722 -0.000861919 0)
(-0.00826275 -0.000868443 0)
(-0.00779551 -0.000871639 0)
(-0.00732724 -0.000871503 0)
(-0.00685965 -0.000868054 0)
(-0.00639444 -0.000861328 0)
(-0.0059333 -0.000851385 0)
(-0.00547786 -0.000838302 0)
(-0.00502974 -0.000822175 0)
(-0.00459048 -0.000803116 0)
(-0.00416159 -0.000781252 0)
(-0.00374449 -0.000756722 0)
(-0.00334055 -0.000729677 0)
(-0.00295105 -0.000700277 0)
(-0.00257719 -0.00066869 0)
(-0.00222009 -0.00063509 0)
(-0.00188078 -0.000599652 0)
(-0.00156021 -0.00056256 0)
(-0.00125923 -0.000523994 0)
(-0.000978591 -0.000484139 0)
(-0.000718966 -0.00044318 0)
(-0.00048092 -0.000401304 0)
(-0.000264924 -0.0003587 0)
(-7.13494e-05 -0.000315565 0)
(9.95374e-05 -0.000272093 0)
(0.000247583 -0.000228494 0)
(0.000372753 -0.000185 0)
(0.000475142 -0.000141853 0)
(0.000554985 -9.93293e-05 0)
(0.000612682 -5.77413e-05 0)
(0.000648812 -1.74526e-05 0)
(0.000664172 2.11087e-05 0)
(0.000659801 5.74303e-05 0)
(0.000637031 9.0896e-05 0)
(0.000597529 0.000120759 0)
(0.000543357 0.000146113 0)
(0.000477033 0.000165862 0)
(0.000401591 0.000178699 0)
(0.000320641 0.000183099 0)
(0.00023842 0.000177366 0)
(0.00015971 0.000159793 0)
(8.96215e-05 0.000128994 0)
(3.47942e-05 8.46028e-05 0)
(6.10125e-06 2.91316e-05 0)
(-3.57064e-06 4.8171e-07 0)
(-3.41297e-05 6.27038e-05 0)
(-0.000109728 0.000157126 0)
(-0.000228149 0.000265739 0)
(-0.000388897 0.000377401 0)
(-0.000590869 0.000484993 0)
(-0.000831543 0.000584293 0)
(-0.00110756 0.000673123 0)
(-0.00141517 0.000750658 0)
(-0.00175047 0.000816946 0)
(-0.00210961 0.000872575 0)
(-0.00248893 0.000918441 0)
(-0.00288506 0.000955595 0)
(-0.00329497 0.000985136 0)
(-0.00371595 0.00100814 0)
(-0.00414567 0.00102561 0)
(-0.00458211 0.00103848 0)
(-0.00502357 0.00104756 0)
(-0.00546862 0.00105355 0)
(-0.00591607 0.00105705 0)
(-0.00636493 0.00105857 0)
(-0.00681439 0.00105852 0)
(-0.00726378 0.0010572 0)
(-0.00771254 0.00105487 0)
(-0.00816019 0.00105171 0)
(-0.00860633 0.00104783 0)
(-0.00905059 0.00104331 0)
(-0.00949263 0.00103818 0)
(-0.00993212 0.00103244 0)
(-0.0103687 0.00102606 0)
(-0.0108021 0.00101898 0)
(-0.0112319 0.00101112 0)
(-0.0116576 0.00100241 0)
(-0.012079 0.000992733 0)
(-0.0124954 0.000981987 0)
(-0.0129065 0.000970055 0)
(-0.0133116 0.000956817 0)
(-0.0137102 0.000942151 0)
(-0.0141016 0.000925933 0)
(-0.0144851 0.000908043 0)
(-0.01486 0.000888359 0)
(-0.0152255 0.000866764 0)
(-0.0155808 0.000843146 0)
(-0.015925 0.0008174 0)
(-0.0162573 0.000789427 0)
(-0.0165767 0.000759138 0)
(-0.0168822 0.000726453 0)
(-0.0171729 0.000691305 0)
(-0.0174478 0.000653639 0)
(-0.0177059 0.000613413 0)
(-0.0179461 0.000570604 0)
(-0.0181675 0.000525202 0)
(-0.0183689 0.000477218 0)
(-0.0185495 0.00042668 0)
(-0.0187081 0.000373638 0)
(-0.018844 0.000318161 0)
(-0.0189562 0.000260341 0)
(-0.0190437 0.000200292 0)
(-0.0191059 0.00013815 0)
(-0.0191419 7.40743e-05 0)
(-0.0191511 8.24602e-06 0)
(-0.0191329 -5.91316e-05 0)
(-0.0190868 -0.000127834 0)
(-0.0190124 -0.000197615 0)
(-0.0189094 -0.00026821 0)
(-0.0187776 -0.000339338 0)
(-0.0186168 -0.000410697 0)
(-0.0184273 -0.000481977 0)
(-0.018209 -0.000552849 0)
(-0.0179624 -0.00062298 0)
(-0.0176878 -0.000692026 0)
(-0.0173858 -0.000759641 0)
(-0.0170571 -0.000825475 0)
(-0.0167026 -0.00088918 0)
(-0.0163231 -0.000950415 0)
(-0.0159197 -0.00100884 0)
(-0.0154938 -0.00106414 0)
(-0.0150465 -0.001116 0)
(-0.0145793 -0.00116412 0)
(-0.0140938 -0.00120823 0)
(-0.0135916 -0.00124808 0)
(-0.0130744 -0.00128345 0)
(-0.012544 -0.00131413 0)
(-0.0120024 -0.00133995 0)
(-0.0114513 -0.00136078 0)
(-0.0108929 -0.00137652 0)
(-0.0103291 -0.00138707 0)
(-0.00976189 -0.00139242 0)
(-0.00919336 -0.00139254 0)
(-0.00862552 -0.00138747 0)
(-0.00806039 -0.00137727 0)
(-0.00749996 -0.00136201 0)
(-0.00694617 -0.00134183 0)
(-0.00640092 -0.00131686 0)
(-0.00586607 -0.00128728 0)
(-0.00534338 -0.00125328 0)
(-0.00483456 -0.00121508 0)
(-0.00434123 -0.0011729 0)
(-0.00386491 -0.00112699 0)
(-0.00340706 -0.00107761 0)
(-0.00296901 -0.00102502 0)
(-0.002552 -0.000969493 0)
(-0.00215718 -0.000911315 0)
(-0.00178557 -0.000850765 0)
(-0.0014381 -0.00078813 0)
(-0.00111558 -0.000723699 0)
(-0.000818715 -0.000657765 0)
(-0.000548083 -0.000590628 0)
(-0.000304149 -0.000522597 0)
(-8.72457e-05 -0.000453989 0)
(0.000102418 -0.000385144 0)
(0.000264784 -0.000316425 0)
(0.00039996 -0.000248231 0)
(0.000508215 -0.000181007 0)
(0.000590017 -0.000115259 0)
(0.000646056 -5.15686e-05 0)
(0.000677275 9.38198e-06 0)
(0.000684906 6.67877e-05 0)
(0.000670516 0.000119692 0)
(0.000636054 0.000166956 0)
(0.000583905 0.000207223 0)
(0.000516949 0.000238889 0)
(0.000438612 0.000260083 0)
(0.000352922 0.000268675 0)
(0.000264558 0.000262339 0)
(0.000178785 0.000238724 0)
(0.000101285 0.000195774 0)
(3.97276e-05 0.00013229 0)
(7.05912e-06 4.91397e-05 0)
(-6.49918e-06 2.18365e-05 0)
(-5.1241e-05 0.000129066 0)
(-0.000154453 0.000269841 0)
(-0.000309165 0.000424822 0)
(-0.000512734 0.000581537 0)
(-0.000763017 0.000731744 0)
(-0.00105672 0.0008704 0)
(-0.0013899 0.000994805 0)
(-0.00175835 0.00110389 0)
(-0.00215779 0.00119766 0)
(-0.00258405 0.00127684 0)
(-0.00303313 0.00134257 0)
(-0.00350135 0.00139621 0)
(-0.00398537 0.0014392 0)
(-0.00448222 0.00147299 0)
(-0.00498926 0.00149892 0)
(-0.00550425 0.00151824 0)
(-0.00602523 0.00153209 0)
(-0.00655055 0.00154142 0)
(-0.00707884 0.00154709 0)
(-0.00760892 0.00154978 0)
(-0.00813982 0.00155006 0)
(-0.00867072 0.0015484 0)
(-0.00920092 0.00154514 0)
(-0.00972982 0.00154055 0)
(-0.0102569 0.00153479 0)
(-0.0107817 0.00152799 0)
(-0.0113037 0.00152019 0)
(-0.0118226 0.0015114 0)
(-0.0123378 0.00150157 0)
(-0.012849 0.00149064 0)
(-0.0133557 0.00147851 0)
(-0.0138574 0.00146505 0)
(-0.0143535 0.00145013 0)
(-0.0148434 0.0014336 0)
(-0.0153267 0.00141529 0)
(-0.0158025 0.00139505 0)
(-0.0162701 0.00137269 0)
(-0.0167289 0.00134805 0)
(-0.0171779 0.00132097 0)
(-0.0176164 0.00129126 0)
(-0.0180434 0.00125877 0)
(-0.0184579 0.00122335 0)
(-0.0188589 0.00118485 0)
(-0.0192454 0.00114313 0)
(-0.0196164 0.00109808 0)
(-0.0199707 0.00104959 0)
(-0.0203072 0.000997559 0)
(-0.0206247 0.000941931 0)
(-0.0209222 0.000882651 0)
(-0.0211983 0.000819691 0)
(-0.0214521 0.000753049 0)
(-0.0216822 0.000682747 0)
(-0.0218877 0.000608836 0)
(-0.0220673 0.000531394 0)
(-0.0222202 0.000450529 0)
(-0.0223451 0.000366382 0)
(-0.0224413 0.000279122 0)
(-0.0225077 0.000188951 0)
(-0.0225436 9.61033e-05 0)
(-0.0225483 8.42899e-07 0)
(-0.0225212 -9.65328e-05 0)
(-0.0224616 -0.000195701 0)
(-0.0223693 -0.000296308 0)
(-0.0222439 -0.000397974 0)
(-0.0220852 -0.000500296 0)
(-0.0218932 -0.000602848 0)
(-0.0216679 -0.000705183 0)
(-0.0214098 -0.000806843 0)
(-0.021119 -0.000907351 0)
(-0.0207962 -0.00100623 0)
(-0.020442 -0.00110298 0)
(-0.0200573 -0.00119712 0)
(-0.0196431 -0.00128816 0)
(-0.0192003 -0.00137563 0)
(-0.0187304 -0.00145904 0)
(-0.0182347 -0.00153796 0)
(-0.0177148 -0.00161195 0)
(-0.0171722 -0.0016806 0)
(-0.0166088 -0.00174353 0)
(-0.0160264 -0.00180039 0)
(-0.015427 -0.00185087 0)
(-0.0148127 -0.00189469 0)
(-0.0141855 -0.00193162 0)
(-0.0135476 -0.00196147 0)
(-0.0129014 -0.00198409 0)
(-0.012249 -0.00199938 0)
(-0.0115927 -0.00200728 0)
(-0.0109349 -0.00200779 0)
(-0.0102779 -0.00200094 0)
(-0.00962379 -0.00198681 0)
(-0.00897498 -0.00196552 0)
(-0.00833363 -0.00193725 0)
(-0.00770189 -0.00190219 0)
(-0.00708184 -0.00186058 0)
(-0.00647549 -0.00181268 0)
(-0.00588478 -0.0017588 0)
(-0.00531153 -0.00169925 0)
(-0.00475748 -0.00163437 0)
(-0.00422428 -0.00156452 0)
(-0.00371346 -0.00149008 0)
(-0.00322643 -0.00141141 0)
(-0.0027645 -0.00132893 0)
(-0.00232884 -0.00124301 0)
(-0.00192052 -0.00115407 0)
(-0.00154049 -0.00106251 0)
(-0.00118954 -0.000968752 0)
(-0.00086836 -0.000873219 0)
(-0.000577488 -0.000776354 0)
(-0.000317319 -0.000678615 0)
(-8.80972e-05 -0.000580497 0)
(0.0001101 -0.000482517 0)
(0.000277378 -0.000385258 0)
(0.00041404 -0.000289365 0)
(0.000520613 -0.000195565 0)
(0.000597873 -0.000104697 0)
(0.000646881 -1.77302e-05 0)
(0.000669019 6.41989e-05 0)
(0.000666036 0.000139758 0)
(0.000640093 0.000207379 0)
(0.000593815 0.000265226 0)
(0.000530343 0.000311163 0)
(0.000453382 0.000342734 0)
(0.000367259 0.000357182 0)
(0.000276986 0.000351511 0)
(0.000188206 0.000322632 0)
(0.000107087 0.000267627 0)
(4.2077e-05 0.000184135 0)
(7.45503e-06 7.10096e-05 0)
(-9.21883e-06 5.20518e-05 0)
(-6.77324e-05 0.000217474 0)
(-0.000198244 0.000414523 0)
(-0.000389051 0.000623493 0)
(-0.000635214 0.000831276 0)
(-0.000933357 0.00102901 0)
(-0.00127924 0.00121117 0)
(-0.00166823 0.00137475 0)
(-0.00209562 0.00151855 0)
(-0.00255675 0.00164263 0)
(-0.0030471 0.00174789 0)
(-0.00356241 0.00183571 0)
(-0.00409876 0.0019078 0)
(-0.00465255 0.00196595 0)
(-0.00522059 0.00201197 0)
(-0.00580004 0.00204758 0)
(-0.00638844 0.00207438 0)
(-0.00698366 0.0020938 0)
(-0.00758387 0.00210709 0)
(-0.00818751 0.00211535 0)
(-0.00879327 0.00211949 0)
(-0.00940002 0.00212024 0)
(-0.0100068 0.00211823 0)
(-0.0106128 0.00211391 0)
(-0.0112173 0.00210762 0)
(-0.0118197 0.00209963 0)
(-0.0124193 0.00209007 0)
(-0.0130157 0.00207902 0)
(-0.0136082 0.00206649 0)
(-0.0141964 0.00205244 0)
(-0.0147797 0.00203678 0)
(-0.0153576 0.00201938 0)
(-0.0159294 0.0020001 0)
(-0.0164945 0.00197874 0)
(-0.0170522 0.00195511 0)
(-0.0176018 0.00192901 0)
(-0.0181425 0.00190022 0)
(-0.0186734 0.00186852 0)
(-0.0191938 0.00183368 0)
(-0.0197026 0.00179549 0)
(-0.0201989 0.00175372 0)
(-0.0206815 0.00170817 0)
(-0.0211495 0.00165864 0)
(-0.0216018 0.00160494 0)
(-0.022037 0.00154689 0)
(-0.022454 0.00148436 0)
(-0.0228516 0.00141719 0)
(-0.0232286 0.00134529 0)
(-0.0235836 0.00126857 0)
(-0.0239153 0.00118697 0)
(-0.0242226 0.00110046 0)
(-0.0245041 0.00100907 0)
(-0.0247585 0.000912814 0)
(-0.0249846 0.000811788 0)
(-0.0251813 0.000706104 0)
(-0.0253474 0.000595918 0)
(-0.0254818 0.000481427 0)
(-0.0255835 0.00036287 0)
(-0.0256516 0.000240526 0)
(-0.0256851 0.000114715 0)
(-0.0256834 -1.42006e-05 0)
(-0.0256458 -0.000145819 0)
(-0.0255718 -0.000279702 0)
(-0.0254609 -0.000415374 0)
(-0.0253129 -0.000552326 0)
(-0.0251277 -0.000690018 0)
(-0.0249053 -0.000827882 0)
(-0.0246458 -0.000965325 0)
(-0.0243496 -0.00110174 0)
(-0.0240171 -0.00123649 0)
(-0.023649 -0.00136895 0)
(-0.0232461 -0.00149847 0)
(-0.0228093 -0.0016244 0)
(-0.0223398 -0.00174611 0)
(-0.0218388 -0.00186297 0)
(-0.0213078 -0.00197437 0)
(-0.0207483 -0.00207972 0)
(-0.020162 -0.00217844 0)
(-0.0195508 -0.00227002 0)
(-0.0189167 -0.00235395 0)
(-0.0182616 -0.00242979 0)
(-0.0175879 -0.00249712 0)
(-0.0168978 -0.00255559 0)
(-0.0161935 -0.00260489 0)
(-0.0154776 -0.00264478 0)
(-0.0147524 -0.00267508 0)
(-0.0140206 -0.00269564 0)
(-0.0132845 -0.00270639 0)
(-0.0125467 -0.00270734 0)
(-0.0118098 -0.00269852 0)
(-0.0110762 -0.00268005 0)
(-0.0103484 -0.00265208 0)
(-0.00962885 -0.00261483 0)
(-0.00891983 -0.00256856 0)
(-0.00822368 -0.00251359 0)
(-0.00754259 -0.00245026 0)
(-0.00687868 -0.00237896 0)
(-0.00623397 -0.00230011 0)
(-0.00561037 -0.00221415 0)
(-0.00500968 -0.00212155 0)
(-0.0044336 -0.00202279 0)
(-0.00388367 -0.00191838 0)
(-0.00336135 -0.00180884 0)
(-0.00286793 -0.00169467 0)
(-0.00240458 -0.00157642 0)
(-0.00197236 -0.00145462 0)
(-0.00157216 -0.00132984 0)
(-0.00120473 -0.00120263 0)
(-0.000870668 -0.00107359 0)
(-0.000570425 -0.000943336 0)
(-0.00030427 -0.000812527 0)
(-7.22916e-05 -0.000681871 0)
(0.00012562 -0.000552146 0)
(0.000289796 -0.000424221 0)
(0.000420812 -0.000299074 0)
(0.000519515 -0.000177823 0)
(0.000587063 -6.17542e-05 0)
(0.000624953 4.76392e-05 0)
(0.000635076 0.000148623 0)
(0.00061975 0.000239179 0)
(0.00058178 0.000316973 0)
(0.000524497 0.000379316 0)
(0.000451814 0.000423156 0)
(0.00036828 0.000445082 0)
(0.000279161 0.000441382 0)
(0.000190405 0.000408152 0)
(0.000108564 0.000341475 0)
(4.26071e-05 0.000237666 0)
(7.4933e-06 9.35298e-05 0)
(-1.17129e-05 9.06479e-05 0)
(-8.33354e-05 0.000327231 0)
(-0.000240244 0.000590506 0)
(-0.000466229 0.000861103 0)
(-0.000754049 0.00112588 0)
(-0.001099 0.00137583 0)
(-0.00149579 0.0016053 0)
(-0.001939 0.00181122 0)
(-0.00242336 0.00199244 0)
(-0.00294378 0.00214917 0)
(-0.00349542 0.00228254 0)
(-0.00407377 0.00239426 0)
(-0.00467466 0.00248638 0)
(-0.00529432 0.00256106 0)
(-0.00592937 0.0026205 0)
(-0.0065768 0.00266679 0)
(-0.00723398 0.00270188 0)
(-0.00789865 0.00272753 0)
(-0.00856881 0.00274529 0)
(-0.00924279 0.0027565 0)
(-0.00991912 0.00276229 0)
(-0.0105966 0.00276361 0)
(-0.011274 0.0027612 0)
(-0.0119506 0.00275565 0)
(-0.0126255 0.00274742 0)
(-0.0132978 0.0027368 0)
(-0.013967 0.00272399 0)
(-0.0146324 0.00270911 0)
(-0.0152934 0.00269216 0)
(-0.0159492 0.0026731 0)
(-0.0165993 0.00265181 0)
(-0.0172431 0.00262816 0)
(-0.0178797 0.00260194 0)
(-0.0185084 0.00257294 0)
(-0.0191286 0.00254091 0)
(-0.0197392 0.0025056 0)
(-0.0203396 0.00246674 0)
(-0.0209285 0.00242404 0)
(-0.0215052 0.00237724 0)
(-0.0220686 0.00232605 0)
(-0.0226174 0.00227022 0)
(-0.0231506 0.00220947 0)
(-0.023667 0.00214357 0)
(-0.0241653 0.00207229 0)
(-0.0246442 0.00199541 0)
(-0.0251024 0.00191276 0)
(-0.0255386 0.00182417 0)
(-0.0259513 0.00172951 0)
(-0.0263392 0.0016287 0)
(-0.0267009 0.00152168 0)
(-0.0270349 0.00140842 0)
(-0.0273401 0.00128895 0)
(-0.0276149 0.00116334 0)
(-0.0278581 0.00103169 0)
(-0.0280683 0.000894187 0)
(-0.0282445 0.000751029 0)
(-0.0283855 0.000602484 0)
(-0.0284901 0.000448868 0)
(-0.0285575 0.000290551 0)
(-0.0285867 0.000127951 0)
(-0.0285769 -3.84605e-05 0)
(-0.0285276 -0.000208165 0)
(-0.0284382 -0.000380595 0)
(-0.0283083 -0.000555139 0)
(-0.0281377 -0.000731146 0)
(-0.0279263 -0.000907927 0)
(-0.0276742 -0.00108476 0)
(-0.0273816 -0.00126089 0)
(-0.027049 -0.00143555 0)
(-0.0266768 -0.00160793 0)
(-0.0262658 -0.00177725 0)
(-0.0258171 -0.00194269 0)
(-0.0253315 -0.00210344 0)
(-0.0248105 -0.00225869 0)
(-0.0242553 -0.00240767 0)
(-0.0236677 -0.00254961 0)
(-0.0230493 -0.00268376 0)
(-0.0224019 -0.00280944 0)
(-0.0217277 -0.00292596 0)
(-0.0210288 -0.00303273 0)
(-0.0203074 -0.00312917 0)
(-0.0195659 -0.00321478 0)
(-0.0188067 -0.00328913 0)
(-0.0180325 -0.00335183 0)
(-0.0172457 -0.00340257 0)
(-0.0164492 -0.00344114 0)
(-0.0156454 -0.00346736 0)
(-0.0148373 -0.00348115 0)
(-0.0140274 -0.0034825 0)
(-0.0132186 -0.00347148 0)
(-0.0124134 -0.00344822 0)
(-0.0116146 -0.00341293 0)
(-0.0108248 -0.00336587 0)
(-0.0100464 -0.00330738 0)
(-0.00928203 -0.00323785 0)
(-0.00853395 -0.0031577 0)
(-0.00780446 -0.00306744 0)
(-0.00709575 -0.00296757 0)
(-0.00640987 -0.00285866 0)
(-0.00574874 -0.0027413 0)
(-0.0051142 -0.00261609 0)
(-0.0045079 -0.00248367 0)
(-0.00393141 -0.00234468 0)
(-0.00338612 -0.00219977 0)
(-0.0028733 -0.00204963 0)
(-0.00239407 -0.00189493 0)
(-0.00194938 -0.00173638 0)
(-0.00154006 -0.0015747 0)
(-0.00116673 -0.00141065 0)
(-0.000829887 -0.00124501 0)
(-0.000529807 -0.00107862 0)
(-0.000266585 -0.000912395 0)
(-4.00985e-05 -0.000747333 0)
(0.000150011 -0.000584542 0)
(0.000304365 -0.000425268 0)
(0.000423871 -0.00027093 0)
(0.000509763 -0.000123149 0)
(0.000563636 1.6206e-05 0)
(0.000587488 0.000144982 0)
(0.000583761 0.000260696 0)
(0.000555392 0.0003605 0)
(0.00050586 0.000441145 0)
(0.000439233 0.000498963 0)
(0.000360233 0.00052987 0)
(0.000274322 0.000529402 0)
(0.000187682 0.000492782 0)
(0.000107144 0.000415034 0)
(4.19712e-05 0.000291111 0)
(7.32449e-06 0.000115911 0)
(-1.39981e-05 0.000137092 0)
(-9.7975e-05 0.000457352 0)
(-0.000280077 0.000796644 0)
(-0.000539895 0.00113645 0)
(-0.000867968 0.00146408 0)
(-0.00125824 0.00177081 0)
(-0.0017043 0.00205118 0)
(-0.0021999 0.00230233 0)
(-0.00273914 0.00252335 0)
(-0.00331647 0.00271472 0)
(-0.00392672 0.0028779 0)
(-0.00456511 0.00301498 0)
(-0.00522725 0.00312837 0)
(-0.00590921 0.00322068 0)
(-0.00660745 0.00329446 0)
(-0.00731882 0.00335222 0)
(-0.00804057 0.00339625 0)
(-0.0087703 0.00342864 0)