/*--------------------------------*- C++ -*----------------------------------*\
| =========                 |                                                 |
| \\      /  F ield         | OpenFOAM: The Open Source CFD Toolbox           |
|  \\    /   O peration     | Version:  2112                                  |
|   \\  /    A nd           | Website:  www.openfoam.com                      |
|    \\/     M anipulation  |                                                 |
\*---------------------------------------------------------------------------*/
FoamFile
{
    version     2.0;
    format      ascii;
    arch        "LSB;label=32;scalar=64";
    class       volScalarField;
    location    "39";
    object      p;
}
// * * * * * * * * * * * * * * * * * * * * * * * * * * * * * * * * * * * * * //

dimensions      [0 2 -2 0 0 0 0];

internalField   nonuniform List<scalar> 
16641
(
3.61869e-07
1.50373e-05
2.94543e-05
3.84941e-05
3.8523e-05
2.76506e-05
5.28233e-06
-2.84325e-05
-7.29336e-05
-0.000127428
-0.000191015
-0.000262782
-0.000341876
-0.000427538
-0.000519139
-0.000616185
-0.000718331
-0.000825371
-0.000937233
-0.00105396
-0.00117569
-0.00130263
-0.00143504
-0.0015732
-0.0017174
-0.0018679
-0.00202492
-0.00218863
-0.00235913
-0.00253645
-0.0027205
-0.00291113
-0.00310805
-0.00331088
-0.00351911
-0.00373211
-0.00394913
-0.00416927
-0.00439149
-0.00461462
-0.00483735
-0.00505822
-0.00527562
-0.00548785
-0.00569304
-0.00588924
-0.0060744
-0.00624641
-0.00640308
-0.00654224
-0.00666168
-0.00675929
-0.00683299
-0.00688085
-0.00690109
-0.00689211
-0.0068526
-0.0067815
-0.00667807
-0.00654197
-0.00637324
-0.00617234
-0.0059402
-0.00567824
-0.00538834
-0.0050729
-0.00473478
-0.00437722
-0.00400421
-0.00361989
-0.00322882
-0.00283589
-0.00244622
-0.0020651
-0.00169791
-0.00134999
-0.00102657
-0.000732667
-0.000472974
-0.000251758
-7.2769e-05
6.08506e-05
0.000146642
0.000182892
0.00016868
0.000103905
-1.07066e-05
-0.000173618
-0.000382512
-0.000634347
-0.000925517
-0.00125168
-0.00160822
-0.00199013
-0.00239218
-0.00280906
-0.00323551
-0.0036664
-0.00409684
-0.00452229
-0.00493862
-0.00534218
-0.00572981
-0.0060989
-0.00644734
-0.00677359
-0.00707657
-0.00735569
-0.00761076
-0.00784196
-0.00804977
-0.00823494
-0.00839839
-0.00854115
-0.00866435
-0.0087691
-0.0088565
-0.00892755
-0.00898314
-0.00902406
-0.00905096
-0.00906448
-0.00906528
-0.00905426
-0.00903287
-0.00900357
-0.00897049
-0.00893981
-0.00892099
-1.38983e-05
6.62442e-07
1.0764e-05
1.48613e-05
1.12033e-05
-1.69812e-06
-2.44837e-05
-5.72037e-05
-9.95539e-05
-0.000150999
-0.00021087
-0.00027846
-0.00035308
-0.000434105
-0.000521004
-0.000613355
-0.000710855
-0.000813316
-0.000920663
-0.00103292
-0.00115019
-0.00127265
-0.00140052
-0.00153403
-0.00167343
-0.00181894
-0.00197076
-0.00212903
-0.00229385
-0.00246524
-0.00264313
-0.00282736
-0.0030177
-0.00321379
-0.00341517
-0.00362125
-0.00383133
-0.00404459
-0.00426005
-0.00447662
-0.00469306
-0.004908
-0.00511992
-0.00532719
-0.00552805
-0.00572063
-0.00590297
-0.00607305
-0.00622876
-0.006368
-0.00648865
-0.00658864
-0.00666596
-0.00671872
-0.00674516
-0.00674372
-0.00671308
-0.00665217
-0.00656025
-0.00643692
-0.00628217
-0.00609641
-0.00588048
-0.00563568
-0.00536381
-0.00506716
-0.00474846
-0.00441078
-0.00405783
-0.00369369
-0.00332273
-0.00294965
-0.00257939
-0.00221704
-0.00186776
-0.00153673
-0.00122898
-0.000949339
-0.000702342
-0.000492099
-0.000322224
-0.000195739
-0.000115011
-8.16802e-05
-9.66254e-05
-0.000159934
-0.000270896
-0.000428024
-0.000629081
-0.000871143
-0.00115068
-0.00146364
-0.0018055
-0.00217149
-0.00255663
-0.00295584
-0.00336411
-0.00377655
-0.00418854
-0.00459578
-0.00499435
-0.00538081
-0.00575219
-0.00610602
-0.00644033
-0.00675367
-0.00704503
-0.00731385
-0.00755994
-0.00778348
-0.00798489
-0.00816487
-0.00832426
-0.00846404
-0.00858522
-0.00868888
-0.00877605
-0.00884772
-0.00890478
-0.00894809
-0.0089784
-0.00899647
-0.00900314
-0.00899945
-0.0089868
-0.00896733
-0.00894416
-0.00892111
-0.00890219
-2.81906e-05
-9.32423e-06
7.82753e-07
3.29728e-06
-1.83336e-06
-1.56393e-05
-3.8613e-05
-7.07747e-05
-0.000111866
-0.000161437
-0.000218929
-0.000283736
-0.000355261
-0.000432959
-0.000516361
-0.000605094
-0.000698891
-0.000797586
-0.000901114
-0.0010095
-0.00112286
-0.00124133
-0.00136514
-0.0014945
-0.00162964
-0.00177078
-0.00191811
-0.00207178
-0.00223187
-0.00239843
-0.0025714
-0.00275066
-0.002936
-0.0031271
-0.00332353
-0.00352478
-0.00373018
-0.00393898
-0.00415025
-0.00436298
-0.00457598
-0.00478795
-0.00499743
-0.00520286
-0.00540254
-0.00559466
-0.00577729
-0.00594846
-0.00610611
-0.00624815
-0.00637249
-0.00647707
-0.00655987
-0.00661899
-0.00665266
-0.00665929
-0.0066375
-0.00658621
-0.00650459
-0.00639219
-0.00624892
-0.00607511
-0.00587152
-0.00563936
-0.00538036
-0.00509674
-0.00479078
-0.00446606
-0.00412589
-0.00377422
-0.00341536
-0.00305393
-0.00269478
-0.00234292
-0.00200344
-0.00168143
-0.00138188
-0.00110956
-0.000868939
-0.000664097
-0.000498607
-0.000375465
-0.000297015
-0.000264884
-0.000279943
-0.000342277
-0.000451186
-0.000605195
-0.000802092
-0.00103899
-0.00131238
-0.00161826
-0.00195221
-0.0023095
-0.00268522
-0.00307441
-0.00347213
-0.00387364
-0.00427441
-0.00467026
-0.00505742
-0.00543256
-0.00579282
-0.00613587
-0.00645985
-0.0067634
-0.00704558
-0.00730592
-0.00754428
-0.00776086
-0.00795613
-0.00813078
-0.00828566
-0.00842172
-0.00853999
-0.00864152
-0.00872733
-0.00879841
-0.00885567
-0.00889998
-0.00893212
-0.00895287
-0.00896304
-0.00896355
-0.00895555
-0.00894068
-0.00892115
-0.00889815
-0.00887133
-3.73668e-05
-1.34264e-05
-1.76721e-06
6.58481e-07
-4.9268e-06
-1.91378e-05
-4.22416e-05
-7.41242e-05
-0.000114473
-0.000162841
-0.000218696
-0.000281478
-0.000350635
-0.000425669
-0.000506155
-0.000591759
-0.000682243
-0.000777469
-0.000877397
-0.000982072
-0.00109161
-0.00120618
-0.001326
-0.0014513
-0.00158231
-0.00171926
-0.00186235
-0.00201175
-0.00216757
-0.00232986
-0.00249861
-0.00267373
-0.00285504
-0.00304228
-0.00323509
-0.00343297
-0.00363535
-0.0038415
-0.0040506
-0.00426165
-0.00447355
-0.00468504
-0.00489472
-0.00510106
-0.0053024
-0.00549696
-0.00568284
-0.00585806
-0.00602055
-0.00616824
-0.00629898
-0.0064107
-0.00650132
-0.00656889
-0.00661159
-0.00662774
-0.0066159
-0.00657489
-0.00650382
-0.00640213
-0.00626965
-0.00610663
-0.00591373
-0.0056921
-0.00544344
-0.00517015
-0.00487333
-0.00455756
-0.00422591
-0.00388222
-0.00353074
-0.00317606
-0.00282299
-0.00247655
-0.00214181
-0.00182388
-0.00152775
-0.00125821
-0.00101975
-0.000816486
-0.000652011
-0.000529356
-0.000450892
-0.000418273
-0.000432391
-0.000493352
-0.000600463
-0.000752256
-0.000946516
-0.00118035
-0.00145024
-0.00175216
-0.00208168
-0.00243409
-0.00280441
-0.00318771
-0.00357907
-0.00397376
-0.00436727
-0.00475549
-0.00513468
-0.0055016
-0.00585348
-0.00618805
-0.00650356
-0.00679875
-0.00707278
-0.00732525
-0.00755612
-0.00776568
-0.00795445
-0.00812318
-0.00827278
-0.00840422
-0.00851859
-0.00861693
-0.0087003
-0.00876971
-0.00882608
-0.00887026
-0.00890302
-0.00892509
-0.00893715
-0.00893991
-0.00893414
-0.00892094
-0.00890172
-0.00887543
-0.00883847
-3.77396e-05
-9.92926e-06
3.12833e-06
5.68169e-06
-1.93539e-07
-1.47851e-05
-3.8138e-05
-6.99835e-05
-0.000109927
-0.000157486
-0.000212122
-0.000273284
-0.000340447
-0.000413141
-0.000490971
-0.000573638
-0.000660936
-0.000752762
-0.000849107
-0.000950045
-0.00105572
-0.00116633
-0.00128211
-0.00140332
-0.00153021
-0.00166305
-0.00180205
-0.00194742
-0.0020993
-0.00225778
-0.00242291
-0.00259462
-0.00277282
-0.00295727
-0.00314769
-0.00334365
-0.00354464
-0.00374999
-0.00395893
-0.00417053
-0.00438375
-0.00459735
-0.00480998
-0.00502014
-0.00522616
-0.00542627
-0.00561856
-0.00580101
-0.00597154
-0.00612799
-0.00626818
-0.00638993
-0.00649111
-0.00656966
-0.00662366
-0.00665135
-0.00665117
-0.00662183
-0.00656234
-0.00647205
-0.0063507
-0.00619842
-0.00601582
-0.00580397
-0.00556431
-0.00529843
-0.0050104
-0.00470184
-0.00437645
-0.0040382
-0.00369134
-0.00334046
-0.00299039
-0.00264617
-0.00231292
-0.00199577
-0.00169977
-0.00142978
-0.00119035
-0.000985657
-0.000819379
-0.00069461
-0.00061379
-0.000578633
-0.000590084
-0.00064829
-0.000752588
-0.000901523
-0.00109288
-0.00132376
-0.00159061
-0.00188937
-0.00221556
-0.00256439
-0.00293089
-0.00331003
-0.00369685
-0.00408656
-0.00447467
-0.00485703
-0.00522992
-0.00559012
-0.00593491
-0.00626207
-0.00656994
-0.00685733
-0.00712351
-0.00736818
-0.0075914
-0.00779355
-0.00797526
-0.00813737
-0.00828085
-0.00840677
-0.00851624
-0.0086104
-0.00869033
-0.00875705
-0.00881151
-0.00885456
-0.00888693
-0.00890926
-0.00892209
-0.00892589
-0.00892104
-0.00890814
-0.00888794
-0.00885754
-0.00881068
-2.72629e-05
2.78372e-06
1.65845e-05
1.90326e-05
1.27014e-05
-2.45775e-06
-2.62983e-05
-5.8408e-05
-9.82998e-05
-0.000145436
-0.000199251
-0.000259185
-0.000324718
-0.000395397
-0.000470853
-0.000550816
-0.000635116
-0.00072369
-0.000816569
-0.000913869
-0.00101577
-0.00112252
-0.0012344
-0.00135169
-0.0014747
-0.00160373
-0.00173906
-0.00188093
-0.00202953
-0.00218502
-0.00234749
-0.00251697
-0.00269339
-0.00287662
-0.00306643
-0.00326247
-0.00346427
-0.00367127
-0.00388272
-0.00409776
-0.00431536
-0.00453433
-0.00475332
-0.00497082
-0.00518516
-0.00539451
-0.00559691
-0.0057903
-0.00597248
-0.00614121
-0.00629421
-0.00642919
-0.00654389
-0.00663614
-0.00670388
-0.00674523
-0.00675851
-0.00674232
-0.00669555
-0.00661745
-0.00650765
-0.00636622
-0.00619366
-0.00599101
-0.00575971
-0.00550153
-0.00521938
-0.004916
-0.00459484
-0.00425978
-0.00391509
-0.00356536
-0.00321548
-0.00287052
-0.00253566
-0.0022161
-0.00191698
-0.00164324
-0.00139954
-0.00119016
-0.00101888
-0.000888898
-0.000802767
-0.000762297
-0.000768521
-0.00082166
-0.000921111
-0.00106546
-0.00125251
-0.00147935
-0.00174242
-0.00203761
-0.00236039
-0.00270587
-0.00306902
-0.00344471
-0.00382791
-0.00421373
-0.0045976
-0.00497531
-0.00534312
-0.00569777
-0.00603653
-0.00635724
-0.00665826
-0.00693846
-0.00719721
-0.00743429
-0.00764987
-0.00784444
-0.00801874
-0.00817372
-0.00831045
-0.00843009
-0.00853386
-0.00862295
-0.00869849
-0.00876158
-0.00881317
-0.0088541
-0.00888507
-0.00890664
-0.00891921
-0.008923
-0.00891808
-0.00890462
-0.00888285
-0.00884846
-0.00879314
-5.00476e-06
2.56325e-05
3.93102e-05
4.11642e-05
3.40041e-05
1.79484e-05
-6.70688e-06
-3.94264e-05
-7.96315e-05
-0.000126723
-0.000180096
-0.000239172
-0.000303428
-0.00037242
-0.000445801
-0.00052333
-0.00060488
-0.000690431
-0.000780065
-0.000873951
-0.000972329
-0.0010755
-0.00118379
-0.00129756
-0.00141717
-0.001543
-0.00167537
-0.0018146
-0.00196096
-0.00211467
-0.00227591
-0.00244477
-0.00262129
-0.0028054
-0.00299694
-0.00319566
-0.00340115
-0.00361288
-0.00383018
-0.00405221
-0.00427794
-0.00450619
-0.00473559
-0.00496458
-0.00519143
-0.00541423
-0.00563094
-0.00583936
-0.00603719
-0.00622204
-0.0063915
-0.00654312
-0.0066745
-0.00678331
-0.00686736
-0.00692462
-0.0069533
-0.00695185
-0.00691906
-0.00685408
-0.00675646
-0.00662616
-0.00646364
-0.00626986
-0.00604628
-0.0057946
-0.00551754
-0.005218
-0.00489941
-0.00456564
-0.00422098
-0.00387004
-0.00351776
-0.00316926
-0.00282981
-0.00250468
-0.00219912
-0.00191818
-0.00166664
-0.00144892
-0.00126894
-0.00113006
-0.00103495
-0.000985578
-0.000983102
-0.00102786
-0.00111935
-0.00125624
-0.00143637
-0.00165688
-0.00191419
-0.00220418
-0.00252224
-0.00286343
-0.0032226
-0.00359454
-0.00397406
-0.0043562
-0.00473625
-0.0051099
-0.00547332
-0.00582318
-0.00615672
-0.00647174
-0.00676661
-0.00704024
-0.00729204
-0.00752188
-0.00773002
-0.00791705
-0.00808383
-0.00823141
-0.00836099
-0.00847385
-0.00857129
-0.0086546
-0.00872501
-0.00878363
-0.00883149
-0.00886942
-0.0088981
-0.00891802
-0.00892945
-0.00893243
-0.00892674
-0.00891225
-0.00888879
-0.00885104
-0.00878928
2.93655e-05
5.90495e-05
7.16605e-05
7.22908e-05
6.38008e-05
4.64253e-05
2.05734e-05
-1.31199e-05
-5.3996e-05
-0.000101397
-0.000154677
-0.000213238
-0.000276548
-0.000344173
-0.000415789
-0.000491189
-0.000570292
-0.000653133
-0.000739852
-0.000830686
-0.000925942
-0.00102599
-0.00113125
-0.00124214
-0.00135913
-0.00148264
-0.00161312
-0.00175095
-0.00189651
-0.0020501
-0.00221201
-0.00238241
-0.00256144
-0.00274912
-0.00294537
-0.00315001
-0.00336268
-0.00358292
-0.00381006
-0.00404327
-0.00428151
-0.00452356
-0.00476798
-0.00501312
-0.00525716
-0.00549806
-0.00573363
-0.00596152
-0.00617926
-0.00638431
-0.00657406
-0.0067459
-0.00689725
-0.00702564
-0.00712871
-0.00720429
-0.00725045
-0.00726553
-0.00724822
-0.00719756
-0.00711302
-0.00699449
-0.00684237
-0.00665753
-0.00644128
-0.00619571
-0.00592314
-0.00562651
-0.00530926
-0.00497527
-0.00462884
-0.00427463
-0.0039176
-0.00356294
-0.00321599
-0.00288213
-0.00256669
-0.00227488
-0.00201162
-0.00178149
-0.00158859
-0.00143645
-0.00132794
-0.00126521
-0.00124959
-0.00128161
-0.00136091
-0.00148627
-0.00165566
-0.00186626
-0.00211456
-0.00239641
-0.0027072
-0.00304191
-0.0033953
-0.00376205
-0.00413684
-0.00451456
-0.00489037
-0.00525981
-0.00561892
-0.00596425
-0.00629296
-0.00660278
-0.00689203
-0.00715963
-0.00740499
-0.00762803
-0.00782908
-0.0080088
-0.00816818
-0.00830836
-0.00843066
-0.00853648
-0.00862724
-0.00870432
-0.00876904
-0.0088226
-0.00886607
-0.0089003
-0.00892598
-0.00894355
-0.00895319
-0.0089548
-0.00894796
-0.00893229
-0.00890735
-0.00886718
-0.00880117
7.58651e-05
0.000103187
0.0001138
0.000112533
0.000102158
8.29971e-05
5.55469e-05
2.05159e-05
-2.13746e-05
-6.9416e-05
-0.00012293
-0.000181297
-0.000243986
-0.000310574
-0.000380765
-0.000454396
-0.000531437
-0.000611987
-0.000696259
-0.000784567
-0.000877305
-0.000974934
-0.00107796
-0.00118692
-0.00130236
-0.00142484
-0.00155488
-0.001693
-0.00183967
-0.00199533
-0.00216035
-0.00233504
-0.00251961
-0.00271418
-0.00291877
-0.00313323
-0.00335728
-0.00359044
-0.00383206
-0.00408127
-0.00433698
-0.00459788
-0.00486243
-0.00512884
-0.00539514
-0.00565911
-0.00591838
-0.00617041
-0.00641254
-0.00664201
-0.00685603
-0.00705179
-0.00722656
-0.00737767
-0.00750261
-0.00759909
-0.00766503
-0.00769868
-0.0076986
-0.00766377
-0.00759355
-0.0074878
-0.00734684
-0.00717146
-0.00696295
-0.00672335
-0.00645494
-0.00616064
-0.00584387
-0.00550849
-0.0051588
-0.00479948
-0.00443553
-0.00407219
-0.00371485
-0.003369
-0.0030401
-0.00273349
-0.00245425
-0.00220715
-0.0019965
-0.00182605
-0.00169892
-0.00161748
-0.00158332
-0.00159718
-0.00165891
-0.0017675
-0.00192108
-0.00211696
-0.0023517
-0.00262123
-0.00292093
-0.00324575
-0.00359039
-0.0039494
-0.00431736
-0.00468899
-0.00505928
-0.0054236
-0.00577783
-0.00611837
-0.00644223
-0.00674701
-0.00703098
-0.00729296
-0.00753237
-0.0077491
-0.00794353
-0.00811638
-0.00826869
-0.00840172
-0.0085169
-0.00861573
-0.00869974
-0.00877042
-0.0088292
-0.00887736
-0.00891603
-0.00894612
-0.00896832
-0.00898307
-0.0089905
-0.00899041
-0.00898225
-0.00896549
-0.00893949
-0.00889796
-0.00882985
0.000134341
0.000158019
0.000165751
0.000161918
0.0001491
0.000127688
9.82452e-05
6.1528e-05
1.8302e-05
-3.06889e-05
-8.4743e-05
-0.000143232
-0.000205631
-0.000271539
-0.000340697
-0.000412992
-0.00048846
-0.000567274
-0.00064973
-0.000736237
-0.000827292
-0.000923465
-0.00102538
-0.00113368
-0.00124906
-0.00137218
-0.00150371
-0.0016443
-0.00179454
-0.00195501
-0.0021262
-0.00230854
-0.00250234
-0.00270781
-0.00292503
-0.00315389
-0.00339414
-0.00364528
-0.00390662
-0.00417721
-0.00445587
-0.00474114
-0.00503132
-0.00532446
-0.00561836
-0.00591062
-0.00619862
-0.00647963
-0.00675073
-0.00700898
-0.00725136
-0.00747488
-0.00767661
-0.00785374
-0.00800361
-0.00812377
-0.00821204
-0.00826657
-0.00828581
-0.00826867
-0.00821442
-0.00812285
-0.0079942
-0.00782922
-0.00762918
-0.00739594
-0.00713182
-0.00683967
-0.00652287
-0.00618525
-0.00583109
-0.00546505
-0.00509216
-0.00471768
-0.00434708
-0.00398593
-0.0036398
-0.00331417
-0.00301433
-0.00274525
-0.00251146
-0.002317
-0.00216525
-0.00205889
-0.00199981
-0.00198904
-0.00202673
-0.00211214
-0.00224362
-0.00241869
-0.00263409
-0.00288583
-0.00316937
-0.00347967
-0.00381139
-0.004159
-0.00451696
-0.00487983
-0.00524243
-0.00559994
-0.00594803
-0.00628291
-0.0066014
-0.00690096
-0.00717969
-0.00743631
-0.00767016
-0.00788109
-0.00806945
-0.00823599
-0.00838179
-0.00850818
-0.00861665
-0.00870882
-0.00878632
-0.00885075
-0.00890363
-0.00894634
-0.00898009
-0.00900585
-0.00902436
-0.00903606
-0.00904109
-0.00903919
-0.00902975
-0.00901212
-0.00898558
-0.00894375
-0.00887553
0.000204531
0.000223382
0.000227402
0.000220368
0.000204576
0.000180476
0.000148674
0.000109951
6.50959e-05
1.48691e-05
-4.00198e-05
-9.89476e-05
-0.000161408
-0.000227037
-0.000295621
-0.000367113
-0.000441623
-0.000519412
-0.000600878
-0.000686539
-0.000777014
-0.000873
-0.000975255
-0.00108458
-0.00120178
-0.0013277
-0.00146315
-0.00160893
-0.00176578
-0.00193442
-0.00211547
-0.00230948
-0.00251685
-0.00273788
-0.00297268
-0.00322116
-0.00348305
-0.00375779
-0.0040446
-0.00434242
-0.0046499
-0.0049654
-0.00528702
-0.00561257
-0.00593963
-0.00626554
-0.00658745
-0.00690235
-0.00720713
-0.00749859
-0.00777353
-0.00802875
-0.00826117
-0.00846779
-0.00864584
-0.00879273
-0.00890617
-0.00898421
-0.00902522
-0.00902799
-0.00899175
-0.00891617
-0.00880145
-0.00864824
-0.00845775
-0.00823173
-0.00797243
-0.00768265
-0.00736568
-0.00702529
-0.00666572
-0.00629161
-0.00590794
-0.00552001
-0.00513332
-0.00475353
-0.0043863
-0.00403728
-0.00371194
-0.00341547
-0.00315268
-0.00292791
-0.00274487
-0.00260659
-0.00251534
-0.00247251
-0.00247863
-0.00253331
-0.00263523
-0.00278219
-0.00297118
-0.0031984
-0.00345943
-0.00374931
-0.00406273
-0.0043941
-0.00473778
-0.00508819
-0.00543996
-0.00578809
-0.00612801
-0.0064557
-0.00676775
-0.00706142
-0.0073346
-0.00758586
-0.00781439
-0.00801995
-0.0082028
-0.00836368
-0.00850365
-0.00862407
-0.0087265
-0.00881261
-0.00888413
-0.00894274
-0.00899007
-0.00902758
-0.00905658
-0.00907812
-0.00909299
-0.00910167
-0.00910432
-0.0091007
-0.00909016
-0.00907202
-0.00904552
-0.00900437
-0.00893781
0.000286069
0.000298985
0.000298513
0.000287692
0.000268444
0.00024126
0.000206775
0.000165763
0.000119015
6.72854e-05
1.1272e-05
-4.84256e-05
-0.000111337
-0.000177147
-0.000245707
-0.000317044
-0.000391361
-0.000469022
-0.000550544
-0.000636573
-0.000727869
-0.000825278
-0.000929715
-0.00104214
-0.00116354
-0.00129492
-0.00143725
-0.00159152
-0.00175862
-0.00193941
-0.00213466
-0.00234501
-0.00257095
-0.00281283
-0.00307076
-0.00334464
-0.00363412
-0.00393855
-0.00425701
-0.00458826
-0.00493073
-0.00528257
-0.00564161
-0.00600542
-0.00637128
-0.00673628
-0.00709731
-0.0074511
-0.00779431
-0.00812352
-0.00843531
-0.00872632
-0.00899329
-0.00923308
-0.00944278
-0.0096197
-0.00976144
-0.00986593
-0.00993148
-0.00995677
-0.00994094
-0.00988358
-0.00978478
-0.0096451
-0.00946566
-0.0092481
-0.00899456
-0.00870774
-0.00839081
-0.00804748
-0.00768189
-0.0072986
-0.00690258
-0.00649909
-0.00609366
-0.00569198
-0.00529983
-0.004923
-0.00456712
-0.00423766
-0.0039397
-0.00367791
-0.00345638
-0.00327856
-0.00314714
-0.00306398
-0.00303006
-0.00304543
-0.00310921
-0.00321958
-0.00337385
-0.00356855
-0.00379945
-0.00406176
-0.00435022
-0.00465928
-0.00498322
-0.00531636
-0.00565315
-0.00598837
-0.00631723
-0.00663543
-0.00693932
-0.00722587
-0.00749274
-0.00773827
-0.00796145
-0.00816188
-0.00833971
-0.00849555
-0.00863045
-0.00874572
-0.00884293
-0.0089238
-0.0089901
-0.0090436
-0.009086
-0.00911886
-0.00914357
-0.00916126
-0.00917279
-0.00917872
-0.00917925
-0.00917416
-0.00916286
-0.00914464
-0.00911875
-0.0090792
-0.00901577
0.000378474
0.000384397
0.000378711
0.00036357
0.00034044
0.000309829
0.000272385
0.000228844
0.000179967
0.000126481
6.90464e-05
8.21994e-06
-5.55834e-05
-0.000122115
-0.000191305
-0.000263277
-0.00033834
-0.000416982
-0.000499855
-0.000587756
-0.000681604
-0.000782415
-0.000891284
-0.00100936
-0.00113781
-0.00127783
-0.00143059
-0.00159723
-0.00177883
-0.00197639
-0.00219079
-0.00242276
-0.00267286
-0.00294143
-0.00322857
-0.0035341
-0.00385756
-0.00419814
-0.00455471
-0.00492582
-0.00530964
-0.00570405
-0.00610659
-0.00651453
-0.00692489
-0.00733445
-0.00773984
-0.00813754
-0.00852397
-0.0088955
-0.00924853
-0.00957951
-0.00988503
-0.0101618
-0.0104069
-0.0106173
-0.0107907
-0.0109249
-0.011018
-0.0110687
-0.011076
-0.0110394
-0.0109588
-0.0108348
-0.0106682
-0.0104607
-0.0102142
-0.00993127
-0.00961498
-0.00926889
-0.00889703
-0.00850385
-0.00809424
-0.00767342
-0.00724688
-0.00682034
-0.00639967
-0.00599075
-0.00559942
-0.00523136
-0.00489198
-0.00458628
-0.00431878
-0.00409339
-0.00391329
-0.00378088
-0.00369768
-0.00366429
-0.00368035
-0.00374456
-0.00385468
-0.00400762
-0.00419951
-0.00442579
-0.00468137
-0.00496078
-0.00525831
-0.00556817
-0.0058847
-0.00620247
-0.00651641
-0.00682198
-0.0071152
-0.00739275
-0.00765198
-0.00789096
-0.00810841
-0.0083037
-0.00847678
-0.00862814
-0.00875867
-0.00886964
-0.00896256
-0.00903914
-0.00910119
-0.0091505
-0.00918884
-0.00921785
-0.00923898
-0.00925345
-0.0092622
-0.00926587
-0.00926471
-0.00925859
-0.00924695
-0.00922914
-0.00920442
-0.00916725
-0.00910815
0.000481124
0.000479035
0.000467464
0.00044753
0.000420149
0.000385839
0.000345206
0.000298931
0.000247712
0.000192217
0.000133047
7.06893e-05
5.48379e-06
-6.24068e-05
-0.000133013
-0.00020657
-0.000283515
-0.00036448
-0.000450274
-0.000541863
-0.000640348
-0.000746939
-0.000862929
-0.000989667
-0.00112854
-0.00128093
-0.00144821
-0.0016317
-0.00183265
-0.00205217
-0.00229126
-0.00255069
-0.00283105
-0.00313264
-0.00345549
-0.0037993
-0.00416341
-0.00454683
-0.00494817
-0.00536569
-0.00579729
-0.00624053
-0.00669264
-0.00715059
-0.00761108
-0.00807062
-0.00852558
-0.00897218
-0.00940661
-0.00982505
-0.0102237
-0.0105989
-0.0109471
-0.0112648
-0.0115489
-0.0117965
-0.0120051
-0.0121722
-0.0122961
-0.0123753
-0.0124086
-0.0123954
-0.0123356
-0.0122296
-0.012078
-0.0118824
-0.0116445
-0.0113668
-0.0110521
-0.0107038
-0.0103258
-0.00992247
-0.00949849
-0.00905902
-0.00860948
-0.00815559
-0.00770322
-0.00725837
-0.00682702
-0.00641507
-0.00602823
-0.00567187
-0.00535093
-0.00506983
-0.00483231
-0.00464135
-0.00449912
-0.00440686
-0.00436485
-0.00437242
-0.00442792
-0.00452877
-0.00467156
-0.00485211
-0.0050656
-0.00530673
-0.00556988
-0.00584924
-0.00613904
-0.00643366
-0.00672781
-0.00701663
-0.00729582
-0.00756172
-0.00781133
-0.00804236
-0.00825321
-0.00844297
-0.00861133
-0.00875853
-0.00888531
-0.00899277
-0.00908235
-0.00915568
-0.00921454
-0.00926075
-0.00929608
-0.00932223
-0.00934071
-0.00935281
-0.00935956
-0.00936164
-0.00935942
-0.00935282
-0.00934137
-0.00932448
-0.00930148
-0.00926733
-0.00921346
0.000593234
0.000582137
0.000564065
0.000538929
0.000506993
0.000468757
0.000424759
0.000375578
0.000321815
0.000264051
0.000202796
0.000138445
7.12405e-05
1.23596e-06
-7.17196e-05
-0.000147996
-0.00022818
-0.000313067
-0.000403646
-0.000501075
-0.000606659
-0.00072182
-0.000848069
-0.000986977
-0.00114015
-0.00130918
-0.00149563
-0.00170101
-0.00192669
-0.00217392
-0.00244373
-0.00273694
-0.00305408
-0.0033954
-0.00376076
-0.0041497
-0.00456132
-0.00499438
-0.00544718
-0.00591768
-0.00640345
-0.00690171
-0.00740938
-0.00792308
-0.00843924
-0.00895408
-0.00946369
-0.00996407
-0.0104512
-0.0109211
-0.0113697
-0.0117932
-0.012188
-0.0125505
-0.0128775
-0.0131659
-0.013413
-0.0136165
-0.0137744
-0.013885
-0.0139472
-0.0139603
-0.0139239
-0.0138382
-0.0137039
-0.0135222
-0.0132947
-0.0130238
-0.0127119
-0.0123625
-0.011979
-0.0115657
-0.0111272
-0.0106684
-0.0101946
-0.0097115
-0.00922496
-0.00874101
-0.00826573
-0.00780523
-0.00736547
-0.00695217
-0.00657073
-0.00622605
-0.00592249
-0.00566369
-0.0054525
-0.00529092
-0.00517999
-0.00511977
-0.00510935
-0.00514682
-0.00522937
-0.00535331
-0.00551426
-0.00570721
-0.00592671
-0.00616704
-0.00642238
-0.00668698
-0.0069553
-0.00722221
-0.00748305
-0.00773378
-0.00797101
-0.00819204
-0.00839488
-0.00857825
-0.00874151
-0.00888461
-0.00900801
-0.00911264
-0.00919975
-0.00927086
-0.00932766
-0.00937192
-0.00940542
-0.00942986
-0.00944679
-0.00945755
-0.00946322
-0.00946458
-0.00946204
-0.00945563
-0.00944497
-0.00942955
-0.00940877
-0.00937814
-0.00933008
0.000713802
0.000692751
0.000667603
0.000636913
0.000600184
0.000557851
0.000510349
0.000458112
0.000401605
0.000341287
0.000277549
0.000210668
0.000140761
6.7752e-05
-8.65509e-06
-8.89874e-05
-0.000174005
-0.00026469
-0.000362232
-0.000468005
-0.000583535
-0.000710478
-0.000850578
-0.00100564
-0.00117749
-0.00136794
-0.00157874
-0.00181154
-0.00206784
-0.00234895
-0.00265595
-0.00298961
-0.00335038
-0.00373835
-0.00415322
-0.00459425
-0.0050603
-0.00554978
-0.00606069
-0.00659063
-0.00713681
-0.00769611
-0.00826512
-0.00884014
-0.00941729
-0.00999251
-0.0105616
-0.0111205
-0.0116648
-0.0121903
-0.012693
-0.0131689
-0.0136141
-0.014025
-0.0143982
-0.0147307
-0.0150196
-0.0152625
-0.0154573
-0.0156023
-0.0156962
-0.0157381
-0.0157276
-0.0156647
-0.0155499
-0.0153843
-0.0151693
-0.0149069
-0.0145996
-0.0142503
-0.0138625
-0.01344
-0.0129874
-0.0125092
-0.0120108
-0.0114976
-0.0109753
-0.01045
-0.00992789
-0.00941513
-0.00891792
-0.0084423
-0.00799407
-0.00757867
-0.00720103
-0.00686549
-0.00657567
-0.00633439
-0.00614355
-0.00600408
-0.00591592
-0.00587801
-0.00588828
-0.00594375
-0.00604057
-0.00617421
-0.00633953
-0.00653101
-0.00674286
-0.00696927
-0.00720453
-0.00744321
-0.00768032
-0.0079114
-0.00813262
-0.00834082
-0.00853357
-0.00870913
-0.00886645
-0.0090051
-0.00912524
-0.00922748
-0.00931284
-0.00938267
-0.0094385
-0.00948202
-0.00951492
-0.00953889
-0.00955547
-0.00956603
-0.0095717
-0.0095733
-0.00957131
-0.00956585
-0.00955662
-0.00954321
-0.00952509
-0.00949836
-0.00945645
0.000841608
0.000809682
0.000776941
0.000740407
0.000698701
0.000652148
0.000601036
0.000545599
0.000486133
0.000422937
0.000356253
0.000286211
0.000212778
0.00013572
5.45721e-05
-3.13734e-05
-0.000123073
-0.000221721
-0.000328728
-0.000445704
-0.00057442
-0.000716775
-0.000874763
-0.00105042
-0.00124581
-0.00146292
-0.00170369
-0.00196988
-0.00226309
-0.00258465
-0.0029356
-0.00331662
-0.00372804
-0.00416972
-0.0046411
-0.00514118
-0.00566847
-0.00622104
-0.00679651
-0.00739212
-0.00800471
-0.0086308
-0.00926663
-0.0099082
-0.0105513
-0.0111917
-0.0118249
-0.0124464
-0.0130519
-0.0136371
-0.0141975
-0.0147291
-0.0152281
-0.0156905
-0.0161131
-0.0164926
-0.016826
-0.017111
-0.0173453
-0.0175271
-0.0176551
-0.0177281
-0.0177458
-0.0177079
-0.0176148
-0.0174674
-0.0172669
-0.017015
-0.016714
-0.0163667
-0.0159761
-0.015546
-0.0150803
-0.0145837
-0.0140611
-0.0135178
-0.0129594
-0.0123918
-0.0118211
-0.0112537
-0.0106958
-0.0101538
-0.00963375
-0.00914162
-0.00868291
-0.00826267
-0.0078853
-0.00755448
-0.00727307
-0.00704299
-0.00686517
-0.00673952
-0.00666493
-0.00663925
-0.00665943
-0.00672154
-0.00682095
-0.00695246
-0.00711049
-0.00728924
-0.0074829
-0.00768582
-0.00789265
-0.00809853
-0.00829914
-0.00849083
-0.00867063
-0.00883629
-0.00898628
-0.0091197
-0.00923629
-0.00933629
-0.00942042
-0.00948975
-0.00954561
-0.00958951
-0.00962305
-0.00964781
-0.00966531
-0.0096769
-0.00968371
-0.0096866
-0.0096861
-0.0096824
-0.00967528
-0.00966441
-0.00964934
-0.00962675
-0.00959107
0.000975159
0.000931487
0.000890689
0.000848077
0.000801261
0.000750409
0.000695591
0.000636811
0.000574143
0.000507692
0.000437517
0.000363572
0.000285648
0.000203326
0.000115949
2.26005e-05
-7.78956e-05
-0.000186966
-0.000306268
-0.000437665
-0.000583186
-0.000744989
-0.000925316
-0.00112644
-0.00135063
-0.00160007
-0.00187681
-0.00218273
-0.00251943
-0.00288823
-0.00329007
-0.0037255
-0.00419462
-0.00469703
-0.00523188
-0.0057978
-0.00639294
-0.00701498
-0.00766116
-0.00832832
-0.00901293
-0.00971115
-0.0104189
-0.0111318
-0.0118454
-0.0125551
-0.0132563
-0.0139443
-0.0146145
-0.0152625
-0.0158837
-0.016474
-0.0170293
-0.0175458
-0.01802
-0.0184486
-0.0188288
-0.0191578
-0.0194336
-0.0196541
-0.0198179
-0.019924
-0.0199717
-0.0199608
-0.0198913
-0.019764
-0.0195799
-0.0193406
-0.0190481
-0.0187048
-0.0183135
-0.0178776
-0.0174008
-0.0168875
-0.0163423
-0.01577
-0.0151763
-0.0145667
-0.0139474
-0.0133244
-0.0127043
-0.0120934
-0.0114982
-0.010925
-0.0103798
-0.00986829
-0.00939571
-0.00896664
-0.00858489
-0.00825347
-0.00797443
-0.0077488
-0.00757658
-0.00745669
-0.00738703
-0.00736453
-0.00738524
-0.00744451
-0.00753711
-0.00765741
-0.00779962
-0.00795793
-0.0081267
-0.00830065
-0.00847499
-0.0086455
-0.00880865
-0.00896159
-0.0091022
-0.00922904
-0.00934134
-0.0094389
-0.00952201
-0.0095914
-0.00964812
-0.00969344
-0.00972877
-0.00975557
-0.00977525
-0.0097891
-0.00979824
-0.00980352
-0.00980549
-0.00980438
-0.00980005
-0.00979224
-0.00978056
-0.00976225
-0.00973266
0.00111267
0.00105644
0.00100718
0.000958312
0.000906303
0.000851086
0.000792483
0.000730197
0.00066404
0.000593886
0.000519579
0.000440866
0.000357333
0.00026835
0.000173042
7.02613e-05
-4.14136e-05
-0.000163664
-0.000298414
-0.000447794
-0.000614103
-0.000799762
-0.00100726
-0.00123909
-0.00149771
-0.00178546
-0.00210447
-0.00245667
-0.00284364
-0.0032666
-0.00372634
-0.00422319
-0.00475697
-0.00532698
-0.00593199
-0.00657026
-0.00723951
-0.00793703
-0.00865963
-0.00940376
-0.0101655
-0.0109406
-0.0117247
-0.012513
-0.013301
-0.0140836
-0.014856
-0.0156135
-0.0163511
-0.0170643
-0.0177485
-0.0183994
-0.0190128
-0.019585
-0.0201123
-0.0205915
-0.0210195
-0.0213938
-0.0217121
-0.0219725
-0.0221735
-0.0223139
-0.022393
-0.0224103
-0.0223659
-0.0222604
-0.0220948
-0.0218701
-0.0215881
-0.021251
-0.0208614
-0.0204222
-0.019937
-0.0194095
-0.018844
-0.0182453
-0.0176184
-0.0169687
-0.016302
-0.0156245
-0.0149424
-0.0142622
-0.0135904
-0.0129338
-0.0122987
-0.0116913
-0.0111178
-0.0105834
-0.010093
-0.00965075
-0.00925989
-0.00892271
-0.00864046
-0.00841333
-0.00824038
-0.00811964
-0.00804809
-0.00802185
-0.00803626
-0.00808607
-0.00816565
-0.00826916
-0.00839076
-0.00852481
-0.00866603
-0.00880963
-0.00895145
-0.00908798
-0.00921643
-0.00933473
-0.00944148
-0.00953592
-0.00961787
-0.0096876
-0.00974579
-0.00979339
-0.00983156
-0.00986156
-0.00988463