/*--------------------------------*- C++ -*----------------------------------*\
| =========                 |                                                 |
| \\      /  F ield         | OpenFOAM: The Open Source CFD Toolbox           |
|  \\    /   O peration     | Version:  2112                                  |
|   \\  /    A nd           | Website:  www.openfoam.com                      |
|    \\/     M anipulation  |                                                 |
\*---------------------------------------------------------------------------*/
FoamFile
{
    version     2.0;
    format      ascii;
    arch        "LSB;label=32;scalar=64";
    class       surfaceScalarField;
    location    "39";
    object      phi;
}
// * * * * * * * * * * * * * * * * * * * * * * * * * * * * * * * * * * * * * //

dimensions      [0 3 -1 0 0 0 0];

oriented        oriented;

internalField   nonuniform List<scalar> 
33024
(
-3.93637e-09
3.67709e-09
2.29036e-08
-2.68439e-08
8.0955e-08
-5.8048e-08
1.61684e-07
-8.0727e-08
2.56376e-07
-9.46895e-08
3.57597e-07
-1.01222e-07
4.59393e-07
-1.01798e-07
5.57184e-07
-9.77896e-08
6.47557e-07
-9.03717e-08
7.28077e-07
-8.05201e-08
7.97114e-07
-6.90386e-08
8.53693e-07
-5.65801e-08
8.97356e-07
-4.36622e-08
9.28036e-07
-3.06802e-08
9.45953e-07
-1.79162e-08
9.51505e-07
-5.55195e-09
9.45181e-07
6.32399e-09
9.27487e-07
1.76939e-08
8.98878e-07
2.8609e-08
8.5971e-07
3.9168e-08
8.10204e-07
4.95061e-08
7.50423e-07
5.97805e-08
6.80265e-07
7.01577e-08
5.99464e-07
8.08017e-08
5.07598e-07
9.18659e-08
4.04113e-07
1.03485e-07
2.88345e-07
1.15768e-07
1.59545e-07
1.288e-07
1.69111e-08
1.42635e-07
-1.40388e-07
1.57299e-07
-3.13181e-07
1.72793e-07
-5.02273e-07
1.89092e-07
-7.0842e-07
2.06147e-07
-9.32308e-07
2.23887e-07
-1.17453e-06
2.42225e-07
-1.43558e-06
2.6105e-07
-1.71582e-06
2.80236e-07
-2.01546e-06
2.99638e-07
-2.33455e-06
3.19096e-07
-2.67298e-06
3.38431e-07
-3.03043e-06
3.57446e-07
-3.40636e-06
3.7593e-07
-3.80002e-06
3.93658e-07
-4.21041e-06
4.1039e-07
-4.63628e-06
4.25875e-07
-5.07613e-06
4.39853e-07
-5.52819e-06
4.52059e-07
-5.99042e-06
4.62224e-07
-6.4605e-06
4.7008e-07
-6.93586e-06
4.75363e-07
-7.41368e-06
4.77815e-07
-7.89087e-06
4.77194e-07
-8.36414e-06
4.73272e-07
-8.82998e-06
4.6584e-07
-9.2847e-06
4.54717e-07
-9.72445e-06
4.3975e-07
-1.01453e-05
4.20815e-07
-1.05431e-05
3.97831e-07
-1.09138e-05
3.70751e-07
-1.12534e-05
3.39577e-07
-1.15578e-05
3.04354e-07
-1.1823e-05
2.65179e-07
-1.20452e-05
2.22201e-07
-1.22208e-05
1.75627e-07
-1.23465e-05
1.25737e-07
-1.24194e-05
7.28591e-08
-1.24368e-05
1.74092e-08
-1.23961e-05
-4.06527e-08
-1.2296e-05
-1.00104e-07
-1.21352e-05
-1.60828e-07
-1.1913e-05
-2.22173e-07
-1.16295e-05
-2.83507e-07
-1.12854e-05
-3.44167e-07
-1.08819e-05
-4.03461e-07
-1.04212e-05
-4.60679e-07
-9.90612e-06
-5.15101e-07
-9.34011e-06
-5.66013e-07
-8.72739e-06
-6.12716e-07
-8.07285e-06
-6.54544e-07
-7.38197e-06
-6.90876e-07
-6.66082e-06
-7.21153e-07
-5.91593e-06
-7.44892e-07
-5.15423e-06
-7.61698e-07
-4.38295e-06
-7.71283e-07
-3.60948e-06
-7.73468e-07
-2.84128e-06
-7.68199e-07
-2.08573e-06
-7.5555e-07
-1.35001e-06
-7.35723e-07
-6.40959e-07
-7.09047e-07
3.50246e-08
-6.75984e-07
6.72192e-07
-6.37168e-07
1.26533e-06
-5.93133e-07
1.81006e-06
-5.44738e-07
2.30285e-06
-4.92788e-07
2.74101e-06
-4.38162e-07
3.12277e-06
-3.81754e-07
3.44723e-06
-3.24464e-07
3.7144e-06
-2.67168e-07
3.9251e-06
-2.10703e-07
4.08094e-06
-1.55841e-07
4.18422e-06
-1.03276e-07
4.23783e-06
-5.36093e-08
4.24517e-06
-7.34249e-09
4.21004e-06
3.5137e-08
4.13649e-06
7.35434e-08
4.02878e-06
1.07708e-07
3.89122e-06
1.37562e-07
3.72809e-06
1.63135e-07
3.54354e-06
1.84547e-07
3.34155e-06
2.01989e-07
3.12584e-06
2.15716e-07
2.8998e-06
2.26031e-07
2.66654e-06
2.33262e-07
2.42879e-06
2.37749e-07
2.18897e-06
2.39821e-07
1.9492e-06
2.39768e-07
1.71139e-06
2.37818e-07
1.47729e-06
2.34099e-07
1.24868e-06
2.28611e-07
1.02749e-06
2.21182e-07
8.16066e-07
2.11428e-07
6.17349e-07
1.98717e-07
4.35206e-07
1.82143e-07
2.74667e-07
1.60538e-07
1.42068e-07
1.326e-07
4.4749e-08
9.73187e-08
-1.03134e-08
5.50626e-08
-2.08886e-08
1.05754e-08
-2.08884e-08
2.66208e-08
-2.29476e-08
1.19232e-07
-1.19459e-07
2.71575e-07
-2.10393e-07
4.69355e-07
-2.78498e-07
6.96513e-07
-3.21841e-07
9.37828e-07
-3.4254e-07
1.18006e-06
-3.44038e-07
1.41232e-06
-3.30046e-07
1.626e-06
-3.04048e-07
1.8146e-06
-2.69127e-07
1.97349e-06
-2.27928e-07
2.09957e-06
-1.8266e-07
2.19102e-06
-1.35116e-07
2.24703e-06
-8.66877e-08
2.26751e-06
-3.83962e-08
2.25288e-06
9.0766e-09
2.20385e-06
5.53593e-08
2.1212e-06
1.00347e-07
2.00565e-06
1.44153e-07
1.85775e-06
1.87067e-07
1.67775e-06
2.29506e-07
1.46556e-06
2.7197e-07
1.22073e-06
3.1499e-07
9.42434e-07
3.59099e-07
6.2951e-07
4.0479e-07
2.80503e-07
4.52492e-07
-1.06281e-07
5.02553e-07
-5.32706e-07
5.55225e-07
-1.00073e-06
6.10655e-07
-1.51232e-06
6.68892e-07
-2.06941e-06
7.29883e-07
-2.6738e-06
7.9348e-07
-3.3271e-06
8.59446e-07
-4.03067e-06
9.27463e-07
-4.78558e-06
9.97135e-07
-5.59253e-06
1.06799e-06
-6.4518e-06
1.1395e-06
-7.36322e-06
1.21106e-06
-8.32613e-06
1.28201e-06
-9.33932e-06
1.35162e-06
-1.0401e-05
1.41912e-06
-1.15087e-05
1.48368e-06
-1.26595e-05
1.54444e-06
-1.38496e-05
1.60049e-06
-1.50746e-05
1.65091e-06
-1.63295e-05
1.69475e-06
-1.76085e-05
1.73107e-06
-1.89053e-05
1.75894e-06
-2.02126e-05
1.77744e-06
-2.1523e-05
1.7857e-06
-2.2828e-05
1.78289e-06
-2.41191e-05
1.76826e-06
-2.53869e-05
1.74112e-06
-2.6622e-05
1.7009e-06
-2.78144e-05
1.6471e-06
-2.8954e-05
1.57937e-06
-3.00306e-05
1.49746e-06
-3.10341e-05
1.40129e-06
-3.19543e-05
1.2909e-06
-3.27812e-05
1.1665e-06
-3.35053e-05
1.02846e-06
-3.41174e-05
8.77308e-07
-3.4609e-05
7.13759e-07
-3.4972e-05
5.38701e-07
-3.51996e-05
3.53246e-07
-3.52853e-05
1.58633e-07
-3.52243e-05
-4.36196e-08
-3.5012e-05
-2.52901e-07
-3.46459e-05
-4.66237e-07
-3.41245e-05
-6.82261e-07
-3.34477e-05
-8.98984e-07
-3.26169e-05
-1.1143e-06
-3.1635e-05
-1.32601e-06
-3.05066e-05
-1.53186e-06
-2.92378e-05
-1.72955e-06
-2.78361e-05
-1.91678e-06
-2.63108e-05
-2.09129e-06
-2.46727e-05
-2.25088e-06
-2.29337e-05
-2.39345e-06
-2.11075e-05
-2.51708e-06
-1.92087e-05
-2.62003e-06
-1.72528e-05
-2.7008e-06
-1.52563e-05
-2.75817e-06
-1.32363e-05
-2.79123e-06
-1.12104e-05
-2.79943e-06
-9.19601e-06
-2.78258e-06
-7.21066e-06
-2.74089e-06
-5.27142e-06
-2.67497e-06
-3.39464e-06
-2.58582e-06
-1.59578e-06
-2.47485e-06
1.10864e-07
-2.34381e-06
1.71256e-06
-2.19483e-06
3.19801e-06
-2.03019e-06
4.55781e-06
-1.85259e-06
5.78445e-06
-1.6648e-06
6.87243e-06
-1.46974e-06
7.8183e-06
-1.27033e-06
8.62064e-06
-1.06951e-06
9.28002e-06
-8.70083e-07
9.7989e-06
-6.74719e-07
1.01815e-05
-4.85857e-07
1.04335e-05
-3.05674e-07
1.05622e-05
-1.36038e-07
1.05759e-05
2.15182e-08
1.04836e-05
1.65811e-07
1.02953e-05
2.96019e-07
1.00212e-05
4.11667e-07
9.6717e-06
5.12617e-07
9.2572e-06
5.99041e-07
8.78781e-06
6.71382e-07
8.27321e-06
7.30316e-07
7.72254e-06
7.76697e-07
7.14431e-06
8.11497e-07
6.54631e-06
8.35746e-07
5.93569e-06
8.50446e-07
5.31896e-06
8.56494e-07
4.70219e-06
8.54583e-07
4.0912e-06
8.45099e-07
3.49179e-06
8.28014e-07
2.9102e-06
8.02777e-07
2.35341e-06
7.68215e-07
1.82964e-06
7.22482e-07
1.34871e-06
6.63076e-07
9.22214e-07
5.87036e-07
5.63294e-07
4.91519e-07
2.85455e-07
3.75157e-07
9.99241e-08
2.40594e-07
1.09803e-08
9.95189e-08
-9.908e-09
5.78885e-08
-8.08326e-08
2.10419e-07
-2.71988e-07
4.39194e-07
-4.39165e-07
7.2426e-07
-5.63563e-07
1.0449e-06
-6.42476e-07
1.38138e-06
-6.79026e-07
1.71612e-06
-6.78773e-07
2.03415e-06
-6.48079e-07
2.3233e-06
-5.932e-07
2.57406e-06
-5.19883e-07
2.77932e-06
-4.33191e-07
2.9341e-06
-3.37439e-07
3.03516e-06
-2.36178e-07
3.08068e-06
-1.32209e-07
3.0699e-06
-2.76144e-08
3.0028e-06
7.61822e-08
2.87978e-06
1.78375e-07
2.70145e-06
2.78678e-07
2.46835e-06
3.77252e-07
2.18081e-06
4.74611e-07
1.83879e-06
5.71523e-07
1.44183e-06
6.68925e-07
9.89001e-07
7.67823e-07
4.78879e-07
8.69221e-07
-9.03783e-08
9.74047e-07
-7.20982e-07
1.0831e-06
-1.41542e-06
1.19699e-06
-2.17636e-06
1.31617e-06
-3.00653e-06
1.44082e-06
-3.9086e-06
1.57096e-06
-4.88509e-06
1.70637e-06
-5.93822e-06
1.84662e-06
-7.06987e-06
1.99109e-06
-8.28141e-06
2.139e-06
-9.57367e-06
2.28939e-06
-1.09468e-05
2.44114e-06
-1.24003e-05
2.593e-06
-1.39328e-05
2.74357e-06
-1.55422e-05
2.89134e-06
-1.72252e-05
3.03468e-06
-1.8978e-05
3.17186e-06
-2.07954e-05
3.30107e-06
-2.26714e-05
3.42044e-06
-2.45989e-05
3.52805e-06
-2.657e-05
3.62195e-06
-2.85754e-05
3.70021e-06
-3.06053e-05
3.76092e-06
-3.26486e-05
3.80224e-06
-3.46935e-05
3.8224e-06
-3.67276e-05
3.81977e-06
-3.87376e-05
3.79285e-06
-4.07096e-05
3.7403e-06
-4.26295e-05
3.661e-06
-4.44826e-05
3.55403e-06
-4.62543e-05
3.41874e-06
-4.79296e-05
3.2547e-06
-4.94939e-05
3.06179e-06
-5.09328e-05
2.84015e-06
-5.22321e-05
2.59025e-06
-5.33785e-05
2.31285e-06
-5.43591e-05
2.00903e-06
-5.51619e-05
1.68018e-06
-5.57762e-05
1.32802e-06
-5.61921e-05
9.54577e-07
-5.64011e-05
5.62293e-07
-5.63969e-05
1.54372e-07
-5.61723e-05
-2.68155e-07
-5.57247e-05
-7.0056e-07
-5.50515e-05
-1.13944e-06
-5.41524e-05
-1.58131e-06
-5.30291e-05
-2.02231e-06
-5.1685e-05
-2.45837e-06
-5.01257e-05
-2.88529e-06
-4.83588e-05
-3.29881e-06
-4.63937e-05
-3.69461e-06
-4.42421e-05
-4.06838e-06
-4.19175e-05
-4.41593e-06
-3.94352e-05
-4.73318e-06
-3.68123e-05
-5.0163e-06
-3.40677e-05
-5.26171e-06
-3.12215e-05
-5.46623e-06
-2.82952e-05
-5.6271e-06
-2.53113e-05
-5.74206e-06
-2.22931e-05
-5.80941e-06
-1.92645e-05
-5.8281e-06
-1.62493e-05
-5.79773e-06
-1.32716e-05
-5.71862e-06
-1.03547e-05
-5.59181e-06
-7.52146e-06
-5.41908e-06
-4.79338e-06
-5.20293e-06
-2.19067e-06
-4.94652e-06
2.68182e-07
-4.65368e-06
2.56677e-06
-4.32878e-06
4.69079e-06
-3.9766e-06
6.62847e-06
-3.60248e-06
8.37059e-06
-3.21186e-06
9.91062e-06
-2.81037e-06
1.12448e-05
-2.40366e-06
1.23719e-05
-1.99726e-06
1.32937e-05
-1.59647e-06
1.40141e-05
-1.20625e-06
1.45395e-05
-8.31088e-07
1.48784e-05
-4.74951e-07
1.50411e-05
-1.41199e-07
1.50395e-05
1.67457e-07
1.48865e-05
4.48996e-07
1.45961e-05
7.02059e-07
1.41828e-05
9.2596e-07
1.36612e-05
1.12064e-06
1.3046e-05
1.28659e-06
1.23515e-05
1.42481e-06
1.15915e-05
1.53668e-06
1.07791e-05
1.62386e-06
9.92671e-06
1.68817e-06
9.04577e-06
1.73139e-06
8.14711e-06
1.75515e-06
7.24096e-06
1.76074e-06
6.3372e-06
1.74885e-06
5.44575e-06
1.71946e-06
4.57694e-06
1.67159e-06
3.74196e-06
1.60319e-06
2.95335e-06
1.5111e-06
2.22527e-06
1.39116e-06
1.5736e-06
1.23871e-06
1.01546e-06
1.04965e-06
5.67965e-07
8.22657e-07
2.45755e-07
5.62804e-07
5.72425e-08
2.88031e-07
4.73345e-08
8.09657e-08
-1.61798e-07
2.79887e-07
-4.70898e-07
5.66123e-07
-7.25397e-07
9.13076e-07
-9.10521e-07
1.29584e-06
-1.02524e-06
1.69149e-06
-1.07467e-06
2.07962e-06
-1.06691e-06
2.44271e-06
-1.01117e-06
2.76622e-06
-9.16708e-07
3.03852e-06
-7.92183e-07
3.25068e-06
-6.4535e-07
3.39615e-06
-4.82911e-07
3.47042e-06
-3.10445e-07
3.4706e-06
-1.32398e-07
3.39511e-06
4.78843e-08
3.2432e-06
2.28091e-07
3.01471e-06
4.06864e-07
2.70971e-06
5.83675e-07
2.32826e-06
7.58703e-07
1.87019e-06
9.32684e-07
1.33495e-06
1.10676e-06
7.21523e-07
1.28235e-06
2.83943e-08
1.46095e-06
-7.46465e-07
1.64408e-06
-1.60553e-06
1.83311e-06
-2.55162e-06
2.02919e-06
-3.5878e-06
2.23318e-06
-4.71726e-06
2.44562e-06
-5.94311e-06
2.66668e-06
-7.2683e-06
2.89615e-06
-8.69543e-06
3.13349e-06
-1.02266e-05
3.37778e-06
-1.18633e-05
3.6278e-06
-1.36063e-05
3.88199e-06
-1.54555e-05
4.13856e-06
-1.74097e-05
4.39541e-06
-1.94669e-05
4.65023e-06
-2.16239e-05
4.9005e-06
-2.3876e-05
5.14351e-06
-2.62177e-05
5.37636e-06
-2.86419e-05
5.59606e-06
-3.11403e-05
5.79949e-06
-3.37034e-05
5.98347e-06
-3.63201e-05
6.14481e-06
-3.89785e-05
6.28034e-06
-4.16652e-05
6.38694e-06
-4.43659e-05
6.46162e-06
-4.70653e-05
6.50156e-06
-4.9747e-05
6.50413e-06
-5.23942e-05
6.46697e-06
-5.49893e-05
6.38799e-06
-5.75145e-05
6.26545e-06
-5.99515e-05
6.09798e-06
-6.2282e-05
5.88459e-06
-6.4488e-05
5.62471e-06
-6.65515e-05
5.31823e-06
-6.84552e-05
4.96547e-06
-7.01823e-05
4.56721e-06
-7.17167e-05
4.12471e-06
-7.30436e-05
3.6397e-06
-7.41489e-05
3.11438e-06
-7.50201e-05
2.55139e-06
-7.5646e-05
1.95385e-06
-7.60167e-05
1.32529e-06
-7.61238e-05
6.69418e-07
-7.59635e-05
-5.92213e-09
-7.5527e-05
-7.047e-07
-7.48144e-05
-1.41311e-06
-7.38248e-05
-2.12906e-06
-7.25595e-05
-2.84658e-06
-7.10222e-05
-3.55965e-06
-6.92185e-05
-4.26208e-06
-6.71563e-05
-4.94749e-06
-6.48456e-05
-5.60947e-06
-6.22987e-05
-6.24154e-06
-5.95298e-05
-6.83731e-06
-5.65552e-05
-7.39053e-06
-5.33932e-05
-7.89516e-06
-5.0064e-05
-8.34551e-06
-4.65894e-05
-8.7363e-06
-4.29928e-05
-9.06278e-06
-3.92991e-05
-9.32082e-06
-3.55342e-05
-9.50703e-06
-3.17248e-05
-9.61882e-06
-2.78983e-05
-9.65452e-06
-2.40827e-05
-9.61341e-06
-2.03054e-05
-9.49583e-06
-1.65941e-05
-9.30314e-06
-1.29754e-05
-9.03782e-06
-9.47492e-06
-8.7034e-06
-6.11701e-06
-8.30444e-06
-2.92421e-06
-7.84648e-06
8.29256e-08
-7.33592e-06
2.88634e-06
-6.78001e-06
5.47033e-06
-6.18647e-06
7.82213e-06
-5.56366e-06
9.93191e-06
-4.92016e-06
1.17929e-05
-4.26468e-06
1.34016e-05
-3.60588e-06
1.47572e-05
-2.95214e-06
1.58624e-05
-2.31143e-06
1.67224e-05
-1.69111e-06
1.73453e-05
-1.09782e-06
1.77414e-05
-5.37323e-07
1.79233e-05
-1.44386e-08
1.79053e-05
4.67056e-07
1.77029e-05
9.04375e-07
1.73331e-05
1.2958e-06
1.68131e-05
1.64061e-06
1.61607e-05
1.93899e-06
1.53936e-05
2.19195e-06
1.45291e-05
2.40117e-06
1.35841e-05
2.56882e-06
1.25749e-05
2.6974e-06
1.15168e-05
2.78945e-06
1.04247e-05
2.84731e-06
9.31259e-06
2.87283e-06
8.19435e-06
2.8671e-06
7.0837e-06
2.83011e-06
5.99474e-06
2.76055e-06
4.94234e-06
2.65559e-06
3.94256e-06
2.51088e-06
3.01291e-06
2.32081e-06
2.17239e-06
2.07922e-06
1.44117e-06
1.78087e-06
8.39759e-07
1.42407e-06
3.87712e-07
1.01485e-06
1.02408e-07
5.73336e-07
1.49742e-07
9.58386e-08
-2.57636e-07
3.2596e-07
-7.01014e-07
6.49868e-07
-1.0493e-06
1.0347e-06
-1.29535e-06
1.45163e-06
-1.44218e-06
1.87512e-06
-1.49817e-06
2.28279e-06
-1.47457e-06
2.6554e-06
-1.38378e-06
2.97688e-06
-1.2382e-06
3.2342e-06
-1.0495e-06
3.41711e-06
-8.28261e-07
3.51787e-06
-5.83666e-07
3.53086e-06
-3.23434e-07
3.45222e-06
-5.3761e-08
3.27945e-06
2.20655e-07
3.011e-06
4.96539e-07
2.64594e-06
7.71925e-07
2.18361e-06
1.04601e-06
1.62336e-06
1.31895e-06
9.64348e-07
1.5917e-06
2.05341e-07
1.86577e-06
-6.55333e-07
2.14302e-06
-1.61983e-06
2.42545e-06
-2.69079e-06
2.71503e-06
-3.8712e-06
3.01352e-06
-5.16436e-06
3.32234e-06
-6.57366e-06
3.64249e-06
-8.10248e-06
3.97444e-06
-9.75396e-06
4.31815e-06
-1.15308e-05
4.67303e-06
-1.34353e-05
5.03793e-06
-1.54687e-05
5.41119e-06
-1.76315e-05
5.79067e-06
-1.99233e-05
6.17377e-06
-2.23423e-05
6.55749e-06
-2.48853e-05
6.93845e-06
-2.7548e-05
7.31295e-06
-3.03245e-05
7.67698e-06
-3.32073e-05
8.02633e-06
-3.61875e-05
8.35656e-06
-3.92546e-05
8.66311e-06
-4.23964e-05
8.94134e-06
-4.55996e-05
9.18661e-06
-4.88491e-05
9.3943e-06
-5.21287e-05
9.55995e-06
-5.5421e-05
9.67926e-06
-5.87076e-05
9.74822e-06
-6.19691e-05
9.76312e-06
-6.51857e-05
9.72065e-06
-6.83367e-05
9.61796e-06
-7.14013e-05
9.45266e-06
-7.43588e-05
9.22294e-06
-7.71883e-05
8.92751e-06
-7.98695e-05
8.56572e-06
-8.23823e-05
8.13751e-06
-8.47075e-05
7.64345e-06
-8.68267e-05
7.08473e-06
-8.87227e-05
6.46319e-06
-9.03793e-05
5.78126e-06
-9.17816e-05
5.042e-06
-9.29162e-05
4.24903e-06
-9.37714e-05
3.40658e-06
-9.4337e-05
2.51941e-06
-9.46045e-05
1.59281e-06
-9.45678e-05
6.32731e-07
-9.42195e-05
-3.54251e-07
-9.35609e-05
-1.36326e-06
-9.25888e-05
-2.38526e-06
-9.13046e-05
-3.41323e-06
-8.97117e-05
-4.43949e-06
-8.78154e-05
-5.45595e-06
-8.56231e-05
-6.45433e-06
-8.31445e-05
-7.42617e-06
-8.0391e-05
-8.36294e-06
-7.73764e-05
-9.25609e-06
-7.41166e-05
-1.00972e-05
-7.06291e-05
-1.0878e-05
-6.69338e-05
-1.15905e-05
-6.30522e-05
-1.22272e-05
-5.90075e-05
-1.2781e-05
-5.48245e-05
-1.32457e-05
-5.05296e-05
-1.36157e-05
-4.61502e-05
-1.38864e-05
-4.17148e-05
-1.40542e-05
-3.72526e-05
-1.41167e-05
-3.27934e-05
-1.40726e-05
-2.83671e-05
-1.39222e-05
-2.40033e-05
-1.36669e-05
-1.97313e-05
-1.33098e-05
-1.55795e-05
-1.28552e-05
-1.1575e-05
-1.23089e-05
-7.74344e-06
-1.1678e-05
-4.10853e-06
-1.09708e-05
-6.91779e-07
-1.01968e-05
2.48793e-06
-9.36618e-06
5.41441e-06
-8.49014e-06
8.07451e-06
-7.58026e-06
1.04583e-05
-6.64843e-06
1.2559e-05
-5.70658e-06
1.43732e-05
-4.76643e-06
1.59011e-05
-3.83926e-06
1.71456e-05
-2.93568e-06
1.81132e-05
-2.06538e-06
1.88129e-05
-1.23701e-06
1.92565e-05
-4.58001e-07
1.94579e-05
2.65568e-07
1.94333e-05
9.28999e-07
1.92001e-05
1.529e-06
1.87771e-05
2.06368e-06
1.81836e-05
2.53245e-06
1.74396e-05
2.9359e-06
1.65652e-05
3.27565e-06
1.55799e-05
3.55407e-06
1.45032e-05
3.77408e-06
1.33539e-05
3.93876e-06
1.21502e-05
4.05105e-06
1.09097e-05
4.11332e-06
9.64979e-06
4.127e-06
8.38772e-06
4.09218e-06
7.14099e-06
4.00729e-06
5.9277e-06
3.86888e-06
4.76693e-06
3.67165e-06
3.67903e-06
3.40871e-06
2.68573e-06
3.07252e-06
1.81014e-06
2.65646e-06
1.07664e-06
2.15758e-06
5.10874e-07
1.58061e-06
1.40634e-07
9.43576e-07
2.90376e-07
1.03771e-07
-3.61407e-07
3.50532e-07
-9.4778e-07
6.92855e-07
-1.39163e-06
1.09277e-06
-1.69527e-06
1.51809e-06
-1.8675e-06
1.9411e-06
-1.92117e-06
2.3379e-06
-1.87137e-06
2.68814e-06
-1.73402e-06
2.97478e-06
-1.52483e-06
3.18384e-06
-1.25857e-06
3.3042e-06
-9.48617e-07
3.32721e-06
-6.06679e-07
3.24638e-06
-2.42607e-07
3.05697e-06
1.35648e-07
2.7556e-06
5.22029e-07
2.33985e-06
9.12286e-07
1.80794e-06
1.30384e-06
1.15836e-06
1.69559e-06
3.89639e-07
2.08767e-06
-4.99874e-07
2.48121e-06
-1.51216e-06
2.87806e-06
-2.64961e-06
3.28047e-06
-3.91501e-06
3.69085e-06
-5.31153e-06
4.11155e-06
-6.84257e-06
4.54456e-06
-8.51166e-06
4.99143e-06
-1.03223e-05
5.45309e-06
-1.22776e-05
5.92976e-06
-1.43803e-05
6.42092e-06
-1.66326e-05
6.92529e-06
-1.90355e-05
7.44085e-06
-2.15892e-05
7.96488e-06
-2.42925e-05
8.49399e-06
-2.7143e-05
9.02418e-06
-3.01364e-05
9.55093e-06
-3.32672e-05
1.00692e-05
-3.65279e-05
1.05736e-05
-3.99094e-05
1.10585e-05
-4.34007e-05
1.15177e-05
-4.69892e-05
1.1945e-05
-5.06604e-05
1.23344e-05
-5.43985e-05
1.26794e-05
-5.81857e-05
1.29739e-05
-6.20034e-05
1.32119e-05
-6.58313e-05
1.33878e-05
-6.96483e-05
1.34963e-05
-7.34327e-05
1.35326e-05
-7.71618e-05
1.34923e-05
-8.0813e-05
1.33719e-05
-8.43633e-05
1.31683e-05
-8.779e-05
1.28793e-05
-9.10706e-05
1.25035e-05
-9.41833e-05
1.20402e-05
-9.71068e-05
1.14893e-05
-9.98212e-05
1.08519e-05
-0.000102307
1.01295e-05
-0.000104547
9.32469e-06
-0.000106525
8.44057e-06
-0.000108224
7.48107e-06
-0.000109633
6.4508e-06
-0.000110739
5.35501e-06
-0.000111532
4.1996e-06
-0.000112004
2.99108e-06
-0.000112148
1.73652e-06
-0.000111959
4.43776e-07
-0.000111433
-8.79756e-07
-0.000110571
-2.22526e-06
-0.000109373
-3.58354e-06
-0.000107841
-4.94526e-06
-0.00010598
-6.30078e-06
-0.000103795
-7.6401e-06
-0.000101297
-8.953e-06
-9.84938e-05
-1.02291e-05
-9.53988e-05
-1.14579e-05
-9.2026e-05
-1.26289e-05
-8.83914e-05
-1.37318e-05
-8.45129e-05
-1.47564e-05
-8.04105e-05
-1.56928e-05
-7.61059e-05
-1.65318e-05
-7.16224e-05
-1.72645e-05
-6.69851e-05
-1.78831e-05
-6.22204e-05
-1.83804e-05
-5.73564e-05
-1.87505e-05
-5.24219e-05
-1.89887e-05
-4.7447e-05
-1.90916e-05
-4.24623e-05
-1.90574e-05
-3.74987e-05
-1.88858e-05
-3.25874e-05
-1.85782e-05
-2.77592e-05
-1.8138e-05
-2.30445e-05
-1.75699e-05
-1.84726e-05
-1.68809e-05
-1.40714e-05
-1.60792e-05
-9.86745e-06
-1.51748e-05
-5.88493e-06
-1.41793e-05
-2.14588e-06
-1.31052e-05
1.33039e-06
-1.19664e-05
4.52747e-06
-1.07773e-05
7.43208e-06
-9.55304e-06
1.00343e-05
-8.30877e-06
1.23275e-05
-7.05966e-06
1.43087e-05
-5.82047e-06
1.59783e-05
-4.60525e-06
1.734e-05
-3.42707e-06
1.84008e-05
-2.29779e-06
1.91706e-05
-1.22786e-06
1.96623e-05
-2.26102e-07
1.98909e-05
7.00377e-07
1.98737e-05
1.54622e-06
1.96295e-05
2.30784e-06
1.91786e-05
2.98337e-06
1.8542e-05
3.57251e-06
1.77413e-05
4.07634e-06
1.67983e-05
4.49704e-06
1.57348e-05
4.83757e-06
1.45723e-05
5.1013e-06
1.33319e-05
5.2915e-06
1.20343e-05
5.41092e-06
1.07e-05
5.46128e-06
9.3494e-06
5.44276e-06
8.00306e-06
5.35362e-06
6.68199e-06
5.18995e-06
5.40803e-06
4.94561e-06
4.20413e-06
4.61261e-06
3.09474e-06
4.18192e-06
2.10609e-06
3.64511e-06
1.26679e-06
2.99687e-06
6.08951e-07
2.23846e-06
1.70321e-07
1.38221e-06
4.60697e-07
1.06042e-07
-4.6745e-07
3.56332e-07
-1.19807e-06
6.99088e-07
-1.73438e-06
1.09267e-06
-2.08885e-06
1.50231e-06
-2.27714e-06
1.89862e-06
-2.31748e-06
2.25665e-06
-2.2294e-06
2.5553e-06
-2.03267e-06
2.77694e-06
-1.74647e-06
2.90707e-06
-1.3887e-06
2.93398e-06
-9.75525e-07
2.8484e-06
-5.21093e-07
2.64312e-06
-3.7333e-08
2.31265e-06
4.66118e-07
1.85279e-06
9.81896e-07
1.26025e-06
1.50482e-06
5.3237e-07
2.03172e-06
-3.33251e-07
2.56121e-06
-1.33896e-06
3.09338e-06
-2.48727e-06
3.62952e-06
-3.78093e-06
4.17172e-06
-5.22302e-06
4.72256e-06
-6.8169e-06
5.28473e-06
-8.56611e-06
5.86076e-06
-1.04743e-05
6.45274e-06
-1.25449e-05
7.06208e-06
-1.47812e-05
7.68938e-06
-1.71858e-05
8.33432e-06
-1.97604e-05
8.99559e-06
-2.25061e-05
9.6709e-06
-2.54222e-05
1.0357e-05
-2.85071e-05
1.10498e-05
-3.17573e-05
1.17442e-05
-3.51677e-05
1.24345e-05
-3.87312e-05
1.31144e-05
-4.24389e-05
1.3777e-05
-4.628e-05
1.44147e-05
-5.02416e-05
1.502e-05
-5.43089e-05
1.55849e-05
-5.84653e-05
1.61014e-05
-6.26925e-05
1.65615e-05
-6.69705e-05
1.69574e-05
-7.12782e-05
1.72816e-05
-7.55931e-05
1.75268e-05
-7.98919e-05
1.76866e-05
-8.41506e-05
1.7755e-05
-8.83448e-05
1.77268e-05
-9.24501e-05
1.75976e-05
-9.6442e-05
1.73638e-05
-0.000100297
1.70229e-05
-0.000103991
1.65732e-05
-0.000107501
1.60141e-05
-0.000110807
1.5346e-05
-0.000113888
1.45699e-05
-0.000116724
1.36882e-05
-0.000119298
1.27039e-05
-0.000121595
1.1621e-05
-0.000123598
1.04442e-05
-0.000125296
9.17894e-06
-0.000126677
7.83152e-06
-0.000127731
6.40882e-06
-0.000128449
4.91838e-06
-0.000128827
3.36833e-06
-0.000128857
1.76732e-06
-0.000128539
1.25252e-07
-0.000127869
-1.54998e-06
-0.000126847
-3.24657e-06
-0.000125477
-4.95438e-06
-0.000123759
-6.66241e-06
-0.000121701
-8.3593e-06
-0.000119308
-1.00334e-05
-0.000116588
-1.16727e-05
-0.000113552
-1.32651e-05
-0.000110211
-1.47985e-05
-0.00010658
-1.62604e-05
-0.000102673
-1.76386e-05
-9.85082e-05
-1.89213e-05
-9.41042e-05
-2.00968e-05
-8.94822e-05
-2.11538e-05
-8.46649e-05
-2.20819e-05
-7.96765e-05
-2.28714e-05
-7.45433e-05
-2.35136e-05
-6.92928e-05
-2.40011e-05
-6.39537e-05
-2.43277e-05
-5.85562e-05
-2.44891e-05
-5.31313e-05
-2.44823e-05
-4.77105e-05
-2.43065e-05
-4.23259e-05
-2.39628e-05
-3.70096e-05
-2.34543e-05
-3.17934e-05
-2.27862e-05
-2.67084e-05
-2.19659e-05
-2.17847e-05
-2.10028e-05
-1.70511e-05
-1.99084e-05
-1.25345e-05
-1.86959e-05
-8.25979e-06
-1.738e-05
-4.24923e-06
-1.5977e-05
-5.22426e-07
-1.45041e-05
2.9041e-06
-1.29796e-05
6.01706e-06
-1.14217e-05
8.80661e-06
-9.84921e-06
1.12664e-05
-8.2803e-06
1.33938e-05
-6.73263e-06
1.51896e-05
-5.22283e-06
1.6658e-05
-3.76624e-06
1.78068e-05
-2.3766e-06
1.86465e-05
-1.06586e-06
1.91909e-05
1.56019e-07
1.94559e-05
1.28122e-06
1.94598e-05
2.30394e-06
1.92226e-05
3.22055e-06
1.87658e-05
4.02935e-06
1.81117e-05
4.73041e-06
1.72835e-05
5.32524e-06
1.63046e-05
5.81647e-06
1.51986e-05
6.20733e-06
1.39889e-05
6.5012e-06
1.26988e-05
6.70096e-06
1.13516e-05
6.80847e-06
9.97041e-06
6.82396e-06
8.57848e-06
6.74556e-06
7.19951e-06
6.56892e-06
5.85794e-06
6.28718e-06
4.57932e-06
5.89123e-06
3.39083e-06
5.37041e-06
2.32197e-06
4.71397e-06
1.40567e-06
3.91317e-06
6.80058e-07
2.96407e-06
1.91383e-07
1.87088e-06
6.5208e-07
1.03694e-07
-5.71142e-07
3.45941e-07
-1.44032e-06
6.72634e-07
-2.06108e-06
1.03989e-06
-2.45611e-06
1.4113e-06
-2.64855e-06
1.7564e-06
-2.66258e-06
2.04961e-06
-2.52261e-06
2.26948e-06
-2.25255e-06
2.39814e-06
-1.87513e-06
2.42082e-06
-1.41138e-06
2.32549e-06
-8.80196e-07
2.10245e-06
-2.9806e-07
1.74398e-06
3.21143e-07
1.2439e-06
9.66196e-07
5.97267e-07
1.62853e-06
-2.00015e-07
2.3021e-06
-1.1515e-06
2.98321e-06
-2.26048e-06
3.67018e-06
-3.53017e-06
4.36308e-06
-4.96391e-06
5.06326e-06
-6.56519e-06
5.773e-06
-8.33768e-06
6.49504e-06
-1.02851e-05
7.2322e-06
-1.24114e-05
7.98697e-06
-1.47199e-05
8.76124e-06
-1.72138e-05
9.55602e-06
-1.98957e-05
1.03713e-05
-2.27671e-05
1.12057e-05
-2.58285e-05
1.2057e-05
-2.90789e-05
1.29213e-05
-3.25158e-05
1.37939e-05
-3.61348e-05
1.46688e-05
-3.99297e-05
1.55391e-05
-4.38921e-05
1.63969e-05
-4.80116e-05
1.72339e-05
-5.22755e-05
1.80409e-05
-5.66692e-05
1.88084e-05
-6.11759e-05
1.95267e-05
-6.57769e-05
2.01859e-05
-7.04517e-05
2.07763e-05
-7.51784e-05
2.12882e-05
-7.99335e-05
2.17126e-05
-8.46927e-05
2.20408e-05
-8.94308e-05
2.2265e-05
-9.41223e-05
2.23781e-05
-9.87412e-05
2.23739e-05
-0.000103262
2.22475e-05
-0.000107659
2.19948e-05
-0.000111908
2.16129e-05
-0.000115986
2.11002e-05
-0.000119869
2.04561e-05
-0.000123535
1.96811e-05
-0.000126967
1.8777e-05
-0.000130143
1.77465e-05
-0.000133048
1.65932e-05
-0.000135666
1.5322e-05
-0.000137983
1.39382e-05
-0.000139987
1.24481e-05
-0.000141667
1.0859e-05
-0.000143014
9.17837e-06
-0.00014402
7.41476e-06
-0.000144679
5.5771e-06
-0.000144985
3.67494e-06
-0.000144936
1.71834e-06
-0.000144529
-2.81791e-07
-0.000143764
-2.31549e-06
-0.00014264
-4.37024e-06
-0.00014116
-6.43436e-06
-0.000139327
-8.49551e-06
-0.000137145
-1.05409e-05
-0.000134621
-1.25575e-05
-0.000131762
-1.45317e-05
-0.000128577
-1.645e-05
-0.000125077
-1.82985e-05
-0.000121274
-2.00632e-05
-0.000117183
-2.17302e-05
-0.000112819
-2.32857e-05
-0.000108199
-2.47162e-05
-0.000103344
-2.60087e-05
-9.82755e-05
-2.71507e-05
-9.30159e-05
-2.81309e-05
-8.75908e-05
-2.89387e-05
-8.20268e-05
-2.9565e-05
-7.63525e-05
-3.00021e-05
-7.05976e-05
-3.0244e-05
-6.47931e-05
-3.02868e-05
-5.89711e-05
-3.01285e-05
-5.31644e-05
-2.97695e-05
-4.7406e-05
-2.92127e-05
-4.17291e-05
-2.8463e-05
-3.61666e-05
-2.75284e-05
-3.07505e-05
-2.64189e-05
-2.5512e-05
-2.5147e-05
-2.04804e-05
-2.37274e-05
-1.56834e-05
-2.2177e-05
-1.11463e-05
-2.05141e-05
-6.89168e-06
-1.87587e-05
-2.93944e-06
-1.69318e-05
6.93895e-07
-1.50551e-05
3.99516e-06
-1.31505e-05
6.95474e-06
-1.12399e-05
9.56667e-06
-9.34456e-06
1.18287e-05
-7.48483e-06
1.37421e-05
-5.67969e-06
1.5312e-05
-3.94644e-06
1.65465e-05
-2.30042e-06
1.74573e-05
-7.54761e-07
1.80588e-05
6.79779e-07
1.83678e-05
1.99487e-06
1.84038e-05
3.18459e-06
1.81877e-05
4.24541e-06
1.77423e-05
5.17587e-06
1.70911e-05
5.97639e-06
1.62588e-05
6.64878e-06
1.52703e-05
7.1958e-06
1.4151e-05
7.62052e-06
1.29262e-05
7.92574e-06
1.16215e-05
8.11325e-06
1.02622e-05
8.18319e-06
8.87431e-06
8.13348e-06
7.48385e-06
7.95938e-06
6.11777e-06
7.65326e-06
4.80418e-06
7.20482e-06
3.57302e-06
6.60156e-06
2.45703e-06
5.82996e-06
1.49315e-06
4.87705e-06
7.24666e-07
3.73255e-06
2.04321e-07
2.39123e-06
8.564e-07
9.74623e-08
-6.68604e-07
3.21395e-07
-1.66425e-06
6.16933e-07
-2.35662e-06
9.39255e-07
-2.77843e-06
1.25124e-06
-2.96054e-06
1.52205e-06
-2.93339e-06
1.72598e-06
-2.72654e-06
1.8416e-06
-2.36817e-06
1.85109e-06
-1.88462e-06
1.7397e-06
-1.29998e-06
1.49527e-06
-6.35765e-07
1.10785e-06
8.93586e-08
5.69296e-07
8.59697e-07
-1.27109e-07
1.6626e-06
-9.86994e-07
2.48841e-06
-2.01523e-06
3.33034e-06
-3.21619e-06
4.18417e-06
-4.59403e-06
5.04801e-06
-6.15278e-06
5.92183e-06
-7.89652e-06
6.807e-06
-9.82936e-06
7.70584e-06
-1.19554e-05
8.62108e-06
-1.42786e-05
9.55541e-06
-1.68027e-05
1.0511e-05
-1.95308e-05
1.14893e-05
-2.24652e-05
1.24905e-05
-2.56075e-05
1.35135e-05
-2.89576e-05
1.45558e-05
-3.25139e-05
1.56134e-05
-3.62734e-05
1.66807e-05
-4.02306e-05
1.77511e-05
-4.43782e-05
1.88164e-05
-4.87065e-05
1.98674e-05
-5.32036e-05
2.08941e-05
-5.78553e-05
2.18856e-05
-6.2645e-05
2.28306e-05
-6.75541e-05
2.37176e-05
-7.2562e-05
2.45346e-05
-7.76462e-05
2.52702e-05
-8.2783e-05
2.5913e-05
-8.79471e-05
2.64523e-05
-9.31124e-05
2.68779e-05
-9.82524e-05
2.71808e-05
-0.00010334
2.73527e-05
-0.000108349
2.73868e-05
-0.000113252
2.72772e-05
-0.000118024
2.70196e-05
-0.00012264
2.6611e-05
-0.000127077
2.60496e-05
-0.000131312
2.5335e-05
-0.000135324
2.44681e-05
-0.000139094
2.34511e-05
-0.000142604
2.22873e-05
-0.000145839
2.09809e-05
-0.000148783
1.95374e-05
-0.000151424
1.79629e-05
-0.00015375
1.62644e-05
-0.000155751
1.44497e-05
-0.00015742
1.25272e-05
-0.000158747
1.0506e-05
-0.000159728
8.39573e-06
-0.000160358
6.20642e-06
-0.000160632
3.94875e-06
-0.000160547
1.6339e-06
-0.000160102
-7.26515e-07
-0.000159297
-3.12081e-06
-0.000158131
-5.53604e-06
-0.000156606
-7.95929e-06
-0.000154725
-1.03771e-05
-0.00015249
-1.27756e-05
-0.000149907
-1.51404e-05
-0.000146982
-1.74569e-05
-0.000143722
-1.97098e-05
-0.000140137
-2.1884e-05
-0.000136236
-2.39638e-05
-0.000132033
-2.59336e-05
-0.000127541
-2.77778e-05
-0.000122776
-2.94812e-05
-0.000117756
-3.10287e-05
-0.0001125
-3.24059e-05
-0.000107032
-3.35994e-05
-0.000101374
-3.45967e-05
-9.55524e-05
-3.53866e-05
-8.95948e-05
-3.59597e-05
-8.35305e-05
-3.63082e-05
-7.73907e-05
-3.64266e-05
-7.12075e-05
-3.63117e-05
-6.50143e-05
-3.59627e-05
-5.88452e-05
-3.53817e-05
-5.27349e-05
-3.45734e-05
-4.67177e-05
-3.35455e-05
-4.0828e-05
-3.23087e-05
-3.50989e-05
-3.08761e-05
-2.95625e-05
-2.92638e-05
-2.42494e-05
-2.74901e-05
-1.91877e-05
-2.55758e-05
-1.44034e-05
-2.35431e-05
-9.91932e-06
-2.14158e-05
-5.7555e-06
-1.92189e-05
-1.92841e-06
-1.69776e-05
1.54902e-06
-1.47173e-05
4.66759e-06
-1.24631e-05
7.42187e-06
-1.02391e-05
9.81024e-06
-8.06806e-06
1.18348e-05
-5.97103e-06
1.35014e-05
-3.96698e-06
1.48191e-05
-2.07251e-06
1.58005e-05
-3.01631e-07
1.6461e-05
1.3344e-06
1.68186e-05
2.82703e-06
1.68936e-05
4.1704e-06
1.67083e-05
5.36115e-06
1.62866e-05
6.39811e-06
1.56535e-05
7.28187e-06
1.4835e-05
8.01429e-06
1.38577e-05
8.5978e-06
1.27487e-05
9.03477e-06
1.15353e-05
9.32668e-06
1.0245e-05
9.47341e-06
8.90597e-06
9.47255e-06
7.54651e-06
9.31884e-06
6.19594e-06
9.00384e-06
4.88485e-06
8.51591e-06
3.64586e-06
7.84055e-06
2.51472e-06
6.9611e-06
1.53184e-06
5.85994e-06
7.44502e-07
4.51989e-06
2.09874e-07
2.92585e-06
1.06627e-06
8.78242e-08
-7.56428e-07
2.84155e-07
-1.86058e-06
5.34616e-07
-2.60708e-06
7.94598e-07
-3.03841e-06
1.02722e-06
-3.19317e-06
1.20198e-06
-3.10815e-06
1.29358e-06
-2.81814e-06
1.28103e-06
-2.35562e-06
1.14685e-06
-1.75044e-06
8.76528e-07
-1.02966e-06
4.57978e-07
-2.17214e-07
-1.18869e-07
6.66205e-07
-8.62459e-07
1.60329e-06
-1.77997e-06
2.58011e-06
-2.87765e-06
3.58609e-06
-4.16105e-06
4.61374e-06
-5.63533e-06
5.65845e-06
-7.30539e-06