/*--------------------------------*- C++ -*----------------------------------*\
| =========                 |                                                 |
| \\      /  F ield         | OpenFOAM: The Open Source CFD Toolbox           |
|  \\    /   O peration     | Version:  2112                                  |
|   \\  /    A nd           | Website:  www.openfoam.com                      |
|    \\/     M anipulation  |                                                 |
\*---------------------------------------------------------------------------*/
FoamFile
{
    version     2.0;
    format      ascii;
    arch        "LSB;label=32;scalar=64";
    class       volVectorField;
    location    "39";
    object      U;
}
// * * * * * * * * * * * * * * * * * * * * * * * * * * * * * * * * * * * * * //

dimensions      [0 1 -1 0 0 0 0];

internalField   nonuniform List<vector> 
16641
(
(-7.9044e-06 7.69879e-06 0)
(2.68731e-06 -6.55825e-06 0)
(5.98882e-05 -2.25795e-05 0)
(0.000151717 -3.388e-05 0)
(0.000266883 -4.05456e-05 0)
(0.000395033 -4.35422e-05 0)
(0.000527454 -4.37982e-05 0)
(0.000657342 -4.20816e-05 0)
(0.000779576 -3.89891e-05 0)
(0.000890426 -3.49803e-05 0)
(0.00098731 -3.04132e-05 0)
(0.00106858 -2.55664e-05 0)
(0.00113336 -2.0654e-05 0)
(0.00118133 -1.58344e-05 0)
(0.00121262 -1.1216e-05 0)
(0.00122767 -6.86418e-06 0)
(0.00122706 -2.80636e-06 0)
(0.00121145 9.63891e-07 0)
(0.0011815 4.47675e-06 0)
(0.00113772 7.78318e-06 0)
(0.0010805 1.09486e-05 0)
(0.00101003 1.40468e-05 0)
(0.000926282 1.71545e-05 0)
(0.000829022 2.03466e-05 0)
(0.000717798 2.36932e-05 0)
(0.000591977 2.72558e-05 0)
(0.000450765 3.10862e-05 0)
(0.000293243 3.5225e-05 0)
(0.0001184 3.97014e-05 0)
(-7.48239e-05 4.45338e-05 0)
(-0.000287508 4.97305e-05 0)
(-0.000520713 5.5291e-05 0)
(-0.000775452 6.12062e-05 0)
(-0.00105266 6.74597e-05 0)
(-0.00135318 7.40282e-05 0)
(-0.0016777 8.08821e-05 0)
(-0.00202679 8.79849e-05 0)
(-0.00240082 9.52937e-05 0)
(-0.00279997 0.000102759 0)
(-0.0032242 0.000110323 0)
(-0.00367323 0.000117923 0)
(-0.00414651 0.000125486 0)
(-0.00464323 0.000132933 0)
(-0.00516225 0.000140178 0)
(-0.00570212 0.000147126 0)
(-0.00626107 0.000153679 0)
(-0.006837 0.000159731 0)
(-0.00742743 0.000165172 0)
(-0.00802955 0.000169889 0)
(-0.00864023 0.000173766 0)
(-0.00925595 0.000176688 0)
(-0.00987293 0.000178539 0)
(-0.010487 0.000179208 0)
(-0.0110938 0.000178589 0)
(-0.0116887 0.000176579 0)
(-0.0122668 0.000173088 0)
(-0.0128231 0.000168035 0)
(-0.0133523 0.000161353 0)
(-0.0138492 0.000152988 0)
(-0.0143085 0.000142904 0)
(-0.014725 0.000131086 0)
(-0.0150934 0.000117538 0)
(-0.0154088 0.000102286 0)
(-0.0156663 8.53851e-05 0)
(-0.0158615 6.69283e-05 0)
(-0.0159903 4.70357e-05 0)
(-0.0160492 2.58078e-05 0)
(-0.0160347 3.47368e-06 0)
(-0.0159442 -1.99141e-05 0)
(-0.015776 -4.40679e-05 0)
(-0.015529 -6.87238e-05 0)
(-0.0152027 -9.36141e-05 0)
(-0.0147974 -0.00011845 0)
(-0.0143146 -0.000142925 0)
(-0.0137565 -0.000166716 0)
(-0.0131262 -0.000189494 0)
(-0.0124277 -0.000210927 0)
(-0.0116661 -0.000230687 0)
(-0.0108472 -0.00024846 0)
(-0.0099778 -0.000263949 0)
(-0.00906525 -0.000276888 0)
(-0.00811775 -0.000287045 0)
(-0.00714401 -0.000294229 0)
(-0.00615319 -0.000298302 0)
(-0.00515474 -0.000299178 0)
(-0.00415828 -0.000296833 0)
(-0.00317341 -0.000291303 0)
(-0.00220956 -0.000282687 0)
(-0.00127581 -0.000271145 0)
(-0.000380655 -0.000256903 0)
(0.000467911 -0.000240279 0)
(0.00126279 -0.00022149 0)
(0.00199788 -0.000200966 0)
(0.00266804 -0.000179083 0)
(0.00326921 -0.000156241 0)
(0.00379852 -0.000132847 0)
(0.00425425 -0.000109304 0)
(0.00463583 -8.59956e-05 0)
(0.00494381 -6.32809e-05 0)
(0.00517976 -4.14828e-05 0)
(0.00534624 -2.08823e-05 0)
(0.00544661 -1.71269e-06 0)
(0.00548496 1.58425e-05 0)
(0.00546596 3.16501e-05 0)
(0.00539472 4.56309e-05 0)
(0.00527661 5.77529e-05 0)
(0.00511719 6.80286e-05 0)
(0.00492202 7.65119e-05 0)
(0.00469658 8.32917e-05 0)
(0.00444613 8.84861e-05 0)
(0.00417564 9.2236e-05 0)
(0.00388973 9.46984e-05 0)
(0.00359258 9.6039e-05 0)
(0.00328796 9.64243e-05 0)
(0.0029792 9.6013e-05 0)
(0.00266919 9.49458e-05 0)
(0.00236053 9.3333e-05 0)
(0.00205554 9.12411e-05 0)
(0.00175646 8.86744e-05 0)
(0.00146564 8.55548e-05 0)
(0.00118577 8.16963e-05 0)
(0.000920197 7.67753e-05 0)
(0.000673263 7.02987e-05 0)
(0.000450683 6.1578e-05 0)
(0.000259862 4.97558e-05 0)
(0.000109802 3.40152e-05 0)
(1.00392e-05 1.42392e-05 0)
(-3.16051e-05 -7.09015e-06 0)
(-1.85575e-05 -1.86075e-05 0)
(6.36662e-06 -2.91949e-06 0)
(7.35499e-05 -7.38525e-05 0)
(0.000235556 -0.000144951 0)
(0.000466782 -0.000197866 0)
(0.000745597 -0.000231142 0)
(0.00105204 -0.000247038 0)
(0.00136761 -0.000248642 0)
(0.00167665 -0.000239036 0)
(0.00196661 -0.000220967 0)
(0.00222782 -0.000196772 0)
(0.00245318 -0.000168405 0)
(0.00263777 -0.000137468 0)
(0.00277852 -0.000105242 0)
(0.00287381 -7.2707e-05 0)
(0.00292313 -4.05715e-05 0)
(0.00292676 -9.29513e-06 0)
(0.0028855 2.08829e-05 0)
(0.00280036 4.99131e-05 0)
(0.00267235 7.79033e-05 0)
(0.00250233 0.000105085 0)
(0.00229084 0.00013178 0)
(0.00203798 0.000158363 0)
(0.00174341 0.000185237 0)
(0.00140631 0.000212796 0)
(0.00102539 0.000241413 0)
(0.000598937 0.000271411 0)
(0.000124905 0.000303057 0)
(-0.000399025 0.000336551 0)
(-0.000975338 0.000372023 0)
(-0.0016066 0.000409532 0)
(-0.00229534 0.000449072 0)
(-0.00304398 0.000490572 0)
(-0.00385476 0.000533901 0)
(-0.0047296 0.000578877 0)
(-0.0056701 0.000625265 0)
(-0.00667739 0.000672782 0)
(-0.00775214 0.0007211 0)
(-0.00889443 0.000769846 0)
(-0.0101037 0.000818604 0)
(-0.0113789 0.000866914 0)
(-0.0127179 0.000914277 0)
(-0.0141181 0.000960154 0)
(-0.015576 0.00100397 0)
(-0.0170872 0.00104513 0)
(-0.0186466 0.00108298 0)
(-0.0202479 0.00111689 0)
(-0.0218843 0.0011462 0)
(-0.0235478 0.00117022 0)
(-0.0252298 0.00118831 0)
(-0.0269208 0.00119981 0)
(-0.0286105 0.00120409 0)
(-0.0302878 0.00120058 0)
(-0.0319413 0.00118872 0)
(-0.0335587 0.00116801 0)
(-0.0351276 0.00113804 0)
(-0.0366348 0.00109845 0)
(-0.0380675 0.00104898 0)
(-0.0394123 0.000989451 0)
(-0.0406561 0.000919791 0)
(-0.0417859 0.000840039 0)
(-0.0427891 0.000750351 0)
(-0.0436537 0.000651006 0)
(-0.044368 0.000542406 0)
(-0.0449214 0.0004251 0)
(-0.0453042 0.000299805 0)
(-0.045508 0.000167305 0)
(-0.0455252 2.82029e-05 0)
(-0.0453499 -0.000115748 0)
(-0.0449773 -0.000263745 0)
(-0.0444049 -0.000414449 0)
(-0.0436317 -0.000566396 0)
(-0.0426585 -0.000718046 0)
(-0.0414881 -0.000867785 0)
(-0.0401253 -0.00101393 0)
(-0.0385769 -0.00115477 0)
(-0.0368517 -0.00128857 0)
(-0.0349607 -0.0014136 0)
(-0.0329168 -0.00152821 0)
(-0.0307347 -0.00163078 0)
(-0.0284309 -0.00171984 0)
(-0.0260236 -0.00179406 0)
(-0.0235324 -0.00185228 0)
(-0.0209781 -0.00189357 0)
(-0.0183823 -0.00191723 0)
(-0.0157674 -0.00192284 0)
(-0.0131561 -0.00191026 0)
(-0.0105711 -0.00187967 0)
(-0.00803463 -0.00183155 0)
(-0.00556846 -0.00176667 0)
(-0.00319314 -0.00168613 0)
(-0.000927885 -0.00159135 0)
(0.00120971 -0.00148383 0)
(0.0032041 -0.00136541 0)
(0.00504195 -0.0012381 0)
(0.0067123 -0.00110402 0)
(0.00820672 -0.000965315 0)
(0.00951944 -0.00082417 0)
(0.0106473 -0.000682724 0)
(0.0115898 -0.00054302 0)
(0.0123489 -0.000406961 0)
(0.0129289 -0.000276266 0)
(0.0133364 -0.00015244 0)
(0.0135797 -3.6743e-05 0)
(0.0136689 6.98213e-05 0)
(0.0136154 0.000166518 0)
(0.0134313 0.00025288 0)
(0.0131299 0.00032869 0)
(0.0127245 0.000393976 0)
(0.0122286 0.000448982 0)
(0.0116554 0.00049414 0)
(0.0110178 0.000530038 0)
(0.0103279 0.000557382 0)
(0.00959719 0.000576954 0)
(0.00883613 0.000589559 0)
(0.00805437 0.000595977 0)
(0.0072607 0.000596902 0)
(0.00646317 0.000592867 0)
(0.00566937 0.000584174 0)
(0.00488672 0.000570805 0)
(0.00412286 0.000552337 0)
(0.00338619 0.000527851 0)
(0.00268641 0.000495859 0)
(0.00203507 0.000454282 0)
(0.00144599 0.000400532 0)
(0.000935376 0.000331898 0)
(0.000520938 0.000246643 0)
(0.000219172 0.000146356 0)
(4.23636e-05 4.14005e-05 0)
(-6.8015e-06 -3.16721e-05 0)
(2.23994e-05 -5.97736e-05 0)
(0.000144829 -0.000235777 0)
(0.000396924 -0.000396642 0)
(0.000736248 -0.000517646 0)
(0.00113334 -0.000595058 0)
(0.00156297 -0.000631985 0)
(0.00200102 -0.000634089 0)
(0.00242632 -0.000607741 0)
(0.00282136 -0.000559086 0)
(0.00317222 -0.000493669 0)
(0.00346826 -0.000416308 0)
(0.00370181 -0.000331064 0)
(0.00386764 -0.00024125 0)
(0.00396262 -0.000149458 0)
(0.00398518 -5.75987e-05 0)
(0.00393491 3.30453e-05 0)
(0.00381215 0.000121754 0)
(0.00361763 0.000208299 0)
(0.00335214 0.000292869 0)
(0.0030163 0.000375973 0)
(0.00261033 0.000458363 0)
(0.00213394 0.000540936 0)
(0.00158621 0.000624664 0)
(0.000965633 0.000710508 0)
(0.000270084 0.000799367 0)
(-0.000503077 0.000892019 0)
(-0.00135691 0.000989088 0)
(-0.00229478 0.00109102 0)
(-0.0033202 0.00119807 0)
(-0.00443669 0.0013103 0)
(-0.00564763 0.00142758 0)
(-0.00695611 0.00154961 0)
(-0.00836481 0.0016759 0)
(-0.00987586 0.00180583 0)
(-0.0114907 0.00193861 0)
(-0.01321 0.00207332 0)
(-0.0150335 0.00220891 0)
(-0.0169601 0.00234422 0)
(-0.0189876 0.00247795 0)
(-0.0211124 0.00260871 0)
(-0.02333 0.002735 0)
(-0.0256346 0.00285524 0)
(-0.028019 0.00296777 0)
(-0.0304748 0.00307087 0)
(-0.0329922 0.0031628 0)
(-0.0355602 0.00324178 0)
(-0.0381664 0.00330603 0)
(-0.0407972 0.00335383 0)
(-0.0434381 0.0033835 0)
(-0.0460733 0.00339342 0)
(-0.048686 0.00338211 0)
(-0.0512589 0.00334821 0)
(-0.0537738 0.00329053 0)
(-0.056212 0.00320804 0)
(-0.0585547 0.00309995 0)
(-0.0607826 0.00296567 0)
(-0.0628768 0.00280487 0)
(-0.0648183 0.00261749 0)
(-0.0665887 0.00240373 0)
(-0.0681703 0.00216409 0)
(-0.0695459 0.00189938 0)
(-0.0706997 0.0016107 0)
(-0.0716169 0.00129947 0)
(-0.072284 0.000967457 0)
(-0.0726894 0.00061676 0)
(-0.0728233 0.000249752 0)
(-0.0726771 -0.000131692 0)
(-0.0722443 -0.000523503 0)
(-0.0715215 -0.000922824 0)
(-0.0705071 -0.00132634 0)
(-0.0692017 -0.00173037 0)
(-0.0676087 -0.00213106 0)
(-0.0657338 -0.00252441 0)
(-0.0635856 -0.00290629 0)
(-0.0611751 -0.00327256 0)
(-0.0585159 -0.00361905 0)
(-0.0556242 -0.00394168 0)
(-0.0525186 -0.0042365 0)
(-0.0492202 -0.00449976 0)
(-0.0457522 -0.00472799 0)
(-0.0421396 -0.00491808 0)
(-0.0384096 -0.00506734 0)
(-0.0345905 -0.00517359 0)
(-0.0307119 -0.00523519 0)
(-0.0268043 -0.00525113 0)
(-0.0228987 -0.00522108 0)
(-0.019026 -0.00514537 0)
(-0.0152168 -0.00502509 0)
(-0.0115012 -0.004862 0)
(-0.0079076 -0.00465859 0)
(-0.0044632 -0.00441801 0)
(-0.001193 -0.004144 0)
(0.00188041 -0.00384079 0)
(0.00473712 -0.00351308 0)
(0.0073603 -0.00316599 0)
(0.00973637 -0.00280475 0)
(0.0118551 -0.00243473 0)
(0.0137099 -0.00206127 0)
(0.0152976 -0.00168955 0)
(0.0166184 -0.00132451 0)
(0.0176761 -0.0009707 0)
(0.0184775 -0.000632197 0)
(0.0190322 -0.000312549 0)
(0.0193524 -1.47009e-05 0)
(0.0194524 0.000259037 0)
(0.0193486 0.00050701 0)
(0.0190582 0.000728201 0)
(0.0185997 0.000922218 0)
(0.0179921 0.00108924 0)
(0.0172543 0.00122998 0)
(0.016405 0.00134555 0)
(0.0154626 0.00143744 0)
(0.0144444 0.00150736 0)
(0.0133668 0.00155713 0)
(0.0122452 0.00158855 0)
(0.0110939 0.00160321 0)
(0.00992657 0.00160237 0)
(0.00875598 0.0015867 0)
(0.00759482 0.00155616 0)
(0.00645599 0.00150976 0)
(0.00535326 0.00144542 0)
(0.00430179 0.00135993 0)
(0.00331875 0.00124899 0)
(0.00242356 0.00110766 0)
(0.00163789 0.000931457 0)
(0.000984152 0.000718693 0)
(0.000482349 0.000474652 0)
(0.000151355 0.000219531 0)
(1.55257e-05 1.1341e-05 0)
(3.38746e-05 -0.00015153 0)
(0.000198768 -0.000467611 0)
(0.000520428 -0.000736418 0)
(0.000938993 -0.00093512 0)
(0.00141734 -0.00106048 0)
(0.00192618 -0.0011174 0)
(0.00243775 -0.00111448 0)
(0.00292738 -0.00106167 0)
(0.00337439 -0.000968912 0)
(0.00376195 -0.000845434 0)
(0.00407689 -0.000699444 0)
(0.00430933 -0.000537986 0)
(0.00445225 -0.000366889 0)
(0.00450101 -0.000190772 0)
(0.00445283 -1.30932e-05 0)
(0.00430632 0.000163783 0)
(0.004061 0.00033848 0)
(0.00371691 0.000510494 0)
(0.00327419 0.000680051 0)
(0.00273283 0.00084796 0)
(0.00209241 0.00101546 0)
(0.00135195 0.00118405 0)
(0.000509804 0.00135536 0)
(-0.000436319 0.00153101 0)
(-0.00148934 0.0017125 0)
(-0.00265272 0.00190109 0)
(-0.00393029 0.00209777 0)
(-0.00532613 0.0023032 0)
(-0.00684434 0.00251767 0)
(-0.0084889 0.0027411 0)
(-0.0102634 0.00297307 0)
(-0.012171 0.00321279 0)
(-0.0142139 0.00345916 0)
(-0.0163938 0.00371078 0)
(-0.0187109 0.00396595 0)
(-0.0211647 0.00422273 0)
(-0.023753 0.00447891 0)
(-0.0264725 0.00473208 0)
(-0.0293181 0.00497962 0)
(-0.0322832 0.00521873 0)
(-0.0353597 0.00544644 0)
(-0.0385378 0.00565967 0)
(-0.0418058 0.00585524 0)
(-0.0451505 0.0060299 0)
(-0.0485571 0.00618041 0)
(-0.0520093 0.00630353 0)
(-0.055489 0.00639612 0)
(-0.0589771 0.00645515 0)
(-0.0624533 0.00647777 0)
(-0.065896 0.00646133 0)
(-0.069283 0.00640348 0)
(-0.0725914 0.00630214 0)
(-0.0757978 0.0061556 0)
(-0.0788787 0.00596254 0)
(-0.0818105 0.00572205 0)
(-0.0845699 0.00543364 0)
(-0.0871342 0.00509733 0)
(-0.0894811 0.00471358 0)
(-0.0915897 0.00428338 0)
(-0.0934397 0.0038082 0)
(-0.0950125 0.00329003 0)
(-0.0962911 0.00273136 0)
(-0.0972598 0.0021352 0)
(-0.0979051 0.00150502 0)
(-0.0982156 0.000844629 0)
(-0.0981828 0.00015849 0)
(-0.0977987 -0.000547053 0)
(-0.0970579 -0.00126829 0)
(-0.0959596 -0.00199928 0)
(-0.0945043 -0.00273386 0)
(-0.0926949 -0.00346567 0)
(-0.0905377 -0.0041881 0)
(-0.0880412 -0.00489435 0)
(-0.0852171 -0.00557752 0)
(-0.0820797 -0.00623068 0)
(-0.0786461 -0.00684693 0)
(-0.0749361 -0.00741952 0)
(-0.0709719 -0.00794196 0)
(-0.0667785 -0.00840809 0)
(-0.062383 -0.00881223 0)
(-0.0578147 -0.00914927 0)
(-0.0531046 -0.0094148 0)
(-0.0482856 -0.00960518 0)
(-0.0433917 -0.0097177 0)
(-0.0384581 -0.00975061 0)
(-0.0335203 -0.00970325 0)
(-0.0286144 -0.00957607 0)
(-0.0237758 -0.00937068 0)
(-0.0190398 -0.00908984 0)
(-0.0144401 -0.00873748 0)
(-0.0100091 -0.00831864 0)
(-0.00577708 -0.00783934 0)
(-0.00177191 -0.00730658 0)
(0.0019813 -0.0067281 0)
(0.0054607 -0.00611231 0)
(0.00864799 -0.00546808 0)
(0.0115285 -0.00480453 0)
(0.0140915 -0.00413085 0)
(0.0163303 -0.0034561 0)
(0.0182421 -0.00278901 0)
(0.0198283 -0.00213777 0)
(0.021094 -0.00150991 0)
(0.0220477 -0.000912097 0)
(0.0227015 -0.00035005 0)
(0.0230702 0.000171547 0)
(0.0231712 0.000649097 0)
(0.023024 0.00108013 0)
(0.0226496 0.00146324 0)
(0.0220701 0.00179807 0)
(0.0213083 0.0020852 0)
(0.0203871 0.00232603 0)
(0.0193292 0.00252265 0)
(0.0181568 0.0026776 0)
(0.0168913 0.00279371 0)
(0.015553 0.00287383 0)
(0.0141615 0.00292053 0)
(0.0127352 0.00293584 0)
(0.0112922 0.00292092 0)
(0.00985006 0.00287572 0)
(0.00842664 0.00279874 0)
(0.00704048 0.00268679 0)
(0.00571143 0.00253497 0)
(0.00446106 0.00233693 0)
(0.00331299 0.00208565 0)
(0.00229283 0.00177515 0)
(0.00142677 0.00140377 0)
(0.000738795 0.000979351 0)
(0.000258049 0.00052794 0)
(3.69968e-05 0.000115759 0)
(4.10021e-05 -0.000267478 0)
(0.000234225 -0.000748858 0)
(0.000602698 -0.00113618 0)
(0.00107196 -0.00141467 0)
(0.00159784 -0.00158497 0)
(0.00214741 -0.00165538 0)
(0.00269015 -0.00163814 0)
(0.00319906 -0.00154709 0)
(0.0036514 -0.00139613 0)
(0.00402844 -0.00119834 0)
(0.00431527 -0.000965515 0)
(0.00450037 -0.000707897 0)
(0.00457527 -0.00043404 0)
(0.00453396 -0.000150791 0)
(0.00437247 0.000136677 0)
(0.00408831 0.000424776 0)
(0.00367998 0.00071137 0)
(0.00314654 0.000995607 0)
(0.00248725 0.00127772 0)
(0.00170118 0.0015588 0)
(0.000787034 0.00184056 0)
(-0.000257027 0.00212513 0)
(-0.00143348 0.00241479 0)
(-0.00274543 0.0027118 0)
(-0.00419655 0.00301822 0)
(-0.00579092 0.00333575 0)
(-0.00753293 0.00366563 0)
(-0.00942698 0.00400858 0)
(-0.0114773 0.00436475 0)
(-0.0136879 0.00473371 0)
(-0.0160617 0.00511444 0)
(-0.0186014 0.0055054 0)
(-0.021308 0.00590449 0)
(-0.0241817 0.00630918 0)
(-0.0272209 0.00671644 0)
(-0.0304226 0.00712288 0)
(-0.0337821 0.00752471 0)
(-0.0372926 0.00791783 0)
(-0.0409455 0.00829785 0)
(-0.0447304 0.00866015 0)
(-0.0486346 0.00899989 0)
(-0.0526435 0.00931214 0)
(-0.0567407 0.00959188 0)
(-0.0609078 0.00983409 0)
(-0.0651245 0.0100338 0)
(-0.0693693 0.0101863 0)
(-0.0736188 0.0102869 0)
(-0.0778488 0.0103314 0)
(-0.0820337 0.0103159 0)
(-0.0861474 0.0102368 0)
(-0.0901633 0.0100912 0)
(-0.0940542 0.00987667 0)
(-0.0977935 0.00959135 0)
(-0.101354 0.00923404 0)
(-0.104711 0.00880421 0)
(-0.107837 0.008302 0)
(-0.110709 0.00772828 0)
(-0.113305 0.00708459 0)
(-0.115601 0.00637323 0)
(-0.117578 0.00559717 0)
(-0.119218 0.00476009 0)
(-0.120505 0.00386634 0)
(-0.121424 0.00292096 0)
(-0.121964 0.00192956 0)
(-0.122114 0.00089826 0)
(-0.121867 -0.000166083 0)
(-0.121218 -0.00125466 0)
(-0.120166 -0.00236119 0)
(-0.118709 -0.00347705 0)
(-0.116852 -0.00459335 0)
(-0.114599 -0.00570096 0)
(-0.11196 -0.00679049 0)
(-0.108943 -0.00785234 0)
(-0.105564 -0.00887683 0)
(-0.101839 -0.00985424 0)
(-0.097787 -0.010775 0)
(-0.093429 -0.0116296 0)
(-0.0887897 -0.0124092 0)
(-0.0838955 -0.0131051 0)
(-0.0787755 -0.0137095 0)
(-0.0734607 -0.0142151 0)
(-0.0679841 -0.0146158 0)
(-0.0623805 -0.0149065 0)
(-0.056686 -0.0150831 0)
(-0.0509379 -0.0151431 0)
(-0.0451744 -0.0150853 0)
(-0.039434 -0.01491 0)
(-0.0337552 -0.0146194 0)
(-0.0281761 -0.0142168 0)
(-0.022734 -0.0137075 0)
(-0.0174649 -0.0130982 0)
(-0.0124029 -0.0123971 0)
(-0.00757982 -0.0116138 0)
(-0.00302501 -0.010759 0)
(0.00123539 -0.00984457 0)
(0.00517867 -0.00888291 0)
(0.00878587 -0.0078871 0)
(0.012042 -0.00687041 0)
(0.0149363 -0.00584611 0)
(0.0174622 -0.0048271 0)
(0.0196176 -0.00382573 0)
(0.0214045 -0.00285351 0)
(0.0228291 -0.00192084 0)
(0.0239013 -0.00103692 0)
(0.0246348 -0.000209476 0)
(0.0250462 0.000555245 0)
(0.025155 0.0012526 0)
(0.024983 0.00187952 0)
(0.0245537 0.00243448 0)
(0.0238917 0.00291736 0)
(0.0230227 0.00332936 0)
(0.0219725 0.00367273 0)
(0.0207667 0.00395052 0)
(0.0194306 0.00416632 0)
(0.0179889 0.00432382 0)
(0.0164653 0.0044265 0)
(0.0148831 0.00447712 0)
(0.0132648 0.0044773 0)
(0.0116325 0.00442711 0)
(0.0100086 0.00432464 0)
(0.00841582 0.0041658 0)
(0.00687817 0.0039443 0)
(0.00542096 0.00365205 0)
(0.00407133 0.00328022 0)
(0.00285844 0.00282128 0)
(0.00181245 0.00227262 0)
(0.000962477 0.00164191 0)
(0.000349584 0.000955095 0)
(5.45731e-05 0.000274501 0)
(4.47638e-05 -0.000397938 0)
(0.000253366 -0.00106064 0)
(0.000646332 -0.00157171 0)
(0.00113875 -0.00192779 0)
(0.00168065 -0.00213609 0)
(0.00223589 -0.00220999 0)
(0.00277174 -0.00216625 0)
(0.00325957 -0.00202303 0)
(0.00367532 -0.00179838 0)
(0.00399906 -0.00150935 0)
(0.00421471 -0.00117139 0)
(0.00430961 -0.000797969 0)
(0.00427414 -0.00040044 0)
(0.00410117 1.20689e-05 0)
(0.00378556 0.000432611 0)
(0.00332372 0.00085633 0)
(0.00271304 0.00128029 0)
(0.00195147 0.00170326 0)
(0.0010372 0.00212544 0)
(-3.17521e-05 0.00254819 0)
(-0.00125769 0.00297367 0)
(-0.00264342 0.00340457 0)
(-0.00419229 0.00384378 0)
(-0.00590815 0.0042941 0)
(-0.0077953 0.00475802 0)
(-0.00985825 0.00523752 0)
(-0.0121016 0.00573391 0)
(-0.0145297 0.00624772 0)
(-0.0171464 0.00677869 0)
(-0.0199548 0.0073257 0)
(-0.0229572 0.00788683 0)
(-0.0261545 0.00845934 0)
(-0.0295459 0.0090398 0)
(-0.0331291 0.00962405 0)
(-0.0369 0.0102073 0)
(-0.0408523 0.0107844 0)
(-0.0449776 0.0113494 0)
(-0.0492651 0.0118961 0)
(-0.0537019 0.012418 0)
(-0.0582728 0.0129084 0)
(-0.0629604 0.0133602 0)
(-0.0677449 0.0137664 0)
(-0.0726046 0.0141201 0)
(-0.0775162 0.0144143 0)
(-0.0824543 0.0146425 0)
(-0.0873923 0.0147983 0)
(-0.0923024 0.0148761 0)
(-0.097156 0.0148704 0)
(-0.101924 0.0147768 0)
(-0.106576 0.0145912 0)
(-0.111084 0.0143106 0)
(-0.115417 0.0139327 0)
(-0.119547 0.013456 0)
(-0.123447 0.01288 0)
(-0.12709 0.0122052 0)
(-0.13045 0.0114328 0)
(-0.133504 0.0105652 0)
(-0.136229 0.0096054 0)
(-0.138605 0.00855751 0)
(-0.140614 0.00742641 0)
(-0.14224 0.00621781 0)
(-0.143467 0.0049382 0)
(-0.144285 0.00359488 0)
(-0.144684 0.00219585 0)
(-0.144656 0.000749862 0)
(-0.144195 -0.000733838 0)
(-0.1433 -0.00224606 0)
(-0.14197 -0.00377552 0)
(-0.140208 -0.00531143 0)
(-0.138017 -0.00684251 0)
(-0.135405 -0.00835706 0)
(-0.132382 -0.00984307 0)
(-0.128959 -0.0112883 0)
(-0.12515 -0.0126805 0)
(-0.120974 -0.0140073 0)
(-0.116448 -0.0152566 0)
(-0.111596 -0.0164164 0)
(-0.106442 -0.0174752 0)
(-0.101013 -0.0184222 0)
(-0.0953368 -0.0192472 0)
(-0.0894458 -0.019941 0)
(-0.0833731 -0.0204955 0)
(-0.0771538 -0.020904 0)
(-0.0708247 -0.021161 0)
(-0.0644237 -0.0212631 0)
(-0.0579902 -0.0212081 0)
(-0.0515638 -0.0209963 0)
(-0.0451849 -0.0206295 0)
(-0.0388934 -0.0201119 0)
(-0.0327289 -0.0194495 0)
(-0.02673 -0.0186506 0)
(-0.0209337 -0.0177251 0)
(-0.0153753 -0.016685 0)
(-0.0100876 -0.0155439 0)
(-0.00510049 -0.0143165 0)
(-0.000440764 -0.013019 0)
(0.00386846 -0.0116682 0)
(0.00780797 -0.0102816 0)
(0.0113627 -0.00887666 0)
(0.0145221 -0.0074707 0)
(0.0172798 -0.00608048 0)
(0.0196341 -0.00472184 0)
(0.0215878 -0.00340942 0)
(0.0231478 -0.00215634 0)
(0.0243251 -0.000973998 0)
(0.0251345 0.000128094 0)
(0.025594 0.00114245 0)
(0.0257247 0.00206366 0)
(0.0255499 0.00288835 0)
(0.025095 0.00361509 0)
(0.0243867 0.00424423 0)
(0.0234527 0.00477765 0)
(0.022321 0.00521842 0)
(0.0210199 0.00557047 0)
(0.0195772 0.00583805 0)
(0.0180205 0.00602525 0)
(0.0163768 0.00613544 0)
(0.0146726 0.00617068 0)
(0.0129342 0.00613115 0)
(0.0111879 0.00601471 0)
(0.0094605 0.00581657 0)
(0.00777943 0.00552932 0)
(0.0061735 0.00514335 0)
(0.00467322 0.00464803 0)
(0.00331139 0.00403381 0)
(0.00212253 0.00329575 0)
(0.00114163 0.00243833 0)
(0.000421527 0.0014821 0)
(6.77451e-05 0.000477307 0)
(4.60158e-05 -0.000534746 0)
(0.000258803 -0.00138505 0)
(0.00065563 -0.00201904 0)
(0.0011453 -0.00244621 0)
(0.00167367 -0.00268214 0)
(0.00220201 -0.00274662 0)
(0.00269592 -0.00266182 0)
(0.00312568 -0.00245067 0)
(0.00346641 -0.00213561 0)
(0.00369751 -0.0017377 0)
(0.00380218 -0.00127602 0)
(0.00376699 -0.00076727 0)
(0.00358145 -0.000225515 0)
(0.00323748 0.000337868 0)
(0.00272894 0.000914199 0)
(0.00205113 0.00149738 0)
(0.0012003 0.00208368 0)
(0.000173288 0.0026715 0)
(-0.00103291 0.00326099 0)
(-0.00242138 0.00385373 0)
(-0.00399549 0.00445226 0)
(-0.005759 0.00505976 0)
(-0.00771606 0.00567956 0)
(-0.00987118 0.00631487 0)
(-0.012229 0.00696839 0)
(-0.0147943 0.00764212 0)
(-0.0175713 0.00833714 0)
(-0.020564 0.00905349 0)
(-0.0237751 0.00979011 0)
(-0.0272067 0.0105448 0)
(-0.0308589 0.0113143 0)
(-0.0347304 0.0120943 0)
(-0.038818 0.0128795 0)
(-0.0431161 0.0136637 0)
(-0.0476168 0.01444 0)
(-0.0523101 0.0152008 0)
(-0.0571829 0.0159378 0)
(-0.0622202 0.0166426 0)
(-0.067404 0.017306 0)
(-0.072714 0.0179189 0)
(-0.0781276 0.0184722 0)
(-0.0836202 0.0189567 0)
(-0.0891652 0.0193634 0)
(-0.0947343 0.0196838 0)
(-0.100298 0.01991 0)
(-0.105825 0.0200344 0)
(-0.111285 0.0200505 0)
(-0.116647 0.0199525 0)
(-0.121877 0.0197357 0)
(-0.126946 0.0193963 0)
(-0.131822 0.0189316 0)
(-0.136476 0.0183402 0)
(-0.140879 0.0176215 0)
(-0.145005 0.0167764 0)
(-0.148827 0.0158068 0)
(-0.152322 0.0147156 0)
(-0.155469 0.013507 0)
(-0.158247 0.0121859 0)
(-0.160638 0.0107585 0)
(-0.162627 0.00923173 0)
(-0.1642 0.00761347 0)
(-0.165345 0.00591243 0)
(-0.166054 0.00413809 0)
(-0.166318 0.00230065 0)
(-0.166133 0.000411111 0)
(-0.165495 -0.00151881 0)
(-0.164404 -0.00347757 0)
(-0.16286 -0.00545202 0)
(-0.160866 -0.00742893 0)
(-0.158429 -0.00939469 0)
(-0.155555 -0.0113352 0)
(-0.152254 -0.0132362 0)
(-0.148538 -0.015083 0)
(-0.144421 -0.016861 0)
(-0.139919 -0.0185554 0)
(-0.135052 -0.0201516 0)
(-0.12984 -0.0216353 0)
(-0.124307 -0.0229927 0)
(-0.118478 -0.0242105 0)
(-0.112382 -0.0252763 0)
(-0.10605 -0.0261789 0)
(-0.0995131 -0.026908 0)
(-0.0928068 -0.0274552 0)
(-0.0859674 -0.0278136 0)
(-0.0790329 -0.027978 0)
(-0.0720427 -0.0279456 0)
(-0.0650373 -0.0277158 0)
(-0.0580579 -0.0272903 0)
(-0.0511458 -0.0266732 0)
(-0.0443425 -0.0258713 0)
(-0.0376885 -0.0248937 0)
(-0.0312236 -0.023752 0)
(-0.0249858 -0.0224601 0)
(-0.0190111 -0.021034 0)
(-0.0133331 -0.0194915 0)
(-0.0079822 -0.0178519 0)
(-0.00298563 -0.0161358 0)
(0.00163326 -0.0143647 0)
(0.00585516 -0.0125602 0)
(0.00966513 -0.0107442 0)
(0.0130527 -0.00893791 0)
(0.016012 -0.00716175 0)
(0.0185419 -0.00543484 0)
(0.0206456 -0.00377467 0)
(0.022331 -0.00219673 0)
(0.0236099 -0.000714335 0)
(0.024498 0.000661625 0)
(0.0250147 0.00192275 0)
(0.0251821 0.00306318 0)
(0.025025 0.0040795 0)
(0.0245703 0.00497057 0)
(0.0238465 0.00573728 0)
(0.0228829 0.00638216 0)
(0.0217098 0.00690895 0)
(0.0203574 0.00732203 0)
(0.0188561 0.00762578 0)
(0.0172362 0.00782393 0)
(0.0155277 0.00791882 0)
(0.0137603 0.00791076 0)
(0.011964 0.00779742 0)
(0.0101689 0.00757347 0)
(0.00840607 0.00723052 0)
(0.00670745 0.00675754 0)
(0.00510698 0.00614193 0)
(0.00364122 0.00537147 0)
(0.0023493 0.00443739 0)
(0.0012722 0.00333842 0)
(0.00047307 0.00208581 0)
(7.67773e-05 0.000712887 0)
(4.53832e-05 -0.00067129 0)
(0.000252809 -0.00170614 0)
(0.000634863 -0.00245584 0)
(0.00109777 -0.00294313 0)
(0.00158493 -0.00319295 0)
(0.00205584 -0.00323251 0)
(0.00247506 -0.00309003 0)
(0.0028123 -0.00279363 0)
(0.00304233 -0.00237031 0)
(0.00314424 -0.00184518 0)
(0.00310088 -0.00124089 0)
(0.00289836 -0.000577233 0)
(0.00252555 0.000129108 0)
(0.0019736 0.000864637 0)
(0.00123546 0.00161904 0)
(0.000305406 0.00238506 0)
(-0.000821412 0.00315824 0)
(-0.00214932 0.0039366 0)
(-0.00368248 0.00472025 0)
(-0.00542506 0.00551092 0)
(-0.00738147 0.00631145 0)
(-0.00955633 0.00712533 0)
(-0.0119545 0.00795618 0)
(-0.0145808 0.00880733 0)
(-0.0174401 0.00968142 0)
(-0.0205367 0.0105801 0)
(-0.0238745 0.0115039 0)
(-0.027456 0.012452 0)
(-0.0312828 0.0134219 0)
(-0.0353545 0.01441 0)
(-0.0396689 0.0154112 0)
(-0.0442217 0.0164191 0)
(-0.0490061 0.0174261 0)
(-0.0540126 0.0184236 0)
(-0.0592292 0.0194021 0)
(-0.064641 0.0203513 0)
(-0.0702303 0.0212603 0)
(-0.0759769 0.0221179 0)
(-0.0818578 0.0229126 0)
(-0.0878476 0.0236328 0)
(-0.093919 0.0242671 0)
(-0.100043 0.0248046 0)
(-0.106187 0.0252346 0)
(-0.112322 0.0255474 0)
(-0.118412 0.0257339 0)
(-0.124426 0.0257863 0)
(-0.130329 0.0256976 0)
(-0.136089 0.0254623 0)
(-0.141674 0.0250762 0)
(-0.147052 0.0245362 0)
(-0.152193 0.023841 0)
(-0.15707 0.0229901 0)
(-0.161654 0.021985 0)
(-0.165922 0.0208281 0)
(-0.169849 0.019523 0)
(-0.173416 0.0180749 0)
(-0.176604 0.0164898 0)
(-0.179394 0.0147749 0)
(-0.181774 0.0129382 0)
(-0.183728 0.0109889 0)
(-0.185248 0.00893697 0)
(-0.186323 0.00679302 0)
(-0.186947 0.00456856 0)
(-0.187114 0.00227576 0)
(-0.18682 -7.24928e-05 0)
(-0.186063 -0.00246247 0)
(-0.184844 -0.00488053 0)
(-0.183164 -0.00731186 0)
(-0.181025 -0.00974128 0)
(-0.178434 -0.0121532 0)
(-0.175397 -0.0145314 0)
(-0.171922 -0.0168597 0)
(-0.16802 -0.0191212 0)
(-0.163704 -0.0212991 0)
(-0.15899 -0.0233764 0)
(-0.153893 -0.0253362 0)
(-0.148434 -0.027162 0)
(-0.142633 -0.0288376 0)
(-0.136516 -0.0303472 0)
(-0.130108 -0.0316763 0)
(-0.123439 -0.0328112 0)
(-0.116539 -0.0337396 0)
(-0.109443 -0.0344509 0)
(-0.102185 -0.0349362 0)
(-0.0948038 -0.035189 0)
(-0.0873382 -0.0352049 0)
(-0.0798291 -0.0349823 0)
(-0.0723183 -0.0345222 0)
(-0.0648484 -0.0338284 0)
(-0.0574623 -0.0329078 0)
(-0.0502027 -0.0317703 0)
(-0.0431115 -0.0304286 0)
(-0.0362297 -0.0288981 0)
(-0.0295963 -0.027197 0)
(-0.0232483 -0.0253457 0)
(-0.01722 -0.0233666 0)
(-0.0115423 -0.0212838 0)
(-0.00624289 -0.0191224 0)
(-0.00134517 -0.0169085 0)
(0.00313159 -0.0146682 0)
(0.00717262 -0.0124273 0)
(0.0107679 -0.010211 0)
(0.013912 -0.008043 0)
(0.0166044 -0.00594547 0)
(0.0188492 -0.00393833 0)
(0.0206551 -0.00203911 0)
(0.0220349 -0.0002626 0)
(0.0230053 0.00137928 0)
(0.0235869 0.00287759 0)
(0.023803 0.00422631 0)
(0.0236799 0.00542217 0)
(0.0232457 0.00646444 0)
(0.0225306 0.00735451 0)
(0.0215658 0.00809536 0)
(0.0203833 0.008691 0)
(0.0190155 0.0091457 0)
(0.0174953 0.0094632 0)
(0.0158554 0.00964595 0)
(0.0141288 0.00969422 0)
(0.0123484 0.00960551 0)
(0.0105477 0.00937396 0)
(0.0087608 0.00899025 0)
(0.00702295 0.00844188 0)
(0.00537142 0.00771401 0)
(0.0038466 0.00679109 0)
(0.00249212 0.00565933 0)
(0.00135446 0.0043098 0)
(0.000505047 0.0027421 0)
(8.21229e-05 0.000970281 0)
(4.32672e-05 -0.000802141 0)
(0.000237067 -0.00200987 0)
(0.000587534 -0.00286177 0)
(0.00100148 -0.00339365 0)
(0.00142148 -0.00364034 0)
(0.00180624 -0.00363697 0)
(0.00211996 -0.00341833 0)
(0.00233236 -0.00301799 0)
(0.00241828 -0.00246759 0)
(0.00235688 -0.00179626 0)
(0.00213094 -0.00103012 0)
(0.00172634 -0.000191876 0)
(0.00113151 0.000699334 0)
(0.000336988 0.00162807 0)
(-0.000665086 0.00258253 0)
(-0.00188139 0.0035544 0)
(-0.0033178 0.00453857 0)
(-0.00497977 0.00553274 0)
(-0.00687252 0.00653692 0)
(-0.00900127 0.00755292 0)
(-0.0113713 0.00858374 0)
(-0.013988 0.00963299 0)
(-0.0168565 0.0107043 0)
(-0.0199818 0.0118008 0)
(-0.0233685 0.0129247 0)
(-0.0270203 0.0140769 0)
(-0.0309395 0.0152569 0)
(-0.0351273 0.0164623 0)
(-0.0395828 0.0176891 0)
(-0.0443029 0.0189315 0)
(-0.0492822 0.0201822 0)
(-0.0545125 0.0214321 0)
(-0.059983 0.022671 0)
(-0.0656797 0.0238875 0)
(-0.0715857 0.025069 0)
(-0.0776811 0.0262026 0)
(-0.0839433 0.0272744 0)
(-0.0903468 0.0282706 0)
(-0.0968639 0.0291773 0)
(-0.103464 0.0299806 0)
(-0.110117 0.0306675 0)
(-0.116788 0.0312254 0)
(-0.123444 0.0316425 0)
(-0.130049 0.0319085 0)
(-0.13657 0.032014 0)
(-0.142972 0.0319513 0)
(-0.149221 0.031714 0)
(-0.155284 0.0312974 0)
(-0.161131 0.0306985 0)
(-0.166731 0.0299157 0)
(-0.172056 0.0289492 0)
(-0.177082 0.0278008 0)
(-0.181783 0.0264734 0)
(-0.186138 0.0249718 0)
(-0.190128 0.0233016 0)
(-0.193734 0.02147 0)
(-0.196941 0.0194851 0)
(-0.199735 0.0173561 0)
(-0.202105 0.015093 0)
(-0.204039 0.0127067 0)
(-0.20553 0.0102089 0)
(-0.206569 0.00761208 0)
(-0.207153 0.00492932 0)
(-0.207275 0.00217439 0)
(-0.206934 -0.000638294 0)
(-0.206128 -0.00349379 0)
(-0.204856 -0.00637649 0)
(-0.203119 -0.00927018 0)
(-0.200921 -0.0121581 0)
(-0.198265 -0.0150231 0)
(-0.195155 -0.0178472 0)
(-0.1916 -0.0206124 0)
(-0.187608 -0.0233 0)
(-0.18319 -0.0258911 0)
(-0.178358 -0.0283667 0)
(-0.173126 -0.0307077 0)
(-0.167513 -0.0328952 0)
(-0.161537 -0.0349106 0)
(-0.15522 -0.0367359 0)
(-0.148586 -0.0383539 0)
(-0.141662 -0.0397484 0)