/*--------------------------------*- C++ -*----------------------------------*\
| =========                 |                                                 |
| \\      /  F ield         | OpenFOAM: The Open Source CFD Toolbox           |
|  \\    /   O peration     | Version:  2112                                  |
|   \\  /    A nd           | Website:  www.openfoam.com                      |
|    \\/     M anipulation  |                                                 |
\*---------------------------------------------------------------------------*/
FoamFile
{
    version     2.0;
    format      ascii;
    arch        "LSB;label=32;scalar=64";
    class       volScalarField;
    location    "6";
    object      p;
}
// * * * * * * * * * * * * * * * * * * * * * * * * * * * * * * * * * * * * * //

dimensions      [0 2 -2 0 0 0 0];

internalField   nonuniform List<scalar> 
25600
(
-1.47927e-13
-3.29423e-13
-4.14032e-13
-4.65021e-13
-5.02996e-13
-5.33824e-13
-5.60747e-13
-5.86046e-13
-6.08757e-13
-6.2895e-13
-6.47422e-13
-6.65393e-13
-6.82302e-13
-6.96978e-13
-7.09045e-13
-7.22228e-13
-7.3448e-13
-7.45987e-13
-7.5669e-13
-7.67228e-13
-7.77338e-13
-7.8661e-13
-7.94556e-13
-8.02062e-13
-8.10466e-13
-8.19561e-13
-8.28103e-13
-8.33957e-13
-8.39829e-13
-8.47421e-13
-8.55582e-13
-8.62745e-13
-8.67845e-13
-8.7279e-13
-8.78091e-13
-8.82968e-13
-8.88138e-13
-8.91094e-13
-8.94792e-13
-9.00296e-13
-9.03607e-13
-9.07911e-13
-9.11437e-13
-9.14068e-13
-9.1845e-13
-9.20998e-13
-9.24074e-13
-9.2699e-13
-9.29923e-13
-9.33079e-13
-9.35925e-13
-9.40691e-13
-9.42939e-13
-9.45605e-13
-9.49858e-13
-9.51629e-13
-9.554e-13
-9.57457e-13
-9.59718e-13
-9.61902e-13
-9.61793e-13
-9.65849e-13
-9.66853e-13
-9.68531e-13
-9.71523e-13
-9.70985e-13
-9.72986e-13
-9.74039e-13
-9.74603e-13
-9.75465e-13
-9.74386e-13
-9.74828e-13
-9.7506e-13
-9.75882e-13
-9.77965e-13
-9.74986e-13
-9.74817e-13
-9.77928e-13
-9.78083e-13
-9.80274e-13
-9.7958e-13
-9.79612e-13
-9.84229e-13
-9.87923e-13
-9.90599e-13
-9.91745e-13
-9.92015e-13
-9.9376e-13
-9.97047e-13
-9.99341e-13
-9.96762e-13
-9.96451e-13
-1.00096e-12
-1.00395e-12
-1.00269e-12
-1.00112e-12
-1.00343e-12
-1.00453e-12
-1.00627e-12
-1.0059e-12
-1.00333e-12
-1.00619e-12
-1.00638e-12
-1.00908e-12
-1.01066e-12
-1.01022e-12
-1.00964e-12
-1.01222e-12
-1.01512e-12
-1.01497e-12
-1.01488e-12
-1.01128e-12
-1.01733e-12
-1.02127e-12
-1.01845e-12
-1.01641e-12
-1.01482e-12
-1.01975e-12
-1.02383e-12
-1.02204e-12
-1.01959e-12
-1.01917e-12
-1.02525e-12
-1.03135e-12
-1.02961e-12
-1.02621e-12
-1.02633e-12
-1.03338e-12
-1.03949e-12
-1.03791e-12
-1.0366e-12
-1.03818e-12
-1.0436e-12
-1.0467e-12
-1.04504e-12
-1.04569e-12
-1.04585e-12
-1.05007e-12
-1.05457e-12
-1.05374e-12
-1.05333e-12
-1.05372e-12
-1.05814e-12
-1.06033e-12
-1.05913e-12
-1.05919e-12
-1.05813e-12
-1.0608e-12
-1.062e-12
-1.06292e-12
-1.0645e-12
-1.05996e-12
-1.06057e-12
-1.06466e-12
-1.06553e-12
-1.06548e-12
-1.06192e-12
-1.06083e-12
-1.06299e-12
-1.06193e-12
-1.05968e-12
-1.05252e-12
-1.05326e-12
-1.05583e-12
-1.05016e-12
-1.05184e-12
-1.04927e-12
-1.04708e-12
-1.04957e-12
-1.04722e-12
-1.04584e-12
-1.04143e-12
-1.04272e-12
-1.04244e-12
-1.03849e-12
-1.03814e-12
-1.03723e-12
-1.04105e-12
-1.03649e-12
-1.03543e-12
-1.03724e-12
-1.03029e-12
-1.0331e-12
-1.03421e-12
-1.0307e-12
-1.03183e-12
-1.02399e-12
-1.02382e-12
-1.02402e-12
-1.01673e-12
-1.01822e-12
-1.01523e-12
-1.01281e-12
-1.01611e-12
-1.01043e-12
-1.0086e-12
-1.00542e-12
-1.00673e-12
-1.00995e-12
-1.00258e-12
-1.00332e-12
-1.00164e-12
-1.00382e-12
-1.00692e-12
-9.99546e-13
-9.97522e-13
-9.98469e-13
-1.00309e-12
-1.00254e-12
-9.95944e-13
-9.91777e-13
-9.92362e-13
-1.00084e-12
-9.91301e-13
-9.81606e-13
-9.90909e-13
-9.8364e-13
-9.77033e-13
-9.74144e-13
-9.71651e-13
-9.80753e-13
-9.72228e-13
-9.62939e-13
-9.61473e-13
-9.59164e-13
-9.68975e-13
-9.60802e-13
-9.5542e-13
-9.57921e-13
-9.55186e-13
-9.61451e-13
-9.54548e-13
-9.51078e-13
-9.50167e-13
-9.42365e-13
-9.48009e-13
-9.4582e-13
-9.43051e-13
-9.39339e-13
-9.29553e-13
-9.34293e-13
-9.28318e-13
-9.26674e-13
-9.24925e-13
-9.12035e-13
-9.17257e-13
-9.18759e-13
-9.16553e-13
-9.09562e-13
-9.00468e-13
-9.08431e-13
-9.01825e-13
-8.96323e-13
-8.96489e-13
-8.93984e-13
-9.03957e-13
-8.95329e-13
-8.90365e-13
-8.89755e-13
-8.80289e-13
-8.85659e-13
-8.81972e-13
-8.76966e-13
-8.7413e-13
-8.67867e-13
-8.72919e-13
-8.6508e-13
-8.57008e-13
-8.52142e-13
-8.44804e-13
-8.47888e-13
-8.41926e-13
-8.36441e-13
-8.31374e-13
-8.23906e-13
-8.26181e-13
-8.20407e-13
-8.14442e-13
-8.12807e-13
-8.03932e-13
-8.04985e-13
-8.01337e-13
-7.94171e-13
-7.90431e-13
-7.82487e-13
-7.83832e-13
-7.8114e-13
-7.7155e-13
-7.62916e-13
-7.57927e-13
-7.60156e-13
-7.52009e-13
-7.42333e-13
-7.35724e-13
-7.31711e-13
-7.30959e-13
-7.20429e-13
-7.1107e-13
-7.01355e-13
-6.96949e-13
-6.96626e-13
-6.85844e-13
-6.75125e-13
-6.60235e-13
-6.50954e-13
-6.47599e-13
-6.37644e-13
-6.28089e-13
-6.11091e-13
-6.01487e-13
-5.89683e-13
-5.72278e-13
-5.62012e-13
-5.40127e-13
-5.19462e-13
-5.02496e-13
-4.74924e-13
-4.47074e-13
-3.99135e-13
-3.17905e-13
-2.67506e-13
-3.54471e-13
-4.21285e-13
-4.67998e-13
-5.04674e-13
-5.34998e-13
-5.61364e-13
-5.86594e-13
-6.09051e-13
-6.2921e-13
-6.47786e-13
-6.65671e-13
-6.82426e-13
-6.97234e-13
-7.09397e-13
-7.22214e-13
-7.3453e-13
-7.45935e-13
-7.57064e-13
-7.67353e-13
-7.77144e-13
-7.86485e-13
-7.94687e-13
-8.02363e-13
-8.11071e-13
-8.19759e-13
-8.27638e-13
-8.34164e-13
-8.40438e-13
-8.47741e-13
-8.55639e-13
-8.624e-13
-8.67988e-13
-8.72987e-13
-8.78268e-13
-8.829e-13
-8.88033e-13
-8.91433e-13
-8.95067e-13
-8.99895e-13
-9.03848e-13
-9.07788e-13
-9.11629e-13
-9.14352e-13
-9.17767e-13
-9.21175e-13
-9.24235e-13
-9.27286e-13
-9.30006e-13
-9.33351e-13
-9.36747e-13
-9.40236e-13
-9.42936e-13
-9.45485e-13
-9.49084e-13
-9.52519e-13
-9.55821e-13
-9.57617e-13
-9.59697e-13
-9.61289e-13
-9.62436e-13
-9.65879e-13
-9.66867e-13
-9.68388e-13
-9.71142e-13
-9.71316e-13
-9.73122e-13
-9.74166e-13
-9.74263e-13
-9.75028e-13
-9.74476e-13
-9.74828e-13
-9.75082e-13
-9.76181e-13
-9.77426e-13
-9.75473e-13
-9.75525e-13
-9.77364e-13
-9.77978e-13
-9.79689e-13
-9.80072e-13
-9.80787e-13
-9.83934e-13
-9.8714e-13
-9.89721e-13
-9.91721e-13
-9.93511e-13
-9.94251e-13
-9.9567e-13
-9.97923e-13
-9.97143e-13
-9.97931e-13
-1.0011e-12
-1.00249e-12
-1.00273e-12
-1.00247e-12
-1.00343e-12
-1.0043e-12
-1.00486e-12
-1.0053e-12
-1.00538e-12
-1.0062e-12
-1.00663e-12
-1.00806e-12
-1.01017e-12
-1.01066e-12
-1.01039e-12
-1.01142e-12
-1.01432e-12
-1.0152e-12
-1.01464e-12
-1.01309e-12
-1.01669e-12
-1.01931e-12
-1.01865e-12
-1.01729e-12
-1.0158e-12
-1.019e-12
-1.02299e-12
-1.02231e-12
-1.01999e-12
-1.02026e-12
-1.02517e-12
-1.02968e-12
-1.02928e-12
-1.02699e-12
-1.02714e-12
-1.03337e-12
-1.03814e-12
-1.03764e-12
-1.03725e-12
-1.03886e-12
-1.04286e-12
-1.04602e-12
-1.04579e-12
-1.0459e-12
-1.0463e-12
-1.05006e-12
-1.05427e-12
-1.05397e-12
-1.05342e-12
-1.05409e-12
-1.05804e-12
-1.06005e-12
-1.05942e-12
-1.05878e-12
-1.05896e-12
-1.0615e-12
-1.06202e-12
-1.06208e-12
-1.0633e-12
-1.06161e-12
-1.06227e-12
-1.06408e-12
-1.06457e-12
-1.06464e-12
-1.06263e-12
-1.06157e-12
-1.0625e-12
-1.06149e-12
-1.05813e-12
-1.05355e-12
-1.05377e-12
-1.05486e-12
-1.05114e-12
-1.05065e-12
-1.04971e-12
-1.04808e-12
-1.04804e-12
-1.04653e-12
-1.0446e-12
-1.04265e-12
-1.04281e-12
-1.04253e-12
-1.03972e-12
-1.03715e-12
-1.03751e-12
-1.03903e-12
-1.03713e-12
-1.03721e-12
-1.03518e-12
-1.03164e-12
-1.03353e-12
-1.03443e-12
-1.0316e-12
-1.02923e-12
-1.02504e-12
-1.02401e-12
-1.02285e-12
-1.01909e-12
-1.01734e-12
-1.01506e-12
-1.0136e-12
-1.0138e-12
-1.01137e-12
-1.00897e-12
-1.00665e-12
-1.00627e-12
-1.00628e-12
-1.00474e-12
-1.00414e-12
-1.00288e-12
-1.00338e-12
-1.00303e-12
-1.0014e-12
-1.00027e-12
-9.99399e-13
-1.00074e-12
-9.99742e-13
-9.97398e-13
-9.9482e-13
-9.93423e-13
-9.97001e-13
-9.91223e-13
-9.85125e-13
-9.87113e-13
-9.82007e-13
-9.80036e-13
-9.762e-13
-9.72788e-13
-9.76599e-13
-9.70345e-13
-9.65538e-13
-9.63596e-13
-9.60147e-13
-9.64933e-13
-9.60098e-13
-9.56506e-13
-9.57705e-13
-9.57034e-13
-9.59917e-13
-9.54839e-13
-9.51621e-13
-9.49254e-13
-9.44044e-13
-9.46229e-13
-9.44944e-13
-9.44154e-13
-9.39492e-13
-9.31059e-13
-9.32104e-13
-9.28096e-13
-9.26861e-13
-9.24281e-13
-9.14942e-13
-9.17598e-13
-9.17013e-13
-9.14754e-13
-9.0977e-13
-9.02898e-13
-9.07511e-13
-9.01814e-13
-8.9632e-13
-8.95849e-13
-8.96492e-13
-9.02889e-13
-8.95001e-13
-8.90181e-13
-8.88825e-13
-8.82656e-13
-8.84578e-13
-8.8098e-13
-8.77442e-13
-8.73862e-13
-8.6968e-13
-8.71631e-13
-8.63262e-13
-8.57718e-13
-8.53421e-13
-8.46065e-13
-8.46575e-13
-8.41033e-13
-8.36972e-13
-8.31784e-13
-8.24624e-13
-8.25495e-13
-8.20016e-13
-8.16252e-13
-8.11944e-13
-8.03611e-13
-8.04794e-13
-8.00086e-13
-7.9528e-13
-7.9093e-13
-7.83467e-13
-7.84433e-13
-7.79013e-13
-7.70659e-13
-7.64559e-13
-7.59439e-13
-7.5896e-13
-7.50616e-13
-7.42599e-13
-7.38495e-13
-7.31809e-13
-7.28533e-13
-7.21277e-13
-7.10417e-13
-7.03808e-13
-6.97061e-13
-6.93737e-13
-6.86265e-13
-6.74347e-13
-6.62017e-13
-6.52862e-13
-6.47982e-13
-6.37331e-13
-6.25665e-13
-6.12491e-13
-6.02064e-13
-5.90346e-13
-5.73616e-13
-5.601e-13
-5.42133e-13
-5.2153e-13
-5.01551e-13
-4.7696e-13
-4.49509e-13
-4.07074e-13
-3.44518e-13
-3.32734e-13
-3.81055e-13
-4.32665e-13
-4.74085e-13
-5.08436e-13
-5.37448e-13
-5.6315e-13
-5.8787e-13
-6.09945e-13
-6.30003e-13
-6.48678e-13
-6.66104e-13
-6.83203e-13
-6.97782e-13
-7.10016e-13
-7.22294e-13
-7.34418e-13
-7.46292e-13
-7.57378e-13
-7.67338e-13
-7.76953e-13
-7.86488e-13
-7.9521e-13
-8.02677e-13
-8.11282e-13
-8.20146e-13
-8.27634e-13
-8.34436e-13
-8.40957e-13
-8.47977e-13
-8.55932e-13
-8.62328e-13
-8.67806e-13
-8.7323e-13
-8.78536e-13
-8.82951e-13
-8.88042e-13
-8.91625e-13
-8.95303e-13
-8.99412e-13
-9.04068e-13
-9.07838e-13
-9.11526e-13
-9.14337e-13
-9.17887e-13
-9.21218e-13
-9.24306e-13
-9.27346e-13
-9.3011e-13
-9.33596e-13
-9.37292e-13
-9.40192e-13
-9.42803e-13
-9.45294e-13
-9.48905e-13
-9.53018e-13
-9.56089e-13
-9.57643e-13
-9.60128e-13
-9.61349e-13
-9.62479e-13
-9.65836e-13
-9.66901e-13
-9.68558e-13
-9.7084e-13
-9.71536e-13
-9.73146e-13
-9.73915e-13
-9.74168e-13
-9.74599e-13
-9.744e-13
-9.75066e-13
-9.75203e-13
-9.7612e-13
-9.77058e-13
-9.75944e-13
-9.7623e-13
-9.76716e-13
-9.77669e-13
-9.79364e-13
-9.80286e-13
-9.81364e-13
-9.83717e-13
-9.86391e-13
-9.89533e-13
-9.91642e-13
-9.94032e-13
-9.94773e-13
-9.95123e-13
-9.96922e-13
-9.97397e-13
-9.98667e-13
-1.00081e-12
-1.00214e-12
-1.00266e-12
-1.003e-12
-1.00345e-12
-1.00394e-12
-1.00412e-12
-1.00502e-12
-1.00623e-12
-1.00627e-12
-1.00673e-12
-1.0078e-12
-1.00963e-12
-1.01094e-12
-1.01081e-12
-1.01106e-12
-1.01391e-12
-1.01488e-12
-1.01447e-12
-1.01446e-12
-1.01644e-12
-1.01803e-12
-1.01831e-12
-1.01759e-12
-1.01642e-12
-1.01923e-12
-1.02225e-12
-1.02243e-12
-1.02041e-12
-1.02117e-12
-1.02465e-12
-1.02832e-12
-1.02838e-12
-1.02728e-12
-1.02877e-12
-1.03349e-12
-1.03693e-12
-1.03707e-12
-1.03781e-12
-1.03988e-12
-1.04227e-12
-1.04508e-12
-1.04611e-12
-1.04629e-12
-1.04699e-12
-1.05039e-12
-1.0539e-12
-1.0538e-12
-1.05354e-12
-1.0546e-12
-1.05812e-12
-1.05978e-12
-1.05942e-12
-1.05916e-12
-1.05942e-12
-1.06131e-12
-1.0621e-12
-1.0618e-12
-1.06262e-12
-1.06295e-12
-1.06358e-12
-1.06373e-12
-1.06418e-12
-1.06388e-12
-1.0628e-12
-1.06239e-12
-1.06238e-12
-1.06082e-12
-1.05701e-12
-1.05405e-12
-1.05411e-12
-1.05425e-12
-1.0515e-12
-1.04991e-12
-1.04989e-12
-1.04864e-12
-1.04706e-12
-1.04569e-12
-1.04438e-12
-1.04274e-12
-1.04302e-12
-1.0425e-12
-1.03959e-12
-1.03801e-12
-1.03789e-12
-1.03713e-12
-1.03686e-12
-1.0377e-12
-1.03517e-12
-1.03284e-12
-1.03406e-12
-1.03433e-12
-1.03179e-12
-1.02806e-12
-1.02553e-12
-1.02436e-12
-1.0224e-12
-1.01972e-12
-1.017e-12
-1.01502e-12
-1.01373e-12
-1.01274e-12
-1.01189e-12
-1.00915e-12
-1.00711e-12
-1.00537e-12
-1.00502e-12
-1.0057e-12
-1.00469e-12
-1.00314e-12
-1.00311e-12
-1.0011e-12
-1.00224e-12
-1.00185e-12
-9.99902e-13
-9.99755e-13
-9.98476e-13
-9.98028e-13
-9.96517e-13
-9.93774e-13
-9.9484e-13
-9.91344e-13
-9.86939e-13
-9.85126e-13
-9.8147e-13
-9.81733e-13
-9.77409e-13
-9.73498e-13
-9.74004e-13
-9.69278e-13
-9.67154e-13
-9.64782e-13
-9.6071e-13
-9.61867e-13
-9.59683e-13
-9.57317e-13
-9.57792e-13
-9.58096e-13
-9.59031e-13
-9.55063e-13
-9.514e-13
-9.48547e-13
-9.45348e-13
-9.45857e-13
-9.44716e-13
-9.44003e-13
-9.39043e-13
-9.32248e-13
-9.31644e-13
-9.28048e-13
-9.26207e-13
-9.2346e-13
-9.17357e-13
-9.17885e-13
-9.15628e-13
-9.13275e-13
-9.10307e-13
-9.04458e-13
-9.05914e-13
-9.01655e-13
-8.97253e-13
-8.9669e-13
-8.98426e-13
-9.00713e-13
-8.94664e-13
-8.90998e-13
-8.88638e-13
-8.83919e-13
-8.82499e-13
-8.80251e-13
-8.7876e-13
-8.74572e-13
-8.70673e-13
-8.70105e-13
-8.62128e-13
-8.58194e-13
-8.54178e-13
-8.47183e-13
-8.46024e-13
-8.40554e-13
-8.36513e-13
-8.32008e-13
-8.25554e-13
-8.25196e-13
-8.19753e-13
-8.16981e-13
-8.11506e-13
-8.03816e-13
-8.04917e-13
-7.99292e-13
-7.95038e-13
-7.91673e-13
-7.84717e-13
-7.84346e-13
-7.77866e-13
-7.70217e-13
-7.66297e-13
-7.6044e-13
-7.57673e-13
-7.50291e-13
-7.43819e-13
-7.39381e-13
-7.31207e-13
-7.27668e-13
-7.21753e-13
-7.10726e-13
-7.04857e-13
-6.97356e-13
-6.9204e-13
-6.85595e-13
-6.74245e-13
-6.63831e-13
-6.54912e-13
-6.48631e-13
-6.36657e-13
-6.24813e-13
-6.14043e-13
-6.02448e-13
-5.91735e-13
-5.74665e-13
-5.59487e-13
-5.44629e-13
-5.23607e-13
-5.03259e-13
-4.8125e-13
-4.55368e-13
-4.19515e-13
-3.72718e-13
-3.79341e-13
-4.07391e-13
-4.46591e-13
-4.82097e-13
-5.13969e-13
-5.40824e-13
-5.65913e-13
-5.902e-13
-6.12055e-13
-6.31576e-13
-6.49664e-13
-6.66783e-13
-6.8442e-13
-6.98466e-13
-7.10627e-13
-7.226e-13
-7.34866e-13
-7.46885e-13
-7.57844e-13
-7.6741e-13
-7.77232e-13
-7.87229e-13
-7.95292e-13
-8.03182e-13
-8.11773e-13
-8.20316e-13
-8.27649e-13
-8.34713e-13
-8.41248e-13
-8.4855e-13
-8.56276e-13
-8.62684e-13
-8.6767e-13
-8.73208e-13
-8.79055e-13
-8.83048e-13
-8.88177e-13
-8.91664e-13
-8.95081e-13
-8.99275e-13
-9.03879e-13
-9.07934e-13
-9.11598e-13
-9.14468e-13
-9.18028e-13
-9.21074e-13
-9.24148e-13
-9.27295e-13
-9.30363e-13
-9.33779e-13
-9.37554e-13
-9.40264e-13
-9.43065e-13
-9.451e-13
-9.48751e-13
-9.53298e-13
-9.56514e-13
-9.57898e-13
-9.60641e-13
-9.61603e-13
-9.62369e-13
-9.65904e-13
-9.66585e-13
-9.68601e-13
-9.71142e-13
-9.71662e-13
-9.72615e-13
-9.74114e-13
-9.73863e-13
-9.74414e-13
-9.746e-13
-9.75454e-13
-9.75453e-13
-9.76168e-13
-9.76438e-13
-9.76158e-13
-9.76362e-13
-9.76317e-13
-9.77707e-13
-9.7939e-13
-9.80363e-13
-9.81253e-13
-9.82983e-13
-9.86513e-13
-9.90042e-13
-9.91734e-13
-9.93208e-13
-9.94308e-13
-9.95561e-13
-9.96819e-13
-9.97688e-13
-9.98777e-13
-1.00072e-12
-1.00193e-12
-1.00238e-12
-1.00304e-12
-1.00334e-12
-1.00357e-12
-1.00426e-12
-1.00535e-12
-1.00592e-12
-1.00626e-12
-1.00694e-12
-1.00764e-12
-1.00903e-12
-1.01085e-12
-1.01166e-12
-1.01147e-12
-1.01276e-12
-1.01409e-12
-1.01478e-12
-1.0151e-12
-1.01671e-12
-1.01803e-12
-1.01755e-12
-1.01671e-12
-1.0171e-12
-1.02027e-12
-1.02156e-12
-1.02175e-12
-1.02116e-12
-1.02179e-12
-1.02328e-12
-1.02756e-12
-1.02822e-12
-1.02688e-12
-1.02954e-12
-1.03421e-12
-1.03641e-12
-1.03668e-12
-1.0382e-12
-1.04075e-12
-1.0418e-12
-1.04404e-12
-1.04592e-12
-1.04711e-12
-1.04826e-12
-1.05078e-12
-1.05273e-12
-1.05306e-12
-1.05394e-12
-1.05619e-12
-1.05802e-12
-1.05919e-12
-1.05916e-12
-1.05957e-12
-1.06025e-12
-1.06115e-12
-1.06144e-12
-1.06213e-12
-1.06332e-12
-1.06344e-12
-1.06306e-12
-1.06346e-12
-1.06471e-12
-1.06392e-12
-1.06337e-12
-1.06267e-12
-1.06185e-12
-1.06033e-12
-1.05682e-12
-1.05466e-12
-1.05456e-12
-1.05354e-12
-1.05097e-12
-1.04942e-12
-1.04957e-12
-1.04865e-12
-1.04747e-12
-1.04534e-12
-1.04416e-12
-1.04183e-12
-1.04404e-12
-1.04189e-12
-1.03813e-12
-1.0389e-12
-1.03848e-12
-1.03712e-12
-1.03641e-12
-1.03728e-12
-1.03619e-12
-1.03349e-12
-1.03374e-12
-1.0339e-12
-1.03207e-12
-1.02784e-12
-1.02517e-12
-1.02487e-12
-1.02244e-12
-1.01898e-12
-1.01727e-12
-1.01498e-12
-1.01377e-12
-1.01277e-12
-1.01153e-12
-1.0096e-12
-1.00668e-12
-1.00493e-12
-1.00515e-12
-1.00538e-12
-1.00492e-12
-1.00327e-12
-1.00268e-12
-1.00087e-12
-1.00266e-12
-1.00203e-12
-1.00017e-12
-9.99772e-13
-9.9853e-13
-9.97496e-13
-9.96098e-13
-9.94377e-13
-9.94569e-13
-9.9187e-13
-9.87985e-13
-9.84953e-13
-9.81768e-13
-9.81e-13
-9.77746e-13
-9.74112e-13
-9.73275e-13
-9.69275e-13
-9.67346e-13
-9.65071e-13
-9.60786e-13
-9.59956e-13
-9.59642e-13
-9.58586e-13
-9.58419e-13
-9.57278e-13
-9.57968e-13
-9.55324e-13
-9.51437e-13
-9.48988e-13
-9.46931e-13
-9.46732e-13
-9.43799e-13
-9.42119e-13
-9.39712e-13
-9.33319e-13
-9.30361e-13
-9.28178e-13
-9.26981e-13
-9.22897e-13
-9.18188e-13
-9.16795e-13
-9.14959e-13
-9.13361e-13
-9.108e-13
-9.04895e-13
-9.05168e-13
-9.01665e-13
-8.97019e-13
-8.97739e-13
-9.00242e-13
-8.98689e-13
-8.94886e-13
-8.91396e-13
-8.89342e-13
-8.84819e-13
-8.81273e-13
-8.80563e-13
-8.79282e-13
-8.74472e-13
-8.70052e-13
-8.69259e-13
-8.63237e-13
-8.57452e-13
-8.53869e-13
-8.49185e-13
-8.45981e-13
-8.40773e-13
-8.35306e-13
-8.31457e-13
-8.2776e-13
-8.24198e-13
-8.19709e-13
-8.16877e-13
-8.11196e-13
-8.06076e-13
-8.03367e-13
-7.99375e-13
-7.94772e-13
-7.91474e-13
-7.87195e-13
-7.83028e-13
-7.77154e-13
-7.71553e-13
-7.67448e-13
-7.61212e-13
-7.55802e-13
-7.50036e-13
-7.45886e-13
-7.39787e-13
-7.31391e-13
-7.26353e-13
-7.21686e-13
-7.12686e-13
-7.05118e-13
-6.97377e-13
-6.91119e-13
-6.85833e-13
-6.74998e-13
-6.64174e-13
-6.5614e-13
-6.4768e-13
-6.37679e-13
-6.2698e-13
-6.15208e-13
-6.03499e-13
-5.92172e-13
-5.75663e-13
-5.60807e-13
-5.47001e-13
-5.27669e-13
-5.07965e-13
-4.86381e-13
-4.62954e-13
-4.34101e-13
-4.00136e-13
-4.14198e-13
-4.31905e-13
-4.61427e-13
-4.91783e-13
-5.20208e-13
-5.45846e-13
-5.69816e-13
-5.92902e-13
-6.14549e-13
-6.33082e-13
-6.50336e-13
-6.68606e-13
-6.8564e-13
-6.99484e-13
-7.11163e-13
-7.23399e-13
-7.35749e-13
-7.47621e-13
-7.58772e-13
-7.67932e-13
-7.7782e-13
-7.87718e-13
-7.95067e-13
-8.03539e-13
-8.12375e-13
-8.20723e-13
-8.27878e-13
-8.34581e-13
-8.41618e-13
-8.49342e-13
-8.568e-13
-8.63004e-13
-8.68123e-13
-8.73492e-13
-8.79105e-13
-8.83417e-13
-8.87694e-13
-8.91752e-13
-8.95338e-13
-8.99019e-13
-9.04012e-13
-9.08333e-13
-9.1216e-13
-9.14073e-13
-9.17713e-13
-9.21734e-13
-9.24241e-13
-9.27329e-13
-9.30955e-13
-9.33988e-13
-9.37705e-13
-9.40559e-13
-9.42905e-13
-9.44911e-13
-9.48767e-13
-9.53743e-13
-9.56671e-13
-9.58154e-13
-9.61053e-13
-9.61963e-13
-9.62775e-13
-9.65557e-13
-9.66519e-13
-9.6907e-13
-9.71484e-13
-9.71969e-13
-9.72371e-13
-9.73505e-13
-9.74074e-13
-9.73874e-13
-9.74825e-13
-9.75847e-13
-9.75681e-13
-9.76043e-13
-9.76224e-13
-9.76074e-13
-9.76069e-13
-9.76403e-13
-9.77502e-13
-9.78511e-13
-9.80492e-13
-9.80962e-13
-9.82019e-13
-9.86994e-13
-9.90596e-13
-9.91738e-13
-9.92537e-13
-9.9377e-13
-9.95664e-13
-9.97083e-13
-9.97276e-13
-9.98743e-13
-1.00063e-12
-1.00163e-12
-1.00232e-12
-1.00301e-12
-1.00312e-12
-1.00403e-12
-1.00464e-12
-1.00518e-12
-1.00562e-12
-1.00612e-12
-1.00683e-12
-1.00735e-12
-1.0083e-12
-1.01121e-12
-1.01182e-12
-1.01124e-12
-1.01252e-12
-1.01359e-12
-1.01507e-12
-1.01596e-12
-1.01674e-12
-1.0178e-12
-1.01716e-12
-1.01617e-12
-1.01796e-12
-1.02062e-12
-1.02048e-12
-1.02112e-12
-1.02201e-12
-1.02201e-12
-1.02223e-12
-1.02613e-12
-1.0284e-12
-1.02741e-12
-1.02957e-12
-1.03389e-12
-1.03617e-12
-1.03789e-12
-1.03853e-12
-1.03988e-12
-1.04192e-12
-1.04349e-12
-1.04582e-12
-1.04769e-12
-1.04937e-12
-1.05106e-12
-1.05196e-12
-1.05264e-12
-1.05448e-12
-1.05722e-12
-1.05809e-12
-1.05876e-12
-1.0585e-12
-1.05956e-12
-1.06117e-12
-1.06053e-12
-1.06066e-12
-1.06218e-12
-1.06456e-12
-1.06391e-12
-1.06249e-12
-1.06339e-12
-1.06456e-12
-1.06533e-12
-1.06414e-12
-1.06234e-12
-1.06136e-12
-1.05998e-12
-1.05619e-12
-1.05496e-12
-1.0548e-12
-1.05329e-12
-1.05123e-12
-1.04856e-12
-1.0495e-12
-1.04795e-12
-1.04715e-12
-1.04518e-12
-1.04372e-12
-1.04225e-12
-1.04456e-12
-1.0408e-12
-1.03772e-12
-1.03926e-12
-1.03851e-12
-1.03794e-12
-1.03643e-12
-1.0367e-12
-1.03646e-12
-1.03433e-12
-1.03351e-12
-1.03307e-12
-1.03258e-12
-1.02857e-12
-1.02496e-12
-1.02402e-12
-1.02224e-12
-1.01826e-12
-1.01756e-12
-1.01527e-12
-1.01458e-12
-1.01312e-12
-1.01132e-12
-1.00995e-12
-1.00562e-12
-1.00446e-12
-1.00561e-12
-1.00481e-12
-1.00452e-12
-1.00318e-12
-1.00234e-12
-1.00107e-12
-1.00268e-12
-1.00205e-12
-1.00047e-12
-9.99517e-13
-9.98952e-13
-9.9762e-13
-9.95316e-13
-9.94945e-13
-9.9404e-13
-9.92142e-13
-9.88812e-13
-9.85607e-13
-9.82235e-13
-9.79983e-13
-9.77857e-13
-9.75019e-13
-9.72859e-13
-9.68592e-13
-9.67061e-13
-9.65049e-13
-9.61109e-13
-9.59394e-13
-9.59181e-13
-9.59645e-13
-9.57826e-13
-9.56326e-13
-9.58183e-13
-9.55869e-13
-9.51407e-13
-9.4967e-13
-9.48787e-13
-9.4709e-13
-9.43458e-13
-9.40236e-13
-9.40004e-13
-9.34651e-13
-9.29786e-13
-9.27717e-13
-9.27444e-13
-9.22353e-13
-9.17717e-13
-9.15984e-13
-9.14996e-13
-9.13741e-13
-9.10336e-13
-9.05771e-13
-9.04773e-13
-9.00926e-13
-8.97422e-13
-8.98375e-13
-9.00999e-13
-8.97518e-13
-8.94976e-13
-8.92257e-13
-8.88578e-13
-8.86091e-13
-8.83037e-13
-8.8106e-13
-8.78049e-13
-8.73827e-13
-8.70097e-13
-8.69533e-13
-8.64104e-13
-8.56534e-13
-8.53596e-13
-8.50744e-13
-8.45447e-13
-8.4099e-13
-8.34583e-13
-8.30844e-13
-8.29498e-13
-8.22698e-13
-8.19909e-13
-8.1683e-13
-8.10842e-13
-8.08152e-13
-8.02947e-13
-7.99304e-13
-7.94461e-13
-7.90836e-13
-7.89473e-13
-7.82173e-13
-7.76588e-13
-7.73001e-13
-7.68335e-13
-7.61511e-13
-7.54136e-13
-7.51012e-13
-7.46867e-13
-7.39264e-13
-7.32822e-13
-7.25136e-13
-7.2142e-13
-7.14269e-13
-7.05914e-13
-6.97691e-13
-6.90144e-13
-6.8679e-13
-6.75827e-13
-6.64104e-13
-6.57431e-13
-6.4744e-13
-6.39334e-13
-6.29188e-13
-6.16786e-13
-6.0528e-13
-5.91844e-13
-5.78013e-13
-5.64053e-13
-5.48854e-13
-5.33021e-13
-5.13608e-13
-4.93386e-13
-4.72643e-13
-4.48954e-13
-4.25184e-13
-4.4096e-13
-4.53844e-13
-4.76746e-13
-5.01919e-13
-5.27145e-13
-5.5159e-13
-5.74751e-13
-5.9652e-13
-6.1694e-13
-6.3491e-13
-6.51543e-13
-6.70382e-13
-6.87513e-13
-7.00982e-13
-7.12426e-13
-7.24257e-13
-7.37105e-13
-7.48359e-13
-7.5938e-13
-7.68315e-13
-7.78778e-13
-7.88426e-13
-7.9521e-13
-8.04366e-13
-8.1263e-13
-8.20719e-13
-8.28304e-13
-8.34716e-13
-8.42088e-13
-8.49934e-13
-8.57275e-13
-8.63692e-13
-8.68721e-13
-8.73693e-13
-8.78712e-13
-8.83225e-13
-8.87474e-13
-8.91799e-13
-8.96115e-13
-8.99569e-13
-9.04176e-13
-9.09261e-13
-9.12592e-13
-9.13597e-13
-9.16994e-13
-9.22735e-13
-9.24669e-13
-9.26999e-13
-9.30649e-13
-9.34278e-13
-9.38076e-13
-9.40584e-13
-9.43107e-13
-9.45035e-13
-9.49343e-13
-9.54138e-13
-9.56638e-13
-9.58321e-13
-9.60554e-13
-9.62072e-13
-9.63796e-13
-9.65148e-13
-9.66646e-13
-9.69316e-13
-9.71583e-13
-9.72046e-13
-9.72111e-13
-9.73619e-13
-9.74811e-13
-9.74273e-13
-9.73777e-13
-9.75966e-13
-9.75625e-13
-9.76479e-13
-9.76402e-13
-9.75674e-13
-9.75708e-13
-9.75485e-13
-9.76385e-13
-9.7864e-13
-9.79733e-13
-9.80512e-13
-9.81718e-13
-9.87249e-13
-9.90715e-13
-9.91554e-13
-9.92604e-13
-9.9366e-13
-9.9602e-13
-9.96008e-13
-9.97163e-13
-9.98942e-13
-1.00041e-12
-1.00101e-12
-1.00222e-12
-1.00288e-12
-1.00336e-12
-1.00375e-12
-1.00442e-12
-1.00508e-12
-1.00552e-12
-1.00578e-12
-1.00683e-12
-1.00739e-12
-1.00865e-12
-1.01032e-12
-1.01149e-12
-1.01132e-12
-1.0131e-12
-1.01438e-12
-1.01473e-12
-1.01615e-12
-1.01666e-12
-1.01682e-12
-1.01746e-12
-1.01685e-12
-1.01811e-12
-1.01957e-12
-1.01981e-12
-1.0214e-12
-1.02173e-12
-1.02155e-12
-1.02205e-12
-1.02524e-12
-1.02752e-12
-1.02755e-12
-1.03019e-12
-1.03365e-12
-1.03586e-12
-1.03891e-12
-1.0392e-12
-1.03955e-12
-1.04133e-12
-1.04351e-12
-1.04668e-12
-1.04762e-12
-1.04992e-12
-1.05166e-12
-1.05158e-12
-1.05278e-12
-1.05476e-12
-1.05672e-12
-1.05835e-12
-1.05878e-12
-1.05864e-12
-1.05926e-12
-1.06045e-12
-1.06073e-12
-1.06067e-12
-1.06318e-12
-1.0641e-12
-1.0634e-12
-1.06368e-12
-1.06392e-12
-1.06438e-12
-1.06583e-12
-1.06471e-12
-1.06238e-12
-1.06069e-12
-1.05872e-12
-1.05646e-12
-1.05621e-12
-1.05436e-12
-1.05308e-12
-1.05138e-12
-1.04907e-12
-1.04832e-12
-1.04779e-12
-1.04642e-12
-1.04437e-12
-1.04417e-12
-1.04291e-12
-1.04356e-12
-1.04083e-12
-1.03826e-12
-1.03898e-12
-1.03844e-12
-1.03777e-12
-1.03669e-12
-1.03592e-12
-1.03715e-12
-1.03572e-12
-1.03315e-12
-1.03314e-12
-1.03239e-12
-1.02929e-12
-1.02485e-12
-1.02295e-12
-1.02078e-12
-1.0186e-12
-1.01831e-12
-1.015e-12
-1.01435e-12
-1.01332e-12
-1.01191e-12
-1.0097e-12
-1.006e-12
-1.00491e-12
-1.00493e-12
-1.00457e-12
-1.00401e-12
-1.00248e-12
-1.00233e-12
-1.00159e-12
-1.00187e-12
-1.00195e-12
-1.0013e-12
-9.99706e-13
-9.99333e-13
-9.97415e-13
-9.95594e-13
-9.95151e-13
-9.93087e-13
-9.92407e-13
-9.89392e-13
-9.85135e-13
-9.83189e-13
-9.81224e-13
-9.78131e-13
-9.7473e-13
-9.71544e-13
-9.67913e-13
-9.66657e-13
-9.64807e-13
-9.62362e-13
-9.58993e-13
-9.5809e-13
-9.59821e-13
-9.5815e-13
-9.56451e-13
-9.57859e-13
-9.55912e-13
-9.52274e-13
-9.50236e-13
-9.48818e-13
-9.47343e-13
-9.43827e-13
-9.39881e-13
-9.38902e-13
-9.35912e-13
-9.30865e-13
-9.27072e-13
-9.25965e-13
-9.21322e-13
-9.1855e-13
-9.16196e-13
-9.14441e-13
-9.13828e-13
-9.10669e-13
-9.05443e-13
-9.02844e-13
-9.00748e-13
-9.003e-13
-8.99576e-13
-9.00613e-13
-8.96791e-13
-8.94738e-13
-8.91645e-13
-8.88942e-13
-8.87262e-13
-8.84442e-13
-8.80855e-13
-8.77145e-13
-8.74229e-13
-8.71344e-13
-8.69459e-13
-8.64308e-13
-8.56932e-13
-8.52642e-13
-8.51103e-13
-8.46109e-13
-8.40748e-13
-8.34215e-13
-8.30673e-13
-8.29416e-13
-8.2319e-13
-8.19857e-13
-8.16546e-13
-8.11238e-13
-8.0888e-13
-8.03659e-13
-7.98855e-13
-7.93864e-13
-7.90585e-13
-7.89664e-13
-7.83254e-13
-7.76693e-13
-7.73845e-13
-7.68491e-13
-7.61385e-13
-7.55382e-13
-7.50606e-13
-7.46447e-13
-7.38956e-13
-7.34548e-13
-7.269e-13
-7.20927e-13
-7.14316e-13
-7.05781e-13
-6.97782e-13
-6.91604e-13
-6.85762e-13
-6.76743e-13
-6.67167e-13
-6.58204e-13
-6.48298e-13
-6.40233e-13
-6.30425e-13
-6.18762e-13
-6.06758e-13
-5.93239e-13
-5.80297e-13
-5.66799e-13
-5.52215e-13
-5.38226e-13
-5.20257e-13
-5.01094e-13
-4.83056e-13
-4.64648e-13
-4.46575e-13
-4.62637e-13
-4.73062e-13
-4.9152e-13
-5.12845e-13
-5.34414e-13
-5.57099e-13
-5.80179e-13
-6.00485e-13
-6.20003e-13
-6.37576e-13
-6.53834e-13
-6.71487e-13
-6.89789e-13
-7.03162e-13
-7.13776e-13
-7.25576e-13
-7.37692e-13
-7.49624e-13
-7.60739e-13
-7.69164e-13
-7.79984e-13
-7.89038e-13
-7.96301e-13
-8.05213e-13
-8.13249e-13
-8.20564e-13
-8.28261e-13
-8.34929e-13
-8.41858e-13
-8.49704e-13
-8.58464e-13
-8.64823e-13
-8.69066e-13
-8.74343e-13
-8.79141e-13
-8.83174e-13
-8.87684e-13
-8.91672e-13
-8.96346e-13
-9.00383e-13
-9.04407e-13
-9.10239e-13
-9.13372e-13
-9.13592e-13
-9.17525e-13
-9.22847e-13
-9.2434e-13
-9.26576e-13
-9.29948e-13
-9.34497e-13
-9.37704e-13
-9.41059e-13
-9.43713e-13
-9.45485e-13
-9.48851e-13
-9.54574e-13
-9.57079e-13
-9.57933e-13
-9.60784e-13
-9.61958e-13
-9.64812e-13
-9.64301e-13
-9.66413e-13
-9.70183e-13
-9.71966e-13
-9.722e-13
-9.73354e-13
-9.73977e-13
-9.75094e-13
-9.74015e-13
-9.73182e-13
-9.75663e-13
-9.76014e-13
-9.76323e-13
-9.76078e-13
-9.75241e-13
-9.75794e-13
-9.75422e-13
-9.75842e-13
-9.77821e-13
-9.77937e-13
-9.79602e-13
-9.81208e-13
-9.87159e-13
-9.91075e-13
-9.91443e-13
-9.92381e-13
-9.94148e-13
-9.96283e-13
-9.94832e-13
-9.96556e-13
-9.99504e-13
-1.00051e-12
-1.00136e-12
-1.0022e-12
-1.00327e-12
-1.00301e-12
-1.00352e-12
-1.00392e-12
-1.00447e-12
-1.00519e-12
-1.00509e-12
-1.00743e-12
-1.00811e-12
-1.00901e-12
-1.01009e-12
-1.01084e-12
-1.01086e-12
-1.01466e-12
-1.01516e-12
-1.01417e-12
-1.01646e-12
-1.01552e-12
-1.01652e-12
-1.0182e-12
-1.01761e-12
-1.01813e-12
-1.01872e-12
-1.01899e-12
-1.02119e-12
-1.02172e-12
-1.02108e-12
-1.02177e-12
-1.02456e-12
-1.02676e-12
-1.0275e-12
-1.03123e-12
-1.03397e-12
-1.03588e-12
-1.03932e-12
-1.03903e-12
-1.0397e-12
-1.04083e-12
-1.0434e-12
-1.04708e-12
-1.04762e-12
-1.0503e-12
-1.05191e-12
-1.05164e-12
-1.05277e-12
-1.0549e-12
-1.05594e-12
-1.05798e-12
-1.05896e-12
-1.05933e-12
-1.05914e-12
-1.05954e-12
-1.06091e-12
-1.06141e-12
-1.06316e-12
-1.06396e-12
-1.06382e-12
-1.06464e-12
-1.06445e-12
-1.06427e-12
-1.06621e-12
-1.06563e-12
-1.0625e-12
-1.06048e-12
-1.05703e-12
-1.05705e-12
-1.05695e-12
-1.05392e-12
-1.05332e-12
-1.05183e-12
-1.05003e-12
-1.04707e-12
-1.04674e-12
-1.04611e-12
-1.04352e-12
-1.04453e-12
-1.04301e-12
-1.04315e-12
-1.04122e-12
-1.03793e-12
-1.03917e-12
-1.03842e-12
-1.03777e-12
-1.03746e-12
-1.03495e-12
-1.03715e-12
-1.03696e-12
-1.03331e-12
-1.03322e-12
-1.03213e-12
-1.03033e-12
-1.02495e-12
-1.02095e-12
-1.01991e-12
-1.01916e-12
-1.01883e-12
-1.01468e-12
-1.01403e-12
-1.01369e-12
-1.01175e-12
-1.00992e-12
-1.00649e-12
-1.0058e-12
-1.00496e-12
-1.00401e-12
-1.00368e-12
-1.00206e-12
-1.00236e-12
-1.00195e-12
-1.00125e-12
-1.00252e-12
-1.00119e-12
-1.00023e-12
-1.0001e-12
-9.97112e-13
-9.96182e-13
-9.94356e-13
-9.92609e-13
-9.93045e-13
-9.89539e-13
-9.85822e-13
-9.83783e-13
-9.81402e-13
-9.78213e-13
-9.74237e-13
-9.70187e-13
-9.67383e-13
-9.66923e-13
-9.65398e-13
-9.63099e-13
-9.58738e-13
-9.57619e-13
-9.59708e-13
-9.58219e-13
-9.56686e-13
-9.57994e-13
-9.55712e-13
-9.53165e-13
-9.50415e-13
-9.48796e-13
-9.48109e-13
-9.44287e-13
-9.39312e-13
-9.37304e-13
-9.37094e-13
-9.32137e-13
-9.27032e-13
-9.24446e-13
-9.201e-13
-9.19126e-13
-9.16181e-13
-9.13754e-13
-9.1355e-13
-9.10407e-13
-9.06278e-13
-9.02138e-13
-9.00822e-13
-9.01762e-13
-9.00346e-13
-9.00647e-13
-8.96255e-13
-8.94982e-13
-8.91891e-13
-8.8842e-13
-8.88393e-13
-8.8544e-13
-8.80837e-13
-8.76713e-13
-8.74835e-13
-8.72521e-13
-8.69442e-13
-8.64506e-13
-8.57873e-13
-8.52313e-13
-8.50687e-13
-8.46789e-13
-8.40782e-13
-8.33902e-13
-8.31033e-13
-8.29357e-13
-8.23744e-13
-8.20238e-13
-8.16857e-13
-8.11839e-13
-8.08376e-13
-8.04572e-13
-7.98383e-13
-7.9355e-13
-7.90442e-13
-7.9001e-13
-7.84017e-13
-7.77213e-13
-7.74773e-13
-7.68304e-13
-7.61391e-13
-7.56178e-13
-7.50391e-13
-7.462e-13
-7.39017e-13
-7.35283e-13
-7.30095e-13
-7.20906e-13
-7.13401e-13
-7.0656e-13
-6.98298e-13
-6.92687e-13
-6.85055e-13
-6.77507e-13
-6.69913e-13
-6.5868e-13
-6.49879e-13
-6.41042e-13
-6.31735e-13
-6.21334e-13
-6.08261e-13
-5.95299e-13
-5.83177e-13
-5.70095e-13
-5.56415e-13
-5.42847e-13
-5.27881e-13
-5.0992e-13
-4.93887e-13
-4.79689e-13
-4.66234e-13
-4.81729e-13
-4.89337e-13
-5.05462e-13
-5.23473e-13
-5.43209e-13
-5.63775e-13
-5.85468e-13
-6.05423e-13
-6.23232e-13
-6.40181e-13
-6.5657e-13
-6.72816e-13
-6.91503e-13
-7.04736e-13
-7.16314e-13
-7.27034e-13