/*--------------------------------*- C++ -*----------------------------------*\
| =========                 |                                                 |
| \\      /  F ield         | OpenFOAM: The Open Source CFD Toolbox           |
|  \\    /   O peration     | Version:  2112                                  |
|   \\  /    A nd           | Website:  www.openfoam.com                      |
|    \\/     M anipulation  |                                                 |
\*---------------------------------------------------------------------------*/
FoamFile
{
    version     2.0;
    format      ascii;
    arch        "LSB;label=32;scalar=64";
    class       volScalarField;
    location    "6";
    object      p;
}
// * * * * * * * * * * * * * * * * * * * * * * * * * * * * * * * * * * * * * //

dimensions      [0 2 -2 0 0 0 0];

internalField   nonuniform List<scalar> 
25600
(
-5.82509e-15
-1.6578e-14
-2.41142e-14
-2.88437e-14
-3.22083e-14
-3.46292e-14
-3.63904e-14
-3.80482e-14
-3.94078e-14
-4.05307e-14
-4.1492e-14
-4.23403e-14
-4.34585e-14
-4.43999e-14
-4.50616e-14
-4.58154e-14
-4.64086e-14
-4.68018e-14
-4.73788e-14
-4.80569e-14
-4.86052e-14
-4.88347e-14
-4.90347e-14
-4.91232e-14
-4.92889e-14
-4.96863e-14
-5.01015e-14
-5.00999e-14
-5.01625e-14
-5.04718e-14
-5.08891e-14
-5.09979e-14
-5.07541e-14
-5.0473e-14
-5.02691e-14
-5.00503e-14
-5.0112e-14
-4.99011e-14
-4.9814e-14
-5.01847e-14
-4.99775e-14
-4.98741e-14
-4.96151e-14
-4.94595e-14
-4.96368e-14
-4.94737e-14
-4.93358e-14
-4.93471e-14
-4.92459e-14
-4.92363e-14
-4.8871e-14
-4.9082e-14
-4.91386e-14
-4.925e-14
-4.95328e-14
-4.93092e-14
-4.96496e-14
-4.98523e-14
-5.00651e-14
-5.04703e-14
-5.03109e-14
-5.08997e-14
-5.08672e-14
-5.09245e-14
-5.12194e-14
-5.0805e-14
-5.12351e-14
-5.13571e-14
-5.14984e-14
-5.17935e-14
-5.15823e-14
-5.16923e-14
-5.18682e-14
-5.21663e-14
-5.27773e-14
-5.24069e-14
-5.24289e-14
-5.31615e-14
-5.33759e-14
-5.37206e-14
-5.35303e-14
-5.33867e-14
-5.42817e-14
-5.47166e-14
-5.49647e-14
-5.48163e-14
-5.47724e-14
-5.50575e-14
-5.55238e-14
-5.58643e-14
-5.51929e-14
-5.47454e-14
-5.49839e-14
-5.52703e-14
-5.49846e-14
-5.44591e-14
-5.4714e-14
-5.47556e-14
-5.52192e-14
-5.51188e-14
-5.45138e-14
-5.48342e-14
-5.45231e-14
-5.46862e-14
-5.46943e-14
-5.43122e-14
-5.39613e-14
-5.44092e-14
-5.48743e-14
-5.46832e-14
-5.4577e-14
-5.35911e-14
-5.44602e-14
-5.5122e-14
-5.43856e-14
-5.38231e-14
-5.33239e-14
-5.38613e-14
-5.45219e-14
-5.41951e-14
-5.34795e-14
-5.30855e-14
-5.37012e-14
-5.46542e-14
-5.41822e-14
-5.33036e-14
-5.28363e-14
-5.39775e-14
-5.48216e-14
-5.42007e-14
-5.36587e-14
-5.33948e-14
-5.41678e-14
-5.45078e-14
-5.37817e-14
-5.339e-14
-5.27835e-14
-5.29707e-14
-5.32318e-14
-5.2317e-14
-5.15127e-14
-5.09683e-14
-5.11932e-14
-5.12833e-14
-5.07264e-14
-5.03802e-14
-4.97776e-14
-4.99571e-14
-4.98641e-14
-4.9549e-14
-4.96112e-14
-4.84497e-14
-4.82918e-14
-4.90883e-14
-4.91996e-14
-4.90283e-14
-4.82133e-14
-4.82733e-14
-4.91427e-14
-4.94092e-14
-4.9747e-14
-4.86561e-14
-4.90647e-14
-4.97492e-14
-4.87141e-14
-4.91847e-14
-4.8867e-14
-4.8726e-14
-4.94798e-14
-4.92211e-14
-4.89928e-14
-4.82662e-14
-4.87304e-14
-4.90497e-14
-4.8742e-14
-4.87376e-14
-4.85387e-14
-4.94454e-14
-4.85945e-14
-4.84665e-14
-4.89219e-14
-4.73936e-14
-4.79023e-14
-4.83803e-14
-4.79554e-14
-4.86254e-14
-4.74549e-14
-4.78977e-14
-4.85231e-14
-4.73975e-14
-4.80253e-14
-4.79008e-14
-4.76951e-14
-4.85239e-14
-4.76349e-14
-4.75846e-14
-4.72248e-14
-4.7559e-14
-4.84573e-14
-4.70951e-14
-4.71658e-14
-4.69637e-14
-4.76906e-14
-4.84544e-14
-4.67861e-14
-4.62278e-14
-4.64786e-14
-4.73817e-14
-4.73908e-14
-4.62871e-14
-4.59908e-14
-4.62715e-14
-4.82133e-14
-4.7016e-14
-4.58523e-14
-4.83435e-14
-4.75242e-14
-4.71339e-14
-4.74654e-14
-4.76098e-14
-5.01505e-14
-4.92576e-14
-4.80068e-14
-4.83211e-14
-4.8576e-14
-5.12555e-14
-5.03715e-14
-4.96044e-14
-5.01727e-14
-4.95042e-14
-5.09605e-14
-5.00004e-14
-5.00476e-14
-5.06406e-14
-4.96316e-14
-5.11984e-14
-5.13016e-14
-5.15245e-14
-5.18112e-14
-5.07967e-14
-5.26926e-14
-5.22628e-14
-5.26941e-14
-5.35424e-14
-5.21227e-14
-5.42852e-14
-5.53049e-14
-5.57735e-14
-5.56246e-14
-5.47944e-14
-5.70019e-14
-5.64186e-14
-5.58774e-14
-5.63676e-14
-5.61047e-14
-5.8665e-14
-5.7669e-14
-5.744e-14
-5.81999e-14
-5.6901e-14
-5.87463e-14
-5.86779e-14
-5.86195e-14
-5.89363e-14
-5.8245e-14
-5.98609e-14
-5.92032e-14
-5.8676e-14
-5.8467e-14
-5.76305e-14
-5.9207e-14
-5.88667e-14
-5.86661e-14
-5.83215e-14
-5.71502e-14
-5.82282e-14
-5.74293e-14
-5.65462e-14
-5.67766e-14
-5.50691e-14
-5.54213e-14
-5.50415e-14
-5.41161e-14
-5.35221e-14
-5.19009e-14
-5.2635e-14
-5.27939e-14
-5.16207e-14
-5.05342e-14
-5.03233e-14
-5.17333e-14
-5.10948e-14
-4.99485e-14
-4.94662e-14
-4.95434e-14
-5.05161e-14
-4.96587e-14
-4.88974e-14
-4.81623e-14
-4.82195e-14
-4.90516e-14
-4.80572e-14
-4.72568e-14
-4.55123e-14
-4.50287e-14
-4.58918e-14
-4.51922e-14
-4.49673e-14
-4.31822e-14
-4.27707e-14
-4.21494e-14
-4.02896e-14
-4.03015e-14
-3.82087e-14
-3.63468e-14
-3.53446e-14
-3.22602e-14
-2.97113e-14
-2.45126e-14
-1.64642e-14
-1.30583e-14
-1.88594e-14
-2.49636e-14
-2.91549e-14
-3.2377e-14
-3.47566e-14
-3.64844e-14
-3.81073e-14
-3.94625e-14
-4.05913e-14
-4.15149e-14
-4.23846e-14
-4.34718e-14
-4.43697e-14
-4.50687e-14
-4.57498e-14
-4.63778e-14
-4.68113e-14
-4.74365e-14
-4.80462e-14
-4.85608e-14
-4.88062e-14
-4.90245e-14
-4.91475e-14
-4.93548e-14
-4.96773e-14
-4.99387e-14
-5.00758e-14
-5.02222e-14
-5.05229e-14
-5.08677e-14
-5.09554e-14
-5.07715e-14
-5.05309e-14
-5.02931e-14
-5.00385e-14
-5.00889e-14
-4.99694e-14
-4.98508e-14
-5.01229e-14
-5.00317e-14
-4.98453e-14
-4.96328e-14
-4.95281e-14
-4.9541e-14
-4.95282e-14
-4.9316e-14
-4.93227e-14
-4.92316e-14
-4.92699e-14
-4.89943e-14
-4.89215e-14
-4.91083e-14
-4.91991e-14
-4.93885e-14
-4.94077e-14
-4.96772e-14
-4.98401e-14
-5.00291e-14
-5.03941e-14
-5.04723e-14
-5.09007e-14
-5.08434e-14
-5.09507e-14
-5.11855e-14
-5.08107e-14
-5.1308e-14
-5.13963e-14
-5.14504e-14
-5.17258e-14
-5.16001e-14
-5.17481e-14
-5.18864e-14
-5.22093e-14
-5.2669e-14
-5.24915e-14
-5.25581e-14
-5.30591e-14
-5.33749e-14
-5.36106e-14
-5.36061e-14
-5.35993e-14
-5.42739e-14
-5.46456e-14
-5.4823e-14
-5.48273e-14
-5.50876e-14
-5.52093e-14
-5.5304e-14
-5.55894e-14
-5.52954e-14
-5.5056e-14
-5.49815e-14
-5.4985e-14
-5.5015e-14
-5.47418e-14
-5.47856e-14
-5.47239e-14
-5.48976e-14
-5.49933e-14
-5.49114e-14
-5.48204e-14
-5.45519e-14
-5.44864e-14
-5.46193e-14
-5.44274e-14
-5.40789e-14
-5.42707e-14
-5.47259e-14
-5.47888e-14
-5.45347e-14
-5.39492e-14
-5.43132e-14
-5.47383e-14
-5.43696e-14
-5.4e-14
-5.35301e-14
-5.37118e-14
-5.43077e-14
-5.42226e-14
-5.35622e-14
-5.33098e-14
-5.36802e-14
-5.43734e-14
-5.40989e-14
-5.34569e-14
-5.3013e-14
-5.39558e-14
-5.45301e-14
-5.41363e-14
-5.3801e-14
-5.3537e-14
-5.40592e-14
-5.43921e-14
-5.38767e-14
-5.33985e-14
-5.28363e-14
-5.29527e-14
-5.31723e-14
-5.23669e-14
-5.14789e-14
-5.0957e-14
-5.11563e-14
-5.12054e-14
-5.07495e-14
-5.02937e-14
-4.99494e-14
-5.01384e-14
-4.9871e-14
-4.9334e-14
-4.93672e-14
-4.87416e-14
-4.86051e-14
-4.89747e-14
-4.89975e-14
-4.88543e-14
-4.83098e-14
-4.84646e-14
-4.9045e-14
-4.93196e-14
-4.95408e-14
-4.88891e-14
-4.92179e-14
-4.95483e-14
-4.89423e-14
-4.89922e-14
-4.901e-14
-4.90024e-14
-4.91995e-14
-4.91488e-14
-4.88138e-14
-4.85269e-14
-4.87628e-14
-4.90986e-14
-4.89812e-14
-4.85459e-14
-4.8574e-14
-4.90411e-14
-4.87108e-14
-4.88378e-14
-4.8475e-14
-4.75659e-14
-4.79297e-14
-4.84079e-14
-4.80846e-14
-4.81301e-14
-4.76496e-14
-4.78859e-14
-4.83168e-14
-4.78484e-14
-4.78167e-14
-4.79418e-14
-4.79052e-14
-4.80406e-14
-4.78259e-14
-4.76683e-14
-4.74822e-14
-4.74516e-14
-4.77591e-14
-4.75233e-14
-4.72279e-14
-4.72165e-14
-4.7592e-14
-4.77287e-14
-4.71017e-14
-4.67363e-14
-4.66687e-14
-4.69442e-14
-4.67877e-14
-4.65599e-14
-4.66698e-14
-4.6441e-14
-4.74184e-14
-4.69892e-14
-4.6575e-14
-4.7634e-14
-4.7181e-14
-4.77534e-14
-4.79377e-14
-4.77897e-14
-4.93249e-14
-4.88929e-14
-4.85597e-14
-4.87377e-14
-4.87537e-14
-5.04914e-14
-5.02831e-14
-4.98129e-14
-5.01531e-14
-4.98895e-14
-5.06899e-14
-5.00684e-14
-5.01875e-14
-5.04683e-14
-4.99679e-14
-5.08274e-14
-5.11171e-14
-5.18052e-14
-5.18979e-14
-5.11412e-14
-5.23044e-14
-5.21962e-14
-5.27745e-14
-5.34205e-14
-5.26522e-14
-5.43934e-14
-5.4972e-14
-5.54394e-14
-5.57067e-14
-5.5275e-14
-5.67626e-14
-5.63921e-14
-5.58667e-14
-5.62145e-14
-5.65817e-14
-5.84463e-14
-5.75704e-14
-5.73545e-14
-5.80289e-14
-5.73625e-14
-5.85696e-14
-5.84403e-14
-5.86925e-14
-5.89223e-14
-5.8609e-14
-5.961e-14
-5.8826e-14
-5.88178e-14
-5.86809e-14
-5.78794e-14
-5.90325e-14
-5.86878e-14
-5.87512e-14
-5.84152e-14
-5.72461e-14
-5.80888e-14
-5.72876e-14
-5.68584e-14
-5.66381e-14
-5.50115e-14
-5.54022e-14
-5.47579e-14
-5.43591e-14
-5.36542e-14
-5.20777e-14
-5.27692e-14
-5.23861e-14
-5.14259e-14
-5.08808e-14
-5.0602e-14
-5.15058e-14
-5.08053e-14
-4.99673e-14
-4.9974e-14
-4.95238e-14
-4.99851e-14
-4.9858e-14
-4.87099e-14
-4.86977e-14
-4.82678e-14
-4.8526e-14
-4.81552e-14
-4.70718e-14
-4.58478e-14
-4.54433e-14
-4.59687e-14
-4.50514e-14
-4.44373e-14
-4.3439e-14
-4.2819e-14
-4.22392e-14
-4.04893e-14
-3.9883e-14
-3.85334e-14
-3.66248e-14
-3.5088e-14
-3.24867e-14
-2.99265e-14
-2.54585e-14
-1.89595e-14
-1.83995e-14
-2.16358e-14
-2.61285e-14
-2.97658e-14
-3.27234e-14
-3.5021e-14
-3.66103e-14
-3.82499e-14
-3.95374e-14
-4.06794e-14
-4.15667e-14
-4.24298e-14
-4.35138e-14
-4.43143e-14
-4.50835e-14
-4.57899e-14
-4.63789e-14
-4.68196e-14
-4.74236e-14
-4.80601e-14
-4.85598e-14
-4.87501e-14
-4.91077e-14
-4.91743e-14
-4.93545e-14
-4.96439e-14
-4.98513e-14
-5.00563e-14
-5.02209e-14
-5.0608e-14
-5.08739e-14
-5.09184e-14
-5.07782e-14
-5.05645e-14
-5.03564e-14
-5.01185e-14
-5.00566e-14
-4.99701e-14
-4.99129e-14
-5.00624e-14
-5.00952e-14
-4.98193e-14
-4.95893e-14
-4.95422e-14
-4.95825e-14
-4.95582e-14
-4.927e-14
-4.92624e-14
-4.91991e-14
-4.93386e-14
-4.90045e-14
-4.87789e-14
-4.90399e-14
-4.91733e-14
-4.93512e-14
-4.94755e-14
-4.97021e-14
-4.98103e-14
-5.00331e-14
-5.04296e-14
-5.05424e-14
-5.08317e-14
-5.091e-14
-5.09547e-14
-5.10842e-14
-5.08901e-14
-5.13328e-14
-5.1388e-14
-5.1449e-14
-5.16628e-14
-5.15946e-14
-5.17658e-14
-5.19222e-14
-5.22218e-14
-5.26056e-14
-5.25728e-14
-5.26777e-14
-5.29626e-14
-5.33748e-14
-5.35372e-14
-5.36436e-14
-5.36935e-14
-5.42462e-14
-5.46695e-14
-5.47624e-14
-5.48508e-14
-5.51974e-14
-5.53505e-14
-5.51873e-14
-5.54252e-14
-5.53883e-14
-5.52052e-14
-5.49562e-14
-5.48876e-14
-5.50298e-14
-5.48403e-14
-5.48816e-14
-5.46714e-14
-5.47955e-14
-5.49199e-14
-5.50445e-14
-5.4795e-14
-5.46105e-14
-5.44652e-14
-5.4562e-14
-5.44774e-14
-5.41616e-14
-5.42013e-14
-5.46237e-14
-5.48103e-14
-5.45118e-14
-5.41753e-14
-5.41633e-14
-5.44249e-14
-5.43244e-14
-5.40912e-14
-5.37265e-14
-5.36483e-14
-5.40616e-14
-5.42545e-14
-5.37013e-14
-5.3502e-14
-5.3614e-14
-5.40547e-14
-5.40018e-14
-5.35326e-14
-5.33059e-14
-5.39448e-14
-5.42213e-14
-5.39545e-14
-5.38393e-14
-5.38068e-14
-5.39829e-14
-5.4216e-14
-5.39518e-14
-5.3424e-14
-5.29009e-14
-5.29603e-14
-5.30884e-14
-5.23714e-14
-5.14848e-14
-5.10269e-14
-5.10594e-14
-5.11051e-14
-5.07027e-14
-5.03847e-14
-5.00293e-14
-5.00803e-14
-4.98829e-14
-4.92789e-14
-4.92098e-14
-4.89303e-14
-4.88146e-14
-4.89049e-14
-4.88898e-14
-4.86588e-14
-4.83474e-14
-4.86376e-14
-4.89853e-14
-4.92772e-14
-4.9422e-14
-4.90864e-14
-4.93679e-14
-4.94368e-14
-4.90531e-14
-4.89568e-14
-4.90498e-14
-4.92105e-14
-4.90187e-14
-4.89817e-14
-4.88717e-14
-4.86704e-14
-4.87301e-14
-4.90685e-14
-4.90144e-14
-4.86895e-14
-4.86644e-14
-4.8649e-14
-4.87024e-14
-4.89709e-14
-4.83447e-14
-4.7759e-14
-4.79464e-14
-4.83109e-14
-4.81038e-14
-4.78322e-14
-4.77923e-14
-4.78724e-14
-4.81553e-14
-4.80588e-14
-4.77417e-14
-4.7993e-14
-4.80442e-14
-4.78176e-14
-4.78451e-14
-4.77247e-14
-4.76454e-14
-4.73417e-14
-4.74303e-14
-4.77375e-14
-4.73157e-14
-4.73292e-14
-4.75607e-14
-4.74262e-14
-4.71575e-14
-4.70189e-14
-4.67467e-14
-4.67813e-14
-4.65423e-14
-4.66228e-14
-4.70428e-14
-4.65703e-14
-4.68886e-14
-4.69777e-14
-4.69943e-14
-4.7222e-14
-4.70999e-14
-4.80962e-14
-4.82431e-14
-4.79621e-14
-4.88095e-14
-4.86797e-14
-4.88737e-14
-4.89967e-14
-4.88373e-14
-4.99908e-14
-5.01735e-14
-5.00115e-14
-5.02281e-14
-5.01163e-14
-5.04972e-14
-5.00623e-14
-5.01911e-14
-5.03769e-14
-5.02895e-14
-5.07571e-14
-5.10222e-14
-5.17835e-14
-5.1803e-14
-5.13898e-14
-5.2227e-14
-5.21924e-14
-5.26974e-14
-5.33028e-14
-5.31361e-14
-5.44974e-14
-5.47164e-14
-5.52404e-14
-5.5848e-14
-5.56607e-14
-5.63528e-14
-5.63398e-14
-5.60588e-14
-5.62854e-14
-5.68874e-14
-5.80142e-14
-5.74876e-14
-5.74139e-14
-5.79912e-14
-5.7542e-14
-5.82076e-14
-5.82775e-14
-5.89621e-14
-5.90496e-14
-5.88433e-14
-5.92504e-14
-5.86351e-14
-5.88647e-14
-5.88166e-14
-5.81072e-14
-5.89291e-14
-5.86337e-14
-5.87044e-14
-5.84987e-14
-5.73821e-14
-5.79706e-14
-5.72304e-14
-5.69469e-14
-5.65685e-14
-5.50591e-14
-5.52907e-14
-5.46252e-14
-5.44628e-14
-5.38183e-14
-5.22617e-14
-5.27383e-14
-5.2179e-14
-5.13327e-14
-5.11864e-14
-5.07756e-14
-5.12587e-14
-5.07148e-14
-5.01722e-14
-5.01163e-14
-4.93786e-14
-4.97159e-14
-4.98692e-14
-4.87875e-14
-4.89174e-14
-4.83055e-14
-4.82014e-14
-4.8061e-14
-4.70429e-14
-4.62135e-14
-4.5859e-14
-4.59985e-14
-4.4891e-14
-4.41042e-14
-4.37224e-14
-4.28229e-14
-4.23723e-14
-4.05926e-14
-3.9576e-14
-3.89068e-14
-3.6837e-14
-3.51763e-14
-3.28701e-14
-3.03557e-14
-2.67128e-14
-2.19246e-14
-2.27335e-14
-2.4242e-14
-2.74852e-14
-3.05001e-14
-3.32919e-14
-3.54144e-14
-3.68614e-14
-3.84001e-14
-3.96693e-14
-4.07962e-14
-4.1704e-14
-4.2464e-14
-4.35235e-14
-4.42899e-14
-4.50825e-14
-4.59016e-14
-4.63622e-14
-4.68484e-14
-4.74099e-14
-4.81134e-14
-4.86317e-14
-4.87581e-14
-4.91774e-14
-4.91584e-14
-4.93342e-14
-4.96541e-14
-4.98549e-14
-5.00873e-14
-5.02105e-14
-5.06877e-14
-5.08867e-14
-5.0879e-14
-5.07748e-14
-5.05664e-14
-5.03575e-14
-5.02682e-14
-5.00334e-14
-4.98355e-14
-4.99935e-14
-5.02103e-14
-5.00257e-14
-4.96976e-14
-4.96977e-14
-4.95079e-14
-4.96914e-14
-4.95125e-14
-4.92156e-14
-4.92504e-14
-4.91428e-14
-4.9413e-14
-4.8934e-14
-4.86876e-14
-4.89341e-14
-4.91594e-14
-4.941e-14
-4.94898e-14
-4.9761e-14
-4.9732e-14
-5.0088e-14
-5.03852e-14
-5.05731e-14
-5.08102e-14
-5.09958e-14
-5.10082e-14
-5.11264e-14
-5.09336e-14
-5.11955e-14
-5.13464e-14
-5.14794e-14
-5.16506e-14
-5.16655e-14
-5.17803e-14
-5.19575e-14
-5.2218e-14
-5.25964e-14
-5.26588e-14
-5.26155e-14
-5.30233e-14
-5.33742e-14
-5.34685e-14
-5.37484e-14
-5.37243e-14
-5.42e-14
-5.46496e-14
-5.4895e-14
-5.49445e-14
-5.50572e-14
-5.53434e-14
-5.53225e-14
-5.54861e-14
-5.54337e-14
-5.51867e-14
-5.4916e-14
-5.49871e-14
-5.50664e-14
-5.48313e-14
-5.47724e-14
-5.45323e-14
-5.49073e-14
-5.4967e-14
-5.49428e-14
-5.48312e-14
-5.4642e-14
-5.44885e-14
-5.45012e-14
-5.43892e-14
-5.4311e-14
-5.42977e-14
-5.44392e-14
-5.46313e-14
-5.46362e-14
-5.43169e-14
-5.39586e-14
-5.43533e-14
-5.41929e-14
-5.40525e-14
-5.39528e-14
-5.3769e-14
-5.38002e-14
-5.40656e-14
-5.38953e-14
-5.36719e-14
-5.34141e-14
-5.38462e-14
-5.40108e-14
-5.34355e-14
-5.34855e-14
-5.38958e-14
-5.41159e-14
-5.39012e-14
-5.38382e-14
-5.39358e-14
-5.39161e-14
-5.40894e-14
-5.39278e-14
-5.35841e-14
-5.30216e-14
-5.29412e-14
-5.29214e-14
-5.22491e-14
-5.16544e-14
-5.11956e-14
-5.07718e-14
-5.08741e-14
-5.07232e-14
-5.05774e-14
-5.01943e-14
-4.99885e-14
-4.97692e-14
-4.93143e-14
-4.91949e-14
-4.9047e-14
-4.87208e-14
-4.88179e-14
-4.89472e-14
-4.85371e-14
-4.83576e-14
-4.87532e-14
-4.88398e-14
-4.92326e-14
-4.9422e-14
-4.93375e-14
-4.95283e-14
-4.93085e-14
-4.90838e-14
-4.90398e-14
-4.90886e-14
-4.9206e-14
-4.914e-14
-4.89692e-14
-4.88794e-14
-4.85587e-14
-4.88415e-14
-4.89305e-14
-4.88222e-14
-4.89497e-14
-4.8743e-14
-4.86106e-14
-4.86139e-14
-4.88875e-14
-4.84865e-14
-4.78786e-14
-4.78957e-14
-4.82007e-14
-4.80995e-14
-4.77231e-14
-4.7855e-14
-4.78841e-14
-4.81395e-14
-4.79677e-14
-4.77906e-14
-4.79963e-14
-4.81439e-14
-4.76935e-14
-4.77241e-14
-4.77794e-14
-4.75985e-14
-4.73122e-14
-4.75142e-14
-4.77301e-14
-4.73206e-14
-4.73393e-14
-4.75163e-14
-4.7414e-14
-4.72122e-14
-4.70672e-14
-4.6796e-14
-4.6815e-14
-4.65096e-14
-4.65424e-14
-4.69625e-14
-4.66777e-14
-4.67325e-14
-4.69888e-14
-4.71219e-14
-4.71437e-14
-4.72621e-14
-4.80262e-14
-4.82671e-14
-4.81378e-14
-4.8683e-14
-4.87255e-14
-4.88796e-14
-4.90705e-14
-4.88985e-14
-4.97016e-14
-5.01892e-14
-5.04064e-14
-5.03572e-14
-4.97866e-14
-5.00774e-14
-5.01323e-14
-5.02317e-14
-5.05072e-14
-5.07246e-14
-5.09349e-14
-5.08473e-14
-5.12409e-14
-5.17768e-14
-5.17451e-14
-5.1997e-14
-5.22621e-14
-5.28599e-14
-5.32314e-14
-5.33487e-14
-5.43376e-14
-5.46602e-14
-5.5332e-14
-5.60184e-14
-5.58709e-14
-5.61009e-14
-5.62686e-14
-5.60491e-14
-5.64471e-14
-5.72308e-14
-5.75262e-14
-5.74516e-14
-5.74374e-14
-5.80543e-14
-5.76449e-14
-5.78439e-14
-5.82969e-14
-5.91501e-14
-5.90153e-14
-5.88153e-14
-5.9058e-14
-5.88092e-14
-5.87119e-14
-5.8729e-14
-5.84431e-14
-5.89533e-14
-5.86323e-14
-5.85575e-14
-5.83837e-14
-5.77903e-14
-5.77221e-14
-5.72245e-14
-5.69612e-14
-5.6424e-14
-5.5493e-14
-5.49812e-14
-5.46177e-14
-5.44842e-14
-5.3769e-14
-5.27049e-14
-5.2332e-14
-5.21201e-14
-5.16696e-14
-5.13389e-14
-5.08623e-14
-5.08581e-14
-5.06623e-14
-5.05444e-14
-5.02281e-14
-4.92928e-14
-4.93041e-14
-4.97447e-14
-4.9094e-14
-4.90646e-14
-4.83451e-14
-4.7895e-14
-4.81286e-14
-4.71786e-14
-4.61538e-14
-4.60545e-14
-4.57655e-14
-4.49407e-14
-4.43745e-14
-4.38453e-14
-4.28778e-14
-4.2233e-14
-4.06219e-14
-3.96777e-14
-3.90463e-14
-3.73052e-14
-3.56054e-14
-3.32855e-14
-3.08964e-14
-2.80711e-14
-2.49152e-14
-2.59174e-14
-2.66151e-14
-2.90018e-14
-3.1334e-14
-3.38075e-14
-3.59622e-14
-3.71397e-14
-3.86399e-14
-3.98843e-14
-4.10239e-14
-4.16486e-14
-4.25375e-14
-4.35118e-14
-4.43431e-14
-4.52102e-14
-4.59377e-14
-4.64323e-14
-4.68252e-14
-4.74778e-14
-4.80362e-14
-4.86663e-14
-4.89218e-14
-4.91133e-14
-4.91998e-14
-4.93315e-14
-4.96516e-14
-4.98105e-14
-5.01259e-14
-5.0318e-14
-5.06356e-14
-5.08867e-14
-5.08925e-14
-5.08792e-14
-5.06526e-14
-5.03789e-14
-5.03026e-14
-4.99898e-14
-4.97692e-14
-5.01317e-14
-5.01909e-14
-4.99073e-14
-4.96037e-14
-4.97827e-14
-4.95307e-14
-4.96241e-14
-4.95305e-14
-4.9231e-14
-4.9164e-14
-4.92946e-14
-4.93549e-14
-4.89067e-14
-4.86911e-14
-4.88645e-14
-4.91407e-14
-4.94658e-14
-4.9427e-14
-4.9759e-14
-4.98283e-14
-5.01159e-14
-5.03085e-14
-5.05253e-14
-5.07057e-14
-5.10148e-14
-5.10165e-14
-5.12589e-14
-5.11209e-14
-5.08809e-14
-5.13136e-14
-5.15784e-14
-5.17521e-14
-5.17307e-14
-5.17043e-14
-5.19613e-14
-5.22615e-14
-5.27145e-14
-5.27871e-14
-5.24397e-14
-5.31683e-14
-5.33835e-14
-5.33421e-14
-5.37764e-14
-5.37185e-14
-5.43344e-14
-5.47035e-14
-5.49266e-14
-5.50544e-14
-5.50286e-14
-5.521e-14
-5.54182e-14
-5.56671e-14
-5.54726e-14
-5.53029e-14
-5.48729e-14
-5.49513e-14
-5.50099e-14
-5.48123e-14
-5.46886e-14
-5.45491e-14
-5.50343e-14
-5.50598e-14
-5.48672e-14
-5.48789e-14
-5.46698e-14
-5.45283e-14
-5.43939e-14
-5.42147e-14
-5.44437e-14
-5.43712e-14
-5.43671e-14
-5.44987e-14
-5.46675e-14
-5.43386e-14
-5.39806e-14
-5.41994e-14
-5.41979e-14
-5.40265e-14
-5.41129e-14
-5.38873e-14
-5.3665e-14
-5.39307e-14
-5.40036e-14
-5.38433e-14
-5.3297e-14
-5.36113e-14
-5.38887e-14
-5.35281e-14
-5.33844e-14
-5.37629e-14
-5.4086e-14
-5.40521e-14
-5.3919e-14
-5.37791e-14
-5.38392e-14
-5.40782e-14
-5.397e-14
-5.36539e-14
-5.3178e-14
-5.30039e-14
-5.27035e-14
-5.21965e-14
-5.1668e-14
-5.14486e-14
-5.07417e-14
-5.06282e-14
-5.0732e-14
-5.06793e-14
-5.03535e-14
-4.98596e-14
-4.97032e-14
-4.92359e-14
-4.92083e-14
-4.91662e-14
-4.87167e-14
-4.87363e-14
-4.87319e-14
-4.86502e-14
-4.85589e-14
-4.87019e-14
-4.87216e-14
-4.90026e-14
-4.94325e-14
-4.97054e-14
-4.95374e-14
-4.92188e-14
-4.91789e-14
-4.90706e-14
-4.91734e-14
-4.92036e-14
-4.92821e-14
-4.91142e-14
-4.87573e-14
-4.85775e-14
-4.89366e-14
-4.866e-14
-4.8724e-14
-4.90458e-14
-4.87281e-14
-4.87253e-14
-4.86869e-14
-4.87192e-14
-4.8502e-14
-4.80409e-14
-4.78045e-14
-4.80603e-14
-4.81641e-14
-4.77183e-14
-4.77869e-14
-4.77693e-14
-4.81072e-14
-4.79485e-14
-4.7871e-14
-4.80254e-14
-4.80349e-14
-4.76282e-14
-4.75375e-14
-4.79128e-14
-4.75025e-14
-4.72943e-14
-4.76847e-14
-4.77269e-14
-4.73204e-14
-4.74409e-14
-4.74492e-14
-4.74138e-14
-4.72349e-14
-4.71406e-14
-4.67504e-14
-4.67549e-14
-4.66979e-14
-4.6423e-14
-4.68883e-14
-4.67212e-14
-4.66902e-14
-4.70103e-14
-4.71494e-14
-4.71962e-14
-4.72781e-14
-4.78185e-14
-4.84274e-14
-4.83575e-14
-4.86738e-14
-4.86636e-14
-4.87893e-14
-4.91301e-14
-4.91679e-14
-4.9597e-14
-5.01242e-14
-5.06953e-14
-5.02166e-14
-4.95113e-14
-4.9896e-14
-5.01295e-14
-5.02916e-14
-5.07378e-14
-5.10056e-14
-5.11413e-14
-5.07343e-14
-5.06827e-14
-5.17093e-14
-5.19959e-14
-5.19e-14
-5.24815e-14
-5.29571e-14
-5.3148e-14
-5.35435e-14
-5.42286e-14
-5.46675e-14
-5.53958e-14
-5.6008e-14
-5.61627e-14
-5.60149e-14
-5.61226e-14
-5.61024e-14
-5.6558e-14
-5.72593e-14
-5.72883e-14
-5.75928e-14
-5.74146e-14
-5.77892e-14
-5.78154e-14
-5.80863e-14
-5.83695e-14
-5.88159e-14
-5.89564e-14
-5.88423e-14
-5.9023e-14
-5.89407e-14
-5.85245e-14
-5.87046e-14
-5.88734e-14
-5.87457e-14
-5.86404e-14
-5.83483e-14
-5.83574e-14
-5.81885e-14
-5.7441e-14
-5.74067e-14
-5.69309e-14
-5.62393e-14
-5.57851e-14
-5.48904e-14
-5.46761e-14
-5.429e-14
-5.36222e-14
-5.30709e-14
-5.2083e-14
-5.2104e-14
-5.19463e-14
-5.15378e-14
-5.0901e-14
-5.06322e-14
-5.07242e-14
-5.05934e-14
-5.01825e-14
-4.93354e-14
-4.89921e-14
-4.95181e-14
-4.94498e-14
-4.9154e-14
-4.83414e-14
-4.78111e-14
-4.81305e-14
-4.72969e-14
-4.61357e-14
-4.61647e-14
-4.55745e-14
-4.49999e-14
-4.46177e-14
-4.38937e-14
-4.30711e-14
-4.20518e-14
-4.08347e-14
-3.9926e-14
-3.8899e-14
-3.78985e-14
-3.62059e-14
-3.39444e-14
-3.16177e-14
-2.92843e-14
-2.73207e-14
-2.84623e-14
-2.87298e-14
-3.03352e-14
-3.2339e-14
-3.44587e-14
-3.65355e-14
-3.75277e-14
-3.89081e-14
-4.01172e-14
-4.12322e-14
-4.18292e-14
-4.27342e-14
-4.35313e-14
-4.43726e-14
-4.52937e-14
-4.59675e-14
-4.63361e-14
-4.67075e-14
-4.74841e-14
-4.80213e-14
-4.87283e-14
-4.91647e-14
-4.92277e-14
-4.92227e-14
-4.92649e-14
-4.95945e-14
-4.97282e-14
-5.01535e-14
-5.0484e-14
-5.06351e-14
-5.09148e-14
-5.09229e-14
-5.09976e-14
-5.07472e-14
-5.03874e-14
-5.02133e-14
-4.99334e-14
-4.98723e-14
-5.01128e-14
-5.00394e-14
-4.98583e-14
-4.98296e-14
-4.98269e-14
-4.9618e-14
-4.95286e-14
-4.93908e-14
-4.92644e-14
-4.9266e-14
-4.91739e-14
-4.9277e-14
-4.90287e-14
-4.86051e-14
-4.89187e-14
-4.90679e-14
-4.94138e-14
-4.9422e-14
-4.96933e-14
-4.98314e-14
-5.0133e-14
-5.0349e-14
-5.04872e-14
-5.07275e-14
-5.10896e-14
-5.10563e-14
-5.12566e-14
-5.11144e-14
-5.08513e-14
-5.13316e-14
-5.16916e-14
-5.17973e-14
-5.15932e-14
-5.17248e-14
-5.20287e-14
-5.2292e-14
-5.28725e-14
-5.28096e-14
-5.24629e-14
-5.31174e-14
-5.32218e-14
-5.33217e-14
-5.37675e-14
-5.37949e-14
-5.44206e-14
-5.46514e-14
-5.49591e-14
-5.50183e-14
-5.51217e-14
-5.52745e-14
-5.55629e-14
-5.58164e-14
-5.54907e-14
-5.53591e-14
-5.4831e-14
-5.50437e-14
-5.50287e-14
-5.46769e-14
-5.46392e-14
-5.44213e-14
-5.50716e-14
-5.50956e-14
-5.48056e-14
-5.49272e-14
-5.46783e-14
-5.46964e-14
-5.44425e-14
-5.40591e-14
-5.44118e-14
-5.43905e-14
-5.43835e-14
-5.44818e-14
-5.46803e-14
-5.43594e-14
-5.39095e-14
-5.40145e-14
-5.42468e-14
-5.41507e-14
-5.41523e-14
-5.38844e-14
-5.36267e-14
-5.39178e-14
-5.41482e-14
-5.38703e-14
-5.31244e-14
-5.34194e-14
-5.3624e-14
-5.34943e-14
-5.35152e-14
-5.36402e-14
-5.40945e-14
-5.40909e-14
-5.38243e-14
-5.38855e-14
-5.37893e-14
-5.40238e-14
-5.41735e-14
-5.36436e-14
-5.32307e-14
-5.30117e-14
-5.26802e-14
-5.21075e-14
-5.17116e-14
-5.13982e-14
-5.09266e-14
-5.0596e-14
-5.08666e-14
-5.07401e-14
-5.02455e-14
-4.98053e-14
-4.97971e-14
-4.91513e-14
-4.89537e-14
-4.91037e-14
-4.88523e-14
-4.87055e-14
-4.87588e-14
-4.86795e-14
-4.85204e-14
-4.86584e-14
-4.86783e-14
-4.88726e-14
-4.96887e-14
-4.97087e-14
-4.94433e-14
-4.92682e-14
-4.94489e-14
-4.92691e-14
-4.88431e-14
-4.91206e-14
-4.9465e-14
-4.91375e-14
-4.88947e-14
-4.85741e-14
-4.88146e-14
-4.88318e-14
-4.88429e-14
-4.89919e-14
-4.86645e-14
-4.86718e-14
-4.86703e-14
-4.84475e-14
-4.86455e-14
-4.82004e-14
-4.78754e-14
-4.80835e-14
-4.79568e-14
-4.76625e-14
-4.77307e-14
-4.77723e-14
-4.80788e-14
-4.79995e-14
-4.79078e-14
-4.78764e-14
-4.78707e-14
-4.76094e-14
-4.75188e-14
-4.78155e-14
-4.77497e-14
-4.7486e-14
-4.76853e-14
-4.78273e-14
-4.74254e-14
-4.74113e-14
-4.75104e-14
-4.73786e-14
-4.71745e-14
-4.7155e-14
-4.6805e-14
-4.66073e-14
-4.66579e-14
-4.63234e-14
-4.70595e-14
-4.66633e-14
-4.65384e-14
-4.70426e-14
-4.70075e-14
-4.71299e-14
-4.73662e-14
-4.79731e-14
-4.8551e-14
-4.84384e-14
-4.85865e-14
-4.88028e-14
-4.87882e-14
-4.91981e-14
-4.94746e-14
-4.9365e-14
-4.99854e-14
-5.08552e-14
-5.02406e-14
-4.95986e-14
-4.96882e-14
-5.00743e-14
-5.04385e-14
-5.06831e-14
-5.11626e-14
-5.11099e-14
-5.06721e-14
-5.05137e-14
-5.15704e-14
-5.22333e-14
-5.21552e-14
-5.25437e-14
-5.27723e-14
-5.30217e-14
-5.37189e-14
-5.43113e-14
-5.46685e-14
-5.52644e-14
-5.60965e-14
-5.62591e-14
-5.59008e-14
-5.62328e-14
-5.63656e-14
-5.66932e-14
-5.71005e-14
-5.71e-14
-5.75206e-14
-5.73891e-14
-5.77137e-14
-5.79941e-14
-5.8279e-14
-5.82894e-14
-5.85623e-14
-5.90788e-14
-5.89498e-14
-5.88919e-14
-5.87089e-14
-5.87235e-14
-5.87675e-14
-5.88498e-14
-5.87233e-14
-5.85762e-14
-5.84289e-14
-5.83639e-14
-5.81384e-14
-5.75608e-14
-5.74369e-14
-5.6953e-14
-5.62388e-14
-5.58385e-14
-5.49204e-14
-5.45982e-14
-5.42215e-14
-5.35191e-14
-5.32316e-14
-5.21202e-14
-5.20516e-14
-5.22151e-14
-5.15124e-14
-5.08127e-14
-5.06912e-14
-5.06323e-14
-5.03693e-14
-4.99817e-14
-4.94955e-14
-4.90659e-14
-4.94032e-14
-4.95804e-14
-4.92115e-14
-4.83295e-14
-4.79095e-14
-4.7699e-14
-4.73615e-14
-4.65409e-14
-4.61456e-14
-4.55351e-14
-4.50629e-14
-4.48157e-14
-4.41602e-14
-4.29874e-14
-4.2115e-14
-4.09557e-14
-4.01158e-14
-3.91515e-14
-3.81524e-14
-3.68169e-14
-3.47933e-14
-3.22889e-14
-3.06502e-14
-2.93583e-14
-3.06027e-14
-3.05492e-14
-3.1639e-14
-3.34249e-14
-3.51836e-14
-3.6986e-14
-3.7998e-14
-3.92673e-14
-4.03702e-14
-4.12241e-14
-4.21608e-14
-4.28543e-14
-4.3667e-14
-4.44725e-14
-4.53231e-14
-4.60993e-14
-4.63172e-14
-4.65678e-14
-4.75132e-14
-4.81129e-14
-4.8876e-14
-4.93513e-14
-4.93466e-14
-4.9239e-14
-4.905e-14
-4.95619e-14
-4.97064e-14
-5.01535e-14
-5.05349e-14
-5.06984e-14
-5.1015e-14
-5.09432e-14
-5.10392e-14
-5.08197e-14
-5.04591e-14
-5.02152e-14
-4.99391e-14
-4.99149e-14
-5.00704e-14
-4.98712e-14
-4.98108e-14
-4.98297e-14
-4.99103e-14
-4.97907e-14
-4.94686e-14
-4.93316e-14
-4.91482e-14
-4.9382e-14
-4.90688e-14
-4.93419e-14
-4.89177e-14
-4.85193e-14
-4.9037e-14
-4.90341e-14
-4.94537e-14
-4.9385e-14
-4.97458e-14
-4.97662e-14
-5.00495e-14
-5.0303e-14
-5.03787e-14
-5.06907e-14
-5.13883e-14
-5.10246e-14
-5.11001e-14
-5.11399e-14
-5.10113e-14
-5.1389e-14
-5.16993e-14
-5.18037e-14
-5.16707e-14
-5.16773e-14
-5.20142e-14
-5.23877e-14
-5.29671e-14
-5.2927e-14
-5.24791e-14
-5.30379e-14
-5.31873e-14
-5.3147e-14
-5.38187e-14
-5.38491e-14
-5.45106e-14
-5.46649e-14
-5.50697e-14
-5.50041e-14
-5.51964e-14
-5.52794e-14
-5.57387e-14
-5.57647e-14
-5.55697e-14
-5.54255e-14
-5.48498e-14
-5.50195e-14
-5.49731e-14
-5.4604e-14
-5.45311e-14
-5.44103e-14
-5.50042e-14
-5.52349e-14
-5.48154e-14
-5.47551e-14
-5.47681e-14
-5.48841e-14
-5.45599e-14
-5.40467e-14
-5.4381e-14
-5.40596e-14
-5.46188e-14
-5.45832e-14
-5.45504e-14
-5.44537e-14
-5.37635e-14
-5.39588e-14
-5.43852e-14
-5.41933e-14
-5.41495e-14
-5.38944e-14
-5.33643e-14
-5.39383e-14
-5.42641e-14
-5.37988e-14
-5.31643e-14
-5.32032e-14
-5.33287e-14
-5.35152e-14
-5.37066e-14
-5.35203e-14
-5.39881e-14
-5.41179e-14
-5.37351e-14
-5.39226e-14
-5.37804e-14
-5.39282e-14
-5.43183e-14
-5.3721e-14
-5.32841e-14
-5.30532e-14
-5.25864e-14
-5.21092e-14
-5.1703e-14
-5.13116e-14
-5.11112e-14
-5.05635e-14
-5.08622e-14
-5.09108e-14
-5.03026e-14
-4.9702e-14
-4.96611e-14
-4.92711e-14
-4.87744e-14
-4.89896e-14
-4.90265e-14
-4.87158e-14
-4.88507e-14
-4.86591e-14
-4.82876e-14
-4.85198e-14
-4.87936e-14
-4.88531e-14
-4.98185e-14
-4.98477e-14
-4.93738e-14
-4.93219e-14
-4.96742e-14
-4.94697e-14
-4.87125e-14
-4.9084e-14
-4.94345e-14
-4.91863e-14
-4.9008e-14
-4.83561e-14
-4.86891e-14
-4.90133e-14
-4.90794e-14
-4.89118e-14
-4.86757e-14
-4.8592e-14
-4.88064e-14
-4.83176e-14
-4.85499e-14
-4.82167e-14
-4.79567e-14
-4.80516e-14
-4.7853e-14
-4.78067e-14
-4.76405e-14
-4.76388e-14
-4.78748e-14
-4.80232e-14
-4.81746e-14
-4.77077e-14
-4.76366e-14
-4.7672e-14
-4.74855e-14
-4.78981e-14
-4.79334e-14
-4.76788e-14
-4.77822e-14
-4.76944e-14
-4.76526e-14
-4.73705e-14
-4.7548e-14
-4.75978e-14
-4.70779e-14
-4.71366e-14
-4.66598e-14
-4.6363e-14
-4.6636e-14
-4.6387e-14
-4.72442e-14
-4.65846e-14
-4.62658e-14
-4.69788e-14
-4.70794e-14
-4.69608e-14
-4.74146e-14
-4.81811e-14
-4.86546e-14
-4.84807e-14
-4.85519e-14
-4.8928e-14
-4.88425e-14
-4.92441e-14
-4.97043e-14
-4.94093e-14
-4.98879e-14
-5.08131e-14
-5.00492e-14
-4.94615e-14
-4.97796e-14
-5.02321e-14
-5.04702e-14
-5.07062e-14
-5.1177e-14
-5.11415e-14
-5.06833e-14
-5.0534e-14
-5.13454e-14
-5.22376e-14
-5.26405e-14
-5.26048e-14
-5.25384e-14
-5.2907e-14
-5.39706e-14
-5.45171e-14
-5.45105e-14
-5.50549e-14
-5.61461e-14
-5.64243e-14
-5.58106e-14
-5.62657e-14
-5.67329e-14
-5.6952e-14
-5.66879e-14
-5.69796e-14
-5.74193e-14
-5.74204e-14
-5.76982e-14
-5.81443e-14
-5.83861e-14
-5.81978e-14
-5.84566e-14
-5.90847e-14
-5.90176e-14
-5.87237e-14
-5.84198e-14
-5.90963e-14
-5.87826e-14
-5.88095e-14
-5.86415e-14
-5.85407e-14
-5.85481e-14
-5.82406e-14
-5.80849e-14
-5.78803e-14
-5.75634e-14
-5.68314e-14
-5.62212e-14
-5.57499e-14
-5.50766e-14
-5.46973e-14
-5.40964e-14
-5.32984e-14
-5.32187e-14
-5.22865e-14
-5.20963e-14
-5.2221e-14
-5.16353e-14
-5.08721e-14
-5.07055e-14
-5.05698e-14
-5.00556e-14
-4.99032e-14
-4.96046e-14
-4.92312e-14
-4.9185e-14
-4.94994e-14
-4.91907e-14
-4.83901e-14
-4.8064e-14
-4.73006e-14
-4.73158e-14
-4.69735e-14
-4.60614e-14
-4.56331e-14
-4.52665e-14
-4.49532e-14
-4.43162e-14
-4.30481e-14
-4.22366e-14
-4.11489e-14
-4.03181e-14
-3.93998e-14
-3.83554e-14
-3.75142e-14
-3.55533e-14
-3.30763e-14
-3.21414e-14
-3.11831e-14
-3.23836e-14
-3.21412e-14
-3.29987e-14
-3.44442e-14
-3.59431e-14
-3.73133e-14
-3.85604e-14
-3.98555e-14
-4.05622e-14
-4.12543e-14
-4.26866e-14
-4.29186e-14
-4.34007e-14
-4.47262e-14
-4.54431e-14
-4.61799e-14
-4.62933e-14
-4.6562e-14