/*--------------------------------*- C++ -*----------------------------------*\
| =========                 |                                                 |
| \\      /  F ield         | OpenFOAM: The Open Source CFD Toolbox           |
|  \\    /   O peration     | Version:  2112                                  |
|   \\  /    A nd           | Website:  www.openfoam.com                      |
|    \\/     M anipulation  |                                                 |
\*---------------------------------------------------------------------------*/
FoamFile
{
    version     2.0;
    format      ascii;
    arch        "LSB;label=32;scalar=64";
    class       volScalarField;
    location    "6";
    object      p;
}
// * * * * * * * * * * * * * * * * * * * * * * * * * * * * * * * * * * * * * //

dimensions      [0 2 -2 0 0 0 0];

internalField   nonuniform List<scalar> 
50000
(
3.50255e-14
6.85833e-14
7.86018e-14
8.35016e-14
8.70403e-14
9.00379e-14
9.27766e-14
9.5268e-14
9.7402e-14
9.94113e-14
1.01295e-13
1.02963e-13
1.04484e-13
1.05899e-13
1.07324e-13
1.08748e-13
1.10139e-13
1.11336e-13
1.1241e-13
1.13373e-13
1.14435e-13
1.15505e-13
1.16497e-13
1.17649e-13
1.1879e-13
1.19778e-13
1.20624e-13
1.21478e-13
1.22477e-13
1.23288e-13
1.24068e-13
1.24979e-13
1.25909e-13
1.26795e-13
1.27748e-13
1.28545e-13
1.29432e-13
1.30202e-13
1.31039e-13
1.31898e-13
1.32632e-13
1.33523e-13
1.34206e-13
1.34953e-13
1.3577e-13
1.36378e-13
1.37196e-13
1.38256e-13
1.39025e-13
1.39779e-13
1.40832e-13
1.42015e-13
1.43175e-13
1.44049e-13
1.44976e-13
1.46143e-13
1.4697e-13
1.48003e-13
1.4906e-13
1.49814e-13
1.50669e-13
1.51467e-13
1.52151e-13
1.52795e-13
1.53623e-13
1.54293e-13
1.55065e-13
1.5568e-13
1.56225e-13
1.57112e-13
1.57833e-13
1.58447e-13
1.59151e-13
1.60128e-13
1.60926e-13
1.61374e-13
1.62306e-13
1.63415e-13
1.64138e-13
1.64837e-13
1.6579e-13
1.66738e-13
1.67418e-13
1.68279e-13
1.6918e-13
1.69739e-13
1.70577e-13
1.71416e-13
1.72191e-13
1.72858e-13
1.73476e-13
1.74215e-13
1.74959e-13
1.75828e-13
1.76817e-13
1.77958e-13
1.78486e-13
1.79127e-13
1.80429e-13
1.81466e-13
1.82208e-13
1.83216e-13
1.84307e-13
1.85316e-13
1.86187e-13
1.87224e-13
1.88185e-13
1.88969e-13
1.89655e-13
1.90551e-13
1.91863e-13
1.93029e-13
1.938e-13
1.94606e-13
1.95832e-13
1.97083e-13
1.97959e-13
1.98683e-13
1.9974e-13
2.00949e-13
2.01982e-13
2.0274e-13
2.03423e-13
2.04486e-13
2.05456e-13
2.0593e-13
2.06789e-13
2.07757e-13
2.08317e-13
2.09059e-13
2.0991e-13
2.10872e-13
2.11644e-13
2.12935e-13
2.13796e-13
2.14153e-13
2.1493e-13
2.15893e-13
2.1635e-13
2.17173e-13
2.1834e-13
2.18883e-13
2.19066e-13
2.19628e-13
2.20898e-13
2.21531e-13
2.21963e-13
2.23275e-13
2.23998e-13
2.24212e-13
2.25283e-13
2.25963e-13
2.26517e-13
2.2797e-13
2.28642e-13
2.29171e-13
2.30202e-13
2.30603e-13
2.31118e-13
2.31521e-13
2.32421e-13
2.33295e-13
2.33906e-13
2.3453e-13
2.35264e-13
2.35959e-13
2.36573e-13
2.37695e-13
2.37744e-13
2.38307e-13
2.39523e-13
2.39681e-13
2.40248e-13
2.41499e-13
2.42206e-13
2.42709e-13
2.43319e-13
2.44452e-13
2.45337e-13
2.45693e-13
2.46853e-13
2.4784e-13
2.48559e-13
2.49564e-13
2.50104e-13
2.51347e-13
2.52559e-13
2.53087e-13
2.53862e-13
2.54693e-13
2.55504e-13
2.5612e-13
2.56515e-13
2.56662e-13
2.57481e-13
2.58415e-13
2.59003e-13
2.60083e-13
2.61274e-13
2.6163e-13
2.61953e-13
2.6295e-13
2.62953e-13
2.63536e-13
2.64214e-13
2.64952e-13
2.6633e-13
2.66819e-13
2.66964e-13
2.67589e-13
2.68079e-13
2.68657e-13
2.69258e-13
2.69087e-13
2.69713e-13
2.69792e-13
2.70092e-13
2.70279e-13
2.70112e-13
2.70404e-13
2.71049e-13
2.71411e-13
2.71392e-13
2.7175e-13
2.71698e-13
2.71825e-13
2.71842e-13
2.71727e-13
2.71819e-13
2.72404e-13
2.7286e-13
2.73302e-13
2.73146e-13
2.73175e-13
2.73629e-13
2.73259e-13
2.7331e-13
2.73527e-13
2.74043e-13
2.74241e-13
2.74587e-13
2.75057e-13
2.75008e-13
2.74979e-13
2.75831e-13
2.7616e-13
2.76049e-13
2.76685e-13
2.76746e-13
2.76952e-13
2.77206e-13
2.7717e-13
2.76981e-13
2.77633e-13
2.77892e-13
2.77459e-13
2.77766e-13
2.7783e-13
2.77452e-13
2.77755e-13
2.77483e-13
2.77239e-13
2.78224e-13
2.78111e-13
2.78804e-13
2.7869e-13
2.77755e-13
2.78804e-13
2.78406e-13
2.77244e-13
2.78864e-13
2.79117e-13
2.78625e-13
2.79169e-13
2.78836e-13
2.79394e-13
2.79154e-13
2.78615e-13
2.78982e-13
2.79744e-13
2.79913e-13
2.79921e-13
2.79629e-13
2.79611e-13
2.80491e-13
2.79633e-13
2.80237e-13
2.80991e-13
2.80044e-13
2.80264e-13
2.81143e-13
2.80512e-13
2.80432e-13
2.80623e-13
2.79419e-13
2.80289e-13
2.81653e-13
2.80968e-13
2.81145e-13
2.814e-13
2.80367e-13
2.81155e-13
2.81029e-13
2.80152e-13
2.81802e-13
2.82395e-13
2.81558e-13
2.82428e-13
2.8245e-13
2.81426e-13
2.81971e-13
2.82764e-13
2.82011e-13
2.82195e-13
2.82837e-13
2.82572e-13
2.82994e-13
2.83095e-13
2.82878e-13
2.82572e-13
2.82971e-13
2.83812e-13
2.84329e-13
2.84094e-13
2.83584e-13
2.8435e-13
2.84526e-13
2.84169e-13
2.83513e-13
2.83852e-13
2.85318e-13
2.84635e-13
2.84142e-13
2.84885e-13
2.84008e-13
2.83895e-13
2.85117e-13
2.83855e-13
2.84074e-13
2.85279e-13
2.84726e-13
2.84814e-13
2.84948e-13
2.84266e-13
2.83751e-13
2.84092e-13
2.84361e-13
2.84632e-13
2.842e-13
2.83425e-13
2.83641e-13
2.83571e-13
2.82488e-13
2.81673e-13
2.8185e-13
2.81963e-13
2.82001e-13
2.81124e-13
2.7984e-13
2.79474e-13
2.78608e-13
2.78759e-13
2.77815e-13
2.76633e-13
2.77594e-13
2.77031e-13
2.7627e-13
2.75864e-13
2.75183e-13
2.7379e-13
2.7399e-13
2.7451e-13
2.73855e-13
2.72985e-13
2.7197e-13
2.71898e-13
2.71144e-13
2.70952e-13
2.6972e-13
2.69614e-13
2.69862e-13
2.69164e-13
2.68057e-13
2.67411e-13
2.67109e-13
2.65696e-13
2.65836e-13
2.64351e-13
2.6339e-13
2.63342e-13
2.62488e-13
2.61094e-13
2.60551e-13
2.59998e-13
2.57782e-13
2.57213e-13
2.57747e-13
2.57092e-13
2.55833e-13
2.54523e-13
2.5301e-13
2.51831e-13
2.52816e-13
2.51944e-13
2.50416e-13
2.4855e-13
2.48114e-13
2.49056e-13
2.47018e-13
2.44892e-13
2.44086e-13
2.44716e-13
2.42708e-13
2.41234e-13
2.40625e-13
2.39507e-13
2.39161e-13
2.37472e-13
2.35711e-13
2.3514e-13
2.35413e-13
2.33532e-13
2.30735e-13
2.30922e-13
2.30078e-13
2.28082e-13
2.26592e-13
2.25465e-13
2.24338e-13
2.23877e-13
2.22291e-13
2.19609e-13
2.19695e-13
2.19436e-13
2.16635e-13
2.13655e-13
2.13877e-13
2.12703e-13
2.11399e-13
2.10188e-13
2.07214e-13
2.07148e-13
2.05484e-13
2.03397e-13
2.00937e-13
1.99625e-13
1.9843e-13
1.95949e-13
1.94254e-13
1.91575e-13
1.90221e-13
1.88189e-13
1.86607e-13
1.83962e-13
1.82283e-13
1.80723e-13
1.78054e-13
1.76214e-13
1.74638e-13
1.74113e-13
1.70341e-13
1.6823e-13
1.66316e-13
1.64618e-13
1.63976e-13
1.60289e-13
1.5759e-13
1.56185e-13
1.54552e-13
1.51532e-13
1.49596e-13
1.47275e-13
1.45236e-13
1.43815e-13
1.40979e-13
1.39166e-13
1.37449e-13
1.36418e-13
1.33533e-13
1.30927e-13
1.29045e-13
1.27424e-13
1.25507e-13
1.22354e-13
1.21348e-13
1.18481e-13
1.16093e-13
1.13704e-13
1.10435e-13
1.09346e-13
1.07048e-13
1.03068e-13
9.9971e-14
9.82583e-14
9.47743e-14
9.15872e-14
8.76712e-14
8.30093e-14
7.84491e-14
6.79072e-14
5.69787e-14
7.15396e-14
7.91563e-14
8.37491e-14
8.72277e-14
9.01562e-14
9.28495e-14
9.5337e-14
9.74578e-14
9.94626e-14
1.01316e-13
1.02981e-13
1.04517e-13
1.05924e-13
1.0734e-13
1.08745e-13
1.10145e-13
1.11358e-13
1.12439e-13
1.13381e-13
1.14423e-13
1.15489e-13
1.16489e-13
1.17664e-13
1.18812e-13
1.19811e-13
1.20642e-13
1.21486e-13
1.22436e-13
1.23289e-13
1.24079e-13
1.24915e-13
1.25893e-13
1.26849e-13
1.27727e-13
1.2852e-13
1.29434e-13
1.30204e-13
1.31037e-13
1.31863e-13
1.32646e-13
1.33486e-13
1.34226e-13
1.35001e-13
1.35747e-13
1.36386e-13
1.37227e-13
1.38228e-13
1.39005e-13
1.39776e-13
1.40818e-13
1.42069e-13
1.43149e-13
1.44016e-13
1.45028e-13
1.46159e-13
1.46992e-13
1.47965e-13
1.49034e-13
1.49848e-13
1.50737e-13
1.51445e-13
1.52139e-13
1.52828e-13
1.53544e-13
1.54333e-13
1.55068e-13
1.5566e-13
1.56282e-13
1.57048e-13
1.57774e-13
1.58481e-13
1.59226e-13
1.6011e-13
1.60914e-13
1.61476e-13
1.62277e-13
1.63329e-13
1.64161e-13
1.64894e-13
1.65773e-13
1.66732e-13
1.67471e-13
1.68259e-13
1.69054e-13
1.6985e-13
1.70639e-13
1.71325e-13
1.72233e-13
1.7284e-13
1.7346e-13
1.74286e-13
1.74958e-13
1.75804e-13
1.76824e-13
1.77873e-13
1.78514e-13
1.79216e-13
1.80401e-13
1.81466e-13
1.82226e-13
1.83277e-13
1.84273e-13
1.8532e-13
1.86261e-13
1.87095e-13
1.88143e-13
1.89062e-13
1.89687e-13
1.90624e-13
1.91791e-13
1.92875e-13
1.93813e-13
1.94726e-13
1.95912e-13
1.97023e-13
1.97811e-13
1.98672e-13
1.99846e-13
2.0098e-13
2.02009e-13
2.02765e-13
2.03522e-13
2.04481e-13
2.05297e-13
2.05994e-13
2.06886e-13
2.07726e-13
2.08294e-13
2.09049e-13
2.09821e-13
2.10908e-13
2.11826e-13
2.12876e-13
2.13705e-13
2.14222e-13
2.14999e-13
2.15833e-13
2.16395e-13
2.17203e-13
2.18188e-13
2.18803e-13
2.19071e-13
2.1971e-13
2.20942e-13
2.21539e-13
2.22037e-13
2.2324e-13
2.23934e-13
2.24341e-13
2.25185e-13
2.25864e-13
2.26702e-13
2.27874e-13
2.28614e-13
2.29269e-13
2.30055e-13
2.30596e-13
2.31212e-13
2.31619e-13
2.32414e-13
2.33246e-13
2.33861e-13
2.34554e-13
2.35239e-13
2.35974e-13
2.36633e-13
2.37495e-13
2.37882e-13
2.38426e-13
2.39275e-13
2.39856e-13
2.40406e-13
2.41241e-13
2.42216e-13
2.42776e-13
2.43368e-13
2.44537e-13
2.45337e-13
2.45684e-13
2.46762e-13
2.47769e-13
2.48546e-13
2.49539e-13
2.50263e-13
2.51347e-13
2.5243e-13
2.53177e-13
2.53834e-13
2.54668e-13
2.55443e-13
2.56048e-13
2.56415e-13
2.56775e-13
2.57675e-13
2.58343e-13
2.5904e-13
2.60245e-13
2.6108e-13
2.61419e-13
2.62055e-13
2.62924e-13
2.63072e-13
2.63649e-13
2.64213e-13
2.64854e-13
2.6628e-13
2.66871e-13
2.67018e-13
2.67533e-13
2.68158e-13
2.68567e-13
2.69127e-13
2.69299e-13
2.69647e-13
2.69669e-13
2.70162e-13
2.70303e-13
2.70157e-13
2.70613e-13
2.71072e-13
2.71221e-13
2.71271e-13
2.71662e-13
2.71768e-13
2.71889e-13
2.71945e-13
2.71845e-13
2.71844e-13
2.72472e-13
2.72735e-13
2.73039e-13
2.73243e-13
2.73182e-13
2.73531e-13
2.73426e-13
2.7335e-13
2.73681e-13
2.73888e-13
2.74216e-13
2.7453e-13
2.74894e-13
2.75211e-13
2.75158e-13
2.75713e-13
2.76189e-13
2.76192e-13
2.76562e-13
2.7667e-13
2.76752e-13
2.77233e-13
2.77305e-13
2.77262e-13
2.77578e-13
2.77825e-13
2.77604e-13
2.77565e-13
2.77624e-13
2.77585e-13
2.778e-13
2.7753e-13
2.77358e-13
2.77928e-13
2.78204e-13
2.78826e-13
2.78729e-13
2.77865e-13
2.78479e-13
2.78446e-13
2.77707e-13
2.78565e-13
2.78935e-13
2.78693e-13
2.79053e-13
2.79137e-13
2.79094e-13
2.79144e-13
2.79007e-13
2.79069e-13
2.79453e-13
2.79768e-13
2.79974e-13
2.79639e-13
2.79611e-13
2.80444e-13
2.79923e-13
2.80081e-13
2.80852e-13
2.80194e-13
2.8042e-13
2.8103e-13
2.80491e-13
2.80401e-13
2.80529e-13
2.79773e-13
2.80443e-13
2.81165e-13
2.80967e-13
2.81221e-13
2.81215e-13
2.80706e-13
2.80853e-13
2.8106e-13
2.80613e-13
2.81505e-13
2.82237e-13
2.81873e-13
2.82178e-13
2.82227e-13
2.81844e-13
2.81985e-13
2.82435e-13
2.82116e-13
2.82185e-13
2.82713e-13
2.82856e-13
2.82838e-13
2.82884e-13
2.83045e-13
2.82776e-13
2.82999e-13
2.83801e-13
2.84e-13
2.83823e-13
2.83952e-13
2.84343e-13
2.84362e-13
2.8417e-13
2.83885e-13
2.84019e-13
2.84875e-13
2.84673e-13
2.84311e-13
2.84527e-13
2.84299e-13
2.84165e-13
2.8455e-13
2.8429e-13
2.84278e-13
2.84685e-13
2.84844e-13
2.85029e-13
2.84551e-13
2.844e-13
2.84277e-13
2.84004e-13
2.84229e-13
2.84467e-13
2.83942e-13
2.836e-13
2.83868e-13
2.83171e-13
2.8259e-13
2.82206e-13
2.81766e-13
2.81803e-13
2.81778e-13
2.80942e-13
2.8018e-13
2.79466e-13
2.7855e-13
2.78682e-13
2.77885e-13
2.76908e-13
2.77284e-13
2.76994e-13
2.76305e-13
2.75778e-13
2.75164e-13
2.74191e-13
2.74211e-13
2.74244e-13
2.73531e-13
2.72896e-13
2.72265e-13
2.71871e-13
2.71178e-13
2.70711e-13
2.69903e-13
2.69904e-13
2.69707e-13
2.68969e-13
2.68002e-13
2.67512e-13
2.67192e-13
2.65664e-13
2.65576e-13
2.64844e-13
2.63394e-13
2.62991e-13
2.62646e-13
2.61294e-13
2.60353e-13
2.59809e-13
2.58013e-13
2.5763e-13
2.57757e-13
2.56512e-13
2.55547e-13
2.54677e-13
2.53294e-13
2.52152e-13
2.52495e-13
2.51561e-13
2.50599e-13
2.49091e-13
2.47975e-13
2.48574e-13
2.47313e-13
2.45134e-13
2.44044e-13
2.44423e-13
2.42717e-13
2.41396e-13
2.40655e-13
2.39603e-13
2.38976e-13
2.37316e-13
2.361e-13
2.35303e-13
2.34899e-13
2.33378e-13
2.3132e-13
2.30655e-13
2.29774e-13
2.2838e-13
2.26605e-13
2.25522e-13
2.24482e-13
2.23694e-13
2.22202e-13
2.2006e-13
2.19401e-13
2.19144e-13
2.16989e-13
2.13967e-13
2.13629e-13
2.12685e-13
2.11339e-13
2.09919e-13
2.078e-13
2.06902e-13
2.05425e-13
2.03241e-13
2.0107e-13
1.99828e-13
1.98194e-13
1.9602e-13
1.94095e-13
1.91768e-13
1.90362e-13
1.88482e-13
1.86163e-13
1.84084e-13
1.82448e-13
1.80484e-13
1.78174e-13
1.76379e-13
1.74601e-13
1.73703e-13
1.70749e-13
1.67996e-13
1.66538e-13
1.65043e-13
1.63171e-13
1.60204e-13
1.58275e-13
1.5625e-13
1.53922e-13
1.51753e-13
1.4961e-13
1.4728e-13
1.45196e-13
1.43548e-13
1.41294e-13
1.39253e-13
1.3781e-13
1.3611e-13
1.33169e-13
1.31307e-13
1.29443e-13
1.27056e-13
1.25193e-13
1.22944e-13
1.21165e-13
1.18455e-13
1.16036e-13
1.13474e-13
1.11099e-13
1.09407e-13
1.06392e-13
1.03058e-13
1.00655e-13
9.80768e-14
9.47897e-14
9.16708e-14
8.78942e-14
8.35525e-14
7.87143e-14
7.08374e-14
6.71174e-14
7.46693e-14
8.04274e-14
8.43762e-14
8.76697e-14
9.04424e-14
9.30665e-14
9.55106e-14
9.76043e-14
9.95517e-14
1.01432e-13
1.0304e-13
1.04524e-13
1.0597e-13
1.0738e-13
1.08784e-13
1.10241e-13
1.11381e-13
1.12466e-13
1.13386e-13
1.14444e-13
1.15464e-13
1.16512e-13
1.1769e-13
1.18835e-13
1.19853e-13
1.20683e-13
1.21474e-13
1.22448e-13
1.23264e-13
1.24081e-13
1.24922e-13
1.25898e-13
1.26875e-13
1.2768e-13
1.28501e-13
1.29457e-13
1.30231e-13
1.31046e-13
1.31873e-13
1.32678e-13
1.33466e-13
1.34214e-13
1.35037e-13
1.35768e-13
1.36387e-13
1.37231e-13
1.38184e-13
1.39001e-13
1.39791e-13
1.40798e-13
1.42069e-13
1.43133e-13
1.44056e-13
1.45094e-13
1.46145e-13
1.46993e-13
1.47953e-13
1.48997e-13
1.4993e-13
1.50794e-13
1.51436e-13
1.52078e-13
1.52875e-13
1.53523e-13
1.54371e-13
1.55068e-13
1.55625e-13
1.56289e-13
1.57018e-13
1.57747e-13
1.58467e-13
1.59278e-13
1.60107e-13
1.60872e-13
1.61534e-13
1.62295e-13
1.633e-13
1.64173e-13
1.64895e-13
1.65787e-13
1.66773e-13
1.67473e-13
1.68233e-13
1.69001e-13
1.69919e-13
1.70614e-13
1.71328e-13
1.72288e-13
1.72792e-13
1.73418e-13
1.74357e-13
1.74982e-13
1.75809e-13
1.76831e-13
1.77797e-13
1.78507e-13
1.79293e-13
1.80376e-13
1.81418e-13
1.82272e-13
1.83289e-13
1.84341e-13
1.85309e-13
1.86232e-13
1.87047e-13
1.88138e-13
1.89088e-13
1.89707e-13
1.90697e-13
1.91746e-13
1.92771e-13
1.93757e-13
1.94907e-13
1.95927e-13
1.96874e-13
1.97725e-13
1.98716e-13
1.99879e-13
2.01006e-13
2.02032e-13
2.02834e-13
2.0361e-13
2.04467e-13
2.05254e-13
2.06062e-13
2.06878e-13
2.07735e-13
2.08328e-13
2.09027e-13
2.09791e-13
2.10902e-13
2.11918e-13
2.12851e-13
2.13666e-13
2.14269e-13
2.15017e-13
2.15779e-13
2.16393e-13
2.17268e-13
2.1806e-13
2.18726e-13
2.19132e-13
2.19785e-13
2.20936e-13
2.21518e-13
2.22131e-13
2.23276e-13
2.23811e-13
2.24386e-13
2.25135e-13
2.25813e-13
2.26864e-13
2.27827e-13
2.28563e-13
2.29317e-13
2.30024e-13
2.30619e-13
2.3123e-13
2.31637e-13
2.32418e-13
2.33204e-13
2.3394e-13
2.34581e-13
2.35176e-13
2.3596e-13
2.36664e-13
2.37429e-13
2.37913e-13
2.38497e-13
2.39205e-13
2.39883e-13
2.40435e-13
2.41197e-13
2.42155e-13
2.42795e-13
2.43477e-13
2.44601e-13
2.45303e-13
2.45746e-13
2.46713e-13
2.47709e-13
2.48461e-13
2.49476e-13
2.50469e-13
2.51372e-13
2.52262e-13
2.53252e-13
2.53876e-13
2.54592e-13
2.55408e-13
2.55944e-13
2.56369e-13
2.56844e-13
2.57713e-13
2.58408e-13
2.59123e-13
2.60164e-13
2.60973e-13
2.61362e-13
2.62069e-13
2.629e-13
2.63289e-13
2.63662e-13
2.6418e-13
2.64914e-13
2.66165e-13
2.66824e-13
2.6704e-13
2.67558e-13
2.68202e-13
2.68639e-13
2.69009e-13
2.69351e-13
2.69658e-13
2.69554e-13
2.70095e-13
2.70383e-13
2.70307e-13
2.70729e-13
2.70992e-13
2.71107e-13
2.71284e-13
2.71593e-13
2.71834e-13
2.71975e-13
2.71948e-13
2.71997e-13
2.71964e-13
2.72323e-13
2.72587e-13
2.72932e-13
2.73212e-13
2.7332e-13
2.73508e-13
2.73497e-13
2.73423e-13
2.73679e-13
2.73818e-13
2.7424e-13
2.74426e-13
2.7475e-13
2.75338e-13
2.75314e-13
2.75748e-13
2.76108e-13
2.76335e-13
2.76622e-13
2.76553e-13
2.76581e-13
2.77279e-13
2.77367e-13
2.77502e-13
2.77565e-13
2.77643e-13
2.77762e-13
2.77528e-13
2.77455e-13
2.77611e-13
2.77893e-13
2.77527e-13
2.77431e-13
2.77804e-13
2.78209e-13
2.78721e-13
2.78755e-13
2.78062e-13
2.78177e-13
2.78439e-13
2.78104e-13
2.78445e-13
2.7878e-13
2.78568e-13
2.79082e-13
2.79388e-13
2.78794e-13
2.79094e-13
2.79396e-13
2.79162e-13
2.79307e-13
2.79641e-13
2.79876e-13
2.79617e-13
2.79668e-13
2.80423e-13
2.80082e-13
2.80063e-13
2.80772e-13
2.80334e-13
2.80439e-13
2.81032e-13
2.80533e-13
2.802e-13
2.80508e-13
2.80176e-13
2.80465e-13
2.80903e-13
2.80928e-13
2.8114e-13
2.81213e-13
2.809e-13
2.80601e-13
2.81066e-13
2.81011e-13
2.81332e-13
2.82195e-13
2.81941e-13
2.81972e-13
2.82159e-13
2.82126e-13
2.81891e-13
2.82201e-13
2.8228e-13
2.8219e-13
2.82626e-13
2.82914e-13
2.82864e-13
2.82768e-13
2.83011e-13
2.82909e-13
2.83053e-13
2.83746e-13
2.83736e-13
2.83753e-13
2.84094e-13
2.84484e-13
2.84271e-13
2.84084e-13
2.84131e-13
2.84112e-13
2.8471e-13
2.84633e-13
2.84342e-13
2.84408e-13
2.84508e-13
2.84101e-13
2.84411e-13
2.84625e-13
2.84227e-13
2.84526e-13
2.84822e-13
2.84961e-13
2.84556e-13
2.84416e-13
2.84442e-13
2.84234e-13
2.84139e-13
2.84159e-13
2.83975e-13
2.83657e-13
2.83844e-13
2.83179e-13
2.82598e-13
2.8241e-13
2.81917e-13
2.81584e-13
2.81545e-13
2.8088e-13
2.80524e-13
2.79524e-13
2.78404e-13
2.78558e-13
2.77991e-13
2.77071e-13
2.77212e-13
2.7687e-13
2.76184e-13
2.75841e-13
2.75171e-13
2.74554e-13
2.74385e-13
2.73952e-13
2.73375e-13
2.72892e-13
2.72286e-13
2.71909e-13
2.71222e-13
2.70408e-13
2.70135e-13
2.70165e-13
2.69516e-13
2.68765e-13
2.68098e-13
2.67621e-13
2.67176e-13
2.65828e-13
2.65429e-13
2.64951e-13
2.63521e-13
2.62872e-13
2.6257e-13
2.61529e-13
2.60302e-13
2.59489e-13
2.58355e-13
2.57841e-13
2.57614e-13
2.56347e-13
2.55288e-13
2.54598e-13
2.53688e-13
2.5252e-13
2.52172e-13
2.51264e-13
2.5049e-13
2.49449e-13
2.48289e-13
2.48162e-13
2.4717e-13
2.45549e-13
2.44144e-13
2.44048e-13
2.42914e-13
2.41546e-13
2.40557e-13
2.39637e-13
2.38754e-13
2.37308e-13
2.36422e-13
2.35465e-13
2.34532e-13
2.3322e-13
2.31617e-13
2.30577e-13
2.29844e-13
2.28435e-13
2.26414e-13
2.25691e-13
2.246e-13
2.23401e-13
2.22356e-13
2.20419e-13
2.19213e-13
2.18834e-13
2.1712e-13
2.14395e-13
2.13651e-13
2.12774e-13
2.11094e-13
2.09676e-13
2.08254e-13
2.06731e-13
2.05244e-13
2.0322e-13
2.01204e-13
2.00059e-13
1.9814e-13
1.95944e-13
1.93874e-13
1.92109e-13
1.90534e-13
1.88347e-13
1.85992e-13
1.84149e-13
1.82523e-13
1.80609e-13
1.78289e-13
1.76303e-13
1.747e-13
1.73342e-13
1.70854e-13
1.68118e-13
1.66772e-13
1.65181e-13
1.62615e-13
1.60158e-13
1.58451e-13
1.56521e-13
1.53779e-13
1.51688e-13
1.49429e-13
1.47396e-13
1.45342e-13
1.43354e-13
1.41361e-13
1.39292e-13
1.38028e-13
1.35918e-13
1.33029e-13
1.3152e-13
1.29888e-13
1.26859e-13
1.24759e-13
1.23355e-13
1.21244e-13
1.18415e-13
1.15892e-13
1.1355e-13
1.11572e-13
1.09457e-13
1.06117e-13
1.03019e-13
1.00934e-13
9.83584e-14
9.50957e-14
9.16968e-14
8.85224e-14
8.45086e-14
7.97777e-14
7.39599e-14
7.30477e-14
7.77149e-14
8.19907e-14
8.53556e-14
8.82923e-14
9.09513e-14
9.33973e-14
9.57273e-14
9.78093e-14
9.96941e-14
1.01666e-13
1.03171e-13
1.04543e-13
1.0607e-13
1.07442e-13
1.08877e-13
1.1039e-13
1.11402e-13
1.12531e-13
1.13421e-13
1.1447e-13
1.1545e-13
1.16612e-13
1.17717e-13
1.18862e-13
1.1993e-13
1.20659e-13
1.21496e-13
1.22483e-13
1.23252e-13
1.24102e-13
1.24967e-13
1.25911e-13
1.26858e-13
1.27696e-13
1.28532e-13
1.29426e-13
1.302e-13
1.31017e-13
1.3189e-13
1.32716e-13
1.33477e-13
1.34201e-13
1.34991e-13
1.35794e-13
1.36352e-13
1.3727e-13
1.38177e-13
1.38972e-13
1.39818e-13
1.4078e-13
1.4207e-13
1.43169e-13
1.44014e-13
1.45153e-13
1.46128e-13
1.47123e-13
1.47965e-13
1.48946e-13
1.4995e-13
1.50829e-13
1.51531e-13
1.52093e-13
1.52871e-13
1.5354e-13
1.54392e-13
1.55034e-13
1.55646e-13
1.56303e-13
1.57011e-13
1.5768e-13
1.58503e-13
1.59335e-13
1.60065e-13
1.60903e-13
1.61566e-13
1.62337e-13
1.63271e-13
1.64167e-13
1.64874e-13
1.65822e-13
1.66749e-13
1.67475e-13
1.68275e-13
1.68999e-13
1.69889e-13
1.70619e-13
1.71409e-13
1.72278e-13
1.72778e-13
1.73401e-13
1.74418e-13
1.74982e-13
1.75792e-13
1.76832e-13
1.7766e-13
1.7852e-13
1.79368e-13
1.8038e-13
1.8133e-13
1.82318e-13
1.83337e-13
1.84372e-13
1.85256e-13
1.8618e-13
1.87026e-13
1.88099e-13
1.8903e-13
1.89759e-13
1.90749e-13
1.91756e-13
1.92797e-13
1.93689e-13
1.94964e-13
1.95894e-13
1.9667e-13
1.97677e-13
1.9879e-13
1.99961e-13
2.00951e-13
2.01992e-13
2.0289e-13
2.03701e-13
2.04532e-13
2.05272e-13
2.06067e-13
2.06812e-13
2.07784e-13
2.08408e-13
2.0898e-13
2.09866e-13
2.10918e-13
2.11867e-13
2.12832e-13
2.13626e-13
2.14337e-13
2.14957e-13
2.1575e-13
2.16426e-13
2.17324e-13
2.18073e-13
2.18595e-13
2.19226e-13
2.19914e-13
2.20787e-13
2.21486e-13
2.22234e-13
2.23248e-13
2.23663e-13
2.24399e-13
2.25187e-13
2.25883e-13
2.2689e-13
2.27823e-13
2.28559e-13
2.2932e-13
2.30076e-13
2.30553e-13
2.31207e-13
2.31708e-13
2.32401e-13
2.33221e-13
2.33974e-13
2.34496e-13
2.35154e-13
2.36012e-13
2.36662e-13
2.3741e-13
2.37993e-13
2.38564e-13
2.39242e-13
2.39798e-13
2.40403e-13
2.41291e-13
2.42043e-13
2.42718e-13
2.4361e-13
2.4454e-13
2.4524e-13
2.45823e-13
2.46655e-13
2.47769e-13
2.48432e-13
2.49378e-13
2.50534e-13
2.51424e-13
2.5225e-13
2.53333e-13
2.53925e-13
2.54511e-13
2.55327e-13
2.5586e-13
2.56368e-13
2.56955e-13
2.57659e-13
2.58491e-13
2.59227e-13
2.59993e-13
2.60947e-13
2.61484e-13
2.62045e-13
2.62826e-13
2.63448e-13
2.63703e-13
2.64223e-13
2.64989e-13
2.65936e-13
2.66699e-13
2.67097e-13
2.67624e-13
2.68244e-13
2.68762e-13
2.68986e-13
2.69356e-13
2.69596e-13
2.6956e-13
2.69971e-13
2.70529e-13
2.70539e-13
2.70653e-13
2.70865e-13
2.71104e-13
2.7135e-13
2.71543e-13
2.71964e-13
2.71914e-13
2.71957e-13
2.72178e-13
2.72002e-13
2.72089e-13
2.72542e-13
2.72974e-13
2.73095e-13
2.73395e-13
2.73478e-13
2.73576e-13
2.73598e-13
2.7349e-13
2.73785e-13
2.7432e-13
2.74264e-13
2.74694e-13
2.75296e-13
2.75479e-13
2.75901e-13
2.76006e-13
2.76407e-13
2.76679e-13
2.7652e-13
2.7666e-13
2.77258e-13
2.77306e-13
2.776e-13
2.776e-13
2.77451e-13
2.7786e-13
2.77621e-13
2.77287e-13
2.77585e-13
2.77862e-13
2.77607e-13
2.77543e-13
2.77752e-13
2.78241e-13
2.78532e-13
2.78599e-13
2.78254e-13
2.78207e-13
2.78387e-13
2.78257e-13
2.78355e-13
2.78597e-13
2.78582e-13
2.79145e-13
2.79415e-13
2.78871e-13
2.79031e-13
2.79313e-13
2.79192e-13
2.79425e-13
2.79572e-13
2.79681e-13
2.79705e-13
2.79765e-13
2.80224e-13
2.80234e-13
2.80274e-13
2.8066e-13
2.80508e-13
2.80387e-13
2.80887e-13
2.80608e-13
2.80078e-13
2.80526e-13
2.80516e-13
2.80359e-13
2.80765e-13
2.81041e-13
2.8096e-13
2.81227e-13
2.80971e-13
2.80606e-13
2.80995e-13
2.81233e-13
2.81274e-13
2.82065e-13
2.82048e-13
2.81792e-13
2.82239e-13
2.82143e-13
2.81773e-13
2.82132e-13
2.82458e-13
2.82078e-13
2.82603e-13
2.82904e-13
2.82733e-13
2.82854e-13
2.82975e-13
2.83001e-13
2.83193e-13
2.83605e-13
2.83614e-13
2.83845e-13
2.84066e-13
2.84479e-13
2.84201e-13
2.84082e-13
2.8433e-13
2.84172e-13
2.84583e-13
2.84644e-13
2.84383e-13
2.84355e-13
2.84438e-13
2.84039e-13
2.8455e-13
2.84704e-13
2.84153e-13
2.84717e-13
2.8469e-13
2.84677e-13
2.84832e-13
2.84434e-13
2.84344e-13
2.84449e-13
2.8408e-13
2.84049e-13
2.84191e-13
2.83584e-13
2.83595e-13
2.83475e-13
2.82688e-13
2.8222e-13
2.82006e-13
2.8139e-13
2.81416e-13
2.81087e-13
2.80565e-13
2.79541e-13
2.7851e-13
2.78453e-13
2.77949e-13
2.77219e-13
2.77315e-13
2.76689e-13
2.7603e-13
2.76042e-13
2.75196e-13
2.7461e-13
2.74419e-13
2.7372e-13
2.7348e-13
2.7297e-13
2.72124e-13
2.71783e-13
2.71336e-13
2.70395e-13
2.70299e-13
2.70143e-13
2.69287e-13
2.68749e-13
2.68368e-13
2.67669e-13
2.67001e-13
2.66154e-13
2.65422e-13
2.64658e-13
2.63676e-13
2.6313e-13
2.62279e-13
2.6144e-13
2.60623e-13
2.59397e-13
2.58622e-13
2.57743e-13
2.57133e-13
2.56458e-13
2.55409e-13
2.54511e-13
2.53867e-13
2.52799e-13
2.51994e-13
2.51217e-13
2.50162e-13
2.49533e-13
2.48658e-13
2.47914e-13
2.46918e-13
2.45945e-13
2.44449e-13
2.43725e-13
2.43026e-13
2.41587e-13
2.40465e-13
2.39571e-13
2.38574e-13
2.37523e-13
2.36623e-13
2.35597e-13
2.34239e-13
2.33088e-13
2.31798e-13
2.30701e-13
2.29856e-13
2.28288e-13
2.26386e-13
2.25727e-13
2.24671e-13
2.23208e-13
2.22364e-13
2.20841e-13
2.19075e-13
2.1835e-13
2.17169e-13
2.1509e-13
2.13832e-13
2.12724e-13
2.10836e-13
2.09646e-13
2.08485e-13
2.06587e-13
2.04929e-13
2.0322e-13
2.01615e-13
2.00128e-13
1.97959e-13
1.96022e-13
1.94038e-13
1.9231e-13
1.90329e-13
1.88052e-13
1.86134e-13
1.84363e-13
1.82463e-13
1.80569e-13
1.78476e-13
1.76339e-13
1.74719e-13
1.72894e-13
1.70902e-13
1.68679e-13
1.66877e-13
1.64855e-13
1.62437e-13
1.60451e-13
1.58393e-13
1.56411e-13
1.53909e-13
1.51668e-13
1.49363e-13
1.4757e-13
1.45514e-13
1.43327e-13
1.41414e-13
1.39283e-13
1.37719e-13
1.35875e-13
1.33466e-13
1.31562e-13
1.29924e-13
1.26992e-13
1.24683e-13
1.23471e-13
1.21155e-13
1.18343e-13
1.16038e-13
1.14048e-13
1.11693e-13
1.09317e-13
1.06188e-13
1.03317e-13
1.01e-13
9.86894e-14
9.54792e-14
9.20235e-14
8.94279e-14
8.56213e-14
8.13958e-14
7.69727e-14
7.77446e-14
8.05823e-14
8.372e-14
8.65058e-14
8.9087e-14
9.15045e-14
9.39274e-14
9.60937e-14
9.80283e-14
9.98869e-14
1.01904e-13
1.03361e-13
1.04641e-13
1.06156e-13
1.07589e-13
1.08993e-13
1.10513e-13
1.11471e-13
1.12593e-13
1.13501e-13
1.14595e-13
1.15468e-13
1.16659e-13
1.1775e-13
1.18811e-13
1.20005e-13
1.20646e-13
1.21639e-13
1.22467e-13
1.23257e-13
1.24134e-13
1.24957e-13
1.25914e-13
1.26887e-13
1.27697e-13
1.2853e-13
1.29456e-13
1.30198e-13
1.31108e-13
1.31924e-13
1.32761e-13
1.33488e-13
1.34195e-13
1.34976e-13
1.35791e-13
1.36407e-13
1.37294e-13
1.38127e-13
1.38961e-13
1.39785e-13
1.40769e-13
1.42108e-13
1.43242e-13
1.43987e-13
1.45175e-13
1.46078e-13
1.4721e-13
1.48098e-13
1.49034e-13
1.49876e-13
1.50809e-13
1.51605e-13
1.52137e-13
1.52888e-13
1.53537e-13
1.54436e-13
1.55019e-13
1.55678e-13
1.5635e-13
1.57012e-13
1.57595e-13
1.58578e-13
1.59487e-13
1.59997e-13
1.60876e-13
1.61604e-13
1.62328e-13
1.63247e-13
1.64181e-13
1.64958e-13
1.6579e-13
1.66818e-13
1.67457e-13
1.68203e-13
1.6915e-13
1.69911e-13
1.70619e-13
1.71436e-13
1.72209e-13
1.72864e-13
1.73475e-13
1.74433e-13
1.74917e-13
1.75762e-13
1.7671e-13
1.7761e-13
1.78554e-13
1.7942e-13
1.80368e-13
1.81219e-13
1.82293e-13
1.83426e-13
1.84396e-13
1.85284e-13
1.86161e-13
1.86928e-13
1.88028e-13
1.88992e-13
1.89839e-13
1.90788e-13
1.9173e-13
1.92847e-13
1.93605e-13
1.94964e-13
1.9576e-13
1.96567e-13
1.97651e-13
1.98888e-13
2.0007e-13
2.00898e-13
2.01914e-13
2.02918e-13
2.03805e-13
2.04629e-13
2.05348e-13
2.06024e-13
2.06858e-13
2.07789e-13
2.08376e-13
2.09031e-13
2.09851e-13
2.10897e-13
2.11942e-13
2.12853e-13
2.13539e-13
2.14286e-13
2.15018e-13
2.15758e-13
2.16431e-13
2.17224e-13
2.18211e-13
2.18483e-13
2.19238e-13
2.19981e-13
2.20659e-13
2.21565e-13
2.22318e-13
2.23068e-13
2.23544e-13
2.24501e-13
2.25145e-13
2.259e-13
2.26979e-13
2.27894e-13
2.28457e-13
2.29373e-13
2.30152e-13
2.30479e-13
2.3117e-13
2.31803e-13
2.32506e-13
2.33192e-13
2.33804e-13
2.34462e-13
2.35243e-13
2.36016e-13
2.36627e-13
2.37319e-13
2.38055e-13
2.38818e-13
2.39272e-13
2.39719e-13
2.4029e-13
2.4126e-13
2.4204e-13
2.42636e-13
2.43611e-13
2.44474e-13
2.45205e-13
2.46e-13
2.46586e-13
2.47788e-13
2.48508e-13
2.49436e-13
2.50422e-13
2.51414e-13
2.52406e-13
2.53291e-13
2.54023e-13
2.5456e-13
2.55214e-13
2.55756e-13
2.56482e-13
2.57007e-13
2.57626e-13
2.58596e-13
2.59257e-13
2.59875e-13
2.60919e-13
2.61582e-13
2.61916e-13
2.62762e-13
2.63519e-13
2.63806e-13
2.64369e-13
2.6503e-13
2.65741e-13
2.66602e-13
2.67169e-13
2.67616e-13
2.68321e-13
2.68735e-13
2.69021e-13
2.69478e-13
2.69458e-13
2.69593e-13
2.69953e-13
2.70609e-13
2.70779e-13
2.70639e-13
2.7077e-13
2.71104e-13
2.71347e-13
2.7158e-13
2.72031e-13
2.71805e-13
2.72062e-13
2.72127e-13
2.72171e-13
2.72055e-13
2.7246e-13
2.72982e-13
2.73102e-13
2.73403e-13
2.73363e-13
2.73684e-13
2.73751e-13
2.73368e-13
2.73717e-13
2.74257e-13
2.74205e-13
2.74698e-13
2.75223e-13
2.75653e-13
2.75814e-13
2.76066e-13
2.76416e-13
2.76592e-13
2.76593e-13
2.76769e-13
2.77204e-13
2.77347e-13
2.77586e-13
2.77681e-13
2.77485e-13
2.77715e-13
2.7767e-13
2.77293e-13
2.77536e-13
2.77623e-13
2.77839e-13
2.77631e-13
2.77591e-13
2.78264e-13
2.78606e-13
2.78383e-13
2.78372e-13
2.78366e-13
2.78298e-13
2.78313e-13
2.78235e-13
2.78403e-13
2.78838e-13
2.7916e-13
2.79183e-13
2.79242e-13
2.79046e-13
2.78922e-13
2.79266e-13
2.79634e-13
2.79451e-13
2.79481e-13
2.79908e-13
2.79847e-13
2.79929e-13
2.80376e-13
2.80496e-13
2.80399e-13
2.80731e-13
2.80552e-13
2.80543e-13
2.8063e-13
2.80235e-13
2.80486e-13
2.80676e-13
2.80182e-13
2.80643e-13
2.81333e-13
2.80741e-13
2.81038e-13
2.81154e-13
2.80728e-13
2.80879e-13
2.81403e-13
2.81175e-13
2.81896e-13
2.82231e-13
2.81657e-13
2.82205e-13
2.82256e-13
2.81695e-13
2.81942e-13
2.82508e-13
2.8202e-13
2.82708e-13
2.82908e-13
2.82452e-13
2.82811e-13
2.83048e-13
2.83195e-13
2.8329e-13
2.83499e-13
2.83643e-13
2.83857e-13
2.84151e-13
2.84261e-13
2.84111e-13
2.8421e-13
2.84666e-13
2.84189e-13
2.84375e-13
2.84655e-13
2.84407e-13
2.8419e-13
2.8442e-13
2.8414e-13
2.84569e-13
2.8468e-13
2.84282e-13
2.84792e-13
2.84648e-13
2.84482e-13
2.84917e-13
2.84609e-13
2.84284e-13
2.84336e-13
2.84077e-13
2.84236e-13
2.84266e-13
2.83579e-13
2.83431e-13
2.83555e-13
2.82873e-13
2.82135e-13
2.81815e-13
2.81337e-13
2.81444e-13
2.81204e-13
2.8041e-13
2.79623e-13
2.78766e-13
2.7828e-13
2.77972e-13
2.77323e-13
2.77325e-13
2.76689e-13
2.75893e-13
2.76033e-13
2.75344e-13
2.74523e-13
2.74242e-13
2.73605e-13
2.73602e-13
2.73073e-13
2.72195e-13
2.71472e-13
2.71321e-13
2.70718e-13
2.70322e-13
2.69876e-13
2.69222e-13
2.68921e-13
2.6844e-13
2.67717e-13
2.66894e-13
2.66307e-13
2.65639e-13
2.64385e-13
2.63677e-13
2.63481e-13
2.62109e-13
2.61053e-13
2.60874e-13
2.59598e-13
2.58687e-13
2.57539e-13
2.56794e-13
2.56524e-13
2.55737e-13
2.54473e-13
2.53888e-13
2.5292e-13
2.51915e-13
2.51221e-13
2.49903e-13
2.49689e-13
2.48757e-13
2.47682e-13
2.46967e-13
2.46096e-13
2.44702e-13
2.43644e-13
2.43014e-13
2.41416e-13
2.40421e-13
2.39549e-13
2.3853e-13
2.3771e-13
2.36893e-13
2.35528e-13
2.33784e-13
2.33159e-13
2.32176e-13
2.30837e-13
2.29425e-13
2.28343e-13
2.26692e-13
2.25524e-13
2.24648e-13
2.23281e-13
2.22292e-13
2.21117e-13
2.18943e-13
2.17858e-13
2.17421e-13
2.15731e-13
2.13843e-13
2.12567e-13
2.10732e-13
2.0979e-13
2.08611e-13
2.06457e-13
2.04594e-13
2.033e-13
2.02188e-13
1.99911e-13
1.97728e-13