/*--------------------------------*- C++ -*----------------------------------*\
| =========                 |                                                 |
| \\      /  F ield         | OpenFOAM: The Open Source CFD Toolbox           |
|  \\    /   O peration     | Version:  2112                                  |
|   \\  /    A nd           | Website:  www.openfoam.com                      |
|    \\/     M anipulation  |                                                 |
\*---------------------------------------------------------------------------*/
FoamFile
{
    version     2.0;
    format      ascii;
    arch        "LSB;label=32;scalar=64";
    class       surfaceScalarField;
    location    "6";
    object      phi;
}
// * * * * * * * * * * * * * * * * * * * * * * * * * * * * * * * * * * * * * //

dimensions      [0 3 -1 0 0 0 0];

oriented        oriented;

internalField   nonuniform List<scalar> 
99400
(
3.03571e-05
-1.08598e-17
3.03571e-05
-2.06541e-18
3.03571e-05
-5.3309e-19
3.03571e-05
-1.94896e-19
3.03571e-05
-8.64738e-20
3.03571e-05
-4.72521e-20
3.03571e-05
-2.58703e-20
3.03571e-05
-2.23403e-20
3.03571e-05
-2.48815e-20
3.03571e-05
-2.16028e-20
3.03571e-05
-3.31291e-20
3.03571e-05
-4.38793e-20
3.03571e-05
-3.33125e-20
3.03571e-05
-1.94674e-20
3.03571e-05
-7.25569e-23
3.03571e-05
-1.99891e-20
3.03571e-05
-4.12936e-20
3.03571e-05
-2.47036e-20
3.03571e-05
-1.69562e-20
3.03571e-05
9.09734e-21
3.03571e-05
-2.76139e-21
3.03571e-05
-3.69416e-21
3.03571e-05
3.15746e-20
3.03571e-05
-1.0553e-21
3.03571e-05
-3.08329e-20
3.03571e-05
-4.00518e-20
3.03571e-05
-6.05433e-21
3.03571e-05
1.99853e-20
3.03571e-05
-3.39682e-20
3.03571e-05
-9.6609e-21
3.03571e-05
1.7573e-21
3.03571e-05
-1.52723e-20
3.03571e-05
-1.07279e-20
3.03571e-05
-2.09699e-20
3.03571e-05
-3.45498e-20
3.03571e-05
1.15789e-20
3.03571e-05
-2.76621e-20
3.03571e-05
-2.43114e-20
3.03571e-05
-1.41662e-21
3.03571e-05
-3.84094e-20
3.03571e-05
7.03222e-22
3.03571e-05
-3.59178e-20
3.03571e-05
-4.26931e-21
3.03571e-05
2.66523e-20
3.03571e-05
-5.48748e-21
3.03571e-05
3.60676e-20
3.03571e-05
2.54364e-20
3.03571e-05
-5.01921e-20
3.03571e-05
-1.50115e-20
3.03571e-05
5.44259e-20
3.03571e-05
3.20745e-20
3.03571e-05
-5.46807e-21
3.03571e-05
-4.63758e-20
3.03571e-05
-8.62093e-21
3.03571e-05
4.88404e-20
3.03571e-05
-3.09439e-20
3.03571e-05
2.56157e-20
3.03571e-05
-1.48449e-20
3.03571e-05
-6.14175e-20
3.03571e-05
1.25809e-20
3.03571e-05
-5.19657e-21
3.03571e-05
-1.71384e-20
3.03571e-05
-6.93679e-21
3.03571e-05
2.34351e-20
3.03571e-05
-1.43977e-20
3.03571e-05
1.60704e-20
3.03571e-05
-3.79292e-20
3.03571e-05
-9.8644e-21
3.03571e-05
5.15084e-20
3.03571e-05
-8.30076e-21
3.03571e-05
-6.43934e-21
3.03571e-05
1.1701e-20
3.03571e-05
6.20204e-20
3.03571e-05
-2.98389e-20
3.03571e-05
-6.57575e-20
3.03571e-05
1.05059e-19
3.03571e-05
5.33794e-20
3.03571e-05
-5.87881e-20
3.03571e-05
-2.25886e-20
3.03571e-05
2.99013e-20
3.03571e-05
-4.33125e-22
3.03571e-05
-4.4712e-20
3.03571e-05
1.31072e-20
3.03571e-05
1.03024e-20
3.03571e-05
-4.45639e-20
3.03571e-05
4.56744e-20
3.03571e-05
1.46457e-22
3.03571e-05
-1.94149e-20
3.03571e-05
-6.4748e-21
3.03571e-05
-4.34598e-21
3.03571e-05
3.46569e-20
3.03571e-05
2.07319e-20
3.03571e-05
2.83737e-20
3.03571e-05
2.44652e-20
3.03571e-05
2.38774e-20
3.03571e-05
-9.96081e-20
3.03571e-05
1.69327e-20
3.03571e-05
1.10959e-19
3.03571e-05
-4.11004e-20
3.03571e-05
-4.70497e-20
3.03571e-05
6.13601e-20
3.03571e-05
3.80725e-20
3.03571e-05
-2.43266e-20
3.03571e-05
-2.95406e-20
3.03571e-05
2.182e-20
3.03571e-05
-1.01811e-20
3.03571e-05
-3.31754e-20
3.03571e-05
-1.55926e-20
3.03571e-05
4.61825e-20
3.03571e-05
7.85128e-20
3.03571e-05
-3.70304e-20
3.03571e-05
-7.66121e-20
3.03571e-05
-3.54778e-21
3.03571e-05
8.90401e-20
3.03571e-05
2.92687e-20
3.03571e-05
-8.48014e-20
3.03571e-05
-6.12719e-20
3.03571e-05
7.09132e-20
3.03571e-05
6.1191e-20
3.03571e-05
-1.59035e-20
3.03571e-05
-4.20417e-20
3.03571e-05
-6.69551e-21
3.03571e-05
5.14474e-20
3.03571e-05
-1.87154e-20
3.03571e-05
-6.87034e-20
3.03571e-05
7.55851e-20
3.03571e-05
3.36939e-20
3.03571e-05
-5.40781e-20
3.03571e-05
3.69582e-20
3.03571e-05
3.01397e-20
3.03571e-05
2.70655e-20
3.03571e-05
-1.38444e-20
3.03571e-05
9.45116e-20
3.03571e-05
-5.93326e-20
3.03571e-05
-7.97355e-20
3.03571e-05
5.17432e-20
3.03571e-05
6.79578e-21
3.03571e-05
-6.30258e-20
3.03571e-05
7.40277e-20
3.03571e-05
5.1474e-20
3.03571e-05
-1.48118e-19
3.03571e-05
-1.00483e-19
3.03571e-05
7.50985e-20
3.03571e-05
1.38892e-19
3.03571e-05
-9.5155e-20
3.03571e-05
-2.84965e-20
3.03571e-05
1.81664e-19
3.03571e-05
-5.3477e-20
3.03571e-05
-1.07324e-19
3.03571e-05
1.11797e-19
3.03571e-05
-6.27015e-20
3.03571e-05
-1.22342e-21
3.03571e-05
1.32521e-19
3.03571e-05
-1.42071e-19
3.03571e-05
-3.3419e-20
3.03571e-05
7.27663e-20
3.03571e-05
-1.04656e-19
3.03571e-05
1.54115e-22
3.03571e-05
1.01087e-20
3.03571e-05
1.19732e-19
3.03571e-05
3.49867e-20
3.03571e-05
-4.43604e-20
3.03571e-05
-2.58642e-20
3.03571e-05
3.24332e-21
3.03571e-05
-2.72473e-20
3.03571e-05
-2.43413e-20
3.03571e-05
5.9747e-20
3.03571e-05
-1.65322e-19
3.03571e-05
1.17892e-19
3.03571e-05
1.27148e-19
3.03571e-05
-1.57224e-19
3.03571e-05
5.7562e-20
3.03571e-05
1.26572e-19
3.03571e-05
-9.02115e-20
3.03571e-05
-4.55766e-20
3.03571e-05
5.37737e-20
3.03571e-05
1.22064e-19
3.03571e-05
-2.58715e-20
3.03571e-05
-7.86374e-20
3.03571e-05
1.40799e-19
3.03571e-05
-1.90712e-20
3.03571e-05
-7.51152e-20
3.03571e-05
2.19773e-21
3.03571e-05
-6.93241e-20
3.03571e-05
9.09703e-20
3.03571e-05
-2.6496e-20
3.03571e-05
-1.40125e-19
3.03571e-05
-1.2883e-21
3.03571e-05
-1.68274e-21
3.03571e-05
-1.53452e-20
3.03571e-05
-7.19754e-20
3.03571e-05
-5.39046e-20
3.03571e-05
-1.58146e-20
3.03571e-05
1.55937e-19
3.03571e-05
5.45222e-20
3.03571e-05
-3.14707e-20
3.03571e-05
9.22053e-20
3.03571e-05
-3.43679e-21
3.03571e-05
-1.7423e-19
3.03571e-05
-4.709e-20
3.03571e-05
7.83128e-20
3.03571e-05
-1.44606e-19
3.03571e-05
1.20476e-19
3.03571e-05
4.2544e-20
3.03571e-05
5.28636e-20
3.03571e-05
1.15756e-19
3.03571e-05
-1.75628e-19
3.03571e-05
-1.1601e-19
3.03571e-05
3.35056e-20
3.03571e-05
-8.89614e-21
3.03571e-05
3.16792e-20
3.03571e-05
2.23867e-20
3.03571e-05
-1.17484e-19
3.03571e-05
8.92478e-20
3.03571e-05
-9.70333e-20
3.03571e-05
2.00393e-20
3.03571e-05
-5.09748e-20
3.03571e-05
-4.90732e-20
3.03571e-05
1.29792e-19
3.03571e-05
1.06614e-19
3.03571e-05
-4.25694e-20
3.03571e-05
-8.21731e-20
3.03571e-05
5.12938e-20
3.03571e-05
-6.78863e-20
3.03571e-05
4.01109e-20
3.03571e-05
-1.34479e-20
3.03571e-05
-1.53851e-20
3.03571e-05
7.30429e-20
3.03571e-05
1.09189e-19
3.03571e-05
-1.51528e-21
3.03571e-05
-1.8295e-20
3.03571e-05
-1.22088e-19
3.03571e-05
-1.03031e-20
3.03571e-05
5.22179e-20
3.03571e-05
-1.02046e-19
3.03571e-05
9.58761e-20
3.03571e-05
5.23908e-20
3.03571e-05
5.76353e-20
3.03571e-05
-3.91078e-20
3.03571e-05
1.69339e-20
3.03571e-05
-1.24564e-20
3.03571e-05
-1.04874e-19
3.03571e-05
1.20728e-20
3.03571e-05
1.74921e-19
3.03571e-05
-4.74965e-20
3.03571e-05
-4.34602e-20
3.03571e-05
1.18821e-19
3.03571e-05
-9.29995e-20
3.03571e-05
1.99619e-20
3.03571e-05
1.01956e-21
3.03571e-05
-5.6899e-20
3.03571e-05
-1.39084e-20
3.03571e-05
1.54399e-19
3.03571e-05
-4.58878e-20
3.03571e-05
-1.13741e-19
3.03571e-05
9.43329e-20
3.03571e-05
-3.21895e-20
3.03571e-05
-9.10229e-20
3.03571e-05
4.83728e-20
3.03571e-05
-9.97905e-20
3.03571e-05
4.67079e-20
3.03571e-05
2.40387e-19
3.03571e-05
-1.43863e-19
3.03571e-05
7.66859e-20
3.03571e-05
-1.85129e-19
3.03571e-05
-1.62782e-19
3.03571e-05
3.12586e-19
3.03571e-05
-2.02809e-19
3.03571e-05
-9.99015e-20
3.03571e-05
4.5963e-19
3.03571e-05
-2.02307e-19
3.03571e-05
-1.52338e-19
3.03571e-05
1.38185e-19
3.03571e-05
-1.54221e-19
3.03571e-05
1.24963e-19
3.03571e-05
-1.26707e-19
3.03571e-05
-4.74263e-20
3.03571e-05
1.46601e-19
3.03571e-05
9.02142e-20
3.03571e-05
-1.01453e-19
3.03571e-05
-9.24503e-20
3.03571e-05
-1.01891e-19
3.03571e-05
5.88469e-20
3.03571e-05
2.00244e-19
3.03571e-05
-2.42761e-19
3.03571e-05
2.44702e-19
3.03571e-05
2.72571e-20
3.03571e-05
-2.80071e-19
3.03571e-05
2.01001e-19
3.03571e-05
9.03803e-20
3.03571e-05
-2.76123e-19
3.03571e-05
7.71152e-20
3.03571e-05
6.19181e-20
3.03571e-05
-1.60681e-19
3.03571e-05
3.71523e-19
3.03571e-05
1.05836e-19
3.03571e-05
-3.31896e-19
3.03571e-05
9.19145e-20
3.03571e-05
-2.0015e-20
3.03571e-05
-1.9846e-19
3.03571e-05
2.87539e-19
3.03571e-05
-1.27141e-19
3.03571e-05
-9.19672e-20
3.03571e-05
4.22855e-19
3.03571e-05
-1.73985e-19
3.03571e-05
-2.82584e-19
3.03571e-05
2.16241e-19
3.03571e-05
-1.48217e-19
3.03571e-05
-1.69664e-19
3.03571e-05
2.68042e-19
3.03571e-05
6.99661e-20
3.03571e-05
-2.45622e-19
3.03571e-05
1.22476e-19
3.03571e-05
7.88983e-20
3.03571e-05
-1.46841e-19
3.03571e-05
6.93043e-20
3.03571e-05
-8.6851e-20
3.03571e-05
-8.64958e-20
3.03571e-05
-1.82409e-20
3.03571e-05
1.55533e-19
3.03571e-05
1.21516e-19
3.03571e-05
-8.02683e-20
3.03571e-05
-1.7342e-19
3.03571e-05
-5.88474e-20
3.03571e-05
2.00757e-19
3.03571e-05
-1.04544e-19
3.03571e-05
-1.09466e-19
3.03571e-05
-3.72242e-20
3.03571e-05
2.12343e-19
3.03571e-05
1.97291e-19
3.03571e-05
-3.34215e-19
3.03571e-05
2.74469e-22
3.03571e-05
1.76762e-19
3.03571e-05
-2.48865e-19
3.03571e-05
1.26979e-19
3.03571e-05
2.36678e-19
3.03571e-05
-3.37765e-19
3.03571e-05
2.56711e-19
3.03571e-05
1.57361e-19
3.03571e-05
-2.98787e-19
3.03571e-05
3.80034e-20
3.03571e-05
-3.3117e-20
3.03571e-05
-1.11402e-19
3.03571e-05
5.24479e-20
3.03571e-05
1.69198e-19
3.03571e-05
2.40263e-20
3.03571e-05
-3.03283e-20
3.03571e-05
-1.68889e-19
3.03571e-05
-5.15463e-20
3.03571e-05
1.51091e-19
3.03571e-05
-9.38392e-20
3.03571e-05
-1.8692e-19
3.03571e-05
7.18416e-20
3.03571e-05
2.2231e-19
3.03571e-05
3.14794e-20
3.03571e-05
-3.73998e-20
3.03571e-05
-2.08513e-19
3.03571e-05
-1.14923e-19
3.03571e-05
1.377e-19
3.03571e-05
-3.53411e-20
3.03571e-05
1.94194e-19
3.03571e-05
-1.8094e-19
3.03571e-05
-8.08387e-21
3.03571e-05
3.64241e-19
3.03571e-05
-2.36795e-19
3.03571e-05
-8.23847e-20
3.03571e-05
1.19282e-20
3.03571e-05
-4.87269e-20
3.03571e-05
-7.14952e-20
3.03571e-05
3.17623e-19
3.03571e-05
7.65475e-20
3.03571e-05
-1.94921e-19
3.03571e-05
-4.663e-20
3.03571e-05
-3.69646e-20
3.03571e-05
1.29773e-19
3.03571e-05
-1.19561e-19
3.03571e-05
6.1265e-20
3.03571e-05
-1.2501e-19
3.03571e-05
2.03944e-19
3.03571e-05
3.90325e-20
3.03571e-05
-1.80957e-19
3.03571e-05
-7.78377e-20
3.03571e-05
7.93075e-20
3.03571e-05
4.47324e-20
3.03571e-05
-1.24724e-19
3.03571e-05
2.90266e-19
3.03571e-05
-2.35858e-19
3.03571e-05
5.10929e-20
3.03571e-05
1.5416e-19
3.03571e-05
-1.13976e-19
3.03571e-05
-1.20244e-19
3.03571e-05
8.7516e-20
3.03571e-05
-2.11716e-20
3.03571e-05
-2.08883e-19
3.03571e-05
3.63303e-19
3.03571e-05
2.1197e-19
3.03571e-05
-2.19844e-19
3.03571e-05
-1.42998e-19
3.03571e-05
-6.22405e-20
3.03571e-05
-4.89148e-20
3.03571e-05
1.21788e-19
3.03571e-05
3.72931e-19
3.03571e-05
-3.01006e-19
3.03571e-05
-1.57779e-19
3.03571e-05
-7.82623e-20
3.03571e-05
2.92704e-19
3.03571e-05
2.7087e-19
3.03571e-05
-5.18137e-19
3.03571e-05
-8.94117e-20
3.03571e-05
2.79285e-19
3.03571e-05
3.27054e-19
3.03571e-05
-3.95661e-19
3.03571e-05
5.19912e-20
3.03571e-05
1.42958e-19
3.03571e-05
-8.02155e-20
3.03571e-05
6.68292e-20
3.03571e-05
-2.50786e-19
3.03571e-05
3.74325e-20
3.03571e-05
2.53908e-19
3.03571e-05
1.27584e-19
3.03571e-05
-3.72088e-19
3.03571e-05
-1.44167e-19
3.03571e-05
4.88012e-19
3.03571e-05
-1.10564e-19
3.03571e-05
-2.09804e-19
3.03571e-05
3.91641e-20
3.03571e-05
1.07634e-19
3.03571e-05
4.40235e-20
3.03571e-05
8.41728e-20
3.03571e-05
-1.97026e-19
3.03571e-05
-1.60659e-19
3.03571e-05
4.92196e-19
3.03571e-05
-1.44875e-20
3.03571e-05
-4.74953e-19
3.03571e-05
-4.0032e-20
3.03571e-05
6.19792e-19
3.03571e-05
-1.30337e-19
3.03571e-05
-6.25991e-20
3.03571e-05
-1.5381e-20
3.03571e-05
-2.58384e-19
3.03571e-05
4.23499e-19
3.03571e-05
-2.73984e-19
3.03571e-05
-1.29933e-19
3.03571e-05
-6.77227e-20
3.03571e-05
1.95761e-19
3.03571e-05
6.48735e-20
3.03571e-05
-1.84679e-19
3.03571e-05
9.84818e-20
3.03571e-05
-1.33379e-19
3.03571e-05
2.45739e-19
3.03571e-05
-7.17555e-20
3.03571e-05
6.45877e-20
3.03571e-05
-1.27071e-19
3.03571e-05
1.65668e-19
3.03571e-05
4.16491e-21
3.03571e-05
-1.55123e-19
3.03571e-05
1.66785e-19
3.03571e-05
6.81316e-20
3.03571e-05
1.42996e-19
3.03571e-05
-5.69615e-19
3.03571e-05
2.52552e-19
3.03571e-05
1.60274e-19
3.03571e-05
6.36833e-20
3.03571e-05
8.58212e-20
3.03571e-05
-4.83526e-19
3.03571e-05
1.44066e-19
3.03571e-05
1.78619e-19
3.03571e-05
-4.4389e-20
3.03571e-05
-1.97362e-19
3.03571e-05
1.59661e-19
3.03571e-05
-7.91494e-20
3.03571e-05
3.58902e-20
3.03571e-05
1.06926e-19
3.03571e-05
-1.76035e-19
3.03571e-05
1.94645e-19
3.03571e-05
4.936e-20
3.03571e-05
7.93343e-20
3.03571e-05
-2.97303e-19
3.03571e-05
7.61519e-20
3.03571e-05
1.26824e-19
3.03571e-05
2.7138e-20
3.03571e-05
-1.67709e-20
3.03571e-05
-1.4957e-19
3.03571e-05
2.76405e-19
3.03571e-05
-3.2498e-19
3.03571e-05
6.7276e-20
3.03571e-05
2.69621e-20
3.03571e-05
-8.33524e-20
3.03571e-05
3.03184e-19
3.03571e-05
-2.42037e-19
3.03571e-05
-2.51158e-19
3.03571e-05
1.81934e-19
3.03571e-05
2.00359e-19
3.03571e-05
-3.13489e-19
3.03571e-05
6.65828e-21
3.03571e-05
-1.20478e-19
3.03571e-05
-1.3219e-19
3.03571e-05
-3.14248e-20
3.03571e-05
-7.06428e-19
-1.99937e-18
8.98537e-05
-6.87165e-18
8.98537e-05
-2.71141e-18
8.98537e-05
-1.07504e-18
8.98537e-05
-4.13516e-19
8.98537e-05
-1.91029e-19
8.98537e-05
-1.01036e-19
8.98537e-05
-9.2966e-20
8.98537e-05
-5.50492e-20
8.98537e-05
-6.25448e-20
8.98537e-05
-6.47353e-20
8.98537e-05
-1.10652e-19
8.98537e-05
-1.1625e-19
8.98537e-05
-8.19724e-20
8.98537e-05
-6.32097e-20
8.98537e-05
-2.1464e-20
8.98537e-05
-6.70757e-20
8.98537e-05
-1.18284e-19
8.98537e-05
-6.45162e-20
8.98537e-05
-1.372e-20
8.98537e-05
7.90186e-21
8.98537e-05
-3.29138e-20
8.98537e-05
1.24689e-20
8.98537e-05
4.98125e-20
8.98537e-05
-8.7307e-21
8.98537e-05
-5.26105e-20
8.98537e-05
-9.94326e-20
8.98537e-05
-4.6477e-20
8.98537e-05
3.5633e-20
8.98537e-05
-8.9174e-20
8.98537e-05
-4.79016e-20
8.98537e-05
-2.66291e-20
8.98537e-05
-5.28701e-20
8.98537e-05
-5.02073e-20
8.98537e-05
-9.85101e-20
8.98537e-05
-6.83624e-20
8.98537e-05
9.77847e-21
8.98537e-05
-1.25006e-19
8.98537e-05
-7.52614e-20
8.98537e-05
-1.37074e-20
8.98537e-05
-1.26305e-19
8.98537e-05
-5.36942e-20
8.98537e-05
-7.73246e-20
8.98537e-05
-1.74663e-20
8.98537e-05
5.85789e-20
8.98537e-05
5.16506e-20
8.98537e-05
7.36831e-20
8.98537e-05
5.90402e-20
8.98537e-05
-9.45933e-20
8.98537e-05
-4.63944e-20
8.98537e-05
1.1261e-19
8.98537e-05
6.97828e-20
8.98537e-05
-1.36941e-20
8.98537e-05
-8.0636e-20
8.98537e-05
-2.47485e-20
8.98537e-05
7.36209e-20
8.98537e-05
-2.5979e-20
8.98537e-05
6.06818e-20
8.98537e-05
-8.20922e-20
8.98537e-05
-1.12807e-19
8.98537e-05
-1.86379e-20
8.98537e-05
-2.07301e-20
8.98537e-05
7.29745e-21
8.98537e-05
-2.30494e-20
8.98537e-05
1.72217e-20
8.98537e-05
1.28079e-20
8.98537e-05
1.85272e-20
8.98537e-05
-1.11961e-19
8.98537e-05
-5.62524e-20
8.98537e-05
1.14709e-19
8.98537e-05
2.13982e-20
8.98537e-05
2.17982e-20
8.98537e-05
4.46478e-20
8.98537e-05
1.34108e-19
8.98537e-05
-2.85595e-20
8.98537e-05
-1.30285e-19
8.98537e-05
2.42467e-19
8.98537e-05
1.4819e-19
8.98537e-05
-8.50015e-20
8.98537e-05
-8.76483e-20
8.98537e-05
3.36605e-20
8.98537e-05
1.58728e-20
8.98537e-05
-1.03651e-19
8.98537e-05
-2.40905e-21
8.98537e-05
-4.55769e-21
8.98537e-05
-4.40431e-20
8.98537e-05
6.28646e-20
8.98537e-05
-9.44784e-21
8.98537e-05
-6.25719e-21
8.98537e-05
-9.47559e-21
8.98537e-05
8.45876e-21
8.98537e-05
1.2457e-19
8.98537e-05
4.91753e-20
8.98537e-05
7.42052e-20
8.98537e-05
6.96576e-20
8.98537e-05
2.73743e-20
8.98537e-05
-1.872e-19
8.98537e-05
9.27613e-21
8.98537e-05
2.75061e-19
8.98537e-05
-6.98928e-20
8.98537e-05
-1.15223e-19
8.98537e-05
1.87827e-19
8.98537e-05
1.18265e-19
8.98537e-05
-8.89583e-20
8.98537e-05
-9.45848e-20
8.98537e-05
2.59685e-20
8.98537e-05
2.13411e-20
8.98537e-05
-6.50273e-20
8.98537e-05
-7.04407e-20
8.98537e-05
1.5736e-19
8.98537e-05
1.45058e-19
8.98537e-05
-1.02031e-19
8.98537e-05
-1.56819e-19
8.98537e-05
-3.5186e-20
8.98537e-05
1.98625e-19
8.98537e-05
1.21954e-19
8.98537e-05
-2.15218e-19
8.98537e-05
-1.21934e-19
8.98537e-05
1.75114e-19
8.98537e-05
1.56099e-19
8.98537e-05
-2.43069e-20
8.98537e-05
-9.56272e-20
8.98537e-05
1.68369e-20
8.98537e-05
1.04201e-19
8.98537e-05
-5.41215e-20
8.98537e-05
-1.25572e-19
8.98537e-05
1.31574e-19
8.98537e-05
6.33587e-20
8.98537e-05
-4.4999e-20
8.98537e-05
9.76309e-20
8.98537e-05
7.40708e-20
8.98537e-05
9.78658e-20
8.98537e-05
-6.12512e-21
8.98537e-05
1.84923e-19
8.98537e-05
-1.09011e-19
8.98537e-05
-1.74183e-19
8.98537e-05
9.58279e-20
8.98537e-05
-4.8616e-20
8.98537e-05
-1.00756e-19
8.98537e-05
1.84916e-19
8.98537e-05
1.02594e-19
8.98537e-05
-3.45919e-19
8.98537e-05
-2.91234e-19
8.98537e-05
2.02141e-19
8.98537e-05
3.44364e-19
8.98537e-05
-2.10318e-19
8.98537e-05
-5.49504e-20
8.98537e-05
4.27957e-19
8.98537e-05
-5.59883e-20
8.98537e-05
-2.22794e-19
8.98537e-05
1.59438e-19
8.98537e-05
-1.13924e-19
8.98537e-05
4.39121e-20
8.98537e-05
2.05895e-19
8.98537e-05
-3.07384e-19
8.98537e-05
-5.22502e-20
8.98537e-05
1.24193e-19
8.98537e-05
-1.84517e-19
8.98537e-05
-2.94972e-20
8.98537e-05
6.51266e-21
8.98537e-05
3.28658e-19
8.98537e-05
1.29018e-19
8.98537e-05
-9.87577e-20
8.98537e-05
-6.8494e-20
8.98537e-05
-6.51158e-20
8.98537e-05
-7.91508e-20
8.98537e-05
-1.46931e-20
8.98537e-05
7.98558e-20
8.98537e-05
-2.70334e-19
8.98537e-05
2.32863e-19
8.98537e-05
2.56638e-19
8.98537e-05
-2.40923e-19
8.98537e-05
3.37865e-20
8.98537e-05
2.79423e-19
8.98537e-05
-6.98154e-20
8.98537e-05
-1.85606e-19
8.98537e-05
1.52212e-19
8.98537e-05
3.83106e-19
8.98537e-05
-6.18863e-20
8.98537e-05
-1.31676e-19
8.98537e-05
3.01991e-19
8.98537e-05
-3.92335e-20
8.98537e-05
-2.13813e-19
8.98537e-05
-7.90236e-20
8.98537e-05
-1.55164e-19
8.98537e-05
1.11578e-19
8.98537e-05
-8.16788e-20
8.98537e-05
-2.96456e-19
8.98537e-05
-1.27769e-19
8.98537e-05
1.78317e-20
8.98537e-05
-6.42824e-20
8.98537e-05
-2.24602e-19
8.98537e-05
-1.32783e-19
8.98537e-05
3.96903e-20
8.98537e-05
4.34249e-19
8.98537e-05
9.93106e-20
8.98537e-05
-3.52312e-20
8.98537e-05
2.98635e-19
8.98537e-05
-9.29738e-20
8.98537e-05
-4.50663e-19
8.98537e-05
-9.86103e-20
8.98537e-05
7.9461e-20
8.98537e-05
-2.86338e-19
8.98537e-05
2.97828e-19
8.98537e-05
1.15293e-19
8.98537e-05
1.71429e-19
8.98537e-05
3.16844e-19
8.98537e-05
-4.24844e-19
8.98537e-05
-3.9551e-19
8.98537e-05
-7.92976e-21
8.98537e-05
3.47263e-20
8.98537e-05
5.28965e-20
8.98537e-05
6.69506e-20
8.98537e-05
-1.66679e-19
8.98537e-05
8.33413e-20
8.98537e-05
-2.39803e-19
8.98537e-05
7.47537e-20
8.98537e-05
-1.75503e-19
8.98537e-05
-1.36647e-19
8.98537e-05
4.0116e-19
8.98537e-05
2.41208e-19
8.98537e-05
-8.45434e-20
8.98537e-05
-1.6432e-19
8.98537e-05
1.13763e-19
8.98537e-05
-1.45016e-19
8.98537e-05
5.47524e-20
8.98537e-05
7.71521e-21
8.98537e-05
-3.20409e-20
8.98537e-05
2.0698e-19
8.98537e-05
2.89895e-19
8.98537e-05
-4.07032e-20
8.98537e-05
-1.26216e-20
8.98537e-05
-2.29926e-19
8.98537e-05
-2.04124e-19
8.98537e-05
1.24012e-19
8.98537e-05
-1.05461e-19
8.98537e-05
2.06783e-19
8.98537e-05
1.77915e-19
8.98537e-05
5.96023e-20
8.98537e-05
-1.84381e-20
8.98537e-05
2.16797e-20
8.98537e-05
-6.65192e-20
8.98537e-05
-1.96776e-19
8.98537e-05
-1.49627e-20
8.98537e-05
4.01635e-19
8.98537e-05
-2.10556e-21
8.98537e-05
-7.77911e-20
8.98537e-05
1.86125e-19
8.98537e-05
-1.42113e-19
8.98537e-05
9.30397e-22
8.98537e-05
8.44265e-20
8.98537e-05
-1.37405e-19
8.98537e-05
-4.03819e-20
8.98537e-05
2.92198e-19
8.98537e-05
-5.29649e-20
8.98537e-05
-2.28295e-19
8.98537e-05
1.24215e-19
8.98537e-05
-4.33421e-20
8.98537e-05
-1.9872e-19
8.98537e-05
1.52155e-20
8.98537e-05
-2.48144e-19
8.98537e-05
1.95132e-19
8.98537e-05
5.22651e-19
8.98537e-05
-1.8395e-19
8.98537e-05
5.48677e-20
8.98537e-05
-4.81715e-19
8.98537e-05
-4.2624e-19
8.98537e-05
6.887e-19
8.98537e-05
-3.19921e-19
8.98537e-05
-2.16604e-19
8.98537e-05
8.98045e-19
8.98537e-05
-3.53359e-19
8.98537e-05
-3.46696e-19
8.98537e-05
2.15436e-19
8.98537e-05
-3.0909e-19
8.98537e-05
1.08417e-19
8.98537e-05
-8.53798e-20
8.98537e-05
-1.11599e-19
8.98537e-05
2.29862e-19
8.98537e-05
1.90276e-19
8.98537e-05
-1.61187e-19
8.98537e-05
-2.65297e-19
8.98537e-05
-3.65843e-19
8.98537e-05
1.92344e-19
8.98537e-05
5.4297e-19
8.98537e-05
-4.83571e-19
8.98537e-05
4.73307e-19
8.98537e-05
1.57996e-19
8.98537e-05
-6.58101e-19
8.98537e-05
4.44454e-19
8.98537e-05
1.42234e-19
8.98537e-05
-6.51315e-19
8.98537e-05
1.80526e-19
8.98537e-05
2.13011e-19
8.98537e-05
-2.36191e-19
8.98537e-05
8.01124e-19
8.98537e-05
1.60509e-19
8.98537e-05
-6.37048e-19
8.98537e-05
1.45426e-19
8.98537e-05
-8.68561e-20
8.98537e-05
-3.46818e-19
8.98537e-05
4.64337e-19
8.98537e-05
-1.01483e-19
8.98537e-05
-1.93644e-19
8.98537e-05
8.02666e-19
8.98537e-05
-2.77142e-19
8.98537e-05
-6.94681e-19
8.98537e-05
2.72148e-19
8.98537e-05
-2.66088e-19
8.98537e-05
-2.97156e-19
8.98537e-05
4.58729e-19
8.98537e-05
2.31887e-19
8.98537e-05
-4.53573e-19
8.98537e-05
1.49868e-19
8.98537e-05
1.90729e-19
8.98537e-05
-2.64004e-19
8.98537e-05
-1.06008e-20
8.98537e-05
-2.00827e-19
8.98537e-05
-1.72929e-19
8.98537e-05
-8.77405e-20
8.98537e-05
3.78778e-19
8.98537e-05
3.50998e-19
8.98537e-05
-2.38677e-19
8.98537e-05
-4.10205e-19
8.98537e-05
-4.62193e-20
8.98537e-05
2.86527e-19
8.98537e-05
-2.14219e-19
8.98537e-05
-1.87683e-19
8.98537e-05
-5.14438e-20
8.98537e-05
4.38318e-19
8.98537e-05
4.46552e-19
8.98537e-05
-6.16045e-19
8.98537e-05
-7.35992e-20
8.98537e-05
2.93797e-19
8.98537e-05
-4.19865e-19
8.98537e-05
2.1799e-19
8.98537e-05
4.63716e-19
8.98537e-05
-4.52499e-19
8.98537e-05
4.61629e-19
8.98537e-05
2.76229e-19
8.98537e-05
-5.46701e-19
8.98537e-05
-3.11081e-20
8.98537e-05
-2.42079e-19
8.98537e-05
-1.01442e-19
8.98537e-05
1.66114e-19
8.98537e-05
2.45114e-19
8.98537e-05
1.71882e-19
8.98537e-05
-1.21656e-19
8.98537e-05
-4.51665e-19
8.98537e-05
-2.46574e-20
8.98537e-05
3.35643e-19
8.98537e-05
-4.15467e-19
8.98537e-05
-2.86276e-19
8.98537e-05
1.83535e-19
8.98537e-05
3.74764e-19
8.98537e-05
2.09011e-19
8.98537e-05
-1.31702e-19
8.98537e-05
-5.28727e-19
8.98537e-05
-2.16631e-19
8.98537e-05
1.52274e-19
8.98537e-05
-1.94775e-20
8.98537e-05
5.1942e-19
8.98537e-05
-3.97086e-19
8.98537e-05
1.973e-20
8.98537e-05
7.71195e-19
8.98537e-05
-4.77295e-19
8.98537e-05
-2.5965e-19
8.98537e-05
-2.29151e-20
8.98537e-05
-6.9445e-20
8.98537e-05
-8.63969e-20
8.98537e-05
7.07125e-19
8.98537e-05
1.5631e-19
8.98537e-05
-3.95622e-19
8.98537e-05
-4.98756e-20
8.98537e-05
-8.52396e-20
8.98537e-05
1.37619e-19
8.98537e-05
-2.52758e-19
8.98537e-05
7.92111e-20
8.98537e-05
-1.30247e-19
8.98537e-05
4.76722e-19
8.98537e-05
-4.45854e-20
8.98537e-05
-4.03568e-19
8.98537e-05
-1.23043e-19
8.98537e-05
1.56128e-19
8.98537e-05
5.93295e-20
8.98537e-05
-2.62088e-19
8.98537e-05
7.5558e-19
8.98537e-05
-3.9999e-19
8.98537e-05
-1.29872e-19
8.98537e-05
4.12985e-19
8.98537e-05
-1.49768e-19
8.98537e-05
-4.19741e-19
8.98537e-05
1.4085e-19
8.98537e-05
4.2977e-20
8.98537e-05
-4.15e-19
8.98537e-05
9.31195e-19
8.98537e-05
4.57345e-19
8.98537e-05
-6.1718e-19
8.98537e-05
-2.35851e-19
8.98537e-05
-1.45241e-19
8.98537e-05
-1.86943e-19
8.98537e-05
3.04945e-19
8.98537e-05
7.80985e-19
8.98537e-05
-6.08484e-19
8.98537e-05
-2.6877e-19
8.98537e-05
-2.42841e-19
8.98537e-05
5.43493e-19
8.98537e-05
7.75213e-19
8.98537e-05
-1.09597e-18
8.98537e-05
-3.9732e-19
8.98537e-05
6.87007e-19
8.98537e-05
8.7154e-19
8.98537e-05
-8.45489e-19
8.98537e-05
7.98127e-20
8.98537e-05
2.97162e-19
8.98537e-05
-1.55171e-19
8.98537e-05
-4.94626e-21
8.98537e-05
-5.82526e-19
8.98537e-05
2.34544e-19
8.98537e-05
5.39701e-19
8.98537e-05
2.35189e-19
8.98537e-05
-7.56516e-19
8.98537e-05
-2.81901e-19
8.98537e-05
9.21199e-19
8.98537e-05
-6.53877e-20
8.98537e-05
-4.21709e-19
8.98537e-05
-9.50468e-20
8.98537e-05
3.69988e-19
8.98537e-05
1.57733e-19
8.98537e-05
1.32841e-19
8.98537e-05
-4.52037e-19
8.98537e-05
-3.47831e-19
8.98537e-05
1.0397e-18
8.98537e-05
1.90553e-19
8.98537e-05
-1.08229e-18
8.98537e-05
-2.66474e-19
8.98537e-05
1.48673e-18
8.98537e-05
-1.16453e-19
8.98537e-05
-2.40712e-19
8.98537e-05
-7.86861e-20
8.98537e-05
-4.30024e-19
8.98537e-05
6.84948e-19
8.98537e-05
-5.07022e-19
8.98537e-05
-3.80398e-19
8.98537e-05
-1.11495e-19
8.98537e-05
4.28975e-19
8.98537e-05
1.04947e-19
8.98537e-05
-3.03034e-19
8.98537e-05
1.21108e-19
8.98537e-05
-2.10848e-19
8.98537e-05
5.6659e-19
8.98537e-05
-1.09968e-19
8.98537e-05
-4.69701e-21
8.98537e-05
-2.4387e-20
8.98537e-05
3.79428e-19
8.98537e-05
-8.94447e-20
8.98537e-05
-2.53441e-19
8.98537e-05
3.61179e-19
8.98537e-05
1.38236e-19
8.98537e-05
2.75171e-19
8.98537e-05
-1.1876e-18
8.98537e-05
3.86449e-19
8.98537e-05
6.85787e-19
8.98537e-05
1.22673e-19
8.98537e-05
-1.32158e-19
8.98537e-05
-8.39885e-19
8.98537e-05
3.53025e-19
8.98537e-05
1.73126e-19
8.98537e-05
-1.41443e-19
8.98537e-05
-1.47525e-19
8.98537e-05
1.7066e-19
8.98537e-05
-1.61903e-19
8.98537e-05
9.32538e-20
8.98537e-05
2.13634e-19
8.98537e-05
-2.30349e-19
8.98537e-05
3.97601e-19
8.98537e-05
2.07618e-19
8.98537e-05
-1.20699e-20
8.98537e-05
-6.09685e-19
8.98537e-05
4.02352e-19
8.98537e-05
2.12045e-19
8.98537e-05
-1.10827e-19
8.98537e-05
9.83103e-20
8.98537e-05
-1.59955e-19
8.98537e-05
2.74363e-19
8.98537e-05
-6.52824e-19
8.98537e-05
1.37556e-19
8.98537e-05
6.15754e-20
8.98537e-05
3.22538e-20
8.98537e-05
4.17188e-19
8.98537e-05
-6.45862e-19
8.98537e-05
-3.12816e-19
8.98537e-05
5.0051e-19
8.98537e-05
1.78732e-19
8.98537e-05
-6.55982e-19
8.98537e-05
-5.52816e-20
8.98537e-05
-2.55959e-19
8.98537e-05
-2.74855e-19
8.98537e-05
-2.20473e-19
8.98537e-05
-1.32571e-18
-2.60117e-18
0.000148127
-4.86002e-18
0.000148127
-2.72871e-18
0.000148127
-1.36231e-18
0.000148127
-6.22597e-19
0.000148127
-2.54331e-19
0.000148127
-1.97949e-19
0.000148127
-1.43552e-19
0.000148127
-3.47541e-20
0.000148127
-1.08516e-19
0.000148127
-1.55415e-19
0.000148127
-2.17672e-19
0.000148127
-2.30021e-19
0.000148127
-1.97246e-19
0.000148127
-1.32553e-19
0.000148127
-7.27151e-20
0.000148127
-1.19835e-19
0.000148127
-1.32062e-19
0.000148127
-9.73555e-20
0.000148127
-3.03878e-20
0.000148127
1.32837e-20
0.000148127
-6.8074e-20
0.000148127
1.41618e-20
0.000148127
3.10883e-20
0.000148127
-1.53168e-20
0.000148127
-7.86101e-20
0.000148127
-1.74947e-19
0.000148127
-7.69644e-20
0.000148127
2.55955e-20
0.000148127
-1.3124e-19
0.000148127
-1.24545e-19
0.000148127
-7.92883e-20
0.000148127
-9.67202e-20
0.000148127
-1.10654e-19
0.000148127
-1.66103e-19
0.000148127
-1.6741e-19
0.000148127
-5.77382e-20
0.000148127
-2.19958e-19
0.000148127
-1.16126e-19
0.000148127
-5.65016e-20
0.000148127
-2.23993e-19
0.000148127
-1.24638e-19
0.000148127
-1.30992e-19
0.000148127
-4.05341e-20
0.000148127
1.09459e-19
0.000148127
1.41103e-19
0.000148127
1.5953e-19
0.000148127
3.792e-20
0.000148127
-1.31158e-19
0.000148127
-5.54891e-20
0.000148127
1.25997e-19
0.000148127
1.19289e-19
0.000148127
-2.27972e-20
0.000148127
-1.44512e-19
0.000148127
2.21645e-20
0.000148127
1.07992e-19
0.000148127
1.08278e-20
0.000148127
-1.47805e-20
0.000148127
-1.75411e-19
0.000148127
-1.31174e-19
0.000148127
-1.71657e-20
0.000148127
-4.97511e-20
0.000148127
-2.33837e-20
0.000148127
-6.40305e-20
0.000148127
1.63071e-20
0.000148127
3.15518e-20
0.000148127
2.04874e-20
0.000148127
-1.51101e-19
0.000148127
-1.35453e-19
0.000148127
1.67076e-19
0.000148127
1.21795e-19
0.000148127
9.26056e-20
0.000148127
1.62533e-20
0.000148127
1.95656e-19
0.000148127
2.16678e-20
0.000148127
-2.63562e-19
0.000148127
3.64505e-19
0.000148127
3.16774e-19
0.000148127
-5.55281e-20
0.000148127
-1.84692e-19
0.000148127
4.53083e-20
0.000148127
3.15383e-20
0.000148127
-1.30978e-19
0.000148127
-7.53376e-20
0.000148127
-1.44536e-20
0.000148127
-1.38547e-20
0.000148127
5.27695e-20
0.000148127
-6.8489e-20
0.000148127
2.62639e-20
0.000148127
5.73693e-21
0.000148127
3.51055e-20
0.000148127
2.15813e-19
0.000148127
6.90682e-20
0.000148127
1.7442e-19
0.000148127
1.82088e-19
0.000148127
-9.39916e-21
0.000148127
-2.11643e-19
0.000148127
1.16408e-20
0.000148127
3.78407e-19
0.000148127
-1.01939e-19
0.000148127
-1.62143e-19
0.000148127
2.96049e-19
0.000148127
2.15491e-19
0.000148127
-3.99148e-20
0.000148127
-2.16872e-19
0.000148127
-2.60055e-20
0.000148127
1.06205e-19
0.000148127
-9.4827e-20
0.000148127
-1.29236e-19
0.000148127
2.75978e-19
0.000148127
1.90727e-19
0.000148127
-1.99296e-19
0.000148127
-2.01991e-19
0.000148127
-3.86095e-20
0.000148127
3.12153e-19
0.000148127
2.29065e-19
0.000148127
-2.42626e-19
0.000148127
-2.17351e-19
0.000148127
1.89262e-19
0.000148127
1.98299e-19
0.000148127
3.14387e-20
0.000148127
-8.8762e-20
0.000148127
4.75699e-20
0.000148127
1.5968e-19
0.000148127
-1.37015e-19
0.000148127
-1.14208e-19
0.000148127
1.5992e-19
0.000148127
1.16821e-19
0.000148127
2.07856e-20
0.000148127
1.32154e-19
0.000148127
1.52705e-19
0.000148127
1.87168e-19
0.000148127
-8.1282e-21
0.000148127
2.21117e-19
0.000148127
-8.3847e-20
0.000148127
-1.95665e-19
0.000148127
1.03546e-19
0.000148127
-1.6958e-19
0.000148127
-1.27807e-19
0.000148127
2.74063e-19
0.000148127
7.04241e-20
0.000148127
-4.99114e-19
0.000148127
-4.54924e-19
0.000148127
3.25168e-19
0.000148127
5.36958e-19
0.000148127
-3.04359e-19
0.000148127
-4.14487e-20
0.000148127
6.9512e-19
0.000148127
-8.35311e-20
0.000148127
-2.93211e-19
0.000148127
1.34452e-19
0.000148127
-1.75548e-19
0.000148127
1.45531e-19
0.000148127
2.43602e-19
0.000148127
-4.3812e-19
0.000148127
-5.63647e-20
0.000148127
1.35753e-19
0.000148127
-2.43025e-19
0.000148127
-8.97552e-20
0.000148127
-3.05844e-20
0.000148127
5.756e-19
0.000148127
2.96423e-19
0.000148127
-1.22245e-19
0.000148127
-1.54101e-19
0.000148127
-1.25586e-19
0.000148127
-8.69414e-20
0.000148127
-2.94294e-20
0.000148127
4.66688e-20
0.000148127
-2.72616e-19
0.000148127
3.2218e-19
0.000148127
3.07737e-19
0.000148127
-2.70439e-19
0.000148127
5.57121e-20
0.000148127
3.62651e-19
0.000148127
-4.01941e-20
0.000148127
-2.252e-19
0.000148127
3.21456e-19
0.000148127
5.69983e-19
0.000148127
-7.51548e-20
0.000148127
-1.49076e-19
0.000148127
4.91324e-19
0.000148127
-1.83951e-21
0.000148127
-4.61459e-19
0.000148127
-1.77339e-19
0.000148127
-2.18197e-19
0.000148127
6.81614e-21
0.000148127
-2.02047e-19
0.000148127
-4.56302e-19
0.000148127
-3.45169e-19
0.000148127
1.8244e-20
0.000148127