/*--------------------------------*- C++ -*----------------------------------*\
| =========                 |                                                 |
| \\      /  F ield         | OpenFOAM: The Open Source CFD Toolbox           |
|  \\    /   O peration     | Version:  2112                                  |
|   \\  /    A nd           | Website:  www.openfoam.com                      |
|    \\/     M anipulation  |                                                 |
\*---------------------------------------------------------------------------*/
FoamFile
{
    version     2.0;
    format      ascii;
    arch        "LSB;label=32;scalar=64";
    class       surfaceScalarField;
    location    "6";
    object      phi;
}
// * * * * * * * * * * * * * * * * * * * * * * * * * * * * * * * * * * * * * //

dimensions      [0 3 -1 0 0 0 0];

oriented        oriented;

internalField   nonuniform List<scalar> 
50800
(
2.34305e-05
7.23687e-19
2.34305e-05
1.53513e-19
2.34305e-05
1.00941e-19
2.34305e-05
3.8543e-20
2.34305e-05
4.30473e-20
2.34305e-05
3.00885e-20
2.34305e-05
4.71598e-21
2.34305e-05
6.82374e-21
2.34305e-05
6.35172e-22
2.34305e-05
-2.79009e-21
2.34305e-05
1.76359e-21
2.34305e-05
-1.57026e-20
2.34305e-05
1.14587e-20
2.34305e-05
1.27573e-20
2.34305e-05
2.57209e-21
2.34305e-05
2.76565e-20
2.34305e-05
1.59016e-20
2.34305e-05
-1.60869e-21
2.34305e-05
-4.61531e-21
2.34305e-05
-8.54067e-22
2.34305e-05
2.47108e-20
2.34305e-05
1.48947e-20
2.34305e-05
8.47445e-21
2.34305e-05
-3.51892e-21
2.34305e-05
-1.73476e-20
2.34305e-05
-8.11031e-22
2.34305e-05
2.91769e-20
2.34305e-05
7.23708e-21
2.34305e-05
-1.12564e-20
2.34305e-05
-4.92915e-21
2.34305e-05
1.06913e-20
2.34305e-05
3.30208e-20
2.34305e-05
5.09305e-21
2.34305e-05
-1.36831e-20
2.34305e-05
-6.10388e-21
2.34305e-05
-1.61803e-20
2.34305e-05
1.5824e-20
2.34305e-05
-1.58113e-20
2.34305e-05
-3.10527e-20
2.34305e-05
3.31428e-20
2.34305e-05
8.81366e-21
2.34305e-05
7.09927e-21
2.34305e-05
-4.71356e-21
2.34305e-05
-2.87435e-20
2.34305e-05
1.21466e-20
2.34305e-05
-4.54205e-21
2.34305e-05
1.01318e-20
2.34305e-05
1.19117e-20
2.34305e-05
2.59802e-21
2.34305e-05
9.45058e-21
2.34305e-05
-3.30713e-20
2.34305e-05
1.38227e-20
2.34305e-05
4.28063e-21
2.34305e-05
5.72885e-21
2.34305e-05
4.68193e-20
2.34305e-05
-3.2507e-20
2.34305e-05
-4.94999e-22
2.34305e-05
-7.2368e-21
2.34305e-05
-1.99633e-21
2.34305e-05
3.93057e-20
2.34305e-05
-5.1077e-20
2.34305e-05
3.17356e-20
2.34305e-05
-7.05218e-22
2.34305e-05
-4.06579e-21
2.34305e-05
4.25197e-20
2.34305e-05
-5.20767e-20
2.34305e-05
3.89105e-21
2.34305e-05
-4.26589e-21
2.34305e-05
6.53195e-21
2.34305e-05
2.98755e-20
2.34305e-05
-2.48167e-20
2.34305e-05
-9.78179e-21
2.34305e-05
-2.25184e-20
2.34305e-05
-1.42729e-20
2.34305e-05
6.5098e-20
2.34305e-05
-3.48394e-20
2.34305e-05
-6.29093e-20
2.34305e-05
2.70238e-20
2.34305e-05
8.37024e-22
2.34305e-05
4.47316e-20
2.34305e-05
-1.56797e-20
2.34305e-05
-7.11008e-20
2.34305e-05
1.42136e-20
2.34305e-05
1.86876e-20
2.34305e-05
2.48668e-20
2.34305e-05
-1.15474e-20
2.34305e-05
-2.85584e-20
2.34305e-05
-1.84323e-20
2.34305e-05
1.25152e-20
2.34305e-05
6.64928e-20
2.34305e-05
-1.69915e-20
2.34305e-05
-5.84012e-20
2.34305e-05
-2.18219e-21
2.34305e-05
3.96523e-20
2.34305e-05
4.16093e-21
2.34305e-05
-6.27081e-20
2.34305e-05
-3.82021e-21
2.34305e-05
-2.26394e-20
2.34305e-05
3.58917e-20
2.34305e-05
3.9964e-20
2.34305e-05
-5.23849e-20
2.34305e-05
2.54234e-20
2.34305e-05
-3.5185e-20
2.34305e-05
1.0457e-20
2.34305e-05
3.4743e-20
2.34305e-05
5.35715e-21
2.34305e-05
-6.01635e-20
2.34305e-05
-2.78878e-20
2.34305e-05
5.02632e-20
2.34305e-05
3.33957e-20
2.34305e-05
5.03e-20
2.34305e-05
-1.38835e-19
2.34305e-05
9.45127e-21
2.34305e-05
1.11227e-19
2.34305e-05
2.9332e-20
2.34305e-05
-2.88825e-21
2.34305e-05
-1.04884e-19
2.34305e-05
-1.57888e-20
2.34305e-05
8.57085e-20
2.34305e-05
4.48393e-20
2.34305e-05
-3.50018e-20
2.34305e-05
-1.10439e-19
2.34305e-05
-2.89359e-20
2.34305e-05
1.32772e-19
2.34305e-05
6.25946e-20
2.34305e-05
-4.58729e-20
2.34305e-05
-1.30972e-19
2.34305e-05
1.35512e-20
2.34305e-05
1.34596e-19
2.34305e-05
2.01164e-20
2.34305e-05
-3.30107e-20
2.34305e-05
-8.11898e-20
2.34305e-05
1.63681e-20
2.34305e-05
8.92932e-20
2.34305e-05
5.07414e-21
2.34305e-05
3.01937e-21
2.34305e-05
-6.66996e-20
2.34305e-05
1.76234e-23
2.34305e-05
9.43058e-20
2.34305e-05
1.86693e-20
2.34305e-05
-3.55695e-20
2.34305e-05
-7.23652e-20
2.34305e-05
2.30896e-20
2.34305e-05
4.98427e-20
2.34305e-05
-6.22154e-21
2.34305e-05
8.30887e-21
2.34305e-05
-5.93949e-20
2.34305e-05
1.58187e-20
2.34305e-05
6.74209e-21
2.34305e-05
-1.38207e-20
2.34305e-05
7.27649e-20
2.34305e-05
-8.30549e-20
2.34305e-05
-7.40333e-20
2.34305e-05
4.8204e-20
2.34305e-05
3.99942e-20
2.34305e-05
4.29182e-20
2.34305e-05
-6.70235e-20
2.34305e-05
-7.08068e-20
2.34305e-05
1.73429e-20
2.34305e-05
1.36832e-20
2.34305e-05
9.90653e-20
2.34305e-05
-9.21257e-20
2.34305e-05
-2.9531e-20
2.34305e-05
9.87779e-20
2.34305e-05
-8.90155e-20
2.34305e-05
3.5963e-20
2.34305e-05
-2.16171e-20
2.34305e-05
-6.79264e-20
2.34305e-05
6.31361e-20
2.34305e-05
1.99675e-21
2.34305e-05
1.25689e-20
2.34305e-05
-9.49797e-20
2.34305e-05
-1.68426e-22
2.34305e-05
6.92651e-20
2.34305e-05
-3.67429e-21
2.34305e-05
-1.29085e-21
2.34305e-05
-7.41579e-20
2.34305e-05
9.37373e-20
2.34305e-05
-2.95868e-20
2.34305e-05
-9.67876e-21
2.34305e-05
1.20993e-19
2.34305e-05
-1.43752e-19
2.34305e-05
-5.37833e-21
2.34305e-05
7.50777e-20
2.34305e-05
-2.62385e-20
2.34305e-05
1.14464e-19
2.34305e-05
-9.05426e-20
2.34305e-05
-1.17216e-20
2.34305e-05
1.10377e-19
2.34305e-05
-8.67678e-20
2.34305e-05
3.43225e-20
2.34305e-05
-9.84987e-21
2.34305e-05
-7.42954e-20
2.34305e-05
9.86888e-20
2.34305e-05
-1.79285e-20
2.34305e-05
2.42835e-20
2.34305e-05
-5.53786e-20
2.34305e-05
-4.26736e-20
2.34305e-05
1.43782e-19
2.34305e-05
-6.53697e-20
2.34305e-05
9.05877e-21
2.34305e-05
-5.59346e-20
2.34305e-05
5.09207e-21
2.34305e-05
1.65165e-19
2.34305e-05
-5.40295e-20
2.34305e-05
-7.4177e-20
2.34305e-05
-6.02539e-20
2.34305e-05
5.77269e-20
2.34305e-05
6.77045e-20
2.34305e-05
-3.68318e-20
2.34305e-05
-3.98725e-20
2.34305e-05
-1.06276e-19
2.34305e-05
2.14354e-19
2.34305e-05
1.54138e-20
2.34305e-05
-2.24338e-19
2.34305e-05
1.67965e-19
2.34305e-05
-2.63491e-20
2.34305e-05
-4.98634e-20
2.34305e-05
-1.51861e-20
2.34305e-05
-1.56752e-19
2.34305e-05
2.21017e-19
2.34305e-05
4.34309e-20
2.34305e-05
-9.17297e-20
2.34305e-05
-3.11685e-20
2.34305e-05
-1.61436e-19
2.34305e-05
2.30332e-19
2.34305e-05
1.49976e-20
2.34305e-05
-8.12514e-20
2.34305e-05
5.98123e-20
2.34305e-05
-1.24037e-19
2.34305e-05
1.33951e-19
2.34305e-05
-5.27327e-20
2.34305e-05
-3.8446e-20
2.34305e-05
7.64698e-20
2.34305e-05
-1.71721e-19
2.34305e-05
5.66055e-20
2.34305e-05
-5.45699e-21
2.34305e-05
2.41932e-20
2.34305e-05
8.98541e-20
2.34305e-05
-1.83596e-19
2.34305e-05
9.93205e-20
2.34305e-05
-5.96069e-20
2.34305e-05
-5.47685e-21
2.34305e-05
1.238e-19
2.34305e-05
-2.54903e-19
2.34305e-05
3.51954e-20
2.34305e-05
5.22449e-20
2.34305e-05
5.86661e-20
2.34305e-05
3.7856e-20
2.34305e-05
-1.86013e-19
2.34305e-05
1.95079e-19
2.34305e-05
1.84096e-20
2.34305e-05
-1.01266e-19
2.34305e-05
-1.30724e-20
2.34305e-05
-1.52519e-19
2.34305e-05
2.6389e-19
2.34305e-05
-1.11028e-21
2.34305e-05
-5.1893e-20
2.34305e-05
1.04088e-19
2.34305e-05
-1.97645e-19
2.34305e-05
1.00849e-19
2.34305e-05
1.30999e-20
2.34305e-05
-1.71167e-20
2.34305e-05
4.93816e-20
2.34305e-05
-1.28975e-19
2.34305e-05
1.5454e-19
2.34305e-05
1.0994e-20
2.34305e-05
-2.46823e-20
2.34305e-05
8.29247e-21
2.34305e-05
-1.57507e-19
2.34305e-05
1.0438e-19
2.34305e-05
7.18044e-21
2.34305e-05
2.68975e-20
2.34305e-05
5.12697e-20
2.34305e-05
-1.36498e-19
2.34305e-05
1.05955e-19
2.34305e-05
2.75587e-20
2.34305e-05
-4.06392e-20
2.34305e-05
1.0874e-19
2.34305e-05
-1.34617e-19
2.34305e-05
4.01631e-20
2.34305e-05
3.50575e-20
2.34305e-05
-2.18943e-20
2.34305e-05
4.00852e-20
2.34305e-05
-1.54883e-19
2.34305e-05
2.62399e-20
2.34305e-05
9.12649e-20
2.34305e-05
-2.08992e-20
2.34305e-05
-8.73786e-20
2.34305e-05
-1.14602e-19
2.34305e-05
1.47668e-19
2.34305e-05
4.34889e-20
2.34305e-05
-5.0619e-20
2.34305e-05
-4.24681e-20
2.34305e-05
-4.76247e-20
2.34305e-05
1.24144e-19
2.34305e-05
1.93358e-20
2.34305e-05
-1.13606e-20
2.34305e-05
-8.01891e-20
2.34305e-05
-5.56815e-20
2.34305e-05
1.34146e-19
2.34305e-05
2.84234e-20
2.34305e-05
5.32285e-20
2.34305e-05
-1.25281e-19
2.34305e-05
-1.15647e-19
2.34305e-05
8.82314e-20
2.34305e-05
1.22205e-20
2.34305e-05
9.48983e-20
2.34305e-05
-9.65448e-20
2.34305e-05
6.18163e-21
2.34305e-05
7.00543e-20
2.34305e-05
-1.05718e-19
2.34305e-05
1.12956e-19
2.34305e-05
-3.75545e-21
2.34305e-05
-5.61631e-20
2.34305e-05
9.49918e-20
2.34305e-05
-4.13748e-20
2.34305e-05
1.47978e-19
2.34305e-05
1.16438e-19
8.40854e-20
6.912e-05
3.30479e-19
6.912e-05
2.04205e-19
6.912e-05
1.29848e-19
6.912e-05
9.60246e-20
6.912e-05
9.91622e-20
6.912e-05
7.91452e-20
6.912e-05
-1.08415e-21
6.912e-05
1.48237e-20
6.912e-05
-2.1338e-21
6.912e-05
-1.57189e-20
6.912e-05
-1.90574e-20
6.912e-05
-3.07401e-20
6.912e-05
4.11539e-20
6.912e-05
1.90434e-20
6.912e-05
1.61112e-20
6.912e-05
9.77903e-20
6.912e-05
5.93132e-20
6.912e-05
4.13675e-21
6.912e-05
-1.40264e-20
6.912e-05
1.6949e-20
6.912e-05
7.44658e-20
6.912e-05
2.27272e-20
6.912e-05
4.41986e-20
6.912e-05
7.28208e-23
6.912e-05
-3.36702e-20
6.912e-05
-1.18015e-20
6.912e-05
5.44955e-20
6.912e-05
3.5024e-20
6.912e-05
-1.01829e-20
6.912e-05
-5.4133e-21
6.912e-05
2.4352e-20
6.912e-05
8.8559e-20
6.912e-05
7.00941e-21
6.912e-05
-4.21964e-20
6.912e-05
-2.10358e-20
6.912e-05
-2.06545e-20
6.912e-05
3.23483e-20
6.912e-05
-3.98926e-20
6.912e-05
-6.97155e-20
6.912e-05
4.9284e-20
6.912e-05
1.70744e-20
6.912e-05
9.06117e-21
6.912e-05
-2.71234e-21
6.912e-05
-7.38868e-20
6.912e-05
8.46929e-21
6.912e-05
9.78405e-21
6.912e-05
2.34739e-20
6.912e-05
2.7783e-20
6.912e-05
2.83825e-21
6.912e-05
2.57448e-20
6.912e-05
-5.39101e-20
6.912e-05
1.85682e-20
6.912e-05
1.28726e-20
6.912e-05
3.76318e-20
6.912e-05
1.15336e-19
6.912e-05
-3.48253e-20
6.912e-05
-1.40585e-21
6.912e-05
-4.11061e-21
6.912e-05
9.0471e-21
6.912e-05
6.8822e-20
6.912e-05
-1.35979e-19
6.912e-05
5.62214e-20
6.912e-05
2.58576e-20
6.912e-05
-2.91913e-20
6.912e-05
8.33812e-20
6.912e-05
-7.78149e-20
6.912e-05
-1.45238e-20
6.912e-05
-1.68297e-20
6.912e-05
1.74101e-20
6.912e-05
7.73898e-20
6.912e-05
-6.67432e-20
6.912e-05
-5.54684e-20
6.912e-05
-7.49118e-20
6.912e-05
-1.26477e-20
6.912e-05
1.50679e-19
6.912e-05
-9.16095e-20
6.912e-05
-1.3422e-19
6.912e-05
3.0149e-20
6.912e-05
-9.01234e-21
6.912e-05
7.24862e-20
6.912e-05
-3.81252e-20
6.912e-05
-1.72028e-19
6.912e-05
2.82403e-21
6.912e-05
5.08196e-20
6.912e-05
4.82691e-20
6.912e-05
-2.6485e-20
6.912e-05
-4.74476e-20
6.912e-05
-6.13382e-20
6.912e-05
-1.69042e-20
6.912e-05
1.66395e-19
6.912e-05
-3.59023e-20
6.912e-05
-1.34233e-19
6.912e-05
-5.14869e-21
6.912e-05
6.03844e-20
6.912e-05
-2.64365e-21
6.912e-05
-1.3558e-19
6.912e-05
-3.28837e-20
6.912e-05
-4.77871e-20
6.912e-05
7.25369e-20
6.912e-05
6.54936e-20
6.912e-05
-6.49268e-20
6.912e-05
2.11988e-20
6.912e-05
-6.02258e-20
6.912e-05
1.39426e-20
6.912e-05
8.48518e-20
6.912e-05
6.06551e-20
6.912e-05
-1.42943e-19
6.912e-05
-1.12553e-19
6.912e-05
1.27682e-19
6.912e-05
1.35956e-19
6.912e-05
6.50382e-20
6.912e-05
-2.92933e-19
6.912e-05
6.11713e-21
6.912e-05
2.51165e-19
6.912e-05
1.18655e-19
6.912e-05
2.5004e-21
6.912e-05
-2.52937e-19
6.912e-05
-1.10294e-19
6.912e-05
2.39432e-19
6.912e-05
1.62e-19
6.912e-05
-1.28844e-19
6.912e-05
-2.74508e-19
6.912e-05
-6.43137e-20
6.912e-05
2.96719e-19
6.912e-05
2.07655e-19
6.912e-05
-1.15087e-19
6.912e-05
-3.30002e-19
6.912e-05
4.44995e-20
6.912e-05
3.2157e-19
6.912e-05
5.07515e-20
6.912e-05
-8.27386e-20
6.912e-05
-1.65977e-19
6.912e-05
1.55342e-20
6.912e-05
2.15908e-19
6.912e-05
5.84228e-20
6.912e-05
-6.75448e-21
6.912e-05
-1.64817e-19
6.912e-05
-3.70594e-20
6.912e-05
2.51789e-19
6.912e-05
6.96324e-20
6.912e-05
-8.31263e-20
6.912e-05
-1.53729e-19
6.912e-05
2.82763e-20
6.912e-05
1.22089e-19
6.912e-05
-8.70635e-21
6.912e-05
-1.12929e-20
6.912e-05
-1.58241e-19
6.912e-05
3.81904e-20
6.912e-05
3.104e-20
6.912e-05
-3.84966e-20
6.912e-05
1.23438e-19
6.912e-05
-1.71015e-19
6.912e-05
-1.5399e-19
6.912e-05
9.16259e-20
6.912e-05
1.02916e-19
6.912e-05
8.21621e-20
6.912e-05
-1.43296e-19
6.912e-05
-1.884e-19
6.912e-05
1.12308e-20
6.912e-05
9.27483e-20
6.912e-05
1.84755e-19
6.912e-05
-1.85533e-19
6.912e-05
-6.2734e-20
6.912e-05
1.8966e-19
6.912e-05
-1.67256e-19
6.912e-05
2.91814e-20
6.912e-05
-4.97188e-20
6.912e-05
-1.16684e-19
6.912e-05
1.04882e-19
6.912e-05
1.52657e-20
6.912e-05
-2.6949e-20
6.912e-05
-2.06709e-19
6.912e-05
-2.6223e-20
6.912e-05
1.59212e-19
6.912e-05
5.56826e-20
6.912e-05
-5.43273e-20
6.912e-05
-1.27119e-19
6.912e-05
1.38617e-19
6.912e-05
-5.69899e-20
6.912e-05
8.01507e-20
6.912e-05
1.96024e-19
6.912e-05
-2.97012e-19
6.912e-05
-1.46061e-20
6.912e-05
1.8903e-19
6.912e-05
3.23215e-20
6.912e-05
1.84654e-19
6.912e-05
-1.50791e-19
6.912e-05
-4.11675e-20
6.912e-05
2.13439e-19
6.912e-05
-9.3821e-20
6.912e-05
1.45538e-20
6.912e-05
-3.59685e-20
6.912e-05
-1.15149e-19
6.912e-05
1.49624e-19
6.912e-05
2.32023e-20
6.912e-05
3.28482e-20
6.912e-05
-9.06493e-20
6.912e-05
-8.33681e-20
6.912e-05
1.97238e-19
6.912e-05
-2.83775e-20
6.912e-05
2.32672e-20
6.912e-05
-9.18438e-20
6.912e-05
6.12641e-20
6.912e-05
2.58767e-19
6.912e-05
-5.7623e-20
6.912e-05
-1.41176e-19
6.912e-05
-1.70174e-19
6.912e-05
9.63285e-20
6.912e-05
1.0782e-19
6.912e-05
-5.76245e-20
6.912e-05
-5.38933e-20
6.912e-05
-1.85209e-19
6.912e-05
4.18008e-19
6.912e-05
4.76733e-20
6.912e-05
-4.23592e-19
6.912e-05
2.66079e-19
6.912e-05
-9.25614e-20
6.912e-05
-6.34594e-20
6.912e-05
-7.06438e-20
6.912e-05
-3.33405e-19
6.912e-05
4.58473e-19
6.912e-05
9.36057e-20
6.912e-05
-1.44542e-19
6.912e-05
-9.24997e-20
6.912e-05
-3.63273e-19
6.912e-05
4.70136e-19
6.912e-05
6.47567e-20
6.912e-05
-1.39923e-19
6.912e-05
8.60055e-20
6.912e-05
-2.53346e-19
6.912e-05
2.58144e-19
6.912e-05
-9.75518e-20
6.912e-05
-1.0218e-19
6.912e-05
9.16038e-20
6.912e-05
-3.62598e-19
6.912e-05
9.14368e-20
6.912e-05
-3.54066e-20
6.912e-05
1.21585e-19
6.912e-05
1.90753e-19
6.912e-05
-4.21312e-19
6.912e-05
1.29581e-19
6.912e-05
-1.49754e-19
6.912e-05
1.29021e-20
6.912e-05
2.21159e-19
6.912e-05
-5.80128e-19
6.912e-05
7.84145e-20
6.912e-05
1.12802e-19
6.912e-05
1.44943e-19
6.912e-05
7.2413e-20
6.912e-05
-3.6554e-19
6.912e-05
4.53303e-19
6.912e-05
5.78589e-20
6.912e-05
-2.43969e-19
6.912e-05
-1.41777e-19
6.912e-05
-2.86956e-19
6.912e-05
6.32118e-19
6.912e-05
3.48317e-20
6.912e-05
-9.80646e-20
6.912e-05
1.92932e-19
6.912e-05
-4.21049e-19
6.912e-05
1.77909e-19
6.912e-05
4.93015e-20
6.912e-05
3.02269e-20
6.912e-05
7.00257e-20
6.912e-05
-2.45621e-19
6.912e-05
3.38109e-19
6.912e-05
2.3559e-20
6.912e-05
-4.38399e-20
6.912e-05
1.68053e-20
6.912e-05
-3.75723e-19
6.912e-05
2.01544e-19
6.912e-05
3.29703e-20
6.912e-05
1.09438e-19
6.912e-05
9.63985e-20
6.912e-05
-3.43521e-19
6.912e-05
2.71832e-19
6.912e-05
5.64672e-20
6.912e-05
-9.64225e-22
6.912e-05
1.90087e-19
6.912e-05
-3.62603e-19
6.912e-05
1.25355e-19
6.912e-05
4.77041e-20
6.912e-05
1.55636e-21
6.912e-05
6.61084e-20
6.912e-05
-4.23101e-19
6.912e-05
1.05745e-19
6.912e-05
1.78996e-19
6.912e-05
-7.92185e-20
6.912e-05
-2.00466e-19
6.912e-05
-2.5575e-19
6.912e-05
3.18689e-19
6.912e-05
9.63934e-20
6.912e-05
-1.41206e-19
6.912e-05
-2.865e-20
6.912e-05
-1.39716e-19
6.912e-05
2.35078e-19
6.912e-05
1.4333e-19
6.912e-05
-1.0705e-19
6.912e-05
-1.33599e-19
6.912e-05
-1.79888e-19
6.912e-05
2.65723e-19
6.912e-05
1.98536e-19
6.912e-05
5.07935e-20
6.912e-05
-3.17049e-19
6.912e-05
-2.93423e-19
6.912e-05
2.24034e-19
6.912e-05
8.78876e-20
6.912e-05
1.28242e-19
6.912e-05
-1.98919e-19
6.912e-05
7.76483e-21
6.912e-05
1.83394e-19
6.912e-05
-1.88682e-19
6.912e-05
1.59542e-19
6.912e-05
4.73234e-20
6.912e-05
-9.9191e-20
6.912e-05
1.58446e-19
6.912e-05
-4.97158e-20
6.912e-05
3.48552e-19
6.912e-05
1.9781e-19
7.04444e-20
0.000113638
1.94444e-19
0.000113638
1.79681e-19
0.000113638
1.38526e-19
0.000113638
1.31683e-19
0.000113638
1.4886e-19
0.000113638
1.05103e-19
0.000113638
2.69612e-20
0.000113638
6.84487e-22
0.000113638
-5.99409e-22
0.000113638
-3.16127e-20
0.000113638
-2.6909e-20
0.000113638
-2.95065e-20
0.000113638
5.40024e-20
0.000113638
4.28699e-20
0.000113638
3.43629e-20
0.000113638
1.65615e-19
0.000113638
9.0406e-20
0.000113638
1.93498e-20
0.000113638
2.21023e-20
0.000113638
5.21308e-20
0.000113638
1.26573e-19
0.000113638
8.5113e-20
0.000113638
5.0658e-20
0.000113638
-3.52548e-22
0.000113638
-4.72301e-20
0.000113638
-3.07012e-21
0.000113638
8.7753e-20
0.000113638
7.90879e-20
0.000113638
1.35527e-20
0.000113638
-1.31896e-20
0.000113638
5.52938e-20
0.000113638
1.24141e-19
0.000113638
1.9536e-20
0.000113638
-7.36533e-20
0.000113638
-7.80303e-20
0.000113638
-4.56157e-20
0.000113638
4.79881e-20
0.000113638
-5.57731e-20
0.000113638
-1.05958e-19
0.000113638
7.38766e-20
0.000113638
1.99358e-20
0.000113638
-8.93025e-21
0.000113638
3.29803e-20
0.000113638
-1.10285e-19
0.000113638
-1.3351e-20
0.000113638
-4.25122e-21
0.000113638
4.01068e-20
0.000113638
8.38479e-20
0.000113638
7.31164e-21
0.000113638
4.45393e-20
0.000113638
-4.46645e-20
0.000113638
3.19348e-20
0.000113638
4.555e-20
0.000113638
7.25201e-20
0.000113638
1.70489e-19
0.000113638
-1.70539e-20
0.000113638
1.297e-20
0.000113638
-1.39409e-20
0.000113638
1.77357e-20
0.000113638
5.24487e-20
0.000113638
-2.1066e-19
0.000113638
7.74249e-20
0.000113638
5.85204e-20
0.000113638
-1.76513e-20
0.000113638
1.30654e-19
0.000113638
-1.27419e-19
0.000113638
-2.52422e-20
0.000113638
-4.29782e-20
0.000113638
1.76714e-20
0.000113638
1.23775e-19
0.000113638
-9.68776e-20
0.000113638
-1.03323e-19
0.000113638
-1.35538e-19
0.000113638
-2.01902e-21
0.000113638
1.85869e-19
0.000113638
-1.24357e-19
0.000113638
-1.99076e-19
0.000113638
2.36559e-20
0.000113638
-3.93672e-20
0.000113638
8.07064e-20
0.000113638
-5.54729e-20
0.000113638
-2.37914e-19
0.000113638
-2.5988e-20
0.000113638
3.89237e-20
0.000113638
9.42484e-20
0.000113638
-5.04267e-20
0.000113638
-7.07592e-20
0.000113638
-8.30676e-20
0.000113638
-5.16886e-20
0.000113638
2.21229e-19
0.000113638
-2.34023e-20
0.000113638
-1.63837e-19
0.000113638
-4.38565e-20
0.000113638
5.91381e-20
0.000113638
-3.84902e-21
0.000113638
-2.07153e-19
0.000113638
-1.11245e-19
0.000113638
-7.30388e-20
0.000113638
7.05361e-20
0.000113638
9.09386e-20
0.000113638
-4.09149e-20
0.000113638
1.72069e-20
0.000113638
-9.68255e-20
0.000113638
-5.91287e-21
0.000113638
1.46233e-19
0.000113638
1.06984e-19
0.000113638
-2.04767e-19
0.000113638
-2.01955e-19
0.000113638
1.65889e-19
0.000113638
2.50816e-19
0.000113638
1.05221e-19
0.000113638
-3.85597e-19
0.000113638
-2.48721e-20
0.000113638
3.94169e-19
0.000113638
2.41078e-19
0.000113638
1.60089e-20
0.000113638
-4.17504e-19
0.000113638
-1.93469e-19
0.000113638
3.88213e-19
0.000113638
2.68833e-19
0.000113638
-2.31899e-19
0.000113638
-4.47096e-19
0.000113638
-1.03064e-19
0.000113638
4.68473e-19
0.000113638
3.67569e-19
0.000113638
-1.72565e-19
0.000113638
-5.10325e-19
0.000113638
4.6038e-20
0.000113638
5.55141e-19
0.000113638
1.37403e-19
0.000113638
-1.31335e-19
0.000113638
-2.4632e-19
0.000113638
-3.51152e-20
0.000113638
3.40017e-19
0.000113638
1.55526e-19
0.000113638
-7.76097e-21
0.000113638
-2.63252e-19
0.000113638
-5.64615e-20
0.000113638
4.09781e-19
0.000113638
1.06043e-19
0.000113638
-1.46083e-19
0.000113638
-2.4294e-19
0.000113638
5.74824e-20
0.000113638
1.51893e-19
0.000113638
-2.61733e-21
0.000113638
-3.21389e-21
0.000113638
-2.49116e-19
0.000113638
6.8699e-20
0.000113638
5.4161e-20
0.000113638
-8.56108e-20
0.000113638
1.24126e-19
0.000113638
-2.22328e-19
0.000113638
-1.92761e-19
0.000113638
9.80603e-20
0.000113638
1.76959e-19
0.000113638
9.37849e-20
0.000113638
-2.43703e-19
0.000113638
-2.87495e-19
0.000113638
-1.08986e-20
0.000113638
1.61289e-19
0.000113638
2.3071e-19
0.000113638
-2.60822e-19
0.000113638
-8.71628e-20
0.000113638
2.44354e-19
0.000113638
-1.93991e-19
0.000113638
-6.1196e-21
0.000113638
-7.58865e-20
0.000113638
-1.19223e-19
0.000113638
1.10366e-19
0.000113638
1.87958e-20
0.000113638
-1.02755e-19
0.000113638
-3.74382e-19
0.000113638
-2.43673e-20
0.000113638
3.14363e-19
0.000113638
1.18868e-19
0.000113638
-1.05623e-19
0.000113638
-1.82337e-19
0.000113638
7.87382e-20
0.000113638
-2.83654e-20
0.000113638
2.34033e-19
0.000113638
2.37628e-19
0.000113638
-4.20176e-19
0.000113638
-6.56488e-21
0.000113638
3.36178e-19
0.000113638
1.16853e-19
0.000113638
1.72774e-19
0.000113638
-1.49339e-19
0.000113638
-1.71635e-21
0.000113638
2.95824e-19
0.000113638
-7.22784e-20
0.000113638
-3.81516e-20
0.000113638
-8.43232e-20
0.000113638
-1.53632e-19
0.000113638
1.35043e-19
0.000113638
1.35353e-19
0.000113638
3.80776e-20
0.000113638
-1.37532e-19
0.000113638
-1.0372e-19
0.000113638
2.06849e-19
0.000113638
5.37168e-20
0.000113638
3.56636e-20
0.000113638
-1.08122e-19
0.000113638
1.22751e-19
0.000113638
2.88327e-19
0.000113638
-2.15486e-20
0.000113638
-1.55153e-19
0.000113638
-2.57179e-19
0.000113638
5.88244e-20
0.000113638
7.16143e-20
0.000113638
-4.58714e-20
0.000113638
-3.42492e-20
0.000113638
-2.60241e-19
0.000113638
5.65127e-19
0.000113638
8.28885e-20
0.000113638
-5.49692e-19
0.000113638
2.7507e-19
0.000113638
-1.80723e-19
0.000113638
-3.0461e-20
0.000113638
-1.59302e-19
0.000113638
-5.00461e-19
0.000113638
6.13097e-19
0.000113638
1.19725e-19
0.000113638
-1.10758e-19
0.000113638
-1.11263e-19
0.000113638
-5.32585e-19
0.000113638
6.0267e-19
0.000113638
1.435e-19
0.000113638
-1.64988e-19
0.000113638
9.16158e-20
0.000113638
-4.09031e-19
0.000113638
3.27925e-19
0.000113638
-8.92056e-20
0.000113638
-2.0581e-19
0.000113638
6.22522e-20
0.000113638
-4.98548e-19
0.000113638
6.30646e-20
0.000113638
-1.06341e-19
0.000113638
2.42271e-19
0.000113638
2.87777e-19
0.000113638
-6.11557e-19
0.000113638
1.14787e-19
0.000113638
-2.63411e-19
0.000113638
2.98602e-20
0.000113638
2.61908e-19
0.000113638
-8.56666e-19
0.000113638
9.27376e-20
0.000113638
1.24284e-19
0.000113638
1.91571e-19
0.000113638
1.3516e-19
0.000113638
-4.89084e-19
0.000113638
6.89799e-19
0.000113638
1.11901e-19
0.000113638
-4.18139e-19
0.000113638
-2.90065e-19
0.000113638
-3.24388e-19
0.000113638
9.30681e-19
0.000113638
8.88562e-20
0.000113638
-7.88149e-20
0.000113638
2.96052e-19
0.000113638
-5.65741e-19
0.000113638
1.79687e-19
0.000113638
4.66085e-20
0.000113638
1.26834e-19
0.000113638
6.13588e-20
0.000113638
-3.46633e-19
0.000113638
5.30883e-19
0.000113638
-1.4407e-20
0.000113638
-2.64933e-20
0.000113638
3.89467e-21
0.000113638
-5.92577e-19
0.000113638
3.40026e-19
0.000113638
4.66493e-20
0.000113638
1.67949e-19
0.000113638
1.41845e-19
0.000113638
-5.02786e-19
0.000113638
4.57527e-19
0.000113638
6.76144e-20
0.000113638
6.73771e-20
0.000113638
2.26946e-19
0.000113638
-5.93721e-19
0.000113638
2.57252e-19
0.000113638
6.22373e-21
0.000113638
-1.43809e-20
0.000113638
1.06919e-19
0.000113638
-6.73502e-19
0.000113638
1.76261e-19
0.000113638
2.25287e-19
0.000113638
-2.12942e-19
0.000113638
-2.90981e-19
0.000113638
-3.91318e-19
0.000113638
4.76622e-19
0.000113638
1.54558e-19
0.000113638
-1.97014e-19
0.000113638
2.02785e-20
0.000113638
-2.612e-19
0.000113638
2.99212e-19
0.000113638
3.06591e-19
0.000113638
-2.02733e-19
0.000113638
-1.61018e-19
0.000113638
-3.05843e-19
0.000113638
3.45003e-19
0.000113638
3.82183e-19
0.000113638
-1.81103e-20
0.000113638
-5.23962e-19
0.000113638
-4.58987e-19
0.000113638
3.65907e-19
0.000113638
1.32464e-19
0.000113638
1.40547e-19
0.000113638
-2.40517e-19
0.000113638
-5.28984e-20
0.000113638
3.41191e-19
0.000113638
-2.24118e-19
0.000113638
1.36613e-19
0.000113638
1.58731e-19
0.000113638
-1.3647e-19
0.000113638
1.6787e-19
0.000113638
-4.76844e-21
0.000113638
5.08156e-19
0.000113638
3.12591e-19
4.47411e-20
0.000156984
1.66221e-19
0.000156984
1.91967e-19
0.000156984
1.73997e-19
0.000156984
1.60998e-19
0.000156984
1.48088e-19
0.000156984
1.3388e-19
0.000156984
2.72294e-20
0.000156984
2.4697e-20
0.000156984
1.275e-20
0.000156984
-4.04737e-20
0.000156984
-9.40237e-20
0.000156984
-9.68397e-21
0.000156984
7.39501e-20
0.000156984
1.01066e-19
0.000156984
7.94948e-20
0.000156984
1.83471e-19
0.000156984
1.57111e-19
0.000156984
5.65946e-20
0.000156984
9.6714e-20
0.000156984
5.08008e-20
0.000156984
1.75976e-19
0.000156984
1.74202e-19
0.000156984
4.27105e-20
0.000156984
1.17191e-20
0.000156984
-6.7631e-20
0.000156984
-1.76027e-20
0.000156984
1.07397e-19
0.000156984
1.22291e-19
0.000156984
5.77849e-20
0.000156984
-4.57707e-20
0.000156984
6.95549e-20
0.000156984
1.86116e-19
0.000156984
5.95964e-20
0.000156984
-8.08242e-20
0.000156984
-1.15288e-19
0.000156984
-9.12205e-20
0.000156984
4.64717e-20
0.000156984
-2.61381e-20
0.000156984
-1.1984e-19
0.000156984
4.89575e-21
0.000156984
1.91093e-20
0.000156984
5.70674e-21
0.000156984
9.99851e-21
0.000156984
-1.38807e-19
0.000156984
-6.09394e-20
0.000156984
-3.84103e-21
0.000156984
7.57285e-20
0.000156984
1.1403e-19
0.000156984
7.25284e-20
0.000156984
3.52174e-20
0.000156984
-3.54455e-21
0.000156984
8.44412e-20
0.000156984
1.11592e-19
0.000156984
1.03606e-19
0.000156984
2.13905e-19
0.000156984
-7.97933e-21
0.000156984
3.1906e-20
0.000156984
3.97646e-20
0.000156984
1.65608e-20
0.000156984
2.30288e-20
0.000156984
-3.20857e-19
0.000156984
7.92686e-20
0.000156984
8.49506e-20
0.000156984
-2.06713e-20
0.000156984
1.36986e-19
0.000156984
-1.25118e-19
0.000156984
-2.61098e-20
0.000156984
-6.3038e-20
0.000156984
4.95667e-21
0.000156984
1.41909e-19
0.000156984
-1.24612e-19
0.000156984
-1.89989e-19
0.000156984
-1.86284e-19
0.000156984
-7.91725e-21
0.000156984
2.06347e-19
0.000156984
-1.35873e-19
0.000156984
-2.3141e-19
0.000156984
1.78566e-20
0.000156984
-9.32687e-20
0.000156984
5.39179e-20
0.000156984
-9.24675e-20
0.000156984
-3.20558e-19
0.000156984
-3.65461e-20
0.000156984
8.87464e-20
0.000156984
9.74331e-20
0.000156984
-8.9874e-20
0.000156984
-9.79188e-20
0.000156984
-1.1893e-19
0.000156984
-1.14312e-19
0.000156984
2.71302e-19
0.000156984
-4.70773e-21
0.000156984
-1.92733e-19
0.000156984
-1.11259e-19
0.000156984
2.31914e-20
0.000156984
-2.67798e-20
0.000156984
-2.83652e-19
0.000156984
-1.50749e-19
0.000156984
-6.97268e-20
0.000156984
7.24922e-20
0.000156984
1.24633e-19
0.000156984
-1.90165e-20
0.000156984
1.32449e-20
0.000156984
-1.30148e-19
0.000156984
-3.14355e-20
0.000156984
1.827e-19
0.000156984
1.396e-19
0.000156984
-2.39345e-19
0.000156984
-2.84406e-19
0.000156984
2.24109e-19
0.000156984
3.75099e-19
0.000156984
1.57343e-19
0.000156984
-4.51855e-19
0.000156984
-1.22383e-20
0.000156984
5.03889e-19
0.000156984
4.01204e-19
0.000156984
-3.87644e-20
0.000156984
-5.37424e-19
0.000156984
-2.28019e-19
0.000156984
5.20146e-19
0.000156984
3.33334e-19
0.000156984
-3.30129e-19
0.000156984
-5.26704e-19
0.000156984
-1.42881e-19
0.000156984
5.62587e-19
0.000156984
5.06985e-19
0.000156984
-1.41661e-19
0.000156984
-6.29216e-19
0.000156984
8.09822e-20
0.000156984
7.05528e-19
0.000156984
1.9513e-19
0.000156984
-1.45352e-19
0.000156984
-3.14692e-19
0.000156984
-8.15934e-20
0.000156984
4.23463e-19
0.000156984
2.49092e-19
0.000156984
-3.0698e-21
0.000156984
-2.98104e-19
0.000156984
-3.52623e-20
0.000156984
4.59863e-19
0.000156984
1.55999e-19
0.000156984
-2.11638e-19
0.000156984
-2.60073e-19
0.000156984
1.4416e-19
0.000156984
1.76901e-19
0.000156984
-2.25278e-20
0.000156984
-4.84139e-20
0.000156984
-2.96536e-19
0.000156984
3.31722e-20
0.000156984
6.82673e-20
0.000156984
-1.4709e-19
0.000156984
1.33669e-19
0.000156984
-2.05526e-19
0.000156984
-2.10179e-19
0.000156984
8.57918e-20
0.000156984
1.81303e-19
0.000156984
1.19932e-19
0.000156984
-3.02869e-19
0.000156984
-3.87737e-19
0.000156984
-2.57695e-20
0.000156984
1.6412e-19
0.000156984
2.33168e-19
0.000156984
-2.8186e-19
0.000156984
-1.00003e-19
0.000156984
2.40804e-19
0.000156984
-2.47393e-19
0.000156984
-3.99906e-20
0.000156984
-1.03249e-19
0.000156984
-1.25678e-19
0.000156984
1.16426e-19
0.000156984
4.64074e-20
0.000156984
-1.74162e-19
0.000156984
-5.77522e-19
0.000156984
3.80336e-20
0.000156984
5.21005e-19
0.000156984
7.57386e-20
0.000156984
-1.35008e-19
0.000156984
-2.29642e-19
0.000156984
9.86892e-21
0.000156984
1.70747e-20
0.000156984
3.99772e-19
0.000156984
2.90028e-19
0.000156984
-5.23722e-19
0.000156984
-2.92113e-20
0.000156984
4.31627e-19
0.000156984
2.32199e-19
0.000156984
1.87718e-19
0.000156984
-1.95824e-19
0.000156984
7.06415e-20
0.000156984
3.74035e-19
0.000156984
-7.56054e-20
0.000156984
-9.24593e-20
0.000156984
-1.04154e-19
0.000156984
-2.11727e-19
0.000156984
1.58673e-19
0.000156984
1.86564e-19
0.000156984
1.35498e-19
0.000156984
-1.94641e-19
0.000156984
-1.44494e-19
0.000156984
2.63074e-19
0.000156984
1.16794e-19
0.000156984
8.4072e-20
0.000156984
-6.12338e-20
0.000156984
1.41591e-19
0.000156984
3.01165e-19
0.000156984
9.63503e-21
0.000156984
-1.70744e-19
0.000156984
-3.85016e-19
0.000156984
-2.68752e-20
0.000156984
1.07618e-19
0.000156984
-4.21854e-20
0.000156984
-4.27013e-21
0.000156984
-2.92801e-19
0.000156984
6.28474e-19
0.000156984
1.18412e-19
0.000156984
-6.40636e-19
0.000156984
2.73761e-19
0.000156984
-2.9798e-19
0.000156984
-9.39281e-20
0.000156984
-1.89089e-19
0.000156984
-5.94613e-19
0.000156984
7.04511e-19
0.000156984
1.12687e-19
0.000156984
-2.78921e-20
0.000156984
-6.9242e-20
0.000156984
-6.3977e-19
0.000156984
6.27563e-19
0.000156984
1.55345e-19
0.000156984
-1.34071e-19
0.000156984
3.46793e-20
0.000156984
-5.09226e-19
0.000156984
4.01996e-19
0.000156984
-9.4418e-20
0.000156984
-3.53199e-19
0.000156984
7.39094e-21
0.000156984
-6.00732e-19
0.000156984
5.85063e-21
0.000156984
-1.78705e-19
0.000156984
3.23126e-19
0.000156984
4.34119e-19
0.000156984
-7.45415e-19
0.000156984
-2.84489e-20
0.000156984
-3.28472e-19
0.000156984
5.21762e-20
0.000156984
2.6917e-19
0.000156984
-1.03123e-18
0.000156984
2.87062e-20
0.000156984
7.42516e-20
0.000156984
2.37798e-19
0.000156984
1.71546e-19
0.000156984
-5.14507e-19
0.000156984
8.92421e-19
0.000156984
1.41614e-19
0.000156984
-6.08273e-19
0.000156984
-3.91041e-19
0.000156984
-2.95735e-19
0.000156984
1.12557e-18
0.000156984
2.0466e-19
0.000156984
-4.85809e-21
0.000156984
3.74261e-19
0.000156984
-6.08009e-19
0.000156984
1.42214e-19