/*--------------------------------*- C++ -*----------------------------------*\
| =========                 |                                                 |
| \\      /  F ield         | OpenFOAM: The Open Source CFD Toolbox           |
|  \\    /   O peration     | Version:  2112                                  |
|   \\  /    A nd           | Website:  www.openfoam.com                      |
|    \\/     M anipulation  |                                                 |
\*---------------------------------------------------------------------------*/
FoamFile
{
    version     2.0;
    format      ascii;
    arch        "LSB;label=32;scalar=64";
    class       surfaceScalarField;
    location    "6";
    object      phi;
}
// * * * * * * * * * * * * * * * * * * * * * * * * * * * * * * * * * * * * * //

dimensions      [0 3 -1 0 0 0 0];

oriented        oriented;

internalField   nonuniform List<scalar> 
50800
(
2.34302e-05
5.49176e-18
2.34302e-05
1.00463e-18
2.34302e-05
3.32087e-19
2.34302e-05
1.25486e-19
2.34302e-05
6.95872e-20
2.34302e-05
4.17124e-20
2.34302e-05
1.397e-20
2.34302e-05
2.76452e-20
2.34302e-05
3.02927e-20
2.34302e-05
2.17844e-20
2.34302e-05
2.56697e-20
2.34302e-05
1.4737e-20
2.34302e-05
3.74154e-20
2.34302e-05
3.12548e-20
2.34302e-05
-1.19228e-20
2.34302e-05
1.3337e-20
2.34302e-05
1.81256e-20
2.34302e-05
1.53589e-20
2.34302e-05
1.19417e-20
2.34302e-05
1.13409e-20
2.34302e-05
2.25021e-20
2.34302e-05
1.07815e-20
2.34302e-05
-5.46695e-21
2.34302e-05
-1.6363e-20
2.34302e-05
-1.75514e-20
2.34302e-05
-8.64082e-22
2.34302e-05
2.19351e-20
2.34302e-05
-1.71253e-20
2.34302e-05
-4.20972e-20
2.34302e-05
-1.96356e-20
2.34302e-05
7.28314e-21
2.34302e-05
3.21978e-20
2.34302e-05
1.18227e-20
2.34302e-05
-1.39698e-20
2.34302e-05
1.14808e-21
2.34302e-05
-3.14376e-21
2.34302e-05
2.70605e-20
2.34302e-05
-1.47218e-20
2.34302e-05
-2.94488e-20
2.34302e-05
2.34363e-20
2.34302e-05
-4.61768e-22
2.34302e-05
1.1717e-20
2.34302e-05
9.54579e-21
2.34302e-05
-2.54708e-20
2.34302e-05
9.42575e-21
2.34302e-05
-5.64069e-21
2.34302e-05
5.09803e-21
2.34302e-05
-6.96282e-21
2.34302e-05
-2.60945e-20
2.34302e-05
-1.36286e-20
2.34302e-05
-3.40654e-20
2.34302e-05
2.01153e-20
2.34302e-05
-1.46176e-20
2.34302e-05
-2.03426e-20
2.34302e-05
1.63411e-20
2.34302e-05
-2.81331e-20
2.34302e-05
4.75118e-21
2.34302e-05
-1.23378e-20
2.34302e-05
-2.55947e-21
2.34302e-05
2.10955e-20
2.34302e-05
-5.46569e-20
2.34302e-05
3.93853e-20
2.34302e-05
-3.81459e-21
2.34302e-05
-7.26173e-21
2.34302e-05
5.12663e-20
2.34302e-05
-2.03468e-20
2.34302e-05
2.70731e-20
2.34302e-05
1.19882e-20
2.34302e-05
2.05375e-20
2.34302e-05
2.41335e-20
2.34302e-05
-1.9646e-20
2.34302e-05
-4.53647e-21
2.34302e-05
-9.68359e-21
2.34302e-05
-3.30838e-21
2.34302e-05
5.40744e-20
2.34302e-05
-4.69507e-20
2.34302e-05
-5.53865e-20
2.34302e-05
2.81992e-20
2.34302e-05
-2.17504e-20
2.34302e-05
2.74405e-20
2.34302e-05
-2.47039e-20
2.34302e-05
-7.60908e-20
2.34302e-05
6.47431e-21
2.34302e-05
2.7819e-20
2.34302e-05
4.68338e-20
2.34302e-05
1.27604e-20
2.34302e-05
-1.5769e-20
2.34302e-05
-2.92168e-21
2.34302e-05
2.07726e-20
2.34302e-05
6.90059e-20
2.34302e-05
-2.42341e-20
2.34302e-05
-6.17037e-20
2.34302e-05
2.64393e-20
2.34302e-05
5.21837e-20
2.34302e-05
1.34754e-20
2.34302e-05
-4.14151e-20
2.34302e-05
6.15822e-21
2.34302e-05
-6.97791e-21
2.34302e-05
2.94877e-20
2.34302e-05
1.65779e-20
2.34302e-05
-6.46329e-20
2.34302e-05
1.49113e-20
2.34302e-05
-3.36603e-20
2.34302e-05
1.5451e-20
2.34302e-05
3.50345e-20
2.34302e-05
8.28791e-21
2.34302e-05
-4.04382e-20
2.34302e-05
-1.36498e-20
2.34302e-05
7.32174e-20
2.34302e-05
3.6673e-20
2.34302e-05
3.06842e-20
2.34302e-05
-1.43677e-19
2.34302e-05
3.25588e-20
2.34302e-05
1.19762e-19
2.34302e-05
2.22111e-20
2.34302e-05
-2.18579e-20
2.34302e-05
-1.13596e-19
2.34302e-05
-1.18448e-21
2.34302e-05
9.32103e-20
2.34302e-05
2.40678e-20
2.34302e-05
-5.56551e-20
2.34302e-05
-1.20205e-19
2.34302e-05
-1.70763e-22
2.34302e-05
1.44606e-19
2.34302e-05
5.85476e-20
2.34302e-05
-6.81646e-20
2.34302e-05
-1.28289e-19
2.34302e-05
3.04184e-20
2.34302e-05
1.36292e-19
2.34302e-05
7.38907e-21
2.34302e-05
-5.12798e-20
2.34302e-05
-7.48521e-20
2.34302e-05
2.81895e-20
2.34302e-05
8.46994e-20
2.34302e-05
-1.45094e-20
2.34302e-05
-2.86867e-20
2.34302e-05
-8.40116e-20
2.34302e-05
-1.31721e-20
2.34302e-05
8.06563e-20
2.34302e-05
-1.06935e-21
2.34302e-05
-3.56296e-20
2.34302e-05
-6.34269e-20
2.34302e-05
2.3935e-20
2.34302e-05
4.96583e-20
2.34302e-05
-1.34152e-20
2.34302e-05
-8.4328e-21
2.34302e-05
-6.01203e-20
2.34302e-05
1.56836e-20
2.34302e-05
3.01196e-21
2.34302e-05
-7.0554e-21
2.34302e-05
6.53718e-20
2.34302e-05
-7.19933e-20
2.34302e-05
-6.76057e-20
2.34302e-05
4.1172e-20
2.34302e-05
3.34899e-20
2.34302e-05
4.76491e-20
2.34302e-05
-3.98773e-20
2.34302e-05
-4.82377e-20
2.34302e-05
5.79922e-20
2.34302e-05
4.33521e-20
2.34302e-05
7.27076e-20
2.34302e-05
-9.46515e-20
2.34302e-05
-2.28412e-20
2.34302e-05
1.15143e-19
2.34302e-05
-7.84854e-20
2.34302e-05
5.21621e-20
2.34302e-05
5.99288e-21
2.34302e-05
-3.29409e-20
2.34302e-05
9.22677e-20
2.34302e-05
1.0086e-20
2.34302e-05
2.21911e-20
2.34302e-05
-6.7794e-20
2.34302e-05
3.37763e-20
2.34302e-05
5.95797e-20
2.34302e-05
-3.85062e-20
2.34302e-05
-1.76928e-20
2.34302e-05
-6.74418e-20
2.34302e-05
8.94803e-20
2.34302e-05
-3.40199e-20
2.34302e-05
-2.73483e-20
2.34302e-05
9.02972e-20
2.34302e-05
-1.51648e-19
2.34302e-05
4.53386e-21
2.34302e-05
6.96541e-20
2.34302e-05
-2.24474e-20
2.34302e-05
1.06044e-19
2.34302e-05
-1.02342e-19
2.34302e-05
-1.06949e-20
2.34302e-05
8.68564e-20
2.34302e-05
-8.71002e-20
2.34302e-05
4.78953e-20
2.34302e-05
-2.30073e-20
2.34302e-05
-7.13215e-20
2.34302e-05
1.1626e-19
2.34302e-05
-1.40583e-20
2.34302e-05
2.46973e-20
2.34302e-05
-6.49773e-20
2.34302e-05
-3.39548e-20
2.34302e-05
1.33496e-19
2.34302e-05
-9.35323e-20
2.34302e-05
1.23914e-20
2.34302e-05
-6.82451e-20
2.34302e-05
-3.20449e-21
2.34302e-05
1.39062e-19
2.34302e-05
-6.05499e-20
2.34302e-05
-7.23952e-20
2.34302e-05
-5.61821e-20
2.34302e-05
6.19697e-20
2.34302e-05
8.49777e-20
2.34302e-05
-2.25702e-20
2.34302e-05
-6.7719e-20
2.34302e-05
-9.11509e-20
2.34302e-05
2.2985e-19
2.34302e-05
1.17867e-20
2.34302e-05
-2.1991e-19
2.34302e-05
1.87209e-19
2.34302e-05
-2.87011e-22
2.34302e-05
-4.6495e-20
2.34302e-05
-3.47341e-20
2.34302e-05
-1.34037e-19
2.34302e-05
2.3914e-19
2.34302e-05
3.52712e-20
2.34302e-05
-1.00519e-19
2.34302e-05
-2.82702e-20
2.34302e-05
-1.53194e-19
2.34302e-05
2.294e-19
2.34302e-05
-1.2872e-20
2.34302e-05
-9.43955e-20
2.34302e-05
5.93409e-20
2.34302e-05
-8.59935e-20
2.34302e-05
1.81339e-19
2.34302e-05
-1.97433e-20
2.34302e-05
-3.41061e-20
2.34302e-05
7.02348e-20
2.34302e-05
-1.74147e-19
2.34302e-05
7.68996e-20
2.34302e-05
2.65358e-20
2.34302e-05
6.08888e-20
2.34302e-05
9.87782e-20
2.34302e-05
-1.85682e-19
2.34302e-05
1.11085e-19
2.34302e-05
-4.2889e-20
2.34302e-05
1.46829e-20
2.34302e-05
1.22409e-19
2.34302e-05
-2.54486e-19
2.34302e-05
2.61904e-20
2.34302e-05
6.3337e-20
2.34302e-05
7.48311e-20
2.34302e-05
2.58643e-20
2.34302e-05
-2.02567e-19
2.34302e-05
1.86143e-19
2.34302e-05
-1.51772e-20
2.34302e-05
-1.35103e-19
2.34302e-05
-2.22784e-20
2.34302e-05
-1.29919e-19
2.34302e-05
2.59704e-19
2.34302e-05
-1.88188e-20
2.34302e-05
-5.66673e-20
2.34302e-05
9.4604e-20
2.34302e-05
-1.85609e-19
2.34302e-05
1.10322e-19
2.34302e-05
3.10295e-20
2.34302e-05
-1.98024e-20
2.34302e-05
2.30701e-20
2.34302e-05
-1.10722e-19
2.34302e-05
1.74982e-19
2.34302e-05
1.60501e-20
2.34302e-05
-3.76327e-20
2.34302e-05
2.68628e-21
2.34302e-05
-1.38453e-19
2.34302e-05
1.13584e-19
2.34302e-05
1.52315e-20
2.34302e-05
5.70299e-21
2.34302e-05
1.93726e-21
2.34302e-05
-1.41367e-19
2.34302e-05
9.27699e-20
2.34302e-05
1.22163e-20
2.34302e-05
-5.64326e-20
2.34302e-05
8.07333e-20
2.34302e-05
-1.29781e-19
2.34302e-05
5.70023e-20
2.34302e-05
5.11333e-20
2.34302e-05
-2.98195e-20
2.34302e-05
3.47409e-20
2.34302e-05
-1.22949e-19
2.34302e-05
6.34523e-20
2.34302e-05
1.07586e-19
2.34302e-05
-1.36121e-20
2.34302e-05
-9.31415e-20
2.34302e-05
-1.04232e-19
2.34302e-05
1.44751e-19
2.34302e-05
1.97071e-20
2.34302e-05
-5.986e-20
2.34302e-05
-4.46834e-20
2.34302e-05
-3.82162e-20
2.34302e-05
1.41723e-19
2.34302e-05
4.43159e-21
2.34302e-05
-1.65148e-20
2.34302e-05
-8.72227e-20
2.34302e-05
-3.68461e-20
2.34302e-05
1.6256e-19
2.34302e-05
4.67756e-20
2.34302e-05
5.81038e-20
2.34302e-05
-1.10741e-19
2.34302e-05
-1.0059e-19
2.34302e-05
9.08502e-20
2.34302e-05
2.28244e-20
2.34302e-05
7.61317e-20
2.34302e-05
-1.12872e-19
2.34302e-05
1.67258e-20
2.34302e-05
6.66276e-20
2.34302e-05
-9.32289e-20
2.34302e-05
1.27532e-19
2.34302e-05
-9.64394e-21
2.34302e-05
-5.64657e-20
2.34302e-05
9.63777e-20
2.34302e-05
6.36096e-21
2.34302e-05
2.3156e-19
2.34302e-05
3.25182e-19
9.0234e-19
6.9119e-05
3.26806e-18
6.9119e-05
1.27011e-18
6.9119e-05
5.41927e-19
6.9119e-05
2.5812e-19
6.9119e-05
1.51502e-19
6.9119e-05
9.07155e-20
6.9119e-05
6.15737e-20
6.9119e-05
6.86354e-20
6.9119e-05
8.93923e-20
6.9119e-05
6.35584e-20
6.9119e-05
5.57579e-20
6.9119e-05
4.42724e-20
6.9119e-05
1.16219e-19
6.9119e-05
6.55204e-20
6.9119e-05
-5.32451e-21
6.9119e-05
3.37818e-20
6.9119e-05
4.30537e-20
6.9119e-05
5.56453e-20
6.9119e-05
3.13205e-20
6.9119e-05
2.72736e-20
6.9119e-05
6.45856e-20
6.9119e-05
1.0378e-20
6.9119e-05
-1.2736e-20
6.9119e-05
-4.05418e-20
6.9119e-05
-6.38402e-20
6.9119e-05
-1.86928e-20
6.9119e-05
2.34115e-20
6.9119e-05
-5.35035e-20
6.9119e-05
-1.06198e-19
6.9119e-05
-8.73572e-20
6.9119e-05
1.96011e-20
6.9119e-05
9.46672e-20
6.9119e-05
2.3387e-21
6.9119e-05
-2.12042e-20
6.9119e-05
-8.53599e-21
6.9119e-05
-1.08357e-20
6.9119e-05
6.08049e-20
6.9119e-05
-2.69014e-20
6.9119e-05
-7.13646e-20
6.9119e-05
1.95837e-20
6.9119e-05
-1.10044e-21
6.9119e-05
2.22746e-20
6.9119e-05
1.26734e-20
6.9119e-05
-6.35236e-20
6.9119e-05
1.96486e-20
6.9119e-05
1.40881e-20
6.9119e-05
-5.24883e-21
6.9119e-05
-4.78233e-20
6.9119e-05
-7.2739e-20
6.9119e-05
-6.82712e-20
6.9119e-05
-8.15696e-20
6.9119e-05
2.04419e-21
6.9119e-05
-3.86384e-20
6.9119e-05
-4.8631e-20
6.9119e-05
3.09192e-20
6.9119e-05
-7.48302e-20
6.9119e-05
-2.42654e-20
6.9119e-05
-3.67078e-20
6.9119e-05
6.08537e-21
6.9119e-05
4.31815e-20
6.9119e-05
-1.36668e-19
6.9119e-05
7.82682e-20
6.9119e-05
-7.14717e-21
6.9119e-05
1.68767e-21
6.9119e-05
1.40585e-19
6.9119e-05
-3.43576e-20
6.9119e-05
5.87715e-20
6.9119e-05
3.39698e-20
6.9119e-05
6.77607e-20
6.9119e-05
7.84596e-20
6.9119e-05
-4.93937e-20
6.9119e-05
1.4621e-21
6.9119e-05
-2.48954e-20
6.9119e-05
-4.68413e-22
6.9119e-05
1.14514e-19
6.9119e-05
-1.26771e-19
6.9119e-05
-1.25792e-19
6.9119e-05
1.64362e-20
6.9119e-05
-6.21349e-20
6.9119e-05
3.04271e-20
6.9119e-05
-7.47459e-20
6.9119e-05
-1.92927e-19
6.9119e-05
2.48198e-20
6.9119e-05
9.13777e-20
6.9119e-05
1.26562e-19
6.9119e-05
2.89256e-20
6.9119e-05
1.01328e-20
6.9119e-05
1.3938e-21
6.9119e-05
5.33818e-20
6.9119e-05
1.75867e-19
6.9119e-05
-5.79319e-20
6.9119e-05
-1.09011e-19
6.9119e-05
3.34393e-20
6.9119e-05
1.05133e-19
6.9119e-05
3.65114e-20
6.9119e-05
-7.16303e-20
6.9119e-05
1.51047e-20
6.9119e-05
6.3632e-21
6.9119e-05
2.49539e-20
6.9119e-05
2.47048e-21
6.9119e-05
-9.71952e-20
6.9119e-05
-7.25362e-21
6.9119e-05
-8.29282e-20
6.9119e-05
3.33426e-20
6.9119e-05
9.40344e-20
6.9119e-05
7.44677e-20
6.9119e-05
-1.03092e-19
6.9119e-05
-5.48112e-20
6.9119e-05
2.05914e-19
6.9119e-05
1.5511e-19
6.9119e-05
1.58365e-20
6.9119e-05
-2.95225e-19
6.9119e-05
7.7117e-20
6.9119e-05
2.87168e-19
6.9119e-05
7.46811e-20
6.9119e-05
-4.85172e-20
6.9119e-05
-2.76803e-19
6.9119e-05
-4.92483e-20
6.9119e-05
2.56339e-19
6.9119e-05
9.18701e-20
6.9119e-05
-2.07742e-19
6.9119e-05
-2.97834e-19
6.9119e-05
-1.17099e-20
6.9119e-05
3.66774e-19
6.9119e-05
1.73357e-19
6.9119e-05
-1.71987e-19
6.9119e-05
-3.19185e-19
6.9119e-05
8.90089e-20
6.9119e-05
3.34293e-19
6.9119e-05
2.49455e-20
6.9119e-05
-1.05058e-19
6.9119e-05
-1.76668e-19
6.9119e-05
5.61064e-20
6.9119e-05
2.0483e-19
6.9119e-05
-3.42235e-20
6.9119e-05
-1.02087e-19
6.9119e-05
-2.16472e-19
6.9119e-05
-6.11332e-20
6.9119e-05
2.13816e-19
6.9119e-05
1.49249e-20
6.9119e-05
-1.22073e-19
6.9119e-05
-1.78775e-19
6.9119e-05
3.67477e-20
6.9119e-05
1.19598e-19
6.9119e-05
-3.88124e-20
6.9119e-05
-5.97905e-20
6.9119e-05
-1.55326e-19
6.9119e-05
6.5396e-20
6.9119e-05
2.11045e-20
6.9119e-05
-4.59069e-20
6.9119e-05
1.17149e-19
6.9119e-05
-1.53704e-19
6.9119e-05
-1.47139e-19
6.9119e-05
7.10645e-20
6.9119e-05
9.30446e-20
6.9119e-05
1.10115e-19
6.9119e-05
-8.61501e-20
6.9119e-05
-1.00438e-19
6.9119e-05
1.25718e-19
6.9119e-05
1.47301e-19
6.9119e-05
1.69492e-19
6.9119e-05
-1.93892e-19
6.9119e-05
-2.7632e-20
6.9119e-05
2.51195e-19
6.9119e-05
-1.19588e-19
6.9119e-05
6.82712e-20
6.9119e-05
7.35729e-20
6.9119e-05
4.08082e-22
6.9119e-05
2.01765e-19
6.9119e-05
7.8883e-20
6.9119e-05
1.86298e-20
6.9119e-05
-1.45203e-19
6.9119e-05
7.89356e-20
6.9119e-05
1.50092e-19
6.9119e-05
-4.93797e-20
6.9119e-05
-1.06952e-19
6.9119e-05
-1.38434e-19
6.9119e-05
1.3786e-19
6.9119e-05
-7.80625e-20
6.9119e-05
2.68538e-20
6.9119e-05
1.2085e-19
6.9119e-05
-3.6388e-19
6.9119e-05
-1.74601e-20
6.9119e-05
1.74808e-19
6.9119e-05
1.19842e-20
6.9119e-05
1.92577e-19
6.9119e-05
-1.96306e-19
6.9119e-05
-5.60071e-20
6.9119e-05
1.81541e-19
6.9119e-05
-1.26109e-19
6.9119e-05
3.057e-20
6.9119e-05
-3.39481e-20
6.9119e-05
-9.25778e-20
6.9119e-05
1.7884e-19
6.9119e-05
6.06485e-20
6.9119e-05
3.07259e-20
6.9119e-05
-1.14914e-19
6.9119e-05
-9.6926e-20
6.9119e-05
1.88598e-19
6.9119e-05
-1.07361e-19
6.9119e-05
-3.01862e-20
6.9119e-05
-1.3926e-19
6.9119e-05
3.08657e-20
6.9119e-05
2.00966e-19
6.9119e-05
-7.61434e-20
6.9119e-05
-1.62685e-19
6.9119e-05
-1.47897e-19
6.9119e-05
1.18537e-19
6.9119e-05
1.35091e-19
6.9119e-05
-1.76363e-20
6.9119e-05
-7.96356e-20
6.9119e-05
-1.8193e-19
6.9119e-05
4.43918e-19
6.9119e-05
4.14394e-20
6.9119e-05
-4.01019e-19
6.9119e-05
3.45239e-19
6.9119e-05
-3.41694e-20
6.9119e-05
-3.69034e-20
6.9119e-05
-9.15627e-20
6.9119e-05
-3.05949e-19
6.9119e-05
5.06295e-19
6.9119e-05
7.27991e-20
6.9119e-05
-1.5406e-19
6.9119e-05
-8.68717e-20
6.9119e-05
-3.42269e-19
6.9119e-05
4.64757e-19
6.9119e-05
2.72788e-20
6.9119e-05
-1.91454e-19
6.9119e-05
9.78014e-20
6.9119e-05
-1.34619e-19
6.9119e-05
4.18637e-19
6.9119e-05
1.45674e-20
6.9119e-05
-7.98155e-20
6.9119e-05
9.03156e-20
6.9119e-05
-3.7589e-19
6.9119e-05
1.36865e-19
6.9119e-05
7.01993e-20
6.9119e-05
2.34928e-19
6.9119e-05
2.5294e-19
6.9119e-05
-3.88137e-19
6.9119e-05
1.93564e-19
6.9119e-05
-1.06287e-19
6.9119e-05
6.99154e-20
6.9119e-05
2.02218e-19
6.9119e-05
-5.98021e-19
6.9119e-05
7.85154e-20
6.9119e-05
1.39258e-19
6.9119e-05
1.65522e-19
6.9119e-05
6.54198e-20
6.9119e-05
-4.24981e-19
6.9119e-05
4.03044e-19
6.9119e-05
-5.77616e-20
6.9119e-05
-3.45038e-19
6.9119e-05
-1.43769e-19
6.9119e-05
-2.28351e-19
6.9119e-05
6.16679e-19
6.9119e-05
-3.46744e-20
6.9119e-05
-1.14547e-19
6.9119e-05
1.72695e-19
6.9119e-05
-3.91844e-19
6.9119e-05
2.02483e-19
6.9119e-05
7.07548e-20
6.9119e-05
2.4842e-20
6.9119e-05
4.94127e-20
6.9119e-05
-2.14921e-19
6.9119e-05
4.11632e-19
6.9119e-05
1.52104e-20
6.9119e-05
-6.36359e-20
6.9119e-05
-1.2043e-20
6.9119e-05
-3.36232e-19
6.9119e-05
2.66276e-19
6.9119e-05
2.77318e-20
6.9119e-05
3.00009e-20
6.9119e-05
-3.15274e-20
6.9119e-05
-3.79814e-19
6.9119e-05
2.48252e-19
6.9119e-05
-1.79778e-20
6.9119e-05
-4.9169e-20
6.9119e-05
1.37351e-19
6.9119e-05
-3.59542e-19
6.9119e-05
1.98929e-19
6.9119e-05
7.34799e-20
6.9119e-05
-1.8194e-20
6.9119e-05
8.46746e-20
6.9119e-05
-3.45268e-19
6.9119e-05
2.19255e-19
6.9119e-05
2.33304e-19
6.9119e-05
-7.84007e-20
6.9119e-05
-2.02029e-19
6.9119e-05
-2.35456e-19
6.9119e-05
3.12429e-19
6.9119e-05
3.28664e-20
6.9119e-05
-1.79559e-19
6.9119e-05
-3.81656e-20
6.9119e-05
-1.26473e-19
6.9119e-05
2.7414e-19
6.9119e-05
1.36755e-19
6.9119e-05
-1.49911e-19
6.9119e-05
-1.30901e-19
6.9119e-05
-9.88103e-20
6.9119e-05
3.61535e-19
6.9119e-05
2.49381e-19
6.9119e-05
7.49824e-20
6.9119e-05
-2.81422e-19
6.9119e-05
-2.37003e-19
6.9119e-05
2.66917e-19
6.9119e-05
5.324e-20
6.9119e-05
8.8786e-20
6.9119e-05
-2.40357e-19
6.9119e-05
7.59837e-21
6.9119e-05
1.75147e-19
6.9119e-05
-1.9615e-19
6.9119e-05
1.98736e-19
6.9119e-05
1.86713e-20
6.9119e-05
-1.34537e-19
6.9119e-05
1.55371e-19
6.9119e-05
3.70312e-20
6.9119e-05
5.33782e-19
6.9119e-05
5.63484e-19
1.07257e-18
0.000113636
2.14433e-18
0.000113636
1.23079e-18
0.000113636
6.29484e-19
0.000113636
3.26492e-19
0.000113636
1.91413e-19
0.000113636
1.11502e-19
0.000113636
1.05931e-19
0.000113636
1.41035e-19
0.000113636
1.90606e-19
0.000113636
1.21248e-19
0.000113636
7.08463e-20
0.000113636
8.45169e-20
0.000113636
1.91182e-19
0.000113636
9.3776e-20
0.000113636
-4.86782e-21
0.000113636
7.47597e-20
0.000113636
1.19061e-19
0.000113636
1.00373e-19
0.000113636
7.5655e-20
0.000113636
5.84137e-20
0.000113636
1.11901e-19
0.000113636
5.28331e-20
0.000113636
-5.91457e-20
0.000113636
-6.60148e-20
0.000113636
-8.62682e-20
0.000113636
-6.54199e-20
0.000113636
-1.72593e-20
0.000113636
-1.15431e-19
0.000113636
-2.07162e-19
0.000113636
-1.35396e-19
0.000113636
2.66062e-20
0.000113636
1.44742e-19
0.000113636
1.72494e-20
0.000113636
-3.82113e-20
0.000113636
-1.17796e-20
0.000113636
-3.40249e-20
0.000113636
7.69036e-20
0.000113636
-1.71673e-20
0.000113636
-1.27956e-19
0.000113636
4.20107e-21
0.000113636
-1.4703e-20
0.000113636
3.12753e-20
0.000113636
2.03543e-20
0.000113636
-7.94853e-20
0.000113636
-1.68238e-20
0.000113636
1.96544e-20
0.000113636
-2.22068e-20
0.000113636
-8.72785e-20
0.000113636
-1.39996e-19
0.000113636
-1.51299e-19
0.000113636
-1.46e-19
0.000113636
-5.24926e-20
0.000113636
-3.31519e-20
0.000113636
-9.5506e-20
0.000113636
-4.41104e-21
0.000113636
-1.17994e-19
0.000113636
-5.67558e-20
0.000113636
-6.64007e-20
0.000113636
-2.38121e-20
0.000113636
4.55349e-20
0.000113636
-1.79277e-19
0.000113636
9.89778e-20
0.000113636
-2.02486e-20
0.000113636
1.43782e-20
0.000113636
2.22387e-19
0.000113636
-4.1122e-20
0.000113636
1.08626e-19
0.000113636
1.01252e-19
0.000113636
1.13808e-19
0.000113636
1.60243e-19
0.000113636
-5.78352e-20
0.000113636
8.25596e-21
0.000113636
-4.50315e-20
0.000113636
5.027e-20
0.000113636
1.0344e-19
0.000113636
-1.96164e-19
0.000113636
-1.91896e-19
0.000113636
-5.85526e-20
0.000113636
-9.68129e-20
0.000113636
3.29394e-20
0.000113636
-1.52345e-19
0.000113636
-2.82988e-19
0.000113636
2.31618e-20
0.000113636
2.06582e-19
0.000113636
2.20962e-19
0.000113636
4.54273e-20
0.000113636
4.13794e-20
0.000113636
2.29267e-20
0.000113636
8.20502e-20
0.000113636
2.58719e-19
0.000113636
-2.38062e-20
0.000113636
-1.18576e-19
0.000113636
6.19328e-20
0.000113636
1.00174e-19
0.000113636
5.22772e-20
0.000113636
-9.20186e-20
0.000113636
2.75449e-20
0.000113636
5.11048e-20
0.000113636
2.73007e-22
0.000113636
-8.15343e-21
0.000113636
-1.08439e-19
0.000113636
-6.95248e-20
0.000113636
-1.12135e-19
0.000113636
2.79842e-20
0.000113636
1.79137e-19
0.000113636
1.46036e-19
0.000113636
-1.29774e-19
0.000113636
-1.00249e-19
0.000113636
3.02155e-19
0.000113636
3.26367e-19
0.000113636
1.15222e-20
0.000113636
-4.22862e-19
0.000113636
1.12445e-19
0.000113636
4.45323e-19
0.000113636
1.98176e-19
0.000113636
-7.0583e-20
0.000113636
-4.42587e-19
0.000113636
-1.25002e-19
0.000113636
4.0504e-19
0.000113636
1.61845e-19
0.000113636
-3.6854e-19
0.000113636
-5.1488e-19
0.000113636
-3.3343e-20
0.000113636
5.83054e-19
0.000113636
3.30303e-19
0.000113636
-2.51842e-19
0.000113636
-5.20749e-19
0.000113636
1.6086e-19
0.000113636
5.4626e-19
0.000113636
5.30021e-20
0.000113636
-1.90198e-19
0.000113636
-2.29026e-19
0.000113636
4.02372e-20
0.000113636
2.96237e-19
0.000113636
-2.25652e-20
0.000113636
-2.01227e-19
0.000113636
-3.51455e-19
0.000113636
-1.04535e-19
0.000113636
3.16174e-19
0.000113636
1.95349e-20
0.000113636
-2.56054e-19
0.000113636
-2.9042e-19
0.000113636
7.25414e-20
0.000113636
1.49382e-19
0.000113636
-8.33407e-20
0.000113636
-1.0736e-19
0.000113636
-2.67596e-19
0.000113636
1.26707e-19
0.000113636
3.49251e-20
0.000113636
-8.75596e-20
0.000113636
1.57484e-19
0.000113636
-2.37927e-19
0.000113636
-2.27696e-19
0.000113636
6.97373e-20
0.000113636
1.64487e-19
0.000113636
1.56615e-19
0.000113636
-9.53255e-20
0.000113636
-1.33881e-19
0.000113636
1.91888e-19
0.000113636
2.9214e-19
0.000113636
2.74591e-19
0.000113636
-2.4568e-19
0.000113636
1.90251e-20
0.000113636
3.73076e-19
0.000113636
-1.04605e-19
0.000113636
9.61284e-20
0.000113636
1.36906e-19
0.000113636
1.46278e-19
0.000113636
2.78e-19
0.000113636
1.26281e-19
0.000113636
1.92883e-20
0.000113636
-2.26019e-19
0.000113636
1.45778e-19
0.000113636
2.77148e-19
0.000113636
-6.84375e-20
0.000113636
-2.28248e-19
0.000113636
-2.12031e-19
0.000113636
8.46478e-20
0.000113636
-4.5862e-20
0.000113636
1.45738e-19
0.000113636
6.40949e-20
0.000113636
-5.64245e-19
0.000113636
-6.33443e-20
0.000113636
2.79276e-19
0.000113636
8.29116e-20
0.000113636
1.71255e-19
0.000113636
-2.48932e-19
0.000113636
-4.91804e-20
0.000113636
2.14618e-19
0.000113636
-1.25217e-19
0.000113636
-1.73597e-20
0.000113636
-5.34057e-20
0.000113636
-9.13308e-20
0.000113636
2.33789e-19
0.000113636
1.66947e-19
0.000113636
5.4866e-20
0.000113636
-1.53616e-19
0.000113636
-1.27398e-19
0.000113636
1.14175e-19
0.000113636
-9.50239e-20
0.000113636
-8.14951e-20
0.000113636
-1.69419e-19
0.000113636
8.12089e-20
0.000113636
2.05967e-19
0.000113636
-1.03698e-19
0.000113636
-1.95959e-19
0.000113636
-2.27247e-19
0.000113636
1.07673e-19
0.000113636
1.30187e-19
0.000113636
-1.48611e-21
0.000113636
-4.47179e-20
0.000113636
-2.25119e-19
0.000113636
5.90511e-19
0.000113636
8.81897e-20
0.000113636
-4.46415e-19
0.000113636
4.11664e-19
0.000113636
-1.0279e-19
0.000113636
1.81814e-20
0.000113636
-1.24671e-19
0.000113636
-4.43369e-19
0.000113636
6.83252e-19
0.000113636
7.51882e-20
0.000113636
-1.4525e-19
0.000113636
-1.08521e-19
0.000113636
-5.18068e-19
0.000113636
6.14238e-19
0.000113636
8.664e-20
0.000113636
-2.51572e-19
0.000113636
1.56765e-19
0.000113636
-1.50095e-19
0.000113636
6.43423e-19
0.000113636
8.99839e-20
0.000113636
-1.33365e-19
0.000113636
9.90213e-20
0.000113636
-4.92802e-19
0.000113636
1.64981e-19
0.000113636
6.1608e-20
0.000113636
4.73693e-19
0.000113636
4.34218e-19
0.000113636
-5.49632e-19
0.000113636
2.33766e-19
0.000113636
-1.64126e-19
0.000113636
1.3749e-19
0.000113636
2.31439e-19
0.000113636
-8.90555e-19
0.000113636
1.12004e-19
0.000113636
1.50317e-19
0.000113636
2.47311e-19
0.000113636
1.28184e-19
0.000113636
-5.84865e-19
0.000113636
5.86437e-19
0.000113636
-1.0215e-19
0.000113636
-6.1142e-19
0.000113636
-3.23118e-19
0.000113636
-2.60238e-19
0.000113636
9.29666e-19
0.000113636
-1.42096e-20
0.000113636
-1.60822e-19
0.000113636
2.54047e-19
0.000113636
-5.56928e-19
0.000113636
2.69352e-19
0.000113636
8.14549e-20
0.000113636
1.1719e-19
0.000113636
5.10407e-20
0.000113636
-3.15842e-19
0.000113636
6.42567e-19
0.000113636
-4.14362e-21
0.000113636
-7.91854e-20
0.000113636
-3.36448e-20
0.000113636
-5.21468e-19
0.000113636
4.23988e-19
0.000113636
4.57145e-20
0.000113636
2.04441e-20
0.000113636
-5.30432e-20
0.000113636
-5.90562e-19
0.000113636
3.9603e-19
0.000113636
-5.47902e-20
0.000113636
-2.57815e-20
0.000113636
1.69421e-19
0.000113636
-5.91499e-19
0.000113636
3.0937e-19
0.000113636
6.8623e-20
0.000113636
2.69358e-20
0.000113636
1.64234e-19
0.000113636
-5.51796e-19
0.000113636
4.09993e-19
0.000113636
3.15605e-19
0.000113636
-2.1636e-19
0.000113636
-3.02985e-19
0.000113636
-3.6601e-19
0.000113636
4.66474e-19
0.000113636
4.88544e-20
0.000113636
-2.69875e-19
0.000113636
-2.84306e-20
0.000113636
-2.1203e-19
0.000113636
3.77072e-19
0.000113636
2.79338e-19
0.000113636
-2.47416e-19
0.000113636
-1.58201e-19
0.000113636
-1.77461e-19
0.000113636
5.53714e-19
0.000113636
5.07054e-19
0.000113636
6.15532e-20
0.000113636
-4.16728e-19
0.000113636
-3.51918e-19
0.000113636
4.20075e-19
0.000113636
8.04483e-20
0.000113636
2.898e-20
0.000113636
-2.89581e-19
0.000113636
-5.81341e-20
0.000113636
2.97163e-19
0.000113636
-2.64247e-19
0.000113636
1.21859e-19
0.000113636
1.29003e-19
0.000113636
-1.99428e-19
0.000113636
1.6553e-19
0.000113636
5.18154e-20
0.000113636
6.94532e-19
0.000113636
7.03076e-19
9.24726e-19
0.000156982
1.4786e-18
0.000156982
1.05997e-18
0.000156982
6.29532e-19
0.000156982
3.89262e-19
0.000156982
1.82356e-19
0.000156982
1.70348e-19
0.000156982
1.74312e-19
0.000156982
1.99932e-19
0.000156982
2.39804e-19
0.000156982
1.40654e-19
0.000156982
7.22449e-20
0.000156982
1.67808e-19
0.000156982
2.32882e-19
0.000156982
1.49256e-19
0.000156982
1.16288e-20
0.000156982
1.49196e-19
0.000156982
1.92577e-19
0.000156982
1.58879e-19
0.000156982
1.29223e-19
0.000156982
1.08854e-19
0.000156982
1.4934e-19
0.000156982
4.49071e-20
0.000156982
-1.01062e-19
0.000156982
-1.16193e-19
0.000156982
-1.33019e-19
0.000156982
-1.07785e-19
0.000156982
-4.93336e-20
0.000156982
-1.92768e-19
0.000156982
-2.92304e-19
0.000156982
-2.16469e-19
0.000156982
1.2503e-20
0.000156982
1.77357e-19
0.000156982
6.51764e-20
0.000156982
-3.2933e-20
0.000156982
-5.06766e-20
0.000156982
-3.81343e-20
0.000156982
3.20657e-20
0.000156982
-2.38265e-20
0.000156982
-1.32898e-19
0.000156982
-1.41079e-20
0.000156982
-3.03577e-21
0.000156982
3.85013e-20
0.000156982
1.59106e-20
0.000156982
-1.65117e-19
0.000156982
-3.83408e-20
0.000156982
4.53366e-20
0.000156982
-1.03732e-20
0.000156982
-1.10251e-19
0.000156982
-2.07139e-19
0.000156982
-2.3843e-19
0.000156982
-2.39979e-19
0.000156982
-1.05533e-19
0.000156982
-1.08807e-19
0.000156982
-1.43576e-19
0.000156982
-2.22223e-20
0.000156982
-1.80725e-19
0.000156982
-1.37814e-19
0.000156982
-1.13421e-19
0.000156982
-7.91342e-20
0.000156982
1.78623e-20
0.000156982
-2.09809e-19
0.000156982
1.00135e-19
0.000156982
1.60038e-20
0.000156982
7.608e-20
0.000156982
2.64274e-19
0.000156982
-2.6039e-20
0.000156982
2.04671e-19
0.000156982
1.18716e-19
0.000156982
2.14175e-19
0.000156982
1.84217e-19
0.000156982
-5.22905e-20
0.000156982
8.31087e-21
0.000156982
-4.99938e-20
0.000156982
6.36235e-20
0.000156982
1.07137e-19
0.000156982
-2.65573e-19
0.000156982
-2.59593e-19
0.000156982
-1.25844e-19
0.000156982
-1.91855e-19
0.000156982
-4.22175e-20
0.000156982
-1.8401e-19
0.000156982
-3.44129e-19
0.000156982
1.16378e-20
0.000156982
3.32416e-19
0.000156982
3.28044e-19
0.000156982
6.28444e-20
0.000156982
6.54203e-20
0.000156982
1.0591e-19
0.000156982
1.06949e-19
0.000156982
3.52075e-19
0.000156982
-1.31946e-20
0.000156982
-1.4164e-19
0.000156982
5.99478e-20
0.000156982
1.61336e-19
0.000156982
1.1651e-19
0.000156982
-1.28556e-19
0.000156982
2.17357e-20
0.000156982
1.07244e-19
0.000156982
2.12706e-21
0.000156982
-5.38792e-20
0.000156982
-1.23653e-19
0.000156982
-1.14175e-19
0.000156982
-1.50368e-19
0.000156982
3.4453e-20
0.000156982
2.29128e-19
0.000156982
2.26066e-19
0.000156982
-1.79345e-19
0.000156982
-1.33165e-19
0.000156982
4.74002e-19
0.000156982
4.77643e-19
0.000156982
5.04993e-20
0.000156982
-4.69203e-19
0.000156982
7.4188e-20
0.000156982
5.69092e-19
0.000156982
3.39573e-19
0.000156982
-9.6998e-20
0.000156982
-5.15136e-19
0.000156982
-1.82504e-19
0.000156982
4.63101e-19
0.000156982
1.61047e-19
0.000156982
-5.15368e-19
0.000156982
-6.54128e-19
0.000156982
-6.74925e-20
0.000156982
6.86239e-19
0.000156982
5.07861e-19
0.000156982
-2.72056e-19
0.000156982
-6.07433e-19
0.000156982
1.87574e-19
0.000156982
7.02565e-19
0.000156982
1.20797e-19
0.000156982
-2.62728e-19
0.000156982
-3.34104e-19
0.000156982
3.65182e-20
0.000156982
3.50618e-19
0.000156982
-1.24684e-21
0.000156982
-2.76274e-19
0.000156982
-4.87332e-19
0.000156982
-1.57817e-19
0.000156982
3.61051e-19
0.000156982
3.012e-20
0.000156982
-3.49055e-19
0.000156982
-4.42915e-19
0.000156982
5.84858e-20
0.000156982
1.72249e-19
0.000156982
-1.29561e-19
0.000156982
-1.96592e-19
0.000156982
-3.34445e-19
0.000156982
8.11957e-20
0.000156982
3.65517e-20
0.000156982
-1.23717e-19
0.000156982
1.92439e-19
0.000156982
-2.61752e-19
0.000156982
-2.86227e-19
0.000156982
5.35289e-20
0.000156982
1.96446e-19
0.000156982
2.15848e-19
0.000156982
-1.26334e-19
0.000156982
-1.16726e-19
0.000156982
2.77542e-19
0.000156982
4.33809e-19
0.000156982
3.21431e-19
0.000156982
-2.3855e-19
0.000156982
1.20682e-19
0.000156982
4.68686e-19
0.000156982
-4.57633e-20
0.000156982
1.8978e-19
0.000156982
2.67669e-19
0.000156982
2.4804e-19
0.000156982
3.35851e-19
0.000156982
1.81813e-19
0.000156982
3.09714e-20
0.000156982
-3.10137e-19
0.000156982
2.32474e-19
0.000156982
4.48861e-19
0.000156982
-1.52533e-19
0.000156982
-2.82301e-19
0.000156982
-3.03959e-19
0.000156982
1.65279e-20
0.000156982
-4.96162e-20
0.000156982
2.48136e-19
0.000156982
2.93868e-20
0.000156982
-7.37451e-19
0.000156982
-9.85884e-20
0.000156982
3.29283e-19
0.000156982
1.87142e-19
0.000156982
1.80744e-19
0.000156982
-3.00097e-19
0.000156982
-4.69211e-20
0.000156982
2.61242e-19
0.000156982
-1.77442e-19
0.000156982
-8.3794e-20
0.000156982
-4.56421e-20
0.000156982
-2.74967e-20
0.000156982
2.76341e-19
0.000156982
2.32942e-19
0.000156982
1.22516e-19
0.000156982
-2.32359e-19
0.000156982
-1.90621e-19
0.000156982
1.16141e-19
0.000156982
-1.17334e-19
0.000156982
-1.58565e-19
0.000156982
-1.97947e-19
0.000156982
1.01044e-19
0.000156982
2.0477e-19
0.000156982
-1.30075e-19
0.000156982
-2.41903e-19
0.000156982
-3.03634e-19
0.000156982
6.75673e-20
0.000156982
1.62705e-19
0.000156982
8.24372e-20
0.000156982
-1.99156e-20
0.000156982
-2.36569e-19
0.000156982
6.22856e-19
0.000156982
1.02636e-19
0.000156982
-4.65962e-19
0.000156982
5.0705e-19
0.000156982
-1.26451e-19
0.000156982
2.0564e-20
0.000156982
-1.64345e-19
0.000156982
-4.92905e-19
0.000156982
7.89693e-19
0.000156982
5.06495e-20
0.000156982
-9.20283e-20
0.000156982
-1.16115e-19
0.000156982
-6.42667e-19
0.000156982
6.93146e-19
0.000156982
1.16943e-19
0.000156982
-1.82379e-19
0.000156982
1.59586e-19
0.000156982
-1.56377e-19
0.000156982
8.26773e-19
0.000156982
1.96278e-19
0.000156982
-2.0871e-19
0.000156982
1.01451e-19
0.000156982
-4.76279e-19
0.000156982
1.45909e-19
0.000156982
9.02903e-20
0.000156982
6.31716e-19
0.000156982
6.12988e-19
0.000156982
-5.8382e-19
0.000156982
1.8415e-19
0.000156982
-2.23739e-19
0.000156982
2.23556e-19
0.000156982
2.47156e-19
0.000156982
-1.13832e-18
0.000156982
7.79417e-20
0.000156982
1.46841e-19
0.000156982
3.44504e-19
0.000156982