/*--------------------------------*- C++ -*----------------------------------*\
| =========                 |                                                 |
| \\      /  F ield         | OpenFOAM: The Open Source CFD Toolbox           |
|  \\    /   O peration     | Version:  2112                                  |
|   \\  /    A nd           | Website:  www.openfoam.com                      |
|    \\/     M anipulation  |                                                 |
\*---------------------------------------------------------------------------*/
FoamFile
{
    version     2.0;
    format      ascii;
    arch        "LSB;label=32;scalar=64";
    class       volVectorField;
    location    "6";
    object      U;
}
// * * * * * * * * * * * * * * * * * * * * * * * * * * * * * * * * * * * * * //

dimensions      [0 1 -1 0 0 0 0];

internalField   nonuniform List<vector> 
50000
(
(0.0303571 -2.6592e-15 0)
(0.0303571 -5.162e-16 0)
(0.0303571 -9.6581e-17 0)
(0.0303571 -3.47648e-17 0)
(0.0303571 -1.23746e-17 0)
(0.0303571 -6.75762e-18 0)
(0.0303571 -3.55207e-18 0)
(0.0303571 -5.54865e-18 0)
(0.0303571 -4.93163e-18 0)
(0.0303571 -1.03911e-19 0)
(0.0303571 -4.64303e-18 0)
(0.0303571 -8.83944e-18 0)
(0.0303571 -3.48269e-18 0)
(0.0303571 -6.89299e-19 0)
(0.0303571 2.92098e-18 0)
(0.0303571 -3.48142e-18 0)
(0.0303571 -8.4568e-18 0)
(0.0303571 -2.0463e-18 0)
(0.0303571 -3.60629e-18 0)
(0.0303571 9.8696e-19 0)
(0.0303571 3.30959e-18 0)
(0.0303571 -9.79702e-19 0)
(0.0303571 4.50591e-18 0)
(0.0303571 -5.76048e-19 0)
(0.0303571 -6.15174e-18 0)
(0.0303571 -5.34739e-18 0)
(0.0303571 -9.48024e-19 0)
(0.0303571 1.07691e-17 0)
(0.0303571 -1.00802e-17 0)
(0.0303571 -4.93147e-19 0)
(0.0303571 7.34895e-18 0)
(0.0303571 -1.14711e-17 0)
(0.0303571 -9.79612e-19 0)
(0.0303571 6.48581e-18 0)
(0.0303571 -7.67897e-18 0)
(0.0303571 6.47338e-18 0)
(0.0303571 -4.10735e-18 0)
(0.0303571 -4.30776e-18 0)
(0.0303571 2.17168e-18 0)
(0.0303571 -1.02676e-17 0)
(0.0303571 3.88211e-18 0)
(0.0303571 -9.41646e-18 0)
(0.0303571 1.13135e-17 0)
(0.0303571 8.19399e-18 0)
(0.0303571 -1.7201e-17 0)
(0.0303571 4.51575e-18 0)
(0.0303571 1.36811e-17 0)
(0.0303571 -1.14303e-17 0)
(0.0303571 -7.82098e-18 0)
(0.0303571 1.26783e-17 0)
(0.0303571 5.80767e-18 0)
(0.0303571 8.0713e-18 0)
(0.0303571 -1.56501e-17 0)
(0.0303571 -9.87746e-18 0)
(0.0303571 1.45554e-17 0)
(0.0303571 -6.6285e-18 0)
(0.0303571 1.61492e-17 0)
(0.0303571 -8.7193e-18 0)
(0.0303571 -1.95552e-17 0)
(0.0303571 9.61791e-18 0)
(0.0303571 6.98279e-18 0)
(0.0303571 -1.06864e-17 0)
(0.0303571 3.49859e-19 0)
(0.0303571 1.25112e-17 0)
(0.0303571 -2.09683e-17 0)
(0.0303571 1.44922e-18 0)
(0.0303571 5.30883e-18 0)
(0.0303571 1.0402e-17 0)
(0.0303571 5.94164e-18 0)
(0.0303571 -1.09618e-17 0)
(0.0303571 -8.71721e-18 0)
(0.0303571 -8.05339e-19 0)
(0.0303571 2.63596e-17 0)
(0.0303571 -1.30197e-17 0)
(0.0303571 -2.01785e-17 0)
(0.0303571 3.32241e-17 0)
(0.0303571 8.30318e-18 0)
(0.0303571 -2.60358e-17 0)
(0.0303571 -6.16902e-18 0)
(0.0303571 1.28224e-17 0)
(0.0303571 2.22778e-18 0)
(0.0303571 -1.00146e-17 0)
(0.0303571 1.69906e-18 0)
(0.0303571 1.41067e-17 0)
(0.0303571 -2.34019e-17 0)
(0.0303571 1.33848e-17 0)
(0.0303571 1.93114e-17 0)
(0.0303571 -1.97842e-17 0)
(0.0303571 -4.19053e-18 0)
(0.0303571 -9.73177e-18 0)
(0.0303571 9.36487e-18 0)
(0.0303571 1.88349e-17 0)
(0.0303571 -8.30171e-18 0)
(0.0303571 3.52439e-18 0)
(0.0303571 1.38615e-17 0)
(0.0303571 -4.26934e-17 0)
(0.0303571 1.1799e-17 0)
(0.0303571 3.32265e-17 0)
(0.0303571 -1.60247e-17 0)
(0.0303571 -7.49179e-18 0)
(0.0303571 9.82752e-18 0)
(0.0303571 2.42357e-17 0)
(0.0303571 -2.45898e-17 0)
(0.0303571 -2.5097e-17 0)
(0.0303571 4.37968e-17 0)
(0.0303571 -1.53045e-17 0)
(0.0303571 -2.45048e-17 0)
(0.0303571 1.36393e-17 0)
(0.0303571 6.64645e-18 0)
(0.0303571 3.00397e-17 0)
(0.0303571 -2.40971e-17 0)
(0.0303571 -2.68716e-17 0)
(0.0303571 1.9215e-17 0)
(0.0303571 5.81469e-18 0)
(0.0303571 2.22442e-17 0)
(0.0303571 -6.53097e-18 0)
(0.0303571 -4.47911e-17 0)
(0.0303571 9.77388e-18 0)
(0.0303571 2.55469e-17 0)
(0.0303571 -3.75225e-18 0)
(0.0303571 -6.57726e-18 0)
(0.0303571 -3.11829e-18 0)
(0.0303571 2.45066e-17 0)
(0.0303571 -2.66059e-18 0)
(0.0303571 -4.79769e-17 0)
(0.0303571 3.02282e-17 0)
(0.0303571 2.54136e-17 0)
(0.0303571 -2.87838e-17 0)
(0.0303571 3.80256e-18 0)
(0.0303571 4.89602e-18 0)
(0.0303571 -1.46811e-17 0)
(0.0303571 -3.41744e-18 0)
(0.0303571 2.99178e-17 0)
(0.0303571 -4.17759e-18 0)
(0.0303571 -9.77597e-18 0)
(0.0303571 4.6768e-18 0)
(0.0303571 1.83799e-17 0)
(0.0303571 -2.83475e-17 0)
(0.0303571 9.39443e-18 0)
(0.0303571 2.57126e-17 0)
(0.0303571 -3.51109e-17 0)
(0.0303571 -3.25621e-17 0)
(0.0303571 9.96874e-18 0)
(0.0303571 3.87465e-17 0)
(0.0303571 -1.76649e-17 0)
(0.0303571 -3.14033e-18 0)
(0.0303571 4.63995e-17 0)
(0.0303571 -3.24806e-17 0)
(0.0303571 -3.50504e-17 0)
(0.0303571 3.66179e-17 0)
(0.0303571 -6.61853e-18 0)
(0.0303571 3.02555e-18 0)
(0.0303571 3.44762e-17 0)
(0.0303571 -3.97435e-17 0)
(0.0303571 -1.9502e-18 0)
(0.0303571 2.78735e-17 0)
(0.0303571 -5.52591e-17 0)
(0.0303571 -1.79965e-17 0)
(0.0303571 3.81404e-17 0)
(0.0303571 5.76451e-17 0)
(0.0303571 -3.50553e-17 0)
(0.0303571 -7.27227e-18 0)
(0.0303571 -3.73797e-18 0)
(0.0303571 -9.3242e-19 0)
(0.0303571 -2.95243e-18 0)
(0.0303571 -5.37641e-18 0)
(0.0303571 8.3445e-18 0)
(0.0303571 -6.23583e-17 0)
(0.0303571 7.77764e-17 0)
(0.0303571 1.57843e-17 0)
(0.0303571 -8.16591e-17 0)
(0.0303571 6.64885e-17 0)
(0.0303571 3.55111e-17 0)
(0.0303571 -6.85856e-17 0)
(0.0303571 1.42669e-17 0)
(0.0303571 5.75348e-18 0)
(0.0303571 1.37749e-17 0)
(0.0303571 -7.10666e-18 0)
(0.0303571 -1.37301e-17 0)
(0.0303571 4.31735e-17 0)
(0.0303571 -4.10419e-17 0)
(0.0303571 -7.37159e-18 0)
(0.0303571 2.74406e-17 0)
(0.0303571 -2.9576e-17 0)
(0.0303571 4.80048e-17 0)
(0.0303571 -4.13925e-18 0)
(0.0303571 -5.67714e-17 0)
(0.0303571 4.04096e-17 0)
(0.0303571 2.35255e-18 0)
(0.0303571 -2.11881e-17 0)
(0.0303571 -7.56674e-18 0)
(0.0303571 -3.69493e-18 0)
(0.0303571 -4.07656e-17 0)
(0.0303571 3.90711e-17 0)
(0.0303571 4.21104e-17 0)
(0.0303571 -2.80221e-17 0)
(0.0303571 1.32764e-17 0)
(0.0303571 4.12351e-17 0)
(0.0303571 -5.91543e-17 0)
(0.0303571 -3.96257e-17 0)
(0.0303571 5.12919e-17 0)
(0.0303571 -2.36229e-17 0)
(0.0303571 1.14105e-17 0)
(0.0303571 1.50441e-18 0)
(0.0303571 4.71289e-17 0)
(0.0303571 -2.08575e-17 0)
(0.0303571 -6.65165e-17 0)
(0.0303571 2.62122e-17 0)
(0.0303571 7.78412e-18 0)
(0.0303571 -5.43461e-20 0)
(0.0303571 4.33277e-17 0)
(0.0303571 -3.74753e-17 0)
(0.0303571 -5.57352e-17 0)
(0.0303571 9.26591e-17 0)
(0.0303571 -5.61111e-17 0)
(0.0303571 -3.22644e-17 0)
(0.0303571 3.31803e-17 0)
(0.0303571 -8.07461e-18 0)
(0.0303571 1.58221e-17 0)
(0.0303571 4.80677e-17 0)
(0.0303571 -5.31998e-18 0)
(0.0303571 -4.76813e-17 0)
(0.0303571 -2.92061e-17 0)
(0.0303571 -5.73756e-18 0)
(0.0303571 4.32943e-17 0)
(0.0303571 -4.68611e-17 0)
(0.0303571 3.67308e-17 0)
(0.0303571 4.2935e-17 0)
(0.0303571 -2.8086e-17 0)
(0.0303571 4.03457e-17 0)
(0.0303571 6.24793e-18 0)
(0.0303571 -9.13501e-17 0)
(0.0303571 3.4882e-17 0)
(0.0303571 8.50707e-18 0)
(0.0303571 -5.59623e-17 0)
(0.0303571 4.6761e-17 0)
(0.0303571 6.76381e-18 0)
(0.0303571 4.55855e-17 0)
(0.0303571 -4.13441e-17 0)
(0.0303571 1.288e-19 0)
(0.0303571 2.72504e-18 0)
(0.0303571 -4.49557e-17 0)
(0.0303571 3.32551e-17 0)
(0.0303571 6.16839e-17 0)
(0.0303571 -5.00614e-17 0)
(0.0303571 -5.86068e-18 0)
(0.0303571 5.58902e-17 0)
(0.0303571 -5.5818e-17 0)
(0.0303571 6.02262e-18 0)
(0.0303571 -3.03965e-17 0)
(0.0303571 -1.42556e-17 0)
(0.0303571 -6.88629e-18 0)
(0.0303571 9.7951e-17 0)
(0.0303571 -1.95532e-18 0)
(0.0303571 -5.4558e-17 0)
(0.0303571 4.78302e-17 0)
(0.0303571 -4.33296e-17 0)
(0.0303571 -4.48507e-17 0)
(0.0303571 4.9312e-17 0)
(0.0303571 -2.06894e-17 0)
(0.0303571 4.59747e-18 0)
(0.0303571 7.4576e-17 0)
(0.0303571 -9.77116e-17 0)
(0.0303571 5.22923e-17 0)
(0.0303571 -2.38013e-17 0)
(0.0303571 -3.05102e-17 0)
(0.0303571 4.6104e-17 0)
(0.0303571 -5.78696e-17 0)
(0.0303571 2.09228e-17 0)
(0.0303571 1.38747e-16 0)
(0.0303571 -1.10016e-16 0)
(0.0303571 -5.75499e-17 0)
(0.0303571 6.97028e-17 0)
(0.0303571 -6.3133e-17 0)
(0.0303571 8.8197e-17 0)
(0.0303571 -8.51202e-17 0)
(0.0303571 -8.6281e-18 0)
(0.0303571 8.40381e-17 0)
(0.0303571 9.2058e-18 0)
(0.0303571 -4.5836e-17 0)
(0.0303571 -3.96906e-18 0)
(0.0303571 -1.49664e-17 0)
(0.0303571 8.893e-18 0)
(0.0303571 3.31241e-17 0)
(0.0303571 -8.44653e-17 0)
(0.0303571 1.10062e-16 0)
(0.0303571 -2.77335e-17 0)
(0.0303571 -8.73646e-17 0)
(0.0303571 7.06572e-17 0)
(0.0303571 5.50017e-17 0)
(0.0303571 -8.55788e-17 0)
(0.0303571 -2.77612e-17 0)
(0.0303571 5.79967e-17 0)
(0.0303571 -2.74855e-17 0)
(0.0303571 8.45797e-17 0)
(0.0303571 4.9807e-17 0)
(0.0303571 -1.61209e-16 0)
(0.0303571 1.83777e-17 0)
(0.0303571 4.15624e-17 0)
(0.0303571 -7.11626e-17 0)
(0.0303571 7.35811e-17 0)
(0.0303571 -4.43875e-17 0)
(0.0303571 2.29389e-17 0)
(0.0303571 1.29952e-16 0)
(0.0303571 -1.00366e-16 0)
(0.0303571 -8.14865e-17 0)
(0.0303571 1.13253e-16 0)
(0.0303571 -5.2135e-17 0)
(0.0303571 -6.5244e-17 0)
(0.0303571 6.72173e-17 0)
(0.0303571 5.77464e-17 0)
(0.0303571 -6.71517e-17 0)
(0.0303571 1.31353e-17 0)
(0.0303571 1.03971e-17 0)
(0.0303571 -5.94056e-17 0)
(0.0303571 8.34839e-17 0)
(0.0303571 -9.15616e-17 0)
(0.0303571 -3.19622e-18 0)
(0.0303571 7.80103e-17 0)
(0.0303571 1.46459e-17 0)
(0.0303571 1.58329e-17 0)
(0.0303571 -1.28192e-17 0)
(0.0303571 -9.57084e-17 0)
(0.0303571 -3.99136e-17 0)
(0.0303571 1.4194e-16 0)
(0.0303571 -1.02932e-16 0)
(0.0303571 -9.22818e-18 0)
(0.0303571 4.00863e-17 0)
(0.0303571 5.93677e-17 0)
(0.0303571 6.51852e-17 0)
(0.0303571 -1.66006e-16 0)
(0.0303571 -4.67919e-19 0)
(0.0303571 1.08772e-16 0)
(0.0303571 -1.12628e-16 0)
(0.0303571 6.7502e-18 0)
(0.0303571 1.59077e-16 0)
(0.0303571 -1.62049e-16 0)
(0.0303571 6.13735e-17 0)
(0.0303571 1.02316e-16 0)
(0.0303571 -1.52466e-16 0)
(0.0303571 7.53662e-18 0)
(0.0303571 7.25347e-17 0)
(0.0303571 -8.76515e-17 0)
(0.0303571 5.11352e-18 0)
(0.0303571 1.2992e-16 0)
(0.0303571 -4.02284e-17 0)
(0.0303571 -3.9081e-17 0)
(0.0303571 -1.52526e-17 0)
(0.0303571 -4.20146e-17 0)
(0.0303571 2.11548e-17 0)
(0.0303571 6.00825e-17 0)
(0.0303571 -9.95564e-17 0)
(0.0303571 9.20988e-18 0)
(0.0303571 1.36533e-16 0)
(0.0303571 -3.84761e-17 0)
(0.0303571 -3.72712e-17 0)
(0.0303571 -5.98116e-17 0)
(0.0303571 -7.07899e-18 0)
(0.0303571 8.56608e-17 0)
(0.0303571 -9.38124e-17 0)
(0.0303571 8.3533e-17 0)
(0.0303571 1.41154e-17 0)
(0.0303571 -9.08612e-17 0)
(0.0303571 1.28639e-16 0)
(0.0303571 -7.0207e-17 0)
(0.0303571 -4.74965e-17 0)
(0.0303571 4.83567e-17 0)
(0.0303571 3.52898e-17 0)
(0.0303571 -9.93916e-17 0)
(0.0303571 7.37026e-17 0)
(0.0303571 8.2746e-17 0)
(0.0303571 -1.004e-16 0)
(0.0303571 -3.35837e-17 0)
(0.0303571 -1.11421e-18 0)
(0.0303571 5.55331e-17 0)
(0.0303571 -1.9515e-17 0)
(0.0303571 5.15553e-17 0)
(0.0303571 -9.12606e-17 0)
(0.0303571 6.48058e-17 0)
(0.0303571 7.29636e-17 0)
(0.0303571 -1.01967e-16 0)
(0.0303571 -4.3527e-17 0)
(0.0303571 5.31232e-17 0)
(0.0303571 4.72931e-18 0)
(0.0303571 -2.80016e-17 0)
(0.0303571 4.79343e-17 0)
(0.0303571 -1.11426e-16 0)
(0.0303571 1.15104e-16 0)
(0.0303571 2.60669e-17 0)
(0.0303571 -8.8663e-17 0)
(0.0303571 1.59687e-17 0)
(0.0303571 5.43095e-18 0)
(0.0303571 7.65642e-18 0)
(0.0303571 -2.75541e-17 0)
(0.0303571 4.51172e-17 0)
(0.0303571 1.00874e-16 0)
(0.0303571 -3.55983e-17 0)
(0.0303571 -1.66284e-16 0)
(0.0303571 5.60701e-18 0)
(0.0303571 7.47937e-17 0)
(0.0303571 1.09966e-18 0)
(0.0303571 1.25104e-16 0)
(0.0303571 -1.19783e-16 0)
(0.0303571 -8.06141e-17 0)
(0.0303571 6.719e-17 0)
(0.0303571 1.00771e-16 0)
(0.0303571 -4.22935e-17 0)
(0.0303571 -1.46141e-16 0)
(0.0303571 6.88366e-17 0)
(0.0303571 2.88033e-17 0)
(0.0303571 1.36673e-16 0)
(0.0303571 -1.3582e-16 0)
(0.0303571 -7.6792e-17 0)
(0.0303571 9.51913e-17 0)
(0.0303571 -1.35484e-17 0)
(0.0303571 1.22747e-17 0)
(0.0303571 -3.04751e-17 0)
(0.0303571 1.27848e-17 0)
(0.0303571 1.74284e-17 0)
(0.0303571 9.74283e-17 0)
(0.0303571 -1.1753e-16 0)
(0.0303571 -1.00266e-16 0)
(0.0303571 2.21306e-16 0)
(0.0303571 -9.43777e-17 0)
(0.0303571 -1.10776e-16 0)
(0.0303571 8.14561e-17 0)
(0.0303571 2.46691e-17 0)
(0.0303571 5.09371e-20 0)
(0.0303571 9.19068e-17 0)
(0.0303571 -1.03001e-16 0)
(0.0303571 -1.15502e-16 0)
(0.0303571 2.21217e-16 0)
(0.0303571 -6.84792e-17 0)
(0.0303571 -1.40921e-16 0)
(0.0303571 6.19348e-17 0)
(0.0303571 1.68333e-16 0)
(0.0303571 -1.06806e-16 0)
(0.0303571 -1.21606e-17 0)
(0.0303571 9.62513e-18 0)
(0.0303571 -1.11616e-16 0)
(0.0303571 2.11366e-16 0)
(0.0303571 -1.16092e-16 0)
(0.0303571 -1.6844e-17 0)
(0.0303571 -8.73858e-17 0)
(0.0303571 1.10442e-16 0)
(0.0303571 7.95235e-17 0)
(0.0303571 -1.87136e-16 0)
(0.0303571 1.01867e-16 0)
(0.0303571 -1.25459e-17 0)
(0.0303571 2.75017e-17 0)
(0.0303571 -2.12067e-17 0)
(0.0303571 8.7894e-17 0)
(0.0303571 -1.70613e-16 0)
(0.0303571 1.0574e-16 0)
(0.0303571 7.60535e-17 0)
(0.0303571 -1.87821e-16 0)
(0.0303571 1.02338e-16 0)
(0.0303571 8.88328e-17 0)
(0.0303571 -5.46462e-17 0)
(0.0303571 -1.56706e-16 0)
(0.0303571 1.94765e-16 0)
(0.0303571 -1.37113e-16 0)
(0.0303571 7.64521e-17 0)
(0.0303571 1.69429e-16 0)
(0.0303571 -2.89696e-16 0)
(0.0303571 2.9611e-17 0)
(0.0303571 1.69161e-16 0)
(0.0303571 -1.68959e-17 0)
(0.0303571 -1.77159e-16 0)
(0.0303571 1.05365e-16 0)
(0.0303571 -8.25754e-18 0)
(0.0303571 1.67294e-18 0)
(0.0303571 1.5544e-17 0)
(0.0303571 -9.96315e-17 0)
(0.0303571 1.02266e-16 0)
(0.0303571 8.26033e-18 0)
(0.0303571 8.50349e-17 0)
(0.0303571 -1.22393e-16 0)
(0.0303571 -5.44826e-17 0)
(0.0303571 8.67993e-17 0)
(0.0303571 6.39331e-17 0)
(0.0303571 -6.62205e-17 0)
(0.0303571 -8.87414e-17 0)
(0.0303571 1.88194e-16 0)
(0.0303571 -1.30242e-16 0)
(0.0303571 1.80833e-17 0)
(0.0303571 8.15329e-18 0)
(0.0303571 -9.05617e-17 0)
(0.0303571 1.89715e-16 0)
(0.0303571 -4.29984e-17 0)
(0.0303571 -1.79851e-16 0)
(0.0303571 3.69601e-17 0)
(0.0303571 1.77188e-16 0)
(0.0303571 -1.303e-16 0)
(0.0303571 3.7416e-18 0)
(0.0303571 -1.53296e-17 0)
(0.0303571 -2.91887e-17 0)
(0.0303571 6.23646e-17 0)
(0.0303571 -1.95417e-16 0)
(0.0303571 -4.99746e-16 0)
(0.0898537 -4.619e-15 0)
(0.0898537 -1.26683e-15 0)
(0.0898537 -4.18751e-16 0)
(0.0898537 -1.58121e-16 0)
(0.0898537 -7.33554e-17 0)
(0.0898537 -3.96147e-17 0)
(0.0898537 -2.85684e-17 0)
(0.0898537 -1.99212e-17 0)
(0.0898537 -2.33408e-17 0)
(0.0898537 -1.72192e-17 0)
(0.0898537 -3.53756e-17 0)
(0.0898537 -3.96626e-17 0)
(0.0898537 -2.18785e-17 0)
(0.0898537 -1.75326e-17 0)
(0.0898537 -3.22858e-18 0)
(0.0898537 -2.42467e-17 0)
(0.0898537 -4.36184e-17 0)
(0.0898537 -1.96955e-17 0)
(0.0898537 -9.93507e-18 0)
(0.0898537 8.22111e-18 0)
(0.0898537 -9.29691e-18 0)
(0.0898537 -4.40192e-18 0)
(0.0898537 2.22886e-17 0)
(0.0898537 -1.34746e-18 0)
(0.0898537 -2.21494e-17 0)
(0.0898537 -3.20018e-17 0)
(0.0898537 -3.76462e-18 0)
(0.0898537 1.09788e-17 0)
(0.0898537 -3.64508e-17 0)
(0.0898537 -6.94781e-18 0)
(0.0898537 -1.45286e-18 0)
(0.0898537 -2.40136e-17 0)
(0.0898537 -1.4553e-17 0)
(0.0898537 -1.31319e-17 0)
(0.0898537 -2.86325e-17 0)
(0.0898537 4.42059e-19 0)
(0.0898537 -2.61125e-17 0)
(0.0898537 -2.14203e-17 0)
(0.0898537 -5.3249e-18 0)
(0.0898537 -3.74789e-17 0)
(0.0898537 -2.01303e-18 0)
(0.0898537 -3.72737e-17 0)
(0.0898537 -5.22488e-18 0)
(0.0898537 2.99389e-17 0)
(0.0898537 4.10781e-20 0)
(0.0898537 3.23953e-17 0)
(0.0898537 1.9631e-17 0)
(0.0898537 -3.97096e-17 0)
(0.0898537 -1.55172e-17 0)
(0.0898537 3.88614e-17 0)
(0.0898537 2.68576e-17 0)
(0.0898537 5.28207e-18 0)
(0.0898537 -3.63343e-17 0)
(0.0898537 -1.57408e-17 0)
(0.0898537 4.17877e-17 0)
(0.0898537 -1.93392e-17 0)
(0.0898537 1.3893e-17 0)
(0.0898537 -1.52077e-17 0)
(0.0898537 -4.46072e-17 0)
(0.0898537 1.48954e-18 0)
(0.0898537 -1.105e-18 0)
(0.0898537 -1.26116e-17 0)
(0.0898537 -1.7476e-18 0)
(0.0898537 1.3971e-17 0)
(0.0898537 -1.68755e-17 0)
(0.0898537 2.37475e-17 0)
(0.0898537 -4.09904e-17 0)
(0.0898537 -2.23045e-17 0)
(0.0898537 6.27669e-17 0)
(0.0898537 -1.35907e-17 0)
(0.0898537 -1.34784e-17 0)
(0.0898537 2.25452e-17 0)
(0.0898537 5.31437e-17 0)
(0.0898537 -1.91605e-17 0)
(0.0898537 -4.56571e-17 0)
(0.0898537 9.56357e-17 0)
(0.0898537 3.53667e-17 0)
(0.0898537 -5.31172e-17 0)
(0.0898537 -1.5367e-17 0)
(0.0898537 3.18282e-17 0)
(0.0898537 -7.87933e-18 0)
(0.0898537 -4.45277e-17 0)
(0.0898537 2.57693e-17 0)
(0.0898537 -7.39684e-18 0)
(0.0898537 -5.10838e-17 0)
(0.0898537 5.96824e-17 0)
(0.0898537 8.0646e-18 0)
(0.0898537 -3.40106e-17 0)
(0.0898537 1.19284e-18 0)
(0.0898537 8.8228e-18 0)
(0.0898537 2.95031e-17 0)
(0.0898537 1.47756e-17 0)
(0.0898537 2.97201e-17 0)
(0.0898537 1.1157e-17 0)
(0.0898537 1.07129e-17 0)
(0.0898537 -6.81644e-17 0)
(0.0898537 1.44039e-17 0)
(0.0898537 8.87577e-17 0)
(0.0898537 -2.94484e-17 0)
(0.0898537 -2.89781e-17 0)
(0.0898537 4.89111e-17 0)
(0.0898537 2.91673e-17 0)
(0.0898537 -1.93132e-17 0)
(0.0898537 -1.07178e-18 0)
(0.0898537 7.1186e-18 0)
(0.0898537 -2.92726e-17 0)
(0.0898537 -2.16995e-17 0)
(0.0898537 -1.81975e-18 0)
(0.0898537 4.35517e-17 0)
(0.0898537 6.05804e-17 0)
(0.0898537 -2.53694e-17 0)
(0.0898537 -8.68051e-17 0)
(0.0898537 -8.626e-18 0)
(0.0898537 8.98726e-17 0)
(0.0898537 2.53265e-17 0)
(0.0898537 -6.70521e-17 0)
(0.0898537 -4.7863e-17 0)
(0.0898537 4.49463e-17 0)
(0.0898537 6.16748e-17 0)
(0.0898537 -4.72889e-18 0)
(0.0898537 -2.88559e-17 0)
(0.0898537 -5.11897e-18 0)
(0.0898537 4.16767e-17 0)
(0.0898537 -1.37674e-17 0)
(0.0898537 -6.99852e-17 0)
(0.0898537 5.81965e-17 0)
(0.0898537 4.44799e-17 0)
(0.0898537 -3.86751e-17 0)
(0.0898537 1.93223e-17 0)
(0.0898537 2.81397e-17 0)
(0.0898537 1.33594e-17 0)
(0.0898537 1.7033e-18 0)
(0.0898537 1.10048e-16 0)
(0.0898537 -7.25464e-17 0)
(0.0898537 -9.40952e-17 0)
(0.0898537 6.24876e-17 0)
(0.0898537 6.84574e-18 0)
(0.0898537 -4.41865e-17 0)
(0.0898537 7.81725e-17 0)
(0.0898537 2.17173e-17 0)
(0.0898537 -1.39425e-16 0)
(0.0898537 -7.91836e-17 0)
(0.0898537 5.66443e-17 0)
(0.0898537 1.12188e-16 0)
(0.0898537 -6.10862e-17 0)
(0.0898537 -1.31618e-17 0)
(0.0898537 1.40783e-16 0)
(0.0898537 -4.13278e-17 0)
(0.0898537 -7.24474e-17 0)
(0.0898537 1.10359e-16 0)
(0.0898537 -7.58496e-17 0)
(0.0898537 -2.97412e-17 0)
(0.0898537 1.31837e-16 0)
(0.0898537 -1.27047e-16 0)
(0.0898537 -3.48584e-17 0)
(0.0898537 7.07814e-17 0)
(0.0898537 -9.16669e-17 0)
(0.0898537 1.41639e-17 0)
(0.0898537 -1.39325e-19 0)
(0.0898537 9.14509e-17 0)
(0.0898537 6.93656e-17 0)
(0.0898537 -4.6509e-17 0)
(0.0898537 -5.07264e-17 0)
(0.0898537 3.45207e-18 0)
(0.0898537 -2.25773e-17 0)
(0.0898537 -1.20434e-17 0)
(0.0898537 6.51536e-17 0)
(0.0898537 -1.58329e-16 0)
(0.0898537 8.43846e-17 0)
(0.0898537 1.38666e-16 0)
(0.0898537 -1.48405e-16 0)
(0.0898537 4.98448e-17 0)
(0.0898537 1.39533e-16 0)
(0.0898537 -1.04195e-16 0)
(0.0898537 -4.66618e-17 0)
(0.0898537 6.85051e-17 0)
(0.0898537 1.02588e-16 0)
(0.0898537 2.64747e-18 0)
(0.0898537 -6.17032e-17 0)
(0.0898537 8.49428e-17 0)
(0.0898537 2.66791e-18 0)
(0.0898537 -7.92423e-17 0)
(0.0898537 -1.51187e-17 0)
(0.0898537 -3.76282e-17 0)
(0.0898537 5.83751e-17 0)
(0.0898537 -2.86324e-17 0)
(0.0898537 -9.92923e-17 0)
(0.0898537 -2.47918e-17 0)
(0.0898537 -1.95809e-17 0)
(0.0898537 1.20234e-17 0)
(0.0898537 -8.12458e-17 0)
(0.0898537 -5.58437e-17 0)
(0.0898537 -9.62994e-19 0)
(0.0898537 1.38032e-16 0)
(0.0898537 6.93632e-17 0)
(0.0898537 -3.472e-17 0)
(0.0898537 7.30614e-17 0)
(0.0898537 2.5271e-17 0)
(0.0898537 -1.57357e-16 0)
(0.0898537 -6.90684e-17 0)
(0.0898537 5.99784e-17 0)
(0.0898537 -1.26924e-16 0)
(0.0898537 1.09231e-16 0)
(0.0898537 7.63746e-17 0)
(0.0898537 1.16856e-17 0)
(0.0898537 9.03598e-17 0)
(0.0898537 -1.10427e-16 0)
(0.0898537 -1.11741e-16 0)
(0.0898537 3.98805e-17 0)
(0.0898537 -3.29583e-17 0)
(0.0898537 9.41267e-18 0)
(0.0898537 1.77979e-17 0)
(0.0898537 -8.75143e-17 0)
(0.0898537 5.57828e-17 0)
(0.0898537 -6.31611e-17 0)
(0.0898537 3.17745e-17 0)
(0.0898537 -5.04757e-17 0)
(0.0898537 -4.68051e-17 0)
(0.0898537 1.01205e-16 0)
(0.0898537 1.06717e-16 0)
(0.0898537 -1.77515e-17 0)
(0.0898537 -7.54669e-17 0)
(0.0898537 3.68508e-17 0)
(0.0898537 -7.50418e-17 0)
(0.0898537 6.68143e-18 0)
(0.0898537 4.08911e-17 0)
(0.0898537 -1.57573e-17 0)
(0.0898537 3.82781e-17 0)
(0.0898537 1.22673e-16 0)
(0.0898537 6.87416e-18 0)
(0.0898537 -4.01691e-17 0)
(0.0898537 -1.01534e-16 0)
(0.0898537 -4.60166e-18 0)
(0.0898537 2.45639e-17 0)
(0.0898537 -7.82634e-17 0)
(0.0898537 9.06672e-17 0)
(0.0898537 4.54392e-17 0)
(0.0898537 6.54223e-17 0)
(0.0898537 -3.63976e-17 0)
(0.0898537 3.1675e-19 0)
(0.0898537 -1.03962e-17 0)
(0.0898537 -8.65527e-17 0)
(0.0898537 2.29813e-17 0)
(0.0898537 1.46551e-16 0)
(0.0898537 -4.44935e-17 0)
(0.0898537 -1.3336e-17 0)
(0.0898537 8.60343e-17 0)
(0.0898537 -8.77529e-17 0)
(0.0898537 1.07233e-17 0)
(0.0898537 -8.02039e-18 0)
(0.0898537 -4.36384e-17 0)
(0.0898537 2.87097e-17 0)
(0.0898537 1.07586e-16 0)
(0.0898537 -5.76401e-17 0)
(0.0898537 -4.83813e-17 0)
(0.0898537 6.40745e-17 0)
(0.0898537 -5.22495e-17 0)
(0.0898537 -8.36674e-17 0)
(0.0898537 4.11285e-17 0)
(0.0898537 -7.83057e-17 0)
(0.0898537 5.19428e-17 0)
(0.0898537 1.93173e-16 0)
(0.0898537 -1.23856e-16 0)
(0.0898537 5.35771e-17 0)
(0.0898537 -1.3496e-16 0)
(0.0898537 -1.22558e-16 0)
(0.0898537 2.68362e-16 0)
(0.0898537 -2.00194e-16 0)
(0.0898537 -1.09629e-16 0)
(0.0898537 4.04313e-16 0)
(0.0898537 -1.67424e-16 0)
(0.0898537 -1.28575e-16 0)
(0.0898537 1.14633e-16 0)
(0.0898537 -1.31404e-16 0)
(0.0898537 9.08062e-17 0)
(0.0898537 -9.08421e-17 0)
(0.0898537 -3.18154e-17 0)
(0.0898537 1.21521e-16 0)
(0.0898537 9.63899e-17 0)
(0.0898537 -1.25014e-16 0)
(0.0898537 -1.15125e-16 0)
(0.0898537 -5.18972e-17 0)
(0.0898537 5.94636e-17 0)
(0.0898537 1.54263e-16 0)
(0.0898537 -1.73524e-16 0)
(0.0898537 2.04914e-16 0)
(0.0898537 3.83103e-18 0)
(0.0898537 -2.26571e-16 0)
(0.0898537 1.56222e-16 0)
(0.0898537 8.84682e-17 0)
(0.0898537 -2.2665e-16 0)
(0.0898537 8.83856e-17 0)
(0.0898537 2.74713e-17 0)
(0.0898537 -1.59433e-16 0)
(0.0898537 3.32676e-16 0)
(0.0898537 1.03284e-16 0)
(0.0898537 -2.86927e-16 0)
(0.0898537 7.88126e-17 0)
(0.0898537 -2.27299e-17 0)
(0.0898537 -1.8752e-16 0)
(0.0898537 2.94095e-16 0)
(0.0898537 -1.3661e-16 0)
(0.0898537 -1.05748e-16 0)
(0.0898537 3.73673e-16 0)
(0.0898537 -1.41892e-16 0)
(0.0898537 -2.41192e-16 0)
(0.0898537 1.94213e-16 0)
(0.0898537 -1.42136e-16 0)
(0.0898537 -1.71255e-16 0)
(0.0898537 2.90991e-16 0)
(0.0898537 3.53922e-17 0)
(0.0898537 -2.45719e-16 0)
(0.0898537 1.15696e-16 0)
(0.0898537 6.1488e-17 0)
(0.0898537 -1.11408e-16 0)
(0.0898537 7.06811e-17 0)
(0.0898537 -5.50617e-17 0)
(0.0898537 -1.36149e-16 0)
(0.0898537 -3.33334e-17 0)
(0.0898537 1.8725e-16 0)
(0.0898537 1.05376e-16 0)
(0.0898537 -6.14029e-17 0)
(0.0898537 -1.39855e-16 0)
(0.0898537 -9.77768e-17 0)
(0.0898537 1.57448e-16 0)
(0.0898537 -2.77257e-17 0)
(0.0898537 -1.43867e-16 0)
(0.0898537 -5.79757e-17 0)
(0.0898537 2.38593e-16 0)
(0.0898537 1.70248e-16 0)
(0.0898537 -2.87498e-16 0)
(0.0898537 1.95818e-17 0)
(0.0898537 1.18966e-16 0)
(0.0898537 -2.35588e-16 0)
(0.0898537 1.79143e-16 0)
(0.0898537 1.81099e-16 0)
(0.0898537 -3.36561e-16 0)
(0.0898537 2.77384e-16 0)
(0.0898537 1.31179e-16 0)
(0.0898537 -3.13828e-16 0)
(0.0898537 7.3299e-17 0)
(0.0898537 -2.05708e-17 0)
(0.0898537 -1.57944e-16 0)
(0.0898537 8.88899e-17 0)
(0.0898537 1.88836e-16 0)
(0.0898537 -7.19052e-18 0)
(0.0898537 -2.01687e-17 0)
(0.0898537 -1.55502e-16 0)
(0.0898537 -1.00078e-16 0)
(0.0898537 1.78378e-16 0)
(0.0898537 -7.19857e-17 0)
(0.0898537 -2.24093e-16 0)
(0.0898537 9.42613e-17 0)
(0.0898537 2.30295e-16 0)
(0.0898537 1.42195e-17 0)
(0.0898537 -1.25216e-17 0)
(0.0898537 -1.81736e-16 0)
(0.0898537 -1.56628e-16 0)
(0.0898537 1.02949e-16 0)
(0.0898537 4.43398e-17 0)
(0.0898537 1.14478e-16 0)
(0.0898537 -1.96788e-16 0)
(0.0898537 8.7534e-17 0)
(0.0898537 2.96897e-16 0)
(0.0898537 -2.523e-16 0)
(0.0898537 -2.64081e-17 0)
(0.0898537 -2.28606e-18 0)
(0.0898537 -1.26019e-16 0)
(0.0898537 2.21439e-17 0)
(0.0898537 3.13968e-16 0)
(0.0898537 3.71275e-17 0)
(0.0898537 -1.34186e-16 0)
(0.0898537 -9.40646e-17 0)
(0.0898537 -6.53104e-17 0)
(0.0898537 1.72759e-16 0)
(0.0898537 -1.13233e-16 0)
(0.0898537 6.01092e-18 0)
(0.0898537 -5.73332e-17 0)
(0.0898537 1.58284e-16 0)
(0.0898537 1.44915e-17 0)
(0.0898537 -9.3751e-17 0)
(0.0898537 -6.53952e-17 0)
(0.0898537 -9.33059e-18 0)
(0.0898537 5.34676e-17 0)
(0.0898537 -6.27356e-17 0)
(0.0898537 2.04289e-16 0)
(0.0898537 -1.82985e-16 0)
(0.0898537 8.03289e-17 0)
(0.0898537 1.07854e-16 0)
(0.0898537 -1.20912e-16 0)
(0.0898537 -7.03504e-17 0)
(0.0898537 1.05567e-16 0)
(0.0898537 -8.79657e-17 0)
(0.0898537 -1.85331e-16 0)
(0.0898537 3.32179e-16 0)
(0.0898537 2.12945e-16 0)
(0.0898537 -1.50633e-16 0)
(0.0898537 -1.42935e-16 0)
(0.0898537 -1.18692e-16 0)
(0.0898537 -5.54142e-17 0)
(0.0898537 1.47213e-16 0)
(0.0898537 2.87147e-16 0)
(0.0898537 -2.29158e-16 0)
(0.0898537 -1.53024e-16 0)
(0.0898537 -6.56486e-17 0)
(0.0898537 3.10342e-16 0)
(0.0898537 2.07216e-16 0)
(0.0898537 -4.57002e-16 0)
(0.0898537 -3.34679e-17 0)
(0.0898537 2.5558e-16 0)
(0.0898537 1.58947e-16 0)
(0.0898537 -2.87563e-16 0)
(0.0898537 9.30452e-17 0)
(0.0898537 7.60855e-17 0)
(0.0898537 -3.78876e-17 0)
(0.0898537 8.17473e-17 0)
(0.0898537 -2.41105e-16 0)
(0.0898537 -2.41509e-17 0)
(0.0898537 3.08807e-16 0)
(0.0898537 5.42334e-17 0)
(0.0898537 -3.59619e-16 0)
(0.0898537 -6.89583e-17 0)
(0.0898537 4.13232e-16 0)
(0.0898537 -9.55829e-17 0)
(0.0898537 -2.14207e-16 0)
(0.0898537 5.18321e-17 0)
(0.0898537 1.25601e-16 0)
(0.0898537 3.04274e-17 0)
(0.0898537 1.91683e-17 0)
(0.0898537 -1.02066e-16 0)
(0.0898537 -1.009e-16 0)
(0.0898537 3.52724e-16 0)
(0.0898537 -1.24576e-17 0)
(0.0898537 -3.72716e-16 0)
(0.0898537 -4.01574e-18 0)
(0.0898537 4.79701e-16 0)
(0.0898537 -1.09425e-16 0)
(0.0898537 -7.0802e-17 0)
(0.0898537 -3.338e-18 0)
(0.0898537 -1.92937e-16 0)
(0.0898537 3.26877e-16 0)
(0.0898537 -2.07652e-16 0)
(0.0898537 -1.00121e-16 0)
(0.0898537 -2.63061e-17 0)
(0.0898537 1.04868e-16 0)
(0.0898537 9.16486e-18 0)
(0.0898537 -6.5688e-17 0)
(0.0898537 3.34823e-17 0)
(0.0898537 -1.33627e-16 0)
(0.0898537 2.18622e-16 0)
(0.0898537 -3.16829e-17 0)
(0.0898537 1.00171e-16 0)
(0.0898537 -7.59717e-17 0)
(0.0898537 8.79357e-17 0)
(0.0898537 -2.99165e-17 0)
(0.0898537 -6.88168e-17 0)
(0.0898537 8.62705e-17 0)
(0.0898537 5.05175e-17 0)
(0.0898537 1.61315e-16 0)
(0.0898537 -4.82115e-16 0)
(0.0898537 1.7739e-16 0)
(0.0898537 1.95376e-16 0)
(0.0898537 1.62099e-17 0)
(0.0898537 3.52141e-17 0)
(0.0898537 -3.6494e-16 0)
(0.0898537 9.45591e-17 0)
(0.0898537 2.05291e-16 0)
(0.0898537 -5.44477e-17 0)
(0.0898537 -2.0546e-16 0)
(0.0898537 1.40933e-16 0)
(0.0898537 -3.29761e-17 0)
(0.0898537 1.24792e-17 0)
(0.0898537 5.52693e-17 0)
(0.0898537 -1.32535e-16 0)
(0.0898537 1.84009e-16 0)
(0.0898537 6.83577e-17 0)
(0.0898537 7.67141e-17 0)
(0.0898537 -2.46377e-16 0)
(0.0898537 3.03356e-17 0)
(0.0898537 1.2815e-16 0)
(0.0898537 1.98226e-17 0)
(0.0898537 -3.48565e-17 0)
(0.0898537 -9.00707e-17 0)
(0.0898537 2.13778e-16 0)
(0.0898537 -2.68736e-16 0)
(0.0898537 4.89192e-17 0)
(0.0898537 3.11737e-17 0)
(0.0898537 -8.47369e-17 0)
(0.0898537 2.50458e-16 0)
(0.0898537 -1.85404e-16 0)
(0.0898537 -2.3631e-16 0)
(0.0898537 1.53542e-16 0)
(0.0898537 2.08727e-16 0)
(0.0898537 -2.87865e-16 0)
(0.0898537 -3.46096e-17 0)
(0.0898537 -6.76268e-17 0)
(0.0898537 -1.23422e-16 0)
(0.0898537 -4.35322e-17 0)
(0.0898537 -5.51254e-16 0)
(0.0898537 -1.22047e-15 0)
(0.148127 -3.10935e-15 0)
(0.148127 -1.36272e-15 0)
(0.148127 -6.22657e-16 0)
(0.148127 -2.60036e-16 0)
(0.148127 -1.10432e-16 0)
(0.148127 -7.13782e-17 0)
(0.148127 -6.03281e-17 0)
(0.148127 -1.94051e-17 0)
(0.148127 -3.67472e-17 0)
(0.148127 -5.57419e-17 0)
(0.148127 -8.21996e-17 0)
(0.148127 -8.13182e-17 0)
(0.148127 -6.5798e-17 0)
(0.148127 -4.57906e-17 0)
(0.148127 -2.04887e-17 0)
(0.148127 -4.057e-17 0)
(0.148127 -6.47917e-17 0)
(0.148127 -4.82902e-17 0)
(0.148127 -9.38044e-18 0)
(0.148127 1.60051e-18 0)
(0.148127 -2.99724e-17 0)
(0.148127 1.04104e-17 0)
(0.148127 2.51086e-17 0)
(0.148127 -3.33962e-18 0)
(0.148127 -3.19314e-17 0)
(0.148127 -7.17793e-17 0)
(0.148127 -3.25159e-17 0)
(0.148127 1.99045e-17 0)
(0.148127 -5.35483e-17 0)
(0.148127 -4.23709e-17 0)
(0.148127 -2.7483e-17 0)
(0.148127 -2.50596e-17 0)
(0.148127 -3.37034e-17 0)
(0.148127 -8.12806e-17 0)
(0.148127 -5.29258e-17 0)
(0.148127 1.83357e-18 0)
(0.148127 -8.51527e-17 0)
(0.148127 -4.63572e-17 0)
(0.148127 -6.107e-18 0)
(0.148127 -8.38227e-17 0)
(0.148127 -5.1261e-17 0)
(0.148127 -4.31149e-17 0)
(0.148127 -2.25653e-17 0)
(0.148127 3.9147e-17 0)
(0.148127 5.45596e-17 0)
(0.148127 4.97417e-17 0)
(0.148127 3.4226e-17 0)
(0.148127 -6.19956e-17 0)
(0.148127 -2.47101e-17 0)
(0.148127 7.56556e-17 0)
(0.148127 3.81677e-17 0)
(0.148127 -3.02919e-17 0)
(0.148127 -4.59305e-17 0)
(0.148127 1.159e-17 0)
(0.148127 3.68921e-17 0)
(0.148127 -6.29572e-18 0)
(0.148127 2.46833e-17 0)
(0.148127 -6.55556e-17 0)
(0.148127 -6.69826e-17 0)
(0.148127 -6.96846e-18 0)
(0.148127 -1.54627e-17 0)
(0.148127 3.85236e-18 0)
(0.148127 -3.67836e-17 0)
(0.148127 1.2763e-17 0)
(0.148127 3.35471e-17 0)
(0.148127 -8.67138e-18 0)
(0.148127 -6.89492e-17 0)
(0.148127 -3.93411e-17 0)
(0.148127 4.55401e-17 0)
(0.148127 3.61185e-17 0)
(0.148127 4.50853e-17 0)
(0.148127 1.31612e-17 0)
(0.148127 7.1201e-17 0)
(0.148127 -3.32886e-18 0)
(0.148127 -9.72655e-17 0)
(0.148127 1.42836e-16 0)
(0.148127 1.20329e-16 0)
(0.148127 -2.73133e-17 0)
(0.148127 -6.57946e-17 0)
(0.148127 -1.04053e-19 0)
(0.148127 2.05407e-17 0)
(0.148127 -3.986e-17 0)
(0.148127 -3.75959e-17 0)
(0.148127 -6.05291e-18 0)
(0.148127 5.11184e-18 0)
(0.148127 6.88455e-18 0)
(0.148127 -3.52851e-17 0)
(0.148127 4.07461e-17 0)
(0.148127 -2.56453e-18 0)
(0.148127 -1.02995e-17 0)
(0.148127 7.83278e-17 0)
(0.148127 3.49731e-17 0)
(0.148127 5.70196e-17 0)
(0.148127 7.07669e-17 0)
(0.148127 1.87079e-17 0)
(0.148127 -1.1928e-16 0)
(0.148127 -1.2223e-17 0)
(0.148127 1.91665e-16 0)
(0.148127 -3.84643e-17 0)
(0.148127 -8.91166e-17 0)
(0.148127 1.42817e-16 0)
(0.148127 6.9955e-17 0)
(0.148127 -4.9733e-17 0)
(0.148127 -8.82061e-17 0)
(0.148127 8.76178e-19 0)