/*--------------------------------*- C++ -*----------------------------------*\
| =========                 |                                                 |
| \\      /  F ield         | OpenFOAM: The Open Source CFD Toolbox           |
|  \\    /   O peration     | Version:  2112                                  |
|   \\  /    A nd           | Website:  www.openfoam.com                      |
|    \\/     M anipulation  |                                                 |
\*---------------------------------------------------------------------------*/
FoamFile
{
    version     2.0;
    format      ascii;
    arch        "LSB;label=32;scalar=64";
    class       volVectorField;
    location    "6";
    object      U;
}
// * * * * * * * * * * * * * * * * * * * * * * * * * * * * * * * * * * * * * //

dimensions      [0 1 -1 0 0 0 0];

internalField   nonuniform List<vector> 
25600
(
(0.0374888 1.17273e-16 0)
(0.0374888 1.51659e-18 0)
(0.0374888 3.90074e-17 0)
(0.0374888 1.269e-17 0)
(0.0374888 1.68067e-17 0)
(0.0374888 8.74057e-18 0)
(0.0374888 -1.11021e-19 0)
(0.0374888 3.60507e-18 0)
(0.0374888 -1.92422e-18 0)
(0.0374888 -1.45704e-18 0)
(0.0374888 6.36529e-18 0)
(0.0374888 -9.16488e-18 0)
(0.0374888 5.41249e-18 0)
(0.0374888 3.96808e-18 0)
(0.0374888 -4.10685e-18 0)
(0.0374888 1.28041e-17 0)
(0.0374888 3.56268e-18 0)
(0.0374888 -3.76694e-18 0)
(0.0374888 -5.28809e-18 0)
(0.0374888 6.0192e-19 0)
(0.0374888 8.01803e-18 0)
(0.0374888 6.0521e-18 0)
(0.0374888 3.2993e-18 0)
(0.0374888 -4.13084e-18 0)
(0.0374888 -1.34992e-17 0)
(0.0374888 1.87296e-18 0)
(0.0374888 2.49187e-17 0)
(0.0374888 -7.90548e-19 0)
(0.0374888 -1.85772e-17 0)
(0.0374888 8.31432e-19 0)
(0.0374888 6.91438e-18 0)
(0.0374888 1.16596e-17 0)
(0.0374888 1.08185e-18 0)
(0.0374888 -7.81968e-18 0)
(0.0374888 4.05612e-19 0)
(0.0374888 -5.75553e-18 0)
(0.0374888 1.62798e-18 0)
(0.0374888 -4.7985e-18 0)
(0.0374888 -6.07205e-18 0)
(0.0374888 1.06761e-17 0)
(0.0374888 3.61321e-18 0)
(0.0374888 1.26871e-17 0)
(0.0374888 -1.24961e-17 0)
(0.0374888 -1.66939e-17 0)
(0.0374888 2.26415e-17 0)
(0.0374888 -1.10228e-17 0)
(0.0374888 4.1805e-18 0)
(0.0374888 3.5729e-18 0)
(0.0374888 -1.60567e-18 0)
(0.0374888 3.92368e-18 0)
(0.0374888 -3.05105e-17 0)
(0.0374888 1.89351e-17 0)
(0.0374888 1.21823e-18 0)
(0.0374888 2.06706e-18 0)
(0.0374888 3.02735e-17 0)
(0.0374888 -3.04431e-17 0)
(0.0374888 -9.95019e-19 0)
(0.0374888 -1.24992e-17 0)
(0.0374888 -1.69553e-18 0)
(0.0374888 4.21634e-17 0)
(0.0374888 -3.16648e-17 0)
(0.0374888 5.79591e-18 0)
(0.0374888 -3.98758e-19 0)
(0.0374888 -1.67083e-18 0)
(0.0374888 2.12755e-17 0)
(0.0374888 -2.46226e-17 0)
(0.0374888 2.50978e-18 0)
(0.0374888 -1.14133e-17 0)
(0.0374888 1.15181e-17 0)
(0.0374888 7.68556e-18 0)
(0.0374888 -8.22616e-18 0)
(0.0374888 -1.00914e-18 0)
(0.0374888 -1.22422e-18 0)
(0.0374888 -4.04237e-18 0)
(0.0374888 1.28272e-17 0)
(0.0374888 -3.80789e-18 0)
(0.0374888 -2.01613e-17 0)
(0.0374888 1.23416e-17 0)
(0.0374888 -1.76425e-18 0)
(0.0374888 3.1033e-17 0)
(0.0374888 -2.22855e-17 0)
(0.0374888 -3.28991e-17 0)
(0.0374888 2.51614e-17 0)
(0.0374888 3.17111e-18 0)
(0.0374888 2.34715e-17 0)
(0.0374888 -5.69698e-18 0)
(0.0374888 -4.04111e-17 0)
(0.0374888 -1.86404e-19 0)
(0.0374888 1.72321e-17 0)
(0.0374888 3.41781e-17 0)
(0.0374888 -4.47604e-18 0)
(0.0374888 -4.94644e-17 0)
(0.0374888 -1.21449e-18 0)
(0.0374888 4.65398e-17 0)
(0.0374888 3.22949e-18 0)
(0.0374888 -5.18444e-17 0)
(0.0374888 4.11682e-18 0)
(0.0374888 -7.26432e-18 0)
(0.0374888 4.4385e-17 0)
(0.0374888 2.79247e-17 0)
(0.0374888 -6.74357e-17 0)
(0.0374888 7.28478e-18 0)
(0.0374888 -6.72257e-18 0)
(0.0374888 4.16025e-17 0)
(0.0374888 6.22028e-18 0)
(0.0374888 -1.96236e-17 0)
(0.0374888 -3.02128e-17 0)
(0.0374888 1.04113e-17 0)
(0.0374888 2.90898e-17 0)
(0.0374888 -1.20696e-17 0)
(0.0374888 3.30967e-17 0)
(0.0374888 -8.68071e-17 0)
(0.0374888 1.85242e-17 0)
(0.0374888 5.68218e-17 0)
(0.0374888 5.27561e-18 0)
(0.0374888 -1.71208e-17 0)
(0.0374888 -6.14078e-17 0)
(0.0374888 3.38562e-17 0)
(0.0374888 3.64984e-17 0)
(0.0374888 1.24819e-17 0)
(0.0374888 -6.38052e-18 0)
(0.0374888 -5.72181e-17 0)
(0.0374888 -1.18544e-17 0)
(0.0374888 6.33801e-17 0)
(0.0374888 1.15255e-17 0)
(0.0374888 -2.66054e-17 0)
(0.0374888 -4.49265e-17 0)
(0.0374888 2.94277e-18 0)
(0.0374888 6.36678e-17 0)
(0.0374888 -4.6059e-19 0)
(0.0374888 -2.46762e-17 0)
(0.0374888 -3.40152e-17 0)
(0.0374888 2.10151e-17 0)
(0.0374888 3.43455e-17 0)
(0.0374888 -1.85317e-17 0)
(0.0374888 -1.74705e-17 0)
(0.0374888 -1.46214e-17 0)
(0.0374888 4.2256e-17 0)
(0.0374888 2.30438e-17 0)
(0.0374888 -1.97076e-17 0)
(0.0374888 -2.86722e-17 0)
(0.0374888 -1.50322e-17 0)
(0.0374888 4.53173e-17 0)
(0.0374888 1.14483e-17 0)
(0.0374888 -4.35715e-17 0)
(0.0374888 4.50215e-17 0)
(0.0374888 -1.09643e-17 0)
(0.0374888 -3.47471e-17 0)
(0.0374888 6.31242e-19 0)
(0.0374888 -9.18344e-18 0)
(0.0374888 5.56359e-17 0)
(0.0374888 -1.18114e-17 0)
(0.0374888 -4.92072e-17 0)
(0.0374888 9.02039e-18 0)
(0.0374888 2.27023e-17 0)
(0.0374888 2.79405e-17 0)
(0.0374888 -3.3087e-17 0)
(0.0374888 -3.35884e-17 0)
(0.0374888 2.19914e-17 0)
(0.0374888 -5.66166e-19 0)
(0.0374888 6.20851e-17 0)
(0.0374888 -5.90931e-17 0)
(0.0374888 -4.44717e-17 0)
(0.0374888 6.31026e-17 0)
(0.0374888 -1.59966e-17 0)
(0.0374888 4.83435e-17 0)
(0.0374888 -4.16391e-17 0)
(0.0374888 -1.22731e-17 0)
(0.0374888 7.5569e-18 0)
(0.0374888 -4.70792e-17 0)
(0.0374888 8.45737e-17 0)
(0.0374888 -5.42809e-17 0)
(0.0374888 1.72895e-19 0)
(0.0374888 1.61521e-17 0)
(0.0374888 -3.59252e-17 0)
(0.0374888 8.19732e-17 0)
(0.0374888 -5.85808e-17 0)
(0.0374888 9.90273e-18 0)
(0.0374888 -1.03045e-17 0)
(0.0374888 -3.59724e-17 0)
(0.0374888 1.07811e-16 0)
(0.0374888 -7.19124e-17 0)
(0.0374888 -1.72441e-18 0)
(0.0374888 1.78291e-17 0)
(0.0374888 -4.80779e-17 0)
(0.0374888 1.00056e-16 0)
(0.0374888 -5.91144e-17 0)
(0.0374888 -3.07487e-18 0)
(0.0374888 6.35134e-17 0)
(0.0374888 -9.57743e-17 0)
(0.0374888 4.47713e-17 0)
(0.0374888 -3.73484e-19 0)
(0.0374888 -5.60031e-17 0)
(0.0374888 9.63798e-17 0)
(0.0374888 -4.31354e-17 0)
(0.0374888 7.72406e-18 0)
(0.0374888 -4.73363e-17 0)
(0.0374888 -1.23787e-17 0)
(0.0374888 1.40813e-16 0)
(0.0374888 -8.97323e-17 0)
(0.0374888 5.26713e-18 0)
(0.0374888 -5.08103e-17 0)
(0.0374888 -1.50518e-19 0)
(0.0374888 1.47605e-16 0)
(0.0374888 -9.1406e-17 0)
(0.0374888 -4.79509e-17 0)
(0.0374888 -1.06664e-17 0)
(0.0374888 4.66937e-17 0)
(0.0374888 8.69463e-17 0)
(0.0374888 -4.69227e-17 0)
(0.0374888 -7.25869e-17 0)
(0.0374888 -6.64702e-17 0)
(0.0374888 1.57588e-16 0)
(0.0374888 2.79284e-18 0)
(0.0374888 -1.66056e-16 0)
(0.0374888 1.54217e-16 0)
(0.0374888 2.53837e-17 0)
(0.0374888 -7.75698e-17 0)
(0.0374888 -3.0212e-17 0)
(0.0374888 -8.22257e-17 0)
(0.0374888 1.63794e-16 0)
(0.0374888 4.01645e-17 0)
(0.0374888 -9.05348e-17 0)
(0.0374888 -3.53513e-17 0)
(0.0374888 -8.42098e-17 0)
(0.0374888 1.66924e-16 0)
(0.0374888 2.21532e-19 0)
(0.0374888 -5.77764e-17 0)
(0.0374888 1.7694e-17 0)
(0.0374888 -1.07239e-16 0)
(0.0374888 1.55315e-16 0)
(0.0374888 -1.34301e-17 0)
(0.0374888 -9.35832e-17 0)
(0.0374888 6.02061e-17 0)
(0.0374888 -7.45577e-17 0)
(0.0374888 9.33932e-17 0)
(0.0374888 -6.61189e-18 0)
(0.0374888 -3.43973e-17 0)
(0.0374888 2.53092e-17 0)
(0.0374888 -1.22874e-16 0)
(0.0374888 1.47485e-16 0)
(0.0374888 -1.32381e-17 0)
(0.0374888 -4.53404e-17 0)
(0.0374888 7.44416e-17 0)
(0.0374888 -1.38332e-16 0)
(0.0374888 1.7191e-17 0)
(0.0374888 4.22114e-17 0)
(0.0374888 4.45887e-17 0)
(0.0374888 1.79331e-17 0)
(0.0374888 -1.23228e-16 0)
(0.0374888 8.52398e-17 0)
(0.0374888 3.1844e-19 0)
(0.0374888 -2.21185e-17 0)
(0.0374888 4.29908e-17 0)
(0.0374888 -1.16184e-16 0)
(0.0374888 1.01467e-16 0)
(0.0374888 -8.65456e-18 0)
(0.0374888 -1.61783e-17 0)
(0.0374888 7.11455e-17 0)
(0.0374888 -1.26244e-16 0)
(0.0374888 5.96936e-17 0)
(0.0374888 -6.4356e-18 0)
(0.0374888 3.21384e-18 0)
(0.0374888 6.24719e-17 0)
(0.0374888 -1.1152e-16 0)
(0.0374888 7.25373e-17 0)
(0.0374888 2.97607e-17 0)
(0.0374888 -4.47939e-17 0)
(0.0374888 1.38607e-17 0)
(0.0374888 -7.56419e-17 0)
(0.0374888 6.73831e-17 0)
(0.0374888 3.40556e-17 0)
(0.0374888 -7.44996e-17 0)
(0.0374888 6.0058e-17 0)
(0.0374888 -3.46207e-17 0)
(0.0374888 3.1661e-17 0)
(0.0374888 3.85931e-17 0)
(0.0374888 -8.91536e-17 0)
(0.0374888 6.91879e-17 0)
(0.0374888 -3.99926e-17 0)
(0.0374888 1.42721e-17 0)
(0.0374888 4.04601e-17 0)
(0.0374888 -8.33819e-17 0)
(0.0374888 6.36643e-17 0)
(0.0374888 -3.86738e-17 0)
(0.0374888 -2.96981e-17 0)
(0.0374888 9.3831e-17 0)
(0.0374888 -5.07483e-17 0)
(0.0374888 -1.02042e-17 0)
(0.0374888 -6.68332e-17 0)
(0.0374888 3.51799e-17 0)
(0.0374888 1.2897e-16 0)
(0.0374888 -8.59268e-18 0)
(0.0374888 -1.21841e-16 0)
(0.0374888 -2.33092e-17 0)
(0.0374888 6.05346e-17 0)
(0.0374888 1.21853e-17 0)
(0.0374888 7.64982e-17 0)
(0.0374888 -1.24825e-16 0)
(0.0374888 -1.98316e-17 0)
(0.0374888 5.78376e-17 0)
(0.0374888 6.82081e-18 0)
(0.0374888 5.17678e-17 0)
(0.0374888 -9.72599e-17 0)
(0.0374888 2.41023e-17 0)
(0.0374888 3.24759e-17 0)
(0.0374888 -5.08772e-17 0)
(0.0374888 9.27585e-17 0)
(0.0374888 -5.5954e-17 0)
(0.0374888 -1.51527e-18 0)
(0.0374888 2.38956e-17 0)
(0.0374888 -7.04509e-17 0)
(0.0374888 9.78424e-17 0)
(0.0374888 -3.04162e-17 0)
(0.0374888 -5.47927e-17 0)
(0.0374888 6.27277e-17 0)
(0.0374888 -9.0233e-18 0)
(0.0374888 8.13029e-17 0)
(0.0374888 6.47892e-18 0)
(0.0374888 -5.09519e-17 0)
(0.110592 4.51637e-16 0)
(0.110592 1.26436e-16 0)
(0.110592 9.03995e-17 0)
(0.110592 5.41973e-17 0)
(0.110592 6.06531e-17 0)
(0.110592 4.33149e-17 0)
(0.110592 3.06674e-18 0)
(0.110592 1.07081e-17 0)
(0.110592 2.96815e-19 0)
(0.110592 -4.62828e-18 0)
(0.110592 -3.0899e-18 0)
(0.110592 -2.12296e-17 0)
(0.110592 1.75666e-17 0)
(0.110592 1.59416e-17 0)
(0.110592 6.98244e-18 0)
(0.110592 4.86941e-17 0)
(0.110592 2.83626e-17 0)
(0.110592 6.03168e-19 0)
(0.110592 -1.47102e-17 0)
(0.110592 2.15727e-18 0)
(0.110592 3.93253e-17 0)
(0.110592 1.71312e-17 0)
(0.110592 2.32929e-17 0)
(0.110592 -6.09286e-18 0)
(0.110592 -2.80543e-17 0)
(0.110592 -5.44709e-18 0)
(0.110592 4.43827e-17 0)
(0.110592 1.48163e-17 0)
(0.110592 -1.15173e-17 0)
(0.110592 -8.84839e-18 0)
(0.110592 1.45184e-17 0)
(0.110592 4.70335e-17 0)
(0.110592 3.02745e-18 0)
(0.110592 -2.18671e-17 0)
(0.110592 -8.55628e-18 0)
(0.110592 -7.7642e-18 0)
(0.110592 2.36812e-17 0)
(0.110592 -3.39743e-17 0)
(0.110592 -4.58362e-17 0)
(0.110592 5.19283e-17 0)
(0.110592 4.09142e-18 0)
(0.110592 1.20725e-18 0)
(0.110592 -2.84241e-18 0)
(0.110592 -4.15529e-17 0)
(0.110592 2.10918e-17 0)
(0.110592 -3.7681e-18 0)
(0.110592 1.06709e-17 0)
(0.110592 1.33806e-17 0)
(0.110592 3.72741e-18 0)
(0.110592 1.25694e-17 0)
(0.110592 -4.84138e-17 0)
(0.110592 1.99687e-17 0)
(0.110592 5.04735e-18 0)
(0.110592 1.60918e-17 0)
(0.110592 7.13532e-17 0)
(0.110592 -3.59709e-17 0)
(0.110592 -4.00508e-18 0)
(0.110592 -9.00856e-20 0)
(0.110592 5.65067e-18 0)
(0.110592 4.13012e-17 0)
(0.110592 -7.37368e-17 0)
(0.110592 3.70195e-17 0)
(0.110592 9.41625e-18 0)
(0.110592 -9.39116e-18 0)
(0.110592 4.47551e-17 0)
(0.110592 -5.29975e-17 0)
(0.110592 -8.75876e-18 0)
(0.110592 -3.4174e-18 0)
(0.110592 9.54116e-18 0)
(0.110592 4.76039e-17 0)
(0.110592 -3.53353e-17 0)
(0.110592 -2.42271e-17 0)
(0.110592 -3.46786e-17 0)
(0.110592 -2.74533e-17 0)
(0.110592 1.08859e-16 0)
(0.110592 -5.91484e-17 0)
(0.110592 -9.37175e-17 0)
(0.110592 3.84787e-17 0)
(0.110592 2.1793e-18 0)
(0.110592 5.72114e-17 0)
(0.110592 -1.35838e-17 0)
(0.110592 -1.14506e-16 0)
(0.110592 -2.31076e-18 0)
(0.110592 4.26506e-17 0)
(0.110592 4.00338e-17 0)
(0.110592 -1.349e-17 0)
(0.110592 -5.85073e-17 0)
(0.110592 -4.40982e-17 0)
(0.110592 3.69565e-17 0)
(0.110592 1.0959e-16 0)
(0.110592 -3.13563e-17 0)
(0.110592 -9.31159e-17 0)
(0.110592 -5.36893e-18 0)
(0.110592 6.56669e-17 0)
(0.110592 9.13568e-19 0)
(0.110592 -9.79727e-17 0)
(0.110592 -1.60524e-17 0)
(0.110592 -2.92075e-17 0)
(0.110592 6.89765e-17 0)
(0.110592 5.47953e-17 0)
(0.110592 -8.34332e-17 0)
(0.110592 3.37463e-17 0)
(0.110592 -4.90367e-17 0)
(0.110592 1.35677e-17 0)
(0.110592 5.75192e-17 0)
(0.110592 8.69991e-18 0)
(0.110592 -8.20944e-17 0)
(0.110592 -3.26048e-17 0)
(0.110592 7.27201e-17 0)
(0.110592 4.43711e-17 0)
(0.110592 5.5025e-17 0)
(0.110592 -1.84458e-16 0)
(0.110592 9.60712e-18 0)
(0.110592 1.66255e-16 0)
(0.110592 3.92635e-17 0)
(0.110592 -1.35474e-17 0)
(0.110592 -1.29256e-16 0)
(0.110592 -3.22522e-17 0)
(0.110592 1.16922e-16 0)
(0.110592 5.56335e-17 0)
(0.110592 -4.98593e-17 0)
(0.110592 -1.435e-16 0)
(0.110592 -3.83337e-17 0)
(0.110592 1.7217e-16 0)
(0.110592 9.38398e-17 0)
(0.110592 -7.15051e-17 0)
(0.110592 -1.64968e-16 0)
(0.110592 2.13731e-17 0)
(0.110592 1.76018e-16 0)
(0.110592 2.64659e-17 0)
(0.110592 -5.43724e-17 0)
(0.110592 -9.45458e-17 0)
(0.110592 2.14291e-17 0)
(0.110592 1.1225e-16 0)
(0.110592 1.41699e-17 0)
(0.110592 2.4403e-17 0)
(0.110592 -9.59443e-17 0)
(0.110592 -3.64674e-17 0)
(0.110592 1.30643e-16 0)
(0.110592 3.9032e-17 0)
(0.110592 -1.9963e-17 0)
(0.110592 -9.22102e-17 0)
(0.110592 -1.12785e-17 0)
(0.110592 7.39928e-17 0)
(0.110592 2.38124e-17 0)
(0.110592 -4.1175e-18 0)
(0.110592 -1.10593e-16 0)
(0.110592 1.70057e-17 0)
(0.110592 1.16559e-17 0)
(0.110592 2.46687e-17 0)
(0.110592 9.37226e-17 0)
(0.110592 -1.59395e-16 0)
(0.110592 -1.10844e-16 0)
(0.110592 8.44227e-17 0)
(0.110592 7.20751e-17 0)
(0.110592 5.24516e-17 0)
(0.110592 -9.19146e-17 0)
(0.110592 -9.9604e-17 0)
(0.110592 2.05007e-17 0)
(0.110592 3.5221e-17 0)
(0.110592 1.25456e-16 0)
(0.110592 -1.14532e-16 0)
(0.110592 -1.54547e-17 0)
(0.110592 1.23684e-16 0)
(0.110592 -1.61429e-16 0)
(0.110592 4.42971e-17 0)
(0.110592 -1.97225e-17 0)
(0.110592 -1.30037e-16 0)
(0.110592 1.30722e-16 0)
(0.110592 4.68092e-17 0)
(0.110592 -1.97251e-17 0)
(0.110592 -1.3738e-16 0)
(0.110592 -9.74546e-18 0)
(0.110592 8.20166e-17 0)
(0.110592 -1.74885e-17 0)
(0.110592 -2.52748e-17 0)
(0.110592 -5.72126e-17 0)
(0.110592 1.78189e-16 0)
(0.110592 -6.42241e-17 0)
(0.110592 -4.23638e-17 0)
(0.110592 1.67058e-16 0)
(0.110592 -1.7072e-16 0)
(0.110592 -1.17092e-17 0)
(0.110592 8.54616e-17 0)
(0.110592 -2.06871e-17 0)
(0.110592 1.53975e-16 0)
(0.110592 -1.10637e-16 0)
(0.110592 -1.30429e-17 0)
(0.110592 1.39337e-16 0)
(0.110592 -1.16384e-16 0)
(0.110592 4.25048e-17 0)
(0.110592 -1.70126e-17 0)
(0.110592 -9.16404e-17 0)
(0.110592 1.38367e-16 0)
(0.110592 -2.42101e-17 0)
(0.110592 2.0899e-17 0)
(0.110592 -7.70863e-17 0)
(0.110592 -4.81209e-17 0)
(0.110592 2.01374e-16 0)
(0.110592 -8.21282e-17 0)
(0.110592 4.83067e-18 0)
(0.110592 -8.01342e-17 0)
(0.110592 2.47229e-17 0)
(0.110592 2.36037e-16 0)
(0.110592 -5.50221e-17 0)
(0.110592 -1.44838e-16 0)
(0.110592 -1.16196e-16 0)
(0.110592 1.19859e-16 0)
(0.110592 1.17944e-16 0)
(0.110592 -6.26824e-17 0)
(0.110592 -8.96835e-17 0)
(0.110592 -1.25421e-16 0)
(0.110592 2.93318e-16 0)
(0.110592 2.53934e-17 0)
(0.110592 -2.96944e-16 0)
(0.110592 2.16957e-16 0)
(0.110592 -6.29172e-18 0)
(0.110592 -9.26969e-17 0)
(0.110592 -5.66755e-17 0)
(0.110592 -1.87812e-16 0)
(0.110592 3.03427e-16 0)
(0.110592 8.19282e-17 0)
(0.110592 -1.35816e-16 0)
(0.110592 -7.32059e-17 0)
(0.110592 -2.02317e-16 0)
(0.110592 3.04882e-16 0)
(0.110592 3.17508e-17 0)
(0.110592 -9.29544e-17 0)
(0.110592 9.05736e-17 0)
(0.110592 -1.4592e-16 0)
(0.110592 9.20283e-17 0)
(0.110592 -8.65557e-17 0)
(0.110592 5.03979e-18 0)
(0.110592 8.734e-17 0)
(0.110592 -2.33034e-16 0)
(0.110592 6.66581e-17 0)
(0.110592 2.47414e-17 0)
(0.110592 1.26632e-17 0)
(0.110592 8.90712e-17 0)
(0.110592 -2.12658e-16 0)
(0.110592 8.42889e-17 0)
(0.110592 -6.78698e-17 0)
(0.110592 9.24162e-18 0)
(0.110592 1.36151e-16 0)
(0.110592 -3.26047e-16 0)
(0.110592 3.05173e-17 0)
(0.110592 8.02166e-17 0)
(0.110592 9.51522e-17 0)
(0.110592 4.28531e-17 0)
(0.110592 -2.30028e-16 0)
(0.110592 2.2905e-16 0)
(0.110592 2.81466e-17 0)
(0.110592 -1.15167e-16 0)
(0.110592 -2.20791e-17 0)
(0.110592 -1.92861e-16 0)
(0.110592 3.15549e-16 0)
(0.110592 2.03478e-17 0)
(0.110592 -4.25297e-17 0)
(0.110592 1.27254e-16 0)
(0.110592 -2.64468e-16 0)
(0.110592 9.77852e-17 0)
(0.110592 5.6925e-17 0)
(0.110592 -1.49892e-17 0)
(0.110592 3.56649e-17 0)
(0.110592 -1.44135e-16 0)
(0.110592 1.84061e-16 0)
(0.110592 4.30469e-17 0)
(0.110592 -1.64967e-17 0)
(0.110592 -3.1199e-17 0)
(0.110592 -2.01439e-16 0)
(0.110592 1.26947e-16 0)
(0.110592 8.43004e-18 0)
(0.110592 9.14044e-17 0)
(0.110592 1.18074e-17 0)
(0.110592 -1.87012e-16 0)
(0.110592 1.53753e-16 0)
(0.110592 2.88768e-17 0)
(0.110592 -3.12421e-17 0)
(0.110592 1.26595e-16 0)
(0.110592 -1.57812e-16 0)
(0.110592 4.35564e-17 0)
(0.110592 5.76134e-17 0)
(0.110592 8.4164e-18 0)
(0.110592 -8.62973e-18 0)
(0.110592 -2.23337e-16 0)
(0.110592 3.98746e-17 0)
(0.110592 1.12893e-16 0)
(0.110592 4.88179e-17 0)
(0.110592 -1.67067e-16 0)
(0.110592 -1.56105e-16 0)
(0.110592 2.19118e-16 0)
(0.110592 -6.7447e-18 0)
(0.110592 -5.15405e-17 0)
(0.110592 -3.93817e-17 0)
(0.110592 -6.56459e-17 0)
(0.110592 2.19871e-16 0)
(0.110592 -1.95586e-17 0)
(0.110592 -4.73833e-17 0)
(0.110592 -9.05405e-17 0)
(0.110592 -7.33415e-17 0)
(0.110592 2.29172e-16 0)
(0.110592 5.97585e-18 0)
(0.110592 6.83348e-17 0)
(0.110592 -1.3221e-16 0)
(0.110592 -2.47626e-16 0)
(0.110592 9.72293e-17 0)
(0.110592 8.03501e-17 0)
(0.110592 1.33281e-16 0)
(0.110592 -1.20132e-16 0)
(0.110592 2.41334e-19 0)
(0.110592 8.74845e-17 0)
(0.110592 -1.29807e-16 0)
(0.110592 1.3506e-16 0)
(0.110592 -5.85504e-19 0)
(0.110592 -7.04672e-17 0)
(0.110592 1.54482e-16 0)
(0.110592 -5.88959e-17 0)
(0.110592 1.63e-16 0)
(0.110592 1.36984e-16 0)
(0.110592 4.3891e-17 0)
(0.181821 1.17102e-16 0)
(0.181821 1.36611e-16 0)
(0.181821 1.04225e-16 0)
(0.181821 8.48434e-17 0)
(0.181821 9.76519e-17 0)
(0.181821 8.16969e-17 0)
(0.181821 5.02199e-18 0)
(0.181821 4.66816e-18 0)
(0.181821 1.64384e-18 0)
(0.181821 -2.11625e-17 0)
(0.181821 -2.11819e-17 0)
(0.181821 -2.53136e-17 0)
(0.181821 3.71639e-17 0)
(0.181821 1.90032e-17 0)
(0.181821 2.05397e-17 0)
(0.181821 1.05371e-16 0)
(0.181821 6.13523e-17 0)
(0.181821 4.5559e-18 0)
(0.181821 -8.18696e-19 0)
(0.181821 2.60709e-17 0)
(0.181821 8.42744e-17 0)
(0.181821 3.31522e-17 0)
(0.181821 3.11024e-17 0)
(0.181821 3.86509e-18 0)
(0.181821 -2.04523e-17 0)
(0.181821 -7.35664e-18 0)
(0.181821 4.58047e-17 0)
(0.181821 4.65287e-17 0)
(0.181821 3.34415e-18 0)
(0.181821 -7.80045e-18 0)
(0.181821 2.4885e-17 0)
(0.181821 9.41889e-17 0)
(0.181821 8.8814e-18 0)
(0.181821 -4.79606e-17 0)
(0.181821 -3.46617e-17 0)
(0.181821 -3.04055e-17 0)
(0.181821 3.19443e-17 0)
(0.181821 -3.84592e-17 0)
(0.181821 -6.691e-17 0)
(0.181821 4.83184e-17 0)
(0.181821 1.25055e-17 0)
(0.181821 1.3962e-18 0)
(0.181821 2.06747e-17 0)
(0.181821 -7.52108e-17 0)
(0.181821 -1.51999e-17 0)
(0.181821 1.21937e-17 0)
(0.181821 2.71112e-17 0)
(0.181821 4.2617e-17 0)
(0.181821 1.84644e-18 0)
(0.181821 2.55726e-17 0)
(0.181821 -3.18724e-17 0)
(0.181821 1.06199e-17 0)
(0.181821 1.74028e-17 0)
(0.181821 4.33679e-17 0)
(0.181821 1.09072e-16 0)
(0.181821 -2.0404e-17 0)
(0.181821 6.56772e-18 0)
(0.181821 -9.20566e-18 0)
(0.181821 1.09915e-17 0)
(0.181821 4.86809e-17 0)
(0.181821 -1.41185e-16 0)
(0.181821 6.74282e-17 0)
(0.181821 2.56136e-17 0)
(0.181821 -3.24396e-17 0)
(0.181821 1.10561e-16 0)
(0.181821 -8.21951e-17 0)
(0.181821 -2.68283e-17 0)
(0.181821 -2.34765e-17 0)
(0.181821 1.41911e-17 0)
(0.181821 8.09763e-17 0)
(0.181821 -6.0578e-17 0)
(0.181821 -5.96388e-17 0)
(0.181821 -8.58539e-17 0)
(0.181821 8.54621e-18 0)
(0.181821 1.29299e-16 0)
(0.181821 -8.78796e-17 0)
(0.181821 -1.41492e-16 0)
(0.181821 3.08973e-17 0)
(0.181821 -1.38472e-17 0)
(0.181821 5.10304e-17 0)
(0.181821 -3.45071e-17 0)
(0.181821 -1.55008e-16 0)
(0.181821 2.10332e-18 0)
(0.181821 2.81242e-17 0)
(0.181821 4.84065e-17 0)
(0.181821 -2.055e-17 0)
(0.181821 -2.37668e-17 0)
(0.181821 -7.14476e-17 0)
(0.181821 -4.77068e-17 0)
(0.181821 1.70142e-16 0)
(0.181821 -3.15026e-17 0)
(0.181821 -1.17881e-16 0)
(0.181821 -1.41015e-18 0)
(0.181821 2.94886e-17 0)
(0.181821 -2.20711e-18 0)
(0.181821 -1.10063e-16 0)
(0.181821 -5.86967e-17 0)
(0.181821 -5.29165e-17 0)
(0.181821 4.55212e-17 0)
(0.181821 5.58746e-17 0)
(0.181821 -1.69635e-17 0)
(0.181821 9.96685e-18 0)
(0.181821 -5.35441e-17 0)
(0.181821 -5.54543e-18 0)
(0.181821 7.58136e-17 0)
(0.181821 8.12238e-17 0)
(0.181821 -1.36332e-16 0)
(0.181821 -1.35621e-16 0)
(0.181821 1.11492e-16 0)
(0.181821 1.61868e-16 0)
(0.181821 6.33167e-17 0)
(0.181821 -2.80316e-16 0)
(0.181821 -2.99098e-18 0)
(0.181821 2.549e-16 0)
(0.181821 1.42407e-16 0)
(0.181821 9.64652e-18 0)
(0.181821 -2.66475e-16 0)
(0.181821 -1.34534e-16 0)
(0.181821 2.67674e-16 0)
(0.181821 1.7764e-16 0)
(0.181821 -1.59576e-16 0)
(0.181821 -2.90125e-16 0)
(0.181821 -7.30464e-17 0)
(0.181821 3.1715e-16 0)
(0.181821 2.55962e-16 0)
(0.181821 -1.23751e-16 0)
(0.181821 -3.94008e-16 0)
(0.181821 4.9216e-17 0)
(0.181821 3.6499e-16 0)
(0.181821 8.11413e-17 0)
(0.181821 -6.82272e-17 0)
(0.181821 -2.04275e-16 0)
(0.181821 3.51613e-19 0)
(0.181821 2.47097e-16 0)
(0.181821 7.22519e-17 0)
(0.181821 -2.28968e-17 0)
(0.181821 -1.63337e-16 0)
(0.181821 -2.93983e-17 0)
(0.181821 2.63468e-16 0)
(0.181821 6.5112e-17 0)
(0.181821 -1.00775e-16 0)
(0.181821 -1.47143e-16 0)
(0.181821 4.17486e-17 0)
(0.181821 1.06886e-16 0)
(0.181821 -2.268e-17 0)
(0.181821 -2.41766e-17 0)
(0.181821 -1.20225e-16 0)
(0.181821 6.44304e-17 0)
(0.181821 2.1751e-17 0)
(0.181821 -9.04653e-17 0)
(0.181821 1.11403e-16 0)
(0.181821 -1.13789e-16 0)
(0.181821 -1.58694e-16 0)
(0.181821 5.44824e-17 0)
(0.181821 1.00163e-16 0)
(0.181821 9.5253e-17 0)
(0.181821 -1.31143e-16 0)
(0.181821 -2.06792e-16 0)
(0.181821 -1.91915e-17 0)
(0.181821 1.08816e-16 0)
(0.181821 1.75724e-16 0)
(0.181821 -1.69873e-16 0)
(0.181821 -8.63343e-17 0)
(0.181821 1.66956e-16 0)
(0.181821 -1.03827e-16 0)
(0.181821 -3.07633e-18 0)
(0.181821 -4.69936e-17 0)
(0.181821 -7.49032e-17 0)
(0.181821 6.25518e-17 0)
(0.181821 7.72498e-18 0)
(0.181821 -5.9718e-17 0)
(0.181821 -2.06652e-16 0)
(0.181821 -1.04811e-17 0)
(0.181821 1.67448e-16 0)
(0.181821 1.06607e-16 0)
(0.181821 -9.16296e-17 0)
(0.181821 -1.51494e-16 0)
(0.181821 8.83388e-17 0)
(0.181821 -2.19588e-17 0)
(0.181821 1.7337e-16 0)
(0.181821 1.37962e-16 0)
(0.181821 -3.17935e-16 0)
(0.181821 -1.97022e-17 0)
(0.181821 2.28819e-16 0)
(0.181821 8.54523e-17 0)
(0.181821 1.41355e-16 0)
(0.181821 -1.34249e-16 0)
(0.181821 -5.02235e-17 0)
(0.181821 2.12173e-16 0)
(0.181821 -3.48518e-17 0)
(0.181821 -1.95411e-17 0)
(0.181821 -4.71104e-17 0)
(0.181821 -8.71745e-17 0)
(0.181821 7.90306e-17 0)
(0.181821 6.48143e-17 0)
(0.181821 3.61769e-17 0)
(0.181821 -7.96024e-17 0)
(0.181821 -7.5054e-17 0)
(0.181821 1.18028e-16 0)
(0.181821 3.74894e-17 0)
(0.181821 2.17472e-17 0)
(0.181821 -5.91158e-17 0)
(0.181821 6.27284e-17 0)
(0.181821 1.6361e-16 0)
(0.181821 -7.37976e-18 0)
(0.181821 -8.57284e-17 0)
(0.181821 -1.46052e-16 0)
(0.181821 2.51194e-17 0)
(0.181821 4.12151e-17 0)
(0.181821 -2.4533e-17 0)
(0.181821 -1.55438e-17 0)
(0.181821 -1.69354e-16 0)
(0.181821 3.86184e-16 0)
(0.181821 5.24248e-17 0)
(0.181821 -3.75581e-16 0)
(0.181821 2.15358e-16 0)
(0.181821 -1.42963e-16 0)
(0.181821 -2.65176e-17 0)
(0.181821 -7.30392e-17 0)
(0.181821 -3.45427e-16 0)
(0.181821 4.40453e-16 0)
(0.181821 8.13576e-17 0)
(0.181821 -1.05231e-16 0)
(0.181821 -7.83931e-17 0)
(0.181821 -3.67851e-16 0)
(0.181821 4.42973e-16 0)
(0.181821 8.64341e-17 0)
(0.181821 -1.06914e-16 0)
(0.181821 4.27673e-17 0)
(0.181821 -3.04343e-16 0)
(0.181821 2.85625e-16 0)
(0.181821 -5.45575e-17 0)
(0.181821 -1.46524e-16 0)
(0.181821 7.6841e-17 0)
(0.181821 -3.32286e-16 0)
(0.181821 7.17726e-17 0)
(0.181821 -1.01472e-16 0)
(0.181821 1.54709e-16 0)
(0.181821 2.46826e-16 0)
(0.181821 -4.41241e-16 0)
(0.181821 6.6688e-17 0)
(0.181821 -1.72968e-16 0)
(0.181821 6.4536e-17 0)
(0.181821 2.23566e-16 0)
(0.181821 -6.29589e-16 0)
(0.181821 6.28263e-17 0)
(0.181821 1.17626e-16 0)
(0.181821 1.56222e-16 0)
(0.181821 6.4928e-17 0)
(0.181821 -3.65338e-16 0)
(0.181821 5.38139e-16 0)
(0.181821 6.54854e-17 0)
(0.181821 -3.25664e-16 0)
(0.181821 -2.22386e-16 0)
(0.181821 -2.42131e-16 0)
(0.181821 7.17937e-16 0)
(0.181821 3.6703e-17 0)
(0.181821 -1.34028e-16 0)
(0.181821 1.77886e-16 0)
(0.181821 -3.85197e-16 0)
(0.181821 2.07662e-16 0)
(0.181821 3.9301e-17 0)
(0.181821 3.06433e-17 0)
(0.181821 3.52313e-17 0)
(0.181821 -2.62382e-16 0)
(0.181821 3.88831e-16 0)
(0.181821 2.21247e-17 0)
(0.181821 -7.17038e-17 0)
(0.181821 3.77069e-17 0)
(0.181821 -3.81264e-16 0)
(0.181821 1.99877e-16 0)
(0.181821 3.62576e-17 0)
(0.181821 8.83159e-17 0)
(0.181821 1.2103e-16 0)
(0.181821 -3.35476e-16 0)
(0.181821 2.59373e-16 0)
(0.181821 5.9334e-17 0)
(0.181821 4.68209e-17 0)
(0.181821 1.61915e-16 0)
(0.181821 -3.84912e-16 0)
(0.181821 1.38908e-16 0)
(0.181821 1.86854e-17 0)
(0.181821 2.59815e-18 0)
(0.181821 8.35486e-17 0)
(0.181821 -4.23673e-16 0)
(0.181821 1.033e-16 0)
(0.181821 1.65014e-16 0)
(0.181821 -1.37431e-16 0)
(0.181821 -1.65851e-16 0)
(0.181821 -2.47771e-16 0)
(0.181821 2.73684e-16 0)
(0.181821 1.35763e-16 0)
(0.181821 -1.75402e-16 0)
(0.181821 3.85325e-17 0)
(0.181821 -1.31664e-16 0)
(0.181821 1.04971e-16 0)
(0.181821 2.53023e-16 0)
(0.181821 -1.25498e-16 0)
(0.181821 -9.74367e-17 0)
(0.181821 -2.13444e-16 0)
(0.181821 1.74417e-16 0)
(0.181821 3.55017e-16 0)
(0.181821 1.40689e-17 0)
(0.181821 -4.27583e-16 0)
(0.181821 -2.45515e-16 0)
(0.181821 2.29563e-16 0)
(0.181821 9.08489e-17 0)
(0.181821 1.20813e-16 0)
(0.181821 -2.21111e-16 0)
(0.181821 2.64304e-17 0)
(0.181821 1.66196e-16 0)
(0.181821 -1.69594e-16 0)
(0.181821 1.55278e-16 0)
(0.181821 4.27154e-17 0)
(0.181821 -4.57581e-17 0)
(0.181821 1.01569e-16 0)
(0.181821 -3.74318e-17 0)
(0.181821 3.79683e-16 0)
(0.181821 1.56855e-16 0)
(0.181821 2.96339e-17 0)
(0.251175 1.58954e-16 0)
(0.251175 1.47184e-16 0)
(0.251175 1.18321e-16 0)
(0.251175 1.21737e-16 0)
(0.251175 1.13956e-16 0)
(0.251175 9.2552e-17 0)
(0.251175 2.7262e-17 0)
(0.251175 5.2171e-18 0)
(0.251175 -1.21141e-18 0)
(0.251175 -2.29028e-17 0)
(0.251175 -4.84645e-17 0)
(0.251175 -1.85124e-17 0)
(0.251175 5.22119e-17 0)
(0.251175 5.81827e-17 0)
(0.251175 4.56561e-17 0)
(0.251175 1.41908e-16 0)
(0.251175 9.16771e-17 0)
(0.251175 2.18487e-17 0)
(0.251175 4.79953e-17 0)
(0.251175 3.83746e-17 0)
(0.251175 1.12092e-16 0)
(0.251175 1.04163e-16 0)
(0.251175 4.0102e-17 0)
(0.251175 5.87413e-18 0)
(0.251175 -5.21304e-17 0)
(0.251175 -3.68157e-18 0)
(0.251175 7.88514e-17 0)
(0.251175 7.81375e-17 0)
(0.251175 2.57557e-17 0)
(0.251175 -1.84057e-17 0)
(0.251175 5.58476e-17 0)
(0.251175 1.0915e-16 0)
(0.251175 3.68841e-17 0)
(0.251175 -5.60726e-17 0)
(0.251175 -8.33079e-17 0)
(0.251175 -5.97877e-17 0)
(0.251175 3.96873e-17 0)
(0.251175 -2.42006e-17 0)
(0.251175 -9.56953e-17 0)
(0.251175 2.54238e-17 0)
(0.251175 2.56703e-17 0)
(0.251175 7.00982e-19 0)
(0.251175 1.29413e-17 0)
(0.251175 -8.86212e-17 0)
(0.251175 -3.127e-17 0)
(0.251175 -3.3743e-18 0)
(0.251175 4.85752e-17 0)
(0.251175 7.70968e-17 0)
(0.251175 3.3362e-17 0)
(0.251175 2.95084e-17 0)
(0.251175 -2.58282e-17 0)
(0.251175 4.7213e-17 0)
(0.251175 6.27102e-17 0)
(0.251175 6.7155e-17 0)
(0.251175 1.50077e-16 0)
(0.251175 -8.11808e-18 0)
(0.251175 1.2749e-17 0)
(0.251175 6.33943e-18 0)
(0.251175 9.59615e-18 0)
(0.251175 3.98835e-17 0)
(0.251175 -1.99459e-16 0)
(0.251175 3.86269e-17 0)
(0.251175 6.08185e-17 0)
(0.251175 -3.14224e-18 0)
(0.251175 9.0414e-17 0)
(0.251175 -1.03607e-16 0)
(0.251175 -7.30326e-18 0)
(0.251175 -4.47245e-17 0)
(0.251175 1.63001e-17 0)
(0.251175 1.24724e-16 0)
(0.251175 -1.03323e-16 0)
(0.251175 -1.17488e-16 0)
(0.251175 -1.35323e-16 0)
(0.251175 -2.97858e-18 0)
(0.251175 1.77613e-16 0)
(0.251175 -1.09103e-16 0)
(0.251175 -1.70757e-16 0)
(0.251175 2.86782e-18 0)
(0.251175 -4.87264e-17 0)
(0.251175 7.15681e-17 0)
(0.251175 -7.43615e-17 0)
(0.251175 -2.21246e-16 0)
(0.251175 -1.57579e-17 0)
(0.251175 4.01356e-17 0)
(0.251175 7.03167e-17 0)
(0.251175 -6.65053e-17 0)
(0.251175 -4.98586e-17 0)
(0.251175 -5.75686e-17 0)
(0.251175 -6.70569e-17 0)
(0.251175 1.70396e-16 0)
(0.251175 -1.13424e-18 0)
(0.251175 -1.17892e-16 0)
(0.251175 -6.57415e-17 0)
(0.251175 2.80332e-17 0)
(0.251175 -1.68567e-17 0)
(0.251175 -2.03343e-16 0)
(0.251175 -9.62497e-17 0)
(0.251175 -4.23213e-17 0)
(0.251175 4.59851e-17 0)
(0.251175 8.13541e-17 0)
(0.251175 -1.81233e-17 0)
(0.251175 8.50591e-18 0)
(0.251175 -9.87795e-17 0)
(0.251175 -1.13849e-17 0)
(0.251175 1.5913e-16 0)
(0.251175 1.00198e-16 0)
(0.251175 -1.98046e-16 0)
(0.251175 -2.16695e-16 0)
(0.251175 1.77537e-16 0)
(0.251175 2.67893e-16 0)
(0.251175 7.89238e-17 0)
(0.251175 -3.41015e-16 0)
(0.251175 -7.52384e-18 0)
(0.251175 3.40769e-16 0)
(0.251175 2.6887e-16 0)
(0.251175 3.44784e-17 0)
(0.251175 -4.16323e-16 0)
(0.251175 -1.98859e-16 0)
(0.251175 3.70096e-16 0)
(0.251175 2.87653e-16 0)
(0.251175 -2.26235e-16 0)
(0.251175 -4.32446e-16 0)
(0.251175 -6.85211e-17 0)
(0.251175 4.2008e-16 0)
(0.251175 3.04555e-16 0)
(0.251175 -1.07264e-16 0)
(0.251175 -4.39296e-16 0)
(0.251175 1.09652e-17 0)
(0.251175 5.11201e-16 0)
(0.251175 1.46697e-16 0)
(0.251175 -1.31958e-16 0)
(0.251175 -2.04318e-16 0)
(0.251175 -5.82891e-17 0)
(0.251175 3.08752e-16 0)
(0.251175 1.92243e-16 0)
(0.251175 -1.71478e-17 0)
(0.251175 -2.58802e-16 0)
(0.251175 -5.10456e-17 0)
(0.251175 4.0028e-16 0)
(0.251175 1.21561e-16 0)
(0.251175 -1.65756e-16 0)
(0.251175 -2.48236e-16 0)
(0.251175 9.8709e-17 0)
(0.251175 1.50175e-16 0)
(0.251175 8.97546e-18 0)
(0.251175 1.76502e-19 0)
(0.251175 -2.90194e-16 0)
(0.251175 4.83223e-17 0)
(0.251175 8.40623e-17 0)
(0.251175 -7.47666e-17 0)
(0.251175 7.36543e-17 0)
(0.251175 -2.27374e-16 0)
(0.251175 -1.05934e-16 0)
(0.251175 1.06461e-16 0)
(0.251175 1.35326e-16 0)
(0.251175 7.03181e-17 0)
(0.251175 -2.38194e-16 0)
(0.251175 -2.65498e-16 0)
(0.251175 1.72679e-17 0)
(0.251175 1.27687e-16 0)
(0.251175 1.76267e-16 0)
(0.251175 -2.4681e-16 0)
(0.251175 -6.87195e-17 0)
(0.251175 2.3297e-16 0)
(0.251175 -1.85211e-16 0)
(0.251175 -2.3265e-17 0)
(0.251175 -7.29682e-17 0)
(0.251175 -8.76924e-17 0)
(0.251175 8.04815e-17 0)
(0.251175 1.66494e-17 0)
(0.251175 -1.09948e-16 0)
(0.251175 -3.44567e-16 0)
(0.251175 -4.39378e-17 0)
(0.251175 3.33662e-16 0)