/*--------------------------------*- C++ -*----------------------------------*\
| =========                 |                                                 |
| \\      /  F ield         | OpenFOAM: The Open Source CFD Toolbox           |
|  \\    /   O peration     | Version:  2112                                  |
|   \\  /    A nd           | Website:  www.openfoam.com                      |
|    \\/     M anipulation  |                                                 |
\*---------------------------------------------------------------------------*/
FoamFile
{
    version     2.0;
    format      ascii;
    arch        "LSB;label=32;scalar=64";
    class       volVectorField;
    location    "6";
    object      U;
}
// * * * * * * * * * * * * * * * * * * * * * * * * * * * * * * * * * * * * * //

dimensions      [0 1 -1 0 0 0 0];

internalField   nonuniform List<vector> 
25600
(
(0.0374883 1.66163e-15 0)
(0.0374883 2.65403e-16 0)
(0.0374883 1.50387e-16 0)
(0.0374883 6.72333e-17 0)
(0.0374883 4.02576e-17 0)
(0.0374883 1.98996e-17 0)
(0.0374883 6.53296e-18 0)
(0.0374883 1.71486e-17 0)
(0.0374883 8.65351e-18 0)
(0.0374883 6.07474e-18 0)
(0.0374883 1.47839e-17 0)
(0.0374883 -1.19505e-19 0)
(0.0374883 1.43021e-17 0)
(0.0374883 1.21224e-17 0)
(0.0374883 -9.01074e-18 0)
(0.0374883 8.10013e-18 0)
(0.0374883 2.49261e-18 0)
(0.0374883 3.51186e-18 0)
(0.0374883 3.02889e-18 0)
(0.0374883 2.44462e-18 0)
(0.0374883 6.76769e-18 0)
(0.0374883 5.84474e-18 0)
(0.0374883 1.75495e-19 0)
(0.0374883 -4.22528e-18 0)
(0.0374883 -1.19097e-17 0)
(0.0374883 3.77402e-18 0)
(0.0374883 2.59638e-17 0)
(0.0374883 -5.81318e-18 0)
(0.0374883 -2.39591e-17 0)
(0.0374883 -1.24466e-18 0)
(0.0374883 8.70151e-18 0)
(0.0374883 1.21517e-17 0)
(0.0374883 4.36534e-18 0)
(0.0374883 -7.57301e-18 0)
(0.0374883 -2.42387e-19 0)
(0.0374883 2.04605e-18 0)
(0.0374883 5.18748e-18 0)
(0.0374883 -6.67989e-18 0)
(0.0374883 -7.39478e-18 0)
(0.0374883 8.57958e-18 0)
(0.0374883 -1.61795e-19 0)
(0.0374883 1.41061e-17 0)
(0.0374883 -2.97114e-18 0)
(0.0374883 -1.80526e-17 0)
(0.0374883 2.01677e-17 0)
(0.0374883 -8.68661e-18 0)
(0.0374883 4.41247e-18 0)
(0.0374883 -1.09016e-18 0)
(0.0374883 -6.39556e-18 0)
(0.0374883 -1.9099e-18 0)
(0.0374883 -2.32897e-17 0)
(0.0374883 2.58086e-17 0)
(0.0374883 -4.67236e-18 0)
(0.0374883 -5.46391e-18 0)
(0.0374883 2.45143e-17 0)
(0.0374883 -2.61261e-17 0)
(0.0374883 2.52129e-18 0)
(0.0374883 -1.06167e-17 0)
(0.0374883 3.21432e-18 0)
(0.0374883 3.52224e-17 0)
(0.0374883 -3.4733e-17 0)
(0.0374883 1.17394e-17 0)
(0.0374883 -3.94509e-18 0)
(0.0374883 -4.20238e-18 0)
(0.0374883 2.08625e-17 0)
(0.0374883 -1.66113e-17 0)
(0.0374883 8.46954e-18 0)
(0.0374883 -9.74527e-18 0)
(0.0374883 1.46787e-17 0)
(0.0374883 5.47066e-18 0)
(0.0374883 -7.33722e-18 0)
(0.0374883 -8.3705e-19 0)
(0.0374883 -2.64117e-18 0)
(0.0374883 -1.0726e-19 0)
(0.0374883 1.25347e-17 0)
(0.0374883 -6.18824e-18 0)
(0.0374883 -1.86038e-17 0)
(0.0374883 1.42607e-17 0)
(0.0374883 -8.09187e-18 0)
(0.0374883 2.79199e-17 0)
(0.0374883 -2.42836e-17 0)
(0.0374883 -3.28729e-17 0)
(0.0374883 2.00347e-17 0)
(0.0374883 -1.01805e-18 0)
(0.0374883 3.01257e-17 0)
(0.0374883 3.08399e-18 0)
(0.0374883 -4.14719e-17 0)
(0.0374883 3.9907e-18 0)
(0.0374883 1.80463e-17 0)
(0.0374883 3.28851e-17 0)
(0.0374883 -4.72182e-18 0)
(0.0374883 -5.40225e-17 0)
(0.0374883 7.73386e-18 0)
(0.0374883 4.76281e-17 0)
(0.0374883 2.03555e-18 0)
(0.0374883 -4.53214e-17 0)
(0.0374883 4.91972e-18 0)
(0.0374883 -4.89427e-18 0)
(0.0374883 4.23522e-17 0)
(0.0374883 2.38042e-17 0)
(0.0374883 -7.34046e-17 0)
(0.0374883 5.47251e-18 0)
(0.0374883 -5.40654e-18 0)
(0.0374883 3.98286e-17 0)
(0.0374883 7.3479e-18 0)
(0.0374883 -1.68156e-17 0)
(0.0374883 -2.69665e-17 0)
(0.0374883 1.23394e-17 0)
(0.0374883 3.28968e-17 0)
(0.0374883 -9.49069e-18 0)
(0.0374883 2.59906e-17 0)
(0.0374883 -8.90943e-17 0)
(0.0374883 2.67873e-17 0)
(0.0374883 5.96106e-17 0)
(0.0374883 1.094e-18 0)
(0.0374883 -2.24683e-17 0)
(0.0374883 -6.34729e-17 0)
(0.0374883 3.87208e-17 0)
(0.0374883 3.69631e-17 0)
(0.0374883 8.75106e-18 0)
(0.0374883 -9.70123e-18 0)
(0.0374883 -6.10852e-17 0)
(0.0374883 -1.78194e-19 0)
(0.0374883 6.33093e-17 0)
(0.0374883 9.24877e-18 0)
(0.0374883 -3.37395e-17 0)
(0.0374883 -4.19421e-17 0)
(0.0374883 9.82385e-18 0)
(0.0374883 5.9758e-17 0)
(0.0374883 -2.77767e-18 0)
(0.0374883 -2.93489e-17 0)
(0.0374883 -2.89804e-17 0)
(0.0374883 2.3561e-17 0)
(0.0374883 3.57768e-17 0)
(0.0374883 -1.97151e-17 0)
(0.0374883 -2.34019e-17 0)
(0.0374883 -1.8298e-17 0)
(0.0374883 3.94502e-17 0)
(0.0374883 1.75192e-17 0)
(0.0374883 -2.33439e-17 0)
(0.0374883 -2.62791e-17 0)
(0.0374883 -1.03509e-17 0)
(0.0374883 4.98786e-17 0)
(0.0374883 1.00918e-17 0)
(0.0374883 -4.38785e-17 0)
(0.0374883 4.09417e-17 0)
(0.0374883 -1.28433e-17 0)
(0.0374883 -3.48416e-17 0)
(0.0374883 -2.32344e-18 0)
(0.0374883 -3.30699e-18 0)
(0.0374883 5.30175e-17 0)
(0.0374883 -6.29667e-18 0)
(0.0374883 -4.7423e-17 0)
(0.0374883 5.12298e-18 0)
(0.0374883 2.09812e-17 0)
(0.0374883 3.03714e-17 0)
(0.0374883 -2.69037e-17 0)
(0.0374883 -3.04922e-17 0)
(0.0374883 3.34818e-17 0)
(0.0374883 8.35741e-18 0)
(0.0374883 5.04985e-17 0)
(0.0374883 -6.42422e-17 0)
(0.0374883 -4.23087e-17 0)
(0.0374883 6.37669e-17 0)
(0.0374883 -1.69055e-17 0)
(0.0374883 5.30063e-17 0)
(0.0374883 -3.72369e-17 0)
(0.0374883 -7.4779e-18 0)
(0.0374883 1.32169e-17 0)
(0.0374883 -4.75848e-17 0)
(0.0374883 8.4394e-17 0)
(0.0374883 -5.02221e-17 0)
(0.0374883 8.3878e-18 0)
(0.0374883 1.47615e-17 0)
(0.0374883 -4.51867e-17 0)
(0.0374883 8.45023e-17 0)
(0.0374883 -5.38761e-17 0)
(0.0374883 5.36382e-18 0)
(0.0374883 -1.38124e-17 0)
(0.0374883 -3.74297e-17 0)
(0.0374883 1.01501e-16 0)
(0.0374883 -7.12124e-17 0)
(0.0374883 5.20497e-18 0)
(0.0374883 1.79379e-17 0)
(0.0374883 -4.51692e-17 0)
(0.0374883 1.0019e-16 0)
(0.0374883 -6.50523e-17 0)
(0.0374883 1.08646e-18 0)
(0.0374883 5.65394e-17 0)
(0.0374883 -9.63235e-17 0)
(0.0374883 5.36475e-17 0)
(0.0374883 -7.12558e-18 0)
(0.0374883 -6.07089e-17 0)
(0.0374883 1.0085e-16 0)
(0.0374883 -3.98708e-17 0)
(0.0374883 8.32746e-18 0)
(0.0374883 -5.16334e-17 0)
(0.0374883 -1.06749e-17 0)
(0.0374883 1.42144e-16 0)
(0.0374883 -9.52821e-17 0)
(0.0374883 7.31375e-18 0)
(0.0374883 -5.33242e-17 0)
(0.0374883 -2.55184e-18 0)
(0.0374883 1.39537e-16 0)
(0.0374883 -9.09872e-17 0)
(0.0374883 -4.26844e-17 0)
(0.0374883 -1.04971e-17 0)
(0.0374883 4.98117e-17 0)
(0.0374883 9.06193e-17 0)
(0.0374883 -4.2425e-17 0)
(0.0374883 -8.64516e-17 0)
(0.0374883 -6.2328e-17 0)
(0.0374883 1.66125e-16 0)
(0.0374883 1.57627e-18 0)
(0.0374883 -1.64435e-16 0)
(0.0374883 1.55991e-16 0)
(0.0374883 3.13596e-17 0)
(0.0374883 -7.57749e-17 0)
(0.0374883 -3.96844e-17 0)
(0.0374883 -7.4214e-17 0)
(0.0374883 1.66041e-16 0)
(0.0374883 3.98078e-17 0)
(0.0374883 -9.22086e-17 0)
(0.0374883 -3.54514e-17 0)
(0.0374883 -7.88529e-17 0)
(0.0374883 1.60826e-16 0)
(0.0374883 -9.80655e-18 0)
(0.0374883 -5.95744e-17 0)
(0.0374883 1.68789e-17 0)
(0.0374883 -9.99532e-17 0)
(0.0374883 1.6358e-16 0)
(0.0374883 -6.60298e-18 0)
(0.0374883 -9.43316e-17 0)
(0.0374883 5.74673e-17 0)
(0.0374883 -7.58447e-17 0)
(0.0374883 9.62877e-17 0)
(0.0374883 1.89662e-18 0)
(0.0374883 -2.52699e-17 0)
(0.0374883 2.4853e-17 0)
(0.0374883 -1.27201e-16 0)
(0.0374883 1.49129e-16 0)
(0.0374883 -1.05763e-17 0)
(0.0374883 -3.86245e-17 0)
(0.0374883 7.06012e-17 0)
(0.0374883 -1.35975e-16 0)
(0.0374883 1.35639e-17 0)
(0.0374883 4.54255e-17 0)
(0.0374883 5.04409e-17 0)
(0.0374883 1.2447e-17 0)
(0.0374883 -1.2797e-16 0)
(0.0374883 8.51984e-17 0)
(0.0374883 -4.40739e-18 0)
(0.0374883 -2.98378e-17 0)
(0.0374883 4.00594e-17 0)
(0.0374883 -1.07693e-16 0)
(0.0374883 1.01138e-16 0)
(0.0374883 -1.24527e-17 0)
(0.0374883 -1.63359e-17 0)
(0.0374883 7.11706e-17 0)
(0.0374883 -1.21704e-16 0)
(0.0374883 5.79052e-17 0)
(0.0374883 -5.27193e-19 0)
(0.0374883 3.87816e-18 0)
(0.0374883 5.3135e-17 0)
(0.0374883 -1.06948e-16 0)
(0.0374883 7.49001e-17 0)
(0.0374883 3.25744e-17 0)
(0.0374883 -4.74964e-17 0)
(0.0374883 9.13995e-18 0)
(0.0374883 -7.03291e-17 0)
(0.0374883 6.95305e-17 0)
(0.0374883 3.63343e-17 0)
(0.0374883 -7.92633e-17 0)
(0.0374883 4.78641e-17 0)
(0.0374883 -3.22665e-17 0)
(0.0374883 2.74935e-17 0)
(0.0374883 3.73139e-17 0)
(0.0374883 -9.10744e-17 0)
(0.0374883 5.91795e-17 0)
(0.0374883 -3.57855e-17 0)
(0.0374883 2.11763e-17 0)
(0.0374883 4.41363e-17 0)
(0.0374883 -9.1478e-17 0)
(0.0374883 5.8086e-17 0)
(0.0374883 -2.83725e-17 0)
(0.0374883 -2.04623e-17 0)
(0.0374883 9.57639e-17 0)
(0.0374883 -4.85016e-17 0)
(0.0374883 -9.77125e-18 0)
(0.0374883 -6.22401e-17 0)
(0.0374883 3.50419e-17 0)
(0.0374883 1.22746e-16 0)
(0.0374883 -8.95547e-18 0)
(0.0374883 -1.20463e-16 0)
(0.0374883 -1.99507e-17 0)
(0.0374883 6.45551e-17 0)
(0.0374883 7.19719e-18 0)
(0.0374883 7.65882e-17 0)
(0.0374883 -1.27322e-16 0)
(0.0374883 -1.69031e-17 0)
(0.0374883 6.6409e-17 0)
(0.0374883 8.93434e-18 0)
(0.0374883 5.06753e-17 0)
(0.0374883 -9.48723e-17 0)
(0.0374883 3.16899e-17 0)
(0.0374883 2.97813e-17 0)
(0.0374883 -4.00009e-17 0)
(0.0374883 8.81718e-17 0)
(0.0374883 -6.11402e-17 0)
(0.0374883 5.92883e-18 0)
(0.0374883 2.72393e-17 0)
(0.0374883 -5.90636e-17 0)
(0.0374883 1.07027e-16 0)
(0.0374883 -2.74197e-17 0)
(0.0374883 -4.36428e-17 0)
(0.0374883 7.54004e-17 0)
(0.0374883 2.79579e-17 0)
(0.0374883 1.33678e-16 0)
(0.0374883 1.11499e-16 0)
(0.0374883 1.99404e-16 0)
(0.11059 3.91527e-15 0)
(0.11059 9.68392e-16 0)
(0.11059 3.59175e-16 0)
(0.11059 1.56698e-16 0)
(0.11059 9.19114e-17 0)
(0.11059 5.66416e-17 0)
(0.11059 3.25406e-17 0)
(0.11059 3.48193e-17 0)
(0.11059 4.9026e-17 0)
(0.11059 3.69746e-17 0)
(0.11059 3.28816e-17 0)
(0.11059 2.2558e-17 0)
(0.11059 5.91029e-17 0)
(0.11059 4.02767e-17 0)
(0.11059 -1.01078e-17 0)
(0.11059 1.5904e-17 0)
(0.11059 2.17509e-17 0)
(0.11059 3.15922e-17 0)
(0.11059 8.38722e-18 0)
(0.11059 1.03588e-17 0)
(0.11059 3.30134e-17 0)
(0.11059 1.66198e-17 0)
(0.11059 -2.18518e-18 0)
(0.11059 -2.69865e-17 0)
(0.11059 -3.67009e-17 0)
(0.11059 -4.08867e-18 0)
(0.11059 2.86767e-17 0)
(0.11059 -2.35725e-17 0)
(0.11059 -5.67131e-17 0)
(0.11059 -3.7567e-17 0)
(0.11059 7.81716e-18 0)
(0.11059 5.15479e-17 0)
(0.11059 4.43459e-18 0)
(0.11059 -1.72334e-17 0)
(0.11059 7.44496e-19 0)
(0.11059 -2.76042e-18 0)
(0.11059 4.26705e-17 0)
(0.11059 -2.6543e-17 0)
(0.11059 -4.56692e-17 0)
(0.11059 3.4105e-17 0)
(0.11059 -5.48376e-18 0)
(0.11059 1.10325e-17 0)
(0.11059 7.37736e-18 0)
(0.11059 -3.50231e-17 0)
(0.11059 2.69023e-17 0)
(0.11059 -6.93041e-18 0)
(0.11059 -1.2642e-18 0)
(0.11059 -2.09908e-17 0)
(0.11059 -3.66598e-17 0)
(0.11059 -2.48947e-17 0)
(0.11059 -5.29874e-17 0)
(0.11059 2.47946e-17 0)
(0.11059 -2.19448e-17 0)
(0.11059 -2.64883e-17 0)
(0.11059 2.96137e-17 0)
(0.11059 -4.40709e-17 0)
(0.11059 -6.03615e-18 0)
(0.11059 -1.5578e-17 0)
(0.11059 4.16521e-18 0)
(0.11059 2.55003e-17 0)
(0.11059 -7.87931e-17 0)
(0.11059 4.90603e-17 0)
(0.11059 -1.51431e-18 0)
(0.11059 2.7353e-18 0)
(0.11059 6.98351e-17 0)
(0.11059 -2.43472e-17 0)
(0.11059 2.97876e-17 0)
(0.11059 1.75944e-17 0)
(0.11059 3.01603e-17 0)
(0.11059 4.15647e-17 0)
(0.11059 -2.99593e-17 0)
(0.11059 -1.31995e-18 0)
(0.11059 -1.07034e-17 0)
(0.11059 -1.96814e-17 0)
(0.11059 8.79476e-17 0)
(0.11059 -7.72846e-17 0)
(0.11059 -8.26571e-17 0)
(0.11059 3.90142e-17 0)
(0.11059 -2.98948e-17 0)
(0.11059 3.27662e-17 0)
(0.11059 -3.07637e-17 0)
(0.11059 -1.24324e-16 0)
(0.11059 -2.75009e-18 0)
(0.11059 6.02761e-17 0)
(0.11059 7.77422e-17 0)
(0.11059 1.646e-17 0)
(0.11059 -3.53173e-17 0)
(0.11059 -1.6447e-17 0)
(0.11059 6.04034e-17 0)
(0.11059 1.12928e-16 0)
(0.11059 -4.39835e-17 0)
(0.11059 -8.99519e-17 0)
(0.11059 2.15658e-17 0)
(0.11059 8.9449e-17 0)
(0.11059 1.61067e-17 0)
(0.11059 -6.50536e-17 0)
(0.11059 5.01519e-18 0)
(0.11059 -5.15994e-18 0)
(0.11059 4.71409e-17 0)
(0.11059 2.10598e-17 0)
(0.11059 -9.60198e-17 0)
(0.11059 1.99238e-17 0)
(0.11059 -5.69534e-17 0)
(0.11059 2.1461e-17 0)
(0.11059 5.66043e-17 0)
(0.11059 1.74902e-17 0)
(0.11059 -5.85704e-17 0)
(0.11059 -8.36544e-18 0)
(0.11059 1.08125e-16 0)
(0.11059 5.01994e-17 0)
(0.11059 2.96014e-17 0)
(0.11059 -1.84701e-16 0)
(0.11059 4.60009e-17 0)
(0.11059 1.83853e-16 0)
(0.11059 1.79305e-17 0)
(0.11059 -4.23398e-17 0)
(0.11059 -1.44744e-16 0)
(0.11059 -3.50249e-18 0)
(0.11059 1.29399e-16 0)
(0.11059 2.16677e-17 0)
(0.11059 -8.55604e-17 0)
(0.11059 -1.54751e-16 0)
(0.11059 -9.44878e-18 0)
(0.11059 2.05193e-16 0)
(0.11059 7.69199e-17 0)
(0.11059 -1.02006e-16 0)
(0.11059 -1.57407e-16 0)
(0.11059 4.21145e-17 0)
(0.11059 1.85615e-16 0)
(0.11059 1.25967e-17 0)
(0.11059 -6.67802e-17 0)
(0.11059 -9.43347e-17 0)
(0.11059 3.87506e-17 0)
(0.11059 1.0527e-16 0)
(0.11059 -2.74862e-17 0)
(0.11059 -2.17835e-17 0)
(0.11059 -1.18033e-16 0)
(0.11059 -5.17806e-17 0)
(0.11059 1.14607e-16 0)
(0.11059 7.80766e-18 0)
(0.11059 -3.11489e-17 0)
(0.11059 -9.34843e-17 0)
(0.11059 -5.41909e-18 0)
(0.11059 7.43038e-17 0)
(0.11059 9.67663e-18 0)
(0.11059 -2.76659e-17 0)
(0.11059 -1.07077e-16 0)
(0.11059 2.53409e-17 0)
(0.11059 8.39265e-18 0)
(0.11059 2.07998e-17 0)
(0.11059 8.6111e-17 0)
(0.11059 -1.46424e-16 0)
(0.11059 -1.01469e-16 0)
(0.11059 7.64565e-17 0)
(0.11059 6.41006e-17 0)
(0.11059 6.28464e-17 0)
(0.11059 -6.30244e-17 0)
(0.11059 -5.79022e-17 0)
(0.11059 7.7107e-17 0)
(0.11059 6.41238e-17 0)
(0.11059 1.04129e-16 0)
(0.11059 -1.19245e-16 0)
(0.11059 -7.18723e-18 0)
(0.11059 1.47369e-16 0)
(0.11059 -1.41594e-16 0)
(0.11059 6.2793e-17 0)
(0.11059 3.18256e-17 0)
(0.11059 -7.46245e-17 0)
(0.11059 1.75295e-16 0)
(0.11059 7.27854e-17 0)
(0.11059 -1.03755e-18 0)
(0.11059 -1.07714e-16 0)
(0.11059 4.69782e-17 0)
(0.11059 7.58598e-17 0)
(0.11059 -7.25542e-17 0)
(0.11059 -4.95812e-17 0)
(0.11059 -5.59531e-17 0)
(0.11059 1.76605e-16 0)
(0.11059 -7.41709e-17 0)
(0.11059 -7.09736e-17 0)
(0.11059 1.30556e-16 0)
(0.11059 -1.98824e-16 0)
(0.11059 -3.6611e-18 0)
(0.11059 8.10359e-17 0)
(0.11059 -2.4729e-17 0)
(0.11059 1.5176e-16 0)
(0.11059 -1.31384e-16 0)
(0.11059 -1.74556e-17 0)
(0.11059 1.21087e-16 0)
(0.11059 -1.28437e-16 0)
(0.11059 5.26419e-17 0)
(0.11059 -2.39046e-17 0)
(0.11059 -8.42805e-17 0)
(0.11059 1.57982e-16 0)
(0.11059 -9.80636e-18 0)
(0.11059 2.05572e-17 0)
(0.11059 -9.38002e-17 0)
(0.11059 -4.57291e-17 0)
(0.11059 1.97434e-16 0)
(0.11059 -1.23403e-16 0)
(0.11059 -8.55376e-18 0)
(0.11059 -1.01867e-16 0)
(0.11059 9.65979e-18 0)
(0.11059 2.01829e-16 0)
(0.11059 -6.4242e-17 0)
(0.11059 -1.51047e-16 0)
(0.11059 -1.06517e-16 0)
(0.11059 1.2516e-16 0)
(0.11059 1.33872e-16 0)
(0.11059 -4.02755e-17 0)
(0.11059 -1.10551e-16 0)
(0.11059 -1.19872e-16 0)
(0.11059 3.12354e-16 0)
(0.11059 2.31197e-17 0)
(0.11059 -2.92413e-16 0)
(0.11059 2.56386e-16 0)
(0.11059 2.48687e-17 0)
(0.11059 -8.48499e-17 0)
(0.11059 -7.41657e-17 0)
(0.11059 -1.71064e-16 0)
(0.11059 3.30018e-16 0)
(0.11059 7.06632e-17 0)
(0.11059 -1.40134e-16 0)
(0.11059 -7.13903e-17 0)
(0.11059 -1.93784e-16 0)
(0.11059 3.03276e-16 0)
(0.11059 8.46166e-18 0)
(0.11059 -1.17904e-16 0)
(0.11059 8.94723e-17 0)
(0.11059 -8.98085e-17 0)
(0.11059 1.70131e-16 0)
(0.11059 -3.219e-17 0)
(0.11059 1.13324e-17 0)
(0.11059 7.68997e-17 0)
(0.11059 -2.42088e-16 0)
(0.11059 9.33499e-17 0)
(0.11059 7.24994e-17 0)
(0.11059 7.19984e-17 0)
(0.11059 1.15241e-16 0)
(0.11059 -2.04987e-16 0)
(0.11059 1.10673e-16 0)
(0.11059 -4.92603e-17 0)
(0.11059 3.80087e-17 0)
(0.11059 1.32634e-16 0)
(0.11059 -3.35291e-16 0)
(0.11059 2.05875e-17 0)
(0.11059 9.61399e-17 0)
(0.11059 1.09661e-16 0)
(0.11059 3.29818e-17 0)
(0.11059 -2.61273e-16 0)
(0.11059 2.12235e-16 0)
(0.11059 -2.32672e-17 0)
(0.11059 -1.63535e-16 0)
(0.11059 -2.79736e-17 0)
(0.11059 -1.59462e-16 0)
(0.11059 3.06167e-16 0)
(0.11059 -1.17315e-17 0)
(0.11059 -4.59351e-17 0)
(0.11059 1.15299e-16 0)
(0.11059 -2.45075e-16 0)
(0.11059 1.13512e-16 0)
(0.11059 7.45516e-17 0)
(0.11059 -2.38318e-17 0)
(0.11059 1.2526e-17 0)
(0.11059 -1.23157e-16 0)
(0.11059 2.22195e-16 0)
(0.11059 4.27292e-17 0)
(0.11059 -3.08396e-17 0)
(0.11059 -4.09083e-17 0)
(0.11059 -1.7774e-16 0)
(0.11059 1.5484e-16 0)
(0.11059 1.44794e-17 0)
(0.11059 5.42554e-17 0)
(0.11059 -5.66973e-17 0)
(0.11059 -2.01234e-16 0)
(0.11059 1.42732e-16 0)
(0.11059 -6.85527e-18 0)
(0.11059 -5.90062e-17 0)
(0.11059 9.61344e-17 0)
(0.11059 -1.53352e-16 0)
(0.11059 8.08959e-17 0)
(0.11059 7.20562e-17 0)
(0.11059 -9.35991e-18 0)
(0.11059 -5.41065e-18 0)
(0.11059 -1.79192e-16 0)
(0.11059 9.41393e-17 0)
(0.11059 1.38981e-16 0)
(0.11059 5.35659e-17 0)
(0.11059 -1.67004e-16 0)
(0.11059 -1.44475e-16 0)
(0.11059 2.15981e-16 0)
(0.11059 -3.96489e-17 0)
(0.11059 -6.77396e-17 0)
(0.11059 -4.80086e-17 0)
(0.11059 -5.99e-17 0)
(0.11059 2.44431e-16 0)
(0.11059 -2.5054e-17 0)
(0.11059 -6.72995e-17 0)
(0.11059 -9.1641e-17 0)
(0.11059 -3.95041e-17 0)
(0.11059 2.74745e-16 0)
(0.11059 3.13923e-17 0)
(0.11059 7.34536e-17 0)
(0.11059 -1.13736e-16 0)
(0.11059 -2.23672e-16 0)
(0.11059 1.15029e-16 0)
(0.11059 7.37341e-17 0)
(0.11059 1.15557e-16 0)
(0.11059 -1.4069e-16 0)
(0.11059 5.70976e-18 0)
(0.11059 8.513e-17 0)
(0.11059 -1.2148e-16 0)
(0.11059 1.62927e-16 0)
(0.11059 -1.23103e-17 0)
(0.11059 -8.42736e-17 0)
(0.11059 1.60689e-16 0)
(0.11059 7.17635e-19 0)
(0.11059 2.77177e-16 0)
(0.11059 3.83021e-16 0)
(0.11059 8.43436e-16 0)
(0.181818 2.13867e-15 0)
(0.181818 1.03183e-15 0)
(0.181818 4.71627e-16 0)
(0.181818 2.2883e-16 0)
(0.181818 1.43121e-16 0)
(0.181818 8.0549e-17 0)
(0.181818 6.18228e-17 0)
(0.181818 8.26887e-17 0)
(0.181818 1.09021e-16 0)
(0.181818 7.10117e-17 0)
(0.181818 4.52916e-17 0)
(0.181818 5.07044e-17 0)
(0.181818 1.21984e-16 0)
(0.181818 6.13206e-17 0)
(0.181818 -5.31894e-18 0)
(0.181818 4.07736e-17 0)
(0.181818 6.51105e-17 0)
(0.181818 5.40078e-17 0)
(0.181818 4.58019e-17 0)
(0.181818 3.89311e-17 0)
(0.181818 8.12591e-17 0)
(0.181818 1.44988e-17 0)
(0.181818 -3.7709e-17 0)
(0.181818 -3.43225e-17 0)
(0.181818 -4.90182e-17 0)
(0.181818 -3.57518e-17 0)
(0.181818 -2.08986e-18 0)
(0.181818 -6.36728e-17 0)
(0.181818 -1.16208e-16 0)
(0.181818 -9.2423e-17 0)
(0.181818 1.94019e-17 0)
(0.181818 1.04264e-16 0)
(0.181818 7.54347e-18 0)
(0.181818 -2.39988e-17 0)
(0.181818 -9.93661e-18 0)
(0.181818 -1.61074e-17 0)
(0.181818 5.53562e-17 0)
(0.181818 -1.702e-17 0)
(0.181818 -7.87315e-17 0)
(0.181818 8.26229e-18 0)
(0.181818 -5.61353e-18 0)
(0.181818 2.20583e-17 0)
(0.181818 2.43736e-17 0)
(0.181818 -5.64277e-17 0)
(0.181818 -1.41702e-17 0)
(0.181818 2.81302e-17 0)
(0.181818 -1.06679e-17 0)
(0.181818 -5.28919e-17 0)
(0.181818 -7.68038e-17 0)
(0.181818 -8.59653e-17 0)
(0.181818 -7.79005e-17 0)
(0.181818 -2.87676e-17 0)
(0.181818 -2.69248e-17 0)
(0.181818 -5.01003e-17 0)
(0.181818 6.83749e-18 0)
(0.181818 -7.13727e-17 0)
(0.181818 -2.59775e-17 0)
(0.181818 -3.37461e-17 0)
(0.181818 -3.5827e-18 0)
(0.181818 3.2279e-17 0)
(0.181818 -1.28883e-16 0)
(0.181818 8.09701e-17 0)
(0.181818 -1.92507e-17 0)
(0.181818 -1.12235e-17 0)
(0.181818 1.67463e-16 0)
(0.181818 -3.02198e-17 0)
(0.181818 5.29631e-17 0)
(0.181818 5.70249e-17 0)
(0.181818 6.76882e-17 0)
(0.181818 8.8977e-17 0)
(0.181818 -3.76839e-17 0)
(0.181818 2.1554e-18 0)
(0.181818 -2.8425e-17 0)
(0.181818 3.08166e-17 0)
(0.181818 8.47809e-17 0)
(0.181818 -1.32644e-16 0)
(0.181818 -1.33008e-16 0)
(0.181818 -4.12109e-18 0)
(0.181818 -5.6013e-17 0)
(0.181818 1.77118e-17 0)
(0.181818 -8.49869e-17 0)
(0.181818 -1.87299e-16 0)
(0.181818 2.80554e-17 0)
(0.181818 1.06536e-16 0)
(0.181818 1.24443e-16 0)
(0.181818 3.53292e-17 0)
(0.181818 4.30504e-17 0)
(0.181818 -6.56839e-18 0)
(0.181818 2.9191e-17 0)
(0.181818 1.80773e-16 0)
(0.181818 -4.48936e-17 0)
(0.181818 -8.12779e-17 0)
(0.181818 4.78302e-17 0)
(0.181818 5.50491e-17 0)
(0.181818 4.06798e-17 0)
(0.181818 -4.20188e-17 0)
(0.181818 1.4803e-17 0)
(0.181818 1.78167e-17 0)
(0.181818 -1.94003e-18 0)
(0.181818 -9.22167e-18 0)
(0.181818 -5.87652e-17 0)
(0.181818 -3.55181e-17 0)
(0.181818 -6.92906e-17 0)
(0.181818 1.61903e-17 0)
(0.181818 9.28985e-17 0)
(0.181818 9.66038e-17 0)
(0.181818 -8.88448e-17 0)
(0.181818 -7.1433e-17 0)
(0.181818 1.94619e-16 0)
(0.181818 1.99767e-16 0)
(0.181818 4.84783e-18 0)
(0.181818 -2.94341e-16 0)
(0.181818 8.12213e-17 0)
(0.181818 2.91071e-16 0)
(0.181818 1.0382e-16 0)
(0.181818 -5.05343e-17 0)
(0.181818 -2.86912e-16 0)
(0.181818 -7.90129e-17 0)
(0.181818 2.79355e-16 0)
(0.181818 1.0773e-16 0)
(0.181818 -2.39869e-16 0)
(0.181818 -3.24308e-16 0)
(0.181818 -1.92372e-17 0)
(0.181818 3.8898e-16 0)
(0.181818 2.32934e-16 0)
(0.181818 -1.77128e-16 0)
(0.181818 -3.9506e-16 0)
(0.181818 1.12526e-16 0)
(0.181818 3.63675e-16 0)
(0.181818 3.81311e-17 0)
(0.181818 -1.02727e-16 0)
(0.181818 -2.01618e-16 0)
(0.181818 5.00704e-17 0)
(0.181818 2.26858e-16 0)
(0.181818 -2.97522e-17 0)
(0.181818 -1.35631e-16 0)
(0.181818 -2.20252e-16 0)
(0.181818 -5.33714e-17 0)
(0.181818 2.09956e-16 0)
(0.181818 1.20088e-17 0)
(0.181818 -1.57471e-16 0)
(0.181818 -1.70634e-16 0)
(0.181818 5.47803e-17 0)
(0.181818 1.0885e-16 0)
(0.181818 -6.93893e-17 0)
(0.181818 -8.73089e-17 0)
(0.181818 -1.2338e-16 0)
(0.181818 1.01868e-16 0)
(0.181818 5.68582e-18 0)
(0.181818 -9.30653e-17 0)
(0.181818 1.22095e-16 0)
(0.181818 -1.12116e-16 0)
(0.181818 -1.69411e-16 0)
(0.181818 3.41809e-17 0)
(0.181818 9.25406e-17 0)
(0.181818 1.31237e-16 0)
(0.181818 -5.1023e-17 0)
(0.181818 -1.17932e-16 0)
(0.181818 1.0543e-16 0)
(0.181818 1.80829e-16 0)
(0.181818 1.78811e-16 0)
(0.181818 -1.74399e-16 0)
(0.181818 -3.11991e-17 0)
(0.181818 2.41892e-16 0)
(0.181818 -5.63393e-17 0)
(0.181818 4.17602e-17 0)
(0.181818 8.06124e-17 0)
(0.181818 7.27964e-17 0)
(0.181818 1.68364e-16 0)
(0.181818 6.9005e-17 0)
(0.181818 5.02495e-18 0)
(0.181818 -1.2147e-16 0)
(0.181818 9.60469e-17 0)
(0.181818 1.52534e-16 0)
(0.181818 -5.19315e-18 0)
(0.181818 -1.65661e-16 0)
(0.181818 -1.64258e-16 0)
(0.181818 8.87273e-17 0)
(0.181818 -3.2875e-17 0)
(0.181818 1.23389e-16 0)
(0.181818 3.80443e-17 0)
(0.181818 -3.94013e-16 0)
(0.181818 -4.73013e-17 0)
(0.181818 1.99113e-16 0)
(0.181818 6.33951e-17 0)
(0.181818 1.45117e-16 0)
(0.181818 -1.89468e-16 0)
(0.181818 -7.24451e-17 0)
(0.181818 1.63652e-16 0)
(0.181818 -6.48827e-17 0)
(0.181818 -3.08893e-18 0)
(0.181818 -3.26433e-17 0)
(0.181818 -4.87913e-17 0)
(0.181818 1.23459e-16 0)
(0.181818 9.53915e-17 0)
(0.181818 3.98683e-17 0)
(0.181818 -9.30983e-17 0)
(0.181818 -8.84438e-17 0)
(0.181818 7.9786e-17 0)
(0.181818 -4.96332e-17 0)
(0.181818 -4.18616e-17 0)
(0.181818 -1.00459e-16 0)
(0.181818 3.14184e-17 0)
(0.181818 1.12918e-16 0)
(0.181818 -4.26576e-17 0)
(0.181818 -1.15938e-16 0)
(0.181818 -1.25256e-16 0)
(0.181818 5.62221e-17 0)
(0.181818 7.65506e-17 0)
(0.181818 3.17471e-18 0)
(0.181818 -3.57994e-17 0)
(0.181818 -1.48258e-16 0)
(0.181818 4.03014e-16 0)
(0.181818 4.8801e-17 0)
(0.181818 -3.27108e-16 0)
(0.181818 2.96822e-16 0)
(0.181818 -8.57743e-17 0)
(0.181818 -2.61598e-18 0)
(0.181818 -7.32223e-17 0)
(0.181818 -3.10009e-16 0)
(0.181818 4.88076e-16 0)
(0.181818 5.21284e-17 0)
(0.181818 -1.18025e-16 0)
(0.181818 -6.64683e-17 0)
(0.181818 -3.55538e-16 0)
(0.181818 4.44724e-16 0)
(0.181818 3.76336e-17 0)
(0.181818 -1.69691e-16 0)
(0.181818 7.21381e-17 0)
(0.181818 -1.53586e-16 0)
(0.181818 4.78938e-16 0)
(0.181818 5.83701e-17 0)
(0.181818 -1.13415e-16 0)
(0.181818 9.05294e-17 0)
(0.181818 -3.43919e-16 0)
(0.181818 1.21487e-16 0)
(0.181818 7.03678e-18 0)
(0.181818 2.91665e-16 0)
(0.181818 3.32223e-16 0)
(0.181818 -4.10624e-16 0)
(0.181818 1.34981e-16 0)
(0.181818 -1.20809e-16 0)
(0.181818 1.30692e-16 0)
(0.181818 2.01765e-16 0)
(0.181818 -6.49188e-16 0)
(0.181818 7.18399e-17 0)
(0.181818 1.36346e-16 0)
(0.181818 1.86168e-16 0)
(0.181818 6.21713e-17 0)
(0.181818 -4.25119e-16 0)
(0.181818 4.70348e-16 0)
(0.181818 -6.09128e-17 0)
(0.181818 -4.39997e-16 0)
(0.181818 -2.33675e-16 0)
(0.181818 -1.94376e-16 0)
(0.181818 7.12048e-16 0)
(0.181818 -2.9609e-17 0)
(0.181818 -1.72559e-16 0)
(0.181818 1.63723e-16 0)
(0.181818 -3.63596e-16 0)
(0.181818 2.55128e-16 0)
(0.181818 5.86605e-17 0)
(0.181818 2.37555e-17 0)
(0.181818 2.22613e-17 0)
(0.181818 -2.40106e-16 0)
(0.181818 4.58855e-16 0)
(0.181818 2.08828e-17 0)
(0.181818 -9.62855e-17 0)
(0.181818 8.16276e-18 0)
(0.181818 -3.3411e-16 0)
(0.181818 2.64148e-16 0)
(0.181818 3.67335e-17 0)
(0.181818 -2.55108e-19 0)
(0.181818 -8.63097e-18 0)
(0.181818 -3.80246e-16 0)
(0.181818 2.2716e-16 0)
(0.181818 -2.03347e-17 0)
(0.181818 -1.25846e-17 0)
(0.181818 1.15931e-16 0)
(0.181818 -3.83329e-16 0)
(0.181818 1.88047e-16 0)
(0.181818 5.59299e-17 0)
(0.181818 1.27898e-17 0)
(0.181818 1.09961e-16 0)
(0.181818 -3.49412e-16 0)
(0.181818 2.42698e-16 0)
(0.181818 2.21234e-16 0)
(0.181818 -1.4425e-16 0)
(0.181818 -1.73004e-16 0)
(0.181818 -2.25071e-16 0)
(0.181818 2.70689e-16 0)
(0.181818 6.66709e-17 0)
(0.181818 -2.22251e-16 0)
(0.181818 2.26976e-17 0)
(0.181818 -1.057e-16 0)
(0.181818 1.44026e-16 0)
(0.181818 2.39531e-16 0)
(0.181818 -1.55628e-16 0)
(0.181818 -1.01705e-16 0)
(0.181818 -1.29439e-16 0)
(0.181818 2.93038e-16 0)
(0.181818 4.17099e-16 0)
(0.181818 5.06891e-17 0)
(0.181818 -3.74191e-16 0)
(0.181818 -1.79801e-16 0)
(0.181818 2.65817e-16 0)
(0.181818 6.22969e-17 0)
(0.181818 6.35026e-17 0)
(0.181818 -2.57534e-16 0)
(0.181818 2.78312e-17 0)
(0.181818 1.52443e-16 0)
(0.181818 -1.87011e-16 0)
(0.181818 1.71655e-16 0)
(0.181818 2.58426e-17 0)
(0.181818 -8.20036e-17 0)
(0.181818 9.69195e-17 0)
(0.181818 2.46457e-17 0)
(0.181818 5.37152e-16 0)
(0.181818 4.64259e-16 0)
(0.181818 8.26397e-16 0)
(0.251172 1.45878e-15 0)
(0.251172 9.04805e-16 0)
(0.251172 5.01312e-16 0)
(0.251172 2.88955e-16 0)
(0.251172 1.38738e-16 0)
(0.251172 1.14338e-16 0)
(0.251172 1.10679e-16 0)
(0.251172 1.28098e-16 0)
(0.251172 1.76185e-16 0)
(0.251172 1.01332e-16 0)
(0.251172 5.89969e-17 0)
(0.251172 1.05321e-16 0)
(0.251172 1.73833e-16 0)
(0.251172 9.3274e-17 0)
(0.251172 -2.80893e-18 0)
(0.251172 8.54238e-17 0)
(0.251172 1.21772e-16 0)
(0.251172 1.03636e-16 0)
(0.251172 8.41473e-17 0)
(0.251172 6.19995e-17 0)
(0.251172 9.33226e-17 0)
(0.251172 4.64021e-17 0)
(0.251172 -5.36777e-17 0)
(0.251172 -7.8425e-17 0)
(0.251172 -9.36294e-17 0)
(0.251172 -5.77462e-17 0)
(0.251172 -2.04711e-17 0)
(0.251172 -1.31383e-16 0)
(0.251172 -2.08129e-16 0)
(0.251172 -1.2632e-16 0)
(0.251172 2.51554e-17 0)
(0.251172 1.15867e-16 0)
(0.251172 3.39459e-17 0)
(0.251172 -2.30492e-17 0)
(0.251172 -2.60085e-17 0)
(0.251172 -3.38776e-17 0)
(0.251172 4.89907e-17 0)
(0.251172 -5.31925e-18 0)
(0.251172 -1.02661e-16 0)
(0.251172 -1.34682e-17 0)
(0.251172 -5.04225e-21 0)
(0.251172 3.32653e-17 0)
(0.251172 1.66269e-17 0)
(0.251172 -8.58277e-17 0)
(0.251172 -2.54659e-17 0)
(0.251172 2.67208e-17 0)
(0.251172 -1.24522e-17 0)
(0.251172 -8.16703e-17 0)
(0.251172 -1.42785e-16 0)
(0.251172 -1.54513e-16 0)
(0.251172 -1.51097e-16 0)
(0.251172 -5.29383e-17 0)
(0.251172 -4.50563e-17 0)
(0.251172 -1.02995e-16 0)
(0.251172 -1.12966e-17 0)
(0.251172 -1.08674e-16 0)
(0.251172 -7.42656e-17 0)
(0.251172 -7.88458e-17 0)
(0.251172 -3.8571e-17 0)
(0.251172 3.86053e-17 0)
(0.251172 -1.41759e-16 0)
(0.251172 6.36084e-17 0)
(0.251172 1.09991e-18 0)
(0.251172 4.81316e-17 0)
(0.251172 1.75255e-16 0)
(0.251172 -2.82901e-17 0)
(0.251172 1.41111e-16 0)
(0.251172 7.44878e-17 0)
(0.251172 1.32003e-16 0)
(0.251172 1.54084e-16 0)
(0.251172 -6.21091e-17 0)
(0.251172 7.67129e-18 0)
(0.251172 -4.76284e-17 0)
(0.251172 4.34759e-17 0)
(0.251172 9.70341e-17 0)
(0.251172 -1.82353e-16 0)
(0.251172 -1.70903e-16 0)
(0.251172 -8.50147e-17 0)
(0.251172 -1.1273e-16 0)
(0.251172 5.84559e-18 0)
(0.251172 -1.55606e-16 0)
(0.251172 -2.51977e-16 0)
(0.251172 1.6562e-17 0)
(0.251172 2.11536e-16 0)
(0.251172 2.13997e-16 0)
(0.251172 3.13372e-17 0)
(0.251172 6.10891e-17 0)
(0.251172 6.51982e-17 0)
(0.251172 6.88766e-17 0)
(0.251172 2.19527e-16 0)
(0.251172 -1.1049e-17 0)
(0.251172 -9.55552e-17 0)
(0.251172 4.65374e-17 0)
(0.251172 9.91337e-17 0)
(0.251172 5.13611e-17 0)
(0.251172 -9.34006e-17 0)
(0.251172 3.10507e-17 0)
(0.251172 8.37581e-17 0)
(0.251172 -1.39146e-17 0)
(0.251172 -3.17544e-17 0)
(0.251172 -8.62768e-17 0)
(0.251172 -7.64411e-17 0)
(0.251172 -1.20052e-16 0)
(0.251172 2.34388e-17 0)
(0.251172 1.9331e-16 0)
(0.251172 1.5688e-16 0)
(0.251172 -1.44608e-16 0)
(0.251172 -1.23973e-16 0)
(0.251172 3.27143e-16 0)
(0.251172 3.42107e-16 0)
(0.251172 1.36198e-18 0)
(0.251172 -3.59487e-16 0)
(0.251172 8.11287e-17 0)
(0.251172 3.83356e-16 0)
(0.251172 2.33294e-16 0)
(0.251172 -2.39261e-17 0)
(0.251172 -4.20495e-16 0)
(0.251172 -1.57366e-16 0)
(0.251172 3.58418e-16 0)
(0.251172 1.73495e-16 0)
(0.251172 -3.55327e-16 0)
(0.251172 -5.03523e-16 0)
(0.251172 -4.44175e-18 0)
(0.251172 5.13681e-16 0)
(0.251172 2.84654e-16 0)
(0.251172 -1.86402e-16 0)
(0.251172 -4.36498e-16 0)
(0.251172 1.04128e-16 0)
(0.251172 5.00418e-16 0)
(0.251172 8.20657e-17 0)
(0.251172 -1.99936e-16 0)
(0.251172 -2.03404e-16 0)
(0.251172 2.62208e-17 0)
(0.251172 2.61884e-16 0)
(0.251172 9.47574e-18 0)
(0.251172 -2.02088e-16 0)
(0.251172 -3.60144e-16 0)
(0.251172 -1.18548e-16 0)
(0.251172 3.25274e-16 0)
(0.251172 4.0705e-17 0)
(0.251172 -2.57848e-16 0)
(0.251172 -3.33302e-16 0)
(0.251172 6.97422e-17 0)
(0.251172 1.43173e-16 0)
(0.251172 -6.89605e-17 0)
(0.251172 -9.49275e-17 0)
(0.251172 -3.12285e-16 0)
(0.251172 8.94746e-17 0)
(0.251172 6.5951e-17 0)
(0.251172 -6.87261e-17 0)
(0.251172 1.09278e-16 0)
(0.251172 -2.48879e-16 0)
(0.251172 -1.50764e-16 0)
(0.251172 7.93593e-17 0)
(0.251172 1.32014e-16 0)
(0.251172 1.33001e-16 0)
(0.251172 -1.06701e-16 0)
(0.251172 -9.85957e-17 0)
(0.251172 2.12454e-16 0)
(0.251172 2.85143e-16 0)
(0.251172 2.2765e-16 0)
(0.251172 -2.29992e-16 0)
(0.251172 5.43411e-17 0)
(0.251172 3.70726e-16 0)
(0.251172 -7.00878e-17 0)
(0.251172 9.63858e-17 0)
(0.251172 1.57193e-16 0)
(0.251172 1.5863e-16 0)
(0.251172 2.25336e-16 0)
(0.251172 1.25016e-16 0)
(0.251172 2.07462e-17 0)
(0.251172 -1.82629e-16 0)
(0.251172 1.05012e-16 0)
(0.251172 2.9306e-16 0)
(0.251172 -4.58877e-17 0)
(0.251172 -2.14829e-16 0)
(0.251172 -1.92663e-16 0)
(0.251172 1.95871e-17 0)
(0.251172 -2.50264e-17 0)
(0.251172 1.29472e-16 0)
(0.251172 2.0423e-17 0)
(0.251172 -4.89668e-16 0)
(0.251172 -3.11812e-17 0)
(0.251172 2.46306e-16 0)
(0.251172 7.42147e-17 0)
(0.251172 1.27589e-16 0)
(0.251172 -1.85454e-16 0)