/*--------------------------------*- C++ -*----------------------------------*\
| =========                 |                                                 |
| \\      /  F ield         | OpenFOAM: The Open Source CFD Toolbox           |
|  \\    /   O peration     | Version:  2112                                  |
|   \\  /    A nd           | Website:  www.openfoam.com                      |
|    \\/     M anipulation  |                                                 |
\*---------------------------------------------------------------------------*/
FoamFile
{
    version     2.0;
    format      ascii;
    arch        "LSB;label=32;scalar=64";
    class       volScalarField;
    location    "10";
    object      p;
}
// * * * * * * * * * * * * * * * * * * * * * * * * * * * * * * * * * * * * * //

dimensions      [0 2 -2 0 0 0 0];

internalField   nonuniform List<scalar> 
25600
(
3.83561e-14
7.23469e-14
8.53826e-14
9.13651e-14
9.58224e-14
9.93228e-14
1.02306e-13
1.04928e-13
1.07353e-13
1.09596e-13
1.11738e-13
1.13818e-13
1.15721e-13
1.17521e-13
1.19291e-13
1.20938e-13
1.22638e-13
1.24343e-13
1.25989e-13
1.27537e-13
1.29008e-13
1.30486e-13
1.31938e-13
1.33329e-13
1.34638e-13
1.35833e-13
1.36981e-13
1.38207e-13
1.39422e-13
1.40478e-13
1.41473e-13
1.42505e-13
1.43563e-13
1.44668e-13
1.45685e-13
1.4669e-13
1.47678e-13
1.48684e-13
1.49634e-13
1.50551e-13
1.51552e-13
1.52497e-13
1.53561e-13
1.54613e-13
1.55569e-13
1.56662e-13
1.57744e-13
1.58868e-13
1.6008e-13
1.61247e-13
1.62395e-13
1.63401e-13
1.64546e-13
1.65666e-13
1.66792e-13
1.68057e-13
1.69192e-13
1.70384e-13
1.71561e-13
1.72673e-13
1.7387e-13
1.74939e-13
1.76108e-13
1.77299e-13
1.78485e-13
1.79813e-13
1.81108e-13
1.82319e-13
1.83594e-13
1.84864e-13
1.86258e-13
1.87593e-13
1.88877e-13
1.90113e-13
1.91303e-13
1.92717e-13
1.94054e-13
1.95116e-13
1.96366e-13
1.97574e-13
1.98922e-13
2.00113e-13
2.00984e-13
2.02013e-13
2.03145e-13
2.04448e-13
2.0571e-13
2.06684e-13
2.07539e-13
2.08566e-13
2.09858e-13
2.11066e-13
2.11887e-13
2.12677e-13
2.13781e-13
2.14911e-13
2.15725e-13
2.16558e-13
2.17368e-13
2.18433e-13
2.19676e-13
2.20454e-13
2.21327e-13
2.22138e-13
2.231e-13
2.24162e-13
2.25059e-13
2.25784e-13
2.26507e-13
2.27457e-13
2.28361e-13
2.29321e-13
2.29787e-13
2.30256e-13
2.31216e-13
2.3212e-13
2.32802e-13
2.33178e-13
2.33719e-13
2.34514e-13
2.35324e-13
2.3603e-13
2.36378e-13
2.36749e-13
2.37506e-13
2.38358e-13
2.3897e-13
2.39246e-13
2.39538e-13
2.40201e-13
2.40933e-13
2.41481e-13
2.41735e-13
2.42157e-13
2.42806e-13
2.43319e-13
2.43791e-13
2.44103e-13
2.44369e-13
2.44802e-13
2.45177e-13
2.45446e-13
2.45598e-13
2.45746e-13
2.46017e-13
2.46245e-13
2.46541e-13
2.46633e-13
2.46673e-13
2.46682e-13
2.4678e-13
2.47206e-13
2.47267e-13
2.46919e-13
2.46783e-13
2.46853e-13
2.47051e-13
2.47053e-13
2.46769e-13
2.46649e-13
2.4665e-13
2.47013e-13
2.46972e-13
2.46802e-13
2.46919e-13
2.46795e-13
2.4698e-13
2.47084e-13
2.46867e-13
2.46883e-13
2.46864e-13
2.47021e-13
2.46872e-13
2.46742e-13
2.46703e-13
2.46445e-13
2.46283e-13
2.45855e-13
2.45877e-13
2.45751e-13
2.45263e-13
2.4536e-13
2.45077e-13
2.44757e-13
2.44486e-13
2.43953e-13
2.44003e-13
2.43693e-13
2.43279e-13
2.43196e-13
2.42626e-13
2.42344e-13
2.42025e-13
2.4138e-13
2.41245e-13
2.40931e-13
2.4049e-13
2.39761e-13
2.3901e-13
2.39055e-13
2.38553e-13
2.38002e-13
2.37166e-13
2.36321e-13
2.36379e-13
2.36104e-13
2.35255e-13
2.34214e-13
2.33649e-13
2.33671e-13
2.33427e-13
2.3256e-13
2.31413e-13
2.31273e-13
2.31095e-13
2.29804e-13
2.29385e-13
2.2929e-13
2.28735e-13
2.27819e-13
2.26468e-13
2.26115e-13
2.26065e-13
2.25365e-13
2.24358e-13
2.22946e-13
2.22513e-13
2.22104e-13
2.213e-13
2.20577e-13
2.19344e-13
2.18675e-13
2.17957e-13
2.17101e-13
2.1641e-13
2.15069e-13
2.14047e-13
2.13169e-13
2.12167e-13
2.11242e-13
2.09803e-13
2.089e-13
2.07994e-13
2.07007e-13
2.06433e-13
2.05076e-13
2.03616e-13
2.02465e-13
2.01722e-13
2.00929e-13
1.99381e-13
1.98353e-13
1.97447e-13
1.96406e-13
1.95456e-13
1.93848e-13
1.92795e-13
1.91727e-13
1.9054e-13
1.89656e-13
1.88047e-13
1.86818e-13
1.858e-13
1.84608e-13
1.83428e-13
1.81732e-13
1.80486e-13
1.79499e-13
1.78354e-13
1.77131e-13
1.7546e-13
1.74127e-13
1.72861e-13
1.71517e-13
1.70228e-13
1.68581e-13
1.67211e-13
1.65918e-13
1.64227e-13
1.62802e-13
1.61159e-13
1.59575e-13
1.58251e-13
1.56709e-13
1.55261e-13
1.53406e-13
1.51514e-13
1.50142e-13
1.48879e-13
1.47217e-13
1.45073e-13
1.43394e-13
1.42099e-13
1.40628e-13
1.38611e-13
1.3655e-13
1.35111e-13
1.33573e-13
1.32156e-13
1.30146e-13
1.28037e-13
1.26534e-13
1.25006e-13
1.237e-13
1.21979e-13
1.19824e-13
1.17827e-13
1.15737e-13
1.14103e-13
1.12011e-13
1.09862e-13
1.07762e-13
1.05216e-13
1.03083e-13
1.00548e-13
9.73458e-14
9.4026e-14
8.96757e-14
8.41949e-14
7.19085e-14
7.45614e-14
8.20064e-14
8.79145e-14
9.26123e-14
9.64964e-14
9.97504e-14
1.02581e-13
1.05165e-13
1.07539e-13
1.09723e-13
1.11915e-13
1.13974e-13
1.1585e-13
1.17613e-13
1.1933e-13
1.21056e-13
1.22662e-13
1.2436e-13
1.26023e-13
1.27601e-13
1.29091e-13
1.30557e-13
1.31959e-13
1.33319e-13
1.3458e-13
1.35884e-13
1.37112e-13
1.38246e-13
1.39441e-13
1.4051e-13
1.41525e-13
1.42553e-13
1.43597e-13
1.44686e-13
1.45716e-13
1.46781e-13
1.47718e-13
1.48688e-13
1.49634e-13
1.50582e-13
1.51553e-13
1.52522e-13
1.53533e-13
1.54583e-13
1.5563e-13
1.56638e-13
1.57717e-13
1.58857e-13
1.60084e-13
1.61227e-13
1.62351e-13
1.63461e-13
1.64568e-13
1.65681e-13
1.66854e-13
1.68011e-13
1.69186e-13
1.7039e-13
1.71622e-13
1.7275e-13
1.7383e-13
1.74938e-13
1.76066e-13
1.77252e-13
1.78466e-13
1.79827e-13
1.81079e-13
1.82289e-13
1.83611e-13
1.8489e-13
1.8624e-13
1.87544e-13
1.88854e-13
1.90101e-13
1.91321e-13
1.92726e-13
1.94016e-13
1.95174e-13
1.96438e-13
1.97626e-13
1.9891e-13
2.00033e-13
2.0098e-13
2.02117e-13
2.03232e-13
2.04402e-13
2.05515e-13
2.0669e-13
2.07699e-13
2.08718e-13
2.09859e-13
2.10899e-13
2.11882e-13
2.12852e-13
2.13781e-13
2.14748e-13
2.15646e-13
2.16582e-13
2.17539e-13
2.18476e-13
2.19454e-13
2.20346e-13
2.21327e-13
2.22271e-13
2.23161e-13
2.24056e-13
2.25e-13
2.25894e-13
2.26594e-13
2.27468e-13
2.28335e-13
2.29182e-13
2.29885e-13
2.30505e-13
2.31202e-13
2.31956e-13
2.32721e-13
2.33311e-13
2.33806e-13
2.34487e-13
2.35335e-13
2.35957e-13
2.36449e-13
2.36881e-13
2.37548e-13
2.3828e-13
2.38919e-13
2.39236e-13
2.39611e-13
2.40196e-13
2.40862e-13
2.41454e-13
2.41818e-13
2.42253e-13
2.42777e-13
2.43342e-13
2.43847e-13
2.44209e-13
2.44381e-13
2.44789e-13
2.45227e-13
2.4549e-13
2.4568e-13
2.45769e-13
2.46025e-13
2.46307e-13
2.46448e-13
2.46499e-13
2.46725e-13
2.46854e-13
2.46921e-13
2.47089e-13
2.47048e-13
2.46951e-13
2.46954e-13
2.4697e-13
2.47023e-13
2.4706e-13
2.46817e-13
2.4668e-13
2.46755e-13
2.46908e-13
2.4692e-13
2.46843e-13
2.468e-13
2.46833e-13
2.46845e-13
2.46957e-13
2.46982e-13
2.46982e-13
2.47025e-13
2.46898e-13
2.46823e-13
2.46643e-13
2.46562e-13
2.46615e-13
2.46398e-13
2.46014e-13
2.45824e-13
2.45555e-13
2.45453e-13
2.45344e-13
2.45037e-13
2.44647e-13
2.44433e-13
2.44182e-13
2.43981e-13
2.4369e-13
2.43326e-13
2.42965e-13
2.42642e-13
2.42359e-13
2.41976e-13
2.41651e-13
2.41137e-13
2.40848e-13
2.40348e-13
2.3989e-13
2.39446e-13
2.38861e-13
2.38414e-13
2.37867e-13
2.37298e-13
2.36743e-13
2.3617e-13
2.35777e-13
2.35133e-13
2.34526e-13
2.34018e-13
2.33474e-13
2.33009e-13
2.32478e-13
2.31785e-13
2.31332e-13
2.30871e-13
2.3018e-13
2.2967e-13
2.28914e-13
2.28422e-13
2.27813e-13
2.26917e-13
2.2634e-13
2.25751e-13
2.25079e-13
2.24302e-13
2.2335e-13
2.2269e-13
2.22015e-13
2.21236e-13
2.20428e-13
2.1946e-13
2.18717e-13
2.17919e-13
2.17215e-13
2.16346e-13
2.15304e-13
2.14176e-13
2.12979e-13
2.12014e-13
2.11101e-13
2.09972e-13
2.0902e-13
2.07944e-13
2.0696e-13
2.06222e-13
2.05044e-13
2.03867e-13
2.02697e-13
2.01695e-13
2.00679e-13
1.99358e-13
1.98392e-13
1.97584e-13
1.96511e-13
1.95257e-13
1.93867e-13
1.92912e-13
1.9185e-13
1.90588e-13
1.89459e-13
1.88092e-13
1.86957e-13
1.85789e-13
1.84626e-13
1.83347e-13
1.81896e-13
1.80733e-13
1.79454e-13
1.78205e-13
1.77091e-13
1.75581e-13
1.74285e-13
1.72758e-13
1.71455e-13
1.70266e-13
1.68577e-13
1.67254e-13
1.65774e-13
1.64261e-13
1.62938e-13
1.61214e-13
1.59736e-13
1.58174e-13
1.56618e-13
1.55226e-13
1.53411e-13
1.51765e-13
1.50322e-13
1.48788e-13
1.47122e-13
1.45138e-13
1.43609e-13
1.42168e-13
1.40337e-13
1.38655e-13
1.36825e-13
1.35095e-13
1.33647e-13
1.31905e-13
1.30168e-13
1.28344e-13
1.26569e-13
1.25101e-13
1.23553e-13
1.21838e-13
1.19761e-13
1.18013e-13
1.16107e-13
1.14164e-13
1.12027e-13
1.09881e-13
1.07846e-13
1.05565e-13
1.03156e-13
1.00677e-13
9.79144e-14
9.4738e-14
9.09134e-14
8.67384e-14
8.14079e-14
8.54715e-14
8.80109e-14
9.15515e-14
9.49742e-14
9.80559e-14
1.00902e-13
1.0346e-13
1.05844e-13
1.08069e-13
1.10175e-13
1.12262e-13
1.14375e-13
1.16147e-13
1.17883e-13
1.19519e-13
1.21228e-13
1.22816e-13
1.24507e-13
1.26121e-13
1.27754e-13
1.2926e-13
1.30702e-13
1.32111e-13
1.33295e-13
1.34661e-13
1.36071e-13
1.37202e-13
1.38363e-13
1.39514e-13
1.40606e-13
1.41693e-13
1.42683e-13
1.43658e-13
1.44737e-13
1.45804e-13
1.46768e-13
1.47739e-13
1.48742e-13
1.49706e-13
1.50668e-13
1.51626e-13
1.525e-13
1.53584e-13
1.5458e-13
1.55588e-13
1.56619e-13
1.57657e-13
1.58827e-13
1.60085e-13
1.61274e-13
1.62351e-13
1.63429e-13
1.64611e-13
1.65741e-13
1.66856e-13
1.6802e-13
1.69242e-13
1.70416e-13
1.71657e-13
1.7278e-13
1.73836e-13
1.74919e-13
1.76019e-13
1.77242e-13
1.78538e-13
1.79757e-13
1.8101e-13
1.82292e-13
1.8352e-13
1.84862e-13
1.86257e-13
1.87493e-13
1.88883e-13
1.90064e-13
1.91385e-13
1.92685e-13
1.93961e-13
1.95294e-13
1.96517e-13
1.97716e-13
1.99024e-13
1.99918e-13
2.00962e-13
2.02119e-13
2.03218e-13
2.04439e-13
2.0552e-13
2.06692e-13
2.07786e-13
2.0885e-13
2.0976e-13
2.10824e-13
2.11968e-13
2.12973e-13
2.1385e-13
2.14684e-13
2.15641e-13
2.16611e-13
2.17562e-13
2.18434e-13
2.19356e-13
2.20343e-13
2.21281e-13
2.22383e-13
2.2318e-13
2.24066e-13
2.24965e-13
2.2589e-13
2.26615e-13
2.27434e-13
2.28359e-13
2.29201e-13
2.30042e-13
2.30659e-13
2.31224e-13
2.32e-13
2.32738e-13
2.33299e-13
2.33825e-13
2.34504e-13
2.35287e-13
2.35899e-13
2.36455e-13
2.37078e-13
2.37676e-13
2.38252e-13
2.38756e-13
2.39184e-13
2.39595e-13
2.40307e-13
2.40862e-13
2.41358e-13
2.41866e-13
2.42323e-13
2.42763e-13
2.43385e-13
2.43951e-13
2.44245e-13
2.44442e-13
2.44849e-13
2.45306e-13
2.45536e-13
2.45678e-13
2.45799e-13
2.46099e-13
2.46292e-13
2.46444e-13
2.46561e-13
2.46656e-13
2.46969e-13
2.47104e-13
2.46961e-13
2.46864e-13
2.46979e-13
2.47025e-13
2.47116e-13
2.47085e-13
2.47006e-13
2.46857e-13
2.46717e-13
2.46792e-13
2.46881e-13
2.46838e-13
2.46715e-13
2.4665e-13
2.46848e-13
2.46863e-13
2.46947e-13
2.47032e-13
2.47051e-13
2.47028e-13
2.46921e-13
2.46837e-13
2.46568e-13
2.46485e-13
2.46442e-13
2.46394e-13
2.4624e-13
2.45883e-13
2.45478e-13
2.45496e-13
2.45353e-13
2.44972e-13
2.44696e-13
2.44514e-13
2.4436e-13
2.43954e-13
2.4356e-13
2.4329e-13
2.42832e-13
2.42672e-13
2.42431e-13
2.42046e-13
2.41646e-13
2.41092e-13
2.40778e-13
2.40365e-13
2.39953e-13
2.39608e-13
2.38951e-13
2.38412e-13
2.37868e-13
2.37286e-13
2.36876e-13
2.36189e-13
2.35538e-13
2.35096e-13
2.34712e-13
2.34202e-13
2.33503e-13
2.32862e-13
2.32384e-13
2.31922e-13
2.31368e-13
2.30835e-13
2.30411e-13
2.2973e-13
2.28717e-13
2.28328e-13
2.27871e-13
2.27119e-13
2.26452e-13
2.25597e-13
2.24894e-13
2.24294e-13
2.23543e-13
2.22806e-13
2.22141e-13
2.2121e-13
2.20368e-13
2.19395e-13
2.18749e-13
2.1807e-13
2.17272e-13
2.16338e-13
2.15339e-13
2.14207e-13
2.12932e-13
2.11988e-13
2.10996e-13
2.09877e-13
2.09077e-13
2.08042e-13
2.07023e-13
2.06088e-13
2.05002e-13
2.03931e-13
2.02869e-13
2.0163e-13
2.00539e-13
1.99479e-13
1.98449e-13
1.97549e-13
1.96446e-13
1.95291e-13
1.94018e-13
1.92921e-13
1.91877e-13
1.90558e-13
1.89466e-13
1.88318e-13
1.87111e-13
1.85676e-13
1.8451e-13
1.83394e-13
1.82103e-13
1.80941e-13
1.79495e-13
1.78194e-13
1.77167e-13
1.75666e-13
1.74291e-13
1.72842e-13
1.71504e-13
1.70274e-13
1.68517e-13
1.67303e-13
1.65829e-13
1.64357e-13
1.63038e-13
1.61232e-13
1.59762e-13
1.5821e-13
1.56587e-13
1.5525e-13
1.53444e-13
1.51866e-13
1.50521e-13
1.48831e-13
1.47153e-13
1.4526e-13
1.43587e-13
1.42106e-13
1.40449e-13
1.38834e-13
1.36949e-13
1.35175e-13
1.33689e-13
1.31868e-13
1.30205e-13
1.28521e-13
1.26719e-13
1.25215e-13
1.23468e-13
1.21704e-13
1.19856e-13
1.18339e-13
1.16607e-13
1.14437e-13
1.12358e-13
1.10121e-13
1.08309e-13
1.06223e-13
1.03742e-13
1.01528e-13
9.91237e-14
9.63354e-14
9.3382e-14
9.03763e-14
8.75124e-14
9.13071e-14
9.27663e-14
9.51142e-14
9.75615e-14
1.00118e-13
1.02426e-13
1.04676e-13
1.06942e-13
1.08828e-13
1.10883e-13
1.12795e-13
1.1494e-13
1.16574e-13
1.18303e-13
1.19941e-13
1.21501e-13
1.23044e-13
1.24675e-13
1.26387e-13
1.27952e-13
1.29485e-13
1.3089e-13
1.32298e-13
1.33542e-13
1.34851e-13
1.36226e-13
1.37353e-13
1.38479e-13
1.39547e-13
1.4079e-13
1.41979e-13
1.4288e-13
1.43723e-13
1.44751e-13
1.4581e-13
1.46882e-13
1.47871e-13
1.48812e-13
1.49819e-13
1.50811e-13
1.51519e-13
1.52495e-13
1.53582e-13
1.54408e-13
1.55636e-13
1.56594e-13
1.57568e-13
1.58835e-13
1.60215e-13
1.61312e-13
1.62386e-13
1.63452e-13
1.64664e-13
1.65774e-13
1.66796e-13
1.67956e-13
1.69333e-13
1.70537e-13
1.71687e-13
1.72776e-13
1.73746e-13
1.7489e-13
1.76011e-13
1.77312e-13
1.78613e-13
1.79929e-13
1.80943e-13
1.82251e-13
1.83437e-13
1.84871e-13
1.86255e-13
1.8752e-13
1.88875e-13
1.89956e-13
1.91408e-13
1.92794e-13
1.93949e-13
1.95329e-13
1.96628e-13
1.97815e-13
1.99093e-13
1.99931e-13
2.00978e-13
2.01925e-13
2.03219e-13
2.04581e-13
2.05648e-13
2.0682e-13
2.07924e-13
2.08705e-13
2.09768e-13
2.10821e-13
2.11993e-13
2.13019e-13
2.13838e-13
2.14708e-13
2.15792e-13
2.16643e-13
2.17377e-13
2.18341e-13
2.19287e-13
2.20235e-13
2.21295e-13
2.22461e-13
2.23361e-13
2.24195e-13
2.24896e-13
2.25795e-13
2.267e-13
2.27506e-13
2.28194e-13
2.29189e-13
2.30338e-13
2.30724e-13
2.31246e-13
2.32115e-13
2.327e-13
2.33217e-13
2.33921e-13
2.34625e-13
2.35234e-13
2.35801e-13
2.36456e-13
2.37087e-13
2.37719e-13
2.38264e-13
2.38778e-13
2.39127e-13
2.39705e-13
2.40315e-13
2.4076e-13
2.41238e-13
2.41939e-13
2.42535e-13
2.42841e-13
2.43259e-13
2.43904e-13
2.44396e-13
2.44698e-13
2.44868e-13
2.45251e-13
2.45539e-13
2.45738e-13
2.46071e-13
2.46065e-13
2.46308e-13
2.46564e-13
2.46637e-13
2.46737e-13
2.46975e-13
2.47089e-13
2.47083e-13
2.47e-13
2.46995e-13
2.46981e-13
2.47007e-13
2.47176e-13
2.46929e-13
2.46874e-13
2.46768e-13
2.46751e-13
2.46671e-13
2.46692e-13
2.46776e-13
2.46671e-13
2.46841e-13
2.46881e-13
2.46931e-13
2.47021e-13
2.47123e-13
2.4701e-13
2.47016e-13
2.46758e-13
2.46537e-13
2.46498e-13
2.46393e-13
2.46363e-13
2.46236e-13
2.45966e-13
2.45512e-13
2.45401e-13
2.4538e-13
2.45092e-13
2.4482e-13
2.44481e-13
2.4429e-13
2.43871e-13
2.43521e-13
2.43145e-13
2.42902e-13
2.42867e-13
2.42367e-13
2.42086e-13
2.41758e-13
2.41248e-13
2.40764e-13
2.40383e-13
2.40001e-13
2.39454e-13
2.39059e-13
2.38529e-13
2.37832e-13
2.37219e-13
2.36661e-13
2.36187e-13
2.35694e-13
2.35182e-13
2.34644e-13
2.34179e-13
2.33655e-13
2.32922e-13
2.3227e-13
2.32019e-13
2.31403e-13
2.30838e-13
2.30405e-13
2.29895e-13
2.28888e-13
2.2842e-13
2.27881e-13
2.27127e-13
2.26536e-13
2.25632e-13
2.24779e-13
2.24287e-13
2.23567e-13
2.22905e-13
2.2212e-13
2.21387e-13
2.2059e-13
2.19539e-13
2.18815e-13
2.18063e-13
2.17259e-13
2.16293e-13
2.15252e-13
2.14289e-13
2.13186e-13
2.12015e-13
2.10989e-13
2.09993e-13
2.09008e-13
2.07881e-13
2.07086e-13
2.06144e-13
2.05115e-13
2.03989e-13
2.02816e-13
2.01629e-13
2.00696e-13
1.99576e-13
1.9849e-13
1.97487e-13
1.96399e-13
1.95227e-13
1.94132e-13
1.92952e-13
1.91828e-13
1.90568e-13
1.8958e-13
1.88546e-13
1.87142e-13
1.85656e-13
1.84593e-13
1.83761e-13
1.82229e-13
1.80754e-13
1.79573e-13
1.78349e-13
1.77122e-13
1.75829e-13
1.74394e-13
1.73002e-13
1.7173e-13
1.70184e-13
1.68717e-13
1.67411e-13
1.65942e-13
1.64397e-13
1.6277e-13
1.61366e-13
1.59839e-13
1.58281e-13
1.56738e-13
1.55081e-13
1.53585e-13
1.52053e-13
1.50402e-13
1.48834e-13
1.47335e-13
1.45568e-13
1.4381e-13
1.42004e-13
1.40409e-13
1.38991e-13
1.37293e-13
1.35387e-13
1.33616e-13
1.3195e-13
1.30296e-13
1.28707e-13
1.26951e-13
1.25308e-13
1.23681e-13
1.21865e-13
1.20276e-13
1.18684e-13
1.16779e-13
1.14849e-13
1.1286e-13
1.10866e-13
1.09105e-13
1.07003e-13
1.04721e-13
1.02677e-13
1.00681e-13
9.86134e-14
9.62388e-14
9.3911e-14
9.22993e-14
9.59273e-14
9.67308e-14
9.82663e-14
1.00222e-13
1.02136e-13
1.0413e-13
1.06256e-13
1.08246e-13
1.1007e-13
1.12044e-13
1.13606e-13
1.15489e-13
1.17201e-13
1.18804e-13
1.20335e-13
1.21932e-13
1.23489e-13
1.24995e-13
1.26633e-13
1.28286e-13
1.29894e-13
1.31299e-13
1.32526e-13
1.33809e-13
1.35305e-13
1.36363e-13
1.3752e-13
1.38661e-13
1.39821e-13
1.4091e-13
1.42041e-13
1.42894e-13
1.43859e-13
1.44815e-13
1.45915e-13
1.47052e-13
1.4808e-13
1.48861e-13
1.49697e-13
1.50763e-13
1.51667e-13
1.52615e-13
1.53452e-13
1.54419e-13
1.55656e-13
1.5649e-13
1.57452e-13
1.58689e-13
1.60089e-13
1.61303e-13
1.62377e-13
1.63558e-13
1.64672e-13
1.65797e-13
1.66811e-13
1.67949e-13
1.69341e-13
1.7059e-13
1.71672e-13
1.72779e-13
1.7372e-13
1.75064e-13
1.76099e-13
1.77172e-13
1.78482e-13
1.79925e-13
1.80951e-13
1.82188e-13
1.83339e-13
1.84879e-13
1.86254e-13
1.87567e-13
1.88998e-13
1.90227e-13
1.91428e-13
1.92735e-13
1.94006e-13
1.9524e-13
1.96625e-13
1.97955e-13
1.99015e-13
1.99903e-13
2.0086e-13
2.01937e-13
2.03372e-13
2.04692e-13
2.05846e-13
2.0686e-13
2.07763e-13
2.08631e-13
2.09872e-13
2.10932e-13
2.1199e-13
2.12972e-13
2.13767e-13
2.14729e-13
2.15824e-13
2.16698e-13
2.17403e-13
2.1833e-13
2.19265e-13
2.20365e-13
2.215e-13
2.22436e-13
2.23457e-13
2.24363e-13
2.25047e-13
2.25787e-13
2.26614e-13
2.27302e-13
2.28235e-13
2.29297e-13
2.30265e-13
2.30776e-13
2.31321e-13
2.32132e-13
2.32643e-13
2.33437e-13
2.33907e-13
2.34713e-13
2.35253e-13
2.35674e-13
2.36328e-13
2.37166e-13
2.37685e-13
2.38355e-13
2.39003e-13
2.39377e-13
2.39636e-13
2.40133e-13
2.40829e-13
2.4135e-13
2.41985e-13
2.42659e-13
2.42997e-13
2.4322e-13
2.43905e-13
2.4441e-13
2.44682e-13
2.44929e-13
2.45301e-13
2.45564e-13
2.4589e-13
2.46234e-13
2.46219e-13
2.46531e-13
2.46642e-13
2.46762e-13
2.4688e-13
2.47007e-13
2.47091e-13
2.47e-13
2.47173e-13
2.47193e-13
2.4697e-13
2.46986e-13
2.47038e-13
2.46922e-13
2.46867e-13
2.46847e-13
2.46713e-13
2.46448e-13
2.46614e-13
2.46699e-13
2.46686e-13
2.46909e-13
2.47084e-13
2.47057e-13
2.47003e-13
2.47223e-13
2.47044e-13
2.46889e-13
2.46648e-13
2.46698e-13
2.46528e-13
2.46452e-13
2.46416e-13
2.46401e-13
2.45945e-13
2.45489e-13
2.45406e-13
2.45256e-13
2.45183e-13
2.44846e-13
2.44412e-13
2.44153e-13
2.43814e-13
2.43563e-13
2.43197e-13
2.43025e-13
2.42798e-13
2.42417e-13
2.4216e-13
2.41869e-13
2.4139e-13
2.40813e-13
2.40371e-13
2.40104e-13
2.39406e-13
2.39092e-13
2.38539e-13
2.37892e-13
2.37242e-13
2.36686e-13
2.36189e-13
2.35896e-13
2.35319e-13
2.348e-13
2.34173e-13
2.33644e-13
2.32772e-13
2.3232e-13
2.32045e-13
2.31453e-13
2.30847e-13
2.30326e-13
2.29807e-13
2.29175e-13
2.28546e-13
2.2794e-13
2.27211e-13
2.26617e-13
2.25785e-13
2.24786e-13
2.24091e-13
2.23676e-13
2.2305e-13
2.22189e-13
2.21535e-13
2.20578e-13
2.19556e-13
2.18957e-13
2.18121e-13
2.17347e-13
2.16234e-13
2.15357e-13
2.14492e-13
2.13376e-13
2.11979e-13
2.1085e-13
2.0997e-13
2.08915e-13
2.07778e-13
2.0705e-13
2.06293e-13
2.05148e-13
2.04049e-13
2.02908e-13
2.0174e-13
2.00707e-13
1.99484e-13
1.9845e-13
1.97435e-13
1.96525e-13
1.9534e-13
1.94335e-13
1.92971e-13
1.91782e-13
1.90809e-13
1.89347e-13
1.8837e-13
1.87064e-13
1.85877e-13
1.84931e-13
1.83681e-13
1.82374e-13
1.80779e-13
1.79536e-13
1.78297e-13
1.76936e-13
1.75931e-13
1.7467e-13
1.73167e-13
1.71788e-13
1.70212e-13
1.68915e-13
1.67545e-13
1.66175e-13
1.64386e-13
1.62559e-13
1.61301e-13
1.59938e-13
1.58512e-13
1.56999e-13
1.55174e-13
1.53781e-13
1.52169e-13
1.50402e-13
1.48909e-13
1.47308e-13
1.45886e-13
1.43892e-13
1.42167e-13
1.40503e-13
1.38948e-13
1.37566e-13
1.35582e-13
1.33509e-13
1.31861e-13
1.30539e-13
1.28887e-13
1.27015e-13
1.25589e-13
1.24218e-13
1.22437e-13
1.20799e-13
1.19082e-13
1.17251e-13
1.15424e-13
1.13507e-13
1.1182e-13
1.10019e-13
1.08131e-13
1.0611e-13
1.04058e-13
1.02553e-13
1.01021e-13
9.9105e-14
9.74333e-14
9.64668e-14
9.96988e-14
1.00082e-13
1.01234e-13
1.02977e-13
1.04558e-13
1.06104e-13
1.07609e-13
1.09587e-13
1.11311e-13
1.13073e-13
1.14507e-13
1.16331e-13
1.17984e-13
1.19538e-13
1.21018e-13
1.22431e-13
1.24002e-13
1.25581e-13
1.27073e-13
1.2856e-13
1.30197e-13
1.31719e-13
1.33079e-13
1.34409e-13
1.35609e-13
1.36776e-13
1.37792e-13
1.38846e-13
1.40007e-13
1.41087e-13
1.4209e-13
1.43055e-13
1.44107e-13
1.45029e-13
1.46122e-13
1.46977e-13
1.47998e-13
1.48909e-13
1.49775e-13
1.50736e-13
1.51742e-13
1.52805e-13
1.53663e-13
1.54508e-13
1.55639e-13
1.56419e-13
1.57331e-13
1.58634e-13
1.60115e-13
1.61058e-13
1.62299e-13
1.63664e-13
1.64558e-13
1.65779e-13
1.66885e-13
1.67959e-13
1.69412e-13
1.70571e-13
1.71474e-13
1.72609e-13
1.73798e-13
1.74924e-13
1.76142e-13
1.77339e-13
1.78501e-13
1.79806e-13
1.81063e-13
1.82151e-13
1.83523e-13
1.8499e-13
1.86371e-13
1.87725e-13
1.88995e-13
1.90358e-13
1.91524e-13
1.92803e-13
1.9392e-13
1.952e-13
1.96561e-13
1.97971e-13
1.98701e-13
1.99852e-13
2.00924e-13
2.02121e-13
2.03506e-13
2.04703e-13
2.05956e-13
2.07031e-13
2.0782e-13
2.08914e-13
2.09971e-13
2.10852e-13
2.11986e-13
2.13036e-13
2.13814e-13
2.14633e-13
2.15739e-13
2.16708e-13
2.17473e-13
2.18325e-13
2.19541e-13
2.20551e-13
2.21507e-13
2.22503e-13
2.23477e-13
2.24402e-13
2.25132e-13
2.25829e-13
2.26611e-13
2.27452e-13
2.2828e-13
2.29169e-13
2.30217e-13
2.31e-13
2.31411e-13
2.32044e-13
2.32786e-13
2.33512e-13
2.34069e-13
2.34656e-13
2.35324e-13
2.35813e-13
2.36433e-13
2.3719e-13
2.37887e-13
2.38363e-13
2.38967e-13
2.39477e-13
2.39736e-13
2.40108e-13
2.40833e-13
2.41422e-13
2.4205e-13
2.42648e-13
2.43223e-13
2.43453e-13
2.43924e-13
2.44546e-13
2.44712e-13
2.44876e-13
2.45301e-13
2.45729e-13
2.46023e-13
2.46294e-13
2.46488e-13
2.46601e-13
2.46718e-13
2.46997e-13
2.47012e-13
2.47063e-13
2.47127e-13
2.47053e-13
2.47203e-13
2.47309e-13
2.47063e-13
2.47044e-13
2.47073e-13
2.46919e-13
2.46883e-13
2.46826e-13
2.46528e-13
2.46424e-13
2.4664e-13
2.46759e-13
2.46545e-13
2.46805e-13
2.47047e-13
2.47111e-13
2.47103e-13
2.47112e-13
2.46994e-13
2.46814e-13
2.46815e-13
2.46794e-13
2.46574e-13
2.46574e-13
2.46445e-13
2.46224e-13
2.4605e-13
2.45792e-13
2.45285e-13
2.45113e-13
2.45081e-13
2.44904e-13
2.44599e-13
2.4421e-13
2.4378e-13
2.43673e-13
2.4348e-13
2.42989e-13
2.42748e-13
2.42661e-13
2.42081e-13
2.41743e-13
2.41399e-13
2.40914e-13
2.40491e-13
2.39844e-13
2.39418e-13
2.39327e-13
2.38603e-13
2.37835e-13
2.37374e-13
2.3671e-13
2.36279e-13
2.36011e-13
2.35419e-13
2.34699e-13
2.34076e-13
2.33632e-13
2.33081e-13
2.32438e-13
2.32017e-13
2.31468e-13
2.30979e-13
2.30509e-13
2.29739e-13
2.29257e-13
2.28605e-13
2.28054e-13
2.27485e-13
2.2667e-13
2.2599e-13
2.24787e-13
2.23924e-13
2.23699e-13
2.23155e-13
2.22143e-13
2.21362e-13
2.20529e-13
2.19719e-13
2.18994e-13
2.18241e-13
2.1735e-13
2.1633e-13
2.15326e-13
2.14548e-13
2.13636e-13
2.12161e-13
2.10695e-13
2.09708e-13
2.08985e-13
2.08094e-13
2.07068e-13
2.06221e-13
2.05196e-13
2.04162e-13
2.02967e-13
2.01915e-13
2.00799e-13
1.99705e-13
1.98436e-13
1.9725e-13
1.96515e-13
1.95582e-13
1.94523e-13
1.9321e-13
1.91925e-13
1.90894e-13
1.89577e-13
1.88395e-13
1.87112e-13
1.85893e-13
1.84883e-13
1.83806e-13
1.82417e-13
1.80996e-13
1.79645e-13
1.78229e-13
1.7705e-13
1.76196e-13
1.74752e-13
1.73398e-13
1.71953e-13
1.70291e-13
1.69038e-13
1.6757e-13
1.66077e-13
1.64532e-13
1.62699e-13
1.61354e-13
1.60109e-13
1.58625e-13
1.5706e-13
1.55381e-13
1.54023e-13
1.52426e-13
1.50567e-13
1.49034e-13
1.47401e-13
1.45781e-13
1.44017e-13
1.42323e-13
1.40764e-13
1.39189e-13
1.37711e-13
1.35837e-13
1.3388e-13
1.32217e-13
1.30689e-13
1.29074e-13
1.27561e-13
1.25892e-13
1.24281e-13
1.22802e-13
1.21364e-13
1.19834e-13
1.18117e-13
1.16103e-13
1.14157e-13
1.12704e-13
1.11137e-13
1.0938e-13
1.07651e-13
1.0583e-13
1.04458e-13
1.03258e-13
1.01829e-13
1.00542e-13
9.99601e-14
1.03073e-13
1.03273e-13
1.04044e-13
1.05374e-13
1.06837e-13
1.08018e-13
1.09209e-13
1.10978e-13
1.1251e-13
1.14061e-13
1.15712e-13
1.17447e-13
1.18982e-13
1.20298e-13
1.21862e-13
1.23184e-13
1.24645e-13
1.25942e-13
1.27645e-13
1.29087e-13
1.30541e-13
1.32146e-13
1.3338e-13
1.34914e-13
1.35862e-13
1.3709e-13
1.38156e-13
1.39379e-13
1.40385e-13
1.41119e-13
1.42327e-13
1.43377e-13
1.44338e-13
1.45183e-13
1.46242e-13
1.47037e-13
1.4796e-13
1.48919e-13
1.49862e-13
1.50967e-13
1.51905e-13
1.52672e-13
1.53762e-13
1.54554e-13
1.55534e-13
1.56308e-13
1.57262e-13
1.58633e-13
1.60233e-13
1.61206e-13
1.62305e-13
1.63675e-13
1.64641e-13
1.65723e-13
1.66888e-13
1.67992e-13
1.69268e-13
1.70293e-13
1.71662e-13
1.72427e-13
1.73682e-13
1.74944e-13
1.76184e-13
1.77577e-13
1.7869e-13
1.79733e-13
1.80917e-13
1.82037e-13
1.83631e-13
1.85266e-13
1.86559e-13
1.87919e-13
1.89085e-13
1.90243e-13
1.91421e-13
1.92806e-13
1.94022e-13
1.95319e-13
1.96416e-13
1.97764e-13
1.98811e-13
2.00091e-13
2.00847e-13
2.02194e-13
2.0367e-13
2.04655e-13
2.05866e-13
2.07268e-13
2.07986e-13
2.09338e-13
2.101e-13
2.10934e-13
2.11869e-13
2.12918e-13
2.13786e-13
2.14716e-13
2.1578e-13
2.16853e-13
2.17641e-13
2.18416e-13
2.19656e-13
2.20778e-13
2.2167e-13
2.225e-13
2.23413e-13
2.24396e-13
2.25219e-13
2.25678e-13
2.2658e-13
2.27647e-13
2.28461e-13
2.29082e-13
2.30292e-13
2.30971e-13
2.31557e-13
2.32295e-13
2.32901e-13
2.33651e-13
2.34419e-13
2.34726e-13
2.35204e-13
2.3572e-13
2.36358e-13
2.37437e-13
2.38115e-13
2.38373e-13
2.38754e-13
2.39305e-13
2.39924e-13
2.40511e-13
2.40967e-13
2.41533e-13
2.4209e-13
2.4292e-13
2.43372e-13
2.43535e-13
2.44014e-13
2.44391e-13
2.44827e-13
2.44998e-13
2.45377e-13
2.45888e-13
2.46297e-13
2.46528e-13
2.46532e-13
2.4666e-13
2.4682e-13
2.46953e-13
2.47098e-13
2.47281e-13
2.47216e-13
2.47134e-13
2.47294e-13
2.47318e-13
2.47266e-13
2.47274e-13
2.47058e-13
2.46994e-13
2.47063e-13
2.46651e-13
2.46234e-13
2.46537e-13
2.4683e-13
2.46667e-13
2.46411e-13
2.46587e-13
2.47016e-13
2.47239e-13
2.46996e-13
2.46904e-13
2.4698e-13
2.46918e-13
2.46878e-13
2.46863e-13
2.46682e-13
2.46622e-13
2.46718e-13
2.46283e-13
2.45926e-13
2.45955e-13
2.45313e-13
2.45043e-13
2.44944e-13
2.4493e-13
2.44792e-13
2.44336e-13
2.4375e-13
2.43698e-13
2.43659e-13
2.4322e-13
2.42716e-13
2.42745e-13
2.42225e-13
2.41849e-13
2.41445e-13
2.40897e-13
2.40267e-13
2.39541e-13
2.39315e-13
2.39459e-13
2.38717e-13
2.37867e-13
2.37405e-13
2.36697e-13
2.36536e-13
2.35873e-13
2.35392e-13
2.34726e-13
2.3417e-13
2.33693e-13
2.3311e-13
2.32452e-13
2.31824e-13
2.31505e-13
2.31065e-13
2.30586e-13
2.30006e-13
2.2944e-13
2.28912e-13
2.28034e-13
2.27634e-13
2.26655e-13
2.26e-13
2.24831e-13
2.23843e-13
2.2354e-13
2.231e-13
2.22478e-13
2.21405e-13
2.20567e-13
2.1975e-13
2.19019e-13
2.18244e-13
2.17506e-13
2.16356e-13
2.15459e-13
2.14473e-13
2.13673e-13
2.12422e-13
2.11085e-13
2.0966e-13
2.08971e-13
2.08351e-13
2.07275e-13
2.06125e-13
2.05228e-13
2.04141e-13
2.03207e-13
2.02178e-13
2.00729e-13
1.99654e-13
1.98369e-13
1.97284e-13
1.96638e-13
1.96013e-13
1.94751e-13
1.93439e-13
1.92195e-13
1.90766e-13
1.8964e-13
1.88392e-13
1.87357e-13
1.86354e-13
1.84943e-13
1.83625e-13
1.82547e-13
1.81185e-13
1.79655e-13
1.78277e-13
1.7719e-13
1.763e-13
1.74955e-13
1.73448e-13
1.72077e-13
1.70685e-13
1.69096e-13
1.67617e-13
1.65988e-13
1.64517e-13
1.62944e-13
1.61631e-13
1.60332e-13
1.58808e-13
1.57203e-13
1.55891e-13
1.54314e-13
1.52519e-13
1.50607e-13
1.48965e-13
1.47467e-13
1.45803e-13
1.44145e-13
1.42588e-13
1.40879e-13
1.39601e-13
1.38067e-13
1.3611e-13
1.34129e-13
1.3248e-13
1.31186e-13
1.29496e-13
1.27965e-13
1.26323e-13
1.24678e-13
1.23341e-13
1.21762e-13
1.20595e-13
1.18969e-13
1.17065e-13
1.15118e-13
1.13784e-13
1.12356e-13
1.10675e-13
1.0926e-13
1.07554e-13
1.06558e-13
1.05455e-13
1.04337e-13
1.03478e-13
1.03133e-13
1.05693e-13
1.05854e-13
1.06757e-13
1.08078e-13
1.08985e-13
1.10125e-13
1.11347e-13
1.1263e-13
1.13915e-13
1.15131e-13
1.16929e-13
1.18474e-13
1.19964e-13
1.21355e-13
1.22729e-13
1.23988e-13
1.25319e-13
1.26634e-13
1.28207e-13
1.29783e-13
1.31236e-13
1.32907e-13
1.33963e-13
1.35198e-13
1.36237e-13
1.37542e-13
1.38744e-13
1.39548e-13
1.40576e-13
1.41514e-13
1.42397e-13
1.43632e-13
1.44521e-13
1.4519e-13
1.46279e-13
1.47303e-13
1.47896e-13
1.49063e-13
1.50085e-13
1.51036e-13
1.52097e-13
1.52745e-13
1.53665e-13
1.54504e-13
1.55501e-13
1.56241e-13
1.57406e-13
1.58869e-13
1.60001e-13
1.61258e-13
1.62509e-13
1.63802e-13
1.64595e-13
1.65769e-13
1.66906e-13
1.67859e-13
1.69296e-13
1.70289e-13
1.7183e-13
1.72485e-13
1.73682e-13
1.7503e-13
1.76373e-13
1.77855e-13
1.78692e-13
1.79674e-13
1.80926e-13
1.82023e-13
1.83513e-13
1.85209e-13
1.86855e-13
1.87857e-13
1.89041e-13
1.90283e-13
1.91435e-13
1.92999e-13
1.94304e-13
1.95429e-13
1.9658e-13
1.97753e-13
1.98816e-13
2.00338e-13
2.01069e-13
2.02e-13
2.03779e-13
2.04771e-13
2.05825e-13
2.07206e-13
2.08297e-13
2.09447e-13
2.10122e-13
2.11201e-13
2.11977e-13
2.12997e-13
2.14053e-13
2.15084e-13
2.15862e-13
2.16871e-13
2.17751e-13
2.18647e-13
2.19751e-13
2.20939e-13
2.21876e-13
2.22785e-13
2.23612e-13
2.24409e-13
2.25098e-13
2.25802e-13
2.26596e-13
2.2742e-13
2.28631e-13
2.29536e-13
2.30399e-13
2.30903e-13
2.31664e-13
2.32536e-13
2.33343e-13
2.33681e-13
2.34636e-13
2.34824e-13
2.35298e-13
2.35792e-13
2.36705e-13
2.37333e-13
2.38047e-13
2.38357e-13
2.39083e-13
2.39535e-13
2.39993e-13
2.40589e-13
2.41229e-13
2.41887e-13
2.42022e-13
2.42894e-13
2.43715e-13
2.43794e-13
2.43852e-13
2.44675e-13
2.45007e-13
2.45177e-13
2.45514e-13
2.46015e-13
2.46585e-13
2.46578e-13
2.46543e-13
2.46761e-13
2.47175e-13
2.47161e-13
2.47093e-13
2.47493e-13
2.47331e-13
2.47251e-13
2.47374e-13
2.47218e-13
2.47228e-13
2.47571e-13
2.47211e-13
2.46907e-13
2.46856e-13
2.4673e-13
2.46382e-13
2.46409e-13
2.46797e-13
2.46581e-13
2.46462e-13
2.46557e-13
2.46977e-13
2.47183e-13
2.46923e-13
2.46917e-13
2.47012e-13
2.46675e-13
2.46863e-13
2.46918e-13
2.46633e-13
2.46642e-13
2.46831e-13
2.46622e-13
2.46214e-13
2.45715e-13
2.45227e-13
2.45041e-13
2.448e-13
2.44986e-13
2.44873e-13
2.44306e-13
2.44168e-13
2.43693e-13
2.43707e-13
2.43656e-13
2.43067e-13
2.42718e-13
2.42445e-13
2.41928e-13
2.41374e-13
2.40726e-13
2.40041e-13
2.39854e-13
2.39421e-13
2.39399e-13
2.38753e-13
2.3789e-13
2.37265e-13
2.36954e-13
2.36568e-13
2.36188e-13
2.35549e-13