/*--------------------------------*- C++ -*----------------------------------*\
| =========                 |                                                 |
| \\      /  F ield         | OpenFOAM: The Open Source CFD Toolbox           |
|  \\    /   O peration     | Version:  2112                                  |
|   \\  /    A nd           | Website:  www.openfoam.com                      |
|    \\/     M anipulation  |                                                 |
\*---------------------------------------------------------------------------*/
FoamFile
{
    version     2.0;
    format      ascii;
    arch        "LSB;label=32;scalar=64";
    class       volScalarField;
    location    "10";
    object      p;
}
// * * * * * * * * * * * * * * * * * * * * * * * * * * * * * * * * * * * * * //

dimensions      [0 2 -2 0 0 0 0];

internalField   nonuniform List<scalar> 
25600
(
6.81007e-14
1.28831e-13
1.38424e-13
1.40236e-13
1.40538e-13
1.40617e-13
1.39876e-13
1.38216e-13
1.3719e-13
1.36564e-13
1.36054e-13
1.35573e-13
1.34447e-13
1.34994e-13
1.36335e-13
1.3532e-13
1.35626e-13
1.36551e-13
1.36975e-13
1.37305e-13
1.37696e-13
1.38693e-13
1.40122e-13
1.41466e-13
1.42332e-13
1.41832e-13
1.41503e-13
1.42885e-13
1.43492e-13
1.43243e-13
1.41154e-13
1.39335e-13
1.39728e-13
1.40571e-13
1.40509e-13
1.40366e-13
1.39595e-13
1.40326e-13
1.40091e-13
1.38266e-13
1.38406e-13
1.37956e-13
1.38049e-13
1.3931e-13
1.39467e-13
1.4085e-13
1.42113e-13
1.43387e-13
1.44605e-13
1.45355e-13
1.45724e-13
1.43971e-13
1.4476e-13
1.45409e-13
1.44698e-13
1.46197e-13
1.45162e-13
1.45606e-13
1.45381e-13
1.4534e-13
1.48275e-13
1.46868e-13
1.48708e-13
1.5017e-13
1.50682e-13
1.54781e-13
1.56305e-13
1.59136e-13
1.61953e-13
1.64802e-13
1.70093e-13
1.74001e-13
1.78365e-13
1.81065e-13
1.822e-13
1.88082e-13
1.91753e-13
1.9319e-13
1.97544e-13
1.99786e-13
2.0492e-13
2.09108e-13
2.08763e-13
2.10162e-13
2.12452e-13
2.16778e-13
2.20835e-13
2.22677e-13
2.23974e-13
2.2625e-13
2.33604e-13
2.38776e-13
2.38722e-13
2.39465e-13
2.44117e-13
2.48993e-13
2.49805e-13
2.51865e-13
2.52494e-13
2.55183e-13
2.60403e-13
2.60725e-13
2.63411e-13
2.64231e-13
2.65732e-13
2.68617e-13
2.72606e-13
2.73058e-13
2.72689e-13
2.75025e-13
2.77719e-13
2.84017e-13
2.80625e-13
2.7905e-13
2.84315e-13
2.88563e-13
2.91976e-13
2.89393e-13
2.87473e-13
2.90788e-13
2.95111e-13
2.97311e-13
2.93592e-13
2.89024e-13
2.9228e-13
2.96848e-13
2.97546e-13
2.91563e-13
2.86683e-13
2.89697e-13
2.91543e-13
2.90964e-13
2.86102e-13
2.83231e-13
2.85879e-13
2.86326e-13
2.86726e-13
2.83165e-13
2.78383e-13
2.7903e-13
2.78676e-13
2.77791e-13
2.73396e-13
2.71886e-13
2.73746e-13
2.73848e-13
2.76129e-13
2.74345e-13
2.7322e-13
2.72906e-13
2.72299e-13
2.77047e-13
2.76506e-13
2.72742e-13
2.72499e-13
2.73131e-13
2.77499e-13
2.78948e-13
2.76264e-13
2.76224e-13
2.76569e-13
2.82568e-13
2.80802e-13
2.7739e-13
2.82172e-13
2.79923e-13
2.82376e-13
2.84258e-13
2.81453e-13
2.83987e-13
2.85877e-13
2.9023e-13
2.88638e-13
2.88409e-13
2.9166e-13
2.91824e-13
2.9212e-13
2.87439e-13
2.91291e-13
2.92121e-13
2.90122e-13
2.96638e-13
2.92427e-13
2.89953e-13
2.91587e-13
2.88455e-13
2.94238e-13
2.9218e-13
2.90002e-13
2.96101e-13
2.93103e-13
2.94988e-13
2.96477e-13
2.9192e-13
2.96027e-13
2.97632e-13
2.99942e-13
2.98453e-13
2.94797e-13
3.02247e-13
3.01162e-13
3.02842e-13
3.00463e-13
2.97391e-13
3.04578e-13
3.06153e-13
3.0394e-13
2.96932e-13
2.93859e-13
2.97045e-13
2.97748e-13
2.94577e-13
2.83552e-13
2.89531e-13
2.94562e-13
2.80577e-13
2.84052e-13
2.86789e-13
2.85653e-13
2.83998e-13
2.71189e-13
2.76826e-13
2.82743e-13
2.81549e-13
2.80836e-13
2.68215e-13
2.74363e-13
2.77907e-13
2.73605e-13
2.74903e-13
2.66655e-13
2.7093e-13
2.70774e-13
2.67457e-13
2.72308e-13
2.63973e-13
2.63136e-13
2.6196e-13
2.6232e-13
2.69043e-13
2.60665e-13
2.63975e-13
2.6222e-13
2.60174e-13
2.69702e-13
2.60584e-13
2.5549e-13
2.53904e-13
2.57051e-13
2.62729e-13
2.51487e-13
2.54299e-13
2.5616e-13
2.52561e-13
2.51815e-13
2.38618e-13
2.43321e-13
2.43438e-13
2.38815e-13
2.43611e-13
2.34215e-13
2.34404e-13
2.34753e-13
2.32426e-13
2.33435e-13
2.23364e-13
2.26204e-13
2.29316e-13
2.28916e-13
2.30337e-13
2.20897e-13
2.21096e-13
2.20862e-13
2.20456e-13
2.2181e-13
2.12592e-13
2.1244e-13
2.11832e-13
2.06498e-13
2.08907e-13
2.01263e-13
1.98922e-13
1.99338e-13
1.97162e-13
1.98997e-13
1.91387e-13
1.88676e-13
1.92257e-13
1.94605e-13
1.92764e-13
1.83804e-13
1.85688e-13
1.88334e-13
1.87177e-13
1.83312e-13
1.75606e-13
1.77659e-13
1.77821e-13
1.77122e-13
1.72184e-13
1.63017e-13
1.63998e-13
1.64596e-13
1.6836e-13
1.65683e-13
1.56887e-13
1.55364e-13
1.53025e-13
1.57518e-13
1.53631e-13
1.51391e-13
1.5441e-13
1.48418e-13
1.52078e-13
1.53328e-13
1.47864e-13
1.49078e-13
1.43203e-13
1.42891e-13
1.3385e-13
1.08773e-13
1.31191e-13
1.37438e-13
1.39827e-13
1.40275e-13
1.40321e-13
1.3957e-13
1.3801e-13
1.37204e-13
1.36684e-13
1.36068e-13
1.35492e-13
1.34583e-13
1.35001e-13
1.36212e-13
1.35488e-13
1.35713e-13
1.36752e-13
1.36885e-13
1.3722e-13
1.37931e-13
1.38947e-13
1.4004e-13
1.41043e-13
1.41709e-13
1.41702e-13
1.42123e-13
1.42786e-13
1.4283e-13
1.43152e-13
1.41294e-13
1.39554e-13
1.39683e-13
1.40386e-13
1.40474e-13
1.40552e-13
1.39701e-13
1.39933e-13
1.39829e-13
1.38673e-13
1.38207e-13
1.38028e-13
1.37929e-13
1.38938e-13
1.40039e-13
1.4065e-13
1.42092e-13
1.43202e-13
1.44497e-13
1.45302e-13
1.44973e-13
1.44376e-13
1.44744e-13
1.45522e-13
1.4532e-13
1.4535e-13
1.44847e-13
1.45504e-13
1.45431e-13
1.4583e-13
1.47663e-13
1.46925e-13
1.48606e-13
1.50329e-13
1.51125e-13
1.54716e-13
1.56239e-13
1.59042e-13
1.6229e-13
1.6511e-13
1.69947e-13
1.73805e-13
1.78442e-13
1.80855e-13
1.82757e-13
1.87518e-13
1.90884e-13
1.93572e-13
1.97558e-13
2.00354e-13
2.04361e-13
2.0791e-13
2.08945e-13
2.1076e-13
2.1337e-13
2.16918e-13
2.19396e-13
2.2208e-13
2.25268e-13
2.27717e-13
2.33247e-13
2.37453e-13
2.38637e-13
2.40806e-13
2.44288e-13
2.47648e-13
2.49708e-13
2.52034e-13
2.54094e-13
2.55684e-13
2.58378e-13
2.60576e-13
2.63122e-13
2.65308e-13
2.66236e-13
2.68142e-13
2.71967e-13
2.73909e-13
2.73665e-13
2.74797e-13
2.77975e-13
2.82077e-13
2.81417e-13
2.80986e-13
2.843e-13
2.87647e-13
2.9102e-13
2.90286e-13
2.8831e-13
2.90527e-13
2.94704e-13
2.96324e-13
2.9363e-13
2.90424e-13
2.92736e-13
2.96071e-13
2.96557e-13
2.91706e-13
2.8805e-13
2.8997e-13
2.90825e-13
2.9029e-13
2.86886e-13
2.83735e-13
2.85132e-13
2.86102e-13
2.86517e-13
2.83322e-13
2.78607e-13
2.78901e-13
2.78515e-13
2.77456e-13
2.73322e-13
2.72108e-13
2.73548e-13
2.74163e-13
2.75415e-13
2.73458e-13
2.73249e-13
2.73846e-13
2.73573e-13
2.75539e-13
2.74812e-13
2.73366e-13
2.73481e-13
2.73944e-13
2.76938e-13
2.78213e-13
2.76935e-13
2.76849e-13
2.77916e-13
2.8142e-13
2.80404e-13
2.78369e-13
2.81217e-13
2.81079e-13
2.8184e-13
2.83147e-13
2.8303e-13
2.84558e-13
2.8704e-13
2.89029e-13
2.8862e-13
2.88102e-13
2.90486e-13
2.92831e-13
2.9174e-13
2.89492e-13
2.90694e-13
2.90184e-13
2.92241e-13
2.95468e-13
2.92132e-13
2.89878e-13
2.90736e-13
2.91094e-13
2.93169e-13
2.92092e-13
2.91012e-13
2.93746e-13
2.93959e-13
2.95116e-13
2.95637e-13
2.94231e-13
2.95083e-13
2.97379e-13
2.98684e-13
2.98903e-13
2.9845e-13
3.00072e-13
3.00359e-13
3.01661e-13
3.01033e-13
3.0135e-13
3.02796e-13
3.03478e-13
3.03112e-13
2.9949e-13
2.9686e-13
2.95575e-13
2.94508e-13
2.93584e-13
2.87406e-13
2.8977e-13
2.913e-13
2.84163e-13
2.85853e-13
2.83743e-13
2.83428e-13
2.8309e-13
2.75261e-13
2.78763e-13
2.79888e-13
2.79324e-13
2.79748e-13
2.72298e-13
2.75092e-13
2.76895e-13
2.73854e-13
2.7316e-13
2.68169e-13
2.70735e-13
2.70356e-13
2.68382e-13
2.70662e-13
2.65808e-13
2.64252e-13
2.60701e-13
2.62058e-13
2.67551e-13
2.62771e-13
2.64496e-13
2.61939e-13
2.60803e-13
2.67046e-13
2.60181e-13
2.57214e-13
2.55617e-13
2.56714e-13
2.60187e-13
2.52393e-13
2.54487e-13
2.55882e-13
2.5323e-13
2.49612e-13
2.39742e-13
2.43873e-13
2.43716e-13
2.39478e-13
2.41173e-13
2.35325e-13
2.3559e-13
2.34387e-13
2.32567e-13
2.3162e-13
2.24575e-13
2.28084e-13
2.28654e-13
2.27712e-13
2.2911e-13
2.21931e-13
2.22078e-13
2.20249e-13
2.19894e-13
2.21353e-13
2.12983e-13
2.13048e-13
2.10086e-13
2.07311e-13
2.09227e-13
2.01292e-13
2.00308e-13
1.98343e-13
1.96688e-13
1.98245e-13
1.90862e-13
1.91016e-13
1.93247e-13
1.92985e-13
1.91355e-13
1.85064e-13
1.871e-13
1.87988e-13
1.84509e-13
1.8346e-13
1.7816e-13
1.7698e-13
1.78621e-13
1.74517e-13
1.72043e-13
1.65995e-13
1.63681e-13
1.65618e-13
1.66765e-13
1.63865e-13
1.56409e-13
1.55842e-13
1.55613e-13
1.56376e-13
1.53263e-13
1.5082e-13
1.53442e-13
1.50504e-13
1.50593e-13
1.5184e-13
1.49382e-13
1.48343e-13
1.43252e-13
1.41461e-13
1.35039e-13
1.22726e-13
1.33087e-13
1.37536e-13
1.39429e-13
1.39955e-13
1.40039e-13
1.39372e-13
1.38071e-13
1.36948e-13
1.36535e-13
1.36025e-13
1.35207e-13
1.34541e-13
1.35064e-13
1.36081e-13
1.35401e-13
1.35845e-13
1.36939e-13
1.36971e-13
1.37249e-13
1.38288e-13
1.39105e-13
1.39538e-13
1.40624e-13
1.41438e-13
1.41652e-13
1.42275e-13
1.42659e-13
1.42358e-13
1.42917e-13
1.41607e-13
1.39718e-13
1.39612e-13
1.4021e-13
1.40393e-13
1.40505e-13
1.39743e-13
1.39637e-13
1.39616e-13
1.39126e-13
1.38138e-13
1.3796e-13
1.38093e-13
1.38857e-13
1.40083e-13
1.40484e-13
1.42002e-13
1.43008e-13
1.44525e-13
1.45219e-13
1.44306e-13
1.44228e-13
1.44688e-13
1.45878e-13
1.45581e-13
1.4486e-13
1.44313e-13
1.45583e-13
1.45342e-13
1.46066e-13
1.47409e-13
1.47081e-13
1.4847e-13
1.50171e-13
1.51413e-13
1.54714e-13
1.56184e-13
1.59152e-13
1.62531e-13
1.65147e-13
1.69888e-13
1.73871e-13
1.78367e-13
1.8097e-13
1.83134e-13
1.8692e-13
1.89906e-13
1.93943e-13
1.977e-13
2.00591e-13
2.04235e-13
2.07161e-13
2.09036e-13
2.11026e-13
2.13501e-13
2.17126e-13
2.18904e-13
2.21565e-13
2.25695e-13
2.28835e-13
2.32988e-13
2.3697e-13
2.38807e-13
2.41439e-13
2.44382e-13
2.47101e-13
2.49649e-13
2.52309e-13
2.54978e-13
2.55703e-13
2.57434e-13
2.60389e-13
2.62879e-13
2.65788e-13
2.66575e-13
2.67952e-13
2.71589e-13
2.7425e-13
2.74289e-13
2.74922e-13
2.77992e-13
2.80776e-13
2.81928e-13
2.82459e-13
2.84459e-13
2.8748e-13
2.90505e-13
2.90426e-13
2.89111e-13
2.90505e-13
2.94005e-13
2.95411e-13
2.93826e-13
2.91752e-13
2.93496e-13
2.95755e-13
2.95083e-13
2.91666e-13
2.89475e-13
2.90318e-13
2.90369e-13
2.89267e-13
2.87455e-13
2.84742e-13
2.84692e-13
2.85667e-13
2.86329e-13
2.8309e-13
2.79315e-13
2.78939e-13
2.78149e-13
2.76968e-13
2.73039e-13
2.72226e-13
2.73708e-13
2.73664e-13
2.74793e-13
2.73759e-13
2.73264e-13
2.74238e-13
2.74667e-13
2.74474e-13
2.73321e-13
2.73658e-13
2.73915e-13
2.74966e-13
2.76797e-13
2.77565e-13
2.77423e-13
2.7737e-13
2.78944e-13
2.80713e-13
2.80062e-13
2.78892e-13
2.80702e-13
2.81766e-13
2.81842e-13
2.82496e-13
2.83994e-13
2.8532e-13
2.87166e-13
2.88629e-13
2.8857e-13
2.87801e-13
2.90601e-13
2.92145e-13
2.91306e-13
2.91613e-13
2.90659e-13
2.89314e-13
2.92683e-13
2.9438e-13
2.91802e-13
2.90162e-13
2.90466e-13
2.92426e-13
2.92618e-13
2.91614e-13
2.91713e-13
2.92788e-13
2.94194e-13
2.95162e-13
2.95688e-13
2.95334e-13
2.94513e-13
2.97012e-13
2.98219e-13
2.99279e-13
2.99859e-13
2.99023e-13
2.99914e-13
3.01338e-13
3.01678e-13
3.03234e-13
3.02296e-13
3.02136e-13
3.02849e-13
3.00717e-13
2.98139e-13
2.95033e-13
2.92828e-13
2.93148e-13
2.90012e-13
2.90158e-13
2.89614e-13
2.86014e-13
2.86284e-13
2.82034e-13
2.82285e-13
2.82234e-13
2.77833e-13
2.79875e-13
2.78146e-13
2.77961e-13
2.7893e-13
2.75245e-13
2.75719e-13
2.76072e-13
2.73832e-13
2.72173e-13
2.69359e-13
2.70686e-13
2.70448e-13
2.6886e-13
2.69467e-13
2.66609e-13
2.64774e-13
2.60898e-13
2.62323e-13
2.66345e-13
2.63443e-13
2.64517e-13
2.62312e-13
2.61629e-13
2.64688e-13
2.60021e-13
2.5864e-13
2.56814e-13
2.56301e-13
2.58505e-13
2.54212e-13
2.5457e-13
2.54882e-13
2.52608e-13
2.47879e-13
2.41952e-13
2.44612e-13
2.42883e-13
2.39615e-13
2.39615e-13
2.37016e-13
2.36609e-13
2.33129e-13
2.32044e-13
2.30675e-13
2.26015e-13
2.29465e-13
2.28209e-13
2.2719e-13
2.28144e-13
2.22105e-13
2.22286e-13
2.20785e-13
2.19349e-13
2.20459e-13
2.13274e-13
2.13625e-13
2.0965e-13
2.07897e-13
2.0885e-13
2.0134e-13
2.01191e-13
1.98701e-13
1.95995e-13
1.97216e-13
1.91096e-13
1.92357e-13
1.94456e-13
1.91658e-13
1.90449e-13
1.86273e-13
1.8751e-13
1.87018e-13
1.83858e-13
1.84206e-13
1.79291e-13
1.76802e-13
1.78307e-13
1.73538e-13
1.71787e-13
1.67927e-13
1.64504e-13
1.65943e-13
1.65507e-13
1.62217e-13
1.55998e-13
1.56495e-13
1.56991e-13
1.55171e-13
1.53336e-13
1.50009e-13
1.52711e-13
1.52174e-13
1.49268e-13
1.51385e-13
1.49814e-13
1.47323e-13
1.43691e-13
1.41146e-13
1.35726e-13
1.28536e-13
1.34413e-13
1.38175e-13
1.39513e-13
1.39744e-13
1.39659e-13
1.39254e-13
1.37871e-13
1.36536e-13
1.35994e-13
1.35773e-13
1.34987e-13
1.34311e-13
1.34936e-13
1.35757e-13
1.35672e-13
1.35841e-13
1.37201e-13
1.37312e-13
1.36588e-13
1.38641e-13
1.39154e-13
1.3919e-13
1.40631e-13
1.41189e-13
1.41667e-13
1.42448e-13
1.42785e-13
1.41835e-13
1.42804e-13
1.41362e-13
1.39937e-13
1.39836e-13
1.40074e-13
1.4033e-13
1.40005e-13
1.39466e-13
1.39926e-13
1.39743e-13
1.38947e-13
1.38154e-13
1.3785e-13
1.38232e-13
1.39127e-13
1.39896e-13
1.4056e-13
1.41957e-13
1.42821e-13
1.44626e-13
1.45108e-13
1.44249e-13
1.4354e-13
1.44592e-13
1.4588e-13
1.45801e-13
1.44618e-13
1.43947e-13
1.45387e-13
1.45226e-13
1.46194e-13
1.4749e-13
1.47114e-13
1.48399e-13
1.49842e-13
1.51297e-13
1.54905e-13
1.56709e-13
1.5892e-13
1.62553e-13
1.65264e-13
1.69563e-13
1.73739e-13
1.7815e-13
1.81151e-13
1.83406e-13
1.87084e-13
1.89523e-13
1.93753e-13
1.97263e-13
2.01316e-13
2.03889e-13
2.06509e-13
2.09487e-13
2.10929e-13
2.13362e-13
2.171e-13
2.20028e-13
2.21337e-13
2.25205e-13
2.29091e-13
2.32649e-13
2.36854e-13
2.38767e-13
2.41501e-13
2.44396e-13
2.47405e-13
2.49694e-13
2.53077e-13
2.55058e-13
2.55611e-13
2.57082e-13
2.60005e-13
2.63073e-13
2.66136e-13
2.66927e-13
2.67944e-13
2.70956e-13
2.74019e-13
2.74516e-13
2.75461e-13
2.77765e-13
2.80154e-13
2.8207e-13
2.82735e-13
2.84961e-13
2.8817e-13
2.89779e-13
2.89749e-13
2.90292e-13
2.91348e-13
2.93139e-13
2.94162e-13
2.9484e-13
2.92795e-13
2.93752e-13
2.95978e-13
2.93818e-13
2.91337e-13
2.90637e-13
2.90411e-13
2.89888e-13
2.88679e-13
2.87867e-13
2.86103e-13
2.84895e-13
2.8491e-13
2.85526e-13
2.82925e-13
2.80895e-13
2.79529e-13
2.76916e-13
2.75077e-13
2.73316e-13
2.72446e-13
2.74052e-13
2.73548e-13
2.73579e-13
2.74082e-13
2.73831e-13
2.74566e-13
2.74614e-13
2.73769e-13
2.73524e-13
2.73894e-13
2.73436e-13
2.74889e-13
2.76459e-13
2.77641e-13
2.78364e-13
2.77746e-13
2.7938e-13
2.79792e-13
2.79587e-13
2.79688e-13
2.80915e-13
2.81955e-13
2.82002e-13
2.82472e-13
2.83643e-13
2.85416e-13
2.87307e-13
2.88782e-13
2.87868e-13
2.88101e-13
2.91946e-13
2.91516e-13
2.90939e-13
2.91563e-13
2.90714e-13
2.89962e-13
2.91858e-13
2.93952e-13
2.91986e-13
2.9096e-13
2.90138e-13
2.92282e-13
2.92854e-13
2.91093e-13
2.91616e-13
2.93484e-13
2.94198e-13
2.95155e-13
2.95582e-13
2.95643e-13
2.94634e-13
2.96329e-13
2.98399e-13
2.99642e-13
2.99392e-13
2.99304e-13
2.99663e-13
3.01165e-13
3.0245e-13
3.03273e-13
3.02091e-13
3.02808e-13
3.03046e-13
3.00734e-13
2.98053e-13
2.95801e-13
2.93355e-13
2.92781e-13
2.90826e-13
2.90299e-13
2.89124e-13
2.85871e-13
2.85449e-13
2.83137e-13
2.82242e-13
2.81213e-13
2.78807e-13
2.79751e-13
2.77933e-13
2.77772e-13
2.78392e-13
2.7693e-13
2.76087e-13
2.74234e-13
2.73391e-13
2.73058e-13
2.71416e-13
2.70589e-13
2.70301e-13
2.68636e-13
2.68283e-13
2.66669e-13
2.65449e-13
2.62682e-13
2.61843e-13
2.64879e-13
2.65255e-13
2.64317e-13
2.61375e-13
2.62152e-13
2.6402e-13
2.61042e-13
2.59058e-13
2.56787e-13
2.56415e-13
2.57388e-13
2.55128e-13
2.55023e-13
2.54759e-13
2.51467e-13
2.46312e-13
2.44406e-13
2.44697e-13
2.418e-13
2.39438e-13
2.38469e-13
2.38558e-13
2.36043e-13
2.32632e-13
2.32601e-13
2.31078e-13
2.26987e-13
2.28361e-13
2.29212e-13
2.2802e-13
2.26522e-13
2.21682e-13
2.22027e-13
2.22135e-13
2.19937e-13
2.18138e-13
2.147e-13
2.13801e-13
2.10003e-13
2.08218e-13
2.06827e-13
2.03049e-13
2.00944e-13
1.99022e-13
1.96694e-13
1.94453e-13
1.9298e-13
1.93141e-13
1.93553e-13
1.91205e-13
1.89796e-13
1.88389e-13
1.88259e-13
1.85174e-13
1.83774e-13
1.84396e-13
1.81056e-13
1.77163e-13
1.76384e-13
1.73706e-13
1.71419e-13
1.69554e-13
1.64851e-13
1.65664e-13
1.65999e-13
1.61429e-13
1.57462e-13
1.55955e-13
1.55452e-13
1.54656e-13
1.5286e-13
1.50879e-13
1.52911e-13
1.52001e-13
1.49476e-13
1.49753e-13
1.48469e-13
1.47276e-13
1.44791e-13
1.41662e-13
1.36464e-13
1.32738e-13
1.35532e-13
1.3859e-13
1.39593e-13
1.39642e-13
1.39181e-13
1.38672e-13
1.37845e-13
1.36059e-13
1.36104e-13
1.35732e-13
1.34039e-13
1.34002e-13
1.34887e-13
1.35355e-13
1.35292e-13
1.3598e-13
1.36993e-13
1.36876e-13
1.36588e-13
1.38441e-13
1.39047e-13
1.39124e-13
1.40834e-13
1.41503e-13
1.41701e-13
1.42067e-13
1.4294e-13
1.4206e-13
1.42251e-13
1.41584e-13
1.40002e-13
1.3978e-13
1.39841e-13
1.40241e-13
1.39498e-13
1.39181e-13
1.39996e-13
1.3966e-13
1.39283e-13
1.38378e-13
1.37483e-13
1.37996e-13
1.38991e-13
1.40498e-13
1.40098e-13
1.42032e-13
1.42552e-13
1.44514e-13
1.45179e-13
1.44374e-13
1.42961e-13
1.44804e-13
1.45884e-13
1.4593e-13
1.44314e-13
1.43654e-13
1.45165e-13
1.44699e-13
1.46235e-13
1.47305e-13
1.47461e-13
1.48794e-13
1.49871e-13
1.51153e-13
1.54151e-13
1.57221e-13
1.59418e-13
1.62426e-13
1.65291e-13
1.69113e-13
1.73564e-13
1.78221e-13
1.80713e-13
1.83532e-13
1.87232e-13
1.89922e-13
1.93655e-13
1.97123e-13
2.01825e-13
2.03772e-13
2.06287e-13
2.09208e-13
2.10912e-13
2.13344e-13
2.16857e-13
2.20565e-13
2.2228e-13
2.2497e-13
2.28967e-13
2.32648e-13
2.36165e-13
2.38474e-13
2.41969e-13
2.44848e-13
2.47517e-13
2.50368e-13
2.53468e-13
2.54664e-13
2.55339e-13
2.5702e-13
2.60059e-13
2.63372e-13
2.65807e-13
2.67291e-13
2.68086e-13
2.70381e-13
2.73299e-13
2.74484e-13
2.7602e-13
2.77955e-13
2.79666e-13
2.81761e-13
2.8316e-13
2.85178e-13
2.88581e-13
2.89062e-13
2.89952e-13
2.91246e-13
2.92073e-13
2.92396e-13
2.93759e-13
2.95641e-13
2.93987e-13
2.93548e-13
2.95519e-13
2.93701e-13
2.91494e-13
2.91451e-13
2.89962e-13
2.88978e-13
2.89428e-13
2.87866e-13
2.86472e-13
2.85033e-13
2.84657e-13
2.84008e-13
2.83323e-13
2.82138e-13
2.79699e-13
2.76361e-13
2.73981e-13
2.73096e-13
2.72849e-13
2.73893e-13
2.73345e-13
2.72665e-13
2.74632e-13
2.74449e-13
2.74915e-13
2.7465e-13
2.73261e-13
2.74207e-13
2.73825e-13
2.7345e-13
2.73621e-13
2.75701e-13
2.7808e-13
2.79076e-13
2.78829e-13
2.7997e-13
2.7939e-13
2.79165e-13
2.79636e-13
2.80846e-13
2.82489e-13
2.8182e-13
2.8249e-13
2.83457e-13
2.85562e-13
2.87816e-13
2.88448e-13
2.8735e-13
2.89583e-13
2.91937e-13
2.91168e-13
2.91107e-13
2.91133e-13
2.90551e-13
2.90461e-13
2.9189e-13
2.93126e-13
2.92479e-13
2.91488e-13
2.89746e-13
2.91943e-13
2.93216e-13
2.91535e-13
2.9125e-13
2.9397e-13
2.94949e-13
2.95083e-13
2.94907e-13
2.95366e-13
2.95178e-13
2.95375e-13
2.99224e-13
3.00085e-13
2.99017e-13
2.9993e-13
2.99709e-13
3.01081e-13
3.02703e-13
3.03434e-13
3.02398e-13
3.03173e-13
3.03313e-13
3.01339e-13
2.98111e-13
2.95778e-13
2.94014e-13
2.92996e-13
2.91459e-13
2.90296e-13
2.88034e-13
2.85826e-13
2.8489e-13
2.83811e-13
2.8256e-13
2.80522e-13
2.78871e-13
2.79895e-13
2.78453e-13
2.77395e-13
2.77859e-13
2.77141e-13
2.76436e-13
2.7337e-13
2.73624e-13
2.73851e-13
2.72275e-13
2.70795e-13
2.70063e-13
2.67692e-13
2.67286e-13
2.66602e-13
2.66504e-13
2.64555e-13
2.61801e-13
2.63299e-13
2.65419e-13
2.64202e-13
2.61359e-13
2.62694e-13
2.64e-13
2.61874e-13
2.59668e-13
2.56939e-13
2.56759e-13
2.5589e-13
2.55451e-13
2.55216e-13
2.54373e-13
2.51228e-13
2.45927e-13
2.46117e-13
2.44375e-13
2.40664e-13
2.40342e-13
2.37655e-13
2.37436e-13
2.35543e-13
2.34144e-13
2.33172e-13
2.31053e-13
2.27438e-13
2.27382e-13
2.30353e-13
2.28596e-13
2.24548e-13
2.21749e-13
2.21885e-13
2.23026e-13
2.2052e-13
2.16577e-13
2.15892e-13
2.14059e-13
2.10425e-13
2.08865e-13
2.04995e-13
2.03939e-13
2.00786e-13
1.99128e-13
1.97325e-13
1.92433e-13
1.94539e-13
1.94279e-13
1.92594e-13
1.90495e-13
1.89581e-13
1.90316e-13
1.88193e-13
1.84852e-13
1.84665e-13
1.83415e-13
1.82593e-13
1.77727e-13
1.75272e-13
1.7338e-13
1.71436e-13
1.70666e-13
1.64913e-13
1.65436e-13
1.66365e-13
1.60798e-13
1.58912e-13
1.55162e-13
1.54771e-13
1.53926e-13
1.51912e-13
1.52829e-13
1.51903e-13
1.51402e-13
1.50916e-13
1.47793e-13
1.4747e-13
1.46872e-13
1.44816e-13
1.42763e-13
1.37884e-13
1.36338e-13
1.37019e-13
1.38649e-13
1.39569e-13
1.39735e-13
1.3883e-13
1.38072e-13
1.37493e-13
1.35732e-13
1.36144e-13
1.3572e-13
1.34194e-13
1.33525e-13
1.34273e-13
1.34212e-13
1.34519e-13
1.35908e-13
1.37045e-13
1.36552e-13
1.36777e-13
1.38204e-13
1.39026e-13
1.39563e-13
1.40516e-13
1.41768e-13
1.42175e-13
1.41934e-13
1.4299e-13
1.42261e-13
1.42012e-13
1.41452e-13
1.40568e-13
1.39336e-13
1.3913e-13
1.40089e-13
1.39653e-13
1.38489e-13
1.39389e-13
1.394e-13
1.39543e-13
1.38278e-13
1.3763e-13
1.37996e-13
1.39405e-13
1.40352e-13
1.39926e-13
1.41208e-13
1.43261e-13
1.44936e-13
1.45628e-13
1.44628e-13
1.42486e-13
1.44785e-13
1.45439e-13
1.45614e-13
1.44116e-13
1.43839e-13
1.45366e-13
1.44874e-13
1.45547e-13
1.4647e-13
1.48084e-13
1.49084e-13
1.50088e-13
1.51411e-13
1.53858e-13
1.56718e-13
1.5912e-13
1.6166e-13
1.65412e-13
1.69822e-13
1.73119e-13
1.77805e-13
1.80293e-13
1.83947e-13
1.87672e-13
1.89843e-13
1.93892e-13
1.97576e-13
2.01661e-13
2.03949e-13
2.06411e-13
2.08932e-13
2.10678e-13
2.13293e-13
2.17494e-13
2.1999e-13
2.21709e-13
2.24992e-13
2.2987e-13
2.32844e-13
2.354e-13
2.38169e-13
2.41577e-13
2.44978e-13
2.48318e-13
2.50959e-13
2.5322e-13
2.5475e-13
2.55445e-13
2.5755e-13
2.61267e-13
2.63237e-13
2.65184e-13
2.67093e-13
2.68314e-13
2.7011e-13
2.72853e-13
2.74177e-13
2.75927e-13
2.78509e-13
2.79229e-13
2.81665e-13
2.83882e-13
2.85154e-13
2.87981e-13
2.89085e-13
2.90655e-13
2.91727e-13
2.92169e-13
2.92331e-13
2.94275e-13
2.95586e-13
2.94374e-13
2.94624e-13
2.94793e-13
2.92905e-13
2.92092e-13
2.92131e-13
2.89618e-13
2.88523e-13
2.89671e-13
2.88414e-13
2.8608e-13
2.84445e-13
2.84774e-13
2.82956e-13
2.8343e-13
2.82701e-13
2.7922e-13
2.76791e-13
2.73497e-13
2.72596e-13
2.73145e-13
2.7327e-13
2.73079e-13
2.7277e-13
2.74345e-13
2.74515e-13
2.74857e-13
2.74704e-13
2.73791e-13
2.73865e-13
2.73802e-13
2.73587e-13
2.72942e-13
2.75481e-13
2.77695e-13
2.79115e-13
2.80398e-13
2.80148e-13
2.78664e-13
2.78959e-13
2.79589e-13
2.80571e-13
2.82221e-13
2.82962e-13
2.83251e-13
2.83523e-13
2.85374e-13
2.86805e-13
2.87752e-13
2.88479e-13
2.89657e-13
2.91702e-13
2.91043e-13
2.91223e-13
2.9126e-13
2.89817e-13
2.90979e-13
2.91388e-13
2.92557e-13
2.93163e-13
2.91688e-13
2.90399e-13
2.91532e-13
2.92156e-13
2.92608e-13
2.92467e-13
2.93729e-13
2.94313e-13
2.95749e-13
2.94958e-13
2.94947e-13
2.95547e-13
2.95472e-13
2.9859e-13
2.99647e-13
2.99317e-13
3.00696e-13
3.00547e-13
3.01564e-13
3.02164e-13
3.03662e-13
3.03829e-13
3.03103e-13
3.03584e-13
3.02246e-13
2.97821e-13
2.95407e-13
2.94125e-13
2.93394e-13
2.92512e-13
2.89859e-13
2.87881e-13
2.8607e-13
2.83814e-13
2.83009e-13
2.8238e-13
2.80329e-13
2.79564e-13
2.80209e-13
2.78773e-13
2.77455e-13
2.76887e-13
2.77718e-13
2.76434e-13
2.73709e-13
2.72896e-13
2.7329e-13
2.73124e-13
2.71042e-13
2.69692e-13
2.68334e-13
2.67448e-13
2.66898e-13
2.65842e-13
2.64871e-13
2.62968e-13
2.62228e-13
2.64271e-13
2.64746e-13
2.62879e-13
2.62943e-13
2.62559e-13
2.61885e-13
2.60658e-13
2.57616e-13
2.57437e-13
2.56004e-13
2.56465e-13
2.54595e-13
2.52271e-13
2.50482e-13
2.46678e-13
2.47275e-13
2.44566e-13
2.40969e-13
2.40452e-13
2.36905e-13
2.3661e-13
2.35833e-13
2.35504e-13
2.32802e-13
2.29611e-13
2.28147e-13
2.28018e-13
2.29991e-13
2.28774e-13
2.24321e-13
2.21994e-13
2.22152e-13
2.2272e-13
2.21019e-13
2.1691e-13
2.16102e-13
2.14154e-13
2.11213e-13
2.08926e-13
2.04332e-13
2.03673e-13
2.01357e-13
1.99605e-13
1.96609e-13
1.92523e-13
1.94458e-13
1.9464e-13
1.92527e-13
1.91265e-13
1.90094e-13
1.89968e-13
1.88842e-13
1.85891e-13
1.85692e-13
1.82812e-13
1.81726e-13
1.78868e-13
1.75739e-13
1.73748e-13
1.71419e-13
1.7052e-13
1.66442e-13
1.6506e-13
1.64685e-13
1.60681e-13
1.5885e-13
1.55727e-13
1.5468e-13
1.5257e-13
1.52225e-13
1.52586e-13
1.51608e-13
1.51453e-13
1.50886e-13
1.47479e-13
1.45829e-13
1.45945e-13
1.45715e-13
1.43339e-13
1.38911e-13
1.38664e-13
1.38242e-13
1.3858e-13
1.39396e-13
1.40126e-13
1.38884e-13
1.37438e-13
1.38062e-13
1.35398e-13
1.35608e-13
1.35296e-13
1.33945e-13
1.33267e-13
1.33663e-13
1.3338e-13
1.34381e-13
1.35493e-13
1.36223e-13
1.36273e-13
1.37253e-13
1.37628e-13
1.38756e-13
1.39778e-13
1.40868e-13
1.41792e-13
1.42873e-13
1.422e-13
1.42816e-13
1.43069e-13
1.4209e-13
1.41144e-13
1.40149e-13
1.38929e-13
1.38768e-13
1.39251e-13
1.3911e-13
1.38175e-13
1.38773e-13
1.39498e-13
1.39753e-13
1.38538e-13
1.37194e-13
1.37796e-13
1.39409e-13
1.40668e-13
1.40159e-13
1.40352e-13
1.43713e-13
1.45574e-13
1.46248e-13
1.44749e-13
1.42354e-13
1.44405e-13
1.45299e-13
1.46083e-13
1.43866e-13
1.4404e-13
1.44573e-13
1.45472e-13
1.45516e-13
1.45536e-13
1.49003e-13
1.49052e-13
1.49396e-13
1.51508e-13
1.54187e-13
1.55278e-13
1.58634e-13
1.61051e-13
1.65613e-13
1.70183e-13
1.7276e-13
1.77919e-13
1.79771e-13
1.83587e-13
1.87928e-13
1.89821e-13
1.94121e-13
1.98083e-13
2.01587e-13
2.0406e-13
2.07111e-13
2.08765e-13
2.10973e-13
2.12314e-13
2.17293e-13
2.19517e-13
2.21864e-13
2.24942e-13
2.30329e-13
2.33272e-13
2.35329e-13
2.37024e-13
2.40654e-13
2.44849e-13
2.49102e-13
2.51245e-13
2.52886e-13
2.55537e-13
2.55707e-13
2.58107e-13
2.62386e-13
2.63044e-13
2.63951e-13
2.66137e-13
2.69075e-13
2.70512e-13
2.7242e-13
2.72753e-13
2.75395e-13
2.79324e-13
2.79276e-13
2.82285e-13
2.83825e-13
2.8509e-13
2.87595e-13
2.88667e-13
2.91223e-13
2.92524e-13
2.92285e-13
2.92834e-13
2.95053e-13
2.96027e-13
2.94737e-13
2.95478e-13
2.94575e-13
2.92172e-13
2.91529e-13
2.93114e-13
2.89661e-13
2.88352e-13
2.89316e-13
2.88658e-13
2.86155e-13
2.83752e-13
2.84783e-13
2.8286e-13
2.83318e-13
2.83017e-13
2.78481e-13
2.7664e-13
2.74178e-13
2.72152e-13
2.73068e-13
2.72311e-13
2.73049e-13
2.72911e-13
2.74057e-13
2.74803e-13
2.74276e-13
2.75028e-13
2.73791e-13
2.73452e-13
2.74407e-13
2.72811e-13
2.73227e-13
2.75642e-13
2.77267e-13
2.78693e-13
2.80997e-13
2.80513e-13
2.78398e-13
2.79855e-13
2.79721e-13
2.80317e-13
2.81515e-13
2.83416e-13
2.83728e-13
2.83799e-13
2.85962e-13
2.84881e-13
2.87441e-13
2.89544e-13
2.89531e-13
2.92595e-13
2.90275e-13
2.91365e-13
2.90743e-13
2.8982e-13
2.91598e-13
2.90612e-13
2.92373e-13
2.93201e-13
2.92328e-13
2.90473e-13
2.9036e-13
2.91922e-13
2.93949e-13
2.92852e-13
2.93947e-13
2.93889e-13
2.96716e-13
2.95058e-13
2.95158e-13
2.95411e-13
2.95823e-13
2.97971e-13
2.98814e-13
2.99844e-13
3.01986e-13
3.01042e-13
3.02002e-13
3.02324e-13
3.03249e-13
3.05483e-13
3.03056e-13
3.0397e-13
3.0232e-13
2.97665e-13
2.95624e-13
2.93582e-13
2.947e-13
2.93969e-13
2.8962e-13
2.87541e-13
2.85611e-13
2.83346e-13
2.82058e-13
2.82072e-13
2.80409e-13
2.79709e-13
2.80808e-13
2.79511e-13
2.76969e-13
2.76067e-13
2.77832e-13
2.76636e-13
2.73667e-13
2.72843e-13
2.73465e-13
2.72961e-13
2.71608e-13
2.69436e-13
2.68725e-13
2.67492e-13
2.66679e-13
2.65892e-13
2.65224e-13
2.64457e-13
2.61618e-13
2.62771e-13
2.64909e-13
2.6342e-13
2.63998e-13
2.62326e-13
2.61773e-13
2.61242e-13
2.58158e-13
2.57563e-13
2.55917e-13
2.56736e-13
2.53988e-13
2.50618e-13
2.50004e-13
2.47762e-13
2.483e-13
2.44581e-13
2.41602e-13
2.4071e-13
2.36341e-13
2.36127e-13
2.35949e-13
2.36127e-13
2.32613e-13
2.29234e-13
2.2812e-13
2.28681e-13
2.29759e-13
2.2897e-13
2.24169e-13
2.22434e-13
2.22409e-13
2.22543e-13
2.21744e-13
2.17769e-13
2.1634e-13
2.14287e-13
2.11649e-13
2.09401e-13
2.03827e-13
2.03088e-13
2.01575e-13
1.99927e-13
1.97252e-13
1.93129e-13
1.94333e-13
1.94838e-13
1.92248e-13
1.92127e-13
1.90787e-13
1.8995e-13
1.88825e-13
1.87141e-13
1.8659e-13
1.82797e-13
1.79789e-13
1.79648e-13
1.76413e-13
1.74319e-13
1.71627e-13
1.69466e-13
1.67532e-13
1.64984e-13
1.6246e-13
1.61187e-13
1.58687e-13
1.5567e-13
1.54589e-13
1.52385e-13
1.52248e-13
1.51776e-13
1.51659e-13
1.51366e-13
1.50646e-13
1.47416e-13
1.44468e-13
1.45031e-13
1.46454e-13
1.44311e-13
1.39473e-13
1.40893e-13
1.39836e-13
1.38514e-13
1.38703e-13
1.39815e-13
1.38377e-13
1.36404e-13
1.37177e-13
1.34769e-13
1.34721e-13
1.35194e-13
1.33995e-13
1.32994e-13
1.33104e-13
1.33153e-13
1.33954e-13
1.35374e-13
1.35577e-13
1.35946e-13
1.36697e-13
1.37611e-13
1.38731e-13
1.39769e-13
1.41536e-13
1.41985e-13
1.4399e-13
1.42744e-13
1.42387e-13
1.4309e-13
1.42701e-13
1.39863e-13
1.39964e-13
1.38874e-13
1.38704e-13
1.38358e-13
1.37821e-13
1.38172e-13
1.38199e-13
1.39248e-13
1.40083e-13
1.38592e-13
1.37487e-13
1.38012e-13
1.39183e-13
1.40749e-13
1.40399e-13
1.39946e-13
1.43133e-13
1.45768e-13
1.47449e-13
1.44477e-13
1.41913e-13
1.4491e-13
1.45094e-13
1.46168e-13
1.44393e-13
1.44075e-13
1.44037e-13
1.45204e-13
1.46016e-13
1.45597e-13
1.48728e-13
1.49192e-13
1.48685e-13
1.50795e-13
1.54389e-13
1.55779e-13
1.57983e-13
1.6133e-13
1.65034e-13
1.69596e-13
1.72667e-13
1.77923e-13
1.79312e-13
1.83245e-13
1.88311e-13
1.90211e-13
1.94086e-13
1.97927e-13
2.0192e-13
2.04406e-13
2.07084e-13
2.07735e-13
2.10425e-13
2.12817e-13
2.16597e-13
2.19521e-13
2.22625e-13
2.25544e-13
2.30135e-13
2.33418e-13
2.34838e-13
2.36715e-13
2.39707e-13
2.44347e-13
2.4909e-13
2.51118e-13
2.52942e-13
2.5558e-13
2.57521e-13
2.58787e-13
2.62415e-13
2.63161e-13
2.64781e-13
2.6551e-13
2.68193e-13
2.70168e-13
2.72088e-13
2.72453e-13
2.74738e-13
2.79905e-13
2.80055e-13
2.83312e-13
2.83143e-13
2.84771e-13
2.86834e-13
2.88244e-13
2.92186e-13
2.93409e-13
2.91559e-13
2.93421e-13
2.95895e-13
2.96622e-13
2.96179e-13
2.95665e-13
2.94066e-13
2.92575e-13
2.91322e-13
2.92422e-13
2.89955e-13
2.89367e-13
2.90006e-13
2.8733e-13
2.85999e-13
2.83197e-13
2.8502e-13
2.83661e-13
2.8314e-13
2.82253e-13
2.78138e-13
2.7669e-13
2.75126e-13
2.71596e-13
2.72181e-13
2.71939e-13
2.7302e-13
2.72832e-13
2.73793e-13
2.74998e-13
2.74026e-13
2.74512e-13
2.73428e-13
2.74289e-13
2.75745e-13
2.72476e-13
2.73052e-13
2.75694e-13
2.77375e-13
2.78051e-13
2.81264e-13
2.81546e-13
2.78091e-13
2.79879e-13
2.79618e-13
2.80046e-13
2.81861e-13
2.82553e-13
2.83912e-13
2.83475e-13
2.86066e-13
2.85946e-13
2.86555e-13
2.89396e-13
2.90612e-13
2.92692e-13
2.90451e-13
2.91268e-13
2.90097e-13
2.90485e-13
2.9174e-13
2.91665e-13
2.91879e-13
2.93175e-13
2.93319e-13
2.89523e-13
2.90119e-13
2.91654e-13
2.94423e-13
2.94069e-13
2.94237e-13
2.94575e-13
2.95725e-13
2.95504e-13
2.95945e-13
2.95633e-13
2.95554e-13
2.976e-13
2.98952e-13
3.00113e-13
3.02726e-13
3.02203e-13
3.01526e-13
3.02725e-13
3.04452e-13
3.05688e-13
3.04766e-13