/*--------------------------------*- C++ -*----------------------------------*\
| =========                 |                                                 |
| \\      /  F ield         | OpenFOAM: The Open Source CFD Toolbox           |
|  \\    /   O peration     | Version:  2112                                  |
|   \\  /    A nd           | Website:  www.openfoam.com                      |
|    \\/     M anipulation  |                                                 |
\*---------------------------------------------------------------------------*/
FoamFile
{
    version     2.0;
    format      ascii;
    arch        "LSB;label=32;scalar=64";
    class       volScalarField;
    location    "10";
    object      p;
}
// * * * * * * * * * * * * * * * * * * * * * * * * * * * * * * * * * * * * * //

dimensions      [0 2 -2 0 0 0 0];

internalField   nonuniform List<scalar> 
50000
(
-2.15441e-14
-4.50213e-14
-5.1953e-14
-5.56775e-14
-5.84583e-14
-6.07089e-14
-6.25578e-14
-6.42398e-14
-6.59022e-14
-6.74151e-14
-6.87302e-14
-7.004e-14
-7.12977e-14
-7.25501e-14
-7.37601e-14
-7.48715e-14
-7.6011e-14
-7.71763e-14
-7.8373e-14
-7.96631e-14
-8.09017e-14
-8.19949e-14
-8.31986e-14
-8.43508e-14
-8.545e-14
-8.65617e-14
-8.7745e-14
-8.88957e-14
-8.98357e-14
-9.10173e-14
-9.21619e-14
-9.31538e-14
-9.41838e-14
-9.52005e-14
-9.61279e-14
-9.7161e-14
-9.80034e-14
-9.89956e-14
-1.0001e-13
-1.00874e-13
-1.01782e-13
-1.02536e-13
-1.03498e-13
-1.045e-13
-1.05398e-13
-1.06392e-13
-1.07323e-13
-1.08035e-13
-1.08979e-13
-1.10072e-13
-1.10933e-13
-1.11764e-13
-1.12712e-13
-1.13784e-13
-1.14844e-13
-1.15721e-13
-1.16813e-13
-1.17627e-13
-1.18442e-13
-1.19504e-13
-1.20432e-13
-1.21338e-13
-1.22336e-13
-1.23383e-13
-1.24296e-13
-1.2524e-13
-1.26053e-13
-1.26909e-13
-1.27846e-13
-1.28456e-13
-1.29254e-13
-1.30158e-13
-1.31036e-13
-1.31692e-13
-1.3253e-13
-1.33677e-13
-1.34253e-13
-1.3472e-13
-1.35597e-13
-1.36479e-13
-1.37045e-13
-1.37547e-13
-1.38293e-13
-1.38845e-13
-1.39349e-13
-1.40167e-13
-1.40702e-13
-1.41195e-13
-1.41653e-13
-1.42097e-13
-1.42652e-13
-1.4311e-13
-1.43484e-13
-1.43848e-13
-1.44036e-13
-1.44009e-13
-1.44469e-13
-1.44893e-13
-1.44678e-13
-1.44789e-13
-1.45235e-13
-1.45323e-13
-1.45198e-13
-1.45202e-13
-1.45415e-13
-1.45385e-13
-1.4541e-13
-1.45566e-13
-1.45681e-13
-1.45616e-13
-1.45123e-13
-1.44861e-13
-1.45053e-13
-1.45203e-13
-1.44847e-13
-1.44345e-13
-1.44402e-13
-1.44753e-13
-1.44785e-13
-1.44544e-13
-1.4441e-13
-1.44504e-13
-1.44579e-13
-1.4423e-13
-1.43921e-13
-1.44025e-13
-1.43762e-13
-1.43338e-13
-1.4333e-13
-1.43119e-13
-1.42885e-13
-1.42633e-13
-1.42542e-13
-1.41797e-13
-1.41392e-13
-1.41448e-13
-1.41058e-13
-1.40554e-13
-1.40424e-13
-1.39974e-13
-1.39138e-13
-1.38782e-13
-1.38754e-13
-1.38272e-13
-1.37172e-13
-1.36762e-13
-1.36579e-13
-1.35481e-13
-1.34755e-13
-1.34689e-13
-1.33838e-13
-1.33378e-13
-1.3308e-13
-1.31882e-13
-1.31532e-13
-1.31214e-13
-1.30372e-13
-1.30186e-13
-1.29835e-13
-1.29475e-13
-1.28643e-13
-1.27837e-13
-1.27279e-13
-1.26735e-13
-1.26112e-13
-1.25637e-13
-1.2528e-13
-1.24436e-13
-1.24524e-13
-1.241e-13
-1.22988e-13
-1.22942e-13
-1.22461e-13
-1.21338e-13
-1.20788e-13
-1.20537e-13
-1.20274e-13
-1.19551e-13
-1.19068e-13
-1.19093e-13
-1.18364e-13
-1.17825e-13
-1.17653e-13
-1.17177e-13
-1.17136e-13
-1.16361e-13
-1.15573e-13
-1.15475e-13
-1.15177e-13
-1.14744e-13
-1.1443e-13
-1.14392e-13
-1.1452e-13
-1.14867e-13
-1.14565e-13
-1.14085e-13
-1.14045e-13
-1.13639e-13
-1.13084e-13
-1.13373e-13
-1.13808e-13
-1.13687e-13
-1.14535e-13
-1.14719e-13
-1.14931e-13
-1.14998e-13
-1.1445e-13
-1.14765e-13
-1.15415e-13
-1.15681e-13
-1.16067e-13
-1.16294e-13
-1.16451e-13
-1.17229e-13
-1.17219e-13
-1.17765e-13
-1.18347e-13
-1.19052e-13
-1.19918e-13
-1.2035e-13
-1.20408e-13
-1.20651e-13
-1.21356e-13
-1.21715e-13
-1.22424e-13
-1.22889e-13
-1.2345e-13
-1.24091e-13
-1.24467e-13
-1.24561e-13
-1.24793e-13
-1.24986e-13
-1.25767e-13
-1.26409e-13
-1.26646e-13
-1.2757e-13
-1.2806e-13
-1.28428e-13
-1.28689e-13
-1.29302e-13
-1.29732e-13
-1.30123e-13
-1.31083e-13
-1.31954e-13
-1.31936e-13
-1.32406e-13
-1.33086e-13
-1.33006e-13
-1.33533e-13
-1.33984e-13
-1.34367e-13
-1.35004e-13
-1.35689e-13
-1.35439e-13
-1.35607e-13
-1.36279e-13
-1.36176e-13
-1.36309e-13
-1.36942e-13
-1.36936e-13
-1.37605e-13
-1.38278e-13
-1.37775e-13
-1.38445e-13
-1.3827e-13
-1.38846e-13
-1.40256e-13
-1.39654e-13
-1.40486e-13
-1.4212e-13
-1.41056e-13
-1.41385e-13
-1.42522e-13
-1.42619e-13
-1.43541e-13
-1.43502e-13
-1.44257e-13
-1.45366e-13
-1.45672e-13
-1.45593e-13
-1.46016e-13
-1.46588e-13
-1.4757e-13
-1.48308e-13
-1.48154e-13
-1.4967e-13
-1.4975e-13
-1.49587e-13
-1.51036e-13
-1.51204e-13
-1.50779e-13
-1.51834e-13
-1.52397e-13
-1.5265e-13
-1.54253e-13
-1.53756e-13
-1.52691e-13
-1.53741e-13
-1.53795e-13
-1.5376e-13
-1.55009e-13
-1.54517e-13
-1.54881e-13
-1.5605e-13
-1.54781e-13
-1.54545e-13
-1.55607e-13
-1.5501e-13
-1.55297e-13
-1.56559e-13
-1.56146e-13
-1.55447e-13
-1.56287e-13
-1.56286e-13
-1.55737e-13
-1.56134e-13
-1.5573e-13
-1.55643e-13
-1.55854e-13
-1.56137e-13
-1.55752e-13
-1.55057e-13
-1.54545e-13
-1.54793e-13
-1.55388e-13
-1.54639e-13
-1.54374e-13
-1.54647e-13
-1.55252e-13
-1.54901e-13
-1.53579e-13
-1.54297e-13
-1.54947e-13
-1.54301e-13
-1.55277e-13
-1.55526e-13
-1.54449e-13
-1.5586e-13
-1.55662e-13
-1.54488e-13
-1.55204e-13
-1.55168e-13
-1.55037e-13
-1.5571e-13
-1.56147e-13
-1.55781e-13
-1.55548e-13
-1.55346e-13
-1.55786e-13
-1.56496e-13
-1.56154e-13
-1.56022e-13
-1.56888e-13
-1.5748e-13
-1.57031e-13
-1.56605e-13
-1.56317e-13
-1.56849e-13
-1.5772e-13
-1.57581e-13
-1.57984e-13
-1.57286e-13
-1.57703e-13
-1.58347e-13
-1.57019e-13
-1.57197e-13
-1.57531e-13
-1.57574e-13
-1.57837e-13
-1.58856e-13
-1.58293e-13
-1.57336e-13
-1.57456e-13
-1.57721e-13
-1.58036e-13
-1.5742e-13
-1.57595e-13
-1.57161e-13
-1.57701e-13
-1.5716e-13
-1.56119e-13
-1.56092e-13
-1.56399e-13
-1.56245e-13
-1.55756e-13
-1.56266e-13
-1.55091e-13
-1.55395e-13
-1.55156e-13
-1.54053e-13
-1.53753e-13
-1.5383e-13
-1.53176e-13
-1.5262e-13
-1.53683e-13
-1.53099e-13
-1.51438e-13
-1.50926e-13
-1.50957e-13
-1.50991e-13
-1.51291e-13
-1.51251e-13
-1.4911e-13
-1.48782e-13
-1.49014e-13
-1.49618e-13
-1.48787e-13
-1.46601e-13
-1.47289e-13
-1.48044e-13
-1.47478e-13
-1.45331e-13
-1.45692e-13
-1.45632e-13
-1.44765e-13
-1.44458e-13
-1.43381e-13
-1.4381e-13
-1.44241e-13
-1.43298e-13
-1.41437e-13
-1.4165e-13
-1.42676e-13
-1.40872e-13
-1.40025e-13
-1.40174e-13
-1.39937e-13
-1.39313e-13
-1.38709e-13
-1.37463e-13
-1.37301e-13
-1.3821e-13
-1.36252e-13
-1.34599e-13
-1.35333e-13
-1.36162e-13
-1.33747e-13
-1.3269e-13
-1.31714e-13
-1.30511e-13
-1.31115e-13
-1.2872e-13
-1.27849e-13
-1.27281e-13
-1.27007e-13
-1.25687e-13
-1.23991e-13
-1.23452e-13
-1.22091e-13
-1.21828e-13
-1.20182e-13
-1.19169e-13
-1.17554e-13
-1.16951e-13
-1.15479e-13
-1.14035e-13
-1.1365e-13
-1.12422e-13
-1.10952e-13
-1.08377e-13
-1.0897e-13
-1.07786e-13
-1.06476e-13
-1.05015e-13
-1.02299e-13
-1.02541e-13
-1.0188e-13
-9.99378e-14
-9.81923e-14
-9.77715e-14
-9.63309e-14
-9.53504e-14
-9.41182e-14
-9.2244e-14
-9.17003e-14
-9.02324e-14
-8.86947e-14
-8.63172e-14
-8.56108e-14
-8.47421e-14
-8.30297e-14
-8.09814e-14
-7.93293e-14
-7.88847e-14
-7.62667e-14
-7.54674e-14
-7.40122e-14
-7.25491e-14
-7.18774e-14
-6.88414e-14
-6.68958e-14
-6.65641e-14
-6.51952e-14
-6.23277e-14
-6.08636e-14
-5.87203e-14
-5.67576e-14
-5.4535e-14
-5.0311e-14
-4.42447e-14
-3.68076e-14
-4.6922e-14
-5.22384e-14
-5.58035e-14
-5.85231e-14
-6.07483e-14
-6.26056e-14
-6.42518e-14
-6.59231e-14
-6.74564e-14
-6.87495e-14
-7.0085e-14
-7.13127e-14
-7.25671e-14
-7.37635e-14
-7.48956e-14
-7.60157e-14
-7.71773e-14
-7.8373e-14
-7.96512e-14
-8.09261e-14
-8.20272e-14
-8.31965e-14
-8.4354e-14
-8.54688e-14
-8.65454e-14
-8.77271e-14
-8.88993e-14
-8.98626e-14
-9.10089e-14
-9.21476e-14
-9.32434e-14
-9.42025e-14
-9.51701e-14
-9.61798e-14
-9.72126e-14
-9.80008e-14
-9.90098e-14
-1.00028e-13
-1.00922e-13
-1.0175e-13
-1.02591e-13
-1.0347e-13
-1.04439e-13
-1.05447e-13
-1.06369e-13
-1.07305e-13
-1.08065e-13
-1.08969e-13
-1.10046e-13
-1.10912e-13
-1.11715e-13
-1.12757e-13
-1.13825e-13
-1.14791e-13
-1.15724e-13
-1.16829e-13
-1.1767e-13
-1.18494e-13
-1.19449e-13
-1.20402e-13
-1.21382e-13
-1.22331e-13
-1.23346e-13
-1.24396e-13
-1.2521e-13
-1.26067e-13
-1.26913e-13
-1.27787e-13
-1.28509e-13
-1.29304e-13
-1.30146e-13
-1.30939e-13
-1.31712e-13
-1.32589e-13
-1.33577e-13
-1.34237e-13
-1.34784e-13
-1.35582e-13
-1.36461e-13
-1.37066e-13
-1.37555e-13
-1.38225e-13
-1.38859e-13
-1.39479e-13
-1.40058e-13
-1.40645e-13
-1.41327e-13
-1.41643e-13
-1.42118e-13
-1.42682e-13
-1.43045e-13
-1.43467e-13
-1.43871e-13
-1.44042e-13
-1.44108e-13
-1.44438e-13
-1.44815e-13
-1.44691e-13
-1.44776e-13
-1.45244e-13
-1.45297e-13
-1.45233e-13
-1.45185e-13
-1.45346e-13
-1.45512e-13
-1.45461e-13
-1.45492e-13
-1.45648e-13
-1.45543e-13
-1.4518e-13
-1.45018e-13
-1.45037e-13
-1.45092e-13
-1.44793e-13
-1.44382e-13
-1.4451e-13
-1.44756e-13
-1.44695e-13
-1.44518e-13
-1.44386e-13
-1.44468e-13
-1.44503e-13
-1.44252e-13
-1.44102e-13
-1.43951e-13
-1.43655e-13
-1.43364e-13
-1.43338e-13
-1.43119e-13
-1.42963e-13
-1.42604e-13
-1.42391e-13
-1.41873e-13
-1.41469e-13
-1.4137e-13
-1.40991e-13
-1.40646e-13
-1.40368e-13
-1.39943e-13
-1.39317e-13
-1.38847e-13
-1.38766e-13
-1.38167e-13
-1.37129e-13
-1.36752e-13
-1.36502e-13
-1.35529e-13
-1.34807e-13
-1.34565e-13
-1.33907e-13
-1.33459e-13
-1.3291e-13
-1.31992e-13
-1.31586e-13
-1.31123e-13
-1.30533e-13
-1.302e-13
-1.29727e-13
-1.2937e-13
-1.28643e-13
-1.27889e-13
-1.27333e-13
-1.26702e-13
-1.26089e-13
-1.25609e-13
-1.25193e-13
-1.24652e-13
-1.24383e-13
-1.23981e-13
-1.23225e-13
-1.22752e-13
-1.22303e-13
-1.21609e-13
-1.20769e-13
-1.20473e-13
-1.20242e-13
-1.19476e-13
-1.19088e-13
-1.19105e-13
-1.18446e-13
-1.17863e-13
-1.17654e-13
-1.17194e-13
-1.1699e-13
-1.16352e-13
-1.15719e-13
-1.15388e-13
-1.15216e-13
-1.14756e-13
-1.14478e-13
-1.14462e-13
-1.14631e-13
-1.14768e-13
-1.14391e-13
-1.14142e-13
-1.13991e-13
-1.13489e-13
-1.1328e-13
-1.13583e-13
-1.13685e-13
-1.13715e-13
-1.14427e-13
-1.14603e-13
-1.14949e-13
-1.15077e-13
-1.14536e-13
-1.14721e-13
-1.1535e-13
-1.15751e-13
-1.15997e-13
-1.16389e-13
-1.16593e-13
-1.17036e-13
-1.1726e-13
-1.17839e-13
-1.18264e-13
-1.19057e-13
-1.19896e-13
-1.2015e-13
-1.20398e-13
-1.20831e-13
-1.21471e-13
-1.21822e-13
-1.22368e-13
-1.22821e-13
-1.23365e-13
-1.24003e-13
-1.24415e-13
-1.24473e-13
-1.24941e-13
-1.25238e-13
-1.25659e-13
-1.26408e-13
-1.26772e-13
-1.27427e-13
-1.28038e-13
-1.2826e-13
-1.28846e-13
-1.29332e-13
-1.29746e-13
-1.30273e-13
-1.3089e-13
-1.31767e-13
-1.32072e-13
-1.32422e-13
-1.32946e-13
-1.33147e-13
-1.336e-13
-1.3418e-13
-1.34369e-13
-1.34876e-13
-1.35431e-13
-1.35497e-13
-1.35682e-13
-1.36152e-13
-1.36357e-13
-1.36507e-13
-1.36811e-13
-1.36878e-13
-1.37582e-13
-1.38139e-13
-1.38042e-13
-1.38365e-13
-1.38278e-13
-1.38808e-13
-1.4015e-13
-1.39977e-13
-1.40434e-13
-1.41644e-13
-1.41332e-13
-1.41587e-13
-1.42462e-13
-1.4275e-13
-1.43244e-13
-1.43824e-13
-1.4425e-13
-1.44964e-13
-1.45566e-13
-1.45875e-13
-1.46152e-13
-1.46517e-13
-1.4757e-13
-1.48302e-13
-1.48231e-13
-1.49377e-13
-1.49917e-13
-1.49728e-13
-1.509e-13
-1.51047e-13
-1.50904e-13
-1.5184e-13
-1.52447e-13
-1.52764e-13
-1.53949e-13
-1.53608e-13
-1.53169e-13
-1.53784e-13
-1.53762e-13
-1.53952e-13
-1.54669e-13
-1.54822e-13
-1.54824e-13
-1.55582e-13
-1.55087e-13
-1.54714e-13
-1.55272e-13
-1.55227e-13
-1.55529e-13
-1.56143e-13
-1.5615e-13
-1.55754e-13
-1.5615e-13
-1.56321e-13
-1.55866e-13
-1.55874e-13
-1.55881e-13
-1.55854e-13
-1.55686e-13
-1.55927e-13
-1.55694e-13
-1.55086e-13
-1.5487e-13
-1.55026e-13
-1.55011e-13
-1.54661e-13
-1.54564e-13
-1.54638e-13
-1.54857e-13
-1.54747e-13
-1.54034e-13
-1.54241e-13
-1.54794e-13
-1.54656e-13
-1.54986e-13
-1.55258e-13
-1.55002e-13
-1.55456e-13
-1.5546e-13
-1.55052e-13
-1.55112e-13
-1.54981e-13
-1.55418e-13
-1.55602e-13
-1.55614e-13
-1.55857e-13
-1.55665e-13
-1.5554e-13
-1.5606e-13
-1.56339e-13
-1.55941e-13
-1.56419e-13
-1.56791e-13
-1.56944e-13
-1.57123e-13
-1.56738e-13
-1.56558e-13
-1.57047e-13
-1.57419e-13
-1.57593e-13
-1.58056e-13
-1.57333e-13
-1.57615e-13
-1.58072e-13
-1.57312e-13
-1.57248e-13
-1.5747e-13
-1.57671e-13
-1.57846e-13
-1.58462e-13
-1.58112e-13
-1.57617e-13
-1.57796e-13
-1.57829e-13
-1.57725e-13
-1.57402e-13
-1.57568e-13
-1.57407e-13
-1.57506e-13
-1.56892e-13
-1.56249e-13
-1.56323e-13
-1.56435e-13
-1.56144e-13
-1.55684e-13
-1.56326e-13
-1.55347e-13
-1.5491e-13
-1.55146e-13
-1.54401e-13
-1.53615e-13
-1.53622e-13
-1.53371e-13
-1.52798e-13
-1.53479e-13
-1.52693e-13
-1.51449e-13
-1.51497e-13
-1.5128e-13
-1.50851e-13
-1.51017e-13
-1.50919e-13
-1.49443e-13
-1.49189e-13
-1.48835e-13
-1.49084e-13
-1.48931e-13
-1.47086e-13
-1.47002e-13
-1.47819e-13
-1.4753e-13
-1.45632e-13
-1.45659e-13
-1.45478e-13
-1.44739e-13
-1.44351e-13
-1.43546e-13
-1.43976e-13
-1.43877e-13
-1.43166e-13
-1.41941e-13
-1.41792e-13
-1.4206e-13
-1.41153e-13
-1.40328e-13
-1.3985e-13
-1.39902e-13
-1.39273e-13
-1.38562e-13
-1.37634e-13
-1.37407e-13
-1.37793e-13
-1.36575e-13
-1.34927e-13
-1.34997e-13
-1.35856e-13
-1.34002e-13
-1.32737e-13
-1.31795e-13
-1.30756e-13
-1.30558e-13
-1.28956e-13
-1.27922e-13
-1.27427e-13
-1.26869e-13
-1.25538e-13
-1.24233e-13
-1.23405e-13
-1.22233e-13
-1.21655e-13
-1.20057e-13
-1.18924e-13
-1.18003e-13
-1.16828e-13
-1.15329e-13
-1.14313e-13
-1.13518e-13
-1.12248e-13
-1.10999e-13
-1.08779e-13
-1.08585e-13
-1.07996e-13
-1.06284e-13
-1.04626e-13
-1.03083e-13
-1.02597e-13
-1.01205e-13
-9.98985e-14
-9.88303e-14
-9.75769e-14
-9.63173e-14
-9.53458e-14
-9.41704e-14
-9.25301e-14
-9.13878e-14
-9.01335e-14
-8.83502e-14
-8.66494e-14
-8.59928e-14
-8.43898e-14
-8.26517e-14
-8.13464e-14
-7.96541e-14
-7.8329e-14
-7.64889e-14
-7.55319e-14
-7.40951e-14
-7.28207e-14
-7.1255e-14
-6.88189e-14
-6.75869e-14
-6.66276e-14
-6.45804e-14
-6.25948e-14
-6.09395e-14
-5.87568e-14
-5.67642e-14
-5.43697e-14
-5.09049e-14
-4.62432e-14
-4.36919e-14
-4.88617e-14
-5.30323e-14
-5.62173e-14
-5.87769e-14
-6.08773e-14
-6.27479e-14
-6.43076e-14
-6.60004e-14
-6.75561e-14
-6.87865e-14
-7.01904e-14
-7.13636e-14
-7.25664e-14
-7.3803e-14
-7.4922e-14
-7.60343e-14
-7.72408e-14
-7.83617e-14
-7.96294e-14
-8.09679e-14
-8.20544e-14
-8.31853e-14
-8.43848e-14
-8.55001e-14
-8.65532e-14
-8.77457e-14
-8.88945e-14
-8.98918e-14
-9.10469e-14
-9.21904e-14
-9.32848e-14
-9.4238e-14
-9.52003e-14
-9.62169e-14
-9.72524e-14
-9.80364e-14
-9.9022e-14
-1.00035e-13
-1.00936e-13
-1.01731e-13
-1.02652e-13
-1.03471e-13
-1.0439e-13
-1.05461e-13
-1.06375e-13
-1.0727e-13
-1.08111e-13
-1.08927e-13
-1.09997e-13
-1.10903e-13
-1.1176e-13
-1.12784e-13
-1.13838e-13
-1.14767e-13
-1.15754e-13
-1.1684e-13
-1.17694e-13
-1.1848e-13
-1.19407e-13
-1.20387e-13
-1.21419e-13
-1.22344e-13
-1.23346e-13
-1.24394e-13
-1.25227e-13
-1.26117e-13
-1.26936e-13
-1.27744e-13
-1.28523e-13
-1.29299e-13
-1.30146e-13
-1.30894e-13
-1.3172e-13
-1.32635e-13
-1.33524e-13
-1.34251e-13
-1.34788e-13
-1.3557e-13
-1.36461e-13
-1.37065e-13
-1.3751e-13
-1.38199e-13
-1.38917e-13
-1.39559e-13
-1.40012e-13
-1.40657e-13
-1.41361e-13
-1.41638e-13
-1.42164e-13
-1.42725e-13
-1.42977e-13
-1.43408e-13
-1.43888e-13
-1.44076e-13
-1.44217e-13
-1.44412e-13
-1.44707e-13
-1.44698e-13
-1.44813e-13
-1.45205e-13
-1.45309e-13
-1.45235e-13
-1.45148e-13
-1.45403e-13
-1.45546e-13
-1.45481e-13
-1.45496e-13
-1.45582e-13
-1.45476e-13
-1.45205e-13
-1.45095e-13
-1.45098e-13
-1.44911e-13
-1.44743e-13
-1.44546e-13
-1.44558e-13
-1.4465e-13
-1.44671e-13
-1.44502e-13
-1.44351e-13
-1.44399e-13
-1.44471e-13
-1.44313e-13
-1.44175e-13
-1.43868e-13
-1.43696e-13
-1.43322e-13
-1.43239e-13
-1.43137e-13
-1.42986e-13
-1.42624e-13
-1.42351e-13
-1.4196e-13
-1.4151e-13
-1.41289e-13
-1.40982e-13
-1.40732e-13
-1.40339e-13
-1.39874e-13
-1.39454e-13
-1.38898e-13
-1.3875e-13
-1.38062e-13
-1.37141e-13
-1.36783e-13
-1.36427e-13
-1.35516e-13
-1.34896e-13
-1.34512e-13
-1.33962e-13
-1.33479e-13
-1.32747e-13
-1.32062e-13
-1.31627e-13
-1.31083e-13
-1.30645e-13
-1.30192e-13
-1.29725e-13
-1.29332e-13
-1.2864e-13
-1.27961e-13
-1.27281e-13
-1.26623e-13
-1.26095e-13
-1.25602e-13
-1.25127e-13
-1.24763e-13
-1.24374e-13
-1.2392e-13
-1.23262e-13
-1.22742e-13
-1.22224e-13
-1.2166e-13
-1.2084e-13
-1.20451e-13
-1.20103e-13
-1.19469e-13
-1.19134e-13
-1.19077e-13
-1.18492e-13
-1.17871e-13
-1.17732e-13
-1.17248e-13
-1.16818e-13
-1.16297e-13
-1.15861e-13
-1.15344e-13
-1.15193e-13
-1.148e-13
-1.14532e-13
-1.1455e-13
-1.14671e-13
-1.14656e-13
-1.14367e-13
-1.14068e-13
-1.13837e-13
-1.13591e-13
-1.1342e-13
-1.13594e-13
-1.13627e-13
-1.13739e-13
-1.14243e-13
-1.14557e-13
-1.14996e-13
-1.1501e-13
-1.14626e-13
-1.14837e-13
-1.15324e-13
-1.15766e-13
-1.15973e-13
-1.16324e-13
-1.16768e-13
-1.16978e-13
-1.172e-13
-1.17861e-13
-1.18346e-13
-1.19037e-13
-1.19768e-13
-1.20033e-13
-1.20477e-13
-1.21006e-13
-1.21462e-13
-1.21917e-13
-1.22317e-13
-1.22782e-13
-1.234e-13
-1.2381e-13
-1.24287e-13
-1.24556e-13
-1.25075e-13
-1.25366e-13
-1.25742e-13
-1.26299e-13
-1.26796e-13
-1.27384e-13
-1.27943e-13
-1.28256e-13
-1.28948e-13
-1.2929e-13
-1.29813e-13
-1.30382e-13
-1.30778e-13
-1.31621e-13
-1.3207e-13
-1.32574e-13
-1.32843e-13
-1.33102e-13
-1.33718e-13
-1.343e-13
-1.34361e-13
-1.34856e-13
-1.3523e-13
-1.35562e-13
-1.35881e-13
-1.36008e-13
-1.36358e-13
-1.3668e-13
-1.3679e-13
-1.36777e-13
-1.37568e-13
-1.38026e-13
-1.38102e-13
-1.38385e-13
-1.38388e-13
-1.38846e-13
-1.39994e-13
-1.4026e-13
-1.40364e-13
-1.41254e-13
-1.41489e-13
-1.41785e-13
-1.42581e-13
-1.42747e-13
-1.43015e-13
-1.44127e-13
-1.4427e-13
-1.44548e-13
-1.45495e-13
-1.46029e-13
-1.46271e-13
-1.46584e-13
-1.47571e-13
-1.48228e-13
-1.48272e-13
-1.49237e-13
-1.49998e-13
-1.49815e-13
-1.50771e-13
-1.51062e-13
-1.50946e-13
-1.51801e-13
-1.52621e-13
-1.52828e-13
-1.536e-13
-1.5358e-13
-1.53452e-13
-1.53865e-13
-1.53883e-13
-1.53981e-13
-1.54445e-13
-1.5508e-13
-1.54798e-13
-1.55205e-13
-1.55261e-13
-1.5482e-13
-1.55177e-13
-1.554e-13
-1.55551e-13
-1.55888e-13
-1.5621e-13
-1.55989e-13
-1.55984e-13
-1.56324e-13
-1.55984e-13
-1.55829e-13
-1.55843e-13
-1.55964e-13
-1.55703e-13
-1.55788e-13
-1.55617e-13
-1.55137e-13
-1.55117e-13
-1.55065e-13
-1.54864e-13
-1.54602e-13
-1.54631e-13
-1.54758e-13
-1.54609e-13
-1.54649e-13
-1.54218e-13
-1.54253e-13
-1.54768e-13
-1.54804e-13
-1.54753e-13
-1.55323e-13
-1.55127e-13
-1.55164e-13
-1.55478e-13
-1.55236e-13
-1.55186e-13
-1.55064e-13
-1.55397e-13
-1.55598e-13
-1.55425e-13
-1.55621e-13
-1.55766e-13
-1.55841e-13
-1.56052e-13
-1.56293e-13
-1.56048e-13
-1.56417e-13
-1.56783e-13
-1.56773e-13
-1.56969e-13
-1.56875e-13
-1.56826e-13
-1.57149e-13
-1.57077e-13
-1.5759e-13
-1.58207e-13
-1.57415e-13
-1.57498e-13
-1.57893e-13
-1.57419e-13
-1.57363e-13
-1.57567e-13
-1.57611e-13
-1.57849e-13
-1.5812e-13
-1.58006e-13
-1.57883e-13
-1.5802e-13
-1.57872e-13
-1.57654e-13
-1.57379e-13
-1.57463e-13
-1.57667e-13
-1.57277e-13
-1.5668e-13
-1.56422e-13
-1.56545e-13
-1.56317e-13
-1.56058e-13
-1.55738e-13
-1.56244e-13
-1.5553e-13
-1.54822e-13
-1.55008e-13
-1.54539e-13
-1.53681e-13
-1.53369e-13
-1.53401e-13
-1.53104e-13
-1.53166e-13
-1.52478e-13
-1.5166e-13
-1.51643e-13
-1.51574e-13
-1.50954e-13
-1.50671e-13
-1.50533e-13
-1.49783e-13
-1.49493e-13
-1.48937e-13
-1.48751e-13
-1.48619e-13
-1.47527e-13
-1.4711e-13
-1.47435e-13
-1.47517e-13
-1.46079e-13
-1.45389e-13
-1.45334e-13
-1.44808e-13
-1.44319e-13
-1.43774e-13
-1.44005e-13
-1.43583e-13
-1.43094e-13
-1.4231e-13
-1.41883e-13
-1.41759e-13
-1.41184e-13
-1.40304e-13
-1.39815e-13
-1.40073e-13
-1.39077e-13
-1.38447e-13
-1.37902e-13
-1.37288e-13
-1.37501e-13
-1.36799e-13
-1.35265e-13
-1.34926e-13
-1.35495e-13
-1.33976e-13
-1.32778e-13
-1.3201e-13
-1.30994e-13
-1.30138e-13
-1.29137e-13
-1.28136e-13
-1.27431e-13
-1.26745e-13
-1.2537e-13
-1.24312e-13
-1.23523e-13
-1.22448e-13
-1.213e-13
-1.19939e-13
-1.19108e-13
-1.18163e-13
-1.16737e-13
-1.15248e-13
-1.14269e-13
-1.13423e-13
-1.12353e-13
-1.1086e-13
-1.09146e-13
-1.08553e-13
-1.0789e-13
-1.06072e-13
-1.04523e-13
-1.03585e-13
-1.02634e-13
-1.00978e-13
-9.97563e-14
-9.90079e-14
-9.76472e-14
-9.64456e-14
-9.52372e-14
-9.40999e-14
-9.27302e-14
-9.13161e-14
-9.01152e-14
-8.82128e-14
-8.68314e-14
-8.61561e-14
-8.4228e-14
-8.22571e-14
-8.1574e-14
-8.00894e-14
-7.80125e-14
-7.65149e-14
-7.56667e-14
-7.4298e-14
-7.28667e-14
-7.08523e-14
-6.88605e-14
-6.80008e-14
-6.68183e-14
-6.45056e-14
-6.26395e-14
-6.09759e-14
-5.91688e-14
-5.68484e-14
-5.45025e-14
-5.19655e-14
-4.82778e-14
-4.75274e-14
-5.07466e-14
-5.40254e-14
-5.67974e-14
-5.92016e-14
-6.11285e-14
-6.29677e-14
-6.45563e-14
-6.61387e-14
-6.75647e-14
-6.87794e-14
-7.02422e-14
-7.14722e-14
-7.26848e-14
-7.38297e-14
-7.49802e-14
-7.61424e-14
-7.72708e-14
-7.83546e-14
-7.96085e-14
-8.09459e-14
-8.21431e-14
-8.31943e-14
-8.43806e-14
-8.55573e-14
-8.65591e-14
-8.77318e-14
-8.89239e-14
-8.99083e-14
-9.10685e-14
-9.22884e-14
-9.33009e-14
-9.42944e-14
-9.52608e-14
-9.62492e-14
-9.72967e-14
-9.8084e-14
-9.89823e-14
-1.00042e-13
-1.01008e-13
-1.01731e-13
-1.02663e-13
-1.03468e-13
-1.04468e-13
-1.05488e-13
-1.06338e-13
-1.07251e-13
-1.08165e-13
-1.08896e-13
-1.09942e-13
-1.10883e-13
-1.11837e-13
-1.12826e-13
-1.13832e-13
-1.14727e-13
-1.15822e-13
-1.16781e-13
-1.17674e-13
-1.18488e-13
-1.19355e-13
-1.20413e-13
-1.21436e-13
-1.22357e-13
-1.23362e-13
-1.24422e-13
-1.25215e-13
-1.26089e-13
-1.26996e-13
-1.27758e-13
-1.28473e-13
-1.2929e-13
-1.30207e-13
-1.30847e-13
-1.3176e-13
-1.32685e-13
-1.33488e-13
-1.34189e-13
-1.34827e-13
-1.35638e-13
-1.36486e-13
-1.37005e-13
-1.37545e-13
-1.38163e-13
-1.38908e-13
-1.39519e-13
-1.40092e-13
-1.40751e-13
-1.41327e-13
-1.4164e-13
-1.42214e-13
-1.4271e-13
-1.42933e-13
-1.43337e-13
-1.43896e-13
-1.44159e-13
-1.44304e-13
-1.44412e-13
-1.44635e-13
-1.44688e-13
-1.44924e-13
-1.45133e-13
-1.45213e-13
-1.45197e-13
-1.45203e-13
-1.45402e-13
-1.45558e-13
-1.45528e-13
-1.456e-13
-1.45537e-13
-1.45407e-13
-1.45234e-13
-1.44973e-13
-1.45122e-13
-1.44789e-13
-1.44695e-13
-1.44666e-13
-1.4461e-13
-1.4454e-13
-1.44655e-13
-1.44505e-13
-1.44436e-13
-1.44348e-13
-1.44357e-13
-1.44305e-13
-1.44204e-13
-1.43833e-13
-1.43742e-13
-1.43199e-13
-1.43138e-13
-1.43244e-13
-1.4294e-13
-1.42612e-13
-1.42397e-13
-1.42051e-13
-1.41585e-13
-1.41302e-13
-1.40999e-13
-1.40717e-13
-1.40346e-13
-1.39825e-13
-1.39424e-13
-1.39048e-13
-1.38718e-13
-1.38e-13
-1.37228e-13
-1.36783e-13
-1.36325e-13
-1.35514e-13
-1.35018e-13
-1.3455e-13
-1.339e-13
-1.3339e-13
-1.32661e-13
-1.32076e-13
-1.31642e-13
-1.31098e-13
-1.30606e-13
-1.30256e-13
-1.29757e-13
-1.2931e-13
-1.2865e-13
-1.27976e-13
-1.2719e-13
-1.26576e-13
-1.26068e-13
-1.25494e-13
-1.25187e-13
-1.24782e-13
-1.24368e-13
-1.23842e-13
-1.2317e-13
-1.22815e-13
-1.22278e-13
-1.2158e-13
-1.20996e-13
-1.20499e-13
-1.19992e-13
-1.19534e-13
-1.19139e-13
-1.18936e-13
-1.18515e-13
-1.17873e-13
-1.17811e-13
-1.17356e-13
-1.16688e-13
-1.1625e-13
-1.15879e-13
-1.15284e-13
-1.15123e-13
-1.14849e-13
-1.14586e-13
-1.14652e-13
-1.1468e-13
-1.14535e-13
-1.14451e-13
-1.1395e-13
-1.13778e-13
-1.13814e-13
-1.13479e-13
-1.13362e-13
-1.13656e-13
-1.13772e-13
-1.13999e-13
-1.14595e-13
-1.14958e-13
-1.14885e-13
-1.14839e-13
-1.14996e-13
-1.15272e-13
-1.15722e-13
-1.15936e-13
-1.16306e-13
-1.16779e-13
-1.16927e-13
-1.17296e-13
-1.17875e-13
-1.18412e-13
-1.18962e-13
-1.19564e-13
-1.20033e-13
-1.20615e-13
-1.21058e-13
-1.21474e-13
-1.21882e-13
-1.22292e-13
-1.22891e-13
-1.23383e-13
-1.23657e-13
-1.24156e-13
-1.2477e-13
-1.25093e-13
-1.25314e-13
-1.2593e-13
-1.26284e-13
-1.26817e-13
-1.27251e-13
-1.27839e-13
-1.28465e-13
-1.28942e-13
-1.29176e-13
-1.29922e-13
-1.30446e-13
-1.30783e-13
-1.31547e-13
-1.31992e-13
-1.32776e-13
-1.32852e-13
-1.33022e-13
-1.33697e-13
-1.3425e-13
-1.34409e-13
-1.3495e-13
-1.3517e-13
-1.35565e-13
-1.36082e-13
-1.35941e-13
-1.36264e-13
-1.3679e-13
-1.36817e-13
-1.36789e-13
-1.37423e-13
-1.37847e-13
-1.38129e-13
-1.38368e-13
-1.38555e-13
-1.39029e-13
-1.39789e-13
-1.40279e-13
-1.40408e-13
-1.41108e-13
-1.41619e-13
-1.41998e-13
-1.42532e-13
-1.427e-13
-1.43041e-13
-1.44086e-13
-1.44287e-13
-1.4449e-13
-1.45441e-13
-1.45936e-13
-1.46393e-13
-1.46786e-13
-1.47454e-13
-1.48105e-13
-1.48489e-13
-1.4914e-13
-1.49836e-13
-1.50072e-13
-1.50632e-13
-1.51131e-13
-1.5117e-13
-1.51779e-13
-1.52655e-13
-1.52782e-13
-1.53351e-13
-1.53828e-13
-1.53598e-13
-1.53701e-13
-1.54076e-13
-1.54029e-13
-1.54376e-13
-1.55096e-13
-1.54835e-13
-1.55053e-13
-1.55381e-13
-1.5487e-13
-1.55125e-13
-1.55498e-13
-1.55438e-13
-1.55815e-13
-1.5633e-13
-1.5606e-13
-1.55914e-13
-1.56414e-13
-1.56046e-13
-1.55807e-13
-1.55933e-13
-1.55907e-13
-1.55814e-13
-1.55665e-13
-1.55585e-13
-1.55218e-13
-1.55213e-13
-1.54996e-13
-1.54918e-13
-1.54608e-13
-1.54618e-13
-1.54779e-13
-1.54527e-13
-1.54616e-13
-1.54327e-13
-1.54281e-13
-1.5462e-13
-1.54822e-13
-1.54851e-13
-1.55385e-13
-1.54957e-13
-1.55105e-13
-1.5555e-13
-1.55081e-13
-1.55387e-13
-1.55308e-13
-1.55196e-13
-1.55586e-13
-1.55477e-13
-1.55395e-13
-1.55785e-13
-1.55969e-13
-1.55878e-13
-1.56413e-13
-1.56332e-13
-1.56105e-13
-1.5671e-13
-1.56887e-13
-1.56913e-13
-1.57062e-13
-1.56948e-13
-1.56945e-13
-1.57028e-13
-1.57635e-13
-1.58101e-13
-1.57559e-13
-1.57504e-13
-1.57689e-13
-1.57326e-13
-1.57482e-13
-1.57748e-13
-1.57496e-13
-1.57824e-13
-1.58085e-13
-1.58009e-13
-1.58079e-13
-1.57913e-13
-1.57828e-13
-1.57836e-13
-1.57513e-13
-1.57306e-13
-1.57663e-13
-1.57139e-13
-1.56663e-13
-1.56698e-13
-1.56556e-13
-1.56094e-13
-1.5603e-13
-1.55951e-13
-1.55983e-13
-1.55578e-13
-1.5522e-13
-1.54859e-13
-1.54299e-13
-1.53972e-13
-1.5346e-13
-1.53048e-13
-1.53201e-13
-1.5297e-13
-1.52548e-13
-1.52063e-13
-1.5162e-13
-1.51485e-13
-1.51042e-13
-1.50532e-13
-1.5033e-13
-1.50003e-13
-1.4951e-13
-1.49218e-13
-1.48654e-13
-1.48236e-13
-1.47801e-13
-1.47345e-13
-1.47124e-13
-1.47246e-13
-1.46463e-13
-1.45301e-13
-1.45267e-13
-1.44881e-13
-1.44369e-13
-1.43875e-13
-1.43804e-13
-1.43411e-13
-1.43031e-13
-1.42654e-13
-1.41987e-13
-1.41526e-13
-1.41064e-13
-1.40334e-13
-1.39914e-13
-1.40096e-13
-1.39047e-13
-1.38355e-13
-1.38092e-13
-1.37299e-13
-1.37215e-13
-1.36834e-13
-1.35758e-13
-1.35009e-13
-1.34881e-13
-1.33884e-13
-1.32854e-13
-1.3228e-13
-1.31032e-13
-1.2984e-13
-1.29382e-13
-1.28495e-13
-1.27379e-13
-1.26326e-13
-1.25381e-13
-1.24584e-13
-1.23438e-13
-1.22323e-13
-1.21115e-13
-1.20264e-13
-1.19403e-13
-1.18045e-13
-1.16501e-13
-1.15401e-13
-1.14325e-13
-1.132e-13
-1.12288e-13
-1.10853e-13
-1.09644e-13
-1.08527e-13
-1.07441e-13
-1.05933e-13
-1.04851e-13
-1.03717e-13
-1.02394e-13
-1.01157e-13
-9.98945e-14
-9.88905e-14
-9.77128e-14
-9.65941e-14
-9.51439e-14
-9.39349e-14
-9.27186e-14
-9.12689e-14
-9.02909e-14
-8.86125e-14
-8.69431e-14
-8.57768e-14
-8.42095e-14
-8.22282e-14
-8.15078e-14
-8.02719e-14
-7.7992e-14
-7.67521e-14
-7.59268e-14
-7.42684e-14
-7.25169e-14
-7.0934e-14
-6.92163e-14
-6.80271e-14
-6.67916e-14
-6.47733e-14
-6.27428e-14
-6.12352e-14
-5.96549e-14
-5.69963e-14
-5.4989e-14
-5.31273e-14
-5.01711e-14
-5.05681e-14
-5.25937e-14
-5.5122e-14
-5.75836e-14
-5.97313e-14
-6.14465e-14
-6.32431e-14
-6.47678e-14
-6.63354e-14
-6.76434e-14
-6.88183e-14
-7.02706e-14
-7.16238e-14
-7.28221e-14
-7.39102e-14
-7.50769e-14
-7.62883e-14
-7.72632e-14
-7.83645e-14
-7.96288e-14
-8.09234e-14
-8.21791e-14
-8.32004e-14
-8.4403e-14
-8.56819e-14
-8.65607e-14
-8.77222e-14
-8.89357e-14
-8.99459e-14
-9.1113e-14
-9.2336e-14
-9.33789e-14
-9.43832e-14
-9.5334e-14
-9.63488e-14
-9.73449e-14
-9.81348e-14
-9.89529e-14
-1.00058e-13
-1.01025e-13
-1.01727e-13
-1.02621e-13
-1.03428e-13
-1.04581e-13
-1.05534e-13
-1.06384e-13
-1.07252e-13
-1.08167e-13
-1.0891e-13
-1.09904e-13
-1.10837e-13
-1.11772e-13
-1.12893e-13
-1.13811e-13
-1.14793e-13
-1.1595e-13
-1.16787e-13
-1.17577e-13
-1.18344e-13
-1.1942e-13
-1.20411e-13
-1.2139e-13
-1.22363e-13
-1.23375e-13
-1.24473e-13
-1.25233e-13
-1.26043e-13
-1.27067e-13
-1.27705e-13
-1.28456e-13
-1.29334e-13
-1.30228e-13
-1.308e-13
-1.31835e-13
-1.32704e-13
-1.33436e-13
-1.34187e-13
-1.34791e-13
-1.35613e-13
-1.36556e-13
-1.37028e-13
-1.37565e-13
-1.38108e-13
-1.38929e-13
-1.39503e-13
-1.4008e-13
-1.40768e-13
-1.41359e-13
-1.41662e-13
-1.4218e-13
-1.42686e-13
-1.4295e-13
-1.43298e-13
-1.43895e-13
-1.44299e-13
-1.44395e-13
-1.44355e-13
-1.44643e-13
-1.44701e-13
-1.45079e-13
-1.4507e-13
-1.45059e-13
-1.45146e-13
-1.45198e-13
-1.45382e-13
-1.45618e-13
-1.45627e-13
-1.45633e-13
-1.45497e-13
-1.45368e-13
-1.45223e-13
-1.44868e-13
-1.45133e-13
-1.44717e-13
-1.44667e-13
-1.44674e-13
-1.44646e-13
-1.44445e-13
-1.44617e-13
-1.44634e-13
-1.44478e-13
-1.44241e-13
-1.44336e-13
-1.44264e-13
-1.44189e-13
-1.4383e-13
-1.43738e-13
-1.43091e-13
-1.43077e-13
-1.43385e-13
-1.4293e-13
-1.42507e-13
-1.42312e-13
-1.42225e-13
-1.41774e-13
-1.41254e-13
-1.4104e-13
-1.40688e-13
-1.40311e-13
-1.39897e-13
-1.39305e-13
-1.39183e-13
-1.38669e-13
-1.3793e-13
-1.37349e-13
-1.36775e-13
-1.36143e-13
-1.35616e-13
-1.35188e-13
-1.34515e-13
-1.33852e-13
-1.33348e-13
-1.32588e-13
-1.32098e-13
-1.31625e-13
-1.31101e-13
-1.30606e-13
-1.30379e-13
-1.29805e-13
-1.29234e-13
-1.28582e-13
-1.28026e-13
-1.27326e-13
-1.26492e-13
-1.25924e-13
-1.25394e-13
-1.25281e-13
-1.24885e-13
-1.24286e-13
-1.23654e-13
-1.23182e-13
-1.22836e-13
-1.22375e-13
-1.2162e-13
-1.21051e-13
-1.20557e-13
-1.19983e-13
-1.19635e-13
-1.19103e-13
-1.18794e-13
-1.18499e-13
-1.17913e-13
-1.1778e-13
-1.17358e-13
-1.16742e-13
-1.16269e-13
-1.15711e-13
-1.1527e-13
-1.15033e-13
-1.14766e-13
-1.14734e-13
-1.14763e-13
-1.14637e-13
-1.14574e-13
-1.14472e-13
-1.13789e-13
-1.13737e-13
-1.13953e-13
-1.13484e-13
-1.132e-13
-1.13674e-13
-1.13833e-13
-1.13884e-13
-1.14605e-13
-1.1487e-13
-1.14756e-13
-1.15057e-13
-1.15132e-13
-1.15155e-13
-1.15775e-13
-1.1594e-13
-1.16346e-13
-1.16825e-13
-1.16828e-13
-1.17464e-13
-1.17851e-13
-1.18455e-13
-1.18896e-13
-1.19397e-13
-1.20033e-13
-1.20657e-13
-1.2109e-13
-1.21553e-13
-1.21779e-13
-1.22282e-13
-1.2302e-13
-1.23332e-13
-1.23726e-13
-1.24024e-13
-1.24789e-13
-1.25131e-13
-1.25236e-13
-1.26025e-13
-1.26401e-13
-1.27017e-13
-1.27172e-13
-1.27622e-13
-1.28596e-13
-1.29021e-13
-1.29168e-13
-1.29874e-13
-1.30408e-13
-1.30901e-13
-1.31343e-13
-1.32068e-13
-1.32873e-13
-1.32926e-13
-1.33102e-13
-1.33521e-13
-1.34083e-13
-1.34477e-13
-1.35042e-13
-1.35259e-13
-1.35528e-13
-1.36142e-13
-1.36204e-13
-1.36138e-13
-1.36796e-13