/*--------------------------------*- C++ -*----------------------------------*\
| =========                 |                                                 |
| \\      /  F ield         | OpenFOAM: The Open Source CFD Toolbox           |
|  \\    /   O peration     | Version:  2112                                  |
|   \\  /    A nd           | Website:  www.openfoam.com                      |
|    \\/     M anipulation  |                                                 |
\*---------------------------------------------------------------------------*/
FoamFile
{
    version     2.0;
    format      ascii;
    arch        "LSB;label=32;scalar=64";
    class       volScalarField;
    location    "10";
    object      p;
}
// * * * * * * * * * * * * * * * * * * * * * * * * * * * * * * * * * * * * * //

dimensions      [0 2 -2 0 0 0 0];

internalField   nonuniform List<scalar> 
25600
(
1.05622e-16
2.08677e-15
1.97819e-15
1.78448e-15
1.78485e-15
2.11156e-15
2.54881e-15
2.99047e-15
3.59969e-15
4.37588e-15
5.22676e-15
6.01541e-15
6.59902e-15
7.34897e-15
8.22623e-15
9.14567e-15
1.01669e-14
1.13638e-14
1.26295e-14
1.36597e-14
1.46087e-14
1.56586e-14
1.66415e-14
1.74828e-14
1.82597e-14
1.87838e-14
1.92512e-14
2.00997e-14
2.08036e-14
2.11704e-14
2.14264e-14
2.19063e-14
2.27383e-14
2.33447e-14
2.37978e-14
2.41844e-14
2.44316e-14
2.51224e-14
2.56641e-14
2.58021e-14
2.64215e-14
2.68768e-14
2.74784e-14
2.81622e-14
2.85008e-14
2.92603e-14
2.9847e-14
3.05195e-14
3.13428e-14
3.21726e-14
3.32026e-14
3.35344e-14
3.41717e-14
3.49056e-14
3.54942e-14
3.66129e-14
3.71936e-14
3.77586e-14
3.83863e-14
3.89273e-14
4.00094e-14
4.02955e-14
4.10113e-14
4.15621e-14
4.21231e-14
4.34264e-14
4.3996e-14
4.45716e-14
4.5153e-14
4.56575e-14
4.68057e-14
4.76681e-14
4.84676e-14
4.91434e-14
4.97437e-14
5.10978e-14
5.20185e-14
5.22783e-14
5.2949e-14
5.34268e-14
5.45969e-14
5.57217e-14
5.6017e-14
5.65589e-14
5.71835e-14
5.80902e-14
5.88898e-14
5.94298e-14
5.96071e-14
5.96875e-14
6.06701e-14
6.14144e-14
6.15559e-14
6.16907e-14
6.24779e-14
6.32828e-14
6.32172e-14
6.32798e-14
6.31294e-14
6.3457e-14
6.43595e-14
6.43184e-14
6.47572e-14
6.45272e-14
6.43893e-14
6.46876e-14
6.49913e-14
6.45949e-14
6.40635e-14
6.41521e-14
6.42648e-14
6.51279e-14
6.41132e-14
6.35637e-14
6.42842e-14
6.48726e-14
6.55261e-14
6.50675e-14
6.4321e-14
6.48334e-14
6.58227e-14
6.64133e-14
6.5905e-14
6.50264e-14
6.53941e-14
6.63282e-14
6.6854e-14
6.59006e-14
6.49516e-14
6.54349e-14
6.59552e-14
6.60115e-14
6.50365e-14
6.43897e-14
6.46944e-14
6.47138e-14
6.50713e-14
6.48079e-14
6.42246e-14
6.47506e-14
6.53851e-14
6.56742e-14
6.51141e-14
6.46915e-14
6.49668e-14
6.48956e-14
6.50932e-14
6.45231e-14
6.42673e-14
6.40811e-14
6.36167e-14
6.43461e-14
6.40656e-14
6.29137e-14
6.22707e-14
6.20508e-14
6.23672e-14
6.19758e-14
6.08965e-14
6.01948e-14
5.94842e-14
6.01254e-14
5.91249e-14
5.7683e-14
5.78763e-14
5.6598e-14
5.60646e-14
5.53784e-14
5.35853e-14
5.28458e-14
5.20569e-14
5.16901e-14
5.01744e-14
4.89077e-14
4.82927e-14
4.72514e-14
4.63338e-14
4.43887e-14
4.4237e-14
4.34273e-14
4.18117e-14
4.21803e-14
4.05999e-14
3.91275e-14
3.8513e-14
3.70197e-14
3.76284e-14
3.68031e-14
3.56259e-14
3.62468e-14
3.50762e-14
3.47613e-14
3.45228e-14
3.32507e-14
3.35686e-14
3.34461e-14
3.3627e-14
3.31648e-14
3.2273e-14
3.33119e-14
3.27371e-14
3.26814e-14
3.18231e-14
3.07061e-14
3.17828e-14
3.18593e-14
3.12306e-14
2.98741e-14
2.9443e-14
3.02351e-14
3.03847e-14
3.00178e-14
2.77959e-14
2.88841e-14
3.01005e-14
2.75457e-14
2.81175e-14
2.84863e-14
2.79555e-14
2.75631e-14
2.48345e-14
2.56434e-14
2.68283e-14
2.65034e-14
2.61743e-14
2.33719e-14
2.43233e-14
2.50015e-14
2.42974e-14
2.48918e-14
2.34508e-14
2.42986e-14
2.42241e-14
2.35126e-14
2.44487e-14
2.28692e-14
2.27042e-14
2.25306e-14
2.23798e-14
2.37625e-14
2.22449e-14
2.28806e-14
2.26761e-14
2.20588e-14
2.36418e-14
2.18087e-14
2.09059e-14
2.07523e-14
2.12831e-14
2.23132e-14
2.00706e-14
2.06605e-14
2.12755e-14
2.07963e-14
2.095e-14
1.84619e-14
1.94757e-14
1.96177e-14
1.89189e-14
2.01563e-14
1.83882e-14
1.83719e-14
1.83483e-14
1.7858e-14
1.82686e-14
1.6414e-14
1.67262e-14
1.70052e-14
1.68665e-14
1.74835e-14
1.57058e-14
1.56125e-14
1.5404e-14
1.54617e-14
1.62191e-14
1.47499e-14
1.50895e-14
1.55318e-14
1.4854e-14
1.59105e-14
1.49713e-14
1.48537e-14
1.52018e-14
1.51262e-14
1.60002e-14
1.47061e-14
1.38569e-14
1.43257e-14
1.4771e-14
1.43019e-14
1.20989e-14
1.19587e-14
1.22125e-14
1.18835e-14
1.10701e-14
9.38833e-15
9.46795e-15
9.44707e-15
9.48339e-15
8.66916e-15
6.98174e-15
7.23431e-15
7.1522e-15
7.96901e-15
7.39957e-15
5.44511e-15
4.86631e-15
3.94679e-15
4.44419e-15
3.49985e-15
2.80173e-15
3.14986e-15
1.47221e-15
1.75413e-15
1.74089e-15
7.21738e-16
1.28134e-15
7.70863e-16
1.65539e-15
2.61815e-15
1.41827e-15
1.99438e-15
1.75304e-15
1.68835e-15
1.79408e-15
2.12525e-15
2.49703e-15
2.98664e-15
3.58687e-15
4.35778e-15
5.22626e-15
5.95806e-15
6.60265e-15
7.37603e-15
8.22029e-15
9.18927e-15
1.01898e-14
1.13624e-14
1.26251e-14
1.36568e-14
1.46565e-14
1.57439e-14
1.66944e-14
1.74348e-14
1.82089e-14
1.881e-14
1.93766e-14
2.01386e-14
2.07851e-14
2.11547e-14
2.14641e-14
2.19483e-14
2.27584e-14
2.33314e-14
2.37767e-14
2.41747e-14
2.4434e-14
2.50499e-14
2.56215e-14
2.58766e-14
2.64116e-14
2.68537e-14
2.74631e-14
2.81125e-14
2.86254e-14
2.91841e-14
2.98283e-14
3.05213e-14
3.13669e-14
3.21526e-14
3.3097e-14
3.36605e-14
3.42044e-14
3.49526e-14
3.56547e-14
3.64811e-14
3.71625e-14
3.77551e-14
3.83802e-14
3.9005e-14
3.99021e-14
4.03183e-14
4.10147e-14
4.15235e-14
4.21743e-14
4.33699e-14
4.3983e-14
4.45667e-14
4.51769e-14
4.57231e-14
4.67658e-14
4.7609e-14
4.84775e-14
4.90574e-14
4.99013e-14
5.10271e-14
5.18498e-14
5.24142e-14
5.29609e-14
5.35452e-14
5.45125e-14
5.55019e-14
5.60348e-14
5.66576e-14
5.7335e-14
5.80937e-14
5.85482e-14
5.93147e-14
5.99197e-14
5.99532e-14
6.0582e-14
6.10803e-14
6.1528e-14
6.19901e-14
6.25106e-14
6.29934e-14
6.31934e-14
6.33092e-14
6.34336e-14
6.3591e-14
6.3944e-14
6.43509e-14
6.47381e-14
6.47387e-14
6.4477e-14
6.4574e-14
6.48497e-14
6.47088e-14
6.42248e-14
6.41072e-14
6.4321e-14
6.47278e-14
6.42075e-14
6.39815e-14
6.42746e-14
6.46477e-14
6.53347e-14
6.52451e-14
6.45082e-14
6.47673e-14
6.57647e-14
6.6155e-14
6.59342e-14
6.53464e-14
6.54972e-14
6.61707e-14
6.66589e-14
6.59646e-14
6.52532e-14
6.54647e-14
6.58084e-14
6.59129e-14
6.52009e-14
6.45175e-14
6.45739e-14
6.47114e-14
6.50127e-14
6.48644e-14
6.42798e-14
6.47327e-14
6.54186e-14
6.56402e-14
6.51613e-14
6.47347e-14
6.49225e-14
6.5008e-14
6.49441e-14
6.43385e-14
6.42861e-14
6.42601e-14
6.38892e-14
6.40549e-14
6.37146e-14
6.30521e-14
6.24559e-14
6.22383e-14
6.22282e-14
6.17881e-14
6.10104e-14
6.02686e-14
5.97503e-14
5.99014e-14
5.89898e-14
5.78877e-14
5.76425e-14
5.67803e-14
5.59103e-14
5.51257e-14
5.38395e-14
5.29464e-14
5.22482e-14
5.14038e-14
5.01541e-14
4.88858e-14
4.80428e-14
4.74692e-14
4.62792e-14
4.47754e-14
4.40972e-14
4.3052e-14
4.22666e-14
4.19818e-14
4.05423e-14
3.91056e-14
3.83396e-14
3.7509e-14
3.73864e-14
3.6832e-14
3.58246e-14
3.58e-14
3.52518e-14
3.47309e-14
3.42866e-14
3.37379e-14
3.33389e-14
3.33657e-14
3.33284e-14
3.32659e-14
3.30259e-14
3.28898e-14
3.26174e-14
3.24409e-14
3.19164e-14
3.15205e-14
3.1418e-14
3.13419e-14
3.10513e-14
3.03481e-14
3.00096e-14
2.99079e-14
2.97499e-14
2.98399e-14
2.86055e-14
2.89072e-14
2.94096e-14
2.82737e-14
2.84185e-14
2.78861e-14
2.75103e-14
2.73335e-14
2.56651e-14
2.60556e-14
2.62852e-14
2.60603e-14
2.59689e-14
2.41235e-14
2.44584e-14
2.47864e-14
2.4302e-14
2.44973e-14
2.37127e-14
2.42174e-14
2.41189e-14
2.36795e-14
2.40848e-14
2.32412e-14
2.2869e-14
2.22371e-14
2.22938e-14
2.34263e-14
2.26693e-14
2.2959e-14
2.26395e-14
2.22028e-14
2.30434e-14
2.16954e-14
2.1225e-14
2.11014e-14
2.12852e-14
2.1821e-14
2.02912e-14
2.07272e-14
2.13021e-14
2.09564e-14
2.04795e-14
1.86817e-14
1.95894e-14
1.97094e-14
1.90729e-14
1.96801e-14
1.86221e-14
1.8615e-14
1.82296e-14
1.78912e-14
1.79159e-14
1.66781e-14
1.71148e-14
1.68892e-14
1.6606e-14
1.724e-14
1.59418e-14
1.57796e-14
1.52929e-14
1.53758e-14
1.61161e-14
1.48857e-14
1.52211e-14
1.52281e-14
1.5049e-14
1.5956e-14
1.49734e-14
1.51422e-14
1.49517e-14
1.49807e-14
1.58325e-14
1.45956e-14
1.42312e-14
1.45403e-14
1.44483e-14
1.40357e-14
1.23167e-14
1.22684e-14
1.21742e-14
1.13784e-14
1.11259e-14
9.8923e-15
9.28421e-15
9.59035e-15
8.97068e-15
8.66636e-15
7.5339e-15
7.15519e-15
7.35777e-15
7.63157e-15
7.04355e-15
5.41105e-15
5.00906e-15
4.47396e-15
4.21821e-15
3.48419e-15
2.76012e-15
3.00382e-15
1.92782e-15
1.50409e-15
1.49117e-15
1.08153e-15
1.2117e-15
7.92181e-16
1.3198e-15
2.32485e-15
1.41006e-15
1.71717e-15
1.67558e-15
1.61929e-15
1.77964e-15
2.15789e-15
2.49382e-15
2.98467e-15
3.59259e-15
4.39858e-15
5.28564e-15
5.96859e-15
6.60247e-15
7.37286e-15
8.18078e-15
9.18988e-15
1.02655e-14
1.13441e-14
1.26663e-14
1.36813e-14
1.47772e-14
1.57092e-14
1.67204e-14
1.74202e-14
1.82433e-14
1.88816e-14
1.94408e-14
2.0232e-14
2.08154e-14
2.11381e-14
2.14687e-14
2.20442e-14
2.28036e-14
2.33124e-14
2.37832e-14
2.41158e-14
2.44138e-14
2.49915e-14
2.56331e-14
2.59091e-14
2.63952e-14
2.6842e-14
2.74501e-14
2.80934e-14
2.86036e-14
2.91544e-14
2.98103e-14
3.05019e-14
3.14143e-14
3.21245e-14
3.31067e-14
3.37323e-14
3.42859e-14
3.49682e-14
3.5694e-14
3.64317e-14
3.71592e-14
3.77981e-14
3.83821e-14
3.89565e-14
3.98655e-14
4.03937e-14
4.09864e-14
4.14704e-14
4.22533e-14
4.33484e-14
4.39794e-14
4.45926e-14
4.52084e-14
4.57529e-14
4.67013e-14
4.75794e-14
4.84697e-14
4.90032e-14
4.99959e-14
5.09942e-14
5.17421e-14
5.25546e-14
5.30556e-14
5.34987e-14
5.44633e-14
5.5379e-14
5.60511e-14
5.66831e-14
5.73899e-14
5.81822e-14
5.84152e-14
5.92017e-14
6.00944e-14
6.01156e-14
6.04964e-14
6.09221e-14
6.15555e-14
6.21047e-14
6.25224e-14
6.29678e-14
6.31162e-14
6.3414e-14
6.35474e-14
6.36049e-14
6.38457e-14
6.43838e-14
6.47036e-14
6.48312e-14
6.45271e-14
6.45468e-14
6.47609e-14
6.47554e-14
6.43217e-14
6.41473e-14
6.434e-14
6.44591e-14
6.4231e-14
6.4307e-14
6.42521e-14
6.45394e-14
6.51693e-14
6.52878e-14
6.46868e-14
6.46858e-14
6.56507e-14
6.59566e-14
6.60521e-14
6.56588e-14
6.56121e-14
6.60577e-14
6.6391e-14
6.60208e-14
6.55252e-14
6.55104e-14
6.57166e-14
6.57447e-14
6.53634e-14
6.47248e-14
6.44557e-14
6.45618e-14
6.50236e-14
6.48591e-14
6.43833e-14
6.47746e-14
6.54158e-14
6.56113e-14
6.518e-14
6.47598e-14
6.49879e-14
6.48969e-14
6.48665e-14
6.44564e-14
6.42098e-14
6.42886e-14
6.40596e-14
6.3895e-14
6.34936e-14
6.31193e-14
6.25411e-14
6.24511e-14
6.2161e-14
6.1636e-14
6.10793e-14
6.03435e-14
5.99327e-14
5.97445e-14
5.8874e-14
5.80018e-14
5.75158e-14
5.67919e-14
5.58635e-14
5.49512e-14
5.40518e-14
5.30693e-14
5.22127e-14
5.12679e-14
5.01073e-14
4.88789e-14
4.80564e-14
4.72216e-14
4.61664e-14
4.52198e-14
4.41283e-14
4.28801e-14
4.23855e-14
4.17615e-14
4.0533e-14
3.9173e-14
3.82708e-14
3.77293e-14
3.72516e-14
3.67756e-14
3.59649e-14
3.55984e-14
3.52885e-14
3.46992e-14
3.42333e-14
3.38802e-14
3.32145e-14
3.3224e-14
3.31824e-14
3.3409e-14
3.33863e-14
3.26866e-14
3.25529e-14
3.24309e-14
3.19344e-14
3.18588e-14
3.1287e-14
3.10253e-14
3.09701e-14
3.06117e-14
3.02707e-14
2.98158e-14
2.93725e-14
2.97655e-14
2.91381e-14
2.89348e-14
2.90185e-14
2.86968e-14
2.85577e-14
2.75911e-14
2.72021e-14
2.71144e-14
2.62568e-14
2.62612e-14
2.59592e-14
2.58058e-14
2.58058e-14
2.46455e-14
2.45337e-14
2.45496e-14
2.42421e-14
2.42939e-14
2.39159e-14
2.42574e-14
2.40879e-14
2.3702e-14
2.37959e-14
2.33472e-14
2.29074e-14
2.22318e-14
2.22899e-14
2.31763e-14
2.27609e-14
2.29327e-14
2.27773e-14
2.23779e-14
2.25801e-14
2.15693e-14
2.14449e-14
2.13501e-14
2.11912e-14
2.15287e-14
2.06769e-14
2.08115e-14
2.11865e-14
2.07965e-14
2.01692e-14
1.91578e-14
1.96199e-14
1.95969e-14
1.90857e-14
1.94623e-14
1.90355e-14
1.88271e-14
1.79644e-14
1.77118e-14
1.77387e-14
1.70943e-14
1.73464e-14
1.6798e-14
1.64352e-14
1.70281e-14
1.6089e-14
1.5872e-14
1.53239e-14
1.52541e-14
1.59763e-14
1.49922e-14
1.53161e-14
1.5115e-14
1.51818e-14
1.59579e-14
1.50537e-14
1.52932e-14
1.49424e-14
1.48352e-14
1.5622e-14
1.46658e-14
1.44113e-14
1.46514e-14
1.41825e-14
1.38665e-14
1.25658e-14
1.23546e-14
1.19929e-14
1.12904e-14
1.12865e-14
1.01157e-14
9.24729e-15
9.49703e-15
8.73682e-15
8.66506e-15
7.88123e-15
7.31024e-15
7.44767e-15
7.2902e-15
6.77818e-15
5.44424e-15
5.16766e-15
4.81773e-15
4.0247e-15
3.56175e-15
2.66897e-15
3.07449e-15
2.36085e-15
1.28856e-15
1.45366e-15
1.25431e-15
1.16592e-15
9.11516e-16
1.13602e-15
1.80379e-15
1.28355e-15
1.50198e-15
1.60801e-15
1.57333e-15
1.78495e-15
2.15062e-15
2.50891e-15
2.96747e-15
3.5873e-15
4.40987e-15
5.36649e-15
5.96842e-15
6.59863e-15
7.38948e-15
8.15834e-15
9.12974e-15
1.03064e-14
1.13483e-14
1.27095e-14
1.3754e-14
1.48921e-14
1.57495e-14
1.66911e-14
1.75222e-14
1.83077e-14
1.89653e-14
1.95323e-14
2.02656e-14
2.07561e-14
2.10932e-14
2.1525e-14
2.21105e-14
2.28439e-14
2.3428e-14
2.38299e-14
2.40358e-14
2.44332e-14
2.49459e-14
2.56382e-14
2.58598e-14
2.63919e-14
2.69143e-14
2.74182e-14
2.80259e-14
2.85497e-14
2.91552e-14
2.98144e-14
3.04904e-14
3.13999e-14
3.21834e-14
3.31492e-14
3.38157e-14
3.43693e-14
3.50047e-14
3.56004e-14
3.63754e-14
3.72169e-14
3.78273e-14
3.83825e-14
3.89498e-14
3.99055e-14
4.03802e-14
4.08667e-14
4.14937e-14
4.21818e-14
4.329e-14
4.42462e-14
4.46321e-14
4.51984e-14
4.57057e-14
4.66463e-14
4.74934e-14
4.8364e-14
4.89935e-14
5.00837e-14
5.10332e-14
5.1802e-14
5.25379e-14
5.3037e-14
5.34046e-14
5.44245e-14
5.5309e-14
5.61186e-14
5.68346e-14
5.73111e-14
5.81479e-14
5.85875e-14
5.93e-14
6.00529e-14
6.01224e-14
6.04199e-14
6.0896e-14
6.15418e-14
6.20005e-14
6.25292e-14
6.30139e-14
6.32179e-14
6.35963e-14
6.34421e-14
6.35722e-14
6.39458e-14
6.43385e-14
6.4757e-14
6.49218e-14
6.46451e-14
6.46494e-14
6.47303e-14
6.45225e-14
6.4403e-14
6.43462e-14
6.42574e-14
6.43258e-14
6.43036e-14
6.42518e-14
6.43625e-14
6.45862e-14
6.49064e-14
6.51841e-14
6.49037e-14
6.47617e-14
6.54708e-14
6.57217e-14
6.62554e-14
6.58816e-14
6.55409e-14
6.60939e-14
6.62719e-14
6.61101e-14
6.56592e-14
6.54098e-14
6.56612e-14
6.57489e-14
6.54756e-14
6.48331e-14
6.44637e-14
6.4371e-14
6.49184e-14
6.48878e-14
6.45803e-14
6.49006e-14
6.53658e-14
6.53551e-14
6.53398e-14
6.48847e-14
6.50553e-14
6.48417e-14
6.45982e-14
6.46487e-14
6.43253e-14
6.41681e-14
6.41501e-14
6.38184e-14
6.35547e-14
6.32018e-14
6.24949e-14
6.25322e-14
6.20847e-14
6.15607e-14
6.11974e-14
6.0444e-14
5.99615e-14
5.96261e-14
5.87852e-14
5.8141e-14
5.74364e-14
5.68068e-14
5.58312e-14
5.50357e-14
5.38917e-14
5.29993e-14
5.22612e-14
5.13819e-14
5.00205e-14
4.89927e-14
4.82677e-14
4.68219e-14
4.60403e-14
4.53273e-14
4.42254e-14
4.30714e-14
4.22361e-14
4.16632e-14
4.05785e-14
3.92487e-14
3.81657e-14
3.77021e-14
3.73098e-14
3.66567e-14
3.5927e-14
3.56422e-14
3.52753e-14
3.46761e-14
3.41439e-14
3.38282e-14
3.32377e-14
3.31252e-14
3.32391e-14
3.35202e-14
3.3321e-14
3.27151e-14
3.25266e-14
3.24784e-14
3.20934e-14
3.18682e-14
3.11564e-14
3.1013e-14
3.10144e-14
3.06116e-14
3.0237e-14
2.98775e-14
2.94216e-14
2.97639e-14
2.92637e-14
2.89313e-14
2.88758e-14
2.88534e-14
2.84993e-14
2.77848e-14
2.71179e-14
2.69351e-14
2.64026e-14
2.62347e-14
2.58194e-14
2.57801e-14
2.57197e-14
2.49108e-14
2.44879e-14
2.41155e-14
2.41823e-14
2.45212e-14
2.4295e-14
2.42283e-14
2.40527e-14
2.34911e-14
2.34281e-14
2.32397e-14
2.3007e-14
2.26836e-14
2.21924e-14
2.28299e-14
2.30623e-14
2.28205e-14
2.27264e-14
2.24956e-14
2.23298e-14
2.17851e-14
2.15269e-14
2.12424e-14
2.11128e-14
2.13937e-14
2.08194e-14
2.09298e-14
2.13036e-14
2.06502e-14
1.98461e-14
1.95582e-14
1.96323e-14
1.95593e-14
1.90407e-14
1.92612e-14
1.94435e-14
1.87925e-14
1.78643e-14
1.77634e-14
1.77673e-14
1.73229e-14
1.71312e-14
1.69349e-14
1.65775e-14
1.66668e-14
1.61095e-14
1.58707e-14
1.55043e-14
1.53227e-14
1.55244e-14
1.52196e-14
1.53333e-14
1.51534e-14
1.52748e-14
1.5597e-14
1.54745e-14
1.53005e-14
1.4965e-14
1.49604e-14
1.52313e-14
1.50582e-14
1.45295e-14
1.43252e-14
1.40357e-14
1.38111e-14
1.3054e-14
1.24111e-14
1.16796e-14
1.12159e-14
1.12967e-14
1.05135e-14
9.39397e-15
9.07177e-15
8.66409e-15
8.67209e-15
8.21192e-15
7.33764e-15
7.32874e-15
7.39023e-15
6.72314e-15
5.82541e-15
5.09386e-15
4.57586e-15
4.11685e-15
3.57136e-15
2.86341e-15
3.24912e-15
2.56167e-15
1.36579e-15
1.2197e-15
1.14388e-15
1.32096e-15
1.12884e-15
1.13664e-15
1.26356e-15
1.33508e-15
1.391e-15
1.40246e-15
1.56857e-15
1.78584e-15
2.09455e-15
2.55493e-15
3.054e-15
3.5888e-15
4.43033e-15
5.41338e-15
5.96349e-15
6.63146e-15
7.38698e-15
8.16734e-15
9.16786e-15
1.02704e-14
1.13572e-14
1.27291e-14
1.3857e-14
1.49641e-14
1.58203e-14
1.6757e-14
1.76504e-14
1.84368e-14
1.90494e-14
1.95641e-14
2.0199e-14
2.06509e-14
2.11201e-14
2.16487e-14
2.22714e-14
2.28838e-14
2.34504e-14
2.38249e-14
2.39424e-14
2.44591e-14
2.49285e-14
2.56087e-14
2.57918e-14
2.6364e-14
2.69356e-14
2.74545e-14
2.79877e-14
2.84813e-14
2.92129e-14
2.98597e-14
3.04582e-14
3.13475e-14
3.22571e-14
3.3053e-14
3.39935e-14
3.43759e-14
3.50562e-14
3.5612e-14
3.63535e-14
3.72785e-14
3.7952e-14
3.83906e-14
3.90368e-14
3.99462e-14
4.04463e-14
4.08411e-14
4.1549e-14
4.20472e-14
4.32561e-14
4.43933e-14
4.46626e-14
4.52409e-14
4.56044e-14
4.65232e-14
4.75529e-14
4.83605e-14
4.90541e-14
5.01679e-14
5.09563e-14
5.18965e-14
5.24302e-14
5.30048e-14
5.34725e-14
5.43813e-14
5.53549e-14
5.60674e-14
5.67768e-14
5.73718e-14
5.80695e-14
5.86916e-14
5.9398e-14
6.0169e-14
6.00131e-14
6.04639e-14
6.0929e-14
6.14771e-14
6.20469e-14
6.25303e-14
6.30218e-14
6.34169e-14
6.37489e-14
6.32783e-14
6.34265e-14
6.4067e-14
6.4343e-14
6.48039e-14
6.50019e-14
6.46934e-14
6.47513e-14
6.46715e-14
6.44673e-14
6.4547e-14
6.45723e-14
6.41165e-14
6.42979e-14
6.42566e-14
6.41288e-14
6.44177e-14
6.46294e-14
6.47804e-14
6.51203e-14
6.5025e-14
6.49081e-14
6.53559e-14
6.56047e-14
6.62875e-14
6.60141e-14
6.55407e-14
6.59656e-14
6.63711e-14
6.62311e-14
6.5702e-14
6.5418e-14
6.56259e-14
6.57766e-14
6.55061e-14
6.48466e-14
6.45323e-14
6.42756e-14
6.47044e-14
6.489e-14
6.47869e-14
6.4936e-14
6.53475e-14
6.51382e-14
6.54099e-14
6.51552e-14
6.50621e-14
6.46503e-14
6.44044e-14
6.47469e-14
6.44589e-14
6.41808e-14
6.41989e-14
6.38311e-14
6.36851e-14
6.32481e-14
6.24693e-14
6.23536e-14
6.19392e-14
6.15342e-14
6.127e-14
6.05668e-14
6.00722e-14
5.96126e-14
5.88565e-14
5.82196e-14
5.73476e-14
5.68207e-14
5.58507e-14
5.49473e-14
5.37916e-14
5.29532e-14
5.24439e-14
5.14649e-14
4.99558e-14
4.91576e-14
4.82613e-14
4.66382e-14
4.60276e-14
4.5184e-14
4.42531e-14
4.32947e-14
4.22431e-14
4.15554e-14
4.05796e-14
3.92296e-14
3.79786e-14
3.75804e-14
3.73336e-14
3.66687e-14
3.58686e-14
3.56436e-14
3.52844e-14
3.46485e-14
3.40712e-14
3.37545e-14
3.33504e-14
3.29722e-14
3.34486e-14
3.34986e-14
3.30979e-14
3.27715e-14
3.25624e-14
3.25752e-14
3.21665e-14
3.17319e-14
3.10453e-14
3.11365e-14
3.10471e-14
3.06791e-14
3.01452e-14
2.9855e-14
2.96846e-14
2.9651e-14
2.93752e-14
2.89141e-14
2.88219e-14
2.89017e-14
2.84906e-14
2.79e-14
2.71375e-14
2.68181e-14
2.65044e-14
2.62875e-14
2.58003e-14
2.57016e-14
2.5502e-14
2.50401e-14
2.451e-14
2.37153e-14
2.43816e-14
2.47483e-14
2.434e-14
2.41888e-14
2.40128e-14
2.33441e-14
2.29891e-14
2.31027e-14
2.3115e-14
2.3026e-14
2.21934e-14
2.26218e-14
2.32238e-14
2.26895e-14
2.27077e-14
2.26099e-14
2.21958e-14
2.19584e-14
2.15409e-14
2.13662e-14
2.12248e-14
2.10403e-14
2.09395e-14
2.10882e-14
2.12866e-14
2.07583e-14
1.98285e-14
1.98279e-14
1.94398e-14
1.94472e-14
1.91791e-14
1.92121e-14
1.92897e-14
1.87517e-14
1.81945e-14
1.7939e-14
1.78071e-14
1.74717e-14
1.68699e-14
1.71282e-14
1.66523e-14
1.64272e-14
1.6204e-14
1.59706e-14
1.55788e-14
1.52923e-14
1.52458e-14
1.55859e-14
1.52719e-14
1.52272e-14
1.54055e-14
1.52839e-14
1.57292e-14
1.53393e-14
1.50617e-14
1.50743e-14
1.48627e-14
1.54103e-14
1.47093e-14
1.40375e-14
1.3893e-14
1.37447e-14
1.33868e-14
1.24491e-14
1.16368e-14
1.13478e-14
1.11659e-14
1.07098e-14
9.39243e-15
8.77459e-15
8.71064e-15
8.662e-15
8.55108e-15
7.36181e-15
7.40451e-15
7.56156e-15
6.5772e-15
6.24219e-15
5.08323e-15
4.30504e-15
4.20568e-15
3.52831e-15
3.37087e-15
3.28443e-15
2.60641e-15
1.79352e-15
9.1045e-16
1.08322e-15
1.41589e-15
1.32419e-15
1.30457e-15
1.20546e-15
1.51886e-15
1.21655e-15
1.2927e-15
1.54513e-15
1.74661e-15
2.06587e-15
2.64851e-15
3.15854e-15
3.59244e-15
4.44342e-15
5.56394e-15
5.9432e-15
6.5543e-15
7.19927e-15
8.20026e-15
9.26249e-15
1.03255e-14
1.15864e-14
1.26529e-14
1.39392e-14
1.50786e-14
1.58171e-14
1.67896e-14
1.78848e-14
1.85788e-14
1.90813e-14
1.96323e-14
2.00679e-14
2.05585e-14
2.11971e-14
2.18362e-14
2.24297e-14
2.28333e-14
2.3448e-14
2.38075e-14
2.39352e-14
2.4569e-14
2.48145e-14
2.55674e-14
2.58175e-14
2.62e-14
2.68277e-14
2.74576e-14
2.80146e-14
2.85384e-14
2.91842e-14
2.99168e-14
3.0485e-14
3.12327e-14
3.23263e-14
3.31084e-14
3.40275e-14
3.42491e-14
3.50563e-14
3.55703e-14
3.64879e-14
3.75068e-14
3.80012e-14
3.83927e-14
3.91081e-14
4.00389e-14
4.05273e-14
4.07918e-14
4.13963e-14
4.21304e-14
4.32368e-14
4.4353e-14
4.48187e-14
4.52497e-14
4.56807e-14
4.64871e-14
4.75445e-14
4.82833e-14
4.91723e-14
5.02122e-14
5.10846e-14
5.19372e-14
5.22215e-14
5.29582e-14
5.34664e-14
5.42167e-14
5.53695e-14
5.60718e-14
5.68586e-14
5.7262e-14
5.80437e-14
5.87102e-14
5.93975e-14
6.01723e-14
6.02117e-14
6.04624e-14
6.09098e-14
6.16559e-14
6.20794e-14
6.25553e-14
6.30238e-14
6.35645e-14
6.38014e-14
6.33097e-14
6.33656e-14
6.40597e-14
6.43905e-14
6.4936e-14
6.50176e-14
6.46141e-14
6.48673e-14
6.46749e-14
6.45362e-14
6.46018e-14
6.47009e-14
6.40736e-14
6.41588e-14
6.42451e-14
6.42476e-14
6.43137e-14
6.43723e-14
6.47581e-14
6.51199e-14
6.5199e-14
6.50778e-14
6.51067e-14
6.55794e-14
6.62736e-14
6.6256e-14
6.56975e-14
6.58287e-14
6.62619e-14
6.63194e-14
6.58675e-14
6.56095e-14
6.54808e-14
6.55755e-14
6.55434e-14
6.49301e-14
6.43715e-14
6.42329e-14
6.47268e-14
6.50204e-14
6.48441e-14
6.49108e-14
6.53684e-14
6.52585e-14
6.53034e-14
6.52515e-14
6.49087e-14
6.4572e-14
6.43928e-14
6.46749e-14
6.43938e-14
6.43859e-14
6.43518e-14
6.39645e-14
6.36442e-14
6.32164e-14
6.24938e-14
6.22636e-14
6.18699e-14
6.15287e-14
6.12846e-14
6.06063e-14
6.00662e-14
5.96255e-14
5.90143e-14
5.82917e-14
5.72665e-14
5.65911e-14
5.5979e-14
5.49987e-14
5.37442e-14
5.29849e-14
5.23723e-14
5.14835e-14
5.01974e-14
4.90664e-14
4.79258e-14
4.66496e-14
4.61293e-14
4.52183e-14
4.42557e-14
4.34413e-14
4.22085e-14
4.1335e-14
4.04854e-14
3.90867e-14
3.81118e-14
3.74413e-14
3.72129e-14
3.68005e-14
3.59027e-14
3.5562e-14
3.50535e-14
3.46864e-14
3.41451e-14
3.36439e-14
3.3296e-14
3.31126e-14
3.33442e-14
3.3201e-14
3.31612e-14
3.28072e-14
3.26053e-14
3.2688e-14
3.20563e-14
3.15224e-14
3.10944e-14
3.11124e-14
3.11513e-14
3.06857e-14
3.00863e-14
2.98998e-14
2.96959e-14
2.97575e-14
2.94859e-14
2.88908e-14
2.87106e-14
2.91011e-14
2.85538e-14
2.78997e-14
2.71299e-14
2.6799e-14
2.67315e-14
2.63836e-14
2.57422e-14
2.55188e-14
2.52988e-14
2.50749e-14
2.4602e-14
2.36991e-14
2.42925e-14
2.47501e-14
2.44763e-14
2.41274e-14
2.37269e-14
2.3355e-14
2.28172e-14
2.30904e-14
2.29629e-14
2.29831e-14
2.23998e-14
2.25518e-14
2.30819e-14
2.26265e-14
2.30762e-14
2.27177e-14
2.19396e-14
2.20805e-14
2.18131e-14
2.15639e-14
2.11993e-14
2.09146e-14
2.11796e-14
2.0988e-14
2.10104e-14
2.08058e-14
2.01108e-14
1.99342e-14
1.94628e-14
1.93649e-14
1.92241e-14
1.91955e-14
1.92918e-14
1.88294e-14
1.83161e-14
1.79603e-14
1.76874e-14
1.76793e-14
1.70512e-14
1.69724e-14
1.66627e-14
1.64125e-14
1.62478e-14
1.6052e-14
1.55948e-14
1.53005e-14
1.53532e-14
1.55082e-14
1.52848e-14
1.53305e-14
1.53829e-14
1.53827e-14
1.57339e-14
1.53381e-14
1.52893e-14
1.51308e-14
1.4797e-14
1.56036e-14
1.48743e-14
1.39505e-14
1.38894e-14
1.38098e-14
1.33457e-14
1.25638e-14
1.17714e-14
1.1547e-14
1.10801e-14
1.04854e-14
9.47898e-15
8.69332e-15
8.62853e-15
8.76268e-15
8.63589e-15
7.98622e-15
7.49662e-15
7.14013e-15
6.60142e-15
6.35431e-15
5.21584e-15
4.33877e-15
4.1688e-15
3.70556e-15
3.38205e-15
3.448e-15
2.88826e-15
2.10965e-15
1.14924e-15
9.32331e-16
1.39872e-15
1.59377e-15
1.30082e-15
1.20405e-15
1.62921e-15
1.20681e-15
1.40627e-15
1.40549e-15
1.80585e-15
2.05054e-15
2.45541e-15
3.45649e-15
3.50609e-15
4.42065e-15
5.78328e-15
5.74696e-15
6.50722e-15
7.12382e-15
8.24664e-15
9.37232e-15
1.03822e-14
1.1641e-14
1.27165e-14
1.38736e-14
1.509e-14
1.58872e-14
1.67679e-14
1.78882e-14
1.87899e-14
1.90681e-14
1.96898e-14
2.006e-14
2.04097e-14
2.1271e-14
2.20182e-14
2.26526e-14
2.28422e-14
2.33374e-14
2.38707e-14
2.38819e-14
2.44614e-14
2.47362e-14
2.55727e-14
2.59155e-14
2.61351e-14
2.6708e-14
2.73528e-14
2.81262e-14
2.84052e-14
2.92813e-14
2.99064e-14
3.04608e-14
3.10933e-14
3.22363e-14
3.31761e-14
3.40799e-14
3.42944e-14
3.5071e-14
3.55699e-14
3.66936e-14
3.75676e-14
3.80651e-14
3.86199e-14
3.91334e-14
4.00653e-14
4.06173e-14
4.07081e-14
4.12805e-14
4.22691e-14
4.32683e-14
4.41582e-14
4.49085e-14
4.53241e-14
4.58129e-14
4.63735e-14
4.7675e-14
4.82827e-14
4.91974e-14
5.0354e-14
5.10284e-14
5.18561e-14
5.20428e-14
5.30407e-14
5.33929e-14
5.40992e-14
5.54065e-14
5.61934e-14
5.69318e-14
5.71418e-14
5.8232e-14
5.86362e-14
5.93851e-14
6.02435e-14
6.04695e-14
6.05337e-14
6.07657e-14
6.17842e-14
6.21797e-14
6.25484e-14
6.29489e-14
6.37644e-14
6.38234e-14
6.34072e-14
6.34141e-14
6.41969e-14
6.43161e-14
6.51025e-14
6.50641e-14
6.43097e-14
6.49249e-14
6.47648e-14
6.47707e-14
6.45495e-14
6.47707e-14
6.4027e-14
6.39948e-14
6.44392e-14
6.4187e-14
6.41533e-14
6.43685e-14
6.47892e-14
6.50058e-14
6.53996e-14
6.52494e-14
6.48026e-14
6.56474e-14
6.63176e-14
6.65536e-14
6.58297e-14
6.57045e-14
6.60062e-14
6.64614e-14
6.59481e-14
6.56462e-14
6.556e-14
6.53538e-14
6.57106e-14
6.50449e-14
6.4184e-14
6.40133e-14
6.47873e-14
6.51937e-14
6.49582e-14
6.48303e-14
6.53164e-14
6.5463e-14
6.53901e-14
6.52688e-14
6.47175e-14
6.45618e-14
6.44198e-14
6.45504e-14
6.44971e-14
6.4465e-14
6.44225e-14
6.40901e-14
6.35468e-14
6.31891e-14
6.25382e-14
6.21845e-14
6.18113e-14
6.15841e-14
6.12133e-14
6.05253e-14
6.00731e-14
5.97696e-14
5.91684e-14
5.82957e-14
5.7187e-14
5.65035e-14
5.59511e-14
5.50354e-14
5.3947e-14
5.30333e-14
5.23724e-14
5.15769e-14
5.04985e-14
4.88218e-14
4.75132e-14
4.66074e-14
4.61443e-14
4.5304e-14
4.42237e-14
4.35859e-14
4.21805e-14
4.13782e-14
4.01592e-14
3.91077e-14
3.82172e-14
3.72886e-14
3.70288e-14
3.67614e-14
3.59754e-14
3.55968e-14
3.47446e-14
3.47442e-14
3.42131e-14
3.36587e-14
3.33116e-14
3.30255e-14
3.33445e-14
3.28755e-14
3.30432e-14
3.30565e-14
3.26918e-14
3.27223e-14
3.17369e-14
3.13313e-14
3.11121e-14
3.11804e-14
3.13186e-14
3.0689e-14
3.00618e-14
2.99772e-14
2.97578e-14
2.97925e-14
2.94727e-14
2.88748e-14
2.86662e-14
2.92991e-14
2.85926e-14
2.79593e-14
2.71264e-14
2.68223e-14
2.67965e-14
2.65028e-14
2.56518e-14
2.52606e-14
2.51541e-14
2.49683e-14
2.46868e-14
2.37107e-14
2.41116e-14
2.49532e-14
2.45385e-14
2.39726e-14
2.35603e-14
2.33655e-14
2.27515e-14
2.29758e-14
2.27795e-14
2.30177e-14
2.25191e-14
2.24115e-14
2.2858e-14
2.26967e-14
2.33492e-14
2.30519e-14
2.18003e-14
2.20081e-14
2.19836e-14
2.18547e-14
2.11659e-14
2.08512e-14
2.14662e-14
2.09722e-14
2.07e-14
2.05925e-14
2.04264e-14
2.00965e-14
1.93326e-14
1.91939e-14
1.92953e-14
1.91726e-14
1.93599e-14
1.89187e-14
1.8522e-14
1.79593e-14
1.7616e-14
1.77501e-14
1.72473e-14
1.69759e-14
1.65122e-14
1.64437e-14
1.6278e-14
1.61747e-14
1.54433e-14
1.53078e-14
1.5608e-14
1.52394e-14
1.53686e-14
1.54511e-14
1.54777e-14
1.55824e-14
1.56641e-14
1.53548e-14
1.54279e-14
1.51705e-14
1.48758e-14
1.5672e-14
1.50623e-14
1.4211e-14
1.38916e-14
1.38149e-14
1.3038e-14
1.26589e-14
1.1906e-14
1.17624e-14
1.10501e-14
1.03095e-14
9.67175e-15
8.75564e-15
8.435e-15
8.79735e-15
8.70965e-15
8.53122e-15
7.70403e-15
6.95937e-15
6.62991e-15
6.37265e-15
5.27899e-15
4.42155e-15
4.03401e-15
3.98378e-15
3.44263e-15
3.53387e-15
3.27308e-15
2.4036e-15
1.34245e-15
7.85577e-16
1.40792e-15
1.79938e-15
1.26003e-15
1.2136e-15
1.72137e-15
1.45123e-15
1.45893e-15
1.43076e-15
1.81462e-15
2.0634e-15
2.48492e-15
3.35752e-15
3.51388e-15
4.43934e-15
5.76989e-15
5.90607e-15
6.32819e-15
6.97668e-15
8.49746e-15
9.29484e-15
1.02457e-14
1.16181e-14
1.2893e-14
1.39717e-14
1.50636e-14
1.59076e-14
1.67789e-14
1.78672e-14
1.88588e-14
1.90839e-14
1.97401e-14
2.01987e-14
2.0402e-14
2.14968e-14
2.21633e-14
2.29003e-14
2.29196e-14
2.33065e-14
2.38422e-14
2.37913e-14
2.43327e-14
2.46323e-14
2.55656e-14
2.59468e-14
2.6246e-14
2.66201e-14
2.72385e-14
2.81074e-14
2.86314e-14
2.93379e-14
2.99523e-14
3.03134e-14
3.09148e-14
3.21693e-14
3.34674e-14
3.40311e-14
3.42568e-14
3.5428e-14
3.5563e-14
3.66417e-14
3.76863e-14
3.79116e-14
3.88403e-14
3.94438e-14
4.0138e-14
4.03146e-14
4.07502e-14
4.13926e-14
4.22511e-14
4.31192e-14
4.41723e-14
4.49553e-14
4.54027e-14
4.57863e-14
4.65777e-14
4.77139e-14
4.8093e-14
4.9385e-14
5.0313e-14
5.10009e-14
5.16969e-14
5.19814e-14
5.29577e-14
5.35509e-14
5.37994e-14
5.55191e-14
5.61733e-14
5.67933e-14
5.7325e-14
5.82189e-14
5.86551e-14
5.95504e-14
6.04549e-14
6.06791e-14
6.06332e-14
6.09178e-14
6.18257e-14
6.19366e-14
6.26049e-14
6.31411e-14
6.38453e-14
6.39146e-14
6.34461e-14
6.35598e-14
6.40747e-14
6.42186e-14
6.50616e-14
6.51771e-14
6.44772e-14
6.46173e-14
6.48811e-14
6.49119e-14
6.46128e-14
6.45991e-14
6.40031e-14
6.41379e-14
6.43933e-14
6.40904e-14
6.4265e-14
6.43683e-14
6.46981e-14
6.50576e-14
6.55174e-14
6.51179e-14
6.48519e-14
6.57501e-14
6.6545e-14
6.64576e-14
6.58158e-14
6.55506e-14
6.63429e-14
6.65837e-14
6.56177e-14
6.55869e-14
6.54851e-14
6.54584e-14
6.56975e-14
6.49714e-14
6.41895e-14
6.41047e-14
6.47913e-14
6.54188e-14
6.48952e-14
6.48661e-14
6.51299e-14
6.55234e-14
6.54828e-14
6.51846e-14
6.46645e-14
6.43584e-14
6.43789e-14
6.45281e-14
6.47264e-14
6.46889e-14
6.41974e-14
6.39085e-14
6.37888e-14
6.3088e-14
6.27429e-14
6.22823e-14
6.18213e-14
6.16549e-14
6.09744e-14
6.04676e-14
6.01844e-14
5.96769e-14
5.9164e-14
5.82588e-14
5.75795e-14
5.64722e-14
5.593e-14
5.50363e-14
5.40043e-14
5.30084e-14
5.25408e-14
5.14613e-14
5.04785e-14
4.88449e-14
4.7384e-14
4.66546e-14
4.61504e-14
4.51918e-14
4.41733e-14
4.33815e-14
4.22704e-14
4.12415e-14
4.01535e-14
3.89786e-14
3.82591e-14
3.7069e-14
3.68648e-14
3.6728e-14
3.61011e-14
3.55995e-14
3.46785e-14
3.45247e-14
3.43599e-14
3.36394e-14
3.3218e-14
3.30891e-14
3.32175e-14
3.29262e-14
3.30915e-14
3.29345e-14
3.27612e-14
3.25144e-14
3.15177e-14
3.13364e-14
3.11092e-14
3.11523e-14