/*--------------------------------*- C++ -*----------------------------------*\
| =========                 |                                                 |
| \\      /  F ield         | OpenFOAM: The Open Source CFD Toolbox           |
|  \\    /   O peration     | Version:  2112                                  |
|   \\  /    A nd           | Website:  www.openfoam.com                      |
|    \\/     M anipulation  |                                                 |
\*---------------------------------------------------------------------------*/
FoamFile
{
    version     2.0;
    format      ascii;
    arch        "LSB;label=32;scalar=64";
    class       surfaceScalarField;
    location    "10";
    object      phi;
}
// * * * * * * * * * * * * * * * * * * * * * * * * * * * * * * * * * * * * * //

dimensions      [0 3 -1 0 0 0 0];

oriented        oriented;

internalField   nonuniform List<scalar> 
99400
(
3.0019e-05
6.79534e-18
3.0019e-05
1.20937e-18
3.0019e-05
2.7463e-19
3.0019e-05
1.43391e-19
3.0019e-05
9.22455e-20
3.0019e-05
4.66939e-20
3.0019e-05
3.88842e-20
3.0019e-05
1.1941e-20
3.0019e-05
6.82707e-21
3.0019e-05
1.45874e-20
3.0019e-05
-1.3075e-20
3.0019e-05
-8.81422e-21
3.0019e-05
-6.29327e-21
3.0019e-05
-2.91894e-21
3.0019e-05
8.95665e-21
3.0019e-05
-5.93948e-21
3.0019e-05
-2.94449e-20
3.0019e-05
-1.98045e-20
3.0019e-05
-1.71188e-21
3.0019e-05
1.14627e-20
3.0019e-05
1.65999e-20
3.0019e-05
6.89783e-21
3.0019e-05
2.50128e-20
3.0019e-05
-1.96274e-21
3.0019e-05
-1.13008e-20
3.0019e-05
-2.34533e-20
3.0019e-05
2.97114e-21
3.0019e-05
4.28613e-20
3.0019e-05
-2.1954e-20
3.0019e-05
-6.80557e-21
3.0019e-05
3.71219e-21
3.0019e-05
-6.83963e-21
3.0019e-05
-8.96869e-21
3.0019e-05
-1.55878e-20
3.0019e-05
-3.33405e-20
3.0019e-05
1.05707e-20
3.0019e-05
-4.07215e-20
3.0019e-05
-2.9138e-20
3.0019e-05
6.89513e-21
3.0019e-05
-1.75003e-20
3.0019e-05
7.15807e-21
3.0019e-05
-1.89066e-20
3.0019e-05
-1.37919e-20
3.0019e-05
1.62374e-20
3.0019e-05
1.51202e-21
3.0019e-05
2.92941e-20
3.0019e-05
3.69324e-20
3.0019e-05
-3.46197e-20
3.0019e-05
-2.03765e-20
3.0019e-05
3.80957e-20
3.0019e-05
1.96366e-20
3.0019e-05
2.89557e-21
3.0019e-05
-3.15961e-20
3.0019e-05
-1.24456e-20
3.0019e-05
3.01674e-20
3.0019e-05
-2.28861e-20
3.0019e-05
4.21723e-20
3.0019e-05
-1.70742e-20
3.0019e-05
-5.6276e-20
3.0019e-05
-1.41659e-21
3.0019e-05
2.06339e-21
3.0019e-05
-1.17458e-20
3.0019e-05
-1.47183e-20
3.0019e-05
1.56332e-20
3.0019e-05
-2.76149e-21
3.0019e-05
2.20087e-20
3.0019e-05
-3.4413e-20
3.0019e-05
-1.75544e-20
3.0019e-05
6.03093e-20
3.0019e-05
-2.22302e-22
3.0019e-05
-2.31414e-20
3.0019e-05
1.24536e-20
3.0019e-05
5.077e-20
3.0019e-05
-2.67499e-20
3.0019e-05
-4.50781e-20
3.0019e-05
1.1294e-19
3.0019e-05
4.38352e-20
3.0019e-05
-6.10599e-20
3.0019e-05
-2.0752e-20
3.0019e-05
4.90321e-20
3.0019e-05
1.26331e-20
3.0019e-05
-3.9196e-20
3.0019e-05
1.09537e-20
3.0019e-05
4.27122e-21
3.0019e-05
-4.87731e-20
3.0019e-05
4.2537e-20
3.0019e-05
3.89263e-21
3.0019e-05
-6.97141e-21
3.0019e-05
-5.52947e-21
3.0019e-05
-1.67721e-20
3.0019e-05
2.5644e-20
3.0019e-05
2.11762e-20
3.0019e-05
2.13605e-20
3.0019e-05
2.60732e-20
3.0019e-05
2.28963e-20
3.0019e-05
-9.16036e-20
3.0019e-05
6.61643e-21
3.0019e-05
1.08905e-19
3.0019e-05
-5.33854e-20
3.0019e-05
-5.41372e-20
3.0019e-05
7.32021e-20
3.0019e-05
4.98919e-20
3.0019e-05
-2.19928e-20
3.0019e-05
-3.24892e-20
3.0019e-05
3.22824e-20
3.0019e-05
-5.02974e-21
3.0019e-05
-2.20217e-20
3.0019e-05
-6.49258e-21
3.0019e-05
3.32974e-20
3.0019e-05
6.9386e-20
3.0019e-05
-5.14646e-20
3.0019e-05
-8.52567e-20
3.0019e-05
-6.45131e-21
3.0019e-05
9.01066e-20
3.0019e-05
4.37744e-20
3.0019e-05
-1.08458e-19
3.0019e-05
-7.07362e-20
3.0019e-05
7.30404e-20
3.0019e-05
7.22231e-20
3.0019e-05
-6.31515e-21
3.0019e-05
-3.09061e-20
3.0019e-05
8.50089e-21
3.0019e-05
6.2244e-20
3.0019e-05
-1.37789e-20
3.0019e-05
-5.78908e-20
3.0019e-05
7.07222e-20
3.0019e-05
3.48712e-20
3.0019e-05
-4.79818e-20
3.0019e-05
4.22352e-20
3.0019e-05
2.57591e-20
3.0019e-05
1.17659e-20
3.0019e-05
-1.45351e-20
3.0019e-05
1.00066e-19
3.0019e-05
-5.80585e-20
3.0019e-05
-7.91469e-20
3.0019e-05
6.08906e-20
3.0019e-05
1.39383e-22
3.0019e-05
-5.76915e-20
3.0019e-05
7.66039e-20
3.0019e-05
5.87694e-20
3.0019e-05
-1.2503e-19
3.0019e-05
-9.06994e-20
3.0019e-05
9.88039e-20
3.0019e-05
1.27371e-19
3.0019e-05
-1.03424e-19
3.0019e-05
-3.08209e-20
3.0019e-05
1.74706e-19
3.0019e-05
-5.07333e-20
3.0019e-05
-1.17629e-19
3.0019e-05
1.12033e-19
3.0019e-05
-6.2639e-20
3.0019e-05
-4.60361e-21
3.0019e-05
1.25836e-19
3.0019e-05
-1.51568e-19
3.0019e-05
-3.67677e-20
3.0019e-05
7.12685e-20
3.0019e-05
-1.03581e-19
3.0019e-05
4.75952e-21
3.0019e-05
1.78039e-20
3.0019e-05
1.20816e-19
3.0019e-05
4.16283e-20
3.0019e-05
-3.26084e-20
3.0019e-05
-2.16559e-20
3.0019e-05
-6.35279e-21
3.0019e-05
-4.05791e-20
3.0019e-05
-1.75361e-20
3.0019e-05
7.14333e-20
3.0019e-05
-1.28783e-19
3.0019e-05
1.14276e-19
3.0019e-05
1.23548e-19
3.0019e-05
-1.47691e-19
3.0019e-05
6.32136e-20
3.0019e-05
1.19385e-19
3.0019e-05
-9.95639e-20
3.0019e-05
-8.47025e-20
3.0019e-05
2.12896e-20
3.0019e-05
1.02942e-19
3.0019e-05
-3.54443e-20
3.0019e-05
-7.67247e-20
3.0019e-05
1.33041e-19
3.0019e-05
-2.0729e-20
3.0019e-05
-7.7454e-20
3.0019e-05
1.4188e-20
3.0019e-05
-5.65079e-20
3.0019e-05
1.00581e-19
3.0019e-05
-2.59388e-20
3.0019e-05
-1.33851e-19
3.0019e-05
1.16322e-21
3.0019e-05
2.19023e-21
3.0019e-05
-2.77662e-20
3.0019e-05
-7.59056e-20
3.0019e-05
-4.22352e-20
3.0019e-05
-1.64469e-20
3.0019e-05
1.53754e-19
3.0019e-05
5.69225e-20
3.0019e-05
-4.00343e-20
3.0019e-05
6.72253e-20
3.0019e-05
-1.35894e-20
3.0019e-05
-1.8187e-19
3.0019e-05
-5.71898e-20
3.0019e-05
5.72309e-20
3.0019e-05
-1.48974e-19
3.0019e-05
1.24694e-19
3.0019e-05
4.15005e-20
3.0019e-05
6.3925e-20
3.0019e-05
9.32592e-20
3.0019e-05
-1.76725e-19
3.0019e-05
-1.18528e-19
3.0019e-05
2.47292e-20
3.0019e-05
-4.09276e-21
3.0019e-05
3.80907e-20
3.0019e-05
1.99183e-20
3.0019e-05
-9.70121e-20
3.0019e-05
1.02025e-19
3.0019e-05
-9.11132e-20
3.0019e-05
5.64456e-23
3.0019e-05
-5.52469e-20
3.0019e-05
-4.16646e-20
3.0019e-05
1.27464e-19
3.0019e-05
9.8403e-20
3.0019e-05
-3.70786e-20
3.0019e-05
-7.9387e-20
3.0019e-05
5.52148e-20
3.0019e-05
-5.54862e-20
3.0019e-05
4.2469e-20
3.0019e-05
-1.20845e-20
3.0019e-05
-3.92598e-21
3.0019e-05
8.17049e-20
3.0019e-05
8.66381e-20
3.0019e-05
-1.58991e-20
3.0019e-05
-1.69012e-20
3.0019e-05
-1.21145e-19
3.0019e-05
-7.6584e-21
3.0019e-05
5.03628e-20
3.0019e-05
-9.97916e-20
3.0019e-05
7.67437e-20
3.0019e-05
2.46603e-20
3.0019e-05
2.66887e-20
3.0019e-05
-4.8928e-20
3.0019e-05
2.33558e-20
3.0019e-05
-6.52969e-21
3.0019e-05
-1.06025e-19
3.0019e-05
2.84208e-20
3.0019e-05
1.79102e-19
3.0019e-05
-4.43412e-20
3.0019e-05
-3.26465e-20
3.0019e-05
1.02944e-19
3.0019e-05
-9.92356e-20
3.0019e-05
6.94547e-21
3.0019e-05
-1.0772e-20
3.0019e-05
-5.02463e-20
3.0019e-05
-1.44137e-20
3.0019e-05
1.69612e-19
3.0019e-05
-3.11989e-20
3.0019e-05
-8.6475e-20
3.0019e-05
1.07706e-19
3.0019e-05
-3.83726e-20
3.0019e-05
-9.29396e-20
3.0019e-05
4.45938e-20
3.0019e-05
-1.0878e-19
3.0019e-05
5.04263e-20
3.0019e-05
2.25508e-19
3.0019e-05
-1.57526e-19
3.0019e-05
7.68546e-20
3.0019e-05
-1.73278e-19
3.0019e-05
-1.5711e-19
3.0019e-05
3.08244e-19
3.0019e-05
-2.01519e-19
3.0019e-05
-1.06822e-19
3.0019e-05
4.51991e-19
3.0019e-05
-2.01146e-19
3.0019e-05
-1.61581e-19
3.0019e-05
1.21597e-19
3.0019e-05
-1.49419e-19
3.0019e-05
1.1778e-19
3.0019e-05
-1.16223e-19
3.0019e-05
-5.25276e-20
3.0019e-05
1.44139e-19
3.0019e-05
9.60309e-20
3.0019e-05
-7.95648e-20
3.0019e-05
-8.12317e-20
3.0019e-05
-1.0513e-19
3.0019e-05
5.61154e-20
3.0019e-05
1.79406e-19
3.0019e-05
-2.29831e-19
3.0019e-05
2.38973e-19
3.0019e-05
3.90902e-20
3.0019e-05
-2.55003e-19
3.0019e-05
2.04497e-19
3.0019e-05
8.4487e-20
3.0019e-05
-2.70114e-19
3.0019e-05
6.50669e-20
3.0019e-05
5.86355e-20
3.0019e-05
-1.73453e-19
3.0019e-05
3.56809e-19
3.0019e-05
8.89781e-20
3.0019e-05
-3.58313e-19
3.0019e-05
8.37448e-20
3.0019e-05
-2.90977e-20
3.0019e-05
-2.1844e-19
3.0019e-05
2.73481e-19
3.0019e-05
-1.15052e-19
3.0019e-05
-1.03704e-19
3.0019e-05
4.18113e-19
3.0019e-05
-1.58242e-19
3.0019e-05
-2.67114e-19
3.0019e-05
2.18611e-19
3.0019e-05
-1.44692e-19
3.0019e-05
-1.49702e-19
3.0019e-05
2.91181e-19
3.0019e-05
1.00596e-19
3.0019e-05
-2.44976e-19
3.0019e-05
1.10421e-19
3.0019e-05
8.69695e-20
3.0019e-05
-1.53688e-19
3.0019e-05
7.61908e-20
3.0019e-05
-8.98235e-20
3.0019e-05
-7.11224e-20
3.0019e-05
3.56023e-21
3.0019e-05
1.62456e-19
3.0019e-05
1.19603e-19
3.0019e-05
-5.39171e-20
3.0019e-05
-1.53752e-19
3.0019e-05
-5.86571e-20
3.0019e-05
2.10349e-19
3.0019e-05
-8.47715e-20
3.0019e-05
-1.03094e-19
3.0019e-05
-5.04712e-20
3.0019e-05
1.85097e-19
3.0019e-05
1.76395e-19
3.0019e-05
-3.31077e-19
3.0019e-05
-1.0825e-20
3.0019e-05
1.78817e-19
3.0019e-05
-2.49146e-19
3.0019e-05
1.33903e-19
3.0019e-05
2.39129e-19
3.0019e-05
-3.3116e-19
3.0019e-05
2.61409e-19
3.0019e-05
1.49709e-19
3.0019e-05
-3.10725e-19
3.0019e-05
5.13726e-20
3.0019e-05
-3.19207e-20
3.0019e-05
-1.27371e-19
3.0019e-05
6.55058e-20
3.0019e-05
1.67829e-19
3.0019e-05
1.1725e-20
3.0019e-05
-4.01706e-20
3.0019e-05
-1.59941e-19
3.0019e-05
-5.51135e-20
3.0019e-05
1.56707e-19
3.0019e-05
-8.34956e-20
3.0019e-05
-1.721e-19
3.0019e-05
6.22913e-20
3.0019e-05
2.1647e-19
3.0019e-05
3.52799e-20
3.0019e-05
-4.98002e-20
3.0019e-05
-1.96577e-19
3.0019e-05
-1.01997e-19
3.0019e-05
1.49443e-19
3.0019e-05
-3.56818e-20
3.0019e-05
1.94949e-19
3.0019e-05
-1.82708e-19
3.0019e-05
-1.38625e-20
3.0019e-05
3.48714e-19
3.0019e-05
-2.3518e-19
3.0019e-05
-5.48115e-20
3.0019e-05
1.96798e-20
3.0019e-05
-4.37981e-20
3.0019e-05
-8.21622e-20
3.0019e-05
3.02961e-19
3.0019e-05
7.65335e-20
3.0019e-05
-1.92793e-19
3.0019e-05
-4.03719e-20
3.0019e-05
-2.13574e-20
3.0019e-05
1.38744e-19
3.0019e-05
-1.19227e-19
3.0019e-05
7.22449e-20
3.0019e-05
-1.05534e-19
3.0019e-05
2.10162e-19
3.0019e-05
5.55605e-20
3.0019e-05
-1.83624e-19
3.0019e-05
-5.75183e-20
3.0019e-05
7.2402e-20
3.0019e-05
5.42238e-20
3.0019e-05
-1.07744e-19
3.0019e-05
3.15816e-19
3.0019e-05
-2.19209e-19
3.0019e-05
5.61649e-20
3.0019e-05
1.4289e-19
3.0019e-05
-1.1368e-19
3.0019e-05
-1.08754e-19
3.0019e-05
8.00116e-20
3.0019e-05
-3.26682e-20
3.0019e-05
-2.18288e-19
3.0019e-05
3.46236e-19
3.0019e-05
1.92741e-19
3.0019e-05
-2.29775e-19
3.0019e-05
-1.47639e-19
3.0019e-05
-5.79022e-20
3.0019e-05
-6.81769e-20
3.0019e-05
1.08783e-19
3.0019e-05
3.5362e-19
3.0019e-05
-2.93519e-19
3.0019e-05
-1.52506e-19
3.0019e-05
-8.46854e-20
3.0019e-05
2.86238e-19
3.0019e-05
2.62215e-19
3.0019e-05
-5.08734e-19
3.0019e-05
-8.72857e-20
3.0019e-05
2.82654e-19
3.0019e-05
3.36922e-19
3.0019e-05
-3.80532e-19
3.0019e-05
2.12701e-20
3.0019e-05
1.24308e-19
3.0019e-05
-8.81951e-20
3.0019e-05
4.28605e-20
3.0019e-05
-2.75815e-19
3.0019e-05
4.72411e-20
3.0019e-05
2.77308e-19
3.0019e-05
1.47978e-19
3.0019e-05
-3.6819e-19
3.0019e-05
-1.28177e-19
3.0019e-05
4.87703e-19
3.0019e-05
-1.00529e-19
3.0019e-05
-1.88808e-19
3.0019e-05
3.853e-20
3.0019e-05
1.06239e-19
3.0019e-05
4.23296e-20
3.0019e-05
7.52731e-20
3.0019e-05
-2.10395e-19
3.0019e-05
-1.61756e-19
3.0019e-05
4.91041e-19
3.0019e-05
-2.42554e-20
3.0019e-05
-4.64431e-19
3.0019e-05
-2.21348e-20
3.0019e-05
6.09968e-19
3.0019e-05
-1.30225e-19
3.0019e-05
-4.79796e-20
3.0019e-05
-2.007e-20
3.0019e-05
-2.79455e-19
3.0019e-05
4.31938e-19
3.0019e-05
-2.30118e-19
3.0019e-05
-7.15136e-20
3.0019e-05
-5.7302e-20
3.0019e-05
1.8667e-19
3.0019e-05
9.17437e-20
3.0019e-05
-1.76431e-19
3.0019e-05
8.84334e-20
3.0019e-05
-1.71109e-19
3.0019e-05
2.30828e-19
3.0019e-05
-7.4404e-20
3.0019e-05
8.17267e-20
3.0019e-05
-1.25824e-19
3.0019e-05
1.36567e-19
3.0019e-05
-2.9696e-20
3.0019e-05
-1.60611e-19
3.0019e-05
1.44392e-19
3.0019e-05
6.60787e-20
3.0019e-05
1.58012e-19
3.0019e-05
-5.38678e-19
3.0019e-05
2.86857e-19
3.0019e-05
1.50422e-19
3.0019e-05
5.10281e-20
3.0019e-05
9.37136e-20
3.0019e-05
-4.68841e-19
3.0019e-05
1.4647e-19
3.0019e-05
1.87654e-19
3.0019e-05
-2.80538e-20
3.0019e-05
-2.05136e-19
3.0019e-05
1.26599e-19
3.0019e-05
-8.92661e-20
3.0019e-05
3.30475e-20
3.0019e-05
1.09184e-19
3.0019e-05
-1.78542e-19
3.0019e-05
1.95817e-19
3.0019e-05
6.05585e-20
3.0019e-05
1.03446e-19
3.0019e-05
-2.73888e-19
3.0019e-05
7.23531e-20
3.0019e-05
1.51241e-19
3.0019e-05
4.06946e-20
3.0019e-05
-4.27829e-20
3.0019e-05
-1.57216e-19
3.0019e-05
2.78894e-19
3.0019e-05
-3.17794e-19
3.0019e-05
7.65613e-20
3.0019e-05
3.46078e-20
3.0019e-05
-7.19545e-20
3.0019e-05
3.1659e-19
3.0019e-05
-2.17723e-19
3.0019e-05
-2.28026e-19
3.0019e-05
1.99324e-19
3.0019e-05
2.20929e-19
3.0019e-05
-2.42769e-19
3.0019e-05
8.88495e-20
3.0019e-05
-9.6426e-21
3.0019e-05
6.09028e-20
3.0019e-05
3.07304e-19
3.0019e-05
9.2963e-20
1.24542e-18
8.88562e-05
4.42101e-18
8.88562e-05
1.46375e-18
8.88562e-05
5.26715e-19
8.88562e-05
3.34615e-19
8.88562e-05
2.43764e-19
8.88562e-05
1.10979e-19
8.88562e-05
9.70321e-20
8.88562e-05
4.26967e-20
8.88562e-05
2.37997e-20
8.88562e-05
2.71605e-21
8.88562e-05
-3.75546e-20
8.88562e-05
-2.40283e-20
8.88562e-05
-3.75604e-20
8.88562e-05
-2.73363e-20
8.88562e-05
8.5046e-21
8.88562e-05
-1.60506e-20
8.88562e-05
-5.69387e-20
8.88562e-05
-4.40147e-20
8.88562e-05
4.37547e-21
8.88562e-05
2.2652e-20
8.88562e-05
1.56504e-20
8.88562e-05
3.25357e-20
8.88562e-05
5.46728e-20
8.88562e-05
6.0721e-21
8.88562e-05
-1.52541e-20
8.88562e-05
-4.53295e-20
8.88562e-05
2.08974e-20
8.88562e-05
7.89096e-20
8.88562e-05
-3.66011e-20
8.88562e-05
-1.60851e-20
8.88562e-05
1.25501e-20
8.88562e-05
-2.99132e-20
8.88562e-05
-3.4033e-20
8.88562e-05
-7.11903e-20
8.88562e-05
-9.00155e-20
8.88562e-05
-1.97339e-20
8.88562e-05
-1.34042e-19
8.88562e-05
-9.02064e-20
8.88562e-05
-5.83855e-21
8.88562e-05
-8.15246e-20
8.88562e-05
-1.42608e-20
8.88562e-05
-3.61989e-20
8.88562e-05
-3.49141e-20
8.88562e-05
3.8903e-20
8.88562e-05
5.60678e-20
8.88562e-05
8.44486e-20
8.88562e-05
6.63822e-20
8.88562e-05
-5.84531e-20
8.88562e-05
-3.69538e-20
8.88562e-05
9.43108e-20
8.88562e-05
6.60501e-20
8.88562e-05
7.93586e-21
8.88562e-05
-6.61837e-20
8.88562e-05
-1.28971e-20
8.88562e-05
4.98123e-20
8.88562e-05
-1.80519e-20
8.88562e-05
6.28026e-20
8.88562e-05
-8.90065e-20
8.88562e-05
-1.56333e-19
8.88562e-05
-2.19678e-20
8.88562e-05
-1.53158e-20
8.88562e-05
7.78657e-21
8.88562e-05
-5.0016e-20
8.88562e-05
3.529e-20
8.88562e-05
1.23596e-20
8.88562e-05
3.71858e-20
8.88562e-05
-1.01427e-19
8.88562e-05
-5.55687e-20
8.88562e-05
1.14755e-19
8.88562e-05
4.03638e-20
8.88562e-05
-1.19942e-20
8.88562e-05
2.76901e-20
8.88562e-05
1.38988e-19
8.88562e-05
-3.02791e-20
8.88562e-05
-1.23959e-19
8.88562e-05
2.67207e-19
8.88562e-05
1.95961e-19
8.88562e-05
-8.30852e-20
8.88562e-05
-8.2909e-20
8.88562e-05
5.04593e-20
8.88562e-05
4.83943e-20
8.88562e-05
-8.46535e-20
8.88562e-05
3.68239e-21
8.88562e-05
7.23738e-21
8.88562e-05
-5.15592e-20
8.88562e-05
6.39588e-20
8.88562e-05
-2.01295e-20
8.88562e-05
1.24229e-20
8.88562e-05
-2.15933e-20
8.88562e-05
-2.8829e-20
8.88562e-05
7.53023e-20
8.88562e-05
4.85296e-20
8.88562e-05
6.29586e-20
8.88562e-05
7.6225e-20
8.88562e-05
2.79232e-20
8.88562e-05
-1.79137e-19
8.88562e-05
-1.77255e-20
8.88562e-05
2.41249e-19
8.88562e-05
-9.91508e-20
8.88562e-05
-1.29413e-19
8.88562e-05
1.85154e-19
8.88562e-05
1.243e-19
8.88562e-05
-4.18114e-20
8.88562e-05
-9.77161e-20
8.88562e-05
5.27436e-20
8.88562e-05
3.45364e-20
8.88562e-05
-4.26543e-20
8.88562e-05
-5.69534e-20
8.88562e-05
1.10377e-19
8.88562e-05
1.34577e-19
8.88562e-05
-1.34615e-19
8.88562e-05
-2.00878e-19
8.88562e-05
-5.09859e-20
8.88562e-05
1.97867e-19
8.88562e-05
1.12706e-19
8.88562e-05
-2.34483e-19
8.88562e-05
-1.31846e-19
8.88562e-05
1.70936e-19
8.88562e-05
1.80209e-19
8.88562e-05
-2.04771e-21
8.88562e-05
-7.38916e-20
8.88562e-05
5.85112e-20
8.88562e-05
1.49909e-19
8.88562e-05
-4.27364e-20
8.88562e-05
-1.02774e-19
8.88562e-05
1.21331e-19
8.88562e-05
9.20636e-20
8.88562e-05
-4.59489e-20
8.88562e-05
9.24828e-20
8.88562e-05
7.42151e-20
8.88562e-05
9.45445e-20
8.88562e-05
-8.68197e-22
8.88562e-05
1.76072e-19
8.88562e-05
-9.00069e-20
8.88562e-05
-1.51633e-19
8.88562e-05
9.4726e-20
8.88562e-05
-5.81599e-20
8.88562e-05
-1.06047e-19
8.88562e-05
1.83505e-19
8.88562e-05
1.18502e-19
8.88562e-05
-3.11062e-19
8.88562e-05
-2.60714e-19
8.88562e-05
2.65824e-19
8.88562e-05
3.31445e-19
8.88562e-05
-2.39745e-19
8.88562e-05
-7.23148e-20
8.88562e-05
4.28607e-19
8.88562e-05
-4.9238e-20
8.88562e-05
-2.49094e-19
8.88562e-05
1.58571e-19
8.88562e-05
-1.03967e-19
8.88562e-05
4.39536e-20
8.88562e-05
1.75721e-19
8.88562e-05
-3.24414e-19
8.88562e-05
-9.36487e-20
8.88562e-05
9.9286e-20
8.88562e-05
-1.67154e-19
8.88562e-05
-1.94086e-20
8.88562e-05
3.86141e-20
8.88562e-05
3.3755e-19
8.88562e-05
1.51926e-19
8.88562e-05
-6.87969e-20
8.88562e-05
-5.0807e-20
8.88562e-05
-8.32788e-20
8.88562e-05
-7.77979e-20
8.88562e-05
8.81911e-21
8.88562e-05
1.27902e-19
8.88562e-05
-1.86956e-19
8.88562e-05
2.42299e-19
8.88562e-05
2.62146e-19
8.88562e-05
-2.20125e-19
8.88562e-05
6.99127e-20
8.88562e-05
2.34432e-19
8.88562e-05
-1.1815e-19
8.88562e-05
-2.71546e-19
8.88562e-05
6.19716e-20
8.88562e-05
2.90395e-19
8.88562e-05
-8.58245e-20
8.88562e-05
-1.45305e-19
8.88562e-05
2.96759e-19
8.88562e-05
-4.32221e-20
8.88562e-05
-2.02337e-19
8.88562e-05
-2.58221e-20
8.88562e-05
-1.16491e-19
8.88562e-05
1.51979e-19
8.88562e-05
-8.53315e-20
8.88562e-05
-3.0006e-19
8.88562e-05
-1.0668e-19
8.88562e-05
2.05437e-20
8.88562e-05
-9.70564e-20
8.88562e-05
-1.85899e-19
8.88562e-05
-1.14433e-19
8.88562e-05
2.1262e-20
8.88562e-05
3.96516e-19
8.88562e-05
9.163e-20
8.88562e-05
-6.92751e-20
8.88562e-05
2.20284e-19
8.88562e-05
-1.20118e-19
8.88562e-05
-4.65537e-19
8.88562e-05
-1.37114e-19
8.88562e-05
2.58535e-20
8.88562e-05
-2.94916e-19
8.88562e-05
3.00568e-19
8.88562e-05
9.707e-20
8.88562e-05
1.80931e-19
8.88562e-05
2.82175e-19
8.88562e-05
-4.66447e-19
8.88562e-05
-3.78755e-19
8.88562e-05
-7.63113e-22
8.88562e-05
5.88187e-20
8.88562e-05
5.05039e-20
8.88562e-05
5.91888e-20
8.88562e-05
-1.1825e-19
8.88562e-05
1.08835e-19
8.88562e-05
-2.26188e-19
8.88562e-05
3.37719e-20
8.88562e-05
-1.69256e-19
8.88562e-05
-1.11572e-19
8.88562e-05
3.8139e-19
8.88562e-05
2.1797e-19
8.88562e-05
-7.87979e-20
8.88562e-05
-1.26602e-19
8.88562e-05
1.32706e-19
8.88562e-05
-1.27888e-19
8.88562e-05
6.88798e-20
8.88562e-05
2.9924e-20
8.88562e-05
-4.23468e-21
8.88562e-05
1.79446e-19
8.88562e-05
2.62277e-19
8.88562e-05
-8.1455e-20
8.88562e-05
-4.27348e-20
8.88562e-05
-2.23689e-19
8.88562e-05
-1.61463e-19
8.88562e-05
1.09829e-19
8.88562e-05
-1.43882e-19
8.88562e-05
1.23345e-19
8.88562e-05
7.50471e-20
8.88562e-05
-1.36376e-20
8.88562e-05
-3.38871e-20
8.88562e-05
2.00543e-20
8.88562e-05
-3.43684e-20
8.88562e-05
-1.79449e-19
8.88562e-05
1.50814e-20
8.88562e-05
4.2148e-19
8.88562e-05
-4.50885e-21
8.88562e-05
-6.69929e-20
8.88562e-05
1.68883e-19
8.88562e-05
-1.74527e-19
8.88562e-05
-4.09719e-20
8.88562e-05
2.78374e-20
8.88562e-05
-1.29305e-19
8.88562e-05
-3.02242e-20
8.88562e-05
3.16255e-19
8.88562e-05
1.05965e-20
8.88562e-05
-1.64115e-19
8.88562e-05
1.54435e-19
8.88562e-05
-5.60517e-20
8.88562e-05
-1.94552e-19
8.88562e-05
6.02717e-22
8.88562e-05
-2.70673e-19
8.88562e-05
1.97062e-19
8.88562e-05
5.04293e-19
8.88562e-05
-2.23017e-19
8.88562e-05
4.022e-20
8.88562e-05
-4.72027e-19
8.88562e-05
-3.9056e-19
8.88562e-05
6.94968e-19
8.88562e-05
-3.19091e-19
8.88562e-05
-2.53615e-19
8.88562e-05
8.97854e-19
8.88562e-05
-3.307e-19
8.88562e-05
-3.80339e-19
8.88562e-05
1.6328e-19
8.88562e-05
-3.08653e-19
8.88562e-05
1.01143e-19
8.88562e-05
-8.28999e-20
8.88562e-05
-1.15941e-19
8.88562e-05
2.29525e-19
8.88562e-05
2.47389e-19
8.88562e-05
-9.92378e-20
8.88562e-05
-2.39383e-19
8.88562e-05
-3.62713e-19
8.88562e-05
1.57754e-19
8.88562e-05
4.93044e-19
8.88562e-05
-4.69903e-19
8.88562e-05
4.77576e-19
8.88562e-05
2.16339e-19
8.88562e-05
-5.95752e-19
8.88562e-05
4.51719e-19
8.88562e-05
1.31462e-19
8.88562e-05
-6.2489e-19
8.88562e-05
1.61162e-19
8.88562e-05
1.47539e-19
8.88562e-05
-2.94578e-19
8.88562e-05
7.3812e-19
8.88562e-05
9.98636e-20
8.88562e-05
-6.96198e-19
8.88562e-05
8.81201e-20
8.88562e-05
-1.45812e-19
8.88562e-05
-4.14201e-19
8.88562e-05
4.26387e-19
8.88562e-05
-9.04283e-20
8.88562e-05
-2.01454e-19
8.88562e-05
8.30835e-19
8.88562e-05
-2.42044e-19
8.88562e-05
-6.45328e-19
8.88562e-05
2.97812e-19
8.88562e-05
-2.35855e-19
8.88562e-05
-2.66124e-19
8.88562e-05
5.36564e-19
8.88562e-05
2.76206e-19
8.88562e-05
-4.24574e-19
8.88562e-05
1.59455e-19
8.88562e-05
1.92267e-19
8.88562e-05
-2.70317e-19
8.88562e-05
-1.01343e-20
8.88562e-05
-1.92438e-19
8.88562e-05
-1.29419e-19
8.88562e-05
-3.18015e-20
8.88562e-05
4.01478e-19
8.88562e-05
3.70558e-19
8.88562e-05
-1.94372e-19
8.88562e-05
-3.57742e-19
8.88562e-05
-8.70358e-21
8.88562e-05
3.31926e-19
8.88562e-05
-1.54739e-19
8.88562e-05
-2.13039e-19
8.88562e-05
-6.06349e-20
8.88562e-05
3.78352e-19
8.88562e-05
3.84328e-19
8.88562e-05
-6.36566e-19
8.88562e-05
-8.82041e-20
8.88562e-05
2.8626e-19
8.88562e-05
-4.10004e-19
8.88562e-05
2.274e-19
8.88562e-05
4.78844e-19
8.88562e-05
-4.51553e-19
8.88562e-05
4.69492e-19
8.88562e-05
2.49e-19
8.88562e-05
-5.42028e-19
8.88562e-05
-1.96857e-21
8.88562e-05
-2.60785e-19
8.88562e-05
-1.29718e-19
8.88562e-05
1.6543e-19
8.88562e-05
2.33223e-19
8.88562e-05
1.60168e-19
8.88562e-05
-1.22615e-19
8.88562e-05
-4.67802e-19
8.88562e-05
-5.19419e-20
8.88562e-05
3.23454e-19
8.88562e-05
-3.45806e-19
8.88562e-05
-2.61778e-19
8.88562e-05
1.61453e-19
8.88562e-05
3.76785e-19
8.88562e-05
1.9466e-19
8.88562e-05
-1.72117e-19
8.88562e-05
-4.91614e-19
8.88562e-05
-1.78121e-19
8.88562e-05
1.57604e-19
8.88562e-05
-4.63887e-22
8.88562e-05
5.26438e-19
8.88562e-05
-4.04329e-19
8.88562e-05
1.27785e-20
8.88562e-05
7.42026e-19
8.88562e-05
-4.46866e-19
8.88562e-05
-2.14297e-19
8.88562e-05
4.51899e-21
8.88562e-05
-6.63785e-20
8.88562e-05
-9.96391e-20
8.88562e-05
6.80406e-19
8.88562e-05
1.46314e-19
8.88562e-05
-4.21704e-19
8.88562e-05
-2.24371e-20
8.88562e-05
-3.64416e-20
8.88562e-05
1.69987e-19
8.88562e-05
-1.9748e-19
8.88562e-05
9.32944e-20
8.88562e-05
-1.05806e-19
8.88562e-05
5.02177e-19
8.88562e-05
3.52141e-21
8.88562e-05
-3.93361e-19
8.88562e-05
-8.66765e-20
8.88562e-05
1.54354e-19
8.88562e-05
9.98205e-20
8.88562e-05
-2.05656e-19
8.88562e-05
8.14499e-19
8.88562e-05
-3.36125e-19
8.88562e-05
-9.44449e-20
8.88562e-05
3.76521e-19
8.88562e-05
-1.39643e-19
8.88562e-05
-4.15276e-19
8.88562e-05
1.20875e-19
8.88562e-05
-7.44964e-21
8.88562e-05
-4.3332e-19
8.88562e-05
8.80314e-19
8.88562e-05
3.88255e-19
8.88562e-05
-6.40651e-19
8.88562e-05
-2.67919e-19
8.88562e-05
-1.70903e-19
8.88562e-05
-2.44667e-19
8.88562e-05
2.71477e-19
8.88562e-05
7.50758e-19
8.88562e-05
-6.25002e-19
8.88562e-05
-2.85408e-19
8.88562e-05
-2.61048e-19
8.88562e-05
5.34092e-19
8.88562e-05
7.47163e-19
8.88562e-05
-1.08349e-18
8.88562e-05
-4.06352e-19
8.88562e-05
6.96243e-19
8.88562e-05
9.18102e-19
8.88562e-05
-7.96506e-19
8.88562e-05
-3.9833e-21
8.88562e-05
2.43776e-19
8.88562e-05
-2.12251e-19
8.88562e-05
-3.72553e-20
8.88562e-05
-6.25825e-19
8.88562e-05
2.48172e-19
8.88562e-05
5.85207e-19
8.88562e-05
3.01756e-19
8.88562e-05
-7.42548e-19
8.88562e-05
-2.59677e-19
8.88562e-05
9.65753e-19
8.88562e-05
-5.84606e-20
8.88562e-05
-3.49993e-19
8.88562e-05
-5.4299e-20
8.88562e-05
3.73558e-19
8.88562e-05
1.27988e-19
8.88562e-05
1.00634e-19
8.88562e-05
-4.83233e-19
8.88562e-05
-3.6393e-19
8.88562e-05
1.0396e-18
8.88562e-05
1.5128e-19
8.88562e-05
-1.08807e-18
8.88562e-05
-2.10138e-19
8.88562e-05
1.49224e-18
8.88562e-05
-1.38764e-19
8.88562e-05
-1.93165e-19
8.88562e-05
-1.19064e-19
8.88562e-05
-4.55334e-19
8.88562e-05
7.17177e-19
8.88562e-05
-3.74516e-19
8.88562e-05
-2.33644e-19
8.88562e-05
-6.92058e-20
8.88562e-05
4.2273e-19
8.88562e-05
1.40178e-19
8.88562e-05
-2.93756e-19
8.88562e-05
8.70632e-20
8.88562e-05
-2.93353e-19
8.88562e-05
5.17696e-19
8.88562e-05
-1.16053e-19
8.88562e-05
1.30821e-20
8.88562e-05
-4.76704e-20
8.88562e-05
2.712e-19
8.88562e-05
-1.82076e-19
8.88562e-05
-2.91841e-19
8.88562e-05
3.11266e-19
8.88562e-05
1.70973e-19
8.88562e-05
3.16718e-19
8.88562e-05
-1.10651e-18
8.88562e-05
4.84418e-19
8.88562e-05
6.97424e-19
8.88562e-05
7.86832e-20
8.88562e-05
-1.29084e-19
8.88562e-05
-8.16946e-19
8.88562e-05
3.94728e-19
8.88562e-05
1.78186e-19
8.88562e-05
-8.29476e-20
8.88562e-05
-1.82436e-19
8.88562e-05
8.4659e-20
8.88562e-05
-2.13677e-19
8.88562e-05
8.85316e-20
8.88562e-05
2.21826e-19
8.88562e-05
-2.37906e-19
8.88562e-05
4.01213e-19
8.88562e-05
2.62783e-19
8.88562e-05
8.20469e-20
8.88562e-05
-5.78112e-19
8.88562e-05
3.95027e-19
8.88562e-05
2.6566e-19
8.88562e-05
-7.88352e-20
8.88562e-05
5.49536e-20
8.88562e-05
-1.94196e-19
8.88562e-05
2.93512e-19
8.88562e-05
-6.31758e-19
8.88562e-05
1.60658e-19
8.88562e-05
6.96662e-20
8.88562e-05
6.07875e-20
8.88562e-05
4.4154e-19
8.88562e-05
-5.90109e-19
8.88562e-05
-2.66041e-19
8.88562e-05
5.53092e-19
8.88562e-05
2.46202e-19
8.88562e-05
-4.57363e-19
8.88562e-05
1.70584e-19
8.88562e-05
4.78552e-20
8.88562e-05
1.96424e-19
8.88562e-05
5.2648e-19
8.88562e-05
2.6454e-19
1.54083e-18
0.000146492
3.05328e-18
0.000146492
1.37969e-18
0.000146492
6.52104e-19
0.000146492
4.70209e-19
0.000146492
4.07754e-19
0.000146492
1.91273e-19
0.000146492
1.24859e-19
0.000146492
1.45576e-19
0.000146492
2.24426e-20
0.000146492
-1.09245e-19
0.000146492
-1.11296e-19
0.000146492
-1.17245e-19
0.000146492
-8.91153e-20
0.000146492
-3.11722e-20
0.000146492
-2.36099e-20
0.000146492
-1.46396e-20
0.000146492
-2.18823e-21
0.000146492
-9.77939e-20
0.000146492
5.76376e-21
0.000146492
6.37337e-20
0.000146492
-7.62732e-21
0.000146492
8.84952e-20
0.000146492
9.58201e-20
0.000146492
-3.11904e-20
0.000146492
-6.29784e-21
0.000146492
-6.62512e-20
0.000146492
-1.39914e-20
0.000146492
1.50206e-19
0.000146492
-5.87516e-20
0.000146492
-9.0245e-20
0.000146492
-2.66037e-21
0.000146492
-4.72448e-20
0.000146492
-6.65276e-20
0.000146492
-1.55263e-19
0.000146492
-1.75334e-19
0.000146492
-8.99267e-20
0.000146492
-2.77612e-19
0.000146492
-1.87309e-19
0.000146492
-3.90837e-20
0.000146492
-1.17801e-19
0.000146492
-4.95732e-20
0.000146492
-9.72953e-20
0.000146492
-6.51808e-20
0.000146492
9.69695e-20
0.000146492
1.5934e-19
0.000146492
1.40012e-19
0.000146492
7.15523e-20
0.000146492
-5.82779e-20
0.000146492
-1.92972e-20
0.000146492
1.31624e-19
0.000146492
1.37149e-19
0.000146492
2.84899e-20
0.000146492
-1.27033e-19
0.000146492
-7.18506e-21
0.000146492
6.47092e-20
0.000146492
2.44277e-21
0.000146492
-2.3385e-20
0.000146492
-2.25482e-19
0.000146492
-1.84219e-19
0.000146492
-5.21335e-20
0.000146492
-6.63872e-20
0.000146492
1.29174e-21
0.000146492
-5.70544e-20
0.000146492
2.18018e-20
0.000146492
5.03849e-20
0.000146492
2.83857e-20
0.000146492
-1.86605e-19
0.000146492
-9.67993e-20
0.000146492
2.01268e-19
0.000146492
1.42017e-19
0.000146492
4.42154e-20
0.000146492
3.79394e-20
0.000146492
2.15112e-19
0.000146492
2.07877e-20
0.000146492
-2.2085e-19
0.000146492
4.0079e-19
0.000146492
3.52448e-19
0.000146492
1.56531e-21
0.000146492
-1.26085e-19
0.000146492
5.91859e-20
0.000146492
4.43284e-20
0.000146492
-1.01203e-19
0.000146492
-4.16489e-20
0.000146492
7.10817e-21
0.000146492
-5.19601e-20
0.000146492
6.6579e-20
0.000146492
-2.83601e-20
0.000146492
8.65941e-21
0.000146492
-3.00689e-20
0.000146492
-1.03738e-20
0.000146492
1.34498e-19
0.000146492
5.80891e-20
0.000146492
1.30795e-19
0.000146492
1.75057e-19
0.000146492
2.02635e-20
0.000146492
-2.28357e-19
0.000146492
4.34289e-21
0.000146492
3.10691e-19
0.000146492
-1.45994e-19
0.000146492
-1.49398e-19
0.000146492
2.58651e-19
0.000146492
1.87986e-19
0.000146492
-2.49365e-20
0.000146492
-1.63141e-19
0.000146492
1.06139e-20
0.000146492
1.46567e-19
0.000146492
-8.13074e-20
0.000146492
-1.14973e-19
0.000146492
2.36358e-19
0.000146492
1.51591e-19
0.000146492
-2.24135e-19
0.000146492
-3.03736e-19
0.000146492
-8.70774e-20
0.000146492
2.69276e-19
0.000146492
1.98074e-19
0.000146492
-3.0313e-19
0.000146492
-2.0434e-19
0.000146492
2.31818e-19
0.000146492
2.81179e-19
0.000146492
7.21987e-20
0.000146492
-1.08396e-20
0.000146492
1.0244e-19
0.000146492
1.47274e-19
0.000146492
-1.11017e-19
0.000146492
-8.47331e-20
0.000146492
1.65132e-19
0.000146492
1.2167e-19
0.000146492
2.92673e-21
0.000146492
1.47656e-19
0.000146492
2.0312e-19
0.000146492
1.96515e-19
0.000146492
-2.77846e-20
0.000146492
1.85147e-19
0.000146492
-6.33634e-20
0.000146492
-1.42736e-19
0.000146492
1.62921e-19
0.000146492
-2.27249e-19
0.000146492
-1.62359e-19
0.000146492
2.92784e-19
0.000146492
9.96109e-20
0.000146492
-4.38541e-19
0.000146492
-3.48457e-19
0.000146492
4.05443e-19
0.000146492
5.4871e-19
0.000146492
-3.55179e-19
0.000146492
-6.7796e-20
0.000146492
6.51683e-19
0.000146492
-9.2582e-20
0.000146492
-3.1176e-19
0.000146492
1.57771e-19
0.000146492
-1.45283e-19
0.000146492
1.17879e-19
0.000146492
1.66347e-19
0.000146492
-4.84718e-19
0.000146492
-1.05625e-19
0.000146492
1.06338e-19
0.000146492
-2.73848e-19
0.000146492
-8.31304e-20
0.000146492
1.76839e-20
0.000146492
6.12433e-19
0.000146492
3.23027e-19
0.000146492
-7.64608e-20
0.000146492
-1.60992e-19
0.000146492
-1.57698e-19
0.000146492
-5.59011e-20
0.000146492
2.1813e-20
0.000146492
1.74841e-19
0.000146492
-1.64605e-19
0.000146492
3.82928e-19
0.000146492
3.21038e-19
0.000146492
-2.4312e-19
0.000146492
7.64604e-20
0.000146492
3.22538e-19
0.000146492
-1.6583e-19
0.000146492
-3.68768e-19
0.000146492
1.48561e-19
0.000146492
4.57779e-19
0.000146492
-1.44514e-19
0.000146492
-2.27384e-19
0.000146492
4.25391e-19
0.000146492
-2.71935e-21
0.000146492
-3.75044e-19
0.000146492
-8.97039e-20
0.000146492
-1.44734e-19
0.000146492
4.17782e-20
0.000146492
-1.69079e-19
0.000146492
-4.42806e-19
0.000146492
-3.04096e-19
0.000146492
1.65252e-20
0.000146492
-1.83956e-19
0.000146492
-3.32718e-19
0.000146492
-1.62151e-19
0.000146492
1.68203e-19
0.000146492
6.04447e-19
0.000146492
9.88846e-20
0.000146492
-6.72488e-20
0.000146492
3.93875e-19
0.000146492
-2.61085e-19
0.000146492
-7.61846e-19
0.000146492
-2.77202e-19
0.000146492
-3.44605e-20
0.000146492
-3.31262e-19
0.000146492
3.73023e-19
0.000146492
1.55416e-19
0.000146492
3.92996e-19
0.000146492
4.21356e-19
0.000146492
-7.30562e-19
0.000146492
-6.838e-19
0.000146492
-1.15277e-19
0.000146492
8.71604e-20
0.000146492
5.44767e-20
0.000146492
1.23403e-19
0.000146492
-1.13176e-19