/*--------------------------------*- C++ -*----------------------------------*\
| =========                 |                                                 |
| \\      /  F ield         | OpenFOAM: The Open Source CFD Toolbox           |
|  \\    /   O peration     | Version:  2112                                  |
|   \\  /    A nd           | Website:  www.openfoam.com                      |
|    \\/     M anipulation  |                                                 |
\*---------------------------------------------------------------------------*/
FoamFile
{
    version     2.0;
    format      ascii;
    arch        "LSB;label=32;scalar=64";
    class       surfaceScalarField;
    location    "10";
    object      phi;
}
// * * * * * * * * * * * * * * * * * * * * * * * * * * * * * * * * * * * * * //

dimensions      [0 3 -1 0 0 0 0];

oriented        oriented;

internalField   nonuniform List<scalar> 
50800
(
4.69014e-05
-5.90281e-18
4.69014e-05
-2.26122e-18
4.69014e-05
-8.4138e-19
4.69014e-05
-4.49152e-19
4.69014e-05
-2.31449e-19
4.69014e-05
-1.26531e-19
4.69014e-05
-8.29287e-20
4.69014e-05
-5.16782e-20
4.69014e-05
-3.48066e-20
4.69014e-05
-1.92945e-20
4.69014e-05
-1.89114e-20
4.69014e-05
-3.40145e-20
4.69014e-05
-1.30216e-20
4.69014e-05
1.00934e-21
4.69014e-05
-1.68177e-20
4.69014e-05
-3.42139e-21
4.69014e-05
7.80271e-21
4.69014e-05
-1.12876e-20
4.69014e-05
-3.93511e-20
4.69014e-05
-4.18179e-20
4.69014e-05
-1.89138e-20
4.69014e-05
-2.55296e-20
4.69014e-05
-3.19613e-20
4.69014e-05
-3.60574e-20
4.69014e-05
-4.23156e-20
4.69014e-05
-3.60195e-20
4.69014e-05
1.48774e-20
4.69014e-05
-1.55492e-20
4.69014e-05
-5.77815e-20
4.69014e-05
-3.20844e-20
4.69014e-05
4.26536e-22
4.69014e-05
4.56942e-20
4.69014e-05
2.92248e-20
4.69014e-05
-3.34204e-21
4.69014e-05
4.58329e-21
4.69014e-05
-3.31968e-21
4.69014e-05
3.04348e-20
4.69014e-05
-1.06816e-20
4.69014e-05
-6.33194e-21
4.69014e-05
5.67927e-20
4.69014e-05
9.70553e-21
4.69014e-05
1.58452e-20
4.69014e-05
-2.208e-21
4.69014e-05
-1.82868e-20
4.69014e-05
4.65552e-20
4.69014e-05
1.13211e-20
4.69014e-05
2.854e-20
4.69014e-05
1.68227e-20
4.69014e-05
-1.76081e-21
4.69014e-05
-1.05029e-20
4.69014e-05
-5.4418e-20
4.69014e-05
3.36104e-20
4.69014e-05
8.72407e-21
4.69014e-05
7.80507e-21
4.69014e-05
5.38054e-20
4.69014e-05
-3.15358e-20
4.69014e-05
3.9522e-21
4.69014e-05
-2.7178e-21
4.69014e-05
7.68276e-21
4.69014e-05
5.04114e-20
4.69014e-05
-3.84267e-20
4.69014e-05
3.98011e-20
4.69014e-05
2.43467e-20
4.69014e-05
1.26823e-20
4.69014e-05
3.42081e-20
4.69014e-05
-5.39781e-20
4.69014e-05
-1.58815e-20
4.69014e-05
-1.53275e-21
4.69014e-05
1.26629e-20
4.69014e-05
1.03266e-20
4.69014e-05
-2.47907e-20
4.69014e-05
-3.22539e-21
4.69014e-05
-1.57799e-20
4.69014e-05
-2.25414e-20
4.69014e-05
7.02418e-20
4.69014e-05
-4.88023e-20
4.69014e-05
-7.99831e-20
4.69014e-05
3.62684e-20
4.69014e-05
5.48301e-21
4.69014e-05
5.38973e-20
4.69014e-05
-5.04409e-20
4.69014e-05
-1.02287e-19
4.69014e-05
3.06232e-20
4.69014e-05
4.66615e-20
4.69014e-05
6.68641e-20
4.69014e-05
1.24578e-20
4.69014e-05
-8.24787e-20
4.69014e-05
-5.67562e-20
4.69014e-05
5.32048e-20
4.69014e-05
9.19007e-20
4.69014e-05
-2.99642e-20
4.69014e-05
-9.44595e-20
4.69014e-05
6.95191e-22
4.69014e-05
8.73718e-20
4.69014e-05
-1.6943e-21
4.69014e-05
-9.46131e-20
4.69014e-05
-1.0028e-20
4.69014e-05
-4.22196e-21
4.69014e-05
7.59453e-20
4.69014e-05
2.76182e-20
4.69014e-05
-1.43846e-19
4.69014e-05
4.89994e-21
4.69014e-05
-4.5828e-20
4.69014e-05
3.5782e-20
4.69014e-05
1.92853e-20
4.69014e-05
-3.85762e-20
4.69014e-05
-7.36126e-20
4.69014e-05
-5.72427e-22
4.69014e-05
5.73913e-20
4.69014e-05
-1.57326e-20
4.69014e-05
3.10901e-20
4.69014e-05
-1.83166e-19
4.69014e-05
2.78165e-20
4.69014e-05
1.41869e-19
4.69014e-05
1.63386e-20
4.69014e-05
-4.26957e-20
4.69014e-05
-1.13124e-19
4.69014e-05
3.85119e-20
4.69014e-05
1.09794e-19
4.69014e-05
2.32087e-20
4.69014e-05
-4.69663e-20
4.69014e-05
-1.09678e-19
4.69014e-05
4.67667e-21
4.69014e-05
1.68863e-19
4.69014e-05
5.9054e-20
4.69014e-05
-7.34286e-20
4.69014e-05
-1.45658e-19
4.69014e-05
-3.95269e-21
4.69014e-05
1.52711e-19
4.69014e-05
2.0076e-20
4.69014e-05
-7.59451e-20
4.69014e-05
-9.72137e-20
4.69014e-05
5.93004e-20
4.69014e-05
1.04653e-19
4.69014e-05
-5.76004e-21
4.69014e-05
-1.46408e-20
4.69014e-05
-7.14252e-20
4.69014e-05
-2.24249e-21
4.69014e-05
1.00095e-19
4.69014e-05
3.61054e-20
4.69014e-05
-1.34732e-20
4.69014e-05
-6.32813e-20
4.69014e-05
1.28831e-20
4.69014e-05
6.43178e-20
4.69014e-05
-1.59064e-21
4.69014e-05
6.41789e-21
4.69014e-05
-7.31763e-20
4.69014e-05
-2.3489e-20
4.69014e-05
7.24749e-22
4.69014e-05
3.74045e-20
4.69014e-05
9.02883e-20
4.69014e-05
-1.24293e-19
4.69014e-05
-1.05886e-19
4.69014e-05
6.774e-20
4.69014e-05
7.36364e-20
4.69014e-05
7.20715e-20
4.69014e-05
-5.80229e-20
4.69014e-05
-8.90564e-20
4.69014e-05
5.20914e-20
4.69014e-05
5.71084e-20
4.69014e-05
1.1684e-19
4.69014e-05
-1.11393e-19
4.69014e-05
-5.86539e-20
4.69014e-05
1.1608e-19
4.69014e-05
-8.00848e-20
4.69014e-05
5.92985e-20
4.69014e-05
-4.9416e-20
4.69014e-05
-1.22801e-19
4.69014e-05
7.2017e-20
4.69014e-05
6.78496e-21
4.69014e-05
2.03775e-20
4.69014e-05
-1.20014e-19
4.69014e-05
-2.33195e-20
4.69014e-05
1.74534e-20
4.69014e-05
-6.2526e-20
4.69014e-05
-1.60072e-21
4.69014e-05
-8.52252e-20
4.69014e-05
1.6786e-19
4.69014e-05
-2.17047e-20
4.69014e-05
-7.63786e-20
4.69014e-05
1.59931e-19
4.69014e-05
-1.47636e-19
4.69014e-05
-2.74216e-20
4.69014e-05
3.6686e-20
4.69014e-05
-5.72814e-20
4.69014e-05
1.73051e-19
4.69014e-05
-1.09889e-19
4.69014e-05
-2.68303e-20
4.69014e-05
9.76431e-20
4.69014e-05
-1.54664e-19
4.69014e-05
6.21291e-20
4.69014e-05
-2.73079e-20
4.69014e-05
-8.99619e-20
4.69014e-05
1.59234e-19
4.69014e-05
-4.80908e-20
4.69014e-05
-1.76448e-20
4.69014e-05
-8.94443e-20
4.69014e-05
2.88811e-21
4.69014e-05
2.40921e-19
4.69014e-05
-1.45834e-19
4.69014e-05
-2.96646e-20
4.69014e-05
-9.54294e-20
4.69014e-05
1.86017e-20
4.69014e-05
2.75113e-19
4.69014e-05
-8.40909e-20
4.69014e-05
-1.57995e-19
4.69014e-05
-7.08066e-20
4.69014e-05
1.32268e-19
4.69014e-05
1.80547e-19
4.69014e-05
-6.45742e-20
4.69014e-05
-1.80913e-19
4.69014e-05
-1.01229e-19
4.69014e-05
3.22347e-19
4.69014e-05
1.31151e-20
4.69014e-05
-3.02217e-19
4.69014e-05
2.55813e-19
4.69014e-05
7.59142e-20
4.69014e-05
-1.35912e-19
4.69014e-05
-1.10105e-19
4.69014e-05
-1.3795e-19
4.69014e-05
3.20877e-19
4.69014e-05
1.19023e-19
4.69014e-05
-1.9264e-19
4.69014e-05
-1.40264e-19
4.69014e-05
-1.32381e-19
4.69014e-05
3.10454e-19
4.69014e-05
1.82758e-20
4.69014e-05
-1.37125e-19
4.69014e-05
1.56513e-20
4.69014e-05
-1.25296e-19
4.69014e-05
1.83197e-19
4.69014e-05
-1.63956e-20
4.69014e-05
-2.65563e-20
4.69014e-05
4.53877e-20
4.69014e-05
-2.19826e-19
4.69014e-05
6.13258e-20
4.69014e-05
4.7988e-20
4.69014e-05
3.37847e-21
4.69014e-05
4.84535e-20
4.69014e-05
-1.8e-19
4.69014e-05
1.36829e-19
4.69014e-05
-3.42471e-20
4.69014e-05
-8.92705e-21
4.69014e-05
1.13355e-19
4.69014e-05
-2.79438e-19
4.69014e-05
-3.32008e-20
4.69014e-05
9.98298e-20
4.69014e-05
1.19413e-19
4.69014e-05
-2.99326e-21
4.69014e-05
-2.12939e-19
4.69014e-05
1.81321e-19
4.69014e-05
5.04865e-20
4.69014e-05
-5.98065e-20
4.69014e-05
1.08295e-20
4.69014e-05
-1.8759e-19
4.69014e-05
2.15153e-19
4.69014e-05
3.09697e-20
4.69014e-05
-3.63278e-20
4.69014e-05
7.16474e-20
4.69014e-05
-2.20515e-19
4.69014e-05
1.13549e-19
4.69014e-05
6.0901e-20
4.69014e-05
-5.36254e-20
4.69014e-05
1.56951e-20
4.69014e-05
-1.33139e-19
4.69014e-05
1.67929e-19
4.69014e-05
1.24388e-19
4.69014e-05
-1.00737e-20
4.69014e-05
-3.53411e-20
4.69014e-05
-1.53967e-19
4.69014e-05
9.22786e-20
4.69014e-05
4.66255e-20
4.69014e-05
1.88941e-20
4.69014e-05
-1.65625e-20
4.69014e-05
-1.56805e-19
4.69014e-05
4.62899e-20
4.69014e-05
1.50143e-20
4.69014e-05
-1.30933e-19
4.69014e-05
8.51323e-20
4.69014e-05
-7.57674e-20
4.69014e-05
1.11962e-20
4.69014e-05
9.75861e-20
4.69014e-05
-4.87279e-20
4.69014e-05
4.40783e-21
4.69014e-05
-1.05255e-19
4.69014e-05
1.32025e-20
4.69014e-05
1.88194e-19
4.69014e-05
4.10294e-20
4.69014e-05
-1.57746e-19
4.69014e-05
-1.33568e-19
4.69014e-05
1.63959e-19
4.69014e-05
9.4265e-20
4.69014e-05
-6.76682e-20
4.69014e-05
-1.52575e-19
4.69014e-05
-8.39106e-21
4.69014e-05
2.07598e-19
4.69014e-05
-2.57209e-20
4.69014e-05
1.65371e-20
4.69014e-05
-1.75121e-19
4.69014e-05
-1.88175e-20
4.69014e-05
2.24695e-19
4.69014e-05
8.86868e-21
4.69014e-05
7.64191e-20
4.69014e-05
-1.67614e-19
4.69014e-05
-1.98933e-19
4.69014e-05
-1.01378e-20
4.69014e-05
-1.10627e-20
4.69014e-05
1.14683e-19
4.69014e-05
-1.69264e-19
4.69014e-05
-3.14574e-20
4.69014e-05
-4.07455e-21
4.69014e-05
-1.12814e-19
4.69014e-05
1.4719e-19
4.69014e-05
-1.31611e-19
4.69014e-05
-2.02751e-19
4.69014e-05
-6.32653e-20
4.69014e-05
-3.33703e-19
4.69014e-05
-3.80008e-19
4.69014e-05
-8.81836e-19
-2.33712e-18
0.000138359
-2.84073e-18
0.000138359
-1.94548e-18
0.000138359
-1.11172e-18
0.000138359
-6.79003e-19
0.000138359
-3.85323e-19
0.000138359
-2.34987e-19
0.000138359
-1.6503e-19
0.000138359
-9.46186e-20
0.000138359
-5.2901e-20
0.000138359
-5.148e-20
0.000138359
-1.12e-20
0.000138359
-4.48788e-20
0.000138359
2.82948e-21
0.000138359
-2.28368e-21
0.000138359
-3.28988e-20
0.000138359
3.50137e-21
0.000138359
-1.19957e-20
0.000138359
-3.84177e-20
0.000138359
-7.99429e-20
0.000138359
-8.69378e-20
0.000138359
-4.90519e-20
0.000138359
-8.29932e-20
0.000138359
-1.21928e-19
0.000138359
-7.39016e-20
0.000138359
-1.14063e-19
0.000138359
-1.08607e-19
0.000138359
-2.07975e-20
0.000138359
-4.86748e-20
0.000138359
-8.55222e-20
0.000138359
-7.29021e-20
0.000138359
-8.06432e-21
0.000138359
1.02345e-19
0.000138359
8.42637e-20
0.000138359
1.07235e-20
0.000138359
1.13593e-21
0.000138359
3.42382e-20
0.000138359
8.07445e-20
0.000138359
2.10806e-20
0.000138359
2.69399e-22
0.000138359
7.98873e-20
0.000138359
2.66752e-20
0.000138359
3.12469e-20
0.000138359
1.41887e-20
0.000138359
-2.15593e-20
0.000138359
6.03976e-20
0.000138359
7.45711e-20
0.000138359
7.29648e-20
0.000138359
4.83778e-20
0.000138359
7.77823e-21
0.000138359
-2.68819e-20
0.000138359
-4.85828e-20
0.000138359
4.13252e-20
0.000138359
-3.01745e-21
0.000138359
9.97903e-21
0.000138359
9.22729e-20
0.000138359
-1.39764e-20
0.000138359
8.05713e-21
0.000138359
3.15693e-20
0.000138359
4.6166e-20
0.000138359
8.22386e-20
0.000138359
-3.99332e-20
0.000138359
1.13153e-19
0.000138359
4.86724e-20
0.000138359
-1.15512e-20
0.000138359
3.6167e-20
0.000138359
-8.12204e-20
0.000138359
-3.44999e-21
0.000138359
3.94623e-21
0.000138359
4.1106e-20
0.000138359
3.73054e-20
0.000138359
-8.79832e-20
0.000138359
-4.27835e-20
0.000138359
-6.35332e-20
0.000138359
-3.43468e-21
0.000138359
1.18274e-19
0.000138359
-8.08749e-20
0.000138359
-1.29983e-19
0.000138359
1.15284e-20
0.000138359
-4.31255e-21
0.000138359
3.73685e-20
0.000138359
-8.6894e-20
0.000138359
-1.30554e-19
0.000138359
4.24453e-20
0.000138359
1.09191e-19
0.000138359
1.02486e-19
0.000138359
-3.00864e-21
0.000138359
-8.19576e-20
0.000138359
-9.14394e-20
0.000138359
2.31589e-20
0.000138359
1.58368e-19
0.000138359
4.76732e-21
0.000138359
-1.13862e-19
0.000138359
-1.39738e-21
0.000138359
6.32553e-20
0.000138359
-1.90647e-20
0.000138359
-1.16629e-19
0.000138359
-5.70239e-20
0.000138359
-2.74137e-20
0.000138359
4.21049e-20
0.000138359
-1.43947e-22
0.000138359
-1.63136e-19
0.000138359
-6.64803e-20
0.000138359
-8.92584e-20
0.000138359
-3.94972e-20
0.000138359
1.53655e-20
0.000138359
-4.85969e-20
0.000138359
-1.6136e-19
0.000138359
-6.53383e-20
0.000138359
1.01748e-19
0.000138359
7.7277e-20
0.000138359
1.33485e-21
0.000138359
-3.01175e-19
0.000138359
1.5817e-20
0.000138359
2.36814e-19
0.000138359
6.93488e-20
0.000138359
-7.20621e-20
0.000138359
-2.38175e-19
0.000138359
-2.12628e-20
0.000138359
2.6682e-19
0.000138359
1.2328e-19
0.000138359
-1.05747e-19
0.000138359
-2.03501e-19
0.000138359
5.34636e-20
0.000138359
3.22614e-19
0.000138359
1.67967e-19
0.000138359
-1.39707e-19
0.000138359
-3.31013e-19
0.000138359
-1.2619e-20
0.000138359
2.75364e-19
0.000138359
1.83903e-20
0.000138359
-1.3724e-19
0.000138359
-1.79969e-19
0.000138359
1.06942e-19
0.000138359
2.70536e-19
0.000138359
6.93869e-20
0.000138359
-1.79308e-20
0.000138359
-1.51611e-19
0.000138359
-8.87203e-21
0.000138359
2.66067e-19
0.000138359
1.4473e-19
0.000138359
-2.19321e-20
0.000138359
-1.33178e-19
0.000138359
4.241e-20
0.000138359
1.40061e-19
0.000138359
3.855e-21
0.000138359
-7.07163e-20
0.000138359
-1.63392e-19
0.000138359
1.14908e-20
0.000138359
4.95091e-20
0.000138359
3.20745e-20
0.000138359
1.01862e-19
0.000138359
-1.84757e-19
0.000138359
-1.56715e-19
0.000138359
9.68856e-20
0.000138359
1.30128e-19
0.000138359
1.4682e-19
0.000138359
-5.17425e-20
0.000138359
-1.17126e-19
0.000138359
6.74751e-20
0.000138359
1.48408e-19
0.000138359
1.85471e-19
0.000138359
-1.7203e-19
0.000138359
-9.01195e-20
0.000138359
1.88518e-19
0.000138359
-9.43278e-20
0.000138359
-1.23897e-20
0.000138359
-1.13063e-19
0.000138359
-2.09376e-19
0.000138359
5.16864e-20
0.000138359
1.65766e-20
0.000138359
-7.06503e-20
0.000138359
-2.071e-19
0.000138359
-9.39722e-20
0.000138359
4.16356e-20
0.000138359
4.51232e-21
0.000138359
-9.41357e-20
0.000138359
-1.14654e-19
0.000138359
2.00009e-19
0.000138359
-6.72748e-21
0.000138359
2.28844e-20
0.000138359
1.2199e-19
0.000138359
-3.1115e-19
0.000138359
-6.4209e-20
0.000138359
8.81387e-20
0.000138359
-2.42795e-20
0.000138359
1.8091e-19
0.000138359
-1.51071e-19
0.000138359
-6.91383e-20
0.000138359
1.26329e-19
0.000138359
-1.33894e-19
0.000138359
-2.16864e-20
0.000138359
-7.92235e-20
0.000138359
-1.12505e-19
0.000138359
1.73725e-19
0.000138359
-9.44907e-21
0.000138359
-2.92462e-20
0.000138359
-9.71905e-20
0.000138359
3.09499e-20
0.000138359
2.31416e-19
0.000138359
-1.4655e-19
0.000138359
-7.45808e-20
0.000138359
-1.12874e-19
0.000138359
8.44866e-20
0.000138359
3.1575e-19
0.000138359
-5.34437e-20
0.000138359
-1.77114e-19
0.000138359
-1.29244e-19
0.000138359
1.47172e-19
0.000138359
1.87171e-19
0.000138359
-7.77041e-20
0.000138359
-1.99442e-19
0.000138359
-1.27052e-19
0.000138359
4.64101e-19
0.000138359
6.73145e-20
0.000138359
-3.8351e-19
0.000138359
3.14646e-19
0.000138359
7.69502e-20
0.000138359
-1.08626e-19
0.000138359
-1.78167e-19
0.000138359
-2.51038e-19
0.000138359
4.9244e-19
0.000138359
1.67835e-19
0.000138359
-2.24677e-19
0.000138359
-2.08379e-19
0.000138359
-2.70621e-19
0.000138359
4.68978e-19
0.000138359
6.84073e-20
0.000138359
-2.75497e-19
0.000138359
-4.73376e-20
0.000138359
-1.39823e-19
0.000138359
3.50691e-19
0.000138359
3.35805e-20
0.000138359
-5.28005e-20
0.000138359
2.16352e-20
0.000138359
-4.31272e-19
0.000138359
1.37542e-20
0.000138359
6.68658e-20
0.000138359
1.71129e-19
0.000138359
1.51582e-19
0.000138359
-3.43694e-19
0.000138359
1.12509e-19
0.000138359
-1.06564e-19
0.000138359
3.8099e-21
0.000138359
1.17655e-19
0.000138359
-5.13691e-19
0.000138359
-2.02695e-20
0.000138359
1.94069e-19
0.000138359
1.7842e-19
0.000138359
2.70029e-21
0.000138359
-3.40672e-19
0.000138359
3.81151e-19
0.000138359
1.34675e-19
0.000138359
-1.40476e-19
0.000138359
-1.15399e-19
0.000138359
-2.87277e-19
0.000138359
5.25242e-19
0.000138359
1.15285e-19
0.000138359
-9.67268e-20
0.000138359
7.38811e-20
0.000138359
-3.64273e-19
0.000138359
1.77339e-19
0.000138359
7.25659e-20
0.000138359
-5.08215e-20
0.000138359
2.50227e-20
0.000138359
-1.56316e-19
0.000138359
3.81576e-19
0.000138359
1.94374e-19
0.000138359
4.33447e-20
0.000138359
-2.15891e-20
0.000138359
-3.22114e-19
0.000138359
1.29989e-19
0.000138359
1.06565e-19
0.000138359
9.76152e-20
0.000138359
-7.052e-20
0.000138359
-3.88462e-19
0.000138359
8.08153e-20
0.000138359
-4.30972e-20
0.000138359
-1.40317e-19
0.000138359
6.20105e-20
0.000138359
-2.51534e-19
0.000138359
9.71559e-20
0.000138359
1.37914e-19
0.000138359
1.71937e-20
0.000138359
6.18612e-22
0.000138359
-2.75505e-19
0.000138359
1.71368e-19
0.000138359
3.1798e-19
0.000138359
2.46086e-20
0.000138359
-2.5431e-19
0.000138359
-2.12969e-19
0.000138359
3.03521e-19
0.000138359
1.37393e-19
0.000138359
-1.53806e-19
0.000138359
-1.24154e-19
0.000138359
-4.17329e-20
0.000138359
2.63555e-19
0.000138359
9.2344e-20
0.000138359
-1.33814e-19
0.000138359
-1.91588e-19
0.000138359
-7.77558e-20
0.000138359
3.54176e-19
0.000138359
2.22502e-19
0.000138359
4.45226e-20
0.000138359
-3.59067e-19
0.000138359
-4.02536e-19
0.000138359
3.84488e-21
0.000138359
-1.84846e-20
0.000138359
-3.20628e-21
0.000138359
-3.26224e-19
0.000138359
-8.61375e-20
0.000138359
2.00535e-20
0.000138359
-1.79589e-19
0.000138359
1.44382e-19
0.000138359
-2.20388e-19
0.000138359
-3.86806e-19
0.000138359
-2.89094e-19
0.000138359
-6.13852e-19
0.000138359
-5.75513e-19
0.000138359
-1.15631e-18
-2.13058e-18
0.000227469
-1.83428e-18
0.000227469
-1.47669e-18
0.000227469
-1.06738e-18
0.000227469
-7.01189e-19
0.000227469
-4.74969e-19
0.000227469
-2.61314e-19
0.000227469
-1.49715e-19
0.000227469
-1.02731e-19
0.000227469
-3.35389e-20
0.000227469
-2.24831e-20
0.000227469
1.11682e-20
0.000227469
-2.71894e-20
0.000227469
3.52472e-20
0.000227469
1.94265e-22
0.000227469
-7.95768e-20
0.000227469
-9.86531e-21
0.000227469
-3.81606e-20
0.000227469
-7.62617e-20
0.000227469
-1.2539e-19
0.000227469
-1.15498e-19
0.000227469
-1.05585e-19
0.000227469
-1.47506e-19
0.000227469
-1.9138e-19
0.000227469
-1.98505e-19
0.000227469
-1.98182e-19
0.000227469
-1.56282e-19
0.000227469
-6.76398e-20
0.000227469
-8.17522e-20
0.000227469
-1.10524e-19
0.000227469
-1.03436e-19
0.000227469
2.3114e-20
0.000227469
1.5802e-19
0.000227469
1.4481e-19
0.000227469
4.04168e-20
0.000227469
1.22114e-20
0.000227469
4.38603e-21
0.000227469
1.106e-19
0.000227469
8.79239e-20
0.000227469
1.08549e-20
0.000227469
8.90227e-20
0.000227469
1.27683e-19
0.000227469
7.82624e-20
0.000227469
5.06986e-20
0.000227469
3.0406e-20
0.000227469
4.12076e-20
0.000227469
1.14197e-19
0.000227469
1.23467e-19
0.000227469
8.04042e-20
0.000227469
1.16884e-20
0.000227469
-7.864e-21
0.000227469
-2.66886e-20
0.000227469
3.01095e-20
0.000227469
3.2838e-20
0.000227469
3.80398e-20
0.000227469
1.18875e-19
0.000227469
3.78552e-20
0.000227469
3.13408e-20
0.000227469
6.33816e-20
0.000227469
1.01669e-19
0.000227469
1.41399e-19
0.000227469
3.1867e-20
0.000227469
1.70413e-19
0.000227469
6.40693e-20
0.000227469
-3.57366e-20
0.000227469
2.13149e-20
0.000227469
-1.66846e-19
0.000227469
2.13872e-20
0.000227469
1.50114e-20
0.000227469
4.45794e-20
0.000227469
4.50177e-20
0.000227469
-1.2001e-19
0.000227469
-9.01833e-20
0.000227469
-1.06623e-19
0.000227469
3.90692e-20
0.000227469
1.1716e-19
0.000227469
-1.59332e-19
0.000227469
-1.38124e-19
0.000227469
-2.33049e-20
0.000227469
-5.01272e-20
0.000227469
5.88206e-20
0.000227469
-8.88945e-20
0.000227469
-1.31353e-19
0.000227469
8.28024e-20
0.000227469
1.49676e-19
0.000227469
5.66204e-20
0.000227469
-9.26857e-20
0.000227469
-6.24249e-20
0.000227469
-9.89666e-20
0.000227469
-5.2409e-20
0.000227469
2.08029e-19
0.000227469
2.85459e-20
0.000227469
-4.76801e-20
0.000227469
3.21039e-20
0.000227469
2.66901e-20
0.000227469
-2.43137e-20
0.000227469
-1.48821e-19
0.000227469
-1.04357e-19
0.000227469
-6.47193e-20
0.000227469
-4.9433e-20
0.000227469
-6.11951e-20
0.000227469
-1.26942e-19
0.000227469
-1.18668e-19
0.000227469
-1.97594e-19
0.000227469
-1.4577e-19
0.000227469
-6.60959e-20
0.000227469
-8.03958e-20
0.000227469
-2.57804e-19
0.000227469
-2.0573e-19
0.000227469
9.71824e-20
0.000227469
1.66239e-19
0.000227469
3.08297e-20
0.000227469
-3.02449e-19
0.000227469
-2.94153e-20
0.000227469
2.79829e-19
0.000227469
1.76891e-19
0.000227469
-1.77311e-20
0.000227469
-3.14049e-19
0.000227469
-1.13036e-19
0.000227469
3.54638e-19
0.000227469
2.35888e-19
0.000227469
-1.62402e-19
0.000227469
-2.97627e-19
0.000227469
1.21977e-19
0.000227469
4.93361e-19
0.000227469
2.65195e-19
0.000227469
-1.45307e-19
0.000227469
-4.95675e-19
0.000227469
-7.36287e-20
0.000227469
2.86338e-19
0.000227469
4.99122e-20
0.000227469
-1.21145e-19
0.000227469
-1.66102e-19
0.000227469
8.65426e-20
0.000227469
3.33267e-19
0.000227469
1.78653e-19
0.000227469
3.22976e-20
0.000227469
-1.63435e-19
0.000227469
-2.26687e-21
0.000227469
4.12425e-19
0.000227469
2.68672e-19
0.000227469
-3.97282e-20
0.000227469
-1.92174e-19
0.000227469
1.04103e-19
0.000227469
1.41078e-19
0.000227469
1.48365e-20
0.000227469
-1.14335e-19
0.000227469
-3.04641e-19
0.000227469
6.29585e-20
0.000227469
8.99369e-20
0.000227469
-9.6573e-21
0.000227469
8.83377e-20
0.000227469
-2.32872e-19
0.000227469
-1.56892e-19
0.000227469
8.70977e-20
0.000227469
1.83776e-19
0.000227469
2.12376e-19
0.000227469
-5.13667e-20
0.000227469
-5.73884e-20
0.000227469
1.55713e-19
0.000227469
2.28867e-19
0.000227469
2.11706e-19
0.000227469
-1.85416e-19
0.000227469
-8.11131e-20
0.000227469
1.76704e-19
0.000227469
-1.53618e-19
0.000227469
-1.24464e-19
0.000227469
-1.5153e-19
0.000227469
-1.87141e-19
0.000227469
-7.98054e-20
0.000227469
-1.05888e-19
0.000227469
-1.54627e-19
0.000227469
-2.97887e-19
0.000227469
-1.52191e-19
0.000227469
1.11315e-19
0.000227469
5.25797e-20
0.000227469
-2.34215e-19
0.000227469
-1.84977e-19
0.000227469
9.54358e-20
0.000227469
3.0875e-20
0.000227469
1.3659e-19
0.000227469
3.67052e-20
0.000227469
-4.06677e-19
0.000227469
-9.82223e-20
0.000227469
1.45365e-19
0.000227469
4.28266e-20
0.000227469
1.22596e-19
0.000227469
-1.27071e-19
0.000227469
-1.06766e-19
0.000227469
1.01818e-19
0.000227469
-1.21897e-19
0.000227469
-1.60169e-19
0.000227469
-7.47064e-20
0.000227469
-1.27023e-19
0.000227469
7.56384e-20
0.000227469
3.54064e-20
0.000227469
-6.0675e-20
0.000227469
-5.75284e-20
0.000227469
2.78624e-20
0.000227469
1.67558e-19
0.000227469
-2.12878e-20
0.000227469
-8.18693e-20
0.000227469
-8.99954e-20
0.000227469
1.4874e-19
0.000227469
2.89637e-19
0.000227469
4.06981e-21
0.000227469
-1.45989e-19
0.000227469
-1.68786e-19
0.000227469
1.48388e-19
0.000227469
1.34857e-19
0.000227469
-4.7691e-20
0.000227469
-9.47729e-20
0.000227469
-1.65532e-19
0.000227469
4.37558e-19
0.000227469
1.32007e-19
0.000227469
-2.93362e-19
0.000227469
2.72272e-19
0.000227469
-5.8793e-20
0.000227469
4.48245e-20
0.000227469
-1.29962e-19
0.000227469
-3.21598e-19
0.000227469
4.89658e-19
0.000227469
1.23629e-19
0.000227469
-1.49503e-19
0.000227469
-1.80353e-19
0.000227469
-3.84207e-19
0.000227469
5.02981e-19
0.000227469
7.20107e-20
0.000227469
-3.57286e-19
0.000227469
-1.10118e-19
0.000227469
-9.73056e-20
0.000227469
4.92827e-19
0.000227469
9.4215e-20
0.000227469
-8.64275e-20
0.000227469
-6.97056e-20
0.000227469
-5.54334e-19
0.000227469
-9.10253e-20
0.000227469
4.32362e-20
0.000227469
3.81099e-19
0.000227469
2.11617e-19
0.000227469
-4.92293e-19
0.000227469
6.33638e-20
0.000227469
-1.9918e-19
0.000227469
-4.53201e-20
0.000227469
8.58492e-20
0.000227469
-6.81488e-19
0.000227469
1.25748e-20
0.000227469
1.50444e-19
0.000227469
1.67483e-19
0.000227469
4.65941e-20
0.000227469
-4.23621e-19
0.000227469
4.95171e-19
0.000227469
2.06155e-19
0.000227469
-1.45718e-19
0.000227469
-2.1369e-19
0.000227469
-2.50436e-19
0.000227469
7.64376e-19
0.000227469
1.45158e-19
0.000227469
-6.61535e-20
0.000227469
1.10245e-19
0.000227469
-4.47044e-19
0.000227469
1.54105e-19
0.000227469
-2.65524e-21
0.000227469
2.79392e-21
0.000227469
6.34706e-20
0.000227469
-1.57216e-19
0.000227469
5.52171e-19
0.000227469
2.17312e-19
0.000227469
1.85502e-19
0.000227469
6.27937e-20
0.000227469
-4.45879e-19
0.000227469
1.71498e-19
0.000227469
6.37889e-20
0.000227469
1.41293e-19
0.000227469
-6.83506e-20
0.000227469
-6.32124e-19
0.000227469
7.78935e-20
0.000227469
-1.48931e-19
0.000227469
-9.33428e-20
0.000227469
9.40824e-20
0.000227469
-4.54132e-19
0.000227469
2.0529e-19
0.000227469
3.05964e-20
0.000227469
3.08532e-20
0.000227469
9.65434e-20
0.000227469
-4.33195e-19
0.000227469
3.67908e-19
0.000227469
3.81462e-19
0.000227469
-3.80108e-20
0.000227469
-1.967e-19
0.000227469
-2.7097e-19
0.000227469
4.55441e-19
0.000227469
1.55223e-19
0.000227469
-2.1478e-19
0.000227469
-4.22567e-20
0.000227469
-1.52832e-19
0.000227469
2.95616e-19
0.000227469
2.07984e-19
0.000227469
-2.45316e-19
0.000227469
-2.01108e-19
0.000227469
-1.4827e-19
0.000227469
4.23376e-19
0.000227469
3.03687e-19
0.000227469
-5.11938e-20
0.000227469
-4.73163e-19
0.000227469
-5.57905e-19
0.000227469
7.86577e-20
0.000227469
-1.46105e-19
0.000227469
-1.7812e-19
0.000227469
-3.38206e-19
0.000227469
-1.88774e-19
0.000227469
9.51361e-20
0.000227469
-2.16048e-19
0.000227469
-1.42783e-20
0.000227469
-1.23863e-19
0.000227469
-5.5388e-19
0.000227469
-5.39011e-19
0.000227469
-7.65991e-19
0.000227469
-5.79858e-19
0.000227469
-1.03773e-18
-1.73327e-18
0.000314232
-1.2778e-18
0.000314232
-1.11902e-18
0.000314232
-8.67925e-19
0.000314232
-6.51791e-19
0.000314232
-3.98376e-19
0.000314232
-2.38713e-19
0.000314232
-1.54501e-19
0.000314232
-5.26608e-20
0.000314232
-7.56053e-20
0.000314232
-7.8093e-20
0.000314232
-1.14327e-20
0.000314232
3.48212e-20
0.000314232
3.55013e-20
0.000314232
-3.7369e-21
0.000314232
-5.52594e-20
0.000314232
-6.37857e-20
0.000314232
-8.52719e-20
0.000314232
-1.27191e-19
0.000314232
-1.44971e-19
0.000314232
-1.58913e-19
0.000314232
-1.85534e-19
0.000314232
-2.57306e-19
0.000314232
-2.39724e-19
0.000314232
-2.56791e-19
0.000314232
-2.98083e-19
0.000314232
-1.42798e-19
0.000314232
-8.72604e-20
0.000314232
-1.46952e-19
0.000314232
-1.85452e-19
0.000314232
-1.06357e-19
0.000314232
9.11205e-20
0.000314232
2.69033e-19
0.000314232
1.35138e-19
0.000314232
5.77023e-20
0.000314232
1.54035e-21
0.000314232
1.08888e-20
0.000314232
1.23391e-19
0.000314232
1.62061e-19
0.000314232
8.00627e-20
0.000314232
1.23036e-19
0.000314232
8.27095e-20
0.000314232
7.92014e-20
0.000314232
1.05991e-19
0.000314232
1.73631e-20
0.000314232
9.27529e-20
0.000314232
1.71573e-19
0.000314232
1.92141e-19
0.000314232
1.85756e-19
0.000314232
1.26458e-19
0.000314232
4.05578e-20
0.000314232
-9.6137e-21
0.000314232
2.67646e-20
0.000314232
7.4232e-20
0.000314232
8.21817e-20
0.000314232
1.51668e-19
0.000314232
6.17557e-20
0.000314232
1.0434e-19
0.000314232
1.78789e-19
0.000314232
1.96989e-19
0.000314232
1.91377e-19
0.000314232
3.62033e-21
0.000314232
1.63701e-19
0.000314232
9.56945e-20
0.000314232
3.90225e-20
0.000314232
4.09195e-20
0.000314232
-1.5818e-19
0.000314232
2.50012e-20
0.000314232
3.6508e-20
0.000314232
7.27616e-20
0.000314232
4.12738e-20
0.000314232
-1.3404e-19
0.000314232
-1.48955e-19
0.000314232
-1.66674e-19
0.000314232
-5.76553e-20
0.000314232
8.88321e-20
0.000314232
-1.28975e-19
0.000314232
-1.64508e-19
0.000314232
-2.51623e-20
0.000314232
-4.91345e-20
0.000314232
5.26593e-20
0.000314232
-3.31031e-21
0.000314232
-1.19492e-19
0.000314232
8.2809e-20
0.000314232
1.1866e-19
0.000314232
1.45719e-20
0.000314232
-1.50021e-19
0.000314232
-1.13337e-19
0.000314232
-4.30355e-20
0.000314232
7.24129e-21
0.000314232
2.02129e-19
0.000314232
5.03229e-20
0.000314232
-8.15806e-20
0.000314232
1.66745e-20
0.000314232
5.31377e-20
0.000314232
1.34921e-20
0.000314232
-1.75099e-19
0.000314232
-1.38389e-19
0.000314232
-1.41196e-19
0.000314232
-1.79854e-19
0.000314232
-1.46538e-19
0.000314232
-2.00787e-19
0.000314232
-2.77209e-19
0.000314232
-3.59302e-19
0.000314232
-2.38199e-19
0.000314232
-1.08199e-19
0.000314232
-1.11939e-19
0.000314232
-3.74968e-19
0.000314232
-3.02839e-19
0.000314232
1.2224e-19
0.000314232
2.83656e-19
0.000314232
-4.8398e-21
0.000314232
-3.43223e-19
0.000314232
3.89893e-20
0.000314232
3.40518e-19
0.000314232
2.34201e-19
0.000314232
-3.33187e-20
0.000314232
-3.31852e-19
0.000314232
-1.57716e-19
0.000314232
4.12407e-19
0.000314232
2.77723e-19
0.000314232
-2.14328e-19
0.000314232
-2.84567e-19
0.000314232
1.02912e-19
0.000314232
5.40166e-19
0.000314232
4.05507e-19
0.000314232
-1.71954e-19
0.000314232
-5.29385e-19
0.000314232
-9.95109e-20
0.000314232
3.619e-19
0.000314232
7.06095e-20
0.000314232
-1.87313e-19
0.000314232
-1.41581e-19
0.000314232
1.23575e-19
0.000314232
4.31893e-19
0.000314232
2.78686e-19
0.000314232
7.76329e-20
0.000314232
-1.86084e-19
0.000314232
3.38325e-20
0.000314232
5.10884e-19
0.000314232
3.13623e-19
0.000314232
-8.80664e-21
0.000314232
-1.82792e-19
0.000314232
1.24537e-19
0.000314232
1.91341e-19
0.000314232
-4.63742e-20
0.000314232
-1.63435e-19
0.000314232
-2.83158e-19
0.000314232
4.3548e-20
0.000314232
6.65521e-20
0.000314232
-2.85562e-20
0.000314232
8.52794e-20
0.000314232
-1.52078e-19
0.000314232
-1.75224e-19
0.000314232
4.85572e-20
0.000314232
2.35022e-19
0.000314232
2.18265e-19
0.000314232
-3.07744e-21
0.000314232
-4.95349e-20
0.000314232
1.47743e-19
0.000314232
2.79608e-19
0.000314232
2.65957e-19
0.000314232
-1.48871e-19
0.000314232
-6.2358e-20
0.000314232
1.07679e-19
0.000314232
-2.69442e-19
0.000314232
-1.89556e-19
0.000314232
-2.18791e-19
0.000314232
-2.048e-19
0.000314232
-1.03126e-19
0.000314232
-1.71173e-19
0.000314232
-2.41196e-19
0.000314232
-4.57934e-19
0.000314232
-1.37527e-19
0.000314232
1.55248e-19
0.000314232
-1.25703e-19
0.000314232
-2.97772e-19
0.000314232
-2.31579e-19
0.000314232
-8.45067e-20
0.000314232
-4.07426e-21
0.000314232
2.30082e-19
0.000314232
4.08365e-20
0.000314232
-4.44088e-19
0.000314232
-1.30911e-19
0.000314232
1.74707e-19
0.000314232
3.95167e-20
0.000314232
1.92644e-20
0.000314232
-1.83274e-19
0.000314232
-5.12239e-20
0.000314232
6.07575e-20
0.000314232
-1.86485e-19
0.000314232
-1.44404e-19
0.000314232
-1.54912e-19
0.000314232
-1.81636e-19
0.000314232
4.37942e-20
0.000314232
8.01712e-20
0.000314232
-2.88714e-20
0.000314232
-5.82629e-20
0.000314232
-4.67933e-20
0.000314232
1.21357e-19
0.000314232
5.4988e-20
0.000314232
-7.9968e-21
0.000314232
-8.19062e-20
0.000314232
1.35267e-19
0.000314232
2.27903e-19
0.000314232
5.05362e-20
0.000314232
-9.24124e-20
0.000314232
-1.33039e-19
0.000314232
8.53432e-20
0.000314232
1.00596e-19
0.000314232
2.91007e-20
0.000314232
4.54741e-21
0.000314232
-2.12296e-19
0.000314232
4.40726e-19
0.000314232
1.66373e-19
0.000314232
-2.42932e-19
0.000314232
3.09799e-19
0.000314232
1.74911e-20
0.000314232
2.66602e-20
0.000314232
-1.44195e-19
0.000314232
-3.7462e-19
0.000314232
4.67551e-19
0.000314232
1.29791e-19
0.000314232
-5.07911e-20
0.000314232
-1.66783e-19
0.000314232
-4.27854e-19
0.000314232
3.86846e-19
0.000314232
5.96682e-20
0.000314232
-3.09194e-19
0.000314232
-5.29227e-20
0.000314232
3.95464e-21
0.000314232
5.82414e-19
0.000314232