/*--------------------------------*- C++ -*----------------------------------*\
| =========                 |                                                 |
| \\      /  F ield         | OpenFOAM: The Open Source CFD Toolbox           |
|  \\    /   O peration     | Version:  2112                                  |
|   \\  /    A nd           | Website:  www.openfoam.com                      |
|    \\/     M anipulation  |                                                 |
\*---------------------------------------------------------------------------*/
FoamFile
{
    version     2.0;
    format      ascii;
    arch        "LSB;label=32;scalar=64";
    class       surfaceScalarField;
    location    "10";
    object      phi;
}
// * * * * * * * * * * * * * * * * * * * * * * * * * * * * * * * * * * * * * //

dimensions      [0 3 -1 0 0 0 0];

oriented        oriented;

internalField   nonuniform List<scalar> 
50800
(
2.34302e-05
-2.71725e-18
2.34302e-05
-4.75183e-19
2.34302e-05
-1.0346e-19
2.34302e-05
-5.00017e-20
2.34302e-05
-1.93265e-20
2.34302e-05
-2.23042e-20
2.34302e-05
-1.99782e-20
2.34302e-05
3.37434e-21
2.34302e-05
7.67477e-21
2.34302e-05
8.00881e-21
2.34302e-05
7.09568e-21
2.34302e-05
3.26968e-21
2.34302e-05
3.14179e-20
2.34302e-05
1.52719e-20
2.34302e-05
-2.51755e-20
2.34302e-05
1.41118e-20
2.34302e-05
1.67793e-20
2.34302e-05
1.15869e-20
2.34302e-05
5.77559e-21
2.34302e-05
7.41888e-21
2.34302e-05
6.48702e-21
2.34302e-05
-2.16312e-21
2.34302e-05
-1.44688e-20
2.34302e-05
-2.2043e-20
2.34302e-05
-2.13721e-20
2.34302e-05
-8.33037e-21
2.34302e-05
1.15031e-20
2.34302e-05
-2.18424e-20
2.34302e-05
-3.6244e-20
2.34302e-05
-3.66003e-20
2.34302e-05
2.88723e-21
2.34302e-05
3.71795e-20
2.34302e-05
8.20881e-21
2.34302e-05
-9.68019e-21
2.34302e-05
-4.25335e-21
2.34302e-05
-1.00958e-20
2.34302e-05
2.28314e-20
2.34302e-05
-1.03363e-20
2.34302e-05
-2.375e-20
2.34302e-05
2.0985e-20
2.34302e-05
-6.29304e-21
2.34302e-05
1.25725e-20
2.34302e-05
9.08699e-21
2.34302e-05
-1.51772e-20
2.34302e-05
1.30886e-20
2.34302e-05
-8.0498e-21
2.34302e-05
1.11604e-22
2.34302e-05
-3.97935e-21
2.34302e-05
-2.53293e-20
2.34302e-05
-2.77932e-20
2.34302e-05
-3.62144e-20
2.34302e-05
2.03754e-20
2.34302e-05
-4.8842e-21
2.34302e-05
-2.46929e-20
2.34302e-05
6.67122e-21
2.34302e-05
-4.06301e-20
2.34302e-05
2.25755e-21
2.34302e-05
-7.15516e-21
2.34302e-05
1.9657e-21
2.34302e-05
3.17982e-20
2.34302e-05
-4.97716e-20
2.34302e-05
3.80717e-20
2.34302e-05
6.12728e-21
2.34302e-05
3.39945e-21
2.34302e-05
5.52713e-20
2.34302e-05
-2.41316e-20
2.34302e-05
2.41391e-20
2.34302e-05
1.00022e-20
2.34302e-05
1.38988e-20
2.34302e-05
3.62609e-20
2.34302e-05
-1.81732e-20
2.34302e-05
-1.90354e-21
2.34302e-05
-2.11563e-20
2.34302e-05
-1.33404e-20
2.34302e-05
5.74986e-20
2.34302e-05
-4.73423e-20
2.34302e-05
-5.09748e-20
2.34302e-05
2.4385e-20
2.34302e-05
-1.57833e-20
2.34302e-05
2.41169e-20
2.34302e-05
-2.70328e-20
2.34302e-05
-7.55472e-20
2.34302e-05
1.18503e-20
2.34302e-05
3.66355e-20
2.34302e-05
4.20748e-20
2.34302e-05
-9.64694e-21
2.34302e-05
-2.36562e-20
2.34302e-05
7.71291e-21
2.34302e-05
3.41853e-20
2.34302e-05
7.45812e-20
2.34302e-05
-2.33147e-20
2.34302e-05
-6.5997e-20
2.34302e-05
1.52999e-20
2.34302e-05
5.52995e-20
2.34302e-05
5.79113e-21
2.34302e-05
-4.68035e-20
2.34302e-05
6.55259e-21
2.34302e-05
-5.1316e-21
2.34302e-05
2.54073e-20
2.34302e-05
2.36471e-20
2.34302e-05
-6.24893e-20
2.34302e-05
1.84738e-20
2.34302e-05
-3.34893e-20
2.34302e-05
1.40579e-20
2.34302e-05
3.85018e-20
2.34302e-05
1.85679e-20
2.34302e-05
-4.45526e-20
2.34302e-05
-8.79054e-21
2.34302e-05
7.29641e-20
2.34302e-05
4.44674e-20
2.34302e-05
3.85065e-20
2.34302e-05
-1.40783e-19
2.34302e-05
2.27891e-20
2.34302e-05
1.17126e-19
2.34302e-05
1.62357e-20
2.34302e-05
-2.24718e-20
2.34302e-05
-1.081e-19
2.34302e-05
3.68944e-21
2.34302e-05
9.99805e-20
2.34302e-05
2.0924e-20
2.34302e-05
-5.9942e-20
2.34302e-05
-1.2084e-19
2.34302e-05
-5.68102e-21
2.34302e-05
1.41195e-19
2.34302e-05
4.44958e-20
2.34302e-05
-7.18279e-20
2.34302e-05
-1.22199e-19
2.34302e-05
2.5325e-20
2.34302e-05
1.35163e-19
2.34302e-05
-2.31004e-21
2.34302e-05
-4.6235e-20
2.34302e-05
-6.94809e-20
2.34302e-05
2.80542e-20
2.34302e-05
8.94488e-20
2.34302e-05
-1.67338e-20
2.34302e-05
-2.76056e-20
2.34302e-05
-8.63684e-20
2.34302e-05
-2.32093e-20
2.34302e-05
8.17178e-20
2.34302e-05
-7.30297e-21
2.34302e-05
-3.27768e-20
2.34302e-05
-6.46163e-20
2.34302e-05
3.76093e-20
2.34302e-05
5.29443e-20
2.34302e-05
-1.53957e-20
2.34302e-05
-4.39714e-22
2.34302e-05
-6.71441e-20
2.34302e-05
1.72106e-20
2.34302e-05
5.26503e-21
2.34302e-05
-3.12682e-21
2.34302e-05
6.39918e-20
2.34302e-05
-8.02224e-20
2.34302e-05
-6.49308e-20
2.34302e-05
4.77817e-20
2.34302e-05
3.64544e-20
2.34302e-05
5.6851e-20
2.34302e-05
-4.47302e-20
2.34302e-05
-5.09385e-20
2.34302e-05
4.51849e-20
2.34302e-05
3.46119e-20
2.34302e-05
8.07289e-20
2.34302e-05
-8.97245e-20
2.34302e-05
-2.43711e-20
2.34302e-05
1.14648e-19
2.34302e-05
-7.51162e-20
2.34302e-05
6.03992e-20
2.34302e-05
1.42355e-20
2.34302e-05
-2.63702e-20
2.34302e-05
8.0773e-20
2.34302e-05
1.0046e-20
2.34302e-05
1.95376e-20
2.34302e-05
-7.3674e-20
2.34302e-05
2.47287e-20
2.34302e-05
6.0896e-20
2.34302e-05
-3.63771e-20
2.34302e-05
-2.90749e-20
2.34302e-05
-7.0117e-20
2.34302e-05
9.11623e-20
2.34302e-05
-2.88967e-20
2.34302e-05
-1.66748e-20
2.34302e-05
9.09849e-20
2.34302e-05
-1.62057e-19
2.34302e-05
-1.76122e-21
2.34302e-05
6.76028e-20
2.34302e-05
-2.38023e-20
2.34302e-05
9.8618e-20
2.34302e-05
-1.00709e-19
2.34302e-05
-8.05294e-21
2.34302e-05
1.08755e-19
2.34302e-05
-8.702e-20
2.34302e-05
3.86016e-20
2.34302e-05
-1.43804e-20
2.34302e-05
-6.79926e-20
2.34302e-05
1.09514e-19
2.34302e-05
-9.79983e-21
2.34302e-05
2.10958e-20
2.34302e-05
-6.09277e-20
2.34302e-05
-3.33053e-20
2.34302e-05
1.38969e-19
2.34302e-05
-9.45622e-20
2.34302e-05
1.59841e-20
2.34302e-05
-6.03128e-20
2.34302e-05
2.7673e-21
2.34302e-05
1.3671e-19
2.34302e-05
-6.67284e-20
2.34302e-05
-7.43618e-20
2.34302e-05
-7.15487e-20
2.34302e-05
4.54259e-20
2.34302e-05
7.36401e-20
2.34302e-05
-1.9752e-20
2.34302e-05
-5.83201e-20
2.34302e-05
-9.40792e-20
2.34302e-05
2.29102e-19
2.34302e-05
3.41856e-21
2.34302e-05
-2.26878e-19
2.34302e-05
2.00095e-19
2.34302e-05
-1.10871e-21
2.34302e-05
-4.81567e-20
2.34302e-05
-2.58746e-20
2.34302e-05
-1.36107e-19
2.34302e-05
2.44508e-19
2.34302e-05
2.33197e-20
2.34302e-05
-9.29096e-20
2.34302e-05
-2.53604e-20
2.34302e-05
-1.50943e-19
2.34302e-05
2.378e-19
2.34302e-05
-1.42617e-20
2.34302e-05
-9.40007e-20
2.34302e-05
5.98394e-20
2.34302e-05
-8.84367e-20
2.34302e-05
1.7783e-19
2.34302e-05
-3.37848e-20
2.34302e-05
-3.71503e-20
2.34302e-05
8.04811e-20
2.34302e-05
-1.67985e-19
2.34302e-05
7.33342e-20
2.34302e-05
1.67151e-20
2.34302e-05
7.06134e-20
2.34302e-05
1.01854e-19
2.34302e-05
-1.85045e-19
2.34302e-05
1.07938e-19
2.34302e-05
-5.75068e-20
2.34302e-05
2.39937e-20
2.34302e-05
1.23647e-19
2.34302e-05
-2.63575e-19
2.34302e-05
2.94418e-20
2.34302e-05
6.45799e-20
2.34302e-05
8.10604e-20
2.34302e-05
3.04246e-20
2.34302e-05
-2.07875e-19
2.34302e-05
1.77261e-19
2.34302e-05
-2.71081e-20
2.34302e-05
-1.19316e-19
2.34302e-05
-1.35627e-20
2.34302e-05
-1.36415e-19
2.34302e-05
2.59007e-19
2.34302e-05
-2.52882e-20
2.34302e-05
-6.07935e-20
2.34302e-05
1.00619e-19
2.34302e-05
-1.82114e-19
2.34302e-05
1.05795e-19
2.34302e-05
1.8651e-20
2.34302e-05
-2.85968e-20
2.34302e-05
2.88718e-20
2.34302e-05
-1.14988e-19
2.34302e-05
1.85366e-19
2.34302e-05
1.30762e-20
2.34302e-05
-4.76892e-20
2.34302e-05
-7.64737e-21
2.34302e-05
-1.53309e-19
2.34302e-05
1.33474e-19
2.34302e-05
8.92018e-21
2.34302e-05
1.56406e-21
2.34302e-05
-4.91709e-21
2.34302e-05
-1.57004e-19
2.34302e-05
1.03641e-19
2.34302e-05
-1.47878e-21
2.34302e-05
-5.72683e-20
2.34302e-05
8.27184e-20
2.34302e-05
-1.34502e-19
2.34302e-05
5.66531e-20
2.34302e-05
3.9617e-20
2.34302e-05
-2.43068e-20
2.34302e-05
4.28583e-20
2.34302e-05
-1.21232e-19
2.34302e-05
7.2662e-20
2.34302e-05
1.1127e-19
2.34302e-05
-1.6566e-20
2.34302e-05
-9.21856e-20
2.34302e-05
-9.97717e-20
2.34302e-05
1.42956e-19
2.34302e-05
1.1534e-20
2.34302e-05
-6.09627e-20
2.34302e-05
-4.58717e-20
2.34302e-05
-4.10307e-20
2.34302e-05
1.31355e-19
2.34302e-05
-1.00302e-20
2.34302e-05
-2.95267e-20
2.34302e-05
-8.25589e-20
2.34302e-05
-3.50084e-20
2.34302e-05
1.59229e-19
2.34302e-05
3.9954e-20
2.34302e-05
4.39941e-20
2.34302e-05
-1.16245e-19
2.34302e-05
-1.02658e-19
2.34302e-05
9.80448e-20
2.34302e-05
1.50012e-20
2.34302e-05
6.95925e-20
2.34302e-05
-1.23402e-19
2.34302e-05
1.08153e-20
2.34302e-05
5.95785e-20
2.34302e-05
-1.19995e-19
2.34302e-05
1.06507e-19
2.34302e-05
-3.92975e-20
2.34302e-05
-1.02218e-19
2.34302e-05
4.08594e-20
2.34302e-05
-9.94599e-20
2.34302e-05
4.92731e-20
2.34302e-05
-1.13563e-19
-5.72849e-19
6.9119e-05
-1.69171e-18
6.9119e-05
-6.01544e-19
6.9119e-05
-2.50617e-19
6.9119e-05
-1.16196e-19
6.9119e-05
-6.02557e-20
6.9119e-05
-5.09237e-20
6.9119e-05
-5.05438e-20
6.9119e-05
-1.90974e-20
6.9119e-05
4.41577e-20
6.9119e-05
3.31235e-20
6.9119e-05
1.33681e-20
6.9119e-05
3.99178e-20
6.9119e-05
9.39649e-20
6.9119e-05
2.48598e-20
6.9119e-05
-3.57852e-20
6.9119e-05
4.60846e-20
6.9119e-05
6.17525e-20
6.9119e-05
4.42409e-20
6.9119e-05
2.11127e-20
6.9119e-05
2.34112e-20
6.9119e-05
1.96344e-20
6.9119e-05
-2.53356e-20
6.9119e-05
-2.4202e-20
6.9119e-05
-5.12742e-20
6.9119e-05
-7.3123e-20
6.9119e-05
-4.1352e-20
6.9119e-05
1.27827e-20
6.9119e-05
-7.18328e-20
6.9119e-05
-1.11346e-19
6.9119e-05
-9.51759e-20
6.9119e-05
-5.37745e-21
6.9119e-05
9.76415e-20
6.9119e-05
2.4283e-20
6.9119e-05
-2.671e-20
6.9119e-05
-1.19151e-20
6.9119e-05
-9.60357e-21
6.9119e-05
5.12368e-20
6.9119e-05
-1.20946e-20
6.9119e-05
-6.99417e-20
6.9119e-05
1.65688e-20
6.9119e-05
-1.27921e-20
6.9119e-05
2.46658e-20
6.9119e-05
2.24052e-20
6.9119e-05
-4.75288e-20
6.9119e-05
4.38345e-21
6.9119e-05
8.85796e-21
6.9119e-05
-3.85781e-21
6.9119e-05
-2.85914e-20
6.9119e-05
-8.305e-20
6.9119e-05
-8.17407e-20
6.9119e-05
-7.42151e-20
6.9119e-05
7.15683e-21
6.9119e-05
-2.02791e-20
6.9119e-05
-6.07757e-20
6.9119e-05
-1.0845e-21
6.9119e-05
-1.00366e-19
6.9119e-05
-7.57898e-21
6.9119e-05
-1.9115e-20
6.9119e-05
4.39451e-21
6.9119e-05
3.68543e-20
6.9119e-05
-1.15169e-19
6.9119e-05
8.69038e-20
6.9119e-05
1.93709e-20
6.9119e-05
1.89557e-20
6.9119e-05
1.54116e-19
6.9119e-05
-2.71258e-20
6.9119e-05
7.63651e-20
6.9119e-05
3.84508e-20
6.9119e-05
4.43848e-20
6.9119e-05
1.08842e-19
6.9119e-05
-4.76457e-20
6.9119e-05
-1.92683e-20
6.9119e-05
-5.0216e-20
6.9119e-05
-1.03671e-20
6.9119e-05
1.08585e-19
6.9119e-05
-1.27347e-19
6.9119e-05
-1.14926e-19
6.9119e-05
1.3245e-20
6.9119e-05
-5.88427e-20
6.9119e-05
2.96341e-20
6.9119e-05
-1.00331e-19
6.9119e-05
-1.79414e-19
6.9119e-05
2.93236e-20
6.9119e-05
1.16827e-19
6.9119e-05
1.16257e-19
6.9119e-05
-9.30927e-21
6.9119e-05
-5.21299e-21
6.9119e-05
1.06167e-20
6.9119e-05
8.60369e-20
6.9119e-05
1.87614e-19
6.9119e-05
-4.2026e-20
6.9119e-05
-1.26377e-19
6.9119e-05
3.23666e-20
6.9119e-05
8.67411e-20
6.9119e-05
3.01279e-20
6.9119e-05
-7.27992e-20
6.9119e-05
8.83051e-21
6.9119e-05
1.04368e-21
6.9119e-05
2.02645e-20
6.9119e-05
3.14691e-20
6.9119e-05
-9.42313e-20
6.9119e-05
-8.22094e-22
6.9119e-05
-7.19159e-20
6.9119e-05
2.16316e-20
6.9119e-05
1.10772e-19
6.9119e-05
9.29483e-20
6.9119e-05
-1.03696e-19
6.9119e-05
-3.46708e-20
6.9119e-05
2.1456e-19
6.9119e-05
1.9079e-19
6.9119e-05
4.12628e-20
6.9119e-05
-2.96838e-19
6.9119e-05
5.80594e-20
6.9119e-05
2.68479e-19
6.9119e-05
8.25473e-20
6.9119e-05
-4.7956e-20
6.9119e-05
-2.69393e-19
6.9119e-05
-5.00592e-20
6.9119e-05
2.63091e-19
6.9119e-05
8.27175e-20
6.9119e-05
-2.06658e-19
6.9119e-05
-2.9794e-19
6.9119e-05
-9.4545e-21
6.9119e-05
3.3533e-19
6.9119e-05
1.54571e-19
6.9119e-05
-1.78658e-19
6.9119e-05
-3.26423e-19
6.9119e-05
9.16362e-20
6.9119e-05
3.10761e-19
6.9119e-05
2.46152e-20
6.9119e-05
-1.05936e-19
6.9119e-05
-1.70593e-19
6.9119e-05
5.87433e-20
6.9119e-05
2.03909e-19
6.9119e-05
-2.25465e-20
6.9119e-05
-9.16787e-20
6.9119e-05
-2.32208e-19
6.9119e-05
-7.09381e-20
6.9119e-05
1.84285e-19
6.9119e-05
1.00667e-20
6.9119e-05
-1.10129e-19
6.9119e-05
-1.77237e-19
6.9119e-05
6.02151e-20
6.9119e-05
1.36193e-19
6.9119e-05
-4.27143e-20
6.9119e-05
-4.73082e-20
6.9119e-05
-1.59981e-19
6.9119e-05
4.35975e-20
6.9119e-05
2.39496e-20
6.9119e-05
-3.33863e-20
6.9119e-05
1.03762e-19
6.9119e-05
-1.66356e-19
6.9119e-05
-1.27825e-19
6.9119e-05
8.61531e-20
6.9119e-05
1.04357e-19
6.9119e-05
1.17953e-19
6.9119e-05
-7.81313e-20
6.9119e-05
-1.08588e-19
6.9119e-05
9.18573e-20
6.9119e-05
1.47854e-19
6.9119e-05
1.70718e-19
6.9119e-05
-1.84348e-19
6.9119e-05
-2.18718e-20
6.9119e-05
2.52448e-19
6.9119e-05
-1.03829e-19
6.9119e-05
9.00516e-20
6.9119e-05
7.58474e-20
6.9119e-05
8.4002e-21
6.9119e-05
1.88005e-19
6.9119e-05
6.64164e-20
6.9119e-05
1.49812e-20
6.9119e-05
-1.36904e-19
6.9119e-05
5.34887e-20
6.9119e-05
1.53153e-19
6.9119e-05
-4.9381e-20
6.9119e-05
-1.28772e-19
6.9119e-05
-1.4675e-19
6.9119e-05
1.22651e-19
6.9119e-05
-4.90873e-20
6.9119e-05
5.48309e-20
6.9119e-05
1.12842e-19
6.9119e-05
-3.75909e-19
6.9119e-05
-2.33461e-20
6.9119e-05
1.71496e-19
6.9119e-05
2.23258e-20
6.9119e-05
1.75862e-19
6.9119e-05
-1.95348e-19
6.9119e-05
-3.62966e-20
6.9119e-05
1.94576e-19
6.9119e-05
-1.07267e-19
6.9119e-05
2.4643e-20
6.9119e-05
-2.93962e-20
6.9119e-05
-1.07665e-19
6.9119e-05
1.73313e-19
6.9119e-05
6.91532e-20
6.9119e-05
5.24651e-20
6.9119e-05
-1.14679e-19
6.9119e-05
-5.98659e-20
6.9119e-05
1.97375e-19
6.9119e-05
-9.89619e-20
6.9119e-05
-2.56104e-20
6.9119e-05
-1.17457e-19
6.9119e-05
2.55859e-20
6.9119e-05
2.08599e-19
6.9119e-05
-9.69121e-20
6.9119e-05
-1.77739e-19
6.9119e-05
-1.82045e-19
6.9119e-05
8.80047e-20
6.9119e-05
1.24934e-19
6.9119e-05
-1.70176e-20
6.9119e-05
-7.73567e-20
6.9119e-05
-1.75869e-19
6.9119e-05
4.17792e-19
6.9119e-05
1.62489e-20
6.9119e-05
-3.95464e-19
6.9119e-05
3.54269e-19
6.9119e-05
-1.18029e-20
6.9119e-05
-3.57478e-20
6.9119e-05
-9.06111e-20
6.9119e-05
-2.80871e-19
6.9119e-05
5.1549e-19
6.9119e-05
5.64028e-20
6.9119e-05
-1.64491e-19
6.9119e-05
-8.9281e-20
6.9119e-05
-3.31559e-19
6.9119e-05
4.85406e-19
6.9119e-05
2.97218e-20
6.9119e-05
-1.82473e-19
6.9119e-05
1.03165e-19
6.9119e-05
-1.37311e-19
6.9119e-05
3.86664e-19
6.9119e-05
-1.98607e-20
6.9119e-05
-7.0004e-20
6.9119e-05
1.24045e-19
6.9119e-05
-3.60127e-19
6.9119e-05
1.1796e-19
6.9119e-05
6.30671e-20
6.9119e-05
2.44504e-19
6.9119e-05
2.50311e-19
6.9119e-05
-3.87063e-19
6.9119e-05
1.64862e-19
6.9119e-05
-1.02941e-19
6.9119e-05
1.02942e-19
6.9119e-05
2.12133e-19
6.9119e-05
-5.99994e-19
6.9119e-05
6.42305e-20
6.9119e-05
1.49418e-19
6.9119e-05
1.83019e-19
6.9119e-05
5.20376e-20
6.9119e-05
-4.29632e-19
6.9119e-05
3.70465e-19
6.9119e-05
-6.04855e-20
6.9119e-05
-3.30037e-19
6.9119e-05
-1.43026e-19
6.9119e-05
-2.2406e-19
6.9119e-05
6.23192e-19
6.9119e-05
-5.04151e-20
6.9119e-05
-1.14821e-19
6.9119e-05
1.62038e-19
6.9119e-05
-3.80177e-19
6.9119e-05
2.23286e-19
6.9119e-05
5.37312e-20
6.9119e-05
9.49055e-21
6.9119e-05
3.27617e-20
6.9119e-05
-2.14345e-19
6.9119e-05
4.18984e-19
6.9119e-05
-3.16378e-21
6.9119e-05
-8.34554e-20
6.9119e-05
-3.99547e-20
6.9119e-05
-3.61965e-19
6.9119e-05
2.85662e-19
6.9119e-05
4.30415e-20
6.9119e-05
1.21127e-20
6.9119e-05
-2.60882e-20
6.9119e-05
-3.92385e-19
6.9119e-05
2.39698e-19
6.9119e-05
-4.82832e-20
6.9119e-05
-7.12734e-20
6.9119e-05
1.22607e-19
6.9119e-05
-3.50866e-19
6.9119e-05
1.68546e-19
6.9119e-05
5.07279e-20
6.9119e-05
-1.26766e-20
6.9119e-05
9.8403e-20
6.9119e-05
-3.23672e-19
6.9119e-05
2.45943e-19
6.9119e-05
2.50575e-19
6.9119e-05
-1.00478e-19
6.9119e-05
-2.08932e-19
6.9119e-05
-2.27356e-19
6.9119e-05
3.15938e-19
6.9119e-05
1.98183e-20
6.9119e-05
-1.95705e-19
6.9119e-05
-4.56345e-20
6.9119e-05
-1.24269e-19
6.9119e-05
2.56187e-19
6.9119e-05
1.03074e-19
6.9119e-05
-1.65756e-19
6.9119e-05
-1.41949e-19
6.9119e-05
-9.9627e-20
6.9119e-05
3.50934e-19
6.9119e-05
2.41236e-19
6.9119e-05
5.848e-20
6.9119e-05
-3.03783e-19
6.9119e-05
-2.45743e-19
6.9119e-05
2.61061e-19
6.9119e-05
6.20025e-20
6.9119e-05
5.93419e-20
6.9119e-05
-2.56534e-19
6.9119e-05
1.46478e-21
6.9119e-05
1.44143e-19
6.9119e-05
-2.22352e-19
6.9119e-05
1.14772e-19
6.9119e-05
-5.66844e-20
6.9119e-05
-2.50017e-19
6.9119e-05
-2.005e-21
6.9119e-05
-1.98431e-19
6.9119e-05
1.00319e-19
6.9119e-05
-2.53003e-19
-7.9899e-19
0.000113636
-1.12882e-18
0.000113636
-5.77994e-19
0.000113636
-3.41482e-19
0.000113636
-2e-19
0.000113636
-1.23228e-19
0.000113636
-7.57579e-20
0.000113636
-6.5436e-20
0.000113636
-9.40595e-22
0.000113636
7.96815e-20
0.000113636
7.50891e-20
0.000113636
3.86597e-20
0.000113636
7.31615e-20
0.000113636
1.55435e-19
0.000113636
5.779e-20
0.000113636
-1.7206e-20
0.000113636
6.23357e-20
0.000113636
1.23752e-19
0.000113636
8.18227e-20
0.000113636
5.27904e-20
0.000113636
7.72263e-20
0.000113636
2.99246e-20
0.000113636
-4.19889e-20
0.000113636
-6.93402e-20
0.000113636
-1.14888e-19
0.000113636
-1.14854e-19
0.000113636
-8.58801e-20
0.000113636
-3.95961e-20
0.000113636
-1.51632e-19
0.000113636
-2.03601e-19
0.000113636
-1.76326e-19
0.000113636
2.72436e-20
0.000113636
1.38575e-19
0.000113636
2.80939e-20
0.000113636
-3.6392e-20
0.000113636
-3.69746e-20
0.000113636
-1.00816e-20
0.000113636
7.49266e-20
0.000113636
-2.19897e-20
0.000113636
-1.29923e-19
0.000113636
6.73102e-21
0.000113636
2.38667e-21
0.000113636
3.56799e-20
0.000113636
2.66939e-20
0.000113636
-8.33232e-20
0.000113636
-1.47088e-20
0.000113636
1.26454e-20
0.000113636
-1.5717e-20
0.000113636
-7.59521e-20
0.000113636
-1.62862e-19
0.000113636
-1.54249e-19
0.000113636
-1.65352e-19
0.000113636
-2.40517e-20
0.000113636
-4.01248e-20
0.000113636
-8.34863e-20
0.000113636
-3.5098e-20
0.000113636
-1.58366e-19
0.000113636
-5.02695e-20
0.000113636
-2.68878e-20
0.000113636
-2.12421e-20
0.000113636
4.9401e-20
0.000113636
-1.58681e-19
0.000113636
1.10945e-19
0.000113636
3.96499e-20
0.000113636
5.6742e-20
0.000113636
2.30144e-19
0.000113636
-2.67523e-20
0.000113636
1.47261e-19
0.000113636
1.0802e-19
0.000113636
1.10133e-19
0.000113636
1.64655e-19
0.000113636
-6.1874e-20
0.000113636
-9.89916e-21
0.000113636
-7.76108e-20
0.000113636
1.38811e-20
0.000113636
1.10129e-19
0.000113636
-2.34136e-19
0.000113636
-1.84439e-19
0.000113636
-3.9526e-20
0.000113636
-8.89106e-20
0.000113636
-1.64021e-20
0.000113636
-1.65812e-19
0.000113636
-2.42422e-19
0.000113636
3.70177e-20
0.000113636
1.9474e-19
0.000113636
1.71877e-19
0.000113636
1.21411e-21
0.000113636
1.28062e-21
0.000113636
7.90078e-20
0.000113636
1.22914e-19
0.000113636
2.74468e-19
0.000113636
1.27075e-20
0.000113636
-1.11491e-19
0.000113636
5.58477e-20
0.000113636
1.02912e-19
0.000113636
5.8926e-20
0.000113636
-1.05892e-19
0.000113636
3.22372e-20
0.000113636
-2.44868e-21
0.000113636
-1.2814e-20
0.000113636
1.42622e-22
0.000113636
-7.55797e-20
0.000113636
-5.00619e-20
0.000113636
-1.28651e-19
0.000113636
2.18658e-20
0.000113636
2.0554e-19
0.000113636
1.79945e-19
0.000113636
-1.27591e-19
0.000113636
-7.21539e-20
0.000113636
3.92178e-19
0.000113636
3.80865e-19
0.000113636
3.54498e-20
0.000113636
-4.21792e-19
0.000113636
8.27906e-20
0.000113636
4.22839e-19
0.000113636
1.95437e-19
0.000113636
-4.43803e-20
0.000113636
-4.08321e-19
0.000113636
-1.21268e-19
0.000113636
3.85753e-19
0.000113636
1.40662e-19
0.000113636
-3.82703e-19
0.000113636
-4.91714e-19
0.000113636
-3.23347e-20
0.000113636
5.20141e-19
0.000113636
2.745e-19
0.000113636
-2.68418e-19
0.000113636
-4.82194e-19
0.000113636
1.42359e-19
0.000113636
4.89285e-19
0.000113636
6.28096e-20
0.000113636
-1.79871e-19
0.000113636
-2.48464e-19
0.000113636
4.81452e-20
0.000113636
2.91649e-19
0.000113636
2.86687e-22
0.000113636
-1.8228e-19
0.000113636
-3.71593e-19
0.000113636
-1.16184e-19
0.000113636
2.79331e-19
0.000113636
5.26737e-21
0.000113636
-2.14592e-19
0.000113636
-2.69243e-19
0.000113636
7.60739e-20
0.000113636
1.89406e-19
0.000113636
-8.61103e-20
0.000113636
-1.15956e-19
0.000113636
-2.66337e-19
0.000113636
9.86898e-20
0.000113636
3.43044e-20
0.000113636
-9.88907e-20
0.000113636
1.4331e-19
0.000113636
-2.22453e-19
0.000113636
-1.88508e-19
0.000113636
9.0033e-20
0.000113636
1.89439e-19
0.000113636
1.95275e-19
0.000113636
-1.02155e-19
0.000113636
-1.51463e-19
0.000113636
1.48767e-19
0.000113636
2.77904e-19
0.000113636
2.541e-19
0.000113636
-2.24407e-19
0.000113636
2.60285e-20
0.000113636
3.65487e-19
0.000113636
-7.55689e-20
0.000113636
1.348e-19
0.000113636
1.57488e-19
0.000113636
1.5909e-19
0.000113636
2.66076e-19
0.000113636
1.11825e-19
0.000113636
1.40938e-20
0.000113636
-2.02122e-19
0.000113636
1.00888e-19
0.000113636
2.73495e-19
0.000113636
-7.94203e-20
0.000113636
-2.65745e-19
0.000113636
-2.28706e-19
0.000113636
7.35103e-20
0.000113636
-1.72299e-20
0.000113636
1.61129e-19
0.000113636
8.49429e-20
0.000113636
-5.81617e-19
0.000113636
-6.16316e-20
0.000113636
2.55848e-19
0.000113636
1.08001e-19
0.000113636
1.80288e-19
0.000113636
-2.56271e-19
0.000113636
-2.33715e-20
0.000113636
2.57698e-19
0.000113636
-1.14927e-19
0.000113636
-3.38495e-20
0.000113636
-4.98894e-20
0.000113636
-9.72278e-20
0.000113636
2.12895e-19
0.000113636
1.90777e-19
0.000113636
8.38791e-20
0.000113636
-1.37476e-19
0.000113636
-9.69493e-20
0.000113636
1.6738e-19
0.000113636
-7.54809e-20
0.000113636
-6.08143e-20
0.000113636
-1.46084e-19
0.000113636
7.48048e-20
0.000113636
2.31939e-19
0.000113636
-1.08231e-19
0.000113636
-2.6054e-19
0.000113636
-2.83808e-19
0.000113636
8.38467e-20
0.000113636
1.20278e-19
0.000113636
-9.06925e-21
0.000113636
-4.026e-20
0.000113636
-2.42e-19
0.000113636
5.45502e-19
0.000113636
6.19598e-20
0.000113636
-4.60819e-19
0.000113636
4.35966e-19
0.000113636
-5.11446e-20
0.000113636
4.08589e-21
0.000113636
-1.26934e-19
0.000113636
-3.93063e-19
0.000113636
6.75317e-19
0.000113636
5.53615e-20
0.000113636
-1.59382e-19
0.000113636
-1.33309e-19
0.000113636
-4.94697e-19
0.000113636
6.46711e-19
0.000113636
9.68119e-20
0.000113636
-2.06588e-19
0.000113636
1.58929e-19
0.000113636
-1.48659e-19
0.000113636
5.73606e-19
0.000113636
4.76451e-20
0.000113636
-1.20151e-19
0.000113636
1.12523e-19
0.000113636
-4.82114e-19
0.000113636
1.30563e-19
0.000113636
1.01917e-19
0.000113636
5.00087e-19
0.000113636
4.02057e-19
0.000113636
-5.4583e-19
0.000113636
1.81591e-19
0.000113636
-1.57908e-19
0.000113636
1.76659e-19
0.000113636
2.63904e-19
0.000113636
-8.96483e-19
0.000113636
9.83647e-20
0.000113636
1.80631e-19
0.000113636
2.471e-19
0.000113636
9.1324e-20
0.000113636
-5.52209e-19
0.000113636
5.44082e-19
0.000113636
-1.41086e-19
0.000113636
-5.75489e-19
0.000113636
-3.11274e-19
0.000113636
-2.54446e-19
0.000113636
9.1782e-19
0.000113636
-2.66729e-20
0.000113636
-1.22715e-19
0.000113636
2.02622e-19
0.000113636
-5.42899e-19
0.000113636
2.57976e-19
0.000113636
8.45985e-20
0.000113636
9.57105e-20
0.000113636
1.30586e-20
0.000113636
-2.9094e-19
0.000113636
6.30874e-19
0.000113636
-1.49021e-20
0.000113636
-1.19429e-19
0.000113636
-8.93812e-20
0.000113636
-5.60993e-19
0.000113636
4.47157e-19
0.000113636
5.79161e-20
0.000113636
-3.45512e-21
0.000113636
-7.96005e-20
0.000113636
-5.97961e-19
0.000113636
3.64742e-19
0.000113636
-8.40061e-20
0.000113636
-6.36144e-20
0.000113636
1.54392e-19
0.000113636
-6.03712e-19
0.000113636
2.68046e-19
0.000113636
3.55849e-20
0.000113636
2.99528e-20
0.000113636
1.66262e-19
0.000113636
-4.81139e-19
0.000113636
4.33544e-19
0.000113636
3.67111e-19
0.000113636
-1.97363e-19
0.000113636
-3.05166e-19
0.000113636
-3.56245e-19
0.000113636
4.557e-19
0.000113636
1.82587e-20
0.000113636
-2.80314e-19
0.000113636
-4.56374e-20
0.000113636
-2.29696e-19
0.000113636
3.35075e-19
0.000113636
2.45398e-19
0.000113636
-2.63526e-19
0.000113636
-2.09722e-19
0.000113636
-1.65024e-19
0.000113636
5.29762e-19
0.000113636
4.8391e-19
0.000113636
3.4578e-20
0.000113636
-4.55823e-19
0.000113636
-3.52654e-19
0.000113636
4.07532e-19
0.000113636
7.00106e-20
0.000113636
-6.65887e-21
0.000113636
-3.2233e-19
0.000113636
-5.33183e-20
0.000113636
2.31273e-19
0.000113636
-3.43462e-19
0.000113636
2.95486e-20
0.000113636
-3.79012e-20
0.000113636
-3.6624e-19
0.000113636
-7.95929e-20
0.000113636
-2.95591e-19
0.000113636
1.12118e-19
0.000113636
-3.08386e-19
-9.0203e-19
0.000156982
-8.30468e-19
0.000156982
-5.69826e-19
0.000156982
-3.71402e-19
0.000156982
-2.38057e-19
0.000156982
-1.81938e-19
0.000156982
-9.07298e-20
0.000156982
-3.45784e-20
0.000156982
1.2491e-20
0.000156982
1.17199e-19
0.000156982
6.36581e-20
0.000156982
6.0712e-20
0.000156982
1.50123e-19
0.000156982
1.9533e-19
0.000156982
9.17199e-20
0.000156982
5.74067e-21
0.000156982
1.50392e-19
0.000156982
1.80435e-19
0.000156982
1.83001e-19
0.000156982
1.30234e-19
0.000156982
5.26471e-20
0.000156982
6.50088e-20
0.000156982
-3.70554e-20
0.000156982
-1.21487e-19
0.000156982
-1.76002e-19
0.000156982
-2.03362e-19
0.000156982
-1.59066e-19
0.000156982
-7.09365e-20
0.000156982
-2.16058e-19
0.000156982
-3.47568e-19
0.000156982
-2.45599e-19
0.000156982
-1.2408e-20
0.000156982
1.96281e-19
0.000156982
4.6022e-20
0.000156982
-4.60045e-20
0.000156982
-5.89788e-20
0.000156982
-2.79498e-20
0.000156982
5.81024e-20
0.000156982
-2.64859e-20
0.000156982
-1.52011e-19
0.000156982
-4.36236e-20
0.000156982
-2.0835e-20
0.000156982
4.36635e-20
0.000156982
2.65304e-20
0.000156982
-9.90007e-20
0.000156982
-4.47188e-20
0.000156982
3.34046e-20
0.000156982
-3.22889e-20
0.000156982
-1.10647e-19
0.000156982
-2.42229e-19
0.000156982
-2.57153e-19
0.000156982
-2.65474e-19
0.000156982
-9.62399e-20
0.000156982
-9.93347e-20
0.000156982
-1.28659e-19
0.000156982
-5.63412e-20
0.000156982
-2.2212e-19
0.000156982
-1.10125e-19
0.000156982
-6.61689e-20
0.000156982
-3.07673e-20
0.000156982
5.15629e-20
0.000156982
-1.92039e-19
0.000156982
1.3093e-19
0.000156982
3.36449e-20
0.000156982
7.37723e-20
0.000156982
2.82448e-19
0.000156982
4.35215e-20
0.000156982
2.46169e-19
0.000156982
1.42924e-19
0.000156982
2.01974e-19
0.000156982
2.06165e-19
0.000156982
-6.4018e-20
0.000156982
-1.58985e-20
0.000156982
-8.93066e-20
0.000156982
5.97004e-20
0.000156982
8.62001e-20
0.000156982
-2.98861e-19
0.000156982
-2.76404e-19
0.000156982
-1.34921e-19
0.000156982
-1.83124e-19
0.000156982
-3.73365e-20
0.000156982
-2.22918e-19
0.000156982
-3.35842e-19
0.000156982
8.64198e-20
0.000156982
2.91312e-19
0.000156982
2.44217e-19
0.000156982
1.66975e-20
0.000156982
4.55841e-20
0.000156982
1.05294e-19
0.000156982
1.6462e-19
0.000156982
3.8668e-19
0.000156982
5.65637e-20
0.000156982
-8.11201e-20
0.000156982
6.86632e-20
0.000156982
1.34243e-19
0.000156982
8.21414e-20
0.000156982
-1.09704e-19
0.000156982
1.33985e-20
0.000156982
1.55214e-20
0.000156982
1.34824e-21
0.000156982
-8.19037e-21
0.000156982
-1.20556e-19
0.000156982
-1.10838e-19
0.000156982
-1.47033e-19
0.000156982
8.16795e-20
0.000156982
2.8075e-19
0.000156982
2.19566e-19
0.000156982
-1.24656e-19
0.000156982
-2.4185e-20
0.000156982
5.35359e-19
0.000156982
5.30386e-19
0.000156982
6.88068e-20
0.000156982
-4.85349e-19
0.000156982
8.16745e-20
0.000156982
5.48838e-19
0.000156982
3.37301e-19
0.000156982
-6.41389e-20
0.000156982
-4.69279e-19
0.000156982
-1.95726e-19
0.000156982
4.80178e-19
0.000156982
1.23926e-19
0.000156982
-5.56713e-19
0.000156982
-6.63463e-19
0.000156982
-7.25487e-20
0.000156982
6.33289e-19
0.000156982
4.37342e-19
0.000156982
-3.21604e-19
0.000156982
-6.07955e-19
0.000156982
2.08164e-19
0.000156982
6.43346e-19
0.000156982
7.14842e-20
0.000156982
-2.25738e-19
0.000156982
-3.39033e-19
0.000156982
4.31322e-20
0.000156982
3.88931e-19
0.000156982
3.31647e-20
0.000156982
-2.71936e-19
0.000156982
-4.60823e-19
0.000156982
-1.98757e-19
0.000156982
3.23412e-19
0.000156982
2.8302e-20
0.000156982
-3.49759e-19
0.000156982
-4.29702e-19
0.000156982
7.80621e-20
0.000156982
1.86146e-19
0.000156982
-7.83248e-20
0.000156982
-1.75089e-19
0.000156982
-3.55314e-19
0.000156982
5.12097e-20
0.000156982
3.53308e-20
0.000156982
-1.10719e-19
0.000156982
1.52584e-19
0.000156982
-2.47845e-19
0.000156982
-2.73938e-19
0.000156982
8.23259e-20
0.000156982
2.46024e-19
0.000156982
2.5022e-19
0.000156982
-1.21393e-19
0.000156982
-1.19655e-19
0.000156982
2.50191e-19
0.000156982
3.63355e-19
0.000156982
3.08789e-19
0.000156982
-2.25954e-19
0.000156982
1.40864e-19
0.000156982
4.84696e-19
0.000156982
-4.23593e-20
0.000156982
2.18186e-19
0.000156982
2.94974e-19
0.000156982
3.09902e-19
0.000156982
3.54741e-19
0.000156982
1.5874e-19
0.000156982
1.26827e-20
0.000156982
-3.42316e-19
0.000156982
1.93715e-19
0.000156982
3.8779e-19
0.000156982
-1.69103e-19
0.000156982
-3.17516e-19
0.000156982
-3.13065e-19
0.000156982
-1.87439e-20
0.000156982
-2.89193e-20
0.000156982
2.99006e-19
0.000156982
5.14399e-20
0.000156982
-7.39286e-19
0.000156982
-1.32572e-19
0.000156982
3.35541e-19
0.000156982
1.98374e-19
0.000156982
1.47922e-19
0.000156982
-3.19243e-19
0.000156982
1.00535e-20
0.000156982
3.50728e-19
0.000156982
-1.39251e-19
0.000156982
-1.32183e-19
0.000156982
-6.16128e-20
0.000156982
-5.33889e-20
0.000156982
2.64215e-19
0.000156982
2.49522e-19
0.000156982
1.81277e-19
0.000156982
-2.12488e-19
0.000156982
-1.51735e-19
0.000156982
1.65421e-19
0.000156982
-9.13431e-20
0.000156982
-1.03944e-19
0.000156982
-1.55593e-19
0.000156982
1.10452e-19
0.000156982
2.12142e-19
0.000156982
-1.22642e-19
0.000156982
-2.90597e-19
0.000156982
-3.74339e-19
0.000156982
2.07046e-20
0.000156982
1.19752e-19
0.000156982
8.7539e-20
0.000156982
-3.43292e-21
0.000156982
-2.96899e-19
0.000156982
5.96572e-19
0.000156982
9.05537e-20
0.000156982
-4.3543e-19
0.000156982
4.8371e-19
0.000156982
-8.71443e-20
0.000156982
6.43262e-20
0.000156982
-1.62058e-19
0.000156982
-4.75213e-19
0.000156982
8.051e-19
0.000156982
4.79969e-20
0.000156982
-1.25707e-19
0.000156982
-1.12921e-19
0.000156982
-6.22353e-19
0.000156982
7.50256e-19
0.000156982
1.5329e-19
0.000156982
-1.75176e-19
0.000156982
1.96017e-19
0.000156982
-1.52576e-19
0.000156982
7.58321e-19
0.000156982
1.2208e-19
0.000156982
-1.74229e-19
0.000156982
1.40888e-19
0.000156982
-4.91025e-19
0.000156982
1.64894e-19
0.000156982
1.00183e-19
0.000156982
6.55214e-19
0.000156982
5.73152e-19
0.000156982
-6.03445e-19
0.000156982
1.72207e-19
0.000156982
-1.80344e-19
0.000156982
2.45321e-19
0.000156982
2.83404e-19
0.000156982
-1.08905e-18
0.000156982
6.3018e-20
0.000156982