/*--------------------------------*- C++ -*----------------------------------*\
| =========                 |                                                 |
| \\      /  F ield         | OpenFOAM: The Open Source CFD Toolbox           |
|  \\    /   O peration     | Version:  2112                                  |
|   \\  /    A nd           | Website:  www.openfoam.com                      |
|    \\/     M anipulation  |                                                 |
\*---------------------------------------------------------------------------*/
FoamFile
{
    version     2.0;
    format      ascii;
    arch        "LSB;label=32;scalar=64";
    class       surfaceScalarField;
    location    "10";
    object      phi;
}
// * * * * * * * * * * * * * * * * * * * * * * * * * * * * * * * * * * * * * //

dimensions      [0 3 -1 0 0 0 0];

oriented        oriented;

internalField   nonuniform List<scalar> 
50800
(
2.34302e-05
-3.05582e-20
2.34302e-05
9.69583e-21
2.34302e-05
2.32216e-20
2.34302e-05
1.56293e-20
2.34302e-05
2.16622e-20
2.34302e-05
8.42981e-21
2.34302e-05
3.589e-21
2.34302e-05
1.10311e-20
2.34302e-05
7.61763e-21
2.34302e-05
-3.36871e-21
2.34302e-05
-9.61534e-21
2.34302e-05
-1.27422e-20
2.34302e-05
7.58872e-21
2.34302e-05
5.80754e-21
2.34302e-05
-1.46328e-21
2.34302e-05
2.83607e-20
2.34302e-05
1.47904e-20
2.34302e-05
-2.52782e-22
2.34302e-05
-1.074e-20
2.34302e-05
-3.70232e-21
2.34302e-05
1.47633e-20
2.34302e-05
3.72254e-21
2.34302e-05
-6.4631e-21
2.34302e-05
-9.71316e-21
2.34302e-05
-2.16948e-20
2.34302e-05
-5.97426e-21
2.34302e-05
3.43239e-20
2.34302e-05
6.95553e-21
2.34302e-05
-1.87661e-20
2.34302e-05
-5.05468e-21
2.34302e-05
1.69918e-20
2.34302e-05
4.31677e-20
2.34302e-05
-3.51617e-21
2.34302e-05
-2.73225e-20
2.34302e-05
-1.65849e-20
2.34302e-05
-9.74896e-21
2.34302e-05
2.70156e-20
2.34302e-05
-1.35798e-20
2.34302e-05
-3.53577e-20
2.34302e-05
2.53494e-20
2.34302e-05
-4.09799e-21
2.34302e-05
1.68352e-20
2.34302e-05
3.6691e-22
2.34302e-05
-2.59161e-20
2.34302e-05
9.03975e-21
2.34302e-05
-1.1039e-21
2.34302e-05
1.74628e-20
2.34302e-05
1.3653e-20
2.34302e-05
3.02519e-22
2.34302e-05
5.73989e-21
2.34302e-05
-3.52349e-20
2.34302e-05
1.73188e-20
2.34302e-05
4.41145e-21
2.34302e-05
3.53407e-21
2.34302e-05
4.1125e-20
2.34302e-05
-2.45404e-20
2.34302e-05
-7.2284e-22
2.34302e-05
-7.2986e-21
2.34302e-05
2.81829e-21
2.34302e-05
3.14597e-20
2.34302e-05
-6.68032e-20
2.34302e-05
2.63765e-20
2.34302e-05
-7.47854e-22
2.34302e-05
4.60486e-22
2.34302e-05
4.40334e-20
2.34302e-05
-4.02533e-20
2.34302e-05
-3.11154e-21
2.34302e-05
-6.51005e-21
2.34302e-05
1.34331e-20
2.34302e-05
3.61378e-20
2.34302e-05
-1.30364e-20
2.34302e-05
-6.25517e-21
2.34302e-05
-2.59759e-20
2.34302e-05
-6.83268e-21
2.34302e-05
5.13323e-20
2.34302e-05
-3.33254e-20
2.34302e-05
-5.3868e-20
2.34302e-05
2.2136e-20
2.34302e-05
1.3611e-21
2.34302e-05
4.17508e-20
2.34302e-05
-1.22354e-20
2.34302e-05
-6.49443e-20
2.34302e-05
7.86201e-21
2.34302e-05
3.7735e-21
2.34302e-05
2.30281e-20
2.34302e-05
-8.26676e-21
2.34302e-05
-2.20088e-20
2.34302e-05
-2.6717e-20
2.34302e-05
-4.41395e-21
2.34302e-05
6.48731e-20
2.34302e-05
-1.76472e-20
2.34302e-05
-5.12156e-20
2.34302e-05
6.46639e-21
2.34302e-05
4.67078e-20
2.34302e-05
4.19305e-21
2.34302e-05
-6.00371e-20
2.34302e-05
-1.10976e-20
2.34302e-05
-1.31042e-20
2.34302e-05
3.87502e-20
2.34302e-05
2.96158e-20
2.34302e-05
-5.99926e-20
2.34302e-05
1.51192e-20
2.34302e-05
-4.40648e-20
2.34302e-05
7.59322e-21
2.34302e-05
3.0059e-20
2.34302e-05
7.02942e-21
2.34302e-05
-5.90485e-20
2.34302e-05
-1.97095e-20
2.34302e-05
5.53881e-20
2.34302e-05
2.82019e-20
2.34302e-05
4.77908e-20
2.34302e-05
-1.33101e-19
2.34302e-05
2.46111e-20
2.34302e-05
1.01984e-19
2.34302e-05
2.4463e-20
2.34302e-05
9.74728e-21
2.34302e-05
-1.01553e-19
2.34302e-05
-2.6691e-20
2.34302e-05
9.4705e-20
2.34302e-05
5.56313e-20
2.34302e-05
-3.85138e-20
2.34302e-05
-1.04342e-19
2.34302e-05
-3.38339e-20
2.34302e-05
1.17847e-19
2.34302e-05
6.98774e-20
2.34302e-05
-3.89509e-20
2.34302e-05
-1.25078e-19
2.34302e-05
-3.19447e-21
2.34302e-05
1.26333e-19
2.34302e-05
1.86298e-20
2.34302e-05
-3.8111e-20
2.34302e-05
-8.43152e-20
2.34302e-05
8.19455e-21
2.34302e-05
9.42278e-20
2.34302e-05
7.31563e-21
2.34302e-05
8.64774e-21
2.34302e-05
-5.20412e-20
2.34302e-05
-1.04358e-21
2.34302e-05
1.01428e-19
2.34302e-05
1.85044e-20
2.34302e-05
-3.94751e-20
2.34302e-05
-7.60075e-20
2.34302e-05
1.64353e-20
2.34302e-05
5.21626e-20
2.34302e-05
-1.24156e-20
2.34302e-05
-1.28666e-21
2.34302e-05
-5.87419e-20
2.34302e-05
1.77236e-20
2.34302e-05
6.56602e-21
2.34302e-05
-2.52836e-21
2.34302e-05
6.46289e-20
2.34302e-05
-7.99573e-20
2.34302e-05
-6.34702e-20
2.34302e-05
4.01612e-20
2.34302e-05
4.30139e-20
2.34302e-05
3.46353e-20
2.34302e-05
-5.60117e-20
2.34302e-05
-6.8651e-20
2.34302e-05
1.72279e-20
2.34302e-05
2.67022e-20
2.34302e-05
9.21552e-20
2.34302e-05
-9.18286e-20
2.34302e-05
-3.70832e-20
2.34302e-05
9.15424e-20
2.34302e-05
-8.40744e-20
2.34302e-05
2.72033e-20
2.34302e-05
-2.39106e-20
2.34302e-05
-7.08231e-20
2.34302e-05
6.50057e-20
2.34302e-05
1.12984e-21
2.34302e-05
9.09586e-21
2.34302e-05
-9.30707e-20
2.34302e-05
1.19218e-21
2.34302e-05
5.68393e-20
2.34302e-05
-5.89861e-21
2.34302e-05
-7.90798e-21
2.34302e-05
-7.05916e-20
2.34302e-05
9.5367e-20
2.34302e-05
-3.34043e-20
2.34302e-05
-1.30511e-20
2.34302e-05
1.21015e-19
2.34302e-05
-1.46511e-19
2.34302e-05
-5.23743e-21
2.34302e-05
7.30151e-20
2.34302e-05
-1.29841e-20
2.34302e-05
1.23002e-19
2.34302e-05
-7.89781e-20
2.34302e-05
-1.60479e-20
2.34302e-05
1.12518e-19
2.34302e-05
-8.51147e-20
2.34302e-05
3.56499e-20
2.34302e-05
-1.34518e-20
2.34302e-05
-6.74902e-20
2.34302e-05
9.62607e-20
2.34302e-05
-3.15202e-21
2.34302e-05
2.40032e-20
2.34302e-05
-4.62805e-20
2.34302e-05
-3.99221e-20
2.34302e-05
1.28734e-19
2.34302e-05
-7.70073e-20
2.34302e-05
1.69057e-20
2.34302e-05
-5.69436e-20
2.34302e-05
5.13978e-21
2.34302e-05
1.47512e-19
2.34302e-05
-4.56301e-20
2.34302e-05
-6.94417e-20
2.34302e-05
-6.36953e-20
2.34302e-05
5.57695e-20
2.34302e-05
7.61278e-20
2.34302e-05
-2.25307e-20
2.34302e-05
-5.0666e-20
2.34302e-05
-1.0157e-19
2.34302e-05
2.2216e-19
2.34302e-05
2.27909e-20
2.34302e-05
-2.33033e-19
2.34302e-05
1.62969e-19
2.34302e-05
-2.28151e-20
2.34302e-05
-6.13703e-20
2.34302e-05
-2.07901e-20
2.34302e-05
-1.43846e-19
2.34302e-05
2.32531e-19
2.34302e-05
4.42597e-20
2.34302e-05
-8.58184e-20
2.34302e-05
-2.7299e-20
2.34302e-05
-1.63652e-19
2.34302e-05
2.32237e-19
2.34302e-05
4.47312e-21
2.34302e-05
-7.99961e-20
2.34302e-05
5.58443e-20
2.34302e-05
-1.3012e-19
2.34302e-05
1.34906e-19
2.34302e-05
-5.22397e-20
2.34302e-05
-4.59999e-20
2.34302e-05
7.5162e-20
2.34302e-05
-1.68973e-19
2.34302e-05
5.43702e-20
2.34302e-05
-3.94376e-22
2.34302e-05
3.49194e-20
2.34302e-05
9.70657e-20
2.34302e-05
-1.79748e-19
2.34302e-05
9.82382e-20
2.34302e-05
-5.52739e-20
2.34302e-05
-8.67095e-21
2.34302e-05
1.13934e-19
2.34302e-05
-2.47322e-19
2.34302e-05
2.88871e-20
2.34302e-05
5.45056e-20
2.34302e-05
5.83286e-20
2.34302e-05
2.61682e-20
2.34302e-05
-1.83185e-19
2.34302e-05
1.96986e-19
2.34302e-05
1.13068e-20
2.34302e-05
-1.07515e-19
2.34302e-05
-1.17878e-20
2.34302e-05
-1.4762e-19
2.34302e-05
2.61397e-19
2.34302e-05
-5.88713e-21
2.34302e-05
-5.5299e-20
2.34302e-05
1.05271e-19
2.34302e-05
-1.91321e-19
2.34302e-05
9.34706e-20
2.34302e-05
1.66022e-20
2.34302e-05
-1.11229e-20
2.34302e-05
4.11022e-20
2.34302e-05
-1.30448e-19
2.34302e-05
1.59838e-19
2.34302e-05
1.54258e-20
2.34302e-05
-2.92227e-20
2.34302e-05
1.7537e-20
2.34302e-05
-1.5668e-19
2.34302e-05
9.71671e-20
2.34302e-05
8.30118e-21
2.34302e-05
2.90862e-20
2.34302e-05
4.20833e-20
2.34302e-05
-1.35464e-19
2.34302e-05
1.06241e-19
2.34302e-05
3.17894e-20
2.34302e-05
-4.09366e-20
2.34302e-05
9.94441e-20
2.34302e-05
-1.31696e-19
2.34302e-05
3.74792e-20
2.34302e-05
2.46319e-20
2.34302e-05
-2.27148e-20
2.34302e-05
3.99324e-20
2.34302e-05
-1.59896e-19
2.34302e-05
2.02963e-20
2.34302e-05
1.00787e-19
2.34302e-05
-2.14029e-20
2.34302e-05
-9.93158e-20
2.34302e-05
-1.16368e-19
2.34302e-05
1.44927e-19
2.34302e-05
3.83038e-20
2.34302e-05
-4.01363e-20
2.34302e-05
-3.90438e-20
2.34302e-05
-4.63913e-20
2.34302e-05
1.2779e-19
2.34302e-05
1.23553e-20
2.34302e-05
-7.55426e-21
2.34302e-05
-8.62364e-20
2.34302e-05
-5.67762e-20
2.34302e-05
1.39325e-19
2.34302e-05
2.53896e-20
2.34302e-05
4.77852e-20
2.34302e-05
-1.2084e-19
2.34302e-05
-1.17395e-19
2.34302e-05
7.63112e-20
2.34302e-05
1.15611e-20
2.34302e-05
9.85218e-20
2.34302e-05
-1.03042e-19
2.34302e-05
1.06836e-21
2.34302e-05
6.80592e-20
2.34302e-05
-1.0597e-19
2.34302e-05
1.13114e-19
2.34302e-05
-1.00774e-20
2.34302e-05
-5.60552e-20
2.34302e-05
7.54098e-20
2.34302e-05
-6.57602e-20
2.34302e-05
1.11071e-19
2.34302e-05
4.08333e-20
-8.0292e-20
6.9119e-05
2.08677e-20
6.9119e-05
3.85278e-20
6.9119e-05
3.07557e-20
6.9119e-05
5.7462e-20
6.9119e-05
6.56878e-20
6.9119e-05
4.01926e-20
6.9119e-05
4.34989e-21
6.9119e-05
2.09413e-20
6.9119e-05
1.28554e-20
6.9119e-05
-3.10442e-20
6.9119e-05
-4.8688e-20
6.9119e-05
-4.73417e-20
6.9119e-05
2.04554e-20
6.9119e-05
2.56329e-20
6.9119e-05
2.22237e-20
6.9119e-05
8.75785e-20
6.9119e-05
3.25346e-20
6.9119e-05
5.65719e-21
6.9119e-05
-1.28459e-20
6.9119e-05
-1.29485e-21
6.9119e-05
2.22758e-20
6.9119e-05
4.16851e-20
6.9119e-05
3.48546e-21
6.9119e-05
-1.50166e-20
6.9119e-05
-5.38344e-20
6.9119e-05
-2.11249e-20
6.9119e-05
6.65887e-20
6.9119e-05
2.56159e-20
6.9119e-05
-1.25791e-20
6.9119e-05
-1.38516e-20
6.9119e-05
4.31164e-20
6.9119e-05
9.18899e-20
6.9119e-05
-4.77547e-21
6.9119e-05
-5.90211e-20
6.9119e-05
-5.26002e-20
6.9119e-05
-1.97713e-20
6.9119e-05
6.13903e-20
6.9119e-05
-2.80362e-20
6.9119e-05
-1.04738e-19
6.9119e-05
4.16737e-20
6.9119e-05
1.01155e-20
6.9119e-05
1.48123e-20
6.9119e-05
1.91605e-20
6.9119e-05
-6.54474e-20
6.9119e-05
3.62611e-21
6.9119e-05
7.56438e-21
6.9119e-05
3.39596e-20
6.9119e-05
4.93775e-20
6.9119e-05
4.90277e-21
6.9119e-05
1.36394e-20
6.9119e-05
-5.46653e-20
6.9119e-05
2.65139e-20
6.9119e-05
5.27748e-21
6.9119e-05
2.80199e-20
6.9119e-05
1.09156e-19
6.9119e-05
-3.51398e-20
6.9119e-05
-1.22849e-20
6.9119e-05
-2.44517e-20
6.9119e-05
1.2893e-21
6.9119e-05
5.40745e-20
6.9119e-05
-1.55141e-19
6.9119e-05
5.25407e-20
6.9119e-05
1.52174e-20
6.9119e-05
-1.05132e-20
6.9119e-05
8.94083e-20
6.9119e-05
-9.05409e-20
6.9119e-05
9.68667e-22
6.9119e-05
-1.09384e-20
6.9119e-05
1.82725e-20
6.9119e-05
9.70888e-20
6.9119e-05
-3.0604e-20
6.9119e-05
-4.02708e-20
6.9119e-05
-7.34698e-20
6.9119e-05
-6.87022e-21
6.9119e-05
1.32706e-19
6.9119e-05
-9.80333e-20
6.9119e-05
-1.28974e-19
6.9119e-05
2.45764e-20
6.9119e-05
-2.73767e-20
6.9119e-05
9.27738e-20
6.9119e-05
-3.51561e-20
6.9119e-05
-1.57123e-19
6.9119e-05
1.60809e-21
6.9119e-05
2.31462e-20
6.9119e-05
4.07591e-20
6.9119e-05
-4.59491e-20
6.9119e-05
-3.15513e-20
6.9119e-05
-6.67158e-20
6.9119e-05
-3.19881e-20
6.9119e-05
1.69282e-19
6.9119e-05
-4.34339e-20
6.9119e-05
-1.22509e-19
6.9119e-05
6.74069e-21
6.9119e-05
8.95801e-20
6.9119e-05
1.79899e-20
6.9119e-05
-1.45732e-19
6.9119e-05
-2.71065e-20
6.9119e-05
-4.63251e-20
6.9119e-05
5.99484e-20
6.9119e-05
6.47716e-20
6.9119e-05
-9.91385e-20
6.9119e-05
5.53749e-21
6.9119e-05
-8.6768e-20
6.9119e-05
-5.88006e-21
6.9119e-05
8.42423e-20
6.9119e-05
4.80528e-20
6.9119e-05
-1.44092e-19
6.9119e-05
-9.85741e-20
6.9119e-05
1.36962e-19
6.9119e-05
1.37599e-19
6.9119e-05
6.74327e-20
6.9119e-05
-2.82749e-19
6.9119e-05
3.83293e-20
6.9119e-05
2.41207e-19
6.9119e-05
1.15208e-19
6.9119e-05
1.17616e-20
6.9119e-05
-2.49915e-19
6.9119e-05
-1.02977e-19
6.9119e-05
2.63861e-19
6.9119e-05
1.79826e-19
6.9119e-05
-1.32368e-19
6.9119e-05
-2.80218e-19
6.9119e-05
-8.22205e-20
6.9119e-05
2.8839e-19
6.9119e-05
2.26286e-19
6.9119e-05
-8.63327e-20
6.9119e-05
-3.27505e-19
6.9119e-05
1.26294e-20
6.9119e-05
3.0323e-19
6.9119e-05
5.57914e-20
6.9119e-05
-7.82323e-20
6.9119e-05
-1.90503e-19
6.9119e-05
-5.76492e-21
6.9119e-05
2.20452e-19
6.9119e-05
7.08213e-20
6.9119e-05
3.73581e-20
6.9119e-05
-1.49969e-19
6.9119e-05
-1.07439e-20
6.9119e-05
2.66991e-19
6.9119e-05
7.18484e-20
6.9119e-05
-8.89148e-20
6.9119e-05
-1.83623e-19
6.9119e-05
3.38464e-20
6.9119e-05
1.22368e-19
6.9119e-05
-3.74318e-20
6.9119e-05
-1.8976e-20
6.9119e-05
-1.49968e-19
6.9119e-05
3.1095e-20
6.9119e-05
5.18139e-20
6.9119e-05
-1.74973e-20
6.9119e-05
1.23703e-19
6.9119e-05
-1.72177e-19
6.9119e-05
-1.48647e-19
6.9119e-05
8.3254e-20
6.9119e-05
1.05574e-19
6.9119e-05
8.13357e-20
6.9119e-05
-1.31871e-19
6.9119e-05
-1.83921e-19
6.9119e-05
1.88445e-20
6.9119e-05
1.06201e-19
6.9119e-05
1.87199e-19
6.9119e-05
-1.92353e-19
6.9119e-05
-7.78053e-20
6.9119e-05
1.8413e-19
6.9119e-05
-1.63754e-19
6.9119e-05
1.54127e-20
6.9119e-05
-5.73322e-20
6.9119e-05
-1.25816e-19
6.9119e-05
9.19137e-20
6.9119e-05
3.11055e-20
6.9119e-05
-3.53936e-20
6.9119e-05
-2.07865e-19
6.9119e-05
-1.03663e-20
6.9119e-05
1.51879e-19
6.9119e-05
4.14863e-20
6.9119e-05
-4.18428e-20
6.9119e-05
-1.29176e-19
6.9119e-05
1.16891e-19
6.9119e-05
-7.37598e-20
6.9119e-05
8.08472e-20
6.9119e-05
1.91612e-19
6.9119e-05
-3.11589e-19
6.9119e-05
-2.8383e-20
6.9119e-05
1.93599e-19
6.9119e-05
5.97279e-20
6.9119e-05
2.23853e-19
6.9119e-05
-1.51004e-19
6.9119e-05
-3.30335e-20
6.9119e-05
2.20006e-19
6.9119e-05
-8.62883e-20
6.9119e-05
1.88847e-20
6.9119e-05
-4.32687e-20
6.9119e-05
-1.32704e-19
6.9119e-05
1.63957e-19
6.9119e-05
6.00875e-20
6.9119e-05
5.37506e-20
6.9119e-05
-8.77718e-20
6.9119e-05
-8.60385e-20
6.9119e-05
1.73129e-19
6.9119e-05
-5.48606e-20
6.9119e-05
1.73156e-20
6.9119e-05
-1.05653e-19
6.9119e-05
5.57993e-20
6.9119e-05
2.52767e-19
6.9119e-05
-4.36823e-20
6.9119e-05
-1.34351e-19
6.9119e-05
-1.63023e-19
6.9119e-05
8.4676e-20
6.9119e-05
1.11793e-19
6.9119e-05
-4.29799e-20
6.9119e-05
-5.50438e-20
6.9119e-05
-1.905e-19
6.9119e-05
4.36168e-19
6.9119e-05
6.13045e-20
6.9119e-05
-4.26554e-19
6.9119e-05
2.4841e-19
6.9119e-05
-1.17152e-19
6.9119e-05
-8.12905e-20
6.9119e-05
-7.0737e-20
6.9119e-05
-3.11547e-19
6.9119e-05
4.76425e-19
6.9119e-05
1.20589e-19
6.9119e-05
-1.29675e-19
6.9119e-05
-8.86023e-20
6.9119e-05
-3.59366e-19
6.9119e-05
4.59608e-19
6.9119e-05
6.60526e-20
6.9119e-05
-1.3865e-19
6.9119e-05
6.65887e-20
6.9119e-05
-2.73533e-19
6.9119e-05
2.52064e-19
6.9119e-05
-1.13677e-19
6.9119e-05
-1.06595e-19
6.9119e-05
1.10051e-19
6.9119e-05
-3.7729e-19
6.9119e-05
7.17998e-20
6.9119e-05
-9.47044e-21
6.9119e-05
1.43371e-19
6.9119e-05
2.31182e-19
6.9119e-05
-4.07696e-19
6.9119e-05
1.49239e-19
6.9119e-05
-1.20515e-19
6.9119e-05
1.4289e-20
6.9119e-05
1.94828e-19
6.9119e-05
-6.00768e-19
6.9119e-05
6.25123e-20
6.9119e-05
1.16186e-19
6.9119e-05
1.34604e-19
6.9119e-05
7.47148e-20
6.9119e-05
-3.85369e-19
6.9119e-05
4.5008e-19
6.9119e-05
4.84634e-20
6.9119e-05
-2.77228e-19
6.9119e-05
-1.0925e-19
6.9119e-05
-2.77851e-19
6.9119e-05
6.16275e-19
6.9119e-05
3.76243e-20
6.9119e-05
-9.14183e-20
6.9119e-05
1.90708e-19
6.9119e-05
-4.05556e-19
6.9119e-05
1.75985e-19
6.9119e-05
4.8337e-20
6.9119e-05
2.77602e-20
6.9119e-05
6.88186e-20
6.9119e-05
-2.58467e-19
6.9119e-05
3.55841e-19
6.9119e-05
2.79317e-20
6.9119e-05
-3.32255e-20
6.9119e-05
2.80576e-20
6.9119e-05
-3.75501e-19
6.9119e-05
1.94169e-19
6.9119e-05
1.32897e-20
6.9119e-05
1.11474e-19
6.9119e-05
9.78549e-20
6.9119e-05
-3.396e-19
6.9119e-05
2.81491e-19
6.9119e-05
4.76507e-20
6.9119e-05
-1.40803e-21
6.9119e-05
1.86296e-19
6.9119e-05
-3.66001e-19
6.9119e-05
1.22322e-19
6.9119e-05
2.63536e-20
6.9119e-05
-2.92262e-20
6.9119e-05
6.6014e-20
6.9119e-05
-4.27883e-19
6.9119e-05
8.87238e-20
6.9119e-05
1.91767e-19
6.9119e-05
-8.25403e-20
6.9119e-05
-2.22275e-19
6.9119e-05
-2.65732e-19
6.9119e-05
3.11133e-19
6.9119e-05
9.47596e-20
6.9119e-05
-1.2859e-19
6.9119e-05
-2.40583e-20
6.9119e-05
-1.24355e-19
6.9119e-05
2.42966e-19
6.9119e-05
1.33716e-19
6.9119e-05
-1.12344e-19
6.9119e-05
-1.3091e-19
6.9119e-05
-1.70677e-19
6.9119e-05
2.81118e-19
6.9119e-05
1.86763e-19
6.9119e-05
4.2326e-20
6.9119e-05
-3.056e-19
6.9119e-05
-2.99013e-19
6.9119e-05
2.0238e-19
6.9119e-05
8.40291e-20
6.9119e-05
1.36165e-19
6.9119e-05
-2.1134e-19
6.9119e-05
-9.66691e-21
6.9119e-05
1.8833e-19
6.9119e-05
-1.9692e-19
6.9119e-05
1.59855e-19
6.9119e-05
3.63746e-20
6.9119e-05
-1.20182e-19
6.9119e-05
1.19097e-19
6.9119e-05
-9.93976e-20
6.9119e-05
2.82279e-19
6.9119e-05
9.89868e-20
-1.05169e-19
0.000113636
6.92053e-20
0.000113636
5.87949e-20
0.000113636
4.46723e-20
0.000113636
9.70982e-20
0.000113636
9.77197e-20
0.000113636
8.45754e-20
0.000113636
2.35361e-20
0.000113636
3.45447e-20
0.000113636
2.39796e-20
0.000113636
-3.19944e-20
0.000113636
-8.04957e-20
0.000113636
-5.96362e-20
0.000113636
3.52741e-20
0.000113636
4.36464e-20
0.000113636
3.49364e-20
0.000113636
1.52892e-19
0.000113636
7.70197e-20
0.000113636
5.32661e-21
0.000113636
2.61085e-20
0.000113636
1.25415e-20
0.000113636
5.63628e-20
0.000113636
5.36155e-20
0.000113636
2.94879e-20
0.000113636
-4.33883e-20
0.000113636
-7.34076e-20
0.000113636
-2.17353e-20
0.000113636
7.98476e-20
0.000113636
7.37969e-20
0.000113636
3.14556e-20
0.000113636
-9.13294e-21
0.000113636
5.41689e-20
0.000113636
1.50718e-19
0.000113636
1.49762e-20
0.000113636
-1.19708e-19
0.000113636
-1.04652e-19
0.000113636
-5.57953e-20
0.000113636
6.20996e-20
0.000113636
-9.40293e-21
0.000113636
-1.46502e-19
0.000113636
3.18762e-20
0.000113636
2.86715e-20
0.000113636
-1.17014e-21
0.000113636
1.8738e-20
0.000113636
-8.46844e-20
0.000113636
-1.949e-20
0.000113636
1.33223e-20
0.000113636
4.70475e-20
0.000113636
8.55116e-20
0.000113636
3.09032e-20
0.000113636
-4.1975e-21
0.000113636
-3.71047e-20
0.000113636
3.28244e-20
0.000113636
4.24688e-20
0.000113636
3.95333e-20
0.000113636
1.67555e-19
0.000113636
-1.5956e-20
0.000113636
-3.15876e-20
0.000113636
-2.70555e-20
0.000113636
-1.45689e-20
0.000113636
4.50228e-20
0.000113636
-2.30802e-19
0.000113636
9.43246e-20
0.000113636
6.80227e-20
0.000113636
-2.37647e-20
0.000113636
1.35307e-19
0.000113636
-1.17383e-19
0.000113636
-2.72867e-20
0.000113636
-1.95745e-20
0.000113636
2.89071e-20
0.000113636
1.52486e-19
0.000113636
-7.01288e-20
0.000113636
-6.00103e-20
0.000113636
-1.00669e-19
0.000113636
-4.12068e-22
0.000113636
1.53979e-19
0.000113636
-1.56161e-19
0.000113636
-1.87344e-19
0.000113636
1.57741e-20
0.000113636
-3.95238e-20
0.000113636
1.09855e-19
0.000113636
-7.24994e-20
0.000113636
-2.29204e-19
0.000113636
-3.33575e-20
0.000113636
-1.51522e-20
0.000113636
5.9759e-20
0.000113636
-6.79109e-20
0.000113636
-5.73564e-20
0.000113636
-8.87469e-20
0.000113636
-6.6367e-20
0.000113636
2.13134e-19
0.000113636
-1.76102e-20
0.000113636
-1.53241e-19
0.000113636
1.97695e-21
0.000113636
1.13966e-19
0.000113636
2.59456e-20
0.000113636
-1.87759e-19
0.000113636
-9.46928e-20
0.000113636
-7.5415e-20
0.000113636
4.97219e-20
0.000113636
6.18249e-20
0.000113636
-8.08686e-20
0.000113636
-7.28323e-21
0.000113636
-1.52283e-19
0.000113636
-4.77109e-20
0.000113636
1.29297e-19
0.000113636
8.58337e-20
0.000113636
-2.35863e-19
0.000113636
-1.58556e-19
0.000113636
2.09221e-19
0.000113636
2.6979e-19
0.000113636
9.95212e-20
0.000113636
-3.90396e-19
0.000113636
1.25301e-20
0.000113636
4.02593e-19
0.000113636
2.29e-19
0.000113636
3.26436e-20
0.000113636
-3.97643e-19
0.000113636
-1.88515e-19
0.000113636
4.13328e-19
0.000113636
3.07299e-19
0.000113636
-2.28928e-19
0.000113636
-4.53178e-19
0.000113636
-1.11377e-19
0.000113636
4.61237e-19
0.000113636
4.0851e-19
0.000113636
-1.28865e-19
0.000113636
-5.20197e-19
0.000113636
6.24585e-21
0.000113636
4.924e-19
0.000113636
1.24265e-19
0.000113636
-1.37834e-19
0.000113636
-2.82461e-19
0.000113636
-4.04656e-20
0.000113636
3.52126e-19
0.000113636
1.58876e-19
0.000113636
2.96699e-20
0.000113636
-2.02512e-19
0.000113636
-1.72814e-20
0.000113636
4.33557e-19
0.000113636
1.26851e-19
0.000113636
-1.74947e-19
0.000113636
-2.47265e-19
0.000113636
6.39878e-20
0.000113636
1.41032e-19
0.000113636
-6.16926e-20
0.000113636
-5.12479e-20
0.000113636
-2.20979e-19
0.000113636
4.94414e-20
0.000113636
6.46519e-20
0.000113636
-3.8661e-20
0.000113636
1.25893e-19
0.000113636
-2.19968e-19
0.000113636
-1.8972e-19
0.000113636
8.02814e-20
0.000113636
1.7141e-19
0.000113636
1.13606e-19
0.000113636
-2.14829e-19
0.000113636
-2.90919e-19
0.000113636
1.35974e-20
0.000113636
1.91238e-19
0.000113636
2.54411e-19
0.000113636
-2.87868e-19
0.000113636
-1.08044e-19
0.000113636
2.3976e-19
0.000113636
-1.87278e-19
0.000113636
-6.91336e-20
0.000113636
-9.63434e-20
0.000113636
-1.47422e-19
0.000113636
1.07146e-19
0.000113636
4.60059e-20
0.000113636
-1.18745e-19
0.000113636
-3.73515e-19
0.000113636
-3.35574e-20
0.000113636
2.96876e-19
0.000113636
9.08943e-20
0.000113636
-1.03242e-19
0.000113636
-1.97057e-19
0.000113636
4.82144e-20
0.000113636
-3.02954e-20
0.000113636
2.07743e-19
0.000113636
2.21487e-19
0.000113636
-4.57877e-19
0.000113636
-1.91552e-20
0.000113636
3.50012e-19
0.000113636
1.73371e-19
0.000113636
2.35961e-19
0.000113636
-1.84653e-19
0.000113636
7.06618e-21
0.000113636
3.04724e-19
0.000113636
-5.7062e-20
0.000113636
-3.89113e-20
0.000113636
-7.99723e-20
0.000113636
-1.56784e-19
0.000113636
1.77896e-19
0.000113636
1.64693e-19
0.000113636
5.78098e-20
0.000113636
-1.25452e-19
0.000113636
-1.16662e-19
0.000113636
1.72052e-19
0.000113636
1.42965e-20
0.000113636
2.96021e-20
0.000113636
-1.14795e-19
0.000113636
8.85111e-20
0.000113636
2.82942e-19
0.000113636
-4.57828e-21
0.000113636
-1.5627e-19
0.000113636
-2.69782e-19
0.000113636
7.37988e-20
0.000113636
1.07223e-19
0.000113636
-1.80165e-20
0.000113636
-3.65491e-20
0.000113636
-2.73419e-19
0.000113636
6.03181e-19
0.000113636
1.18929e-19
0.000113636
-5.40882e-19
0.000113636
2.21834e-19
0.000113636
-2.31481e-19
0.000113636
-5.80126e-20
0.000113636
-1.25533e-19
0.000113636
-4.67984e-19
0.000113636
6.55822e-19
0.000113636
1.63201e-19
0.000113636
-6.26315e-20
0.000113636
-1.20009e-19
0.000113636
-5.4524e-19
0.000113636
5.88649e-19
0.000113636
1.38767e-19
0.000113636
-1.66178e-19
0.000113636
4.92132e-20
0.000113636
-4.1085e-19
0.000113636
3.33262e-19
0.000113636
-1.07716e-19
0.000113636
-2.35872e-19
0.000113636
7.73986e-20
0.000113636
-5.19171e-19
0.000113636
4.30558e-20
0.000113636
-6.38277e-20
0.000113636
2.88869e-19
0.000113636
3.34833e-19
0.000113636
-5.87169e-19
0.000113636
1.35108e-19
0.000113636
-2.16498e-19
0.000113636
2.04398e-20
0.000113636
2.38061e-19
0.000113636
-8.69887e-19
0.000113636
4.2124e-20
0.000113636
9.84907e-20
0.000113636
1.94477e-19
0.000113636
1.33257e-19
0.000113636
-5.02652e-19
0.000113636
6.98704e-19
0.000113636
8.91073e-20
0.000113636
-4.51691e-19
0.000113636
-2.87745e-19
0.000113636
-3.28451e-19
0.000113636
9.50134e-19
0.000113636
8.58112e-20
0.000113636
-9.7162e-20
0.000113636
2.80189e-19
0.000113636
-5.38054e-19
0.000113636
1.85642e-19
0.000113636
5.96252e-20
0.000113636
1.13008e-19
0.000113636
4.5825e-20
0.000113636
-3.50149e-19
0.000113636
5.7768e-19
0.000113636
1.91879e-20
0.000113636
-2.14538e-20
0.000113636
2.68563e-21
0.000113636
-5.82839e-19
0.000113636
3.33195e-19
0.000113636
2.60655e-20
0.000113636
1.56626e-19
0.000113636
1.30328e-19
0.000113636
-4.88412e-19
0.000113636
4.72612e-19
0.000113636
6.80896e-20
0.000113636
5.64349e-20
0.000113636
2.54529e-19
0.000113636
-6.01908e-19
0.000113636
2.25146e-19
0.000113636
-1.68868e-20
0.000113636
-3.74896e-20
0.000113636
8.78623e-20
0.000113636
-7.04133e-19
0.000113636
1.74146e-19
0.000113636
2.16947e-19
0.000113636
-2.17738e-19
0.000113636
-3.20633e-19
0.000113636
-4.24913e-19
0.000113636
4.52781e-19
0.000113636
1.60256e-19
0.000113636
-1.80411e-19
0.000113636
3.54167e-20
0.000113636
-2.16088e-19
0.000113636
3.03627e-19
0.000113636
2.78632e-19
0.000113636
-1.86975e-19
0.000113636
-1.60836e-19
0.000113636
-2.99574e-19
0.000113636
3.63654e-19
0.000113636
3.84721e-19
0.000113636
1.70015e-21
0.000113636
-5.09031e-19
0.000113636
-4.60077e-19
0.000113636
3.39639e-19
0.000113636
1.34057e-19
0.000113636
1.35719e-19
0.000113636
-2.73091e-19
0.000113636
-5.76058e-20
0.000113636
3.42927e-19
0.000113636
-2.18968e-19
0.000113636
1.19493e-19
0.000113636
1.52076e-19
0.000113636
-1.48292e-19
0.000113636
1.28091e-19
0.000113636
-8.03043e-20
0.000113636
4.47319e-19
0.000113636
2.05661e-19
-1.06511e-19
0.000156982
1.25675e-19
0.000156982
9.87522e-20
0.000156982
1.16131e-19
0.000156982
1.34026e-19
0.000156982
1.43428e-19
0.000156982
1.09714e-19
0.000156982
2.94803e-20
0.000156982
4.07984e-20
0.000156982
4.04328e-20
0.000156982
-4.89201e-20
0.000156982
-9.45731e-20
0.000156982
-5.24864e-20
0.000156982
3.75826e-20
0.000156982
7.60479e-20
0.000156982
4.45045e-20
0.000156982
1.62062e-19
0.000156982
1.44871e-19
0.000156982
4.51006e-20
0.000156982
7.92851e-20
0.000156982
4.24825e-20
0.000156982
1.18584e-19
0.000156982
1.03829e-19
0.000156982
2.74896e-20
0.000156982
-5.40874e-20
0.000156982
-1.04248e-19
0.000156982
-2.53368e-20
0.000156982
1.23629e-19
0.000156982
1.40184e-19
0.000156982
5.92213e-20
0.000156982
-3.78873e-20
0.000156982
4.99382e-20
0.000156982
1.82751e-19
0.000156982
3.57129e-20
0.000156982
-1.19692e-19
0.000156982
-1.3121e-19
0.000156982
-7.79588e-20
0.000156982
5.64638e-20
0.000156982
-5.5507e-21
0.000156982
-1.64743e-19
0.000156982
3.10581e-21
0.000156982
2.73004e-20
0.000156982
8.80732e-21
0.000156982
-1.33194e-20
0.000156982
-1.24442e-19
0.000156982
-9.43625e-21
0.000156982
-2.4082e-20
0.000156982
5.4226e-20
0.000156982
1.25045e-19
0.000156982
5.01445e-20
0.000156982
-3.19089e-21
0.000156982
2.62975e-20
0.000156982
5.47467e-20
0.000156982
1.20547e-19
0.000156982
7.02541e-20
0.000156982
1.68468e-19
0.000156982
-3.68558e-20
0.000156982
-2.74842e-20
0.000156982
-3.73565e-20
0.000156982
-2.64805e-20
0.000156982
-2.39605e-21
0.000156982
-3.09184e-19
0.000156982
1.12324e-19
0.000156982
9.10681e-20
0.000156982
-2.90093e-20
0.000156982
1.50436e-19
0.000156982
-1.30645e-19
0.000156982
3.80265e-20
0.000156982
-2.57642e-20
0.000156982
-1.11667e-21
0.000156982
1.72532e-19
0.000156982
-7.38009e-20
0.000156982
-1.4074e-19
0.000156982
-1.51812e-19
0.000156982
-2.4496e-20
0.000156982
1.33366e-19
0.000156982
-1.55558e-19
0.000156982
-2.05972e-19
0.000156982
-1.01033e-20
0.000156982
-1.11838e-19
0.000156982
6.12364e-20
0.000156982
-8.0122e-20
0.000156982
-3.40157e-19
0.000156982
-7.58648e-20
0.000156982
5.80879e-20
0.000156982
4.02061e-20
0.000156982
-9.67976e-20
0.000156982
-7.90093e-20
0.000156982
-7.52153e-20
0.000156982
-1.39204e-19
0.000156982
2.55879e-19
0.000156982
-2.53606e-20
0.000156982
-2.00524e-19
0.000156982
-3.4962e-20
0.000156982
8.319e-20
0.000156982
4.99682e-20
0.000156982
-2.4453e-19
0.000156982
-1.76455e-19
0.000156982
-1.02206e-19
0.000156982
4.19876e-20
0.000156982
1.03588e-19
0.000156982
-7.68962e-20
0.000156982
-4.18872e-20
0.000156982
-1.90469e-19
0.000156982
-7.49738e-20
0.000156982
1.78366e-19
0.000156982
1.1564e-19
0.000156982
-2.80962e-19
0.000156982
-2.6454e-19
0.000156982
2.28315e-19
0.000156982
3.84433e-19
0.000156982
1.91634e-19
0.000156982
-4.34413e-19
0.000156982
8.05295e-21
0.000156982
5.37817e-19
0.000156982
3.59934e-19
0.000156982
-3.25326e-20
0.000156982
-5.36244e-19
0.000156982
-2.25374e-19
0.000156982
5.52891e-19
0.000156982
3.57861e-19
0.000156982
-3.097e-19
0.000156982
-5.50665e-19
0.000156982
-1.2951e-19
0.000156982
5.72323e-19
0.000156982
5.58041e-19
0.000156982
-1.12267e-19
0.000156982
-6.42388e-19
0.000156982
4.28562e-20
0.000156982
6.30605e-19
0.000156982
8.08683e-20
0.000156982
-1.8629e-19
0.000156982
-2.93542e-19
0.000156982
-7.57942e-20
0.000156982
4.24124e-19
0.000156982
2.31429e-19
0.000156982
5.64219e-20
0.000156982
-1.99081e-19
0.000156982
3.80389e-21
0.000156982
5.05441e-19
0.000156982
1.95464e-19
0.000156982
-2.06153e-19
0.000156982
-2.91645e-19
0.000156982
9.8398e-20
0.000156982
1.1593e-19
0.000156982
-9.31038e-20
0.000156982
-4.28636e-20
0.000156982
-2.70987e-19
0.000156982
4.0359e-20
0.000156982
6.36954e-20
0.000156982
-9.85412e-20
0.000156982
1.49533e-19
0.000156982
-2.21666e-19
0.000156982
-2.36687e-19
0.000156982
6.77127e-20
0.000156982
2.17915e-19
0.000156982
1.41578e-19
0.000156982
-2.84552e-19
0.000156982
-3.51977e-19
0.000156982
2.99682e-20
0.000156982
2.63266e-19
0.000156982
2.45833e-19
0.000156982
-3.54247e-19
0.000156982
-1.29782e-19
0.000156982
2.34339e-19
0.000156982
-2.74808e-19
0.000156982
-1.0546e-19
0.000156982
-1.44227e-19
0.000156982
-1.22153e-19
0.000156982
8.02111e-20
0.000156982
2.58432e-20
0.000156982
-1.82588e-19
0.000156982
-5.97933e-19
0.000156982
1.34118e-20
0.000156982
5.05916e-19
0.000156982
6.94309e-20
0.000156982
-1.63448e-19
0.000156982
-2.91145e-19
0.000156982
5.45879e-21
0.000156982
8.73091e-22
0.000156982
3.80013e-19
0.000156982
2.68032e-19
0.000156982
-5.7627e-19
0.000156982
-2.54344e-20
0.000156982
4.84557e-19
0.000156982
3.05836e-19
0.000156982
2.54659e-19
0.000156982
-1.91985e-19
0.000156982
7.79375e-20
0.000156982
3.87874e-19
0.000156982
-6.95309e-20
0.000156982
-9.2e-20
0.000156982
-9.89256e-20
0.000156982
-1.82664e-19
0.000156982
1.8576e-19
0.000156982
2.12645e-19
0.000156982
1.4543e-19
0.000156982
-1.93294e-19
0.000156982
-1.36397e-19
0.000156982
2.35271e-19
0.000156982
7.22817e-20
0.000156982
4.17339e-20
0.000156982
-1.12649e-19
0.000156982
1.34299e-19
0.000156982
3.21162e-19
0.000156982
3.78392e-20
0.000156982
-2.05308e-19
0.000156982
-3.59862e-19
0.000156982
1.69344e-21
0.000156982
1.17338e-19
0.000156982
3.37866e-20
0.000156982
-4.5499e-20
0.000156982
-2.66615e-19
0.000156982
6.57718e-19
0.000156982
1.52843e-19
0.000156982
-6.14587e-19
0.000156982
2.14013e-19
0.000156982
-3.32802e-19
0.000156982
-7.04001e-20
0.000156982
-1.95079e-19
0.000156982
-5.7445e-19
0.000156982
7.45917e-19
0.000156982
1.81306e-19
0.000156982
2.85503e-20
0.000156982
-7.64393e-20
0.000156982
-6.74571e-19
0.000156982
6.1032e-19
0.000156982
1.49414e-19
0.000156982
-1.4153e-19
0.000156982
-2.37863e-20
0.000156982
-5.21422e-19
0.000156982
4.34218e-19
0.000156982
-1.07966e-19
0.000156982
-3.9406e-19
0.000156982
-2.85171e-20
0.000156982
-5.70417e-19
0.000156982
-4.15036e-21
0.000156982
-1.37531e-19
0.000156982
3.97432e-19
0.000156982
4.69887e-19
0.000156982
-7.27694e-19
0.000156982
8.43371e-21
0.000156982
-2.89768e-19
0.000156982
5.81855e-20
0.000156982
2.4688e-19
0.000156982
-1.07426e-18
0.000156982
-3.4341e-20
0.000156982
3.30949e-20
0.000156982