/*--------------------------------*- C++ -*----------------------------------*\
| =========                 |                                                 |
| \\      /  F ield         | OpenFOAM: The Open Source CFD Toolbox           |
|  \\    /   O peration     | Version:  2112                                  |
|   \\  /    A nd           | Website:  www.openfoam.com                      |
|    \\/     M anipulation  |                                                 |
\*---------------------------------------------------------------------------*/
FoamFile
{
    version     2.0;
    format      ascii;
    arch        "LSB;label=32;scalar=64";
    class       volVectorField;
    location    "10";
    object      U;
}
// * * * * * * * * * * * * * * * * * * * * * * * * * * * * * * * * * * * * * //

dimensions      [0 1 -1 0 0 0 0];

internalField   nonuniform List<vector> 
50000
(
(0.030019 1.73728e-15 0)
(0.030019 3.3008e-16 0)
(0.030019 6.6681e-17 0)
(0.030019 3.18045e-17 0)
(0.030019 2.07266e-17 0)
(0.030019 9.13514e-18 0)
(0.030019 8.37617e-18 0)
(0.030019 6.51692e-19 0)
(0.030019 9.23901e-19 0)
(0.030019 6.1658e-18 0)
(0.030019 -7.58304e-19 0)
(0.030019 3.00145e-19 0)
(0.030019 4.93039e-19 0)
(0.030019 2.05957e-18 0)
(0.030019 5.12131e-18 0)
(0.030019 -2.47853e-18 0)
(0.030019 -7.38587e-18 0)
(0.030019 -7.9465e-19 0)
(0.030019 -3.96914e-19 0)
(0.030019 5.49447e-19 0)
(0.030019 7.2686e-18 0)
(0.030019 4.02626e-19 0)
(0.030019 9.09068e-19 0)
(0.030019 -1.0168e-18 0)
(0.030019 -1.99508e-18 0)
(0.030019 -2.98169e-18 0)
(0.030019 6.69149e-19 0)
(0.030019 1.37415e-17 0)
(0.030019 -7.66676e-18 0)
(0.030019 -1.01483e-18 0)
(0.030019 5.7866e-18 0)
(0.030019 -8.98185e-18 0)
(0.030019 -1.35559e-18 0)
(0.030019 7.06687e-18 0)
(0.030019 -6.18184e-18 0)
(0.030019 6.14213e-18 0)
(0.030019 -6.72999e-18 0)
(0.030019 -4.78347e-18 0)
(0.030019 3.25356e-18 0)
(0.030019 -6.48698e-18 0)
(0.030019 4.86881e-18 0)
(0.030019 -6.59803e-18 0)
(0.030019 9.43892e-18 0)
(0.030019 6.54099e-18 0)
(0.030019 -1.34846e-17 0)
(0.030019 2.8327e-18 0)
(0.030019 1.46063e-17 0)
(0.030019 -9.84393e-18 0)
(0.030019 -1.01496e-17 0)
(0.030019 9.23376e-18 0)
(0.030019 3.67873e-18 0)
(0.030019 9.21401e-18 0)
(0.030019 -1.2344e-17 0)
(0.030019 -1.11392e-17 0)
(0.030019 1.1529e-17 0)
(0.030019 -4.08971e-18 0)
(0.030019 1.90622e-17 0)
(0.030019 -8.25776e-18 0)
(0.030019 -1.82052e-17 0)
(0.030019 8.04331e-18 0)
(0.030019 8.35976e-18 0)
(0.030019 -8.10246e-18 0)
(0.030019 -7.61896e-19 0)
(0.030019 9.46763e-18 0)
(0.030019 -1.81954e-17 0)
(0.030019 2.94394e-18 0)
(0.030019 6.45912e-18 0)
(0.030019 8.64227e-18 0)
(0.030019 7.58475e-18 0)
(0.030019 -9.98737e-18 0)
(0.030019 -1.3121e-17 0)
(0.030019 2.83334e-19 0)
(0.030019 2.27024e-17 0)
(0.030019 -1.33888e-17 0)
(0.030019 -1.57941e-17 0)
(0.030019 3.40617e-17 0)
(0.030019 6.21239e-18 0)
(0.030019 -2.84058e-17 0)
(0.030019 -6.56272e-18 0)
(0.030019 1.63331e-17 0)
(0.030019 4.55225e-18 0)
(0.030019 -7.91825e-18 0)
(0.030019 -4.36981e-19 0)
(0.030019 1.25227e-17 0)
(0.030019 -2.35494e-17 0)
(0.030019 1.40792e-17 0)
(0.030019 1.97295e-17 0)
(0.030019 -1.52412e-17 0)
(0.030019 -4.30457e-18 0)
(0.030019 -1.24576e-17 0)
(0.030019 7.69651e-18 0)
(0.030019 1.91668e-17 0)
(0.030019 -9.38473e-18 0)
(0.030019 4.37286e-18 0)
(0.030019 1.4123e-17 0)
(0.030019 -3.92754e-17 0)
(0.030019 8.95233e-18 0)
(0.030019 3.42929e-17 0)
(0.030019 -1.86925e-17 0)
(0.030019 -9.36089e-18 0)
(0.030019 1.32353e-17 0)
(0.030019 2.68556e-17 0)
(0.030019 -2.29566e-17 0)
(0.030019 -2.72232e-17 0)
(0.030019 4.42587e-17 0)
(0.030019 -1.57604e-17 0)
(0.030019 -2.2308e-17 0)
(0.030019 1.63218e-17 0)
(0.030019 4.4226e-18 0)
(0.030019 2.87224e-17 0)
(0.030019 -2.7173e-17 0)
(0.030019 -2.70957e-17 0)
(0.030019 1.88428e-17 0)
(0.030019 7.42831e-18 0)
(0.030019 2.57608e-17 0)
(0.030019 -1.29775e-17 0)
(0.030019 -4.64867e-17 0)
(0.030019 9.63864e-18 0)
(0.030019 2.6961e-17 0)
(0.030019 -1.91488e-18 0)
(0.030019 -6.28687e-18 0)
(0.030019 -9.27707e-19 0)
(0.030019 2.7408e-17 0)
(0.030019 -7.77573e-19 0)
(0.030019 -4.5273e-17 0)
(0.030019 2.92994e-17 0)
(0.030019 2.4881e-17 0)
(0.030019 -2.73763e-17 0)
(0.030019 3.694e-18 0)
(0.030019 2.24521e-18 0)
(0.030019 -1.79088e-17 0)
(0.030019 -3.16758e-18 0)
(0.030019 3.35257e-17 0)
(0.030019 -4.68715e-18 0)
(0.030019 -9.55264e-18 0)
(0.030019 8.30052e-18 0)
(0.030019 1.74181e-17 0)
(0.030019 -2.71203e-17 0)
(0.030019 1.19982e-17 0)
(0.030019 2.8113e-17 0)
(0.030019 -3.22748e-17 0)
(0.030019 -3.36426e-17 0)
(0.030019 1.6051e-17 0)
(0.030019 3.63082e-17 0)
(0.030019 -2.02229e-17 0)
(0.030019 -4.93558e-18 0)
(0.030019 4.66728e-17 0)
(0.030019 -3.01769e-17 0)
(0.030019 -3.59426e-17 0)
(0.030019 3.72744e-17 0)
(0.030019 -8.59615e-18 0)
(0.030019 2.70608e-18 0)
(0.030019 3.40164e-17 0)
(0.030019 -4.05638e-17 0)
(0.030019 -1.14522e-18 0)
(0.030019 2.77034e-17 0)
(0.030019 -5.44493e-17 0)
(0.030019 -1.89718e-17 0)
(0.030019 4.06987e-17 0)
(0.030019 5.76971e-17 0)
(0.030019 -3.33455e-17 0)
(0.030019 -3.51671e-18 0)
(0.030019 -2.5083e-18 0)
(0.030019 -3.9828e-18 0)
(0.030019 -6.90149e-18 0)
(0.030019 -4.35629e-18 0)
(0.030019 8.65501e-18 0)
(0.030019 -5.37804e-17 0)
(0.030019 7.46475e-17 0)
(0.030019 1.57067e-17 0)
(0.030019 -7.92394e-17 0)
(0.030019 6.75492e-17 0)
(0.030019 3.32041e-17 0)
(0.030019 -6.89999e-17 0)
(0.030019 7.24532e-18 0)
(0.030019 1.25826e-18 0)
(0.030019 1.3633e-17 0)
(0.030019 -8.58898e-18 0)
(0.030019 -1.16788e-17 0)
(0.030019 4.18767e-17 0)
(0.030019 -4.2145e-17 0)
(0.030019 -1.09347e-17 0)
(0.030019 2.735e-17 0)
(0.030019 -2.70117e-17 0)
(0.030019 4.94199e-17 0)
(0.030019 -5.02674e-18 0)
(0.030019 -5.47035e-17 0)
(0.030019 3.80285e-17 0)
(0.030019 3.6536e-18 0)
(0.030019 -2.29391e-17 0)
(0.030019 -9.30875e-18 0)
(0.030019 -1.14852e-18 0)
(0.030019 -4.25874e-17 0)
(0.030019 3.95071e-17 0)
(0.030019 4.31471e-17 0)
(0.030019 -2.98535e-17 0)
(0.030019 9.97823e-18 0)
(0.030019 3.80404e-17 0)
(0.030019 -5.92905e-17 0)
(0.030019 -4.09617e-17 0)
(0.030019 4.78772e-17 0)
(0.030019 -2.54389e-17 0)
(0.030019 1.30288e-17 0)
(0.030019 -3.23393e-19 0)
(0.030019 5.03598e-17 0)
(0.030019 -2.42089e-17 0)
(0.030019 -6.46937e-17 0)
(0.030019 2.36707e-17 0)
(0.030019 5.86587e-18 0)
(0.030019 1.64928e-18 0)
(0.030019 4.46139e-17 0)
(0.030019 -3.60234e-17 0)
(0.030019 -5.19128e-17 0)
(0.030019 9.43552e-17 0)
(0.030019 -5.3918e-17 0)
(0.030019 -3.82063e-17 0)
(0.030019 3.14779e-17 0)
(0.030019 -6.26743e-18 0)
(0.030019 1.64867e-17 0)
(0.030019 4.56152e-17 0)
(0.030019 -4.1207e-18 0)
(0.030019 -4.66057e-17 0)
(0.030019 -2.82115e-17 0)
(0.030019 -4.29951e-18 0)
(0.030019 4.36202e-17 0)
(0.030019 -4.67206e-17 0)
(0.030019 3.94143e-17 0)
(0.030019 4.38588e-17 0)
(0.030019 -3.27543e-17 0)
(0.030019 3.81325e-17 0)
(0.030019 7.94214e-18 0)
(0.030019 -8.92953e-17 0)
(0.030019 3.55353e-17 0)
(0.030019 8.29225e-18 0)
(0.030019 -5.43076e-17 0)
(0.030019 4.60622e-17 0)
(0.030019 3.07494e-18 0)
(0.030019 3.93997e-17 0)
(0.030019 -4.05746e-17 0)
(0.030019 2.36668e-18 0)
(0.030019 1.40588e-18 0)
(0.030019 -4.84508e-17 0)
(0.030019 3.48215e-17 0)
(0.030019 6.2356e-17 0)
(0.030019 -4.66501e-17 0)
(0.030019 -2.32922e-18 0)
(0.030019 5.22693e-17 0)
(0.030019 -5.57943e-17 0)
(0.030019 4.35183e-18 0)
(0.030019 -3.17773e-17 0)
(0.030019 -1.08696e-17 0)
(0.030019 -7.07487e-18 0)
(0.030019 1.00066e-16 0)
(0.030019 1.22281e-19 0)
(0.030019 -4.83194e-17 0)
(0.030019 4.99935e-17 0)
(0.030019 -4.29621e-17 0)
(0.030019 -4.58853e-17 0)
(0.030019 4.66272e-17 0)
(0.030019 -2.2936e-17 0)
(0.030019 5.39722e-18 0)
(0.030019 7.0509e-17 0)
(0.030019 -1.01499e-16 0)
(0.030019 5.45437e-17 0)
(0.030019 -2.06969e-17 0)
(0.030019 -2.89311e-17 0)
(0.030019 4.60179e-17 0)
(0.030019 -5.83372e-17 0)
(0.030019 1.87615e-17 0)
(0.030019 1.36821e-16 0)
(0.030019 -1.08804e-16 0)
(0.030019 -5.76207e-17 0)
(0.030019 6.69051e-17 0)
(0.030019 -6.18675e-17 0)
(0.030019 8.6189e-17 0)
(0.030019 -8.23146e-17 0)
(0.030019 -1.04766e-17 0)
(0.030019 8.29297e-17 0)
(0.030019 8.32656e-18 0)
(0.030019 -4.26447e-17 0)
(0.030019 -2.16281e-18 0)
(0.030019 -1.55525e-17 0)
(0.030019 8.12215e-18 0)
(0.030019 3.00068e-17 0)
(0.030019 -8.11691e-17 0)
(0.030019 1.07958e-16 0)
(0.030019 -2.48856e-17 0)
(0.030019 -8.19227e-17 0)
(0.030019 7.08723e-17 0)
(0.030019 5.28669e-17 0)
(0.030019 -8.32797e-17 0)
(0.030019 -2.79446e-17 0)
(0.030019 5.92564e-17 0)
(0.030019 -2.79636e-17 0)
(0.030019 8.43586e-17 0)
(0.030019 4.77465e-17 0)
(0.030019 -1.63937e-16 0)
(0.030019 1.93323e-17 0)
(0.030019 4.11375e-17 0)
(0.030019 -7.32186e-17 0)
(0.030019 7.33167e-17 0)
(0.030019 -4.12843e-17 0)
(0.030019 1.76206e-17 0)
(0.030019 1.2769e-16 0)
(0.030019 -9.62185e-17 0)
(0.030019 -7.86028e-17 0)
(0.030019 1.11839e-16 0)
(0.030019 -5.18935e-17 0)
(0.030019 -6.23564e-17 0)
(0.030019 7.02486e-17 0)
(0.030019 6.12507e-17 0)
(0.030019 -6.73322e-17 0)
(0.030019 9.89969e-18 0)
(0.030019 1.31733e-17 0)
(0.030019 -5.88512e-17 0)
(0.030019 8.39161e-17 0)
(0.030019 -9.30592e-17 0)
(0.030019 -5.74369e-19 0)
(0.030019 7.97339e-17 0)
(0.030019 1.64192e-17 0)
(0.030019 1.2876e-17 0)
(0.030019 -9.00057e-18 0)
(0.030019 -9.16665e-17 0)
(0.030019 -4.22508e-17 0)
(0.030019 1.42025e-16 0)
(0.030019 -9.82626e-17 0)
(0.030019 -7.897e-18 0)
(0.030019 3.68222e-17 0)
(0.030019 5.39013e-17 0)
(0.030019 6.16005e-17 0)
(0.030019 -1.62192e-16 0)
(0.030019 -2.68227e-18 0)
(0.030019 1.08216e-16 0)
(0.030019 -1.13425e-16 0)
(0.030019 9.12149e-18 0)
(0.030019 1.56801e-16 0)
(0.030019 -1.5992e-16 0)
(0.030019 6.40168e-17 0)
(0.030019 9.91542e-17 0)
(0.030019 -1.55344e-16 0)
(0.030019 1.18865e-17 0)
(0.030019 7.40018e-17 0)
(0.030019 -9.0194e-17 0)
(0.030019 8.93355e-18 0)
(0.030019 1.27973e-16 0)
(0.030019 -4.37185e-17 0)
(0.030019 -4.105e-17 0)
(0.030019 -1.35521e-17 0)
(0.030019 -4.2441e-17 0)
(0.030019 2.31206e-17 0)
(0.030019 6.11124e-17 0)
(0.030019 -9.46687e-17 0)
(0.030019 6.05283e-18 0)
(0.030019 1.35723e-16 0)
(0.030019 -3.67826e-17 0)
(0.030019 -4.10673e-17 0)
(0.030019 -5.82233e-17 0)
(0.030019 -4.01747e-18 0)
(0.030019 8.78953e-17 0)
(0.030019 -9.41051e-17 0)
(0.030019 8.33688e-17 0)
(0.030019 1.22794e-17 0)
(0.030019 -9.03319e-17 0)
(0.030019 1.24874e-16 0)
(0.030019 -7.09975e-17 0)
(0.030019 -4.19979e-17 0)
(0.030019 4.90853e-17 0)
(0.030019 3.56873e-17 0)
(0.030019 -1.00654e-16 0)
(0.030019 6.90603e-17 0)
(0.030019 8.4936e-17 0)
(0.030019 -9.92164e-17 0)
(0.030019 -3.20385e-17 0)
(0.030019 7.81938e-19 0)
(0.030019 5.60656e-17 0)
(0.030019 -2.07659e-17 0)
(0.030019 5.25379e-17 0)
(0.030019 -8.80949e-17 0)
(0.030019 6.37175e-17 0)
(0.030019 7.58989e-17 0)
(0.030019 -1.03418e-16 0)
(0.030019 -3.93393e-17 0)
(0.030019 5.13628e-17 0)
(0.030019 6.68663e-18 0)
(0.030019 -2.55585e-17 0)
(0.030019 5.25914e-17 0)
(0.030019 -1.0786e-16 0)
(0.030019 1.15095e-16 0)
(0.030019 2.35663e-17 0)
(0.030019 -8.86238e-17 0)
(0.030019 1.81362e-17 0)
(0.030019 3.52321e-18 0)
(0.030019 5.48338e-18 0)
(0.030019 -2.78344e-17 0)
(0.030019 4.3117e-17 0)
(0.030019 9.80854e-17 0)
(0.030019 -3.62609e-17 0)
(0.030019 -1.64552e-16 0)
(0.030019 7.34169e-18 0)
(0.030019 6.96171e-17 0)
(0.030019 -1.43389e-18 0)
(0.030019 1.22165e-16 0)
(0.030019 -1.15809e-16 0)
(0.030019 -7.9909e-17 0)
(0.030019 6.52445e-17 0)
(0.030019 9.87598e-17 0)
(0.030019 -4.21567e-17 0)
(0.030019 -1.42922e-16 0)
(0.030019 6.82978e-17 0)
(0.030019 2.95063e-17 0)
(0.030019 1.39938e-16 0)
(0.030019 -1.30765e-16 0)
(0.030019 -8.39383e-17 0)
(0.030019 9.18092e-17 0)
(0.030019 -1.39275e-17 0)
(0.030019 9.82226e-18 0)
(0.030019 -3.50967e-17 0)
(0.030019 1.46576e-17 0)
(0.030019 2.20264e-17 0)
(0.030019 1.0201e-16 0)
(0.030019 -1.17342e-16 0)
(0.030019 -9.69641e-17 0)
(0.030019 2.17877e-16 0)
(0.030019 -9.34702e-17 0)
(0.030019 -1.05647e-16 0)
(0.030019 7.86802e-17 0)
(0.030019 2.35105e-17 0)
(0.030019 -1.91405e-19 0)
(0.030019 9.02797e-17 0)
(0.030019 -1.02706e-16 0)
(0.030019 -1.13651e-16 0)
(0.030019 2.20908e-16 0)
(0.030019 -7.01324e-17 0)
(0.030019 -1.36297e-16 0)
(0.030019 6.52552e-17 0)
(0.030019 1.63478e-16 0)
(0.030019 -1.06194e-16 0)
(0.030019 -5.2812e-18 0)
(0.030019 9.08481e-18 0)
(0.030019 -1.15697e-16 0)
(0.030019 2.10031e-16 0)
(0.030019 -1.08893e-16 0)
(0.030019 -6.7565e-18 0)
(0.030019 -8.71124e-17 0)
(0.030019 1.07107e-16 0)
(0.030019 8.58668e-17 0)
(0.030019 -1.8273e-16 0)
(0.030019 9.9447e-17 0)
(0.030019 -1.89865e-17 0)
(0.030019 2.59346e-17 0)
(0.030019 -2.10348e-17 0)
(0.030019 9.0506e-17 0)
(0.030019 -1.6816e-16 0)
(0.030019 1.00487e-16 0)
(0.030019 7.0956e-17 0)
(0.030019 -1.84829e-16 0)
(0.030019 9.80342e-17 0)
(0.030019 8.71572e-17 0)
(0.030019 -5.15377e-17 0)
(0.030019 -1.52657e-16 0)
(0.030019 1.98967e-16 0)
(0.030019 -1.38221e-16 0)
(0.030019 7.36459e-17 0)
(0.030019 1.70798e-16 0)
(0.030019 -2.8622e-16 0)
(0.030019 2.7628e-17 0)
(0.030019 1.69156e-16 0)
(0.030019 -1.00581e-17 0)
(0.030019 -1.76787e-16 0)
(0.030019 9.74569e-17 0)
(0.030019 -9.36073e-18 0)
(0.030019 -7.59579e-19 0)
(0.030019 1.58685e-17 0)
(0.030019 -9.91295e-17 0)
(0.030019 1.01746e-16 0)
(0.030019 8.6721e-18 0)
(0.030019 8.82649e-17 0)
(0.030019 -1.16944e-16 0)
(0.030019 -5.52574e-17 0)
(0.030019 9.01083e-17 0)
(0.030019 6.49631e-17 0)
(0.030019 -7.25107e-17 0)
(0.030019 -8.94132e-17 0)
(0.030019 1.87869e-16 0)
(0.030019 -1.27017e-16 0)
(0.030019 2.18093e-17 0)
(0.030019 8.07114e-18 0)
(0.030019 -8.90921e-17 0)
(0.030019 1.91301e-16 0)
(0.030019 -3.5966e-17 0)
(0.030019 -1.73699e-16 0)
(0.030019 3.92429e-17 0)
(0.030019 1.78414e-16 0)
(0.030019 -1.15696e-16 0)
(0.030019 1.91914e-17 0)
(0.030019 6.87732e-18 0)
(0.030019 9.38839e-18 0)
(0.030019 1.29436e-16 0)
(0.030019 -3.12475e-17 0)
(0.030019 3.35045e-16 0)
(0.0888562 2.96894e-15 0)
(0.0888562 7.33417e-16 0)
(0.0888562 2.102e-16 0)
(0.0888562 1.20828e-16 0)
(0.0888562 8.23696e-17 0)
(0.0888562 4.01232e-17 0)
(0.0888562 3.64313e-17 0)
(0.0888562 1.22335e-17 0)
(0.0888562 8.5688e-18 0)
(0.0888562 1.01693e-17 0)
(0.0888562 -1.21378e-17 0)
(0.0888562 -8.55619e-18 0)
(0.0888562 -3.29905e-18 0)
(0.0888562 -6.47167e-18 0)
(0.0888562 6.89436e-18 0)
(0.0888562 -7.87773e-18 0)
(0.0888562 -2.46563e-17 0)
(0.0888562 -1.28879e-17 0)
(0.0888562 -1.44741e-18 0)
(0.0888562 1.2572e-17 0)
(0.0888562 7.09613e-18 0)
(0.0888562 2.33364e-18 0)
(0.0888562 2.10517e-17 0)
(0.0888562 1.83667e-18 0)
(0.0888562 -8.90094e-18 0)
(0.0888562 -1.47618e-17 0)
(0.0888562 1.2032e-17 0)
(0.0888562 2.82181e-17 0)
(0.0888562 -1.97073e-17 0)
(0.0888562 7.0118e-19 0)
(0.0888562 8.6741e-18 0)
(0.0888562 -1.78872e-17 0)
(0.0888562 -9.56534e-18 0)
(0.0888562 -6.25358e-18 0)
(0.0888562 -3.53669e-17 0)
(0.0888562 -4.90766e-18 0)
(0.0888562 -3.08333e-17 0)
(0.0888562 -2.7685e-17 0)
(0.0888562 -1.20788e-18 0)
(0.0888562 -2.21956e-17 0)
(0.0888562 9.23694e-18 0)
(0.0888562 -2.16227e-17 0)
(0.0888562 -1.20653e-17 0)
(0.0888562 2.17604e-17 0)
(0.0888562 1.96415e-18 0)
(0.0888562 3.20565e-17 0)
(0.0888562 2.45866e-17 0)
(0.0888562 -2.66523e-17 0)
(0.0888562 -1.5789e-17 0)
(0.0888562 2.75146e-17 0)
(0.0888562 2.19561e-17 0)
(0.0888562 1.34478e-17 0)
(0.0888562 -2.74943e-17 0)
(0.0888562 -1.25236e-17 0)
(0.0888562 2.99916e-17 0)
(0.0888562 -1.45783e-17 0)
(0.0888562 2.07206e-17 0)
(0.0888562 -1.64248e-17 0)
(0.0888562 -5.34962e-17 0)
(0.0888562 -2.92551e-18 0)
(0.0888562 4.00337e-18 0)
(0.0888562 -1.11063e-17 0)
(0.0888562 -1.03827e-17 0)
(0.0888562 1.5692e-17 0)
(0.0888562 -1.361e-17 0)
(0.0888562 3.00853e-17 0)
(0.0888562 -3.76914e-17 0)
(0.0888562 -2.40335e-17 0)
(0.0888562 6.55512e-17 0)
(0.0888562 -7.05085e-18 0)
(0.0888562 -2.70547e-17 0)
(0.0888562 1.75422e-17 0)
(0.0888562 5.15577e-17 0)
(0.0888562 -1.68383e-17 0)
(0.0888562 -3.87214e-17 0)
(0.0888562 1.03033e-16 0)
(0.0888562 4.20081e-17 0)
(0.0888562 -5.40656e-17 0)
(0.0888562 -1.40246e-17 0)
(0.0888562 4.04686e-17 0)
(0.0888562 4.3955e-18 0)
(0.0888562 -3.98559e-17 0)
(0.0888562 2.7285e-17 0)
(0.0888562 -7.10786e-18 0)
(0.0888562 -5.40376e-17 0)
(0.0888562 5.798e-17 0)
(0.0888562 7.33645e-18 0)
(0.0888562 -2.68704e-17 0)
(0.0888562 -1.10794e-18 0)
(0.0888562 -3.36338e-18 0)
(0.0888562 1.64029e-17 0)
(0.0888562 1.69566e-17 0)
(0.0888562 2.53219e-17 0)
(0.0888562 1.28976e-17 0)
(0.0888562 9.77961e-18 0)
(0.0888562 -6.44952e-17 0)
(0.0888562 4.86807e-18 0)
(0.0888562 8.03643e-17 0)
(0.0888562 -3.93844e-17 0)
(0.0888562 -3.31266e-17 0)
(0.0888562 5.22854e-17 0)
(0.0888562 3.46597e-17 0)
(0.0888562 -7.85687e-18 0)
(0.0888562 -4.31148e-18 0)
(0.0888562 1.6082e-17 0)
(0.0888562 -2.62827e-17 0)
(0.0888562 -1.24511e-17 0)
(0.0888562 5.21068e-18 0)
(0.0888562 2.84891e-17 0)
(0.0888562 5.5265e-17 0)
(0.0888562 -3.6616e-17 0)
(0.0888562 -9.77145e-17 0)
(0.0888562 -1.23591e-17 0)
(0.0888562 8.95543e-17 0)
(0.0888562 2.76709e-17 0)
(0.0888562 -8.0475e-17 0)
(0.0888562 -5.43929e-17 0)
(0.0888562 4.53369e-17 0)
(0.0888562 6.95328e-17 0)
(0.0888562 2.09187e-18 0)
(0.0888562 -2.20595e-17 0)
(0.0888562 9.90323e-18 0)
(0.0888562 5.61294e-17 0)
(0.0888562 -9.05011e-18 0)
(0.0888562 -6.16497e-17 0)
(0.0888562 5.34689e-17 0)
(0.0888562 5.27129e-17 0)
(0.0888562 -3.83281e-17 0)
(0.0888562 2.12378e-17 0)
(0.0888562 2.65654e-17 0)
(0.0888562 6.95719e-18 0)
(0.0888562 1.67917e-18 0)
(0.0888562 1.10333e-16 0)
(0.0888562 -6.61648e-17 0)
(0.0888562 -8.91798e-17 0)
(0.0888562 6.52096e-17 0)
(0.0888562 3.00738e-18 0)
(0.0888562 -4.43017e-17 0)
(0.0888562 7.8497e-17 0)
(0.0888562 2.65175e-17 0)
(0.0888562 -1.26253e-16 0)
(0.0888562 -7.08728e-17 0)
(0.0888562 7.75335e-17 0)
(0.0888562 1.07452e-16 0)
(0.0888562 -7.00006e-17 0)
(0.0888562 -1.69906e-17 0)
(0.0888562 1.38089e-16 0)
(0.0888562 -3.87361e-17 0)
(0.0888562 -8.17076e-17 0)
(0.0888562 1.08225e-16 0)
(0.0888562 -7.1581e-17 0)
(0.0888562 -2.97588e-17 0)
(0.0888562 1.23111e-16 0)
(0.0888562 -1.33703e-16 0)
(0.0888562 -4.6931e-17 0)
(0.0888562 6.57986e-17 0)
(0.0888562 -8.59564e-17 0)
(0.0888562 1.82218e-17 0)
(0.0888562 9.52112e-18 0)
(0.0888562 9.30024e-17 0)
(0.0888562 7.64797e-17 0)
(0.0888562 -3.55477e-17 0)
(0.0888562 -4.64671e-17 0)
(0.0888562 -4.29925e-18 0)
(0.0888562 -2.7294e-17 0)
(0.0888562 -6.09393e-18 0)
(0.0888562 7.91834e-17 0)
(0.0888562 -1.30417e-16 0)
(0.0888562 8.49296e-17 0)
(0.0888562 1.36756e-16 0)
(0.0888562 -1.40906e-16 0)
(0.0888562 6.02035e-17 0)
(0.0888562 1.28014e-16 0)
(0.0888562 -1.15252e-16 0)
(0.0888562 -7.65367e-17 0)
(0.0888562 3.84777e-17 0)
(0.0888562 7.54929e-17 0)
(0.0888562 -4.28966e-18 0)
(0.0888562 -6.33617e-17 0)
(0.0888562 8.30759e-17 0)
(0.0888562 7.89828e-19 0)
(0.0888562 -7.72833e-17 0)
(0.0888562 1.51255e-18 0)
(0.0888562 -2.45837e-17 0)
(0.0888562 7.02428e-17 0)
(0.0888562 -2.99929e-17 0)
(0.0888562 -1.00174e-16 0)
(0.0888562 -1.89565e-17 0)
(0.0888562 -1.71924e-17 0)
(0.0888562 -1.03298e-19 0)
(0.0888562 -7.47312e-17 0)
(0.0888562 -4.81604e-17 0)
(0.0888562 -4.65515e-18 0)
(0.0888562 1.27883e-16 0)
(0.0888562 6.91177e-17 0)
(0.0888562 -4.3038e-17 0)
(0.0888562 4.65225e-17 0)
(0.0888562 1.55674e-17 0)
(0.0888562 -1.63297e-16 0)
(0.0888562 -7.99927e-17 0)
(0.0888562 4.25434e-17 0)
(0.0888562 -1.27973e-16 0)
(0.0888562 1.10671e-16 0)
(0.0888562 7.1447e-17 0)
(0.0888562 1.7383e-17 0)
(0.0888562 7.69775e-17 0)
(0.0888562 -1.20944e-16 0)
(0.0888562 -1.08329e-16 0)
(0.0888562 3.67756e-17 0)
(0.0888562 -2.65919e-17 0)
(0.0888562 1.28129e-17 0)
(0.0888562 1.55755e-17 0)
(0.0888562 -6.83738e-17 0)
(0.0888562 6.50293e-17 0)
(0.0888562 -5.82701e-17 0)
(0.0888562 1.58032e-17 0)
(0.0888562 -5.10547e-17 0)
(0.0888562 -3.92794e-17 0)
(0.0888562 9.69493e-17 0)
(0.0888562 9.9297e-17 0)
(0.0888562 -1.41285e-17 0)
(0.0888562 -6.57768e-17 0)
(0.0888562 4.20757e-17 0)
(0.0888562 -6.69339e-17 0)
(0.0888562 1.13606e-17 0)
(0.0888562 4.64745e-17 0)
(0.0888562 -6.99171e-18 0)
(0.0888562 3.43361e-17 0)
(0.0888562 1.08738e-16 0)
(0.0888562 -7.86519e-18 0)
(0.0888562 -4.55684e-17 0)
(0.0888562 -9.77407e-17 0)
(0.0888562 7.42328e-18 0)
(0.0888562 2.27442e-17 0)
(0.0888562 -8.36518e-17 0)
(0.0888562 6.71517e-17 0)
(0.0888562 1.52192e-17 0)
(0.0888562 4.13357e-17 0)
(0.0888562 -4.20409e-17 0)
(0.0888562 2.00122e-18 0)
(0.0888562 -4.39858e-20 0)
(0.0888562 -8.47774e-17 0)
(0.0888562 3.67953e-17 0)
(0.0888562 1.53399e-16 0)
(0.0888562 -4.4921e-17 0)
(0.0888562 -6.50421e-18 0)
(0.0888562 7.97543e-17 0)
(0.0888562 -9.78014e-17 0)
(0.0888562 -9.44601e-19 0)
(0.0888562 -2.17885e-17 0)
(0.0888562 -4.16079e-17 0)
(0.0888562 3.12185e-17 0)
(0.0888562 1.16999e-16 0)
(0.0888562 -3.79945e-17 0)
(0.0888562 -2.67391e-17 0)
(0.0888562 7.4312e-17 0)
(0.0888562 -5.77161e-17 0)
(0.0888562 -8.26033e-17 0)
(0.0888562 3.79489e-17 0)
(0.0888562 -8.65753e-17 0)
(0.0888562 5.05624e-17 0)
(0.0888562 1.82265e-16 0)
(0.0888562 -1.34824e-16 0)
(0.0888562 5.21889e-17 0)
(0.0888562 -1.30083e-16 0)
(0.0888562 -1.13086e-16 0)
(0.0888562 2.68799e-16 0)
(0.0888562 -1.99691e-16 0)
(0.0888562 -1.21411e-16 0)
(0.0888562 4.0214e-16 0)
(0.0888562 -1.59053e-16 0)
(0.0888562 -1.37701e-16 0)
(0.0888562 9.72589e-17 0)
(0.0888562 -1.29236e-16 0)
(0.0888562 8.63735e-17 0)
(0.0888562 -8.76594e-17 0)
(0.0888562 -3.37706e-17 0)
(0.0888562 1.18864e-16 0)
(0.0888562 1.11082e-16 0)
(0.0888562 -1.02223e-16 0)
(0.0888562 -1.05366e-16 0)
(0.0888562 -5.35689e-17 0)
(0.0888562 5.06055e-17 0)
(0.0888562 1.35394e-16 0)
(0.0888562 -1.65223e-16 0)
(0.0888562 2.04272e-16 0)
(0.0888562 1.95471e-17 0)
(0.0888562 -2.0419e-16 0)
(0.0888562 1.58439e-16 0)
(0.0888562 8.53338e-17 0)
(0.0888562 -2.19314e-16 0)
(0.0888562 8.02176e-17 0)
(0.0888562 1.3642e-17 0)
(0.0888562 -1.72906e-16 0)
(0.0888562 3.15498e-16 0)
(0.0888562 8.53739e-17 0)
(0.0888562 -3.06327e-16 0)
(0.0888562 6.57298e-17 0)
(0.0888562 -3.63431e-17 0)
(0.0888562 -2.07154e-16 0)
(0.0888562 2.79458e-16 0)
(0.0888562 -1.29237e-16 0)
(0.0888562 -1.09726e-16 0)
(0.0888562 3.76802e-16 0)
(0.0888562 -1.31163e-16 0)
(0.0888562 -2.26028e-16 0)
(0.0888562 1.98531e-16 0)
(0.0888562 -1.3467e-16 0)
(0.0888562 -1.60682e-16 0)
(0.0888562 3.14162e-16 0)
(0.0888562 5.50764e-17 0)
(0.0888562 -2.40105e-16 0)
(0.0888562 1.12325e-16 0)
(0.0888562 6.37739e-17 0)
(0.0888562 -1.16191e-16 0)
(0.0888562 7.34141e-17 0)
(0.0888562 -5.66891e-17 0)
(0.0888562 -1.22918e-16 0)
(0.0888562 -1.51722e-17 0)
(0.0888562 1.92894e-16 0)
(0.0888562 1.09614e-16 0)
(0.0888562 -4.40392e-17 0)
(0.0888562 -1.23184e-16 0)
(0.0888562 -8.9783e-17 0)
(0.0888562 1.68306e-16 0)
(0.0888562 -6.96801e-18 0)
(0.0888562 -1.46475e-16 0)
(0.0888562 -6.34978e-17 0)
(0.0888562 2.16965e-16 0)
(0.0888562 1.49934e-16 0)
(0.0888562 -2.88919e-16 0)
(0.0888562 1.28705e-17 0)
(0.0888562 1.18509e-16 0)
(0.0888562 -2.3149e-16 0)
(0.0888562 1.8245e-16 0)
(0.0888562 1.85597e-16 0)
(0.0888562 -3.3342e-16 0)
(0.0888562 2.79134e-16 0)
(0.0888562 1.22064e-16 0)
(0.0888562 -3.13949e-16 0)
(0.0888562 8.39831e-17 0)
(0.0888562 -2.43117e-17 0)
(0.0888562 -1.68593e-16 0)
(0.0888562 9.25488e-17 0)
(0.0888562 1.85226e-16 0)
(0.0888562 -1.38976e-17 0)
(0.0888562 -2.22576e-17 0)
(0.0888562 -1.55429e-16 0)
(0.0888562 -1.05662e-16 0)
(0.0888562 1.76732e-16 0)
(0.0888562 -5.39073e-17 0)
(0.0888562 -2.13726e-16 0)
(0.0888562 8.62296e-17 0)
(0.0888562 2.29619e-16 0)
(0.0888562 1.46874e-17 0)
(0.0888562 -2.79154e-17 0)
(0.0888562 -1.70289e-16 0)
(0.0888562 -1.44307e-16 0)
(0.0888562 1.07082e-16 0)
(0.0888562 4.78345e-17 0)
(0.0888562 1.16072e-16 0)
(0.0888562 -1.9788e-16 0)
(0.0888562 8.24391e-17 0)
(0.0888562 2.86279e-16 0)
(0.0888562 -2.44411e-16 0)
(0.0888562 -8.78045e-18 0)
(0.0888562 7.53553e-18 0)
(0.0888562 -1.23258e-16 0)
(0.0888562 1.61251e-17 0)
(0.0888562 3.04787e-16 0)
(0.0888562 3.51941e-17 0)
(0.0888562 -1.38776e-16 0)
(0.0888562 -8.61482e-17 0)
(0.0888562 -5.02934e-17 0)
(0.0888562 1.79137e-16 0)
(0.0888562 -1.00745e-16 0)
(0.0888562 1.04258e-17 0)
(0.0888562 -4.87759e-17 0)
(0.0888562 1.66261e-16 0)
(0.0888562 3.0763e-17 0)
(0.0888562 -9.32528e-17 0)
(0.0888562 -5.33042e-17 0)
(0.0888562 -1.11125e-17 0)
(0.0888562 6.43365e-17 0)
(0.0888562 -4.61385e-17 0)
(0.0888562 2.25605e-16 0)
(0.0888562 -1.62802e-16 0)
(0.0888562 8.71486e-17 0)
(0.0888562 9.56294e-17 0)
(0.0888562 -1.1754e-16 0)
(0.0888562 -6.763e-17 0)
(0.0888562 9.96085e-17 0)
(0.0888562 -1.00314e-16 0)
(0.0888562 -1.91572e-16 0)
(0.0888562 3.1432e-16 0)
(0.0888562 1.9221e-16 0)
(0.0888562 -1.57435e-16 0)
(0.0888562 -1.48455e-16 0)
(0.0888562 -1.21756e-16 0)
(0.0888562 -7.30511e-17 0)
(0.0888562 1.38292e-16 0)
(0.0888562 2.7506e-16 0)
(0.0888562 -2.29514e-16 0)
(0.0888562 -1.54449e-16 0)
(0.0888562 -7.05779e-17 0)
(0.0888562 3.05422e-16 0)
(0.0888562 1.97891e-16 0)
(0.0888562 -4.48511e-16 0)
(0.0888562 -3.54941e-17 0)
(0.0888562 2.57939e-16 0)
(0.0888562 1.76018e-16 0)
(0.0888562 -2.71227e-16 0)
(0.0888562 6.28397e-17 0)
(0.0888562 5.87798e-17 0)
(0.0888562 -5.15371e-17 0)
(0.0888562 6.57836e-17 0)
(0.0888562 -2.58984e-16 0)
(0.0888562 -1.6328e-17 0)
(0.0888562 3.25823e-16 0)
(0.0888562 7.58251e-17 0)
(0.0888562 -3.54278e-16 0)
(0.0888562 -6.13059e-17 0)
(0.0888562 4.20439e-16 0)
(0.0888562 -9.11184e-17 0)
(0.0888562 -1.92495e-16 0)
(0.0888562 6.05893e-17 0)
(0.0888562 1.27243e-16 0)
(0.0888562 2.28523e-17 0)
(0.0888562 1.06364e-17 0)
(0.0888562 -1.14794e-16 0)
(0.0888562 -1.0277e-16 0)
(0.0888562 3.55169e-16 0)
(0.0888562 -2.37673e-17 0)
(0.0888562 -3.73364e-16 0)
(0.0888562 1.28073e-17 0)
(0.0888562 4.78961e-16 0)
(0.0888562 -1.13108e-16 0)
(0.0888562 -5.52097e-17 0)
(0.0888562 -1.36252e-17 0)
(0.0888562 -2.04876e-16 0)
(0.0888562 3.3256e-16 0)
(0.0888562 -1.65762e-16 0)
(0.0888562 -5.07551e-17 0)
(0.0888562 -1.59522e-17 0)
(0.0888562 1.00957e-16 0)
(0.0888562 2.57241e-17 0)
(0.0888562 -5.98348e-17 0)
(0.0888562 2.47054e-17 0)
(0.0888562 -1.63704e-16 0)
(0.0888562 2.01594e-16 0)
(0.0888562 -3.24039e-17 0)
(0.0888562 1.09744e-16 0)
(0.0888562 -7.81671e-17 0)
(0.0888562 5.73693e-17 0)
(0.0888562 -6.12332e-17 0)
(0.0888562 -7.82494e-17 0)
(0.0888562 6.91668e-17 0)
(0.0888562 5.62262e-17 0)
(0.0888562 1.72116e-16 0)
(0.0888562 -4.53325e-16 0)
(0.0888562 2.10829e-16 0)
(0.0888562 1.94545e-16 0)
(0.0888562 2.44745e-18 0)
(0.0888562 3.84442e-17 0)
(0.0888562 -3.54903e-16 0)
(0.0888562 1.0485e-16 0)
(0.0888562 2.07138e-16 0)
(0.0888562 -3.45882e-17 0)
(0.0888562 -2.11975e-16 0)
(0.0888562 1.09321e-16 0)
(0.0888562 -5.01764e-17 0)
(0.0888562 1.13732e-17 0)
(0.0888562 5.90829e-17 0)
(0.0888562 -1.34454e-16 0)
(0.0888562 1.83417e-16 0)
(0.0888562 8.27948e-17 0)
(0.0888562 1.03394e-16 0)
(0.0888562 -2.3302e-16 0)
(0.0888562 2.68551e-17 0)
(0.0888562 1.47106e-16 0)
(0.0888562 3.22073e-17 0)
(0.0888562 -5.29501e-17 0)
(0.0888562 -9.8872e-17 0)
(0.0888562 2.19379e-16 0)
(0.0888562 -2.61876e-16 0)
(0.0888562 5.7618e-17 0)
(0.0888562 3.62548e-17 0)
(0.0888562 -7.23856e-17 0)
(0.0888562 2.61568e-16 0)
(0.0888562 -1.65007e-16 0)
(0.0888562 -2.17274e-16 0)
(0.0888562 1.71495e-16 0)
(0.0888562 2.30378e-16 0)
(0.0888562 -2.1766e-16 0)
(0.0888562 4.28401e-17 0)
(0.0888562 3.81399e-17 0)
(0.0888562 4.77824e-17 0)
(0.0888562 2.34842e-16 0)
(0.0888562 7.18606e-17 0)
(0.0888562 7.55564e-16 0)
(0.146492 1.99987e-15 0)
(0.146492 7.24835e-16 0)
(0.146492 3.0366e-16 0)
(0.146492 2.05845e-16 0)
(0.146492 1.64972e-16 0)
(0.146492 7.74654e-17 0)
(0.146492 5.58093e-17 0)
(0.146492 5.052e-17 0)
(0.146492 1.66594e-17 0)
(0.146492 -2.7239e-17 0)
(0.146492 -3.54974e-17 0)
(0.146492 -2.99276e-17 0)
(0.146492 -2.91245e-17 0)
(0.146492 -1.03402e-17 0)
(0.146492 -2.53694e-18 0)
(0.146492 -1.93145e-18 0)
(0.146492 -1.66966e-17 0)
(0.146492 -4.4639e-17 0)
(0.146492 6.01629e-18 0)
(0.146492 1.7732e-17 0)
(0.146492 -2.43025e-18 0)
(0.146492 3.36939e-17 0)
(0.146492 4.12739e-17 0)
(0.146492 -7.04054e-18 0)
(0.146492 -6.56385e-18 0)
(0.146492 -3.22657e-17 0)
(0.146492 -2.14929e-18 0)
(0.146492 6.14733e-17 0)
(0.146492 -2.33843e-17 0)
(0.146492 -2.55034e-17 0)
(0.146492 2.14041e-18 0)
(0.146492 -7.65705e-18 0)
(0.146492 -2.01623e-17 0)
(0.146492 -7.04008e-17 0)
(0.146492 -5.95302e-17 0)
(0.146492 -1.51775e-17 0)
(0.146492 -1.03921e-16 0)
(0.146492 -6.93072e-17 0)
(0.146492 1.62248e-19 0)
(0.146492 -4.5414e-17 0)
(0.146492 -2.292e-17 0)
(0.146492 -2.3094e-17 0)
(0.146492 -3.2132e-17 0)
(0.146492 3.17125e-17 0)
(0.146492 5.9618e-17 0)
(0.146492 4.71575e-17 0)
(0.146492 4.29958e-17 0)
(0.146492 -3.62632e-17 0)
(0.146492 -1.34825e-17 0)
(0.146492 7.11887e-17 0)
(0.146492 3.93721e-17 0)
(0.146492 -1.17297e-17 0)
(0.146492 -3.73245e-17 0)
(0.146492 5.87518e-18 0)
(0.146492 1.91452e-17 0)
(0.146492 -3.00361e-18 0)
(0.146492 2.43199e-17 0)
(0.146492 -7.92752e-17 0)
(0.146492 -9.04181e-17 0)
(0.146492 -1.67724e-17 0)
(0.146492 -1.90037e-17 0)
(0.146492 1.04292e-17 0)
(0.146492 -4.27526e-17 0)
(0.146492 1.86031e-17 0)
(0.146492 3.84877e-17 0)
(0.146492 -9.17963e-21 0)
(0.146492 -7.34336e-17 0)
(0.146492 -3.10242e-17 0)
(0.146492 5.31989e-17 0)
(0.146492 4.7452e-17 0)
(0.146492 2.36101e-17 0)
(0.146492 1.58714e-17 0)
(0.146492 7.75166e-17 0)
(0.146492 -7.72906e-18 0)
(0.146492 -8.58975e-17 0)
(0.146492 1.57787e-16 0)
(0.146492 1.41504e-16 0)
(0.146492 -1.18193e-17 0)
(0.146492 -5.13176e-17 0)
(0.146492 7.26304e-18 0)
(0.146492 3.19936e-17 0)
(0.146492 -2.6862e-17 0)
(0.146492 -2.86649e-17 0)
(0.146492 2.59051e-18 0)
(0.146492 -7.14514e-18 0)
(0.146492 1.2074e-17 0)
(0.146492 -2.79826e-17 0)
(0.146492 3.81539e-17 0)
(0.146492 -1.55205e-17 0)
(0.146492 -2.83719e-17 0)
(0.146492 4.72279e-17 0)
(0.146492 3.35219e-17 0)
(0.146492 4.42306e-17 0)
(0.146492 6.94339e-17 0)
(0.146492 2.37825e-17 0)
(0.146492 -1.1933e-16 0)
(0.146492 -1.99097e-17 0)
(0.146492 1.68221e-16 0)
(0.146492 -5.53971e-17 0)
(0.146492 -9.2362e-17 0)
(0.146492 1.32907e-16 0)
(0.146492 6.53401e-17 0)
(0.146492 -3.42974e-17 0)
(0.146492 -7.59745e-17 0)
(0.146492 1.53277e-17 0)
(0.146492 7.51463e-17 0)
(0.146492 -1.82678e-17 0)
(0.146492 -5.83092e-17 0)
(0.146492 8.67065e-17 0)
(0.146492 7.21495e-17 0)
(0.146492 -9.79319e-17 0)
(0.146492 -1.17469e-16 0)
(0.146492 -5.00309e-17 0)
(0.146492 1.30275e-16 0)
(0.146492 8.76318e-17 0)
(0.146492 -1.83126e-16 0)
(0.146492 -6.73608e-17 0)
(0.146492 1.4322e-16 0)
(0.146492 1.01085e-16 0)
(0.146492 4.48649e-18 0)
(0.146492 -3.29958e-17 0)
(0.146492 5.30097e-17 0)
(0.146492 7.40845e-17 0)
(0.146492 -5.39185e-17 0)
(0.146492 -3.05247e-17 0)
(0.146492 8.14846e-17 0)
(0.146492 1.3999e-17 0)