/*--------------------------------*- C++ -*----------------------------------*\
| =========                 |                                                 |
| \\      /  F ield         | OpenFOAM: The Open Source CFD Toolbox           |
|  \\    /   O peration     | Version:  2112                                  |
|   \\  /    A nd           | Website:  www.openfoam.com                      |
|    \\/     M anipulation  |                                                 |
\*---------------------------------------------------------------------------*/
FoamFile
{
    version     2.0;
    format      ascii;
    arch        "LSB;label=32;scalar=64";
    class       volVectorField;
    location    "10";
    object      U;
}
// * * * * * * * * * * * * * * * * * * * * * * * * * * * * * * * * * * * * * //

dimensions      [0 1 -1 0 0 0 0];

internalField   nonuniform List<vector> 
25600
(
(0.0374883 -1.09593e-15 0)
(0.0374883 -2.33066e-16 0)
(0.0374883 -5.73507e-17 0)
(0.0374883 -1.83947e-17 0)
(0.0374883 -3.72382e-18 0)
(0.0374883 -1.04986e-17 0)
(0.0374883 -8.89474e-18 0)
(0.0374883 3.83921e-18 0)
(0.0374883 1.56371e-19 0)
(0.0374883 4.10482e-19 0)
(0.0374883 4.54607e-18 0)
(0.0374883 -4.00334e-18 0)
(0.0374883 8.96169e-18 0)
(0.0374883 5.41108e-18 0)
(0.0374883 -1.23925e-17 0)
(0.0374883 5.83266e-18 0)
(0.0374883 2.20312e-18 0)
(0.0374883 7.64179e-19 0)
(0.0374883 -8.50289e-19 0)
(0.0374883 1.70417e-19 0)
(0.0374883 -6.25558e-19 0)
(0.0374883 8.0184e-18 0)
(0.0374883 -1.33636e-18 0)
(0.0374883 -7.21866e-18 0)
(0.0374883 -1.30356e-17 0)
(0.0374883 -8.92659e-19 0)
(0.0374883 2.13571e-17 0)
(0.0374883 -7.18344e-18 0)
(0.0374883 -1.92261e-17 0)
(0.0374883 -8.50022e-18 0)
(0.0374883 6.70456e-18 0)
(0.0374883 1.1958e-17 0)
(0.0374883 2.88261e-18 0)
(0.0374883 -6.16976e-18 0)
(0.0374883 -2.81286e-18 0)
(0.0374883 -2.42339e-18 0)
(0.0374883 5.00433e-18 0)
(0.0374883 -3.22685e-18 0)
(0.0374883 -5.88396e-18 0)
(0.0374883 5.91019e-18 0)
(0.0374883 -1.60533e-18 0)
(0.0374883 1.10007e-17 0)
(0.0374883 -3.58464e-18 0)
(0.0374883 -1.38251e-17 0)
(0.0374883 2.34335e-17 0)
(0.0374883 -9.44537e-18 0)
(0.0374883 2.16967e-18 0)
(0.0374883 2.01311e-19 0)
(0.0374883 -7.79048e-18 0)
(0.0374883 -2.18177e-18 0)
(0.0374883 -2.58909e-17 0)
(0.0374883 2.73846e-17 0)
(0.0374883 1.20698e-18 0)
(0.0374883 -9.90083e-18 0)
(0.0374883 1.78063e-17 0)
(0.0374883 -2.69418e-17 0)
(0.0374883 3.33389e-18 0)
(0.0374883 -1.20846e-17 0)
(0.0374883 3.76729e-18 0)
(0.0374883 3.95987e-17 0)
(0.0374883 -3.20333e-17 0)
(0.0374883 9.71974e-18 0)
(0.0374883 -1.19378e-18 0)
(0.0374883 2.2819e-18 0)
(0.0374883 2.44394e-17 0)
(0.0374883 -1.75473e-17 0)
(0.0374883 4.0989e-18 0)
(0.0374883 -9.91524e-18 0)
(0.0374883 1.20187e-17 0)
(0.0374883 8.9076e-18 0)
(0.0374883 -5.26632e-18 0)
(0.0374883 -6.26132e-19 0)
(0.0374883 -3.43128e-18 0)
(0.0374883 -5.47595e-18 0)
(0.0374883 1.35411e-17 0)
(0.0374883 -7.96469e-18 0)
(0.0374883 -1.58827e-17 0)
(0.0374883 1.36667e-17 0)
(0.0374883 -4.85496e-18 0)
(0.0374883 2.4644e-17 0)
(0.0374883 -2.38199e-17 0)
(0.0374883 -3.4718e-17 0)
(0.0374883 2.38497e-17 0)
(0.0374883 4.71728e-18 0)
(0.0374883 2.86847e-17 0)
(0.0374883 -5.27946e-18 0)
(0.0374883 -4.34705e-17 0)
(0.0374883 7.75641e-18 0)
(0.0374883 2.07383e-17 0)
(0.0374883 3.27008e-17 0)
(0.0374883 -6.52551e-18 0)
(0.0374883 -5.30698e-17 0)
(0.0374883 3.76154e-18 0)
(0.0374883 5.14009e-17 0)
(0.0374883 8.39907e-19 0)
(0.0374883 -4.93352e-17 0)
(0.0374883 3.25569e-18 0)
(0.0374883 -2.77067e-18 0)
(0.0374883 4.16166e-17 0)
(0.0374883 2.53973e-17 0)
(0.0374883 -7.05902e-17 0)
(0.0374883 6.26262e-18 0)
(0.0374883 -5.52928e-18 0)
(0.0374883 3.79981e-17 0)
(0.0374883 7.24667e-18 0)
(0.0374883 -1.09667e-17 0)
(0.0374883 -2.81078e-17 0)
(0.0374883 1.17272e-17 0)
(0.0374883 3.33294e-17 0)
(0.0374883 -1.09163e-17 0)
(0.0374883 3.11302e-17 0)
(0.0374883 -8.96034e-17 0)
(0.0374883 2.07826e-17 0)
(0.0374883 6.02753e-17 0)
(0.0374883 1.86477e-18 0)
(0.0374883 -2.34541e-17 0)
(0.0374883 -6.21802e-17 0)
(0.0374883 3.99711e-17 0)
(0.0374883 4.04523e-17 0)
(0.0374883 9.07564e-18 0)
(0.0374883 -1.06075e-17 0)
(0.0374883 -5.91472e-17 0)
(0.0374883 -3.7994e-18 0)
(0.0374883 6.13593e-17 0)
(0.0374883 5.12056e-18 0)
(0.0374883 -3.5934e-17 0)
(0.0374883 -3.83204e-17 0)
(0.0374883 4.58522e-18 0)
(0.0374883 6.32603e-17 0)
(0.0374883 -8.11261e-18 0)
(0.0374883 -2.71847e-17 0)
(0.0374883 -2.60694e-17 0)
(0.0374883 2.39347e-17 0)
(0.0374883 3.2622e-17 0)
(0.0374883 -2.56341e-17 0)
(0.0374883 -2.17824e-17 0)
(0.0374883 -1.64585e-17 0)
(0.0374883 3.53995e-17 0)
(0.0374883 2.04155e-17 0)
(0.0374883 -2.4216e-17 0)
(0.0374883 -2.52029e-17 0)
(0.0374883 -1.0544e-17 0)
(0.0374883 5.23715e-17 0)
(0.0374883 1.139e-17 0)
(0.0374883 -4.55375e-17 0)
(0.0374883 4.44461e-17 0)
(0.0374883 -1.31604e-17 0)
(0.0374883 -3.4292e-17 0)
(0.0374883 -4.87642e-20 0)
(0.0374883 -4.75448e-18 0)
(0.0374883 5.23326e-17 0)
(0.0374883 -1.04375e-17 0)
(0.0374883 -4.70341e-17 0)
(0.0374883 7.40747e-18 0)
(0.0374883 2.22781e-17 0)
(0.0374883 3.12817e-17 0)
(0.0374883 -3.10452e-17 0)
(0.0374883 -3.16937e-17 0)
(0.0374883 2.94754e-17 0)
(0.0374883 4.44563e-18 0)
(0.0374883 5.66559e-17 0)
(0.0374883 -6.13541e-17 0)
(0.0374883 -4.40928e-17 0)
(0.0374883 6.35714e-17 0)
(0.0374883 -1.47423e-17 0)
(0.0374883 5.48776e-17 0)
(0.0374883 -3.76698e-17 0)
(0.0374883 -3.9858e-18 0)
(0.0374883 1.02918e-17 0)
(0.0374883 -4.88425e-17 0)
(0.0374883 8.31501e-17 0)
(0.0374883 -5.31739e-17 0)
(0.0374883 5.54751e-18 0)
(0.0374883 1.6915e-17 0)
(0.0374883 -4.51944e-17 0)
(0.0374883 7.73618e-17 0)
(0.0374883 -5.73283e-17 0)
(0.0374883 8.35791e-18 0)
(0.0374883 -8.1166e-18 0)
(0.0374883 -3.37063e-17 0)
(0.0374883 1.02925e-16 0)
(0.0374883 -7.57499e-17 0)
(0.0374883 3.10478e-18 0)
(0.0374883 1.38496e-17 0)
(0.0374883 -4.39109e-17 0)
(0.0374883 9.61431e-17 0)
(0.0374883 -6.2944e-17 0)
(0.0374883 8.29059e-19 0)
(0.0374883 6.54889e-17 0)
(0.0374883 -9.74505e-17 0)
(0.0374883 4.90463e-17 0)
(0.0374883 -2.04672e-18 0)
(0.0374883 -5.72687e-17 0)
(0.0374883 9.87162e-17 0)
(0.0374883 -4.24178e-17 0)
(0.0374883 7.44978e-18 0)
(0.0374883 -4.81041e-17 0)
(0.0374883 -1.11306e-17 0)
(0.0374883 1.42146e-16 0)
(0.0374883 -9.67132e-17 0)
(0.0374883 9.60303e-18 0)
(0.0374883 -4.98687e-17 0)
(0.0374883 -6.54461e-19 0)
(0.0374883 1.3915e-16 0)
(0.0374883 -9.21351e-17 0)
(0.0374883 -4.66734e-17 0)
(0.0374883 -1.2971e-17 0)
(0.0374883 4.09293e-17 0)
(0.0374883 8.73834e-17 0)
(0.0374883 -3.92117e-17 0)
(0.0374883 -8.26152e-17 0)
(0.0374883 -6.37278e-17 0)
(0.0374883 1.64681e-16 0)
(0.0374883 8.80973e-19 0)
(0.0374883 -1.70375e-16 0)
(0.0374883 1.60765e-16 0)
(0.0374883 3.17204e-17 0)
(0.0374883 -7.86126e-17 0)
(0.0374883 -3.63308e-17 0)
(0.0374883 -7.47735e-17 0)
(0.0374883 1.67434e-16 0)
(0.0374883 3.34274e-17 0)
(0.0374883 -8.90808e-17 0)
(0.0374883 -3.03479e-17 0)
(0.0374883 -8.02332e-17 0)
(0.0374883 1.64298e-16 0)
(0.0374883 -1.05817e-17 0)
(0.0374883 -5.84515e-17 0)
(0.0374883 1.45795e-17 0)
(0.0374883 -9.91021e-17 0)
(0.0374883 1.63586e-16 0)
(0.0374883 -9.8221e-18 0)
(0.0374883 -9.34923e-17 0)
(0.0374883 5.97395e-17 0)
(0.0374883 -7.42388e-17 0)
(0.0374883 9.66652e-17 0)
(0.0374883 -5.24422e-18 0)
(0.0374883 -2.12504e-17 0)
(0.0374883 2.50272e-17 0)
(0.0374883 -1.26031e-16 0)
(0.0374883 1.48394e-16 0)
(0.0374883 -1.55735e-17 0)
(0.0374883 -3.8436e-17 0)
(0.0374883 7.08544e-17 0)
(0.0374883 -1.39372e-16 0)
(0.0374883 1.41754e-17 0)
(0.0374883 4.66475e-17 0)
(0.0374883 5.02862e-17 0)
(0.0374883 1.40775e-17 0)
(0.0374883 -1.29592e-16 0)
(0.0374883 8.32311e-17 0)
(0.0374883 -8.87923e-18 0)
(0.0374883 -2.30623e-17 0)
(0.0374883 4.4707e-17 0)
(0.0374883 -1.12157e-16 0)
(0.0374883 1.01781e-16 0)
(0.0374883 -1.41043e-17 0)
(0.0374883 -1.54604e-17 0)
(0.0374883 7.07035e-17 0)
(0.0374883 -1.20567e-16 0)
(0.0374883 5.66597e-17 0)
(0.0374883 -5.27793e-18 0)
(0.0374883 -1.19318e-18 0)
(0.0374883 5.52139e-17 0)
(0.0374883 -1.10772e-16 0)
(0.0374883 8.5528e-17 0)
(0.0374883 3.03997e-17 0)
(0.0374883 -5.31173e-17 0)
(0.0374883 8.65023e-18 0)
(0.0374883 -7.64625e-17 0)
(0.0374883 7.68706e-17 0)
(0.0374883 3.66013e-17 0)
(0.0374883 -8.24789e-17 0)
(0.0374883 4.339e-17 0)
(0.0374883 -3.68685e-17 0)
(0.0374883 3.21215e-17 0)
(0.0374883 3.43616e-17 0)
(0.0374883 -9.0414e-17 0)
(0.0374883 5.99479e-17 0)
(0.0374883 -3.70886e-17 0)
(0.0374883 2.21533e-17 0)
(0.0374883 4.11556e-17 0)
(0.0374883 -8.92123e-17 0)
(0.0374883 6.24927e-17 0)
(0.0374883 -2.84885e-17 0)
(0.0374883 -2.11349e-17 0)
(0.0374883 9.65712e-17 0)
(0.0374883 -5.17941e-17 0)
(0.0374883 -1.09772e-17 0)
(0.0374883 -5.97457e-17 0)
(0.0374883 3.37543e-17 0)
(0.0374883 1.20155e-16 0)
(0.0374883 -9.03164e-18 0)
(0.0374883 -1.22099e-16 0)
(0.0374883 -2.25456e-17 0)
(0.0374883 5.97268e-17 0)
(0.0374883 4.47264e-18 0)
(0.0374883 7.27829e-17 0)
(0.0374883 -1.26195e-16 0)
(0.0374883 -1.66331e-17 0)
(0.0374883 6.50236e-17 0)
(0.0374883 7.63054e-18 0)
(0.0374883 4.71851e-17 0)
(0.0374883 -9.76631e-17 0)
(0.0374883 2.42346e-17 0)
(0.0374883 3.09203e-17 0)
(0.0374883 -4.44033e-17 0)
(0.0374883 8.61345e-17 0)
(0.0374883 -6.22378e-17 0)
(0.0374883 -6.87511e-20 0)
(0.0374883 2.19108e-17 0)
(0.0374883 -7.2665e-17 0)
(0.0374883 1.00167e-16 0)
(0.0374883 -4.03219e-17 0)
(0.0374883 -6.7902e-17 0)
(0.0374883 4.81366e-17 0)
(0.0374883 -2.56138e-17 0)
(0.0374883 4.52721e-17 0)
(0.0374883 -9.30511e-17 0)
(0.0374883 -2.93119e-16 0)
(0.11059 -1.93354e-15 0)
(0.11059 -4.72207e-16 0)
(0.11059 -1.47301e-16 0)
(0.11059 -6.76218e-17 0)
(0.11059 -2.97191e-17 0)
(0.11059 -3.02683e-17 0)
(0.11059 -3.07086e-17 0)
(0.11059 -8.07725e-18 0)
(0.11059 1.91466e-17 0)
(0.11059 2.11299e-17 0)
(0.11059 8.50108e-18 0)
(0.11059 1.23916e-17 0)
(0.11059 4.85405e-17 0)
(0.11059 1.81388e-17 0)
(0.11059 -3.01515e-17 0)
(0.11059 2.56389e-17 0)
(0.11059 2.53123e-17 0)
(0.11059 2.22586e-17 0)
(0.11059 4.14458e-18 0)
(0.11059 7.6146e-18 0)
(0.11059 1.21757e-17 0)
(0.11059 -4.65413e-18 0)
(0.11059 -1.32279e-17 0)
(0.11059 -3.59881e-17 0)
(0.11059 -4.07607e-17 0)
(0.11059 -1.62543e-17 0)
(0.11059 1.96002e-17 0)
(0.11059 -2.90847e-17 0)
(0.11059 -5.52905e-17 0)
(0.11059 -4.81327e-17 0)
(0.11059 -3.43414e-18 0)
(0.11059 5.23667e-17 0)
(0.11059 1.01873e-17 0)
(0.11059 -1.27827e-17 0)
(0.11059 -3.70618e-18 0)
(0.11059 -4.85267e-18 0)
(0.11059 3.53595e-17 0)
(0.11059 -2.26226e-17 0)
(0.11059 -3.79266e-17 0)
(0.11059 3.39293e-17 0)
(0.11059 -1.51949e-17 0)
(0.11059 1.38599e-17 0)
(0.11059 8.7181e-18 0)
(0.11059 -2.41445e-17 0)
(0.11059 2.13619e-17 0)
(0.11059 -8.41889e-18 0)
(0.11059 -8.57612e-19 0)
(0.11059 -9.6972e-18 0)
(0.11059 -3.81456e-17 0)
(0.11059 -4.21495e-17 0)
(0.11059 -4.77979e-17 0)
(0.11059 2.58513e-17 0)
(0.11059 -8.47527e-18 0)
(0.11059 -3.3397e-17 0)
(0.11059 1.2458e-17 0)
(0.11059 -6.18011e-17 0)
(0.11059 -8.54232e-20 0)
(0.11059 -5.67754e-18 0)
(0.11059 3.64778e-18 0)
(0.11059 2.68612e-17 0)
(0.11059 -6.76467e-17 0)
(0.11059 4.95437e-17 0)
(0.11059 1.00954e-17 0)
(0.11059 1.36732e-17 0)
(0.11059 7.55721e-17 0)
(0.11059 -2.34711e-17 0)
(0.11059 3.30892e-17 0)
(0.11059 1.92507e-17 0)
(0.11059 1.87708e-17 0)
(0.11059 6.1418e-17 0)
(0.11059 -2.86331e-17 0)
(0.11059 -1.21114e-17 0)
(0.11059 -2.50941e-17 0)
(0.11059 -2.77176e-17 0)
(0.11059 9.28639e-17 0)
(0.11059 -7.65898e-17 0)
(0.11059 -7.87012e-17 0)
(0.11059 3.23914e-17 0)
(0.11059 -2.3421e-17 0)
(0.11059 3.24015e-17 0)
(0.11059 -3.99463e-17 0)
(0.11059 -1.18666e-16 0)
(0.11059 4.86687e-19 0)
(0.11059 7.25651e-17 0)
(0.11059 7.42814e-17 0)
(0.11059 -9.80557e-18 0)
(0.11059 -4.37582e-17 0)
(0.11059 -8.01764e-18 0)
(0.11059 7.87736e-17 0)
(0.11059 1.21567e-16 0)
(0.11059 -3.9281e-17 0)
(0.11059 -9.7287e-17 0)
(0.11059 1.28156e-17 0)
(0.11059 7.9158e-17 0)
(0.11059 1.32463e-17 0)
(0.11059 -6.94894e-17 0)
(0.11059 4.28575e-18 0)
(0.11059 -4.60237e-18 0)
(0.11059 4.5622e-17 0)
(0.11059 3.33642e-17 0)
(0.11059 -9.25249e-17 0)
(0.11059 2.16113e-17 0)
(0.11059 -5.43365e-17 0)
(0.11059 1.8566e-17 0)
(0.11059 6.74886e-17 0)
(0.11059 2.46913e-17 0)
(0.11059 -6.09487e-17 0)
(0.11059 2.03862e-18 0)
(0.11059 1.0983e-16 0)
(0.11059 6.91013e-17 0)
(0.11059 4.09687e-17 0)
(0.11059 -1.86284e-16 0)
(0.11059 3.70018e-17 0)
(0.11059 1.73611e-16 0)
(0.11059 1.9384e-17 0)
(0.11059 -4.73985e-17 0)
(0.11059 -1.38818e-16 0)
(0.11059 6.20074e-19 0)
(0.11059 1.35169e-16 0)
(0.11059 1.39445e-17 0)
(0.11059 -8.54049e-17 0)
(0.11059 -1.53964e-16 0)
(0.11059 -8.66725e-18 0)
(0.11059 1.9142e-16 0)
(0.11059 6.68288e-17 0)
(0.11059 -1.03953e-16 0)
(0.11059 -1.6255e-16 0)
(0.11059 4.28477e-17 0)
(0.11059 1.76268e-16 0)
(0.11059 6.97866e-18 0)
(0.11059 -6.65591e-17 0)
(0.11059 -8.81075e-17 0)
(0.11059 4.05043e-17 0)
(0.11059 1.07338e-16 0)
(0.11059 -2.23252e-17 0)
(0.11059 -2.11474e-17 0)
(0.11059 -1.25741e-16 0)
(0.11059 -6.05519e-17 0)
(0.11059 1.02687e-16 0)
(0.11059 5.64368e-18 0)
(0.11059 -2.54079e-17 0)
(0.11059 -9.48538e-17 0)
(0.11059 1.17306e-17 0)
(0.11059 8.00238e-17 0)
(0.11059 8.44943e-18 0)
(0.11059 -1.92188e-17 0)
(0.11059 -1.09761e-16 0)
(0.11059 1.65921e-17 0)
(0.11059 9.66369e-18 0)
(0.11059 3.00323e-17 0)
(0.11059 7.81174e-17 0)
(0.11059 -1.55703e-16 0)
(0.11059 -9.27489e-17 0)
(0.11059 8.84334e-17 0)
(0.11059 6.69169e-17 0)
(0.11059 6.95141e-17 0)
(0.11059 -6.08744e-17 0)
(0.11059 -6.51781e-17 0)
(0.11059 5.95209e-17 0)
(0.11059 6.43964e-17 0)
(0.11059 1.04718e-16 0)
(0.11059 -1.13539e-16 0)
(0.11059 -3.28032e-18 0)
(0.11059 1.48518e-16 0)
(0.11059 -1.34055e-16 0)
(0.11059 7.43954e-17 0)
(0.11059 3.77155e-17 0)
(0.11059 -6.95594e-17 0)
(0.11059 1.62156e-16 0)
(0.11059 7.02955e-17 0)
(0.11059 -4.96119e-18 0)
(0.11059 -1.06235e-16 0)
(0.11059 3.4164e-17 0)
(0.11059 7.52983e-17 0)
(0.11059 -6.62402e-17 0)
(0.11059 -6.36097e-17 0)
(0.11059 -6.05332e-17 0)
(0.11059 1.72711e-16 0)
(0.11059 -6.24903e-17 0)
(0.11059 -5.45092e-17 0)
(0.11059 1.22344e-16 0)
(0.11059 -2.06528e-16 0)
(0.11059 -1.07058e-17 0)
(0.11059 8.3902e-17 0)
(0.11059 -2.37885e-17 0)
(0.11059 1.41141e-16 0)
(0.11059 -1.30118e-16 0)
(0.11059 -5.31795e-18 0)
(0.11059 1.34455e-16 0)
(0.11059 -1.18922e-16 0)
(0.11059 4.34265e-17 0)
(0.11059 -1.69013e-17 0)
(0.11059 -8.8499e-17 0)
(0.11059 1.48428e-16 0)
(0.11059 2.15653e-19 0)
(0.11059 2.467e-17 0)
(0.11059 -9.1942e-17 0)
(0.11059 -3.24205e-17 0)
(0.11059 2.01768e-16 0)
(0.11059 -1.2182e-16 0)
(0.11059 -6.81049e-18 0)
(0.11059 -8.93775e-17 0)
(0.11059 1.34063e-17 0)
(0.11059 2.02417e-16 0)
(0.11059 -7.82846e-17 0)
(0.11059 -1.53278e-16 0)
(0.11059 -1.30195e-16 0)
(0.11059 1.10271e-16 0)
(0.11059 1.26607e-16 0)
(0.11059 -4.15477e-17 0)
(0.11059 -1.07153e-16 0)
(0.11059 -1.1878e-16 0)
(0.11059 3.02423e-16 0)
(0.11059 5.32909e-18 0)
(0.11059 -2.90715e-16 0)
(0.11059 2.67037e-16 0)
(0.11059 3.26699e-17 0)
(0.11059 -8.68534e-17 0)
(0.11059 -7.18666e-17 0)
(0.11059 -1.60794e-16 0)
(0.11059 3.34535e-16 0)
(0.11059 5.90954e-17 0)
(0.11059 -1.38542e-16 0)
(0.11059 -7.13363e-17 0)
(0.11059 -1.87627e-16 0)
(0.11059 3.17366e-16 0)
(0.11059 3.39436e-18 0)
(0.11059 -1.15073e-16 0)
(0.11059 9.25878e-17 0)
(0.11059 -9.24748e-17 0)
(0.11059 1.56103e-16 0)
(0.11059 -5.16375e-17 0)
(0.11059 1.38748e-17 0)
(0.11059 9.65013e-17 0)
(0.11059 -2.3476e-16 0)
(0.11059 7.96893e-17 0)
(0.11059 6.66435e-17 0)
(0.11059 7.59955e-17 0)
(0.11059 1.19722e-16 0)
(0.11059 -2.04374e-16 0)
(0.11059 9.77698e-17 0)
(0.11059 -5.44964e-17 0)
(0.11059 5.5153e-17 0)
(0.11059 1.33609e-16 0)
(0.11059 -3.37788e-16 0)
(0.11059 1.97118e-17 0)
(0.11059 9.5398e-17 0)
(0.11059 1.23176e-16 0)
(0.11059 3.0736e-17 0)
(0.11059 -2.70071e-16 0)
(0.11059 1.94213e-16 0)
(0.11059 -2.8737e-17 0)
(0.11059 -1.54559e-16 0)
(0.11059 -2.22963e-17 0)
(0.11059 -1.57858e-16 0)
(0.11059 3.05825e-16 0)
(0.11059 -2.0829e-17 0)
(0.11059 -4.93891e-17 0)
(0.11059 1.15912e-16 0)
(0.11059 -2.36733e-16 0)
(0.11059 1.18108e-16 0)
(0.11059 6.03915e-17 0)
(0.11059 -2.97991e-17 0)
(0.11059 1.0231e-17 0)
(0.11059 -1.27336e-16 0)
(0.11059 2.27031e-16 0)
(0.11059 3.68579e-17 0)
(0.11059 -4.05653e-17 0)
(0.11059 -5.96031e-17 0)
(0.11059 -1.97193e-16 0)
(0.11059 1.76929e-16 0)
(0.11059 1.43337e-17 0)
(0.11059 4.56644e-17 0)
(0.11059 -6.18334e-17 0)
(0.11059 -2.11736e-16 0)
(0.11059 1.43129e-16 0)
(0.11059 -2.45745e-17 0)
(0.11059 -6.52245e-17 0)
(0.11059 9.3052e-17 0)
(0.11059 -1.55497e-16 0)
(0.11059 6.85499e-17 0)
(0.11059 5.97057e-17 0)
(0.11059 -1.53214e-18 0)
(0.11059 3.17093e-18 0)
(0.11059 -1.72223e-16 0)
(0.11059 1.09192e-16 0)
(0.11059 1.48305e-16 0)
(0.11059 3.85722e-17 0)
(0.11059 -1.72677e-16 0)
(0.11059 -1.37697e-16 0)
(0.11059 2.18686e-16 0)
(0.11059 -5.15127e-17 0)
(0.11059 -7.88553e-17 0)
(0.11059 -4.93774e-17 0)
(0.11059 -5.52332e-17 0)
(0.11059 2.31831e-16 0)
(0.11059 -4.54175e-17 0)
(0.11059 -7.7957e-17 0)
(0.11059 -9.32507e-17 0)
(0.11059 -3.88586e-17 0)
(0.11059 2.6918e-16 0)
(0.11059 2.22023e-17 0)
(0.11059 5.89857e-17 0)
(0.11059 -1.25076e-16 0)
(0.11059 -2.25502e-16 0)
(0.11059 1.15651e-16 0)
(0.11059 7.29343e-17 0)
(0.11059 1.01649e-16 0)
(0.11059 -1.54457e-16 0)
(0.11059 1.00171e-19 0)
(0.11059 6.95925e-17 0)
(0.11059 -1.43068e-16 0)
(0.11059 1.18652e-16 0)
(0.11059 -5.30625e-17 0)
(0.11059 -1.47814e-16 0)
(0.11059 7.19253e-17 0)
(0.11059 -1.39203e-16 0)
(0.11059 2.67702e-17 0)
(0.11059 -1.36922e-16 0)
(0.11059 -5.8938e-16 0)
(0.181818 -1.19675e-15 0)
(0.181818 -4.82877e-16 0)
(0.181818 -2.41083e-16 0)
(0.181818 -1.29443e-16 0)
(0.181818 -7.09755e-17 0)
(0.181818 -4.9177e-17 0)
(0.181818 -4.94182e-17 0)
(0.181818 -9.78676e-18 0)
(0.181818 4.90535e-17 0)
(0.181818 3.51034e-17 0)
(0.181818 1.60399e-17 0)
(0.181818 4.58149e-17 0)
(0.181818 1.01539e-16 0)
(0.181818 2.68962e-17 0)
(0.181818 -2.2956e-17 0)
(0.181818 3.46705e-17 0)
(0.181818 7.80721e-17 0)
(0.181818 4.54339e-17 0)
(0.181818 2.79051e-17 0)
(0.181818 4.86235e-17 0)
(0.181818 2.26662e-17 0)
(0.181818 -3.54847e-17 0)
(0.181818 -3.95335e-17 0)
(0.181818 -5.61102e-17 0)
(0.181818 -6.83728e-17 0)
(0.181818 -4.96562e-17 0)
(0.181818 -1.11188e-17 0)
(0.181818 -9.22189e-17 0)
(0.181818 -1.17162e-16 0)
(0.181818 -1.11356e-16 0)
(0.181818 1.15892e-17 0)
(0.181818 1.02723e-16 0)
(0.181818 2.16858e-17 0)
(0.181818 -3.12266e-17 0)
(0.181818 -1.67966e-17 0)
(0.181818 -4.91531e-18 0)
(0.181818 5.24635e-17 0)
(0.181818 -8.6974e-18 0)
(0.181818 -8.03051e-17 0)
(0.181818 8.59946e-18 0)
(0.181818 -4.58423e-18 0)
(0.181818 2.34762e-17 0)
(0.181818 3.53338e-17 0)
(0.181818 -5.29312e-17 0)
(0.181818 -2.22814e-17 0)
(0.181818 1.83609e-17 0)
(0.181818 -7.81659e-18 0)
(0.181818 -3.69e-17 0)
(0.181818 -9.32957e-17 0)
(0.181818 -8.97052e-17 0)
(0.181818 -8.39962e-17 0)
(0.181818 -1.45111e-17 0)
(0.181818 -2.3859e-17 0)
(0.181818 -4.93183e-17 0)
(0.181818 -2.11949e-17 0)
(0.181818 -9.64883e-17 0)
(0.181818 -2.15341e-17 0)
(0.181818 -1.36588e-17 0)
(0.181818 9.99864e-19 0)
(0.181818 2.80243e-17 0)
(0.181818 -1.1583e-16 0)
(0.181818 9.4847e-17 0)
(0.181818 1.85903e-17 0)
(0.181818 1.33859e-17 0)
(0.181818 1.77284e-16 0)
(0.181818 -2.31316e-17 0)
(0.181818 7.49176e-17 0)
(0.181818 5.56185e-17 0)
(0.181818 5.50584e-17 0)
(0.181818 1.04175e-16 0)
(0.181818 -3.8871e-17 0)
(0.181818 -7.83096e-18 0)
(0.181818 -5.58912e-17 0)
(0.181818 1.78981e-17 0)
(0.181818 7.918e-17 0)
(0.181818 -1.47364e-16 0)
(0.181818 -1.2236e-16 0)
(0.181818 2.57486e-18 0)
(0.181818 -5.33374e-17 0)
(0.181818 -4.8674e-18 0)
(0.181818 -1.04251e-16 0)
(0.181818 -1.60838e-16 0)
(0.181818 3.52157e-17 0)
(0.181818 1.16064e-16 0)
(0.181818 9.94324e-17 0)
(0.181818 2.86176e-18 0)
(0.181818 1.89674e-17 0)
(0.181818 1.89297e-17 0)
(0.181818 6.03555e-17 0)
(0.181818 1.91659e-16 0)
(0.181818 -2.43002e-17 0)
(0.181818 -9.33798e-17 0)
(0.181818 5.06363e-17 0)
(0.181818 5.58871e-17 0)
(0.181818 3.49599e-17 0)
(0.181818 -4.80587e-17 0)
(0.181818 7.91712e-18 0)
(0.181818 -3.7637e-18 0)
(0.181818 -1.09129e-17 0)
(0.181818 7.75505e-18 0)
(0.181818 -4.61981e-17 0)
(0.181818 -1.91763e-17 0)
(0.181818 -6.99797e-17 0)
(0.181818 4.44835e-18 0)
(0.181818 1.05102e-16 0)
(0.181818 1.26487e-16 0)
(0.181818 -9.21241e-17 0)
(0.181818 -5.57585e-17 0)
(0.181818 2.34301e-16 0)
(0.181818 2.3459e-16 0)
(0.181818 2.54703e-17 0)
(0.181818 -2.9003e-16 0)
(0.181818 5.73594e-17 0)
(0.181818 2.74359e-16 0)
(0.181818 1.08209e-16 0)
(0.181818 -3.22281e-17 0)
(0.181818 -2.75487e-16 0)
(0.181818 -7.96777e-17 0)
(0.181818 2.76329e-16 0)
(0.181818 1.01921e-16 0)
(0.181818 -2.47977e-16 0)
(0.181818 -3.12413e-16 0)
(0.181818 -2.21818e-17 0)
(0.181818 3.51104e-16 0)
(0.181818 2.0076e-16 0)
(0.181818 -1.84395e-16 0)
(0.181818 -3.77975e-16 0)
(0.181818 1.06277e-16 0)
(0.181818 3.28767e-16 0)
(0.181818 4.14779e-17 0)
(0.181818 -9.54221e-17 0)
(0.181818 -2.05131e-16 0)
(0.181818 5.18689e-17 0)
(0.181818 2.22958e-16 0)
(0.181818 -2.14966e-17 0)
(0.181818 -1.22792e-16 0)
(0.181818 -2.30656e-16 0)
(0.181818 -6.37874e-17 0)
(0.181818 1.81535e-16 0)
(0.181818 1.40233e-18 0)
(0.181818 -1.33822e-16 0)
(0.181818 -1.5839e-16 0)
(0.181818 6.49622e-17 0)
(0.181818 1.31995e-16 0)
(0.181818 -7.16088e-17 0)
(0.181818 -8.56937e-17 0)
(0.181818 -1.28751e-16 0)
(0.181818 8.16989e-17 0)
(0.181818 1.37509e-17 0)
(0.181818 -9.50826e-17 0)
(0.181818 1.11175e-16 0)
(0.181818 -1.08829e-16 0)
(0.181818 -1.48725e-16 0)
(0.181818 4.29169e-17 0)
(0.181818 1.09556e-16 0)
(0.181818 1.51155e-16 0)
(0.181818 -4.88671e-17 0)
(0.181818 -1.23754e-16 0)
(0.181818 7.14251e-17 0)
(0.181818 1.73147e-16 0)
(0.181818 1.7514e-16 0)
(0.181818 -1.65219e-16 0)
(0.181818 -2.77397e-17 0)
(0.181818 2.37898e-16 0)
(0.181818 -3.92854e-17 0)
(0.181818 7.00767e-17 0)
(0.181818 9.274e-17 0)
(0.181818 7.89096e-17 0)
(0.181818 1.56815e-16 0)
(0.181818 5.71194e-17 0)
(0.181818 2.48318e-18 0)
(0.181818 -1.0673e-16 0)
(0.181818 6.70969e-17 0)
(0.181818 1.53982e-16 0)
(0.181818 -1.0635e-17 0)
(0.181818 -1.85979e-16 0)
(0.181818 -1.77482e-16 0)
(0.181818 7.95859e-17 0)
(0.181818 -5.37976e-18 0)
(0.181818 1.31684e-16 0)
(0.181818 4.78724e-17 0)
(0.181818 -4.0928e-16 0)
(0.181818 -4.04061e-17 0)
(0.181818 1.87064e-16 0)
(0.181818 7.54138e-17 0)
(0.181818 1.44836e-16 0)
(0.181818 -1.889e-16 0)
(0.181818 -6.18511e-17 0)
(0.181818 1.8906e-16 0)
(0.181818 -5.84627e-17 0)
(0.181818 -1.35194e-17 0)
(0.181818 -3.06455e-17 0)
(0.181818 -5.7741e-17 0)
(0.181818 1.18018e-16 0)
(0.181818 1.0223e-16 0)
(0.181818 6.39776e-17 0)
(0.181818 -8.76575e-17 0)
(0.181818 -6.46386e-17 0)
(0.181818 1.05255e-16 0)
(0.181818 -4.10958e-17 0)
(0.181818 -3.11823e-17 0)
(0.181818 -8.12414e-17 0)
(0.181818 2.65187e-17 0)
(0.181818 1.25052e-16 0)
(0.181818 -5.30666e-17 0)
(0.181818 -1.47582e-16 0)
(0.181818 -1.58495e-16 0)
(0.181818 2.77003e-17 0)
(0.181818 6.5277e-17 0)
(0.181818 4.67227e-18 0)
(0.181818 -3.30069e-17 0)
(0.181818 -1.50218e-16 0)
(0.181818 3.79061e-16 0)
(0.181818 3.03543e-17 0)
(0.181818 -3.32154e-16 0)
(0.181818 3.06118e-16 0)
(0.181818 -5.45178e-17 0)
(0.181818 -6.31314e-18 0)
(0.181818 -7.35236e-17 0)
(0.181818 -2.83934e-16 0)
(0.181818 4.93259e-16 0)
(0.181818 4.14011e-17 0)
(0.181818 -1.35381e-16 0)
(0.181818 -7.9269e-17 0)
(0.181818 -3.42401e-16 0)
(0.181818 4.63451e-16 0)
(0.181818 4.84879e-17 0)
(0.181818 -1.46968e-16 0)
(0.181818 7.50038e-17 0)
(0.181818 -1.55409e-16 0)
(0.181818 4.3359e-16 0)
(0.181818 2.54206e-17 0)
(0.181818 -1.07228e-16 0)
(0.181818 1.08784e-16 0)
(0.181818 -3.30455e-16 0)
(0.181818 1.01606e-16 0)
(0.181818 1.53798e-17 0)
(0.181818 3.11018e-16 0)
(0.181818 3.13226e-16 0)
(0.181818 -4.011e-16 0)
(0.181818 1.01975e-16 0)
(0.181818 -1.17591e-16 0)
(0.181818 1.59152e-16 0)
(0.181818 2.18309e-16 0)
(0.181818 -6.56108e-16 0)
(0.181818 5.9099e-17 0)
(0.181818 1.60936e-16 0)
(0.181818 1.87333e-16 0)
(0.181818 3.76378e-17 0)
(0.181818 -4.1032e-16 0)
(0.181818 4.43824e-16 0)
(0.181818 -7.89989e-17 0)
(0.181818 -4.14263e-16 0)
(0.181818 -2.26376e-16 0)
(0.181818 -1.92623e-16 0)
(0.181818 7.12396e-16 0)
(0.181818 -3.87452e-17 0)
(0.181818 -1.5578e-16 0)
(0.181818 1.36795e-16 0)
(0.181818 -3.59301e-16 0)
(0.181818 2.5785e-16 0)
(0.181818 6.10178e-17 0)
(0.181818 4.53468e-18 0)
(0.181818 -1.78003e-18 0)
(0.181818 -2.28003e-16 0)
(0.181818 4.60664e-16 0)
(0.181818 7.51857e-18 0)
(0.181818 -1.23555e-16 0)
(0.181818 -2.10769e-17 0)
(0.181818 -3.59023e-16 0)
(0.181818 2.73304e-16 0)
(0.181818 4.75166e-17 0)
(0.181818 -1.80988e-17 0)
(0.181818 -7.54795e-18 0)
(0.181818 -3.91526e-16 0)
(0.181818 2.10573e-16 0)
(0.181818 -4.42906e-17 0)
(0.181818 -3.58055e-17 0)
(0.181818 1.0303e-16 0)
(0.181818 -3.80737e-16 0)
(0.181818 1.59817e-16 0)
(0.181818 3.63772e-17 0)
(0.181818 1.66768e-17 0)
(0.181818 1.13739e-16 0)
(0.181818 -3.09543e-16 0)
(0.181818 2.62285e-16 0)
(0.181818 2.41529e-16 0)
(0.181818 -1.41853e-16 0)
(0.181818 -1.76728e-16 0)
(0.181818 -2.19358e-16 0)
(0.181818 2.62965e-16 0)
(0.181818 4.99178e-17 0)
(0.181818 -2.28433e-16 0)
(0.181818 1.32966e-17 0)
(0.181818 -1.14722e-16 0)
(0.181818 1.26462e-16 0)
(0.181818 2.09306e-16 0)
(0.181818 -1.74824e-16 0)
(0.181818 -1.21443e-16 0)
(0.181818 -1.21183e-16 0)
(0.181818 2.74177e-16 0)
(0.181818 4.04458e-16 0)
(0.181818 3.26633e-17 0)
(0.181818 -3.96304e-16 0)
(0.181818 -1.84934e-16 0)
(0.181818 2.571e-16 0)
(0.181818 6.05216e-17 0)
(0.181818 3.58913e-17 0)
(0.181818 -2.74895e-16 0)
(0.181818 2.64995e-17 0)
(0.181818 1.12727e-16 0)
(0.181818 -2.29305e-16 0)
(0.181818 9.9959e-17 0)
(0.181818 -7.17435e-17 0)
(0.181818 -1.97136e-16 0)
(0.181818 -5.79496e-17 0)
(0.181818 -2.09252e-16 0)
(0.181818 1.261e-16 0)
(0.181818 -2.62161e-16 0)
(0.181818 -6.96452e-16 0)
(0.251172 -7.54678e-16 0)
(0.251172 -4.48204e-16 0)
(0.251172 -2.86634e-16 0)
(0.251172 -1.79291e-16 0)
(0.251172 -1.25866e-16 0)
(0.251172 -7.02175e-17 0)
(0.251172 -4.24044e-17 0)
(0.251172 -2.63843e-18 0)
(0.251172 7.5777e-17 0)
(0.251172 5.91765e-17 0)
(0.251172 3.59121e-17 0)
(0.251172 8.95762e-17 0)
(0.251172 1.45284e-16 0)
(0.251172 5.97145e-17 0)
(0.251172 -6.4164e-18 0)
(0.251172 8.69384e-17 0)
(0.251172 1.1421e-16 0)
(0.251172 9.92205e-17 0)
(0.251172 8.06288e-17 0)
(0.251172 4.31424e-17 0)
(0.251172 3.75688e-17 0)
(0.251172 -3.0829e-17 0)
(0.251172 -7.4005e-17 0)
(0.251172 -1.22238e-16 0)
(0.251172 -1.27392e-16 0)
(0.251172 -8.77373e-17 0)
(0.251172 -3.83807e-17 0)
(0.251172 -1.45648e-16 0)
(0.251172 -2.27036e-16 0)
(0.251172 -1.57316e-16 0)
(0.251172 7.91634e-18 0)
(0.251172 1.22172e-16 0)
(0.251172 3.64321e-17 0)
(0.251172 -2.22827e-17 0)
(0.251172 -4.14807e-17 0)
(0.251172 -2.23507e-17 0)
(0.251172 5.97219e-17 0)
(0.251172 -6.88722e-18 0)
(0.251172 -1.15688e-16 0)
(0.251172 -2.45697e-17 0)
(0.251172 6.36822e-18 0)
(0.251172 3.83223e-17 0)
(0.251172 1.61108e-17 0)
(0.251172 -6.27884e-17 0)
(0.251172 -2.69619e-17 0)
(0.251172 2.07971e-17 0)
(0.251172 -1.88078e-17 0)
(0.251172 -8.15807e-17 0)
(0.251172 -1.60901e-16 0)
(0.251172 -1.615e-16 0)
(0.251172 -1.69576e-16 0)
(0.251172 -4.01847e-17 0)
(0.251172 -4.77904e-17 0)
(0.251172 -9.30306e-17 0)
(0.251172 -3.43712e-17 0)
(0.251172 -1.48669e-16 0)
(0.251172 -5.74807e-17 0)
(0.251172 -3.56808e-17 0)
(0.251172 -2.57863e-17 0)
(0.251172 5.09103e-17 0)
(0.251172 -1.22773e-16 0)
(0.251172 7.15658e-17 0)
(0.251172 3.52676e-17 0)
(0.251172 6.44567e-17 0)
(0.251172 1.82322e-16 0)
(0.251172 7.80468e-18 0)
(0.251172 1.75541e-16 0)
(0.251172 9.1368e-17 0)
(0.251172 1.19682e-16 0)
(0.251172 1.63491e-16 0)
(0.251172 -6.38234e-17 0)
(0.251172 -1.02924e-17 0)
(0.251172 -7.93934e-17 0)
(0.251172 1.99493e-17 0)
(0.251172 9.7746e-17 0)
(0.251172 -2.08061e-16 0)
(0.251172 -1.77074e-16 0)
(0.251172 -8.13461e-17 0)
(0.251172 -1.10004e-16 0)
(0.251172 -4.23038e-18 0)
(0.251172 -1.72939e-16 0)
(0.251172 -2.34565e-16 0)
(0.251172 5.08247e-17 0)
(0.251172 1.84022e-16 0)
(0.251172 1.66123e-16 0)
(0.251172 -1.63823e-18 0)
(0.251172 3.74159e-17 0)
(0.251172 8.79309e-17 0)
(0.251172 1.06944e-16 0)
(0.251172 2.34912e-16 0)
(0.251172 3.49906e-17 0)
(0.251172 -6.24775e-17 0)
(0.251172 3.95728e-17 0)
(0.251172 8.50165e-17 0)
(0.251172 4.72181e-17 0)
(0.251172 -9.53957e-17 0)
(0.251172 3.12807e-17 0)
(0.251172 2.10534e-17 0)
(0.251172 -1.84538e-17 0)
(0.251172 -5.74329e-18 0)
(0.251172 -6.71807e-17 0)
(0.251172 -7.56015e-17 0)
(0.251172 -1.28466e-16 0)
(0.251172 4.28308e-17 0)
(0.251172 2.24569e-16 0)
(0.251172 1.63179e-16 0)
(0.251172 -1.20175e-16 0)
(0.251172 -6.26008e-17 0)
(0.251172 3.88817e-16 0)
(0.251172 3.85049e-16 0)
(0.251172 1.52512e-17 0)
(0.251172 -3.70482e-16 0)
(0.251172 7.76219e-17 0)
(0.251172 3.68463e-16 0)
(0.251172 2.20781e-16 0)
(0.251172 -9.68681e-18 0)
(0.251172 -3.84615e-16 0)
(0.251172 -1.55413e-16 0)
(0.251172 3.55003e-16 0)
(0.251172 1.48745e-16 0)
(0.251172 -3.71945e-16 0)
(0.251172 -5.03654e-16 0)
(0.251172 -3.75313e-18 0)
(0.251172 4.69688e-16 0)
(0.251172 2.36043e-16 0)
(0.251172 -2.14684e-16 0)
(0.251172 -4.15389e-16 0)
(0.251172 1.01839e-16 0)
(0.251172 4.56668e-16 0)
(0.251172 6.66001e-17 0)
(0.251172 -1.82758e-16 0)
(0.251172 -2.14975e-16 0)
(0.251172 3.16916e-17 0)
(0.251172 2.76373e-16 0)
(0.251172 3.85225e-17 0)
(0.251172 -1.89276e-16 0)
(0.251172 -3.62407e-16 0)
(0.251172 -1.33897e-16 0)
(0.251172 2.96994e-16 0)
(0.251172 3.07098e-17 0)
(0.251172 -2.47746e-16 0)
(0.251172 -3.25687e-16 0)
(0.251172 8.23415e-17 0)
(0.251172 1.6989e-16 0)
(0.251172 -5.07467e-17 0)
(0.251172 -8.8649e-17 0)
(0.251172 -3.19002e-16 0)
(0.251172 7.20166e-17 0)
(0.251172 5.40089e-17 0)
(0.251172 -6.56497e-17 0)
(0.251172 8.77065e-17 0)
(0.251172 -2.42958e-16 0)
(0.251172 -1.22142e-16 0)
(0.251172 1.06207e-16 0)
(0.251172 1.58655e-16 0)
(0.251172 1.64003e-16 0)
(0.251172 -1.08686e-16 0)
(0.251172 -1.10685e-16 0)
(0.251172 1.83378e-16 0)
(0.251172 2.50756e-16 0)
(0.251172 2.12864e-16 0)
(0.251172 -2.11955e-16 0)
(0.251172 6.48669e-17 0)
(0.251172 3.74604e-16 0)
(0.251172 -5.44042e-17 0)
(0.251172 1.23729e-16 0)
(0.251172 1.71191e-16 0)
(0.251172 1.90088e-16 0)
(0.251172 2.31768e-16 0)
(0.251172 1.04338e-16 0)
(0.251172 1.13658e-17 0)
(0.251172 -1.89314e-16 0)
(0.251172 7.30334e-17 0)
(0.251172 2.70451e-16 0)
(0.251172 -5.32307e-17 0)
(0.251172 -2.45724e-16 0)
(0.251172 -1.99746e-16 0)
(0.251172 -7.00915e-18 0)
(0.251172 -1.26225e-17 0)
(0.251172 1.67304e-16 0)
(0.251172 3.57394e-17 0)
(0.251172 -4.95637e-16 0)
(0.251172 -5.21871e-17 0)
(0.251172 2.41176e-16 0)
(0.251172 9.75765e-17 0)