/*--------------------------------*- C++ -*----------------------------------*\
| =========                 |                                                 |
| \\      /  F ield         | OpenFOAM: The Open Source CFD Toolbox           |
|  \\    /   O peration     | Version:  2112                                  |
|   \\  /    A nd           | Website:  www.openfoam.com                      |
|    \\/     M anipulation  |                                                 |
\*---------------------------------------------------------------------------*/
FoamFile
{
    version     2.0;
    format      ascii;
    arch        "LSB;label=32;scalar=64";
    class       volVectorField;
    location    "10";
    object      U;
}
// * * * * * * * * * * * * * * * * * * * * * * * * * * * * * * * * * * * * * //

dimensions      [0 1 -1 0 0 0 0];

internalField   nonuniform List<vector> 
25600
(
(0.0374883 -5.49514e-17 0)
(0.0374883 -8.58246e-18 0)
(0.0374883 -1.98907e-17 0)
(0.0374883 -9.58816e-18 0)
(0.0374883 2.41612e-18 0)
(0.0374883 -2.06561e-18 0)
(0.0374883 -7.75003e-18 0)
(0.0374883 3.15183e-18 0)
(0.0374883 1.53668e-18 0)
(0.0374883 -3.24483e-18 0)
(0.0374883 -6.25853e-19 0)
(0.0374883 -7.49731e-18 0)
(0.0374883 6.95761e-18 0)
(0.0374883 -4.66744e-20 0)
(0.0374883 -8.01772e-18 0)
(0.0374883 1.16026e-17 0)
(0.0374883 3.2485e-18 0)
(0.0374883 -3.11147e-18 0)
(0.0374883 -5.65964e-18 0)
(0.0374883 -1.84335e-18 0)
(0.0374883 4.10318e-18 0)
(0.0374883 1.7556e-18 0)
(0.0374883 -8.94565e-19 0)
(0.0374883 -4.80723e-18 0)
(0.0374883 -1.52305e-17 0)
(0.0374883 -1.71068e-18 0)
(0.0374883 2.53688e-17 0)
(0.0374883 -5.21051e-19 0)
(0.0374883 -2.14745e-17 0)
(0.0374883 -4.75448e-19 0)
(0.0374883 1.04106e-17 0)
(0.0374883 1.47831e-17 0)
(0.0374883 -2.6167e-18 0)
(0.0374883 -1.36265e-17 0)
(0.0374883 -3.09275e-18 0)
(0.0374883 -3.26027e-18 0)
(0.0374883 5.74215e-18 0)
(0.0374883 -2.96152e-18 0)
(0.0374883 -8.04754e-18 0)
(0.0374883 8.43494e-18 0)
(0.0374883 -2.66705e-18 0)
(0.0374883 1.70054e-17 0)
(0.0374883 -1.01076e-17 0)
(0.0374883 -1.73161e-17 0)
(0.0374883 2.26706e-17 0)
(0.0374883 -7.20329e-18 0)
(0.0374883 5.79669e-18 0)
(0.0374883 7.2116e-19 0)
(0.0374883 4.05509e-19 0)
(0.0374883 2.78869e-18 0)
(0.0374883 -2.92635e-17 0)
(0.0374883 2.0925e-17 0)
(0.0374883 1.47257e-18 0)
(0.0374883 4.4324e-19 0)
(0.0374883 2.42426e-17 0)
(0.0374883 -2.62807e-17 0)
(0.0374883 -1.51185e-18 0)
(0.0374883 -8.89297e-18 0)
(0.0374883 9.8668e-19 0)
(0.0374883 3.87708e-17 0)
(0.0374883 -3.69414e-17 0)
(0.0374883 7.71366e-18 0)
(0.0374883 -1.59772e-18 0)
(0.0374883 1.96377e-18 0)
(0.0374883 2.05475e-17 0)
(0.0374883 -2.35944e-17 0)
(0.0374883 1.76671e-19 0)
(0.0374883 -9.60353e-18 0)
(0.0374883 1.34718e-17 0)
(0.0374883 8.2313e-18 0)
(0.0374883 -5.18867e-18 0)
(0.0374883 7.51574e-19 0)
(0.0374883 -5.05928e-18 0)
(0.0374883 -6.6649e-19 0)
(0.0374883 8.7019e-18 0)
(0.0374883 -3.40286e-18 0)
(0.0374883 -1.74882e-17 0)
(0.0374883 1.14413e-17 0)
(0.0374883 -9.99491e-19 0)
(0.0374883 3.01671e-17 0)
(0.0374883 -2.21574e-17 0)
(0.0374883 -3.01087e-17 0)
(0.0374883 2.37096e-17 0)
(0.0374883 -3.64423e-18 0)
(0.0374883 2.53971e-17 0)
(0.0374883 -2.98889e-18 0)
(0.0374883 -4.06722e-17 0)
(0.0374883 -5.93871e-18 0)
(0.0374883 1.62458e-17 0)
(0.0374883 3.22333e-17 0)
(0.0374883 -5.04174e-18 0)
(0.0374883 -4.83755e-17 0)
(0.0374883 3.69162e-19 0)
(0.0374883 4.84262e-17 0)
(0.0374883 2.48972e-18 0)
(0.0374883 -5.01579e-17 0)
(0.0374883 1.64276e-18 0)
(0.0374883 -4.68255e-18 0)
(0.0374883 4.49348e-17 0)
(0.0374883 2.59067e-17 0)
(0.0374883 -7.1463e-17 0)
(0.0374883 3.3964e-18 0)
(0.0374883 -8.7216e-18 0)
(0.0374883 4.16375e-17 0)
(0.0374883 4.55499e-18 0)
(0.0374883 -1.61188e-17 0)
(0.0374883 -3.05276e-17 0)
(0.0374883 1.56435e-17 0)
(0.0374883 2.94273e-17 0)
(0.0374883 -1.34771e-17 0)
(0.0374883 3.26423e-17 0)
(0.0374883 -8.5604e-17 0)
(0.0374883 2.18735e-17 0)
(0.0374883 5.40208e-17 0)
(0.0374883 1.61667e-18 0)
(0.0374883 -1.06143e-17 0)
(0.0374883 -5.88485e-17 0)
(0.0374883 2.87349e-17 0)
(0.0374883 3.69768e-17 0)
(0.0374883 1.44207e-17 0)
(0.0374883 -5.69383e-18 0)
(0.0374883 -5.63116e-17 0)
(0.0374883 -1.19005e-17 0)
(0.0374883 5.86757e-17 0)
(0.0374883 1.53234e-17 0)
(0.0374883 -2.65877e-17 0)
(0.0374883 -4.14984e-17 0)
(0.0374883 -1.72102e-18 0)
(0.0374883 6.13562e-17 0)
(0.0374883 2.14998e-18 0)
(0.0374883 -2.7409e-17 0)
(0.0374883 -3.29124e-17 0)
(0.0374883 2.04858e-17 0)
(0.0374883 3.72083e-17 0)
(0.0374883 -2.1308e-17 0)
(0.0374883 -1.63961e-17 0)
(0.0374883 -7.34135e-18 0)
(0.0374883 4.04006e-17 0)
(0.0374883 2.37642e-17 0)
(0.0374883 -2.00453e-17 0)
(0.0374883 -3.33818e-17 0)
(0.0374883 -1.46097e-17 0)
(0.0374883 4.27625e-17 0)
(0.0374883 1.18229e-17 0)
(0.0374883 -4.49086e-17 0)
(0.0374883 4.23806e-17 0)
(0.0374883 -1.07579e-17 0)
(0.0374883 -3.35624e-17 0)
(0.0374883 5.02761e-19 0)
(0.0374883 -3.48976e-18 0)
(0.0374883 5.20052e-17 0)
(0.0374883 -1.04057e-17 0)
(0.0374883 -4.6305e-17 0)
(0.0374883 6.35381e-18 0)
(0.0374883 2.53376e-17 0)
(0.0374883 2.36191e-17 0)
(0.0374883 -3.10722e-17 0)
(0.0374883 -3.22382e-17 0)
(0.0374883 2.10902e-17 0)
(0.0374883 3.3171e-18 0)
(0.0374883 5.97146e-17 0)
(0.0374883 -6.05957e-17 0)
(0.0374883 -4.59927e-17 0)
(0.0374883 5.99514e-17 0)
(0.0374883 -1.69748e-17 0)
(0.0374883 4.44529e-17 0)
(0.0374883 -4.11426e-17 0)
(0.0374883 -1.34029e-17 0)
(0.0374883 9.10617e-18 0)
(0.0374883 -4.63215e-17 0)
(0.0374883 8.4986e-17 0)
(0.0374883 -5.35214e-17 0)
(0.0374883 2.09129e-18 0)
(0.0374883 1.27177e-17 0)
(0.0374883 -4.00055e-17 0)
(0.0374883 8.14378e-17 0)
(0.0374883 -5.72158e-17 0)
(0.0374883 1.20204e-17 0)
(0.0374883 -1.0855e-17 0)
(0.0374883 -3.70574e-17 0)
(0.0374883 1.10069e-16 0)
(0.0374883 -7.19624e-17 0)
(0.0374883 -1.97043e-18 0)
(0.0374883 1.56632e-17 0)
(0.0374883 -4.39546e-17 0)
(0.0374883 1.01965e-16 0)
(0.0374883 -5.52186e-17 0)
(0.0374883 -3.09109e-18 0)
(0.0374883 6.32473e-17 0)
(0.0374883 -9.50597e-17 0)
(0.0374883 4.67334e-17 0)
(0.0374883 -2.84175e-18 0)
(0.0374883 -5.36432e-17 0)
(0.0374883 9.5375e-17 0)
(0.0374883 -3.78337e-17 0)
(0.0374883 7.21626e-18 0)
(0.0374883 -4.33838e-17 0)
(0.0374883 -1.25619e-17 0)
(0.0374883 1.36831e-16 0)
(0.0374883 -9.33011e-17 0)
(0.0374883 5.56629e-18 0)
(0.0374883 -4.99121e-17 0)
(0.0374883 -5.51256e-19 0)
(0.0374883 1.39831e-16 0)
(0.0374883 -8.52171e-17 0)
(0.0374883 -4.4124e-17 0)
(0.0374883 -1.2361e-17 0)
(0.0374883 4.74903e-17 0)
(0.0374883 8.58611e-17 0)
(0.0374883 -4.11902e-17 0)
(0.0374883 -7.70777e-17 0)
(0.0374883 -6.58437e-17 0)
(0.0374883 1.60776e-16 0)
(0.0374883 5.39261e-18 0)
(0.0374883 -1.702e-16 0)
(0.0374883 1.52501e-16 0)
(0.0374883 2.83104e-17 0)
(0.0374883 -8.33277e-17 0)
(0.0374883 -3.29219e-17 0)
(0.0374883 -7.7367e-17 0)
(0.0374883 1.66143e-16 0)
(0.0374883 4.1433e-17 0)
(0.0374883 -9.20951e-17 0)
(0.0374883 -3.39432e-17 0)
(0.0374883 -8.18753e-17 0)
(0.0374883 1.65655e-16 0)
(0.0374883 -2.83382e-18 0)
(0.0374883 -5.58874e-17 0)
(0.0374883 1.65059e-17 0)
(0.0374883 -1.08921e-16 0)
(0.0374883 1.54529e-16 0)
(0.0374883 -1.1312e-17 0)
(0.0374883 -9.27911e-17 0)
(0.0374883 5.90009e-17 0)
(0.0374883 -7.54913e-17 0)
(0.0374883 9.53681e-17 0)
(0.0374883 -3.69057e-18 0)
(0.0374883 -3.2521e-17 0)
(0.0374883 2.66749e-17 0)
(0.0374883 -1.23152e-16 0)
(0.0374883 1.47206e-16 0)
(0.0374883 -1.39944e-17 0)
(0.0374883 -4.57914e-17 0)
(0.0374883 6.97754e-17 0)
(0.0374883 -1.32468e-16 0)
(0.0374883 1.46901e-17 0)
(0.0374883 4.63632e-17 0)
(0.0374883 4.5943e-17 0)
(0.0374883 1.30953e-17 0)
(0.0374883 -1.21492e-16 0)
(0.0374883 8.5092e-17 0)
(0.0374883 -3.88249e-18 0)
(0.0374883 -2.34991e-17 0)
(0.0374883 4.58673e-17 0)
(0.0374883 -1.13851e-16 0)
(0.0374883 1.01824e-16 0)
(0.0374883 -1.06125e-17 0)
(0.0374883 -1.59984e-17 0)
(0.0374883 7.23422e-17 0)
(0.0374883 -1.23701e-16 0)
(0.0374883 5.59882e-17 0)
(0.0374883 -3.75232e-18 0)
(0.0374883 3.66433e-18 0)
(0.0374883 5.80879e-17 0)
(0.0374883 -1.15216e-16 0)
(0.0374883 7.50696e-17 0)
(0.0374883 3.19171e-17 0)
(0.0374883 -4.55558e-17 0)
(0.0374883 1.51047e-17 0)
(0.0374883 -7.76288e-17 0)
(0.0374883 6.68148e-17 0)
(0.0374883 3.28144e-17 0)
(0.0374883 -7.39613e-17 0)
(0.0374883 5.68874e-17 0)
(0.0374883 -3.49939e-17 0)
(0.0374883 2.82428e-17 0)
(0.0374883 4.17789e-17 0)
(0.0374883 -8.6498e-17 0)
(0.0374883 6.44169e-17 0)
(0.0374883 -3.95734e-17 0)
(0.0374883 1.32248e-17 0)
(0.0374883 3.48171e-17 0)
(0.0374883 -8.30025e-17 0)
(0.0374883 6.13123e-17 0)
(0.0374883 -3.84627e-17 0)
(0.0374883 -3.08535e-17 0)
(0.0374883 9.7419e-17 0)
(0.0374883 -5.04441e-17 0)
(0.0374883 -1.29479e-17 0)
(0.0374883 -6.67549e-17 0)
(0.0374883 3.33328e-17 0)
(0.0374883 1.26946e-16 0)
(0.0374883 -4.70888e-18 0)
(0.0374883 -1.21007e-16 0)
(0.0374883 -2.52184e-17 0)
(0.0374883 6.2563e-17 0)
(0.0374883 1.11221e-17 0)
(0.0374883 7.57423e-17 0)
(0.0374883 -1.27997e-16 0)
(0.0374883 -1.91433e-17 0)
(0.0374883 6.03171e-17 0)
(0.0374883 3.25197e-18 0)
(0.0374883 5.07016e-17 0)
(0.0374883 -9.78067e-17 0)
(0.0374883 2.45288e-17 0)
(0.0374883 2.47145e-17 0)
(0.0374883 -4.99494e-17 0)
(0.0374883 9.22057e-17 0)
(0.0374883 -6.12816e-17 0)
(0.0374883 -3.21347e-18 0)
(0.0374883 2.25763e-17 0)
(0.0374883 -7.07272e-17 0)
(0.0374883 9.47669e-17 0)
(0.0374883 -3.60851e-17 0)
(0.0374883 -5.76534e-17 0)
(0.0374883 5.23677e-17 0)
(0.0374883 -2.39187e-17 0)
(0.0374883 5.12859e-17 0)
(0.0374883 -4.9279e-17 0)
(0.0374883 -6.85172e-17 0)
(0.11059 -1.56079e-17 0)
(0.11059 1.39595e-18 0)
(0.11059 2.52486e-17 0)
(0.11059 2.72404e-17 0)
(0.11059 3.73516e-17 0)
(0.11059 1.73871e-17 0)
(0.11059 4.22067e-18 0)
(0.11059 1.42784e-17 0)
(0.11059 7.48098e-18 0)
(0.11059 -9.83481e-18 0)
(0.11059 -1.89546e-17 0)
(0.11059 -2.52705e-17 0)
(0.11059 7.05554e-18 0)
(0.11059 1.44091e-17 0)
(0.11059 8.42463e-18 0)
(0.11059 4.31746e-17 0)
(0.11059 1.5562e-17 0)
(0.11059 4.35208e-18 0)
(0.11059 -1.6853e-17 0)
(0.11059 -6.59434e-18 0)
(0.11059 1.65123e-17 0)
(0.11059 2.28506e-17 0)
(0.11059 -1.68409e-18 0)
(0.11059 -1.83681e-17 0)
(0.11059 -3.49619e-17 0)
(0.11059 -1.0212e-17 0)
(0.11059 4.91604e-17 0)
(0.11059 9.96718e-18 0)
(0.11059 -1.63898e-17 0)
(0.11059 -8.71808e-18 0)
(0.11059 2.45407e-17 0)
(0.11059 5.42005e-17 0)
(0.11059 -5.44902e-18 0)
(0.11059 -3.31829e-17 0)
(0.11059 -2.6661e-17 0)
(0.11059 -7.30722e-18 0)
(0.11059 4.03815e-17 0)
(0.11059 -2.76598e-17 0)
(0.11059 -5.98098e-17 0)
(0.11059 4.47922e-17 0)
(0.11059 -5.71993e-18 0)
(0.11059 7.74293e-18 0)
(0.11059 9.68846e-18 0)
(0.11059 -3.39872e-17 0)
(0.11059 1.91044e-17 0)
(0.11059 -6.11698e-18 0)
(0.11059 2.06111e-17 0)
(0.11059 2.29e-17 0)
(0.11059 -5.08903e-19 0)
(0.11059 6.29924e-18 0)
(0.11059 -4.94091e-17 0)
(0.11059 2.50215e-17 0)
(0.11059 3.6427e-18 0)
(0.11059 1.22967e-17 0)
(0.11059 6.87093e-17 0)
(0.11059 -3.37252e-17 0)
(0.11059 -4.96581e-18 0)
(0.11059 -1.03913e-17 0)
(0.11059 2.91489e-18 0)
(0.11059 3.38277e-17 0)
(0.11059 -8.87716e-17 0)
(0.11059 3.01766e-17 0)
(0.11059 4.6809e-18 0)
(0.11059 -1.52309e-18 0)
(0.11059 5.13765e-17 0)
(0.11059 -5.08932e-17 0)
(0.11059 -7.01685e-18 0)
(0.11059 -5.57529e-18 0)
(0.11059 1.0682e-17 0)
(0.11059 6.03234e-17 0)
(0.11059 -1.6995e-17 0)
(0.11059 -1.85316e-17 0)
(0.11059 -3.56048e-17 0)
(0.11059 -2.17329e-17 0)
(0.11059 9.50584e-17 0)
(0.11059 -5.96286e-17 0)
(0.11059 -9.03867e-17 0)
(0.11059 3.43387e-17 0)
(0.11059 -3.27995e-18 0)
(0.11059 6.48518e-17 0)
(0.11059 -8.28914e-18 0)
(0.11059 -1.05758e-16 0)
(0.11059 -8.27586e-18 0)
(0.11059 2.62777e-17 0)
(0.11059 3.70144e-17 0)
(0.11059 -1.94564e-17 0)
(0.11059 -4.99816e-17 0)
(0.11059 -4.85329e-17 0)
(0.11059 2.1462e-17 0)
(0.11059 1.07973e-16 0)
(0.11059 -3.26629e-17 0)
(0.11059 -8.50198e-17 0)
(0.11059 1.11657e-18 0)
(0.11059 7.64766e-17 0)
(0.11059 1.06982e-17 0)
(0.11059 -1.03882e-16 0)
(0.11059 -1.75792e-17 0)
(0.11059 -2.03413e-17 0)
(0.11059 6.80618e-17 0)
(0.11059 4.66728e-17 0)
(0.11059 -9.80469e-17 0)
(0.11059 2.24971e-17 0)
(0.11059 -6.13686e-17 0)
(0.11059 4.9816e-18 0)
(0.11059 5.51547e-17 0)
(0.11059 6.44345e-18 0)
(0.11059 -8.38504e-17 0)
(0.11059 -2.71806e-17 0)
(0.11059 8.12829e-17 0)
(0.11059 4.26829e-17 0)
(0.11059 5.46512e-17 0)
(0.11059 -1.78744e-16 0)
(0.11059 3.24517e-17 0)
(0.11059 1.5877e-16 0)
(0.11059 3.57501e-17 0)
(0.11059 -7.57257e-18 0)
(0.11059 -1.24986e-16 0)
(0.11059 -3.81955e-17 0)
(0.11059 1.32349e-16 0)
(0.11059 6.88452e-17 0)
(0.11059 -5.31862e-17 0)
(0.11059 -1.40805e-16 0)
(0.11059 -5.01226e-17 0)
(0.11059 1.61116e-16 0)
(0.11059 1.04174e-16 0)
(0.11059 -5.60596e-17 0)
(0.11059 -1.64735e-16 0)
(0.11059 1.55493e-18 0)
(0.11059 1.70606e-16 0)
(0.11059 2.76593e-17 0)
(0.11059 -5.30675e-17 0)
(0.11059 -1.03377e-16 0)
(0.11059 7.82746e-18 0)
(0.11059 1.1659e-16 0)
(0.11059 1.99887e-17 0)
(0.11059 4.51404e-17 0)
(0.11059 -8.65236e-17 0)
(0.11059 -2.86156e-17 0)
(0.11059 1.39224e-16 0)
(0.11059 4.04602e-17 0)
(0.11059 -2.24172e-17 0)
(0.11059 -1.09782e-16 0)
(0.11059 -1.13155e-17 0)
(0.11059 7.81653e-17 0)
(0.11059 1.0105e-17 0)
(0.11059 -1.01013e-17 0)
(0.11059 -1.0506e-16 0)
(0.11059 1.26621e-17 0)
(0.11059 2.08253e-17 0)
(0.11059 3.47022e-17 0)
(0.11059 8.80279e-17 0)
(0.11059 -1.58663e-16 0)
(0.11059 -1.01708e-16 0)
(0.11059 7.91494e-17 0)
(0.11059 7.15373e-17 0)
(0.11059 4.61862e-17 0)
(0.11059 -8.0552e-17 0)
(0.11059 -9.8064e-17 0)
(0.11059 2.26048e-17 0)
(0.11059 4.54793e-17 0)
(0.11059 1.22988e-16 0)
(0.11059 -1.16226e-16 0)
(0.11059 -2.66789e-17 0)
(0.11059 1.15328e-16 0)
(0.11059 -1.52358e-16 0)
(0.11059 3.56343e-17 0)
(0.11059 -2.418e-17 0)
(0.11059 -1.33617e-16 0)
(0.11059 1.24716e-16 0)
(0.11059 5.39058e-17 0)
(0.11059 -2.41372e-17 0)
(0.11059 -1.39672e-16 0)
(0.11059 -5.08799e-19 0)
(0.11059 7.35366e-17 0)
(0.11059 -2.37231e-17 0)
(0.11059 -2.01088e-17 0)
(0.11059 -5.40951e-17 0)
(0.11059 1.70488e-16 0)
(0.11059 -7.56763e-17 0)
(0.11059 -4.51542e-17 0)
(0.11059 1.67485e-16 0)
(0.11059 -1.78944e-16 0)
(0.11059 -1.81714e-17 0)
(0.11059 8.79963e-17 0)
(0.11059 -5.78617e-18 0)
(0.11059 1.71346e-16 0)
(0.11059 -1.04263e-16 0)
(0.11059 -9.82387e-18 0)
(0.11059 1.44023e-16 0)
(0.11059 -1.13659e-16 0)
(0.11059 4.20105e-17 0)
(0.11059 -2.18297e-17 0)
(0.11059 -9.49119e-17 0)
(0.11059 1.43241e-16 0)
(0.11059 -9.90953e-19 0)
(0.11059 2.89961e-17 0)
(0.11059 -7.53295e-17 0)
(0.11059 -4.68647e-17 0)
(0.11059 1.87345e-16 0)
(0.11059 -9.65675e-17 0)
(0.11059 6.00866e-18 0)
(0.11059 -8.90305e-17 0)
(0.11059 2.46277e-17 0)
(0.11059 2.28113e-16 0)
(0.11059 -5.02063e-17 0)
(0.11059 -1.39555e-16 0)
(0.11059 -1.15583e-16 0)
(0.11059 1.1215e-16 0)
(0.11059 1.24005e-16 0)
(0.11059 -5.11875e-17 0)
(0.11059 -9.38333e-17 0)
(0.11059 -1.25807e-16 0)
(0.11059 3.04248e-16 0)
(0.11059 3.20116e-17 0)
(0.11059 -3.02444e-16 0)
(0.11059 2.11007e-16 0)
(0.11059 -1.58672e-17 0)
(0.11059 -1.05325e-16 0)
(0.11059 -5.92795e-17 0)
(0.11059 -1.77012e-16 0)
(0.11059 3.14159e-16 0)
(0.11059 9.09103e-17 0)
(0.11059 -1.22968e-16 0)
(0.11059 -7.19053e-17 0)
(0.11059 -2.04928e-16 0)
(0.11059 3.03108e-16 0)
(0.11059 2.93536e-17 0)
(0.11059 -9.01929e-17 0)
(0.11059 8.06103e-17 0)
(0.11059 -1.57865e-16 0)
(0.11059 9.18098e-17 0)
(0.11059 -9.29471e-17 0)
(0.11059 2.27847e-19 0)
(0.11059 9.29966e-17 0)
(0.11059 -2.36523e-16 0)
(0.11059 5.74235e-17 0)
(0.11059 3.38262e-17 0)
(0.11059 2.70155e-17 0)
(0.11059 1.09807e-16 0)
(0.11059 -2.04839e-16 0)
(0.11059 8.90048e-17 0)
(0.11059 -5.56029e-17 0)
(0.11059 8.94262e-18 0)
(0.11059 1.22401e-16 0)
(0.11059 -3.34017e-16 0)
(0.11059 2.23958e-17 0)
(0.11059 8.18856e-17 0)
(0.11059 9.21165e-17 0)
(0.11059 3.87272e-17 0)
(0.11059 -2.38944e-16 0)
(0.11059 2.31526e-16 0)
(0.11059 2.58668e-17 0)
(0.11059 -1.30383e-16 0)
(0.11059 -1.19486e-17 0)
(0.11059 -1.86677e-16 0)
(0.11059 3.06804e-16 0)
(0.11059 2.08826e-17 0)
(0.11059 -3.89577e-17 0)
(0.11059 1.26248e-16 0)
(0.11059 -2.56425e-16 0)
(0.11059 9.39085e-17 0)
(0.11059 5.62999e-17 0)
(0.11059 -1.48163e-17 0)
(0.11059 3.41042e-17 0)
(0.11059 -1.46968e-16 0)
(0.11059 1.88816e-16 0)
(0.11059 4.70001e-17 0)
(0.11059 -1.53323e-17 0)
(0.11059 -2.24386e-17 0)
(0.11059 -1.98672e-16 0)
(0.11059 1.21228e-16 0)
(0.11059 4.11653e-18 0)
(0.11059 9.33734e-17 0)
(0.11059 8.21781e-18 0)
(0.11059 -1.8626e-16 0)
(0.11059 1.58123e-16 0)
(0.11059 2.57096e-17 0)
(0.11059 -3.07831e-17 0)
(0.11059 1.21541e-16 0)
(0.11059 -1.60224e-16 0)
(0.11059 3.94956e-17 0)
(0.11059 4.51281e-17 0)
(0.11059 -4.1975e-18 0)
(0.11059 -7.65529e-18 0)
(0.11059 -2.28175e-16 0)
(0.11059 3.03169e-17 0)
(0.11059 1.23466e-16 0)
(0.11059 4.85089e-17 0)
(0.11059 -1.81642e-16 0)
(0.11059 -1.57431e-16 0)
(0.11059 2.15099e-16 0)
(0.11059 -1.01335e-17 0)
(0.11059 -4.53222e-17 0)
(0.11059 -3.84408e-17 0)
(0.11059 -5.69706e-17 0)
(0.11059 2.23069e-16 0)
(0.11059 -2.55837e-17 0)
(0.11059 -4.65732e-17 0)
(0.11059 -9.10055e-17 0)
(0.11059 -7.16706e-17 0)
(0.11059 2.37659e-16 0)
(0.11059 1.64327e-19 0)
(0.11059 5.96205e-17 0)
(0.11059 -1.26862e-16 0)
(0.11059 -2.52842e-16 0)
(0.11059 8.56175e-17 0)
(0.11059 8.03241e-17 0)
(0.11059 1.3711e-16 0)
(0.11059 -1.28684e-16 0)
(0.11059 -8.52471e-18 0)
(0.11059 9.01614e-17 0)
(0.11059 -1.35605e-16 0)
(0.11059 1.32693e-16 0)
(0.11059 -7.75756e-18 0)
(0.11059 -7.95835e-17 0)
(0.11059 1.28422e-16 0)
(0.11059 -8.83199e-17 0)
(0.11059 1.22306e-16 0)
(0.11059 7.08778e-17 0)
(0.11059 -9.74902e-17 0)
(0.181818 -1.68832e-17 0)
(0.181818 2.4572e-17 0)
(0.181818 2.80992e-17 0)
(0.181818 6.16894e-17 0)
(0.181818 6.26972e-17 0)
(0.181818 5.14547e-17 0)
(0.181818 8.95609e-18 0)
(0.181818 2.06229e-17 0)
(0.181818 1.69765e-17 0)
(0.181818 -2.86589e-17 0)
(0.181818 -5.70175e-17 0)
(0.181818 -4.49978e-17 0)
(0.181818 2.46896e-17 0)
(0.181818 2.38602e-17 0)
(0.181818 2.21013e-17 0)
(0.181818 9.87864e-17 0)
(0.181818 4.60739e-17 0)
(0.181818 2.75471e-19 0)
(0.181818 1.81345e-18 0)
(0.181818 9.12872e-19 0)
(0.181818 2.86364e-17 0)
(0.181818 2.67797e-17 0)
(0.181818 8.55049e-18 0)
(0.181818 -1.50162e-17 0)
(0.181818 -4.47063e-17 0)
(0.181818 -1.91765e-17 0)
(0.181818 4.93709e-17 0)
(0.181818 4.26619e-17 0)
(0.181818 1.00997e-17 0)
(0.181818 -1.40278e-17 0)
(0.181818 3.77572e-17 0)
(0.181818 1.03655e-16 0)
(0.181818 2.91424e-18 0)
(0.181818 -7.56047e-17 0)
(0.181818 -6.13007e-17 0)
(0.181818 -2.79361e-17 0)
(0.181818 5.22219e-17 0)
(0.181818 -1.86461e-17 0)
(0.181818 -9.99267e-17 0)
(0.181818 2.93179e-17 0)
(0.181818 1.90887e-17 0)
(0.181818 7.37301e-18 0)
(0.181818 2.29694e-17 0)
(0.181818 -6.22733e-17 0)
(0.181818 -2.35921e-17 0)
(0.181818 1.9384e-17 0)
(0.181818 3.09433e-17 0)
(0.181818 5.46963e-17 0)
(0.181818 1.6235e-17 0)
(0.181818 4.78814e-18 0)
(0.181818 -2.90011e-17 0)
(0.181818 1.01221e-17 0)
(0.181818 9.54198e-18 0)
(0.181818 2.67226e-17 0)
(0.181818 1.0925e-16 0)
(0.181818 -1.35345e-17 0)
(0.181818 -1.72124e-17 0)
(0.181818 -2.0779e-17 0)
(0.181818 -5.41324e-19 0)
(0.181818 3.39064e-17 0)
(0.181818 -1.60358e-16 0)
(0.181818 7.10536e-17 0)
(0.181818 2.54013e-17 0)
(0.181818 -2.37248e-17 0)
(0.181818 1.08971e-16 0)
(0.181818 -8.62984e-17 0)
(0.181818 -2.02925e-17 0)
(0.181818 -8.73246e-18 0)
(0.181818 2.33245e-17 0)
(0.181818 9.59408e-17 0)
(0.181818 -3.34231e-17 0)
(0.181818 -3.77239e-17 0)
(0.181818 -7.21068e-17 0)
(0.181818 9.17644e-18 0)
(0.181818 1.11948e-16 0)
(0.181818 -1.02689e-16 0)
(0.181818 -1.30662e-16 0)
(0.181818 2.57523e-17 0)
(0.181818 -2.06176e-17 0)
(0.181818 7.00853e-17 0)
(0.181818 -4.45231e-17 0)
(0.181818 -1.42567e-16 0)
(0.181818 2.52073e-18 0)
(0.181818 -6.82266e-18 0)
(0.181818 3.10449e-17 0)
(0.181818 -3.18549e-17 0)
(0.181818 -1.23027e-17 0)
(0.181818 -8.02678e-17 0)
(0.181818 -6.25206e-17 0)
(0.181818 1.70805e-16 0)
(0.181818 -3.4578e-17 0)
(0.181818 -1.05563e-16 0)
(0.181818 1.98595e-17 0)
(0.181818 6.68813e-17 0)
(0.181818 1.40572e-17 0)
(0.181818 -1.06655e-16 0)
(0.181818 -4.93423e-17 0)
(0.181818 -5.48972e-17 0)
(0.181818 3.20351e-17 0)
(0.181818 4.77739e-17 0)
(0.181818 -4.94141e-17 0)
(0.181818 -2.05451e-18 0)
(0.181818 -8.79767e-17 0)
(0.181818 -2.96256e-17 0)
(0.181818 6.93759e-17 0)
(0.181818 6.48358e-17 0)
(0.181818 -1.44692e-16 0)
(0.181818 -1.07642e-16 0)
(0.181818 1.30782e-16 0)
(0.181818 1.70075e-16 0)
(0.181818 6.05588e-17 0)
(0.181818 -2.77892e-16 0)
(0.181818 2.03422e-17 0)
(0.181818 2.57773e-16 0)
(0.181818 1.36225e-16 0)
(0.181818 2.11593e-17 0)
(0.181818 -2.58631e-16 0)
(0.181818 -1.2689e-16 0)
(0.181818 2.83946e-16 0)
(0.181818 1.99424e-16 0)
(0.181818 -1.59275e-16 0)
(0.181818 -2.96795e-16 0)
(0.181818 -8.18826e-17 0)
(0.181818 3.09881e-16 0)
(0.181818 2.82179e-16 0)
(0.181818 -9.3098e-17 0)
(0.181818 -3.91506e-16 0)
(0.181818 1.88383e-17 0)
(0.181818 3.27957e-16 0)
(0.181818 8.07108e-17 0)
(0.181818 -6.82973e-17 0)
(0.181818 -2.31898e-16 0)
(0.181818 -1.02679e-17 0)
(0.181818 2.5596e-16 0)
(0.181818 8.04758e-17 0)
(0.181818 7.20869e-18 0)
(0.181818 -1.34632e-16 0)
(0.181818 2.28409e-19 0)
(0.181818 2.7855e-16 0)
(0.181818 7.14355e-17 0)
(0.181818 -1.149e-16 0)
(0.181818 -1.58759e-16 0)
(0.181818 4.62197e-17 0)
(0.181818 1.01152e-16 0)
(0.181818 -5.63804e-17 0)
(0.181818 -5.02807e-17 0)
(0.181818 -1.05684e-16 0)
(0.181818 5.7776e-17 0)
(0.181818 3.23274e-17 0)
(0.181818 -6.26429e-17 0)
(0.181818 1.12452e-16 0)
(0.181818 -1.13088e-16 0)
(0.181818 -1.57418e-16 0)
(0.181818 4.26055e-17 0)
(0.181818 1.04217e-16 0)
(0.181818 1.02143e-16 0)
(0.181818 -1.20394e-16 0)
(0.181818 -2.02956e-16 0)
(0.181818 -6.39766e-18 0)
(0.181818 1.24106e-16 0)
(0.181818 1.84212e-16 0)
(0.181818 -1.83673e-16 0)
(0.181818 -1.00445e-16 0)
(0.181818 1.66694e-16 0)
(0.181818 -1.02919e-16 0)
(0.181818 -3.23209e-17 0)
(0.181818 -5.71446e-17 0)
(0.181818 -8.72948e-17 0)
(0.181818 5.83569e-17 0)
(0.181818 2.29387e-17 0)
(0.181818 -7.2256e-17 0)
(0.181818 -2.04295e-16 0)
(0.181818 -9.74494e-18 0)
(0.181818 1.57009e-16 0)
(0.181818 9.54247e-17 0)
(0.181818 -8.71514e-17 0)
(0.181818 -1.54951e-16 0)
(0.181818 6.66026e-17 0)
(0.181818 -2.99626e-17 0)
(0.181818 1.61596e-16 0)
(0.181818 1.27589e-16 0)
(0.181818 -3.35791e-16 0)
(0.181818 -2.87391e-17 0)
(0.181818 2.32966e-16 0)
(0.181818 1.17726e-16 0)
(0.181818 1.84994e-16 0)
(0.181818 -1.47302e-16 0)
(0.181818 -4.58975e-17 0)
(0.181818 2.19657e-16 0)
(0.181818 -2.385e-17 0)
(0.181818 -2.1591e-17 0)
(0.181818 -4.69312e-17 0)
(0.181818 -9.26529e-17 0)
(0.181818 9.90773e-17 0)
(0.181818 9.23139e-17 0)
(0.181818 5.00892e-17 0)
(0.181818 -7.18637e-17 0)
(0.181818 -8.14689e-17 0)
(0.181818 9.34669e-17 0)
(0.181818 8.26983e-18 0)
(0.181818 2.01993e-17 0)
(0.181818 -6.24676e-17 0)
(0.181818 4.28674e-17 0)
(0.181818 1.58907e-16 0)
(0.181818 9.42103e-18 0)
(0.181818 -8.77253e-17 0)
(0.181818 -1.47543e-16 0)
(0.181818 2.65929e-17 0)
(0.181818 5.72478e-17 0)
(0.181818 -9.15654e-18 0)
(0.181818 -1.74137e-17 0)
(0.181818 -1.73664e-16 0)
(0.181818 4.06951e-16 0)
(0.181818 7.06219e-17 0)
(0.181818 -3.74107e-16 0)
(0.181818 1.85925e-16 0)
(0.181818 -1.68271e-16 0)
(0.181818 -4.79205e-17 0)
(0.181818 -6.35943e-17 0)
(0.181818 -3.22789e-16 0)
(0.181818 4.68972e-16 0)
(0.181818 1.08337e-16 0)
(0.181818 -8.32377e-17 0)
(0.181818 -7.66643e-17 0)
(0.181818 -3.71157e-16 0)
(0.181818 4.34507e-16 0)
(0.181818 8.35754e-17 0)
(0.181818 -1.0914e-16 0)
(0.181818 1.91865e-17 0)
(0.181818 -3.11237e-16 0)
(0.181818 2.83327e-16 0)
(0.181818 -6.83104e-17 0)
(0.181818 -1.58961e-16 0)
(0.181818 9.43168e-17 0)
(0.181818 -3.50389e-16 0)
(0.181818 5.29766e-17 0)
(0.181818 -7.31184e-17 0)
(0.181818 1.81554e-16 0)
(0.181818 2.82915e-16 0)
(0.181818 -4.27099e-16 0)
(0.181818 8.34614e-17 0)
(0.181818 -1.41428e-16 0)
(0.181818 6.12801e-17 0)
(0.181818 2.01789e-16 0)
(0.181818 -6.40452e-16 0)
(0.181818 3.56729e-17 0)
(0.181818 1.10485e-16 0)
(0.181818 1.53733e-16 0)
(0.181818 6.5137e-17 0)
(0.181818 -3.76339e-16 0)
(0.181818 5.36943e-16 0)
(0.181818 5.14564e-17 0)
(0.181818 -3.54566e-16 0)
(0.181818 -2.04812e-16 0)
(0.181818 -2.36242e-16 0)
(0.181818 7.19076e-16 0)
(0.181818 3.44207e-17 0)
(0.181818 -1.40667e-16 0)
(0.181818 1.70884e-16 0)
(0.181818 -3.6618e-16 0)
(0.181818 2.111e-16 0)
(0.181818 4.76981e-17 0)
(0.181818 2.31383e-17 0)
(0.181818 2.47243e-17 0)
(0.181818 -2.71833e-16 0)
(0.181818 4.19213e-16 0)
(0.181818 3.42974e-17 0)
(0.181818 -6.39964e-17 0)
(0.181818 4.12653e-17 0)
(0.181818 -3.78498e-16 0)
(0.181818 1.93222e-16 0)
(0.181818 2.02898e-17 0)
(0.181818 8.35887e-17 0)
(0.181818 1.18466e-16 0)
(0.181818 -3.24918e-16 0)
(0.181818 2.71242e-16 0)
(0.181818 5.62683e-17 0)
(0.181818 3.58016e-17 0)
(0.181818 1.69715e-16 0)
(0.181818 -3.84885e-16 0)
(0.181818 1.24432e-16 0)
(0.181818 3.91505e-19 0)
(0.181818 -1.69004e-17 0)
(0.181818 7.63081e-17 0)
(0.181818 -4.38188e-16 0)
(0.181818 9.56747e-17 0)
(0.181818 1.66379e-16 0)
(0.181818 -1.39804e-16 0)
(0.181818 -1.83043e-16 0)
(0.181818 -2.66185e-16 0)
(0.181818 2.57627e-16 0)
(0.181818 1.34593e-16 0)
(0.181818 -1.59719e-16 0)
(0.181818 5.08429e-17 0)
(0.181818 -1.10452e-16 0)
(0.181818 1.07354e-16 0)
(0.181818 2.35123e-16 0)
(0.181818 -1.20027e-16 0)
(0.181818 -1.01695e-16 0)
(0.181818 -2.03039e-16 0)
(0.181818 1.87765e-16 0)
(0.181818 3.46861e-16 0)
(0.181818 1.80955e-17 0)
(0.181818 -4.14705e-16 0)
(0.181818 -2.44062e-16 0)
(0.181818 2.04161e-16 0)
(0.181818 8.60674e-17 0)
(0.181818 1.27382e-16 0)
(0.181818 -2.38828e-16 0)
(0.181818 1.50624e-17 0)
(0.181818 1.68104e-16 0)
(0.181818 -1.7092e-16 0)
(0.181818 1.51251e-16 0)
(0.181818 3.67477e-17 0)
(0.181818 -6.10398e-17 0)
(0.181818 7.12251e-17 0)
(0.181818 -9.05007e-17 0)
(0.181818 3.26269e-16 0)
(0.181818 7.70074e-17 0)
(0.181818 -9.75443e-17 0)
(0.251172 1.11192e-16 0)
(0.251172 6.2348e-17 0)
(0.251172 6.12107e-17 0)
(0.251172 9.16864e-17 0)
(0.251172 9.46059e-17 0)
(0.251172 8.06087e-17 0)
(0.251172 2.51486e-17 0)
(0.251172 2.57613e-17 0)
(0.251172 2.04771e-17 0)
(0.251172 -3.32187e-17 0)
(0.251172 -6.98463e-17 0)
(0.251172 -4.64344e-17 0)
(0.251172 2.89024e-17 0)
(0.251172 4.73449e-17 0)
(0.251172 3.12241e-17 0)
(0.251172 1.2975e-16 0)
(0.251172 8.42847e-17 0)
(0.251172 8.59631e-18 0)
(0.251172 4.07928e-17 0)
(0.251172 2.20141e-17 0)
(0.251172 6.43094e-17 0)
(0.251172 6.37097e-17 0)
(0.251172 2.17329e-17 0)
(0.251172 -4.4105e-17 0)
(0.251172 -7.38639e-17 0)
(0.251172 -1.48132e-17 0)
(0.251172 8.51929e-17 0)
(0.251172 8.02345e-17 0)
(0.251172 3.60734e-17 0)
(0.251172 -7.19866e-18 0)
(0.251172 4.02073e-17 0)
(0.251172 1.21674e-16 0)
(0.251172 2.09616e-17 0)
(0.251172 -9.25669e-17 0)
(0.251172 -9.63274e-17 0)
(0.251172 -6.12913e-17 0)
(0.251172 5.01772e-17 0)
(0.251172 3.50577e-18 0)
(0.251172 -1.28235e-16 0)
(0.251172 8.72688e-18 0)
(0.251172 3.17426e-17 0)
(0.251172 4.43374e-18 0)
(0.251172 -3.1756e-18 0)
(0.251172 -7.66057e-17 0)
(0.251172 -1.42367e-17 0)
(0.251172 -1.02738e-18 0)
(0.251172 4.58572e-17 0)
(0.251172 8.24652e-17 0)
(0.251172 3.13466e-17 0)
(0.251172 -5.84397e-18 0)
(0.251172 -1.394e-17 0)
(0.251172 3.65601e-17 0)
(0.251172 6.94254e-17 0)
(0.251172 3.70147e-17 0)
(0.251172 1.28613e-16 0)
(0.251172 -1.85841e-17 0)
(0.251172 -2.82379e-17 0)
(0.251172 -2.75427e-17 0)
(0.251172 -2.08613e-17 0)
(0.251172 3.4927e-17 0)
(0.251172 -2.00406e-16 0)
(0.251172 5.82647e-17 0)
(0.251172 6.53856e-17 0)
(0.251172 -1.29367e-17 0)
(0.251172 1.02168e-16 0)
(0.251172 -9.98231e-17 0)
(0.251172 1.66834e-17 0)
(0.251172 -2.21267e-17 0)
(0.251172 9.37981e-18 0)
(0.251172 1.4969e-16 0)
(0.251172 -7.2063e-17 0)
(0.251172 -8.0325e-17 0)
(0.251172 -1.10305e-16 0)
(0.251172 -9.41717e-18 0)
(0.251172 1.34064e-16 0)
(0.251172 -1.29226e-16 0)
(0.251172 -1.51585e-16 0)
(0.251172 -8.14938e-18 0)
(0.251172 -5.67232e-17 0)
(0.251172 8.51877e-17 0)
(0.251172 -7.28693e-17 0)
(0.251172 -2.28265e-16 0)
(0.251172 -3.2289e-17 0)
(0.251172 1.28294e-17 0)
(0.251172 3.60916e-17 0)
(0.251172 -8.10796e-17 0)
(0.251172 -3.38239e-17 0)
(0.251172 -4.22433e-17 0)
(0.251172 -8.81275e-17 0)
(0.251172 1.64025e-16 0)
(0.251172 -9.2459e-18 0)
(0.251172 -1.27054e-16 0)
(0.251172 -1.47366e-17 0)
(0.251172 7.49609e-17 0)
(0.251172 2.65541e-17 0)
(0.251172 -1.79645e-16 0)
(0.251172 -9.68929e-17 0)
(0.251172 -5.47627e-17 0)
(0.251172 2.30955e-17 0)
(0.251172 6.23597e-17 0)
(0.251172 -5.4092e-17 0)
(0.251172 -2.43998e-17 0)
(0.251172 -1.49907e-16 0)
(0.251172 -4.55002e-17 0)
(0.251172 1.50955e-16 0)
(0.251172 8.7887e-17 0)
(0.251172 -2.26234e-16 0)
(0.251172 -1.95023e-16 0)
(0.251172 1.96127e-16 0)
(0.251172 2.80411e-16 0)
(0.251172 8.90508e-17 0)
(0.251172 -3.38211e-16 0)
(0.251172 1.64993e-17 0)
(0.251172 3.51199e-16 0)
(0.251172 2.48594e-16 0)
(0.251172 5.10401e-17 0)
(0.251172 -4.08124e-16 0)
(0.251172 -1.95744e-16 0)
(0.251172 3.94703e-16 0)
(0.251172 3.06467e-16 0)
(0.251172 -2.21733e-16 0)
(0.251172 -4.45204e-16 0)
(0.251172 -6.30826e-17 0)
(0.251172 4.22833e-16 0)
(0.251172 3.40977e-16 0)
(0.251172 -7.80153e-17 0)
(0.251172 -4.48394e-16 0)
(0.251172 -1.65414e-17 0)
(0.251172 4.58791e-16 0)
(0.251172 9.56413e-17 0)
(0.251172 -1.4938e-16 0)
(0.251172 -2.10363e-16 0)
(0.251172 -5.62219e-17 0)
(0.251172 3.10587e-16 0)
(0.251172 1.84384e-16 0)
(0.251172 2.1069e-17 0)
(0.251172 -1.92283e-16 0)
(0.251172 -2.45053e-17 0)
(0.251172 4.32037e-16 0)
(0.251172 1.49257e-16 0)
(0.251172 -1.77347e-16 0)
(0.251172 -2.6587e-16 0)
(0.251172 8.49163e-17 0)
(0.251172 1.23699e-16 0)
(0.251172 -4.51977e-17 0)
(0.251172 -1.24746e-17 0)
(0.251172 -2.74792e-16 0)
(0.251172 4.34963e-17 0)
(0.251172 9.1606e-17 0)
(0.251172 -3.50197e-17 0)
(0.251172 7.72217e-17 0)
(0.251172 -2.34903e-16 0)
(0.251172 -1.15972e-16 0)
(0.251172 9.49523e-17 0)
(0.251172 1.46845e-16 0)
(0.251172 9.029e-17 0)
(0.251172 -2.17147e-16 0)
(0.251172 -2.59638e-16 0)
(0.251172 4.35887e-17 0)
(0.251172 1.80479e-16 0)
(0.251172 1.93919e-16 0)
(0.251172 -2.8606e-16 0)
(0.251172 -9.0915e-17 0)
(0.251172 2.28336e-16 0)
(0.251172 -1.86073e-16 0)
(0.251172 -7.77206e-17 0)
(0.251172 -1.0003e-16 0)
(0.251172 -1.01577e-16 0)
(0.251172 6.61408e-17 0)
(0.251172 2.45969e-17 0)
(0.251172 -1.19103e-16 0)
(0.251172 -3.55054e-16 0)
(0.251172 -5.41806e-17 0)
(0.251172 3.22524e-16 0)
(0.251172 1.00841e-16 0)
(0.251172 -1.21613e-16 0)
(0.251172 -1.80754e-16 0)
(0.251172 -3.62461e-18 0)
(0.251172 -9.4918e-19 0)
(0.251172 2.084e-16 0)
(0.251172 1.78091e-16 0)
(0.251172 -3.80913e-16 0)
(0.251172 9.87268e-18 0)
(0.251172 3.39214e-16 0)
(0.251172 1.64712e-16 0)