/*--------------------------------*- C++ -*----------------------------------*\
| =========                 |                                                 |
| \\      /  F ield         | OpenFOAM: The Open Source CFD Toolbox           |
|  \\    /   O peration     | Version:  2112                                  |
|   \\  /    A nd           | Website:  www.openfoam.com                      |
|    \\/     M anipulation  |                                                 |
\*---------------------------------------------------------------------------*/
FoamFile
{
    version     2.0;
    format      ascii;
    arch        "LSB;label=32;scalar=64";
    class       volScalarField;
    location    "0.9";
    object      p;
}
// * * * * * * * * * * * * * * * * * * * * * * * * * * * * * * * * * * * * * //

dimensions      [0 2 -2 0 0 0 0];

internalField   nonuniform List<scalar> 
16641
(
-6.3809e-09
-1.0275e-06
-5.84745e-06
-1.36784e-05
-2.34465e-05
-3.43403e-05
-4.56991e-05
-5.70171e-05
-6.79272e-05
-7.81739e-05
-8.75924e-05
-9.60888e-05
-0.00010362
-0.000110177
-0.000115776
-0.000120447
-0.00012423
-0.000127169
-0.000129304
-0.00013067
-0.000131295
-0.000131199
-0.000130394
-0.000128882
-0.000126657
-0.000123704
-0.00012
-0.000115514
-0.000110211
-0.000104049
-9.69797e-05
-8.89543e-05
-7.99196e-05
-6.98209e-05
-5.8603e-05
-4.62102e-05
-3.25876e-05
-1.76814e-05
-1.43914e-06
1.61897e-05
3.52521e-05
5.57903e-05
7.78412e-05
0.000101436
0.000126602
0.000153357
0.000181713
0.000211673
0.000243232
0.000276373
0.000311071
0.000347288
0.000384975
0.00042407
0.0004645
0.000506174
0.000548989
0.000592826
0.000637551
0.000683018
0.000729064
0.000775513
0.000822175
0.000868849
0.000915319
0.00096136
0.00100674
0.00105121
0.00109453
0.00113644
0.00117668
0.00121501
0.00125116
0.0012849
0.00131598
0.00134419
0.0013693
0.00139114
0.00140952
0.00142431
0.00143538
0.00144263
0.00144601
0.00144547
0.00144101
0.00143266
0.00142048
0.00140455
0.00138499
0.00136197
0.00133565
0.00130623
0.00127394
0.00123903
0.00120176
0.0011624
0.00112124
0.00107858
0.00103471
0.000989931
0.000944543
0.00089884
0.000853108
0.000807628
0.000762669
0.000718485
0.00067532
0.000633402
0.000592946
0.000554153
0.000517211
0.000482293
0.000449561
0.000419164
0.00039124
0.000365916
0.000343308
0.000323523
0.000306656
0.000292785
0.000281966
0.000274222
0.000269528
0.000267777
0.000268742
0.000271984
0.00027674
0.000281914
0.00028563
6.1496e-07
-3.98058e-07
-4.48335e-06
-1.09204e-05
-1.89613e-05
-2.79967e-05
-3.75318e-05
-4.71536e-05
-5.65454e-05
-6.54715e-05
-7.37668e-05
-8.13248e-05
-8.80848e-05
-9.40198e-05
-9.91239e-05
-0.000103407
-0.000106888
-0.000109594
-0.00011155
-0.000112778
-0.000113297
-0.000113118
-0.000112246
-0.000110679
-0.000108408
-0.000105417
-0.000101683
-9.71753e-05
-9.18594e-05
-8.56954e-05
-7.86397e-05
-7.06452e-05
-6.16619e-05
-5.16388e-05
-4.05241e-05
-2.82658e-05
-1.48127e-05
-1.14434e-07
1.58781e-05
3.32124e-05
5.19321e-05
7.20763e-05
9.36791e-05
0.00011677
0.000141371
0.000167502
0.000195171
0.000224381
0.000255124
0.000287383
0.000321133
0.000356336
0.000392944
0.000430895
0.000470116
0.00051052
0.000552006
0.000594457
0.000637744
0.000681722
0.000726237
0.000771117
0.000816178
0.000861225
0.000906051
0.000950439
0.000994163
0.00103699
0.00107868
0.00111899
0.00115768
0.00119449
0.0012292
0.00126156
0.00129136
0.00131836
0.00134239
0.00136325
0.00138078
0.00139484
0.00140532
0.00141214
0.00141522
0.00141454
0.0014101
0.00140192
0.00139007
0.00137461
0.00135569
0.00133343
0.00130801
0.00127963
0.0012485
0.00121486
0.00117895
0.00114105
0.00110143
0.00106037
0.00101815
0.000975069
0.000931405
0.000887442
0.000843458
0.000799719
0.000756486
0.000714003
0.000672504
0.000632208
0.000593322
0.000556037
0.000520535
0.000486979
0.000455522
0.000426303
0.000399448
0.00037507
0.000353271
0.000334137
0.00031774
0.000304131
0.000293334
0.000285337
0.000280074
0.000277413
0.000277117
0.000278796
0.000281857
0.000285624
0.000289342
4.94274e-06
3.24881e-06
-8.21879e-07
-6.73688e-06
-1.39446e-05
-2.19817e-05
-3.04465e-05
-3.90031e-05
-4.73846e-05
-5.53875e-05
-6.28625e-05
-6.97062e-05
-7.58552e-05
-8.12752e-05
-8.59521e-05
-8.98867e-05
-9.30883e-05
-9.55711e-05
-9.73516e-05
-9.84441e-05
-9.88597e-05
-9.86045e-05
-9.76789e-05
-9.60764e-05
-9.37851e-05
-9.07876e-05
-8.706e-05
-8.25728e-05
-7.7291e-05
-7.11755e-05
-6.41841e-05
-5.62717e-05
-4.73907e-05
-3.74918e-05
-2.65252e-05
-1.44413e-05
-1.19099e-06
1.32741e-05
2.90013e-05
4.60354e-05
6.44179e-05
8.41861e-05
0.000105373
0.000128006
0.000152108
0.000177695
0.000204777
0.000233356
0.000263423
0.000294962
0.000327948
0.000362344
0.000398102
0.000435163
0.000473454
0.00051289
0.000553372
0.000594787
0.000637008
0.000679897
0.000723299
0.000767049
0.000810967
0.000854862
0.000898532
0.000941766
0.000984344
0.00102604
0.00106662
0.00110584
0.00114347
0.00117927
0.00121301
0.00124445
0.00127338
0.00129959
0.00132289
0.0013431
0.00136006
0.00137364
0.00138373
0.00139024
0.00139312
0.00139233
0.00138787
0.00137978
0.00136811
0.00135294
0.00133439
0.0013126
0.00128775
0.00126001
0.00122961
0.00119677
0.00116174
0.00112478
0.00108615
0.00104614
0.00100501
0.000963051
0.00092054
0.000877751
0.000834954
0.000792409
0.000750367
0.000709067
0.000668736
0.000629585
0.000591814
0.000555608
0.00052114
0.000488568
0.000458036
0.000429671
0.000403593
0.000379903
0.000358691
0.000340031
0.000323979
0.000310572
0.000299817
0.00029169
0.000286121
0.000282984
0.000282082
0.000283099
0.0002856
0.000289385
0.000294523
1.24687e-05
9.3323e-06
4.6873e-06
-1.27509e-06
-8.22162e-06
-1.57805e-05
-2.36299e-05
-3.1501e-05
-3.91773e-05
-4.64919e-05
-5.33206e-05
-5.9576e-05
-6.5201e-05
-7.01621e-05
-7.44446e-05
-7.80462e-05
-8.09721e-05
-8.32315e-05
-8.48343e-05
-8.57891e-05
-8.61022e-05
-8.57756e-05
-8.48057e-05
-8.31832e-05
-8.08936e-05
-7.79173e-05
-7.42292e-05
-6.97993e-05
-6.45927e-05
-5.85707e-05
-5.16916e-05
-4.39111e-05
-3.51829e-05
-2.54588e-05
-1.46901e-05
-2.82851e-06
1.01738e-05
2.43641e-05
3.97884e-05
5.649e-05
7.4509e-05
9.38817e-05
0.00011464
0.000136813
0.000160421
0.000185482
0.000212003
0.000239989
0.000269431
0.000300315
0.000332616
0.000366298
0.000401314
0.000437608
0.000475108
0.000513731
0.00055338
0.000593945
0.000635303
0.000677322
0.000719847
0.000762716
0.000805753
0.000848772
0.000891572
0.000933947
0.000975681
0.00101655
0.00105632
0.00109477
0.00113165
0.00116673
0.00119979
0.0012306
0.00125893
0.0012846
0.0013074
0.00132716
0.00134373
0.00135698
0.00136679
0.00137308
0.0013758
0.00137492
0.00137043
0.00136237
0.00135079
0.00133579
0.00131746
0.00129596
0.00127144
0.00124411
0.00121417
0.00118185
0.00114738
0.00111103
0.00107307
0.00103375
0.000993365
0.000952179
0.000910469
0.000868508
0.000826558
0.000784875
0.000743704
0.000703278
0.000663818
0.000625531
0.000588609
0.000553233
0.000519567
0.000487762
0.000457955
0.000430266
0.000404803
0.00038166
0.000360918
0.000342641
0.000326876
0.00031365
0.000302969
0.000294806
0.000289103
0.000285763
0.000284641
0.000285505
0.000288048
0.000292455
0.000299329
2.22429e-05
1.71724e-05
1.1534e-05
5.16829e-06
-1.85084e-06
-9.23181e-06
-1.67242e-05
-2.41268e-05
-3.12742e-05
-3.80373e-05
-4.43214e-05
-5.00601e-05
-5.5209e-05
-5.97423e-05
-6.36483e-05
-6.69251e-05
-6.95774e-05
-7.1612e-05
-7.30356e-05
-7.38533e-05
-7.40677e-05
-7.36766e-05
-7.26735e-05
-7.10469e-05
-6.878e-05
-6.58509e-05
-6.22331e-05
-5.78954e-05
-5.28026e-05
-4.69161e-05
-4.01947e-05
-3.25943e-05
-2.40687e-05
-1.45703e-05
-4.05116e-06
7.53646e-06
2.02398e-05
3.41052e-05
4.91778e-05
6.55003e-05
8.31121e-05
0.000102049
0.000122344
0.000144025
0.000167113
0.000191627
0.000217575
0.000244962
0.000273782
0.000304021
0.000335655
0.000368652
0.000402965
0.000438539
0.000475307
0.000513187
0.000552086
0.000591896
0.000632501
0.000673762
0.000715536
0.000757663
0.000799968
0.000842268
0.000884366
0.000926057
0.000967127
0.00100735
0.00104651
0.00108437
0.0011207
0.00115525
0.00118782
0.00121817
0.00124608
0.00127135
0.0012938
0.00131325
0.00132955
0.00134256
0.00135218
0.00135832
0.00136092
0.00135996
0.00135544
0.00134738
0.00133584
0.00132092
0.00130272
0.00128138
0.00125708
0.00123
0.00120034
0.00116835
0.00113426
0.00109832
0.0010608
0.00102197
0.000982102
0.000941469
0.000900344
0.000858995
0.000817681
0.000776656
0.000736159
0.000696419
0.000657652
0.000620061
0.000583832
0.000549139
0.00051614
0.000484979
0.000455784
0.00042867
0.000403736
0.000381067
0.000360735
0.000342799
0.000327298
0.000314257
0.000303678
0.000295545
0.000289814
0.000286419
0.000285269
0.000286202
0.000289012
0.000294174
0.000302694
3.34434e-05
2.61424e-05
1.92482e-05
1.22156e-05
4.86e-06
-2.58902e-06
-9.9433e-06
-1.70664e-05
-2.38442e-05
-3.0187e-05
-3.60303e-05
-4.13307e-05
-4.60614e-05
-5.02084e-05
-5.37671e-05
-5.674e-05
-5.91331e-05
-6.09531e-05
-6.22062e-05
-6.2896e-05
-6.30224e-05
-6.25806e-05
-6.15614e-05
-5.99513e-05
-5.77314e-05
-5.48783e-05
-5.13634e-05
-4.71544e-05
-4.22152e-05
-3.65072e-05
-2.99892e-05
-2.26167e-05
-1.43429e-05
-5.1204e-06
5.09843e-06
1.63614e-05
2.87158e-05
4.22077e-05
5.68814e-05
7.27798e-05
8.99428e-05
0.000108407
0.000128205
0.000149364
0.000171909
0.000195859
0.000221225
0.000248011
0.000276213
0.00030582
0.00033681
0.000369152
0.000402803
0.00043771
0.000473809
0.00051102
0.000549253
0.000588406
0.00062836
0.000668986
0.00071014
0.000751663
0.000793386
0.000835126
0.000876689
0.000917871
0.000958459
0.000998234
0.00103697
0.00107443
0.00111039
0.00114462
0.00117687
0.00120694
0.0012346
0.00125966
0.00128191
0.00130118
0.00131733
0.00133021
0.00133972
0.00134577
0.00134831
0.0013473
0.00134274
0.00133466
0.00132313
0.00130823
0.00129007
0.00126879
0.00124457
0.0012176
0.00118808
0.00115624
0.00112234
0.00108661
0.00104934
0.00101078
0.00097122
0.000930926
0.00089017
0.00084922
0.000808333
0.000767761
0.00072774
0.000688496
0.000650242
0.000613174
0.000577475
0.000543314
0.000510842
0.000480196
0.000451498
0.000424854
0.000400356
0.000378084
0.000358102
0.000340461
0.0003252
0.000312339
0.000301885
0.00029383
0.000288149
0.000284805
0.000283751
0.00028488
0.000288058
0.000293966
0.000303889
4.53533e-05
3.56859e-05
2.73695e-05
1.94821e-05
1.15931e-05
3.88227e-06
-3.51401e-06
-1.05176e-05
-1.70647e-05
-2.31055e-05
-2.86059e-05
-3.35472e-05
-3.7922e-05
-4.17305e-05
-4.49792e-05
-4.76772e-05
-4.98342e-05
-5.14593e-05
-5.25595e-05
-5.31381e-05
-5.31938e-05
-5.27207e-05
-5.17077e-05
-5.01393e-05
-4.79947e-05
-4.52488e-05
-4.18715e-05
-3.78292e-05
-3.30849e-05
-2.75995e-05
-2.13308e-05
-1.42336e-05
-6.26048e-06
2.63625e-06
1.25046e-05
2.33929e-05
3.53489e-05
4.84188e-05
6.26475e-05
7.80783e-05
9.47519e-05
0.000112706
0.000131973
0.000152585
0.000174565
0.000197936
0.000222709
0.000248891
0.000276481
0.000305469
0.000335837
0.000367555
0.000400585
0.000434876
0.000470367
0.000506981
0.000544633
0.00058322
0.00062263
0.000662735
0.000703393
0.00074445
0.000785735
0.000827069
0.00086826
0.000909103
0.000949388
0.000988892
0.00102739
0.00106465
0.00110043
0.00113451
0.00116664
0.00119661
0.00122419
0.00124919
0.00127139
0.00129064
0.00130676
0.00131963
0.00132912
0.00133516
0.00133768
0.00133666
0.00133208
0.00132398
0.00131242
0.00129749
0.0012793
0.001258
0.00123375
0.00120676
0.00117723
0.00114539
0.0011115
0.00107581
0.00103859
0.00100011
0.000960657
0.000920497
0.000879906
0.000839149
0.000798487
0.000758169
0.000718431
0.000679497
0.000641576
0.000604861
0.000569532
0.000535753
0.000503668
0.000473408
0.000445087
0.000418808
0.000394655
0.0003727
0.000353004
0.000335613
0.000320561
0.00030787
0.000297551
0.000289605
0.000284024
0.000280796
0.000279909
0.000281298
0.000284871
0.000291447
0.000302499
5.73656e-05
4.52854e-05
3.54514e-05
2.65876e-05
1.80306e-05
9.91858e-06
2.34437e-06
-4.66659e-06
-1.10967e-05
-1.69343e-05
-2.21772e-05
-2.68319e-05
-3.0911e-05
-3.44312e-05
-3.74109e-05
-3.98679e-05
-4.1818e-05
-4.32743e-05
-4.42457e-05
-4.47363e-05
-4.47449e-05
-4.42649e-05
-4.32847e-05
-4.17868e-05
-3.9749e-05
-3.71442e-05
-3.3941e-05
-3.01048e-05
-2.55978e-05
-2.03795e-05
-1.44063e-05
-7.63179e-06
-8.09271e-09
8.51332e-06
1.79814e-05
2.84453e-05
3.99537e-05
5.25536e-05
6.62912e-05
8.12108e-05
9.73542e-05
0.00011476
0.000133464
0.000153499
0.000174892
0.000197665
0.000221833
0.000247407
0.000274386
0.000302765
0.000332527
0.000363647
0.00039609
0.00042981
0.000464746
0.000500828
0.000537972
0.000576079
0.000615038
0.000654726
0.000695003
0.000735715
0.000776697
0.000817769
0.000858737
0.000899401
0.000939546
0.00097895
0.00101738
0.00105461
0.0010904
0.0011245
0.00115669
0.00118673
0.00121441
0.0012395
0.00126181
0.00128117
0.0012974
0.00131036
0.00131994
0.00132605
0.00132862
0.00132763
0.00132306
0.00131494
0.00130334
0.00128835
0.00127007
0.00124867
0.00122432
0.0011972
0.00116753
0.00113556
0.00110154
0.00106572
0.00102838
0.000989809
0.000950275
0.000910062
0.000869446
0.000828695
0.00078807
0.000747822
0.000708188
0.000669389
0.000631634
0.000595113
0.000560002
0.00052646
0.000494628
0.000464631
0.000436577
0.000410561
0.000386663
0.00036495
0.000345477
0.000328286
0.00031341
0.000300871
0.000290686
0.000282862
0.000277404
0.000274322
0.000273632
0.000275294
0.000279241
0.000286381
0.000298307
6.8958e-05
5.44694e-05
4.30741e-05
3.31601e-05
2.38466e-05
1.52379e-05
7.38656e-06
2.70978e-07
-6.13282e-06
-1.18496e-05
-1.69084e-05
-2.13413e-05
-2.5182e-05
-2.84638e-05
-3.12178e-05
-3.34716e-05
-3.52488e-05
-3.65674e-05
-3.74394e-05
-3.78705e-05
-3.78605e-05
-3.74032e-05
-3.6486e-05
-3.50908e-05
-3.31939e-05
-3.07665e-05
-2.77762e-05
-2.41872e-05
-1.99606e-05
-1.50541e-05
-9.42233e-06
-3.01798e-06
4.20778e-06
1.23047e-05
2.13232e-05
3.13136e-05
4.23258e-05
5.44084e-05
6.76092e-05
8.19741e-05
9.75464e-05
0.000114367
0.000132474
0.000151903
0.000172683
0.000194839
0.000218389
0.000243346
0.000269712
0.000297487
0.000326656
0.000357199
0.000389085
0.00042227
0.000456699
0.000492304
0.000529004
0.000566704
0.000605298
0.000644662
0.00068466
0.000725142
0.000765942
0.000806882
0.000847769
0.000888399
0.000928558
0.00096802
0.00100655
0.00104392
0.00107987
0.00111418
0.00114659
0.00117687
0.0012048
0.00123015
0.00125273
0.00127233
0.0012888
0.00130198
0.00131175
0.00131802
0.00132072
0.00131981
0.00131528
0.00130717
0.00129553
0.00128046
0.00126207
0.00124052
0.00121597
0.00118864
0.00115874
0.00112652
0.00109223
0.00105614
0.00101854
0.000979711
0.000939935
0.000899501
0.000858688
0.00081777
0.000777011
0.000736663
0.000696965
0.000658139
0.000620392
0.000583915
0.000548878
0.000515438
0.000483731
0.000453878
0.000425982
0.000400132
0.000376403
0.000354856
0.000335542
0.000318501
0.000303763
0.000291352
0.000281286
0.000273581
0.000268252
0.000265324
0.00026483
0.000266747
0.000271024
0.000278622
0.000291211
7.9666e-05
6.28074e-05
4.98423e-05
3.88392e-05
2.87148e-05
1.95451e-05
1.1347e-05
4.05515e-06
-2.39332e-06
-8.0571e-06
-1.29948e-05
-1.72642e-05
-2.09197e-05
-2.40113e-05
-2.65837e-05
-2.8675e-05
-3.03168e-05
-3.15326e-05
-3.23384e-05
-3.2743e-05
-3.27475e-05
-3.2346e-05
-3.15259e-05
-3.02685e-05
-2.85489e-05
-2.63374e-05
-2.36004e-05
-2.03011e-05
-1.63985e-05
-1.18485e-05
-6.60434e-06
-6.17358e-07
6.16253e-06
1.37867e-05
2.2307e-05
3.17756e-05
4.2244e-05
5.37631e-05
6.63822e-05
8.01493e-05
9.51102e-05
0.000111309
0.000128786
0.000147579
0.000167721
0.000189239
0.000212154
0.000236482
0.000262232
0.000289403
0.000317988
0.00034797
0.000379321
0.000412002
0.000445962
0.000481136
0.000517448
0.000554807
0.000593108
0.000632232
0.000672046
0.000712399
0.000753129
0.000794057
0.000834989
0.000875721
0.000916035
0.000955704
0.00099449
0.00103215
0.00106844
0.00110311
0.00113591
0.0011666
0.00119494
0.00122071
0.0012437
0.0012637
0.00128054
0.00129406
0.00130414
0.00131067
0.00131357
0.00131282
0.00130839
0.00130032
0.00128866
0.00127351
0.00125499
0.00123325
0.00120846
0.00118085
0.00115063
0.00111805
0.00108339
0.00104691
0.00100891
0.000969677
0.000929511
0.000888702
0.000847535
0.000806292
0.000765239
0.000724634
0.000684716
0.00064571
0.000607824
0.000571247
0.000536149
0.000502681
0.000470979
0.000441156
0.000413314
0.000387534
0.000363889
0.000342433
0.000323214
0.000306269
0.000291625
0.000279308
0.000269339
0.000261737
0.000256527
0.000253741
0.000253426
0.000255568
0.000260124
0.000268086
0.000281172
8.90738e-05
6.99003e-05
5.53805e-05
4.32759e-05
3.23113e-05
2.25404e-05
1.39488e-05
6.42929e-06
-1.17822e-07
-5.78296e-06
-1.06532e-05
-1.48106e-05
-1.83298e-05
-2.12775e-05
-2.37121e-05
-2.56827e-05
-2.72285e-05
-2.83793e-05
-2.91559e-05
-2.95701e-05
-2.9625e-05
-2.93157e-05
-2.86297e-05
-2.75476e-05
-2.60439e-05
-2.40885e-05
-2.16469e-05
-1.86801e-05
-1.51454e-05
-1.09968e-05
-6.1862e-06
-6.63355e-07
5.62352e-06
1.27274e-05
2.07022e-05
2.9602e-05
3.94806e-05
5.03908e-05
6.23843e-05
7.55117e-05
8.9822e-05
0.000105362
0.000122175
0.000140302
0.000159779
0.000180636
0.000202898
0.000226584
0.000251708
0.000278274
0.000306278
0.000335708
0.000366541
0.00039874
0.00043226
0.000467042
0.000503012
0.000540083
0.000578155
0.000617111
0.000656821
0.000697137
0.000737895
0.000778918
0.000820012
0.000860969
0.00090157
0.000941584
0.000980769
0.00101888
0.00105566
0.00109085
0.0011242
0.00115546
0.00118438
0.00121073
0.00123428
0.00125482
0.00127218
0.00128618
0.00129668
0.00130358
0.00130679
0.00130627
0.00130201
0.00129404
0.00128239
0.00126718
0.00124852
0.00122657
0.00120152
0.00117357
0.00114296
0.00110995
0.00107481
0.00103784
0.00099932
0.000959566
0.000918877
0.000877554
0.000835891
0.000794175
0.000752681
0.000711671
0.000671389
0.000632061
0.000593896
0.000557084
0.000521795
0.000488178
0.000456364
0.000426463
0.000398573
0.000372773
0.000349127
0.000327688
0.000308499
0.000291592
0.000276996
0.000264734
0.00025483
0.000247306
0.000242191
0.000239525
0.000239362
0.000241693
0.000246477
0.000254726
0.000268188
9.68017e-05
7.53757e-05
5.93304e-05
4.613e-05
3.43157e-05
2.39226e-05
1.49078e-05
7.12498e-06
4.39288e-07
-5.27041e-06
-1.0118e-05
-1.42084e-05
-1.76359e-05
-2.04836e-05
-2.28233e-05
-2.47145e-05
-2.62048e-05
-2.73305e-05
-2.81171e-05
-2.85796e-05
-2.87234e-05
-2.85449e-05
-2.80318e-05
-2.71644e-05
-2.59174e-05
-2.42598e-05
-2.21559e-05
-1.95648e-05
-1.64417e-05
-1.27393e-05
-8.40769e-06
-3.39491e-06
2.35278e-06
8.89021e-06
1.62733e-05
2.45588e-05
3.38027e-05
4.40602e-05
5.53857e-05
6.7833e-05
8.14542e-05
9.62991e-05
0.000112414
0.000129844
0.000148627
0.000168798
0.000190385
0.000213413
0.000237898
0.000263851
0.000291272
0.000320152
0.000350474
0.000382205
0.000415305
0.00044972
0.000485382
0.000522208
0.0005601
0.000598948
0.000638622
0.000678976
0.000719849
0.000761061
0.000802419
0.000843713
0.000884721
0.000925209
0.000964929
0.00100363
0.00104104
0.00107691
0.00111097
0.00114296
0.00117262
0.00119971
0.00122398
0.00124523
0.00126325
0.00127786
0.00128893
0.00129632
0.00129995
0.00129978
0.00129577
0.00128795
0.00127638
0.00126114
0.00124237
0.00122021
0.00119487
0.00116655
0.00113551
0.001102
0.00106632
0.00102876
0.000989627
0.000949238
0.000907907
0.000865945
0.000823655
0.000781333
0.000739263
0.000697711
0.000656927
0.000617144
0.000578571
0.000541398
0.000505795
0.000471912
0.000439875
0.000409793
0.000381758
0.000355845
0.000332116
0.00031062
0.000291394
0.000274468
0.000259869
0.000247619
0.000237742
0.000230262
0.000225212
0.000222636
0.000222592
0.000225076
0.000230042
0.000238516
0.000252269
0.000102496
7.88838e-05
6.13486e-05
4.70701e-05
3.44115e-05
2.33896e-05
1.39352e-05
5.86575e-06
-9.87848e-07
-6.77602e-06
-1.16378e-05
-1.57001e-05
-1.90762e-05
-2.18652e-05
-2.41512e-05
-2.6004e-05
-2.74797e-05
-2.86209e-05
-2.9458e-05
-3.00093e-05
-3.02824e-05
-3.02748e-05
-2.99747e-05
-2.93631e-05
-2.84145e-05
-2.70971e-05
-2.53733e-05
-2.32008e-05
-2.05331e-05
-1.73211e-05
-1.35132e-05
-9.05526e-06
-3.89167e-06
2.03457e-06
8.78181e-06
1.6409e-05
2.49747e-05
3.4537e-05
4.51534e-05
5.6881e-05
6.97749e-05
8.38882e-05
9.9271e-05
0.00011597
0.000134029
0.000153486
0.000174373
0.000196721
0.00022055
0.000245874
0.000272701
0.000301024
0.000330832
0.000362097
0.000394786
0.000428848
0.000464222
0.00050083
0.000538579
0.000577361
0.00061705
0.000657502
0.000698557
0.000740036
0.000781745
0.000823473
0.000864996
0.000906074
0.000946455
0.000985878
0.00102407
0.00106077
0.00109569
0.00112857
0.00115913
0.00118711
0.00121228
0.00123439
0.00125323
0.00126863
0.0012804
0.00128843
0.00129262
0.0012929
0.00128925
0.00128169
0.00127026
0.00125506
0.00123621
0.00121388
0.00118825
0.00115956
0.00112805
0.00109401
0.00105772
0.00101951
0.000979674
0.000938557
0.00089648
0.000853767
0.000810732
0.000767683
0.000724911
0.000682691
0.000641281
0.000600916
0.000561811
0.000524158
0.000488126
0.000453863
0.000421497
0.000391133
0.000362859
0.000336746
0.000312853
0.000291224
0.000271894
0.000254889
0.000240233
0.000227947
0.000218054
0.000210581
0.00020556
0.00020304
0.000203081
0.00020568
0.000210789
0.000219443
0.000233428
0.00010582
8.00903e-05
6.11062e-05
4.57746e-05
3.22863e-05
2.06393e-05
1.07396e-05
2.36912e-06
-4.67324e-06
-1.05658e-05
-1.5472e-05
-1.95401e-05
-2.29014e-05
-2.56697e-05
-2.79413e-05
-2.97959e-05
-3.12976e-05
-3.24953e-05
-3.34239e-05
-3.41052e-05
-3.45487e-05
-3.4753e-05
-3.47075e-05
-3.43937e-05
-3.37857e-05
-3.28505e-05
-3.15492e-05
-2.9838e-05
-2.76689e-05
-2.49907e-05
-2.175e-05
-1.78906e-05
-1.33546e-05
-8.08274e-06
-2.01413e-06
4.91244e-06
1.27581e-05
2.15841e-05
3.14513e-05
4.242e-05
5.45483e-05
6.78925e-05
8.25064e-05
9.84404e-05
0.000115741
0.000134451
0.000154609
0.000176248
0.000199395
0.000224068
0.000250278
0.000278025
0.000307303
0.000338091
0.000370361
0.000404068
0.000439157
0.000475556
0.000513178
0.000551917
0.000591651
0.00063224
0.000673525
0.000715329
0.000757457
0.0007997
0.000841828
0.000883597
0.00092475
0.000965019
0.00100413
0.00104179
0.00107773
0.00111165
0.00114327
0.00117233
0.00119856
0.00122171
0.00124155
0.00125789
0.00127055
0.00127937
0.00128427
0.00128515
0.001282
0.00127481
0.00126363
0.00124856
0.00122971
0.00120725
0.00118137
0.00115232
0.00112036
0.00108576
0.00104883
0.00100991
0.000969313
0.000927392
0.000884481
0.000840919
0.000797036
0.000753149
0.000709561
0.000666557
0.000624402
0.000583337
0.000543583
0.000505335
0.000468761
0.000434013
0.000401214
0.00037047
0.000341865
0.000315468
0.000291331
0.000269495
0.000249991
0.000232844
0.000218073
0.000205698
0.000195743
0.000188233
0.000183203
0.000180702
0.000180793
0.000183473
0.000188691
0.000197491
0.000211675
0.000106451
7.86732e-05
5.82854e-05
4.19301e-05
2.76321e-05
1.53714e-05
5.02763e-06
-3.65094e-06
-1.08959e-05
-1.69125e-05
-2.18884e-05
-2.5992e-05
-2.93713e-05
-3.2154e-05
-3.44484e-05
-3.63438e-05
-3.79115e-05
-3.92065e-05
-4.02678e-05
-4.11203e-05
-4.17753e-05
-4.22332e-05
-4.24843e-05
-4.25104e-05
-4.2285e-05
-4.17738e-05
-4.09368e-05
-3.9729e-05
-3.81008e-05
-3.59988e-05
-3.33675e-05
-3.01489e-05
-2.62828e-05
-2.1707e-05
-1.63587e-05
-1.01739e-05
-3.08887e-06
4.96076e-06
1.40391e-05
2.42092e-05
3.55327e-05
4.80688e-05
6.18745e-05
7.70041e-05
9.35084e-05
0.000111435
0.000130825
0.000151719
0.000174146
0.00019813
0.000223688
0.000250825
0.000279541
0.000309822
0.000341645
0.000374975
0.000409761
0.000445937
0.00048342
0.000522113
0.000561897
0.000602636
0.000644173
0.000686336
0.000728929
0.000771741
0.000814541
0.000857081
0.0008991
0.000940321
0.00098046
0.00101922
0.00105632
0.00109144
0.0011243
0.00115461
0.00118208
0.00120646
0.0012275
0.00124497
0.0012587
0.00126852
0.0012743
0.00127597
0.00127348
0.00126682
0.00125603
0.00124121
0.00122246
0.00119997
0.00117392
0.00114456
0.00111216
0.00107702
0.00103945
0.000999793
0.000958395
0.000915612
0.0008718
0.000827309
0.000782485
0.000737662
0.000693154
0.000649258
0.000606247
0.00056437
0.000523855
0.000484901
0.00044768
0.000412341
0.000379011
0.000347792
0.000318766
0.000291999
0.000267538
0.00024542
0.000225673
0.000208318
0.000193372
0.000180854
0.000170786
0.000163194
0.000158112
0.000155591
0.000155696
0.000158422
0.000163719
0.00017264
0.000187003
0.000104077
7.43202e-05
5.25759e-05
3.52298e-05
2.01465e-05
7.28721e-06
-3.4938e-06
-1.24817e-05
-1.99379e-05
-2.60942e-05
-3.11608e-05
-3.53255e-05
-3.87521e-05
-4.15822e-05
-4.39349e-05
-4.59084e-05
-4.75811e-05
-4.90133e-05
-5.02479e-05
-5.13123e-05
-5.22202e-05
-5.29733e-05
-5.3563e-05
-5.39707e-05
-5.41691e-05
-5.41232e-05
-5.37921e-05
-5.31291e-05
-5.20828e-05
-5.05983e-05
-4.86177e-05
-4.60808e-05
-4.2925e-05
-3.9086e-05
-3.44986e-05
-2.90962e-05
-2.28118e-05
-1.55786e-05
-7.32973e-06
2.00082e-06
1.24777e-05
2.41633e-05
3.71175e-05
5.13982e-05
6.70607e-05
8.41561e-05
0.000102732
0.00012283
0.000144485
0.000167728
0.00019258
0.000219053
0.000247152
0.000276872
0.000308198
0.000341099
0.000375533
0.00041144
0.000448745
0.000487356
0.000527161
0.000568029
0.000609809
0.000652329
0.000695398
0.000738802
0.000782311
0.000825675
0.000868626
0.000910885
0.000952157
0.000992142
0.00103053
0.00106701
0.00110127
0.001133
0.00116192
0.00118773
0.00121017
0.00122901
0.00124404
0.00125507
0.00126198
0.00126465
0.00126303
0.0012571
0.0012469
0.0012325
0.00121402
0.00119162
0.00116552
0.00113594
0.00110319
0.00106755
0.00102936
0.000988983
0.000946768
0.000903092
0.000858328
0.000812847
0.00076701
0.000721165
0.000675644
0.000630756
0.000586786
0.00054399
0.000502608
0.000462842
0.000424869
0.00038884
0.000354881
0.000323092
0.000293555
0.000266329
0.000241462
0.000218985
0.000198923
0.000181293
0.000166111
0.000153392
0.000143157
0.000135432
0.000130253
0.00012767
0.00012775
0.00013049
0.000135839
0.000144861
0.000159397
9.83966e-05
6.67273e-05
4.36747e-05
2.53734e-05
9.53127e-06
-3.90823e-06
-1.51159e-05
-2.44106e-05
-3.20834e-05
-3.83913e-05
-4.35662e-05
-4.78144e-05
-5.13155e-05
-5.42236e-05
-5.66682e-05
-5.87557e-05
-6.05711e-05
-6.21792e-05
-6.36265e-05
-6.49432e-05
-6.6145e-05
-6.72349e-05
-6.82043e-05
-6.90344e-05
-6.96973e-05
-7.01575e-05
-7.03728e-05
-7.0295e-05
-6.98711e-05
-6.90441e-05
-6.77544e-05
-6.59392e-05
-6.35337e-05
-6.04715e-05
-5.66849e-05
-5.21049e-05
-4.6662e-05
-4.02866e-05
-3.29097e-05
-2.44626e-05
-1.48782e-05
-4.09142e-06
7.96119e-06
2.13406e-05
3.61056e-05
5.23114e-05
7.00092e-05
8.92448e-05
0.000110059
0.000132486
0.000156553
0.000182281
0.000209681
0.000238756
0.000269496
0.000301882
0.000335877
0.000371429
0.00040847
0.000446923
0.000486677
0.00052761
0.000569576
0.000612408
0.000655917
0.000699895
0.000744109
0.000788311
0.00083223
0.000875582
0.000918065
0.000959369
0.000999173
0.00103715
0.00107298
0.00110633
0.00113689
0.00116436
0.00118845
0.00120891
0.00122551
0.00123803
0.00124633
0.00125028
0.00124981
0.00124488
0.00123552
0.00122178
0.00120378
0.00118169
0.0011557
0.00112607
0.00109308
0.00105705
0.00101832
0.000977268
0.000934261
0.000889695
0.000843961
0.000797451
0.000750547
0.000703614
0.000657
0.000611031
0.000566006
0.000522195
0.000479843
0.000439161
0.000400333
0.000363511
0.000328823
0.000296369
0.000266227
0.000238455
0.000213098
0.000190182
0.00016973
0.000151755
0.00013627
0.000123288
0.000112828
0.000104917
9.95906e-05
9.69008e-05
9.69164e-05
9.96358e-05
0.000105009
0.000114116
0.000128821
8.91143e-05
5.55986e-05
3.12856e-05
1.20656e-05
-4.50664e-06
-1.85057e-05
-3.01277e-05
-3.97245e-05
-4.76165e-05
-5.40851e-05
-5.93833e-05
-6.37354e-05
-6.73358e-05
-7.03508e-05
-7.29193e-05
-7.51552e-05
-7.71493e-05
-7.89708e-05
-8.06696e-05
-8.22783e-05
-8.38143e-05
-8.52814e-05
-8.6671e-05
-8.79638e-05
-8.91315e-05
-9.01378e-05
-9.09393e-05
-9.14863e-05
-9.1724e-05
-9.1594e-05
-9.10344e-05
-8.99804e-05
-8.83652e-05
-8.61199e-05
-8.31746e-05
-7.94582e-05
-7.48992e-05
-6.94261e-05
-6.29674e-05
-5.54527e-05
-4.6813e-05
-3.69809e-05
-2.58901e-05
-1.34767e-05
3.20912e-07
1.55612e-05
3.22984e-05
5.05825e-05
7.04586e-05
9.19668e-05
0.000115141
0.000140009
0.000166588
0.000194891
0.000224917
0.000256651
0.00029007
0.000325131
0.000361779
0.000399931
0.000439502
0.000480375
0.000522409
0.000565446
0.000609303
0.000653775
0.000698636
0.000743639
0.000788513
0.00083297
0.000876704
0.000919396
0.000960714
0.00100032
0.00103787
0.00107303
0.00110547
0.00113484
0.00116086
0.00118324
0.00120172
0.00121607
0.00122611
0.00123169
0.00123272
0.00122914
0.00122094
0.0012082
0.00119099
0.00116948
0.00114388
0.00111442
0.0010814
0.00104515
0.00100602
0.0009644
0.000920678
0.000875268
0.000828587
0.000781045
0.000733046
0.000684979
0.00063721
0.000590085
0.000543919
0.000498999
0.000455578
0.000413879
0.000374091
0.000336373
0.000300854
0.000267634
0.000236792
0.000208382
0.000182446
0.000159008
0.000138086
0.000119691
0.000103831
9.05182e-05
7.97709e-05
7.16145e-05
6.60854e-05
6.32386e-05
6.31462e-05
6.58092e-05
7.11792e-05
8.03551e-05
9.5226e-05
7.59427e-05
4.06458e-05
1.51191e-05
-4.98289e-06
-2.22551e-05
-3.6792e-05
-4.88149e-05
-5.87078e-05
-6.68197e-05
-7.34563e-05
-7.88913e-05
-8.33659e-05
-8.7089e-05
-9.02379e-05
-9.29606e-05
-9.53779e-05
-9.75857e-05
-9.96572e-05
-0.000101645
-0.000103585
-0.000105495
-0.000107378
-0.000109228
-0.000111023
-0.000112735
-0.000114327
-0.000115754
-0.000116965
-0.000117903
-0.000118509
-0.000118719
-0.000118466
-0.000117681
-0.000116294
-0.000114232
-0.000111424
-0.000107795
-0.000103273
-9.77851e-05
-9.12599e-05
-8.36267e-05
-7.48166e-05
-6.47618e-05
-5.3396e-05
-4.06553e-05
-2.64795e-05
-1.08116e-05
6.40213e-06
2.52115e-05
4.56618e-05
6.77933e-05
9.164e-05
0.000117229
0.00014458
0.000173701
0.000204588
0.000237226
0.000271586
0.000307624
0.000345273
0.000384456
0.000425063
0.000466968
0.000510022
0.000554052
0.000598864
0.000644239
0.000689934
0.000735682
0.000781196
0.000826167
0.000870271
0.000913168
0.00095451
0.00099394
0.0010311
0.00106564
0.0010972
0.00112546
0.0011501
0.00117084
0.00118742
0.00119963
0.00120729
0.00121027
0.00120849
0.00120193
0.00119061
0.00117462
0.0011541
0.00112924
0.0011003
0.00106756
0.00103136
0.000992057
0.000950054
0.000905766
0.000859625
0.000812071
0.000763538
0.000714457
0.00066524
0.000616279
0.000567939
0.000520559
0.000474442
0.000429857
0.000387039
0.000346187
0.000307466
0.000271008
0.000236918
0.000205273
0.000176127
0.000149518
0.000125467
0.000103989
8.50899e-05
6.87768e-05
5.50592e-05