/*--------------------------------*- C++ -*----------------------------------*\
| =========                 |                                                 |
| \\      /  F ield         | OpenFOAM: The Open Source CFD Toolbox           |
|  \\    /   O peration     | Version:  2112                                  |
|   \\  /    A nd           | Website:  www.openfoam.com                      |
|    \\/     M anipulation  |                                                 |
\*---------------------------------------------------------------------------*/
FoamFile
{
    version     2.0;
    format      ascii;
    arch        "LSB;label=32;scalar=64";
    class       surfaceScalarField;
    location    "0.9";
    object      phi;
}
// * * * * * * * * * * * * * * * * * * * * * * * * * * * * * * * * * * * * * //

dimensions      [0 3 -1 0 0 0 0];

oriented        oriented;

internalField   nonuniform List<scalar> 
33024
(
5.31445e-11
-5.31017e-11
1.27563e-10
-7.44238e-11
1.68357e-10
-4.07862e-11
1.51883e-10
1.64713e-11
7.09711e-11
8.09156e-11
-7.32779e-11
1.44244e-10
-2.75683e-10
2.02407e-10
-5.29326e-10
2.53639e-10
-8.26765e-10
2.97437e-10
-1.16077e-09
3.34005e-10
-1.52469e-09
3.63924e-10
-1.91264e-09
3.87955e-10
-2.31956e-09
4.06912e-10
-2.74117e-09
4.2161e-10
-3.17399e-09
4.32818e-10
-3.61522e-09
4.41232e-10
-4.06269e-09
4.47472e-10
-4.51475e-09
4.5207e-10
-4.97023e-09
4.55473e-10
-5.42829e-09
4.58052e-10
-5.88838e-09
4.60092e-10
-6.35018e-09
4.61805e-10
-6.81353e-09
4.63351e-10
-7.27837e-09
4.64839e-10
-7.74469e-09
4.66323e-10
-8.21251e-09
4.67819e-10
-8.68183e-09
4.69319e-10
-9.15261e-09
4.70782e-10
-9.62475e-09
4.72148e-10
-1.00981e-08
4.73342e-10
-1.05724e-08
4.74279e-10
-1.10472e-08
4.7486e-10
-1.15222e-08
4.74982e-10
-1.19968e-08
4.74541e-10
-1.24702e-08
4.7343e-10
-1.29417e-08
4.7154e-10
-1.34105e-08
4.68762e-10
-1.38755e-08
4.64994e-10
-1.43356e-08
4.60134e-10
-1.47897e-08
4.54081e-10
-1.52364e-08
4.46741e-10
-1.56745e-08
4.38023e-10
-1.61023e-08
4.27845e-10
-1.65184e-08
4.16123e-10
-1.69212e-08
4.02785e-10
-1.7309e-08
3.87764e-10
-1.768e-08
3.70999e-10
-1.80324e-08
3.52437e-10
-1.83645e-08
3.32031e-10
-1.86742e-08
3.09742e-10
-1.89597e-08
2.85543e-10
-1.92192e-08
2.59418e-10
-1.94505e-08
2.31361e-10
-1.96519e-08
2.01379e-10
-1.98214e-08
1.69489e-10
-1.99571e-08
1.35725e-10
-2.00572e-08
1.00137e-10
-2.012e-08
6.27951e-11
-2.01438e-08
2.37887e-11
-2.0127e-08
-1.67834e-11
-2.00682e-08
-5.87902e-11
-1.99662e-08
-1.02089e-10
-1.98196e-08
-1.4651e-10
-1.96278e-08
-1.91857e-10
-1.93899e-08
-2.37918e-10
-1.91054e-08
-2.8446e-10
-1.87742e-08
-3.31226e-10
-1.83962e-08
-3.77938e-10
-1.79719e-08
-4.24301e-10
-1.75019e-08
-4.70002e-10
-1.69872e-08
-5.14717e-10
-1.64291e-08
-5.5811e-10
-1.58293e-08
-5.99838e-10
-1.51897e-08
-6.39554e-10
-1.45128e-08
-6.76916e-10
-1.38012e-08
-7.1159e-10
-1.3058e-08
-7.4325e-10
-1.22864e-08
-7.7159e-10
-1.14901e-08
-7.96323e-10
-1.06729e-08
-8.17193e-10
-9.83888e-09
-8.33975e-10
-8.9924e-09
-8.46481e-10
-8.13784e-09
-8.54557e-10
-7.27975e-09
-8.58095e-10
-6.42271e-09
-8.57034e-10
-5.57135e-09
-8.51354e-10
-4.73026e-09
-8.41088e-10
-3.90395e-09
-8.26312e-10
-3.09679e-09
-8.07153e-10
-2.31301e-09
-7.8378e-10
-1.55661e-09
-7.56403e-10
-8.31338e-10
-7.25274e-10
-1.40659e-10
-6.90679e-10
5.12276e-10
-6.52934e-10
1.12465e-09
-6.12373e-10
1.694e-09
-5.69354e-10
2.21825e-09
-5.24242e-10
2.69566e-09
-4.77414e-10
3.1249e-09
-4.29243e-10
3.50501e-09
-3.80106e-10
3.83538e-09
-3.30365e-10
4.11574e-09
-2.80366e-10
4.34618e-09
-2.30444e-10
4.5271e-09
-1.80916e-10
4.65918e-09
-1.32074e-10
4.74336e-09
-8.41877e-11
4.78087e-09
-3.75035e-11
4.7731e-09
7.76016e-12
4.72173e-09
5.13722e-11
4.62858e-09
9.31509e-11
4.49569e-09
1.32899e-10
4.32526e-09
1.70423e-10
4.11974e-09
2.05523e-10
3.88177e-09
2.37967e-10
3.61428e-09
2.67487e-10
3.32052e-09
2.93769e-10
3.00412e-09
3.16404e-10
2.66922e-09
3.34889e-10
2.32064e-09
3.48576e-10
1.96401e-09
3.56631e-10
1.60602e-09
3.57991e-10
1.25471e-09
3.51306e-10
9.19836e-10
3.34871e-10
6.13242e-10
3.06593e-10
3.49162e-10
2.64082e-10
1.44002e-10
2.05163e-10
1.46502e-11
1.29351e-10
-2.82932e-11
4.29437e-11
-2.82932e-11
7.42059e-11
-1.27314e-10
1.39617e-10
-1.39828e-10
1.13228e-10
-1.44094e-11
-4.73562e-11
1.77055e-10
-3.6025e-10
3.93799e-10
-8.2697e-10
6.10967e-10
-1.4391e-09
8.14532e-10
-2.18292e-09
9.97464e-10
-3.0424e-09
1.15691e-09
-4.00098e-09
1.29258e-09
-5.04273e-09
1.40567e-09
-6.15301e-09
1.49823e-09
-7.31881e-09
1.57272e-09
-8.5289e-09
1.63171e-09
-9.77381e-09
1.67773e-09
-1.10458e-08
1.71317e-09
-1.23384e-08
1.74016e-09
-1.36469e-08
1.76057e-09
-1.49675e-08
1.77602e-09
-1.62973e-08
1.78783e-09
-1.76342e-08
1.79706e-09
-1.8977e-08
1.80454e-09
-2.03245e-08
1.81088e-09
-2.16761e-08
1.81648e-09
-2.30314e-08
1.82161e-09
-2.439e-08
1.82636e-09
-2.57513e-08
1.83072e-09
-2.71151e-08
1.83457e-09
-2.84807e-08
1.83774e-09
-2.98473e-08
1.83995e-09
-3.1214e-08
1.84092e-09
-3.25794e-08
1.8403e-09
-3.39422e-08
1.83774e-09
-3.53005e-08
1.83285e-09
-3.66523e-08
1.82526e-09
-3.79953e-08
1.81457e-09
-3.9327e-08
1.80039e-09
-4.06443e-08
1.78236e-09
-4.19443e-08
1.76011e-09
-4.32235e-08
1.73327e-09
-4.44783e-08
1.70152e-09
-4.57048e-08
1.66453e-09
-4.6899e-08
1.62201e-09
-4.80565e-08
1.57367e-09
-4.9173e-08
1.51927e-09
-5.02438e-08
1.45857e-09
-5.12642e-08
1.39138e-09
-5.22293e-08
1.31752e-09
-5.31341e-08
1.23685e-09
-5.39736e-08
1.14926e-09
-5.47427e-08
1.05468e-09
-5.54364e-08
9.53081e-10
-5.60495e-08
8.44472e-10
-5.6577e-08
7.28908e-10
-5.7014e-08
6.06497e-10
-5.73557e-08
4.77395e-10
-5.75974e-08
3.41821e-10
-5.77346e-08
2.00057e-10
-5.77633e-08
5.24459e-11
-5.76795e-08
-1.00603e-10
-5.74797e-08
-2.58605e-10
-5.71607e-08
-4.20996e-10
-5.67201e-08
-5.87146e-10
-5.61556e-08
-7.56338e-10
-5.54658e-08
-9.27782e-10
-5.46496e-08
-1.10062e-09
-5.37069e-08
-1.2739e-09
-5.26382e-08
-1.44664e-09
-5.14447e-08
-1.61777e-09
-5.01286e-08
-1.78616e-09
-4.86926e-08
-1.95065e-09
-4.71407e-08
-2.11006e-09
-4.54774e-08
-2.26315e-09
-4.37082e-08
-2.40872e-09
-4.18396e-08
-2.54556e-09
-3.98787e-08
-2.67247e-09
-3.78336e-08
-2.78832e-09
-3.57132e-08
-2.89204e-09
-3.35269e-08
-2.98262e-09
-3.12849e-08
-3.05916e-09
-2.8998e-08
-3.12086e-09
-2.66774e-08
-3.16706e-09
-2.43348e-08
-3.19723e-09
-2.19819e-08
-3.21097e-09
-1.96308e-08
-3.20807e-09
-1.72937e-08
-3.18846e-09
-1.49826e-08
-3.15224e-09
-1.27092e-08
-3.09968e-09
-1.04852e-08
-3.0312e-09
-8.32156e-09
-2.94738e-09
-6.22899e-09
-2.84897e-09
-4.21744e-09
-2.73683e-09
-2.29617e-09
-2.61194e-09
-4.73698e-10
-2.47541e-09
1.24234e-09
-2.32842e-09
2.84519e-09
-2.1722e-09
4.32901e-09
-2.00806e-09
5.68894e-09
-1.83734e-09
6.92105e-09
-1.66136e-09
8.02239e-09
-1.48145e-09
8.99096e-09
-1.29893e-09
9.82565e-09
-1.11506e-09
1.05263e-08
-9.31049e-10
1.10934e-08
-7.48059e-10
1.15285e-08
-5.67177e-10
1.18337e-08
-3.89422e-10
1.2012e-08
-2.15743e-10
1.20668e-08
-4.70233e-11
1.20022e-08
1.15898e-10
1.18232e-08
2.72221e-10
1.15349e-08
4.2116e-10
1.11434e-08
5.61907e-10
1.06553e-08
6.93616e-10
1.00779e-08
8.15359e-10
9.41938e-09
9.26047e-10
8.68874e-09
1.02441e-09
7.89625e-09
1.10889e-09
7.05354e-09
1.1776e-09
6.17391e-09
1.22819e-09
5.27277e-09
1.25777e-09
4.36799e-09
1.26278e-09
3.48036e-09
1.23894e-09
2.63401e-09
1.18122e-09
1.85659e-09
1.08401e-09
1.17883e-09
9.41846e-10
6.32766e-10
7.5123e-10
2.47657e-10
5.1447e-10
4.26529e-11
2.47955e-10
1.43566e-11
4.22135e-11
-1.69519e-10
1.44103e-11
-1.12029e-10
-1.67026e-10
1.67031e-10
-5.4919e-10
5.59211e-10
-1.1524e-09
9.97014e-10
-1.97858e-09
1.43714e-09
-3.01746e-09
1.85341e-09
-4.25146e-09
2.23146e-09
-5.65919e-09
2.56465e-09
-7.21796e-09
2.85135e-09
-8.9054e-09
3.09311e-09
-1.07005e-08
3.29333e-09
-1.25842e-08
3.45646e-09
-1.45399e-08
3.58735e-09
-1.6553e-08
3.6909e-09
-1.86117e-08
3.77181e-09
-2.07059e-08
3.83435e-09
-2.28276e-08
3.88234e-09
-2.49707e-08
3.91908e-09
-2.71302e-08
3.9473e-09
-2.93023e-08
3.96924e-09
-3.14845e-08
3.98667e-09
-3.36745e-08
4.00088e-09
-3.58708e-08
4.01278e-09
-3.80721e-08
4.02293e-09
-4.02773e-08
4.03161e-09
-4.24854e-08
4.03882e-09
-4.46952e-08
4.04437e-09
-4.69054e-08
4.04788e-09
-4.91143e-08
4.04886e-09
-5.13201e-08
4.04671e-09
-5.35205e-08
4.04072e-09
-5.57129e-08
4.03017e-09
-5.78944e-08
4.01428e-09
-6.00614e-08
3.99226e-09
-6.22101e-08
3.9633e-09
-6.43363e-08
3.9266e-09
-6.64353e-08
3.8814e-09
-6.85022e-08
3.82692e-09
-7.05314e-08
3.76246e-09
-7.25172e-08
3.68732e-09
-7.44535e-08
3.60084e-09
-7.63339e-08
3.50243e-09
-7.81518e-08
3.39153e-09
-7.99001e-08
3.26764e-09
-8.15719e-08
3.13032e-09
-8.31597e-08
2.97918e-09
-8.46561e-08
2.81391e-09
-8.60535e-08
2.63424e-09
-8.73442e-08
2.44001e-09
-8.85207e-08
2.23112e-09
-8.95751e-08
2.00754e-09
-9.05e-08
1.76936e-09
-9.12878e-08
1.51675e-09
-9.19313e-08
1.24998e-09
-9.24234e-08
9.69449e-10
-9.27572e-08
6.75653e-10
-9.29264e-08
3.69234e-10
-9.29249e-08
5.0986e-11
-9.27473e-08
-2.78273e-10
-9.23885e-08
-6.17406e-10
-9.18442e-08
-9.65226e-10
-9.1111e-08
-1.32038e-09
-9.01859e-08
-1.68137e-09
-8.90672e-08
-2.04651e-09
-8.77538e-08
-2.41399e-09
-8.62459e-08
-2.78186e-09
-8.45445e-08
-3.14802e-09
-8.2652e-08
-3.51027e-09
-8.05719e-08
-3.86629e-09
-7.83089e-08
-4.21368e-09
-7.58689e-08
-4.54999e-09
-7.32594e-08
-4.87271e-09
-7.04887e-08
-5.17935e-09
-6.75669e-08
-5.46744e-09
-6.45048e-08
-5.73455e-09
-6.13147e-08
-5.97836e-09
-5.80101e-08
-6.19667e-09
-5.46053e-08
-6.38743e-09
-5.11157e-08
-6.54881e-09
-4.75573e-08
-6.67918e-09
-4.39472e-08
-6.77717e-09
-4.03028e-08
-6.8417e-09
-3.66418e-08
-6.87196e-09
-3.29823e-08
-6.8675e-09
-2.93426e-08
-6.82816e-09
-2.57407e-08
-6.75414e-09
-2.21945e-08
-6.64596e-09
-1.87212e-08
-6.50447e-09
-1.53377e-08
-6.33085e-09
-1.20601e-08
-6.12657e-09
-8.90356e-09
-5.89339e-09
-5.8822e-09
-5.6333e-09
-3.00908e-09
-5.34853e-09
-2.96028e-10
-5.04147e-09
2.24647e-09
-4.71469e-09
4.6092e-09
-4.3708e-09
6.78445e-09
-4.01259e-09
8.76587e-09
-3.64278e-09
1.05485e-08
-3.26412e-09
1.21289e-08
-2.87933e-09
1.35049e-08
-2.49105e-09
1.46757e-08
-2.10185e-09
1.56418e-08
-1.71415e-09
1.64049e-08
-1.33027e-09
1.69679e-08
-9.52409e-10
1.73348e-08
-5.82616e-10
1.75106e-08
-2.22842e-10
1.75014e-08
1.25057e-10
1.73144e-08
4.5929e-10
1.69574e-08
7.78077e-10
1.64397e-08
1.0796e-09
1.57714e-08
1.36194e-09
1.49638e-08
1.62299e-09
1.40295e-08
1.86036e-09
1.29827e-08
2.07125e-09
1.18392e-08
2.25235e-09
1.06171e-08
2.3997e-09
9.33679e-09
2.50849e-09
8.0216e-09
2.57296e-09
6.69809e-09
2.58629e-09
5.39652e-09
2.5405e-09
4.15103e-09
2.4267e-09
2.99945e-09
2.23559e-09
1.9824e-09
1.9589e-09
1.14111e-09
1.59251e-09
5.13631e-10
1.14195e-09
1.28647e-10
6.3295e-10
1.43003e-10
-1.65411e-11
-1.52985e-10
-1.8517e-10
5.66063e-11
-5.7809e-10
5.59945e-10
-1.23515e-09
1.21627e-09
-2.17297e-09
1.93484e-09
-3.39077e-09
2.65493e-09
-4.87545e-09
3.3381e-09
-6.60612e-09
3.96212e-09
-8.55747e-09
4.516e-09
-1.07025e-08
4.99634e-09
-1.30141e-08
5.40475e-09
-1.54667e-08
5.74596e-09
-1.80368e-08
6.02653e-09
-2.07033e-08
6.25387e-09
-2.3448e-08
6.43561e-09
-2.62553e-08
6.57911e-09
-2.91122e-08
6.69124e-09
-3.2008e-08
6.77815e-09
-3.49341e-08
6.84518e-09
-3.78837e-08
6.89686e-09
-4.08513e-08
6.93688e-09
-4.38328e-08
6.96817e-09
-4.68249e-08
6.99293e-09
-4.98248e-08
7.01271e-09
-5.28304e-08
7.0285e-09
-5.58396e-08
7.04079e-09
-5.88504e-08
7.04964e-09
-6.18608e-08
7.05477e-09
-6.48685e-08
7.05562e-09
-6.78711e-08
7.05137e-09
-7.08654e-08
7.04106e-09
-7.38482e-08
7.02355e-09
-7.68157e-08
6.99766e-09
-7.97636e-08
6.9621e-09
-8.26869e-08
6.91558e-09
-8.55804e-08
6.85677e-09
-8.84381e-08
6.78438e-09
-9.12539e-08
6.69713e-09
-9.40207e-08
6.59379e-09
-9.67315e-08
6.47318e-09
-9.93783e-08
6.33417e-09
-1.01953e-07
6.17574e-09
-1.04448e-07
5.99692e-09
-1.06853e-07
5.79682e-09
-1.0916e-07
5.57469e-09
-1.1136e-07
5.32982e-09
-1.13442e-07
5.06164e-09
-1.15398e-07
4.7697e-09
-1.17217e-07
4.45365e-09
-1.1889e-07
4.11326e-09
-1.20408e-07
3.74845e-09
-1.21759e-07
3.35927e-09
-1.22936e-07
2.94594e-09
-1.23928e-07
2.50881e-09
-1.24727e-07
2.04843e-09
-1.25323e-07
1.56552e-09
-1.25708e-07
1.061e-09
-1.25875e-07
5.35978e-10
-1.25816e-07
-8.04706e-12
-1.25524e-07
-5.69893e-10
-1.24994e-07
-1.14737e-09
-1.24221e-07
-1.73859e-09
-1.232e-07
-2.34123e-09
-1.21928e-07
-2.95277e-09
-1.20405e-07
-3.57041e-09
-1.18627e-07
-4.19114e-09
-1.16598e-07
-4.81169e-09
-1.14317e-07
-5.42861e-09
-1.11789e-07
-6.03826e-09
-1.09018e-07
-6.63682e-09
-1.06012e-07
-7.22035e-09
-1.02777e-07
-7.78481e-09
-9.93236e-08
-8.32613e-09
-9.56627e-08
-8.8402e-09
-9.18072e-08
-9.32299e-09
-8.77712e-08
-9.77055e-09
-8.35704e-08
-1.01791e-08
-7.92221e-08
-1.0545e-08
-7.47446e-08
-1.0865e-08
-7.01575e-08
-1.1136e-08
-6.54813e-08
-1.13553e-08
-6.07376e-08
-1.15209e-08
-5.59486e-08
-1.16307e-08
-5.11368e-08
-1.16837e-08
-4.63255e-08
-1.16789e-08
-4.15376e-08
-1.16161e-08
-3.67962e-08
-1.14955e-08
-3.2124e-08
-1.13181e-08
-2.75434e-08
-1.10851e-08
-2.30757e-08
-1.07985e-08
-1.87417e-08
-1.04606e-08
-1.45608e-08
-1.00743e-08
-1.05514e-08
-9.64267e-09
-6.73051e-09
-9.16946e-09
-3.11344e-09
-8.65854e-09
2.85927e-10
-8.11406e-09
3.45553e-09
-7.54041e-09
6.38492e-09
-6.94197e-09
9.06548e-09
-6.32334e-09
1.14904e-08
-5.68905e-09
1.36547e-08
-5.04359e-09
1.5555e-08
-4.39138e-09
1.71898e-08
-3.73667e-09
1.85593e-08
-3.08357e-09
1.9665e-08
-2.436e-09
2.05103e-08
-1.79769e-09
2.10998e-08
-1.17218e-09
2.14398e-08
-5.62823e-10
2.15377e-08
2.71275e-11
2.14025e-08
5.9453e-10
2.10443e-08
1.13625e-09
2.04749e-08
1.64906e-09
1.97072e-08
2.12959e-09
1.87561e-08
2.57415e-09
1.76378e-08
2.97859e-09
1.63709e-08
3.33816e-09
1.4976e-08
3.64731e-09
1.34762e-08
3.89948e-09
1.18977e-08
4.08693e-09
1.02701e-08
4.2006e-09
8.62645e-09
4.22994e-09
7.00389e-09
4.16306e-09
5.44354e-09
3.98706e-09
3.99018e-09
3.68895e-09
2.69141e-09
3.25768e-09
1.59603e-09
2.68789e-09
7.51953e-10
1.98602e-09
2.04487e-10
1.18042e-09
3.47492e-10
-8.62125e-11
-6.6771e-11
-4.23713e-10
3.94099e-10
-1.0629e-09
1.19914e-09
-2.03058e-09
2.18395e-09
-3.33492e-09
3.23918e-09
-4.9693e-09
4.28931e-09
-6.91627e-09
5.28507e-09
-9.15117e-09
6.19702e-09
-1.16452e-08
7.01e-09
-1.43677e-08
7.71886e-09
-1.72882e-08
8.32526e-09
-2.03775e-08
8.83528e-09
-2.36087e-08
9.25768e-09
-2.69574e-08
9.60257e-09
-3.04023e-08
9.88049e-09
-3.39249e-08
1.01018e-08
-3.75098e-08
1.02761e-08
-4.11439e-08
1.04122e-08
-4.48165e-08
1.05178e-08
-4.8519e-08
1.05994e-08
-5.22443e-08
1.06623e-08
-5.59869e-08
1.07108e-08
-5.97422e-08
1.07481e-08
-6.35062e-08
1.07767e-08
-6.72756e-08
1.07979e-08
-7.10473e-08
1.08125e-08
-7.48184e-08
1.08207e-08
-7.85858e-08
1.08221e-08
-8.23461e-08
1.08159e-08
-8.60957e-08
1.0801e-08
-8.98305e-08
1.07759e-08
-9.3546e-08
1.07391e-08
-9.72371e-08
1.06888e-08
-1.00898e-07
1.06231e-08
-1.04523e-07
1.05403e-08
-1.08104e-07
1.04384e-08
-1.11635e-07
1.03155e-08
-1.15108e-07
1.01697e-08
-1.18514e-07
9.99943e-09
-1.21843e-07
9.80287e-09
-1.25088e-07
9.57846e-09
-1.28237e-07
9.32475e-09
-1.3128e-07
9.04038e-09
-1.34208e-07
8.72416e-09
-1.37008e-07
8.37502e-09
-1.3967e-07
7.99205e-09
-1.42183e-07
7.5745e-09
-1.44535e-07
7.12179e-09
-1.46715e-07
6.63353e-09
-1.48711e-07
6.1095e-09
-1.50512e-07
5.54967e-09
-1.52107e-07
4.95424e-09
-1.53485e-07
4.32362e-09
-1.54635e-07
3.65847e-09
-1.55546e-07
2.95967e-09
-1.56209e-07
2.22838e-09
-1.56614e-07
1.46605e-09
-1.56752e-07
6.74412e-10
-1.56616e-07
-1.44457e-10
-1.56197e-07
-9.88289e-10
-1.55491e-07
-1.85428e-09
-1.5449e-07
-2.7394e-09
-1.53191e-07
-3.64027e-09
-1.5159e-07
-4.55312e-09
-1.49687e-07
-5.47387e-09
-1.4748e-07
-6.39808e-09
-1.44971e-07
-7.32101e-09
-1.42162e-07
-8.2376e-09
-1.39057e-07
-9.14254e-09
-1.35664e-07
-1.00303e-08
-1.31989e-07
-1.08952e-08
-1.28043e-07
-1.17313e-08
-1.23836e-07
-1.25327e-08
-1.19383e-07
-1.32936e-08
-1.14698e-07
-1.4008e-08
-1.09798e-07
-1.46703e-08
-1.04702e-07
-1.5275e-08
-9.94301e-08
-1.58168e-08
-9.4004e-08
-1.6291e-08
-8.84467e-08
-1.66933e-08
-8.27824e-08
-1.70196e-08
-7.70364e-08
-1.72669e-08
-7.12347e-08
-1.74324e-08
-6.54041e-08
-1.75143e-08
-5.95716e-08
-1.75114e-08
-5.37644e-08
-1.74232e-08
-4.80098e-08
-1.72502e-08
-4.23345e-08
-1.69934e-08
-3.67649e-08
-1.66547e-08
-3.13265e-08
-1.62369e-08
-2.60438e-08
-1.57433e-08
-2.09401e-08
-1.5178e-08
-1.60373e-08
-1.45455e-08
-1.13557e-08
-1.3851e-08
-6.91397e-09
-1.31003e-08
-2.72885e-09
-1.22992e-08
1.18483e-09
-1.14541e-08
4.81429e-09
-1.05714e-08
8.14879e-09
-9.65785e-09
1.11797e-08
-8.71997e-09
1.39005e-08
-7.76439e-09
1.63067e-08
-6.79759e-09
1.83959e-08
-5.82588e-09
2.01677e-08
-4.85534e-09
2.16235e-08
-3.89184e-09
2.27668e-08
-2.94095e-09
2.36026e-08
-2.00802e-09
2.4138e-08
-1.09817e-09
2.43815e-08
-2.16349e-10
2.43434e-08
6.32613e-10
2.40358e-08
1.44389e-09
2.34723e-08
2.21253e-09
2.26685e-08
2.93335e-09
2.16419e-08
3.60072e-09
2.04121e-08
4.2084e-09
1.9001e-08
4.74929e-09
1.74331e-08
5.21525e-09
1.57357e-08
5.59681e-09
1.39397e-08
5.88299e-09
1.20791e-08
6.06113e-09
1.01923e-08
6.11681e-09
8.32126e-09
6.03407e-09
6.5124e-09
5.79592e-09
4.81582e-09
5.38554e-09
3.285e-09
4.7885e-09
1.97622e-09
3.99667e-09
9.48379e-10
3.01386e-09
2.64515e-10
1.86428e-09
6.12008e-10
-1.59882e-10
9.31067e-11
-6.79895e-10
9.14116e-10
-1.58518e-09
2.10442e-09
-2.88561e-09
3.48438e-09
-4.57752e-09
4.93108e-09
-6.64595e-09
6.35774e-09
-9.06746e-09
7.70658e-09
-1.18128e-08
8.94234e-09
-1.48493e-08
1.00465e-08
-1.81431e-08
1.10127e-08
-2.16607e-08
1.18429e-08
-2.537e-08
1.25446e-08
-2.92414e-08
1.3129e-08
-3.32478e-08
1.36091e-08
-3.73657e-08
1.39983e-08
-4.15743e-08
1.43103e-08
-4.58558e-08
1.45577e-08
-5.01954e-08
1.47519e-08
-5.45807e-08
1.49031e-08
-5.90013e-08
1.502e-08
-6.34488e-08
1.51097e-08
-6.79161e-08
1.51781e-08
-7.23973e-08
1.52294e-08
-7.68874e-08
1.52668e-08
-8.13818e-08
1.52924e-08
-8.58764e-08
1.53071e-08
-9.03671e-08
1.53114e-08
-9.48495e-08
1.53046e-08
-9.93194e-08
1.52858e-08
-1.03772e-07
1.52534e-08
-1.08201e-07
1.52056e-08
-1.12603e-07
1.51403e-08
-1.16969e-07
1.50551e-08
-1.21293e-07
1.49475e-08
-1.25568e-07
1.48152e-08
-1.29785e-07
1.46555e-08
-1.33936e-07
1.4466e-08
-1.3801e-07
1.42442e-08
-1.41999e-07
1.39878e-08
-1.45891e-07
1.36946e-08
-1.49675e-07
1.33626e-08
-1.5334e-07
1.29898e-08
-1.56874e-07
1.25746e-08
-1.60265e-07
1.21154e-08
-1.63501e-07
1.16109e-08
-1.66569e-07
1.106e-08
-1.69456e-07
1.04618e-08
-1.7215e-07
9.81572e-09
-1.74638e-07
9.1213e-09
-1.76907e-07
8.37841e-09
-1.78944e-07
7.58717e-09
-1.80738e-07
6.74797e-09
-1.82276e-07
5.86151e-09
-1.83546e-07
4.9288e-09
-1.84538e-07
3.95116e-09
-1.8524e-07
2.9303e-09
-1.85642e-07
1.86825e-09
-1.85735e-07
7.67469e-10
-1.8551e-07
-3.69192e-10
-1.8496e-07
-1.53848e-09
-1.84078e-07
-2.73665e-09
-1.82858e-07
-3.95953e-09
-1.81295e-07
-5.2025e-09
-1.79388e-07
-6.46046e-09
-1.77134e-07
-7.72788e-09
-1.74533e-07
-8.99876e-09
-1.71588e-07
-1.02667e-08
-1.683e-07
-1.15249e-08
-1.64677e-07
-1.27662e-08
-1.60724e-07
-1.39833e-08
-1.56451e-07
-1.51683e-08
-1.51868e-07
-1.63135e-08
-1.4699e-07
-1.74109e-08
-1.41831e-07
-1.84527e-08
-1.36408e-07
-1.94309e-08
-1.30741e-07
-2.03379e-08
-1.24849e-07
-2.11664e-08
-1.18757e-07
-2.19093e-08
-1.12487e-07
-2.25603e-08
-1.06067e-07
-2.31133e-08
-9.95238e-08
-2.35633e-08
-9.28849e-08
-2.39058e-08
-8.61801e-08
-2.41372e-08
-7.94394e-08
-2.4255e-08
-7.26934e-08
-2.42574e-08
-6.59727e-08
-2.41439e-08
-5.9308e-08
-2.39148e-08
-5.27298e-08
-2.35716e-08
-4.62678e-08
-2.31167e-08
-3.9951e-08
-2.25537e-08
-3.38074e-08
-2.1887e-08
-2.78635e-08
-2.11218e-08
-2.21445e-08
-2.02645e-08
-1.66737e-08
-1.93219e-08
-1.14725e-08
-1.83014e-08
-6.56056e-09
-1.72112e-08
-1.95501e-09
-1.60596e-08
2.32908e-09
-1.48555e-08
6.27899e-09
-1.36078e-08
9.88433e-09
-1.23253e-08
1.31371e-08
-1.10172e-08
1.60317e-08
-9.69218e-09
1.85648e-08
-8.35893e-09
2.07352e-08
-7.02581e-09
2.25443e-08
-5.70088e-09
2.39952e-08
-4.3919e-09
2.50935e-08
-3.10629e-09
2.58465e-08
-1.85124e-09
2.62638e-08
-6.33663e-10
2.63569e-08
5.39606e-10
2.6139e-08
1.66175e-09
2.56257e-08
2.72581e-09
2.48346e-08
3.72449e-09
2.37854e-08
4.64994e-09
2.25002e-08
5.49351e-09
2.1004e-08
6.24552e-09
1.93243e-08
6.89496e-09
1.74919e-08
7.42921e-09
1.5541e-08
7.83385e-09
1.35097e-08
8.09246e-09
1.14399e-08
8.18663e-09
9.37776e-09
8.0962e-09
7.37378e-09
7.7999e-09
5.4827e-09
7.27662e-09
3.76359e-09
6.5076e-09
2.28027e-09
5.47999e-09
1.10258e-09
4.19155e-09
3.0978e-10
2.65708e-09
9.21787e-10
-2.33976e-10
3.27086e-10
-9.41683e-10
1.62181e-09
-2.12257e-09
3.28531e-09
-3.76765e-09
5.12946e-09
-5.85928e-09
7.02271e-09
-8.37235e-09
8.87081e-09
-1.12759e-08
1.06102e-08
-1.45352e-08
1.22016e-08
-1.81132e-08
1.36246e-08
-2.19727e-08
1.48722e-08
-2.60773e-08
1.59474e-08
-3.03922e-08
1.68595e-08
-3.48856e-08
1.76224e-08
-3.95285e-08
1.8252e-08
-4.42952e-08
1.8765e-08
-4.91632e-08
1.91783e-08
-5.41129e-08
1.95075e-08
-5.91281e-08
1.9767e-08
-6.41945e-08
1.99696e-08
-6.93007e-08
2.01261e-08
-7.44366e-08
2.02457e-08
-7.95941e-08
2.03355e-08
-8.47659e-08
2.04012e-08
-8.99459e-08
2.04467e-08
-9.51283e-08
2.04748e-08
-1.00308e-07
2.04866e-08
-1.05479e-07
2.04826e-08
-1.10637e-07
2.04623e-08
-1.15775e-07
2.04242e-08
-1.20888e-07
2.03666e-08
-1.2597e-07
2.02871e-08
-1.31013e-07
2.01829e-08
-1.36009e-07
2.00512e-08
-1.4095e-07
1.98889e-08
-1.45828e-07
1.96928e-08
-1.50632e-07
1.94597e-08
-1.55352e-07
1.91865e-08
-1.59978e-07
1.88702e-08
-1.64499e-07
1.8508e-08
-1.68901e-07
1.8097e-08
-1.73173e-07
1.76349e-08
-1.77303e-07
1.71192e-08
-1.81276e-07
1.6548e-08
-1.8508e-07
1.59194e-08
-1.88701e-07
1.5232e-08
-1.92126e-07
1.44845e-08
-1.9534e-07
1.3676e-08
-1.9833e-07
1.28057e-08
-2.01082e-07
1.18734e-08
-2.03583e-07
1.0879e-08
-2.05819e-07
9.82296e-09
-2.07776e-07
8.70582e-09
-2.09444e-07
7.52867e-09
-2.10808e-07
6.29295e-09
-2.11857e-07
5.00049e-09
-2.1258e-07
3.65358e-09
-2.12967e-07
2.25495e-09
-2.13007e-07
8.07815e-10
-2.12692e-07
-6.84101e-10
-2.12014e-07
-2.21655e-09
-2.10966e-07
-3.78471e-09
-2.09543e-07
-5.38323e-09
-2.07739e-07
-7.00617e-09
-2.05552e-07
-8.647e-09
-2.02982e-07
-1.02986e-08
-2.00027e-07
-1.19535e-08
-1.9669e-07
-1.36033e-08
-1.92976e-07
-1.52395e-08
-1.88889e-07
-1.68529e-08
-1.84438e-07
-1.84341e-08
-1.79633e-07
-1.99734e-08
-1.74486e-07
-2.14607e-08
-1.69011e-07
-2.2886e-08
-1.63224e-07
-2.42391e-08
-1.57145e-07
-2.551e-08
-1.50794e-07
-2.66891e-08
-1.44194e-07
-2.77668e-08
-1.37369e-07
-2.87342e-08
-1.30346e-07
-2.95831e-08
-1.23153e-07
-3.03059e-08
-1.15821e-07
-3.08959e-08
-1.08379e-07
-3.13474e-08
-1.00861e-07
-3.16557e-08
-9.32982e-08
-3.18175e-08
-8.57251e-08
-3.18305e-08
-7.81753e-08
-3.16937e-08
-7.06826e-08
-3.14076e-08
-6.32804e-08
-3.09738e-08
-5.60018e-08
-3.03953e-08
-4.88789e-08
-2.96766e-08
-4.19427e-08
-2.88232e-08
-3.52228e-08
-2.78417e-08
-2.87474e-08
-2.67399e-08
-2.25426e-08
-2.55267e-08
-1.66326e-08
-2.42114e-08
-1.10393e-08
-2.28044e-08
-5.78241e-09
-2.13165e-08
-8.79068e-10
-1.97589e-08
3.65611e-09
-1.81429e-08
7.81099e-09
-1.64802e-08
1.15762e-08
-1.47824e-08
1.49449e-08
-1.30609e-08
1.79128e-08
-1.13269e-08
2.04783e-08
-9.59124e-09
2.2642e-08
-7.86459e-09
2.44072e-08
-6.15709e-09
2.57794e-08
-4.47853e-09
2.67666e-08
-2.83839e-09
2.73788e-08
-1.24586e-09
2.76284e-08
2.89985e-10
2.753e-08
1.7601e-09
2.71006e-08
3.15522e-09
2.63594e-08
4.46571e-09
2.53281e-08
5.68127e-09
2.4031e-08
6.79062e-09
2.24952e-08
7.78126e-09
2.07511e-08
8.63913e-09
1.8832e-08
9.34831e-09
1.6775e-08
9.89076e-09
1.46213e-08
1.02462e-08
1.24159e-08
1.03921e-08
1.02082e-08
1.03038e-08
8.0525e-09
9.95561e-09
6.00777e-09
9.32134e-09
4.13854e-09
8.37683e-09
2.51591e-09
7.10262e-09
1.21976e-09
5.48771e-09
3.4293e-10
3.53391e-09
1.26472e-09
-3.06855e-10
6.3394e-10
-1.20253e-09
2.51748e-09
-2.66174e-09
4.74453e-09
-4.65601e-09
7.12373e-09
-7.15262e-09
9.51932e-09
-1.0115e-08
1.18332e-08
-1.35036e-08
1.39988e-08
-1.72772e-08
1.59752e-08
-2.1394e-08
1.77414e-08
-2.58129e-08
1.92911e-08
-3.04945e-08
2.0629e-08
-3.54019e-08
2.17669e-08
-4.05009e-08
2.27214e-08
-4.57608e-08
2.35119e-08
-5.11544e-08
2.41586e-08
-5.66575e-08
2.46814e-08
-6.22493e-08
2.50993e-08
-6.7912e-08
2.54297e-08
-7.36304e-08
2.56879e-08
-7.93915e-08
2.58872e-08
-8.51843e-08
2.60384e-08
-9.09992e-08
2.61505e-08
-9.68281e-08
2.62301e-08
-1.02664e-07
2.62821e-08
-1.08499e-07
2.63098e-08
-1.14327e-07
2.63148e-08
-1.20142e-07
2.62976e-08
-1.25937e-07
2.62573e-08
-1.31705e-07
2.61926e-08
-1.3744e-07
2.61011e-08
-1.43132e-07
2.59798e-08
-1.48775e-07
2.58257e-08
-1.54359e-07
2.5635e-08
-1.59874e-07
2.54041e-08
-1.6531e-07
2.51291e-08
-1.70657e-07
2.48063e-08
-1.75902e-07
2.44319e-08
-1.81034e-07
2.40023e-08
-1.86041e-07
2.35141e-08
-1.90908e-07
2.29642e-08
-1.95622e-07
2.23495e-08
-2.00171e-07
2.16675e-08
-2.04539e-07
2.09159e-08
-2.08712e-07
2.00925e-08
-2.12676e-07
1.91959e-08
-2.16416e-07
1.82247e-08
-2.19918e-07
1.71779e-08
-2.23167e-07
1.60549e-08
-2.26149e-07
1.48556e-08
-2.2885e-07
1.35801e-08
-2.31256e-07
1.2229e-08
-2.33354e-07
1.08034e-08
-2.3513e-07
9.30468e-09
-2.36572e-07
7.73474e-09
-2.37667e-07
6.09598e-09
-2.38405e-07
4.39132e-09
-2.38774e-07
2.6242e-09
-2.38765e-07
7.98629e-10
-2.38368e-07
-1.08076e-09
-2.37576e-07
-3.00872e-09
-2.36381e-07
-4.97932e-09
-2.34779e-07
-6.98598e-09
-2.32763e-07
-9.02142e-09
-2.30333e-07
-1.10777e-08
-2.27485e-07
-1.3146e-08
-2.24222e-07
-1.52172e-08
-2.20544e-07
-1.72811e-08
-2.16456e-07
-1.93273e-08
-2.11964e-07
-2.13445e-08
-2.07077e-07
-2.33213e-08
-2.01805e-07
-2.52456e-08
-1.96161e-07
-2.71051e-08
-1.90159e-07
-2.88875e-08
-1.83818e-07
-3.05804e-08
-1.77156e-07
-3.21715e-08
-1.70197e-07
-3.36486e-08
-1.62963e-07
-3.50003e-08
-1.55482e-07
-3.62154e-08
-1.47782e-07
-3.72836e-08
-1.39892e-07
-3.81956e-08
-1.31845e-07
-3.8943e-08
-1.23673e-07
-3.95186e-08
-1.15413e-07
-3.99166e-08
-1.07098e-07
-4.01325e-08
-9.87646e-08
-4.01634e-08
-9.04503e-08
-4.0008e-08
-8.21913e-08
-3.96665e-08
-7.40241e-08
-3.91409e-08
-6.59847e-08
-3.84348e-08
-5.81082e-08
-3.75531e-08
-5.04286e-08
-3.65028e-08
-4.29785e-08
-3.52918e-08
-3.57888e-08
-3.39296e-08
-2.88886e-08
-3.24269e-08
-2.23045e-08
-3.07955e-08
-1.60611e-08
-2.90478e-08
-1.01803e-08
-2.71973e-08
-4.68143e-09
-2.52578e-08
4.18969e-10
-2.32433e-08
5.10734e-09
-2.11686e-08
9.3726e-09
-1.90477e-08
1.32068e-08
-1.6895e-08
1.66047e-08
-1.47247e-08
1.95639e-08
-1.25505e-08
2.20848e-08
-1.03855e-08
2.41704e-08
-8.24269e-09
2.58263e-08
-6.13448e-09
2.70608e-08
-4.07288e-09
2.78845e-08
-2.06961e-09
2.83107e-08
-1.36195e-10
2.8355e-08
1.71583e-09
2.80355e-08
3.47472e-09
2.73729e-08
5.12828e-09
2.63906e-08
6.66353e-09
2.51148e-08
8.06642e-09
2.35746e-08
9.32146e-09
2.18024e-08
1.04114e-08
1.98339e-08
1.13168e-08
1.77086e-08
1.2016e-08
1.54701e-08
1.24847e-08
1.31662e-08
1.2696e-08
1.08494e-08
1.26206e-08
8.57721e-09
1.22278e-08
6.41284e-09
1.14857e-08
4.42597e-09
1.03637e-08
2.69446e-09
8.83413e-09
1.30688e-09
6.87528e-09
3.66756e-10
4.47404e-09
1.63148e-09
-3.77772e-10
1.01172e-09
-1.45894e-09
3.59865e-09
-3.19489e-09
6.48047e-09
-5.53779e-09
9.46663e-09
-8.43938e-09
1.24209e-08
-1.18509e-08
1.52447e-08
-1.57235e-08
1.78713e-08
-2.00086e-08
2.02603e-08
-2.46592e-08
2.2392e-08
-2.96301e-08
2.4262e-08
-3.48786e-08
2.58775e-08
-4.03654e-08
2.72536e-08
-4.60544e-08
2.84104e-08
-5.19132e-08
2.93707e-08
-5.7913e-08
3.01584e-08
-6.40287e-08
3.0797e-08
-7.02381e-08
3.13087e-08
-7.65224e-08
3.1714e-08
-8.28652e-08
3.20308e-08
-8.92526e-08
3.22745e-08
-9.56723e-08
3.24582e-08
-1.02114e-07
3.25921e-08
-1.08568e-07
3.26843e-08
-1.15026e-07
3.27404e-08
-1.21481e-07
3.27642e-08
-1.27924e-07
3.27576e-08
-1.34347e-07
3.27212e-08
-1.40744e-07
3.26541e-08
-1.47106e-07
3.25545e-08
-1.53424e-07
3.24195e-08
-1.5969e-07
3.2246e-08
-1.65895e-07
3.20299e-08
-1.72027e-07
3.17672e-08
-1.78076e-07
3.14534e-08
-1.84031e-07
3.10841e-08
-1.8988e-07
3.06549e-08
-1.95609e-07
3.01615e-08
-2.01207e-07
2.95997e-08
-2.06658e-07
2.89656e-08
-2.1195e-07
2.82558e-08
-2.17067e-07
2.74668e-08
-2.21995e-07
2.65959e-08
-2.2672e-07
2.56404e-08
-2.31226e-07
2.45983e-08
-2.35498e-07
2.34679e-08
-2.39521e-07
2.22478e-08
-2.4328e-07
2.09372e-08
-2.46761e-07
1.95357e-08
-2.49949e-07
1.80433e-08
-2.52829e-07
1.64604e-08
-2.55388e-07
1.47879e-08
-2.57612e-07
1.30273e-08
-2.59487e-07
1.11803e-08
-2.61002e-07
9.2494e-09
-2.62144e-07
7.23756e-09
-2.62901e-07
5.14828e-09
-2.63262e-07
2.98572e-09
-2.63218e-07
7.54695e-10
-2.6276e-07
-1.53931e-09
-2.61878e-07
-3.89006e-09
-2.60567e-07
-6.29056e-09
-2.5882e-07
-8.733e-09
-2.56633e-07
-1.12088e-08
-2.54002e-07
-1.37085e-08
-2.50926e-07
-1.62219e-08
-2.47405e-07
-1.87378e-08
-2.43442e-07
-2.12446e-08
-2.3904e-07
-2.37296e-08
-2.34205e-07
-2.61796e-08
-2.28945e-07
-2.85808e-08
-2.23272e-07
-3.09189e-08
-2.17197e-07
-3.31794e-08
-2.10738e-07
-3.53474e-08
-2.0391e-07
-3.74081e-08
-1.96735e-07
-3.93465e-08
-1.89235e-07
-4.11484e-08
-1.81436e-07
-4.27995e-08
-1.73365e-07
-4.42867e-08
-1.65051e-07
-4.55973e-08
-1.56527e-07
-4.67199e-08
-1.47825e-07
-4.76443e-08
-1.38982e-07
-4.83617e-08
-1.30034e-07
-4.88647e-08
-1.21019e-07
-4.91478e-08
-1.11975e-07
-4.92071e-08
-1.02942e-07
-4.90409e-08
-9.39599e-08
-4.8649e-08
-8.50672e-08
-4.80336e-08
-7.63032e-08
-4.71987e-08
-6.77062e-08
-4.61502e-08
-5.93131e-08
-4.48958e-08
-5.11596e-08
-4.34453e-08
-4.32795e-08
-4.18097e-08
-3.57047e-08
-4.00017e-08
-2.84647e-08
-3.80355e-08
-2.15866e-08
-3.5926e-08
-1.50947e-08
-3.36893e-08
-9.01042e-09
-3.1342e-08
-3.35236e-09
-2.89014e-08
1.86396e-09
-2.63849e-08
6.62624e-09
-2.381e-08
1.09252e-08
-2.1194e-08
1.47547e-08
-1.85542e-08
1.81116e-08
-1.59074e-08
2.09959e-08
-1.32697e-08
2.34103e-08
-1.06571e-08
2.53605e-08
-8.08476e-09
2.68552e-08
-5.56755e-09
2.79055e-08
-3.11991e-09
2.85254e-08
-7.56052e-10
2.87314e-08
1.5098e-09
2.85429e-08
3.66323e-09
2.79819e-08
5.68929e-09
2.70732e-08
7.5722e-09
2.58447e-08
9.29495e-09
2.43272e-08
1.0839e-08
2.2555e-08
1.21836e-08
2.05658e-08
1.3306e-08
1.84013e-08
1.41805e-08
1.61074e-08
1.47787e-08
1.37342e-08
1.50691e-08
1.13371e-08
1.50177e-08
8.97691e-09
1.4588e-08
6.72068e-09
1.37419e-08
4.643e-09
1.24414e-08
2.82776e-09
1.06494e-08
1.37077e-09
8.33226e-09
3.83692e-10
5.46112e-09
2.01517e-09
-4.46467e-10
1.45818e-09
-1.70916e-09
4.86135e-09
-3.71755e-09
8.48886e-09
-6.40504e-09
1.21541e-08
-9.70784e-09
1.57237e-08
-1.35646e-08
1.91015e-08
-1.79167e-08
2.22234e-08
-2.27079e-08
2.50515e-08
-2.78852e-08
2.75693e-08
-3.3399e-08