/*--------------------------------*- C++ -*----------------------------------*\
| =========                 |                                                 |
| \\      /  F ield         | OpenFOAM: The Open Source CFD Toolbox           |
|  \\    /   O peration     | Version:  2112                                  |
|   \\  /    A nd           | Website:  www.openfoam.com                      |
|    \\/     M anipulation  |                                                 |
\*---------------------------------------------------------------------------*/
FoamFile
{
    version     2.0;
    format      ascii;
    arch        "LSB;label=32;scalar=64";
    class       volVectorField;
    location    "0.9";
    object      U;
}
// * * * * * * * * * * * * * * * * * * * * * * * * * * * * * * * * * * * * * //

dimensions      [0 1 -1 0 0 0 0];

internalField   nonuniform List<vector> 
16641
(
(3.34627e-06 -3.48109e-06 0)
(1.20554e-05 -5.3142e-06 0)
(2.02644e-05 -3.95244e-06 0)
(2.23686e-05 -1.39611e-06 0)
(1.62073e-05 1.45889e-06 0)
(1.61703e-06 4.17535e-06 0)
(-2.08994e-05 6.58938e-06 0)
(-5.05088e-05 8.64805e-06 0)
(-8.62548e-05 1.03511e-05 0)
(-0.000127178 1.17262e-05 0)
(-0.000172374 1.28134e-05 0)
(-0.00022103 1.36564e-05 0)
(-0.000272438 1.4296e-05 0)
(-0.000325995 1.47699e-05 0)
(-0.000381202 1.51124e-05 0)
(-0.000437656 1.53542e-05 0)
(-0.000495038 1.55212e-05 0)
(-0.000553104 1.56351e-05 0)
(-0.000611675 1.57137e-05 0)
(-0.000670622 1.57714e-05 0)
(-0.000729859 1.58189e-05 0)
(-0.000789333 1.58636e-05 0)
(-0.000849012 1.59112e-05 0)
(-0.000908884 1.59654e-05 0)
(-0.000968947 1.60278e-05 0)
(-0.0010292 1.6098e-05 0)
(-0.00108965 1.6175e-05 0)
(-0.00115029 1.62569e-05 0)
(-0.00121112 1.63409e-05 0)
(-0.00127211 1.64237e-05 0)
(-0.00133324 1.65018e-05 0)
(-0.00139447 1.65709e-05 0)
(-0.00145576 1.66268e-05 0)
(-0.00151702 1.66653e-05 0)
(-0.00157819 1.66824e-05 0)
(-0.00163916 1.66736e-05 0)
(-0.00169984 1.66346e-05 0)
(-0.0017601 1.65611e-05 0)
(-0.00181981 1.64494e-05 0)
(-0.00187882 1.62954e-05 0)
(-0.00193696 1.60952e-05 0)
(-0.00199407 1.58454e-05 0)
(-0.00204997 1.55424e-05 0)
(-0.00210445 1.51829e-05 0)
(-0.00215732 1.47635e-05 0)
(-0.00220836 1.42813e-05 0)
(-0.00225736 1.37341e-05 0)
(-0.00230407 1.31192e-05 0)
(-0.00234828 1.24345e-05 0)
(-0.00238973 1.16777e-05 0)
(-0.00242818 1.08472e-05 0)
(-0.00246339 9.94201e-06 0)
(-0.0024951 8.96148e-06 0)
(-0.00252307 7.90528e-06 0)
(-0.00254705 6.77339e-06 0)
(-0.00256679 5.56634e-06 0)
(-0.00258205 4.28548e-06 0)
(-0.00259261 2.9331e-06 0)
(-0.00259824 1.51225e-06 0)
(-0.00259874 2.63628e-08 0)
(-0.0025939 -1.52038e-06 0)
(-0.00258356 -3.12272e-06 0)
(-0.00256755 -4.77428e-06 0)
(-0.00254575 -6.4677e-06 0)
(-0.00251804 -8.19488e-06 0)
(-0.00248436 -9.9469e-06 0)
(-0.00244465 -1.17138e-05 0)
(-0.0023989 -1.34849e-05 0)
(-0.00234714 -1.52483e-05 0)
(-0.00228943 -1.69917e-05 0)
(-0.00222588 -1.8702e-05 0)
(-0.00215663 -2.03658e-05 0)
(-0.00208189 -2.1969e-05 0)
(-0.00200188 -2.34976e-05 0)
(-0.00191689 -2.49376e-05 0)
(-0.00182725 -2.62753e-05 0)
(-0.00173332 -2.74973e-05 0)
(-0.00163551 -2.8591e-05 0)
(-0.00153426 -2.95446e-05 0)
(-0.00143007 -3.03474e-05 0)
(-0.00132345 -3.09902e-05 0)
(-0.00121493 -3.14652e-05 0)
(-0.00110508 -3.17664e-05 0)
(-0.000994479 -3.18892e-05 0)
(-0.000883716 -3.18313e-05 0)
(-0.000773388 -3.15917e-05 0)
(-0.00066409 -3.11722e-05 0)
(-0.000556411 -3.0576e-05 0)
(-0.000450924 -2.98084e-05 0)
(-0.000348186 -2.88765e-05 0)
(-0.000248728 -2.77891e-05 0)
(-0.000153052 -2.65569e-05 0)
(-6.16224e-05 -2.51918e-05 0)
(2.51314e-05 -2.37071e-05 0)
(0.000106824 -2.21163e-05 0)
(0.000183115 -2.04346e-05 0)
(0.000253711 -1.86767e-05 0)
(0.000318366 -1.68578e-05 0)
(0.000376883 -1.49932e-05 0)
(0.000429112 -1.30981e-05 0)
(0.000474953 -1.11869e-05 0)
(0.000514351 -9.27269e-06 0)
(0.000547294 -7.36863e-06 0)
(0.000573814 -5.48713e-06 0)
(0.00059398 -3.63935e-06 0)
(0.000607899 -1.83487e-06 0)
(0.000615711 -8.23493e-08 0)
(0.000617585 1.61015e-06 0)
(0.00061372 3.236e-06 0)
(0.000604341 4.78847e-06 0)
(0.000589698 6.2619e-06 0)
(0.000570064 7.65062e-06 0)
(0.000545738 8.94868e-06 0)
(0.000517048 1.01488e-05 0)
(0.000484351 1.12425e-05 0)
(0.000448044 1.22196e-05 0)
(0.000408567 1.30658e-05 0)
(0.000366421 1.37629e-05 0)
(0.000322177 1.42856e-05 0)
(0.000276505 1.45993e-05 0)
(0.000230192 1.46571e-05 0)
(0.000184181 1.43954e-05 0)
(0.000139614 1.37269e-05 0)
(9.78801e-05 1.25331e-05 0)
(6.06732e-05 1.06614e-05 0)
(2.99919e-05 7.94625e-06 0)
(7.97277e-06 4.29809e-06 0)
(-3.22747e-06 4.19081e-08 0)
(-2.9255e-06 -2.9211e-06 0)
(5.16612e-06 -1.20498e-05 0)
(1.55771e-05 -1.56818e-05 0)
(1.97778e-05 -7.34946e-06 0)
(8.75007e-06 6.39093e-06 0)
(-2.15024e-05 2.19889e-05 0)
(-7.19155e-05 3.74648e-05 0)
(-0.000141841 5.17999e-05 0)
(-0.000229754 6.45241e-05 0)
(-0.000333667 7.54787e-05 0)
(-0.000451431 8.4685e-05 0)
(-0.000580924 9.22653e-05 0)
(-0.000720159 9.83917e-05 0)
(-0.000867344 0.000103256 0)
(-0.00102091 0.000107054 0)
(-0.00117953 0.000109972 0)
(-0.00134209 0.000112181 0)
(-0.00150769 0.000113834 0)
(-0.0016756 0.000115063 0)
(-0.00184528 0.00011598 0)
(-0.00201631 0.000116677 0)
(-0.00218837 0.000117226 0)
(-0.00236125 0.000117681 0)
(-0.00253481 0.000118085 0)
(-0.00270892 0.000118463 0)
(-0.00288354 0.00011883 0)
(-0.00305859 0.000119193 0)
(-0.00323404 0.000119549 0)
(-0.00340984 0.000119889 0)
(-0.00358591 0.000120198 0)
(-0.00376216 0.000120459 0)
(-0.00393849 0.00012065 0)
(-0.00411476 0.000120746 0)
(-0.00429078 0.000120724 0)
(-0.00446635 0.000120556 0)
(-0.00464122 0.000120216 0)
(-0.00481512 0.000119676 0)
(-0.00498772 0.000118911 0)
(-0.00515868 0.000117893 0)
(-0.0053276 0.000116598 0)
(-0.00549407 0.000115001 0)
(-0.00565763 0.000113077 0)
(-0.0058178 0.000110806 0)
(-0.00597406 0.000108166 0)
(-0.00612589 0.000105136 0)
(-0.00627271 0.000101698 0)
(-0.00641393 9.78367e-05 0)
(-0.00654897 9.35366e-05 0)
(-0.00667718 8.87847e-05 0)
(-0.00679795 8.35697e-05 0)
(-0.00691062 7.78827e-05 0)
(-0.00701453 7.17176e-05 0)
(-0.00710904 6.50706e-05 0)
(-0.00719349 5.79408e-05 0)
(-0.00726721 5.03304e-05 0)
(-0.00732958 4.22449e-05 0)
(-0.00737995 3.36932e-05 0)
(-0.00741771 2.46887e-05 0)
(-0.00744229 1.52494e-05 0)
(-0.00745311 5.39766e-06 0)
(-0.00744967 -4.84136e-06 0)
(-0.00743147 -1.54341e-05 0)
(-0.0073981 -2.63436e-05 0)
(-0.00734918 -3.75273e-05 0)
(-0.00728441 -4.89368e-05 0)
(-0.00720354 -6.05182e-05 0)
(-0.00710641 -7.22129e-05 0)
(-0.00699296 -8.39566e-05 0)
(-0.00686319 -9.56803e-05 0)
(-0.00671723 -0.00010731 0)
(-0.00655528 -0.000118768 0)
(-0.00637766 -0.000129974 0)
(-0.00618481 -0.000140844 0)
(-0.00597727 -0.000151293 0)
(-0.00575568 -0.000161235 0)
(-0.00552083 -0.000170587 0)
(-0.00527359 -0.000179264 0)
(-0.00501494 -0.000187186 0)
(-0.00474598 -0.000194278 0)
(-0.00446789 -0.000200468 0)
(-0.00418194 -0.000205694 0)
(-0.00388949 -0.0002099 0)
(-0.00359195 -0.000213038 0)
(-0.0032908 -0.000215071 0)
(-0.00298757 -0.000215973 0)
(-0.00268379 -0.000215727 0)
(-0.00238103 -0.000214329 0)
(-0.00208084 -0.000211788 0)
(-0.00178478 -0.000208121 0)
(-0.00149434 -0.00020336 0)
(-0.001211 -0.000197546 0)
(-0.000936153 -0.000190732 0)
(-0.000671135 -0.000182979 0)
(-0.00041719 -0.000174357 0)
(-0.000175465 -0.000164944 0)
(5.29968e-05 -0.000154824 0)
(0.000267264 -0.000144084 0)
(0.000466524 -0.000132815 0)
(0.000650086 -0.00012111 0)
(0.000817382 -0.000109063 0)
(0.000967971 -9.67664e-05 0)
(0.00110153 -8.43102e-05 0)
(0.00121787 -7.17816e-05 0)
(0.00131689 -5.9264e-05 0)
(0.00139863 -4.68363e-05 0)
(0.00146323 -3.4572e-05 0)
(0.0015109 -2.25396e-05 0)
(0.00154199 -1.08017e-05 0)
(0.0015569 5.83685e-07 0)
(0.00155614 1.15631e-05 0)
(0.00154027 2.20846e-05 0)
(0.00150995 3.20984e-05 0)
(0.00146591 4.15539e-05 0)
(0.00140896 5.03981e-05 0)
(0.00133999 5.85718e-05 0)
(0.00126 6.60053e-05 0)
(0.0011701 7.2616e-05 0)
(0.00107151 7.83007e-05 0)
(0.000965651 8.29307e-05 0)
(0.000854111 8.63429e-05 0)
(0.000738734 8.83308e-05 0)
(0.000621652 8.86338e-05 0)
(0.000505349 8.69265e-05 0)
(0.000392713 8.28092e-05 0)
(0.00028709 7.58093e-05 0)
(0.000192286 6.54211e-05 0)
(0.00011242 5.12485e-05 0)
(5.14812e-05 3.33485e-05 0)
(1.31234e-05 1.31728e-05 0)
(1.45941e-08 -3.23738e-06 0)
(4.04271e-06 -2.04118e-05 0)
(7.4727e-06 -1.98501e-05 0)
(-4.15536e-06 3.97911e-06 0)
(-3.94558e-05 3.94292e-05 0)
(-0.00010268 7.94408e-05 0)
(-0.000195027 0.000119668 0)
(-0.000315772 0.000157567 0)
(-0.000462992 0.000191799 0)
(-0.000634081 0.000221787 0)
(-0.000826133 0.000247426 0)
(-0.0010362 0.000268901 0)
(-0.00126146 0.000286563 0)
(-0.00149931 0.000300846 0)
(-0.00174744 0.000312217 0)
(-0.00200385 0.000321139 0)
(-0.00226683 0.000328049 0)
(-0.00253497 0.000333343 0)
(-0.00280713 0.000337371 0)
(-0.00308239 0.000340434 0)
(-0.00336004 0.00034278 0)
(-0.00363954 0.00034461 0)
(-0.00392047 0.000346082 0)
(-0.00420253 0.000347311 0)
(-0.00448549 0.000348377 0)
(-0.00476918 0.000349328 0)
(-0.00505344 0.000350187 0)
(-0.00533814 0.00035095 0)
(-0.00562314 0.000351601 0)
(-0.00590827 0.000352102 0)
(-0.00619336 0.000352409 0)
(-0.00647817 0.000352465 0)
(-0.00676245 0.000352207 0)
(-0.00704588 0.000351567 0)
(-0.0073281 0.000350477 0)
(-0.00760869 0.000348863 0)
(-0.00788719 0.000346652 0)
(-0.00816306 0.000343773 0)
(-0.00843575 0.000340154 0)
(-0.00870461 0.000335728 0)
(-0.00896899 0.000330427 0)
(-0.00922814 0.000324189 0)
(-0.00948132 0.000316954 0)
(-0.00972771 0.000308666 0)
(-0.00996646 0.000299274 0)
(-0.0101967 0.000288731 0)
(-0.0104175 0.000276995 0)
(-0.010628 0.00026403 0)
(-0.0108272 0.000249803 0)
(-0.0110141 0.00023429 0)
(-0.0111877 0.000217471 0)
(-0.0113471 0.000199336 0)
(-0.0114912 0.000179879 0)
(-0.0116191 0.000159105 0)
(-0.0117298 0.000137025 0)
(-0.0118224 0.000113661 0)
(-0.0118958 8.90458e-05 0)
(-0.0119493 6.32209e-05 0)
(-0.0119819 3.62413e-05 0)
(-0.0119929 8.17378e-06 0)
(-0.0119815 -2.09063e-05 0)
(-0.0119471 -5.09022e-05 0)
(-0.011889 -8.17083e-05 0)
(-0.0118067 -0.000113205 0)
(-0.0116998 -0.000145256 0)
(-0.011568 -0.000177713 0)
(-0.0114111 -0.000210414 0)
(-0.0112291 -0.000243182 0)
(-0.0110221 -0.000275829 0)
(-0.0107902 -0.000308154 0)
(-0.0105338 -0.000339948 0)
(-0.0102535 -0.000370994 0)
(-0.00994995 -0.000401067 0)
(-0.00962401 -0.000429942 0)
(-0.0092767 -0.000457389 0)
(-0.0089092 -0.000483184 0)
(-0.00852286 -0.000507106 0)
(-0.0081192 -0.000528943 0)
(-0.00769985 -0.000548492 0)
(-0.00726663 -0.000565569 0)
(-0.00682144 -0.000580005 0)
(-0.00636632 -0.000591652 0)
(-0.00590342 -0.000600384 0)
(-0.00543494 -0.000606103 0)
(-0.00496317 -0.000608738 0)
(-0.00449043 -0.000608245 0)
(-0.00401907 -0.000604612 0)
(-0.00355142 -0.000597858 0)
(-0.00308981 -0.000588031 0)
(-0.0026365 -0.000575211 0)
(-0.00219373 -0.000559505 0)
(-0.00176359 -0.000541051 0)
(-0.00134812 -0.000520008 0)
(-0.000949216 -0.00049656 0)
(-0.000568628 -0.000470912 0)
(-0.000207964 -0.000443283 0)
(0.000131333 -0.000413905 0)
(0.00044799 -0.000383019 0)
(0.000740916 -0.000350877 0)
(0.0010092 -0.000317727 0)
(0.00125212 -0.000283817 0)
(0.00146913 -0.000249393 0)
(0.00165987 -0.000214693 0)
(0.00182415 -0.000179946 0)
(0.00196195 -0.000145369 0)
(0.00207341 -0.00011117 0)
(0.00215884 -7.7541e-05 0)
(0.00221867 -4.46633e-05 0)
(0.0022535 -1.27071e-05 0)
(0.00226405 1.81672e-05 0)
(0.00225115 4.78042e-05 0)
(0.0022158 7.60516e-05 0)
(0.00215908 0.000102753 0)
(0.00208225 0.000127745 0)
(0.00198667 0.000150844 0)
(0.00187389 0.000171843 0)
(0.00174563 0.000190497 0)
(0.00160382 0.00020651 0)
(0.00145064 0.000219524 0)
(0.00128854 0.0002291 0)
(0.00112034 0.000234702 0)
(0.000949252 0.00023568 0)
(0.000778921 0.000231265 0)
(0.000613503 0.000220572 0)
(0.000457656 0.000202649 0)
(0.000316505 0.000176612 0)
(0.000195372 0.00014198 0)
(9.92262e-05 9.93038e-05 0)
(3.32235e-05 5.14927e-05 0)
(4.23423e-06 7.88983e-06 0)
(1.54038e-06 -2.26094e-05 0)
(-6.68477e-06 -8.42845e-06 0)
(-4.12722e-05 3.95958e-05 0)
(-0.000108194 0.000105133 0)
(-0.000210833 0.000177844 0)
(-0.000350106 0.000250955 0)
(-0.000524971 0.000320267 0)
(-0.000733106 0.000383413 0)
(-0.000971435 0.000439264 0)
(-0.00123651 0.0004875 0)
(-0.00152481 0.000528326 0)
(-0.00183289 0.00056227 0)
(-0.00215756 0.000590037 0)
(-0.00249595 0.000612411 0)
(-0.00284551 0.000630193 0)
(-0.00320407 0.000644149 0)
(-0.00356979 0.000654988 0)
(-0.00394115 0.000663342 0)
(-0.00431691 0.000669758 0)
(-0.00469609 0.000674696 0)
(-0.0050779 0.00067853 0)
(-0.00546175 0.000681555 0)
(-0.00584714 0.000683993 0)
(-0.0062337 0.000685998 0)
(-0.00662113 0.000687667 0)
(-0.00700914 0.000689046 0)
(-0.0073975 0.00069014 0)
(-0.00778594 0.000690918 0)
(-0.00817419 0.000691321 0)
(-0.00856194 0.000691265 0)
(-0.00894884 0.00069065 0)
(-0.00933448 0.000689363 0)
(-0.00971841 0.000687279 0)
(-0.0101001 0.000684271 0)
(-0.0104789 0.000680205 0)
(-0.0108543 0.000674947 0)
(-0.0112255 0.000668365 0)
(-0.0115916 0.000660329 0)
(-0.0119519 0.000650713 0)
(-0.0123055 0.000639395 0)
(-0.0126513 0.000626263 0)
(-0.0129884 0.000611207 0)
(-0.0133156 0.000594128 0)
(-0.0136319 0.000574935 0)
(-0.0139362 0.000553545 0)
(-0.0142271 0.000529887 0)
(-0.0145036 0.000503898 0)
(-0.0147644 0.000475527 0)
(-0.0150082 0.000444735 0)
(-0.0152338 0.000411494 0)
(-0.0154399 0.000375792 0)
(-0.0156253 0.000337628 0)
(-0.0157886 0.00029702 0)
(-0.0159288 0.000253998 0)
(-0.0160446 0.000208612 0)
(-0.0161348 0.000160931 0)
(-0.0161983 0.000111042 0)
(-0.0162342 5.90548e-05 0)
(-0.0162414 5.09997e-06 0)
(-0.0162189 -5.06616e-05 0)
(-0.0161661 -0.000108057 0)
(-0.0160822 -0.000166882 0)
(-0.0159666 -0.000226907 0)
(-0.0158188 -0.000287876 0)
(-0.0156385 -0.00034951 0)
(-0.0154256 -0.000411504 0)
(-0.01518 -0.00047353 0)
(-0.0149019 -0.000535238 0)
(-0.0145916 -0.000596257 0)
(-0.0142497 -0.000656202 0)
(-0.0138768 -0.000714673 0)
(-0.013474 -0.000771258 0)
(-0.0130423 -0.000825543 0)
(-0.012583 -0.000877112 0)
(-0.0120978 -0.000925551 0)
(-0.0115883 -0.000970459 0)
(-0.0110565 -0.00101145 0)
(-0.0105045 -0.00104816 0)
(-0.00993465 -0.00108024 0)
(-0.00934935 -0.00110739 0)
(-0.0087512 -0.00112934 0)
(-0.00814292 -0.00114587 0)
(-0.00752735 -0.00115678 0)
(-0.00690738 -0.00116195 0)
(-0.00628596 -0.00116131 0)
(-0.00566607 -0.00115481 0)
(-0.00505071 -0.0011425 0)
(-0.00444282 -0.00112447 0)
(-0.00384532 -0.00110084 0)
(-0.00326103 -0.00107182 0)
(-0.00269268 -0.00103765 0)
(-0.00214287 -0.00099862 0)
(-0.00161404 -0.00095506 0)
(-0.00110847 -0.00090734 0)
(-0.000628249 -0.000855858 0)
(-0.000175269 -0.000801039 0)
(0.000248791 -0.000743325 0)
(0.000642476 -0.00068317 0)
(0.00100457 -0.000621033 0)
(0.00133406 -0.000557375 0)
(0.0016302 -0.00049265 0)
(0.00189245 -0.000427301 0)
(0.00212049 -0.000361758 0)
(0.00231424 -0.000296431 0)
(0.00247382 -0.00023171 0)
(0.00259954 -0.000167968 0)
(0.00269191 -0.000105552 0)
(0.00275166 -4.47958e-05 0)
(0.00277964 1.3984e-05 0)
(0.00277693 7.04794e-05 0)
(0.00274477 0.000124384 0)
(0.00268454 0.000175387 0)
(0.00259786 0.000223155 0)
(0.0024865 0.000267328 0)
(0.00235247 0.000307498 0)
(0.00219801 0.00034319 0)
(0.00202562 0.000373845 0)
(0.00183813 0.000398799 0)
(0.0016387 0.000417255 0)
(0.00143091 0.000428268 0)
(0.0012188 0.000430726 0)
(0.00100688 0.000423356 0)
(0.000800215 0.000404755 0)
(0.000604357 0.00037349 0)
(0.000425334 0.00032833 0)
(0.000269343 0.000268707 0)
(0.000142254 0.000195501 0)
(5.11707e-05 0.000112438 0)
(7.85425e-06 2.97934e-05 0)
(-1.4575e-06 -1.62429e-05 0)
(-2.36794e-05 2.35894e-05 0)
(-8.54825e-05 0.000105323 0)
(-0.000188815 0.000209031 0)
(-0.000335359 0.000321642 0)
(-0.000525294 0.000434263 0)
(-0.000756979 0.000541169 0)
(-0.00102758 0.000638993 0)
(-0.00133355 0.000726028 0)
(-0.001671 0.000801715 0)
(-0.00203593 0.000866259 0)
(-0.00242447 0.000920354 0)
(-0.00283296 0.000964984 0)
(-0.00325809 0.00100127 0)
(-0.00369691 0.00103039 0)
(-0.00414687 0.00105347 0)
(-0.00460576 0.00107157 0)
(-0.00507176 0.00108565 0)
(-0.00554335 0.00109654 0)
(-0.0060193 0.00110495 0)
(-0.0064986 0.00111144 0)
(-0.00698045 0.0011165 0)
(-0.00746419 0.00112045 0)
(-0.0079493 0.00112356 0)
(-0.00843531 0.00112596 0)
(-0.00892181 0.00112776 0)
(-0.00940843 0.00112895 0)
(-0.00989476 0.0011295 0)
(-0.0103804 0.00112931 0)
(-0.0108649 0.00112827 0)
(-0.0113478 0.00112623 0)
(-0.0118285 0.001123 0)
(-0.0123064 0.0011184 0)
(-0.0127808 0.00111224 0)
(-0.013251 0.0011043 0)
(-0.013716 0.00109438 0)
(-0.014175 0.00108229 0)
(-0.014627 0.00106781 0)
(-0.0150709 0.00105076 0)
(-0.0155057 0.00103096 0)
(-0.01593 0.00100823 0)
(-0.0163427 0.000982407 0)
(-0.0167424 0.000953347 0)
(-0.0171279 0.000920914 0)
(-0.0174977 0.000884989 0)
(-0.0178504 0.000845468 0)
(-0.0181845 0.000802265 0)
(-0.0184987 0.000755313 0)
(-0.0187914 0.00070456 0)
(-0.0190611 0.000649976 0)
(-0.0193064 0.000591555 0)
(-0.0195258 0.000529308 0)
(-0.0197179 0.000463273 0)
(-0.0198812 0.000393513 0)
(-0.0200145 0.000320118 0)
(-0.0201163 0.000243205 0)
(-0.0201855 0.000162924 0)
(-0.0202208 7.94549e-05 0)
(-0.0202212 -6.98772e-06 0)
(-0.0201856 -9.61478e-05 0)
(-0.0201132 -0.000187745 0)
(-0.0200032 -0.000281455 0)
(-0.019855 -0.000376914 0)
(-0.019668 -0.000473723 0)
(-0.0194421 -0.000571441 0)
(-0.0191769 -0.000669594 0)
(-0.0188727 -0.000767672 0)
(-0.0185295 -0.000865131 0)
(-0.018148 -0.000961401 0)
(-0.0177286 -0.00105588 0)
(-0.0172724 -0.00114797 0)
(-0.0167805 -0.00123701 0)
(-0.0162543 -0.00132239 0)
(-0.0156952 -0.00140345 0)
(-0.0151053 -0.00147958 0)
(-0.0144865 -0.00155014 0)
(-0.0138412 -0.00161456 0)
(-0.0131718 -0.00167226 0)
(-0.0124811 -0.00172273 0)
(-0.0117719 -0.0017655 0)
(-0.0110473 -0.00180016 0)
(-0.0103105 -0.00182635 0)
(-0.00956485 -0.00184379 0)
(-0.00881371 -0.00185229 0)
(-0.00806058 -0.0018517 0)
(-0.00730895 -0.001842 0)
(-0.00656236 -0.00182322 0)
(-0.00582428 -0.00179549 0)
(-0.00509816 -0.00175903 0)
(-0.00438735 -0.00171411 0)
(-0.00369507 -0.00166111 0)
(-0.00302443 -0.00160047 0)
(-0.00237833 -0.0015327 0)
(-0.00175952 -0.00145834 0)
(-0.0011705 -0.00137802 0)
(-0.00061356 -0.00129237 0)
(-9.07437e-05 -0.00120208 0)
(0.000396167 -0.00110785 0)
(0.000845655 -0.00101039 0)
(0.00125647 -0.000910403 0)
(0.00162764 -0.000808603 0)
(0.00195844 -0.000705682 0)
(0.00224845 -0.000602312 0)
(0.00249747 -0.00049914 0)
(0.00270558 -0.000396786 0)
(0.00287309 -0.000295843 0)
(0.00300055 -0.000196872 0)
(0.00308875 -0.000100411 0)
(0.00313869 -6.97892e-06 0)
(0.00315158 8.29203e-05 0)
(0.00312888 0.000168783 0)
(0.00307222 0.000250092 0)
(0.00298351 0.000326305 0)
(0.00286487 0.000396832 0)
(0.00271867 0.000461012 0)
(0.00254759 0.000518093 0)
(0.00235461 0.000567199 0)
(0.00214308 0.000607308 0)
(0.00191672 0.000637218 0)
(0.00167971 0.000655535 0)
(0.00143672 0.000660656 0)
(0.00119292 0.000650786 0)
(0.000954025 0.000624004 0)
(0.000726263 0.000578399 0)
(0.000516374 0.000512357 0)
(0.000331352 0.000425067 0)
(0.000178055 0.000317308 0)
(6.5666e-05 0.000192665 0)
(1.05778e-05 6.04167e-05 0)
(-4.54051e-06 -4.60885e-07 0)
(-4.17829e-05 7.86213e-05 0)
(-0.000133104 0.000204498 0)
(-0.000275692 0.0003548 0)
(-0.000469018 0.000514374 0)
(-0.000712164 0.000672637 0)
(-0.00100262 0.000822598 0)
(-0.00133689 0.000960029 0)
(-0.00171089 0.00108272 0)
(-0.00212029 0.00118991 0)
(-0.00256068 0.00128181 0)
(-0.00302781 0.0013593 0)
(-0.00351767 0.00142366 0)
(-0.0040266 0.00147635 0)
(-0.00455134 0.00151895 0)
(-0.00508901 0.00155297 0)
(-0.00563714 0.00157985 0)
(-0.00619365 0.0016009 0)
(-0.00675677 0.00161726 0)
(-0.00732505 0.0016299 0)
(-0.00789729 0.00163964 0)
(-0.0084725 0.00164711 0)
(-0.00904986 0.0016528 0)
(-0.00962866 0.00165707 0)
(-0.0102083 0.00166014 0)
(-0.0107882 0.00166212 0)
(-0.0113679 0.00166304 0)
(-0.0119468 0.00166286 0)
(-0.0125244 0.00166144 0)
(-0.0131 0.00165862 0)
(-0.0136731 0.0016542 0)
(-0.0142429 0.00164793 0)
(-0.0148086 0.00163954 0)
(-0.0153694 0.00162878 0)
(-0.0159243 0.00161534 0)
(-0.0164723 0.00159896 0)
(-0.0170124 0.00157934 0)
(-0.0175432 0.00155622 0)
(-0.0180636 0.00152933 0)
(-0.0185722 0.00149842 0)
(-0.0190676 0.00146326 0)
(-0.0195485 0.00142362 0)
(-0.0200132 0.00137931 0)
(-0.0204603 0.00133016 0)
(-0.0208881 0.001276 0)
(-0.0212951 0.00121672 0)
(-0.0216797 0.00115219 0)
(-0.0220401 0.00108235 0)
(-0.0223747 0.00100713 0)
(-0.0226819 0.000926508 0)
(-0.0229601 0.000840495 0)
(-0.0232076 0.000749122 0)
(-0.0234228 0.000652459 0)
(-0.0236043 0.000550609 0)
(-0.0237506 0.000443715 0)
(-0.0238601 0.000331957 0)
(-0.0239316 0.000215559 0)
(-0.0239639 9.4786e-05 0)
(-0.0239556 -3.00467e-05 0)
(-0.0239059 -0.000158582 0)
(-0.0238137 -0.000290405 0)
(-0.0236782 -0.000425053 0)
(-0.0234989 -0.000562012 0)
(-0.0232752 -0.000700716 0)
(-0.0230068 -0.000840546 0)
(-0.0226936 -0.000980836 0)
(-0.0223358 -0.00112087 0)
(-0.0219336 -0.00125988 0)
(-0.0214877 -0.00139708 0)
(-0.0209987 -0.00153164 0)
(-0.0204678 -0.00166269 0)
(-0.0198962 -0.00178935 0)
(-0.0192856 -0.00191075 0)
(-0.0186377 -0.00202599 0)
(-0.0179545 -0.00213419 0)
(-0.0172386 -0.0022345 0)
(-0.0164923 -0.00232609 0)
(-0.0157186 -0.00240819 0)
(-0.0149205 -0.00248006 0)
(-0.0141012 -0.00254107 0)
(-0.0132641 -0.00259062 0)
(-0.0124129 -0.00262823 0)
(-0.0115513 -0.0026535 0)
(-0.0106831 -0.00266615 0)
(-0.00981226 -0.00266599 0)
(-0.00894268 -0.00265295 0)
(-0.00807835 -0.0026271 0)
(-0.00722323 -0.00258858 0)
(-0.0063812 -0.0025377 0)
(-0.00555606 -0.00247484 0)
(-0.00475149 -0.0024005 0)
(-0.00397102 -0.00231529 0)
(-0.00321799 -0.0022199 0)
(-0.00249553 -0.0021151 0)
(-0.00180653 -0.00200175 0)
(-0.00115364 -0.00188073 0)
(-0.000539243 -0.00175299 0)
(3.45859e-05 -0.00161951 0)
(0.000566052 -0.00148128 0)
(0.00105366 -0.0013393 0)
(0.00149624 -0.00119457 0)
(0.00189289 -0.00104806 0)
(0.00224305 -0.000900739 0)
(0.00254643 -0.000753519 0)
(0.00280304 -0.000607292 0)
(0.00301318 -0.000462911 0)
(0.0031774 -0.000321189 0)
(0.00329654 -0.000182911 0)
(0.0033717 -4.88333e-05 0)
(0.00340422 8.02999e-05 0)
(0.00339571 0.000203747 0)
(0.00334803 0.000320748 0)
(0.0032633 0.000430507 0)
(0.00314393 0.000532163 0)
(0.00299262 0.000624763 0)
(0.00281238 0.000707235 0)
(0.0026066 0.000778348 0)
(0.00237903 0.000836685 0)
(0.00213386 0.000880614 0)
(0.00187573 0.000908262 0)
(0.00160979 0.000917518 0)
(0.00134173 0.000906059 0)
(0.00107777 0.000871425 0)
(0.00082471 0.000811189 0)
(0.000589929 0.000723247 0)
(0.000381208 0.000606308 0)
(0.000206446 0.000460572 0)
(7.67901e-05 0.000288688 0)
(1.2518e-05 9.77994e-05 0)
(-7.56279e-06 2.49364e-05 0)
(-6.01131e-05 0.00015772 0)
(-0.000181956 0.000338872 0)
(-0.00036525 0.000544539 0)
(-0.000606976 0.000758151 0)
(-0.000904851 0.000967917 0)
(-0.00125529 0.00116591 0)
(-0.00165396 0.00134727 0)
(-0.00209617 0.00150944 0)
(-0.00257708 0.0016515 0)
(-0.00309191 0.00177377 0)
(-0.00363603 0.00187732 0)
(-0.00420515 0.00196374 0)
(-0.00479533 0.0020349 0)
(-0.00540302 0.00209275 0)
(-0.00602513 0.00213922 0)
(-0.00665895 0.00217616 0)
(-0.00730218 0.00220522 0)
(-0.00795286 0.00222788 0)
(-0.00860934 0.0022454 0)
(-0.00927024 0.00225883 0)
(-0.00993442 0.00226899 0)
(-0.0106009 0.00227654 0)
(-0.0112688 0.00228193 0)
(-0.0119373 0.00228547 0)
(-0.0126058 0.0022873 0)
(-0.0132736 0.00228747 0)
(-0.01394 0.00228591 0)
(-0.0146043 0.00228247 0)
(-0.0152657 0.00227693 0)
(-0.0159235 0.00226903 0)
(-0.0165768 0.00225844 0)
(-0.0172245 0.00224484 0)
(-0.0178658 0.00222787 0)
(-0.0184994 0.00220716 0)
(-0.0191242 0.00218234 0)
(-0.0197389 0.00215306 0)
(-0.0203421 0.00211896 0)
(-0.0209324 0.0020797 0)
(-0.0215083 0.00203497 0)
(-0.0220682 0.00198447 0)
(-0.0226105 0.00192793 0)
(-0.0231336 0.00186511 0)
(-0.0236357 0.00179579 0)
(-0.024115 0.00171979 0)
(-0.0245699 0.00163694 0)
(-0.0249986 0.00154714 0)
(-0.0253992 0.0014503 0)
(-0.02577 0.00134636 0)
(-0.0261092 0.00123532 0)
(-0.0264151 0.0011172 0)
(-0.026686 0.000992061 0)
(-0.0269202 0.000860024 0)
(-0.0271161 0.000721239 0)
(-0.0272722 0.000575911 0)
(-0.0273869 0.000424293 0)
(-0.0274588 0.000266692 0)
(-0.0274866 0.000103473 0)
(-0.0274692 -6.49432e-05 0)
(-0.0274054 -0.000238073 0)
(-0.0272942 -0.000415367 0)
(-0.0271349 -0.000596211 0)
(-0.0269269 -0.000779926 0)
(-0.0266696 -0.000965765 0)
(-0.0263627 -0.00115292 0)
(-0.0260063 -0.0013405 0)
(-0.0256004 -0.00152759 0)
(-0.0251455 -0.00171318 0)
(-0.0246421 -0.00189623 0)
(-0.0240911 -0.00207565 0)
(-0.0234937 -0.00225033 0)
(-0.0228514 -0.00241912 0)
(-0.0221658 -0.00258085 0)
(-0.0214388 -0.00273438 0)
(-0.0206729 -0.00287856 0)
(-0.0198704 -0.00301226 0)
(-0.0190343 -0.00313441 0)
(-0.0181675 -0.00324399 0)
(-0.0172735 -0.00334005 0)
(-0.0163557 -0.00342173 0)
(-0.0154178 -0.00348828 0)
(-0.0144639 -0.00353904 0)
(-0.0134979 -0.00357349 0)
(-0.0125241 -0.00359124 0)
(-0.0115468 -0.00359204 0)
(-0.0105703 -0.0035758 0)
(-0.009599 -0.00354256 0)
(-0.00863722 -0.00349254 0)
(-0.00768927 -0.00342609 0)
(-0.00675936 -0.00334371 0)
(-0.00585158 -0.00324604 0)
(-0.00496984 -0.00313387 0)
(-0.00411788 -0.00300809 0)
(-0.0032992 -0.0028697 0)
(-0.00251705 -0.0027198 0)
(-0.00177442 -0.00255956 0)
(-0.00107399 -0.00239022 0)
(-0.00041814 -0.00221306 0)
(0.000191077 -0.00202939 0)
(0.000751934 -0.00184051 0)
(0.00126305 -0.00164776 0)
(0.00172337 -0.00145243 0)
(0.00213218 -0.00125579 0)
(0.0024891 -0.00105908 0)
(0.00279408 -0.000863491 0)
(0.00304736 -0.000670167 0)
(0.00324951 -0.000480214 0)
(0.00340141 -0.000294697 0)
(0.00350421 -0.00011465 0)
(0.00355937 5.89125e-05 0)
(0.00356863 0.000224973 0)
(0.00353401 0.000382493 0)
(0.00345785 0.000530389 0)
(0.00334279 0.000667493 0)
(0.00319178 0.000792531 0)
(0.00300815 0.000904077 0)
(0.00279558 0.00100052 0)
(0.00255816 0.00108002 0)
(0.00230046 0.00114049 0)
(0.00202749 0.00117957 0)
(0.0017448 0.00119462 0)
(0.00145849 0.00118277 0)
(0.00117523 0.00114098 0)
(0.00090232 0.00106625 0)
(0.000647749 0.000955822 0)
(0.000420083 0.000807684 0)
(0.000228235 0.00062105 0)
(8.50585e-05 0.000397066 0)
(1.38588e-05 0.000140187 0)
(-1.04734e-05 5.98527e-05 0)
(-7.82309e-05 0.000261163 0)
(-0.000230795 0.000509144 0)
(-0.000455293 0.000779223 0)
(-0.000746091 0.00105402 0)
(-0.00109937 0.00132103 0)
(-0.00151032 0.00157174 0)
(-0.00197363 0.00180095 0)
(-0.0024839 0.00200589 0)
(-0.00303575 0.0021857 0)
(-0.00362397 0.00234081 0)
(-0.0042436 0.00247259 0)
(-0.00489006 0.00258299 0)
(-0.00555915 0.00267426 0)
(-0.00624713 0.00274878 0)
(-0.00695068 0.00280892 0)
(-0.00766693 0.00285692 0)
(-0.00839338 0.00289482 0)
(-0.00912791 0.00292443 0)
(-0.00986873 0.00294731 0)
(-0.0106143 0.00296473 0)
(-0.0113633 0.00297775 0)
(-0.0121146 0.00298716 0)
(-0.0128671 0.00299352 0)
(-0.0136201 0.00299721 0)
(-0.0143726 0.00299844 0)
(-0.0151238 0.00299725 0)
(-0.0158728 0.00299356 0)
(-0.0166189 0.00298718 0)
(-0.0173611 0.00297786 0)
(-0.0180984 0.00296524 0)
(-0.0188298 0.00294895 0)
(-0.0195542 0.00292858 0)
(-0.0202704 0.00290367 0)
(-0.0209771 0.00287378 0)
(-0.021673 0.00283846 0)
(-0.0223566 0.00279726 0)
(-0.0230263 0.00274976 0)
(-0.0236806 0.00269556 0)
(-0.0243179 0.00263426 0)
(-0.0249364 0.00256552 0)
(-0.0255343 0.00248902 0)
(-0.0261098 0.00240447 0)
(-0.0266612 0.00231162 0)
(-0.0271865 0.00221028 0)
(-0.0276839 0.00210027 0)
(-0.0281514 0.00198146 0)
(-0.0285873 0.00185378 0)
(-0.0289897 0.00171718 0)
(-0.0293567 0.00157168 0)
(-0.0296866 0.00141734 0)
(-0.0299775 0.00125426 0)
(-0.0302277 0.0010826 0)
(-0.0304357 0.000902575 0)
(-0.0305997 0.000714457 0)
(-0.0307183 0.00051858 0)
(-0.03079 0.000315341 0)
(-0.0308136 0.000105209 0)
(-0.0307876 -0.000111279 0)
(-0.0307112 -0.000333511 0)
(-0.0305833 -0.000560794 0)
(-0.030403 -0.000792356 0)
(-0.0301697 -0.00102735 0)
(-0.029883 -0.00126483 0)
(-0.0295426 -0.00150379 0)
(-0.0291484 -0.00174314 0)
(-0.0287006 -0.0019817 0)
(-0.0281995 -0.00221823 0)
(-0.0276459 -0.00245144 0)
(-0.0270407 -0.00267996 0)
(-0.026385 -0.00290241 0)
(-0.0256805 -0.00311734 0)
(-0.0249288 -0.00332332 0)
(-0.0241321 -0.00351889 0)
(-0.0232927 -0.00370261 0)
(-0.0224134 -0.0038731 0)
(-0.0214972 -0.00402899 0)
(-0.0205472 -0.00416901 0)
(-0.019567 -0.00429197 0)
(-0.0185605 -0.00439676 0)
(-0.0175315 -0.00448244 0)
(-0.0164843 -0.00454818 0)
(-0.0154234 -0.0045933 0)
(-0.0143531 -0.0046173 0)
(-0.0132781 -0.00461986 0)
(-0.0122032 -0.00460082 0)
(-0.0111331 -0.00456025 0)
(-0.0100724 -0.00449836 0)
(-0.00902595 -0.0044156 0)
(-0.00799827 -0.00431257 0)
(-0.00699383 -0.00419006 0)
(-0.00601695 -0.00404902 0)
(-0.00507173 -0.00389057 0)
(-0.00416204 -0.00371596 0)
(-0.00329147 -0.00352654 0)
(-0.00246335 -0.0033238 0)
(-0.00168068 -0.00310927 0)
(-0.000946112 -0.00288458 0)
(-0.000261956 -0.00265135 0)
(0.000369819 -0.00241127 0)
(0.000947624 -0.002166 0)
(0.00147025 -0.00191719 0)
(0.00193685 -0.00166646 0)
(0.00234692 -0.0014154 0)
(0.00270034 -0.00116553 0)
(0.00299733 -0.000918329 0)
(0.00323844 -0.000675224 0)
(0.00342457 -0.000437592 0)
(0.00355695 -0.000206776 0)
(0.00363712 1.59029e-05 0)
(0.00366692 0.000229124 0)
(0.00364855 0.000431541 0)
(0.00358451 0.000621749 0)
(0.00347762 0.000798253 0)
(0.00333109 0.000959425 0)
(0.00314848 0.00110346 0)
(0.00293373 0.00122836 0)
(0.00269125 0.00133182 0)
(0.00242586 0.00141131 0)
(0.00214293 0.00146394 0)
(0.00184834 0.00148654 0)
(0.00154853 0.00147564 0)
(0.0012506 0.0014276 0)
(0.000962307 0.00133872 0)
(0.000692244 0.00120549 0)
(0.00044972 0.00102491 0)
(0.000244579 0.000794916 0)
(9.10776e-05 0.000514822 0)
(1.47683e-05 0.000186188 0)
(-1.32586e-05 0.000104061 0)
(-9.59265e-05 0.000388763 0)
(-0.000278933 0.000715327 0)
(-0.000544498 0.00105905 0)
(-0.000884352 0.00140228 0)
(-0.00129306 0.00173222 0)
(-0.00176446 0.00204019 0)
(-0.00229218 0.00232088 0)
(-0.00287003 0.00257159 0)
(-0.00349203 0.00279161 0)
(-0.0041525 0.00298166 0)
(-0.00484615 0.00314344 0)
(-0.00556809 0.00327932 0)
(-0.00631391 0.003392 0)
(-0.00707966 0.00348431 0)
(-0.00786188 0.00355905 0)
(-0.00865751 0.00361888 0)
(-0.00946392 0.00366623 0)
(-0.0102789 0.00370325 0)
(-0.0111004 0.00373179 0)
(-0.0119268 0.00375338 0)
(-0.0127567 0.00376928 0)
(-0.0135887 0.00378042 0)
(-0.0144219 0.00378748 0)
(-0.015255 0.00379093 0)
(-0.0160871 0.003791 0)
(-0.0169172 0.00378774 0)