/*--------------------------------*- C++ -*----------------------------------*\
| =========                 |                                                 |
| \\      /  F ield         | OpenFOAM: The Open Source CFD Toolbox           |
|  \\    /   O peration     | Version:  2112                                  |
|   \\  /    A nd           | Website:  www.openfoam.com                      |
|    \\/     M anipulation  |                                                 |
\*---------------------------------------------------------------------------*/
FoamFile
{
    version     2.0;
    format      ascii;
    arch        "LSB;label=32;scalar=64";
    class       volScalarField;
    location    "10";
    object      p;
}
// * * * * * * * * * * * * * * * * * * * * * * * * * * * * * * * * * * * * * //

dimensions      [0 2 -2 0 0 0 0];

internalField   nonuniform List<scalar> 
16641
(
-2.17145e-08
-5.37186e-07
-4.87728e-06
-1.24198e-05
-2.22191e-05
-3.34736e-05
-4.55403e-05
-5.78883e-05
-7.01363e-05
-8.20107e-05
-9.33263e-05
-0.000103973
-0.000113894
-0.000123069
-0.000131507
-0.000139232
-0.000146278
-0.000152683
-0.000158481
-0.000163702
-0.000168369
-0.000172494
-0.000176082
-0.000179125
-0.000181607
-0.0001835
-0.000184769
-0.000185372
-0.000185256
-0.000184365
-0.000182636
-0.000180002
-0.000176391
-0.000171731
-0.000165946
-0.000158958
-0.000150691
-0.000141067
-0.000130012
-0.000117449
-0.000103307
-8.75169e-05
-7.00151e-05
-5.07411e-05
-2.9641e-05
-6.66893e-06
1.82133e-05
4.50354e-05
7.38164e-05
0.000104563
0.000137269
0.000171912
0.000208455
0.000246845
0.00028701
0.000328856
0.000372273
0.000417125
0.000463259
0.000510494
0.000558634
0.000607455
0.000656714
0.000706148
0.000755471
0.000804384
0.000852569
0.000899695
0.00094542
0.000989396
0.00103127
0.00107069
0.0011073
0.00114077
0.00117077
0.00119699
0.00121916
0.001237
0.0012503
0.00125886
0.00126254
0.00126123
0.00125484
0.00124338
0.00122686
0.00120535
0.00117898
0.00114792
0.00111236
0.00107256
0.00102881
0.000981419
0.000930748
0.000877162
0.000821054
0.000762828
0.000702895
0.000641672
0.000579573
0.000517006
0.000454369
0.000392047
0.000330407
0.000269793
0.000210531
0.000152921
9.724e-05
4.37402e-05
-7.34885e-06
-5.58214e-05
-0.000101493
-0.000144199
-0.000183793
-0.000220145
-0.000253138
-0.000282668
-0.000308643
-0.000330983
-0.000349619
-0.000364503
-0.000375612
-0.000382967
-0.000386652
-0.000386855
-0.000383928
-0.000378509
-0.00037166
-0.00036455
-0.000360052
1.96598e-07
-3.07415e-07
-4.05026e-06
-1.03671e-05
-1.85248e-05
-2.79769e-05
-3.82293e-05
-4.88644e-05
-5.95572e-05
-7.00581e-05
-8.01908e-05
-8.98365e-05
-9.89224e-05
-0.000107413
-0.000115293
-0.000122567
-0.000129251
-0.00013536
-0.000140917
-0.000145938
-0.000150433
-0.000154407
-0.000157859
-0.000160776
-0.000163138
-0.000164917
-0.000166079
-0.000166581
-0.000166372
-0.000165399
-0.000163602
-0.000160917
-0.000157275
-0.000152608
-0.000146844
-0.000139908
-0.000131729
-0.000122232
-0.000111346
-9.90001e-05
-8.51249e-05
-6.96562e-05
-5.25331e-05
-3.36995e-05
-1.31048e-05
9.29302e-06
3.35287e-05
5.96293e-05
8.76107e-05
0.000117476
0.000149216
0.000182807
0.000218211
0.000255373
0.000294218
0.000334657
0.000376577
0.000419846
0.000464312
0.000509801
0.00055612
0.000603053
0.000650364
0.000697798
0.000745082
0.000791925
0.000838023
0.000883061
0.00092671
0.000968636
0.0010085
0.00104598
0.00108072
0.00111242
0.00114076
0.00116545
0.00118623
0.00120285
0.00121509
0.00122279
0.0012258
0.00122401
0.00121737
0.00120587
0.00118952
0.00116841
0.00114265
0.0011124
0.00107786
0.00103928
0.000996918
0.000951094
0.000902137
0.000850404
0.000796266
0.00074011
0.000682329
0.000623321
0.00056348
0.000503198
0.000442853
0.000382814
0.000323431
0.000265035
0.000207935
0.000152421
9.87582e-05
4.71883e-05
-2.06817e-06
-4.88144e-05
-9.28738e-05
-0.000134091
-0.000172328
-0.000207464
-0.000239395
-0.000268032
-0.000293298
-0.000315136
-0.000333504
-0.000348385
-0.000359794
-0.000367793
-0.000372507
-0.000374153
-0.000373077
-0.000369823
-0.000365188
-0.000360068
-0.000355561
4.2067e-06
3.12456e-06
-6.26768e-07
-6.4869e-06
-1.3876e-05
-2.23713e-05
-3.15762e-05
-4.11532e-05
-5.08265e-05
-6.0384e-05
-6.96671e-05
-7.85629e-05
-8.69999e-05
-9.4935e-05
-0.000102347
-0.000109231
-0.00011559
-0.000121433
-0.00012677
-0.000131611
-0.000135957
-0.000139809
-0.00014316
-0.000145993
-0.000148286
-0.00015001
-0.00015113
-0.000151602
-0.000151378
-0.000150404
-0.000148623
-0.000145971
-0.000142384
-0.000137795
-0.000132132
-0.000125326
-0.000117306
-0.000108001
-9.73399e-05
-8.52555e-05
-7.16814e-05
-5.65548e-05
-3.98164e-05
-2.14123e-05
-1.29506e-06
2.05768e-05
4.42368e-05
6.971e-05
9.70106e-05
0.000126141
0.000157091
0.000189836
0.000224339
0.000260543
0.000298377
0.00033775
0.000378552
0.000420653
0.000463905
0.000508136
0.000553157
0.000598757
0.000644707
0.000690757
0.00073664
0.000782075
0.000826765
0.000870402
0.000912667
0.000953236
0.000991782
0.00102798
0.00106151
0.00109205
0.00111931
0.00114301
0.00116289
0.00117871
0.00119026
0.00119739
0.00119994
0.00119783
0.001191
0.00117943
0.00116316
0.00114226
0.00111684
0.00108706
0.00105313
0.00101527
0.000973757
0.000928889
0.000880992
0.000830412
0.000777513
0.000722671
0.000666269
0.000608692
0.000550326
0.000491549
0.000432731
0.000374227
0.000316378
0.000259502
0.000203902
0.000149855
9.76186e-05
4.74263e-05
-5.10773e-07
-4.60039e-05
-8.88848e-05
-0.000129006
-0.000166239
-0.000200473
-0.000231613
-0.000259582
-0.000284318
-0.000305776
-0.000323931
-0.000338782
-0.000350359
-0.000358736
-0.000364039
-0.000366464
-0.000366301
-0.000363983
-0.000360099
-0.000354959
-0.000348441
1.15974e-05
9.2141e-06
4.90471e-06
-1.02513e-06
-8.18953e-06
-1.62335e-05
-2.48416e-05
-3.37396e-05
-4.2705e-05
-5.1563e-05
-6.01805e-05
-6.84633e-05
-7.63469e-05
-8.37914e-05
-9.07765e-05
-9.72936e-05
-0.000103342
-0.000108927
-0.000114052
-0.000118719
-0.000122929
-0.000126676
-0.000129949
-0.000132727
-0.000134989
-0.000136702
-0.00013783
-0.000138329
-0.000138151
-0.000137243
-0.000135547
-0.000133002
-0.000129544
-0.000125107
-0.000119623
-0.000113021
-0.000105234
-9.61904e-05
-8.58227e-05
-7.40634e-05
-6.08479e-05
-4.61143e-05
-2.98042e-05
-1.1865e-05
7.75013e-06
2.90825e-05
5.21656e-05
7.70236e-05
0.000103671
0.000132109
0.00016233
0.00019431
0.000228012
0.00026338
0.000300344
0.000338817
0.000378691
0.000419837
0.000462111
0.000505344
0.000549352
0.000593927
0.000638843
0.000683856
0.000728705
0.000773112
0.000816785
0.000859423
0.000900711
0.000940332
0.000977963
0.00101328
0.00104598
0.00107574
0.00110227
0.0011253
0.00114457
0.00115985
0.00117094
0.00117766
0.0011799
0.00117755
0.00117056
0.00115891
0.00114265
0.00112184
0.0010966
0.00106708
0.0010335
0.000996065
0.000955059
0.000910777
0.000863537
0.000813686
0.000761582
0.000707595
0.000652105
0.00059549
0.00053813
0.000480397
0.000422653
0.000365246
0.000308508
0.000252753
0.000198272
0.000145337
9.41961e-05
4.50753e-05
-1.82307e-06
-4.63182e-05
-8.82509e-05
-0.000127482
-0.000163894
-0.000197384
-0.000227868
-0.000255278
-0.000279564
-0.00030069
-0.000318641
-0.000333422
-0.000345068
-0.000353644
-0.000359257
-0.000362062
-0.000362271
-0.000360204
-0.000356279
-0.000350324
-0.000341532
2.15552e-05
1.72935e-05
1.20183e-05
5.67359e-06
-1.58884e-06
-9.48077e-06
-1.77499e-05
-2.61892e-05
-3.46272e-05
-4.2927e-05
-5.09874e-05
-5.87348e-05
-6.61188e-05
-7.31096e-05
-7.96903e-05
-8.58538e-05
-9.16004e-05
-9.6932e-05
-0.000101849
-0.000106351
-0.000110436
-0.000114093
-0.000117308
-0.00012006
-0.000122322
-0.000124062
-0.000125242
-0.000125817
-0.00012574
-0.000124955
-0.000123407
-0.000121035
-0.000117775
-0.000113562
-0.000108328
-0.000102005
-9.45242e-05
-8.5817e-05
-7.58153e-05
-6.44527e-05
-5.16648e-05
-3.739e-05
-2.15706e-05
-4.15397e-06
1.49073e-05
3.56551e-05
5.81236e-05
8.23371e-05
0.000108311
0.000136048
0.000165543
0.000196772
0.0002297
0.000264274
0.000300427
0.000338073
0.000377107
0.000417404
0.000458822
0.000501198
0.000544348
0.000588071
0.000632142
0.000676322
0.000720353
0.00076396
0.000806856
0.000848741
0.000889305
0.000928232
0.000965204
0.000999901
0.00103201
0.00106123
0.00108726
0.00110982
0.00112868
0.00114359
0.00115435
0.0011608
0.00116281
0.00116028
0.00115315
0.00114143
0.00112514
0.00110435
0.00107918
0.0010498
0.00101639
0.0009792
0.000938487
0.000894553
0.000847717
0.000798324
0.000746732
0.000693311
0.000638436
0.000582487
0.000525839
0.000468859
0.000411906
0.000355324
0.000299438
0.000244556
0.000190965
0.000138928
8.86869e-05
4.04586e-05
-5.56276e-06
-4.92047e-05
-9.03175e-05
-0.000128771
-0.000164457
-0.000197283
-0.000227175
-0.000254074
-0.00027794
-0.000298744
-0.000316476
-0.000331146
-0.000342783
-0.000351438
-0.000357193
-0.000360155
-0.000360461
-0.000358331
-0.000354051
-0.000347061
-0.000335995
3.32891e-05
2.68199e-05
2.029e-05
1.32572e-05
5.62854e-06
-2.35889e-06
-1.05127e-05
-1.86879e-05
-2.67625e-05
-3.46412e-05
-4.22533e-05
-4.95494e-05
-5.64988e-05
-6.30833e-05
-6.92945e-05
-7.51319e-05
-8.05972e-05
-8.5692e-05
-9.04176e-05
-9.47732e-05
-9.87524e-05
-0.000102343
-0.000105528
-0.000108285
-0.000110585
-0.000112394
-0.000113674
-0.000114377
-0.000114456
-0.000113856
-0.00011252
-0.000110388
-0.000107396
-0.000103478
-9.85685e-05
-9.25982e-05
-8.54985e-05
-7.72012e-05
-6.76387e-05
-5.67441e-05
-4.44522e-05
-3.07015e-05
-1.54343e-05
1.40334e-06
1.98607e-05
3.99806e-05
6.1798e-05
8.53394e-05
0.000110622
0.000137651
0.000166423
0.000196917
0.000229101
0.000262924
0.000298324
0.000335217
0.000373501
0.000413055
0.000453741
0.000495399
0.000537848
0.000580889
0.000624304
0.000667852
0.000711279
0.000754314
0.000796669
0.000838045
0.000878134
0.000916621
0.000953186
0.000987511
0.00101928
0.00104819
0.00107394
0.00109626
0.0011149
0.00112961
0.0011402
0.00114651
0.00114838
0.00114575
0.00113853
0.00112674
0.0011104
0.00108958
0.0010644
0.00103503
0.00100166
0.000964537
0.000923921
0.000880116
0.000833446
0.000784256
0.000732907
0.000679773
0.00062523
0.000569658
0.000513432
0.000456921
0.00040048
0.00034445
0.000289156
0.000234899
0.000181962
0.000130604
8.10581e-05
3.35347e-05
-1.17804e-05
-5.4723e-05
-9.51525e-05
-0.000132949
-0.000168013
-0.000200261
-0.000229631
-0.000256072
-0.00027955
-0.000300045
-0.000317549
-0.00033207
-0.00034363
-0.000352265
-0.000358028
-0.000360981
-0.000361196
-0.000358814
-0.000354025
-0.00034598
-0.00033289
4.61392e-05
3.72557e-05
2.92775e-05
2.13529e-05
1.31536e-05
4.87073e-06
-3.35316e-06
-1.1429e-05
-1.92854e-05
-2.68663e-05
-3.41327e-05
-4.10626e-05
-4.7645e-05
-5.3877e-05
-5.97629e-05
-6.53097e-05
-7.0523e-05
-7.54082e-05
-7.9969e-05
-8.42033e-05
-8.81036e-05
-9.16573e-05
-9.48464e-05
-9.76461e-05
-0.000100026
-0.000101951
-0.00010338
-0.000104267
-0.00010456
-0.000104207
-0.00010315
-0.000101326
-9.86721e-05
-9.5123e-05
-9.06113e-05
-8.50682e-05
-7.84247e-05
-7.06122e-05
-6.15623e-05
-5.1207e-05
-3.94805e-05
-2.63204e-05
-1.16675e-05
4.53401e-06
2.23358e-05
4.17825e-05
6.2911e-05
8.57505e-05
0.000110321
0.000136632
0.000164682
0.000194453
0.000225917
0.000259029
0.000293727
0.000329934
0.000367551
0.000406461
0.000446528
0.000487598
0.000529492
0.000572015
0.000614948
0.000658056
0.000701083
0.00074376
0.000785799
0.0008269
0.000866755
0.000905045
0.000941449
0.000975646
0.00100732
0.00103615
0.00106185
0.00108414
0.00110275
0.00111745
0.00112803
0.00113431
0.00113618
0.00113351
0.00112627
0.00111443
0.00109803
0.00107715
0.0010519
0.00102245
0.000989002
0.000951796
0.000911105
0.000867236
0.000820517
0.0007713
0.00071995
0.000666846
0.00061237
0.000556906
0.000500832
0.000444518
0.000388321
0.000332583
0.000277626
0.000223753
0.000171241
0.000120345
7.12911e-05
2.42849e-05
-2.04953e-05
-6.28943e-05
-0.00010278
-0.000140043
-0.000174591
-0.000206353
-0.000235274
-0.000261311
-0.000284439
-0.000304641
-0.000321913
-0.000336259
-0.000347691
-0.000356232
-0.000361906
-0.000364739
-0.000364746
-0.000362012
-0.000356663
-0.000347647
-0.000332868
5.94717e-05
4.80893e-05
3.85387e-05
2.95849e-05
2.06673e-05
1.19406e-05
3.50533e-06
-4.60363e-06
-1.23602e-05
-1.97468e-05
-2.67586e-05
-3.33996e-05
-3.968e-05
-4.56156e-05
-5.12239e-05
-5.65201e-05
-6.15176e-05
-6.62277e-05
-7.06561e-05
-7.48014e-05
-7.86569e-05
-8.22102e-05
-8.54418e-05
-8.83259e-05
-9.08312e-05
-9.2921e-05
-9.45525e-05
-9.56784e-05
-9.62476e-05
-9.6205e-05
-9.54916e-05
-9.40452e-05
-9.18013e-05
-8.86939e-05
-8.46548e-05
-7.96144e-05
-7.35029e-05
-6.62507e-05
-5.77879e-05
-4.8045e-05
-3.69552e-05
-2.44543e-05
-1.04806e-05
5.02442e-06
2.2115e-05
4.08384e-05
6.12345e-05
8.33361e-05
0.000107167
0.000132741
0.000160059
0.000189109
0.000219866
0.000252292
0.000286328
0.0003219
0.000358916
0.000397262
0.000436809
0.000477401
0.000518867
0.000561012
0.00060362
0.000646456
0.000689266
0.000731779
0.000773706
0.000814746
0.000854585
0.000892904
0.000929375
0.000963672
0.000995471
0.00102445
0.00105032
0.00107278
0.00109156
0.00110642
0.00111715
0.00112357
0.00112553
0.00112294
0.00111573
0.0011039
0.00108746
0.00106651
0.00104115
0.00101156
0.000977945
0.000940544
0.00089964
0.000855546
0.000808599
0.000759156
0.000707593
0.000654295
0.000599652
0.000544055
0.000487888
0.000431526
0.00037533
0.000319645
0.000264794
0.00021108
0.000158777
0.000108138
5.93864e-05
1.27199e-05
-3.16894e-05
-7.36942e-05
-0.000113171
-0.000150018
-0.000184155
-0.000215519
-0.000244063
-0.000269754
-0.000292571
-0.000312503
-0.000329546
-0.000343702
-0.000354976
-0.000363375
-0.000368902
-0.000371551
-0.000371297
-0.000368183
-0.000362293
-0.000352435
-0.000336301
7.27726e-05
5.88462e-05
4.76525e-05
3.75769e-05
2.78388e-05
1.85632e-05
9.80968e-06
1.56545e-06
-6.18617e-06
-1.34662e-05
-2.03015e-05
-2.67228e-05
-3.2764e-05
-3.84592e-05
-4.38384e-05
-4.89285e-05
-5.37528e-05
-5.83275e-05
-6.26612e-05
-6.67557e-05
-7.06062e-05
-7.41999e-05
-7.75169e-05
-8.05314e-05
-8.32112e-05
-8.55175e-05
-8.74066e-05
-8.88307e-05
-8.97372e-05
-9.00695e-05
-8.97674e-05
-8.87681e-05
-8.70062e-05
-8.4414e-05
-8.09224e-05
-7.64605e-05
-7.09577e-05
-6.43421e-05
-5.6542e-05
-4.74863e-05
-3.71066e-05
-2.53361e-05
-1.21095e-05
2.63481e-06
1.89536e-05
3.68978e-05
5.65115e-05
7.78316e-05
0.000100886
0.000125694
0.00015226
0.000180578
0.00021063
0.00024238
0.000275776
0.00031075
0.000347213
0.000385059
0.000424159
0.000464366
0.000505508
0.000547394
0.000589811
0.000632523
0.000675276
0.000717797
0.000759796
0.000800967
0.000840994
0.00087955
0.000916301
0.000950915
0.000983059
0.00101241
0.00103865
0.00106148
0.00108063
0.00109584
0.00110688
0.00111358
0.00111579
0.00111338
0.00110631
0.00109455
0.00107812
0.00105712
0.00103165
0.00100189
0.00096804
0.000930364
0.000889143
0.000844698
0.000797375
0.000747543
0.000695586
0.000641901
0.000586888
0.000530946
0.000474469
0.000417838
0.000361423
0.000305571
0.000250612
0.000196847
0.000144554
9.39808e-05
4.53499e-05
-1.14615e-06
-4.53412e-05
-8.70953e-05
-0.000126293
-0.000162842
-0.000196669
-0.000227723
-0.000255963
-0.000281366
-0.000303916
-0.000323606
-0.000340435
-0.000354401
-0.000365504
-0.000373739
-0.000379092
-0.000381533
-0.000381006
-0.000377525
-0.000371151
-0.000360595
-0.000343404
8.55576e-05
6.90842e-05
5.62111e-05
4.49574e-05
3.43321e-05
2.44329e-05
1.52842e-05
6.82791e-06
-9.94762e-07
-8.24024e-06
-1.4966e-05
-2.12311e-05
-2.70921e-05
-3.26e-05
-3.78002e-05
-4.27327e-05
-4.74292e-05
-5.19116e-05
-5.61939e-05
-6.02814e-05
-6.41708e-05
-6.78501e-05
-7.13002e-05
-7.44948e-05
-7.74006e-05
-7.99778e-05
-8.21822e-05
-8.39647e-05
-8.52713e-05
-8.60436e-05
-8.6221e-05
-8.57392e-05
-8.45313e-05
-8.25281e-05
-7.96592e-05
-7.58527e-05
-7.10354e-05
-6.51335e-05
-5.80733e-05
-4.97821e-05
-4.01883e-05
-2.92219e-05
-1.68144e-05
-2.90048e-06
1.25801e-05
2.96825e-05
4.84557e-05
6.89414e-05
9.11726e-05
0.000115173
0.000140954
0.000168517
0.000197847
0.000228915
0.000261677
0.000296068
0.000332007
0.000369393
0.000408102
0.00044799
0.000488891
0.000530614
0.000572949
0.00061566
0.000658494
0.000701173
0.000743406
0.000784883
0.000825282
0.000864268
0.0009015
0.000936636
0.000969335
0.000999259
0.00102608
0.0010495
0.00106921
0.00108496
0.00109651
0.00110367
0.00110626
0.00110418
0.00109736
0.00108577
0.00106943
0.00104842
0.00102287
0.000992939
0.000958847
0.00092085
0.000879243
0.000834357
0.000786547
0.000736195
0.000683698
0.000629464
0.000573905
0.000517434
0.000460453
0.000403358
0.000346523
0.000290306
0.00023504
0.000181032
0.00012856
7.78735e-05
2.91921e-05
-1.72949e-05
-6.14265e-05
-0.000103069
-0.000142115
-0.000178479
-0.000212099
-0.000242931
-0.000270943
-0.00029612
-0.000318452
-0.000337938
-0.000354576
-0.000368367
-0.000379304
-0.000387372
-0.000392548
-0.000394781
-0.000393997
-0.000390189
-0.000383404
-0.000372291
-0.000354295
9.73865e-05
7.83829e-05
6.38207e-05
5.13607e-05
3.98064e-05
2.92348e-05
1.96377e-05
1.09118e-05
2.95957e-06
-4.3091e-06
-1.09834e-05
-1.7149e-05
-2.28832e-05
-2.82556e-05
-3.33282e-05
-3.81525e-05
-4.27684e-05
-4.72056e-05
-5.14835e-05
-5.56111e-05
-5.95871e-05
-6.34013e-05
-6.70352e-05
-7.04621e-05
-7.36481e-05
-7.65531e-05
-7.91322e-05
-8.13346e-05
-8.31049e-05
-8.43837e-05
-8.5109e-05
-8.52151e-05
-8.46335e-05
-8.32935e-05
-8.11234e-05
-7.80491e-05
-7.39952e-05
-6.88857e-05
-6.26448e-05
-5.51976e-05
-4.64689e-05
-3.63848e-05
-2.48736e-05
-1.18662e-05
2.70218e-06
1.88914e-05
3.67558e-05
5.63421e-05
7.76893e-05
0.000100828
0.000125775
0.00015254
0.000181113
0.000211473
0.000243582
0.000277383
0.000312802
0.000349743
0.000388088
0.000427698
0.00046841
0.000510039
0.000552374
0.000595181
0.000638205
0.000681169
0.000723775
0.00076571
0.000806644
0.000846236
0.000884136
0.000919991
0.000953447
0.000984154
0.00101177
0.00103598
0.00105648
0.00107297
0.00108523
0.00109302
0.00109619
0.00109461
0.00108819
0.0010769
0.00106076
0.00103985
0.00101428
0.000984223
0.000949903
0.000911582
0.000869563
0.000824184
0.000775815
0.00072485
0.000671699
0.000616787
0.000560539
0.000503382
0.000445733
0.000387999
0.000330567
0.000273804
0.000218051
0.000163621
0.000110796
5.98264e-05
1.09316e-05
-3.5701e-05
-7.99143e-05
-0.00012158
-0.000160598
-0.000196892
-0.000230407
-0.000261106
-0.000288969
-0.000313987
-0.000336157
-0.000355482
-0.000371965
-0.000385606
-0.000396395
-0.000404314
-0.000409328
-0.000411376
-0.000410367
-0.000406285
-0.000399169
-0.000387625
-0.000369031
0.000107847
8.63436e-05
7.00999e-05
5.6423e-05
4.39195e-05
3.26471e-05
2.25651e-05
1.35291e-05
5.40375e-06
-1.93563e-06
-8.6081e-06
-1.4723e-05
-2.03797e-05
-2.56673e-05
-3.06624e-05
-3.54273e-05
-4.00116e-05
-4.44531e-05
-4.87764e-05
-5.29938e-05
-5.71073e-05
-6.11085e-05
-6.49793e-05
-6.8693e-05
-7.22157e-05
-7.55072e-05
-7.85213e-05
-8.12059e-05
-8.35044e-05
-8.53565e-05
-8.66985e-05
-8.74632e-05
-8.75805e-05
-8.69786e-05
-8.55838e-05
-8.33196e-05
-8.01082e-05
-7.5872e-05
-7.05329e-05
-6.40126e-05
-5.62324e-05
-4.71149e-05
-3.65846e-05
-2.45682e-05
-1.0996e-05
4.19703e-06
2.10706e-05
3.96776e-05
6.00637e-05
8.22661e-05
0.00010631
0.000132211
0.000159967
0.000189566
0.000220977
0.000254152
0.000289023
0.000325501
0.000363476
0.000402812
0.000443357
0.000484924
0.000527307
0.000570273
0.000613566
0.000656907
0.000699997
0.000742516
0.000784129
0.000824484
0.000863224
0.000899981
0.000934391
0.000966089
0.00099472
0.00101994
0.00104144
0.00105891
0.00107209
0.00108076
0.00108472
0.00108383
0.001078
0.00106719
0.00105141
0.00103073
0.00100526
0.000975182
0.000940707
0.000902107
0.000859695
0.00081382
0.000764864
0.000713235
0.000659359
0.000603677
0.00054663
0.000488662
0.000430207
0.000371687
0.000313502
0.000256033
0.000199629
0.000144613
9.12712e-05
3.98593e-05
-9.40311e-06
-5.63294e-05
-0.000100765
-0.000142587
-0.0001817
-0.000218036
-0.000251548
-0.000282208
-0.000310004
-0.000334933
-0.000357002
-0.00037622
-0.000392592
-0.000406121
-0.000416796
-0.000424595
-0.000429478
-0.000431375
-0.000430188
-0.000425891
-0.000418521
-0.000406659
-0.000387635
0.000116548
9.25837e-05
7.46746e-05
5.97855e-05
4.63281e-05
3.43401e-05
2.3752e-05
1.43789e-05
6.04677e-06
-1.40151e-06
-8.1121e-06
-1.42194e-05
-1.98452e-05
-2.50959e-05
-3.00612e-05
-3.48155e-05
-3.94186e-05
-4.39149e-05
-4.83344e-05
-5.26939e-05
-5.69981e-05
-6.12402e-05
-6.54027e-05
-6.94595e-05
-7.33772e-05
-7.7115e-05
-8.06251e-05
-8.38547e-05
-8.67465e-05
-8.92389e-05
-9.12665e-05
-9.27606e-05
-9.36503e-05
-9.38621e-05
-9.33198e-05
-9.19448e-05
-8.9658e-05
-8.63794e-05
-8.20282e-05
-7.6523e-05
-6.97816e-05
-6.1723e-05
-5.22678e-05
-4.13385e-05
-2.88598e-05
-1.47614e-05
1.02189e-06
1.85501e-05
3.78758e-05
5.90437e-05
8.20878e-05
0.00010703
0.000133878
0.000162629
0.00019326
0.000225733
0.000259989
0.000295947
0.000333502
0.000372525
0.000412881
0.000454376
0.00049681
0.000539955
0.000583554
0.000627329
0.000670977
0.000714175
0.000756579
0.000797831
0.000837562
0.000875395
0.000910947
0.000943841
0.000973704
0.00100018
0.00102292
0.00104162
0.00105599
0.00106578
0.00107078
0.00107085
0.00106586
0.00105576
0.00104057
0.00102032
0.000995131
0.000965179
0.000930682
0.000891911
0.000849188
0.00080287
0.000753354
0.000701061
0.000646435
0.000589933
0.000532017
0.000473149
0.000413783
0.000354356
0.000295288
0.000236971
0.000179772
0.000124019
7.0011e-05
1.80063e-05
-3.17709e-05
-7.91332e-05
-0.000123928
-0.000166035
-0.000205365
-0.000241857
-0.00027547
-0.000306186
-0.000334001
-0.000358921
-0.000380959
-0.00040013
-0.000416446
-0.000429911
-0.000440515
-0.000448236
-0.00045303
-0.000454823
-0.000453511
-0.000449063
-0.000441513
-0.000429429
-0.000410111
0.000123114
9.67293e-05
7.71799e-05
6.10925e-05
4.6686e-05
3.39804e-05
2.28763e-05
1.31476e-05
4.58413e-06
-3.00178e-06
-9.78443e-06
-1.59235e-05
-2.15605e-05
-2.68181e-05
-3.18e-05
-3.65927e-05
-4.12645e-05
-4.58666e-05
-5.04346e-05
-5.49897e-05
-5.95388e-05
-6.40766e-05
-6.85869e-05
-7.30449e-05
-7.74166e-05
-8.16605e-05
-8.57284e-05
-8.95667e-05
-9.31171e-05
-9.63167e-05
-9.90992e-05
-0.000101395
-0.000103131
-0.000104233
-0.000104622
-0.000104219
-0.000102942
-0.00010071
-9.7439e-05
-9.30443e-05
-8.7441e-05
-8.0545e-05
-7.22725e-05
-6.25414e-05
-5.12714e-05
-3.83869e-05
-2.38164e-05
-7.49265e-06
1.06448e-05
3.06482e-05
5.25598e-05
7.64106e-05
0.000102219
0.000129991
0.000159716
0.000191363
0.000224885
0.000260209
0.000297245
0.000335877
0.000375947
0.000417299
0.000459733
0.000503021
0.000546911
0.000591126
0.00063536
0.000679287
0.000722559
0.000764811
0.000805662
0.000844723
0.000881599
0.000915893
0.000947215
0.000975187
0.000999447
0.00101966
0.00103551
0.00104673
0.0010531
0.00105443
0.0010506
0.00104153
0.0010272
0.00100767
0.000983027
0.000953443
0.000919136
0.000880382
0.000837503
0.00079087
0.000740888
0.000687995
0.000632653
0.000575338
0.000516532
0.000456718
0.000396371
0.000335951
0.000275895
0.000216616
0.000158493
0.000101872
4.70578e-05
-5.67989e-06
-5.61121e-05
-0.000104048
-0.000149336
-0.000191857
-0.000231527
-0.00026829
-0.000302114
-0.000332986
-0.000360912
-0.000385906
-0.00040799
-0.000427185
-0.000443508
-0.000456966
-0.000467555
-0.00047525
-0.000480008
-0.000481751
-0.000480371
-0.000475835
-0.000468178
-0.000455956
-0.000436453
0.000127173
9.84156e-05
7.72563e-05
5.99897e-05
4.46477e-05
3.12304e-05
1.96074e-05
9.51275e-06
7.01925e-07
-7.04434e-06
-1.39288e-05
-2.0134e-05
-2.58202e-05
-3.11262e-05
-3.61699e-05
-4.10484e-05
-4.58381e-05
-5.05972e-05
-5.53667e-05
-6.01709e-05
-6.50194e-05
-6.99087e-05
-7.48243e-05
-7.97416e-05
-8.46266e-05
-8.94371e-05
-9.41248e-05
-9.86358e-05
-0.00010291
-0.000106885
-0.000110492
-0.000113663
-0.000116321
-0.000118392
-0.000119795
-0.000120449
-0.000120274
-0.000119184
-0.000117094
-0.000113916
-0.000109564
-0.000103949
-9.69843e-05
-8.85832e-05
-7.86611e-05
-6.71365e-05
-5.39313e-05
-3.89713e-05
-2.2188e-05
-3.52091e-06
1.70811e-05
3.96593e-05
6.42435e-05
9.08497e-05
0.000119478
0.000150112
0.000182714
0.000217225
0.000253563
0.000291622
0.000331265
0.000372336
0.000414643
0.000457968
0.000502065
0.000546657
0.000591444
0.000636096
0.000680263
0.000723574
0.00076564
0.00080606
0.000844423
0.000880319
0.000913336
0.000943076
0.00096915
0.000991199
0.00100889
0.00102192
0.00103003
0.00103303
0.00103075
0.0010231
0.00101004
0.000991604
0.000967872
0.000939001
0.000905203
0.000866752
0.000823974
0.000777245
0.000726982
0.000673637
0.000617689
0.000559634
0.000499978
0.000439227
0.000377879
0.000316419
0.000255307
0.000194977
0.000135828
7.82204e-05
2.24763e-05
-3.11247e-05
-8.23451e-05
-0.00013099
-0.000176903
-0.000219969
-0.000260104
-0.000297258
-0.000331405
-0.00036254
-0.000390677
-0.000415838
-0.000438053
-0.00045735
-0.000473753
-0.000487274
-0.000497911
-0.000505643
-0.000510426
-0.00051218
-0.000510796
-0.000506238
-0.00049854
-0.000486254
-0.000466657
0.000128364
9.72824e-05
7.45461e-05
5.61259e-05
3.98675e-05
2.5749e-05
1.36101e-05
3.14642e-06
-5.92284e-06
-1.38488e-05
-2.08601e-05
-2.71612e-05
-3.29313e-05
-3.83255e-05
-4.34743e-05
-4.84844e-05
-5.34407e-05
-5.84078e-05
-6.34311e-05
-6.8538e-05
-7.37406e-05
-7.90378e-05
-8.44163e-05
-8.98511e-05
-9.53085e-05
-0.000100747
-0.000106117
-0.000111365
-0.00011643
-0.000121248
-0.000125753
-0.000129872
-0.000133531
-0.000136653
-0.000139157
-0.000140963
-0.000141988
-0.000142146
-0.000141349
-0.00013951
-0.000136538
-0.000132343
-0.000126835
-0.000119924
-0.000111519
-0.000101536
-8.9888e-05
-7.64951e-05
-6.12808e-05
-4.41756e-05
-2.51185e-05
-4.05763e-06
1.90484e-05
4.42284e-05
7.14957e-05
0.000100846
0.000132256
0.000165681
0.000201054
0.000238281
0.000277243
0.00031779
0.000359749
0.000402909
0.000447035
0.000491858
0.000537081
0.000582379
0.000627402
0.000671774
0.000715103
0.000756975
0.00079697
0.000834659
0.000869612
0.000901405
0.000929629
0.000953891
0.000973828
0.00098911
0.00099945
0.00100461
0.0010044
0.000998689
0.000987421
0.000970591
0.000948269
0.00092059
0.000887754
0.000850028
0.000807734
0.000761253
0.000711009
0.000657468
0.000601124
0.000542495
0.00048211
0.000420501
0.000358194
0.0002957
0.000233508
0.000172075
0.000111824
5.31369e-05
-3.6457e-06
-5.82291e-05
-0.000110364
-0.000159848
-0.00020652
-0.000250262
-0.000290992
-0.000328662
-0.000363253
-0.000394766
-0.000423223
-0.000448653
-0.000471094
-0.000490584
-0.000507151
-0.000520814
-0.000531576
-0.000539416
-0.000544293
-0.000546127
-0.000544805
-0.000540292
-0.00053262
-0.000520338
-0.000500723
0.000126331
9.29723e-05
6.86963e-05
4.91511e-05
3.19972e-05
1.71927e-05
4.54696e-06
-6.28537e-06
-1.56214e-05
-2.37419e-05
-3.09007e-05
-3.73246e-05
-4.32117e-05
-4.87318e-05
-5.40268e-05
-5.92133e-05
-6.43841e-05
-6.96092e-05
-7.49377e-05
-8.04006e-05
-8.60127e-05
-9.17742e-05
-9.76723e-05
-0.000103683
-0.000109773
-0.0001159
-0.000122016
-0.000128066
-0.000133989
-0.000139722
-0.000145198
-0.000150344
-0.000155086
-0.000159347
-0.000163048
-0.000166108
-0.000168443
-0.000169968
-0.000170594
-0.000170234
-0.000168795
-0.000166186
-0.000162315
-0.000157089
-0.000150413
-0.000142197
-0.00013235
-0.000120784
-0.000107416
-9.21675e-05
-7.49663e-05
-5.57492e-05
-3.44624e-05
-1.10639e-05
1.44749e-05
4.21651e-05
7.19999e-05
0.000103952
0.00013797
0.000173981
0.000211883
0.000251539
0.000292803
0.000335473
0.00037933
0.000424119
0.000469554
0.000515317
0.000561064
0.000606422
0.000650995
0.000694364
0.000736099
0.000775756
0.000812885
0.00084704
0.000877783
0.000904691
0.000927366
0.000945441
0.00095859
0.000966532
0.000969039
0.000965945
0.000957147
0.000942609
0.00092237
0.000896537
0.000865292
0.000828884
0.000787627
0.000741899
0.000692129
0.000638789
0.000582392
0.000523474
0.00046259
0.000400299
0.000337157
0.000273708
0.000210469
0.000147929
8.65393e-05
2.67088e-05
-3.11988e-05
-8.68688e-05
-0.000140037
-0.000190486
-0.00023805
-0.000282603
-0.000324064
-0.000362385
-0.000397549
-0.000429566
-0.000458462
-0.000484275
-0.000507052
-0.000526835
-0.000543663
-0.00055756
-0.000568532
-0.000576564
-0.000581614
-0.000583604
-0.000582418
-0.000578019
-0.000570438
-0.000558224
-0.000538656
0.000120717
8.51333e-05
5.93556e-05
3.87148e-05
2.06907e-05
5.21925e-06
-7.92283e-06
-1.91219e-05
-2.87295e-05
-3.70558e-05
-4.43807e-05
-5.09528e-05
-5.69877e-05
-6.26688e-05
-6.81499e-05
-7.35568e-05
-7.89886e-05
-8.45204e-05
-9.02054e-05
-9.60774e-05
-0.000102154
-0.000108435
-0.00011491
-0.000121556
-0.000128338
-0.000135217
-0.000142143
-0.000149061
-0.000155913
-0.000162634
-0.000169159
-0.000175415
-0.00018133
-0.000186827
-0.00019183
-0.000196258
-0.000200029
-0.000203059
-0.00020526
-0.000206545
-0.000206823
-0.000206002
-0.000203988
-0.000200687
-0.000196002
-0.000189839
-0.000182101
-0.000172696
-0.000161532
-0.000148522
-0.000133584
-0.000116641
-9.7628e-05
-7.64866e-05
-5.31724e-05
-2.76553e-05
7.72882e-08
3.00184e-05
6.21398e-05
9.63895e-05
0.000132691
0.000170937
0.000210983
0.000252673
0.000295807
0.000340147
0.000385425
0.00043134
0.00047756
0.000523721
0.00056943
0.000614269
0.000657801
0.000699569
0.000739108
0.000775948
0.000809622
0.000839672
0.000865662
0.000887181
0.000903856
0.000915356
0.000921404
0.00092178
0.000916334
0.000904982
0.000887717
0.00086461
0.000835808
0.000801534
0.000762086
0.000717827
0.000669185
0.000616636
0.000560703
0.000501943
0.000440934
0.000378265
0.000314526
0.000250294
0.000186123
0.000122539
6.0028e-05
-9.68825e-07
-6.00579e-05
-0.000116898
-0.000171204
-0.00022274
-0.000271328
-0.000316832
-0.000359166
-0.00039828
-0.000434161
-0.000466819
-0.000496288
-0.000522614
-0.000545849
-0.000566043
-0.000583243
-0.000597479
-0.000608762
-0.00061708
-0.000622392
-0.000624621
-0.000623651
-0.00061944
-0.000612018
-0.000599935
-0.000580476
0.000111174
7.34154e-05
4.61737e-05
2.44698e-05
5.60294e-06
-1.0516e-05
-2.41431e-05
-3.57041e-05
-4.55853e-05
-5.41273e-05
-6.16357e-05
-6.83795e-05
-7.45909e-05
-8.04674e-05
-8.61737e-05
-9.18435e-05
-9.7582e-05
-0.000103469
-0.000109561
-0.000115895
-0.00012249
-0.000129347
-0.000136457
-0.000143796
-0.000151333
-0.000159026
-0.000166828
-0.000174684
-0.000182538
-0.000190326
-0.000197983
-0.00020544
-0.000212627
-0.00021947
-0.000225894
-0.000231822
-0.000237176
-0.000241873
-0.00024583
-0.000248961
-0.000251178
-0.00025239
-0.000252505
-0.000251429
-0.000249063
-0.000245312