/*--------------------------------*- C++ -*----------------------------------*\
| =========                 |                                                 |
| \\      /  F ield         | OpenFOAM: The Open Source CFD Toolbox           |
|  \\    /   O peration     | Version:  2112                                  |
|   \\  /    A nd           | Website:  www.openfoam.com                      |
|    \\/     M anipulation  |                                                 |
\*---------------------------------------------------------------------------*/
FoamFile
{
    version     2.0;
    format      ascii;
    arch        "LSB;label=32;scalar=64";
    class       surfaceScalarField;
    location    "10";
    object      phi;
}
// * * * * * * * * * * * * * * * * * * * * * * * * * * * * * * * * * * * * * //

dimensions      [0 3 -1 0 0 0 0];

oriented        oriented;

internalField   nonuniform List<scalar> 
33024
(
5.25929e-09
-5.24323e-09
1.35998e-08
-8.34079e-09
1.95186e-08
-5.91898e-09
2.03659e-08
-8.4669e-10
1.51106e-08
5.25482e-09
3.68497e-09
1.14259e-08
-1.3532e-08
1.72166e-08
-3.59455e-08
2.24129e-08
-6.28689e-08
2.69234e-08
-9.36103e-08
3.07412e-08
-1.27518e-07
3.3908e-08
-1.64006e-07
3.64886e-08
-2.02565e-07
3.85592e-08
-2.42765e-07
4.01991e-08
-2.84249e-07
4.14846e-08
-3.26737e-07
4.24874e-08
-3.70008e-07
4.32713e-08
-4.139e-07
4.38917e-08
-4.58296e-07
4.4396e-08
-5.03118e-07
4.48229e-08
-5.48321e-07
4.5202e-08
-5.93877e-07
4.55565e-08
-6.39779e-07
4.59027e-08
-6.8603e-07
4.62508e-08
-7.32637e-07
4.66064e-08
-7.79608e-07
4.69711e-08
-8.2695e-07
4.73429e-08
-8.74668e-07
4.7717e-08
-9.22754e-07
4.80868e-08
-9.71198e-07
4.84441e-08
-1.01998e-06
4.87796e-08
-1.06906e-06
4.90829e-08
-1.1184e-06
4.93436e-08
-1.16796e-06
4.9551e-08
-1.21765e-06
4.96938e-08
-1.26741e-06
4.9761e-08
-1.31715e-06
4.97412e-08
-1.36678e-06
4.96236e-08
-1.41617e-06
4.93971e-08
-1.46522e-06
4.90505e-08
-1.5138e-06
4.85727e-08
-1.56175e-06
4.79524e-08
-1.60893e-06
4.71783e-08
-1.65517e-06
4.6239e-08
-1.70029e-06
4.51232e-08
-1.74411e-06
4.38193e-08
-1.78643e-06
4.23162e-08
-1.82703e-06
4.06025e-08
-1.86569e-06
3.86672e-08
-1.90219e-06
3.65e-08
-1.93629e-06
3.40913e-08
-1.96772e-06
3.14323e-08
-1.99623e-06
2.85156e-08
-2.02157e-06
2.53351e-08
-2.04346e-06
2.18867e-08
-2.06162e-06
1.8168e-08
-2.0758e-06
1.41795e-08
-2.08573e-06
9.92453e-09
-2.09114e-06
5.40941e-09
-2.09178e-06
6.43721e-10
-2.08742e-06
-4.36014e-09
-2.07783e-06
-9.58451e-09
-2.06283e-06
-1.50085e-08
-2.04222e-06
-2.0607e-08
-2.01587e-06
-2.6351e-08
-1.98366e-06
-3.22072e-08
-1.94552e-06
-3.81385e-08
-1.90142e-06
-4.4104e-08
-1.85136e-06
-5.00594e-08
-1.7954e-06
-5.59574e-08
-1.73365e-06
-6.1748e-08
-1.66628e-06
-6.73793e-08
-1.59348e-06
-7.27984e-08
-1.51553e-06
-7.79518e-08
-1.43274e-06
-8.27859e-08
-1.34549e-06
-8.72487e-08
-1.2542e-06
-9.12901e-08
-1.15934e-06
-9.48631e-08
-1.06141e-06
-9.79242e-08
-9.60979e-07
-1.00434e-07
-8.58618e-07
-1.02361e-07
-7.54942e-07
-1.03676e-07
-6.50584e-07
-1.04359e-07
-5.46187e-07
-1.04397e-07
-4.42404e-07
-1.03783e-07
-3.39883e-07
-1.02521e-07
-2.39264e-07
-1.00619e-07
-1.41169e-07
-9.80953e-08
-4.61942e-08
-9.49746e-08
4.50946e-08
-9.12891e-08
1.32171e-07
-8.7077e-08
2.14553e-07
-8.2382e-08
2.91807e-07
-7.72535e-08
3.63551e-07
-7.17445e-08
4.29462e-07
-6.59109e-08
4.89272e-07
-5.98103e-08
5.42773e-07
-5.35015e-08
5.89817e-07
-4.70433e-08
6.3031e-07
-4.04935e-08
6.64218e-07
-3.3908e-08
6.91558e-07
-2.73397e-08
7.12397e-07
-2.08385e-08
7.26847e-07
-1.44503e-08
7.35064e-07
-8.21666e-09
7.37238e-07
-2.17436e-09
7.33594e-07
3.64464e-09
7.24382e-07
9.21177e-09
7.09878e-07
1.45036e-08
6.90379e-07
1.94997e-08
6.66196e-07
2.41826e-08
6.3766e-07
2.85363e-08
6.05114e-07
3.25455e-08
5.68921e-07
3.6194e-08
5.29458e-07
3.94625e-08
4.87132e-07
4.23267e-08
4.42377e-07
4.47544e-08
3.95675e-07
4.67029e-08
3.4756e-07
4.81148e-08
2.98646e-07
4.8914e-08
2.49645e-07
4.90007e-08
2.01399e-07
4.82457e-08
1.54916e-07
4.64838e-08
1.11407e-07
4.35087e-08
7.23351e-08
3.90722e-08
3.94331e-08
3.29021e-08
1.4659e-08
2.47745e-08
-9.85027e-11
1.47579e-08
-4.19619e-09
4.09807e-09
-4.19599e-09
8.36665e-09
-1.36101e-08
1.78801e-08
-1.78538e-08
1.99852e-08
-8.02454e-09
9.90183e-09
9.23603e-09
-1.45976e-08
2.97546e-08
-5.40892e-08
5.09173e-08
-1.08049e-07
7.11766e-08
-1.75326e-07
8.96907e-08
-2.54465e-07
1.06062e-07
-3.43901e-07
1.20177e-07
-4.42091e-07
1.32098e-07
-5.47592e-07
1.4199e-07
-6.59109e-07
1.50077e-07
-7.75516e-07
1.56606e-07
-8.95859e-07
1.61827e-07
-1.01935e-06
1.65981e-07
-1.14537e-06
1.69286e-07
-1.27341e-06
1.71939e-07
-1.40312e-06
1.74105e-07
-1.53422e-06
1.75924e-07
-1.66653e-06
1.77506e-07
-1.79991e-06
1.78939e-07
-1.93429e-06
1.80283e-07
-2.06962e-06
1.81582e-07
-2.20587e-06
1.82858e-07
-2.34302e-06
1.84121e-07
-2.48105e-06
1.85366e-07
-2.61991e-06
1.8658e-07
-2.75956e-06
1.87741e-07
-2.89994e-06
1.88822e-07
-3.04095e-06
1.89789e-07
-3.18248e-06
1.90607e-07
-3.32437e-06
1.9124e-07
-3.46647e-06
1.91647e-07
-3.60856e-06
1.9179e-07
-3.75043e-06
1.91628e-07
-3.89181e-06
1.91121e-07
-4.03242e-06
1.90229e-07
-4.17193e-06
1.88912e-07
-4.31001e-06
1.8713e-07
-4.44628e-06
1.84843e-07
-4.58034e-06
1.82012e-07
-4.71176e-06
1.78596e-07
-4.84008e-06
1.74556e-07
-4.9648e-06
1.6985e-07
-5.08542e-06
1.64441e-07
-5.20139e-06
1.58287e-07
-5.31215e-06
1.51353e-07
-5.41708e-06
1.436e-07
-5.51557e-06
1.34995e-07
-5.60699e-06
1.25505e-07
-5.69066e-06
1.15102e-07
-5.7659e-06
1.03765e-07
-5.83204e-06
9.14739e-08
-5.88837e-06
7.82186e-08
-5.9342e-06
6.39957e-08
-5.96883e-06
4.8811e-08
-5.99159e-06
3.26804e-08
-6.00181e-06
1.56304e-08
-5.99887e-06
-2.29804e-09
-5.98217e-06
-2.10587e-08
-5.95117e-06
-4.05818e-08
-5.90539e-06
-6.07899e-08
-5.84441e-06
-8.15898e-08
-5.76789e-06
-1.02874e-07
-5.67557e-06
-1.24521e-07
-5.56731e-06
-1.46396e-07
-5.44307e-06
-1.68351e-07
-5.3029e-06
-1.90227e-07
-5.147e-06
-2.11855e-07
-4.97569e-06
-2.33056e-07
-4.78943e-06
-2.53648e-07
-4.58878e-06
-2.73441e-07
-4.37449e-06
-2.92248e-07
-4.14739e-06
-3.0988e-07
-3.90849e-06
-3.26155e-07
-3.65888e-06
-3.40895e-07
-3.39981e-06
-3.53936e-07
-3.13261e-06
-3.65125e-07
-2.85871e-06
-3.74327e-07
-2.57965e-06
-3.81423e-07
-2.29701e-06
-3.86318e-07
-2.01243e-06
-3.88939e-07
-1.72759e-06
-3.89238e-07
-1.44418e-06
-3.87193e-07
-1.16389e-06
-3.82808e-07
-8.88391e-07
-3.76117e-07
-6.19309e-07
-3.67177e-07
-3.5821e-07
-3.56074e-07
-1.06584e-07
-3.42916e-07
1.34175e-07
-3.27836e-07
3.62777e-07
-3.10985e-07
5.78056e-07
-2.92532e-07
7.78973e-07
-2.72662e-07
9.64633e-07
-2.51571e-07
1.13428e-06
-2.2946e-07
1.28732e-06
-2.06537e-07
1.42329e-06
-1.8301e-07
1.54188e-06
-1.59086e-07
1.64293e-06
-1.34963e-07
1.72643e-06
-1.10835e-07
1.79247e-06
-8.68814e-08
1.84129e-06
-6.32725e-08
1.87324e-06
-4.01625e-08
1.88876e-06
-1.76914e-08
1.88839e-06
4.01543e-09
1.87275e-06
2.48483e-08
1.84254e-06
4.47093e-08
1.79853e-06
6.35131e-08
1.74153e-06
8.11826e-08
1.67242e-06
9.76463e-08
1.59213e-06
1.12833e-07
1.50166e-06
1.26668e-07
1.40205e-06
1.39066e-07
1.29446e-06
1.49923e-07
1.1801e-06
1.59109e-07
1.06035e-06
1.66458e-07
9.36706e-07
1.71757e-07
8.10884e-07
1.74736e-07
6.84832e-07
1.75053e-07
5.60793e-07
1.72285e-07
4.41355e-07
1.65922e-07
3.29489e-07
1.55375e-07
2.28555e-07
1.40006e-07
1.42218e-07
1.19239e-07
7.41641e-08
9.28287e-08
2.75123e-08
6.14098e-08
4.06878e-09
2.75415e-08
-1.2713e-10
6.1013e-09
-1.97116e-08
8.12615e-09
-1.9878e-08
-3.07245e-09
3.17338e-09
-3.27363e-08
3.89004e-08
-8.35404e-08
8.05584e-08
-1.56184e-07
1.2356e-07
-2.50038e-07
1.65031e-07
-3.63638e-07
2.03291e-07
-4.95052e-07
2.37477e-07
-6.42143e-07
2.67268e-07
-8.0275e-07
2.92704e-07
-9.74812e-07
3.14052e-07
-1.15644e-06
3.31707e-07
-1.34597e-06
3.46131e-07
-1.54194e-06
3.57806e-07
-1.74317e-06
3.67203e-07
-1.94864e-06
3.74761e-07
-2.15758e-06
3.80874e-07
-2.36935e-06
3.85881e-07
-2.5835e-06
3.9007e-07
-2.79967e-06
3.93674e-07
-3.0176e-06
3.96873e-07
-3.23712e-06
3.99801e-07
-3.45809e-06
4.02549e-07
-3.6804e-06
4.05172e-07
-3.90397e-06
4.07693e-07
-4.12872e-06
4.10107e-07
-4.35453e-06
4.1239e-07
-4.58128e-06
4.14499e-07
-4.80884e-06
4.1638e-07
-5.03702e-06
4.17967e-07
-5.2656e-06
4.19188e-07
-5.49433e-06
4.19967e-07
-5.72291e-06
4.20223e-07
-5.95099e-06
4.19875e-07
-6.1782e-06
4.1884e-07
-6.40412e-06
4.17036e-07
-6.62827e-06
4.14379e-07
-6.85015e-06
4.10788e-07
-7.0692e-06
4.0618e-07
-7.28483e-06
4.00473e-07
-7.4964e-06
3.93586e-07
-7.70324e-06
3.85437e-07
-7.90463e-06
3.75945e-07
-8.09981e-06
3.6503e-07
-8.28798e-06
3.52611e-07
-8.4683e-06
3.3861e-07
-8.6399e-06
3.22953e-07
-8.80187e-06
3.05566e-07
-8.95326e-06
2.86383e-07
-9.09309e-06
2.65343e-07
-9.22038e-06
2.42392e-07
-9.33411e-06
2.17489e-07
-9.43323e-06
1.90601e-07
-9.51673e-06
1.61713e-07
-9.58356e-06
1.30824e-07
-9.6327e-06
9.79527e-08
-9.66316e-06
6.31381e-08
-9.67397e-06
2.64425e-08
-9.66422e-06
-1.20466e-08
-9.63306e-06
-5.22191e-08
-9.57971e-06
-9.39317e-08
-9.50348e-06
-1.37016e-07
-9.4038e-06
-1.81274e-07
-9.28019e-06
-2.2648e-07
-9.13234e-06
-2.72378e-07
-8.96004e-06
-3.18687e-07
-8.7633e-06
-3.65098e-07
-8.54224e-06
-4.11283e-07
-8.29721e-06
-4.56891e-07
-8.02871e-06
-5.01556e-07
-7.73745e-06
-5.44901e-07
-7.42436e-06
-5.86539e-07
-7.09052e-06
-6.26083e-07
-6.73725e-06
-6.6315e-07
-6.36604e-06
-6.97365e-07
-5.97857e-06
-7.28368e-07
-5.57668e-06
-7.55822e-07
-5.16239e-06
-7.79416e-07
-4.73785e-06
-7.98871e-07
-4.30532e-06
-8.13948e-07
-3.86719e-06
-8.24448e-07
-3.42591e-06
-8.30221e-07
-2.98398e-06
-8.31167e-07
-2.54393e-06
-8.27238e-07
-2.1083e-06
-8.1844e-07
-1.67959e-06
-8.04834e-07
-1.26023e-06
-7.86535e-07
-8.52594e-07
-7.6371e-07
-4.58933e-07
-7.36577e-07
-8.13694e-08
-7.054e-07
2.78129e-07
-6.70483e-07
6.17765e-07
-6.32168e-07
9.35931e-07
-5.90828e-07
1.23122e-06
-5.46859e-07
1.50243e-06
-5.00675e-07
1.7486e-06
-4.52698e-07
1.96894e-06
-4.03358e-07
2.16294e-06
-3.53079e-07
2.33025e-06
-3.02275e-07
2.47076e-06
-2.51348e-07
2.58456e-06
-2.00679e-07
2.67191e-06
-1.50624e-07
2.73326e-06
-1.01515e-07
2.76923e-06
-5.36538e-08
2.78056e-06
-7.31389e-09
2.76814e-06
3.72593e-08
2.73301e-06
7.98462e-08
2.67627e-06
1.20249e-07
2.59917e-06
1.58288e-07
2.50302e-06
1.9379e-07
2.38927e-06
2.26588e-07
2.25944e-06
2.56501e-07
2.11517e-06
2.83331e-07
1.95825e-06
3.0684e-07
1.79062e-06
3.26744e-07
1.61439e-06
3.42687e-07
1.43192e-06
3.54227e-07
1.24584e-06
3.60817e-07
1.0591e-06
3.61787e-07
8.7505e-07
3.56339e-07
6.97429e-07
3.43544e-07
5.30425e-07
3.22379e-07
3.7861e-07
2.91821e-07
2.46794e-07
2.51056e-07
1.39704e-07
1.99918e-07
6.14655e-08
1.39649e-07
1.47341e-08
7.4273e-08
1.46069e-08
9.27885e-10
-2.06395e-08
-9.88148e-09
-9.0688e-09
-4.05971e-08
3.38896e-08
-9.60762e-08
9.43793e-08
-1.78653e-07
1.63134e-07
-2.88813e-07
2.33721e-07
-4.25693e-07
3.0191e-07
-5.87529e-07
3.65127e-07
-7.72024e-07
4.21971e-07
-9.76625e-07
4.71869e-07
-1.19873e-06
5.14805e-07
-1.43581e-06
5.51136e-07
-1.68554e-06
5.81441e-07
-1.94583e-06
6.06421e-07
-2.21485e-06
6.26823e-07
-2.49104e-06
6.43389e-07
-2.77309e-06
6.56815e-07
-3.05995e-06
6.67735e-07
-3.35077e-06
6.76702e-07
-3.64489e-06
6.84185e-07
-3.94178e-06
6.90566e-07
-4.24105e-06
6.96148e-07
-4.54241e-06
7.01154e-07
-4.8456e-06
7.05741e-07
-5.15043e-06
7.10002e-07
-5.45672e-06
7.13981e-07
-5.76429e-06
7.17677e-07
-6.07295e-06
7.21052e-07
-6.38249e-06
7.24042e-07
-6.69267e-06
7.26558e-07
-7.0032e-06
7.28496e-07
-7.31375e-06
7.29739e-07
-7.62394e-06
7.30163e-07
-7.93336e-06
7.29637e-07
-8.24151e-06
7.28028e-07
-8.54787e-06
7.25201e-07
-8.85186e-06
7.21021e-07
-9.15283e-06
7.15354e-07
-9.45011e-06
7.08064e-07
-9.74295e-06
6.99019e-07
-1.00306e-05
6.88084e-07
-1.03121e-05
6.75128e-07
-1.05867e-05
6.60019e-07
-1.08534e-05
6.42626e-07
-1.11112e-05
6.22819e-07
-1.1359e-05
6.00472e-07
-1.15959e-05
5.75458e-07
-1.18206e-05
5.4766e-07
-1.2032e-05
5.16962e-07
-1.22288e-05
4.83261e-07
-1.241e-05
4.46461e-07
-1.25741e-05
4.06482e-07
-1.27198e-05
3.63261e-07
-1.2846e-05
3.16755e-07
-1.29512e-05
2.66944e-07
-1.30342e-05
2.13836e-07
-1.30937e-05
1.5747e-07
-1.31285e-05
9.79189e-08
-1.31374e-05
3.52949e-08
-1.31192e-05
-3.02515e-08
-1.30729e-05
-9.85264e-08
-1.29975e-05
-1.69288e-07
-1.28923e-05
-2.42253e-07
-1.27565e-05
-3.17086e-07
-1.25895e-05
-3.93409e-07
-1.23911e-05
-4.70798e-07
-1.2161e-05
-5.48783e-07
-1.18992e-05
-6.26857e-07
-1.16061e-05
-7.04474e-07
-1.12819e-05
-7.81058e-07
-1.09274e-05
-8.56007e-07
-1.05436e-05
-9.28701e-07
-1.01317e-05
-9.98508e-07
-9.69296e-06
-1.0648e-06
-9.22917e-06
-1.12693e-06
-8.74223e-06
-1.18431e-06
-8.23425e-06
-1.23634e-06
-7.7076e-06
-1.28247e-06
-7.16482e-06
-1.3222e-06
-6.60863e-06
-1.35506e-06
-6.04193e-06
-1.38065e-06
-5.4677e-06
-1.39867e-06
-4.88907e-06
-1.40885e-06
-4.30921e-06
-1.41103e-06
-3.73133e-06
-1.40512e-06
-3.15865e-06
-1.39112e-06
-2.59435e-06
-1.36914e-06
-2.04155e-06
-1.33933e-06
-1.50328e-06
-1.30198e-06
-9.82435e-07
-1.25742e-06
-4.81755e-07
-1.20608e-06
-3.79408e-09
-1.14844e-06
4.49106e-07
-1.08507e-06
8.74828e-07
-1.01655e-06
1.2715e-06
-9.43535e-07
1.63753e-06
-8.66696e-07
1.97155e-06
-7.86727e-07
2.27253e-06
-7.0433e-07
2.53965e-06
-6.20205e-07
2.77242e-06
-5.35039e-07
2.97057e-06
-4.49501e-07
3.13412e-06
-3.64226e-07
3.26331e-06
-2.79819e-07
3.35864e-06
-1.9684e-07
3.42079e-06
-1.15809e-07
3.45067e-06
-3.71969e-08
3.44937e-06
3.8565e-08
3.41813e-06
1.11087e-07
3.35836e-06
1.80015e-07
3.27163e-06
2.4502e-07
3.15963e-06
3.05787e-07
3.02422e-06
3.62005e-07
2.86737e-06
4.13348e-07
2.69124e-06
4.59457e-07
2.49817e-06
4.99917e-07
2.29067e-06
5.34238e-07
2.07153e-06
5.61826e-07
1.8438e-06
5.81959e-07
1.61085e-06
5.93765e-07
1.37644e-06
5.96202e-07
1.14472e-06
5.88057e-07
9.20299e-07
5.67963e-07
7.08212e-07
5.34466e-07
5.13863e-07
4.8617e-07
3.42892e-07
4.22027e-07
2.00939e-07
3.41872e-07
9.33375e-08
2.4725e-07
2.48526e-08
1.42758e-07
3.94596e-08
-5.69105e-09
-1.49488e-08
-3.25747e-08
1.78157e-08
-8.70209e-08
8.83356e-08
-1.72691e-07
1.80049e-07
-2.91158e-07
2.81601e-07
-4.42355e-07
3.84919e-07
-6.24995e-07
4.8455e-07
-8.36945e-07
5.77077e-07
-1.07556e-06
6.60585e-07
-1.33793e-06
7.34242e-07
-1.62111e-06
7.97981e-07
-1.92222e-06
8.52246e-07
-2.23859e-06
8.9781e-07
-2.56779e-06
9.35628e-07
-2.9077e-06
9.66732e-07
-3.25647e-06
9.92157e-07
-3.61254e-06
1.01289e-06
-3.97463e-06
1.02982e-06
-4.34168e-06
1.04375e-06
-4.71284e-06
1.05535e-06
-5.08744e-06
1.06517e-06
-5.46493e-06
1.07365e-06
-5.8449e-06
1.08112e-06
-6.22697e-06
1.08781e-06
-6.61084e-06
1.09387e-06
-6.99622e-06
1.09936e-06
-7.38283e-06
1.10429e-06
-7.77037e-06
1.1086e-06
-8.15854e-06
1.11221e-06
-8.54697e-06
1.11499e-06
-8.93527e-06
1.11679e-06
-9.32299e-06
1.11746e-06
-9.70963e-06
1.1168e-06
-1.00946e-05
1.11464e-06
-1.04774e-05
1.11078e-06
-1.08572e-05
1.10504e-06
-1.12334e-05
1.0972e-06
-1.16051e-05
1.0871e-06
-1.19716e-05
1.07452e-06
-1.23319e-05
1.05928e-06
-1.2685e-05
1.0412e-06
-1.30299e-05
1.02007e-06
-1.33656e-05
9.95726e-07
-1.3691e-05
9.67966e-07
-1.40048e-05
9.36612e-07
-1.43058e-05
9.01484e-07
-1.45927e-05
8.62406e-07
-1.48643e-05
8.1921e-07
-1.51191e-05
7.71736e-07
-1.53556e-05
7.1984e-07
-1.55726e-05
6.6339e-07
-1.57684e-05
6.02278e-07
-1.59415e-05
5.3642e-07
-1.60905e-05
4.65761e-07
-1.62139e-05
3.90282e-07
-1.631e-05
3.10004e-07
-1.63775e-05
2.24993e-07
-1.6415e-05
1.35366e-07
-1.6421e-05
4.12947e-08
-1.63943e-05
-5.69924e-08
-1.63336e-05
-1.59202e-07
-1.62379e-05
-2.64975e-07
-1.61063e-05
-3.73889e-07
-1.59379e-05
-4.85452e-07
-1.57322e-05
-5.99105e-07
-1.54888e-05
-7.14224e-07
-1.52074e-05
-8.30125e-07
-1.48882e-05
-9.46064e-07
-1.45314e-05
-1.06125e-06
-1.41377e-05
-1.17484e-06
-1.37077e-05
-1.28595e-06
-1.32427e-05
-1.3937e-06
-1.27441e-05
-1.49717e-06
-1.22134e-05
-1.59543e-06
-1.16528e-05
-1.68757e-06
-1.10644e-05
-1.77272e-06
-1.04507e-05
-1.85001e-06
-9.81454e-06
-1.91865e-06
-9.15883e-06
-1.9779e-06
-8.48679e-06
-2.0271e-06
-7.80179e-06
-2.06566e-06
-7.10734e-06
-2.09312e-06
-6.4071e-06
-2.10909e-06
-5.70479e-06
-2.11334e-06
-5.00418e-06
-2.10572e-06
-4.30907e-06
-2.08623e-06
-3.62322e-06
-2.05499e-06
-2.95032e-06
-2.01223e-06
-2.29397e-06
-1.95833e-06
-1.65761e-06
-1.89378e-06
-1.04453e-06
-1.81916e-06
-4.57794e-07
-1.73518e-06
9.97553e-08
-1.64262e-06
6.25544e-07
-1.54234e-06
1.11728e-06
-1.43527e-06
1.57296e-06
-1.32238e-06
1.9909e-06
-1.20467e-06
2.36973e-06
-1.08316e-06
2.70841e-06
-9.58884e-07
3.00621e-06
-8.32839e-07
3.26272e-06
-7.06011e-07
3.47784e-06
-5.79343e-07
3.65175e-06
-4.53734e-07
3.78493e-06
-3.30025e-07
3.87812e-06
-2.08997e-07
3.9323e-06
-9.1374e-08
3.94868e-06
2.21855e-08
3.92869e-06
1.31076e-07
3.87396e-06
2.34742e-07
3.78632e-06
3.32662e-07
3.66777e-06
4.24338e-07
3.5205e-06
5.09276e-07
3.34689e-06
5.86962e-07
3.14951e-06
6.56838e-07
2.93115e-06
7.18273e-07
2.69486e-06
7.70533e-07
2.44393e-06
8.12749e-07
2.18201e-06
8.43886e-07
1.91305e-06
8.62719e-07
1.64144e-06
8.67813e-07
1.37197e-06
8.57528e-07
1.10988e-06
8.30054e-07
8.60844e-07
7.83501e-07
6.30933e-07
7.16082e-07
4.26521e-07
6.26438e-07
2.54206e-07
5.14188e-07
1.20747e-07
3.80709e-07
3.32327e-08
2.30272e-07
7.26925e-08
-1.29066e-08
-2.04189e-09
-5.77671e-08
6.26762e-08
-1.38596e-07
1.69164e-07
-2.57455e-07
2.98908e-07
-4.14786e-07
4.38932e-07
-6.09704e-07
5.79837e-07
-8.40312e-07
7.15159e-07
-1.10401e-06
8.40774e-07
-1.39775e-06
9.54331e-07
-1.7183e-06
1.05479e-06
-2.06239e-06
1.14206e-06
-2.42685e-06
1.2167e-06
-2.80873e-06
1.27969e-06
-3.20535e-06
1.33225e-06
-3.61433e-06
1.37571e-06
-4.0336e-06
1.41143e-06
-4.4614e-06
1.44068e-06
-4.89623e-06
1.46466e-06
-5.33688e-06
1.48439e-06
-5.78232e-06
1.50079e-06
-6.23174e-06
1.51458e-06
-6.68446e-06
1.52636e-06
-7.13991e-06
1.53657e-06
-7.59761e-06
1.54551e-06
-8.05714e-06
1.5534e-06
-8.51809e-06
1.56031e-06
-8.98007e-06
1.56627e-06
-9.44268e-06
1.5712e-06
-9.90548e-06
1.57501e-06
-1.0368e-05
1.57751e-06
-1.08297e-05
1.57853e-06
-1.12901e-05
1.57784e-06
-1.17485e-05
1.57521e-06
-1.22043e-05
1.57039e-06
-1.26566e-05
1.56314e-06
-1.31048e-05
1.55319e-06
-1.35479e-05
1.5403e-06
-1.3985e-05
1.52421e-06
-1.44151e-05
1.50466e-06
-1.48373e-05
1.48142e-06
-1.52503e-05
1.45423e-06
-1.56531e-05
1.42283e-06
-1.60443e-05
1.387e-06
-1.64228e-05
1.34648e-06
-1.67873e-05
1.30103e-06
-1.71362e-05
1.25042e-06
-1.74682e-05
1.19442e-06
-1.77818e-05
1.13281e-06
-1.80755e-05
1.06538e-06
-1.83476e-05
9.91949e-07
-1.85965e-05
9.12339e-07
-1.88207e-05
8.26415e-07
-1.90183e-05
7.34071e-07
-1.91878e-05
6.35242e-07
-1.93274e-05
5.29911e-07
-1.94355e-05
4.18114e-07
-1.95105e-05
2.9995e-07
-1.95507e-05
1.75583e-07
-1.95547e-05
4.52554e-08
-1.95209e-05
-9.0718e-08
-1.94482e-05
-2.31932e-07
-1.93353e-05
-3.77899e-07
-1.91811e-05
-5.28038e-07
-1.89849e-05
-6.81682e-07
-1.87459e-05
-8.38072e-07
-1.84638e-05
-9.96366e-07
-1.81383e-05
-1.15564e-06
-1.77695e-05
-1.31488e-06
-1.73577e-05
-1.47302e-06
-1.69036e-05
-1.62894e-06
-1.64081e-05
-1.78146e-06
-1.58724e-05
-1.92935e-06
-1.52982e-05
-2.0714e-06
-1.46873e-05
-2.20637e-06
-1.40418e-05
-2.33303e-06
-1.33643e-05
-2.4502e-06
-1.26576e-05
-2.55672e-06
-1.19248e-05
-2.65151e-06
-1.11691e-05
-2.73358e-06
-1.03942e-05
-2.80202e-06
-9.60376e-06
-2.85606e-06
-8.80183e-06
-2.89504e-06
-7.99247e-06
-2.91845e-06
-7.17988e-06
-2.92594e-06
-6.36831e-06
-2.91729e-06
-5.56205e-06
-2.8925e-06
-4.76535e-06
-2.85168e-06
-3.98243e-06
-2.79515e-06
-3.21737e-06
-2.72339e-06
-2.47414e-06
-2.63701e-06
-1.7565e-06
-2.5368e-06
-1.068e-06
-2.42368e-06
-4.11926e-07
-2.29869e-06
2.08696e-07
-2.16296e-06
7.91167e-07
-2.01774e-06
1.33311e-06
-1.86432e-06
1.8325e-06
-1.70405e-06
2.28765e-06
-1.53832e-06
2.69726e-06
-1.36849e-06
3.06037e-06
-1.19595e-06
3.37639e-06
-1.02203e-06
3.64507e-06
-8.48026e-07
3.86652e-06
-6.75181e-07
4.04115e-06
-5.0466e-07
4.16971e-06
-3.37554e-07
4.25321e-06
-1.74879e-07
4.29297e-06
-1.75677e-08
4.29053e-06
1.33516e-07
4.2477e-06
2.77571e-07
4.16651e-06
4.13848e-07
4.04922e-06
5.41625e-07
3.89831e-06
6.60185e-07
3.71648e-06
7.68792e-07
3.50667e-06
8.66654e-07
3.27205e-06
9.52892e-07
3.01608e-06
1.0265e-06
2.74252e-06
1.08631e-06
2.45547e-06
1.13094e-06
2.15937e-06
1.15882e-06
1.8591e-06
1.16808e-06
1.55996e-06
1.15667e-06
1.2677e-06
1.12231e-06
9.88542e-07
1.06266e-06
7.29137e-07
9.75486e-07
4.96604e-07
8.58972e-07
2.98539e-07
7.12252e-07
1.43185e-07
5.36063e-07
3.98386e-08
3.33619e-07
1.12531e-07
-2.03477e-08
1.83056e-08
-8.41699e-08
1.26498e-07
-1.92953e-07
2.77948e-07
-3.46924e-07
4.52879e-07
-5.45145e-07
6.37153e-07
-7.85704e-07
8.20395e-07
-1.06594e-06
9.9539e-07
-1.38265e-06
1.15749e-06
-1.73237e-06
1.30404e-06
-2.11146e-06
1.43389e-06
-2.51636e-06
1.54696e-06
-2.94363e-06
1.64398e-06
-3.39009e-06
1.72615e-06
-3.85285e-06
1.795e-06
-4.32931e-06
1.85217e-06
-4.81722e-06
1.89934e-06
-5.31465e-06
1.93811e-06
-5.81995e-06
1.96995e-06
-6.33173e-06
1.99618e-06
-6.84885e-06
2.01791e-06
-7.37033e-06
2.03607e-06
-7.89538e-06
2.05141e-06
-8.42331e-06
2.0645e-06
-8.95351e-06
2.07571e-06
-9.48544e-06
2.08532e-06
-1.00186e-05
2.09344e-06
-1.05524e-05
2.1001e-06
-1.10864e-05
2.10521e-06
-1.16201e-05
2.10865e-06
-1.21527e-05
2.1102e-06
-1.26839e-05
2.10964e-06
-1.32127e-05
2.10669e-06
-1.37386e-05
2.10106e-06
-1.42606e-05
2.09245e-06
-1.4778e-05
2.08055e-06
-1.52899e-05
2.06504e-06
-1.57952e-05
2.04562e-06
-1.6293e-05
2.02196e-06
-1.67821e-05
1.99376e-06
-1.72613e-05
1.9607e-06
-1.77296e-05
1.92249e-06
-1.81856e-05
1.87881e-06
-1.86279e-05
1.82936e-06
-1.90553e-05
1.77384e-06
-1.94662e-05
1.71195e-06
-1.98592e-05
1.6434e-06
-2.02327e-05
1.5679e-06
-2.0585e-05
1.48518e-06
-2.09146e-05
1.39498e-06
-2.12198e-05
1.29707e-06
-2.14987e-05
1.19123e-06
-2.17495e-05
1.0773e-06
-2.19706e-05
9.55135e-07
-2.216e-05
8.24668e-07
-2.2316e-05
6.85879e-07
-2.24367e-05
5.3882e-07
-2.25204e-05
3.83621e-07
-2.25653e-05
2.20499e-07
-2.25698e-05
4.97665e-08
-2.25324e-05
-1.28168e-07
-2.24515e-05
-3.12782e-07
-2.2326e-05
-5.03446e-07
-2.21546e-05
-6.99418e-07
-2.19364e-05
-8.99839e-07
-2.16708e-05
-1.10374e-06
-2.13571e-05
-1.31004e-06
-2.09952e-05
-1.51754e-06
-2.05851e-05
-1.72498e-06
-2.01271e-05
-1.93098e-06
-1.9622e-05
-2.13409e-06
-1.90706e-05
-2.33282e-06
-1.84744e-05
-2.5256e-06
-1.78349e-05
-2.71088e-06
-1.71542e-05
-2.88706e-06
-1.64346e-05
-3.05259e-06
-1.56789e-05
-3.20593e-06
-1.489e-05
-3.3456e-06
-1.40713e-05
-3.47023e-06
-1.32263e-05
-3.57852e-06
-1.23591e-05
-3.66931e-06
-1.14735e-05
-3.74158e-06
-1.05741e-05
-3.79448e-06
-9.66523e-06
-3.82733e-06
-8.75153e-06
-3.83964e-06
-7.83769e-06
-3.83113e-06
-6.92844e-06
-3.80174e-06
-6.02852e-06
-3.75161e-06
-5.14257e-06
-3.6811e-06
-4.27519e-06
-3.59077e-06
-3.43078e-06
-3.48141e-06
-2.6136e-06
-3.35398e-06
-1.82765e-06
-3.20963e-06
-1.07668e-06
-3.04966e-06
-3.64122e-07
-2.87552e-06
3.06905e-07
-2.68877e-06
9.33643e-07
-2.49106e-06
1.51371e-06
-2.28412e-06
2.04511e-06
-2.06972e-06
2.52625e-06
-1.84963e-06
2.95594e-06
-1.62563e-06
3.33336e-06
-1.39946e-06
3.65813e-06
-1.1728e-06
3.93023e-06
-9.47275e-07
4.14999e-06
-7.24425e-07
4.31813e-06
-5.05695e-07
4.43569e-06
-2.92432e-07
4.50401e-06
-8.5889e-08
4.52475e-06
1.12772e-07
4.49986e-06
3.02467e-07
4.43153e-06
4.82177e-07
4.32224e-06
6.50919e-07
4.1747e-06
8.07722e-07
3.99189e-06
9.51595e-07
3.77707e-06
1.08148e-06
3.53372e-06
1.19623e-06
3.26568e-06
1.29454e-06
2.97707e-06
1.37492e-06
2.67237e-06
1.43564e-06
2.35644e-06
1.47474e-06
2.03457e-06
1.48996e-06
1.71247e-06
1.47877e-06
1.39635e-06
1.43843e-06
1.09291e-06
1.3661e-06
8.09394e-07
1.259e-06
5.53659e-07
1.11471e-06
3.34309e-07
9.31602e-07
1.60989e-07
7.09383e-07
4.4915e-08
4.49694e-07
1.57446e-07
-2.78466e-08
4.6152e-08
-1.11049e-07
2.09701e-07
-2.48623e-07
4.15522e-07
-4.38834e-07
6.43091e-07
-6.79216e-07
8.77535e-07
-9.66679e-07
1.10786e-06
-1.29766e-06
1.32637e-06
-1.66828e-06
1.52812e-06
-2.07454e-06
1.7103e-06
-2.5124e-06
1.87175e-06
-2.97797e-06
2.01253e-06
-3.46755e-06
2.13356e-06
-3.97775e-06
2.23635e-06
-4.50546e-06
2.32271e-06
-5.04795e-06
2.39466e-06
-5.60279e-06
2.45419e-06
-6.16791e-06
2.50323e-06
-6.74153e-06
2.54357e-06
-7.32213e-06
2.57678e-06
-7.90844e-06
2.60422e-06
-8.49938e-06
2.62701e-06
-9.09401e-06
2.64604e-06
-9.69153e-06
2.66202e-06
-1.02912e-05
2.67541e-06
-1.08924e-05
2.68652e-06
-1.14945e-05
2.69552e-06
-1.20968e-05
2.70243e-06
-1.26988e-05
2.70717e-06
-1.32997e-05
2.70956e-06
-1.38989e-05
2.70938e-06
-1.44956e-05
2.70635e-06
-1.5089e-05
2.70014e-06
-1.56784e-05
2.69042e-06
-1.62628e-05
2.67682e-06
-1.68412e-05
2.65899e-06
-1.74127e-05
2.63654e-06
-1.79762e-05
2.60911e-06
-1.85306e-05
2.57633e-06
-1.90747e-05
2.53784e-06
-1.96072e-05
2.49327e-06
-2.0127e-05
2.44226e-06
-2.06326e-05
2.38444e-06
-2.11227e-05
2.31946e-06
-2.15958e-05
2.24695e-06
-2.20504e-05
2.16656e-06
-2.2485e-05
2.07793e-06
-2.28978e-05
1.98072e-06
-2.32872e-05
1.8746e-06
-2.36515e-05
1.75926e-06
-2.39888e-05
1.6344e-06
-2.42973e-05
1.49977e-06
-2.45752e-05
1.35516e-06
-2.48205e-05
1.20041e-06
-2.50312e-05
1.03542e-06
-2.52055e-05
8.60166e-07
-2.53414e-05
6.74713e-07
-2.5437e-05
4.7922e-07
-2.54905e-05
2.73949e-07
-2.55e-05
5.92849e-08
-2.54639e-05
-1.64273e-07
-2.53806e-05
-3.96083e-07
-2.52486e-05
-6.35375e-07
-2.50668e-05
-8.81234e-07
-2.48341e-05
-1.13261e-06
-2.45495e-05
-1.3883e-06
-2.42126e-05
-1.64699e-06
-2.38229e-05
-1.90721e-06
-2.33805e-05
-2.16738e-06
-2.28856e-05
-2.42583e-06
-2.2339e-05
-2.68077e-06
-2.17414e-05
-2.93035e-06
-2.10944e-05
-3.17266e-06
-2.03995e-05
-3.40575e-06
-1.96589e-05
-3.62768e-06
-1.8875e-05
-3.8365e-06
-1.80506e-05
-4.03032e-06
-1.71889e-05
-4.2073e-06
-1.62934e-05
-4.36572e-06
-1.5368e-05
-4.50397e-06
-1.44167e-05
-4.62058e-06
-1.3444e-05
-4.71426e-06
-1.24546e-05
-4.78394e-06
-1.14532e-05
-4.82873e-06
-1.04448e-05
-4.848e-06
-9.43456e-06
-4.84136e-06
-8.42762e-06
-4.80868e-06
-7.42914e-06
-4.75009e-06
-6.44425e-06
-4.66599e-06
-5.47798e-06
-4.55704e-06
-4.53525e-06
-4.42415e-06
-3.62075e-06
-4.26848e-06
-2.73898e-06
-4.0914e-06
-1.89414e-06
-3.89451e-06
-1.09011e-06
-3.67955e-06
-3.30432e-07
-3.44844e-06
3.81732e-07
-3.20322e-06
1.04363e-06
-2.94602e-06
1.65292e-06
-2.67901e-06
2.20771e-06
-2.40442e-06
2.70653e-06
-2.12445e-06
3.14836e-06
-1.84129e-06
3.53261e-06
-1.55705e-06
3.85912e-06
-1.27379e-06
4.12816e-06
-9.93457e-07
4.34035e-06
-7.17892e-07
4.49674e-06
-4.48823e-07
4.59872e-06
-1.87861e-07
4.648e-06
6.34917e-08
4.64663e-06
3.0383e-07
4.59698e-06
5.31828e-07
4.50169e-06
7.46209e-07
4.3637e-06
9.45717e-07
4.18622e-06
1.12907e-06
3.97276e-06
1.29494e-06
3.72714e-06
1.44186e-06
3.45345e-06
1.56822e-06
3.15617e-06
1.6722e-06
2.84011e-06
1.75171e-06
2.51048e-06
1.80438e-06
2.17291e-06
1.82752e-06
1.83352e-06
1.81816e-06
1.49893e-06
1.77303e-06
1.1763e-06
1.68873e-06
8.73461e-07
1.56184e-06
5.98999e-07
1.38917e-06
3.62478e-07
1.16812e-06
1.74799e-07
8.97062e-07
4.87479e-08
5.75745e-07
2.06194e-07
-3.5288e-08
8.14407e-08
-1.37981e-07
3.12393e-07
-3.04695e-07
5.82236e-07
-5.31705e-07
8.70101e-07
-8.14937e-07
1.16077e-06
-1.15002e-06
1.44294e-06
-1.5324e-06
1.70875e-06
-1.95743e-06
1.95315e-06
-2.42051e-06
2.17338e-06
-2.91716e-06
2.3684e-06
-3.44314e-06
2.53851e-06
-3.99449e-06
2.68491e-06
-4.56757e-06
2.80943e-06
-5.15913e-06
2.91427e-06
-5.76625e-06
3.00178e-06
-6.38641e-06
3.07435e-06
-7.0174e-06
3.13422e-06
-7.65731e-06
3.18349e-06
-8.30454e-06
3.22401e-06
-8.95769e-06
3.25737e-06
-9.61557e-06
3.28489e-06
-1.02772e-05
3.30763e-06
-1.09415e-05
3.32639e-06
-1.16079e-05
3.34173e-06
-1.22754e-05
3.35404e-06
-1.29433e-05
3.36348e-06
-1.3611e-05
3.3701e-06
-1.42776e-05
3.37381e-06
-1.49425e-05
3.37442e-06
-1.56048e-05
3.37166e-06
-1.62636e-05
3.36521e-06
-1.69182e-05
3.35471e-06
-1.75675e-05
3.33977e-06
-1.82107e-05
3.31999e-06
-1.88467e-05
3.29494e-06
-1.94743e-05
3.26422e-06
-2.00926e-05
3.2274e-06
-2.07004e-05
3.18406e-06
-2.12963e-05
3.13379e-06
-2.18792e-05
3.07618e-06
-2.24478e-05
3.01081e-06
-2.30006e-05
2.93726e-06
-2.35363e-05
2.85513e-06
-2.40533e-05
2.76398e-06
-2.45501e-05
2.6634e-06
-2.50252e-05
2.55298e-06
-2.54768e-05
2.43231e-06
-2.59032e-05
2.30099e-06
-2.63026e-05
2.15865e-06
-2.66731e-05
2.00493e-06
-2.70128e-05
1.83952e-06
-2.73199e-05
1.66217e-06
-2.75921e-05
1.47267e-06
-2.78276e-05
1.27088e-06
-2.80242e-05
1.05679e-06
-2.81799e-05
8.3043e-07
-2.82927e-05
5.91996e-07
-2.83605e-05
3.41786e-07
-2.83815e-05
8.02443e-08
-2.83537e-05
-1.92042e-07
-2.82755e-05
-4.74321e-07
-2.81452e-05
-7.65678e-07
-2.79614e-05
-1.06503e-06
-2.77228e-05
-1.37114e-06
-2.74286e-05
-1.68257e-06
-2.70778e-05
-1.99774e-06
-2.66701e-05
-2.31492e-06
-2.62053e-05
-2.63222e-06
-2.56835e-05
-2.94763e-06
-2.51052e-05
-3.259e-06
-2.44715e-05
-3.56413e-06
-2.37834e-05
-3.86072e-06
-2.30427e-05
-4.14642e-06
-2.22515e-05
-4.41888e-06
-2.14123e-05
-4.67576e-06
-2.05278e-05
-4.91475e-06
-1.96015e-05
-5.13363e-06
-1.86369e-05
-5.3303e-06
-1.76381e-05
-5.50278e-06
-1.66094e-05
-5.64927e-06
-1.55555e-05
-5.76818e-06
-1.44813e-05
-5.85814e-06
-1.3392e-05
-5.91806e-06
-1.22929e-05
-5.9471e-06
-1.11895e-05
-5.94474e-06
-1.00874e-05
-5.91075e-06
-8.99227e-06
-5.84523e-06
-7.90967e-06
-5.74859e-06
-6.84513e-06
-5.62158e-06
-5.80406e-06
-5.46522e-06
-4.79167e-06
-5.28086e-06
-3.81295e-06
-5.07012e-06
-2.87261e-06
-4.83485e-06
-1.975e-06
-4.57715e-06
-1.12414e-06
-4.29931e-06
-3.23617e-07
-4.00375e-06
4.23399e-07
-3.69303e-06
1.1142e-06
-3.36981e-06
1.74654e-06
-3.03676e-06
2.31866e-06
-2.69657e-06
2.82929e-06
-2.35192e-06
3.27763e-06
-2.00539e-06
3.66336e-06
-1.65952e-06
3.98661e-06
-1.31671e-06
4.24797e-06
-9.79244e-07
4.44842e-06
-6.49278e-07
4.58938e-06
-3.28822e-07
4.67263e-06
-1.97618e-08
4.70033e-06
2.76139e-07
4.67494e-06
5.57211e-07
4.5993e-06
8.21851e-07
4.47653e-06
1.06849e-06
4.31007e-06
1.29553e-06
4.10368e-06
1.50133e-06
3.86142e-06
1.68412e-06
3.5877e-06
1.84195e-06
3.28726e-06
1.97264e-06
2.96522e-06
2.07375e-06
2.62711e-06
2.14248e-06
2.27892e-06
2.17571e-06
1.92712e-06
2.16996e-06
1.57871e-06
2.12144e-06
1.24135e-06
2.02609e-06
9.23418e-07
1.87977e-06
6.34215e-07
1.67837e-06
3.84184e-07
1.41815e-06
1.85301e-07
1.09595e-06
5.15967e-08
7.0945e-07
2.57791e-07
-4.26262e-08
1.24067e-07
-1.64725e-07
4.34493e-07
-3.60607e-07
7.78117e-07
-6.24572e-07
1.13407e-06
-9.50899e-07
1.48709e-06
-1.33389e-06
1.82593e-06
-1.76791e-06
2.14277e-06
-2.2475e-06
2.43274e-06
-2.7674e-06
2.69328e-06
-3.32265e-06
2.92365e-06
-3.90863e-06
3.12448e-06
-4.52108e-06
3.29736e-06