/*--------------------------------*- C++ -*----------------------------------*\
| =========                 |                                                 |
| \\      /  F ield         | OpenFOAM: The Open Source CFD Toolbox           |
|  \\    /   O peration     | Version:  2112                                  |
|   \\  /    A nd           | Website:  www.openfoam.com                      |
|    \\/     M anipulation  |                                                 |
\*---------------------------------------------------------------------------*/
FoamFile
{
    version     2.0;
    format      ascii;
    arch        "LSB;label=32;scalar=64";
    class       volVectorField;
    location    "10";
    object      U;
}
// * * * * * * * * * * * * * * * * * * * * * * * * * * * * * * * * * * * * * //

dimensions      [0 1 -1 0 0 0 0];

internalField   nonuniform List<vector> 
16641
(
(3.16177e-06 -3.23607e-06 0)
(1.2272e-05 -5.52151e-06 0)
(2.2345e-05 -4.67149e-06 0)
(2.73031e-05 -2.43665e-06 0)
(2.46368e-05 2.16428e-07 0)
(1.3864e-05 2.84329e-06 0)
(-4.73135e-06 5.23044e-06 0)
(-3.04702e-05 7.30763e-06 0)
(-6.24813e-05 9.05435e-06 0)
(-9.98625e-05 1.04854e-05 0)
(-0.000141738 1.16337e-05 0)
(-0.000187303 1.25378e-05 0)
(-0.000235848 1.3237e-05 0)
(-0.000286765 1.37685e-05 0)
(-0.000339549 1.41669e-05 0)
(-0.000393789 1.44635e-05 0)
(-0.000449163 1.46851e-05 0)
(-0.000505429 1.48543e-05 0)
(-0.000562408 1.49902e-05 0)
(-0.000619977 1.51077e-05 0)
(-0.000678058 1.5218e-05 0)
(-0.000736606 1.53295e-05 0)
(-0.000795602 1.54478e-05 0)
(-0.000855042 1.55761e-05 0)
(-0.000914936 1.5716e-05 0)
(-0.000975294 1.58676e-05 0)
(-0.00103613 1.60291e-05 0)
(-0.00109744 1.61983e-05 0)
(-0.00115924 1.63723e-05 0)
(-0.00122151 1.65477e-05 0)
(-0.00128423 1.67202e-05 0)
(-0.00134737 1.68858e-05 0)
(-0.00141087 1.70403e-05 0)
(-0.00147467 1.71795e-05 0)
(-0.00153871 1.72989e-05 0)
(-0.00160289 1.73943e-05 0)
(-0.00166709 1.74611e-05 0)
(-0.00173122 1.74952e-05 0)
(-0.00179512 1.74922e-05 0)
(-0.00185866 1.74478e-05 0)
(-0.00192167 1.73575e-05 0)
(-0.00198398 1.72169e-05 0)
(-0.00204538 1.70215e-05 0)
(-0.00210569 1.67666e-05 0)
(-0.00216468 1.64474e-05 0)
(-0.0022221 1.60593e-05 0)
(-0.00227772 1.55975e-05 0)
(-0.00233127 1.50574e-05 0)
(-0.00238247 1.4434e-05 0)
(-0.00243102 1.37228e-05 0)
(-0.00247663 1.29193e-05 0)
(-0.00251896 1.20196e-05 0)
(-0.00255771 1.10202e-05 0)
(-0.00259252 9.91802e-06 0)
(-0.00262306 8.71056e-06 0)
(-0.00264897 7.39607e-06 0)
(-0.00266991 5.97394e-06 0)
(-0.00268554 4.4448e-06 0)
(-0.0026955 2.81042e-06 0)
(-0.00269948 1.07379e-06 0)
(-0.00269714 -7.61207e-07 0)
(-0.00268821 -2.68821e-06 0)
(-0.0026724 -4.69957e-06 0)
(-0.00264947 -6.78601e-06 0)
(-0.00261922 -8.93652e-06 0)
(-0.00258148 -1.11384e-05 0)
(-0.00253612 -1.33773e-05 0)
(-0.00248307 -1.56371e-05 0)
(-0.00242232 -1.79007e-05 0)
(-0.00235391 -2.01491e-05 0)
(-0.00227795 -2.23624e-05 0)
(-0.00219461 -2.45198e-05 0)
(-0.00210412 -2.65998e-05 0)
(-0.0020068 -2.85809e-05 0)
(-0.00190302 -3.04412e-05 0)
(-0.00179323 -3.21596e-05 0)
(-0.00167794 -3.37156e-05 0)
(-0.00155772 -3.509e-05 0)
(-0.00143322 -3.62649e-05 0)
(-0.00130511 -3.72244e-05 0)
(-0.00117413 -3.7955e-05 0)
(-0.00104105 -3.84456e-05 0)
(-0.000906682 -3.86881e-05 0)
(-0.000771844 -3.86768e-05 0)
(-0.000637375 -3.84098e-05 0)
(-0.000504118 -3.78883e-05 0)
(-0.000372906 -3.71164e-05 0)
(-0.000244555 -3.61018e-05 0)
(-0.000119852 -3.48551e-05 0)
(4.50873e-07 -3.339e-05 0)
(0.000115648 -3.17225e-05 0)
(0.000225086 -2.98709e-05 0)
(0.000328174 -2.78558e-05 0)
(0.000424386 -2.56994e-05 0)
(0.000513264 -2.34244e-05 0)
(0.000594429 -2.10545e-05 0)
(0.000667572 -1.86137e-05 0)
(0.000732464 -1.61256e-05 0)
(0.000788948 -1.36132e-05 0)
(0.000836945 -1.10986e-05 0)
(0.000876442 -8.60247e-06 0)
(0.000907495 -6.14413e-06 0)
(0.000930221 -3.74099e-06 0)
(0.000944794 -1.40835e-06 0)
(0.000951438 8.40512e-07 0)
(0.000950422 2.99425e-06 0)
(0.000942054 5.04386e-06 0)
(0.000926674 6.98194e-06 0)
(0.000904652 8.80269e-06 0)
(0.000876382 1.05016e-05 0)
(0.000842277 1.20749e-05 0)
(0.000802772 1.35195e-05 0)
(0.000758322 1.48319e-05 0)
(0.000709403 1.60073e-05 0)
(0.000656518 1.70393e-05 0)
(0.000600209 1.79178e-05 0)
(0.000541062 1.86284e-05 0)
(0.000479727 1.91498e-05 0)
(0.00041694 1.94521e-05 0)
(0.000353549 1.94933e-05 0)
(0.00029055 1.92153e-05 0)
(0.000229126 1.85382e-05 0)
(0.000170701 1.73532e-05 0)
(0.000117001 1.5515e-05 0)
(7.01135e-05 1.28405e-05 0)
(3.24303e-05 9.14116e-06 0)
(6.24618e-06 4.38732e-06 0)
(-5.84589e-06 -7.12833e-07 0)
(-3.99106e-06 -3.98673e-06 0)
(5.45881e-06 -1.22639e-05 0)
(1.80995e-05 -1.81023e-05 0)
(2.74141e-05 -1.19097e-05 0)
(2.34635e-05 3.4428e-07 0)
(1.5828e-06 1.50318e-05 0)
(-3.97069e-05 3.00782e-05 0)
(-0.000100243 4.43226e-05 0)
(-0.00017884 5.71936e-05 0)
(-0.000273741 6.84415e-05 0)
(-0.00038295 7.80248e-05 0)
(-0.000504429 8.60225e-05 0)
(-0.000636235 9.25797e-05 0)
(-0.000776589 9.78737e-05 0)
(-0.000923926 0.000102092 0)
(-0.0010769 0.000105421 0)
(-0.0012344 0.000108035 0)
(-0.00139551 0.00011009 0)
(-0.00155952 0.000111724 0)
(-0.00172588 0.000113054 0)
(-0.00189417 0.000114176 0)
(-0.00206412 0.000115167 0)
(-0.00223552 0.000116083 0)
(-0.00240826 0.000116966 0)
(-0.00258223 0.000117844 0)
(-0.00275742 0.000118731 0)
(-0.00293377 0.000119632 0)
(-0.00311127 0.000120542 0)
(-0.00328988 0.00012145 0)
(-0.00346954 0.000122341 0)
(-0.00365019 0.000123195 0)
(-0.00383172 0.000123988 0)
(-0.004014 0.000124695 0)
(-0.00419686 0.000125291 0)
(-0.00438009 0.000125747 0)
(-0.00456347 0.000126037 0)
(-0.0047467 0.000126134 0)
(-0.00492948 0.000126008 0)
(-0.00511146 0.000125632 0)
(-0.00529224 0.00012498 0)
(-0.0054714 0.000124022 0)
(-0.00564848 0.000122732 0)
(-0.00582298 0.000121081 0)
(-0.00599435 0.000119042 0)
(-0.00616203 0.000116585 0)
(-0.0063254 0.000113684 0)
(-0.00648382 0.000110309 0)
(-0.0066366 0.000106433 0)
(-0.00678302 0.000102028 0)
(-0.00692232 9.70685e-05 0)
(-0.00705373 9.15279e-05 0)
(-0.00717642 8.53831e-05 0)
(-0.00728956 7.86134e-05 0)
(-0.00739228 7.12008e-05 0)
(-0.00748369 6.31313e-05 0)
(-0.0075629 5.43948e-05 0)
(-0.007629 4.4987e-05 0)
(-0.00768111 3.49099e-05 0)
(-0.00771833 2.41723e-05 0)
(-0.0077398 1.27906e-05 0)
(-0.00774468 7.89119e-07 0)
(-0.00773219 -1.17981e-05 0)
(-0.00770158 -2.49282e-05 0)
(-0.0076522 -3.85484e-05 0)
(-0.00758345 -5.25956e-05 0)
(-0.00749485 -6.69969e-05 0)
(-0.00738601 -8.16691e-05 0)
(-0.00725666 -9.65196e-05 0)
(-0.00710669 -0.000111447 0)
(-0.0069361 -0.00012634 0)
(-0.00674506 -0.000141082 0)
(-0.00653389 -0.000155549 0)
(-0.00630309 -0.000169612 0)
(-0.00605332 -0.000183141 0)
(-0.00578544 -0.000196002 0)
(-0.00550045 -0.000208065 0)
(-0.00519956 -0.0002192 0)
(-0.0048841 -0.000229284 0)
(-0.00455561 -0.0002382 0)
(-0.00421573 -0.000245841 0)
(-0.00386626 -0.000252111 0)
(-0.00350912 -0.000256929 0)
(-0.00314632 -0.000260226 0)
(-0.00277995 -0.000261952 0)
(-0.00241214 -0.000262074 0)
(-0.0020451 -0.000260577 0)
(-0.00168099 -0.000257466 0)
(-0.001322 -0.000252764 0)
(-0.000970246 -0.000246513 0)
(-0.000627803 -0.000238776 0)
(-0.000296644 -0.00022963 0)
(2.13644e-05 -0.00021917 0)
(0.000324487 -0.000207503 0)
(0.000611137 -0.00019475 0)
(0.000879888 -0.000181042 0)
(0.00112949 -0.000166517 0)
(0.00135888 -0.000151316 0)
(0.00156718 -0.000135586 0)
(0.00175372 -0.000119471 0)
(0.00191799 -0.000103116 0)
(0.00205969 -8.66579e-05 0)
(0.00217872 -7.02297e-05 0)
(0.00227513 -5.39556e-05 0)
(0.00234913 -3.79502e-05 0)
(0.00240111 -2.23177e-05 0)
(0.00243157 -7.1512e-06 0)
(0.00244116 7.467e-06 0)
(0.00243064 2.14654e-05 0)
(0.00240084 3.47826e-05 0)
(0.00235273 4.73656e-05 0)
(0.00228731 5.91678e-05 0)
(0.00220569 7.01466e-05 0)
(0.00210902 8.02606e-05 0)
(0.00199856 8.94657e-05 0)
(0.00187561 9.77102e-05 0)
(0.0017416 0.00010493 0)
(0.00159803 0.000111041 0)
(0.00144658 0.000115934 0)
(0.00128908 0.000119464 0)
(0.0011276 0.000121439 0)
(0.000964491 0.000121615 0)
(0.000802434 0.000119677 0)
(0.000644534 0.000115231 0)
(0.000494371 0.000107799 0)
(0.000356044 9.68295e-05 0)
(0.000234151 8.17635e-05 0)
(0.000133537 6.22397e-05 0)
(5.86614e-05 3.86249e-05 0)
(1.33398e-05 1.33798e-05 0)
(-7.4308e-07 -5.85893e-06 0)
(4.81134e-06 -2.25391e-05 0)
(1.21423e-05 -2.74477e-05 0)
(8.31899e-06 -8.34964e-06 0)
(-1.67261e-05 2.37147e-05 0)
(-6.81391e-05 6.16528e-05 0)
(-0.000147776 0.000100882 0)
(-0.000255507 0.000138602 0)
(-0.000389857 0.000173237 0)
(-0.000548537 0.00020401 0)
(-0.000728852 0.000230666 0)
(-0.000927985 0.000253282 0)
(-0.00114318 0.000272137 0)
(-0.00137188 0.000287624 0)
(-0.00161176 0.000300186 0)
(-0.00186083 0.000310281 0)
(-0.00211738 0.00031835 0)
(-0.00237998 0.000324798 0)
(-0.0026475 0.000329989 0)
(-0.00291904 0.000334233 0)
(-0.00319389 0.000337791 0)
(-0.00347154 0.000340874 0)
(-0.00375161 0.000343643 0)
(-0.00403382 0.000346217 0)
(-0.00431797 0.000348678 0)
(-0.00460392 0.000351071 0)
(-0.00489155 0.000353414 0)
(-0.00518074 0.000355702 0)
(-0.00547139 0.000357911 0)
(-0.00576334 0.000360002 0)
(-0.00605643 0.000361921 0)
(-0.00635044 0.00036361 0)
(-0.00664513 0.000365003 0)
(-0.00694019 0.000366029 0)
(-0.00723525 0.000366615 0)
(-0.00752991 0.000366688 0)
(-0.00782371 0.000366172 0)
(-0.00811612 0.000364992 0)
(-0.00840657 0.000363072 0)
(-0.00869443 0.000360339 0)
(-0.00897901 0.000356717 0)
(-0.00925957 0.000352131 0)
(-0.00953533 0.000346506 0)
(-0.00980543 0.000339769 0)
(-0.010069 0.000331844 0)
(-0.010325 0.000322657 0)
(-0.0105725 0.000312134 0)
(-0.0108105 0.000300204 0)
(-0.0110378 0.000286795 0)
(-0.0112532 0.000271841 0)
(-0.0114556 0.000255278 0)
(-0.0116438 0.000237048 0)
(-0.0118164 0.000217101 0)
(-0.0119722 0.000195394 0)
(-0.0121098 0.000171897 0)
(-0.0122279 0.000146592 0)
(-0.0123252 0.000119473 0)
(-0.0124003 9.05543e-05 0)
(-0.0124519 5.9868e-05 0)
(-0.0124788 2.74663e-05 0)
(-0.0124798 -6.57665e-06 0)
(-0.0124537 -4.21606e-05 0)
(-0.0123994 -7.91624e-05 0)
(-0.012316 -0.000117432 0)
(-0.0122027 -0.000156794 0)
(-0.0120588 -0.000197044 0)
(-0.0118838 -0.000237954 0)
(-0.0116773 -0.00027927 0)
(-0.0114393 -0.000320714 0)
(-0.0111697 -0.000361989 0)
(-0.010869 -0.000402776 0)
(-0.0105375 -0.000442744 0)
(-0.0101762 -0.000481549 0)
(-0.0097861 -0.000518841 0)
(-0.00936845 -0.000554265 0)
(-0.00892482 -0.000587473 0)
(-0.00845703 -0.000618123 0)
(-0.00796713 -0.000645887 0)
(-0.00745738 -0.000670455 0)
(-0.00693029 -0.000691545 0)
(-0.00638855 -0.000708903 0)
(-0.005835 -0.000722311 0)
(-0.00527267 -0.000731587 0)
(-0.00470467 -0.000736598 0)
(-0.0041342 -0.000737251 0)
(-0.00356453 -0.000733507 0)
(-0.00299893 -0.000725372 0)
(-0.00244065 -0.000712905 0)
(-0.00189288 -0.000696215 0)
(-0.00135874 -0.000675456 0)
(-0.000841211 -0.000650832 0)
(-0.000343124 -0.000622586 0)
(0.000132878 -0.000590999 0)
(0.000584361 -0.000556385 0)
(0.00100912 -0.000519088 0)
(0.00140522 -0.000479469 0)
(0.00177096 -0.000437907 0)
(0.00210495 -0.000394789 0)
(0.00240606 -0.000350502 0)
(0.00267345 -0.000305432 0)
(0.00290657 -0.000259955 0)
(0.00310513 -0.00021443 0)
(0.00326911 -0.0001692 0)
(0.00339874 -0.000124583 0)
(0.0034945 -8.08723e-05 0)
(0.00355705 -3.83343e-05 0)
(0.0035873 2.79191e-06 0)
(0.00358631 4.22936e-05 0)
(0.0035553 7.99825e-05 0)
(0.00349567 0.000115692 0)
(0.00340894 0.000149269 0)
(0.00329676 0.000180573 0)
(0.00316091 0.000209463 0)
(0.00300329 0.000235789 0)
(0.00282596 0.000259384 0)
(0.00263111 0.000280044 0)
(0.00242113 0.000297519 0)
(0.00219863 0.000311494 0)
(0.00196648 0.000321566 0)
(0.00172788 0.00032723 0)
(0.00148642 0.000327859 0)
(0.00124614 0.000322685 0)
(0.00101161 0.000310799 0)
(0.000787946 0.000291173 0)
(0.000580828 0.000262741 0)
(0.000396402 0.000224603 0)
(0.000240893 0.000176502 0)
(0.000119844 0.000119696 0)
(3.86209e-05 5.86899e-05 0)
(4.34332e-06 6.17805e-06 0)
(2.63639e-06 -2.77019e-05 0)
(-4.71166e-07 -2.3213e-05 0)
(-2.53083e-05 1.69782e-05 0)
(-7.98013e-05 7.69776e-05 0)
(-0.000168417 0.000146307 0)
(-0.000292813 0.00021782 0)
(-0.000452588 0.00028691 0)
(-0.000645917 0.000350832 0)
(-0.000870079 0.000408132 0)
(-0.00112187 0.000458239 0)
(-0.00139791 0.000501175 0)
(-0.00169486 0.000537341 0)
(-0.00200957 0.000567363 0)
(-0.00233916 0.000591987 0)
(-0.0026811 0.000611996 0)
(-0.00303321 0.000628163 0)
(-0.00339366 0.000641209 0)
(-0.00376091 0.000651785 0)
(-0.00413376 0.000660458 0)
(-0.00451123 0.000667708 0)
(-0.00489258 0.000673922 0)
(-0.00527722 0.000679404 0)
(-0.00566471 0.000684381 0)
(-0.00605472 0.000689008 0)
(-0.00644695 0.000693379 0)
(-0.00684118 0.000697533 0)
(-0.00723718 0.000701467 0)
(-0.00763472 0.000705141 0)
(-0.00803354 0.000708486 0)
(-0.00843334 0.000711412 0)
(-0.0088338 0.000713811 0)
(-0.00923451 0.000715563 0)
(-0.00963502 0.00071654 0)
(-0.0100348 0.00071661 0)
(-0.0104333 0.000715636 0)
(-0.0108299 0.000713481 0)
(-0.0112237 0.000710006 0)
(-0.0116141 0.000705074 0)
(-0.0120002 0.000698548 0)
(-0.0123811 0.00069029 0)
(-0.0127558 0.000680164 0)
(-0.0131231 0.000668035 0)
(-0.0134821 0.000653766 0)
(-0.0138316 0.000637224 0)
(-0.0141702 0.000618274 0)
(-0.0144966 0.000596786 0)
(-0.0148096 0.000572631 0)
(-0.0151077 0.000545683 0)
(-0.0153894 0.000515826 0)
(-0.0156531 0.000482948 0)
(-0.0158973 0.000446951 0)
(-0.0161204 0.000407749 0)
(-0.0163206 0.000365274 0)
(-0.0164964 0.000319477 0)
(-0.0166461 0.000270335 0)
(-0.0167679 0.000217849 0)
(-0.0168602 0.000162056 0)
(-0.0169215 0.000103024 0)
(-0.01695 4.0861e-05 0)
(-0.0169443 -2.42849e-05 0)
(-0.016903 -9.22208e-05 0)
(-0.0168248 -0.000162708 0)
(-0.0167085 -0.000235462 0)
(-0.0165533 -0.000310148 0)
(-0.0163581 -0.000386386 0)
(-0.0161226 -0.000463748 0)
(-0.0158462 -0.00054176 0)
(-0.0155289 -0.000619909 0)
(-0.0151709 -0.000697642 0)
(-0.0147725 -0.000774376 0)
(-0.0143345 -0.0008495 0)
(-0.013858 -0.000922382 0)
(-0.0133443 -0.000992382 0)
(-0.0127951 -0.00105885 0)
(-0.0122124 -0.00112116 0)
(-0.0115986 -0.00117868 0)
(-0.0109561 -0.0012308 0)
(-0.010288 -0.00127698 0)
(-0.00959741 -0.00131669 0)
(-0.00888769 -0.00134947 0)
(-0.00816249 -0.00137492 0)
(-0.00742562 -0.00139271 0)
(-0.00668104 -0.00140259 0)
(-0.0059328 -0.00140438 0)
(-0.00518504 -0.00139802 0)
(-0.00444191 -0.0013835 0)
(-0.00370755 -0.00136092 0)
(-0.00298605 -0.00133048 0)
(-0.00228137 -0.00129244 0)
(-0.00159735 -0.00124717 0)
(-0.000937622 -0.00119509 0)
(-0.000305616 -0.00113673 0)
(0.000295502 -0.00107263 0)
(0.000862848 -0.00100342 0)
(0.00139385 -0.000929751 0)
(0.00188626 -0.000852317 0)
(0.00233818 -0.000771822 0)
(0.00274806 -0.000688977 0)
(0.0031147 -0.000604491 0)
(0.00343726 -0.000519061 0)
(0.00371524 -0.000433357 0)
(0.0039485 -0.00034802 0)
(0.00413721 -0.000263652 0)
(0.00428185 -0.000180811 0)
(0.00438317 -0.00010001 0)
(0.00444223 -2.17165e-05 0)
(0.00446029 5.36511e-05 0)
(0.00443888 0.000125714 0)
(0.00437971 0.00019413 0)
(0.00428471 0.000258585 0)
(0.00415596 0.000318779 0)
(0.00399577 0.000374415 0)
(0.0038066 0.000425182 0)
(0.00359113 0.000470731 0)
(0.00335222 0.000510659 0)
(0.003093 0.000544477 0)
(0.0028169 0.000571586 0)
(0.00252764 0.00059125 0)
(0.00222937 0.000602564 0)
(0.00192666 0.000604437 0)
(0.00162461 0.000595577 0)
(0.00132887 0.000574507 0)
(0.00104565 0.000539633 0)
(0.000781737 0.000489397 0)
(0.000544338 0.000422617 0)
(0.000340726 0.000339141 0)
(0.000177527 0.000240908 0)
(6.25157e-05 0.00013379 0)
(9.11817e-06 3.23567e-05 0)
(-1.36398e-07 -2.49504e-05 0)
(-1.65176e-05 3.09725e-07 0)
(-6.74692e-05 7.08631e-05 0)
(-0.000157189 0.000166863 0)
(-0.000288635 0.000274866 0)
(-0.000462794 0.00038542 0)
(-0.000678682 0.000492223 0)
(-0.00093397 0.000591374 0)
(-0.00122548 0.00068072 0)
(-0.00154956 0.000759342 0)
(-0.00190238 0.000827184 0)
(-0.00228013 0.000884758 0)
(-0.00267922 0.000932931 0)
(-0.00309635 0.000972767 0)
(-0.00352857 0.00100541 0)
(-0.00397331 0.00103199 0)
(-0.00442839 0.0010536 0)
(-0.00489197 0.00107121 0)
(-0.00536257 0.00108568 0)
(-0.00583896 0.00109775 0)
(-0.00632017 0.00110801 0)
(-0.00680543 0.00111693 0)
(-0.00729412 0.00112488 0)
(-0.00778574 0.00113209 0)
(-0.00827987 0.00113872 0)
(-0.00877613 0.00114483 0)
(-0.00927415 0.00115044 0)
(-0.00977358 0.00115548 0)
(-0.010274 0.00115985 0)
(-0.0107751 0.00116341 0)
(-0.0112762 0.00116601 0)
(-0.0117769 0.00116747 0)
(-0.0122765 0.00116759 0)
(-0.0127744 0.00116616 0)
(-0.0132698 0.00116299 0)
(-0.0137619 0.00115785 0)
(-0.0142498 0.00115054 0)
(-0.0147325 0.00114085 0)
(-0.0152089 0.00112857 0)
(-0.0156779 0.00111349 0)
(-0.0161384 0.0010954 0)
(-0.0165889 0.0010741 0)
(-0.0170283 0.00104939 0)
(-0.0174551 0.00102106 0)
(-0.0178677 0.000988904 0)
(-0.0182646 0.000952734 0)
(-0.0186443 0.000912354 0)
(-0.019005 0.000867579 0)
(-0.0193449 0.000818236 0)
(-0.0196623 0.000764162 0)
(-0.0199552 0.000705213 0)
(-0.0202219 0.000641269 0)
(-0.0204604 0.000572233 0)
(-0.0206687 0.000498042 0)
(-0.0208448 0.00041867 0)
(-0.0209869 0.000334135 0)
(-0.0210929 0.000244503 0)
(-0.021161 0.000149893 0)
(-0.0211895 5.04845e-05 0)
(-0.0211765 -5.34797e-05 0)
(-0.0211205 -0.00016169 0)
(-0.0210199 -0.000273768 0)
(-0.0208736 -0.00038926 0)
(-0.0206803 -0.000507642 0)
(-0.0204392 -0.000628316 0)
(-0.0201496 -0.000750615 0)
(-0.0198111 -0.000873803 0)
(-0.0194237 -0.000997082 0)
(-0.0189876 -0.0011196 0)
(-0.0185032 -0.00124045 0)
(-0.0179716 -0.00135869 0)
(-0.017394 -0.00147336 0)
(-0.0167719 -0.00158346 0)
(-0.0161075 -0.00168801 0)
(-0.0154029 -0.00178603 0)
(-0.014661 -0.00187655 0)
(-0.0138849 -0.00195867 0)
(-0.0130778 -0.00203151 0)
(-0.0122436 -0.00209429 0)
(-0.0113861 -0.00214629 0)
(-0.0105097 -0.0021869 0)
(-0.00961884 -0.0022156 0)
(-0.00871809 -0.002232 0)
(-0.00781225 -0.00223584 0)
(-0.00690617 -0.00222697 0)
(-0.00600473 -0.0022054 0)
(-0.00511282 -0.00217126 0)
(-0.00423527 -0.00212483 0)
(-0.00337678 -0.00206651 0)
(-0.00254191 -0.00199685 0)
(-0.00173501 -0.00191647 0)
(-0.000960183 -0.00182616 0)
(-0.000221254 -0.00172676 0)
(0.000478279 -0.00161921 0)
(0.00113527 -0.00150451 0)
(0.00174694 -0.00138372 0)
(0.00231092 -0.0012579 0)
(0.00282523 -0.00112817 0)
(0.00328831 -0.000995621 0)
(0.00369903 -0.000861328 0)
(0.00405665 -0.000726345 0)
(0.00436085 -0.000591675 0)
(0.00461167 -0.000458271 0)
(0.00480957 -0.000327025 0)
(0.00495531 -0.000198758 0)
(0.00505002 -7.42278e-05 0)
(0.00509511 4.58776e-05 0)
(0.0050923 0.000160931 0)
(0.00504356 0.000270358 0)
(0.00495112 0.000373623 0)
(0.00481746 0.000470217 0)
(0.00464528 0.000559632 0)
(0.00443752 0.000641338 0)
(0.00419737 0.000714755 0)
(0.00392829 0.000779221 0)
(0.00363403 0.000833956 0)
(0.00331867 0.000878027 0)
(0.00298667 0.000910309 0)
(0.00264292 0.000929456 0)
(0.00229279 0.000933876 0)
(0.00194218 0.000921732 0)
(0.00159758 0.000890978 0)
(0.00126601 0.000839463 0)
(0.000955095 0.00076515 0)
(0.000672925 0.000666525 0)
(0.000427775 0.000543322 0)
(0.000227534 0.000397586 0)
(8.26904e-05 0.000235302 0)
(1.28968e-05 7.0254e-05 0)
(-3.11542e-06 -1.31228e-05 0)
(-3.42391e-05 4.61589e-05 0)
(-0.000114372 0.00015747 0)
(-0.000243115 0.000298022 0)
(-0.000421347 0.000451966 0)
(-0.000648988 0.000607924 0)
(-0.000924188 0.000758133 0)
(-0.00124393 0.000897673 0)
(-0.0016045 0.00102376 0)
(-0.00200177 0.00113516 0)
(-0.0024315 0.00123176 0)
(-0.00288949 0.00131419 0)
(-0.00337179 0.00138357 0)
(-0.00387473 0.00144131 0)
(-0.00439506 0.00148893 0)
(-0.0049299 0.00152795 0)
(-0.00547678 0.00155984 0)
(-0.00603362 0.00158592 0)
(-0.00659866 0.0016074 0)
(-0.00717049 0.00162526 0)
(-0.00774792 0.00164034 0)
(-0.00833 0.0016533 0)
(-0.00891593 0.00166464 0)
(-0.00950506 0.0016747 0)
(-0.0100968 0.00168371 0)
(-0.0106906 0.00169176 0)
(-0.0112861 0.00169887 0)
(-0.0118826 0.00170496 0)
(-0.0124796 0.0017099 0)
(-0.0130766 0.00171351 0)
(-0.0136729 0.00171557 0)
(-0.0142679 0.00171583 0)
(-0.0148607 0.00171402 0)
(-0.0154506 0.00170987 0)
(-0.0160365 0.0017031 0)
(-0.0166176 0.0016934 0)
(-0.0171928 0.00168051 0)
(-0.0177608 0.00166412 0)
(-0.0183205 0.00164395 0)
(-0.0188706 0.00161972 0)
(-0.0194096 0.00159115 0)
(-0.0199362 0.00155795 0)
(-0.0204487 0.00151984 0)
(-0.0209457 0.00147656 0)
(-0.0214253 0.00142782 0)
(-0.0218859 0.00137336 0)
(-0.0223256 0.00131292 0)
(-0.0227425 0.00124625 0)
(-0.0231346 0.00117312 0)
(-0.0235001 0.0010933 0)
(-0.0238367 0.00100661 0)
(-0.0241423 0.000912892 0)
(-0.0244149 0.000812019 0)
(-0.0246523 0.000703914 0)
(-0.0248522 0.000588556 0)
(-0.0250125 0.000465979 0)
(-0.0251311 0.000336291 0)
(-0.0252059 0.00019967 0)
(-0.0252348 5.638e-05 0)
(-0.0252161 -9.32269e-05 0)
(-0.0251478 -0.000248706 0)
(-0.0250284 -0.000409514 0)
(-0.0248564 -0.00057501 0)
(-0.0246307 -0.000744449 0)
(-0.0243501 -0.000916988 0)
(-0.0240141 -0.00109169 0)
(-0.0236222 -0.00126751 0)
(-0.0231743 -0.00144335 0)
(-0.0226707 -0.00161799 0)
(-0.0221119 -0.00179019 0)
(-0.0214991 -0.00195863 0)
(-0.0208335 -0.00212194 0)
(-0.0201171 -0.00227877 0)
(-0.019352 -0.00242773 0)
(-0.0185409 -0.00256745 0)
(-0.0176867 -0.0026966 0)
(-0.016793 -0.0028139 0)
(-0.0158635 -0.00291815 0)
(-0.0149023 -0.00300824 0)
(-0.0139139 -0.00308317 0)
(-0.012903 -0.00314206 0)
(-0.0118747 -0.00318421 0)
(-0.0108341 -0.00320905 0)
(-0.00978655 -0.00321619 0)
(-0.00873761 -0.00320542 0)
(-0.00769274 -0.00317673 0)
(-0.00665749 -0.00313027 0)
(-0.00563731 -0.00306641 0)
(-0.00463758 -0.00298569 0)
(-0.0036635 -0.00288883 0)
(-0.00272007 -0.00277672 0)
(-0.00181201 -0.00265038 0)
(-0.000943751 -0.00251099 0)
(-0.000119367 -0.00235985 0)
(0.000657445 -0.00219832 0)
(0.0013834 -0.00202788 0)
(0.00205566 -0.00185003 0)
(0.00267183 -0.00166629 0)
(0.00322997 -0.00147822 0)
(0.00372862 -0.00128733 0)
(0.0041668 -0.00109511 0)
(0.00454396 -0.00090299 0)
(0.00486002 -0.000712329 0)
(0.00511532 -0.000524412 0)
(0.0053106 -0.000340433 0)
(0.00544702 -0.000161497 0)
(0.00552607 1.13792e-05 0)
(0.0055496 0.000177264 0)
(0.0055198 0.000335295 0)
(0.00543912 0.000484664 0)
(0.00531036 0.000624598 0)
(0.00513654 0.000754326 0)
(0.00492103 0.000873053 0)
(0.00466744 0.000979918 0)
(0.00437972 0.00107396 0)
(0.00406214 0.00115406 0)
(0.00371934 0.00121891 0)
(0.00335637 0.00126696 0)
(0.00297874 0.00129641 0)
(0.00259246 0.00130514 0)
(0.00220406 0.00129077 0)
(0.00182069 0.00125066 0)
(0.00145005 0.00118211 0)
(0.00110046 0.00108253 0)
(0.000780856 0.000949945 0)
(0.000500564 0.00078363 0)
(0.00026885 0.00058509 0)
(9.8863e-05 0.000359344 0)
(1.57204e-05 0.000117791 0)
(-6.10883e-06 8.26478e-06 0)
(-5.26492e-05 0.000116039 0)
(-0.000163693 0.000279399 0)
(-0.000333806 0.000473526 0)
(-0.000561444 0.000680787 0)
(-0.000845169 0.000888313 0)
(-0.00118203 0.00108719 0)
(-0.00156815 0.00127171 0)
(-0.00199915 0.00143858 0)
(-0.00247039 0.00158635 0)
(-0.0029772 0.0017149 0)
(-0.00351502 0.00182503 0)
(-0.00407956 0.00191815 0)
(-0.00466688 0.00199601 0)
(-0.00527345 0.00206054 0)
(-0.00589615 0.00211367 0)
(-0.00653227 0.00215726 0)
(-0.00717952 0.00219303 0)
(-0.00783594 0.00222249 0)
(-0.00849992 0.00224694 0)
(-0.00917011 0.00226745 0)
(-0.00984537 0.00228488 0)
(-0.0105247 0.00229988 0)
(-0.0112074 0.0023129 0)
(-0.0118927 0.00232423 0)
(-0.0125798 0.00233402 0)
(-0.0132682 0.00234229 0)
(-0.0139571 0.00234894 0)
(-0.0146459 0.0023538 0)
(-0.0153339 0.00235666 0)
(-0.0160203 0.00235723 0)
(-0.0167042 0.00235519 0)
(-0.0173847 0.00235021 0)
(-0.0180609 0.00234193 0)
(-0.0187316 0.00232999 0)
(-0.0193958 0.00231402 0)
(-0.0200522 0.00229365 0)
(-0.0206995 0.00226853 0)
(-0.0213364 0.00223828 0)
(-0.0219614 0.00220254 0)
(-0.0225729 0.00216095 0)
(-0.0231695 0.00211316 0)
(-0.0237493 0.00205882 0)
(-0.0243108 0.00199756 0)
(-0.0248519 0.00192905 0)
(-0.0253709 0.00185294 0)
(-0.0258658 0.00176891 0)
(-0.0263345 0.00167663 0)
(-0.0267749 0.00157581 0)
(-0.0271849 0.00146617 0)
(-0.0275621 0.00134747 0)
(-0.0279044 0.00121952 0)
(-0.0282094 0.00108216 0)
(-0.0284747 0.000935295 0)
(-0.0286981 0.000778913 0)
(-0.0288771 0.000613068 0)
(-0.0290095 0.000437907 0)
(-0.029093 0.000253679 0)
(-0.0291253 6.07369e-05 0)
(-0.0291046 -0.000140447 0)
(-0.0290287 -0.000349282 0)
(-0.028896 -0.000565046 0)
(-0.0287048 -0.000786889 0)
(-0.0284538 -0.00101383 0)
(-0.0281419 -0.00124476 0)
(-0.0277684 -0.00147844 0)
(-0.0273326 -0.00171351 0)
(-0.0268346 -0.0019485 0)
(-0.0262746 -0.00218185 0)
(-0.0256531 -0.0024119 0)
(-0.0249713 -0.00263693 0)
(-0.0242306 -0.00285518 0)
(-0.023433 -0.00306483 0)
(-0.0225807 -0.00326408 0)
(-0.0216768 -0.00345114 0)
(-0.0207243 -0.00362427 0)
(-0.019727 -0.00378178 0)
(-0.018689 -0.00392209 0)
(-0.0176148 -0.00404374 0)
(-0.0165091 -0.00414541 0)
(-0.0153772 -0.00422595 0)
(-0.0142245 -0.00428438 0)
(-0.0130567 -0.00431996 0)
(-0.0118796 -0.00433215 0)
(-0.0106994 -0.00432064 0)
(-0.00952198 -0.00428538 0)
(-0.00835356 -0.00422656 0)
(-0.0072002 -0.00414461 0)
(-0.00606787 -0.0040402 0)
(-0.00496238 -0.00391424 0)
(-0.00388934 -0.00376785 0)
(-0.00285408 -0.00360237 0)
(-0.00186161 -0.0034193 0)
(-0.000916576 -0.0032203 0)
(-2.32206e-05 -0.00300718 0)
(0.000814667 -0.00278184 0)
(0.00159376 -0.00254624 0)
(0.00231124 -0.0023024 0)
(0.00296479 -0.00205234 0)
(0.0035526 -0.00179809 0)
(0.00407339 -0.00154162 0)
(0.00452638 -0.00128484 0)
(0.00491131 -0.00102958 0)
(0.0052284 -0.000777572 0)
(0.00547833 -0.000530434 0)
(0.00566223 -0.000289679 0)
(0.00578165 -5.67045e-05 0)
(0.00583852 0.000167196 0)
(0.00583519 0.000380822 0)
(0.00577431 0.00058304 0)
(0.00565892 0.000772765 0)
(0.00549236 0.000948919 0)
(0.00527829 0.00111039 0)
(0.00502074 0.00125601 0)
(0.00472405 0.00138447 0)
(0.00439293 0.00149428 0)
(0.00403251 0.00158373 0)
(0.00364833 0.00165084 0)
(0.00324639 0.00169331 0)
(0.00283324 0.0017085 0)
(0.00241596 0.00169344 0)
(0.00200223 0.00164494 0)
(0.00160037 0.00155964 0)
(0.00121935 0.00143434 0)
(0.000868966 0.00126638 0)
(0.000559595 0.00105423 0)
(0.00030191 0.000798267 0)
(0.00011145 0.000501755 0)
(1.77832e-05 0.000172827 0)
(-9.06971e-06 3.93541e-05 0)
(-7.12665e-05 0.000210782 0)
(-0.000214055 0.000438117 0)
(-0.000426851 0.000695266 0)
(-0.000705492 0.000963387 0)
(-0.00104698 0.00122859 0)
(-0.00144708 0.00148116 0)
(-0.0019009 0.00171484 0)
(-0.00240329 0.00192605 0)
(-0.00294902 0.00211326 0)
(-0.00353296 0.00227643 0)
(-0.00415018 0.00241659 0)
(-0.00479609 0.00253548 0)
(-0.00546649 0.00263524 0)
(-0.00615759 0.00271823 0)
(-0.0068661 0.0027868 0)
(-0.0075891 0.00284323 0)
(-0.00832411 0.00288962 0)
(-0.00906904 0.00292782 0)
(-0.00982208 0.00295944 0)
(-0.0105817 0.0029858 0)
(-0.0113467 0.00300796 0)
(-0.0121159 0.00302672 0)
(-0.0128883 0.00304264 0)
(-0.0136631 0.0030561 0)
(-0.0144394 0.00306727 0)
(-0.0152165 0.00307618 0)
(-0.0159934 0.00308273 0)
(-0.0167695 0.00308672 0)
(-0.0175438 0.00308788 0)
(-0.0183154 0.00308586 0)
(-0.0190833 0.00308028 0)
(-0.0198465 0.00307074 0)
(-0.0206039 0.00305681 0)
(-0.0213542 0.00303805 0)
(-0.0220962 0.00301401 0)
(-0.0228286 0.00298426 0)
(-0.02355 0.00294834 0)
(-0.0242589 0.00290584 0)
(-0.0249538 0.0028563 0)
(-0.0256329 0.00279929 0)
(-0.0262948 0.00273439 0)
(-0.0269375 0.00266116 0)
(-0.0275592 0.00257918 0)
(-0.0281581 0.00248802 0)
(-0.0287321 0.00238727 0)
(-0.0292792 0.00227653 0)
(-0.0297971 0.0021554 0)
(-0.0302838 0.00202352 0)
(-0.030737 0.00188055 0)
(-0.0311541 0.00172619 0)
(-0.031533 0.0015602 0)
(-0.031871 0.0013824 0)
(-0.0321658 0.00119267 0)
(-0.0324147 0.00099099 0)
(-0.0326154 0.000777439 0)
(-0.0327653 0.000552203 0)
(-0.032862 0.000315595 0)
(-0.0329032 6.80631e-05 0)
(-0.0328866 -0.0001898 0)
(-0.03281 -0.000457249 0)
(-0.0326716 -0.000733379 0)
(-0.0324696 -0.00101712 0)
(-0.0322025 -0.00130725 0)
(-0.0318691 -0.00160236 0)
(-0.0314684 -0.00190091 0)
(-0.0309997 -0.00220119 0)
(-0.030463 -0.00250136 0)
(-0.0298583 -0.00279947 0)
(-0.0291863 -0.00309343 0)
(-0.0284479 -0.00338109 0)
(-0.0276447 -0.00366023 0)
(-0.0267785 -0.00392858 0)
(-0.0258519 -0.00418388 0)
(-0.0248677 -0.00442387 0)
(-0.0238294 -0.00464635 0)
(-0.0227408 -0.00484921 0)
(-0.0216063 -0.00503044 0)
(-0.0204305 -0.00518818 0)
(-0.0192187 -0.00532076 0)
(-0.0179763 -0.0054267 0)
(-0.0167092 -0.00550476 0)
(-0.0154235 -0.00555394 0)
(-0.0141256 -0.00557354 0)
(-0.012822 -0.00556313 0)
(-0.0115193 -0.00552258 0)
(-0.0102241 -0.0054521 0)
(-0.00894324 -0.00535216 0)
(-0.00768315 -0.00522356 0)
(-0.00645031 -0.00506741 0)
(-0.00525092 -0.00488506 0)
(-0.00409094 -0.00467815 0)
(-0.00297598 -0.00444852 0)
(-0.00191126 -0.00419826 0)
(-0.000901591 -0.00392959 0)
(4.8701e-05 -0.00364488 0)
(0.000935793 -0.00334662 0)
(0.0017564 -0.00303733 0)
(0.00250778 -0.00271958 0)
(0.00318776 -0.00239593 0)
(0.00379475 -0.00206889 0)
(0.0043277 -0.00174091 0)
(0.00478614 -0.00141434 0)
(0.00517013 -0.00109141 0)
(0.00548027 -0.000774241 0)
(0.00571763 -0.00046479 0)
(0.00588378 -0.000164894 0)
(0.00598074 0.000123741 0)
(0.00601095 0.000399523 0)
(0.00597725 0.00066095 0)
(0.00588287 0.000906575 0)
(0.00573142 0.00113497 0)
(0.00552686 0.00134469 0)
(0.00527354 0.00153418 0)
(0.00497616 0.00170178 0)
(0.00463983 0.00184561 0)
(0.00427007 0.00196353 0)
(0.00387285 0.0020531 0)
(0.00345463 0.00211151 0)
(0.0030224 0.00213559 0)
(0.00258372 0.00212179 0)
(0.00214678 0.00206626 0)
(0.00172045 0.00196498 0)
(0.00131438 0.00181399 0)
(0.000939189 0.00160971 0)
(0.00060631 0.0013495 0)
(0.000327738 0.00103217 0)
(0.00012105 0.000658696 0)
(1.92713e-05 0.000233549 0)
(-1.19613e-05 8.00896e-05 0)
(-8.98087e-05 0.000330675 0)
(-0.000264637 0.000634325 0)
(-0.000520721 0.000964268 0)
(-0.000851199 0.00130098 0)
(-0.0012514 0.00162998 0)
(-0.00171565 0.00194114 0)
(-0.00223793 0.00222795 0)
(-0.00281223 0.00248674 0)
(-0.00343266 0.00271606 0)
(-0.00409359 0.0029161 0)
(-0.00478969 0.0030882 0)
(-0.00551606 0.00323448 0)
(-0.00626824 0.00335754 0)
(-0.00704227 0.00346018 0)
(-0.00783464 0.0035452 0)
(-0.00864229 0.00361531 0)
(-0.00946258 0.003673 0)
(-0.0102933 0.00372047 0)
(-0.0111324 0.00375964 0)
(-0.0119784 0.00379208 0)
(-0.0128298 0.00381905 0)
(-0.0136853 0.00384151 0)
(-0.0145439 0.00386013 0)
(-0.0154044 0.00387536 0)
(-0.0162661 0.00388741 0)
(-0.0171278 0.00389632 0)
(-0.0179886 0.00390199 0)
(-0.0188477 0.00390418 0)
(-0.019704 0.00390257 0)
(-0.0205564 0.00389676 0)