/*--------------------------------*- C++ -*----------------------------------*\
| =========                 |                                                 |
| \\      /  F ield         | OpenFOAM: The Open Source CFD Toolbox           |
|  \\    /   O peration     | Version:  2112                                  |
|   \\  /    A nd           | Website:  www.openfoam.com                      |
|    \\/     M anipulation  |                                                 |
\*---------------------------------------------------------------------------*/
FoamFile
{
    version     2.0;
    format      ascii;
    arch        "LSB;label=32;scalar=64";
    class       volScalarField;
    location    "4";
    object      p;
}
// * * * * * * * * * * * * * * * * * * * * * * * * * * * * * * * * * * * * * //

dimensions      [0 2 -2 0 0 0 0];

internalField   nonuniform List<scalar> 
25600
(
2.89411e-14
4.49436e-14
5.05863e-14
5.29884e-14
5.48331e-14
5.63941e-14
5.79058e-14
5.9254e-14
6.0575e-14
6.17535e-14
6.29168e-14
6.40477e-14
6.51018e-14
6.61338e-14
6.71871e-14
6.8222e-14
6.93441e-14
7.04823e-14
7.1644e-14
7.27281e-14
7.36918e-14
7.47172e-14
7.56981e-14
7.66779e-14
7.7675e-14
7.85537e-14
7.93184e-14
8.02144e-14
8.11694e-14
8.19784e-14
8.26408e-14
8.32882e-14
8.40103e-14
8.47291e-14
8.54213e-14
8.60506e-14
8.66844e-14
8.73217e-14
8.78787e-14
8.83746e-14
8.89733e-14
8.95321e-14
9.01538e-14
9.07039e-14
9.10531e-14
9.1527e-14
9.20142e-14
9.24961e-14
9.30637e-14
9.36243e-14
9.41237e-14
9.44836e-14
9.49665e-14
9.54056e-14
9.57509e-14
9.62261e-14
9.65865e-14
9.69768e-14
9.7334e-14
9.76385e-14
9.81296e-14
9.84574e-14
9.88689e-14
9.93585e-14
9.97781e-14
1.00319e-13
1.00762e-13
1.01144e-13
1.01512e-13
1.01921e-13
1.02404e-13
1.02792e-13
1.03142e-13
1.03437e-13
1.03677e-13
1.04075e-13
1.04383e-13
1.04483e-13
1.04759e-13
1.05023e-13
1.0543e-13
1.05709e-13
1.05672e-13
1.05741e-13
1.05898e-13
1.0621e-13
1.06561e-13
1.06635e-13
1.06563e-13
1.06617e-13
1.06915e-13
1.07101e-13
1.06984e-13
1.06821e-13
1.06961e-13
1.0719e-13
1.07093e-13
1.07018e-13
1.06911e-13
1.07089e-13
1.0734e-13
1.07159e-13
1.07022e-13
1.06876e-13
1.06903e-13
1.07005e-13
1.07004e-13
1.06771e-13
1.06586e-13
1.06623e-13
1.0663e-13
1.06765e-13
1.06344e-13
1.0603e-13
1.06262e-13
1.0643e-13
1.06406e-13
1.06052e-13
1.05789e-13
1.05766e-13
1.05848e-13
1.05808e-13
1.05316e-13
1.04864e-13
1.0484e-13
1.04949e-13
1.04925e-13
1.04551e-13
1.04207e-13
1.04286e-13
1.04374e-13
1.04358e-13
1.04028e-13
1.03786e-13
1.03872e-13
1.03859e-13
1.03804e-13
1.03615e-13
1.03442e-13
1.03497e-13
1.03552e-13
1.03541e-13
1.03397e-13
1.03335e-13
1.03433e-13
1.03376e-13
1.03467e-13
1.0336e-13
1.03264e-13
1.03158e-13
1.03101e-13
1.03361e-13
1.03395e-13
1.03051e-13
1.02904e-13
1.02904e-13
1.03125e-13
1.03095e-13
1.02749e-13
1.02619e-13
1.02689e-13
1.0309e-13
1.031e-13
1.02931e-13
1.03072e-13
1.02931e-13
1.03119e-13
1.03232e-13
1.02953e-13
1.02942e-13
1.02981e-13
1.03231e-13
1.03128e-13
1.03086e-13
1.03084e-13
1.02888e-13
1.02762e-13
1.02354e-13
1.02407e-13
1.0237e-13
1.01959e-13
1.02057e-13
1.01698e-13
1.01369e-13
1.01112e-13
1.00546e-13
1.0059e-13
1.00214e-13
9.97557e-14
9.97082e-14
9.91149e-14
9.88086e-14
9.84899e-14
9.78709e-14
9.78215e-14
9.76026e-14
9.73152e-14
9.67094e-14
9.60642e-14
9.62457e-14
9.5912e-14
9.55453e-14
9.4896e-14
9.41864e-14
9.4384e-14
9.42107e-14
9.3487e-14
9.26304e-14
9.22622e-14
9.25365e-14
9.24989e-14
9.17804e-14
9.08021e-14
9.08919e-14
9.103e-14
9.00368e-14
8.99166e-14
9.01221e-14
8.98081e-14
8.92484e-14
8.82058e-14
8.81871e-14
8.85293e-14
8.82867e-14
8.77384e-14
8.67948e-14
8.6851e-14
8.69976e-14
8.66936e-14
8.64135e-14
8.56503e-14
8.54976e-14
8.53459e-14
8.50742e-14
8.50913e-14
8.43797e-14
8.4004e-14
8.38119e-14
8.36102e-14
8.34825e-14
8.27023e-14
8.25524e-14
8.23768e-14
8.20561e-14
8.21763e-14
8.14982e-14
8.07803e-14
8.04381e-14
8.04552e-14
8.03737e-14
7.94849e-14
7.91634e-14
7.89723e-14
7.87067e-14
7.85256e-14
7.75724e-14
7.7248e-14
7.69931e-14
7.66539e-14
7.66043e-14
7.58454e-14
7.55291e-14
7.53434e-14
7.48911e-14
7.45635e-14
7.36445e-14
7.31942e-14
7.30214e-14
7.26971e-14
7.22506e-14
7.13822e-14
7.09197e-14
7.06897e-14
7.04288e-14
7.01067e-14
6.9461e-14
6.90833e-14
6.88467e-14
6.82291e-14
6.79193e-14
6.74627e-14
6.70608e-14
6.69366e-14
6.65795e-14
6.6338e-14
6.56565e-14
6.48857e-14
6.46633e-14
6.4559e-14
6.40383e-14
6.30049e-14
6.24202e-14
6.22121e-14
6.19286e-14
6.11483e-14
6.03048e-14
6.01693e-14
5.99027e-14
5.9721e-14
5.89609e-14
5.80821e-14
5.7877e-14
5.76571e-14
5.76923e-14
5.73001e-14
5.64739e-14
5.57269e-14
5.50531e-14
5.4975e-14
5.4434e-14
5.39187e-14
5.34142e-14
5.25781e-14
5.23624e-14
5.18822e-14
5.09293e-14
5.03133e-14
4.92686e-14
4.80308e-14
4.3675e-14
4.50426e-14
4.87396e-14
5.14478e-14
5.34898e-14
5.51481e-14
5.65351e-14
5.79872e-14
5.93884e-14
6.06661e-14
6.18376e-14
6.2991e-14
6.41062e-14
6.51551e-14
6.61516e-14
6.71407e-14
6.82145e-14
6.93382e-14
7.05405e-14
7.15935e-14
7.27598e-14
7.37399e-14
7.4762e-14
7.571e-14
7.66608e-14
7.76349e-14
7.86051e-14
7.94377e-14
8.02507e-14
8.11295e-14
8.20032e-14
8.2725e-14
8.3348e-14
8.40236e-14
8.47158e-14
8.54545e-14
8.60937e-14
8.67207e-14
8.73254e-14
8.78877e-14
8.84238e-14
8.89614e-14
8.9568e-14
9.02151e-14
9.06848e-14
9.11254e-14
9.15112e-14
9.20008e-14
9.24989e-14
9.3113e-14
9.36394e-14
9.40583e-14
9.45551e-14
9.50367e-14
9.54891e-14
9.5794e-14
9.61501e-14
9.65457e-14
9.6988e-14
9.73779e-14
9.76884e-14
9.80671e-14
9.8408e-14
9.88586e-14
9.93915e-14
9.98524e-14
1.00306e-13
1.00786e-13
1.01144e-13
1.01572e-13
1.01938e-13
1.02393e-13
1.0275e-13
1.03185e-13
1.03427e-13
1.03686e-13
1.04053e-13
1.04306e-13
1.04528e-13
1.04826e-13
1.05069e-13
1.05363e-13
1.05622e-13
1.05688e-13
1.05817e-13
1.06017e-13
1.06198e-13
1.06321e-13
1.06609e-13
1.06769e-13
1.06791e-13
1.06842e-13
1.0688e-13
1.06943e-13
1.06976e-13
1.0693e-13
1.07014e-13
1.07039e-13
1.07077e-13
1.07135e-13
1.07203e-13
1.07177e-13
1.07081e-13
1.07063e-13
1.0704e-13
1.06941e-13
1.06858e-13
1.06939e-13
1.06885e-13
1.06695e-13
1.06556e-13
1.06562e-13
1.06576e-13
1.06409e-13
1.06247e-13
1.06272e-13
1.06261e-13
1.06357e-13
1.06193e-13
1.0581e-13
1.05733e-13
1.0587e-13
1.05747e-13
1.05324e-13
1.04962e-13
1.04842e-13
1.04848e-13
1.04919e-13
1.04584e-13
1.04307e-13
1.04276e-13
1.04314e-13
1.04329e-13
1.04132e-13
1.03856e-13
1.03803e-13
1.0381e-13
1.03775e-13
1.03654e-13
1.03394e-13
1.03436e-13
1.03556e-13
1.03558e-13
1.03411e-13
1.03333e-13
1.03423e-13
1.03424e-13
1.03346e-13
1.03156e-13
1.03293e-13
1.03368e-13
1.0326e-13
1.03182e-13
1.0317e-13
1.03075e-13
1.03067e-13
1.03025e-13
1.03113e-13
1.03048e-13
1.02792e-13
1.0264e-13
1.02764e-13
1.02972e-13
1.03042e-13
1.0302e-13
1.03005e-13
1.03001e-13
1.03005e-13
1.03131e-13
1.03109e-13
1.03047e-13
1.03102e-13
1.03086e-13
1.03065e-13
1.02965e-13
1.02928e-13
1.03059e-13
1.02892e-13
1.02577e-13
1.02338e-13
1.02142e-13
1.02201e-13
1.0204e-13
1.01645e-13
1.01254e-13
1.01014e-13
1.00778e-13
1.00585e-13
1.00263e-13
9.97787e-14
9.94124e-14
9.9148e-14
9.8827e-14
9.84418e-14
9.81323e-14
9.77118e-14
9.74981e-14
9.72054e-14
9.68548e-14
9.65103e-14
9.60073e-14
9.57578e-14
9.53815e-14
9.50553e-14
9.46675e-14
9.41742e-14
9.38398e-14
9.33912e-14
9.2977e-14
9.26522e-14
9.2309e-14
9.19948e-14
9.16419e-14
9.11822e-14
9.09341e-14
9.08121e-14
9.0437e-14
9.01765e-14
8.97466e-14
8.9406e-14
8.92237e-14
8.86949e-14
8.84513e-14
8.81801e-14
8.79099e-14
8.7682e-14
8.7215e-14
8.69661e-14
8.69344e-14
8.66833e-14
8.62681e-14
8.56989e-14
8.54564e-14
8.52405e-14
8.50909e-14
8.50345e-14
8.45606e-14
8.40999e-14
8.36265e-14
8.3444e-14
8.33648e-14
8.2946e-14
8.27023e-14
8.23646e-14
8.20345e-14
8.19087e-14
8.14457e-14
8.10634e-14
8.07008e-14
8.04184e-14
8.009e-14
7.94559e-14
7.92e-14
7.90682e-14
7.88006e-14
7.83047e-14
7.75353e-14
7.73322e-14
7.7111e-14
7.67254e-14
7.64186e-14
7.58657e-14
7.56713e-14
7.53877e-14
7.49382e-14
7.44271e-14
7.37699e-14
7.34604e-14
7.29903e-14
7.25043e-14
7.21695e-14
7.15011e-14
7.10094e-14
7.05828e-14
7.04061e-14
7.01264e-14
6.94977e-14
6.90587e-14
6.86087e-14
6.82299e-14
6.79975e-14
6.75152e-14
6.72003e-14
6.67819e-14
6.65006e-14
6.63164e-14
6.56307e-14
6.51597e-14
6.48136e-14
6.44231e-14
6.39122e-14
6.3135e-14
6.26323e-14
6.22239e-14
6.15368e-14
6.11227e-14
6.05811e-14
6.01637e-14
5.99514e-14
5.93968e-14
5.89529e-14
5.83487e-14
5.78782e-14
5.77307e-14
5.75366e-14
5.71356e-14
5.63338e-14
5.58231e-14
5.53135e-14
5.49261e-14
5.44092e-14
5.38943e-14
5.33975e-14
5.27943e-14
5.2301e-14
5.18162e-14
5.12378e-14
5.06373e-14
4.9775e-14
4.89069e-14
4.73467e-14
4.95789e-14
5.099e-14
5.25984e-14
5.4231e-14
5.56516e-14
5.69303e-14
5.83841e-14
5.96932e-14
6.09643e-14
6.2054e-14
6.31733e-14
6.42833e-14
6.51907e-14
6.62551e-14
6.72444e-14
6.81492e-14
6.93096e-14
7.05357e-14
7.16719e-14
7.28248e-14
7.38283e-14
7.48521e-14
7.57095e-14
7.67375e-14
7.77491e-14
7.85964e-14
7.95257e-14
8.02642e-14
8.11113e-14
8.20912e-14
8.28499e-14
8.34797e-14
8.40464e-14
8.47176e-14
8.54945e-14
8.61371e-14
8.68004e-14
8.73536e-14
8.79431e-14
8.84964e-14
8.90007e-14
8.96908e-14
9.0299e-14
9.07634e-14
9.11351e-14
9.14598e-14
9.19702e-14
9.247e-14
9.30945e-14
9.36688e-14
9.40782e-14
9.46346e-14
9.51405e-14
9.55591e-14
9.5814e-14
9.61451e-14
9.6571e-14
9.69264e-14
9.72999e-14
9.77356e-14
9.80947e-14
9.84092e-14
9.88167e-14
9.93938e-14
9.98486e-14
1.00362e-13
1.00772e-13
1.01176e-13
1.01613e-13
1.01959e-13
1.0237e-13
1.02736e-13
1.03226e-13
1.03472e-13
1.03699e-13
1.04022e-13
1.04268e-13
1.04627e-13
1.04853e-13
1.05104e-13
1.05402e-13
1.05568e-13
1.05694e-13
1.05882e-13
1.06088e-13
1.06192e-13
1.06301e-13
1.06487e-13
1.06799e-13
1.06929e-13
1.06811e-13
1.06789e-13
1.06983e-13
1.07003e-13
1.0689e-13
1.07e-13
1.07071e-13
1.07069e-13
1.07283e-13
1.07282e-13
1.07153e-13
1.07063e-13
1.07007e-13
1.07064e-13
1.06969e-13
1.06814e-13
1.06883e-13
1.06867e-13
1.06765e-13
1.06544e-13
1.06532e-13
1.06489e-13
1.06442e-13
1.06324e-13
1.0628e-13
1.06228e-13
1.06337e-13
1.06246e-13
1.0588e-13
1.05721e-13
1.05812e-13
1.05678e-13
1.05352e-13
1.0513e-13
1.04997e-13
1.04724e-13
1.04697e-13
1.04563e-13
1.04431e-13
1.04434e-13
1.04328e-13
1.04216e-13
1.041e-13
1.03907e-13
1.0374e-13
1.03807e-13
1.03727e-13
1.03585e-13
1.03381e-13
1.03356e-13
1.03592e-13
1.03531e-13
1.03419e-13
1.03362e-13
1.03432e-13
1.03293e-13
1.0328e-13
1.03167e-13
1.03291e-13
1.0348e-13
1.03341e-13
1.03079e-13
1.03017e-13
1.03096e-13
1.03103e-13
1.03209e-13
1.03125e-13
1.0296e-13
1.0278e-13
1.02725e-13
1.02777e-13
1.02929e-13
1.03033e-13
1.02986e-13
1.0294e-13
1.03033e-13
1.03061e-13
1.03116e-13
1.03254e-13
1.03236e-13
1.0313e-13
1.0311e-13
1.0302e-13
1.02916e-13
1.02826e-13
1.02914e-13
1.02934e-13
1.02865e-13
1.02398e-13
1.02078e-13
1.02266e-13
1.02035e-13
1.01597e-13
1.01319e-13
1.01072e-13
1.0088e-13
1.00555e-13
1.00154e-13
9.9832e-14
9.94157e-14
9.91632e-14
9.8814e-14
9.83635e-14
9.81968e-14
9.77509e-14
9.74714e-14
9.70791e-14
9.68297e-14
9.66196e-14
9.60982e-14
9.57052e-14
9.52907e-14
9.50141e-14
9.48148e-14
9.41771e-14
9.36356e-14
9.3276e-14
9.3093e-14
9.28123e-14
9.22404e-14
9.17548e-14
9.15947e-14
9.1271e-14
9.09066e-14
9.07645e-14
9.06302e-14
9.01746e-14
8.94835e-14
8.93064e-14
8.91957e-14
8.89715e-14
8.8579e-14
8.80182e-14
8.77444e-14
8.76871e-14
8.73841e-14
8.70521e-14
8.69458e-14
8.6663e-14
8.62074e-14
8.5669e-14
8.54388e-14
8.52605e-14
8.51191e-14
8.49394e-14
8.46065e-14
8.40638e-14
8.36576e-14
8.34582e-14
8.32887e-14
8.28443e-14
8.27437e-14
8.25329e-14
8.21034e-14
8.17216e-14
8.13849e-14
8.12513e-14
8.08052e-14
8.0364e-14
8.00898e-14
7.96279e-14
7.92396e-14
7.88352e-14
7.87063e-14
7.82209e-14
7.76406e-14
7.73549e-14
7.70588e-14
7.66822e-14
7.63615e-14
7.61239e-14
7.57457e-14
7.52098e-14
7.4879e-14
7.45377e-14
7.3986e-14
7.36834e-14
7.29803e-14
7.23686e-14
7.21223e-14
7.15069e-14
7.10167e-14
7.06057e-14
7.03888e-14
7.01423e-14
6.9414e-14
6.9043e-14
6.86072e-14
6.82545e-14
6.79767e-14
6.74147e-14
6.72575e-14
6.68256e-14
6.64058e-14
6.63109e-14
6.56926e-14
6.52814e-14
6.50085e-14
6.43409e-14
6.39094e-14
6.32055e-14
6.26606e-14
6.21119e-14
6.14422e-14
6.1191e-14
6.05756e-14
6.00979e-14
5.99782e-14
5.94363e-14
5.89094e-14
5.84727e-14
5.80313e-14
5.77738e-14
5.73503e-14
5.70418e-14
5.63496e-14
5.60473e-14
5.55425e-14
5.48889e-14
5.44125e-14
5.38243e-14
5.3509e-14
5.31575e-14
5.24607e-14
5.21497e-14
5.17179e-14
5.1167e-14
5.05559e-14
5.0058e-14
4.96825e-14
5.17354e-14
5.2613e-14
5.3821e-14
5.50135e-14
5.63691e-14
5.7575e-14
5.89411e-14
6.0054e-14
6.12789e-14
6.23022e-14
6.33526e-14
6.45039e-14
6.53088e-14
6.63603e-14
6.73724e-14
6.8305e-14
6.94049e-14
7.05726e-14
7.17628e-14
7.29306e-14
7.38419e-14
7.49519e-14
7.58617e-14
7.68361e-14
7.7879e-14
7.86829e-14
7.96447e-14
8.02853e-14
8.11797e-14
8.21193e-14
8.3018e-14
8.3609e-14
8.41488e-14
8.49425e-14
8.56464e-14
8.61104e-14
8.69242e-14
8.73788e-14
8.79418e-14
8.86036e-14
8.91132e-14
8.96751e-14
9.03009e-14
9.08378e-14
9.11952e-14
9.14238e-14
9.20679e-14
9.25138e-14
9.30084e-14
9.35972e-14
9.41721e-14
9.47015e-14
9.53034e-14
9.56428e-14
9.58333e-14
9.61717e-14
9.65346e-14
9.68229e-14
9.73241e-14
9.77372e-14
9.79784e-14
9.83247e-14
9.88394e-14
9.94635e-14
9.98447e-14
1.0054e-13
1.00891e-13
1.01056e-13
1.01605e-13
1.01999e-13
1.02491e-13
1.02656e-13
1.03133e-13
1.03495e-13
1.03687e-13
1.04193e-13
1.04385e-13
1.04651e-13
1.05011e-13
1.05134e-13
1.0536e-13
1.0553e-13
1.05656e-13
1.05864e-13
1.05969e-13
1.06161e-13
1.06493e-13
1.06531e-13
1.06783e-13
1.06906e-13
1.06759e-13
1.06715e-13
1.07021e-13
1.07001e-13
1.06968e-13
1.07132e-13
1.07132e-13
1.07066e-13
1.07209e-13
1.0725e-13
1.07246e-13
1.07003e-13
1.07034e-13
1.07074e-13
1.07038e-13
1.06956e-13
1.06904e-13
1.06816e-13
1.06772e-13
1.06436e-13
1.06437e-13
1.06563e-13
1.06383e-13
1.06416e-13
1.06453e-13
1.0632e-13
1.06157e-13
1.06135e-13
1.06002e-13
1.05972e-13
1.05688e-13
1.05502e-13
1.05424e-13
1.05182e-13
1.05053e-13
1.04746e-13
1.04623e-13
1.04449e-13
1.04543e-13
1.04397e-13
1.04263e-13
1.04242e-13
1.04163e-13
1.03971e-13
1.03818e-13
1.0352e-13
1.03547e-13
1.03529e-13
1.03476e-13
1.03384e-13
1.03513e-13
1.03504e-13
1.03409e-13
1.03422e-13
1.03473e-13
1.03271e-13
1.03174e-13
1.03208e-13
1.03381e-13
1.03505e-13
1.03274e-13
1.02973e-13
1.03076e-13
1.03329e-13
1.03108e-13
1.03318e-13
1.0311e-13
1.0292e-13
1.0255e-13
1.02697e-13
1.02831e-13
1.02783e-13
1.02952e-13
1.02944e-13
1.03149e-13
1.03058e-13
1.03085e-13
1.03181e-13
1.03164e-13
1.03326e-13
1.03323e-13
1.03368e-13
1.02948e-13
1.02861e-13
1.03029e-13
1.02777e-13
1.02868e-13
1.02873e-13
1.02554e-13
1.02249e-13
1.02248e-13
1.02135e-13
1.01789e-13
1.0139e-13
1.01144e-13
1.00857e-13
1.006e-13
1.00018e-13
9.97287e-14
9.96285e-14
9.92777e-14
9.87446e-14
9.82445e-14
9.80449e-14
9.78049e-14
9.75037e-14
9.71589e-14
9.66898e-14
9.64424e-14
9.61701e-14
9.57987e-14
9.52559e-14
9.49497e-14
9.47088e-14
9.41599e-14
9.36695e-14
9.32371e-14
9.29751e-14
9.2747e-14
9.23906e-14
9.18617e-14
9.13842e-14
9.1233e-14
9.10642e-14
9.07567e-14
9.06091e-14
9.01455e-14
8.95427e-14
8.92852e-14
8.91101e-14
8.89036e-14
8.85027e-14
8.79513e-14
8.76912e-14
8.75966e-14
8.74715e-14
8.71101e-14
8.67975e-14
8.66527e-14
8.64685e-14
8.58802e-14
8.52966e-14
8.51613e-14
8.51181e-14
8.4858e-14
8.46426e-14
8.4088e-14
8.38018e-14
8.33233e-14
8.3163e-14
8.29681e-14
8.26735e-14
8.24278e-14
8.20051e-14
8.16163e-14
8.14706e-14
8.13343e-14
8.07382e-14
8.02936e-14
8.01939e-14
7.96737e-14
7.9245e-14
7.88628e-14
7.85796e-14
7.80749e-14
7.76212e-14
7.73036e-14
7.70852e-14
7.66575e-14
7.6369e-14
7.62358e-14
7.5629e-14
7.51269e-14
7.51051e-14
7.47376e-14
7.41746e-14
7.35879e-14
7.29912e-14
7.23814e-14
7.19079e-14
7.13117e-14
7.0928e-14
7.08044e-14
7.04574e-14
7.0025e-14
6.94433e-14
6.90975e-14
6.86714e-14
6.82791e-14
6.78295e-14
6.74916e-14
6.72243e-14
6.69337e-14
6.64457e-14
6.61415e-14
6.58553e-14
6.53944e-14
6.49009e-14
6.43759e-14
6.39786e-14
6.33336e-14
6.27137e-14
6.19874e-14
6.14301e-14
6.11939e-14
6.06283e-14
6.01409e-14
5.99434e-14
5.94768e-14
5.88554e-14
5.86192e-14
5.80967e-14
5.77977e-14
5.75336e-14
5.72514e-14
5.675e-14
5.60682e-14
5.53728e-14
5.47699e-14
5.45149e-14
5.39389e-14
5.38189e-14
5.33356e-14
5.28492e-14
5.26494e-14
5.23112e-14
5.19928e-14
5.1619e-14
5.12663e-14
5.14991e-14
5.32506e-14
5.38949e-14
5.48854e-14
5.58936e-14
5.70684e-14
5.82931e-14
5.95232e-14
6.054e-14
6.16822e-14
6.27495e-14
6.37541e-14
6.47515e-14
6.56467e-14
6.65308e-14
6.74043e-14
6.8346e-14
6.96146e-14
7.07723e-14
7.17678e-14
7.30156e-14
7.40484e-14
7.5006e-14
7.61073e-14
7.69605e-14
7.79886e-14
7.88427e-14
7.97489e-14
8.0369e-14
8.12406e-14
8.20566e-14
8.30008e-14
8.36938e-14
8.4374e-14
8.52223e-14
8.57685e-14
8.63324e-14
8.68423e-14
8.74356e-14
8.80089e-14
8.86884e-14
8.92172e-14
8.97898e-14
9.03475e-14
9.08776e-14
9.12468e-14
9.14729e-14
9.20477e-14
9.2515e-14
9.29413e-14
9.35955e-14
9.43366e-14
9.48124e-14
9.54078e-14
9.56522e-14
9.57623e-14
9.63186e-14
9.6572e-14
9.68811e-14
9.72094e-14
9.7662e-14
9.78774e-14
9.84301e-14
9.88008e-14
9.92664e-14
9.99882e-14
1.00574e-13
1.00988e-13
1.01265e-13
1.0161e-13
1.02011e-13
1.02431e-13
1.02763e-13
1.03236e-13
1.03576e-13
1.03731e-13
1.04167e-13
1.04419e-13
1.04671e-13
1.04927e-13
1.0512e-13
1.0531e-13
1.05474e-13
1.0559e-13
1.05775e-13
1.06045e-13
1.06196e-13
1.06463e-13
1.06655e-13
1.06723e-13
1.06895e-13
1.06846e-13
1.06771e-13
1.0684e-13
1.07099e-13
1.07125e-13
1.07156e-13
1.07231e-13
1.07399e-13
1.07254e-13
1.07192e-13
1.07195e-13
1.07175e-13
1.0717e-13
1.07106e-13
1.07096e-13
1.0698e-13
1.06898e-13
1.0682e-13
1.06805e-13
1.06445e-13
1.06397e-13
1.06499e-13
1.06376e-13
1.06299e-13
1.06352e-13
1.06375e-13
1.06063e-13
1.05996e-13
1.05984e-13
1.06066e-13
1.05779e-13
1.05711e-13
1.05528e-13
1.05206e-13
1.04876e-13
1.04706e-13
1.04681e-13
1.04365e-13
1.04436e-13
1.04434e-13
1.04385e-13
1.04279e-13
1.04165e-13
1.04085e-13
1.03622e-13
1.03365e-13
1.03376e-13
1.03348e-13
1.03621e-13
1.0343e-13
1.03553e-13
1.03414e-13
1.03481e-13
1.03476e-13
1.03564e-13
1.03345e-13
1.03148e-13
1.03224e-13
1.03306e-13
1.03312e-13
1.03159e-13
1.02965e-13
1.03152e-13
1.03354e-13
1.03089e-13
1.03078e-13
1.02935e-13
1.02913e-13
1.027e-13
1.0256e-13
1.02676e-13
1.02725e-13
1.03008e-13
1.02994e-13
1.0314e-13
1.03112e-13
1.03318e-13
1.03279e-13
1.03229e-13
1.03313e-13
1.0348e-13
1.0335e-13
1.02909e-13
1.02963e-13
1.03086e-13
1.0286e-13
1.02941e-13
1.0277e-13
1.02549e-13
1.02494e-13
1.02374e-13
1.02305e-13
1.0186e-13
1.01441e-13
1.00927e-13
1.00794e-13
1.00849e-13
1.00231e-13
9.96524e-14
9.95151e-14
9.91363e-14
9.87789e-14
9.83565e-14
9.801e-14
9.78948e-14
9.74398e-14
9.71165e-14
9.673e-14
9.62803e-14
9.60248e-14
9.57207e-14
9.52379e-14
9.48984e-14
9.47039e-14
9.42339e-14
9.38049e-14
9.327e-14
9.29397e-14
9.26532e-14
9.22744e-14
9.19902e-14
9.14444e-14
9.11072e-14
9.11098e-14
9.0769e-14
9.05687e-14
9.01397e-14
8.97018e-14
8.94095e-14
8.91309e-14
8.88257e-14
8.83346e-14
8.79289e-14
8.76676e-14
8.74822e-14
8.74625e-14
8.70653e-14
8.68596e-14
8.67847e-14
8.65836e-14
8.59683e-14
8.52157e-14
8.5137e-14
8.51269e-14
8.47239e-14
8.45198e-14
8.42398e-14
8.39116e-14
8.32944e-14
8.28764e-14
8.28461e-14
8.25631e-14
8.23321e-14
8.19092e-14
8.16948e-14
8.16315e-14
8.12877e-14
8.07484e-14
8.04269e-14
8.01755e-14
7.95263e-14
7.92299e-14
7.88494e-14
7.85615e-14
7.80696e-14
7.76797e-14
7.71768e-14
7.69258e-14
7.66961e-14
7.62465e-14
7.59216e-14
7.58207e-14
7.53969e-14
7.51688e-14
7.46555e-14
7.41446e-14
7.3402e-14
7.30131e-14
7.23702e-14
7.16613e-14
7.14189e-14
7.11004e-14
7.07481e-14
7.04416e-14
6.99903e-14
6.96186e-14
6.92378e-14
6.87974e-14
6.83624e-14
6.77391e-14
6.74346e-14
6.70971e-14
6.69428e-14
6.6604e-14
6.60129e-14
6.58192e-14
6.54e-14
6.49512e-14
6.43074e-14
6.40843e-14
6.35535e-14
6.28573e-14
6.20375e-14
6.15043e-14
6.10228e-14
6.07611e-14
6.02084e-14
5.96956e-14
5.93502e-14
5.88836e-14
5.87011e-14
5.83209e-14
5.79981e-14
5.76843e-14
5.72598e-14
5.6977e-14
5.62391e-14
5.54475e-14
5.49155e-14
5.47482e-14
5.44955e-14
5.4001e-14
5.36144e-14
5.34344e-14
5.32623e-14
5.31063e-14
5.27763e-14
5.25867e-14
5.26217e-14
5.28178e-14
5.45543e-14
5.50919e-14
5.58027e-14
5.68268e-14
5.77641e-14
5.89527e-14
5.99166e-14
6.1004e-14
6.20747e-14
6.33244e-14
6.4097e-14
6.5155e-14
6.57148e-14
6.68129e-14
6.77843e-14
6.85089e-14
6.98048e-14
7.09845e-14
7.17805e-14
7.29842e-14
7.41675e-14
7.50404e-14
7.61809e-14
7.71635e-14
7.81167e-14
7.886e-14
7.96988e-14
8.04309e-14
8.13632e-14
8.21597e-14
8.2999e-14
8.39091e-14
8.44955e-14
8.55181e-14
8.60156e-14
8.63804e-14
8.69811e-14
8.7449e-14
8.79181e-14
8.87331e-14
8.95083e-14
9.00245e-14
9.05094e-14
9.09283e-14
9.13224e-14
9.15474e-14
9.20471e-14
9.25388e-14
9.30918e-14
9.37293e-14
9.44152e-14
9.48324e-14
9.54398e-14
9.55338e-14
9.59173e-14
9.60287e-14
9.66597e-14
9.68963e-14
9.73383e-14
9.76583e-14
9.81072e-14
9.85205e-14
9.88027e-14
9.92717e-14
9.98009e-14
1.00471e-13
1.01216e-13
1.01469e-13
1.01795e-13
1.02165e-13
1.02729e-13
1.02649e-13
1.03113e-13
1.03907e-13
1.03877e-13
1.0422e-13
1.04445e-13
1.04774e-13
1.04818e-13
1.05021e-13
1.05249e-13
1.05175e-13
1.05534e-13
1.05919e-13
1.06101e-13
1.06239e-13
1.06585e-13
1.0674e-13
1.06791e-13
1.06878e-13
1.06917e-13
1.0675e-13
1.06894e-13
1.07134e-13
1.0716e-13
1.07223e-13
1.0735e-13
1.075e-13
1.07296e-13
1.07245e-13
1.07435e-13
1.07259e-13
1.07297e-13
1.07276e-13
1.07154e-13
1.06882e-13
1.07017e-13
1.06742e-13
1.06611e-13
1.06435e-13
1.0648e-13
1.06362e-13
1.06277e-13
1.06413e-13
1.06524e-13
1.06152e-13
1.05971e-13
1.05995e-13
1.06149e-13
1.06165e-13
1.05962e-13
1.05609e-13
1.05636e-13
1.05278e-13
1.05011e-13
1.04802e-13
1.04748e-13
1.04404e-13
1.04443e-13
1.04475e-13
1.04527e-13
1.04188e-13
1.03954e-13
1.0411e-13
1.03654e-13
1.03529e-13
1.03374e-13
1.03304e-13
1.03412e-13
1.03455e-13
1.03409e-13
1.03539e-13
1.03461e-13
1.03487e-13
1.03648e-13
1.03365e-13
1.03232e-13
1.03107e-13
1.02983e-13
1.03166e-13
1.0301e-13
1.03031e-13
1.03116e-13
1.03149e-13
1.02998e-13
1.03177e-13
1.02871e-13
1.02862e-13
1.02806e-13
1.02515e-13
1.02843e-13
1.02863e-13
1.03118e-13
1.03032e-13
1.03124e-13
1.03053e-13
1.03313e-13
1.033e-13
1.03345e-13
1.03281e-13
1.03557e-13
1.03446e-13
1.03177e-13
1.03157e-13
1.03125e-13
1.02979e-13
1.02971e-13
1.03036e-13
1.0256e-13
1.02649e-13
1.02482e-13
1.0238e-13
1.01831e-13
1.01495e-13
1.01165e-13
1.00788e-13
1.00528e-13
1.00247e-13
9.96314e-14
9.93257e-14
9.92257e-14
9.87491e-14
9.83595e-14
9.80405e-14
9.79431e-14
9.72929e-14
9.70117e-14
9.67035e-14
9.62074e-14
9.58011e-14
9.55461e-14
9.53034e-14
9.50086e-14
9.47872e-14
9.41916e-14
9.36604e-14
9.32748e-14
9.31311e-14
9.26484e-14
9.23391e-14
9.2077e-14
9.16127e-14
9.11495e-14
9.10212e-14
9.0763e-14
9.05542e-14
9.01218e-14
8.95617e-14
8.90593e-14
8.91794e-14
8.88186e-14
8.82267e-14
8.80587e-14
8.77412e-14
8.73189e-14
8.74153e-14
8.71363e-14
8.68551e-14
8.6822e-14
8.66341e-14
8.59859e-14
8.5283e-14
8.48854e-14
8.48842e-14
8.49561e-14
8.45485e-14
8.42983e-14
8.37816e-14
8.30865e-14
8.27667e-14
8.25901e-14
8.25928e-14
8.24226e-14
8.17859e-14
8.14964e-14
8.16387e-14
8.14294e-14
8.07776e-14
8.03396e-14
8.02522e-14
7.96227e-14
7.90562e-14
7.88614e-14
7.81624e-14
7.80941e-14
7.79102e-14
7.72493e-14
7.67416e-14
7.66251e-14
7.63006e-14
7.59491e-14
7.57944e-14
7.55098e-14
7.51279e-14
7.45064e-14
7.42761e-14
7.35297e-14
7.29052e-14
7.22074e-14
7.16626e-14
7.13487e-14
7.11589e-14
7.07283e-14
7.04614e-14
7.01426e-14
6.95894e-14
6.9298e-14
6.89782e-14
6.84445e-14
6.7697e-14
6.73456e-14
6.71578e-14
6.6991e-14
6.67723e-14
6.61481e-14
6.57497e-14
6.55498e-14
6.49745e-14
6.42572e-14
6.41675e-14
6.35639e-14
6.28613e-14
6.22359e-14
6.15379e-14
6.11042e-14
6.05922e-14
6.00394e-14
5.97628e-14
5.93555e-14
5.8916e-14
5.87382e-14
5.85648e-14
5.81424e-14
5.77947e-14
5.73042e-14
5.70055e-14
5.64172e-14
5.57331e-14
5.51628e-14
5.50218e-14
5.48995e-14
5.44922e-14
5.41568e-14
5.40179e-14
5.37364e-14
5.35724e-14
5.3651e-14
5.3872e-14
5.36324e-14
5.41472e-14
5.57274e-14
5.64004e-14
5.68417e-14
5.77006e-14
5.83714e-14
5.93929e-14
6.03546e-14
6.13744e-14
6.24391e-14
6.34564e-14
6.44905e-14
6.53851e-14
6.59306e-14
6.69622e-14
6.80771e-14
6.89441e-14
7.01792e-14
7.11902e-14
7.19537e-14
7.29779e-14
7.42013e-14
7.5145e-14
7.6227e-14
7.72886e-14
7.82505e-14
7.9101e-14
7.95892e-14
8.04495e-14
8.13167e-14
8.21856e-14
8.32402e-14
8.41116e-14
8.46713e-14
8.56289e-14
8.63991e-14
8.65849e-14
8.67582e-14
8.74499e-14
8.8065e-14
8.87786e-14
8.94893e-14
9.00631e-14
9.02922e-14
9.10309e-14
9.15293e-14
9.18994e-14
9.21334e-14
9.28704e-14
9.34624e-14
9.38121e-14
9.45264e-14
9.48725e-14
9.54713e-14
9.56433e-14
9.58495e-14
9.61234e-14
9.66222e-14
9.6951e-14
9.73013e-14
9.77095e-14
9.81454e-14
9.86705e-14
9.88169e-14
9.93867e-14
9.99985e-14
1.00535e-13
1.0122e-13
1.01605e-13
1.01788e-13
1.024e-13
1.02629e-13
1.02814e-13
1.03285e-13
1.03824e-13
1.03982e-13
1.0407e-13
1.04519e-13
1.0495e-13
1.04855e-13
1.04919e-13
1.05202e-13
1.05417e-13
1.05615e-13
1.05916e-13
1.05952e-13
1.06136e-13
1.06521e-13
1.0659e-13
1.06791e-13
1.0727e-13
1.07122e-13
1.06815e-13
1.06568e-13
1.0715e-13
1.07268e-13
1.07508e-13
1.07474e-13
1.07429e-13
1.07391e-13
1.07353e-13
1.0738e-13
1.07435e-13
1.07353e-13
1.07345e-13
1.07369e-13
1.0705e-13
1.06903e-13
1.06695e-13
1.06497e-13
1.06281e-13
1.06339e-13
1.06427e-13
1.06618e-13
1.06632e-13
1.06467e-13
1.06029e-13
1.0618e-13
1.06278e-13
1.06189e-13
1.06116e-13
1.05882e-13
1.05626e-13
1.05539e-13
1.05628e-13
1.05248e-13
1.0492e-13
1.04579e-13
1.04373e-13
1.04519e-13
1.04531e-13
1.0446e-13
1.04357e-13
1.03922e-13
1.03978e-13
1.03753e-13
1.03332e-13
1.03173e-13
1.03291e-13
1.03384e-13
1.03261e-13
1.03272e-13
1.03262e-13
1.03696e-13
1.03874e-13
1.0333e-13
1.03116e-13
1.03189e-13
1.03146e-13
1.02932e-13
1.02891e-13
1.0306e-13
1.02904e-13
1.02854e-13
1.03219e-13
1.03243e-13
1.02968e-13
1.0292e-13
1.02881e-13
1.02749e-13
1.02676e-13
1.02898e-13
1.02927e-13
1.03204e-13
1.03147e-13
1.02762e-13
1.03018e-13
1.03293e-13
1.03535e-13
1.03381e-13
1.03353e-13
1.03525e-13
1.03602e-13
1.03522e-13
1.03369e-13
1.03153e-13
1.03002e-13
1.03207e-13
1.03249e-13
1.02622e-13
1.02829e-13
1.02312e-13
1.02079e-13
1.01894e-13
1.01502e-13
1.013e-13
1.00719e-13
1.00371e-13
9.98883e-14
9.94399e-14
9.92675e-14
9.8793e-14
9.85705e-14
9.84027e-14
9.7984e-14
9.78928e-14
9.72295e-14
9.69348e-14
9.66696e-14
9.6074e-14
9.60331e-14
9.55883e-14
9.53754e-14
9.47878e-14
9.47399e-14
9.43829e-14
9.3586e-14
9.33471e-14
9.31527e-14
9.27273e-14
9.22645e-14
9.19087e-14
9.16003e-14
9.12579e-14
9.06834e-14
9.04525e-14
9.03987e-14
9.01292e-14
8.93827e-14
8.87692e-14
8.87328e-14
8.87428e-14
8.85958e-14
8.81361e-14
8.76775e-14
8.74741e-14
8.73798e-14
8.71216e-14
8.69707e-14
8.67082e-14
8.64927e-14
8.60921e-14
8.52257e-14
8.50679e-14
8.5073e-14
8.46556e-14
8.43837e-14
8.41845e-14
8.34186e-14
8.29604e-14
8.28402e-14
8.25849e-14
8.25323e-14
8.21161e-14
8.16958e-14
8.15559e-14
8.1398e-14
8.1331e-14
8.09331e-14
8.05701e-14
8.01447e-14
7.94918e-14
7.9133e-14
7.87818e-14
7.81381e-14
7.79029e-14
7.77496e-14
7.75357e-14
7.68201e-14
7.64522e-14
7.62833e-14
7.61791e-14
7.59502e-14
7.55519e-14
7.51143e-14
7.46097e-14
7.40868e-14
7.35387e-14
7.28584e-14
7.22483e-14
7.1789e-14
7.1546e-14
7.12916e-14
7.08097e-14
7.06127e-14
7.01751e-14
6.95208e-14
6.91971e-14
6.88919e-14
6.85222e-14
6.78314e-14
6.73341e-14
6.71181e-14
6.70509e-14
6.66928e-14
6.61334e-14
6.59072e-14
6.56623e-14
6.48506e-14
6.43523e-14
6.38565e-14
6.35399e-14
6.30935e-14
6.23998e-14
6.15191e-14
6.08619e-14
6.04498e-14
6.01195e-14
5.97074e-14
5.93219e-14
5.88358e-14
5.87756e-14
5.87135e-14
5.84605e-14
5.78189e-14
5.74327e-14
5.69064e-14
5.68027e-14
5.59488e-14
5.55591e-14
5.55602e-14
5.53689e-14
5.51477e-14
5.50108e-14
5.45584e-14
5.45833e-14
5.44986e-14
5.43945e-14
5.47924e-14
5.45419e-14
5.50897e-14
5.63708e-14
5.70908e-14
5.78716e-14
5.83888e-14
5.90755e-14
5.99816e-14
6.08471e-14
6.16559e-14
6.29945e-14
6.39487e-14
6.44188e-14
6.53703e-14
6.6373e-14
6.75616e-14
6.85256e-14
6.93573e-14
7.03589e-14
7.12913e-14
7.22219e-14
7.33521e-14
7.44838e-14
7.53018e-14
7.6282e-14
7.72663e-14
7.80683e-14
7.91993e-14
7.96883e-14
8.04379e-14
8.12027e-14
8.23726e-14
8.34033e-14
8.41943e-14
8.45972e-14
8.56867e-14
8.656e-14
8.66106e-14
8.6912e-14
8.7851e-14
8.83743e-14
8.88325e-14
8.93488e-14
8.98821e-14
9.04433e-14
9.0917e-14
9.14564e-14
9.20706e-14
9.26708e-14
9.31254e-14
9.33441e-14
9.40946e-14
9.48508e-14
9.50997e-14
9.5405e-14
9.59555e-14
9.61572e-14
9.62971e-14
9.66124e-14
9.69711e-14
9.72371e-14
9.77434e-14
9.80938e-14
9.86961e-14
9.92184e-14
9.95792e-14
1.00181e-13
1.00681e-13
1.01118e-13
1.01486e-13
1.01889e-13
1.02226e-13
1.02668e-13
1.0296e-13
1.03316e-13
1.0364e-13
1.04103e-13
1.04427e-13
1.04741e-13
1.05094e-13
1.05107e-13
1.04954e-13
1.05207e-13
1.05588e-13
1.05883e-13
1.06077e-13
1.05947e-13
1.0603e-13
1.06421e-13
1.06751e-13
1.06956e-13
1.07578e-13
1.07159e-13
1.06943e-13
1.06554e-13
1.0725e-13
1.07503e-13
1.07469e-13
1.07569e-13
1.07572e-13
1.07522e-13
1.07261e-13
1.07472e-13
1.07475e-13
1.07505e-13
1.07418e-13
1.07174e-13
1.0715e-13
1.06849e-13
1.06641e-13
1.06285e-13
1.06418e-13
1.06575e-13
1.06696e-13
1.07012e-13
1.06796e-13
1.06496e-13
1.06018e-13
1.0626e-13
1.06404e-13
1.0625e-13
1.06109e-13
1.06256e-13
1.06105e-13
1.05473e-13
1.05639e-13
1.04841e-13
1.04693e-13
1.04916e-13
1.04675e-13
1.04413e-13
1.0465e-13
1.04527e-13
1.04161e-13
1.04019e-13
1.04032e-13
1.03662e-13
1.03319e-13
1.03111e-13
1.03396e-13
1.03256e-13
1.03509e-13
1.03421e-13
1.03046e-13
1.03573e-13
1.03594e-13
1.03232e-13
1.03146e-13
1.0327e-13
1.03067e-13
1.03011e-13
1.02528e-13
1.0266e-13
1.02916e-13
1.03193e-13
1.03157e-13
1.03113e-13
1.03132e-13
1.03221e-13
1.03061e-13
1.02947e-13
1.02616e-13
1.0304e-13
1.03055e-13
1.02857e-13
1.03118e-13
1.0294e-13
1.03189e-13
1.03372e-13
1.03508e-13
1.03481e-13
1.03561e-13
1.03592e-13
1.03367e-13
1.03441e-13
1.03411e-13
1.03245e-13
1.03135e-13
1.03366e-13
1.03452e-13
1.02868e-13
1.02516e-13
1.0223e-13
1.0197e-13
1.01819e-13
1.01596e-13
1.01206e-13
1.00693e-13
9.99875e-14
9.95267e-14
9.93808e-14
9.91935e-14
9.87727e-14
9.84744e-14
9.85494e-14
9.80352e-14
9.77216e-14
9.71388e-14
9.65962e-14
9.66478e-14
9.60468e-14
9.57999e-14
9.56386e-14
9.54715e-14
9.50142e-14
9.45136e-14
9.43593e-14
9.35692e-14
9.32231e-14
9.32333e-14
9.26199e-14