/*--------------------------------*- C++ -*----------------------------------*\
| =========                 |                                                 |
| \\      /  F ield         | OpenFOAM: The Open Source CFD Toolbox           |
|  \\    /   O peration     | Version:  2112                                  |
|   \\  /    A nd           | Website:  www.openfoam.com                      |
|    \\/     M anipulation  |                                                 |
\*---------------------------------------------------------------------------*/
FoamFile
{
    version     2.0;
    format      ascii;
    arch        "LSB;label=32;scalar=64";
    class       surfaceScalarField;
    location    "4";
    object      phi;
}
// * * * * * * * * * * * * * * * * * * * * * * * * * * * * * * * * * * * * * //

dimensions      [0 3 -1 0 0 0 0];

oriented        oriented;

internalField   nonuniform List<scalar> 
50800
(
4.90723e-05
-4.55019e-18
4.90723e-05
-1.70767e-18
4.90723e-05
-6.16406e-19
4.90723e-05
-3.24016e-19
4.90723e-05
-1.6298e-19
4.90723e-05
-7.72378e-20
4.90723e-05
-5.85455e-20
4.90723e-05
-4.58711e-20
4.90723e-05
-3.41864e-20
4.90723e-05
-2.32398e-20
4.90723e-05
-1.30221e-20
4.90723e-05
-3.50783e-20
4.90723e-05
-1.10285e-20
4.90723e-05
4.08366e-21
4.90723e-05
-1.03082e-20
4.90723e-05
1.67808e-20
4.90723e-05
9.86746e-21
4.90723e-05
-1.58032e-20
4.90723e-05
-2.17155e-20
4.90723e-05
-3.66868e-20
4.90723e-05
-8.46335e-21
4.90723e-05
-8.57303e-21
4.90723e-05
-2.05197e-20
4.90723e-05
-3.05662e-20
4.90723e-05
-4.3102e-20
4.90723e-05
-2.19214e-20
4.90723e-05
3.20426e-20
4.90723e-05
-2.21041e-21
4.90723e-05
-4.16448e-20
4.90723e-05
-2.81711e-20
4.90723e-05
-2.90096e-21
4.90723e-05
4.82493e-20
4.90723e-05
2.64779e-20
4.90723e-05
-5.10643e-21
4.90723e-05
-5.33497e-21
4.90723e-05
8.74954e-22
4.90723e-05
2.77637e-20
4.90723e-05
-1.54274e-20
4.90723e-05
-1.17542e-20
4.90723e-05
4.6882e-20
4.90723e-05
5.8673e-21
4.90723e-05
1.21021e-20
4.90723e-05
-2.05501e-20
4.90723e-05
-2.50696e-20
4.90723e-05
5.10801e-20
4.90723e-05
9.3255e-21
4.90723e-05
3.28715e-20
4.90723e-05
2.32571e-20
4.90723e-05
5.43279e-21
4.90723e-05
-1.17818e-20
4.90723e-05
-4.71496e-20
4.90723e-05
3.04429e-20
4.90723e-05
-8.42955e-21
4.90723e-05
-1.12723e-20
4.90723e-05
5.88765e-20
4.90723e-05
-2.88725e-20
4.90723e-05
5.7652e-21
4.90723e-05
-1.31498e-20
4.90723e-05
-3.33789e-21
4.90723e-05
4.94103e-20
4.90723e-05
-4.49409e-20
4.90723e-05
4.99734e-20
4.90723e-05
2.1792e-20
4.90723e-05
6.88842e-21
4.90723e-05
3.69412e-20
4.90723e-05
-2.5744e-20
4.90723e-05
-1.16562e-20
4.90723e-05
-2.70506e-21
4.90723e-05
1.46668e-20
4.90723e-05
2.09785e-20
4.90723e-05
-3.17432e-20
4.90723e-05
-1.42503e-20
4.90723e-05
-3.06721e-20
4.90723e-05
-1.75312e-20
4.90723e-05
7.7855e-20
4.90723e-05
-5.11879e-20
4.90723e-05
-8.07062e-20
4.90723e-05
4.07205e-20
4.90723e-05
4.55508e-21
4.90723e-05
5.43671e-20
4.90723e-05
-3.80388e-20
4.90723e-05
-1.01352e-19
4.90723e-05
2.69894e-20
4.90723e-05
5.08994e-20
4.90723e-05
6.36769e-20
4.90723e-05
7.92739e-22
4.90723e-05
-8.71793e-20
4.90723e-05
-6.20544e-20
4.90723e-05
3.1088e-20
4.90723e-05
7.40361e-20
4.90723e-05
-4.18255e-20
4.90723e-05
-1.0579e-19
4.90723e-05
-8.86673e-21
4.90723e-05
7.86146e-20
4.90723e-05
3.48111e-21
4.90723e-05
-1.03099e-19
4.90723e-05
-1.63714e-20
4.90723e-05
-5.89335e-21
4.90723e-05
8.17864e-20
4.90723e-05
3.42694e-20
4.90723e-05
-1.37149e-19
4.90723e-05
2.19767e-20
4.90723e-05
-3.57657e-20
4.90723e-05
4.69576e-20
4.90723e-05
3.48894e-20
4.90723e-05
-2.00015e-20
4.90723e-05
-7.83668e-20
4.90723e-05
2.32997e-21
4.90723e-05
5.63227e-20
4.90723e-05
9.52896e-22
4.90723e-05
3.13975e-20
4.90723e-05
-1.94876e-19
4.90723e-05
2.72036e-20
4.90723e-05
1.59162e-19
4.90723e-05
1.49285e-20
4.90723e-05
-4.36549e-20
4.90723e-05
-1.38245e-19
4.90723e-05
1.76745e-20
4.90723e-05
1.13941e-19
4.90723e-05
1.34084e-20
4.90723e-05
-7.09689e-20
4.90723e-05
-1.41067e-19
4.90723e-05
7.71191e-22
4.90723e-05
1.77374e-19
4.90723e-05
7.97037e-20
4.90723e-05
-5.26649e-20
4.90723e-05
-1.41862e-19
4.90723e-05
5.64465e-21
4.90723e-05
1.69596e-19
4.90723e-05
4.24633e-20
4.90723e-05
-7.44028e-20
4.90723e-05
-1.07783e-19
4.90723e-05
5.0915e-20
4.90723e-05
1.17147e-19
4.90723e-05
-5.26487e-21
4.90723e-05
-8.25729e-21
4.90723e-05
-7.3269e-20
4.90723e-05
-1.70291e-20
4.90723e-05
8.43741e-20
4.90723e-05
2.02695e-20
4.90723e-05
-2.62346e-20
4.90723e-05
-7.96358e-20
4.90723e-05
2.23395e-20
4.90723e-05
6.47265e-20
4.90723e-05
-9.27191e-21
4.90723e-05
-5.62823e-21
4.90723e-05
-7.87095e-20
4.90723e-05
-1.15529e-20
4.90723e-05
5.03008e-21
4.90723e-05
2.97214e-20
4.90723e-05
9.47346e-20
4.90723e-05
-1.17926e-19
4.90723e-05
-1.20096e-19
4.90723e-05
6.49742e-20
4.90723e-05
6.89378e-20
4.90723e-05
5.59972e-20
4.90723e-05
-8.20794e-20
4.90723e-05
-9.47124e-20
4.90723e-05
6.20095e-20
4.90723e-05
7.22007e-20
4.90723e-05
1.31459e-19
4.90723e-05
-1.09123e-19
4.90723e-05
-6.15316e-20
4.90723e-05
1.07009e-19
4.90723e-05
-8.78755e-20
4.90723e-05
7.65276e-20
4.90723e-05
-3.45087e-20
4.90723e-05
-1.09385e-19
4.90723e-05
8.54206e-20
4.90723e-05
1.62952e-20
4.90723e-05
4.07664e-20
4.90723e-05
-1.22166e-19
4.90723e-05
-2.2172e-20
4.90723e-05
2.79506e-20
4.90723e-05
-5.75945e-20
4.90723e-05
1.01601e-22
4.90723e-05
-8.83105e-20
4.90723e-05
1.56496e-19
4.90723e-05
-2.42313e-20
4.90723e-05
-9.21217e-20
4.90723e-05
1.31742e-19
4.90723e-05
-1.75894e-19
4.90723e-05
-4.18311e-20
4.90723e-05
2.07423e-20
4.90723e-05
-6.62243e-20
4.90723e-05
1.71574e-19
4.90723e-05
-1.21658e-19
4.90723e-05
-2.91462e-20
4.90723e-05
1.1282e-19
4.90723e-05
-1.4563e-19
4.90723e-05
7.55252e-20
4.90723e-05
-9.16586e-21
4.90723e-05
-7.80756e-20
4.90723e-05
1.77302e-19
4.90723e-05
-4.61452e-20
4.90723e-05
-6.41204e-21
4.90723e-05
-9.50926e-20
4.90723e-05
1.274e-20
4.90723e-05
2.53847e-19
4.90723e-05
-1.39736e-19
4.90723e-05
-1.98949e-20
4.90723e-05
-8.82128e-20
4.90723e-05
8.71475e-21
4.90723e-05
2.69337e-19
4.90723e-05
-9.84455e-20
4.90723e-05
-1.60038e-19
4.90723e-05
-7.30076e-20
4.90723e-05
1.41358e-19
4.90723e-05
1.84568e-19
4.90723e-05
-7.35538e-20
4.90723e-05
-1.85162e-19
4.90723e-05
-9.73842e-20
4.90723e-05
3.34158e-19
4.90723e-05
1.60529e-20
4.90723e-05
-3.1918e-19
4.90723e-05
2.69506e-19
4.90723e-05
8.97428e-20
4.90723e-05
-1.47327e-19
4.90723e-05
-1.01479e-19
4.90723e-05
-1.33496e-19
4.90723e-05
3.39173e-19
4.90723e-05
1.43968e-19
4.90723e-05
-1.66679e-19
4.90723e-05
-1.19778e-19
4.90723e-05
-1.43774e-19
4.90723e-05
3.21004e-19
4.90723e-05
3.09582e-20
4.90723e-05
-1.40878e-19
4.90723e-05
4.60268e-21
4.90723e-05
-1.3357e-19
4.90723e-05
1.91937e-19
4.90723e-05
-1.33508e-20
4.90723e-05
-3.66123e-20
4.90723e-05
4.87422e-20
4.90723e-05
-2.55329e-19
4.90723e-05
7.13792e-20
4.90723e-05
6.9175e-20
4.90723e-05
1.17137e-20
4.90723e-05
6.84525e-20
4.90723e-05
-1.66164e-19
4.90723e-05
1.61895e-19
4.90723e-05
-1.17256e-20
4.90723e-05
-8.09029e-22
4.90723e-05
1.25457e-19
4.90723e-05
-2.68722e-19
4.90723e-05
-2.79879e-20
4.90723e-05
1.06153e-19
4.90723e-05
1.16517e-19
4.90723e-05
-5.41455e-21
4.90723e-05
-2.29789e-19
4.90723e-05
1.76874e-19
4.90723e-05
4.53936e-20
4.90723e-05
-5.49806e-20
4.90723e-05
2.68715e-21
4.90723e-05
-2.09463e-19
4.90723e-05
2.29366e-19
4.90723e-05
4.04452e-20
4.90723e-05
-2.29883e-20
4.90723e-05
8.28171e-20
4.90723e-05
-2.24507e-19
4.90723e-05
1.25761e-19
4.90723e-05
5.22462e-20
4.90723e-05
-7.16185e-20
4.90723e-05
3.65548e-21
4.90723e-05
-1.40826e-19
4.90723e-05
1.84996e-19
4.90723e-05
1.34693e-19
4.90723e-05
-8.8307e-21
4.90723e-05
-3.02517e-20
4.90723e-05
-1.55694e-19
4.90723e-05
1.05174e-19
4.90723e-05
9.2151e-20
4.90723e-05
3.47081e-20
4.90723e-05
-1.17662e-20
4.90723e-05
-1.50316e-19
4.90723e-05
3.79797e-20
4.90723e-05
2.0351e-20
4.90723e-05
-1.41017e-19
4.90723e-05
6.59641e-20
4.90723e-05
-8.24505e-20
4.90723e-05
1.05271e-20
4.90723e-05
9.40704e-20
4.90723e-05
-4.4798e-20
4.90723e-05
-4.86629e-21
4.90723e-05
-1.32069e-19
4.90723e-05
-3.60813e-21
4.90723e-05
1.7324e-19
4.90723e-05
4.30205e-20
4.90723e-05
-1.47832e-19
4.90723e-05
-1.32486e-19
4.90723e-05
1.5406e-19
4.90723e-05
9.95439e-20
4.90723e-05
-5.5179e-20
4.90723e-05
-1.36184e-19
4.90723e-05
1.49408e-20
4.90723e-05
2.24247e-19
4.90723e-05
-3.87443e-20
4.90723e-05
2.7442e-21
4.90723e-05
-1.92527e-19
4.90723e-05
-3.63727e-20
4.90723e-05
2.31198e-19
4.90723e-05
3.92598e-21
4.90723e-05
7.6151e-20
4.90723e-05
-1.70275e-19
4.90723e-05
-2.12191e-19
4.90723e-05
-1.18981e-20
4.90723e-05
5.39672e-22
4.90723e-05
1.48448e-19
4.90723e-05
-1.50022e-19
4.90723e-05
-2.89346e-20
4.90723e-05
-4.6884e-21
4.90723e-05
-1.04431e-19
4.90723e-05
1.80299e-19
4.90723e-05
-1.11859e-19
4.90723e-05
-1.72203e-19
4.90723e-05
-9.73759e-21
4.90723e-05
-2.65412e-19
4.90723e-05
-2.60722e-19
4.90723e-05
-6.87709e-19
-1.83331e-18
0.000144733
-2.21971e-18
0.000144733
-1.51305e-18
0.000144733
-8.3838e-19
0.000144733
-4.85494e-19
0.000144733
-2.59845e-19
0.000144733
-1.50256e-19
0.000144733
-1.36316e-19
0.000144733
-8.18249e-20
0.000144733
-6.91681e-20
0.000144733
-4.83557e-20
0.000144733
-2.3618e-20
0.000144733
-5.36873e-20
0.000144733
4.63204e-21
0.000144733
-5.23694e-21
0.000144733
-5.32215e-20
0.000144733
3.96041e-20
0.000144733
1.84442e-20
0.000144733
-1.76139e-20
0.000144733
-7.31543e-20
0.000144733
-7.44911e-20
0.000144733
-2.77834e-20
0.000144733
-5.25595e-20
0.000144733
-5.604e-20
0.000144733
-7.27189e-20
0.000144733
-1.00978e-19
0.000144733
-4.07642e-20
0.000144733
2.5351e-20
0.000144733
6.96731e-21
0.000144733
-4.70901e-20
0.000144733
-6.55416e-20
0.000144733
1.51978e-20
0.000144733
1.07649e-19
0.000144733
8.22381e-20
0.000144733
1.29146e-20
0.000144733
-1.54337e-21
0.000144733
1.55948e-20
0.000144733
6.89212e-20
0.000144733
1.7062e-20
0.000144733
-7.61128e-21
0.000144733
7.15528e-20
0.000144733
1.75584e-20
0.000144733
1.51585e-21
0.000144733
2.70557e-21
0.000144733
-2.95544e-20
0.000144733
5.44183e-20
0.000144733
8.02495e-20
0.000144733
8.59183e-20
0.000144733
7.90531e-20
0.000144733
5.1935e-20
0.000144733
4.64983e-22
0.000144733
-5.07972e-20
0.000144733
9.03827e-21
0.000144733
-2.0834e-20
0.000144733
4.68438e-21
0.000144733
8.36841e-20
0.000144733
-2.99188e-20
0.000144733
-8.46087e-21
0.000144733
1.32715e-20
0.000144733
2.77904e-20
0.000144733
3.17772e-20
0.000144733
-7.67711e-20
0.000144733
1.1557e-19
0.000144733
7.43723e-20
0.000144733
3.16166e-20
0.000144733
1.1873e-19
0.000144733
-4.58297e-20
0.000144733
2.24536e-20
0.000144733
1.5564e-20
0.000144733
2.84561e-20
0.000144733
4.32839e-20
0.000144733
-7.37296e-20
0.000144733
-5.51028e-20
0.000144733
-7.85101e-20
0.000144733
-2.14904e-20
0.000144733
1.30497e-19
0.000144733
-1.01781e-19
0.000144733
-1.53857e-19
0.000144733
7.37929e-21
0.000144733
1.12904e-21
0.000144733
5.60272e-20
0.000144733
-7.49232e-20
0.000144733
-1.60341e-19
0.000144733
3.77282e-20
0.000144733
8.14264e-20
0.000144733
7.9568e-20
0.000144733
-1.01402e-20
0.000144733
-1.04264e-19
0.000144733
-1.04126e-19
0.000144733
8.89547e-21
0.000144733
1.05844e-19
0.000144733
-9.6429e-20
0.000144733
-1.92641e-19
0.000144733
-2.50505e-20
0.000144733
5.94447e-20
0.000144733
-1.9533e-20
0.000144733
-1.39638e-19
0.000144733
-6.71916e-20
0.000144733
-7.71919e-21
0.000144733
6.44006e-20
0.000144733
3.75748e-20
0.000144733
-1.17297e-19
0.000144733
5.88534e-21
0.000144733
-3.67831e-20
0.000144733
3.12355e-20
0.000144733
4.95018e-20
0.000144733
-1.49829e-20
0.000144733
-1.51824e-19
0.000144733
-5.32897e-20
0.000144733
9.70814e-20
0.000144733
7.26351e-20
0.000144733
-1.16844e-20
0.000144733
-3.25832e-19
0.000144733
1.49465e-20
0.000144733
2.67402e-19
0.000144733
7.1607e-20
0.000144733
-7.75502e-20
0.000144733
-2.63649e-19
0.000144733
-7.72062e-20
0.000144733
2.25512e-19
0.000144733
8.06472e-20
0.000144733
-1.69909e-19
0.000144733
-2.69875e-19
0.000144733
1.15652e-20
0.000144733
3.30976e-19
0.000144733
1.8988e-19
0.000144733
-7.352e-20
0.000144733
-2.77585e-19
0.000144733
3.3083e-20
0.000144733
3.04275e-19
0.000144733
4.40539e-20
0.000144733
-1.2813e-19
0.000144733
-1.75979e-19
0.000144733
1.23861e-19
0.000144733
2.78191e-19
0.000144733
5.47163e-20
0.000144733
-5.33238e-20
0.000144733
-1.75362e-19
0.000144733
-6.58855e-20
0.000144733
1.8484e-19
0.000144733
8.39594e-20
0.000144733
-8.08988e-20
0.000144733
-1.71582e-19
0.000144733
1.22064e-20
0.000144733
1.186e-19
0.000144733
-1.74262e-20
0.000144733
-8.12592e-20
0.000144733
-1.89244e-19
0.000144733
5.55925e-21
0.000144733
3.43021e-20
0.000144733
2.50257e-20
0.000144733
1.36903e-19
0.000144733
-1.92965e-19
0.000144733
-1.89033e-19
0.000144733
6.83601e-20
0.000144733
1.21628e-19
0.000144733
1.12073e-19
0.000144733
-8.5507e-20
0.000144733
-1.40491e-19
0.000144733
9.51646e-20
0.000144733
1.64878e-19
0.000144733
2.19802e-19
0.000144733
-1.68564e-19
0.000144733
-8.95911e-20
0.000144733
2.0009e-19
0.000144733
-9.24054e-20
0.000144733
4.15865e-20
0.000144733
-5.81464e-20
0.000144733
-1.4711e-19
0.000144733
9.4663e-20
0.000144733
3.10509e-20
0.000144733
-6.77609e-20
0.000144733
-2.15061e-19
0.000144733
-8.53812e-20
0.000144733
3.85979e-20
0.000144733
1.46221e-20
0.000144733
-1.00852e-19
0.000144733
-1.40544e-19
0.000144733
1.87984e-19
0.000144733
-3.06473e-20
0.000144733
-3.25693e-20
0.000144733
6.43542e-20
0.000144733
-3.7278e-19
0.000144733
-1.24081e-19
0.000144733
2.98895e-20
0.000144733
-6.01459e-20
0.000144733
1.78402e-19
0.000144733
-1.62705e-19
0.000144733
-7.26923e-20
0.000144733
1.29497e-19
0.000144733
-1.3358e-19
0.000144733
3.49705e-20
0.000144733
-1.78855e-20
0.000144733
-5.47843e-20
0.000144733
1.92916e-19
0.000144733
-1.33658e-20
0.000144733
-2.29402e-20
0.000144733
-4.43254e-20
0.000144733
7.98465e-20
0.000144733
2.80031e-19
0.000144733
-1.39308e-19
0.000144733
-5.02792e-20
0.000144733
-9.08177e-20
0.000144733
8.92141e-20
0.000144733
2.84465e-19
0.000144733
-8.46301e-20
0.000144733
-1.92657e-19
0.000144733
-1.08261e-19
0.000144733
1.65122e-19
0.000144733
1.8675e-19
0.000144733
-8.2363e-20
0.000144733
-2.02872e-19
0.000144733
-1.57564e-19
0.000144733
4.83135e-19
0.000144733
7.32172e-20
0.000144733
-3.9015e-19
0.000144733
3.4933e-19
0.000144733
9.91145e-20
0.000144733
-9.28919e-20
0.000144733
-1.8066e-19
0.000144733
-2.33577e-19
0.000144733
5.31131e-19
0.000144733
2.37726e-19
0.000144733
-1.71873e-19
0.000144733
-2.11301e-19
0.000144733
-2.84801e-19
0.000144733
5.03484e-19
0.000144733
7.81539e-20
0.000144733
-2.51974e-19
0.000144733
-3.38384e-20
0.000144733
-1.66482e-19
0.000144733
3.32721e-19
0.000144733
1.42909e-20
0.000144733
-7.22111e-20
0.000144733
-3.71889e-20
0.000144733
-4.86444e-19
0.000144733
-7.22953e-21
0.000144733
8.59253e-20
0.000144733
1.83253e-19
0.000144733
1.92365e-19
0.000144733
-2.94177e-19
0.000144733
2.05055e-19
0.000144733
-2.43697e-20
0.000144733
5.84032e-20
0.000144733
1.84789e-19
0.000144733
-5.06765e-19
0.000144733
1.41501e-21
0.000144733
1.89976e-19
0.000144733
2.07469e-19
0.000144733
-2.47554e-21
0.000144733
-4.15242e-19
0.000144733
3.32822e-19
0.000144733
1.01033e-19
0.000144733
-1.3082e-19
0.000144733
-1.50717e-19
0.000144733
-3.12644e-19
0.000144733
5.38376e-19
0.000144733
1.14231e-19
0.000144733
-6.03381e-20
0.000144733
1.1098e-19
0.000144733
-3.40982e-19
0.000144733
1.82869e-19
0.000144733
8.66871e-20
0.000144733
-7.25746e-20
0.000144733
-2.3244e-20
0.000144733
-1.93698e-19
0.000144733
4.02804e-19
0.000144733
2.08166e-19
0.000144733
5.71078e-20
0.000144733
1.86609e-20
0.000144733
-3.00447e-19
0.000144733
1.76928e-19
0.000144733
1.58435e-19
0.000144733
1.58134e-19
0.000144733
-1.79266e-20
0.000144733
-3.78746e-19
0.000144733
8.8274e-20
0.000144733
-7.86782e-20
0.000144733
-2.06478e-19
0.000144733
4.83376e-21
0.000144733
-2.87697e-19
0.000144733
1.07191e-19
0.000144733
1.1124e-19
0.000144733
7.71758e-21
0.000144733
1.04053e-20
0.000144733
-3.22386e-19
0.000144733
1.33715e-19
0.000144733
2.9627e-19
0.000144733
1.35532e-20
0.000144733
-2.42398e-19
0.000144733
-2.22205e-19
0.000144733
3.31584e-19
0.000144733
1.39632e-19
0.000144733
-1.44852e-19
0.000144733
-7.63038e-20
0.000144733
4.38629e-21
0.000144733
3.22763e-19
0.000144733
1.00313e-19
0.000144733
-1.93502e-19
0.000144733
-2.8846e-19
0.000144733
-1.14814e-19
0.000144733
3.26804e-19
0.000144733
1.79012e-19
0.000144733
5.59804e-20
0.000144733
-3.38609e-19
0.000144733
-4.33526e-19
0.000144733
-1.57312e-20
0.000144733
-1.95447e-20
0.000144733
5.44898e-20
0.000144733
-2.89346e-19
0.000144733
-4.86803e-20
0.000144733
6.32238e-20
0.000144733
-1.28298e-19
0.000144733
1.96431e-19
0.000144733
-1.48093e-19
0.000144733
-3.32194e-19
0.000144733
-2.0384e-19
0.000144733
-4.7647e-19
0.000144733
-3.76506e-19
0.000144733
-9.28367e-19
-1.78805e-18
0.000237858
-1.4189e-18
0.000237858
-1.12784e-18
0.000237858
-7.89108e-19
0.000237858
-4.80104e-19
0.000237858
-3.31242e-19
0.000237858
-2.10857e-19
0.000237858
-1.45908e-19
0.000237858
-7.51672e-20
0.000237858
-5.09706e-20
0.000237858
-1.38551e-20
0.000237858
1.21562e-20
0.000237858
-2.90151e-20
0.000237858
-5.03618e-22
0.000237858
-1.20459e-20
0.000237858
-6.83557e-20
0.000237858
-3.80379e-20
0.000237858
-3.3523e-20
0.000237858
-4.58008e-20
0.000237858
-9.4835e-20
0.000237858
-1.01187e-19
0.000237858
-1.49763e-20
0.000237858
-8.33375e-20
0.000237858
-1.25133e-19
0.000237858
-1.01692e-19
0.000237858
-1.42402e-19
0.000237858
-6.1449e-20
0.000237858
2.0186e-20
0.000237858
-6.24383e-21
0.000237858
-7.5315e-20
0.000237858
-4.07107e-20
0.000237858
5.28122e-20
0.000237858
1.74085e-19
0.000237858
1.26353e-19
0.000237858
-4.35338e-21
0.000237858
-1.1091e-20
0.000237858
4.92354e-20
0.000237858
1.20995e-19
0.000237858
1.10187e-19
0.000237858
3.41517e-20
0.000237858
8.17315e-20
0.000237858
5.92284e-20
0.000237858
6.35067e-20
0.000237858
5.84982e-20
0.000237858
-1.04983e-20
0.000237858
6.89147e-20
0.000237858
1.33272e-19
0.000237858
1.12835e-19
0.000237858
1.1498e-19
0.000237858
1.01475e-19
0.000237858
6.58063e-20
0.000237858
-2.63301e-20
0.000237858
-1.39001e-21
0.000237858
-1.48223e-20
0.000237858
2.97027e-21
0.000237858
9.36399e-20
0.000237858
-5.19753e-21
0.000237858
6.11297e-21
0.000237858
1.74618e-20
0.000237858
-2.34723e-20
0.000237858
5.42066e-20
0.000237858
-1.58507e-20
0.000237858
1.82773e-19
0.000237858
1.2768e-19
0.000237858
5.40064e-20
0.000237858
1.49138e-19
0.000237858
-6.17413e-20
0.000237858
5.56981e-20
0.000237858
8.16639e-20
0.000237858
5.24099e-20
0.000237858
6.35453e-20
0.000237858
-1.40537e-19
0.000237858
-7.80321e-20
0.000237858
-8.95509e-20
0.000237858
1.33722e-20
0.000237858
1.26459e-19
0.000237858
-1.99946e-19
0.000237858
-2.10439e-19
0.000237858
-2.38228e-20
0.000237858
-5.47834e-20
0.000237858
5.69936e-20
0.000237858
-9.15495e-20
0.000237858
-1.59856e-19
0.000237858
6.66617e-20
0.000237858
9.81254e-20
0.000237858
7.04206e-20
0.000237858
-7.90434e-20
0.000237858
-1.14218e-19
0.000237858
-1.35041e-19
0.000237858
-1.28023e-19
0.000237858
5.08177e-20
0.000237858
-1.07496e-19
0.000237858
-1.49673e-19
0.000237858
-4.71524e-20
0.000237858
1.92175e-20
0.000237858
-5.04605e-20
0.000237858
-1.67997e-19
0.000237858
-1.04533e-19
0.000237858
-3.19913e-20
0.000237858
1.55336e-21
0.000237858
3.59889e-20
0.000237858
-4.05362e-20
0.000237858
-1.54821e-20
0.000237858
-9.82462e-20
0.000237858
-3.86808e-20
0.000237858
3.48836e-20
0.000237858
-4.95969e-20
0.000237858
-2.77363e-19
0.000237858
-2.04464e-19
0.000237858
1.48312e-19
0.000237858
2.38586e-19
0.000237858
-2.75346e-20
0.000237858
-4.15584e-19
0.000237858
4.12516e-21
0.000237858
2.43189e-19
0.000237858
1.05093e-19
0.000237858
-6.60627e-20
0.000237858
-3.6451e-19
0.000237858
-1.80524e-19
0.000237858
2.74109e-19
0.000237858
1.38713e-19
0.000237858
-2.53245e-19
0.000237858
-3.79846e-19
0.000237858
4.42668e-20
0.000237858
4.97308e-19
0.000237858
3.15095e-19
0.000237858
-8.13974e-20
0.000237858
-4.08283e-19
0.000237858
3.20569e-20
0.000237858
3.81792e-19
0.000237858
1.31421e-19
0.000237858
-8.58614e-20
0.000237858
-1.66123e-19
0.000237858
9.88755e-20
0.000237858
3.73882e-19
0.000237858
1.19158e-19
0.000237858
-5.83296e-20
0.000237858
-2.74346e-19
0.000237858
-1.07087e-19
0.000237858
3.13199e-19
0.000237858
1.28749e-19
0.000237858
-1.54527e-19
0.000237858
-3.03311e-19
0.000237858
6.44838e-20
0.000237858
1.56853e-19
0.000237858
-7.50064e-20
0.000237858
-1.87835e-19
0.000237858
-3.32869e-19
0.000237858
2.24557e-20
0.000237858
6.9006e-20
0.000237858
-1.52933e-20
0.000237858
1.179e-19
0.000237858
-2.0433e-19
0.000237858
-1.79459e-19
0.000237858
6.55555e-21
0.000237858
1.49353e-19
0.000237858
1.34815e-19
0.000237858
-7.484e-20
0.000237858
-1.19208e-19
0.000237858
2.19314e-19
0.000237858
2.76094e-19
0.000237858
2.35988e-19
0.000237858
-1.63913e-19
0.000237858
-5.81998e-20
0.000237858
2.51332e-19
0.000237858
-1.17643e-19
0.000237858
-2.10166e-20
0.000237858
-3.37401e-20
0.000237858
-5.97636e-20
0.000237858
4.26556e-20
0.000237858
-3.36782e-20
0.000237858
-1.77086e-19
0.000237858
-3.46025e-19
0.000237858
-1.55832e-19
0.000237858
1.22084e-19
0.000237858
7.04199e-21
0.000237858
-2.26716e-19
0.000237858
-1.91452e-19
0.000237858
6.63709e-20
0.000237858
-3.53232e-20
0.000237858
4.40507e-20
0.000237858
-5.17669e-20
0.000237858
-5.32092e-19
0.000237858
-2.25411e-19
0.000237858
7.3556e-20
0.000237858
-5.47413e-20
0.000237858
5.67405e-20
0.000237858
-1.99827e-19
0.000237858
-6.69983e-20
0.000237858
1.57283e-19
0.000237858
-7.32673e-20
0.000237858
-5.16154e-20
0.000237858
-1.93423e-20
0.000237858
-5.61434e-20
0.000237858
1.68589e-19
0.000237858
8.21021e-20
0.000237858
-4.59742e-20
0.000237858
-2.22921e-20
0.000237858
9.54611e-20
0.000237858
2.05881e-19
0.000237858
3.5357e-20
0.000237858
-4.74063e-20
0.000237858
-8.53623e-20
0.000237858
1.61508e-19
0.000237858
2.50991e-19
0.000237858
-6.08392e-20
0.000237858
-1.59269e-19
0.000237858
-1.52877e-19
0.000237858
1.15789e-19
0.000237858
9.07937e-20
0.000237858
-7.44792e-20
0.000237858
-1.19936e-19
0.000237858
-1.61033e-19
0.000237858
4.86614e-19
0.000237858
1.08959e-19
0.000237858
-2.85973e-19
0.000237858
3.20868e-19
0.000237858
2.97878e-21
0.000237858
6.19901e-20
0.000237858
-1.26243e-19
0.000237858
-2.89769e-19
0.000237858
6.07174e-19
0.000237858
2.6033e-19
0.000237858
-3.70676e-20
0.000237858
-1.60176e-19
0.000237858
-3.80285e-19
0.000237858
4.98671e-19
0.000237858
8.48429e-20
0.000237858
-3.39351e-19
0.000237858
-8.76686e-20
0.000237858
-1.6744e-19
0.000237858
4.2649e-19
0.000237858
9.65425e-20
0.000237858
-1.31822e-19
0.000237858
-1.77179e-19
0.000237858
-6.63301e-19
0.000237858
-1.64477e-19
0.000237858
6.49505e-20
0.000237858
4.72187e-19
0.000237858
3.55842e-19
0.000237858
-3.68891e-19
0.000237858
2.06155e-19
0.000237858
-8.74173e-20
0.000237858
5.06097e-20
0.000237858
2.39299e-19
0.000237858
-5.99615e-19
0.000237858
5.78915e-20
0.000237858
1.61294e-19
0.000237858
1.95039e-19
0.000237858
4.85482e-20
0.000237858
-4.748e-19
0.000237858
4.39225e-19
0.000237858
1.2331e-19
0.000237858
-2.67966e-19
0.000237858
-3.01429e-19
0.000237858
-3.27722e-19
0.000237858
8.00456e-19
0.000237858
1.55358e-19
0.000237858
-6.03683e-20
0.000237858
1.57239e-19
0.000237858
-4.3005e-19
0.000237858
1.83586e-19
0.000237858
3.32579e-21
0.000237858
-2.44179e-20
0.000237858
-1.64443e-20
0.000237858
-1.24605e-19
0.000237858
6.03532e-19
0.000237858
2.15645e-19
0.000237858
2.1194e-19
0.000237858
1.09906e-19
0.000237858
-4.22952e-19
0.000237858
3.24325e-19
0.000237858
1.78411e-19
0.000237858
2.0017e-19
0.000237858
2.44088e-20
0.000237858
-6.24146e-19
0.000237858
1.23825e-19
0.000237858
-2.00484e-19
0.000237858
-2.25399e-19
0.000237858
-4.31841e-20
0.000237858
-6.27004e-19
0.000237858
1.65037e-19
0.000237858
3.5646e-20
0.000237858
2.01646e-20
0.000237858
1.19152e-19
0.000237858
-4.65927e-19
0.000237858
3.57072e-19
0.000237858
3.83141e-19
0.000237858
-7.51119e-20
0.000237858
-2.55422e-19
0.000237858
-2.75975e-19
0.000237858
5.34399e-19
0.000237858
2.3694e-19
0.000237858
-1.91723e-19
0.000237858
-5.01071e-20
0.000237858
-1.21966e-19
0.000237858
3.8378e-19
0.000237858
2.28433e-19
0.000237858
-3.42362e-19
0.000237858
-3.03577e-19
0.000237858
-2.41704e-19
0.000237858
3.24164e-19
0.000237858
2.77809e-19
0.000237858
-7.29812e-20
0.000237858
-4.76024e-19
0.000237858
-6.05676e-19
0.000237858
5.49462e-20
0.000237858
-9.35534e-20
0.000237858
-1.09973e-19
0.000237858
-2.78256e-19
0.000237858
-1.60733e-19
0.000237858
2.10691e-19
0.000237858
-1.13688e-19
0.000237858
1.15683e-19
0.000237858
-3.17115e-20
0.000237858
-5.06211e-19
0.000237858
-4.29533e-19
0.000237858
-5.90151e-19
0.000237858
-3.90357e-19
0.000237858
-8.48983e-19
-1.50451e-18
0.000328394
-9.60824e-19
0.000328394
-8.25599e-19
0.000328394
-6.50953e-19
0.000328394
-4.61066e-19
0.000328394
-2.98633e-19
0.000328394
-2.14647e-19
0.000328394
-1.23481e-19
0.000328394
-5.45271e-20
0.000328394
-5.89998e-20
0.000328394
-4.84694e-20
0.000328394
-1.71992e-20
0.000328394
-1.59463e-20
0.000328394
-2.6003e-20
0.000328394
-3.17329e-20
0.000328394
-9.97331e-20
0.000328394
-5.17019e-20
0.000328394
-6.02368e-20
0.000328394
-1.11547e-19
0.000328394
-7.90763e-20
0.000328394
-7.94284e-20
0.000328394
-6.78373e-20
0.000328394
-6.57741e-20
0.000328394
-1.81837e-19
0.000328394
-1.69213e-19
0.000328394
-1.35123e-19
0.000328394
-3.85361e-20
0.000328394
6.6106e-20
0.000328394
-3.16786e-21
0.000328394
-5.93059e-20
0.000328394
-1.51612e-20
0.000328394
1.12529e-19
0.000328394
2.31472e-19
0.000328394
1.41643e-19
0.000328394
3.93949e-20
0.000328394
2.25e-20
0.000328394
2.83595e-20
0.000328394
2.19334e-19
0.000328394
1.80861e-19
0.000328394
7.61893e-20
0.000328394
1.05718e-19
0.000328394
9.52552e-20
0.000328394
7.16675e-20
0.000328394
8.84858e-20
0.000328394
5.27501e-20
0.000328394
1.21208e-19
0.000328394
2.07449e-19
0.000328394
2.60347e-19
0.000328394
2.17955e-19
0.000328394
1.47947e-19
0.000328394
6.6871e-20
0.000328394
-3.05781e-20
0.000328394
1.24802e-21
0.000328394
1.51334e-20
0.000328394
5.74204e-20
0.000328394
1.36622e-19
0.000328394
-5.46933e-20
0.000328394
-8.34687e-21
0.000328394
1.51469e-20
0.000328394
2.96082e-20
0.000328394
7.03504e-20
0.000328394
-5.98823e-20
0.000328394
1.6389e-19
0.000328394
1.81615e-19
0.000328394
2.02485e-19
0.000328394
1.78283e-19
0.000328394
-6.58152e-21
0.000328394
1.50403e-19
0.000328394
5.59379e-20
0.000328394
7.63561e-20
0.000328394
6.71618e-20
0.000328394
-9.81564e-20
0.000328394
-1.30923e-19
0.000328394
-1.67751e-19
0.000328394
-4.21818e-20
0.000328394
7.12649e-20
0.000328394
-1.60517e-19
0.000328394
-1.72041e-19
0.000328394
-9.29172e-20
0.000328394
-8.6589e-20
0.000328394
6.98327e-20
0.000328394
-5.72729e-20
0.000328394
-1.63771e-19
0.000328394
2.62485e-20
0.000328394
8.98288e-20
0.000328394
-9.07675e-21
0.000328394
-1.78971e-19
0.000328394
-1.61108e-19
0.000328394
-1.79595e-19
0.000328394
-1.87266e-19
0.000328394
-1.12571e-22
0.000328394
-1.28649e-19
0.000328394
-2.32034e-19
0.000328394
-2.58568e-20
0.000328394
-2.22237e-21
0.000328394
-2.84461e-20
0.000328394
-1.7351e-19
0.000328394
-1.36056e-19
0.000328394
-1.7038e-19
0.000328394
-1.14647e-19
0.000328394
-2.52209e-21
0.000328394
-1.89003e-20
0.000328394
-8.93185e-20
0.000328394
-1.6662e-19
0.000328394
-1.2713e-19
0.000328394
-2.52298e-20
0.000328394
-2.44022e-20
0.000328394
-2.83817e-19
0.000328394
-2.50338e-19
0.000328394
1.51371e-19
0.000328394
2.60323e-19
0.000328394
-6.1711e-21
0.000328394
-4.08329e-19
0.000328394
-1.03095e-19
0.000328394
3.06312e-19
0.000328394
1.95572e-19
0.000328394
-1.35201e-19
0.000328394
-4.7158e-19
0.000328394
-2.1664e-19
0.000328394
3.20937e-19
0.000328394
1.60172e-19
0.000328394
-3.84749e-19
0.000328394
-5.34235e-19
0.000328394
2.45048e-21
0.000328394
6.09653e-19
0.000328394
5.44889e-19
0.000328394
-7.28258e-20
0.000328394
-4.28702e-19
0.000328394
8.39782e-20
0.000328394
5.19243e-19
0.000328394
1.19165e-19
0.000328394
-1.23342e-19
0.000328394
-7.27348e-20
0.000328394
1.23801e-19
0.000328394
3.73926e-19
0.000328394
2.22252e-19
0.000328394
-8.28093e-20
0.000328394
-3.50021e-19
0.000328394
-1.03596e-19
0.000328394
2.96064e-19
0.000328394
1.50866e-19
0.000328394
-1.75297e-19
0.000328394
-2.84114e-19
0.000328394
2.58715e-20
0.000328394
1.03309e-19
0.000328394
-1.72486e-19
0.000328394
-2.97462e-19
0.000328394
-4.35981e-19
0.000328394
-3.28483e-20
0.000328394
7.78659e-20
0.000328394
2.54444e-20
0.000328394
1.07664e-19
0.000328394
-2.13839e-19
0.000328394
-1.96516e-19
0.000328394
6.15482e-20
0.000328394
2.56123e-19
0.000328394
2.63899e-19
0.000328394
-4.70318e-20
0.000328394
-8.49237e-20
0.000328394
1.09828e-19
0.000328394
3.28118e-19
0.000328394
3.27996e-19
0.000328394
-1.37537e-19
0.000328394
-2.08476e-20
0.000328394
2.18606e-19
0.000328394
-1.10799e-19
0.000328394
2.0399e-20
0.000328394
-4.42583e-20
0.000328394
-3.90562e-20
0.000328394
4.77561e-21
0.000328394
-5.57147e-20
0.000328394
-1.94648e-19
0.000328394
-4.8373e-19
0.000328394
-1.82339e-19
0.000328394
1.76626e-19
0.000328394
-1.36698e-19
0.000328394
-3.28476e-19
0.000328394
-2.75453e-19
0.000328394
-7.25717e-20
0.000328394
-8.55051e-20
0.000328394
8.33585e-20
0.000328394
-7.48019e-20
0.000328394
-6.69537e-19
0.000328394
-2.70765e-19
0.000328394
7.26004e-20
0.000328394
2.911e-20
0.000328394
-4.23187e-20
0.000328394
-2.98315e-19
0.000328394
-6.83527e-20
0.000328394
1.7247e-19
0.000328394
-4.74183e-20
0.000328394
-1.0896e-20
0.000328394
-3.17686e-20
0.000328394
-1.24847e-19
0.000328394
7.8655e-20
0.000328394
8.31416e-20
0.000328394
3.7593e-20
0.000328394
9.46503e-21
0.000328394
2.50904e-20
0.000328394
1.96043e-19
0.000328394
1.25133e-19
0.000328394
5.03113e-20
0.000328394
-4.88949e-20
0.000328394
1.3689e-19
0.000328394
1.72512e-19
0.000328394
-3.75832e-20
0.000328394
-1.5734e-19
0.000328394
-2.25165e-19
0.000328394
3.32806e-20
0.000328394
4.03974e-20
0.000328394
-1.65434e-20
0.000328394
-6.63842e-20
0.000328394
-2.07561e-19
0.000328394
5.46568e-19
0.000328394
2.60295e-19
0.000328394
-1.80085e-19
0.000328394
3.6903e-19
0.000328394
3.00369e-20
0.000328394
1.16942e-19
0.000328394
-8.56683e-20
0.000328394
-3.13396e-19
0.000328394
6.22792e-19
0.000328394
3.08981e-19
0.000328394
7.85503e-20
0.000328394
-1.14685e-19
0.000328394
-4.74717e-19
0.000328394
4.1692e-19
0.000328394
1.06396e-19
0.000328394
-3.64359e-19
0.000328394
-1.1481e-19
0.000328394
-2.00071e-19
0.000328394
3.88393e-19