/*--------------------------------*- C++ -*----------------------------------*\
| =========                 |                                                 |
| \\      /  F ield         | OpenFOAM: The Open Source CFD Toolbox           |
|  \\    /   O peration     | Version:  2112                                  |
|   \\  /    A nd           | Website:  www.openfoam.com                      |
|    \\/     M anipulation  |                                                 |
\*---------------------------------------------------------------------------*/
FoamFile
{
    version     2.0;
    format      ascii;
    arch        "LSB;label=32;scalar=64";
    class       volVectorField;
    location    "4";
    object      U;
}
// * * * * * * * * * * * * * * * * * * * * * * * * * * * * * * * * * * * * * //

dimensions      [0 1 -1 0 0 0 0];

internalField   nonuniform List<vector> 
25600
(
(0.0392578 -1.89337e-15 0)
(0.0392578 -7.71352e-16 0)
(0.0392578 -2.3185e-16 0)
(0.0392578 -1.0924e-16 0)
(0.0392578 -4.84848e-17 0)
(0.0392578 -2.38119e-17 0)
(0.0392578 -2.2818e-17 0)
(0.0392578 -1.37049e-17 0)
(0.0392578 -1.31451e-17 0)
(0.0392578 -1.13747e-17 0)
(0.0392578 2.73974e-19 0)
(0.0392578 -2.01155e-17 0)
(0.0392578 -1.2579e-18 0)
(0.0392578 3.2267e-18 0)
(0.0392578 -6.94718e-18 0)
(0.0392578 1.43356e-17 0)
(0.0392578 8.24225e-19 0)
(0.0392578 -9.51322e-18 0)
(0.0392578 -7.79007e-18 0)
(0.0392578 -8.59215e-18 0)
(0.0392578 1.91587e-18 0)
(0.0392578 7.62043e-18 0)
(0.0392578 -2.67601e-18 0)
(0.0392578 -1.45556e-17 0)
(0.0392578 -2.4118e-17 0)
(0.0392578 -4.77383e-18 0)
(0.0392578 3.46042e-17 0)
(0.0392578 1.50322e-19 0)
(0.0392578 -3.19165e-17 0)
(0.0392578 -1.15474e-17 0)
(0.0392578 6.49464e-18 0)
(0.0392578 1.54202e-17 0)
(0.0392578 7.6824e-18 0)
(0.0392578 -9.60018e-18 0)
(0.0392578 -5.98648e-18 0)
(0.0392578 -2.58203e-18 0)
(0.0392578 2.1626e-18 0)
(0.0392578 -1.09251e-17 0)
(0.0392578 -3.41248e-18 0)
(0.0392578 1.33329e-17 0)
(0.0392578 2.69937e-18 0)
(0.0392578 1.84829e-17 0)
(0.0392578 -2.25915e-17 0)
(0.0392578 -2.25601e-17 0)
(0.0392578 3.61066e-17 0)
(0.0392578 -9.7866e-18 0)
(0.0392578 7.88828e-18 0)
(0.0392578 6.57649e-18 0)
(0.0392578 5.12244e-19 0)
(0.0392578 -6.47409e-18 0)
(0.0392578 -3.94136e-17 0)
(0.0392578 3.11115e-17 0)
(0.0392578 -1.1765e-18 0)
(0.0392578 -2.48435e-18 0)
(0.0392578 4.06449e-17 0)
(0.0392578 -3.4926e-17 0)
(0.0392578 -1.19954e-18 0)
(0.0392578 -1.87546e-17 0)
(0.0392578 3.81664e-18 0)
(0.0392578 5.69322e-17 0)
(0.0392578 -3.92532e-17 0)
(0.0392578 6.33498e-18 0)
(0.0392578 3.58534e-18 0)
(0.0392578 2.84792e-18 0)
(0.0392578 1.76869e-17 0)
(0.0392578 -2.04932e-17 0)
(0.0392578 -9.8258e-18 0)
(0.0392578 -1.52505e-17 0)
(0.0392578 1.7104e-17 0)
(0.0392578 5.83855e-18 0)
(0.0392578 -1.02974e-17 0)
(0.0392578 -1.24825e-18 0)
(0.0392578 -4.97397e-18 0)
(0.0392578 -2.29076e-18 0)
(0.0392578 1.72135e-17 0)
(0.0392578 -9.33747e-18 0)
(0.0392578 -2.77925e-17 0)
(0.0392578 2.13394e-17 0)
(0.0392578 3.91093e-19 0)
(0.0392578 3.80893e-17 0)
(0.0392578 -4.1738e-17 0)
(0.0392578 -5.12876e-17 0)
(0.0392578 3.77697e-17 0)
(0.0392578 1.58061e-17 0)
(0.0392578 4.64666e-17 0)
(0.0392578 -5.58973e-19 0)
(0.0392578 -7.67773e-17 0)
(0.0392578 -1.48805e-17 0)
(0.0392578 3.34091e-17 0)
(0.0392578 4.51108e-17 0)
(0.0392578 -8.33565e-18 0)
(0.0392578 -8.13618e-17 0)
(0.0392578 -4.1515e-18 0)
(0.0392578 7.73575e-17 0)
(0.0392578 3.18893e-18 0)
(0.0392578 -8.05885e-17 0)
(0.0392578 -4.25304e-18 0)
(0.0392578 1.92066e-18 0)
(0.0392578 7.80627e-17 0)
(0.0392578 3.0061e-17 0)
(0.0392578 -1.19772e-16 0)
(0.0392578 -2.92884e-18 0)
(0.0392578 -4.75088e-19 0)
(0.0392578 7.22846e-17 0)
(0.0392578 1.25852e-17 0)
(0.0392578 -3.29357e-17 0)
(0.0392578 -4.59481e-17 0)
(0.0392578 2.84928e-17 0)
(0.0392578 4.18681e-17 0)
(0.0392578 -2.05514e-17 0)
(0.0392578 2.49622e-17 0)
(0.0392578 -1.24907e-16 0)
(0.0392578 3.44682e-17 0)
(0.0392578 9.40722e-17 0)
(0.0392578 4.897e-18 0)
(0.0392578 -4.28244e-17 0)
(0.0392578 -8.99524e-17 0)
(0.0392578 6.1904e-17 0)
(0.0392578 6.55224e-17 0)
(0.0392578 1.21754e-17 0)
(0.0392578 -2.55597e-17 0)
(0.0392578 -9.35909e-17 0)
(0.0392578 -1.50799e-18 0)
(0.0392578 9.43295e-17 0)
(0.0392578 2.17577e-17 0)
(0.0392578 -4.39874e-17 0)
(0.0392578 -6.21992e-17 0)
(0.0392578 6.102e-18 0)
(0.0392578 9.58595e-17 0)
(0.0392578 1.10338e-17 0)
(0.0392578 -5.01923e-17 0)
(0.0392578 -5.30733e-17 0)
(0.0392578 4.18929e-17 0)
(0.0392578 5.08203e-17 0)
(0.0392578 -3.53638e-17 0)
(0.0392578 -3.72077e-17 0)
(0.0392578 -9.14528e-18 0)
(0.0392578 6.11796e-17 0)
(0.0392578 2.58709e-17 0)
(0.0392578 -3.38329e-17 0)
(0.0392578 -4.68767e-17 0)
(0.0392578 -1.40339e-17 0)
(0.0392578 7.31994e-17 0)
(0.0392578 1.68721e-17 0)
(0.0392578 -6.12092e-17 0)
(0.0392578 5.84434e-17 0)
(0.0392578 -1.2925e-17 0)
(0.0392578 -6.24419e-17 0)
(0.0392578 -8.46905e-18 0)
(0.0392578 3.69023e-18 0)
(0.0392578 8.09516e-17 0)
(0.0392578 -1.03382e-17 0)
(0.0392578 -7.90826e-17 0)
(0.0392578 8.36716e-18 0)
(0.0392578 4.50478e-17 0)
(0.0392578 3.84461e-17 0)
(0.0392578 -5.0012e-17 0)
(0.0392578 -5.69012e-17 0)
(0.0392578 4.00431e-17 0)
(0.0392578 2.64003e-17 0)
(0.0392578 8.282e-17 0)
(0.0392578 -8.72433e-17 0)
(0.0392578 -7.94573e-17 0)
(0.0392578 8.03375e-17 0)
(0.0392578 5.63744e-18 0)
(0.0392578 7.72775e-17 0)
(0.0392578 -6.04339e-17 0)
(0.0392578 -2.60333e-17 0)
(0.0392578 -3.39273e-18 0)
(0.0392578 -6.01988e-17 0)
(0.0392578 1.24861e-16 0)
(0.0392578 -6.87363e-17 0)
(0.0392578 -6.50445e-18 0)
(0.0392578 6.54774e-18 0)
(0.0392578 -5.39068e-17 0)
(0.0392578 1.15608e-16 0)
(0.0392578 -7.89421e-17 0)
(0.0392578 4.39214e-18 0)
(0.0392578 -1.11607e-17 0)
(0.0392578 -5.6914e-17 0)
(0.0392578 1.43448e-16 0)
(0.0392578 -8.48638e-17 0)
(0.0392578 -1.21574e-17 0)
(0.0392578 1.68397e-18 0)
(0.0392578 -6.36055e-17 0)
(0.0392578 1.46208e-16 0)
(0.0392578 -7.71797e-17 0)
(0.0392578 -6.36316e-18 0)
(0.0392578 7.66331e-17 0)
(0.0392578 -1.38348e-16 0)
(0.0392578 6.70416e-17 0)
(0.0392578 -3.16258e-18 0)
(0.0392578 -6.69075e-17 0)
(0.0392578 1.47831e-16 0)
(0.0392578 -5.5713e-17 0)
(0.0392578 -1.19671e-17 0)
(0.0392578 -8.11185e-17 0)
(0.0392578 1.18058e-17 0)
(0.0392578 2.16471e-16 0)
(0.0392578 -1.30641e-16 0)
(0.0392578 -2.08981e-17 0)
(0.0392578 -7.83185e-17 0)
(0.0392578 1.00409e-17 0)
(0.0392578 2.20545e-16 0)
(0.0392578 -1.31908e-16 0)
(0.0392578 -9.72649e-17 0)
(0.0392578 -9.76215e-18 0)
(0.0392578 9.71558e-17 0)
(0.0392578 1.56013e-16 0)
(0.0392578 -7.38577e-17 0)
(0.0392578 -1.66808e-16 0)
(0.0392578 -7.40704e-17 0)
(0.0392578 2.46839e-16 0)
(0.0392578 2.38387e-18 0)
(0.0392578 -2.41242e-16 0)
(0.0392578 2.24332e-16 0)
(0.0392578 8.52445e-17 0)
(0.0392578 -1.46843e-16 0)
(0.0392578 -9.19807e-17 0)
(0.0392578 -8.19715e-17 0)
(0.0392578 2.49637e-16 0)
(0.0392578 9.34217e-17 0)
(0.0392578 -1.50732e-16 0)
(0.0392578 -9.57957e-17 0)
(0.0392578 -8.41024e-17 0)
(0.0392578 2.39994e-16 0)
(0.0392578 1.56662e-17 0)
(0.0392578 -9.68302e-17 0)
(0.0392578 -2.20033e-17 0)
(0.0392578 -1.3434e-16 0)
(0.0392578 2.30319e-16 0)
(0.0392578 1.11767e-17 0)
(0.0392578 -1.32894e-16 0)
(0.0392578 5.1219e-17 0)
(0.0392578 -9.6704e-17 0)
(0.0392578 1.35818e-16 0)
(0.0392578 2.15481e-17 0)
(0.0392578 -5.47837e-17 0)
(0.0392578 -3.6728e-18 0)
(0.0392578 -1.4581e-16 0)
(0.0392578 2.16223e-16 0)
(0.0392578 1.18698e-17 0)
(0.0392578 -5.94374e-17 0)
(0.0392578 7.24115e-17 0)
(0.0392578 -1.73072e-16 0)
(0.0392578 -1.21805e-17 0)
(0.0392578 8.5397e-17 0)
(0.0392578 8.7071e-17 0)
(0.0392578 -2.8067e-18 0)
(0.0392578 -1.67714e-16 0)
(0.0392578 8.79233e-17 0)
(0.0392578 1.73026e-17 0)
(0.0392578 -2.23482e-18 0)
(0.0392578 5.09671e-17 0)
(0.0392578 -1.56795e-16 0)
(0.0392578 1.02948e-16 0)
(0.0392578 1.22688e-17 0)
(0.0392578 -5.51849e-19 0)
(0.0392578 6.76326e-17 0)
(0.0392578 -1.61729e-16 0)
(0.0392578 7.51019e-17 0)
(0.0392578 9.04588e-18 0)
(0.0392578 -3.68122e-18 0)
(0.0392578 5.85053e-17 0)
(0.0392578 -1.47426e-16 0)
(0.0392578 9.00556e-17 0)
(0.0392578 8.35633e-17 0)
(0.0392578 -6.06961e-17 0)
(0.0392578 -1.0406e-17 0)
(0.0392578 -9.1402e-17 0)
(0.0392578 8.31606e-17 0)
(0.0392578 7.63658e-17 0)
(0.0392578 -1.10425e-16 0)
(0.0392578 5.30645e-17 0)
(0.0392578 -2.20276e-17 0)
(0.0392578 1.66389e-17 0)
(0.0392578 5.8635e-17 0)
(0.0392578 -1.41735e-16 0)
(0.0392578 6.44753e-17 0)
(0.0392578 -1.65209e-17 0)
(0.0392578 1.00619e-17 0)
(0.0392578 6.43502e-17 0)
(0.0392578 -1.26827e-16 0)
(0.0392578 6.19429e-17 0)
(0.0392578 -2.55393e-17 0)
(0.0392578 -5.36916e-17 0)
(0.0392578 1.42711e-16 0)
(0.0392578 -5.38609e-17 0)
(0.0392578 -3.93403e-17 0)
(0.0392578 -9.08411e-17 0)
(0.0392578 4.12724e-17 0)
(0.0392578 2.21144e-16 0)
(0.0392578 -8.59073e-18 0)
(0.0392578 -2.18178e-16 0)
(0.0392578 -2.09414e-17 0)
(0.0392578 1.0253e-16 0)
(0.0392578 2.12713e-17 0)
(0.0392578 1.11884e-16 0)
(0.0392578 -2.13525e-16 0)
(0.0392578 -2.78136e-17 0)
(0.0392578 1.0073e-16 0)
(0.0392578 1.70109e-17 0)
(0.0392578 6.7753e-17 0)
(0.0392578 -1.41362e-16 0)
(0.0392578 2.36237e-17 0)
(0.0392578 7.76484e-18 0)
(0.0392578 -6.18417e-17 0)
(0.0392578 1.3621e-16 0)
(0.0392578 -8.3843e-17 0)
(0.0392578 -1.67821e-17 0)
(0.0392578 -2.56418e-18 0)
(0.0392578 -7.59189e-17 0)
(0.0392578 1.43892e-16 0)
(0.0392578 -8.00012e-17 0)
(0.0392578 -1.1e-16 0)
(0.0392578 4.19222e-17 0)
(0.0392578 -5.60206e-17 0)
(0.0392578 -3.29994e-17 0)
(0.0392578 -3.07307e-16 0)
(0.0392578 -8.60293e-16 0)
(0.115787 -2.82275e-15 0)
(0.115787 -1.40846e-15 0)
(0.115787 -6.39975e-16 0)
(0.115787 -3.55281e-16 0)
(0.115787 -1.81798e-16 0)
(0.115787 -9.93921e-17 0)
(0.115787 -8.42752e-17 0)
(0.115787 -5.5957e-17 0)
(0.115787 -4.68868e-17 0)
(0.115787 -2.94065e-17 0)
(0.115787 -1.84027e-17 0)
(0.115787 -4.14583e-17 0)
(0.115787 -6.58914e-18 0)
(0.115787 2.75288e-18 0)
(0.115787 -2.70001e-17 0)
(0.115787 2.35186e-17 0)
(0.115787 1.67748e-17 0)
(0.115787 -8.02456e-18 0)
(0.115787 -4.31353e-17 0)
(0.115787 -5.22698e-17 0)
(0.115787 -1.32392e-17 0)
(0.115787 -1.69829e-17 0)
(0.115787 -2.70473e-17 0)
(0.115787 -5.00467e-17 0)
(0.115787 -6.63377e-17 0)
(0.115787 -2.48512e-17 0)
(0.115787 3.52184e-17 0)
(0.115787 4.09178e-18 0)
(0.115787 -4.19978e-17 0)
(0.115787 -3.99438e-17 0)
(0.115787 -5.52425e-19 0)
(0.115787 6.06765e-17 0)
(0.115787 3.8906e-17 0)
(0.115787 -9.52231e-19 0)
(0.115787 -1.03726e-18 0)
(0.115787 1.07187e-17 0)
(0.115787 4.13527e-17 0)
(0.115787 -1.88601e-17 0)
(0.115787 -1.79493e-17 0)
(0.115787 6.43227e-17 0)
(0.115787 -1.62817e-18 0)
(0.115787 -2.65196e-18 0)
(0.115787 -1.29946e-17 0)
(0.115787 -2.58642e-17 0)
(0.115787 6.17947e-17 0)
(0.115787 2.59146e-17 0)
(0.115787 4.18221e-17 0)
(0.115787 3.64724e-17 0)
(0.115787 1.866e-17 0)
(0.115787 -9.96041e-18 0)
(0.115787 -5.93117e-17 0)
(0.115787 2.59872e-17 0)
(0.115787 -7.9073e-18 0)
(0.115787 -2.26965e-18 0)
(0.115787 6.62794e-17 0)
(0.115787 -2.99705e-17 0)
(0.115787 -2.83684e-18 0)
(0.115787 5.97252e-18 0)
(0.115787 8.43522e-18 0)
(0.115787 2.66885e-17 0)
(0.115787 -4.87841e-17 0)
(0.115787 6.34556e-17 0)
(0.115787 3.69109e-17 0)
(0.115787 1.88137e-17 0)
(0.115787 5.30514e-17 0)
(0.115787 -3.02022e-17 0)
(0.115787 -9.89761e-19 0)
(0.115787 6.03575e-18 0)
(0.115787 1.47259e-17 0)
(0.115787 3.14266e-17 0)
(0.115787 -4.35889e-17 0)
(0.115787 -2.95367e-17 0)
(0.115787 -4.37975e-17 0)
(0.115787 -3.55591e-17 0)
(0.115787 1.13141e-16 0)
(0.115787 -7.18449e-17 0)
(0.115787 -1.15076e-16 0)
(0.115787 4.10464e-17 0)
(0.115787 1.19107e-17 0)
(0.115787 5.8478e-17 0)
(0.115787 -3.71815e-17 0)
(0.115787 -1.35412e-16 0)
(0.115787 5.85747e-18 0)
(0.115787 7.78652e-17 0)
(0.115787 8.28249e-17 0)
(0.115787 -2.97622e-18 0)
(0.115787 -1.19962e-16 0)
(0.115787 -8.01782e-17 0)
(0.115787 7.01022e-17 0)
(0.115787 1.03135e-16 0)
(0.115787 -7.01891e-17 0)
(0.115787 -1.42876e-16 0)
(0.115787 -2.33394e-17 0)
(0.115787 8.52275e-17 0)
(0.115787 -4.58843e-18 0)
(0.115787 -1.27726e-16 0)
(0.115787 -4.02012e-17 0)
(0.115787 1.493e-18 0)
(0.115787 9.91913e-17 0)
(0.115787 4.64823e-17 0)
(0.115787 -1.46554e-16 0)
(0.115787 2.0137e-17 0)
(0.115787 -4.26272e-17 0)
(0.115787 4.26875e-17 0)
(0.115787 5.30343e-17 0)
(0.115787 -3.29918e-17 0)
(0.115787 -9.0708e-17 0)
(0.115787 1.09662e-17 0)
(0.115787 6.73519e-17 0)
(0.115787 3.8531e-18 0)
(0.115787 1.42626e-17 0)
(0.115787 -2.25166e-16 0)
(0.115787 2.3623e-17 0)
(0.115787 2.06623e-16 0)
(0.115787 1.70086e-17 0)
(0.115787 -6.869e-17 0)
(0.115787 -1.43958e-16 0)
(0.115787 -9.39027e-19 0)
(0.115787 1.20385e-16 0)
(0.115787 2.78449e-18 0)
(0.115787 -7.81573e-17 0)
(0.115787 -1.45554e-16 0)
(0.115787 3.05031e-18 0)
(0.115787 1.98518e-16 0)
(0.115787 8.75793e-17 0)
(0.115787 -5.66815e-17 0)
(0.115787 -1.40645e-16 0)
(0.115787 1.53044e-17 0)
(0.115787 1.88151e-16 0)
(0.115787 3.30298e-17 0)
(0.115787 -9.61382e-17 0)
(0.115787 -1.11595e-16 0)
(0.115787 7.21759e-17 0)
(0.115787 1.46421e-16 0)
(0.115787 1.60095e-17 0)
(0.115787 1.39989e-17 0)
(0.115787 -1.05766e-16 0)
(0.115787 -7.37641e-17 0)
(0.115787 9.93203e-17 0)
(0.115787 5.38526e-17 0)
(0.115787 2.23364e-18 0)
(0.115787 -1.07923e-16 0)
(0.115787 -3.17958e-17 0)
(0.115787 8.33537e-17 0)
(0.115787 4.14841e-17 0)
(0.115787 -3.6093e-17 0)
(0.115787 -1.42514e-16 0)
(0.115787 -1.14096e-17 0)
(0.115787 1.98355e-17 0)
(0.115787 8.64605e-17 0)
(0.115787 1.04582e-16 0)
(0.115787 -2.11559e-16 0)
(0.115787 -1.48283e-16 0)
(0.115787 9.97344e-17 0)
(0.115787 1.0005e-16 0)
(0.115787 6.18399e-17 0)
(0.115787 -8.88979e-17 0)
(0.115787 -9.93252e-17 0)
(0.115787 7.4544e-17 0)
(0.115787 8.83101e-17 0)
(0.115787 1.47967e-16 0)
(0.115787 -1.13652e-16 0)
(0.115787 -3.08957e-17 0)
(0.115787 1.21912e-16 0)
(0.115787 -1.54474e-16 0)
(0.115787 6.19322e-17 0)
(0.115787 -3.02148e-17 0)
(0.115787 -1.75913e-16 0)
(0.115787 1.60623e-16 0)
(0.115787 9.35751e-17 0)
(0.115787 -3.19672e-17 0)
(0.115787 -1.66329e-16 0)
(0.115787 -4.52972e-17 0)
(0.115787 1.68306e-17 0)
(0.115787 -6.89049e-17 0)
(0.115787 -5.01195e-17 0)
(0.115787 -3.87386e-17 0)
(0.115787 2.65256e-16 0)
(0.115787 -5.5934e-17 0)
(0.115787 -1.41285e-16 0)
(0.115787 1.23199e-16 0)
(0.115787 -1.97891e-16 0)
(0.115787 -6.56741e-17 0)
(0.115787 -3.66234e-18 0)
(0.115787 -7.24862e-17 0)
(0.115787 1.7735e-16 0)
(0.115787 -1.15345e-16 0)
(0.115787 -1.79634e-17 0)
(0.115787 1.02745e-16 0)
(0.115787 -1.70271e-16 0)
(0.115787 6.19466e-17 0)
(0.115787 -6.74547e-18 0)
(0.115787 -6.6951e-17 0)
(0.115787 2.02395e-16 0)
(0.115787 -4.66708e-17 0)
(0.115787 -2.52972e-17 0)
(0.115787 -8.83373e-17 0)
(0.115787 4.77068e-17 0)
(0.115787 2.99404e-16 0)
(0.115787 -1.63137e-16 0)
(0.115787 -4.80737e-17 0)
(0.115787 -1.00393e-16 0)
(0.115787 4.79199e-17 0)
(0.115787 3.13674e-16 0)
(0.115787 -8.47934e-17 0)
(0.115787 -2.30057e-16 0)
(0.115787 -1.1885e-16 0)
(0.115787 2.07826e-16 0)
(0.115787 2.27311e-16 0)
(0.115787 -9.54597e-17 0)
(0.115787 -2.35051e-16 0)
(0.115787 -1.14088e-16 0)
(0.115787 3.79945e-16 0)
(0.115787 3.41994e-17 0)
(0.115787 -3.31715e-16 0)
(0.115787 2.95972e-16 0)
(0.115787 1.29998e-16 0)
(0.115787 -1.61886e-16 0)
(0.115787 -1.62484e-16 0)
(0.115787 -1.37159e-16 0)
(0.115787 3.92046e-16 0)
(0.115787 1.90627e-16 0)
(0.115787 -1.86263e-16 0)
(0.115787 -1.79155e-16 0)
(0.115787 -1.63971e-16 0)
(0.115787 3.6727e-16 0)
(0.115787 5.62893e-17 0)
(0.115787 -1.52536e-16 0)
(0.115787 3.07557e-17 0)
(0.115787 -1.11038e-16 0)
(0.115787 1.03956e-16 0)
(0.115787 -4.33556e-17 0)
(0.115787 4.42527e-17 0)
(0.115787 2.6819e-17 0)
(0.115787 -3.23733e-16 0)
(0.115787 2.96791e-17 0)
(0.115787 1.19585e-16 0)
(0.115787 2.12012e-17 0)
(0.115787 6.08624e-17 0)
(0.115787 -1.49123e-16 0)
(0.115787 1.29723e-16 0)
(0.115787 6.69951e-18 0)
(0.115787 3.38069e-17 0)
(0.115787 1.16972e-16 0)
(0.115787 -3.02019e-16 0)
(0.115787 -3.5137e-17 0)
(0.115787 1.34413e-16 0)
(0.115787 1.49608e-16 0)
(0.115787 -6.94009e-18 0)
(0.115787 -2.68771e-16 0)
(0.115787 1.60567e-16 0)
(0.115787 6.15375e-17 0)
(0.115787 -2.90198e-17 0)
(0.115787 -6.7298e-18 0)
(0.115787 -2.27816e-16 0)
(0.115787 2.37669e-16 0)
(0.115787 7.5555e-17 0)
(0.115787 2.85895e-18 0)
(0.115787 8.79675e-17 0)
(0.115787 -2.44792e-16 0)
(0.115787 9.95416e-17 0)
(0.115787 1.01247e-16 0)
(0.115787 -7.95432e-17 0)
(0.115787 -3.39764e-17 0)
(0.115787 -1.27232e-16 0)
(0.115787 2.12243e-16 0)
(0.115787 1.74435e-16 0)
(0.115787 3.92867e-17 0)
(0.115787 -6.933e-17 0)
(0.115787 -1.78776e-16 0)
(0.115787 1.20652e-16 0)
(0.115787 1.01278e-16 0)
(0.115787 1.34375e-16 0)
(0.115787 -8.05036e-17 0)
(0.115787 -2.14523e-16 0)
(0.115787 6.58564e-17 0)
(0.115787 -3.24154e-17 0)
(0.115787 -1.51616e-16 0)
(0.115787 4.08758e-17 0)
(0.115787 -8.84547e-17 0)
(0.115787 3.64922e-17 0)
(0.115787 1.19176e-16 0)
(0.115787 9.28849e-18 0)
(0.115787 -8.12069e-17 0)
(0.115787 -1.96058e-16 0)
(0.115787 3.4267e-17 0)
(0.115787 1.93387e-16 0)
(0.115787 1.39008e-16 0)
(0.115787 -2.27866e-16 0)
(0.115787 -1.59485e-16 0)
(0.115787 2.32988e-16 0)
(0.115787 -1.85285e-18 0)
(0.115787 -5.9647e-17 0)
(0.115787 -9.53249e-17 0)
(0.115787 3.09486e-17 0)
(0.115787 3.33327e-16 0)
(0.115787 -8.32067e-17 0)
(0.115787 -1.00318e-16 0)
(0.115787 -1.89426e-16 0)
(0.115787 -2.45595e-17 0)
(0.115787 3.25892e-16 0)
(0.115787 -3.14687e-17 0)
(0.115787 7.66497e-17 0)
(0.115787 -1.43091e-16 0)
(0.115787 -3.93437e-16 0)
(0.115787 -5.77138e-17 0)
(0.115787 6.17447e-17 0)
(0.115787 1.45882e-16 0)
(0.115787 -1.6438e-16 0)
(0.115787 -4.43284e-17 0)
(0.115787 3.05749e-18 0)
(0.115787 -1.05533e-16 0)
(0.115787 1.70566e-16 0)
(0.115787 -1.24988e-16 0)
(0.115787 -2.16304e-16 0)
(0.115787 -2.27745e-17 0)
(0.115787 -3.34666e-16 0)
(0.115787 -3.37927e-16 0)
(0.115787 -6.83934e-16 0)
(0.115787 -1.56464e-15 0)
(0.190286 -1.53754e-15 0)
(0.190286 -1.0451e-15 0)
(0.190286 -6.6667e-16 0)
(0.190286 -3.9901e-16 0)
(0.190286 -2.41541e-16 0)
(0.190286 -1.45878e-16 0)
(0.190286 -1.18378e-16 0)
(0.190286 -6.65723e-17 0)
(0.190286 -4.7037e-17 0)
(0.190286 -2.787e-17 0)
(0.190286 -1.02513e-17 0)
(0.190286 -3.23677e-17 0)
(0.190286 1.55919e-18 0)
(0.190286 -8.11404e-18 0)
(0.190286 -4.42598e-17 0)
(0.190286 2.57736e-18 0)
(0.190286 -2.34761e-18 0)
(0.190286 -2.51664e-17 0)
(0.190286 -6.48584e-17 0)
(0.190286 -6.70132e-17 0)
(0.190286 -1.44429e-17 0)
(0.190286 -6.8016e-17 0)
(0.190286 -7.95681e-17 0)
(0.190286 -5.5983e-17 0)
(0.190286 -8.98301e-17 0)
(0.190286 -4.79863e-17 0)
(0.190286 -1.16896e-18 0)
(0.190286 2.28895e-19 0)
(0.190286 -4.2814e-17 0)
(0.190286 -5.11736e-17 0)
(0.190286 2.14325e-17 0)
(0.190286 1.28032e-16 0)
(0.190286 8.50749e-17 0)
(0.190286 -1.63488e-18 0)
(0.190286 -1.07003e-17 0)
(0.190286 2.11946e-17 0)
(0.190286 7.36663e-17 0)
(0.190286 4.9563e-17 0)
(0.190286 1.29344e-17 0)
(0.190286 5.56213e-17 0)
(0.190286 2.96778e-17 0)
(0.190286 2.36736e-17 0)
(0.190286 3.32121e-17 0)
(0.190286 -2.27165e-17 0)
(0.190286 2.02268e-17 0)
(0.190286 9.1873e-17 0)
(0.190286 8.00584e-17 0)
(0.190286 7.63487e-17 0)
(0.190286 6.2948e-17 0)
(0.190286 2.21406e-17 0)
(0.190286 -1.36632e-17 0)
(0.190286 -1.22898e-17 0)
(0.190286 -2.42617e-17 0)
(0.190286 4.17553e-18 0)
(0.190286 6.52011e-17 0)
(0.190286 -6.72193e-18 0)
(0.190286 9.51509e-20 0)
(0.190286 1.09079e-17 0)
(0.190286 7.25522e-18 0)
(0.190286 2.90506e-17 0)
(0.190286 -4.6789e-17 0)
(0.190286 1.42759e-16 0)
(0.190286 7.4033e-17 0)
(0.190286 1.2282e-17 0)
(0.190286 1.31868e-16 0)
(0.190286 -4.67258e-17 0)
(0.190286 1.25298e-17 0)
(0.190286 3.79452e-17 0)
(0.190286 3.08996e-17 0)
(0.190286 3.29955e-17 0)
(0.190286 -8.11798e-17 0)
(0.190286 -5.1939e-17 0)
(0.190286 -6.24063e-17 0)
(0.190286 1.86078e-17 0)
(0.190286 9.38822e-17 0)
(0.190286 -1.24367e-16 0)
(0.190286 -1.5345e-16 0)
(0.190286 -1.40755e-18 0)
(0.190286 -1.21395e-17 0)
(0.190286 2.84389e-17 0)
(0.190286 -6.9736e-17 0)
(0.190286 -1.16333e-16 0)
(0.190286 5.83054e-17 0)
(0.190286 6.42165e-17 0)
(0.190286 5.20714e-17 0)
(0.190286 -1.49562e-17 0)
(0.190286 -4.61803e-17 0)
(0.190286 -1.15433e-16 0)
(0.190286 -7.92047e-17 0)
(0.190286 7.96647e-17 0)
(0.190286 -8.53564e-17 0)
(0.190286 -1.35196e-16 0)
(0.190286 -8.73087e-18 0)
(0.190286 4.0236e-18 0)
(0.190286 -3.21184e-17 0)
(0.190286 -9.14634e-17 0)
(0.190286 -7.24033e-17 0)
(0.190286 -2.11213e-17 0)
(0.190286 1.4764e-17 0)
(0.190286 2.4281e-17 0)
(0.190286 -2.73804e-17 0)
(0.190286 1.38623e-18 0)
(0.190286 -3.28062e-17 0)
(0.190286 -1.10595e-17 0)
(0.190286 1.13882e-17 0)
(0.190286 -5.94643e-18 0)
(0.190286 -1.62027e-16 0)
(0.190286 -1.14457e-16 0)
(0.190286 8.46905e-17 0)
(0.190286 1.31485e-16 0)
(0.190286 -1.96292e-17 0)
(0.190286 -2.98612e-16 0)
(0.190286 1.38378e-17 0)
(0.190286 2.09806e-16 0)
(0.190286 7.49927e-17 0)
(0.190286 -5.94781e-17 0)
(0.190286 -2.48245e-16 0)
(0.190286 -1.15158e-16 0)
(0.190286 2.25348e-16 0)
(0.190286 9.39392e-17 0)
(0.190286 -1.89385e-16 0)
(0.190286 -2.59809e-16 0)
(0.190286 1.32991e-17 0)
(0.190286 3.48593e-16 0)
(0.190286 2.47447e-16 0)
(0.190286 -7.43586e-17 0)
(0.190286 -3.52206e-16 0)
(0.190286 3.81568e-17 0)
(0.190286 2.94645e-16 0)
(0.190286 8.18922e-17 0)
(0.190286 -7.2184e-17 0)
(0.190286 -1.93082e-16 0)
(0.190286 9.40182e-17 0)
(0.190286 2.95692e-16 0)
(0.190286 5.86701e-17 0)
(0.190286 -6.72106e-17 0)
(0.190286 -1.62669e-16 0)
(0.190286 -4.52937e-17 0)
(0.190286 1.91279e-16 0)
(0.190286 7.2249e-17 0)
(0.190286 -1.13433e-16 0)
(0.190286 -1.66344e-16 0)
(0.190286 4.41111e-17 0)
(0.190286 1.09988e-16 0)
(0.190286 -6.83854e-17 0)
(0.190286 -1.34134e-16 0)
(0.190286 -1.40037e-16 0)
(0.190286 4.89454e-17 0)
(0.190286 2.3212e-17 0)
(0.190286 -5.04444e-17 0)
(0.190286 1.21786e-16 0)
(0.190286 -8.96108e-17 0)
(0.190286 -1.82185e-16 0)
(0.190286 -1.68608e-17 0)
(0.190286 8.91817e-17 0)
(0.190286 1.30058e-16 0)
(0.190286 -3.41719e-17 0)
(0.190286 -1.26698e-16 0)
(0.190286 9.3094e-17 0)
(0.190286 1.89121e-16 0)
(0.190286 1.9695e-16 0)
(0.190286 -1.26422e-16 0)
(0.190286 -1.02322e-16 0)
(0.190286 1.69434e-16 0)
(0.190286 -3.03218e-17 0)
(0.190286 -7.86783e-18 0)
(0.190286 -3.62076e-17 0)
(0.190286 -5.77924e-17 0)
(0.190286 1.94883e-17 0)
(0.190286 -2.16443e-17 0)
(0.190286 -1.06552e-16 0)
(0.190286 -1.89428e-16 0)
(0.190286 -7.74147e-17 0)
(0.190286 5.07777e-17 0)
(0.190286 6.20321e-17 0)
(0.190286 -1.59852e-16 0)
(0.190286 -1.77447e-16 0)
(0.190286 9.45032e-17 0)
(0.190286 1.36715e-17 0)
(0.190286 8.24658e-17 0)
(0.190286 -3.53803e-17 0)
(0.190286 -4.14388e-16 0)
(0.190286 -1.63326e-16 0)
(0.190286 6.67635e-17 0)
(0.190286 -2.41009e-18 0)
(0.190286 1.04506e-16 0)
(0.190286 -1.63103e-16 0)
(0.190286 -1.09369e-16 0)
(0.190286 1.31791e-16 0)
(0.190286 -3.22123e-17 0)
(0.190286 -1.92482e-17 0)
(0.190286 -1.75825e-17 0)
(0.190286 -9.19162e-18 0)
(0.190286 9.49082e-17 0)
(0.190286 2.89641e-17 0)
(0.190286 -7.82548e-18 0)
(0.190286 -5.64423e-18 0)
(0.190286 6.89951e-17 0)
(0.190286 1.37735e-16 0)
(0.190286 -1.08441e-17 0)
(0.190286 -3.52193e-17 0)
(0.190286 -3.61856e-17 0)
(0.190286 7.78347e-17 0)
(0.190286 1.36799e-16 0)
(0.190286 -1.92206e-17 0)
(0.190286 -9.24084e-17 0)
(0.190286 -6.31522e-17 0)
(0.190286 5.53587e-17 0)
(0.190286 6.30661e-17 0)
(0.190286 -3.89041e-17 0)
(0.190286 -1.00292e-16 0)
(0.190286 -1.0989e-16 0)
(0.190286 3.68078e-16 0)
(0.190286 6.36854e-17 0)
(0.190286 -2.57155e-16 0)
(0.190286 2.58008e-16 0)
(0.190286 -6.70575e-18 0)
(0.190286 -1.66132e-17 0)
(0.190286 -1.08536e-16 0)
(0.190286 -2.26366e-16 0)
(0.190286 4.75388e-16 0)
(0.190286 1.99587e-16 0)
(0.190286 -8.39804e-17 0)
(0.190286 -1.38005e-16 0)
(0.190286 -2.76003e-16 0)
(0.190286 4.11061e-16 0)
(0.190286 6.95342e-17 0)
(0.190286 -2.12122e-16 0)
(0.190286 -9.43554e-17 0)
(0.190286 -1.92291e-16 0)
(0.190286 3.79664e-16 0)
(0.190286 8.95579e-17 0)
(0.190286 -1.24585e-16 0)
(0.190286 -7.79117e-17 0)
(0.190286 -4.51274e-16 0)
(0.190286 -6.80733e-17 0)
(0.190286 -9.63003e-18 0)
(0.190286 2.7689e-16 0)
(0.190286 3.06231e-16 0)
(0.190286 -2.98503e-16 0)
(0.190286 1.02513e-16 0)
(0.190286 -5.88841e-17 0)
(0.190286 1.23881e-16 0)
(0.190286 2.12528e-16 0)
(0.190286 -5.18129e-16 0)
(0.190286 -1.10082e-19 0)
(0.190286 1.66657e-16 0)
(0.190286 1.99049e-16 0)
(0.190286 -2.90738e-18 0)
(0.190286 -3.81537e-16 0)
(0.190286 4.21554e-16 0)
(0.190286 9.75748e-17 0)
(0.190286 -2.5761e-16 0)
(0.190286 -2.61452e-16 0)
(0.190286 -2.39777e-16 0)
(0.190286 6.6595e-16 0)
(0.190286 1.03322e-16 0)
(0.190286 -1.34111e-16 0)
(0.190286 7.85894e-17 0)
(0.190286 -2.84531e-16 0)
(0.190286 2.37464e-16 0)
(0.190286 5.07043e-17 0)
(0.190286 -8.00626e-17 0)
(0.190286 -5.80676e-17 0)
(0.190286 -1.69934e-16 0)
(0.190286 4.61334e-16 0)
(0.190286 2.04299e-16 0)
(0.190286 4.64681e-17 0)
(0.190286 7.96401e-17 0)
(0.190286 -2.76281e-16 0)
(0.190286 1.77e-16 0)
(0.190286 1.4631e-16 0)
(0.190286 1.12961e-16 0)
(0.190286 3.97905e-17 0)
(0.190286 -3.77094e-16 0)
(0.190286 3.79194e-17 0)
(0.190286 -9.838e-17 0)
(0.190286 -1.51768e-16 0)
(0.190286 -2.89502e-17 0)
(0.190286 -3.6261e-16 0)
(0.190286 8.49934e-17 0)
(0.190286 5.74039e-17 0)
(0.190286 2.29505e-17 0)
(0.190286 7.05977e-17 0)
(0.190286 -2.90137e-16 0)
(0.190286 1.74134e-16 0)
(0.190286 2.61865e-16 0)
(0.190286 -6.58483e-17 0)
(0.190286 -1.6176e-16 0)
(0.190286 -1.88547e-16 0)
(0.190286 2.69366e-16 0)
(0.190286 1.89139e-16 0)
(0.190286 -1.76138e-16 0)
(0.190286 1.92032e-17 0)
(0.190286 -7.07242e-18 0)
(0.190286 1.26181e-16 0)
(0.190286 2.28017e-16 0)
(0.190286 -1.89282e-16 0)
(0.190286 -2.13389e-16 0)
(0.190286 -1.65636e-16 0)
(0.190286 1.69089e-16 0)
(0.190286 3.6082e-16 0)
(0.190286 1.27553e-18 0)
(0.190286 -4.62672e-16 0)
(0.190286 -3.4525e-16 0)
(0.190286 -1.53261e-18 0)
(0.190286 -4.44903e-17 0)
(0.190286 -6.87289e-19 0)
(0.190286 -2.85966e-16 0)
(0.190286 -2.8176e-17 0)
(0.190286 5.56528e-17 0)
(0.190286 -1.07631e-16 0)
(0.190286 1.75909e-16 0)
(0.190286 -1.16344e-16 0)
(0.190286 -2.78827e-16 0)
(0.190286 -2.9483e-16 0)
(0.190286 -4.50538e-16 0)
(0.190286 -2.62347e-16 0)
(0.190286 -7.77428e-16 0)
(0.190286 -1.31549e-15 0)
(0.262715 -9.17149e-16 0)
(0.262715 -7.7876e-16 0)
(0.262715 -5.71154e-16 0)
(0.262715 -3.74968e-16 0)
(0.262715 -2.57538e-16 0)
(0.262715 -1.72426e-16 0)
(0.262715 -1.04905e-16 0)
(0.262715 -5.28101e-17 0)
(0.262715 -4.89531e-17 0)
(0.262715 -2.64182e-17 0)
(0.262715 8.16269e-19 0)
(0.262715 -2.13052e-17 0)
(0.262715 -6.97138e-18 0)
(0.262715 -1.37873e-17 0)
(0.262715 -6.51489e-17 0)
(0.262715 -3.1401e-17 0)
(0.262715 -4.22804e-17 0)
(0.262715 -6.57228e-17 0)
(0.262715 -6.99259e-17 0)
(0.262715 -7.78e-17 0)
(0.262715 -3.75354e-17 0)
(0.262715 -5.00242e-17 0)
(0.262715 -1.19456e-16 0)
(0.262715 -1.18701e-16 0)
(0.262715 -1.19457e-16 0)
(0.262715 -4.20367e-17 0)
(0.262715 3.8412e-17 0)
(0.262715 -1.68641e-17 0)
(0.262715 -6.55103e-17 0)
(0.262715 -1.02248e-17 0)
(0.262715 7.67265e-17 0)
(0.262715 1.46588e-16 0)
(0.262715 1.1506e-16 0)
(0.262715 2.29272e-17 0)
(0.262715 1.0468e-18 0)
(0.262715 1.689e-17 0)
(0.262715 1.34059e-16 0)
(0.262715 1.2928e-16 0)
(0.262715 4.29043e-17 0)
(0.262715 7.2675e-17 0)
(0.262715 6.87454e-17 0)
(0.262715 5.10075e-17 0)
(0.262715 4.58186e-17 0)
(0.262715 2.57522e-17 0)
(0.262715 7.28299e-17 0)
(0.262715 1.32065e-16 0)
(0.262715 1.44644e-16 0)
(0.262715 1.24727e-16 0)
(0.262715 1.02914e-16 0)
(0.262715 6.23749e-17 0)
(0.262715 -3.07162e-17 0)
(0.262715 2.26732e-18 0)
(0.262715 5.10627e-18 0)
(0.262715 1.31892e-17 0)
(0.262715 8.76974e-17 0)
(0.262715 -2.47358e-17 0)
(0.262715 -4.21138e-18 0)
(0.262715 3.53893e-18 0)
(0.262715 -8.74991e-18 0)
(0.262715 6.31685e-17 0)
(0.262715 -2.94896e-18 0)
(0.262715 1.10839e-16 0)
(0.262715 1.29989e-16 0)
(0.262715 1.16766e-16 0)
(0.262715 1.04872e-16 0)
(0.262715 -2.86242e-17 0)
(0.262715 9.93598e-17 0)
(0.262715 4.8664e-17 0)
(0.262715 4.73771e-17 0)
(0.262715 7.06867e-17 0)
(0.262715 -1.18413e-16 0)
(0.262715 -9.22301e-17 0)
(0.262715 -1.1901e-16 0)
(0.262715 -1.47247e-17 0)
(0.262715 1.05203e-16 0)
(0.262715 -1.44135e-16 0)
(0.262715 -1.38672e-16 0)
(0.262715 -5.64023e-17 0)
(0.262715 -5.57514e-17 0)
(0.262715 6.77793e-17 0)
(0.262715 -7.74151e-17 0)
(0.262715 -1.2688e-16 0)
(0.262715 5.16589e-17 0)
(0.262715 7.72529e-17 0)
(0.262715 1.53393e-17 0)
(0.262715 -1.13563e-16 0)
(0.262715 -8.46928e-17 0)
(0.262715 -9.54569e-17 0)
(0.262715 -1.30407e-16 0)
(0.262715 -1.99412e-17 0)
(0.262715 -8.34853e-17 0)
(0.262715 -1.21504e-16 0)
(0.262715 -3.53587e-17 0)
(0.262715 2.98138e-18 0)
(0.262715 -4.2936e-17 0)
(0.262715 -1.48476e-16 0)
(0.262715 -7.9202e-17 0)
(0.262715 -6.19107e-17 0)
(0.262715 -5.80656e-17 0)
(0.262715 1.69693e-17 0)
(0.262715 -1.54754e-17 0)
(0.262715 -4.50995e-17 0)
(0.262715 -1.25727e-16 0)
(0.262715 -5.87547e-17 0)
(0.262715 5.2263e-17 0)
(0.262715 -2.3045e-17 0)
(0.262715 -2.63654e-16 0)
(0.262715 -2.21513e-16 0)
(0.262715 1.46546e-16 0)
(0.262715 2.34158e-16 0)
(0.262715 -4.08845e-17 0)
(0.262715 -3.35928e-16 0)
(0.262715 -2.29229e-17 0)
(0.262715 2.01931e-16 0)
(0.262715 1.42519e-16 0)
(0.262715 -1.53215e-17 0)
(0.262715 -3.78391e-16 0)
(0.262715 -1.99995e-16 0)
(0.262715 2.42937e-16 0)
(0.262715 1.76281e-16 0)
(0.262715 -2.55902e-16 0)
(0.262715 -4.25818e-16 0)
(0.262715 6.06978e-17 0)
(0.262715 4.4838e-16 0)
(0.262715 2.7633e-16 0)
(0.262715 -3.3477e-17 0)
(0.262715 -3.06225e-16 0)
(0.262715 -6.50856e-18 0)
(0.262715 3.58379e-16 0)
(0.262715 1.17042e-16 0)
(0.262715 -1.05746e-16 0)
(0.262715 -7.03507e-17 0)
(0.262715 8.5841e-17 0)
(0.262715 3.02729e-16 0)
(0.262715 1.7313e-16 0)
(0.262715 -6.64415e-17 0)
(0.262715 -2.96766e-16 0)
(0.262715 -1.02222e-16 0)
(0.262715 3.15799e-16 0)
(0.262715 1.43522e-16 0)
(0.262715 -1.64433e-16 0)
(0.262715 -3.12169e-16 0)
(0.262715 5.4813e-17 0)
(0.262715 1.37368e-16 0)
(0.262715 -6.49851e-17 0)
(0.262715 -1.66221e-16 0)
(0.262715 -4.08912e-16 0)
(0.262715 -4.26923e-18 0)
(0.262715 1.17118e-16 0)
(0.262715 4.58338e-17 0)
(0.262715 4.80246e-17 0)
(0.262715 -2.49506e-16 0)
(0.262715 -7.87721e-17 0)
(0.262715 7.693e-17 0)
(0.262715 1.49501e-16 0)
(0.262715 1.32422e-16 0)
(0.262715 -7.87403e-17 0)
(0.262715 -7.42049e-17 0)
(0.262715 1.78825e-16 0)
(0.262715 2.5062e-16 0)
(0.262715 2.02111e-16 0)
(0.262715 -1.59584e-16 0)
(0.262715 -1.77482e-17 0)
(0.262715 2.36335e-16 0)
(0.262715 -9.57817e-17 0)
(0.262715 -1.4671e-17 0)
(0.262715 -4.37477e-17 0)
(0.262715 -3.79313e-17 0)
(0.262715 6.28245e-19 0)
(0.262715 -4.5967e-17 0)
(0.262715 -1.52878e-16 0)
(0.262715 -2.87261e-16 0)