/*--------------------------------*- C++ -*----------------------------------*\
| =========                 |                                                 |
| \\      /  F ield         | OpenFOAM: The Open Source CFD Toolbox           |
|  \\    /   O peration     | Version:  2112                                  |
|   \\  /    A nd           | Website:  www.openfoam.com                      |
|    \\/     M anipulation  |                                                 |
\*---------------------------------------------------------------------------*/
FoamFile
{
    version     2.0;
    format      ascii;
    arch        "LSB;label=32;scalar=64";
    class       volScalarField;
    location    "0.6";
    object      p;
}
// * * * * * * * * * * * * * * * * * * * * * * * * * * * * * * * * * * * * * //

dimensions      [0 2 -2 0 0 0 0];

internalField   nonuniform List<scalar> 
16641
(
1.10529e-09
-1.82979e-06
-6.73241e-06
-1.36233e-05
-2.15702e-05
-2.95447e-05
-3.71308e-05
-4.39089e-05
-4.95894e-05
-5.39847e-05
-5.69826e-05
-5.85255e-05
-5.85931e-05
-5.71897e-05
-5.43352e-05
-5.006e-05
-4.44005e-05
-3.73961e-05
-2.90867e-05
-1.95096e-05
-8.69884e-06
3.31547e-06
1.65072e-05
3.0854e-05
4.63379e-05
6.29446e-05
8.06644e-05
9.94913e-05
0.000119421
0.000140453
0.000162587
0.000185826
0.000210174
0.000235639
0.000262223
0.000289933
0.000318775
0.000348753
0.000379871
0.000412133
0.000445539
0.000480087
0.000515776
0.000552599
0.000590547
0.000629608
0.000669768
0.000711006
0.000753298
0.000796618
0.000840933
0.000886206
0.000932394
0.000979449
0.00102732
0.00107594
0.00112526
0.00117519
0.00122567
0.00127661
0.00132793
0.00137953
0.00143131
0.00148316
0.00153499
0.00158668
0.0016381
0.00168915
0.00173969
0.00178961
0.00183877
0.00188704
0.00193431
0.00198044
0.0020253
0.00206878
0.00211076
0.00215112
0.00218976
0.00222656
0.00226144
0.00229431
0.00232509
0.00235371
0.00238011
0.00240425
0.00242608
0.00244558
0.00246273
0.00247754
0.00249001
0.00250016
0.00250802
0.00251364
0.00251707
0.00251838
0.00251764
0.00251493
0.00251035
0.002504
0.00249599
0.00248643
0.00247544
0.00246315
0.0024497
0.00243521
0.00241984
0.00240371
0.00238699
0.00236981
0.00235233
0.00233469
0.00231706
0.00229958
0.00228241
0.00226571
0.00224964
0.00223436
0.00222003
0.00220682
0.00219491
0.00218446
0.00217567
0.00216868
0.00216366
0.00216068
0.00215969
0.00216042
0.00216232
1.58375e-06
-2.45196e-07
-4.22794e-06
-9.66094e-06
-1.58357e-05
-2.21406e-05
-2.81377e-05
-3.34809e-05
-3.79136e-05
-4.12529e-05
-4.33748e-05
-4.42032e-05
-4.36981e-05
-4.1845e-05
-3.8646e-05
-3.41143e-05
-2.82711e-05
-2.11433e-05
-1.27598e-05
-3.14809e-06
7.66585e-06
1.96581e-05
3.28075e-05
4.70958e-05
6.25076e-05
7.90307e-05
9.66571e-05
0.000115382
0.000135201
0.000156112
0.000178117
0.000201217
0.000225417
0.000250719
0.00027713
0.000304652
0.00033329
0.000363047
0.000393927
0.00042593
0.000459057
0.000493304
0.000528667
0.000565139
0.000602711
0.000641369
0.000681096
0.000721872
0.000763672
0.00080647
0.00085023
0.000894916
0.000940486
0.00098689
0.00103408
0.00108199
0.00113056
0.00117971
0.00122939
0.00127949
0.00132995
0.00138066
0.00143153
0.00148247
0.00153335
0.00158408
0.00163453
0.0016846
0.00173416
0.00178309
0.00183126
0.00187857
0.00192487
0.00197005
0.00201399
0.00205657
0.00209767
0.00213719
0.00217502
0.00221106
0.00224522
0.00227741
0.00230757
0.00233562
0.00236152
0.0023852
0.00240664
0.00242581
0.00244271
0.00245732
0.00246965
0.00247974
0.00248761
0.0024933
0.00249686
0.00249837
0.0024979
0.00249552
0.00249133
0.00248543
0.00247792
0.00246892
0.00245855
0.00244694
0.0024342
0.00242049
0.00240593
0.00239066
0.00237483
0.00235859
0.00234208
0.00232546
0.00230886
0.00229244
0.00227635
0.00226074
0.00224576
0.00223156
0.00221829
0.0022061
0.00219514
0.00218555
0.00217747
0.00217101
0.00216628
0.00216329
0.00216199
0.00216232
0.00216423
6.17608e-06
3.44394e-06
-5.18487e-07
-5.39612e-06
-1.07552e-05
-1.61455e-05
-2.12002e-05
-2.56332e-05
-2.92272e-05
-3.182e-05
-3.32939e-05
-3.35705e-05
-3.2604e-05
-3.03721e-05
-2.68685e-05
-2.20975e-05
-1.60718e-05
-8.80997e-06
-3.33485e-07
9.33647e-06
2.01795e-05
3.21763e-05
4.53096e-05
5.95643e-05
7.49277e-05
9.13899e-05
0.000108944
0.000127586
0.000147312
0.000168122
0.000190015
0.000212994
0.000237063
0.000262225
0.000288483
0.000315842
0.000344303
0.000373871
0.000404548
0.000436333
0.000469225
0.000503221
0.000538317
0.000574503
0.000611769
0.000650102
0.000689484
0.000729895
0.000771309
0.000813698
0.00085703
0.000901265
0.000946362
0.000992272
0.00103894
0.00108632
0.00113433
0.00118291
0.00123199
0.00128149
0.00133131
0.00138138
0.00143159
0.00148186
0.00153206
0.0015821
0.00163186
0.00168123
0.00173009
0.00177832
0.0018258
0.00187241
0.00191803
0.00196254
0.00200582
0.00204776
0.00208824
0.00212716
0.00216442
0.00219991
0.00223355
0.00226526
0.00229497
0.0023226
0.00234811
0.00237146
0.0023926
0.00241151
0.00242818
0.00244262
0.00245483
0.00246483
0.00247265
0.00247835
0.00248196
0.00248356
0.00248322
0.00248102
0.00247705
0.00247141
0.00246421
0.00245556
0.00244558
0.00243438
0.00242211
0.0024089
0.00239487
0.00238018
0.00236496
0.00234935
0.00233351
0.00231758
0.00230169
0.00228601
0.00227067
0.00225582
0.0022416
0.00222815
0.0022156
0.00220411
0.00219379
0.00218477
0.00217716
0.00217107
0.00216655
0.00216364
0.0021623
0.00216265
0.00216497
1.28553e-05
8.64046e-06
4.09914e-06
-7.94382e-07
-5.88149e-06
-1.08219e-05
-1.5326e-05
-1.91679e-05
-2.21711e-05
-2.42018e-05
-2.51606e-05
-2.49783e-05
-2.36117e-05
-2.10374e-05
-1.7246e-05
-1.22386e-05
-6.02417e-06
1.38372e-06
9.96906e-06
1.97155e-05
3.06066e-05
4.26262e-05
5.57601e-05
6.99964e-05
8.53249e-05
0.000101738
0.000119229
0.000137796
0.000157437
0.00017815
0.000199937
0.0002228
0.000246742
0.000271768
0.000297879
0.00032508
0.000353373
0.000382761
0.000413245
0.000444826
0.000477501
0.000511266
0.000546117
0.000582044
0.000619037
0.000657081
0.000696159
0.000736251
0.000777331
0.00081937
0.000862336
0.000906191
0.000950892
0.000996392
0.00104264
0.00108957
0.00113713
0.00118525
0.00123385
0.00128286
0.00133219
0.00138175
0.00143145
0.00148119
0.00153086
0.00158037
0.0016296
0.00167843
0.00172676
0.00177446
0.00182141
0.0018675
0.0019126
0.00195661
0.00199939
0.00204084
0.00208085
0.00211932
0.00215613
0.0021912
0.00222444
0.00225577
0.00228512
0.00231242
0.00233763
0.00236068
0.00238157
0.00240025
0.00241673
0.00243099
0.00244306
0.00245294
0.00246069
0.00246633
0.00246992
0.00247154
0.00247124
0.00246911
0.00246525
0.00245975
0.00245272
0.00244427
0.00243453
0.0024236
0.00241163
0.00239875
0.00238509
0.00237079
0.00235599
0.00234084
0.00232547
0.00231004
0.00229468
0.00227954
0.00226475
0.00225046
0.0022368
0.0022239
0.00221189
0.0022009
0.00219105
0.00218244
0.00217518
0.00216935
0.00216501
0.0021622
0.0021609
0.00216137
0.00216403
2.07684e-05
1.4643e-05
9.20251e-06
3.98594e-06
-1.12245e-06
-5.87029e-06
-1.00421e-05
-1.34734e-05
-1.60302e-05
-1.7608e-05
-1.81303e-05
-1.75435e-05
-1.5812e-05
-1.29152e-05
-8.8447e-06
-3.60146e-06
2.80732e-06
1.03707e-05
1.90762e-05
2.89111e-05
3.9862e-05
5.19154e-05
6.50599e-05
7.92862e-05
9.45864e-05
0.000110955
0.000128387
0.000146881
0.000166436
0.000187052
0.000208731
0.000231474
0.000255287
0.000280173
0.000306135
0.000333175
0.000361297
0.000390502
0.000420793
0.00045217
0.000484629
0.000518167
0.000552779
0.000588454
0.000625184
0.000662952
0.000701743
0.000741535
0.000782304
0.00082402
0.000866651
0.00091016
0.000954504
0.000999636
0.0010455
0.00109205
0.00113922
0.00118693
0.00123512
0.00128371
0.00133262
0.00138175
0.00143102
0.00148032
0.00152956
0.00157863
0.00162742
0.00167581
0.0017237
0.00177097
0.00181749
0.00186316
0.00190784
0.00195144
0.00199382
0.00203488
0.00207451
0.0021126
0.00214905
0.00218378
0.00221669
0.0022477
0.00227674
0.00230375
0.00232868
0.00235149
0.00237214
0.0023906
0.00240688
0.00242097
0.00243288
0.00244263
0.00245026
0.0024558
0.00245933
0.00246089
0.00246057
0.00245845
0.00245461
0.00244917
0.00244222
0.00243387
0.00242426
0.0024135
0.00240172
0.00238906
0.00237565
0.00236163
0.00234715
0.00233233
0.00231733
0.00230228
0.00228733
0.00227261
0.00225826
0.00224441
0.0022312
0.00221874
0.00220716
0.00219657
0.00218709
0.0021788
0.00217181
0.00216618
0.00216198
0.00215924
0.00215796
0.00215846
0.00216121
2.8827e-05
2.08076e-05
1.43207e-05
8.57874e-06
3.2349e-06
-1.52342e-06
-5.54284e-06
-8.71766e-06
-1.09566e-05
-1.21865e-05
-1.2354e-05
-1.14228e-05
-9.36854e-06
-6.1777e-06
-1.84615e-06
3.62324e-06
1.02233e-05
1.7944e-05
2.67747e-05
3.67046e-05
4.77222e-05
5.98166e-05
7.29786e-05
8.72012e-05
0.000102479
0.000118807
0.000136183
0.000154606
0.000174077
0.000194595
0.000216165
0.000238789
0.000262471
0.000287215
0.000313025
0.000339904
0.000367854
0.000396879
0.000426978
0.000458154
0.000490402
0.00052372
0.000558101
0.000593537
0.000630017
0.000667527
0.00070605
0.000745566
0.000786051
0.000827474
0.000869806
0.000913007
0.000957037
0.00100185
0.00104739
0.00109361
0.00114044
0.00118782
0.00123567
0.00128391
0.00133247
0.00138126
0.00143018
0.00147914
0.00152804
0.00157676
0.00162521
0.00167327
0.00172083
0.00176776
0.00181396
0.00185931
0.00190368
0.00194696
0.00198904
0.0020298
0.00206914
0.00210695
0.00214312
0.00217758
0.00221022
0.00224098
0.00226977
0.00229655
0.00232125
0.00234383
0.00236427
0.00238253
0.00239862
0.00241252
0.00242426
0.00243386
0.00244134
0.00244676
0.00245016
0.00245162
0.00245122
0.00244902
0.00244514
0.00243966
0.0024327
0.00242437
0.00241479
0.00240409
0.0023924
0.00237986
0.00236659
0.00235274
0.00233845
0.00232385
0.0023091
0.00229432
0.00227966
0.00226524
0.00225121
0.00223769
0.00222481
0.00221269
0.00220143
0.00219114
0.00218194
0.00217389
0.00216709
0.0021616
0.00215748
0.00215477
0.00215347
0.00215389
0.00215649
3.65539e-05
2.66339e-05
1.90261e-05
1.26369e-05
6.91131e-06
1.9902e-06
-2.02038e-06
-5.06624e-06
-7.09788e-06
-8.07352e-06
-7.96322e-06
-6.74762e-06
-4.41581e-06
-9.64172e-07
3.60482e-06
9.28468e-06
1.60667e-05
2.39406e-05
3.2896e-05
4.29225e-05
5.401e-05
6.61491e-05
7.93327e-05
9.35559e-05
0.000108814
0.000125105
0.000142428
0.000160782
0.000180169
0.000200591
0.000222052
0.000244556
0.000268107
0.000292711
0.00031837
0.000345088
0.000372868
0.000401713
0.000431626
0.000462606
0.000494651
0.000527757
0.000561919
0.000597129
0.000633376
0.000670647
0.000708926
0.000748192
0.000788422
0.000829587
0.000871655
0.000914591
0.000958354
0.0010029
0.00104817
0.00109412
0.00114068
0.00118778
0.00123536
0.00128334
0.00133164
0.00138017
0.00142884
0.00147754
0.00152619
0.00157467
0.00162288
0.0016707
0.00171802
0.00176473
0.00181071
0.00185584
0.0019
0.00194307
0.00198495
0.0020255
0.00206464
0.00210225
0.00213823
0.00217249
0.00220495
0.00223551
0.00226412
0.0022907
0.00231522
0.00233761
0.00235786
0.00237594
0.00239184
0.00240556
0.00241712
0.00242654
0.00243385
0.00243909
0.00244234
0.00244364
0.00244309
0.00244076
0.00243675
0.00243116
0.00242411
0.0024157
0.00240607
0.00239533
0.00238363
0.00237109
0.00235786
0.00234407
0.00232986
0.00231538
0.00230076
0.00228614
0.00227165
0.00225743
0.00224361
0.00223031
0.00221766
0.00220576
0.00219472
0.00218465
0.00217563
0.00216775
0.00216107
0.00215566
0.00215157
0.00214883
0.00214745
0.0021477
0.00215001
4.34382e-05
3.16835e-05
2.29416e-05
1.58434e-05
9.6493e-06
4.46491e-06
3.59707e-07
-2.65526e-06
-4.56821e-06
-5.36706e-06
-5.04451e-06
-3.59883e-06
-1.03326e-06
2.64495e-06
7.42559e-06
1.32973e-05
2.02483e-05
2.82671e-05
3.73422e-05
4.74629e-05
5.86196e-05
7.08042e-05
8.40111e-05
9.82367e-05
0.000113478
0.000129734
0.000147004
0.00016529
0.000184594
0.000204921
0.000226274
0.000248658
0.00027208
0.000296543
0.000322052
0.000348611
0.000376224
0.000404894
0.000434625
0.000465415
0.000497265
0.00053017
0.000564125
0.000599124
0.000635156
0.000672209
0.000710266
0.00074931
0.000789315
0.000830255
0.000872099
0.000914811
0.000958352
0.00100267
0.00104773
0.00109347
0.00113982
0.00118672
0.00123411
0.00128189
0.00133001
0.00137836
0.00142685
0.00147539
0.00152388
0.00157221
0.00162027
0.00166796
0.00171515
0.00176174
0.00180759
0.0018526
0.00189665
0.00193961
0.00198137
0.00202182
0.00206084
0.00209834
0.00213421
0.00216835
0.00220068
0.00223111
0.00225958
0.00228603
0.00231039
0.00233263
0.00235272
0.00237063
0.00238635
0.00239989
0.00241126
0.00242048
0.00242759
0.00243263
0.00243567
0.00243678
0.00243602
0.00243349
0.00242929
0.00242352
0.00241629
0.00240773
0.00239795
0.00238709
0.00237528
0.00236266
0.00234936
0.00233553
0.00232131
0.00230684
0.00229225
0.00227768
0.00226327
0.00224914
0.00223543
0.00222225
0.00220972
0.00219796
0.00218706
0.00217711
0.0021682
0.00216041
0.00215379
0.00214841
0.0021443
0.00214148
0.00213998
0.00214
0.00214191
4.90736e-05
3.55885e-05
2.57362e-05
1.79058e-05
1.11977e-05
5.68896e-06
1.41883e-06
-1.6379e-06
-3.50137e-06
-4.18591e-06
-3.70611e-06
-2.07813e-06
6.80558e-07
4.55183e-06
9.51751e-06
1.55606e-05
2.26655e-05
3.08178e-05
4.00041e-05
5.02132e-05
6.14357e-05
7.3664e-05
8.68935e-05
0.000101122
0.000116346
0.000132567
0.000149785
0.000168004
0.000187227
0.000207459
0.000228705
0.000250971
0.000274263
0.000298587
0.000323948
0.000350351
0.000377801
0.000406302
0.000435856
0.000466465
0.000498129
0.000530844
0.000564607
0.00059941
0.000635246
0.000672102
0.000709964
0.000748812
0.000788624
0.000829374
0.000871032
0.000913563
0.000956927
0.00100108
0.00104597
0.00109155
0.00113776
0.00118453
0.00123178
0.00127946
0.00132746
0.00137571
0.00142412
0.00147258
0.001521
0.00156927
0.00161729
0.00166493
0.00171209
0.00175864
0.00180447
0.00184946
0.00189348
0.00193643
0.00197817
0.00201859
0.00205759
0.00209505
0.00213088
0.00216497
0.00219724
0.00222761
0.00225599
0.00228234
0.0023066
0.00232871
0.00234866
0.00236641
0.00238197
0.00239532
0.00240649
0.0024155
0.00242239
0.0024272
0.00243
0.00243085
0.00242984
0.00242706
0.0024226
0.00241658
0.00240911
0.00240031
0.00239031
0.00237924
0.00236724
0.00235444
0.00234099
0.00232703
0.0023127
0.00229814
0.00228348
0.00226887
0.00225444
0.00224031
0.00222662
0.00221347
0.00220099
0.00218928
0.00217843
0.00216854
0.00215968
0.00215192
0.00214531
0.0021399
0.00213572
0.0021328
0.00213114
0.0021309
0.00213237
5.31306e-05
3.80346e-05
2.7119e-05
1.85596e-05
1.13184e-05
5.45095e-06
9.70396e-07
-2.17936e-06
-4.04529e-06
-4.66514e-06
-4.07406e-06
-2.30537e-06
6.09775e-07
4.64274e-06
9.76742e-06
1.59607e-05
2.32025e-05
3.14747e-05
4.07617e-05
5.10513e-05
6.23339e-05
7.46021e-05
8.78518e-05
0.000102081
0.000117288
0.000133473
0.00015064
0.000168792
0.000187934
0.000208072
0.000229212
0.000251361
0.000274526
0.000298714
0.000323931
0.000350182
0.000377473
0.00040581
0.000435196
0.000465633
0.000497122
0.00052966
0.000563246
0.000597872
0.000633532
0.000670215
0.000707906
0.000746589
0.00078624
0.000826836
0.000868347
0.00091074
0.000953975
0.00099801
0.0010428
0.00108828
0.0011344
0.0011811
0.0012283
0.00127592
0.0013239
0.00137213
0.00142053
0.001469
0.00151744
0.00156575
0.0016138
0.00166149
0.00170871
0.00175533
0.00180123
0.00184628
0.00189038
0.00193339
0.0019752
0.00201569
0.00205474
0.00209225
0.00212811
0.00216222
0.00219449
0.00222484
0.0022532
0.0022795
0.00230368
0.0023257
0.00234553
0.00236314
0.00237854
0.00239171
0.00240267
0.00241145
0.00241809
0.00242264
0.00242516
0.00242572
0.00242441
0.00242132
0.00241655
0.00241021
0.00240243
0.00239332
0.00238302
0.00237167
0.00235939
0.00234634
0.00233265
0.00231847
0.00230394
0.00228921
0.0022744
0.00225966
0.00224512
0.00223091
0.00221715
0.00220395
0.00219144
0.00217971
0.00216885
0.00215895
0.00215007
0.00214229
0.00213564
0.00213016
0.0021259
0.00212284
0.002121
0.0021205
0.00212154
5.53333e-05
3.8749e-05
2.68312e-05
1.75644e-05
9.7894e-06
3.547e-06
-1.17108e-06
-4.44763e-06
-6.35339e-06
-6.94716e-06
-6.28264e-06
-4.40877e-06
-1.36938e-06
2.79684e-06
8.05594e-06
1.43785e-05
2.17393e-05
3.01165e-05
3.94923e-05
4.98531e-05
6.11887e-05
7.34915e-05
8.67572e-05
0.000100984
0.000116172
0.000132321
0.000149435
0.00016752
0.000186583
0.000206628
0.000227664
0.000249698
0.000272739
0.000296794
0.00032187
0.000347975
0.000375115
0.000403295
0.000432522
0.000462798
0.000494125
0.000526502
0.000559927
0.000594396
0.000629902
0.000666436
0.000703985
0.000742532
0.000782057
0.000822536
0.000863941
0.00090624
0.000949394
0.000993362
0.0010381
0.00108354
0.00112964
0.00117633
0.00122354
0.0012712
0.00131922
0.00136751
0.00141599
0.00146455
0.0015131
0.00156152
0.00160971
0.00165754
0.00170491
0.00175168
0.00179774
0.00184296
0.00188722
0.00193039
0.00197235
0.00201298
0.00205217
0.0020898
0.00212576
0.00215996
0.0021923
0.00222269
0.00225106
0.00227735
0.00230149
0.00232345
0.00234318
0.00236067
0.00237591
0.00238889
0.00239964
0.00240818
0.00241455
0.00241881
0.00242101
0.00242124
0.00241958
0.00241613
0.002411
0.00240429
0.00239613
0.00238665
0.00237598
0.00236426
0.00235164
0.00233825
0.00232425
0.00230977
0.00229496
0.00227997
0.00226493
0.00224998
0.00223525
0.00222087
0.00220697
0.00219366
0.00218105
0.00216923
0.0021583
0.00214833
0.00213939
0.00213153
0.00212481
0.00211924
0.00211486
0.00211166
0.00210964
0.00210889
0.00210953
5.54504e-05
3.74947e-05
2.46409e-05
1.46994e-05
6.40344e-06
-2.1654e-07
-5.18541e-06
-8.60957e-06
-1.05814e-05
-1.11784e-05
-1.04707e-05
-8.52123e-06
-5.3853e-06
-1.11105e-06
4.25976e-06
1.06913e-05
1.81532e-05
2.66202e-05
3.60722e-05
4.64941e-05
5.78746e-05
7.02055e-05
8.34824e-05
9.77034e-05
0.000112869
0.00012898
0.000146041
0.00016406
0.000183043
0.000202998
0.000223932
0.000245854
0.000268774
0.000292701
0.000317642
0.000343607
0.000370603
0.000398637
0.000427716
0.000457843
0.000489022
0.000521254
0.000554537
0.00058887
0.000624246
0.000660658
0.000698093
0.000736538
0.000775972
0.000816373
0.000857714
0.000899963
0.000943085
0.000987038
0.00103177
0.00107724
0.00112339
0.00117014
0.00121743
0.00126519
0.00131332
0.00136176
0.0014104
0.00145914
0.00150787
0.0015565
0.00160491
0.00165298
0.00170058
0.0017476
0.00179391
0.00183939
0.00188389
0.00192731
0.00196951
0.00201036
0.00204976
0.00208758
0.00212372
0.00215807
0.00219053
0.00222102
0.00224946
0.00227577
0.00229991
0.00232183
0.00234149
0.00235886
0.00237395
0.00238674
0.00239727
0.00240555
0.00241163
0.00241557
0.00241743
0.00241729
0.00241524
0.00241138
0.00240582
0.00239867
0.00239008
0.00238016
0.00236906
0.00235691
0.00234387
0.00233008
0.00231568
0.00230083
0.00228567
0.00227034
0.00225499
0.00223975
0.00222477
0.00221016
0.00219605
0.00218256
0.00216978
0.00215782
0.00214676
0.00213667
0.00212762
0.00211966
0.00211283
0.00210715
0.00210264
0.0020993
0.00209711
0.00209613
0.00209645
5.32841e-05
3.40644e-05
2.03401e-05
9.76255e-06
9.67424e-07
-6.02229e-06
-1.12453e-05
-1.48289e-05
-1.68844e-05
-1.75063e-05
-1.67791e-05
-1.47779e-05
-1.15688e-05
-7.20877e-06
-1.74713e-06
4.7741e-06
1.23201e-05
2.08622e-05
3.03779e-05
4.08504e-05
5.2267e-05
6.4619e-05
7.79012e-05
9.21122e-05
0.000107252
0.000123324
0.000140332
0.000158285
0.00017719
0.000197055
0.000217889
0.000239703
0.000262507
0.000286311
0.000311125
0.000336957
0.000363819
0.000391717
0.00042066
0.000450653
0.000481701
0.000513805
0.000546968
0.000581187
0.000616458
0.000652776
0.000690129
0.000728504
0.000767884
0.000808246
0.000849566
0.000891814
0.000934953
0.000978944
0.00102374
0.00106929
0.00111554
0.00116242
0.00120986
0.00125779
0.00130613
0.00135478
0.00140366
0.00145266
0.00150168
0.0015506
0.00159931
0.0016477
0.00169564
0.00174299
0.00178964
0.00183546
0.0018803
0.00192405
0.00196656
0.00200772
0.00204741
0.0020855
0.00212187
0.00215643
0.00218907
0.00221971
0.00224826
0.00227465
0.00229882
0.00232072
0.00234032
0.00235759
0.00237253
0.00238514
0.00239543
0.00240344
0.00240921
0.0024128
0.00241428
0.00241373
0.00241124
0.00240693
0.00240089
0.00239326
0.00238417
0.00237375
0.00236215
0.00234951
0.00233598
0.00232171
0.00230685
0.00229155
0.00227597
0.00226024
0.00224451
0.00222892
0.00221361
0.0021987
0.00218433
0.00217059
0.00215759
0.00214544
0.0021342
0.00212396
0.00211476
0.00210667
0.0020997
0.00209389
0.00208926
0.00208578
0.00208344
0.00208228
0.00208234
4.8659e-05
2.82743e-05
1.37424e-05
2.56955e-06
-6.69744e-06
-1.40424e-05
-1.95164e-05
-2.32645e-05
-2.5415e-05
-2.6077e-05
-2.53479e-05
-2.33142e-05
-2.00514e-05
-1.56251e-05
-1.00915e-05
-3.49817e-06
4.11599e-06
1.27192e-05
2.22864e-05
3.2799e-05
4.4243e-05
5.66085e-05
6.98903e-05
8.40867e-05
9.91984e-05
0.000115229
0.000132183
0.00015007
0.000168898
0.000188676
0.000209414
0.000231124
0.000253817
0.000277505
0.000302199
0.000327909
0.000354646
0.000382421
0.000411242
0.000441116
0.00047205
0.000504048
0.000537111
0.000571241
0.000606435
0.000642687
0.000679991
0.000718332
0.000757695
0.000798061
0.000839405
0.000881698
0.000924906
0.000968989
0.0010139
0.0010596
0.00110601
0.00115309
0.00120075
0.00124893
0.00129754
0.00134649
0.00139569
0.00144503
0.00149441
0.00154372
0.00159283
0.00164163
0.00168998
0.00173776
0.00178484
0.00183108
0.00187634
0.0019205
0.00196342
0.00200497
0.00204501
0.00208343
0.00212012
0.00215495
0.00218783
0.00221866
0.00224737
0.00227386
0.00229809
0.00232001
0.00233957
0.00235675
0.00237155
0.00238397
0.00239402
0.00240174
0.00240718
0.00241039
0.00241146
0.00241046
0.00240749
0.00240267
0.00239611
0.00238794
0.0023783
0.00236732
0.00235515
0.00234195
0.00232787
0.00231305
0.00229766
0.00228185
0.00226577
0.00224958
0.00223341
0.0022174
0.00220171
0.00218644
0.00217174
0.00215771
0.00214444
0.00213205
0.00212059
0.00211015
0.00210078
0.00209252
0.00208542
0.00207948
0.00207471
0.00207112
0.00206866
0.00206736
0.00206725
4.14167e-05
1.99593e-05
4.67988e-06
-7.04712e-06
-1.67568e-05
-2.44393e-05
-3.01564e-05
-3.40692e-05
-3.63207e-05
-3.7033e-05
-3.63151e-05
-3.42638e-05
-3.09638e-05
-2.64881e-05
-2.08993e-05
-1.42495e-05
-6.58163e-06
2.06957e-06
1.16767e-05
2.22192e-05
3.36817e-05
4.60535e-05
5.93289e-05
7.35064e-05
8.85869e-05
0.000104574
0.000121474
0.000139295
0.000158048
0.000177742
0.000198388
0.000219998
0.000242587
0.000266167
0.000290749
0.000316347
0.000342972
0.000370637
0.000399351
0.000429124
0.000459964
0.000491876
0.000524864
0.00055893
0.000594075
0.000630293
0.00066758
0.000705924
0.000745311
0.000785722
0.000827135
0.000869522
0.00091285
0.000957081
0.00100217
0.00104807
0.00109472
0.00114206
0.00119002
0.00123852
0.00128748
0.0013368
0.0013864
0.00143617
0.001486
0.00153577
0.00158537
0.00163466
0.00168352
0.00173182
0.00177941
0.00182616
0.00187193
0.00191659
0.00195999
0.00200199
0.00204247
0.0020813
0.00211836
0.00215353
0.0021867
0.00221778
0.00224668
0.00227332
0.00229764
0.00231959
0.00233913
0.00235624
0.0023709
0.00238312
0.00239292
0.00240034
0.00240542
0.00240823
0.00240885
0.00240736
0.00240387
0.0023985
0.00239136
0.0023826
0.00237234
0.00236075
0.00234796
0.00233414
0.00231943
0.00230401
0.00228803
0.00227164
0.002255
0.00223827
0.0022216
0.00220512
0.00218899
0.00217332
0.00215824
0.00214386
0.00213028
0.0021176
0.00210589
0.00209522
0.00208565
0.00207722
0.00206995
0.00206388
0.002059
0.00205531
0.00205277
0.00205139
0.00205119
3.14135e-05
8.96928e-06
-7.00026e-06
-1.92417e-05
-2.93648e-05
-3.73654e-05
-4.3315e-05
-4.73888e-05
-4.97432e-05
-5.05119e-05
-4.98148e-05
-4.77582e-05
-4.44347e-05
-3.99241e-05
-3.42944e-05
-2.7602e-05
-1.98933e-05
-1.12061e-05
-1.56999e-06
8.9926e-06
2.04651e-05
3.28361e-05
4.60996e-05
6.0254e-05
7.53004e-05
9.12426e-05
0.000108088
0.000125845
0.000144524
0.000164137
0.000184695
0.000206212
0.000228703
0.000252183
0.000276664
0.000302162
0.000328688
0.000356257
0.000384881
0.000414571
0.000445337
0.000477185
0.000510123
0.000544153
0.000579277
0.000615494
0.000652799
0.000691183
0.000730633
0.000771133
0.000812662
0.000855192
0.000898694
0.000943129
0.000988454
0.00103462
0.00108157
0.00112924
0.00117756
0.00122646
0.00127584
0.00132562
0.00137571
0.00142599
0.00147635
0.00152667
0.00157684
0.00162672
0.00167617
0.00172507
0.00177326
0.00182061
0.00186698
0.00191221
0.00195617
0.00199871
0.0020397
0.00207901
0.0021165
0.00215206
0.00218558
0.00221696
0.0022461
0.00227292
0.00229737
0.00231938
0.00233891
0.00235595
0.00237047
0.00238249
0.00239203
0.00239913
0.00240383
0.00240621
0.00240634
0.00240433
0.00240028
0.00239431
0.00238655
0.00237713
0.00236621
0.00235394
0.00234047
0.00232596
0.00231058
0.00229448
0.00227784
0.00226081
0.00224356
0.00222624
0.00220901
0.00219201
0.00217538
0.00215925
0.00214374
0.00212898
0.00211504
0.00210204
0.00209005
0.00207912
0.00206933
0.00206071
0.00205329
0.00204709
0.00204211
0.00203834
0.00203575
0.00203434
0.00203415
1.85195e-05
-4.8331e-06
-2.14391e-05
-3.4157e-05
-4.4665e-05
-5.29635e-05
-5.91328e-05
-6.33614e-05
-6.58178e-05
-6.66466e-05
-6.59774e-05
-6.39251e-05
-6.05894e-05
-5.6056e-05
-5.03975e-05
-4.36746e-05
-3.59368e-05
-2.72246e-05
-1.75697e-05
-6.99622e-06
4.47831e-06
1.68419e-05
3.00881e-05
4.42155e-05
5.9225e-05
7.5121e-05
9.19107e-05
0.000109604
0.000128213
0.000147748
0.000168223
0.000189653
0.000212055
0.000235444
0.000259835
0.000285244
0.000311685
0.000339174
0.000367726
0.000397352
0.000428065
0.000459874
0.000492786
0.000526807
0.000561942
0.000598191
0.000635549
0.000674012
0.000713567
0.000754199
0.00079589
0.000838614
0.000882342
0.000927037
0.000972656
0.00101915
0.00106646
0.00111454
0.00116329
0.00121266
0.00126254
0.00131286
0.00136351
0.00141438
0.00146536
0.00151632
0.00156715
0.0016177
0.00166783
0.00171742
0.0017663
0.00181434
0.00186138
0.00190727
0.00195187
0.00199502
0.0020366
0.00207645
0.00211444
0.00215046
0.00218438
0.0022161
0.00224553
0.00227257
0.00229717
0.00231926
0.0023388
0.00235578
0.00237017
0.00238199
0.00239126
0.00239801
0.00240231
0.00240423
0.00240385
0.00240128
0.00239662
0.00239
0.00238156
0.00237144
0.0023598
0.00234679
0.00233257
0.00231732
0.00230119
0.00228437
0.00226701
0.00224928
0.00223136
0.0022134
0.00219555
0.00217797
0.0021608
0.00214416
0.00212819
0.002113
0.00209867
0.00208532
0.00207301
0.00206181
0.00205178
0.00204296
0.00203538
0.00202906
0.002024
0.00202018
0.00201758
0.0020162
0.00201609
2.61556e-06
-2.15742e-05
-3.87674e-05
-5.19256e-05
-6.27904e-05
-7.13663e-05
-7.77418e-05
-8.21176e-05
-8.46735e-05
-8.55642e-05
-8.49282e-05
-8.28877e-05
-7.9549e-05
-7.50027e-05
-6.9326e-05
-6.25831e-05
-5.48266e-05
-4.60995e-05
-3.64353e-05
-2.58594e-05
-1.43903e-05
-2.04038e-06
1.11837e-05
2.52801e-05
4.02503e-05
5.60986e-05
7.2833e-05
9.0464e-05
0.000109004
0.000128465
0.000148863
0.000170213
0.000192534
0.000215842
0.000240154
0.000265486
0.000291857
0.000319283
0.00034778
0.000377363
0.000408044
0.000439837
0.00047275
0.000506792
0.000541968
0.000578281
0.00061573
0.000654309
0.00069401
0.000734819
0.00077672
0.000819688
0.000863695
0.000908706
0.000954679
0.00100157
0.00104931
0.00109785
0.00114711
0.00119702
0.00124748
0.00129842
0.00134971
0.00140125
0.00145293
0.00150462
0.00155619
0.0016075
0.00165841
0.00170877
0.00175842
0.00180723
0.00185503
0.00190167
0.00194698
0.00199083
0.00203306
0.00207352
0.00211209
0.00214862
0.002183
0.00221511
0.00224486
0.00227216
0.00229694
0.00231914
0.00233871
0.00235563
0.0023699
0.00238151
0.00239049
0.00239689
0.00240077
0.0024022
0.00240127
0.00239809
0.00239278
0.00238547
0.0023763
0.00236543
0.002353
0.0023392
0.00232418
0.00230811
0.00229119
0.00227357
0.00225543
0.00223696
0.0022183
0.00219965
0.00218114
0.00216293
0.00214517
0.00212799
0.00211151
0.00209585
0.0020811
0.00206736
0.00205472
0.00204323
0.00203295
0.00202393
0.0020162
0.00200977
0.00200464
0.0020008
0.00199822
0.00199693
0.00199699
-1.64082e-05
-4.13705e-05
-5.91054e-05
-7.26701e-05
-8.38646e-05
-9.26979e-05
-9.92659e-05
-0.000103781
-0.000106433
-0.000107386
-0.000106787
-0.000104764
-0.00010143
-9.68787e-05
-9.11929e-05
-8.44395e-05
-7.66739e-05
-6.7941e-05
-5.82763e-05
-4.77058e-05
-3.62489e-05
-2.39185e-05
-1.07215e-05
3.34042e-06
1.82687e-05
3.4068e-05
5.07468e-05
6.83167e-05
8.67906e-05
0.000106182
0.000126508
0.000147785
0.000170033
0.000193269
0.000217513
0.000242783
0.000269098
0.000296477
0.000324937
0.000354497
0.00038517
0.00041697
0.000449911
0.000484002
0.00051925
0.00055566
0.000593234
0.000631969
0.000671858
0.000712888
0.000755046
0.000798308
0.000842647
0.00088803
0.000934416
0.000981756
0.00102999
0.00107907
0.00112891
0.00117943
0.00123055
0.00128218
0.00133419
0.0013865
0.00143896
0.00149146
0.00154386
0.00159601
0.00164778
0.001699
0.00174952
0.00179918
0.00184782
0.00189529
0.0019414
0.00198602
0.00202897
0.00207012
0.00210932
0.00214643
0.00218132
0.00221388
0.002244
0.00227159
0.00229659
0.00231891
0.00233853
0.00235541
0.00236955
0.00238095
0.00238964
0.00239567
0.0023991
0.00240002
0.0023985
0.00239468
0.00238868
0.00238062
0.00237067
0.00235898
0.00234572
0.00233106
0.00231517
0.00229825
0.00228045
0.00226199
0.00224302
0.00222373
0.0022043
0.0021849
0.00216568
0.0021468
0.00212841
0.00211064
0.00209362
0.00207746
0.00206226
0.00204812
0.00203511
0.00202332
0.00201279
0.00200356
0.00199568
0.00198915
0.00198398
0.00198015
0.00197763
0.00197648
0.00197679
-3.86539e-05
-6.43294e-05
-8.25642e-05
-9.65038e-05
-0.000108003
-0.000117074
-0.000123822
-0.000128468
-0.000131213
-0.000132228
-0.000131668
-0.000129667
-0.000126342
-0.000121794
-0.000116107
-0.000109352
-0.000101586
-9.28558e-05
-8.31984e-05
-7.26407e-05
-6.12025e-05
-4.88973e-05
-3.57319e-05
-2.17082e-05
-6.82454e-06
8.9243e-06
2.55475e-05
4.30573e-05
6.14677e-05
8.07938e-05
0.000101053
0.000122263
0.000144446
0.000167621
0.000191809
0.000217028
0.000243302
0.000270649
0.000299092
0.000328647
0.000359333
0.000391166
0.00042416
0.000458327
0.000493678
0.000530219
0.000567954
0.000606882
0.000646999
0.000688294
0.000730755
0.00077436
0.000819084
0.000864894
0.00091175
0.000959605
0.0010084
0.00105808
0.00110857
0.00115978
0.00121163
0.00126402
0.00131684
0.00136998
0.00142332
0.00147671
0.00153002
0.00158311
0.00163582
0.00168799
0.00173946
0.00179006
0.00183964
0.001888
0.001935
0.00198046
0.00202422
0.00206613
0.00210602
0.00214377
0.00217923
0.00221228
0.00224282
0.00227075
0.00229599
0.00231847
0.00233816
0.00235501
0.00236903
0.00238022
0.00238861
0.00239425
0.00239721
0.00239757
0.00239545
0.00239094
0.0023842
0.00237535