/*--------------------------------*- C++ -*----------------------------------*\
| =========                 |                                                 |
| \\      /  F ield         | OpenFOAM: The Open Source CFD Toolbox           |
|  \\    /   O peration     | Version:  2112                                  |
|   \\  /    A nd           | Website:  www.openfoam.com                      |
|    \\/     M anipulation  |                                                 |
\*---------------------------------------------------------------------------*/
FoamFile
{
    version     2.0;
    format      ascii;
    arch        "LSB;label=32;scalar=64";
    class       surfaceScalarField;
    location    "0.6";
    object      phi;
}
// * * * * * * * * * * * * * * * * * * * * * * * * * * * * * * * * * * * * * //

dimensions      [0 3 -1 0 0 0 0];

oriented        oriented;

internalField   nonuniform List<scalar> 
33024
(
4.5513e-11
-4.55048e-11
8.49565e-11
-3.94434e-11
7.42429e-11
1.07142e-11
1.07698e-12
7.31684e-11
-1.33696e-10
1.34774e-10
-3.26012e-10
1.92315e-10
-5.68509e-10
2.42497e-10
-8.53457e-10
2.8495e-10
-1.17358e-09
3.20122e-10
-1.52231e-09
3.48732e-10
-1.89392e-09
3.71606e-10
-2.28349e-09
3.89573e-10
-2.6869e-09
4.03406e-10
-3.1007e-09
4.13793e-10
-3.52205e-09
4.21352e-10
-3.94866e-09
4.26614e-10
-4.37869e-09
4.30031e-10
-4.81069e-09
4.31992e-10
-5.24351e-09
4.32819e-10
-5.67628e-09
4.32769e-10
-6.10833e-09
4.32049e-10
-6.53915e-09
4.30823e-10
-6.96836e-09
4.29212e-10
-7.39567e-09
4.2731e-10
-7.82086e-09
4.25185e-10
-8.24374e-09
4.22885e-10
-8.66418e-09
4.20431e-10
-9.082e-09
4.1783e-10
-9.49708e-09
4.15078e-10
-9.90924e-09
4.12163e-10
-1.03183e-08
4.09068e-10
-1.07241e-08
4.05765e-10
-1.11263e-08
4.02223e-10
-1.15247e-08
3.98404e-10
-1.1919e-08
3.9427e-10
-1.23088e-08
3.89784e-10
-1.26937e-08
3.84904e-10
-1.30732e-08
3.79588e-10
-1.3447e-08
3.73793e-10
-1.38145e-08
3.67476e-10
-1.41751e-08
3.60595e-10
-1.45282e-08
3.5311e-10
-1.48732e-08
3.4498e-10
-1.52094e-08
3.36165e-10
-1.5536e-08
3.26628e-10
-1.58523e-08
3.16332e-10
-1.61576e-08
3.05243e-10
-1.64509e-08
2.93331e-10
-1.67315e-08
2.80568e-10
-1.69984e-08
2.66929e-10
-1.72508e-08
2.52393e-10
-1.74877e-08
2.36944e-10
-1.77083e-08
2.20571e-10
-1.79116e-08
2.03267e-10
-1.80966e-08
1.85031e-10
-1.82625e-08
1.65869e-10
-1.84083e-08
1.45795e-10
-1.85331e-08
1.24827e-10
-1.86361e-08
1.02992e-10
-1.87164e-08
8.03234e-11
-1.87733e-08
5.68632e-11
-1.88059e-08
3.26622e-11
-1.88137e-08
7.78057e-12
-1.8796e-08
-1.77218e-11
-1.87522e-08
-4.37621e-11
-1.8682e-08
-7.02626e-11
-1.85848e-08
-9.71323e-11
-1.84606e-08
-1.24273e-10
-1.8309e-08
-1.51582e-10
-1.813e-08
-1.78948e-10
-1.79238e-08
-2.06258e-10
-1.76904e-08
-2.33391e-10
-1.74302e-08
-2.60224e-10
-1.71435e-08
-2.86631e-10
-1.6831e-08
-3.12483e-10
-1.64934e-08
-3.37654e-10
-1.61314e-08
-3.62016e-10
-1.57459e-08
-3.85443e-10
-1.53381e-08
-4.07813e-10
-1.49091e-08
-4.29008e-10
-1.44602e-08
-4.48915e-10
-1.39928e-08
-4.67428e-10
-1.35083e-08
-4.84449e-10
-1.30084e-08
-4.99887e-10
-1.24948e-08
-5.1366e-10
-1.19691e-08
-5.25699e-10
-1.14331e-08
-5.35943e-10
-1.08888e-08
-5.44342e-10
-1.03379e-08
-5.50857e-10
-9.78248e-09
-5.55462e-10
-9.22434e-09
-5.58139e-10
-8.66546e-09
-5.58885e-10
-8.10775e-09
-5.57705e-10
-7.55314e-09
-5.54612e-10
-7.00351e-09
-5.49634e-10
-6.46071e-09
-5.42802e-10
-5.92655e-09
-5.34156e-10
-5.40281e-09
-5.23743e-10
-4.8912e-09
-5.11615e-10
-4.39337e-09
-4.97831e-10
-3.91092e-09
-4.82449e-10
-3.44538e-09
-4.65534e-10
-2.99823e-09
-4.47151e-10
-2.57087e-09
-4.27364e-10
-2.16463e-09
-4.06241e-10
-1.78078e-09
-3.83848e-10
-1.42053e-09
-3.60253e-10
-1.085e-09
-3.35523e-10
-7.75274e-10
-3.09727e-10
-4.92337e-10
-2.82936e-10
-2.37109e-10
-2.55226e-10
-1.04285e-11
-2.26679e-10
1.8697e-10
-1.97398e-10
3.54441e-10
-1.67472e-10
4.91477e-10
-1.37035e-10
5.9773e-10
-1.06253e-10
6.73052e-10
-7.53217e-11
7.17552e-10
-4.45e-11
7.31681e-10
-1.41296e-11
7.16334e-10
1.53481e-11
6.73029e-10
4.33045e-11
6.04115e-10
6.89128e-11
5.13123e-10
9.0993e-11
4.05245e-10
1.07879e-10
2.88031e-10
1.17215e-10
1.7228e-10
1.1575e-10
7.31882e-11
9.90894e-11
1.09056e-11
6.22758e-11
1.08985e-11
3.92387e-11
-8.47431e-11
2.20051e-11
-2.22148e-11
-1.11869e-10
1.44587e-10
-3.87953e-10
3.49258e-10
-8.11249e-10
5.58071e-10
-1.37337e-09
7.54432e-10
-2.06106e-09
9.30192e-10
-2.8586e-09
1.08249e-09
-3.74985e-09
1.21137e-09
-4.71943e-09
1.31831e-09
-5.75331e-09
1.40548e-09
-6.83901e-09
1.47528e-09
-7.96573e-09
1.53013e-09
-9.12423e-09
1.57229e-09
-1.03067e-08
1.60385e-09
-1.15068e-08
1.62665e-09
-1.2719e-08
1.6423e-09
-1.39392e-08
1.65219e-09
-1.51639e-08
1.65747e-09
-1.63902e-08
1.65911e-09
-1.76161e-08
1.65789e-09
-1.88397e-08
1.65443e-09
-2.00597e-08
1.64922e-09
-2.1275e-08
1.64264e-09
-2.24848e-08
1.63495e-09
-2.36882e-08
1.62635e-09
-2.48848e-08
1.61694e-09
-2.60737e-08
1.60679e-09
-2.72545e-08
1.59589e-09
-2.84266e-08
1.58424e-09
-2.95893e-08
1.57176e-09
-3.07419e-08
1.55837e-09
-3.18836e-08
1.54397e-09
-3.30137e-08
1.52843e-09
-3.4131e-08
1.51163e-09
-3.52347e-08
1.49343e-09
-3.63235e-08
1.47368e-09
-3.73961e-08
1.45223e-09
-3.84513e-08
1.42894e-09
-3.94874e-08
1.40365e-09
-4.0503e-08
1.37621e-09
-4.14964e-08
1.34647e-09
-4.24657e-08
1.31429e-09
-4.34091e-08
1.27953e-09
-4.43245e-08
1.24205e-09
-4.52099e-08
1.20174e-09
-4.60631e-08
1.15846e-09
-4.68819e-08
1.11211e-09
-4.76639e-08
1.0626e-09
-4.84069e-08
1.00984e-09
-4.91082e-08
9.53768e-10
-4.97656e-08
8.94323e-10
-5.03765e-08
8.31474e-10
-5.09384e-08
7.65207e-10
-5.14489e-08
6.95528e-10
-5.19055e-08
6.22467e-10
-5.23058e-08
5.46077e-10
-5.26474e-08
4.66437e-10
-5.29281e-08
3.83652e-10
-5.31456e-08
2.97857e-10
-5.3298e-08
2.09212e-10
-5.33832e-08
1.17909e-10
-5.33996e-08
2.41665e-11
-5.33455e-08
-7.17639e-11
-5.32197e-08
-1.69608e-10
-5.30209e-08
-2.69057e-10
-5.27483e-08
-3.6978e-10
-5.24011e-08
-4.7142e-10
-5.19791e-08
-5.73595e-10
-5.14821e-08
-6.75906e-10
-5.09105e-08
-7.77932e-10
-5.02646e-08
-8.79237e-10
-4.95455e-08
-9.79374e-10
-4.87542e-08
-1.07789e-09
-4.78924e-08
-1.17432e-09
-4.69618e-08
-1.2682e-09
-4.59648e-08
-1.35908e-09
-4.49037e-08
-1.4465e-09
-4.37815e-08
-1.53002e-09
-4.26013e-08
-1.60922e-09
-4.13665e-08
-1.6837e-09
-4.00809e-08
-1.75307e-09
-3.87483e-08
-1.81697e-09
-3.73731e-08
-1.87509e-09
-3.59597e-08
-1.92712e-09
-3.45126e-08
-1.97282e-09
-3.30365e-08
-2.01196e-09
-3.15365e-08
-2.04436e-09
-3.00175e-08
-2.06988e-09
-2.84846e-08
-2.0884e-09
-2.69428e-08
-2.09988e-09
-2.53974e-08
-2.10428e-09
-2.38535e-08
-2.10161e-09
-2.23162e-08
-2.09191e-09
-2.07906e-08
-2.07527e-09
-1.92816e-08
-2.05179e-09
-1.77942e-08
-2.0216e-09
-1.6333e-08
-1.98487e-09
-1.49029e-08
-1.94175e-09
-1.35083e-08
-1.89246e-09
-1.21536e-08
-1.83718e-09
-1.08429e-08
-1.77615e-09
-9.58051e-09
-1.70958e-09
-8.37018e-09
-1.6377e-09
-7.21568e-09
-1.56074e-09
-6.12059e-09
-1.47893e-09
-5.08832e-09
-1.39253e-09
-4.12207e-09
-1.30177e-09
-3.22489e-09
-1.2069e-09
-2.39962e-09
-1.10821e-09
-1.64888e-09
-1.00597e-09
-9.75052e-10
-9.00507e-10
-3.80242e-10
-7.92204e-10
1.3378e-10
-6.81494e-10
5.65664e-10
-5.68918e-10
9.14518e-10
-4.55107e-10
1.1801e-09
-3.40904e-10
1.36296e-09
-2.27357e-10
1.46465e-09
-1.15822e-10
1.48807e-09
-8.06833e-12
1.43779e-09
9.35838e-11
1.32063e-09
1.86073e-10
1.14628e-09
2.65338e-10
9.28154e-10
3.26006e-10
6.84297e-10
3.61071e-10
4.38292e-10
3.61757e-10
2.1956e-10
3.17829e-10
6.19078e-11
2.19937e-10
7.28029e-11
-1.04815e-11
-7.42616e-11
-1.45881e-10
1.13187e-10
-4.62031e-10
4.60739e-10
-9.82706e-10
8.69931e-10
-1.71209e-09
1.28745e-09
-2.64101e-09
1.68335e-09
-3.75274e-09
2.04192e-09
-5.02688e-09
2.35663e-09
-6.44183e-09
2.62631e-09
-7.97638e-09
2.85287e-09
-9.6107e-09
3.03979e-09
-1.13268e-08
3.19135e-09
-1.31087e-08
3.31201e-09
-1.49425e-08
3.40613e-09
-1.68164e-08
3.47778e-09
-1.87204e-08
3.53065e-09
-2.06461e-08
3.56799e-09
-2.25866e-08
3.59265e-09
-2.45362e-08
3.60703e-09
-2.64902e-08
3.61315e-09
-2.8445e-08
3.61267e-09
-3.03975e-08
3.60693e-09
-3.23452e-08
3.597e-09
-3.42863e-08
3.58369e-09
-3.6219e-08
3.56761e-09
-3.81418e-08
3.5492e-09
-4.00536e-08
3.52872e-09
-4.19531e-08
3.50634e-09
-4.38393e-08
3.48209e-09
-4.57111e-08
3.45596e-09
-4.75671e-08
3.42782e-09
-4.94063e-08
3.39754e-09
-5.12272e-08
3.36489e-09
-5.30284e-08
3.32965e-09
-5.48083e-08
3.29155e-09
-5.65652e-08
3.25031e-09
-5.82972e-08
3.20564e-09
-6.00022e-08
3.15723e-09
-6.1678e-08
3.10477e-09
-6.33223e-08
3.04795e-09
-6.49326e-08
2.98646e-09
-6.65061e-08
2.91999e-09
-6.80401e-08
2.84825e-09
-6.95315e-08
2.77096e-09
-7.09773e-08
2.68783e-09
-7.23741e-08
2.5986e-09
-7.37187e-08
2.50305e-09
-7.50075e-08
2.40095e-09
-7.6237e-08
2.2921e-09
-7.74036e-08
2.17635e-09
-7.85034e-08
2.05357e-09
-7.95327e-08
1.92364e-09
-8.04877e-08
1.78653e-09
-8.13647e-08
1.6422e-09
-8.21599e-08
1.49069e-09
-8.28695e-08
1.33208e-09
-8.34899e-08
1.16648e-09
-8.40175e-08
9.94089e-10
-8.4449e-08
8.15137e-10
-8.47811e-08
6.29918e-10
-8.50107e-08
4.38789e-10
-8.51349e-08
2.42161e-10
-8.51513e-08
4.05133e-11
-8.50574e-08
-1.65628e-10
-8.48513e-08
-3.75665e-10
-8.45315e-08
-5.88945e-10
-8.40965e-08
-8.04766e-10
-8.35455e-08
-1.02237e-09
-8.28781e-08
-1.24096e-09
-8.20944e-08
-1.45969e-09
-8.11946e-08
-1.67768e-09
-8.01798e-08
-1.89401e-09
-7.90515e-08
-2.10776e-09
-7.78114e-08
-2.31796e-09
-7.6462e-08
-2.52366e-09
-7.50064e-08
-2.7239e-09
-7.34477e-08
-2.91771e-09
-7.179e-08
-3.10418e-09
-7.00377e-08
-3.28237e-09
-6.81955e-08
-3.45142e-09
-6.62687e-08
-3.61049e-09
-6.4263e-08
-3.75877e-09
-6.21844e-08
-3.89554e-09
-6.00394e-08
-4.02012e-09
-5.78346e-08
-4.13191e-09
-5.55771e-08
-4.23037e-09
-5.3274e-08
-4.31504e-09
-5.09328e-08
-4.38554e-09
-4.85611e-08
-4.44157e-09
-4.61666e-08
-4.4829e-09
-4.37571e-08
-4.50941e-09
-4.13404e-08
-4.52101e-09
-3.89243e-08
-4.51772e-09
-3.65166e-08
-4.49962e-09
-3.4125e-08
-4.46686e-09
-3.17571e-08
-4.41964e-09
-2.94205e-08
-4.35822e-09
-2.71225e-08
-4.28291e-09
-2.48702e-08
-4.19406e-09
-2.26706e-08
-4.09204e-09
-2.05305e-08
-3.97727e-09
-1.84565e-08
-3.85018e-09
-1.64548e-08
-3.71121e-09
-1.45317e-08
-3.56083e-09
-1.26929e-08
-3.39951e-09
-1.09441e-08
-3.22773e-09
-9.29067e-09
-3.04599e-09
-7.73765e-09
-2.85479e-09
-6.28986e-09
-2.65469e-09
-4.95182e-09
-2.44625e-09
-3.72766e-09
-2.23012e-09
-2.62115e-09
-2.00702e-09
-1.63558e-09
-1.77777e-09
-7.73716e-10
-1.54336e-09
-3.76349e-11
-1.305e-09
5.71409e-10
-1.06415e-09
1.05317e-09
-8.22663e-10
1.40868e-09
-5.82866e-10
1.64058e-09
-3.47722e-10
1.75353e-09
-1.21021e-10
1.75474e-09
9.23737e-11
1.65457e-09
2.86239e-10
1.46734e-09
4.52579e-10
1.21207e-09
5.81269e-10
9.13423e-10
6.59715e-10
6.02287e-10
6.72883e-10
3.1601e-10
6.04102e-10
9.79497e-11
4.38001e-10
1.7075e-10
-7.44628e-11
2.01372e-13
-3.57546e-10
3.96277e-10
-8.86104e-10
9.89297e-10
-1.67482e-09
1.65864e-09
-2.72283e-09
2.33548e-09
-4.01772e-09
2.97824e-09
-5.53973e-09
3.56393e-09
-7.26515e-09
4.08204e-09
-9.1687e-09
4.52987e-09
-1.12253e-08
4.90945e-09
-1.3411e-08
5.22552e-09
-1.57039e-08
5.48424e-09
-1.80842e-08
5.6923e-09
-2.05345e-08
5.8564e-09
-2.30396e-08
5.98291e-09
-2.55866e-08
6.07768e-09
-2.81646e-08
6.14597e-09
-3.07643e-08
6.19236e-09
-3.33781e-08
6.22081e-09
-3.59996e-08
6.23468e-09
-3.86237e-08
6.23673e-09
-4.1246e-08
6.22923e-09
-4.3863e-08
6.214e-09
-4.64717e-08
6.19243e-09
-4.90697e-08
6.1656e-09
-5.16548e-08
6.13426e-09
-5.4225e-08
6.09892e-09
-5.67785e-08
6.05988e-09
-5.93137e-08
6.01727e-09
-6.18288e-08
5.97105e-09
-6.43221e-08
5.92109e-09
-6.67917e-08
5.86715e-09
-6.92357e-08
5.80891e-09
-7.1652e-08
5.74599e-09
-7.40385e-08
5.67799e-09
-7.63926e-08
5.60443e-09
-7.87118e-08
5.52483e-09
-8.09932e-08
5.43871e-09
-8.3234e-08
5.34556e-09
-8.54309e-08
5.24485e-09
-8.75806e-08
5.1361e-09
-8.96794e-08
5.01879e-09
-9.17236e-08
4.89244e-09
-9.37092e-08
4.75658e-09
-9.56321e-08
4.61076e-09
-9.74881e-08
4.45457e-09
-9.92726e-08
4.28762e-09
-1.00981e-07
4.10955e-09
-1.02609e-07
3.92007e-09
-1.04152e-07
3.71892e-09
-1.05604e-07
3.5059e-09
-1.06961e-07
3.28086e-09
-1.08219e-07
3.04373e-09
-1.09371e-07
2.79449e-09
-1.10413e-07
2.53323e-09
-1.11341e-07
2.2601e-09
-1.1215e-07
1.97532e-09
-1.12835e-07
1.67923e-09
-1.13392e-07
1.37225e-09
-1.13817e-07
1.0549e-09
-1.14106e-07
7.27782e-10
-1.14256e-07
3.9162e-10
-1.14263e-07
4.72304e-11
-1.14124e-07
-3.04493e-10
-1.13837e-07
-6.62525e-10
-1.134e-07
-1.02577e-09
-1.12812e-07
-1.39303e-09
-1.12071e-07
-1.76305e-09
-1.11178e-07
-2.13447e-09
-1.10131e-07
-2.50588e-09
-1.08933e-07
-2.8758e-09
-1.07585e-07
-3.24272e-09
-1.06087e-07
-3.60507e-09
-1.04444e-07
-3.96128e-09
-1.02658e-07
-4.30974e-09
-1.00733e-07
-4.64886e-09
-9.86736e-08
-4.97707e-09
-9.6485e-08
-5.29281e-09
-9.41728e-08
-5.59457e-09
-9.17433e-08
-5.8809e-09
-8.92034e-08
-6.15042e-09
-8.65603e-08
-6.40182e-09
-8.3822e-08
-6.63388e-09
-8.09966e-08
-6.8455e-09
-7.80928e-08
-7.03568e-09
-7.51197e-08
-7.20353e-09
-7.20864e-08
-7.34829e-09
-6.90026e-08
-7.46934e-09
-6.5878e-08
-7.56616e-09
-6.27225e-08
-7.63839e-09
-5.95461e-08
-7.68579e-09
-5.63589e-08
-7.70824e-09
-5.31709e-08
-7.70573e-09
-4.99921e-08
-7.6784e-09
-4.68325e-08
-7.62647e-09
-4.37019e-08
-7.55024e-09
-4.061e-08
-7.45015e-09
-3.75662e-08
-7.32667e-09
-3.458e-08
-7.18036e-09
-3.16602e-08
-7.01182e-09
-2.88157e-08
-6.82171e-09
-2.60552e-08
-6.61072e-09
-2.33868e-08
-6.37958e-09
-2.08186e-08
-6.12903e-09
-1.83583e-08
-5.85984e-09
-1.60132e-08
-5.57279e-09
-1.37905e-08
-5.26872e-09
-1.16968e-08
-4.94848e-09
-9.73854e-09
-4.61297e-09
-7.92161e-09
-4.26319e-09
-6.25149e-09
-3.90023e-09
-4.73315e-09
-3.52536e-09
-3.3709e-09
-3.14002e-09
-2.16831e-09
-2.74595e-09
-1.12805e-09
-2.34526e-09
-2.51678e-10
-1.94052e-09
4.60615e-10
-1.53496e-09
1.01031e-09
-1.13256e-09
1.40097e-09
-7.38379e-10
1.63869e-09
-3.58736e-10
1.73267e-09
-1.60716e-12
1.69588e-09
3.23021e-10
1.54579e-09
6.02672e-10
1.30509e-09
8.2197e-10
1.00248e-09
9.62331e-10
6.73301e-10
1.00206e-09
3.6019e-10
9.17207e-10
1.1412e-10
6.84072e-10
2.84869e-10
-1.40181e-10
1.40382e-10
-5.81859e-10
8.37956e-10
-1.33571e-09
1.74315e-09
-2.4029e-09
2.72584e-09
-3.77407e-09
3.70664e-09
-5.4315e-09
4.63566e-09
-7.3517e-09
5.48414e-09
-9.50787e-09
6.2382e-09
-1.18718e-08
6.89382e-09
-1.44156e-08
7.45319e-09
-1.71123e-08
7.92229e-09
-1.99373e-08
8.30917e-09
-2.28678e-08
8.62282e-09
-2.58838e-08
8.8724e-09
-2.89676e-08
9.06674e-09
-3.2104e-08
9.21405e-09
-3.52798e-08
9.32177e-09
-3.84839e-08
9.39647e-09
-4.1707e-08
9.44386e-09
-4.49411e-08
9.46881e-09
-4.81797e-08
9.47537e-09
-5.14174e-08
9.4669e-09
-5.46495e-08
9.44609e-09
-5.78721e-08
9.41505e-09
-6.10819e-08
9.3754e-09
-6.42759e-08
9.3283e-09
-6.74516e-08
9.27456e-09
-7.06064e-08
9.21468e-09
-7.3738e-08
9.14886e-09
-7.68441e-08
9.07713e-09
-7.99223e-08
8.99931e-09
-8.29702e-08
8.91508e-09
-8.59853e-08
8.824e-09
-8.89649e-08
8.72555e-09
-9.1906e-08
8.61912e-09
-9.48056e-08
8.50408e-09
-9.76605e-08
8.37972e-09
-1.00467e-07
8.24532e-09
-1.03222e-07
8.10016e-09
-1.0592e-07
7.9435e-09
-1.08559e-07
7.7746e-09
-1.11133e-07
7.59274e-09
-1.13638e-07
7.39722e-09
-1.16068e-07
7.18736e-09
-1.1842e-07
6.96252e-09
-1.20688e-07
6.7221e-09
-1.22866e-07
6.46555e-09
-1.24948e-07
6.19238e-09
-1.26931e-07
5.90216e-09
-1.28806e-07
5.59454e-09
-1.3057e-07
5.26926e-09
-1.32215e-07
4.92612e-09
-1.33736e-07
4.56505e-09
-1.35128e-07
4.18607e-09
-1.36384e-07
3.78932e-09
-1.37499e-07
3.37506e-09
-1.38467e-07
2.94367e-09
-1.39284e-07
2.49568e-09
-1.39943e-07
2.03172e-09
-1.40441e-07
1.55261e-09
-1.40772e-07
1.05929e-09
-1.40933e-07
5.5283e-10
-1.40921e-07
3.44853e-11
-1.40731e-07
-4.94416e-10
-1.40361e-07
-1.03232e-09
-1.39809e-07
-1.5776e-09
-1.39074e-07
-2.12847e-09
-1.38154e-07
-2.68305e-09
-1.37049e-07
-3.23934e-09
-1.35759e-07
-3.79524e-09
-1.34287e-07
-4.34858e-09
-1.32632e-07
-4.89712e-09
-1.30799e-07
-5.43856e-09
-1.2879e-07
-5.97057e-09
-1.26608e-07
-6.49083e-09
-1.2426e-07
-6.99698e-09
-1.21751e-07
-7.48673e-09
-1.19086e-07
-7.95779e-09
-1.16272e-07
-8.40799e-09
-1.13318e-07
-8.83518e-09
-1.10231e-07
-9.23736e-09
-1.0702e-07
-9.61263e-09
-1.03695e-07
-9.95922e-09
-1.00265e-07
-1.02755e-08
-9.67405e-08
-1.05601e-08
-9.31325e-08
-1.08116e-08
-8.94518e-08
-1.10289e-08
-8.57099e-08
-1.12113e-08
-8.19183e-08
-1.13578e-08
-7.80887e-08
-1.1468e-08
-7.42331e-08
-1.15414e-08
-7.03632e-08
-1.15781e-08
-6.64912e-08
-1.15778e-08
-6.26288e-08
-1.15408e-08
-5.87879e-08
-1.14674e-08
-5.498e-08
-1.13581e-08
-5.12169e-08
-1.12133e-08
-4.75096e-08
-1.10339e-08
-4.38694e-08
-1.08206e-08
-4.0307e-08
-1.05742e-08
-3.6833e-08
-1.02957e-08
-3.34576e-08
-9.98616e-09
-3.01906e-08
-9.64649e-09
-2.70419e-08
-9.27782e-09
-2.40204e-08
-8.88125e-09
-2.11353e-08
-8.45793e-09
-1.8395e-08
-8.00907e-09
-1.58075e-08
-7.53593e-09
-1.33806e-08
-7.03987e-09
-1.11214e-08
-6.52237e-09
-9.03655e-09
-5.98511e-09
-7.13192e-09
-5.42999e-09
-5.41269e-09
-4.85925e-09
-3.88311e-09
-4.27553e-09
-2.54629e-09
-3.68207e-09
-1.40403e-09
-3.08279e-09
-4.56438e-10
-2.48255e-09
2.98332e-10
-1.88733e-09
8.64563e-10
-1.30461e-09
1.24943e-09
-7.43602e-10
1.46359e-09
-2.15764e-10
1.52179e-09
2.64812e-10
1.44358e-09
6.80881e-10
1.25395e-09
1.0116e-09
9.84074e-10
1.23221e-09
6.72097e-10
1.31404e-09
3.64138e-10
1.22516e-09
1.16208e-10
9.32e-10
4.01076e-10
-2.04819e-10
3.452e-10
-8.0362e-10
1.43676e-09
-1.78355e-09
2.72308e-09
-3.1294e-09
4.07168e-09
-4.82108e-09
5.39833e-09
-6.83388e-09
6.64846e-09
-9.13957e-09
7.78983e-09
-1.17079e-08
8.80653e-09
-1.45079e-08
9.69384e-09
-1.75092e-08
1.04545e-08
-2.06827e-08
1.10958e-08
-2.40015e-08
1.16279e-08
-2.74408e-08
1.20621e-08
-3.09785e-08
1.24101e-08
-3.4595e-08
1.26832e-08
-3.82732e-08
1.28922e-08
-4.19982e-08
1.30468e-08
-4.57574e-08
1.31557e-08
-4.954e-08
1.32264e-08
-5.33368e-08
1.32656e-08
-5.714e-08
1.32786e-08
-6.0943e-08
1.32699e-08
-6.47403e-08
1.32434e-08
-6.85271e-08
1.32018e-08
-7.22992e-08
1.31475e-08
-7.60528e-08
1.3082e-08
-7.97848e-08
1.30065e-08
-8.34919e-08
1.29218e-08
-8.71712e-08
1.28281e-08
-9.08197e-08
1.27256e-08
-9.44344e-08
1.26141e-08
-9.80124e-08
1.24931e-08
-1.01551e-07
1.23621e-08
-1.05045e-07
1.22204e-08
-1.08493e-07
1.20672e-08
-1.11891e-07
1.19017e-08
-1.15234e-07
1.1723e-08
-1.18519e-07
1.153e-08
-1.21741e-07
1.13218e-08
-1.24895e-07
1.10974e-08
-1.27976e-07
1.08559e-08
-1.30979e-07
1.05963e-08
-1.339e-07
1.03176e-08
-1.36731e-07
1.00189e-08
-1.39468e-07
9.69938e-09
-1.42104e-07
9.35826e-09
-1.44634e-07
8.99482e-09
-1.4705e-07
8.60841e-09
-1.49346e-07
8.19847e-09
-1.51516e-07
7.76457e-09
-1.53553e-07
7.30638e-09
-1.55451e-07
6.82368e-09
-1.57202e-07
6.3164e-09
-1.58801e-07
5.78463e-09
-1.6024e-07
5.2286e-09
-1.61513e-07
4.6487e-09
-1.62615e-07
4.04551e-09
-1.63539e-07
3.41978e-09
-1.6428e-07
2.77245e-09
-1.64832e-07
2.10466e-09
-1.65191e-07
1.41773e-09
-1.65351e-07
7.13182e-10
-1.65309e-07
-7.21105e-12
-1.65062e-07
-7.41671e-10
-1.64606e-07
-1.48797e-09
-1.6394e-07
-2.24389e-09
-1.63062e-07
-3.00698e-09
-1.6197e-07
-3.77463e-09
-1.60665e-07
-4.54412e-09
-1.59148e-07
-5.31257e-09
-1.57419e-07
-6.077e-09
-1.55482e-07
-6.83436e-09
-1.53339e-07
-7.58153e-09
-1.50994e-07
-8.31535e-09
-1.48453e-07
-9.03264e-09
-1.45719e-07
-9.73023e-09
-1.42801e-07
-1.0405e-08
-1.39705e-07
-1.10539e-08
-1.36439e-07
-1.16739e-08
-1.33012e-07
-1.22622e-08
-1.29433e-07
-1.28161e-08
-1.25713e-07
-1.3333e-08
-1.21862e-07
-1.38105e-08
-1.17891e-07
-1.42464e-08
-1.13812e-07
-1.46389e-08
-1.09637e-07
-1.49862e-08
-1.0538e-07
-1.52867e-08
-1.01052e-07
-1.55393e-08
-9.66664e-08
-1.5743e-08
-9.22373e-08
-1.5897e-08
-8.77779e-08
-1.60009e-08
-8.33015e-08
-1.60544e-08
-7.88218e-08
-1.60575e-08
-7.43521e-08
-1.60105e-08
-6.99059e-08
-1.59136e-08
-6.54964e-08
-1.57676e-08
-6.11366e-08
-1.55731e-08
-5.68394e-08
-1.53311e-08
-5.26173e-08
-1.50427e-08
-4.84825e-08
-1.4709e-08
-4.44471e-08
-1.43312e-08
-4.05227e-08
-1.39106e-08
-3.67205e-08
-1.34486e-08
-3.30516e-08
-1.29467e-08
-2.95265e-08
-1.24064e-08
-2.61553e-08
-1.18292e-08
-2.29476e-08
-1.12167e-08
-1.99129e-08
-1.05707e-08
-1.70597e-08
-9.89302e-09
-1.43963e-08
-9.18578e-09
-1.19301e-08
-8.45128e-09
-9.66795e-09
-7.69219e-09
-7.61555e-09
-6.91164e-09
-5.7777e-09
-6.11338e-09
-4.15788e-09
-5.30189e-09
-2.75801e-09
-4.48266e-09
-1.57817e-09
-3.66239e-09
-6.16188e-10
-2.84931e-09
1.32733e-10
-2.05353e-09
6.76563e-10
-1.28743e-09
1.02694e-09
-5.66137e-10
1.19978e-09
9.19616e-11
1.21594e-09
6.64726e-10
1.10178e-09
1.12576e-09
8.89947e-10
1.44404e-09
6.2018e-10
1.5838e-09
3.40521e-10
1.50482e-09
1.09346e-10
1.16317e-09
5.10422e-10
-2.65104e-10
6.10304e-10
-1.01501e-09
2.18667e-09
-2.21467e-09
3.92274e-09
-3.83238e-09
5.68939e-09
-5.83636e-09
7.4023e-09
-8.19375e-09
9.00585e-09
-1.08707e-08
1.04668e-08
-1.3833e-08
1.17688e-08
-1.70468e-08
1.29076e-08
-2.04793e-08
1.3887e-08
-2.40995e-08
1.4716e-08
-2.78786e-08
1.5407e-08
-3.17903e-08
1.59738e-08
-3.58109e-08
1.64307e-08
-3.99194e-08
1.67917e-08
-4.40971e-08
1.707e-08
-4.8328e-08
1.72777e-08
-5.2598e-08
1.74257e-08
-5.68951e-08
1.75236e-08
-6.12091e-08
1.75796e-08
-6.55312e-08
1.76006e-08
-6.98538e-08
1.75925e-08
-7.41705e-08
1.75601e-08
-7.84756e-08
1.7507e-08
-8.27643e-08
1.74361e-08
-8.70321e-08
1.73498e-08
-9.1275e-08
1.72494e-08
-9.54891e-08
1.7136e-08
-9.9671e-08
1.701e-08
-1.03817e-07
1.68717e-08
-1.07924e-07
1.67207e-08
-1.11987e-07
1.65566e-08
-1.16004e-07
1.63788e-08
-1.1997e-07
1.61864e-08
-1.23881e-07
1.59784e-08
-1.27733e-07
1.57538e-08
-1.31522e-07
1.55113e-08
-1.35241e-07
1.52497e-08
-1.38887e-07
1.49678e-08
-1.42454e-07
1.46645e-08
-1.45937e-07
1.43383e-08
-1.49329e-07
1.39881e-08
-1.52624e-07
1.36128e-08
-1.55816e-07
1.32111e-08
-1.58899e-07
1.2782e-08
-1.61865e-07
1.23245e-08
-1.64708e-07
1.18378e-08
-1.6742e-07
1.13209e-08
-1.69995e-07
1.07734e-08
-1.72425e-07
1.01946e-08
-1.74703e-07
9.5841e-09
-1.76821e-07
8.94176e-09
-1.78772e-07
8.26752e-09
-1.80549e-07
7.56154e-09
-1.82145e-07
6.82417e-09
-1.83552e-07
6.05598e-09
-1.84764e-07
5.25777e-09
-1.85775e-07
4.43059e-09
-1.86578e-07
3.5757e-09
-1.87168e-07
2.69463e-09
-1.8754e-07
1.78915e-09
-1.87688e-07
8.61295e-10
-1.87608e-07
-8.6652e-11
-1.87298e-07
-1.05222e-09
-1.86753e-07
-2.03261e-09
-1.85972e-07
-3.02486e-09
-1.84953e-07
-4.02576e-09
-1.83696e-07
-5.03194e-09
-1.822e-07
-6.03983e-09
-1.80467e-07
-7.04571e-09
-1.78498e-07
-8.04572e-09
-1.76297e-07
-9.0359e-09
-1.73866e-07
-1.00122e-08
-1.71211e-07
-1.09706e-08
-1.68336e-07
-1.1907e-08
-1.65249e-07
-1.28173e-08
-1.61957e-07
-1.36975e-08
-1.58467e-07
-1.45437e-08
-1.54789e-07
-1.5352e-08
-1.50932e-07
-1.61188e-08
-1.46908e-07
-1.68407e-08
-1.42726e-07
-1.75143e-08
-1.384e-07
-1.81366e-08
-1.33942e-07
-1.8705e-08
-1.29364e-07
-1.92167e-08
-1.2468e-07
-1.96698e-08
-1.19905e-07
-2.00623e-08
-1.15051e-07
-2.03926e-08
-1.10135e-07
-2.06595e-08
-1.0517e-07
-2.08621e-08
-1.00171e-07
-2.09997e-08
-9.51533e-08
-2.1072e-08
-9.01318e-08
-2.10791e-08
-8.5121e-08
-2.10212e-08
-8.01358e-08
-2.08988e-08
-7.51907e-08
-2.07127e-08
-7.03e-08
-2.04638e-08
-6.54778e-08
-2.01533e-08
-6.07379e-08
-1.97826e-08
-5.60938e-08
-1.93531e-08
-5.15587e-08
-1.88663e-08
-4.71453e-08
-1.8324e-08
-4.28661e-08
-1.77278e-08
-3.87331e-08
-1.70797e-08
-3.47579e-08
-1.63816e-08
-3.09516e-08
-1.56355e-08
-2.73249e-08
-1.48434e-08
-2.3888e-08
-1.40076e-08
-2.06504e-08
-1.31306e-08
-1.76211e-08
-1.22151e-08
-1.48082e-08
-1.12642e-08
-1.22191e-08
-1.02813e-08
-9.86014e-09
-9.27063e-09
-7.73639e-09
-8.23712e-09
-5.85159e-09
-7.18669e-09
-4.20776e-09
-6.1265e-09
-2.80489e-09
-5.06526e-09
-1.6406e-09
-4.0136e-09
-7.09698e-10
-2.98444e-09
-3.69291e-12
-1.99344e-09
4.89712e-10
-1.05954e-09
7.87161e-10
-2.05489e-10
9.1024e-10
5.41644e-10
8.86079e-10
1.14992e-09
7.48026e-10
1.58209e-09
5.36492e-10
1.79534e-09
3.00088e-10
1.74122e-09
9.73743e-11
1.36589e-09
6.07798e-10
-3.20516e-10
9.30822e-10
-1.21277e-09
3.07891e-09
-2.62179e-09
5.33177e-09
-4.50017e-09
7.56778e-09
-6.80425e-09
9.70638e-09
-9.4925e-09
1.16941e-08
-1.25248e-08
1.34991e-08
-1.58626e-08
1.51066e-08
-1.94687e-08
1.65137e-08
-2.3308e-08
1.77263e-08
-2.73476e-08
1.87556e-08
-3.15571e-08
1.96166e-08
-3.59089e-08
2.03256e-08
-4.03779e-08
2.08997e-08
-4.49419e-08
2.13557e-08
-4.95814e-08
2.17094e-08
-5.42789e-08
2.19753e-08
-5.90197e-08
2.21665e-08
-6.37907e-08
2.22946e-08
-6.85807e-08
2.23696e-08
-7.338e-08
2.24e-08
-7.81804e-08
2.23929e-08
-8.29745e-08
2.23542e-08
-8.7756e-08
2.22885e-08
-9.25193e-08
2.21994e-08
-9.72592e-08
2.20897e-08
-1.01971e-07
2.19614e-08
-1.06651e-07
2.18156e-08
-1.11294e-07
2.1653e-08
-1.15896e-07
2.14739e-08
-1.20453e-07
2.12781e-08
-1.24962e-07
2.10649e-08
-1.29417e-07
2.08337e-08
-1.33813e-07
2.05833e-08
-1.38148e-07
2.03127e-08
-1.42414e-07
2.00205e-08
-1.46608e-07
1.97052e-08
-1.50724e-07
1.93654e-08
-1.54756e-07
1.89996e-08
-1.58698e-07
1.86063e-08
-1.62544e-07
1.8184e-08
-1.66286e-07
1.77311e-08
-1.6992e-07
1.72462e-08
-1.73437e-07
1.6728e-08
-1.7683e-07
1.61752e-08
-1.80092e-07
1.55865e-08
-1.83215e-07
1.49609e-08
-1.86192e-07
1.42975e-08
-1.89014e-07
1.35954e-08
-1.91673e-07
1.28541e-08
-1.94163e-07
1.20732e-08
-1.96473e-07
1.12525e-08
-1.98598e-07
1.03919e-08
-2.00528e-07
9.49175e-09
-2.02256e-07
8.55255e-09
-2.03775e-07
7.57508e-09
-2.05078e-07
6.5604e-09
-2.06157e-07
5.50989e-09
-2.07007e-07
4.42519e-09
-2.0762e-07
3.30827e-09
-2.07993e-07
2.16141e-09
-2.08119e-07
9.87203e-10
-2.07994e-07
-2.11469e-10
-2.07615e-07
-1.43143e-09
-2.06978e-07
-2.66918e-09
-2.06082e-07
-3.92096e-09
-2.04925e-07
-5.18278e-09
-2.03506e-07
-6.45037e-09
-2.01827e-07
-7.71927e-09
-1.99888e-07
-8.98483e-09
-1.97691e-07
-1.02423e-08
-1.95241e-07
-1.14866e-08
-1.9254e-07
-1.27129e-08
-1.89595e-07
-1.3916e-08
-1.86411e-07
-1.50909e-08
-1.82995e-07
-1.62326e-08
-1.79357e-07
-1.73361e-08
-1.75504e-07
-1.83965e-08
-1.71447e-07
-1.94091e-08
-1.67196e-07
-2.03695e-08
-1.62764e-07
-2.12733e-08
-1.58162e-07
-2.21165e-08
-1.53403e-07
-2.28955e-08
-1.48501e-07
-2.36069e-08
-1.4347e-07
-2.42475e-08
-1.38325e-07
-2.48147e-08
-1.33081e-07
-2.53062e-08
-1.27754e-07
-2.57201e-08
-1.22358e-07
-2.60549e-08
-1.16911e-07
-2.63095e-08
-1.11428e-07
-2.64831e-08
-1.05924e-07
-2.65753e-08
-1.00417e-07
-2.65863e-08
-9.49221e-08
-2.65162e-08
-8.9455e-08
-2.63658e-08
-8.40317e-08
-2.61361e-08
-7.86674e-08
-2.58281e-08
-7.33773e-08
-2.54434e-08
-6.81763e-08
-2.49836e-08
-6.30789e-08
-2.44505e-08
-5.80992e-08
-2.3846e-08
-5.3251e-08
-2.31722e-08
-4.85475e-08
-2.24313e-08
-4.40018e-08
-2.16255e-08
-3.96261e-08
-2.07573e-08
-3.54324e-08
-1.98291e-08
-3.14322e-08
-1.88436e-08
-2.76363e-08
-1.78035e-08
-2.40548e-08
-1.67121e-08
-2.06973e-08
-1.55726e-08
-1.75725e-08
-1.4389e-08
-1.46881e-08
-1.31656e-08
-1.20509e-08
-1.19079e-08
-9.66605e-09
-1.06219e-08
-7.53754e-09
-9.3152e-09
-5.66739e-09
-7.99665e-09
-4.05552e-09
-6.67713e-09
-2.69936e-09
-5.36976e-09
-1.59343e-09
-4.09037e-09
-7.28882e-10
-2.85798e-09
-9.30359e-11
-1.69539e-09
3.31168e-10
-6.29695e-10
5.65684e-10
3.07128e-10
6.37928e-10
1.07767e-09
5.81409e-10
1.63861e-09
4.3648e-10
1.94026e-09
2.51286e-10
1.92642e-09
8.30735e-11
1.5341e-09
6.9087e-10
-3.7122e-10
1.30204e-09
-1.39602e-09
4.1037e-09
-3.00203e-09
6.93778e-09
-5.12733e-09
9.69307e-09
-7.71675e-09
1.22958e-08
-1.072e-08
1.46973e-08
-1.40905e-08
1.68696e-08
-1.77848e-08
1.88009e-08
-2.17623e-08
2.04912e-08
-2.59853e-08
2.19493e-08
-3.04189e-08
2.31893e-08
-3.50314e-08
2.4229e-08
-3.97937e-08
2.50879e-08
-4.46799e-08
2.57859e-08
-4.96667e-08
2.63426e-08
-5.47337e-08
2.67764e-08
-5.98628e-08
2.71043e-08
-6.50381e-08
2.73418e-08
-7.0246e-08
2.75025e-08
-7.54745e-08
2.75981e-08
-8.07132e-08
2.76387e-08
-8.59531e-08
2.76328e-08
-9.11863e-08
2.75873e-08
-9.64057e-08
2.75079e-08
-1.01605e-07
2.73988e-08
-1.06779e-07
2.72635e-08
-1.11922e-07
2.71041e-08
-1.17028e-07
2.69224e-08
-1.22095e-07
2.67191e-08
-1.27115e-07
2.64946e-08
-1.32086e-07
2.62486e-08
-1.37001e-07
2.59806e-08
-1.41857e-07
2.56895e-08
-1.46648e-07
2.53743e-08
-1.51369e-07
2.50336e-08
-1.56014e-07
2.46657e-08
-1.60578e-07
2.42691e-08
-1.65055e-07
2.38419e-08
-1.69438e-07
2.33824e-08
-1.7372e-07
2.28888e-08
-1.77895e-07
2.23593e-08
-1.81956e-07
2.17921e-08
-1.85895e-07
2.11855e-08
-1.89705e-07
2.05379e-08
-1.93378e-07
1.98478e-08
-1.96905e-07
1.91139e-08
-2.00279e-07
1.83348e-08
-2.03491e-07
1.75094e-08
-2.06533e-07
1.6637e-08
-2.09396e-07
1.57168e-08
-2.12071e-07
1.47484e-08
-2.1455e-07
1.37317e-08
-2.16825e-07
1.26667e-08
-2.18887e-07
1.15538e-08
-2.20728e-07
1.03936e-08
-2.2234e-07
9.18739e-09
-2.23716e-07
7.93634e-09
-2.24848e-07
6.64224e-09
-2.2573e-07
5.30717e-09
-2.26356e-07
3.93359e-09
-2.26719e-07
2.52433e-09
-2.26814e-07
1.08259e-09
-2.26637e-07
-3.88061e-10
-2.26185e-07
-1.88371e-09
-2.25454e-07
-3.40008e-09
-2.24443e-07
-4.93257e-09
-2.23149e-07
-6.4763e-09
-2.21573e-07
-8.02607e-09
-2.19716e-07
-9.57646e-09
-2.17579e-07
-1.11218e-08
-2.15165e-07
-1.26563e-08
-2.12478e-07
-1.4174e-08
-2.09522e-07
-1.56689e-08
-2.06303e-07
-1.71347e-08
-2.02828e-07
-1.85655e-08
-1.99106e-07
-1.99551e-08
-1.95144e-07
-2.12976e-08
-1.90954e-07
-2.25871e-08
-1.86545e-07
-2.38181e-08
-1.81929e-07
-2.4985e-08
-1.7712e-07
-2.60829e-08
-1.72129e-07
-2.71069e-08
-1.66972e-07
-2.80526e-08
-1.61663e-07
-2.89158e-08
-1.56218e-07
-2.96931e-08
-1.50651e-07
-3.03812e-08
-1.4498e-07
-3.09774e-08
-1.3922e-07
-3.14795e-08
-1.3339e-07
-3.18856e-08
-1.27505e-07
-3.21945e-08
-1.21583e-07
-3.24052e-08
-1.1564e-07
-3.25175e-08
-1.09695e-07
-3.25314e-08
-1.03764e-07
-3.24472e-08
-9.78644e-08
-3.22658e-08
-9.2012e-08
-3.19884e-08
-8.62236e-08
-3.16165e-08
-8.05153e-08
-3.11517e-08
-7.49028e-08
-3.05961e-08
-6.94014e-08
-2.99519e-08
-6.4026e-08
-2.92213e-08
-5.87913e-08
-2.8407e-08
-5.37111e-08
-2.75114e-08
-4.87991e-08
-2.65375e-08
-4.40683e-08
-2.54881e-08
-3.95313e-08
-2.43661e-08
-3.52e-08
-2.31749e-08
-3.10857e-08
-2.19178e-08
-2.7199e-08
-2.05987e-08
-2.355e-08
-1.92216e-08
-2.01475e-08
-1.77914e-08
-1.69996e-08
-1.63135e-08
-1.41131e-08
-1.47944e-08
-1.14936e-08
-1.32415e-08
-9.14486e-09
-1.16639e-08
-7.06894e-09
-1.00726e-08
-5.26566e-09
-8.48041e-09
-3.73228e-09
-6.90314e-09
-2.46311e-09
-5.35954e-09
-1.44906e-09
-3.87203e-09
-6.77222e-10
-2.46724e-09
-1.30345e-10
-1.17658e-09
2.1363e-10
-3.68491e-11
3.82093e-10
9.09206e-10
4.08318e-10
1.61238e-09
3.32086e-10
2.0165e-09
2.00404e-10
2.0581e-09
6.83737e-11
1.66613e-09
7.59242e-10
-4.17529e-10