/*--------------------------------*- C++ -*----------------------------------*\
| =========                 |                                                 |
| \\      /  F ield         | OpenFOAM: The Open Source CFD Toolbox           |
|  \\    /   O peration     | Version:  2112                                  |
|   \\  /    A nd           | Website:  www.openfoam.com                      |
|    \\/     M anipulation  |                                                 |
\*---------------------------------------------------------------------------*/
FoamFile
{
    version     2.0;
    format      ascii;
    arch        "LSB;label=32;scalar=64";
    class       volVectorField;
    location    "0.6";
    object      U;
}
// * * * * * * * * * * * * * * * * * * * * * * * * * * * * * * * * * * * * * //

dimensions      [0 1 -1 0 0 0 0];

internalField   nonuniform List<vector> 
16641
(
(3.22656e-06 -3.32059e-06 0)
(9.38398e-06 -3.70481e-06 0)
(1.17504e-05 -1.46767e-06 0)
(6.73017e-06 1.41195e-06 0)
(-6.71774e-06 4.11931e-06 0)
(-2.80935e-05 6.58313e-06 0)
(-5.63399e-05 8.65823e-06 0)
(-9.05584e-05 1.03516e-05 0)
(-0.000129778 1.17045e-05 0)
(-0.000173093 1.27647e-05 0)
(-0.000219708 1.35814e-05 0)
(-0.000268938 1.42e-05 0)
(-0.000320199 1.46579e-05 0)
(-0.000373005 1.49847e-05 0)
(-0.000426951 1.52065e-05 0)
(-0.000481709 1.53462e-05 0)
(-0.000537015 1.54223e-05 0)
(-0.000592657 1.54502e-05 0)
(-0.000648471 1.54424e-05 0)
(-0.000704328 1.54084e-05 0)
(-0.000760129 1.53558e-05 0)
(-0.0008158 1.52904e-05 0)
(-0.000871284 1.52163e-05 0)
(-0.000926539 1.51363e-05 0)
(-0.000981533 1.50528e-05 0)
(-0.00103624 1.49672e-05 0)
(-0.00109064 1.48798e-05 0)
(-0.00114471 1.47904e-05 0)
(-0.00119844 1.46982e-05 0)
(-0.0012518 1.46027e-05 0)
(-0.00130478 1.45031e-05 0)
(-0.00135735 1.4398e-05 0)
(-0.00140947 1.4286e-05 0)
(-0.00146112 1.41654e-05 0)
(-0.00151226 1.40345e-05 0)
(-0.00156284 1.38919e-05 0)
(-0.00161282 1.3736e-05 0)
(-0.00166215 1.35649e-05 0)
(-0.00171075 1.33769e-05 0)
(-0.00175858 1.31703e-05 0)
(-0.00180556 1.29434e-05 0)
(-0.00185161 1.26946e-05 0)
(-0.00189666 1.24222e-05 0)
(-0.00194062 1.21247e-05 0)
(-0.00198339 1.18005e-05 0)
(-0.00202488 1.14481e-05 0)
(-0.002065 1.10661e-05 0)
(-0.00210363 1.06532e-05 0)
(-0.00214068 1.02083e-05 0)
(-0.00217602 9.73032e-06 0)
(-0.00220954 9.21831e-06 0)
(-0.00224113 8.67156e-06 0)
(-0.00227067 8.08946e-06 0)
(-0.00229803 7.47162e-06 0)
(-0.00232311 6.81783e-06 0)
(-0.00234577 6.12823e-06 0)
(-0.0023659 5.4032e-06 0)
(-0.00238338 4.64334e-06 0)
(-0.0023981 3.84953e-06 0)
(-0.00240995 3.0229e-06 0)
(-0.00241882 2.16494e-06 0)
(-0.00242461 1.2775e-06 0)
(-0.00242724 3.62773e-07 0)
(-0.00242661 -5.76622e-07 0)
(-0.00242266 -1.53821e-06 0)
(-0.00241532 -2.51877e-06 0)
(-0.00240453 -3.51482e-06 0)
(-0.00239026 -4.52256e-06 0)
(-0.00237247 -5.53803e-06 0)
(-0.00235115 -6.55699e-06 0)
(-0.0023263 -7.57493e-06 0)
(-0.00229793 -8.58721e-06 0)
(-0.00226609 -9.58903e-06 0)
(-0.0022308 -1.05754e-05 0)
(-0.00219214 -1.15412e-05 0)
(-0.00215018 -1.24815e-05 0)
(-0.00210503 -1.33912e-05 0)
(-0.00205679 -1.42654e-05 0)
(-0.00200559 -1.50992e-05 0)
(-0.00195158 -1.58879e-05 0)
(-0.00189491 -1.6627e-05 0)
(-0.00183576 -1.73123e-05 0)
(-0.00177432 -1.794e-05 0)
(-0.00171078 -1.85064e-05 0)
(-0.00164536 -1.90083e-05 0)
(-0.00157827 -1.94431e-05 0)
(-0.00150974 -1.98084e-05 0)
(-0.00144 -2.01021e-05 0)
(-0.0013693 -2.03229e-05 0)
(-0.00129789 -2.04699e-05 0)
(-0.001226 -2.05425e-05 0)
(-0.0011539 -2.05408e-05 0)
(-0.00108182 -2.04649e-05 0)
(-0.00101002 -2.03158e-05 0)
(-0.00093874 -2.00947e-05 0)
(-0.000868222 -1.9803e-05 0)
(-0.000798705 -1.94426e-05 0)
(-0.000730418 -1.90156e-05 0)
(-0.000663586 -1.85242e-05 0)
(-0.000598427 -1.7971e-05 0)
(-0.000535151 -1.73587e-05 0)
(-0.00047396 -1.669e-05 0)
(-0.000415047 -1.59675e-05 0)
(-0.000358599 -1.51942e-05 0)
(-0.000304791 -1.43727e-05 0)
(-0.000253791 -1.35059e-05 0)
(-0.00020576 -1.25963e-05 0)
(-0.000160848 -1.16468e-05 0)
(-0.000119197 -1.06598e-05 0)
(-8.09398e-05 -9.63796e-06 0)
(-4.62003e-05 -8.58396e-06 0)
(-1.50913e-05 -7.50064e-06 0)
(1.22838e-05 -6.39155e-06 0)
(3.58352e-05 -5.25881e-06 0)
(5.54892e-05 -4.10641e-06 0)
(7.11887e-05 -2.94004e-06 0)
(8.29004e-05 -1.76545e-06 0)
(9.06194e-05 -5.90545e-07 0)
(9.43786e-05 5.73645e-07 0)
(9.4261e-05 1.71163e-06 0)
(9.04168e-05 2.80215e-06 0)
(8.30877e-05 3.81287e-06 0)
(7.26423e-05 4.69445e-06 0)
(5.96295e-05 5.37018e-06 0)
(4.4858e-05 5.7204e-06 0)
(2.9494e-05 5.56262e-06 0)
(1.51557e-05 4.6237e-06 0)
(4.13221e-06 2.59091e-06 0)
(-1.06143e-07 -1.00124e-07 0)
(3.60255e-06 -9.38552e-06 0)
(6.88539e-06 -6.9732e-06 0)
(-1.75571e-06 4.89472e-06 0)
(-2.7755e-05 1.98388e-05 0)
(-7.29193e-05 3.48787e-05 0)
(-0.000136805 4.89179e-05 0)
(-0.000217858 6.12995e-05 0)
(-0.000314142 7.18728e-05 0)
(-0.000423552 8.06999e-05 0)
(-0.000544028 8.7929e-05 0)
(-0.000673659 9.3745e-05 0)
(-0.000810733 9.83415e-05 0)
(-0.000953747 0.000101903 0)
(-0.00110141 0.000104598 0)
(-0.00125263 0.000106578 0)
(-0.00140649 0.000107973 0)
(-0.00156223 0.000108897 0)
(-0.00171925 0.000109446 0)
(-0.00187705 0.000109701 0)
(-0.00203521 0.000109727 0)
(-0.00219344 0.000109577 0)
(-0.00235148 0.000109291 0)
(-0.00250914 0.000108903 0)
(-0.00266625 0.000108435 0)
(-0.0028227 0.000107906 0)
(-0.00297837 0.000107327 0)
(-0.00313319 0.000106705 0)
(-0.00328707 0.000106042 0)
(-0.00343994 0.000105338 0)
(-0.00359173 0.000104591 0)
(-0.00374234 0.000103794 0)
(-0.0038917 0.000102944 0)
(-0.00403971 0.00010203 0)
(-0.00418627 0.000101045 0)
(-0.00433126 9.998e-05 0)
(-0.00447455 9.88243e-05 0)
(-0.004616 9.7568e-05 0)
(-0.00475545 9.62008e-05 0)
(-0.00489274 9.47121e-05 0)
(-0.00502768 9.30913e-05 0)
(-0.00516007 9.13279e-05 0)
(-0.00528971 8.94117e-05 0)
(-0.00541636 8.73326e-05 0)
(-0.00553979 8.5081e-05 0)
(-0.00565974 8.26472e-05 0)
(-0.00577596 8.00223e-05 0)
(-0.00588817 7.71981e-05 0)
(-0.00599609 7.41668e-05 0)
(-0.00609941 7.09216e-05 0)
(-0.00619785 6.74564e-05 0)
(-0.00629108 6.37661e-05 0)
(-0.0063788 5.98469e-05 0)
(-0.00646068 5.5696e-05 0)
(-0.00653641 5.13118e-05 0)
(-0.00660566 4.66944e-05 0)
(-0.00666811 4.18455e-05 0)
(-0.00672345 3.67683e-05 0)
(-0.00677138 3.14677e-05 0)
(-0.00681158 2.59506e-05 0)
(-0.00684378 2.02257e-05 0)
(-0.0068677 1.43034e-05 0)
(-0.00688308 8.19674e-06 0)
(-0.00688969 1.92025e-06 0)
(-0.0068873 -4.50935e-06 0)
(-0.00687574 -1.10733e-05 0)
(-0.00685483 -1.77507e-05 0)
(-0.00682445 -2.45193e-05 0)
(-0.00678449 -3.13545e-05 0)
(-0.00673488 -3.82304e-05 0)
(-0.00667561 -4.51195e-05 0)
(-0.00660667 -5.19931e-05 0)
(-0.00652811 -5.88212e-05 0)
(-0.00644004 -6.55731e-05 0)
(-0.00634258 -7.22174e-05 0)
(-0.0062359 -7.87222e-05 0)
(-0.00612023 -8.50555e-05 0)
(-0.00599582 -9.11857e-05 0)
(-0.00586299 -9.70815e-05 0)
(-0.00572207 -0.000102713 0)
(-0.00557347 -0.000108049 0)
(-0.00541759 -0.000113064 0)
(-0.0052549 -0.000117729 0)
(-0.0050859 -0.000122022 0)
(-0.00491112 -0.000125918 0)
(-0.00473111 -0.000129398 0)
(-0.00454645 -0.000132445 0)
(-0.00435776 -0.000135042 0)
(-0.00416565 -0.000137178 0)
(-0.00397077 -0.000138843 0)
(-0.00377376 -0.00014003 0)
(-0.00357528 -0.000140734 0)
(-0.003376 -0.000140955 0)
(-0.00317658 -0.000140693 0)
(-0.00297768 -0.000139953 0)
(-0.00277997 -0.000138739 0)
(-0.00258408 -0.000137059 0)
(-0.00239066 -0.000134925 0)
(-0.00220033 -0.000132346 0)
(-0.00201369 -0.000129336 0)
(-0.00183136 -0.000125908 0)
(-0.00165389 -0.000122079 0)
(-0.00148184 -0.000117862 0)
(-0.00131576 -0.000113274 0)
(-0.00115614 -0.000108332 0)
(-0.00100349 -0.000103051 0)
(-0.000858285 -9.74489e-05 0)
(-0.000720964 -9.15415e-05 0)
(-0.00059196 -8.53459e-05 0)
(-0.000471675 -7.88795e-05 0)
(-0.000360489 -7.21601e-05 0)
(-0.000258756 -6.5207e-05 0)
(-0.000166799 -5.80414e-05 0)
(-8.4909e-05 -5.06878e-05 0)
(-1.33369e-05 -4.31729e-05 0)
(4.77109e-05 -3.55305e-05 0)
(9.80862e-05 -2.78021e-05 0)
(0.000137714 -2.00403e-05 0)
(0.000166606 -1.23125e-05 0)
(0.000184891 -4.70679e-06 0)
(0.000192845 2.66004e-06 0)
(0.000190936 9.63144e-06 0)
(0.000179881 1.59949e-05 0)
(0.000160723 2.14587e-05 0)
(0.000134928 2.562e-05 0)
(0.000104506 2.79277e-05 0)
(7.21039e-05 2.76532e-05 0)
(4.1019e-05 2.38851e-05 0)
(1.56869e-05 1.57542e-05 0)
(2.55766e-06 4.1206e-06 0)
(1.49727e-06 -1.18051e-05 0)
(-4.93881e-06 1.71895e-06 0)
(-3.29987e-05 3.26917e-05 0)
(-8.66219e-05 7.02356e-05 0)
(-0.000167349 0.000108674 0)
(-0.000274724 0.000145017 0)
(-0.000406933 0.000177738 0)
(-0.000561485 0.000206259 0)
(-0.000735607 0.00023053 0)
(-0.000926497 0.000250774 0)
(-0.00113148 0.000267356 0)
(-0.00134812 0.000280701 0)
(-0.00157421 0.000291241 0)
(-0.00180783 0.00029939 0)
(-0.00204733 0.000305531 0)
(-0.0022913 0.000310005 0)
(-0.00253856 0.000313113 0)
(-0.00278812 0.000315113 0)
(-0.0030392 0.000316222 0)
(-0.00329111 0.000316624 0)
(-0.00354334 0.000316466 0)
(-0.00379545 0.000315868 0)
(-0.00404709 0.000314922 0)
(-0.00429797 0.000313701 0)
(-0.00454788 0.000312256 0)
(-0.0047966 0.000310626 0)
(-0.00504398 0.000308831 0)
(-0.00528984 0.000306885 0)
(-0.00553406 0.000304791 0)
(-0.00577649 0.000302543 0)
(-0.00601697 0.000300132 0)
(-0.00625535 0.000297541 0)
(-0.00649147 0.000294753 0)
(-0.00672515 0.000291745 0)
(-0.00695619 0.000288492 0)
(-0.00718437 0.000284969 0)
(-0.00740946 0.000281149 0)
(-0.00763121 0.000277004 0)
(-0.00784935 0.000272506 0)
(-0.00806358 0.000267626 0)
(-0.00827358 0.000262337 0)
(-0.00847902 0.00025661 0)
(-0.00867954 0.000250419 0)
(-0.00887478 0.000243738 0)
(-0.00906433 0.000236542 0)
(-0.00924779 0.000228806 0)
(-0.00942472 0.000220509 0)
(-0.00959469 0.000211631 0)
(-0.00975723 0.000202153 0)
(-0.00991189 0.000192062 0)
(-0.0100582 0.000181343 0)
(-0.0101956 0.000169988 0)
(-0.0103237 0.00015799 0)
(-0.010442 0.000145347 0)
(-0.01055 0.000132061 0)
(-0.0106472 0.000118138 0)
(-0.0107331 0.000103588 0)
(-0.0108072 8.84265e-05 0)
(-0.0108692 7.26741e-05 0)
(-0.0109186 5.63563e-05 0)
(-0.0109549 3.95039e-05 0)
(-0.0109778 2.21533e-05 0)
(-0.0109869 4.34627e-06 0)
(-0.010982 -1.38703e-05 0)
(-0.0109627 -3.24431e-05 0)
(-0.0109288 -5.13146e-05 0)
(-0.0108802 -7.04221e-05 0)
(-0.0108166 -8.96983e-05 0)
(-0.010738 -0.000109071 0)
(-0.0106444 -0.000128465 0)
(-0.0105358 -0.000147802 0)
(-0.0104123 -0.000166998 0)
(-0.010274 -0.000185971 0)
(-0.0101212 -0.000204634 0)
(-0.00995406 -0.000222901 0)
(-0.00977304 -0.000240686 0)
(-0.0095785 -0.000257901 0)
(-0.00937092 -0.000274462 0)
(-0.00915082 -0.000290288 0)
(-0.00891882 -0.000305297 0)
(-0.00867554 -0.000319415 0)
(-0.00842171 -0.00033257 0)
(-0.00815808 -0.000344694 0)
(-0.00788545 -0.000355728 0)
(-0.00760467 -0.000365616 0)
(-0.00731663 -0.000374309 0)
(-0.00702224 -0.000381768 0)
(-0.00672245 -0.000387956 0)
(-0.00641822 -0.000392847 0)
(-0.00611056 -0.000396422 0)
(-0.00580045 -0.000398668 0)
(-0.00548891 -0.000399579 0)
(-0.00517695 -0.000399157 0)
(-0.00486557 -0.00039741 0)
(-0.00455577 -0.000394352 0)
(-0.00424855 -0.000390003 0)
(-0.00394487 -0.000384386 0)
(-0.00364571 -0.00037753 0)
(-0.00335198 -0.000369467 0)
(-0.00306462 -0.000360234 0)
(-0.0027845 -0.000349869 0)
(-0.00251248 -0.00033841 0)
(-0.0022494 -0.000325899 0)
(-0.00199607 -0.000312379 0)
(-0.00175324 -0.000297892 0)
(-0.00152167 -0.000282483 0)
(-0.00130205 -0.000266197 0)
(-0.00109508 -0.00024908 0)
(-0.000901375 -0.000231179 0)
(-0.00072155 -0.000212546 0)
(-0.00055616 -0.000193237 0)
(-0.000405717 -0.000173314 0)
(-0.00027068 -0.000152849 0)
(-0.000151441 -0.000131927 0)
(-4.83169e-05 -0.000110651 0)
(3.84703e-05 -8.91486e-05 0)
(0.000108817 -6.75786e-05 0)
(0.000162766 -4.6145e-05 0)
(0.000200541 -2.51084e-05 0)
(0.0002226 -4.80614e-06 0)
(0.00022969 1.43223e-05 0)
(0.000222922 3.17037e-05 0)
(0.000203863 4.65899e-05 0)
(0.000174638 5.80097e-05 0)
(0.000138055 6.47266e-05 0)
(9.7644e-05 6.52334e-05 0)
(5.76137e-05 5.78342e-05 0)
(2.36634e-05 4.10218e-05 0)
(4.53321e-06 1.50406e-05 0)
(-1.39827e-06 -6.73381e-06 0)
(-2.03148e-05 2.81272e-05 0)
(-7.19062e-05 8.65843e-05 0)
(-0.000156863 0.000154359 0)
(-0.000275569 0.000223399 0)
(-0.000427201 0.000288997 0)
(-0.00060959 0.000348621 0)
(-0.000819833 0.00040116 0)
(-0.00105471 0.000446368 0)
(-0.00131092 0.000484502 0)
(-0.00158527 0.000516095 0)
(-0.00187481 0.000541815 0)
(-0.00217682 0.000562381 0)
(-0.00248891 0.000578498 0)
(-0.00280898 0.000590835 0)
(-0.00313523 0.000599997 0)
(-0.00346611 0.000606525 0)
(-0.00380034 0.00061089 0)
(-0.00413684 0.000613494 0)
(-0.0044747 0.000614677 0)
(-0.00481319 0.000614718 0)
(-0.00515171 0.000613843 0)
(-0.00548975 0.000612233 0)
(-0.0058269 0.000610027 0)
(-0.00616281 0.000607331 0)
(-0.00649718 0.000604217 0)
(-0.00682975 0.000600735 0)
(-0.00716029 0.000596912 0)
(-0.00748857 0.000592758 0)
(-0.00781437 0.000588268 0)
(-0.00813746 0.000583428 0)
(-0.00845763 0.000578211 0)
(-0.00877462 0.000572584 0)
(-0.00908819 0.000566508 0)
(-0.00939804 0.00055994 0)
(-0.00970389 0.000552832 0)
(-0.0100054 0.000545137 0)
(-0.0103022 0.000536803 0)
(-0.010594 0.000527778 0)
(-0.0108804 0.000518011 0)
(-0.0111608 0.00050745 0)
(-0.011435 0.000496044 0)
(-0.0117023 0.000483744 0)
(-0.0119624 0.000470501 0)
(-0.0122146 0.000456271 0)
(-0.0124585 0.000441009 0)
(-0.0126934 0.000424678 0)
(-0.0129189 0.000407239 0)
(-0.0131342 0.000388663 0)
(-0.0133389 0.000368921 0)
(-0.0135322 0.000347993 0)
(-0.0137136 0.000325863 0)
(-0.0138824 0.000302521 0)
(-0.0140379 0.000277967 0)
(-0.0141797 0.000252204 0)
(-0.0143069 0.000225248 0)
(-0.0144191 0.000197121 0)
(-0.0145156 0.000167853 0)
(-0.0145959 0.000137486 0)
(-0.0146593 0.00010607 0)
(-0.0147055 7.36651e-05 0)
(-0.0147339 4.03422e-05 0)
(-0.0147441 6.18152e-06 0)
(-0.0147356 -2.87267e-05 0)
(-0.0147082 -6.42819e-05 0)
(-0.0146616 -0.000100374 0)
(-0.0145955 -0.000136885 0)
(-0.0145098 -0.000173687 0)
(-0.0144044 -0.000210646 0)
(-0.0142793 -0.000247619 0)
(-0.0141345 -0.000284458 0)
(-0.0139702 -0.000321011 0)
(-0.0137865 -0.00035712 0)
(-0.0135839 -0.000392626 0)
(-0.0133626 -0.000427368 0)
(-0.0131231 -0.000461185 0)
(-0.0128659 -0.000493916 0)
(-0.0125918 -0.000525407 0)
(-0.0123013 -0.000555503 0)
(-0.0119952 -0.000584057 0)
(-0.0116745 -0.00061093 0)
(-0.0113399 -0.000635989 0)
(-0.0109926 -0.000659111 0)
(-0.0106334 -0.000680183 0)
(-0.0102636 -0.000699105 0)
(-0.00988428 -0.000715786 0)
(-0.00949657 -0.000730149 0)
(-0.00910171 -0.000742131 0)
(-0.00870096 -0.000751681 0)
(-0.00829558 -0.000758762 0)
(-0.00788685 -0.00076335 0)
(-0.00747608 -0.000765433 0)
(-0.00706456 -0.000765011 0)
(-0.00665359 -0.000762099 0)
(-0.00624445 -0.000756719 0)
(-0.00583842 -0.000748906 0)
(-0.00543676 -0.000738701 0)
(-0.00504071 -0.000726154 0)
(-0.00465148 -0.000711324 0)
(-0.00427025 -0.000694274 0)
(-0.00389818 -0.000675069 0)
(-0.00353639 -0.000653782 0)
(-0.00318597 -0.000630487 0)
(-0.00284796 -0.00060526 0)
(-0.00252338 -0.00057818 0)
(-0.0022132 -0.000549326 0)
(-0.00191835 -0.000518781 0)
(-0.00163973 -0.000486633 0)
(-0.00137818 -0.000452971 0)
(-0.0011345 -0.000417894 0)
(-0.000909415 -0.000381511 0)
(-0.000703609 -0.000343943 0)
(-0.000517681 -0.000305335 0)
(-0.000352146 -0.000265855 0)
(-0.000207411 -0.00022571 0)
(-8.3757e-05 -0.000185152 0)
(1.86956e-05 -0.000144497 0)
(0.000100018 -0.000104143 0)
(0.000160522 -6.45935e-05 0)
(0.000200813 -2.64859e-05 0)
(0.00022186 9.36663e-06 0)
(0.000225071 4.19316e-05 0)
(0.000212383 6.99034e-05 0)
(0.000186365 9.16486e-05 0)
(0.000150323 0.000105166 0)
(0.000108324 0.000108102 0)
(6.51466e-05 9.78638e-05 0)
(2.73656e-05 7.19928e-05 0)
(5.41357e-06 2.91752e-05 0)
(-4.24731e-06 7.06676e-06 0)
(-3.64048e-05 7.47268e-05 0)
(-0.000113271 0.000169109 0)
(-0.000231232 0.000273925 0)
(-0.000388962 0.000379431 0)
(-0.000584956 0.000479612 0)
(-0.000816528 0.000571061 0)
(-0.00108034 0.00065217 0)
(-0.00137279 0.000722486 0)
(-0.00169021 0.000782279 0)
(-0.00202905 0.000832235 0)
(-0.00238596 0.00087327 0)
(-0.00275787 0.000906391 0)
(-0.00314203 0.00093262 0)
(-0.00353599 0.000952932 0)
(-0.00393765 0.00096823 0)
(-0.00434517 0.000979327 0)
(-0.004757 0.000986938 0)
(-0.00517183 0.000991682 0)
(-0.00558855 0.000994082 0)
(-0.00600624 0.000994575 0)
(-0.00642412 0.00099352 0)
(-0.00684156 0.000991202 0)
(-0.007258 0.000987845 0)
(-0.00767299 0.000983619 0)
(-0.00808613 0.000978648 0)
(-0.00849706 0.000973013 0)
(-0.00890545 0.000966764 0)
(-0.009311 0.000959923 0)
(-0.0097134 0.000952487 0)
(-0.0101124 0.000944436 0)
(-0.0105076 0.000935735 0)
(-0.0108987 0.000926334 0)
(-0.0112855 0.000916177 0)
(-0.0116675 0.000905197 0)
(-0.0120443 0.000893324 0)
(-0.0124156 0.000880482 0)
(-0.0127809 0.000866595 0)
(-0.0131397 0.000851582 0)
(-0.0134915 0.000835365 0)
(-0.0138359 0.000817864 0)
(-0.0141723 0.000799001 0)
(-0.0145 0.000778699 0)
(-0.0148185 0.000756886 0)
(-0.0151271 0.000733493 0)
(-0.0154253 0.000708453 0)
(-0.0157122 0.000681707 0)
(-0.0159872 0.000653201 0)
(-0.0162495 0.000622888 0)
(-0.0164985 0.000590728 0)
(-0.0167334 0.000556692 0)
(-0.0169535 0.000520757 0)
(-0.0171579 0.000482914 0)
(-0.017346 0.000443163 0)
(-0.0175169 0.000401515 0)
(-0.01767 0.000357998 0)
(-0.0178046 0.000312649 0)
(-0.0179199 0.000265521 0)
(-0.0180152 0.000216683 0)
(-0.01809 0.000166217 0)
(-0.0181436 0.000114221 0)
(-0.0181755 6.08096e-05 0)
(-0.0181852 6.11242e-06 0)
(-0.0181722 -4.97271e-05 0)
(-0.0181362 -0.000106548 0)
(-0.0180768 -0.000164176 0)
(-0.0179938 -0.000222423 0)
(-0.0178871 -0.000281089 0)
(-0.0177565 -0.00033996 0)
(-0.017602 -0.000398814 0)
(-0.0174238 -0.000457419 0)
(-0.017222 -0.000515534 0)
(-0.016997 -0.000572915 0)
(-0.016749 -0.000629313 0)
(-0.0164786 -0.000684478 0)
(-0.0161863 -0.000738158 0)
(-0.0158728 -0.000790106 0)
(-0.0155388 -0.000840079 0)
(-0.0151852 -0.000887841 0)
(-0.0148129 -0.000933163 0)
(-0.014423 -0.000975828 0)
(-0.0140165 -0.00101563 0)
(-0.0135946 -0.00105239 0)
(-0.0131586 -0.00108591 0)
(-0.0127097 -0.00111606 0)
(-0.0122493 -0.00114269 0)
(-0.0117788 -0.00116568 0)
(-0.0112997 -0.00118493 0)
(-0.0108134 -0.00120036 0)
(-0.0103215 -0.00121192 0)
(-0.00982542 -0.00121956 0)
(-0.00932674 -0.00122327 0)
(-0.00882701 -0.00122305 0)
(-0.00832776 -0.00121891 0)
(-0.00783053 -0.0012109 0)
(-0.00733681 -0.00119905 0)
(-0.00684812 -0.00118343 0)
(-0.00636592 -0.00116412 0)
(-0.00589166 -0.00114121 0)
(-0.00542675 -0.00111478 0)
(-0.00497257 -0.00108494 0)
(-0.00453046 -0.00105179 0)
(-0.00410171 -0.00101545 0)
(-0.0036876 -0.000976042 0)
(-0.00328933 -0.000933673 0)
(-0.00290808 -0.000888472 0)
(-0.00254497 -0.000840566 0)
(-0.00220107 -0.000790092 0)
(-0.0018774 -0.000737194 0)
(-0.00157493 -0.000682028 0)
(-0.00129454 -0.00062477 0)
(-0.00103703 -0.000565619 0)
(-0.000803138 -0.00050481 0)
(-0.000593468 -0.000442621 0)
(-0.000408503 -0.000379388 0)
(-0.000248567 -0.000315526 0)
(-0.000113794 -0.000251546 0)
(-4.08414e-06 -0.000188085 0)
(8.09431e-05 -0.000125939 0)
(0.000142009 -6.61026e-05 0)
(0.000180247 -9.81885e-06 0)
(0.000197272 4.13662e-05 0)
(0.000195275 8.55428e-05 0)
(0.000177106 0.000120379 0)
(0.000146382 0.000143085 0)
(0.0001075 0.000150418 0)
(6.56165e-05 0.000138791 0)
(2.78587e-05 0.00010453 0)
(5.55012e-06 4.43231e-05 0)
(-6.98827e-06 2.95143e-05 0)
(-5.2212e-05 0.000141947 0)
(-0.000154365 0.000281035 0)
(-0.000305455 0.000429677 0)
(-0.000502112 0.000577154 0)
(-0.000741876 0.00071661 0)
(-0.00102137 0.000844032 0)
(-0.00133673 0.000957447 0)
(-0.00168398 0.00105626 0)
(-0.00205912 0.00114078 0)
(-0.00245829 0.00121184 0)
(-0.00287788 0.00127062 0)
(-0.00331452 0.00131843 0)
(-0.00376521 0.00135659 0)
(-0.00422724 0.00138643 0)
(-0.00469826 0.00140914 0)
(-0.00517621 0.00142584 0)
(-0.00565932 0.00143751 0)
(-0.00614609 0.001445 0)
(-0.00663523 0.00144904 0)
(-0.00712566 0.00145024 0)
(-0.00761645 0.00144912 0)
(-0.00810684 0.00144607 0)
(-0.00859616 0.00144142 0)
(-0.00908383 0.00143541 0)
(-0.00956935 0.00142824 0)
(-0.0100523 0.00142001 0)
(-0.0105322 0.00141081 0)
(-0.0110087 0.00140067 0)
(-0.0114815 0.0013896 0)
(-0.01195 0.00137757 0)
(-0.0124141 0.00136453 0)
(-0.0128732 0.00135044 0)
(-0.0133269 0.00133519 0)
(-0.0137748 0.00131871 0)
(-0.0142165 0.0013009 0)
(-0.0146514 0.00128166 0)
(-0.015079 0.00126087 0)
(-0.0154989 0.00123843 0)
(-0.0159102 0.00121422 0)
(-0.0163126 0.00118815 0)
(-0.0167052 0.00116009 0)
(-0.0170875 0.00112994 0)
(-0.0174587 0.00109761 0)
(-0.017818 0.00106299 0)
(-0.0181648 0.001026 0)
(-0.0184981 0.000986555 0)
(-0.0188173 0.00094458 0)
(-0.0191215 0.000900014 0)
(-0.0194098 0.000852806 0)
(-0.0196813 0.000802916 0)
(-0.0199353 0.000750318 0)
(-0.0201709 0.000695003 0)
(-0.0203872 0.000636975 0)
(-0.0205833 0.000576259 0)
(-0.0207585 0.000512895 0)
(-0.0209119 0.000446944 0)
(-0.0210428 0.000378486 0)
(-0.0211503 0.000307622 0)
(-0.0212339 0.000234476 0)
(-0.0212927 0.000159192 0)
(-0.0213263 8.19351e-05 0)
(-0.0213341 2.89386e-06 0)
(-0.0213156 -7.77205e-05 0)
(-0.0212703 -0.00015968 0)
(-0.021198 -0.000242733 0)
(-0.0210984 -0.000326612 0)
(-0.0209714 -0.000411029 0)
(-0.0208168 -0.00049568 0)
(-0.0206347 -0.00058025 0)
(-0.0204253 -0.000664408 0)
(-0.0201888 -0.000747815 0)
(-0.0199255 -0.000830126 0)
(-0.0196359 -0.000910988 0)
(-0.0193205 -0.000990049 0)
(-0.0189801 -0.00106696 0)
(-0.0186154 -0.00114136 0)
(-0.0182272 -0.00121293 0)
(-0.0178166 -0.00128131 0)
(-0.0173846 -0.00134621 0)
(-0.0169324 -0.00140731 0)
(-0.0164613 -0.00146432 0)
(-0.0159726 -0.00151699 0)
(-0.0154677 -0.00156507 0)
(-0.0149481 -0.00160833 0)
(-0.0144154 -0.0016466 0)
(-0.0138711 -0.00167969 0)
(-0.0133169 -0.00170748 0)
(-0.0127544 -0.00172985 0)
(-0.0121855 -0.00174672 0)
(-0.0116118 -0.00175804 0)
(-0.011035 -0.00176378 0)
(-0.0104569 -0.00176393 0)
(-0.0098792 -0.00175853 0)
(-0.00930371 -0.00174761 0)
(-0.00873209 -0.00173125 0)
(-0.00816606 -0.00170953 0)
(-0.00760728 -0.00168255 0)
(-0.00705738 -0.00165043 0)
(-0.00651797 -0.0016133 0)
(-0.00599062 -0.0015713 0)
(-0.00547684 -0.00152458 0)
(-0.00497813 -0.00147329 0)
(-0.0044959 -0.00141759 0)
(-0.00403155 -0.00135765 0)
(-0.00358641 -0.00129364 0)
(-0.00316177 -0.00122574 0)
(-0.00275885 -0.00115415 0)
(-0.00237881 -0.00107906 0)
(-0.00202274 -0.00100072 0)
(-0.00169165 -0.00091937 0)
(-0.00138646 -0.000835303 0)
(-0.001108 -0.000748864 0)
(-0.000856942 -0.00066046 0)
(-0.000633831 -0.000570584 0)
(-0.000439024 -0.000479837 0)
(-0.00027266 -0.000388959 0)
(-0.000134618 -0.000298862 0)
(-2.44622e-05 -0.00021067 0)
(5.86129e-05 -0.000125774 0)
(0.000115853 -4.5881e-05 0)
(0.000149019 2.69175e-05 0)
(0.000160458 9.00835e-05 0)
(0.000153196 0.000140571 0)
(0.000131032 0.000174785 0)
(9.85588e-05 0.000188568 0)
(6.11654e-05 0.000177268 0)
(2.62316e-05 0.000135876 0)
(5.24977e-06 5.90599e-05 0)
(-9.47065e-06 5.99396e-05 0)
(-6.70947e-05 0.000229159 0)
(-0.000193728 0.000421884 0)
(-0.000377118 0.000621123 0)
(-0.000611773 0.000815864 0)
(-0.000894113 0.000998892 0)
(-0.00121993 0.00116591 0)
(-0.00158476 0.00131477 0)
(-0.00198419 0.00144486 0)
(-0.0024139 0.00155657 0)
(-0.00286976 0.00165097 0)
(-0.00334791 0.00172946 0)
(-0.00384477 0.00179368 0)
(-0.00435713 0.00184529 0)
(-0.00488209 0.00188593 0)
(-0.0054171 0.00191714 0)
(-0.00595994 0.00194033 0)
(-0.00650866 0.00195675 0)
(-0.0070616 0.00196752 0)
(-0.00761733 0.00197358 0)
(-0.00817462 0.00197573 0)
(-0.00873243 0.00197463 0)
(-0.00928985 0.00197083 0)
(-0.00984613 0.00196476 0)
(-0.0104006 0.00195675 0)
(-0.0109526 0.00194703 0)
(-0.0115017 0.00193579 0)
(-0.0120473 0.00192313 0)
(-0.0125889 0.00190911 0)
(-0.0131262 0.00189373 0)
(-0.0136586 0.00187698 0)
(-0.0141857 0.00185879 0)
(-0.014707 0.00183909 0)
(-0.015222 0.00181778 0)
(-0.0157302 0.00179474 0)
(-0.0162311 0.00176985 0)
(-0.0167241 0.00174297 0)
(-0.0172085 0.00171397 0)
(-0.0176838 0.0016827 0)
(-0.0181492 0.00164902 0)
(-0.018604 0.00161279 0)
(-0.0190476 0.00157385 0)
(-0.0194791 0.00153209 0)
(-0.0198978 0.00148736 0)
(-0.0203027 0.00143955 0)
(-0.0206931 0.00138853 0)
(-0.021068 0.00133421 0)
(-0.0214266 0.00127649 0)
(-0.0217678 0.00121529 0)
(-0.0220909 0.00115055 0)
(-0.0223948 0.00108223 0)
(-0.0226785 0.00101029 0)
(-0.0229412 0.000934727 0)
(-0.0231819 0.000855558 0)
(-0.0233997 0.000772818 0)
(-0.0235936 0.000686569 0)
(-0.0237627 0.000596898 0)
(-0.0239063 0.000503919 0)
(-0.0240235 0.000407773 0)
(-0.0241136 0.000308631 0)
(-0.0241757 0.000206689 0)
(-0.0242094 0.000102176 0)
(-0.0242139 -4.65416e-06 0)
(-0.0241889 -0.000113515 0)
(-0.0241338 -0.000224099 0)
(-0.0240484 -0.000336069 0)
(-0.0239323 -0.000449064 0)
(-0.0237855 -0.000562699 0)
(-0.0236079 -0.000676571 0)
(-0.0233996 -0.000790257 0)
(-0.0231608 -0.000903319 0)
(-0.0228917 -0.00101531 0)
(-0.0225928 -0.00112576 0)
(-0.0222646 -0.00123422 0)
(-0.0219077 -0.00134022 0)
(-0.021523 -0.00144328 0)
(-0.0211113 -0.00154296 0)
(-0.0206735 -0.00163881 0)
(-0.0202109 -0.00173038 0)
(-0.0197246 -0.00181727 0)
(-0.0192159 -0.00189906 0)
(-0.0186862 -0.0019754 0)
(-0.0181371 -0.00204593 0)
(-0.0175701 -0.00211033 0)
(-0.0169868 -0.00216832 0)
(-0.016389 -0.00221964 0)
(-0.0157785 -0.00226409 0)
(-0.0151569 -0.00230148 0)
(-0.0145263 -0.00233166 0)
(-0.0138885 -0.00235452 0)
(-0.0132453 -0.00237001 0)
(-0.0125988 -0.00237808 0)
(-0.0119508 -0.00237873 0)
(-0.0113032 -0.00237199 0)
(-0.010658 -0.00235792 0)
(-0.0100171 -0.00233661 0)
(-0.00938221 -0.00230816 0)
(-0.00875528 -0.00227272 0)
(-0.00813809 -0.00223043 0)
(-0.0075324 -0.00218146 0)
(-0.00693992 -0.00212599 0)
(-0.00636234 -0.00206421 0)
(-0.00580128 -0.00199632 0)
(-0.00525831 -0.00192254 0)
(-0.00473496 -0.00184309 0)
(-0.0042327 -0.00175818 0)
(-0.00375294 -0.00166806 0)
(-0.00329702 -0.00157299 0)
(-0.00286622 -0.00147325 0)
(-0.00246172 -0.00136913 0)
(-0.00208465 -0.00126099 0)
(-0.001736 -0.00114922 0)
(-0.00141666 -0.00103429 0)
(-0.00112738 -0.00091675 0)
(-0.000868731 -0.000797272 0)
(-0.000641096 -0.000676668 0)
(-0.000444616 -0.000555927 0)
(-0.000279149 -0.000436262 0)
(-0.000144222 -0.000319152 0)
(-3.89679e-05 -0.000206404 0)
(3.79368e-05 -0.000100214 0)
(8.834e-05 -3.23148e-06 0)
(0.000114687 8.13677e-05 0)
(0.000120103 0.000149819 0)
(0.000108477 0.000197719 0)
(8.4499e-05 0.00021999 0)
(5.36634e-05 0.000210904 0)
(2.33563e-05 0.000164126 0)
(4.72107e-06 7.25003e-05 0)
(-1.16941e-05 9.78325e-05 0)
(-8.087e-05 0.000335357 0)
(-0.000230712 0.000590503 0)
(-0.000444995 0.000847023 0)
(-0.000716151 0.00109417 0)
(-0.00103941 0.00132482 0)
(-0.00140966 0.0015347 0)
(-0.00182176 0.00172174 0)
(-0.00227081 0.00188543 0)
(-0.00275213 0.00202638 0)
(-0.00326134 0.00214588 0)
(-0.00379434 0.00224566 0)
(-0.00434739 0.00232767 0)
(-0.00491709 0.00239393 0)
(-0.00550039 0.00244642 0)
(-0.00609461 0.00248701 0)
(-0.00669737 0.00251742 0)
(-0.00730659 0.00253918 0)
(-0.00792049 0.00255367 0)
(-0.0085375 0.00256206 0)
(-0.00915631 0.00256535 0)
(-0.00977574 0.00256436 0)
(-0.0103948 0.00255978 0)
(-0.0110126 0.00255215 0)
(-0.0116284 0.0025419 0)
(-0.0122415 0.00252933 0)
(-0.0128513 0.00251467 0)
(-0.0134572 0.00249807 0)
(-0.0140587 0.0024796 0)
(-0.0146551 0.00245928 0)
(-0.0152461 0.00243708 0)
(-0.0158309 0.00241294 0)
(-0.0164092 0.00238677 0)
(-0.0169803 0.00235844 0)
(-0.0175436 0.00232781 0)
(-0.0180985 0.00229474 0)
(-0.0186444 0.00225904 0)
(-0.0191806 0.00222056 0)
(-0.0197063 0.00217911 0)
(-0.0202208 0.00213452 0)
(-0.0207233 0.0020866 0)
(-0.021213 0.00203519 0)
(-0.021689 0.00198011 0)
(-0.0221504 0.0019212 0)
(-0.0225963 0.00185831 0)
(-0.0230258 0.0017913 0)
(-0.0234379 0.00172004 0)
(-0.0238316 0.00164442 0)
(-0.0242059 0.00156435 0)
(-0.0245597 0.00147975 0)
(-0.024892 0.00139057 0)
(-0.0252019 0.00129679 0)
(-0.0254882 0.00119839 0)
(-0.02575 0.00109542 0)
(-0.0259862 0.000987917 0)
(-0.0261959 0.000875973 0)
(-0.0263781 0.000759708 0)
(-0.0265319 0.000639274 0)
(-0.0266566 0.000514859 0)
(-0.0267511 0.000386687 0)
(-0.0268149 0.000255017 0)
(-0.0268471 0.000120144 0)
(-0.0268473 -1.7599e-05 0)
(-0.0268149 -0.000157848 0)
(-0.0267495 -0.000300202 0)
(-0.0266507 -0.000444228 0)
(-0.0265183 -0.000589465 0)
(-0.0263522 -0.000735422 0)
(-0.0261524 -0.000881582 0)
(-0.0259189 -0.00102741 0)
(-0.0256521 -0.00117235 0)
(-0.0253522 -0.00131582 0)
(-0.0250198 -0.00145726 0)
(-0.0246554 -0.00159607 0)
(-0.0242599 -0.00173165 0)
(-0.023834 -0.00186344 0)
(-0.0233787 -0.00199085 0)
(-0.0228952 -0.00211331 0)
(-0.0223847 -0.00223028 0)
(-0.0218485 -0.00234123 0)
(-0.0212881 -0.00244567 0)
(-0.0207049 -0.00254312 0)
(-0.0201007 -0.00263316 0)
(-0.0194771 -0.00271538 0)
(-0.018836 -0.00278943 0)
(-0.0181792 -0.002855 0)
(-0.0175087 -0.00291181 0)
(-0.0168263 -0.00295965 0)
(-0.0161342 -0.00299833 0)
(-0.0154343 -0.00302772 0)
(-0.0147287 -0.00304774 0)
(-0.0140196 -0.00305834 0)
(-0.0133089 -0.00305951 0)
(-0.0125988 -0.00305131 0)
(-0.0118912 -0.00303381 0)
(-0.0111883 -0.0030071 0)
(-0.010492 -0.00297134 0)
(-0.00980429 -0.00292669 0)
(-0.00912715 -0.00287333 0)
(-0.00846245 -0.00281149 0)
(-0.00781203 -0.00274138 0)
(-0.00717769 -0.00266324 0)
(-0.00656119 -0.00257733 0)
(-0.00596421 -0.00248391 0)
(-0.00538838 -0.00238326 0)
(-0.00483528 -0.00227566 0)
(-0.00430642 -0.00216142 0)
(-0.00380323 -0.00204087 0)
(-0.00332706 -0.00191436 0)
(-0.00287921 -0.00178229 0)
(-0.00246083 -0.00164509 0)
(-0.00207301 -0.00150329 0)
(-0.00171666 -0.00135748 0)
(-0.00139258 -0.00120838 0)
(-0.00110137 -0.00105686 0)
(-0.000843424 -0.000903943 0)
(-0.00061887 -0.000750895 0)
(-0.000427554 -0.000599242 0)
(-0.000268972 -0.000450837 0)
(-0.000142214 -0.000307916 0)
(-4.59091e-05 -0.000173171 0)
(2.18446e-05 -4.98162e-05 0)
(6.35444e-05 5.83368e-05 0)
(8.23578e-05 0.000146811 0)
(8.22047e-05 0.000210405 0)
(6.77896e-05 0.000243141 0)
(4.46124e-05 0.000238252 0)
(1.98881e-05 0.000188166 0)
(4.10217e-06 8.41822e-05 0)
(-1.36879e-05 0.000142574 0)
(-9.35307e-05 0.000459306 0)
(-0.0002651 0.000785375 0)
(-0.000508556 0.00110572 0)
(-0.000814368 0.0014103 0)
(-0.00117659 0.00169246 0)
(-0.00158915 0.00194826 0)
(-0.00204618 0.00217593 0)
(-0.00254228 0.00237525 0)
(-0.00307238 0.00254713 0)
(-0.00363181 0.0026932 0)
(-0.00421626 0.00281553 0)
(-0.00482182 0.00291644 0)
(-0.00544494 0.00299831 0)
(-0.00608245 0.00306346 0)
(-0.00673155 0.00311412 0)